/*--------------------------------*- C++ -*----------------------------------*\
  =========                 |
  \\      /  F ield         | OpenFOAM: The Open Source CFD Toolbox
   \\    /   O peration     | Website:  https://openfoam.org
    \\  /    A nd           | Version:  10
     \\/     M anipulation  |
\*---------------------------------------------------------------------------*/
FoamFile
{
    format      ascii;
    class       volScalarField;
    location    "0.250001";
    object      p;
}
// * * * * * * * * * * * * * * * * * * * * * * * * * * * * * * * * * * * * * //

dimensions      [1 -1 -2 0 0 0 0];

internalField   nonuniform List<scalar> 
15984
(
2.43508
2.4576
2.48018
2.50179
2.52145
2.53835
2.55186
2.56161
2.56746
2.56952
2.56833
2.56433
2.55785
2.54955
2.53999
2.52978
2.51941
2.50938
2.50018
2.49225
2.48599
2.48174
2.47978
2.48019
2.48295
2.48839
2.49622
2.50608
2.51748
2.52976
2.54217
2.55392
2.56424
2.57246
2.57804
2.58067
2.58031
2.5771
2.57073
2.56164
2.55021
2.53688
2.52206
2.50618
2.48963
2.47281
2.45609
2.43983
2.42435
2.40999
2.39705
2.38582
2.3766
2.36967
2.44303
2.46745
2.49167
2.5145
2.53491
2.55204
2.56532
2.57441
2.57928
2.58013
2.57782
2.57233
2.56454
2.55491
2.54408
2.53263
2.52104
2.50985
2.49948
2.49035
2.48281
2.47719
2.47375
2.47269
2.47392
2.47759
2.48371
2.49201
2.50205
2.51331
2.52511
2.53673
2.54742
2.55648
2.56334
2.56757
2.56894
2.5676
2.56346
2.55643
2.54701
2.53556
2.52248
2.50818
2.49303
2.47742
2.46172
2.44627
2.43141
2.41745
2.4047
2.39344
2.38398
2.37661
2.45181
2.47764
2.50295
2.52645
2.54706
2.56397
2.57664
2.58482
2.58857
2.58827
2.58476
2.57808
2.56909
2.55833
2.54649
2.53405
2.52156
2.50947
2.49821
2.48815
2.47961
2.47289
2.46823
2.46582
2.46577
2.46783
2.47236
2.47903
2.48764
2.49766
2.50856
2.5197
2.53038
2.53992
2.54771
2.55327
2.55628
2.5566
2.55451
2.54969
2.54234
2.53291
2.52174
2.50922
2.49569
2.48154
2.4671
2.45273
2.43874
2.42544
2.41313
2.40211
2.39267
2.3851
2.46112
2.48783
2.51363
2.53721
2.55751
2.57376
2.58551
2.59259
2.59515
2.59382
2.5891
2.5814
2.57143
2.55983
2.54723
2.53412
2.52099
2.50828
2.49638
2.48565
2.47637
2.46881
2.46317
2.45964
2.45834
2.45921
2.46216
2.4673
2.47442
2.4831
2.49288
2.50325
2.51358
2.52322
2.53159
2.53817
2.54257
2.54457
2.54415
2.54149
2.53633
2.52901
2.51989
2.50932
2.49762
2.48514
2.4722
2.45914
2.44627
2.43389
2.42229
2.41176
2.40258
2.39506
2.47065
2.49765
2.52333
2.54642
2.56591
2.58113
2.5917
2.59757
2.5989
2.59664
2.5908
2.58235
2.57167
2.55952
2.5464
2.53285
2.51932
2.50624
2.49397
2.48281
2.47304
2.46487
2.4585
2.45408
2.45172
2.45152
2.45314
2.4569
2.46252
2.46979
2.47835
2.48772
2.4974
2.50683
2.51543
2.5227
2.52821
2.53167
2.53293
2.53209
2.52908
2.52398
2.51702
2.50854
2.49885
2.48824
2.47703
2.46552
2.454
2.44278
2.43213
2.42232
2.41364
2.40638
2.48008
2.50677
2.53175
2.55381
2.57206
2.58592
2.59513
2.59969
2.5999
2.59679
2.59016
2.58103
2.56987
2.55737
2.54398
2.53023
2.51656
2.50335
2.49093
2.47959
2.46955
2.46102
2.45415
2.44906
2.44587
2.44466
2.44532
2.4477
2.45198
2.45788
2.46514
2.47338
2.48221
2.49114
2.49967
2.50731
2.51363
2.51829
2.52109
2.52191
2.52091
2.51801
2.51327
2.50701
2.49945
2.49089
2.4816
2.47185
2.46192
2.45209
2.4426
2.43374
2.42576
2.41897
2.48907
2.51489
2.53863
2.5592
2.57585
2.58812
2.59585
2.59911
2.59833
2.59435
2.58713
2.57755
2.56611
2.55345
2.54003
2.52631
2.51272
2.4996
2.48725
2.47594
2.46585
2.45716
2.45
2.44448
2.44067
2.43865
2.43843
2.43973
2.4428
2.44738
2.45337
2.46044
2.46827
2.4765
2.4847
2.49242
2.49925
2.50485
2.50896
2.51142
2.51215
2.51133
2.50885
2.50485
2.49957
2.49319
2.48598
2.47818
2.47003
2.46178
2.45367
2.44594
2.43886
2.4327
2.49734
2.52178
2.54381
2.56254
2.57732
2.58785
2.59403
2.59598
2.59435
2.58952
2.58188
2.57202
2.56051
2.5479
2.53464
2.52115
2.50783
2.49498
2.48291
2.47181
2.46186
2.45321
2.44597
2.44021
2.43599
2.43338
2.43239
2.43288
2.43486
2.43831
2.44306
2.44899
2.45579
2.46319
2.47086
2.47842
2.48551
2.49178
2.49696
2.50083
2.50329
2.50432
2.50397
2.50228
2.49931
2.49524
2.49025
2.48455
2.47835
2.47186
2.4653
2.45885
2.45281
2.44741
2.50467
2.5273
2.5473
2.56389
2.57663
2.5853
2.58988
2.59057
2.58817
2.58258
2.57463
2.56465
2.55321
2.54081
2.52787
2.51478
2.5019
2.4895
2.47785
2.46714
2.4575
2.44907
2.44192
2.43612
2.4317
2.4287
2.42712
2.42698
2.42808
2.43053
2.43421
2.43907
2.44485
2.45138
2.45841
2.46564
2.47276
2.47946
2.48547
2.49055
2.49455
2.49739
2.49904
2.49949
2.49887
2.49716
2.49449
2.49102
2.4869
2.4823
2.47741
2.4724
2.4675
2.46295
2.51093
2.53143
2.54909
2.56339
2.57397
2.58072
2.5837
2.58327
2.57996
2.57388
2.56564
2.55563
2.5444
2.53233
2.51983
2.50726
2.49494
2.48313
2.47205
2.46186
2.45268
2.44462
2.43774
2.43206
2.42763
2.42444
2.4225
2.42182
2.42231
2.42394
2.42674
2.43062
2.43548
2.44117
2.44752
2.45432
2.46132
2.46825
2.47487
2.48095
2.48629
2.49077
2.49432
2.49689
2.49847
2.49908
2.49878
2.49763
2.49568
2.49307
2.48996
2.48645
2.48276
2.47909
2.51607
2.53421
2.54939
2.56127
2.56964
2.57446
2.57587
2.57441
2.57016
2.56364
2.55518
2.54522
2.53422
2.52256
2.51059
2.49864
2.48698
2.47585
2.46544
2.45589
2.44731
2.43977
2.43332
2.42797
2.4237
2.42051
2.41841
2.41738
2.41745
2.41845
2.42051
2.42359
2.42765
2.43258
2.43828
2.44461
2.45139
2.45842
2.46548
2.47235
2.47884
2.4848
2.4901
2.49465
2.49839
2.50126
2.50327
2.5044
2.50465
2.50414
2.50284
2.50087
2.4984
2.4956
2.52013
2.53574
2.54839
2.55784
2.56398
2.56691
2.5668
2.56426
2.55921
2.55216
2.5435
2.53361
2.52287
2.51165
2.50024
2.48895
2.47801
2.46763
2.45798
2.44917
2.44132
2.43445
2.4286
2.42371
2.41978
2.41678
2.41471
2.41354
2.41331
2.41394
2.41545
2.41788
2.42128
2.42556
2.43068
2.43658
2.44312
2.45016
2.45753
2.46503
2.4725
2.47975
2.48664
2.49303
2.4988
2.50385
2.50809
2.51146
2.5139
2.51538
2.51587
2.51547
2.51422
2.51221
2.52319
2.53626
2.54636
2.55338
2.55736
2.55844
2.557
2.55315
2.54737
2.53978
2.53089
2.52103
2.51053
2.49971
2.48886
2.47823
2.46803
2.45843
2.4496
2.44163
2.43462
2.42854
2.42338
2.4191
2.41567
2.41303
2.41117
2.41007
2.40976
2.41019
2.41139
2.41339
2.41629
2.42006
2.4247
2.43023
2.43656
2.44358
2.45118
2.4592
2.46749
2.47587
2.48417
2.49223
2.49988
2.50697
2.51334
2.51885
2.52338
2.52679
2.52902
2.53001
2.52982
2.5286
2.52545
2.53596
2.54356
2.54826
2.55014
2.54951
2.54663
2.54162
2.53491
2.52677
2.5176
2.50768
2.49735
2.48688
2.47652
2.4665
2.45702
2.44819
2.44028
2.43314
2.42707
2.42185
2.41751
2.41399
2.4112
2.4091
2.40763
2.40679
2.4066
2.40701
2.40811
2.40989
2.4125
2.41596
2.4203
2.42551
2.43169
2.43872
2.44652
2.45498
2.46398
2.47333
2.48288
2.49244
2.5018
2.51075
2.51909
2.5266
2.53306
2.53828
2.54209
2.54437
2.54504
2.54429
2.52708
2.53513
2.54033
2.54279
2.54267
2.54048
2.53604
2.52986
2.52221
2.51344
2.50385
2.49377
2.48347
2.47322
2.46325
2.45376
2.44491
2.43685
2.42979
2.42364
2.41849
2.41426
2.41087
2.40824
2.40625
2.40485
2.40396
2.40357
2.40367
2.40427
2.40545
2.40724
2.40976
2.41308
2.41727
2.42239
2.42846
2.43554
2.44355
2.45242
2.46204
2.47225
2.48289
2.49376
2.50464
2.51527
2.52538
2.53469
2.54291
2.54974
2.55494
2.55828
2.55961
2.55899
2.52831
2.53399
2.53691
2.53727
2.53548
2.53144
2.52557
2.51815
2.50951
2.49998
2.48986
2.47945
2.46901
2.45881
2.44905
2.43994
2.43165
2.42429
2.41806
2.41288
2.40878
2.40562
2.40331
2.40172
2.4007
2.40015
2.40002
2.40024
2.40084
2.40184
2.40327
2.40527
2.4079
2.41126
2.41545
2.42058
2.42672
2.43392
2.4422
2.45147
2.46165
2.47262
2.48422
2.49625
2.50846
2.52056
2.53223
2.54311
2.55285
2.56106
2.5674
2.57154
2.57323
2.57245
2.52934
2.53279
2.53359
2.53217
2.52849
2.5228
2.51546
2.50677
2.49704
2.4866
2.47577
2.46481
2.45401
2.44361
2.43386
2.42495
2.41703
2.41034
2.40488
2.40073
2.39773
2.39577
2.39468
2.39429
2.3944
2.39488
2.39567
2.39671
2.39799
2.39955
2.40146
2.40382
2.40673
2.41031
2.4147
2.41999
2.42631
2.43373
2.44231
2.45199
2.46271
2.47438
2.48683
2.49987
2.51322
2.52658
2.53958
2.5518
2.56281
2.57214
2.57935
2.584
2.58574
2.5844
2.53035
2.53173
2.53073
2.52745
2.52202
2.51473
2.50593
2.4959
2.48498
2.47347
2.46168
2.44991
2.43844
2.42755
2.41752
2.40857
2.40098
2.39469
2.39003
2.38691
2.38512
2.3845
2.38481
2.38579
2.38724
2.38895
2.39084
2.39286
2.395
2.39731
2.39985
2.40275
2.40611
2.41008
2.4148
2.42041
2.42703
2.43477
2.4437
2.45383
2.46509
2.47739
2.49058
2.5045
2.51883
2.53326
2.54737
2.56069
2.57271
2.58289
2.59071
2.59549
2.59709
2.59501
2.5315
2.5311
2.52837
2.52332
2.51626
2.50741
2.49713
2.48571
2.47345
2.46065
2.44764
2.43472
2.42221
2.41044
2.39976
2.39047
2.38287
2.37701
2.37312
2.37108
2.37066
2.37151
2.37347
2.37611
2.37909
2.38223
2.38543
2.38862
2.39179
2.395
2.39834
2.40192
2.40588
2.41039
2.41558
2.42163
2.42867
2.43681
2.44616
2.45675
2.46854
2.48143
2.49529
2.50996
2.52512
2.54044
2.55546
2.56966
2.58248
2.59325
2.60137
2.6062
2.6076
2.60429
2.53294
2.53103
2.52657
2.51995
2.51132
2.50097
2.48921
2.47631
2.46253
2.44821
2.43365
2.41918
2.40515
2.39197
2.38019
2.37018
2.36228
2.35667
2.35358
2.35278
2.35379
2.35657
2.36051
2.36503
2.36981
2.37464
2.37937
2.38391
2.38829
2.39255
2.39682
2.40122
2.40592
2.41108
2.41687
2.42345
2.43099
2.43961
2.44943
2.4605
2.4728
2.48623
2.50069
2.516
2.53186
2.54791
2.56368
2.5786
2.59201
2.60313
2.61163
2.61652
2.61766
2.61344
2.53486
2.53137
2.5255
2.51736
2.50728
2.49549
2.48223
2.46776
2.45233
2.43618
2.41971
2.40323
2.38711
2.3718
2.35828
2.34704
2.33843
2.33298
2.3307
2.33128
2.33418
2.33925
2.34552
2.35233
2.35929
2.36611
2.37261
2.37872
2.38445
2.38991
2.39522
2.40055
2.40608
2.41199
2.41846
2.42567
2.43378
2.44293
2.45323
2.46477
2.47755
2.49148
2.50645
2.5223
2.53876
2.55542
2.57181
2.58729
2.60122
2.61262
2.62136
2.62622
2.62654
2.61833
2.53712
2.53229
2.52509
2.51564
2.50423
2.49103
2.47628
2.46014
2.44284
2.4248
2.40588
2.38741
2.36841
2.34999
2.33385
2.32059
2.3104
2.30498
2.30372
2.30584
2.31121
2.31906
2.32814
2.33776
2.34737
2.35655
2.3651
2.37297
2.38023
2.38701
2.39348
2.39983
2.40627
2.41299
2.4202
2.42807
2.43679
2.44648
2.45728
2.46927
2.48248
2.49684
2.51224
2.52854
2.54548
2.56266
2.57955
2.59555
2.60993
2.62167
2.63038
2.63397
2.6344
2.63555
2.53965
2.53372
2.52537
2.5148
2.50216
2.48762
2.47136
2.4536
2.43431
2.41444
2.3931
2.37247
2.35023
2.32768
2.30815
2.29154
2.27797
2.27236
2.27197
2.27605
2.28422
2.29533
2.30799
2.32117
2.33398
2.34593
2.35683
2.36669
2.37562
2.38383
2.39154
2.39897
2.40636
2.41394
2.42192
2.43048
2.4398
2.45003
2.46128
2.47368
2.48725
2.50194
2.51768
2.53435
2.55168
2.56929
2.58663
2.60307
2.6177
2.63
2.63926
2.64862
2.65242
2.65014
2.54243
2.53556
2.52627
2.51473
2.50102
2.48525
2.46759
2.44828
2.42746
2.40574
2.38244
2.3592
2.33274
2.30575
2.28097
2.26122
2.24238
2.23446
2.23551
2.24202
2.25284
2.26767
2.28476
2.30224
2.31891
2.33416
2.34778
2.35986
2.37063
2.38036
2.38935
2.39789
2.40627
2.41472
2.42346
2.4327
2.44261
2.45333
2.46499
2.47771
2.49154
2.50647
2.52245
2.53937
2.55703
2.575
2.59271
2.60935
2.62427
2.63778
2.65146
2.66137
2.66376
2.65814
2.54536
2.53771
2.52768
2.51533
2.50074
2.48395
2.46515
2.44474
2.42303
2.39887
2.37206
2.34431
2.31653
2.28736
2.25776
2.22981
2.2055
2.19174
2.19418
2.20475
2.21713
2.23775
2.25988
2.28191
2.3027
2.32153
2.3381
2.35257
2.36526
2.37656
2.38687
2.39655
2.4059
2.41521
2.4247
2.43458
2.44502
2.45617
2.46816
2.4811
2.49509
2.51012
2.52621
2.54331
2.56122
2.57952
2.59739
2.61419
2.63011
2.64725
2.65959
2.66676
2.66686
2.65946
2.54815
2.54001
2.52946
2.5165
2.50118
2.4838
2.46432
2.44262
2.41887
2.39032
2.36297
2.33283
2.30022
2.26614
2.23139
2.19761
2.16784
2.14951
2.14998
2.15704
2.17499
2.20579
2.23364
2.26031
2.28566
2.30832
2.32799
2.34491
2.35954
2.37242
2.38404
2.39484
2.40515
2.41529
2.4255
2.43598
2.44689
2.45838
2.47059
2.48364
2.49763
2.51262
2.52868
2.54581
2.56391
2.58256
2.6003
2.6176
2.6345
2.65204
2.66097
2.66469
2.66288
2.65421
2.5506
2.54224
2.53142
2.51813
2.50244
2.48466
2.46465
2.4397
2.41421
2.38436
2.35233
2.31855
2.28277
2.24536
2.20721
2.17003
2.13695
2.11349
2.10855
2.1192
2.13687
2.17529
2.20766
2.23897
2.26884
2.29524
2.31786
2.3371
2.3536
2.368
2.38087
2.39272
2.40395
2.41489
2.42576
2.43677
2.44808
2.45982
2.47214
2.48516
2.49899
2.51379
2.52966
2.54667
2.56465
2.58382
2.60116
2.61516
2.63684
2.64834
2.65471
2.65638
2.6529
2.64307
2.55247
2.54413
2.53337
2.52029
2.50421
2.48469
2.4612
2.43666
2.40718
2.37453
2.34067
2.3049
2.26669
2.22654
2.18543
2.14561
2.11081
2.08468
2.0747
2.08627
2.10972
2.1493
2.18571
2.22116
2.2542
2.2833
2.30824
2.32943
2.34755
2.36329
2.37731
2.39015
2.40225
2.41391
2.42539
2.43687
2.44849
2.46038
2.47269
2.48555
2.49909
2.51356
2.529
2.54556
2.56305
2.58326
2.59597
2.61671
2.62964
2.639
2.64341
2.64343
2.63819
2.62693
2.5536
2.54554
2.53506
2.52227
2.50384
2.4832
2.45853
2.42929
2.39805
2.36454
2.32942
2.29193
2.25171
2.20951
2.16645
2.12596
2.09021
2.06403
2.05449
2.06567
2.08986
2.12985
2.16958
2.20733
2.24225
2.2731
2.2996
2.3222
2.34156
2.3584
2.37339
2.38711
2.39998
2.41232
2.42436
2.43624
2.44809
2.46003
2.47221
2.48481
2.49782
2.51185
2.52681
2.54085
2.56082
2.58206
2.593
2.608
2.61914
2.62598
2.62852
2.62666
2.6196
2.60668
2.55344
2.54618
2.53523
2.52004
2.5017
2.47668
2.45012
2.42129
2.38949
2.35512
2.31858
2.27967
2.23843
2.19548
2.15209
2.11188
2.07851
2.05439
2.04584
2.05709
2.08352
2.12023
2.16009
2.19846
2.2338
2.26511
2.29227
2.31563
2.33578
2.35342
2.36919
2.38363
2.39717
2.4101
2.42262
2.43483
2.44683
2.45871
2.47065
2.48316
2.49511
2.50773
2.52565
2.53853
2.55323
2.57185
2.58578
2.59738
2.60586
2.61016
2.61074
2.60688
2.59782
2.58296
2.54916
2.54429
2.53653
2.51522
2.49259
2.46853
2.44189
2.41263
2.38062
2.346
2.30888
2.26934
2.22787
2.18559
2.14398
2.10538
2.07617
2.05309
2.04673
2.06044
2.08771
2.12265
2.15895
2.19514
2.22897
2.25949
2.28643
2.30988
2.33035
2.34844
2.36474
2.37975
2.39384
2.40727
2.42019
2.43266
2.44471
2.45636
2.46766
2.47848
2.49157
2.50783
2.51706
2.53109
2.54739
2.56198
2.57432
2.58397
2.59001
2.59212
2.59063
2.58466
2.5734
2.55626
2.54909
2.53367
2.52109
2.50401
2.48322
2.45947
2.43297
2.40374
2.37186
2.33738
2.30044
2.26123
2.22044
2.17964
2.14058
2.10643
2.07941
2.06219
2.05869
2.07168
2.09654
2.12828
2.16193
2.19556
2.22721
2.25614
2.28206
2.30502
2.32536
2.3436
2.36019
2.37556
2.39005
2.40388
2.41711
2.42975
2.44178
2.45313
2.46397
2.47539
2.48622
2.49641
2.51104
2.52501
2.53855
2.55072
2.56096
2.56856
2.57234
2.57262
2.56888
2.56049
2.54676
2.52703
2.53928
2.52734
2.5128
2.49468
2.47377
2.45023
2.424
2.39513
2.36372
2.32985
2.29369
2.25564
2.21679
2.17837
2.14295
2.11371
2.08945
2.07768
2.07646
2.08865
2.11052
2.13832
2.16831
2.19856
2.22778
2.25478
2.2792
2.30119
2.32101
2.33902
2.35564
2.37118
2.38591
2.39999
2.41343
2.4261
2.43793
2.44897
2.45896
2.46792
2.47951
2.49154
2.50423
2.51642
2.52785
2.53804
2.54638
2.55175
2.55364
2.5519
2.54565
2.53475
2.51832
2.49574
2.5278
2.51657
2.50214
2.48462
2.46418
2.44109
2.41541
2.38728
2.35668
2.32379
2.28894
2.25276
2.21605
2.18051
2.14903
2.12448
2.10346
2.09524
2.09614
2.10714
2.12593
2.14996
2.17645
2.20361
2.23003
2.25491
2.27768
2.29849
2.31748
2.33496
2.3513
2.36675
2.38152
2.39567
2.40918
2.42174
2.43285
2.4426
2.45314
2.46274
2.47344
2.48466
2.49573
2.50633
2.51613
2.5246
2.53104
2.53422
2.53435
2.53044
2.52182
2.50802
2.4885
2.46289
2.51751
2.50637
2.49208
2.47486
2.45499
2.43261
2.40775
2.38063
2.35112
2.31961
2.2865
2.25216
2.21771
2.18503
2.15706
2.13639
2.11877
2.11363
2.11566
2.12549
2.14172
2.16247
2.18567
2.20982
2.23357
2.25618
2.2773
2.29676
2.31477
2.33155
2.34737
2.36244
2.37693
2.39091
2.40423
2.41616
2.42635
2.43746
2.44717
2.45654
2.46649
2.47657
2.48644
2.49574
2.50408
2.51091
2.51526
2.51667
2.51478
2.50859
2.49736
2.48044
2.45775
2.42908
2.50718
2.49635
2.48243
2.46581
2.44672
2.42525
2.40145
2.37556
2.34747
2.31762
2.28619
2.25391
2.22198
2.19227
2.16711
2.14947
2.13421
2.13152
2.13411
2.14306
2.15721
2.17519
2.19547
2.21679
2.23806
2.25853
2.2779
2.29602
2.31293
2.32884
2.34393
2.35839
2.37232
2.38578
2.39862
2.4099
2.41833
2.43177
2.4408
2.44988
2.45922
2.46839
2.4772
2.4853
2.49221
2.49732
2.49967
2.49937
2.49532
2.48669
2.47269
2.45271
2.42669
2.39502
2.49743
2.48696
2.47365
2.45787
2.43975
2.41939
2.39684
2.37245
2.34592
2.31768
2.28812
2.25798
2.22841
2.20106
2.17793
2.16136
2.15151
2.14801
2.15099
2.15934
2.17187
2.18765
2.20544
2.22438
2.24335
2.26186
2.27952
2.29626
2.31202
2.32696
2.34119
2.35484
2.36798
2.38075
2.39266
2.40286
2.41248
2.42562
2.43456
2.44355
2.4523
2.46071
2.4685
2.47537
2.48085
2.48408
2.48484
2.48255
2.47624
2.46503
2.44811
2.42499
2.39571
2.36147
2.48864
2.47873
2.46622
2.4514
2.43438
2.41528
2.39419
2.37135
2.34641
2.31996
2.29229
2.26415
2.23666
2.21134
2.19007
2.17482
2.16738
2.16355
2.16658
2.17418
2.18556
2.19963
2.21551
2.23231
2.24937
2.26609
2.28218
2.29755
2.31217
2.32606
2.33933
2.35211
2.36446
2.37644
2.38739
2.39549
2.40956
2.42053
2.4293
2.43804
2.44627
2.45387
2.46065
2.46627
2.47017
2.47173
2.47082
2.46642
2.45772
2.4438
2.4239
2.39769
2.36562
2.32936
2.48122
2.47199
2.46039
2.44661
2.43078
2.41306
2.39347
2.37219
2.349
2.32435
2.29852
2.27221
2.24646
2.22275
2.20282
2.18863
2.18214
2.17645
2.18032
2.18799
2.19835
2.21119
2.22552
2.2407
2.25609
2.27126
2.28592
2.29997
2.31341
2.32627
2.33858
2.35044
2.36195
2.37304
2.38304
2.39089
2.40642
2.41652
2.42535
2.43374
2.44139
2.44813
2.45385
2.45819
2.46036
2.46048
2.45765
2.45107
2.43984
2.42312
2.40024
2.37119
2.33689
2.29953
2.47546
2.46701
2.45634
2.44364
2.42904
2.4126
2.39462
2.37491
2.3535
2.33067
2.30665
2.28199
2.25772
2.23519
2.21599
2.20178
2.19417
2.1921
2.19369
2.20042
2.21051
2.22235
2.23559
2.24944
2.26348
2.27731
2.29068
2.30349
2.31572
2.32751
2.33891
2.34995
2.36042
2.37064
2.37983
2.39257
2.40423
2.41428
2.42296
2.43089
2.43776
2.44361
2.44823
2.45098
2.4518
2.45018
2.44532
2.43641
2.42257
2.403
2.37728
2.3458
2.31004
2.27269
2.47157
2.46391
2.45415
2.44246
2.42901
2.41388
2.3974
2.37931
2.35961
2.33854
2.3162
2.293
2.26989
2.24819
2.22948
2.21535
2.2075
2.20613
2.2058
2.21235
2.22225
2.23338
2.24573
2.25858
2.27152
2.28419
2.2964
2.30803
2.31917
2.32985
2.34012
2.3506
2.36039
2.37147
2.38127
2.39352
2.4046
2.41404
2.42223
2.42941
2.43549
2.4403
2.44353
2.44485
2.4442
2.4407
2.43367
2.4223
2.40573
2.38334
2.35505
2.32176
2.28551
2.24946
2.4696
2.46266
2.45371
2.44295
2.43058
2.41667
2.40154
2.38508
2.367
2.34764
2.32697
2.30527
2.28325
2.26229
2.24383
2.22932
2.22112
2.21782
2.21921
2.22615
2.23398
2.24473
2.25613
2.26818
2.28019
2.29184
2.30296
2.31346
2.32329
2.33264
2.34203
2.35362
2.36536
2.37383
2.38481
2.39611
2.40683
2.41535
2.42291
2.42925
2.43431
2.43792
2.43966
2.4397
2.43724
2.43172
2.42238
2.40839
2.38903
2.36393
2.33348
2.29918
2.26363
2.23009
2.46946
2.46313
2.45487
2.44491
2.43349
2.42068
2.40666
2.39171
2.37513
2.35738
2.33832
2.31807
2.29725
2.27696
2.25884
2.24433
2.2354
2.23337
2.23072
2.238
2.24677
2.25633
2.26683
2.27823
2.2894
2.29999
2.30995
2.3192
2.32891
2.33778
2.34924
2.35794
2.36797
2.38083
2.39083
2.40129
2.4107
2.41824
2.4248
2.43006
2.43395
2.43609
2.43655
2.43498
2.43061
2.42289
2.41104
2.39429
2.37211
2.3445
2.31243
2.27804
2.24436
2.21465
2.47092
2.46509
2.45738
2.44808
2.43739
2.42549
2.41246
2.39869
2.38363
2.36733
2.34978
2.33102
2.31145
2.29208
2.27425
2.25946
2.24966
2.2446
2.24819
2.25298
2.25938
2.26877
2.27811
2.28898
2.29946
2.30906
2.31806
2.32663
2.33767
2.34934
2.35568
2.36675
2.37729
2.38888
2.39888
2.40817
2.416
2.42245
2.42768
2.4316
2.43402
2.43479
2.43372
2.43029
2.42386
2.41376
2.39921
2.37956
2.35456
2.32475
2.29171
2.25816
2.2274
2.20277
2.47372
2.46823
2.46092
2.45209
2.44194
2.43072
2.41855
2.40548
2.39183
2.37675
2.3607
2.34356
2.32555
2.30741
2.2903
2.2755
2.26484
2.26008
2.25958
2.26819
2.27405
2.28224
2.29181
2.29998
2.31004
2.31867
2.32855
2.34067
2.3471
2.35824
2.36849
2.37962
2.38995
2.40008
2.40871
2.4163
2.42253
2.42753
2.43122
2.43348
2.43438
2.4336
2.43071
2.42533
2.41663
2.40394
2.38651
2.36384
2.3361
2.30444
2.27113
2.23931
2.21257
2.19419
2.47749
2.47218
2.46509
2.45655
2.44675
2.43598
2.42439
2.41205
2.39898
2.38536
2.3705
2.35499
2.33885
2.32255
2.3069
2.29275
2.28179
2.27706
2.27862
2.27946
2.28984
2.29608
2.30457
2.31359
2.32484
2.33684
2.34666
2.35378
2.36324
2.37493
2.38508
2.3954
2.4046
2.41272
2.41973
2.42543
2.42994
2.43318
2.43511
2.43569
2.43491
2.43226
2.42737
2.41979
2.40862
2.39314
2.37265
2.34691
2.31653
2.28343
2.25051
2.22132
2.19987
2.18773
2.48179
2.47652
2.46948
2.46105
2.45143
2.44091
2.42967
2.41782
2.40541
2.39244
2.37908
2.36496
2.35073
2.3367
2.32336
2.31124
2.3018
2.29699
2.29665
2.30005
2.31082
2.31939
2.327
2.33759
2.34757
2.35513
2.36576
2.37421
2.38427
2.39525
2.40409
2.41287
2.4202
2.42651
2.4316
2.43545
2.43806
2.43931
2.43944
2.43825
2.43547
2.43075
2.42364
2.41364
2.39977
2.3813
2.35761
2.32875
2.29592
2.26174
2.22985
2.20441
2.18856
2.18266
2.48622
2.48084
2.47371
2.46522
2.45561
2.44519
2.43415
2.42263
2.41073
2.39847
2.38612
2.37359
2.36119
2.34955
2.339
2.32999
2.32371
2.32084
2.32069
2.32409
2.33148
2.3391
2.34837
2.35908
2.36982
2.37862
2.3893
2.39888
2.40774
2.41693
2.42437
2.43122
2.43681
2.44126
2.4444
2.44625
2.44687
2.44636
2.44451
2.44125
2.43633
2.42938
2.41982
2.40708
2.39028
2.36863
2.3416
2.30958
2.27443
2.23952
2.2095
2.18859
2.17845
2.17664
2.49028
2.48468
2.47736
2.46871
2.459
2.44856
2.43762
2.42637
2.41495
2.40345
2.39205
2.38117
2.37074
2.36154
2.3539
2.3482
2.34547
2.34496
2.34702
2.35201
2.35836
2.3658
2.37566
2.38527
2.39708
2.40668
2.41571
2.42459
2.43217
2.43947
2.44546
2.45057
2.45444
2.45702
2.45823
2.45833
2.45712
2.4546
2.4507
2.44528
2.43809
2.42869
2.41641
2.4007
2.3807
2.35567
2.32518
2.28996
2.2525
2.21721
2.18991
2.17391
2.16835
2.17078
2.4935
2.48758
2.47999
2.47115
2.46132
2.45086
2.44004
2.42909
2.4182
2.40756
2.3974
2.3881
2.3799
2.37317
2.36841
2.36623
2.36609
2.3683
2.37275
2.37914
2.38681
2.39533
2.40513
2.41477
2.42503
2.43412
2.44245
2.45012
2.45671
2.46255
2.46721
2.47077
2.47305
2.47398
2.47369
2.47213
2.46917
2.46476
2.45882
2.45116
2.4415
2.42949
2.41427
2.39532
2.37187
2.34326
2.30919
2.27059
2.2307
2.19507
2.17168
2.15981
2.15762
2.16565
2.49543
2.48913
2.48123
2.47217
2.46227
2.45188
2.44132
2.43084
2.42069
2.41112
2.4024
2.39497
2.38898
2.38488
2.38323
2.38355
2.38616
2.39085
2.39738
2.40528
2.41419
2.42377
2.43344
2.44307
2.45235
2.46082
2.46842
2.47516
2.48088
2.48565
2.48933
2.4917
2.4927
2.49258
2.49101
2.48806
2.48359
2.4775
2.46965
2.45977
2.44751
2.43256
2.41444
2.392
2.36482
2.33238
2.29445
2.2521
2.20927
2.17417
2.15306
2.14603
2.14828
2.16235
2.49566
2.48894
2.48075
2.47153
2.46164
2.45147
2.44135
2.43159
2.42245
2.41424
2.40726
2.4018
2.39829
2.39702
2.39775
2.4007
2.40575
2.41263
2.42094
2.43019
2.44
2.45004
2.45989
2.4693
2.47808
2.48601
2.49301
2.49913
2.50431
2.50855
2.51156
2.51316
2.51356
2.5127
2.51033
2.50642
2.50081
2.49334
2.4838
2.47187
2.45714
2.43914
2.41757
2.39184
2.36079
2.32429
2.28233
2.23596
2.18953
2.15418
2.13584
2.13194
2.14188
2.16252
2.49382
2.48671
2.47828
2.46902
2.45931
2.44957
2.44015
2.43138
2.42356
2.41698
2.41197
2.40891
2.40795
2.40903
2.4123
2.41765
2.42481
2.43343
2.44312
2.45336
2.46382
2.47413
2.48396
2.49315
2.5016
2.50921
2.51593
2.52179
2.52678
2.53082
2.53361
2.535
2.53525
2.53418
2.53149
2.5271
2.52082
2.51239
2.50155
2.48793
2.47105
2.45034
2.42527
2.39557
2.36078
2.31985
2.2732
2.22161
2.16923
2.1286
2.11046
2.10854
2.1326
2.16766
2.48957
2.48211
2.47357
2.46445
2.45515
2.44611
2.43768
2.43021
2.42399
2.41936
2.4167
2.41603
2.41741
2.42097
2.42659
2.43404
2.44301
2.45307
2.46382
2.47475
2.48558
2.49599
2.50574
2.51476
2.52299
2.53039
2.53699
2.54282
2.54789
2.55211
2.55517
2.55685
2.55731
2.55649
2.55397
2.54959
2.54312
2.53423
2.52259
2.50779
2.4893
2.46647
2.43855
2.40495
2.36544
2.32009
2.26807
2.21056
2.14993
2.10298
2.0847
2.08993
2.1467
2.20942
2.36534
2.36385
2.36513
2.3693
2.37683
2.38787
2.40209
2.41921
2.43874
2.46011
2.48253
2.5052
2.52723
2.54783
2.56625
2.58193
2.59448
2.60368
2.6095
2.61211
2.37163
2.36934
2.36989
2.373
2.37944
2.38943
2.40275
2.41919
2.43833
2.45959
2.48222
2.50532
2.52798
2.54931
2.56849
2.5849
2.59807
2.60778
2.61398
2.61684
2.37971
2.37682
2.37675
2.37902
2.38455
2.3935
2.40583
2.42143
2.43993
2.46077
2.48319
2.5063
2.52914
2.55077
2.57032
2.58712
2.60068
2.61075
2.61729
2.62043
2.38949
2.38622
2.38559
2.38724
2.39201
2.39993
2.41127
2.42589
2.4435
2.46357
2.48539
2.50806
2.53061
2.55209
2.57161
2.58846
2.60216
2.61244
2.61925
2.62271
2.40086
2.3974
2.39636
2.39755
2.40159
2.40854
2.41885
2.43239
2.44888
2.46787
2.48868
2.51046
2.53226
2.55313
2.57221
2.5888
2.60241
2.61275
2.61977
2.6236
2.41367
2.41018
2.40886
2.40971
2.41301
2.41905
2.4283
2.44065
2.45582
2.47344
2.49288
2.51336
2.53396
2.5538
2.57206
2.58809
2.60138
2.61166
2.61885
2.62307
2.42777
2.42438
2.42288
2.42338
2.42604
2.43119
2.4393
2.45032
2.46402
2.48002
2.49779
2.5166
2.53562
2.55406
2.57117
2.58633
2.59909
2.60917
2.61649
2.62115
2.44296
2.43975
2.43812
2.4383
2.44027
2.44455
2.45144
2.46101
2.47307
2.48727
2.50312
2.51997
2.53713
2.55388
2.56957
2.58364
2.59568
2.60544
2.61284
2.61793
2.45903
2.45603
2.45427
2.45405
2.45534
2.45867
2.46426
2.47226
2.48257
2.49478
2.50855
2.52328
2.53837
2.55323
2.5673
2.58012
2.59132
2.60068
2.60811
2.61363
2.4757
2.47289
2.47096
2.47023
2.47079
2.47301
2.47719
2.48353
2.49197
2.5021
2.51373
2.52625
2.5392
2.55209
2.56447
2.57595
2.58623
2.59512
2.60254
2.60848
2.49269
2.48998
2.48775
2.48636
2.48604
2.48703
2.48967
2.49423
2.50071
2.50889
2.51827
2.52863
2.53947
2.55044
2.56113
2.57127
2.58062
2.58903
2.59641
2.60275
2.50966
2.50688
2.50417
2.50191
2.50044
2.50011
2.50109
2.50369
2.50828
2.51431
2.52176
2.53008
2.53899
2.54817
2.55732
2.56623
2.57472
2.58267
2.59001
2.59673
2.52626
2.52317
2.5197
2.51629
2.51338
2.51138
2.51067
2.5114
2.51388
2.51822
2.52371
2.53029
2.53755
2.54523
2.5531
2.56098
2.56875
2.57631
2.58364
2.59071
2.54206
2.53836
2.53377
2.52884
2.5241
2.52013
2.5174
2.51631
2.51699
2.51947
2.52358
2.52887
2.53493
2.54154
2.54849
2.55563
2.56288
2.57019
2.57755
2.58496
2.55656
2.55194
2.54578
2.53882
2.53177
2.52534
2.52037
2.51739
2.51663
2.51776
2.52083
2.52545
2.53093
2.53701
2.54351
2.5503
2.55731
2.56453
2.57199
2.57973
2.5693
2.56319
2.55481
2.54523
2.53527
2.52601
2.51848
2.5136
2.51169
2.51225
2.51496
2.51962
2.52528
2.53154
2.53818
2.54508
2.55218
2.55951
2.56716
2.57521
2.57995
2.57176
2.56058
2.5475
2.53384
2.52079
2.51011
2.50355
2.50107
2.5019
2.5053
2.51102
2.51778
2.52507
2.53257
2.5401
2.54767
2.55533
2.56324
2.57157
2.5888
2.57778
2.56314
2.54593
2.52749
2.50911
2.49414
2.48649
2.48386
2.48581
2.49126
2.4993
2.50833
2.51766
2.52682
2.53559
2.54399
2.55217
2.5604
2.56893
2.59635
2.58265
2.56311
2.54088
2.51667
2.49092
2.471
2.46276
2.46044
2.46409
2.47287
2.48459
2.49724
2.50969
2.5213
2.53185
2.54141
2.55027
2.55879
2.5674
2.60254
2.58295
2.55739
2.52947
2.49803
2.46419
2.43981
2.43237
2.42863
2.43674
2.45069
2.46761
2.48521
2.50178
2.51656
2.52934
2.54028
2.54983
2.55854
2.56703
2.60775
2.597
2.57235
2.53776
2.49777
2.45831
2.42318
2.39961
2.39912
2.40229
2.4259
2.45047
2.47397
2.49523
2.51359
2.52872
2.54105
2.55117
2.55984
2.56783
2.62591
2.60797
2.57807
2.53637
2.4885
2.44053
2.4003
2.37293
2.36521
2.37413
2.4024
2.43588
2.46589
2.49184
2.51347
2.53069
2.54414
2.5546
2.56288
2.56993
2.63788
2.61508
2.58089
2.5366
2.48594
2.43525
2.39224
2.36278
2.34933
2.35928
2.38787
2.42753
2.46309
2.49276
2.51676
2.53566
2.54985
2.56013
2.56755
2.57311
2.64328
2.61823
2.58209
2.53615
2.48406
2.43312
2.39066
2.36176
2.35035
2.35941
2.3884
2.4269
2.46597
2.49796
2.52351
2.54329
2.55772
2.56752
2.57365
2.57725
2.64362
2.6182
2.58269
2.53822
2.48932
2.44121
2.40018
2.3736
2.36407
2.37248
2.39685
2.43362
2.47369
2.50625
2.53224
2.55243
2.56663
2.57558
2.58012
2.58114
2.63783
2.61286
2.57966
2.53916
2.49202
2.44417
2.40503
2.38366
2.378
2.38775
2.41261
2.44657
2.47952
2.51053
2.53806
2.5605
2.57551
2.58414
2.58739
2.58599
2.62602
2.60111
2.56858
2.52917
2.48565
2.44296
2.40989
2.3921
2.3878
2.39669
2.41839
2.44853
2.48259
2.51386
2.54016
2.56035
2.57425
2.58315
2.58625
2.58245
2.60891
2.58375
2.55157
2.51347
2.47213
2.43265
2.40263
2.38739
2.38368
2.39203
2.41184
2.4395
2.47099
2.50222
2.53063
2.55424
2.57201
2.58286
2.58634
2.58196
2.58734
2.56129
2.52895
2.49165
2.45237
2.41531
2.38923
2.37639
2.37318
2.38105
2.3992
2.42454
2.45362
2.4832
2.51093
2.53508
2.55447
2.56709
2.57195
2.56967
2.5618
2.53425
2.50098
2.4638
2.42587
2.39186
2.36905
2.35835
2.35659
2.36498
2.38282
2.40712
2.43489
2.46339
2.49043
2.51443
2.53415
2.54741
2.55275
2.55153
2.53287
2.50338
2.46882
2.4314
2.39469
2.36347
2.34396
2.33586
2.33558
2.34551
2.36398
2.38829
2.41576
2.44399
2.47099
2.49524
2.51547
2.52972
2.53587
2.53586
2.5011
2.46941
2.43345
2.39591
2.36068
2.33283
2.31688
2.31138
2.31331
2.32516
2.34485
2.36973
2.39744
2.42583
2.45308
2.47775
2.49858
2.51419
2.52188
2.52332
2.46705
2.43314
2.39601
2.35886
2.32585
2.30202
2.28999
2.28681
2.29187
2.30608
2.32741
2.35333
2.38169
2.4106
2.4384
2.46374
2.4854
2.50229
2.51206
2.51525
2.43145
2.39558
2.35784
2.32187
2.292
2.27289
2.26466
2.2642
2.27283
2.28966
2.31287
2.34006
2.36933
2.39899
2.42761
2.45378
2.47637
2.49452
2.50664
2.51194
2.39511
2.35781
2.32032
2.28652
2.26094
2.24656
2.2419
2.24493
2.25714
2.27667
2.30185
2.33047
2.36083
2.39143
2.42089
2.4479
2.47145
2.49054
2.50449
2.51187
2.35896
2.32105
2.28481
2.25429
2.23376
2.2241
2.2225
2.2297
2.24534
2.26753
2.29469
2.32482
2.35627
2.38771
2.41784
2.44549
2.46967
2.48951
2.50438
2.51361
2.32407
2.28652
2.25262
2.22653
2.21104
2.20564
2.2075
2.21878
2.23768
2.26243
2.29129
2.32247
2.35468
2.38681
2.41722
2.44545
2.46976
2.49009
2.50551
2.51627
2.29153
2.25543
2.22492
2.20408
2.19344
2.19123
2.19749
2.21259
2.23424
2.26076
2.2908
2.32284
2.35552
2.38797
2.4187
2.44671
2.47124
2.49139
2.50715
2.51868
2.26234
2.22885
2.20282
2.18686
2.18098
2.18215
2.19265
2.2106
2.23428
2.26234
2.29337
2.32599
2.35906
2.39137
2.42195
2.44929
2.47301
2.49267
2.5082
2.52023
2.23734
2.20756
2.1868
2.17589
2.17339
2.17869
2.19238
2.21272
2.23809
2.26718
2.29871
2.33145
2.36419
2.39592
2.42542
2.45178
2.47436
2.49308
2.50821