/*--------------------------------*- C++ -*----------------------------------*\
  =========                 |
  \\      /  F ield         | OpenFOAM: The Open Source CFD Toolbox
   \\    /   O peration     | Website:  https://openfoam.org
    \\  /    A nd           | Version:  10
     \\/     M anipulation  |
\*---------------------------------------------------------------------------*/
FoamFile
{
    format      ascii;
    class       surfaceScalarField;
    location    "0.250001";
    object      phi;
}
// * * * * * * * * * * * * * * * * * * * * * * * * * * * * * * * * * * * * * //

dimensions      [1 0 -1 0 0 0 0];

internalField   nonuniform List<scalar> 
31672
(
0.000383216
-2.78531e-06
0.000374113
-7.45533e-06
0.000365184
-1.28191e-05
0.000356777
-1.86077e-05
0.00034912
-2.46317e-05
0.000342469
-3.06921e-05
0.000336952
-3.65913e-05
0.000332682
-4.21398e-05
0.00032969
-4.72072e-05
0.000327878
-5.16801e-05
0.000327125
-5.55894e-05
0.000327289
-5.87273e-05
0.000328247
-6.12944e-05
0.000329863
-6.32322e-05
0.000331911
-6.45271e-05
0.0003343
-6.53123e-05
0.000336853
-6.55916e-05
0.000339371
-6.5397e-05
0.000341756
-6.47992e-05
0.000343881
-6.38071e-05
0.00034562
-6.2437e-05
0.000346882
-6.06782e-05
0.000347595
-5.85515e-05
0.000347645
-5.60528e-05
0.000347178
-5.31623e-05
0.000346106
-4.9868e-05
0.000344411
-4.61327e-05
0.000342256
-4.20045e-05
0.00033977
-3.7598e-05
0.000337098
-3.29082e-05
0.000334485
-2.81712e-05
0.000332046
-2.34189e-05
0.00033004
-1.88953e-05
0.000328572
-1.46956e-05
0.000327755
-1.09706e-05
0.000327635
-7.82235e-06
0.000328293
-5.26573e-06
0.000329563
-3.32232e-06
0.000331558
-2.09654e-06
0.000334216
-1.49706e-06
0.00033744
-1.48089e-06
0.000341098
-1.91157e-06
0.000345193
-2.74285e-06
0.00034966
-3.85052e-06
0.000354326
-5.12761e-06
0.000359221
-6.49283e-06
0.000364243
-7.82588e-06
0.000369293
-9.01963e-06
0.000374316
-1.00011e-05
0.000379229
-1.06693e-05
0.000383966
-1.09418e-05
0.000388417
-1.07355e-05
0.000392503
-9.97953e-06
-8.61023e-06
0.000396161
0.000379441
-7.05689e-06
0.000369942
-1.20074e-05
0.000360701
-1.7466e-05
0.000352109
-2.31724e-05
0.000344408
-2.89224e-05
0.000337864
-3.45354e-05
0.000332566
-3.98315e-05
0.000328627
-4.46612e-05
0.000326057
-4.89249e-05
0.0003247
-5.25884e-05
0.000324405
-5.55942e-05
0.000325061
-5.80026e-05
0.000326502
-5.97201e-05
0.000328559
-6.09463e-05
0.000331069
-6.16122e-05
0.000333832
-6.18317e-05
0.000336727
-6.16506e-05
0.000339602
-6.11025e-05
0.000342304
-6.02428e-05
0.000344733
-5.91008e-05
0.000346743
-5.76947e-05
0.0003483
-5.60149e-05
0.000349292
-5.40715e-05
0.000349633
-5.18293e-05
0.000349442
-4.93466e-05
0.000348589
-4.64831e-05
0.000347169
-4.33156e-05
0.000345202
-3.98109e-05
0.000342809
-3.59447e-05
0.00034021
-3.18997e-05
0.000337477
-2.7645e-05
0.00033491
-2.33937e-05
0.000332597
-1.92097e-05
0.000330751
-1.52745e-05
0.000329517
-1.17131e-05
0.000328939
-8.6285e-06
0.000329097
-6.10833e-06
0.000329998
-4.10743e-06
0.000331554
-2.75908e-06
0.000333837
-2.06036e-06
0.000336752
-1.90918e-06
0.000340256
-2.27236e-06
0.000344217
-3.01967e-06
0.000348621
-4.09544e-06
0.000353409
-5.39495e-06
0.00035844
-6.79409e-06
0.000363664
-8.21865e-06
0.000369038
-9.56054e-06
0.000374447
-1.07162e-05
0.000379804
-1.16021e-05
0.000385044
-1.21347e-05
0.000390058
-1.2229e-05
0.000394743
-1.18167e-05
-1.08305e-05
0.000399
0.000375483
-1.20206e-05
0.000365677
-1.71904e-05
0.000356274
-2.26752e-05
0.00034762
-2.82029e-05
0.000340003
-3.35751e-05
0.000333654
-3.86349e-05
0.000328675
-4.32297e-05
0.000325136
-4.72566e-05
0.000322997
-5.06458e-05
0.00032214
-5.34509e-05
0.000322271
-5.55084e-05
0.000323406
-5.7072e-05
0.000325293
-5.80159e-05
0.000327741
-5.84553e-05
0.000330639
-5.84769e-05
0.000333727
-5.81059e-05
0.00033689
-5.74384e-05
0.000340022
-5.65132e-05
0.00034295
-5.53682e-05
0.000345579
-5.4039e-05
0.00034781
-5.25595e-05
0.000349548
-5.09175e-05
0.000350746
-4.91186e-05
0.000351314
-4.71359e-05
0.000351222
-4.49464e-05
0.000350633
-4.25931e-05
0.000349409
-3.99368e-05
0.000347599
-3.69848e-05
0.000345367
-3.38232e-05
0.000342792
-3.03565e-05
0.000340084
-2.67575e-05
0.000337358
-2.30251e-05
0.000334873
-1.93368e-05
0.000332742
-1.57764e-05
0.000331116
-1.24814e-05
0.000330141
-9.57874e-06
0.000329871
-7.1521e-06
0.000330372
-5.26001e-06
0.000331527
-3.83548e-06
0.000333465
-3.0653e-06
0.000336085
-2.84761e-06
0.000339323
-3.13169e-06
0.000343199
-3.86367e-06
0.000347553
-4.92455e-06
0.000352351
-6.2292e-06
0.000357522
-7.71272e-06
0.00036297
-9.23426e-06
0.000368627
-1.07164e-05
0.000374388
-1.20563e-05
0.000380196
-1.31661e-05
0.000385917
-1.39543e-05
0.000391481
-1.43404e-05
0.000396744
-1.42474e-05
-1.36116e-05
0.000401623
0.000371353
-1.751e-05
0.000361363
-2.28387e-05
0.000351949
-2.82729e-05
0.000343376
-3.35326e-05
0.000335963
-3.84407e-05
0.000329919
-4.28699e-05
0.000325344
-4.66894e-05
0.000322268
-4.98687e-05
0.000320599
-5.23476e-05
0.000320192
-5.42352e-05
0.00032081
-5.53695e-05
0.000322367
-5.60384e-05
0.000324658
-5.6182e-05
0.00032746
-5.58444e-05
0.00033064
-5.51861e-05
0.000334018
-5.42225e-05
0.000337397
-5.30239e-05
0.000340692
-5.16775e-05
0.000343762
-5.02148e-05
0.000346511
-4.8664e-05
0.000348845
-4.70643e-05
0.000350681
-4.54154e-05
0.000351988
-4.37156e-05
0.000352674
-4.19453e-05
0.000352717
-4.00648e-05
0.000352238
-3.81024e-05
0.000351121
-3.59297e-05
0.000349474
-3.36385e-05
0.000347353
-3.10477e-05
0.000344877
-2.82905e-05
0.000342155
-2.53252e-05
0.000339415
-2.2249e-05
0.000336764
-1.91233e-05
0.0003344
-1.60503e-05
0.000332503
-1.31628e-05
0.000331172
-1.05493e-05
0.000330528
-8.32599e-06
0.000330615
-6.565e-06
0.000331442
-5.28878e-06
0.000333025
-4.47346e-06
0.000335351
-4.25113e-06
0.000338402
-4.53247e-06
0.000342069
-5.23872e-06
0.000346371
-6.33814e-06
0.000351201
-7.70809e-06
0.00035645
-9.25926e-06
0.000362103
-1.09145e-05
0.000368035
-1.25629e-05
0.000374156
-1.41012e-05
0.000380384
-1.54397e-05
0.000386606
-1.64875e-05
0.000392698
-1.71539e-05
0.000398556
-1.73631e-05
-1.70446e-05
0.00040406
0.000367097
-2.3366e-05
0.000357103
-2.87851e-05
0.000347788
-3.40884e-05
0.000339433
-3.90015e-05
0.000332365
-4.3392e-05
0.00032674
-4.71279e-05
0.000322634
-5.01695e-05
0.000320084
-5.24531e-05
0.00031889
-5.40213e-05
0.000318925
-5.49439e-05
0.000320016
-5.5253e-05
0.000321975
-5.49778e-05
0.000324619
-5.42864e-05
0.000327764
-5.31874e-05
0.000331152
-5.18113e-05
0.000334729
-5.02237e-05
0.000338279
-4.8482e-05
0.000341665
-4.66614e-05
0.000344803
-4.48302e-05
0.000347569
-4.30155e-05
0.000349915
-4.12467e-05
0.000351761
-3.95367e-05
0.00035307
-3.78855e-05
0.000353796
-3.62719e-05
0.000353895
-3.46712e-05
0.000353388
-3.30341e-05
0.000352391
-3.13933e-05
0.000350827
-2.95786e-05
0.000348789
-2.76672e-05
0.000346383
-2.55741e-05
0.000343711
-2.33112e-05
0.000340928
-2.09323e-05
0.000338212
-1.84507e-05
0.000335716
-1.59892e-05
0.000333566
-1.35904e-05
0.000331967
-1.14034e-05
0.00033099
-9.50688e-06
0.000330717
-7.9857e-06
0.000331214
-6.90476e-06
0.000332515
-6.24096e-06
0.000334524
-6.07179e-06
0.000337329
-6.40788e-06
0.000340866
-7.18345e-06
0.000345067
-8.33104e-06
0.000349888
-9.81562e-06
0.000355239
-1.15009e-05
0.000361069
-1.33092e-05
0.000367249
-1.5151e-05
0.000373713
-1.69169e-05
0.000380387
-1.85094e-05
0.000387076
-1.98209e-05
0.00039373
-2.07654e-05
0.000400201
-2.12609e-05
-2.12249e-05
0.000406307
0.00036275
-2.94151e-05
0.000352911
-3.48558e-05
0.000343812
-3.99579e-05
0.000335854
-4.44799e-05
0.000329247
-4.83175e-05
0.000324127
-5.13608e-05
0.000320598
-5.35902e-05
0.00031855
-5.50062e-05
0.00031791
-5.57058e-05
0.000318414
-5.56805e-05
0.000319915
-5.51169e-05
0.000322251
-5.39418e-05
0.000325224
-5.24162e-05
0.000328633
-5.05531e-05
0.000332238
-4.84276e-05
0.000335912
-4.61803e-05
0.000339545
-4.38526e-05
0.000342965
-4.15285e-05
0.000346069
-3.92699e-05
0.000348797
-3.71312e-05
0.000351059
-3.51376e-05
0.00035283
-3.33092e-05
0.00035404
-3.1647e-05
0.000354695
-3.01325e-05
0.000354766
-2.87453e-05
0.000354227
-2.74308e-05
0.000353195
-2.61896e-05
0.000351646
-2.49081e-05
0.000349686
-2.36177e-05
0.000347321
-2.21695e-05
0.000344695
-2.06571e-05
0.000341914
-1.89708e-05
0.000339159
-1.72404e-05
0.000336536
-1.54243e-05
0.000334264
-1.36669e-05
0.000332433
-1.20098e-05
0.000331181
-1.05575e-05
0.000330619
-9.40309e-06
0.000330802
-8.61018e-06
0.0003318
-8.23396e-06
0.000333584
-8.24094e-06
0.000336131
-8.70375e-06
0.000339491
-9.63054e-06
0.00034361
-1.09274e-05
0.000348392
-1.25562e-05
0.000353822
-1.44397e-05
0.000359812
-1.64654e-05
0.000366261
-1.85452e-05
0.000373067
-2.05758e-05
0.000380154
-2.24441e-05
0.000387381
-2.40518e-05
0.000394585
-2.52731e-05
0.000401669
-2.60444e-05
-2.62528e-05
0.000408439
0.000358367
-3.54917e-05
0.000348785
-4.08891e-05
0.000340116
-4.5729e-05
0.000332649
-4.98575e-05
0.000326612
-5.31164e-05
0.000322103
-5.54942e-05
0.000319163
-5.69475e-05
0.000317728
-5.75454e-05
0.000317575
-5.74134e-05
0.000318563
-5.64706e-05
0.000320522
-5.50337e-05
0.000323247
-5.30542e-05
0.000326492
-5.06572e-05
0.000330107
-4.79916e-05
0.000333889
-4.51207e-05
0.00033764
-4.21602e-05
0.000341272
-3.92037e-05
0.000344643
-3.63159e-05
0.000347653
-3.35785e-05
0.000350243
-3.10454e-05
0.000352347
-2.87611e-05
0.000353929
-2.67463e-05
0.000354958
-2.5008e-05
0.000355444
-2.35332e-05
0.000355372
-2.22968e-05
0.00035474
-2.12585e-05
0.000353588
-2.03642e-05
0.000352021
-1.96021e-05
0.000350027
-1.88254e-05
0.000347669
-1.80932e-05
0.000345054
-1.72444e-05
0.000342305
-1.63535e-05
0.000339511
-1.53532e-05
0.000336874
-1.43109e-05
0.000334473
-1.32469e-05
0.000332475
-1.22306e-05
0.000331024
-1.13588e-05
0.000330211
-1.06939e-05
0.000330128
-1.03198e-05
0.00033083
-1.02938e-05
0.000332372
-1.06603e-05
0.000334753
-1.13898e-05
0.00033792
-1.2531e-05
0.000341915
-1.40755e-05
0.00034669
-1.59496e-05
0.000352167
-1.80895e-05
0.000358306
-2.04049e-05
0.000365008
-2.27926e-05
0.000372164
-2.51425e-05
0.00037969
-2.73364e-05
0.000387438
-2.92683e-05
0.000395268
-3.07776e-05
0.000403025
-3.18198e-05
-3.22379e-05
0.000410505
0.000353979
-4.14413e-05
0.000344795
-4.67249e-05
0.000336665
-5.13269e-05
0.000329835
-5.50187e-05
0.000324459
-5.77724e-05
0.00032063
-5.94943e-05
0.00031835
-6.02511e-05
0.000317554
-6.00979e-05
0.000317946
-5.91616e-05
0.000319443
-5.74218e-05
0.000321841
-5.51177e-05
0.000324908
-5.23179e-05
0.000328433
-4.90804e-05
0.000332239
-4.55997e-05
0.000336143
-4.19514e-05
0.000339942
-3.8232e-05
0.000343507
-3.45802e-05
0.000346766
-3.10676e-05
0.000349605
-2.77807e-05
0.000351951
-2.47796e-05
0.000353799
-2.21299e-05
0.000355108
-1.98527e-05
0.000355873
-1.7967e-05
0.00035608
-1.64638e-05
0.000355761
-1.532e-05
0.000354941
-1.44918e-05
0.000353636
-1.392e-05
0.000351891
-1.35894e-05
0.000349843
-1.33592e-05
0.000347455
-1.32434e-05
0.000344834
-1.31113e-05
0.000342063
-1.29751e-05
0.000339283
-1.2771e-05
0.000336597
-1.25306e-05
0.000334122
-1.22406e-05
0.000332034
-1.19799e-05
0.000330414
-1.17807e-05
0.000329403
-1.17356e-05
0.00032909
-1.19124e-05
0.000329564
-1.23736e-05
0.00033086
-1.31755e-05
0.000333009
-1.43387e-05
0.000336081
-1.58643e-05
0.000339951
-1.77423e-05
0.000344673
-1.99648e-05
0.000350201
-2.24599e-05
0.000356493
-2.51516e-05
0.000363426
-2.79328e-05
0.000370997
-3.06717e-05
0.000378931
-3.32662e-05
0.000387273
-3.55273e-05
0.000395801
-3.74216e-05
0.00040424
-3.87002e-05
-3.93042e-05
0.000412521
0.000349589
-4.71156e-05
0.000340957
-5.23009e-05
0.000333492
-5.66189e-05
0.000327358
-5.99337e-05
0.000322761
-6.22005e-05
0.000319668
-6.33751e-05
0.00031814
-6.35061e-05
0.000317962
-6.27139e-05
0.000318958
-6.09965e-05
0.000320977
-5.85846e-05
0.000323824
-5.54399e-05
0.00032726
-5.18284e-05
0.000331086
-4.77691e-05
0.000335051
-4.34453e-05
0.00033903
-3.89731e-05
0.000342834
-3.4461e-05
0.00034631
-3.00318e-05
0.000349393
-2.58143e-05
0.00035196
-2.18904e-05
0.00035401
-1.83421e-05
0.000355512
-1.52367e-05
0.000356438
-1.26189e-05
0.000356812
-1.05057e-05
0.000356669
-8.90365e-06
0.000356009
-7.78944e-06
0.000354872
-7.11604e-06
0.000353309
-6.82746e-06
0.000351349
-6.86176e-06
0.000349167
-7.16892e-06
0.000346644
-7.62103e-06
0.000343986
-8.21967e-06
0.000341176
-8.81579e-06
0.000338377
-9.44309e-06
0.000335669
-1.0022e-05
0.000333167
-1.05917e-05
0.00033098
-1.11377e-05
0.000329253
-1.17348e-05
0.0003281
-1.24268e-05
0.000327608
-1.32805e-05
0.00032787
-1.43646e-05
0.000328969
-1.57388e-05
0.000330922
-1.7438e-05
0.000333798
-1.94874e-05
0.0003376
-2.18852e-05
0.000342285
-2.45853e-05
0.000347872
-2.75523e-05
0.000354294
-3.07263e-05
0.000361511
-3.39972e-05
0.000369406
-3.72326e-05
0.000377911
-4.02848e-05
0.000386869
-4.30145e-05
0.000396069
-4.52443e-05
0.000405385
-4.68161e-05
-4.75791e-05
0.000414551
0.000345267
-5.2398e-05
0.000337275
-5.74824e-05
0.00033051
-6.15517e-05
0.000325216
-6.45674e-05
0.000321415
-6.64157e-05
0.000319165
-6.71473e-05
0.000318367
-6.67604e-05
0.000318964
-6.5416e-05
0.000320551
-6.30421e-05
0.000323159
-5.9954e-05
0.000326488
-5.61043e-05
0.000330312
-5.16628e-05
0.000334429
-4.68023e-05
0.000338591
-4.15965e-05
0.000342625
-3.62502e-05
0.000346385
-3.08722e-05
0.00034973
-2.55987e-05
0.000352552
-2.05715e-05
0.00035482
-1.59125e-05
0.000356464
-1.17129e-05
0.000357512
-8.06131e-06
0.000357975
-5.00993e-06
0.000357856
-2.59342e-06
0.000357221
-8.22411e-07
0.00035611
3.30599e-07
0.000354571
9.04204e-07
0.000352662
9.59149e-07
0.000350428
5.70739e-07
0.000347941
-2.12714e-07
0.00034529
-1.24752e-06
0.000342481
-2.50795e-06
0.000339628
-3.87876e-06
0.000336779
-5.31765e-06
0.000334047
-6.7748e-06
0.000331503
-8.21915e-06
0.000329279
-9.66645e-06
0.00032747
-1.11392e-05
0.000326192
-1.26671e-05
0.000325556
-1.43261e-05
0.00032565
-1.61689e-05
0.000326576
-1.82585e-05
0.000328362
-2.06393e-05
0.000331075
-2.33415e-05
0.000334746
-2.63788e-05
0.000339399
-2.97249e-05
0.000345035
-3.3342e-05
0.00035163
-3.71462e-05
0.000359113
-4.10299e-05
0.000367438
-4.48602e-05
0.000376463
-4.85006e-05
0.000386133
-5.17413e-05
0.000396162
-5.44202e-05
0.000406406
-5.63019e-05
-5.72308e-05
0.000416627
0.000340918
-5.72004e-05
0.000333648
-6.21822e-05
0.00032773
-6.60906e-05
0.000323275
-6.88656e-05
0.000320375
-7.04414e-05
0.000319013
-7.08316e-05
0.000319039
-7.00622e-05
0.000320374
-6.82364e-05
0.000322719
-6.54145e-05
0.000325929
-6.1651e-05
0.000329811
-5.71423e-05
0.000334068
-5.19237e-05
0.000338491
-4.62172e-05
0.000342887
-4.01396e-05
0.000346985
-3.38316e-05
0.000350673
-2.74951e-05
0.000353826
-2.12819e-05
0.000356374
-1.5343e-05
0.000358224
-9.82904e-06
0.000359376
-4.8649e-06
0.000359899
-5.52465e-07
0.000359764
3.01892e-06
0.000359046
5.81982e-06
0.000357824
7.83785e-06
0.000356147
9.08627e-06
0.000354085
9.60323e-06
0.000351714
9.46551e-06
0.000349098
8.74314e-06
0.000346262
7.53426e-06
0.000343385
5.90982e-06
0.000340363
4.0053e-06
0.00033738
1.85858e-06
0.00033445
-3.99586e-07
0.000331665
-2.75025e-06
0.000329093
-5.12083e-06
0.000326832
-7.52057e-06
0.000324953
-9.93119e-06
0.000323594
-1.24039e-05
0.000322847
-1.49766e-05
0.000322798
-1.76996e-05
0.000323562
-2.064e-05
0.000325193
-2.3851e-05
0.000327766
-2.73599e-05
0.000331336
-3.1191e-05
0.00033594
-3.53297e-05
0.000341606
-3.97408e-05
0.00034833
-4.4342e-05
0.00035611
-4.90222e-05
0.0003649
-5.3642e-05
0.000374575
-5.79972e-05
0.000385027
-6.18675e-05
0.000395996
-6.50382e-05
0.000407337
-6.7326e-05
-6.84361e-05
0.000418783
0.000336607
-6.14187e-05
0.000330074
-6.64023e-05
0.000325043
-7.02122e-05
0.000321512
-7.28697e-05
0.000319564
-7.42887e-05
0.000319116
-7.44786e-05
0.000320074
-7.35099e-05
0.000322202
-7.12849e-05
0.000325318
-6.80867e-05
0.000329271
-6.37938e-05
0.000333751
-5.863e-05
0.000338551
-5.27014e-05
0.000343342
-4.6119e-05
0.000347935
-3.90931e-05
0.000352155
-3.17848e-05
0.00035579
-2.43795e-05
0.00035875
-1.70864e-05
0.00036091
-1.00979e-05
0.000362297
-3.59924e-06
0.000362899
2.26195e-06
0.000362721
7.34274e-06
0.000361894
1.15411e-05
0.00036045
1.48246e-05
0.000358487
1.71539e-05
0.000356119
1.85503e-05
0.000353427
1.90558e-05
0.000350481
1.87506e-05
0.000347353
1.77183e-05
0.000344109
1.60677e-05
0.000340865
1.38889e-05
0.000337625
1.13006e-05
0.000334438
8.40528e-06
0.000331388
5.30419e-06
0.000328513
2.05032e-06
0.000325884
-1.2851e-06
0.000323567
-4.67366e-06
0.000321644
-8.10049e-06
0.000320219
-1.15896e-05
0.000319364
-1.51692e-05
0.000319193
-1.88909e-05
0.000319827
-2.28159e-05
0.000321306
-2.69887e-05
0.000323741
-3.1457e-05
0.000327202
-3.62389e-05
0.000331761
-4.13411e-05
0.000337465
-4.6716e-05
0.000344345
-5.22899e-05
0.000352413
-5.79457e-05
0.000361651
-6.35162e-05
0.000371996
-6.87909e-05
0.000383353
-7.35184e-05
0.000395551
-7.73917e-05
0.000408169
-8.00413e-05
-8.13832e-05
0.000421023
0.000332178
-6.50512e-05
0.000326491
-7.00722e-05
0.000322336
-7.39293e-05
0.00031979
-7.65999e-05
0.000318808
-7.80051e-05
0.000319389
-7.81826e-05
0.000321262
-7.70541e-05
0.000324331
-7.47458e-05
0.000328372
-7.11366e-05
0.000333135
-6.64743e-05
0.000338342
-6.07087e-05
0.000343711
-5.40462e-05
0.000349008
-4.66164e-05
0.000353921
-3.85648e-05
0.000358245
-3.01248e-05
0.00036183
-2.15296e-05
0.000364529
-1.30124e-05
0.000366332
-4.80348e-06
0.000367127
2.83026e-06
0.000367038
9.75891e-06
0.00036612
1.57207e-05
0.000364404
2.06972e-05
0.000362088
2.4532e-05
0.000359259
2.72414e-05
0.000356071
2.88252e-05
0.000352596
2.93453e-05
0.000348946
2.88847e-05
0.000345221
2.75451e-05
0.00034147
2.54437e-05
0.000337778
2.26992e-05
0.000334223
1.94236e-05
0.000330766
1.57552e-05
0.000327542
1.17758e-05
0.00032454
7.60187e-06
0.000321815
3.28285e-06
0.000319432
-1.13586e-06
0.000317461
-5.6357e-06
0.000315955
-1.02049e-05
0.00031502
-1.48736e-05
0.000314745
-1.96959e-05
0.000315228
-2.47104e-05
0.000316567
-2.9983e-05
0.000318853
-3.55462e-05
0.000322209
-4.14503e-05
0.000326708
-4.76761e-05
0.000332437
-5.41985e-05
0.000339466
-6.09362e-05
0.000347847
-6.77716e-05
0.000357589
-7.45174e-05
0.000368685
-8.09317e-05
0.000381029
-8.67156e-05
0.000394459
-9.14982e-05
0.000408779
-9.48706e-05
-9.63864e-05
0.000423386
0.000327643
-6.80055e-05
0.000322741
-7.32325e-05
0.000319529
-7.72613e-05
0.000317969
-8.01e-05
0.000318042
-8.16735e-05
0.000319656
-8.19971e-05
0.000322579
-8.09248e-05
0.000326668
-7.85236e-05
0.000331748
-7.48052e-05
0.000337445
-6.97511e-05
0.000343542
-6.35033e-05
0.000349682
-5.61317e-05
0.000355522
-4.77686e-05
0.000360835
-3.8621e-05
0.0003654
-2.89316e-05
0.000368899
-1.89631e-05
0.000371442
-9.01518e-06
0.000372689
5.88947e-07
0.00037289
9.60196e-06
0.000371941
1.77079e-05
0.000370041
2.47792e-05
0.000367377
3.05842e-05
0.000364036
3.50884e-05
0.000360196
3.82301e-05
0.000355987
4.00387e-05
0.00035159
4.05799e-05
0.000347118
3.99541e-05
0.000342662
3.82853e-05
0.000338284
3.57093e-05
0.000334071
3.23572e-05
0.000330115
2.83752e-05
0.000326339
2.38872e-05
0.00032288
1.90117e-05
0.000319709
1.38719e-05
0.000316874
8.53134e-06
0.000314392
3.07699e-06
0.000312337
-2.55147e-06
0.000310757
-8.24594e-06
0.000309722
-1.40774e-05
0.000309326
-2.00683e-05
0.000309673
-2.6278e-05
0.000310853
-3.27569e-05
0.000313004
-3.95616e-05
0.00031622
-4.67175e-05
0.000320625
-5.42319e-05
0.000326347
-6.20813e-05
0.000333499
-7.01928e-05
0.00034218
-7.84379e-05
0.000352453
-8.66108e-05
0.000364356
-9.44408e-05
0.00037784
-0.000101572
0.000392739
-0.00010754
0.000408797
-0.000111838
-0.000113886
0.000425605
0.000322782
-7.03142e-05
0.00031875
-7.5862e-05
0.000316456
-8.02379e-05
0.00031594
-8.34261e-05
0.000317095
-8.54244e-05
0.000319786
-8.59675e-05
0.000323876
-8.51595e-05
0.000329169
-8.28854e-05
0.00033539
-7.90927e-05
0.000342238
-7.38641e-05
0.000349353
-6.71505e-05
0.000356391
-5.9078e-05
0.000363015
-4.97462e-05
0.000368889
-3.93821e-05
0.000373664
-2.82534e-05
0.000377307
-1.66964e-05
0.000379479
-5.10699e-06
0.000380204
6.19244e-06
0.00037966
1.67842e-05
0.00037774
2.63483e-05
0.000374781
3.4622e-05
0.000370889
4.1446e-05
0.000366288
4.66851e-05
0.000361225
5.03041e-05
0.000355871
5.23456e-05
0.000350376
5.28855e-05
0.000344934
5.20589e-05
0.000339628
5.00152e-05
0.000334528
4.69077e-05
0.00032974
4.28854e-05
0.000325251
3.81458e-05
0.000321106
3.2789e-05
0.000317359
2.69795e-05
0.000313954
2.08427e-05
0.000310952
1.44453e-05
0.000308367
7.86712e-06
0.000306209
1.13178e-06
0.000304529
-5.74131e-06
0.000303378
-1.27721e-05
0.000302861
-2.00028e-05
0.000303051
-2.74813e-05
0.000304066
-3.52615e-05
0.000306029
-4.34054e-05
0.000309061
-5.19401e-05
0.000313331
-6.08988e-05
0.000318998
-7.0248e-05
0.000326232
-7.99379e-05
0.000335165
-8.98295e-05
0.000345941
-9.97099e-05
0.000358674
-0.000109276
0.000373352
-0.000118103
0.000389839
-0.000125606
0.000407906
-0.000131134
-0.000133972
0.000426995
0.000317549
-7.19507e-05
0.000314326
-7.79974e-05
0.000312983
-8.29081e-05
0.000313518
-8.67246e-05
0.000315737
-8.91765e-05
0.000319655
-9.0289e-05
0.000325037
-8.9905e-05
0.000331636
-8.78981e-05
0.000339207
-8.42861e-05
0.000347365
-7.89457e-05
0.000355773
-7.18671e-05
0.000363986
-6.31045e-05
0.000371548
-5.27275e-05
0.000378141
-4.09838e-05
0.000383425
-2.81844e-05
0.000386975
-1.47496e-05
0.000388956
-1.15192e-06
0.000389136
1.20811e-05
0.000387634
2.45669e-05
0.00038459
3.58091e-05
0.000380263
4.55346e-05
0.000374947
5.34883e-05
0.000368901
5.95533e-05
0.000362401
6.36773e-05
0.000355663
6.59288e-05
0.000348932
6.64207e-05
0.000342355
6.53235e-05
0.000336061
6.28082e-05
0.00033015
5.90786e-05
0.000324651
5.43229e-05
0.000319601
4.87128e-05
0.000315023
4.24438e-05
0.000310918
3.56502e-05
0.000307264
2.84491e-05
0.000304064
2.09606e-05
0.000301305
1.32501e-05
0.000299013
5.35453e-06
0.000297214
-2.72863e-06
0.000295941
-1.09935e-05
0.000295267
-1.95003e-05
0.000295269
-2.82957e-05
0.000296074
-3.74405e-05
0.000297801
-4.7001e-05
0.000300603
-5.70175e-05
0.000304665
-6.75367e-05
0.000310191
-7.85418e-05
0.000317399
-8.99976e-05
0.000326484
-0.000101768
0.000337675
-0.000113647
0.000351136
-0.000125276
0.000366922
-0.000136153
0.000384875
-0.000145525
0.000404814
-0.000152616
-0.00015642
0.000426028
0.000311747
-7.29335e-05
0.000309313
-7.96853e-05
0.000308938
-8.54061e-05
0.000310456
-8.99189e-05
0.000313902
-9.31958e-05
0.000319093
-9.50212e-05
0.000325841
-9.52508e-05
0.000333975
-9.38147e-05
0.000343071
-9.05402e-05
0.000352812
-8.52534e-05
0.0003628
-7.79213e-05
0.000372432
-6.84723e-05
0.000381309
-5.69626e-05
0.000388901
-4.36373e-05
0.000394637
-2.88475e-05
0.000398488
-1.31544e-05
0.000400112
2.8343e-06
0.000399581
1.84406e-05
0.000396969
3.3148e-05
0.000392577
4.63975e-05
0.0003867
5.77882e-05
0.000379659
6.70316e-05
0.000371831
7.4015e-05
0.000363624
7.86183e-05
0.000355306
8.10036e-05
0.000347139
8.13471e-05
0.000339288
7.98603e-05
0.000331892
7.67572e-05
0.000325045
7.22836e-05
0.000318754
6.66634e-05
0.000313071
6.01095e-05
0.000307999
5.28134e-05
0.000303498
4.4947e-05
0.000299548
3.66483e-05
0.000296118
2.80238e-05
0.000293174
1.91441e-05
0.000290728
1.00543e-05
0.000288766
7.56615e-07
0.000287334
-8.76712e-06
0.00028647
-1.85662e-05
0.000286252
-2.87031e-05
0.0002868
-3.92453e-05
0.000288225
-5.0266e-05
0.000290717
-6.18246e-05
0.00029447
-7.39885e-05
0.000299722
-8.67619e-05
0.000306735
-0.000100132
0.000315784
-0.000113977
0.000327147
-0.000128099
0.00034098
-0.000142012
0.000357377
-0.000155187
0.000376085
-0.000166446
0.000397017
-0.00017534
-0.000180418
0.000419459
0.000305184
-7.32912e-05
0.00030356
-8.10062e-05
0.000304067
-8.7668e-05
0.000306676
-9.32351e-05
0.00031132
-9.74762e-05
0.000317859
-0.000100276
0.000326171
-0.000101444
0.000335955
-0.000100795
0.000346833
-9.80842e-05
0.000358445
-9.30906e-05
0.000370308
-8.561e-05
0.000381813
-7.55178e-05
0.000392319
-6.27947e-05
0.000401144
-4.7608e-05
0.000407874
-3.04522e-05
0.00041195
-1.20082e-05
0.000413279
6.89388e-06
0.000411956
2.54095e-05
0.000408061
4.28092e-05
0.000402015
5.8427e-05
0.000394154
7.17657e-05
0.000384922
8.25473e-05
0.000375057
9.03385e-05
0.000364907
9.53903e-05
0.000354752
9.7842e-05
0.0003449
9.78967e-05
0.000335579
9.58394e-05
0.000326927
9.19664e-05
0.000319022
8.65726e-05
0.000311899
7.99263e-05
0.000305546
7.22797e-05
0.000299933
6.38605e-05
0.000295015
5.48352e-05
0.000290746
4.5355e-05
0.000287062
3.5545e-05
0.000283913
2.5474e-05
0.000281274
1.51725e-05
0.000279141
4.65102e-06
0.000277518
-6.13775e-06
0.000276429
-1.72229e-05
0.000275954
-2.86994e-05
0.000276183
-4.06327e-05
0.000277229
-5.31181e-05
0.000279302
-6.62295e-05
0.000282613
-8.0064e-05
0.00028739
-9.46516e-05
0.000293949
-0.000110008
0.000302618
-0.000126014
0.0003136
-0.000142458
0.000327017
-0.000158571
0.000342921
-0.000173933
0.000360789
-0.000186882
0.000380743
-0.000197606
-0.000203425
0.000401535
0.000297662
-7.3072e-05
0.000296812
-8.19747e-05
0.000298194
-8.98514e-05
0.000301857
-9.66273e-05
0.000307781
-0.00010215
0.000315799
-0.000106234
0.00032571
-0.000108591
0.000337279
-0.000109025
0.000350178
-0.000107167
0.000363938
-0.000102687
0.000377992
-9.52352e-05
0.000391754
-8.45921e-05
0.000404338
-7.05981e-05
0.000414984
-5.32949e-05
0.000422845
-3.33207e-05
0.000427333
-1.15027e-05
0.000428561
1.10622e-05
0.000426214
3.31538e-05
0.000420814
5.38334e-05
0.000412781
7.22695e-05
0.000402492
8.8038e-05
0.000390987
0.00010023
0.000378602
0.000108998
0.000366025
0.000114438
0.000353702
0.000116752
0.000341964
0.000116272
0.000331033
0.000113398
0.000321032
0.000108513
0.000312004
0.000101971
0.000303968
9.41038e-05
0.000296897
8.5199e-05
0.000290737
7.55026e-05
0.000285391
6.52208e-05
0.000280782
5.4492e-05
0.000276842
4.34414e-05
0.000273482
3.21462e-05
0.000270642
2.06278e-05
0.000268307
8.88306e-06
0.000266468
-3.15387e-06
0.000265136
-1.55102e-05
0.000264353
-2.82841e-05
0.000264202
-4.15688e-05
0.000264793
-5.54721e-05
0.000266315
-7.00871e-05
0.000268974
-8.55401e-05
0.000273008
-0.000101875
0.000278702
-0.000119154
0.000286371
-0.000137188
0.000295958
-0.000155619
0.000307611
-0.000173409
0.000321116
-0.000190609
0.000335487
-0.000204311
0.000351077
-0.000216603
-0.000224717
0.000368605
0.000288987
-7.23587e-05
0.000288763
-8.26073e-05
0.000291027
-9.19519e-05
0.000295809
-0.000100243
0.000303032
-0.000107314
0.000312479
-0.000112935
0.000324077
-0.000116797
0.000337611
-0.000118654
0.000352524
-0.000117864
0.000368438
-0.000114158
0.000384865
-0.000106861
0.000401026
-9.58787e-05
0.000416093
-8.07216e-05
0.000428884
-6.11228e-05
0.000438639
-3.79972e-05
0.000444313
-1.20946e-05
0.000445568
1.50393e-05
0.000442444
4.16166e-05
0.000435314
6.64303e-05
0.000424759
8.84499e-05
0.000411808
0.000106756
0.000397348
0.000120755
0.000382117
0.000130504
0.000366801
0.000136168
0.000351968
0.000138084
0.000338045
0.000136744
0.000325297
0.000132694
0.000313834
0.000126466
0.000303645
0.00011849
0.000294703
0.000109155
0.000286936
9.8793e-05
0.000280239
8.76702e-05
0.000274497
7.60034e-05
0.000269581
6.39478e-05
0.000265388
5.16111e-05
0.000261825
3.90622e-05
0.000258801
2.63185e-05
0.000256288
1.33524e-05
0.000254221
1.14622e-07
0.000252614
-1.34582e-05
0.000251486
-2.74729e-05
0.000250892
-4.20312e-05
0.000250925
-5.72468e-05
0.000251747
-7.32375e-05
0.000253494
-9.01519e-05
0.000256406
-0.000108006
0.000260633
-0.000126915
0.000266259
-0.000146372
0.000273214
-0.000166106
0.000280933
-0.000184717
0.000288946
-0.000202329
0.000297089
-0.000216078
0.000307758
-0.000234176
-0.000260271
0.000330264
0.000278843
-7.11194e-05
0.000279287
-8.3021e-05
0.000282444
-9.40385e-05
0.000288247
-0.000104099
0.000296643
-0.000112984
0.000307559
-0.000120444
0.000320806
-0.000126071
0.00033589
-0.000129505
0.000352651
-0.000129788
0.000370339
-0.000127173
0.000388504
-0.000119891
0.00040692
-0.000109257
0.000424381
-9.32218e-05
0.000439885
-7.15433e-05
0.000452422
-4.5564e-05
0.000460117
-1.49789e-05
0.000462196
1.80333e-05
0.000458755
5.02545e-05
0.000450155
8.03796e-05
0.000437395
0.000106832
0.00042165
0.000128317
0.000403825
0.00014449
0.000385222
0.000155236
0.000366788
0.000160916
0.000349214
0.000162086
0.000332956
0.000159484
0.000318284
0.00015387
0.000305267
0.000145901
0.000293876
0.00013614
0.000284022
0.000125043
0.000275574
0.000112982
0.000268377
0.000100255
0.000262269
8.70745e-05
0.000257085
7.35981e-05
0.000252682
5.99262e-05
0.000248935
4.61075e-05
0.000245745
3.21395e-05
0.000243033
1.79851e-05
0.000240752
3.58677e-06
0.000238885
-1.11487e-05
0.000237399
-2.6311e-05
0.000236331
-4.20118e-05
0.000235712
-5.83716e-05
0.000235655
-7.55169e-05
0.00023617
-9.35576e-05
0.000237451
-0.000112514
0.000239267
-0.000132293
0.000241659
-0.000152355
0.000244034
-0.000172155
0.000245075
-0.000189611
0.000245683
-0.000208059
0.000249719
-0.00022868
0.000273994
-0.000278285
-0.000343269
0.000307646
0.000267063
-6.94254e-05
0.000268098
-8.32115e-05
0.000272049
-9.61514e-05
0.000278817
-0.000108221
0.000288339
-0.000119125
0.00030038
-0.000128602
0.000314815
-0.000135909
0.000330812
-0.000140872
0.000348207
-0.000142004
0.000366404
-0.000140295
0.000384439
-0.000133136
0.000403742
-0.000123239
0.000422988
-0.000107198
0.000442188
-8.5619e-05
0.000458914
-5.81328e-05
0.000470565
-2.24839e-05
0.000474497
1.80499e-05
0.000471521
5.76652e-05
0.00046192
9.46452e-05
0.000447284
0.000126552
0.00042898
0.000152283
0.000408185
0.000171348
0.000386198
0.000183384
0.000364583
0.000188845
0.000344186
0.000188875
0.000325579
0.000184511
0.000309036
0.000176816
0.000294586
0.000166655
0.000282127
0.000154722
0.000271494
0.000141556
0.000262495
0.000127572
0.000254915
0.000113063
0.000248541
9.82554e-05
0.000243175
8.32901e-05
0.000238643
6.82464e-05
0.000234782
5.31496e-05
0.000231473
3.79711e-05
0.000228625
2.26629e-05
0.000226173
7.15032e-06
0.000224064
-8.66818e-06
0.000222233
-2.48562e-05
0.000220656
-4.15267e-05
0.000219298
-5.87883e-05
0.000218113
-7.67174e-05
0.000217032
-9.53384e-05
0.000215857
-0.000114617
0.00021431
-0.000134189
0.000211879
-0.00015357
0.000207046
-0.000171326
0.000200033
-0.000187628
0.000197867
-0.000216561
0.000216918
-0.000280605
0.00022695
-0.000349884
-0.000391175
0.000231346
0.000253353
-6.74091e-05
0.000254966
-8.32449e-05
0.000259635
-9.8283e-05
0.000267179
-0.00011252
0.000277493