/*--------------------------------*- C++ -*----------------------------------*\
  =========                 |
  \\      /  F ield         | OpenFOAM: The Open Source CFD Toolbox
   \\    /   O peration     | Website:  https://openfoam.org
    \\  /    A nd           | Version:  10
     \\/     M anipulation  |
\*---------------------------------------------------------------------------*/
FoamFile
{
    format      ascii;
    class       volScalarField;
    location    "0.250001";
    object      T;
}
// * * * * * * * * * * * * * * * * * * * * * * * * * * * * * * * * * * * * * //

dimensions      [0 0 0 1 0 0 0];

internalField   nonuniform List<scalar> 
15984
(
0.00864979
0.00867132
0.00869537
0.00871664
0.00873614
0.00875305
0.00876547
0.00877607
0.00878076
0.00878298
0.00878154
0.00877766
0.00877155
0.00876254
0.0087533
0.00874377
0.00873229
0.00872249
0.00871319
0.0087054
0.00869855
0.00869493
0.00869173
0.0086931
0.00869529
0.0087007
0.00870771
0.0087188
0.00872832
0.00874268
0.0087532
0.00876642
0.00877584
0.00878446
0.00878938
0.00879224
0.00879144
0.00878852
0.00878219
0.00877305
0.00876144
0.00874785
0.0087342
0.00871739
0.00870033
0.00868499
0.00866621
0.00865103
0.00863407
0.00862059
0.00860644
0.00859561
0.0085858
0.00857946
0.00865827
0.00868083
0.00870763
0.00872934
0.0087503
0.00876662
0.00877888
0.008789
0.00879264
0.00879326
0.0087915
0.0087853
0.00877825
0.00876842
0.00875776
0.00874618
0.00873481
0.00872339
0.00871314
0.00870375
0.00869575
0.00869105
0.00868584
0.00868594
0.00868666
0.00868984
0.0086965
0.00870314
0.00871525
0.00872492
0.0087377
0.00874898
0.00875923
0.00876897
0.00877518
0.0087792
0.00878109
0.00877864
0.00877501
0.00876757
0.0087586
0.00874703
0.0087337
0.00872032
0.00870396
0.00868846
0.00867228
0.00865746
0.00864128
0.00862819
0.00861447
0.00860352
0.00859317
0.00858654
0.00866623
0.00869207
0.00871884
0.0087414
0.00876261
0.00877826
0.00879074
0.00879887
0.00880233
0.00880132
0.00879821
0.00879266
0.00878208
0.00877242
0.00876047
0.00874762
0.00873576
0.00872376
0.00871195
0.00870259
0.00869296
0.00868674
0.00868122
0.00867871
0.00867927
0.00868017
0.00868533
0.00869161
0.00869952
0.00871085
0.00872021
0.00873265
0.00874281
0.00875187
0.00875999
0.00876536
0.00876805
0.00876819
0.00876568
0.00876191
0.00875351
0.00874438
0.00873377
0.00871965
0.00870783
0.0086913
0.00867894
0.00866244
0.00865001
0.00863527
0.00862369
0.00861195
0.00860262
0.00859522
0.00867461
0.00870396
0.00872955
0.00875222
0.00877316
0.00878815
0.00880011
0.00880644
0.00880902
0.00880725
0.00880277
0.00879558
0.00878517
0.0087738
0.00876234
0.00874789
0.00873569
0.00872282
0.00871073
0.00870026
0.00869032
0.00868289
0.00867695
0.00867246
0.008672
0.00867227
0.00867518
0.00867955
0.00868774
0.00869493
0.00870584
0.00871567
0.00872575
0.00873594
0.00874383
0.00875046
0.00875472
0.00875597
0.00875574
0.00875324
0.00874771
0.00874023
0.00873104
0.00872099
0.00870819
0.00869635
0.00868319
0.00866956
0.00865704
0.00864439
0.00863266
0.00862185
0.00861308
0.00860508
0.00868456
0.0087139
0.00873885
0.00876189
0.00878167
0.00879534
0.00880667
0.00881122
0.00881259
0.00881092
0.00880411
0.0087962
0.0087867
0.00877349
0.00876075
0.00874848
0.00873328
0.00872174
0.00870819
0.00869765
0.00868757
0.00867924
0.00867261
0.00866752
0.00866488
0.00866507
0.00866603
0.00867013
0.00867505
0.0086828
0.00869066
0.00870052
0.00871037
0.0087189
0.00872803
0.00873512
0.00873977
0.00874367
0.00874455
0.00874372
0.0087401
0.00873554
0.00872799
0.00872006
0.00870954
0.00869909
0.00868827
0.00867553
0.00866557
0.00865298
0.00864257
0.00863332
0.00862383
0.00861667
0.00869507
0.00872269
0.00874698
0.00877101
0.00878614
0.00880191
0.00880875
0.00881408
0.0088135
0.00881091
0.00880408
0.00879519
0.0087851
0.00877169
0.0087589
0.00874544
0.00873215
0.00871812
0.00870653
0.00869456
0.00868446
0.00867579
0.00866809
0.0086637
0.00865893
0.00865818
0.0086588
0.00866072
0.00866514
0.00867082
0.00867723
0.00868652
0.00869429
0.00870412
0.00871194
0.00871926
0.00872569
0.00873005
0.00873256
0.00873356
0.00873186
0.00872933
0.00872473
0.00871767
0.00871048
0.00870198
0.00869235
0.00868264
0.00867257
0.00866329
0.00865264
0.00864458
0.00863658
0.00862987
0.00870416
0.00873092
0.00875479
0.00877528
0.00879153
0.00880312
0.00881057
0.00881306
0.00881224
0.00880842
0.00880225
0.00879167
0.00878063
0.00876928
0.00875481
0.00874179
0.0087286
0.00871499
0.00870314
0.00869131
0.0086811
0.00867184
0.00866466
0.00865902
0.00865457
0.00865225
0.00865213
0.0086529
0.00865626
0.0086598
0.00866679
0.00867268
0.00868132
0.00868886
0.0086966
0.00870458
0.00871082
0.00871648
0.0087203
0.00872279
0.00872362
0.00872229
0.00871988
0.00871594
0.00871018
0.00870405
0.00869698
0.00868879
0.00868093
0.008673
0.00866416
0.00865749
0.00864928
0.00864431
0.00871218
0.00873806
0.00876086
0.008778
0.00879374
0.0088019
0.0088096
0.00880965
0.00880817
0.00880385
0.00879653
0.00878642
0.00877555
0.00876405
0.00875001
0.00873696
0.00872347
0.00871153
0.00869815
0.00868813
0.00867746
0.00866891
0.00866079
0.00865488
0.00865059
0.00864745
0.00864598
0.00864675
0.00864793
0.00865158
0.00865557
0.00866147
0.0086685
0.00867499
0.00868296
0.00869026
0.0086968
0.00870339
0.00870797
0.00871253
0.00871411
0.00871559
0.00871498
0.00871315
0.00871015
0.00870616
0.00870141
0.00869505
0.00869049
0.00868079
0.00867953
0.00866838
0.008664
0.00865944
0.00871856
0.00874587
0.00876137
0.00878227
0.00878997
0.00880157
0.00880366
0.0088045
0.00880273
0.00879659
0.00878948
0.0087796
0.00876878
0.00875627
0.00874456
0.00873045
0.00871864
0.00870566
0.00869393
0.00868405
0.00867341
0.00866513
0.0086575
0.0086516
0.00864587
0.00864313
0.00864128
0.00864113
0.00864146
0.00864359
0.00864708
0.00865136
0.00865728
0.0086634
0.00866978
0.00867735
0.00868395
0.00869085
0.00869627
0.00870192
0.00870571
0.00870838
0.00871007
0.0087101
0.00870983
0.00870819
0.00870538
0.0087022
0.00869784
0.00869437
0.008688
0.00868418
0.00867911
0.00867505
0.00872773
0.008746
0.00876659
0.00877832
0.00879002
0.00879509
0.00879857
0.00879725
0.00879388
0.00878914
0.0087798
0.00877128
0.00875952
0.00874859
0.0087359
0.0087238
0.00871144
0.00870004
0.00868909
0.0086782
0.00867005
0.00866059
0.00865401
0.00864771
0.00864305
0.00863935
0.0086372
0.00863564
0.00863617
0.00863703
0.00863968
0.00864348
0.00864746
0.008653
0.00865896
0.0086656
0.00867216
0.00867943
0.00868566
0.00869204
0.00869737
0.00870169
0.00870519
0.00870792
0.00870937
0.00871015
0.00870998
0.00870891
0.00870717
0.0087043
0.00870265
0.00869704
0.00869584
0.0086914
0.00873213
0.00875043
0.00876583
0.00877656
0.00878578
0.0087889
0.00879048
0.00878911
0.00878396
0.00877803
0.00877022
0.00876032
0.00875064
0.00873838
0.00872685
0.00871568
0.00870386
0.00869369
0.00868197
0.00867428
0.00866481
0.0086565
0.00865031
0.00864408
0.00863945
0.00863569
0.00863354
0.00863161
0.00863132
0.00863199
0.0086332
0.0086365
0.00863955
0.00864443
0.00864959
0.00865566
0.00866207
0.00866941
0.00867622
0.00868323
0.00869002
0.00869568
0.00870114
0.00870572
0.00870956
0.00871254
0.00871464
0.00871612
0.0087163
0.008716
0.00871503
0.00871264
0.00871124
0.00870851
0.00873444
0.00875258
0.00876381
0.0087733
0.00877926
0.00878104
0.00878162
0.0087781
0.00877326
0.00876703
0.00875856
0.00874908
0.00873851
0.00872834
0.00871718
0.00870614
0.00869596
0.00868467
0.00867724
0.00866632
0.00865994
0.00865233
0.00864577
0.00864082
0.00863644
0.0086327
0.00862982
0.00862824
0.00862749
0.00862748
0.00862859
0.00863031
0.00863348
0.00863716
0.00864167
0.0086474
0.00865371
0.00866092
0.0086679
0.00867612
0.00868355
0.00869061
0.00869787
0.00870413
0.00871031
0.00871541
0.00871989
0.00872343
0.00872625
0.00872765
0.0087286
0.00872828
0.00872661
0.00872575
0.00873975
0.00875086
0.0087628
0.00876784
0.00877287
0.00877251
0.0087717
0.00876649
0.0087623
0.00875314
0.00874639
0.00873632
0.00872662
0.00871589
0.00870613
0.00869579
0.0086862
0.00867768
0.00866698
0.00866267
0.00865237
0.00864745
0.00864144
0.00863724
0.00863287
0.00862926
0.00862711
0.00862531
0.00862398
0.00862398
0.00862464
0.0086258
0.00862862
0.00863154
0.00863576
0.00864111
0.0086472
0.00865394
0.00866205
0.00866981
0.00867871
0.00868692
0.00869559
0.00870364
0.0087118
0.00871887
0.00872578
0.00873124
0.00873613
0.00873988
0.00874197
0.00874361
0.00874327
0.00874199
0.00873906
0.00875182
0.00875833
0.00876341
0.00876471
0.0087637
0.00876089
0.00875534
0.00874864
0.00874174
0.00873248
0.00872288
0.00871305
0.00870416
0.00869391
0.00868375
0.00867847
0.00866359
0.00866375
0.00864992
0.00865015
0.00864145
0.00863696
0.00863197
0.00862895
0.00862639
0.00862391
0.00862228
0.00862099
0.00862119
0.00862145
0.00862227
0.00862481
0.00862718
0.00863155
0.00863633
0.00864221
0.0086495
0.0086569
0.00866622
0.00867494
0.00868488
0.00869455
0.00870419
0.0087141
0.00872324
0.008732
0.00873957
0.00874645
0.00875205
0.00875581
0.00875828
0.00875946
0.00875884
0.00874267
0.00874911
0.00875584
0.00875689
0.00875692
0.0087546
0.00874964
0.00874325
0.00873685
0.00872642
0.00871905
0.00870877
0.00869998
0.00868975
0.00868105
0.00867434
0.00866142
0.00866072
0.00864843
0.00864625
0.00864002
0.00863533
0.00863137
0.00862853
0.00862463
0.00862297
0.00862144
0.00861944
0.00861854
0.0086182
0.00861885
0.00861986
0.0086221
0.00862432
0.00862872
0.00863322
0.00863967
0.0086459
0.00865461
0.00866371
0.00867312
0.00868446
0.00869448
0.00870619
0.00871733
0.00872878
0.00873888
0.00874837
0.00875735
0.00876466
0.00876962
0.0087737
0.00877581
0.00877555
0.00874209
0.008749
0.0087509
0.00875196
0.00874929
0.00874553
0.00873869
0.00873154
0.00872269
0.008714
0.00870475
0.0086939
0.00868534
0.00867711
0.00866749
0.00865854
0.00865646
0.00864369
0.00864167
0.00863439
0.00863312
0.0086289
0.00862574
0.00862285
0.00862049
0.00861948
0.00861736
0.00861683
0.008616
0.00861613
0.00861688
0.00861793
0.00862005
0.00862257
0.00862662
0.00863149
0.00863818
0.00864459
0.00865354
0.0086627
0.00867328
0.00868507
0.00869634
0.00870944
0.00872193
0.0087351
0.00874677
0.00875826
0.00876896
0.00877765
0.00878444
0.0087893
0.00879354
0.00879297
0.00874283
0.00874722
0.00874812
0.0087455
0.00874248
0.00873582
0.0087288
0.00872007
0.00870927
0.00870123
0.00868967
0.0086792
0.00867186
0.00866039
0.00865321
0.00864891
0.0086378
0.00863576
0.00862866
0.00862701
0.00862326
0.00862079
0.00861925
0.00861714
0.00861568
0.00861503
0.00861412
0.00861378
0.00861343
0.00861374
0.008615
0.00861662
0.00861869
0.0086221
0.00862592
0.00863098
0.00863799
0.00864489
0.00865416
0.0086636
0.00867501
0.00868717
0.00869978
0.00871407
0.00872775
0.00874231
0.00875567
0.0087692
0.00878091
0.00879144
0.00880068
0.00880759
0.00881401
0.00881455
0.00874411
0.00874572
0.00874394
0.00874086
0.0087352
0.00872744
0.00871951
0.00870811
0.00869703
0.0086868
0.00867577
0.0086647
0.0086551
0.00864583
0.00863972
0.0086281
0.00862698
0.00861902
0.00861563
0.00861328
0.00861164
0.00861168
0.00861135
0.00861091
0.00860982
0.00860963
0.00860982
0.00861018
0.00861077
0.00861186
0.00861341
0.00861564
0.00861806
0.00862171
0.0086261
0.00863187
0.00863866
0.00864692
0.00865542
0.00866629
0.00867782
0.00869082
0.00870436
0.00872031
0.0087345
0.00875047
0.00876578
0.0087811
0.00879341
0.00880865
0.00881872
0.00883025
0.008827
0.00881901
0.00874526
0.00874439
0.00874171
0.00873593
0.00872914
0.00871905
0.00870938
0.00869782
0.00868574
0.00867344
0.00866182
0.00865063
0.00863756
0.00863092
0.00861791
0.00861714
0.00860869
0.00860549
0.0086031
0.00860132
0.0086006
0.00860003
0.0086015
0.00860324
0.00860413
0.00860478
0.00860522
0.00860563
0.00860684
0.00860881
0.00861133
0.00861418
0.00861767
0.00862205
0.0086272
0.00863305
0.00864071
0.00864956
0.00865874
0.00867001
0.00868202
0.00869584
0.00871038
0.00872692
0.00874275
0.00876021
0.00877728
0.00879505
0.00880884
0.00883324
0.00883772
0.0088387
0.00880767
0.00880395
0.00874617
0.00874446
0.00873903
0.00873281
0.00872336
0.00871157
0.00870213
0.00868721
0.00867294
0.00866284
0.00864983
0.00863542
0.00862433
0.00861286
0.0086064
0.00859448
0.00859393
0.00858614
0.00858592
0.00858672
0.00858843
0.00859046
0.00859164
0.00859326
0.00859581
0.00859902
0.00860165
0.00860308
0.00860487
0.00860745
0.00861037
0.0086138
0.00861788
0.00862285
0.00862887
0.00863551
0.00864349
0.00865284
0.00866259
0.00867468
0.00868672
0.00870186
0.00871743
0.00873492
0.00875181
0.00877277
0.00878989
0.00881239
0.008833
0.00884857
0.00883624
0.00883046
0.00864527
0.00849291
0.00874862
0.00874315
0.00873852
0.00872864
0.00871906
0.00870683
0.00869379
0.00867654
0.0086701
0.00864567
0.00864255
0.00861773
0.00860285
0.0085934
0.00857399
0.00856997
0.00856906
0.00856776
0.00856928
0.00857182
0.00857104
0.00857471
0.00857844
0.00858167
0.00858469
0.00858831
0.00859182
0.0085952
0.00859893
0.00860306
0.00860755
0.00861221
0.00861751
0.00862341
0.00863033
0.00863792
0.00864689
0.00865662
0.00866797
0.00867953
0.0086931
0.00870871
0.00872521
0.00874397
0.00876241
0.00878777
0.00880303
0.00883902
0.00884404
0.00884981
0.00876563
0.00865246
0.00796591
0.0067703
0.00875069
0.00874322
0.00873771
0.00872642
0.00871511
0.00870253
0.00869025
0.00866932
0.00866607
0.00862922
0.0086309
0.00858029
0.008582
0.00852516
0.00847201
0.00847757
0.00848317
0.00851028
0.00853078
0.00854881
0.00856342
0.0085623
0.00857107
0.00857546
0.00857946
0.00858381
0.00858774
0.00859159
0.00859576
0.00860066
0.00860631
0.00861202
0.00861824
0.00862523
0.00863266
0.00864078
0.00865038
0.00866094
0.00867268
0.00868512
0.00869956
0.00871586
0.00873396
0.00875406
0.00877733
0.00880052
0.00882952
0.00884535
0.00883422
0.00880712
0.00841966
0.00763096
0.00589905
0.00502909
0.00875225
0.00874444
0.00873831
0.00872461
0.00871501
0.00869797
0.00869384
0.00866105
0.00865992
0.00859615
0.00859078
0.00844261
0.00843286
0.00817831
0.00801008
0.00804145
0.00807353
0.0082562
0.00838554
0.00847736
0.00851837
0.00854268
0.00854622
0.00855622
0.00856394
0.008572
0.00857897
0.00858551
0.008592
0.00859797
0.00860357
0.00861059
0.00861853
0.00862656
0.0086349
0.00864377
0.00865426
0.00866527
0.0086779
0.00869114
0.00870638
0.00872404
0.00874389
0.00876667
0.00879382
0.00881883
0.00883767
0.00883202
0.00876913
0.00844657
0.00722904
0.0053428
0.0047489
0.00453788
0.00875432
0.00874641
0.00873891
0.00872542
0.00871741
0.00869869
0.00869311
0.00864353
0.00862949
0.00844538
0.00838562
0.00786301
0.00755082
0.00685429
0.00641452
0.00641321
0.00665283
0.00706122
0.00775966
0.00818245
0.00842522
0.00851842
0.00854432
0.00855093
0.00855761
0.00856536
0.00857074
0.0085753
0.00858336
0.00859274
0.00860173
0.00861009
0.00861883
0.00862777
0.00863689
0.00864667
0.00865801
0.00866987
0.00868249
0.00869713
0.00871355
0.00873245
0.0087561
0.00878388
0.00880696
0.00882568
0.00882452
0.00876129
0.00844648
0.00707991
0.00518935
0.00459367
0.00446767
0.00445245
0.0087574
0.00874878
0.00874079
0.00873026
0.00872065
0.00869476
0.00867633
0.00856695
0.00841824
0.00794877
0.00722262
0.00612303
0.00532277
0.00491715
0.0047305
0.00476144
0.00476388
0.00522791
0.00589576
0.00723439
0.00798951
0.00830077
0.00844515
0.00850577
0.00853394
0.0085514
0.00856249
0.00857157
0.00857953
0.0085881
0.00859762
0.00860818
0.00861854
0.00862882
0.00863878
0.0086491
0.00866109
0.00867366
0.00868741
0.00870331
0.00872076
0.00874399
0.00877114
0.00879287
0.00881183
0.00880844
0.00876154
0.00846924
0.00715065
0.00510963
0.00452216
0.00444999
0.00444362
0.00444409
0.00876037
0.0087519
0.00874535
0.00873156
0.0087194
0.00865338
0.00855536
0.00816151
0.0073953
0.00619645
0.00507401
0.00462129
0.00442291
0.00434043
0.00433432
0.0043608
0.00438393
0.00454471
0.00465666
0.00557736
0.00731861
0.00818937
0.00844363
0.00850709
0.0085345
0.00854492
0.00855664
0.00856498
0.00857571
0.00858595
0.00859646
0.00860742
0.00861889
0.00862973
0.00864052
0.00865184
0.00866429
0.00867793
0.00869235
0.0087096
0.00873136
0.00875676
0.0087798
0.00879411
0.0087885
0.00874019
0.00848399
0.00737965
0.00509962
0.00450125
0.00443856
0.00443679
0.0044392
0.00444075
0.00876338
0.00875876
0.00874916
0.00872588
0.00866634
0.00843791
0.00791638
0.00664788
0.00521574
0.00462821
0.00438879
0.00430288
0.00428229
0.0042865
0.00430727
0.00436859
0.00446071
0.00445578
0.00451766
0.00493637
0.00599795
0.0075456
0.00824111
0.00845672
0.00851731
0.0085388
0.0085466
0.00855743
0.00856784
0.00858077
0.00859376
0.00860666
0.00861881
0.00863036
0.0086416
0.00865345
0.00866685
0.0086811
0.0086981
0.00871861
0.00874224
0.00876597
0.00877353
0.00876272
0.00869832
0.00846457
0.00754618
0.00521371
0.00447804
0.00443245
0.00443165
0.00443504
0.00443556
0.00442838
0.00876797
0.00876127
0.00874233
0.00864512
0.00833133
0.00748549
0.00577944
0.00478664
0.00442106
0.00431999
0.0042906
0.00428001
0.00428259
0.00430831
0.00438732
0.00461387
0.00489748
0.00479269
0.00468748
0.00487674
0.00564285
0.00706831
0.0079971
0.00838543
0.00849819
0.0085281
0.00853809
0.0085481
0.00856227
0.00857605
0.00859048
0.00860492
0.00861792
0.00863
0.00864201
0.00865487
0.00866913
0.00868567
0.00870551
0.00872857
0.0087504
0.00875406
0.00872977
0.00863236
0.00835538
0.00763258
0.00526102
0.0044728
0.004426
0.00442626
0.00442825
0.00442786
0.00442735
0.00442244
0.0087711
0.00875229
0.00864677
0.00814198
0.00685095
0.00518501
0.00451208
0.00434581
0.00431474
0.0043
0.00428942
0.00428794
0.00430745
0.00437744
0.00455143
0.00491147
0.0057246
0.00554918
0.00505499
0.00506671
0.00576119
0.00713156
0.00798241
0.00834767
0.00847763
0.00851629
0.00852976
0.00854378
0.00855731
0.0085729
0.00858894
0.00860383
0.00861703
0.00862909
0.00864235
0.00865616
0.00867233
0.00869186
0.00871493
0.00873483
0.0087357
0.00869438
0.00851006
0.00820158
0.00727679
0.00495253
0.00447025
0.00441959
0.0044172
0.00442007
0.00442113
0.00442187
0.00441723
0.00441361
0.00874552
0.00862531
0.0079718
0.00604189
0.00475001
0.00438614
0.00434264
0.0043249
0.00431099
0.00429937
0.00429559
0.00430255
0.00434169
0.00444966
0.00471126
0.00529506
0.00652299
0.00657867
0.00580395
0.00554281
0.00597702
0.00719706
0.00801593
0.00835357
0.00846861
0.00850508
0.0085203
0.00853462
0.00855192
0.00856886
0.00858545
0.00860207
0.00861481
0.00862788
0.00864182
0.00865779
0.00867711
0.00870045
0.0087199
0.00872013
0.00865999
0.00833486
0.00787364
0.00649179
0.00482545
0.00448025
0.00441287
0.00440825
0.00440982
0.00441001
0.0044112
0.00441046
0.00440672
0.00440086
0.00839964
0.00768704
0.00524142
0.00444178
0.00437176
0.00434875
0.00433522
0.00432084
0.00430698
0.0042998
0.00429934
0.00431641
0.00437948
0.00453788
0.00489493
0.005668
0.00705037
0.00737178
0.00657405
0.00627865
0.00679412
0.00764256
0.0081481
0.00838034
0.00846574
0.00849269
0.00851048
0.00852975
0.00854907
0.0085672
0.00858414
0.00859828
0.00861246
0.00862609
0.00864265
0.00866073
0.00868416
0.00870547
0.00870759
0.00862388
0.00823831
0.0071116
0.00558437
0.00474649
0.00446559
0.00440684
0.00440002
0.00440131
0.00440145
0.00440358
0.00440396
0.00440076
0.0043962
0.0043866
0.00510462
0.00453562
0.00441223
0.00437073
0.00435343
0.00434338
0.0043305
0.00431583
0.00430589
0.00430324
0.00430743
0.00434
0.00442819
0.00463414
0.00506612
0.00596282
0.00734655
0.00774464
0.00731493
0.00707844
0.00747544
0.00798125
0.00827494
0.00841127
0.008464
0.00848497
0.00850434
0.00852569
0.00854539
0.00856363
0.00858073
0.00859586
0.00860929
0.00862517
0.00864397
0.00866627
0.0086901
0.00869847
0.00861771
0.00784677
0.00591391
0.00501512
0.00463494
0.00444653
0.00439851
0.00439151
0.00439208
0.00439233
0.0043937
0.00439398
0.00439345
0.00438937
0.00438342
0.00437441
0.00449888
0.0044055
0.00437208
0.00435911
0.00434888
0.00433707
0.00432513
0.00431224
0.00430585
0.00430503
0.00431528
0.0043585
0.00446926
0.00472125
0.00522658
0.00615071
0.00750712
0.00796567
0.00784665
0.00771207
0.00796345
0.00820848
0.00835961
0.00843174
0.00846241
0.0084792
0.00850276
0.00852493
0.00854395
0.00856086
0.00857751
0.00859244
0.00860845
0.00862614
0.00864733
0.00867228
0.00868838
0.00854664
0.00728587
0.00535069
0.00475075
0.00452264
0.00442364
0.00438825
0.00438194
0.00438348
0.00438379
0.00438378
0.00438495
0.00438411
0.00438249
0.00437741
0.00436937
0.00435887
0.0044024
0.004371
0.0043646
0.00435246
0.00434341
0.00433146
0.00432131
0.00430953
0.00430539
0.00430548
0.00431951
0.00436846
0.00448984
0.00476462
0.0053205
0.00632127
0.00762165
0.00811711
0.00815028
0.00810609
0.0082257
0.00833755
0.00840631
0.00844188
0.00846121
0.00848051
0.00850378
0.00852329
0.00854268
0.00856003
0.00857545
0.00858865
0.00860581
0.00862795
0.00865167
0.00866159
0.00847456
0.00716871
0.00516462
0.00461704
0.0044564
0.00439948
0.00437799
0.00437369
0.00437362
0.00437477
0.00437541
0.00437587
0.00437525
0.00437489
0.00437028
0.00436477
0.00435446
0.00434263
0.00437037
0.0043664
0.0043571
0.0043472
0.00433728
0.00432767
0.00431733
0.00430706
0.00430401
0.00430543
0.00432217
0.0043735
0.00449694
0.00477684
0.00535303
0.00640451
0.00771824
0.00821975
0.00830108
0.00830883
0.00835076
0.00839985
0.00842251
0.00845048
0.00846315
0.00848418
0.00850713
0.00852382
0.0085421
0.00855729
0.00857101
0.00858666
0.00860628
0.00862914
0.00863789
0.00848437
0.00734164
0.00527965
0.00458637
0.0044234
0.00438196
0.00436905
0.00436589
0.00436526
0.00436583
0.00436672
0.00436711
0.0043676
0.00436607
0.00436448
0.00435854
0.00435088
0.00433929
0.00432541
0.00436527
0.00435746
0.00435075
0.00434209
0.00433304
0.00432361
0.0043145
0.00430543
0.00430331
0.00430576
0.0043245
0.00437641
0.00449609
0.00474956
0.00524998
0.0062106
0.00764381
0.00823788
0.0083738
0.00838977
0.00841389
0.00842641
0.00844105
0.00845283
0.00846958
0.00849216
0.00851048
0.00852438
0.00854222
0.00855607
0.00857031
0.00858589
0.00860911
0.00862377
0.00857495
0.00799656
0.00609238
0.00474633
0.00443046
0.00437106
0.00436021
0.00435852
0.00435865
0.00435919
0.00435939
0.00435947
0.0043593
0.00435956
0.00435686
0.00435327
0.00434684
0.00433661
0.00432413
0.00430743
0.00435782
0.0043519
0.00434545
0.0043377
0.00432931
0.00432069
0.0043118
0.00430466
0.00430365
0.00430824
0.00433027
0.00438492
0.00450464
0.00474683
0.00520864
0.00604987
0.0073993
0.00824736
0.00837778
0.00842876
0.00843628
0.0084453
0.00844323
0.00846992
0.00847687
0.00850093
0.00851315
0.00852695
0.00854354
0.00855464
0.00857006
0.00858939
0.00860716
0.00860739
0.00844991
0.0075805
0.00554681
0.00457285
0.00437775
0.00435398
0.00435225
0.00435287
0.00435293
0.00435213
0.00435235
0.00435228
0.00435215
0.0043522
0.00434662
0.00434311
0.00433426
0.00432238
0.00430867
0.0042898
0.00435246
0.00434705
0.00434095
0.00433396
0.00432656
0.00431834
0.00430974
0.00430424
0.00430375
0.00431043
0.00433536
0.00439289
0.00451199
0.00473966
0.00514354
0.00585016
0.00705503
0.00809079
0.00840711
0.00842693
0.00845375
0.00845447
0.00846904
0.00847075
0.00849307
0.00850599
0.00851814
0.00853051
0.00854514
0.00855654
0.0085723
0.0085903
0.0085995
0.00856262
0.00826963
0.00703022
0.0051093
0.0044657
0.00435925
0.00434655
0.00434651
0.00434735
0.00434734
0.00434706
0.00434687
0.00434653
0.00434596
0.00434203
0.00434007
0.00433045
0.00432282
0.00430845
0.00429246
0.00427358
0.00434811
0.0043431
0.00433744
0.00433114
0.00432428
0.00431684
0.00430843
0.00430478
0.00430527
0.00431473
0.00434394
0.00440724
0.00453135
0.00475511
0.00513229
0.0057471
0.00673863
0.00789257
0.00835584
0.00843314
0.00845492
0.0084728
0.00847618
0.00849119
0.00850071
0.00851344
0.0085228
0.00853509
0.00854811
0.00856031
0.00857375
0.00858456
0.00856486
0.00843439
0.00779817
0.00608616
0.00471143
0.00439882
0.00434409
0.00434051
0.00434228
0.00434305
0.00434224
0.0043416
0.00434132
0.0043414
0.00433831
0.00433491
0.00433031
0.00432056
0.00431049
0.00429437
0.00427698
0.00425807
0.00434457
0.00433999
0.00433499
0.00432929
0.00432278
0.00431571
0.00430761
0.00430479
0.00430606
0.00431763
0.00435047
0.0044194
0.00455091
0.0047797
0.00514445
0.00570461
0.00652526
0.00762877
0.00830739
0.00841504
0.00846789
0.00848011
0.00849763
0.00850177
0.0085103
0.00852014
0.00853073
0.00854481
0.00855427
0.008561
0.00856407
0.00852777
0.00842057
0.00795368
0.00668251
0.00500764
0.00450155
0.00435063
0.00433693
0.0043374
0.00433898
0.00433811
0.00433763
0.00433774
0.00433772
0.00433536
0.00433371
0.00432622
0.00432294
0.00430879
0.00429857
0.00428105
0.004263
0.0042434
0.00434202
0.00433807
0.00433343
0.00432825
0.00432202
0.00431511
0.00430756
0.00430523
0.00430702
0.00431971
0.0043546
0.00442799
0.00456631
0.00480577
0.00517935
0.0057289
0.00648933
0.00749582
0.00814378
0.00845477
0.00846144
0.00848812
0.00850796
0.00851623
0.00852189
0.00853318
0.00854096
0.00854399
0.00853625
0.00850848
0.00846591
0.00831309
0.00779686
0.00662478
0.00514412
0.00460312
0.00438143
0.00433898
0.00433556
0.00433619
0.00433518
0.00433497
0.00433538
0.00433488
0.00433208
0.00433086
0.00432733
0.00431827
0.0043138
0.00429859
0.00428729
0.00426778
0.00424943
0.00423033
0.0043406
0.00433703
0.00433289
0.00432777
0.00432234
0.00431483
0.0043076
0.00430456
0.00430567
0.00431713
0.00434968
0.00442053
0.00455731
0.00479816
0.00517635
0.0057259
0.00644928
0.00730203
0.00818483
0.0083264
0.00847852
0.0084799
0.00852037
0.00852436
0.00853193
0.0085336
0.00853208
0.0085203
0.00851258
0.00840631
0.00804318
0.00724665
0.00611792
0.00515986
0.00458547
0.00442658
0.00434201
0.00433611
0.00433494
0.00433492
0.00433315
0.00433277
0.00433297
0.00433235
0.00432921
0.00432753
0.00431936
0.00431444
0.00430353
0.00428973
0.00427474
0.00425652
0.00423709
0.00421972
0.00434015
0.00433698
0.0043331
0.0043283
0.00432312
0.00431545
0.00430817
0.00430454
0.00430478
0.00431487
0.00434569
0.00441363
0.00454857
0.00478979
0.00517447
0.00573684
0.00647873
0.00735385
0.00803061
0.00841645
0.00844882
0.00848192
0.00851642
0.00853153
0.00853335
0.00853545
0.00851941
0.00844212
0.00813169
0.00759371
0.00648717
0.00548626
0.00502352
0.00459887
0.00440604
0.0043578
0.00433342
0.00433349
0.00433305
0.00433247
0.00433176
0.00433151
0.00433112
0.00432779
0.00432624
0.00432222
0.00431409
0.00430734
0.00429342
0.00428117
0.00426293
0.00424475
0.00422694
0.00421107
0.00434069
0.00433784
0.00433408
0.0043296
0.00432458
0.00431752
0.00431043
0.00430305
0.0043004
0.00430321
0.00431771
0.00436063
0.00445811
0.00465946
0.00501973
0.00558036
0.00636078
0.00725047
0.00813455
0.00829289
0.00846374
0.00845428
0.00851916
0.00850276
0.00849908
0.0084063
0.00826111
0.00780641
0.00707788
0.00588096
0.00507317
0.00480761
0.0045545
0.00439955
0.0043582
0.00433557
0.00433299
0.00433239
0.00433187
0.00433161
0.00433092
0.00433079
0.00432893
0.00432544
0.00432369
0.00431618
0.00430918
0.00429845
0.00428632
0.00426925
0.00425308
0.00423414
0.00421703
0.00420463
0.00434213
0.00433927
0.00433566
0.0043315
0.00432628
0.0043202
0.00431355
0.00430569
0.00430068
0.00430007
0.0043051
0.00432531
0.00437701
0.00449447
0.00473432
0.00516312
0.00584482
0.00680197
0.00776274
0.00825034
0.00841674
0.00839518
0.00840604
0.00845971
0.00833241
0.00809805
0.0074146
0.00626391
0.00527251
0.00485267
0.00461769
0.0044921
0.004389
0.004356
0.00433782
0.00433432
0.00433258
0.00433189
0.00433192
0.00433179
0.00432978
0.0043294
0.00432752
0.00432217
0.00431967
0.00431093
0.0043027
0.00429062
0.00427654
0.00425913
0.0042415
0.00422467
0.0042085
0.00420003
0.00434409
0.00434122
0.00433759
0.00433372
0.0043286
0.00432281
0.00431636
0.0043095
0.0043028
0.00429937
0.00429983
0.00430613
0.00432804
0.00438119
0.00449929
0.00473167
0.00513675
0.0057741
0.0066708
0.00757553
0.00791383
0.00798738
0.00805157
0.00788911
0.00749488
0.00649081
0.00554607
0.00488562
0.00470682
0.00449665
0.00444594
0.00437514
0.0043509
0.00434066
0.00433586
0.00433443
0.00433302
0.00433237
0.00433246
0.00433202
0.00432964
0.0043278
0.00432564
0.00431899
0.00431587
0.00430467
0.00429628
0.0042815
0.00426675
0.00424726
0.00423154
0.00421352
0.00420232
0.00419543
0.00434633
0.00434339
0.00433977
0.00433626
0.00433099
0.00432564
0.00431935
0.00431305
0.00430682
0.00430135
0.00429894
0.00429978
0.00430646
0.0043266
0.00437397
0.00447299
0.00465451
0.00494998
0.00536889
0.00585803
0.00638785
0.00639782
0.00645584
0.00629007
0.00561078
0.00502517
0.00471883
0.0045034
0.00448291
0.00438872
0.00437603
0.00434802
0.00434265
0.0043388
0.0043367
0.00433573
0.00433463
0.00433423
0.0043344
0.00433164
0.00433017
0.00432611
0.0043235
0.00431537
0.00431162
0.00429871
0.00428923
0.00427187
0.00425656
0.00423647
0.00421948
0.00420527
0.00419545
0.00419258
0.00434845
0.00434551
0.00434195
0.00433841
0.00433318
0.00432775
0.00432184
0.0043156
0.00431037
0.00430494
0.00430005
0.00429869
0.00429924
0.00430518
0.00432014
0.00435568
0.0044238
0.00453693
0.00469715
0.00488656
0.00507588
0.00508758
0.00511341
0.00500013
0.00471784
0.00448774
0.00446777
0.00439175
0.0043896
0.00435567
0.00435126
0.00434416
0.00434229
0.00434003
0.00433972
0.0043385
0.0043379
0.00433694
0.0043355
0.00433233
0.00433045
0.0043248
0.00432201
0.00431202
0.00430676
0.00429259
0.0042803
0.00426358
0.00424316
0.00422582
0.0042084
0.00419553
0.00419022
0.00418781
0.00435044
0.00434746
0.00434378
0.00434014
0.00433493
0.00432984
0.0043238
0.00431796
0.00431289
0.004308
0.00430347
0.00429936
0.00429931
0.00429984
0.00430447
0.00431554
0.00433816
0.00437599
0.00443187
0.00449975
0.00454317
0.00456484
0.00456303
0.00450674
0.00442874
0.00437912
0.00437882
0.00436034
0.00435802
0.00435082
0.00434796
0.00434597
0.00434514
0.00434557
0.00434477
0.00434302
0.00434177
0.00433955
0.00433843
0.00433386
0.00433181
0.00432379
0.00431971
0.00430916
0.00430084
0.00428641
0.00427293
0.00425289
0.00423317
0.00421446
0.00419827
0.00418798
0.00418408
0.00418378
0.00435212
0.00434899
0.0043452
0.00434155
0.00433618
0.00433093
0.00432516
0.00431993
0.00431509
0.00431018
0.00430583
0.00430249
0.00430152
0.00430115
0.00430281
0.00430677
0.00431507
0.00432767
0.00434576
0.00436741
0.00438272
0.00439003
0.00438986
0.00437389
0.00436227
0.00435636
0.0043569
0.00435531
0.00435464
0.00435174
0.00435099
0.00435121
0.00435135
0.00435106
0.00434998
0.00434808
0.00434745
0.0043453
0.00434208
0.00433618
0.00433329
0.00432324
0.00431815
0.00430706
0.00429618
0.00428124
0.00426432
0.00424262
0.00422464
0.00419789