/*--------------------------------*- C++ -*----------------------------------*\
  =========                 |
  \\      /  F ield         | OpenFOAM: The Open Source CFD Toolbox
   \\    /   O peration     | Website:  https://openfoam.org
    \\  /    A nd           | Version:  10
     \\/     M anipulation  |
\*---------------------------------------------------------------------------*/
FoamFile
{
    format      ascii;
    class       volVectorField;
    location    "0.250001";
    object      U;
}
// * * * * * * * * * * * * * * * * * * * * * * * * * * * * * * * * * * * * * //

dimensions      [0 1 -1 0 0 0 0];

internalField   nonuniform List<vector> 
15984
(
(0.506165 -0.00109987 0)
(0.491111 -0.00694978 0)
(0.476187 -0.0137084 0)
(0.462073 -0.021027 0)
(0.4492 -0.02869 0)
(0.43793 -0.0364554 0)
(0.428527 -0.0440835 0)
(0.421147 -0.0513612 0)
(0.415843 -0.0581065 0)
(0.412492 -0.0641909 0)
(0.410947 -0.0696265 0)
(0.411036 -0.0741696 0)
(0.412528 -0.0780468 0)
(0.415124 -0.0810823 0)
(0.418581 -0.083377 0)
(0.422663 -0.0849567 0)
(0.427058 -0.0858429 0)
(0.431536 -0.0860788 0)
(0.43586 -0.085699 0)
(0.439781 -0.0847069 0)
(0.44309 -0.0831131 0)
(0.445599 -0.0809095 0)
(0.447181 -0.0780858 0)
(0.447747 -0.0747074 0)
(0.447192 -0.0706637 0)
(0.445482 -0.0659978 0)
(0.44269 -0.0607409 0)
(0.438991 -0.0549536 0)
(0.434606 -0.048794 0)
(0.429826 -0.0423796 0)
(0.42497 -0.0359278 0)
(0.420366 -0.0296139 0)
(0.416343 -0.0236562 0)
(0.413158 -0.0182289 0)
(0.411037 -0.0134822 0)
(0.410082 -0.00951686 0)
(0.410293 -0.00630524 0)
(0.41177 -0.00395438 0)
(0.414553 -0.00248683 0)
(0.418532 -0.00180231 0)
(0.423564 -0.00184161 0)
(0.429508 -0.00245013 0)
(0.436266 -0.00353779 0)
(0.443687 -0.00497018 0)
(0.451657 -0.00662338 0)
(0.460051 -0.00836596 0)
(0.468708 -0.0100571 0)
(0.477507 -0.0115757 0)
(0.486299 -0.0127906 0)
(0.494934 -0.0135738 0)
(0.503239 -0.0138034 0)
(0.511047 -0.01337 0)
(0.518177 -0.0121682 0)
(0.524445 -0.010109 0)
(0.500372 -0.0061591 0)
(0.484591 -0.0123317 0)
(0.469071 -0.019195 0)
(0.454576 -0.0264041 0)
(0.44155 -0.0337323 0)
(0.430362 -0.0409523 0)
(0.421252 -0.0478579 0)
(0.414343 -0.054276 0)
(0.40965 -0.0600663 0)
(0.40695 -0.0651705 0)
(0.406175 -0.0695715 0)
(0.407033 -0.0731753 0)
(0.409226 -0.0760555 0)
(0.412594 -0.0782664 0)
(0.416759 -0.0797598 0)
(0.421489 -0.0806629 0)
(0.426519 -0.0810062 0)
(0.431584 -0.0808069 0)
(0.43646 -0.0801261 0)
(0.440929 -0.0789825 0)
(0.444785 -0.077378 0)
(0.447849 -0.0753107 0)
(0.449965 -0.0727619 0)
(0.451069 -0.0697461 0)
(0.451071 -0.0662648 0)
(0.449928 -0.0622308 0)
(0.447683 -0.0577026 0)
(0.444416 -0.0526716 0)
(0.440363 -0.0472374 0)
(0.435762 -0.0415191 0)
(0.430904 -0.0356608 0)
(0.426126 -0.029838 0)
(0.421723 -0.0242348 0)
(0.418009 -0.0190318 0)
(0.415224 -0.0143918 0)
(0.413542 -0.0104339 0)
(0.413011 -0.0072122 0)
(0.413679 -0.00471044 0)
(0.415654 -0.00306565 0)
(0.418891 -0.00221797 0)
(0.423288 -0.00209053 0)
(0.428714 -0.00257578 0)
(0.435037 -0.00356241 0)
(0.442169 -0.00494871 0)
(0.449964 -0.00660438 0)
(0.458299 -0.00839841 0)
(0.467047 -0.0102078 0)
(0.476063 -0.0118903 0)
(0.485195 -0.0133313 0)
(0.49429 -0.0144004 0)
(0.503171 -0.0149807 0)
(0.511665 -0.0149581 0)
(0.51958 -0.0142287 0)
(0.526718 -0.0127044 0)
(0.494197 -0.0121645 0)
(0.477872 -0.0185942 0)
(0.462 -0.0254677 0)
(0.447359 -0.0324479 0)
(0.43441 -0.0393084 0)
(0.423499 -0.0458506 0)
(0.414838 -0.0519098 0)
(0.408517 -0.0573549 0)
(0.40448 -0.0620957 0)
(0.402491 -0.0661554 0)
(0.402428 -0.0694117 0)
(0.404036 -0.0720384 0)
(0.406929 -0.0738892 0)
(0.410931 -0.0751739 0)
(0.415719 -0.0758705 0)
(0.42098 -0.0760488 0)
(0.426511 -0.075798 0)
(0.432045 -0.0751363 0)
(0.437341 -0.0741098 0)
(0.44221 -0.0727527 0)
(0.446459 -0.0710815 0)
(0.449922 -0.0690957 0)
(0.452453 -0.0667804 0)
(0.453944 -0.06411 0)
(0.454393 -0.0611098 0)
(0.453711 -0.0577038 0)
(0.451897 -0.0538886 0)
(0.449083 -0.0496327 0)
(0.445368 -0.045007 0)
(0.441001 -0.0400686 0)
(0.436244 -0.0349344 0)
(0.431392 -0.0297375 0)
(0.426762 -0.024646 0)
(0.42264 -0.0198225 0)
(0.419308 -0.0154295 0)
(0.416974 -0.0116055 0)
(0.41578 -0.00845178 0)
(0.415733 -0.00596614 0)
(0.41691 -0.00419637 0)
(0.41942 -0.00323977 0)
(0.423158 -0.002976 0)
(0.428022 -0.00336706 0)
(0.433903 -0.00429211 0)
(0.440672 -0.00564601 0)
(0.448246 -0.00731306 0)
(0.456485 -0.00917547 0)
(0.465261 -0.0111005 0)
(0.474424 -0.0129586 0)
(0.483834 -0.0146283 0)
(0.493328 -0.0159817 0)
(0.50273 -0.0169031 0)
(0.511851 -0.0172712 0)
(0.520491 -0.0169861 0)
(0.528435 -0.0159559 0)
(0.487695 -0.0189319 0)
(0.471059 -0.0255394 0)
(0.455087 -0.0323289 0)
(0.440553 -0.0389635 0)
(0.427908 -0.0452424 0)
(0.417463 -0.0510036 0)
(0.409395 -0.056121 0)
(0.40376 -0.0605178 0)
(0.400413 -0.0641426 0)
(0.399178 -0.0670907 0)
(0.399828 -0.0691822 0)
(0.402096 -0.0707376 0)
(0.405645 -0.0716158 0)
(0.410191 -0.0719222 0)
(0.415491 -0.0717905 0)
(0.421197 -0.0712233 0)
(0.427096 -0.0703128 0)
(0.432965 -0.069136 0)
(0.438558 -0.0677117 0)
(0.443687 -0.0660905 0)
(0.448179 -0.0642915 0)
(0.451887 -0.0623225 0)
(0.45468 -0.0601731 0)
(0.456455 -0.057816 0)
(0.457177 -0.0552202 0)
(0.456827 -0.0524245 0)
(0.455414 -0.0492589 0)
(0.452941 -0.0458153 0)
(0.449557 -0.0420138 0)
(0.445459 -0.0379209 0)
(0.440859 -0.0336028 0)
(0.436047 -0.0291571 0)
(0.431292 -0.0247189 0)
(0.426905 -0.020425 0)
(0.423154 -0.0164389 0)
(0.420276 -0.0128947 0)
(0.418453 -0.00991225 0)
(0.417786 -0.00756931 0)
(0.418279 -0.00583202 0)
(0.420054 -0.00480409 0)
(0.423143 -0.00449273 0)
(0.42741 -0.00482519 0)
(0.432794 -0.00572315 0)
(0.439199 -0.00708996 0)
(0.446493 -0.00879795 0)
(0.454574 -0.0107533 0)
(0.463324 -0.0128191 0)
(0.47259 -0.0148757 0)
(0.482224 -0.016785 0)
(0.492061 -0.0184274 0)
(0.501926 -0.0196825 0)
(0.511625 -0.0204304 0)
(0.520943 -0.020563 0)
(0.52965 -0.0199827 0)
(0.480929 -0.0262438 0)
(0.464243 -0.0329447 0)
(0.448445 -0.0395504 0)
(0.434271 -0.0457422 0)
(0.422146 -0.0513561 0)
(0.412348 -0.0562618 0)
(0.405004 -0.0603871 0)
(0.400143 -0.06369 0)
(0.397527 -0.0661874 0)
(0.397059 -0.067984 0)
(0.398391 -0.068993 0)
(0.401223 -0.069418 0)
(0.405386 -0.0692921 0)
(0.410422 -0.0686299 0)
(0.416112 -0.0676071 0)
(0.422182 -0.0662647 0)
(0.428346 -0.0646566 0)
(0.434415 -0.062888 0)
(0.440168 -0.061007 0)
(0.445419 -0.0590555 0)
(0.450014 -0.0570624 0)
(0.453818 -0.0550388 0)
(0.456722 -0.0529807 0)
(0.458639 -0.0508645 0)
(0.459506 -0.0486509 0)
(0.459374 -0.0463334 0)
(0.458187 -0.0438456 0)
(0.455995 -0.0411463 0)
(0.452921 -0.0381842 0)
(0.449069 -0.034972 0)
(0.444669 -0.0315286 0)
(0.439951 -0.0279404 0)
(0.435189 -0.0242719 0)
(0.430642 -0.0206648 0)
(0.426595 -0.0172339 0)
(0.423297 -0.0141283 0)
(0.420946 -0.0114677 0)
(0.419694 -0.00934657 0)
(0.419601 -0.00781801 0)
(0.420727 -0.00685216 0)
(0.42314 -0.00657542 0)
(0.426824 -0.00693672 0)
(0.431692 -0.00785836 0)
(0.437667 -0.00927741 0)
(0.44466 -0.0110972 0)
(0.452545 -0.0131806 0)
(0.461213 -0.0154252 0)
(0.470527 -0.0177043 0)
(0.480343 -0.0198881 0)
(0.490483 -0.0218384 0)
(0.500772 -0.0234328 0)
(0.511013 -0.0245487 0)
(0.520976 -0.0250686 0)
(0.530425 -0.0248918 0)
(0.474009 -0.0338868 0)
(0.457536 -0.0405894 0)
(0.442171 -0.0469227 0)
(0.428592 -0.0526087 0)
(0.4172 -0.0575058 0)
(0.408198 -0.0615303 0)
(0.401705 -0.0646531 0)
(0.397671 -0.0668795 0)
(0.395816 -0.0682907 0)
(0.396064 -0.0689188 0)
(0.398094 -0.0688905 0)
(0.401514 -0.06816 0)
(0.406174 -0.0669862 0)
(0.411641 -0.0653635 0)
(0.417647 -0.0634022 0)
(0.423964 -0.0612271 0)
(0.430309 -0.0588843 0)
(0.436461 -0.056465 0)
(0.442243 -0.0540548 0)
(0.44748 -0.0516953 0)
(0.452034 -0.0494291 0)
(0.455789 -0.0472719 0)
(0.458653 -0.0452264 0)
(0.460559 -0.0432726 0)
(0.461455 -0.0413753 0)
(0.461358 -0.0394828 0)
(0.460307 -0.0376146 0)
(0.458296 -0.0355818 0)
(0.45542 -0.0334756 0)
(0.451804 -0.0311285 0)
(0.44759 -0.028632 0)
(0.443018 -0.0259434 0)
(0.438304 -0.0231707 0)
(0.433706 -0.0203613 0)
(0.429484 -0.0176424 0)
(0.425872 -0.015136 0)
(0.4231 -0.0129533 0)
(0.421338 -0.0112083 0)
(0.420715 -0.00997987 0)
(0.421275 -0.00928249 0)
(0.423069 -0.00915048 0)
(0.426166 -0.00962747 0)
(0.430515 -0.0106825 0)
(0.436036 -0.0122254 0)
(0.442676 -0.0142063 0)
(0.450334 -0.0164956 0)
(0.458885 -0.018975 0)
(0.468206 -0.0215257 0)
(0.478157 -0.0240165 0)
(0.488574 -0.0263082 0)
(0.499267 -0.0282583 0)
(0.510032 -0.0297367 0)
(0.520639 -0.0306235 0)
(0.530827 -0.0307984 0)
(0.467028 -0.0416383 0)
(0.451016 -0.0482658 0)
(0.436328 -0.054259 0)
(0.423571 -0.0594079 0)
(0.41308 -0.0635804 0)
(0.405023 -0.0667485 0)
(0.399457 -0.0689073 0)
(0.396291 -0.0701028 0)
(0.395268 -0.0704692 0)
(0.396243 -0.0699465 0)
(0.398945 -0.0688344 0)
(0.402942 -0.0670377 0)
(0.408021 -0.0647898 0)
(0.413872 -0.0621704 0)
(0.420136 -0.0592463 0)
(0.426604 -0.056173 0)
(0.433027 -0.0530326 0)
(0.439166 -0.0499073 0)
(0.444857 -0.0468853 0)
(0.44995 -0.0440393 0)
(0.454322 -0.041413 0)
(0.457878 -0.0390385 0)
(0.46055 -0.036922 0)
(0.462289 -0.0350501 0)
(0.463066 -0.0333885 0)
(0.462879 -0.0318831 0)
(0.461816 -0.0305032 0)
(0.459851 -0.0291701 0)
(0.45709 -0.0278005 0)
(0.453634 -0.0263639 0)
(0.449585 -0.0247823 0)
(0.445162 -0.0230771 0)
(0.44054 -0.0212557 0)
(0.435963 -0.0193666 0)
(0.431642 -0.0175003 0)
(0.427835 -0.0157374 0)
(0.424753 -0.0142025 0)
(0.422579 -0.0129961 0)
(0.421469 -0.0122089 0)
(0.421531 -0.0119134 0)
(0.422799 -0.0121131 0)
(0.425322 -0.0128436 0)
(0.429148 -0.0141317 0)
(0.434214 -0.0159169 0)
(0.440471 -0.0181401 0)
(0.447862 -0.0207132 0)
(0.456269 -0.0235071 0)
(0.465567 -0.0263992 0)
(0.475633 -0.0292569 0)
(0.486303 -0.031922 0)
(0.497395 -0.0342711 0)
(0.508693 -0.0360976 0)
(0.519954 -0.0373478 0)
(0.530913 -0.0378272 0)
(0.460078 -0.0492924 0)
(0.444758 -0.0557769 0)
(0.430955 -0.0614169 0)
(0.419202 -0.0660168 0)
(0.40976 -0.0695137 0)
(0.40276 -0.0718771 0)
(0.398216 -0.0731355 0)
(0.395972 -0.0733597 0)
(0.395837 -0.0727219 0)
(0.397572 -0.0711352 0)
(0.400891 -0.0689448 0)
(0.405466 -0.0661257 0)
(0.410969 -0.0627954 0)
(0.417137 -0.0591358 0)
(0.423615 -0.0552294 0)
(0.43016 -0.0511954 0)
(0.436563 -0.0471803 0)
(0.442595 -0.0432653 0)
(0.448083 -0.0395535 0)
(0.452904 -0.0361256 0)
(0.456956 -0.0330467 0)
(0.460167 -0.0303588 0)
(0.46249 -0.0280778 0)
(0.463906 -0.0261972 0)
(0.464405 -0.0246867 0)
(0.464 -0.0234959 0)
(0.462761 -0.0225522 0)
(0.460731 -0.0218428 0)
(0.457959 -0.0211777 0)
(0.454564 -0.020611 0)
(0.450632 -0.0199506 0)
(0.446317 -0.0192468 0)
(0.441807 -0.0184381 0)
(0.437275 -0.0175621 0)
(0.432947 -0.0166501 0)
(0.429026 -0.0157816 0)
(0.425721 -0.015048 0)
(0.423235 -0.0145474 0)
(0.421727 -0.0143751 0)
(0.421326 -0.0146103 0)
(0.422122 -0.015313 0)
(0.424156 -0.0164815 0)
(0.427474 -0.018151 0)
(0.43208 -0.0203045 0)
(0.437946 -0.0228957 0)
(0.445042 -0.0258435 0)
(0.453277 -0.0290485 0)
(0.462534 -0.0323759 0)
(0.472707 -0.0356739 0)
(0.483621 -0.0387867 0)
(0.495142 -0.0415527 0)
(0.506996 -0.0438009 0)
(0.518942 -0.0453692 0)
(0.530755 -0.0461008 0)
(0.453234 -0.0566739 0)
(0.438775 -0.0629953 0)
(0.426054 -0.0682683 0)
(0.415439 -0.0723769 0)
(0.407182 -0.0752514 0)
(0.401342 -0.0768868 0)
(0.397909 -0.0773318 0)
(0.396636 -0.0767065 0)
(0.397429 -0.0750911 0)
(0.399968 -0.0725936 0)
(0.403917 -0.0693326 0)
(0.409073 -0.065484 0)
(0.415011 -0.0610913 0)
(0.421455 -0.0563668 0)
(0.42811 -0.0514227 0)
(0.434692 -0.0463778 0)
(0.440994 -0.041389 0)
(0.446819 -0.0365876 0)
(0.452001 -0.0320822 0)
(0.456431 -0.0279695 0)
(0.460025 -0.0243349 0)
(0.462743 -0.0212292 0)
(0.464565 -0.0186841 0)
(0.465493 -0.0167006 0)
(0.465547 -0.0152567 0)
(0.46477 -0.0142952 0)
(0.46321 -0.0137441 0)
(0.460962 -0.0135551 0)
(0.458061 -0.013606 0)
(0.45461 -0.013816 0)
(0.450714 -0.0141186 0)
(0.446454 -0.0143958 0)
(0.442024 -0.014652 0)
(0.437566 -0.01484 0)
(0.433253 -0.0149849 0)
(0.429285 -0.0151311 0)
(0.425851 -0.0153446 0)
(0.423134 -0.0157154 0)
(0.421308 -0.0163303 0)
(0.420519 -0.0172733 0)
(0.420879 -0.0186159 0)
(0.422461 -0.0203967 0)
(0.425328 -0.0226348 0)
(0.429496 -0.0253283 0)
(0.434978 -0.0284378 0)
(0.44177 -0.0318994 0)
(0.449805 -0.0356319 0)
(0.459013 -0.0394982 0)
(0.469288 -0.0433346 0)
(0.480487 -0.0469798 0)
(0.492431 -0.0502235 0)
(0.504911 -0.0529266 0)
(0.517684 -0.0548239 0)
(0.530418 -0.0557654 0)
(0.446497 -0.0636163 0)
(0.433105 -0.0697774 0)
(0.421564 -0.0747273 0)
(0.412227 -0.0784121 0)
(0.405252 -0.0807579 0)
(0.400669 -0.0817814 0)
(0.398381 -0.0815377 0)
(0.398196 -0.0801909 0)
(0.39994 -0.0776803 0)
(0.403331 -0.0743473 0)
(0.408015 -0.0701081 0)
(0.413739 -0.0652205 0)
(0.420135 -0.0597857 0)
(0.426866 -0.0539499 0)
(0.433674 -0.0478958 0)
(0.440265 -0.0417646 0)
(0.446415 -0.0357106 0)
(0.451944 -0.0299047 0)
(0.456713 -0.0244807 0)
(0.460625 -0.0195634 0)
(0.463628 -0.0152491 0)
(0.465702 -0.0116202 0)
(0.466861 -0.00871864 0)
(0.467135 -0.00655532 0)
(0.466579 -0.00510172 0)
(0.465257 -0.00430017 0)
(0.463231 -0.00408133 0)
(0.460598 -0.00435274 0)
(0.457434 -0.0050509 0)
(0.453799 -0.00599948 0)
(0.449817 -0.00719607 0)
(0.445564 -0.00847302 0)
(0.441158 -0.00980095 0)
(0.436751 -0.0111236 0)
(0.432473 -0.0124051 0)
(0.428493 -0.0136721 0)
(0.424973 -0.0149732 0)
(0.422099 -0.0163657 0)
(0.420033 -0.017935 0)
(0.418925 -0.0197648 0)
(0.41891 -0.0219323 0)
(0.420077 -0.0244871 0)
(0.422513 -0.0274679 0)
(0.426276 -0.0308844 0)
(0.4314 -0.0346942 0)
(0.437893 -0.0388546 0)
(0.445737 -0.0432712 0)
(0.454896 -0.0478106 0)
(0.46529 -0.052308 0)
(0.476789 -0.0565826 0)
(0.489242 -0.0604159 0)
(0.502431 -0.0635731 0)
(0.516124 -0.0658553 0)
(0.529967 -0.0669996 0)
(0.439898 -0.0700027 0)
(0.427654 -0.0760256 0)
(0.417428 -0.0807432 0)
(0.409449 -0.0840937 0)
(0.403837 -0.086047 0)
(0.400585 -0.0866004 0)
(0.399511 -0.0858178 0)
(0.400508 -0.0838366 0)
(0.403296 -0.0806437 0)
(0.407572 -0.07647 0)
(0.41309 -0.0713589 0)
(0.419455 -0.0654506 0)
(0.426355 -0.0589456 0)
(0.433427 -0.0519718 0)
(0.440378 -0.0447224 0)
(0.446955 -0.0373912 0)
(0.452915 -0.0301608 0)
(0.458085 -0.0232169 0)
(0.462342 -0.0167374 0)
(0.46562 -0.0108712 0)
(0.467879 -0.00576588 0)
(0.469147 -0.00149007 0)
(0.469471 0.0019014 0)
(0.468915 0.00438259 0)
(0.467567 0.00596229 0)
(0.46552 0.00668332 0)
(0.462864 0.00662377 0)
(0.459687 0.00588492 0)
(0.456109 0.00455484 0)
(0.452176 0.00279048 0)
(0.447976 0.000720568 0)
(0.44361 -0.00155739 0)
(0.439152 -0.00393873 0)
(0.434751 -0.00639237 0)
(0.430498 -0.00886104 0)
(0.426514 -0.0113428 0)
(0.422958 -0.0138344 0)
(0.41998 -0.0163872 0)
(0.41773 -0.0190733 0)
(0.416362 -0.0219628 0)
(0.416025 -0.0251345 0)
(0.416826 -0.0286544 0)
(0.418868 -0.032561 0)
(0.422243 -0.0368774 0)
(0.427014 -0.0415859 0)
(0.433228 -0.0466327 0)
(0.440902 -0.0519212 0)
(0.450039 -0.0573203 0)
(0.46058 -0.062655 0)
(0.472436 -0.0677114 0)
(0.485482 -0.0722265 0)
(0.499499 -0.0759431 0)
(0.514267 -0.0786148 0)
(0.52943 -0.0799751 0)
(0.433399 -0.0756778 0)
(0.422378 -0.081659 0)
(0.413523 -0.0862431 0)
(0.406971 -0.0894141 0)
(0.402793 -0.0911229 0)
(0.400933 -0.091378 0)
(0.401172 -0.0902582 0)
(0.403398 -0.0877346 0)
(0.407339 -0.0840359 0)
(0.412658 -0.0791023 0)
(0.419088 -0.0731573 0)
(0.426217 -0.0662811 0)
(0.433687 -0.058669 0)
(0.441168 -0.0505016 0)
(0.448329 -0.0419719 0)
(0.454888 -0.0333088 0)
(0.460628 -0.0247446 0)
(0.465375 -0.0165019 0)
(0.469028 -0.00880334 0)
(0.471531 -0.00184291 0)
(0.472915 0.00426051 0)
(0.473207 0.00933653 0)
(0.472501 0.0133075 0)
(0.470919 0.0161569 0)
(0.468581 0.017901 0)
(0.465615 0.0185943 0)
(0.462137 0.0183206 0)
(0.458254 0.0171927 0)
(0.454079 0.0153317 0)
(0.449694 0.0128441 0)
(0.445171 0.00988201 0)
(0.4406 0.00653304 0)
(0.436033 0.00298934 0)
(0.43156 -0.000662767 0)
(0.427271 -0.00436202 0)
(0.423272 -0.00810496 0)
(0.419684 -0.0118781 0)
(0.41662 -0.0157134 0)
(0.414232 -0.0196543 0)
(0.41266 -0.0237609 0)
(0.412046 -0.0281178 0)
(0.412518 -0.0327848 0)
(0.414201 -0.0378144 0)
(0.417208 -0.0432382 0)
(0.421644 -0.0490388 0)
(0.427591 -0.0551683 0)
(0.435107 -0.0615354 0)
(0.444231 -0.0680004 0)
(0.454967 -0.0743785 0)
(0.467275 -0.0804098 0)
(0.481046 -0.0858062 0)
(0.496054 -0.0902354 0)
(0.512079 -0.0933397 0)
(0.528823 -0.0949013 0)
(0.426901 -0.080638 0)
(0.417155 -0.0866662 0)
(0.409709 -0.0912525 0)
(0.404628 -0.0943991 0)
(0.401927 -0.0960409 0)
(0.401487 -0.0961979 0)
(0.403182 -0.0948838 0)
(0.406754 -0.0920665 0)
(0.411951 -0.0878957 0)
(0.418482 -0.0823737 0)
(0.425951 -0.0756357 0)
(0.433993 -0.0678186 0)
(0.442189 -0.0590835 0)
(0.450177 -0.0496291 0)
(0.457617 -0.0396966 0)
(0.464212 -0.0295468 0)
(0.469726 -0.019464 0)
(0.473994 -0.0097124 0)
(0.476931 -0.000622988 0)
(0.478565 0.00769682 0)
(0.478867 0.0148639 0)
(0.477968 0.0208731 0)
(0.476026 0.0255218 0)
(0.473204 0.0288393 0)
(0.469667 0.0308183 0)
(0.465579 0.0315183 0)
(0.46109 0.0310369 0)
(0.456322 0.0294973 0)
(0.451401 0.0270439 0)
(0.446414 0.0238243 0)
(0.441426 0.0199931 0)
(0.436507 0.0157097 0)
(0.431705 0.0110689 0)
(0.427106 0.00616616 0)
(0.422746 0.00113174 0)
(0.41869 -0.00393781 0)
(0.415046 -0.0090829 0)
(0.41191 -0.014299 0)
(0.409404 -0.0196101 0)
(0.407649 -0.0250847 0)
(0.406791 -0.0307841 0)
(0.406969 -0.0367793 0)
(0.40831 -0.0431217 0)
(0.410971 -0.0498403 0)
(0.415088 -0.0569314 0)
(0.420777 -0.0643607 0)
(0.428144 -0.0720358 0)
(0.437281 -0.0798044 0)
(0.44825 -0.0874559 0)
(0.461068 -0.0947109 0)
(0.475684 -0.101231 0)
(0.491947 -0.106609 0)
(0.509535 -0.110361 0)
(0.528124 -0.112128 0)
(0.420302 -0.0847818 0)
(0.411839 -0.0910082 0)
(0.405811 -0.0957733 0)
(0.402219 -0.099087 0)
(0.401025 -0.100875 0)
(0.402105 -0.101154 0)
(0.405307 -0.0997959 0)
(0.410383 -0.096906 0)
(0.417031 -0.0924066 0)
(0.424922 -0.0864027 0)
(0.433653 -0.0789574 0)
(0.442788 -0.0702016 0)
(0.4519 -0.0602981 0)
(0.460575 -0.049453 0)
(0.468418 -0.037953 0)
(0.475107 -0.026114 0)
(0.48042 -0.014274 0)
(0.48412 -0.00280989 0)
(0.486308 0.00799604 0)
(0.486836 0.0177476 0)
(0.485871 0.026266 0)
(0.483592 0.0333194 0)
(0.480152 0.0388047 0)
(0.475861 0.0426693 0)
(0.470879 0.0449297 0)
(0.465437 0.0456597 0)
(0.459717 0.0449759 0)
(0.453869 0.0430237 0)
(0.448029 0.0399677 0)
(0.442278 0.0359751 0)
(0.436689 0.0312114 0)
(0.43132 0.0258518 0)
(0.426189 0.0200445 0)
(0.421346 0.0139382 0)
(0.416865 0.00758468 0)
(0.412735 0.00109924 0)
(0.408989 -0.0054628 0)
(0.405759 -0.0121228 0)
(0.403127 -0.0189122 0)
(0.401198 -0.0258688 0)
(0.400112 -0.0330497 0)
(0.400003 -0.0405261 0)
(0.401032 -0.0483444 0)
(0.40336 -0.0565484 0)
(0.407148 -0.0651468 0)
(0.412562 -0.0741044 0)
(0.419769 -0.0833297 0)
(0.428927 -0.0926655 0)
(0.440161 -0.101879 0)
(0.453561 -0.110655 0)
(0.469146 -0.118595 0)
(0.486834 -0.125205 0)
(0.506349 -0.129922 0)
(0.52722 -0.132119 0)
(0.41343 -0.0880922 0)
(0.406243 -0.0946931 0)
(0.40163 -0.0998379 0)
(0.399535 -0.103534 0)
(0.399859 -0.105741 0)
(0.402546 -0.106297 0)
(0.407396 -0.105178 0)
(0.414103 -0.102341 0)
(0.422415 -0.09773 0)
(0.431897 -0.0913693 0)
(0.442127 -0.0833064 0)
(0.452634 -0.0736235 0)
(0.462919 -0.0624773 0)
(0.472499 -0.0501061 0)
(0.480922 -0.0368327 0)
(0.48783 -0.0230388 0)
(0.492933 -0.00916777 0)
(0.496121 0.00436734 0)
(0.497302 0.0170986 0)
(0.496602 0.0286215 0)
(0.494158 0.0386823 0)
(0.490181 0.0469659 0)
(0.485015 0.0533941 0)
(0.478931 0.0578679 0)
(0.47223 0.0604331 0)
(0.465181 0.0611856 0)
(0.458004 0.0602641 0)
(0.450874 0.0578478 0)
(0.443934 0.0541283 0)
(0.437267 0.0492898 0)
(0.430939 0.0435605 0)
(0.424992 0.0370903 0)
(0.419433 0.0300649 0)
(0.414286 0.0226501 0)
(0.409548 0.0149572 0)
(0.405263 0.00702698 0)
(0.401443 -0.00103214 0)
(0.398078 -0.0092064 0)
(0.395295 -0.0175453 0)
(0.393188 -0.0260718 0)
(0.391872 -0.0348468 0)
(0.391488 -0.0439298 0)
(0.392189 -0.0533831 0)
(0.394156 -0.0632577 0)
(0.397598 -0.0735658 0)
(0.402718 -0.0842733 0)
(0.40974 -0.0952949 0)
(0.41889 -0.106477 0)
(0.430382 -0.117574 0)
(0.444393 -0.128234 0)
(0.461032 -0.137986 0)
(0.480284 -0.146224 0)
(0.501936 -0.152249 0)
(0.525433 -0.155242 0)
(0.406113 -0.0905604 0)
(0.400161 -0.0977346 0)
(0.396936 -0.10349 0)
(0.396284 -0.10786 0)
(0.398217 -0.110674 0)
(0.402604 -0.111781 0)
(0.409187 -0.111144 0)
(0.417748 -0.108576 0)
(0.427922 -0.10405 0)
(0.43927 -0.0975119 0)
(0.45133 -0.0889048 0)
(0.463552 -0.0783123 0)
(0.475355 -0.0658391 0)
(0.486152 -0.0517512 0)
(0.495401 -0.0364248 0)
(0.502665 -0.0203337 0)
(0.50764 -0.00403246 0)
(0.51021 0.011902 0)
(0.510317 0.0269487 0)
(0.508128 0.0405777 0)
(0.503877 0.0523872 0)
(0.497925 0.0621193 0)
(0.490632 0.069575 0)
(0.482439 0.074693 0)
(0.473707 0.0775452 0)
(0.464766 0.0782621 0)
(0.455885 0.0770171 0)
(0.447262 0.0740367 0)
(0.439031 0.069549 0)
(0.431304 0.0637797 0)
(0.424112 0.0569682 0)
(0.417463 0.0493176 0)
(0.411387 0.0410226 0)
(0.405855 0.0322476 0)
(0.400829 0.0231224 0)
(0.396303 0.0137513 0)
(0.392309 0.00416 0)
(0.388814 -0.00559078 0)
(0.385853 -0.0155206 0)
(0.383541 -0.0256854 0)
(0.381975 -0.0361338 0)
(0.381285 -0.0469325 0)
(0.381632 -0.0581492 0)
(0.383211 -0.0698315 0)
(0.38626 -0.0820107 0)
(0.391026 -0.0946678 0)
(0.397789 -0.107732 0)
(0.406851 -0.121056 0)
(0.41852 -0.13439 0)
(0.433066 -0.147344 0)
(0.450691 -0.159377 0)
(0.471433 -0.169715 0)
(0.495109 -0.177505 0)
(0.5211 -0.181657 0)
(0.398117 -0.0921844 0)
(0.393355 -0.100178 0)
(0.39143 -0.106836 0)
(0.392271 -0.1121 0)
(0.395841 -0.115785 0)
(0.401963 -0.117765 0)
(0.410476 -0.117829 0)
(0.421068 -0.115831 0)
(0.43335 -0.111648 0)
(0.446914 -0.105102 0)
(0.461198 -0.0960841 0)
(0.475565 -0.0845816 0)
(0.489337 -0.0706743 0)
(0.501765 -0.0546267 0)
(0.512181 -0.0368743 0)
(0.52004 -0.0180271 0)
(0.524912 0.00115657 0)
(0.526833 0.020015 0)
(0.525676 0.0378196 0)
(0.521689 0.0538938 0)
(0.515298 0.0678003 0)
(0.506922 0.0791265 0)
(0.497101 0.0877313 0)
(0.486381 0.0935008 0)
(0.475259 0.0965659 0)
(0.46411 0.0971295 0)
(0.453252 0.0954307 0)
(0.442909 0.0917353 0)
(0.433219 0.0863285 0)
(0.424267 0.0794915 0)
(0.416088 0.0714728 0)
(0.408672 0.0625263 0)
(0.401985 0.0528641 0)
(0.395986 0.0426559 0)
(0.390619 0.0320527 0)
(0.385832 0.0211581 0)
(0.381584 0.0100245 0)
(0.377931 -0.00133428 0)
(0.374762 -0.012891 0)
(0.372203 -0.0247313 0)
(0.37035 -0.0369016 0)
(0.369322 -0.0494751 0)
(0.369271 -0.0625224 0)
(0.370402 -0.0761112 0)
(0.372977 -0.0902879 0)
(0.37728 -0.105061 0)
(0.383645 -0.120384 0)
(0.392445 -0.136127 0)
(0.404073 -0.152044 0)
(0.418853 -0.167688 0)
(0.437049 -0.182433 0)
(0.458646 -0.195219 0)
(0.483436 -0.20519 0)
(0.510726 -0.210876 0)
(0.389197 -0.0929957 0)
(0.385522 -0.102089 0)
(0.384898 -0.109914 0)
(0.387206 -0.116342 0)
(0.392407 -0.121239 0)
(0.400398 -0.124339 0)
(0.410948 -0.125455 0)
(0.423752 -0.124368 0)
(0.438456 -0.120808 0)
(0.454607 -0.114499 0)
(0.471575 -0.105236 0)
(0.488622 -0.0928614 0)
(0.504919 -0.0773909 0)
(0.519539 -0.059057 0)
(0.531591 -0.038394 0)
(0.540299 -0.0162102 0)
(0.545308 0.00651912 0)
(0.546459 0.0289157 0)
(0.543779 0.0500143 0)
(0.537672 0.0690403 0)
(0.528641 0.0853466 0)
(0.517351 0.0985474 0)
(0.504464 0.10831 0)
(0.490705 0.114674 0)
(0.476753 0.117836 0)
(0.463051 0.11807 0)
(0.449933 0.115704 0)
(0.437637 0.111074 0)
(0.426308 0.104538 0)
(0.416013 0.0964258 0)
(0.406746 0.0870434 0)
(0.39847 0.0766589 0)
(0.391123 0.0655081 0)
(0.384618 0.0537864 0)
(0.378862 0.0416431 0)
(0.373768 0.0291847 0)
(0.369265 0.0164675 0)
(0.365356 0.00350095 0)
(0.361984 -0.00971176 0)
(0.359146 -0.0232261 0)
(0.356971 -0.0371258 0)
(0.355559 -0.0514864 0)
(0.355052 -0.0663926 0)
(0.355651 -0.0819331 0)
(0.357635 -0.0981763 0)
(0.361307 -0.115169 0)
(0.367045 -0.132902 0)
(0.375262 -0.151268 0)
(0.386388 -0.170005 0)
(0.400695 -0.188549 0)
(0.418433 -0.20615 0)
(0.439154 -0.221347 0)
(0.462545 -0.233621 0)
(0.487786 -0.240598 0)
(0.37906 -0.093033 0)
(0.376412 -0.103533 0)
(0.377018 -0.112775 0)
(0.380771 -0.120721 0)
(0.387656 -0.127097 0)
(0.397543 -0.131699 0)
(0.410225 -0.134256 0)
(0.425458 -0.134431 0)
(0.442866 -0.131849 0)
(0.461955 -0.126121 0)
(0.482041 -0.116817 0)
(0.502311 -0.10367 0)
(0.521778 -0.0865233 0)
(0.539283 -0.0655225 0)
(0.553624 -0.0413579 0)
(0.563731 -0.0150434 0)
(0.569075 0.0121311 0)
(0.569486 0.03889 0)
(0.56507 0.0640378 0)
(0.556367 0.0865443 0)
(0.544185 0.10577 0)
(0.52927 0.120948 0)
(0.512613 0.131862 0)
(0.495284 0.138722 0)
(0.478025 0.141784 0)
(0.461355 0.141418 0)
(0.445658 0.138071 0)
(0.431188 0.132201 0)
(0.41807 0.124248 0)
(0.406324 0.11461 0)
(0.395911 0.103637 0)
(0.386743 0.0916406 0)
(0.378705 0.078871 0)
(0.371673 0.0655306 0)
(0.365512 0.0517746 0)
(0.360098 0.0377119 0)
(0.355328 0.0233948 0)
(0.351122 0.00883314 0)
(0.347532 -0.00602485 0)
(0.344399 -0.0212011 0)
(0.341865 -0.0368048 0)
(0.340023 -0.0529208 0)
(0.338989 -0.0696565 0)
(0.338952 -0.0871215 0)
(0.340183 -0.10542 0)
(0.342986 -0.124638 0)
(0.347735 -0.144806 0)
(0.35482 -0.165811 0)
(0.364615 -0.187312 0)
(0.377082 -0.208462 0)
(0.392265 -0.228612 0)
(0.408678 -0.245379 0)
(0.426317 -0.258686 0)
(0.444267 -0.266559 0)
(0.367407 -0.0923776 0)
(0.365711 -0.10452 0)
(0.367509 -0.115526 0)
(0.372666 -0.125269 0)
(0.381201 -0.133513 0)
(0.392991 -0.14 0)
(0.407902 -0.144387 0)
(0.425668 -0.146269 0)
(0.445881 -0.145081 0)
(0.468073 -0.140286 0)
(0.491476 -0.131249 0)
(0.515241 -0.117507 0)
(0.538376 -0.0986925 0)
(0.55948 -0.0746689 0)
(0.577006 -0.0463249 0)
(0.589453 -0.0149075 0)
(0.595891 0.0178604 0)
(0.595818 0.0501073 0)
(0.589496 0.0802623 0)
(0.577921 0.107108 0)
(0.561868 0.129665 0)
(0.542465 0.14698 0)
(0.521379 0.159102 0)
(0.499839 0.166271 0)
(0.478704 0.168885 0)
(0.458633 0.167505 0)
(0.440058 0.16275 0)
(0.423215 0.15523 0)
(0.408188 0.145492 0)
(0.394938 0.134012 0)
(0.383361 0.121193 0)
(0.373305 0.107372 0)
(0.364594 0.0928211 0)
(0.357051 0.0777527 0)
(0.350501 0.0623158 0)
(0.344781 0.0466105 0)
(0.339752 0.0306812 0)
(0.335295 0.0145196 0)
(0.331464 -0.00194526 0)
(0.328018 -0.0187263 0)
(0.325106 -0.0359588 0)
(0.322793 -0.0537471 0)
(0.321161 -0.0722155 0)
(0.32037 -0.0914929 0)
(0.320646 -0.111724 0)
(0.322243 -0.133023 0)
(0.325473 -0.15541 0)
(0.33056 -0.17873 0)
(0.337693 -0.202383 0)
(0.345834 -0.22514 0)
(0.354978 -0.246318 0)
(0.3624 -0.262593 0)
(0.367443 -0.27291 0)
(0.372231 -0.279606 0)
(0.353961 -0.0910641 0)
(0.353153 -0.105131 0)
(0.356039 -0.118208 0)
(0.362534 -0.130076 0)
(0.372653 -0.140566 0)
(0.386317 -0.149336 0)
(0.403339 -0.155969 0)
(0.423482 -0.159955 0)
(0.446256 -0.160487 0)
(0.471071 -0.157009 0)
(0.497169 -0.148459 0)
(0.523842 -0.134714 0)
(0.550366 -0.114542 0)
(0.575345 -0.0873223 0)
(0.597001 -0.0545203 0)
(0.613527 -0.0168578 0)
(0.622583 0.0232162 0)
(0.623172 0.0624025 0)
(0.615722 0.0990008 0)
(0.601257 0.131297 0)
(0.580894 0.1577 0)
(0.556489 0.177521 0)
(0.530289 0.190824 0)
(0.503815 0.198004 0)
(0.478223 0.199672 0)
(0.454329 0.196708 0)
(0.43261 0.18998 0)
(0.413267 0.180286 0)
(0.39629 0.168307 0)
(0.381552 0.154602 0)
(0.368858 0.139626 0)
(0.357976 0.123744 0)
(0.348661 0.107238 0)
(0.340672 0.0903205 0)
(0.333786 0.0731325 0)
(0.327803 0.0557528 0)
(0.32255 0.0382068 0)
(0.317878 0.0204649 0)
(0.313756 0.00246754 0)
(0.310089 -0.0158555 0)
(0.30681 -0.034619 0)
(0.304009 -0.0539493 0)
(0.301728 -0.0739778 0)
(0.300053 -0.0948568 0)
(0.29912 -0.116742 0)
(0.299063 -0.139741 0)
(0.299985 -0.163773 0)
(0.301744 -0.188517 0)
(0.304142 -0.212923 0)
(0.304477 -0.235316 0)
(0.302778 -0.25377 0)
(0.29643 -0.266587 0)
(0.284068 -0.271373 0)
(0.271792 -0.279393 0)
(0.338409 -0.0891081 0)
(0.338421 -0.10545 0)
(0.342313 -0.120868 0)
(0.35003 -0.135212 0)
(0.36157 -0.148269 0)
(0.376882 -0.159677 0)
(0.395636 -0.168824 0)
(0.417449 -0.175044 0)
(0.441493 -0.177337 0)
(0.467261 -0.175324 0)
(0.493662 -0.167312 0)
(0.520685 -0.154115 0)
(0.548924 -0.133721 0)
(0.57629 -0.103974 0)
(0.601964 -0.0677307 0)
(0.625148 -0.0235401 0)
(0.640035 0.0256875 0)
(0.643936 0.0739759 0)
(0.637649 0.119346 0)
(0.621747 0.158693 0)
(0.597854 0.190265 0)
(0.568749 0.213186 0)
(0.537359 0.227708 0)
(0.505683 0.234415 0)
(0.475331 0.234514 0)
(0.447434 0.229254 0)
(0.422502 0.21986 0)
(0.400674 0.207364 0)
(0.381834 0.192604 0)
(0.365736 0.176235 0)
(0.352077 0.158762 0)
(0.340519 0.140564 0)
(0.330737 0.121928 0)
(0.322425 0.103045 0)
(0.315308 0.0840382 0)
(0.309149 0.0649595 0)
(0.303744 0.0458055 0)
(0.29893 0.026528 0)
(0.294606 0.00705891 0)
(0.290744 -0.0127117 0)
(0.287146 -0.0328684 0)
(0.283884 -0.0535452 0)
(0.280919 -0.0748771 0)
(0.27822 -0.0970083 0)
(0.275746 -0.120048 0)
(0.27341 -0.144003 0)
(0.270869 -0.168607 0)
(0.26753 -0.193168 0)
(0.26211 -0.215788 0)
(0.250674 -0.234431 0)
(0.232611 -0.245666 0)
(0.208456 -0.253036 0)
(0.181769 -0.259361 0)
(0.161214 -0.266611 0)
(0.320484 -0.086643 0)
(0.321211 -0.105517 0)
(0.325997 -0.123537 0)
(0.334762 -0.140629 0)
(0.347444 -0.15648 0)
(0.363846 -0.170603 0)
(0.383269 -0.182118 0)
(0.404944 -0.190229 0)
(0.427351 -0.193753 0)
(0.450375 -0.192162 0)
(0.472519 -0.18447 0)
(0.494197 -0.170468 0)
(0.519389 -0.151033 0)
(0.544677 -0.121908 0)
(0.570967 -0.0845773 0)
(0.601879 -0.036629 0)
(0.628472 0.0209549 0)
(0.641725 0.0815429 0)
(0.642035 0.137812 0)
(0.628982 0.186412 0)
(0.604891 0.225498 0)
(0.57331 0.253417 0)
(0.538057 0.269711 0)
(0.502057 0.275779 0)
(0.467673 0.273639 0)
(0.436263 0.265257 0)
(0.408519 0.252364 0)
(0.38456 0.236325 0)
(0.364186 0.218173 0)
(0.347041 0.198672 0)
(0.332699 0.178354 0)
(0.32072 0.1576 0)
(0.310687 0.13667 0)
(0.302227 0.115726 0)
(0.295025 0.0948533 0)
(0.288813 0.0740665 0)
(0.28337 0.0533261 0)
(0.278519 0.0325601 0)
(0.274121 0.0116835 0)
(0.270154 -0.00941953 0)
(0.266339 -0.0308016 0)
(0.262682 -0.0525792 0)
(0.259022 -0.0748587 0)
(0.255129 -0.0976888 0)
(0.250646 -0.12106 0)
(0.245106 -0.144767 0)
(0.237544 -0.168202 0)
(0.226787 -0.190081 0)
(0.209516 -0.2076 0)
(0.181989 -0.217696 0)
(0.145299 -0.22174 0)
(0.113209 -0.224997 0)
(0.0840107 -0.233437 0)
(0.0601511 -0.242769 0)
(0.299882 -0.0837954 0)
(0.301285 -0.10539 0)
(0.30682 -0.126217 0)
(0.316345 -0.146167 0)
(0.329569 -0.164706 0)
(0.34581 -0.18111 0)
(0.363548 -0.194017 0)
(0.381488 -0.202517 0)