/*--------------------------------*- C++ -*----------------------------------*\
| =========                 |                                                 |
| \\      /  F ield         | OpenFOAM: The Open Source CFD Toolbox           |
|  \\    /   O peration     | Version:  2406                                  |
|   \\  /    A nd           | Website:  www.openfoam.com                      |
|    \\/     M anipulation  |                                                 |
\*---------------------------------------------------------------------------*/
FoamFile
{
    version     2.0;
    format      ascii;
    arch        "LSB;label=32;scalar=64";
    class       volScalarField;
    location    "240";
    object      p;
}
// * * * * * * * * * * * * * * * * * * * * * * * * * * * * * * * * * * * * * //

dimensions      [0 2 -2 0 0 0 0];

internalField   nonuniform List<scalar> 
16128
(
1.85492e-12
-7.84756e-10
-3.78125e-09
-8.036e-09
-1.30193e-08
-1.85244e-08
-2.44587e-08
-3.08007e-08
-3.75618e-08
-4.47651e-08
-5.24375e-08
-6.06064e-08
-6.92973e-08
-7.85337e-08
-8.83357e-08
-9.87213e-08
-1.09706e-07
-1.21304e-07
-1.33528e-07
-1.46391e-07
-1.59903e-07
-1.74074e-07
-1.88914e-07
-2.04431e-07
-2.20632e-07
-2.37524e-07
-2.55111e-07
-2.734e-07
-2.92391e-07
-3.12088e-07
-3.3249e-07
-3.53595e-07
-3.754e-07
-3.97898e-07
-4.21082e-07
-4.4494e-07
-4.69458e-07
-4.94621e-07
-5.20407e-07
-5.46794e-07
-5.73756e-07
-6.01264e-07
-6.29286e-07
-6.57786e-07
-6.86725e-07
-7.16061e-07
-7.45748e-07
-7.75736e-07
-8.05971e-07
-8.36402e-07
-8.66971e-07
-8.97624e-07
-9.28292e-07
-9.58911e-07
-9.89412e-07
-1.01973e-06
-1.0498e-06
-1.07954e-06
-1.1089e-06
-1.13779e-06
-1.16616e-06
-1.19394e-06
-1.22105e-06
-1.24745e-06
-1.27307e-06
-1.29787e-06
-1.32177e-06
-1.34475e-06
-1.36676e-06
-1.38776e-06
-1.40772e-06
-1.42662e-06
-1.44443e-06
-1.46115e-06
-1.47676e-06
-1.49127e-06
-1.50469e-06
-1.51702e-06
-1.52829e-06
-1.53852e-06
-1.54775e-06
-1.556e-06
-1.56333e-06
-1.56976e-06
-1.57536e-06
-1.58017e-06
-1.58425e-06
-1.58765e-06
-1.59044e-06
-1.59267e-06
-1.5944e-06
-1.59569e-06
-1.59659e-06
-1.59717e-06
-1.59748e-06
-1.59757e-06
-1.59748e-06
-1.59727e-06
-1.59699e-06
-1.59665e-06
-1.59632e-06
-1.59601e-06
2.72192e-09
1.3305e-09
-1.24971e-09
-4.90603e-09
-9.37532e-09
-1.44831e-08
-2.01388e-08
-2.63015e-08
-3.29581e-08
-4.01111e-08
-4.77722e-08
-5.5957e-08
-6.46827e-08
-7.39665e-08
-8.38248e-08
-9.42728e-08
-1.05325e-07
-1.16995e-07
-1.29295e-07
-1.42238e-07
-1.55834e-07
-1.70093e-07
-1.85026e-07
-2.0064e-07
-2.16942e-07
-2.33939e-07
-2.51637e-07
-2.7004e-07
-2.89151e-07
-3.08972e-07
-3.29502e-07
-3.50741e-07
-3.72683e-07
-3.95322e-07
-4.18652e-07
-4.42659e-07
-4.67331e-07
-4.9265e-07
-5.18595e-07
-5.45145e-07
-5.72273e-07
-5.99948e-07
-6.2814e-07
-6.56811e-07
-6.85923e-07
-7.15432e-07
-7.45292e-07
-7.75452e-07
-8.05865e-07
-8.36474e-07
-8.67219e-07
-8.98043e-07
-9.28874e-07
-9.59653e-07
-9.90312e-07
-1.02078e-06
-1.051e-06
-1.08089e-06
-1.11038e-06
-1.13941e-06
-1.16791e-06
-1.1958e-06
-1.22303e-06
-1.24954e-06
-1.27526e-06
-1.30014e-06
-1.32413e-06
-1.34718e-06
-1.36925e-06
-1.3903e-06
-1.41031e-06
-1.42925e-06
-1.4471e-06
-1.46384e-06
-1.47947e-06
-1.494e-06
-1.50742e-06
-1.51975e-06
-1.53102e-06
-1.54124e-06
-1.55045e-06
-1.55869e-06
-1.56599e-06
-1.5724e-06
-1.57797e-06
-1.58276e-06
-1.5868e-06
-1.59018e-06
-1.59293e-06
-1.59513e-06
-1.59683e-06
-1.59808e-06
-1.59896e-06
-1.59951e-06
-1.59979e-06
-1.59984e-06
-1.59973e-06
-1.5995e-06
-1.59918e-06
-1.59883e-06
-1.59847e-06
-1.59813e-06
6.93543e-09
4.68227e-09
1.94715e-09
-1.65766e-09
-6.00628e-09
-1.09758e-08
-1.65081e-08
-2.25739e-08
-2.91606e-08
-3.62677e-08
-4.39029e-08
-5.20779e-08
-6.08063e-08
-7.01023e-08
-7.998e-08
-9.04533e-08
-1.01535e-07
-1.13239e-07
-1.25577e-07
-1.38561e-07
-1.52201e-07
-1.66509e-07
-1.81494e-07
-1.97163e-07
-2.13526e-07
-2.30588e-07
-2.48355e-07
-2.66833e-07
-2.86024e-07
-3.0593e-07
-3.26552e-07
-3.47886e-07
-3.69931e-07
-3.92679e-07
-4.16123e-07
-4.4025e-07
-4.65049e-07
-4.905e-07
-5.16584e-07
-5.43279e-07
-5.70557e-07
-5.98389e-07
-6.26743e-07
-6.55582e-07
-6.84867e-07
-7.14553e-07
-7.44596e-07
-7.74944e-07
-8.05544e-07
-8.36341e-07
-8.67277e-07
-8.98285e-07
-9.29314e-07
-9.60289e-07
-9.91145e-07
-1.02181e-06
-1.05222e-06
-1.08229e-06
-1.11197e-06
-1.14118e-06
-1.16984e-06
-1.1979e-06
-1.22529e-06
-1.25194e-06
-1.2778e-06
-1.3028e-06
-1.32691e-06
-1.35007e-06
-1.37223e-06
-1.39336e-06
-1.41344e-06
-1.43243e-06
-1.45032e-06
-1.46709e-06
-1.48274e-06
-1.49727e-06
-1.51068e-06
-1.52299e-06
-1.53423e-06
-1.54441e-06
-1.55357e-06
-1.56174e-06
-1.56898e-06
-1.57531e-06
-1.5808e-06
-1.5855e-06
-1.58946e-06
-1.59274e-06
-1.59541e-06
-1.59751e-06
-1.59911e-06
-1.60028e-06
-1.60106e-06
-1.60153e-06
-1.60172e-06
-1.60169e-06
-1.60151e-06
-1.6012e-06
-1.60082e-06
-1.6004e-06
-1.59999e-06
-1.59961e-06
1.20699e-08
8.97189e-09
6.00076e-09
2.33075e-09
-1.99516e-09
-6.89573e-09
-1.23466e-08
-1.83367e-08
-2.48606e-08
-3.192e-08
-3.9522e-08
-4.76764e-08
-5.6395e-08
-6.56901e-08
-7.55742e-08
-8.60598e-08
-9.71593e-08
-1.08885e-07
-1.21249e-07
-1.34262e-07
-1.47937e-07
-1.62283e-07
-1.7731e-07
-1.93028e-07
-2.09443e-07
-2.26564e-07
-2.44396e-07
-2.62946e-07
-2.82216e-07
-3.02208e-07
-3.22923e-07
-3.4436e-07
-3.66515e-07
-3.89381e-07
-4.12952e-07
-4.37215e-07
-4.62158e-07
-4.87763e-07
-5.14011e-07
-5.40878e-07
-5.68338e-07
-5.96361e-07
-6.24915e-07
-6.53963e-07
-6.83465e-07
-7.13377e-07
-7.43653e-07
-7.74241e-07
-8.0509e-07
-8.36141e-07
-8.67335e-07
-8.98608e-07
-9.29899e-07
-9.61138e-07
-9.92258e-07
-1.02319e-06
-1.05386e-06
-1.08419e-06
-1.11412e-06
-1.14357e-06
-1.17248e-06
-1.20077e-06
-1.22838e-06
-1.25524e-06
-1.28129e-06
-1.30648e-06
-1.33075e-06
-1.35405e-06
-1.37634e-06
-1.39759e-06
-1.41776e-06
-1.43682e-06
-1.45476e-06
-1.47156e-06
-1.48723e-06
-1.50175e-06
-1.51514e-06
-1.52741e-06
-1.53858e-06
-1.54869e-06
-1.55776e-06
-1.56583e-06
-1.57295e-06
-1.57916e-06
-1.58452e-06
-1.58908e-06
-1.59289e-06
-1.59602e-06
-1.59853e-06
-1.60048e-06
-1.60193e-06
-1.60294e-06
-1.60357e-06
-1.60389e-06
-1.60394e-06
-1.60379e-06
-1.60348e-06
-1.60306e-06
-1.60257e-06
-1.60205e-06
-1.60155e-06
-1.60109e-06
1.76786e-08
1.38935e-08
1.06897e-08
6.91528e-09
2.5641e-09
-2.31062e-09
-7.71175e-09
-1.36457e-08
-2.01164e-08
-2.713e-08
-3.46951e-08
-4.28216e-08
-5.15206e-08
-6.08035e-08
-7.06817e-08
-8.11669e-08
-9.2271e-08
-1.04006e-07
-1.16383e-07
-1.29415e-07
-1.43111e-07
-1.57484e-07
-1.72544e-07
-1.88299e-07
-2.04759e-07
-2.21931e-07
-2.39822e-07
-2.58439e-07
-2.77784e-07
-2.97861e-07
-3.18671e-07
-3.40212e-07
-3.62482e-07
-3.85474e-07
-4.09182e-07
-4.33595e-07
-4.58698e-07
-4.84477e-07
-5.1091e-07
-5.37975e-07
-5.65646e-07
-5.93893e-07
-6.22684e-07
-6.5198e-07
-6.81743e-07
-7.11928e-07
-7.42488e-07
-7.73371e-07
-8.04524e-07
-8.35888e-07
-8.67402e-07
-8.99003e-07
-9.30624e-07
-9.62197e-07
-9.93652e-07
-1.02492e-06
-1.05592e-06
-1.08659e-06
-1.11684e-06
-1.14661e-06
-1.17583e-06
-1.20441e-06
-1.23231e-06
-1.25943e-06
-1.28574e-06
-1.31116e-06
-1.33564e-06
-1.35914e-06
-1.3816e-06
-1.40299e-06
-1.42327e-06
-1.44243e-06
-1.46043e-06
-1.47728e-06
-1.49295e-06
-1.50746e-06
-1.52082e-06
-1.53303e-06
-1.54412e-06
-1.55412e-06
-1.56306e-06
-1.57099e-06
-1.57795e-06
-1.58398e-06
-1.58915e-06
-1.59351e-06
-1.59711e-06
-1.60003e-06
-1.60233e-06
-1.60406e-06
-1.60529e-06
-1.60609e-06
-1.60652e-06
-1.60663e-06
-1.60649e-06
-1.60616e-06
-1.60567e-06
-1.60509e-06
-1.60446e-06
-1.60381e-06
-1.60318e-06
-1.60262e-06
2.35751e-08
1.92322e-08
1.58136e-08
1.19204e-08
7.51738e-09
2.63981e-09
-2.73585e-09
-8.6308e-09
-1.5058e-08
-2.20289e-08
-2.95549e-08
-3.76474e-08
-4.63176e-08
-5.55767e-08
-6.5436e-08
-7.5907e-08
-8.70011e-08
-9.87302e-08
-1.11106e-07
-1.2414e-07
-1.37844e-07
-1.5223e-07
-1.67307e-07
-1.83087e-07
-1.99579e-07
-2.16791e-07
-2.34731e-07
-2.53405e-07
-2.72819e-07
-2.92975e-07
-3.13876e-07
-3.3552e-07
-3.57905e-07
-3.81027e-07
-4.04878e-07
-4.29449e-07
-4.54725e-07
-4.80692e-07
-5.07329e-07
-5.34614e-07
-5.62521e-07
-5.91021e-07
-6.2008e-07
-6.49662e-07
-6.79726e-07
-7.10227e-07
-7.41119e-07
-7.72348e-07
-8.03859e-07
-8.35593e-07
-8.67488e-07
-8.99479e-07
-9.31497e-07
-9.63472e-07
-9.95332e-07
-1.027e-06
-1.05841e-06
-1.08948e-06
-1.12013e-06
-1.15029e-06
-1.17989e-06
-1.20884e-06
-1.23708e-06
-1.26454e-06
-1.29116e-06
-1.31686e-06
-1.34161e-06
-1.36534e-06
-1.38801e-06
-1.40957e-06
-1.43e-06
-1.44927e-06
-1.46736e-06
-1.48425e-06
-1.49994e-06
-1.51443e-06
-1.52773e-06
-1.53986e-06
-1.55084e-06
-1.5607e-06
-1.56948e-06
-1.57722e-06
-1.58396e-06
-1.58977e-06
-1.5947e-06
-1.5988e-06
-1.60214e-06
-1.60478e-06
-1.6068e-06
-1.60825e-06
-1.60921e-06
-1.60973e-06
-1.60989e-06
-1.60975e-06
-1.60936e-06
-1.60879e-06
-1.60809e-06
-1.6073e-06
-1.60648e-06
-1.60566e-06
-1.60488e-06
-1.60418e-06
2.96252e-08
2.4846e-08
2.12441e-08
1.72378e-08
1.27756e-08
7.88204e-09
2.51855e-09
-3.34766e-09
-9.73731e-09
-1.6667e-08
-2.41513e-08
-3.22034e-08
-4.08356e-08
-5.00596e-08
-5.98869e-08
-7.03291e-08
-8.1398e-08
-9.31053e-08
-1.05463e-07
-1.18484e-07
-1.32179e-07
-1.46561e-07
-1.61642e-07
-1.77431e-07
-1.93941e-07
-2.11179e-07
-2.29155e-07
-2.47877e-07
-2.67349e-07
-2.87576e-07
-3.08561e-07
-3.30304e-07
-3.52804e-07
-3.76057e-07
-4.00055e-07
-4.2479e-07
-4.50249e-07
-4.76417e-07
-5.03274e-07
-5.30799e-07
-5.58966e-07
-5.87746e-07
-6.17105e-07
-6.47008e-07
-6.77412e-07
-7.08274e-07
-7.39545e-07
-7.71171e-07
-8.03096e-07
-8.35259e-07
-8.67596e-07
-9.00041e-07
-9.32523e-07
-9.6497e-07
-9.97308e-07
-1.02946e-06
-1.06135e-06
-1.09289e-06
-1.12402e-06
-1.15464e-06
-1.18468e-06
-1.21407e-06
-1.24273e-06
-1.27059e-06
-1.29758e-06
-1.32363e-06
-1.34869e-06
-1.3727e-06
-1.39562e-06
-1.41739e-06
-1.438e-06
-1.4574e-06
-1.47558e-06
-1.49253e-06
-1.50823e-06
-1.5227e-06
-1.53593e-06
-1.54796e-06
-1.5588e-06
-1.56849e-06
-1.57706e-06
-1.58457e-06
-1.59105e-06
-1.59658e-06
-1.6012e-06
-1.60499e-06
-1.608e-06
-1.61031e-06
-1.61198e-06
-1.61309e-06
-1.6137e-06
-1.61389e-06
-1.61372e-06
-1.61326e-06
-1.61257e-06
-1.61172e-06
-1.61074e-06
-1.60971e-06
-1.60865e-06
-1.60763e-06
-1.60666e-06
-1.60579e-06
3.57516e-08
3.0637e-08
2.6886e-08
2.27821e-08
1.8265e-08
1.33531e-08
7.99707e-09
2.15553e-09
-4.19842e-09
-1.10858e-08
-1.85241e-08
-2.65287e-08
-3.51131e-08
-4.42899e-08
-5.40715e-08
-6.44698e-08
-7.54971e-08
-8.71658e-08
-9.94883e-08
-1.12478e-07
-1.26146e-07
-1.40507e-07
-1.55573e-07
-1.71356e-07
-1.87867e-07
-2.05116e-07
-2.23114e-07
-2.41869e-07
-2.61388e-07
-2.81676e-07
-3.02738e-07
-3.24575e-07
-3.47185e-07
-3.70567e-07
-3.94714e-07
-4.19618e-07
-4.45267e-07
-4.71648e-07
-4.9874e-07
-5.26524e-07
-5.54973e-07
-5.8406e-07
-6.1375e-07
-6.44008e-07
-6.74792e-07
-7.06058e-07
-7.37755e-07
-7.6983e-07
-8.02224e-07
-8.34874e-07
-8.67717e-07
-9.00681e-07
-9.33697e-07
-9.66687e-07
-9.99575e-07
-1.03228e-06
-1.06473e-06
-1.09683e-06
-1.1285e-06
-1.15966e-06
-1.19023e-06
-1.22013e-06
-1.24928e-06
-1.2776e-06
-1.30503e-06
-1.33149e-06
-1.35692e-06
-1.38126e-06
-1.40447e-06
-1.4265e-06
-1.44731e-06
-1.46687e-06
-1.48516e-06
-1.50217e-06
-1.51789e-06
-1.53232e-06
-1.54548e-06
-1.55738e-06
-1.56805e-06
-1.57753e-06
-1.58585e-06
-1.59308e-06
-1.59925e-06
-1.60444e-06
-1.6087e-06
-1.61211e-06
-1.61472e-06
-1.61663e-06
-1.61789e-06
-1.61859e-06
-1.61879e-06
-1.61858e-06
-1.61802e-06
-1.61718e-06
-1.61614e-06
-1.61494e-06
-1.61365e-06
-1.61231e-06
-1.61099e-06
-1.60972e-06
-1.60853e-06
-1.60748e-06
4.19063e-08
3.65341e-08
3.2665e-08
2.84819e-08
2.39194e-08
1.89929e-08
1.36454e-08
7.82935e-09
1.51303e-09
-5.32807e-09
-1.27142e-08
-2.06626e-08
-2.91882e-08
-3.83048e-08
-4.80258e-08
-5.83639e-08
-6.93322e-08
-8.09438e-08
-9.3212e-08
-1.0615e-07
-1.19773e-07
-1.34093e-07
-1.49125e-07
-1.64882e-07
-1.81376e-07
-1.98619e-07
-2.16622e-07
-2.35395e-07
-2.54947e-07
-2.75284e-07
-2.96411e-07
-3.18332e-07
-3.41047e-07
-3.64555e-07
-3.8885e-07
-4.13925e-07
-4.3977e-07
-4.66372e-07
-4.93713e-07
-5.21772e-07
-5.50525e-07
-5.79943e-07
-6.09994e-07
-6.40642e-07
-6.71845e-07
-7.03557e-07
-7.35728e-07
-7.68303e-07
-8.01221e-07
-8.3442e-07
-8.67831e-07
-9.01383e-07
-9.35003e-07
-9.6861e-07
-1.00213e-06
-1.03547e-06
-1.06855e-06
-1.10128e-06
-1.13359e-06
-1.16537e-06
-1.19655e-06
-1.22704e-06
-1.25675e-06
-1.28561e-06
-1.31354e-06
-1.34047e-06
-1.36633e-06
-1.39107e-06
-1.41461e-06
-1.43693e-06
-1.45798e-06
-1.47772e-06
-1.49614e-06
-1.51322e-06
-1.52895e-06
-1.54335e-06
-1.55641e-06
-1.56816e-06
-1.57864e-06
-1.58787e-06
-1.5959e-06
-1.6028e-06
-1.60861e-06
-1.61339e-06
-1.61723e-06
-1.62019e-06
-1.62234e-06
-1.62377e-06
-1.62455e-06
-1.62477e-06
-1.62449e-06
-1.62381e-06
-1.62279e-06
-1.62152e-06
-1.62005e-06
-1.61845e-06
-1.61679e-06
-1.61512e-06
-1.61348e-06
-1.61193e-06
-1.6105e-06
-1.60922e-06
4.80554e-08
4.24842e-08
3.85235e-08
3.42791e-08
2.96831e-08
2.47491e-08
1.94152e-08
1.36291e-08
7.3556e-09
5.6739e-10
-6.75804e-09
-1.46396e-08
-2.30938e-08
-3.21357e-08
-4.17799e-08
-5.20401e-08
-6.29305e-08
-7.4465e-08
-8.66581e-08
-9.95245e-08
-1.13079e-07
-1.27338e-07
-1.42315e-07
-1.58024e-07
-1.74481e-07
-1.91697e-07
-2.09686e-07
-2.28459e-07
-2.48026e-07
-2.68396e-07
-2.89576e-07
-3.11571e-07
-3.34382e-07
-3.58008e-07
-3.82448e-07
-4.07695e-07
-4.33739e-07
-4.6057e-07
-4.8817e-07
-5.1652e-07
-5.45595e-07
-5.7537e-07
-6.0581e-07
-6.36881e-07
-6.6854e-07
-7.00742e-07
-7.33435e-07
-7.66561e-07
-8.00061e-07
-8.33868e-07
-8.67914e-07
-9.02123e-07
-9.3642e-07
-9.70722e-07
-1.00494e-06
-1.039e-06
-1.0728e-06
-1.10626e-06
-1.13928e-06
-1.17177e-06
-1.20364e-06
-1.2348e-06
-1.26516e-06
-1.29464e-06
-1.32315e-06
-1.35062e-06
-1.37698e-06
-1.40215e-06
-1.42609e-06
-1.44874e-06
-1.47006e-06
-1.49001e-06
-1.50858e-06
-1.52574e-06
-1.54149e-06
-1.55583e-06
-1.56879e-06
-1.58037e-06
-1.59061e-06
-1.59955e-06
-1.60725e-06
-1.61376e-06
-1.61914e-06
-1.62347e-06
-1.62681e-06
-1.62925e-06
-1.63087e-06
-1.63175e-06
-1.63197e-06
-1.63163e-06
-1.6308e-06
-1.62958e-06
-1.62804e-06
-1.62626e-06
-1.62431e-06
-1.62226e-06
-1.62017e-06
-1.61811e-06
-1.61611e-06
-1.61424e-06
-1.61253e-06
-1.61101e-06
5.41733e-08
4.84467e-08
4.44157e-08
4.01265e-08
3.55092e-08
3.0577e-08
2.52643e-08
1.95154e-08
1.32927e-08
6.56654e-09
-6.8736e-10
-8.48953e-09
-1.68579e-08
-2.58091e-08
-3.53586e-08
-4.55217e-08
-5.63135e-08
-6.77493e-08
-7.98449e-08
-9.26163e-08
-1.0608e-07
-1.20253e-07
-1.35151e-07
-1.5079e-07
-1.67186e-07
-1.84353e-07
-2.02306e-07
-2.21058e-07
-2.40622e-07
-2.61008e-07
-2.82224e-07
-3.04278e-07
-3.27173e-07
-3.5091e-07
-3.75489e-07
-4.00904e-07
-4.27149e-07
-4.54213e-07
-4.82081e-07
-5.10735e-07
-5.40152e-07
-5.70305e-07
-6.01163e-07
-6.3269e-07
-6.64843e-07
-6.97577e-07
-7.30838e-07
-7.64569e-07
-7.98708e-07
-8.33187e-07
-8.67934e-07
-9.02874e-07
-9.37925e-07
-9.73001e-07
-1.00801e-06
-1.04287e-06
-1.07749e-06
-1.11175e-06
-1.14558e-06
-1.17887e-06
-1.21153e-06
-1.24345e-06
-1.27454e-06
-1.30472e-06
-1.33389e-06
-1.36197e-06
-1.38889e-06
-1.41457e-06
-1.43895e-06
-1.46198e-06
-1.48361e-06
-1.5038e-06
-1.52254e-06
-1.53979e-06
-1.55556e-06
-1.56985e-06
-1.58267e-06
-1.59405e-06
-1.60402e-06
-1.61264e-06
-1.61995e-06
-1.62602e-06
-1.63091e-06
-1.6347e-06
-1.63748e-06
-1.63932e-06
-1.64032e-06
-1.64057e-06
-1.64016e-06
-1.63918e-06
-1.63773e-06
-1.63588e-06
-1.63374e-06
-1.63138e-06
-1.62889e-06
-1.62632e-06
-1.62376e-06
-1.62125e-06
-1.61886e-06
-1.61664e-06
-1.61461e-06
-1.61282e-06
6.02392e-08
5.43887e-08
5.03045e-08
4.59844e-08
4.13577e-08
3.64374e-08
3.11552e-08
2.54531e-08
1.92913e-08
1.26386e-08
5.46918e-09
-2.23908e-09
-1.05055e-08
-1.9348e-08
-2.87835e-08
-3.88285e-08
-4.94995e-08
-6.08132e-08
-7.27869e-08
-8.54384e-08
-9.87857e-08
-1.12847e-07
-1.2764e-07
-1.43183e-07
-1.59492e-07
-1.76586e-07
-1.94478e-07
-2.13187e-07
-2.32725e-07
-2.53105e-07
-2.7434e-07
-2.96436e-07
-3.19401e-07
-3.43237e-07
-3.67945e-07
-3.93525e-07
-4.19969e-07
-4.47269e-07
-4.75413e-07
-5.04383e-07
-5.34157e-07
-5.6471e-07
-5.96012e-07
-6.28026e-07
-6.6071e-07
-6.94018e-07
-7.27896e-07
-7.62286e-07
-7.97123e-07
-8.32339e-07
-8.67859e-07
-9.03604e-07
-9.39488e-07
-9.75423e-07
-1.01132e-06
-1.04707e-06
-1.08259e-06
-1.11776e-06
-1.1525e-06
-1.18668e-06
-1.22021e-06
-1.25299e-06
-1.28491e-06
-1.31588e-06
-1.34579e-06
-1.37457e-06
-1.40212e-06
-1.42837e-06
-1.45326e-06
-1.47672e-06
-1.4987e-06
-1.51917e-06
-1.53809e-06
-1.55544e-06
-1.57123e-06
-1.58545e-06
-1.59813e-06
-1.60928e-06
-1.61895e-06
-1.62719e-06
-1.63405e-06
-1.63961e-06
-1.64395e-06
-1.64713e-06
-1.64926e-06
-1.65043e-06
-1.65072e-06
-1.65026e-06
-1.64912e-06
-1.64742e-06
-1.64525e-06
-1.64271e-06
-1.63989e-06
-1.63688e-06
-1.63377e-06
-1.63063e-06
-1.62753e-06
-1.62453e-06
-1.6217e-06
-1.61908e-06
-1.6167e-06
-1.61461e-06
6.62348e-08
6.02823e-08
5.61579e-08
5.18186e-08
4.71934e-08
4.22954e-08
3.70541e-08
3.14098e-08
2.53211e-08
1.87553e-08
1.16852e-08
4.08722e-09
-4.05924e-09
-1.27734e-08
-2.20736e-08
-3.19779e-08
-4.25041e-08
-5.36706e-08
-6.54964e-08
-7.8001e-08
-9.12041e-08
-1.05126e-07
-1.19786e-07
-1.35204e-07
-1.51399e-07
-1.6839e-07
-1.86196e-07
-2.04834e-07
-2.24322e-07
-2.44674e-07
-2.65905e-07
-2.88024e-07
-3.11041e-07
-3.34962e-07
-3.5979e-07
-3.85525e-07
-4.12165e-07
-4.39702e-07
-4.68126e-07
-4.97421e-07
-5.27567e-07
-5.5854e-07
-5.90311e-07
-6.22843e-07
-6.56095e-07
-6.9002e-07
-7.24564e-07
-7.59667e-07
-7.95265e-07
-8.31284e-07
-8.6765e-07
-9.04279e-07
-9.41081e-07
-9.77964e-07
-1.01483e-06
-1.05157e-06
-1.08809e-06
-1.12428e-06
-1.16002e-06
-1.19521e-06
-1.22973e-06
-1.26346e-06
-1.29631e-06
-1.32816e-06
-1.35891e-06
-1.38846e-06
-1.41673e-06
-1.44363e-06
-1.46908e-06
-1.49303e-06
-1.51541e-06
-1.53618e-06
-1.55531e-06
-1.57279e-06
-1.58859e-06
-1.60274e-06
-1.61524e-06
-1.62613e-06
-1.63546e-06
-1.64327e-06
-1.64963e-06
-1.65461e-06
-1.65831e-06
-1.6608e-06
-1.6622e-06
-1.66259e-06
-1.66209e-06
-1.66081e-06
-1.65886e-06
-1.65634e-06
-1.65337e-06
-1.65004e-06
-1.64646e-06
-1.64272e-06
-1.63892e-06
-1.63513e-06
-1.63144e-06
-1.6279e-06
-1.62458e-06
-1.62152e-06
-1.61877e-06
-1.61636e-06
7.21422e-08
6.61016e-08
6.19466e-08
5.75979e-08
5.29843e-08
4.81189e-08
4.29297e-08
3.73555e-08
3.13535e-08
2.48896e-08
1.79353e-08
1.04659e-08
2.4592e-09
-6.10532e-09
-1.52474e-08
-2.49865e-08
-3.53422e-08
-4.63346e-08
-5.79844e-08
-7.03131e-08
-8.33423e-08
-9.70939e-08
-1.1159e-07
-1.26852e-07
-1.42902e-07
-1.59761e-07
-1.7745e-07
-1.95989e-07
-2.15399e-07
-2.35697e-07
-2.56899e-07
-2.79019e-07
-3.02068e-07
-3.26057e-07
-3.5099e-07
-3.76871e-07
-4.03699e-07
-4.31471e-07
-4.60177e-07
-4.89805e-07
-5.20336e-07
-5.51747e-07
-5.84011e-07
-6.17091e-07
-6.50947e-07
-6.85532e-07
-7.20792e-07
-7.56665e-07
-7.93086e-07
-8.2998e-07
-8.67267e-07
-9.04862e-07
-9.42672e-07
-9.80596e-07
-1.01853e-06
-1.05637e-06
-1.094e-06
-1.13131e-06
-1.16817e-06
-1.20447e-06
-1.24008e-06
-1.27489e-06
-1.30877e-06
-1.34161e-06
-1.3733e-06
-1.40372e-06
-1.4328e-06
-1.46042e-06
-1.48651e-06
-1.511e-06
-1.53383e-06
-1.55494e-06
-1.57431e-06
-1.59191e-06
-1.60774e-06
-1.6218e-06
-1.63411e-06
-1.6447e-06
-1.65363e-06
-1.66095e-06
-1.66674e-06
-1.67107e-06
-1.67405e-06
-1.67576e-06
-1.67632e-06
-1.67585e-06
-1.67445e-06
-1.67226e-06
-1.66938e-06
-1.66595e-06
-1.66207e-06
-1.65785e-06
-1.65342e-06
-1.64887e-06
-1.6443e-06
-1.6398e-06
-1.63544e-06
-1.63131e-06
-1.62745e-06
-1.62391e-06
-1.62075e-06
-1.618e-06
7.79419e-08
7.18212e-08
6.76426e-08
6.32925e-08
5.86995e-08
5.38771e-08
4.87518e-08
4.32608e-08
3.73603e-08
3.10149e-08
2.41947e-08
1.68735e-08
9.028e-09
6.36199e-10
-8.32312e-09
-1.7871e-08
-2.80287e-08
-3.88181e-08
-5.0262e-08
-6.23836e-08
-7.52067e-08
-8.87556e-08
-1.03054e-07
-1.18127e-07
-1.33998e-07
-1.50692e-07
-1.68231e-07
-1.8664e-07
-2.05941e-07
-2.26155e-07
-2.47301e-07
-2.69396e-07
-2.92455e-07
-3.1649e-07
-3.41512e-07
-3.67525e-07
-3.94533e-07
-4.22534e-07
-4.51522e-07
-4.81488e-07
-5.12414e-07
-5.4428e-07
-5.77058e-07
-6.10716e-07
-6.45213e-07
-6.80501e-07
-7.16527e-07
-7.53229e-07
-7.90538e-07
-8.28379e-07
-8.66668e-07
-9.05316e-07
-9.44226e-07
-9.83292e-07
-1.02241e-06
-1.06145e-06
-1.10031e-06
-1.13885e-06
-1.17695e-06
-1.21448e-06
-1.25131e-06
-1.28731e-06
-1.32234e-06
-1.35628e-06
-1.38902e-06
-1.42042e-06
-1.45039e-06
-1.47883e-06
-1.50563e-06
-1.53074e-06
-1.55406e-06
-1.57556e-06
-1.59519e-06
-1.61294e-06
-1.62879e-06
-1.64274e-06
-1.65483e-06
-1.66509e-06
-1.67357e-06
-1.68034e-06
-1.68547e-06
-1.68907e-06
-1.69122e-06
-1.69205e-06
-1.69168e-06
-1.69022e-06
-1.68782e-06
-1.68459e-06
-1.68068e-06
-1.67622e-06
-1.67132e-06
-1.66613e-06
-1.66074e-06
-1.65529e-06
-1.64987e-06
-1.64457e-06
-1.63949e-06
-1.63469e-06
-1.63025e-06
-1.6262e-06
-1.6226e-06
-1.61947e-06
8.3612e-08
7.74145e-08
7.32173e-08
6.88726e-08
6.43087e-08
5.95395e-08
5.44902e-08
4.90965e-08
4.33134e-08
3.71042e-08
3.04374e-08
2.32858e-08
1.56245e-08
7.43001e-09
-1.32028e-09
-1.06491e-08
-2.05794e-08
-3.11351e-08
-4.23408e-08
-5.4222e-08
-6.68047e-08
-8.01155e-08
-9.41811e-08
-1.09028e-07
-1.24684e-07
-1.41176e-07
-1.58531e-07
-1.76774e-07
-1.95933e-07
-2.1603e-07
-2.37089e-07
-2.5913e-07
-2.82172e-07
-3.06231e-07
-3.3132e-07
-3.57449e-07
-3.84623e-07
-4.12846e-07
-4.42114e-07
-4.72419e-07
-5.03748e-07
-5.36083e-07
-5.69398e-07
-6.03662e-07
-6.38834e-07
-6.7487e-07
-7.11713e-07
-7.49302e-07
-7.87568e-07
-8.26431e-07
-8.65806e-07
-9.05599e-07
-9.45708e-07
-9.86022e-07
-1.02642e-06
-1.06679e-06
-1.107e-06
-1.1469e-06
-1.18637e-06
-1.22527e-06
-1.26345e-06
-1.30076e-06
-1.33708e-06
-1.37225e-06
-1.40615e-06
-1.43864e-06
-1.46962e-06
-1.49896e-06
-1.52656e-06
-1.55235e-06
-1.57623e-06
-1.59816e-06
-1.61809e-06
-1.63599e-06
-1.65186e-06
-1.66569e-06
-1.67753e-06
-1.6874e-06
-1.69537e-06
-1.70151e-06
-1.70591e-06
-1.70868e-06
-1.70991e-06
-1.70975e-06
-1.70832e-06
-1.70576e-06
-1.70221e-06
-1.69784e-06
-1.69276e-06
-1.68715e-06
-1.68112e-06
-1.67482e-06
-1.66839e-06
-1.66193e-06
-1.65557e-06
-1.6494e-06
-1.64352e-06
-1.638e-06
-1.63291e-06
-1.62831e-06
-1.62423e-06
-1.62072e-06
8.9127e-08
8.28534e-08
7.8641e-08
7.43075e-08
6.97808e-08
6.50752e-08
6.01143e-08
5.48326e-08
4.91836e-08
4.31292e-08
3.66366e-08
2.96771e-08
2.22243e-08
1.42534e-08
5.74008e-09
-3.33997e-09
-1.30117e-08
-2.33008e-08
-3.4234e-08
-4.58392e-08
-5.81447e-08
-7.11796e-08
-8.49736e-08
-9.95563e-08
-1.14958e-07
-1.31209e-07
-1.4834e-07
-1.6638e-07
-1.85358e-07
-2.05302e-07
-2.26239e-07
-2.48194e-07
-2.71189e-07
-2.95244e-07
-3.20377e-07
-3.46601e-07
-3.73926e-07
-4.02359e-07
-4.319e-07
-4.62544e-07
-4.94283e-07
-5.27099e-07
-5.6097e-07
-5.95867e-07
-6.3175e-07
-6.68576e-07
-7.06289e-07
-7.44827e-07
-7.84118e-07
-8.24083e-07
-8.64631e-07
-9.05665e-07
-9.47076e-07
-9.8875e-07
-1.03056e-06
-1.07238e-06
-1.11406e-06
-1.15547e-06
-1.19645e-06
-1.23685e-06
-1.27652e-06
-1.3153e-06
-1.35303e-06
-1.38957e-06
-1.42477e-06
-1.45848e-06
-1.49057e-06
-1.52092e-06
-1.54942e-06
-1.57596e-06
-1.60047e-06
-1.62288e-06
-1.64313e-06
-1.66121e-06
-1.67709e-06
-1.69079e-06
-1.70234e-06
-1.71178e-06
-1.71917e-06
-1.7246e-06
-1.72817e-06
-1.72999e-06
-1.73019e-06
-1.7289e-06
-1.72628e-06
-1.72248e-06
-1.71767e-06
-1.71199e-06
-1.70562e-06
-1.69872e-06
-1.69143e-06
-1.68391e-06
-1.6763e-06
-1.66873e-06
-1.66133e-06
-1.6542e-06
-1.64745e-06
-1.64114e-06
-1.63536e-06
-1.63016e-06
-1.62559e-06
-1.62167e-06
9.44583e-08
8.81068e-08
8.38821e-08
7.95651e-08
7.50835e-08
7.04517e-08
6.55921e-08
6.04375e-08
5.49399e-08
4.90599e-08
4.27632e-08
3.60195e-08
2.8801e-08
2.10815e-08
1.28348e-08
4.03507e-09
-5.34467e-09
-1.53322e-08
-2.59565e-08
-3.72476e-08
-4.92366e-08
-6.19554e-08
-7.54364e-08
-8.97128e-08
-1.04818e-07
-1.20786e-07
-1.3765e-07
-1.55444e-07
-1.74201e-07
-1.93953e-07
-2.1473e-07
-2.36561e-07
-2.59475e-07
-2.83495e-07
-3.08643e-07
-3.34938e-07
-3.62394e-07
-3.91022e-07
-4.20826e-07
-4.51807e-07
-4.83957e-07
-5.17265e-07
-5.5171e-07
-5.87265e-07
-6.23894e-07
-6.61553e-07
-7.00188e-07
-7.39736e-07
-7.80125e-07
-8.21273e-07
-8.63086e-07
-9.05461e-07
-9.48287e-07
-9.9144e-07
-1.03479e-06
-1.07819e-06
-1.12149e-06
-1.16455e-06
-1.20719e-06
-1.24925e-06
-1.29057e-06
-1.33097e-06
-1.37028e-06
-1.40834e-06
-1.44497e-06
-1.48003e-06
-1.51337e-06
-1.54485e-06
-1.57433e-06
-1.60173e-06
-1.62693e-06
-1.64987e-06
-1.67049e-06
-1.68875e-06
-1.70465e-06
-1.7182e-06
-1.72941e-06
-1.73836e-06
-1.74509e-06
-1.74972e-06
-1.75235e-06
-1.75311e-06
-1.75214e-06
-1.74959e-06
-1.74564e-06
-1.74045e-06
-1.7342e-06
-1.72708e-06
-1.71925e-06
-1.71091e-06
-1.70221e-06
-1.69334e-06
-1.68443e-06
-1.67563e-06
-1.66709e-06
-1.65891e-06
-1.6512e-06
-1.64404e-06
-1.63751e-06
-1.63168e-06
-1.62657e-06
-1.62223e-06
9.95733e-08
9.31414e-08
8.89065e-08
8.46111e-08
8.01822e-08
7.56349e-08
7.08895e-08
6.58776e-08
6.05495e-08
5.48642e-08
4.8786e-08
4.2283e-08
3.53261e-08
2.78872e-08
1.99386e-08
1.14525e-08
2.40004e-09
-7.24882e-09
-1.75253e-08
-2.84621e-08
-4.00928e-08
-5.24523e-08
-6.55763e-08
-7.95013e-08
-9.42644e-08
-1.09903e-07
-1.26455e-07
-1.43957e-07
-1.62447e-07
-1.81962e-07
-2.02536e-07
-2.24204e-07
-2.46997e-07
-2.70947e-07
-2.96078e-07
-3.22415e-07
-3.49978e-07
-3.78781e-07
-4.08835e-07
-4.40145e-07
-4.72707e-07
-5.06513e-07
-5.41546e-07
-5.77783e-07
-6.15191e-07
-6.53726e-07
-6.93336e-07
-7.33958e-07
-7.75519e-07
-8.17934e-07
-8.61108e-07
-9.04932e-07
-9.49289e-07
-9.94047e-07
-1.03907e-06
-1.0842e-06
-1.12928e-06
-1.17414e-06
-1.21861e-06
-1.26251e-06
-1.30564e-06
-1.34783e-06
-1.38889e-06
-1.42862e-06
-1.46686e-06
-1.50342e-06
-1.53815e-06
-1.57087e-06
-1.60147e-06
-1.62981e-06
-1.65579e-06
-1.67932e-06
-1.70034e-06
-1.71881e-06
-1.73473e-06
-1.74809e-06
-1.75893e-06
-1.7673e-06
-1.7733e-06
-1.77702e-06
-1.77859e-06
-1.77815e-06
-1.77586e-06
-1.7719e-06
-1.76644e-06
-1.75969e-06
-1.75184e-06
-1.74309e-06
-1.73364e-06
-1.7237e-06
-1.71344e-06
-1.70305e-06
-1.69271e-06
-1.68256e-06
-1.67276e-06
-1.66342e-06
-1.65467e-06
-1.64659e-06
-1.63926e-06
-1.63275e-06
-1.62709e-06
-1.6223e-06
1.04436e-07
9.79204e-08
9.36772e-08
8.94083e-08
8.50401e-08
8.05879e-08
7.59702e-08
7.11169e-08
6.59768e-08
6.05074e-08
5.46713e-08
4.84352e-08
4.17683e-08
3.46408e-08
2.70235e-08
1.88863e-08
1.01984e-08
9.27404e-10
-8.96025e-09
-1.94998e-08
-3.07278e-08
-4.26821e-08
-5.54019e-08
-6.89273e-08
-8.3299e-08
-9.85585e-08
-1.14748e-07
-1.31908e-07
-1.50082e-07
-1.69311e-07
-1.89635e-07
-2.11093e-07
-2.33724e-07
-2.57561e-07
-2.82638e-07
-3.08984e-07
-3.36624e-07
-3.6558e-07
-3.95866e-07
-4.27492e-07
-4.60461e-07
-4.94769e-07
-5.30403e-07
-5.67343e-07
-6.0556e-07
-6.45013e-07
-6.85652e-07
-7.27412e-07
-7.70221e-07
-8.13992e-07
-8.58626e-07
-9.04011e-07
-9.50023e-07
-9.96523e-07
-1.04336e-06
-1.09038e-06
-1.1374e-06
-1.18425e-06
-1.23072e-06
-1.27663e-06
-1.32178e-06
-1.36594e-06
-1.40893e-06
-1.45053e-06
-1.49054e-06
-1.52878e-06
-1.56504e-06
-1.59916e-06
-1.63099e-06
-1.66039e-06
-1.68722e-06
-1.71141e-06
-1.73288e-06
-1.75159e-06
-1.76751e-06
-1.78066e-06
-1.79107e-06
-1.79881e-06
-1.80397e-06
-1.80666e-06
-1.80704e-06
-1.80524e-06
-1.80147e-06
-1.79591e-06
-1.78876e-06
-1.78026e-06
-1.77061e-06
-1.76004e-06
-1.74878e-06
-1.73705e-06
-1.72506e-06
-1.713e-06
-1.70106e-06
-1.68942e-06
-1.67824e-06
-1.66764e-06
-1.65776e-06
-1.64868e-06
-1.6405e-06
-1.63326e-06
-1.62702e-06
-1.62179e-06
1.09006e-07
1.02404e-07
9.8154e-08
9.39167e-08
8.96172e-08
8.52709e-08
8.07947e-08
7.61165e-08
7.11838e-08
6.59521e-08
6.03827e-08
5.44407e-08
4.80936e-08
4.131e-08
3.40586e-08
2.63074e-08
1.80233e-08
9.17162e-09
-2.83709e-10
-1.03806e-08
-2.11587e-08
-3.2659e-08
-4.49241e-08
-5.7998e-08
-7.19254e-08
-8.67521e-08
-1.02524e-07
-1.19289e-07
-1.37093e-07
-1.55982e-07
-1.76003e-07
-1.97202e-07
-2.1962e-07
-2.433e-07
-2.6828e-07
-2.94595e-07
-3.22278e-07
-3.51356e-07
-3.81851e-07
-4.13777e-07
-4.47144e-07
-4.81953e-07
-5.18196e-07
-5.55859e-07
-5.94914e-07
-6.35326e-07
-6.77044e-07
-7.20008e-07
-7.64142e-07
-8.0936e-07
-8.55559e-07
-9.02624e-07
-9.50422e-07
-9.98809e-07
-1.04763e-06
-1.0967e-06
-1.14584e-06
-1.19486e-06
-1.24354e-06
-1.29166e-06
-1.33902e-06
-1.38537e-06
-1.4305e-06
-1.47416e-06
-1.51615e-06
-1.55623e-06
-1.59421e-06
-1.62989e-06
-1.66309e-06
-1.69366e-06
-1.72146e-06
-1.74639e-06
-1.76835e-06
-1.78731e-06
-1.80323e-06
-1.81614e-06
-1.82606e-06
-1.83308e-06
-1.83729e-06
-1.83882e-06
-1.83784e-06
-1.83452e-06
-1.82908e-06
-1.82171e-06
-1.81267e-06
-1.8022e-06
-1.79053e-06
-1.77794e-06
-1.76466e-06
-1.75093e-06
-1.737e-06
-1.72309e-06
-1.7094e-06
-1.69612e-06
-1.68342e-06
-1.67145e-06
-1.66034e-06
-1.65019e-06
-1.64109e-06
-1.63309e-06
-1.62624e-06
-1.62056e-06
1.13241e-07
1.06547e-07
1.02293e-07
9.80926e-08
9.387e-08
8.96409e-08
8.53204e-08
8.08346e-08
7.6129e-08
7.1158e-08
6.58809e-08
6.02614e-08
5.42652e-08
4.78592e-08
4.101e-08
3.36836e-08
2.58446e-08
1.74559e-08
8.4788e-09
-1.1274e-09
-1.14053e-08
-2.23995e-08
-3.41561e-08
-4.67231e-08
-6.01494e-08
-7.44853e-08
-8.9782e-08
-1.06091e-07
-1.23466e-07
-1.41958e-07
-1.61619e-07
-1.825e-07
-2.04652e-07
-2.28122e-07
-2.52956e-07
-2.79195e-07
-3.06881e-07
-3.36046e-07
-3.66719e-07
-3.98924e-07
-4.32674e-07
-4.67978e-07
-5.04835e-07
-5.43234e-07
-5.83154e-07
-6.24562e-07
-6.67412e-07
-7.11644e-07
-7.57184e-07
-8.03943e-07
-8.51817e-07
-9.00685e-07
-9.5041e-07
-1.00084e-06
-1.0518e-06
-1.10311e-06
-1.15456e-06
-1.20596e-06
-1.25705e-06
-1.30762e-06
-1.35741e-06
-1.40618e-06
-1.45367e-06
-1.49963e-06
-1.5438e-06
-1.58595e-06
-1.62584e-06
-1.66325e-06
-1.69798e-06
-1.72987e-06
-1.75874e-06
-1.78448e-06
-1.807e-06
-1.82624e-06
-1.84216e-06
-1.85478e-06
-1.86415e-06
-1.87034e-06
-1.87348e-06
-1.8737e-06
-1.87119e-06
-1.86615e-06
-1.85882e-06
-1.84943e-06
-1.83826e-06
-1.82557e-06
-1.81165e-06
-1.79678e-06
-1.78123e-06
-1.76529e-06
-1.74922e-06
-1.73325e-06
-1.71762e-06
-1.70253e-06
-1.68817e-06
-1.6747e-06
-1.66226e-06
-1.65097e-06
-1.64089e-06
-1.6321e-06
-1.62462e-06
-1.61848e-06
1.17091e-07
1.10303e-07
1.06047e-07
1.01889e-07
9.77514e-08
9.36514e-08
8.95014e-08
8.52256e-08
8.07681e-08
7.60813e-08
7.11232e-08
6.58556e-08
6.02427e-08
5.42494e-08
4.78404e-08
4.09795e-08
3.36288e-08
2.5749e-08
1.72986e-08
8.23403e-09
-1.4906e-09
-1.19232e-08
-2.31139e-08
-3.51146e-08
-4.79789e-08
-6.17619e-08
-7.65199e-08
-9.23104e-08
-1.09191e-07
-1.27221e-07
-1.46459e-07
-1.66961e-07
-1.88785e-07
-2.11987e-07