/*--------------------------------*- C++ -*----------------------------------*\
| =========                 |                                                 |
| \\      /  F ield         | OpenFOAM: The Open Source CFD Toolbox           |
|  \\    /   O peration     | Version:  2406                                  |
|   \\  /    A nd           | Website:  www.openfoam.com                      |
|    \\/     M anipulation  |                                                 |
\*---------------------------------------------------------------------------*/
FoamFile
{
    version     2.0;
    format      ascii;
    arch        "LSB;label=32;scalar=64";
    class       surfaceScalarField;
    location    "240";
    object      phi;
}
// * * * * * * * * * * * * * * * * * * * * * * * * * * * * * * * * * * * * * //

dimensions      [0 3 -1 0 0 0 0];

oriented        oriented;

internalField   nonuniform List<scalar> 
31968
(
7.10796e-10
-7.1083e-10
8.52382e-10
-1.4159e-10
1.43041e-10
7.0934e-10
-1.24823e-09
1.39129e-09
-3.11323e-09
1.865e-09
-5.27251e-09
2.15927e-09
-7.60442e-09
2.33191e-09
-1.00309e-08
2.42646e-09
-1.25009e-08
2.47001e-09
-1.49806e-08
2.47969e-09
-1.74476e-08
2.46701e-09
-1.98876e-08
2.43998e-09
-2.22916e-08
2.40408e-09
-2.46545e-08
2.36282e-09
-2.69727e-08
2.31829e-09
-2.92443e-08
2.27156e-09
-3.14674e-08
2.22307e-09
-3.36403e-08
2.17292e-09
-3.57613e-08
2.12105e-09
-3.78286e-08
2.06733e-09
-3.98403e-08
2.01165e-09
-4.17942e-08
1.95395e-09
-4.36884e-08
1.89417e-09
-4.55207e-08
1.83231e-09
-4.72891e-08
1.7684e-09
-4.89916e-08
1.70249e-09
-5.06263e-08
1.63467e-09
-5.21913e-08
1.56501e-09
-5.36849e-08
1.49362e-09
-5.51055e-08
1.42063e-09
-5.64517e-08
1.34617e-09
-5.77221e-08
1.27038e-09
-5.89155e-08
1.19342e-09
-6.0031e-08
1.11546e-09
-6.10676e-08
1.03667e-09
-6.20249e-08
9.57234e-10
-6.29022e-08
8.77354e-10
-6.36995e-08
7.97227e-10
-6.44165e-08
7.17063e-10
-6.50536e-08
6.37077e-10
-6.56111e-08
5.57486e-10
-6.60896e-08
4.78515e-10
-6.649e-08
4.00384e-10
-6.68133e-08
3.23315e-10
-6.70608e-08
2.47522e-10
-6.72341e-08
1.73221e-10
-6.73347e-08
1.0063e-10
-6.73648e-08
3.00727e-11
-6.73262e-08
-3.85686e-11
-6.72216e-08
-1.04585e-10
-6.70536e-08
-1.68013e-10
-6.68243e-08
-2.29303e-10
-6.65364e-08
-2.87891e-10
-6.61929e-08
-3.43528e-10
-6.57967e-08
-3.96184e-10
-6.53508e-08
-4.4583e-10
-6.48584e-08
-4.92442e-10
-6.43224e-08
-5.36016e-10
-6.37458e-08
-5.76571e-10
-6.31317e-08
-6.1415e-10
-6.24829e-08
-6.48824e-10
-6.18022e-08
-6.80687e-10
-6.10923e-08
-7.09861e-10
-6.03558e-08
-7.36495e-10
-5.95951e-08
-7.6076e-10
-5.88122e-08
-7.8285e-10
-5.80092e-08
-8.02975e-10
-5.71879e-08
-8.21357e-10
-5.63496e-08
-8.38227e-10
-5.54958e-08
-8.53822e-10
-5.46274e-08
-8.68385e-10
-5.37453e-08
-8.82159e-10
-5.28499e-08
-8.95381e-10
-5.19416e-08
-9.08274e-10
-5.10206e-08
-9.21045e-10
-5.00867e-08
-9.33884e-10
-4.91397e-08
-9.46963e-10
-4.81793e-08
-9.6043e-10
-4.72049e-08
-9.74404e-10
-4.62159e-08
-9.88974e-10
-4.52117e-08
-1.0042e-09
-4.41916e-08
-1.0201e-09
-4.31549e-08
-1.03668e-09
-4.2101e-08
-1.0539e-09
-4.10293e-08
-1.0717e-09
-3.99394e-08
-1.08998e-09
-3.88307e-08
-1.10861e-09
-3.77033e-08
-1.12748e-09
-3.65568e-08
-1.1464e-09
-3.53916e-08
-1.16523e-09
-3.42079e-08
-1.18376e-09
-3.30061e-08
-1.2018e-09
-3.17869e-08
-1.21916e-09
-3.05513e-08
-1.23566e-09
-2.93001e-08
-1.25112e-09
-2.80348e-08
-1.26535e-09
-2.67566e-08
-1.27821e-09
-2.5467e-08
-1.28955e-09
-2.41678e-08
-1.29926e-09
-2.28605e-08
-1.30725e-09
-2.15471e-08
-1.31346e-09
-1.31784e-09
-2.02292e-08
1.39374e-10
-8.50206e-10
-1.19465e-09
1.19243e-09
-4.27236e-09
3.78702e-09
-8.81202e-09
5.93095e-09
-1.44168e-08
7.46976e-09
-2.07511e-08
8.49364e-09
-2.75622e-08
9.14301e-09
-3.4668e-08
9.53219e-09
-4.19386e-08
9.74061e-09
-4.9282e-08
9.82317e-09
-5.66341e-08
9.8191e-09
-6.3951e-08
9.75683e-09
-7.12034e-08
9.65652e-09
-7.83723e-08
9.53173e-09
-8.5445e-08
9.391e-09
-9.24127e-08
9.23921e-09
-9.92684e-08
9.07884e-09
-1.06006e-07
8.91091e-09
-1.12621e-07
8.73567e-09
-1.19107e-07
8.55299e-09
-1.25458e-07
8.36264e-09
-1.31668e-07
8.16439e-09
-1.37732e-07
7.9581e-09
-1.43643e-07
7.74368e-09
-1.49396e-07
7.52115e-09
-1.54984e-07
7.29057e-09
-1.60402e-07
7.05208e-09
-1.65643e-07
6.80588e-09
-1.70701e-07
6.5522e-09
-1.75572e-07
6.29132e-09
-1.80249e-07
6.02358e-09
-1.84728e-07
5.74934e-09
-1.89004e-07
5.469e-09
-1.93071e-07
5.183e-09
-1.96926e-07
4.89184e-09
-2.00565e-07
4.59601e-09
-2.03984e-07
4.29606e-09
-2.07179e-07
3.9926e-09
-2.10148e-07
3.68622e-09
-2.12889e-07
3.37756e-09
-2.15399e-07
3.06731e-09
-2.17676e-07
2.75615e-09
-2.19721e-07
2.44478e-09
-2.21531e-07
2.13393e-09
-2.23108e-07
1.82433e-09
-2.24452e-07
1.51669e-09
-2.25563e-07
1.21165e-09
-2.26442e-07
9.09677e-10
-2.27093e-07
6.11904e-10
-2.27518e-07
3.2009e-10
-2.27725e-07
3.96929e-11
-2.27709e-07
-2.45372e-10
-2.27478e-07
-5.19068e-10
-2.27036e-07
-7.84992e-10
-2.2639e-07
-1.0429e-09
-2.25543e-07
-1.29238e-09
-2.24503e-07
-1.53304e-09
-2.23274e-07
-1.76453e-09
-2.21864e-07
-1.98661e-09
-2.20279e-07
-2.19905e-09
-2.18526e-07
-2.40174e-09
-2.16612e-07
-2.59465e-09
-2.14544e-07
-2.77779e-09
-2.1233e-07
-2.95129e-09
-2.09975e-07
-3.11533e-09
-2.07488e-07
-3.27017e-09
-2.04875e-07
-3.41612e-09
-2.02142e-07
-3.55357e-09
-1.99298e-07
-3.68293e-09
-1.96347e-07
-3.80468e-09
-1.93296e-07
-3.91932e-09
-1.90151e-07
-4.02737e-09
-1.86917e-07
-4.12936e-09
-1.83599e-07
-4.22584e-09
-1.80203e-07
-4.31733e-09
-1.76732e-07
-4.40434e-09
-1.73192e-07
-4.48734e-09
-1.69586e-07
-4.56678e-09
-1.65917e-07
-4.64305e-09
-1.62189e-07
-4.71649e-09
-1.58406e-07
-4.78738e-09
-1.5457e-07
-4.85592e-09
-1.50685e-07
-4.92228e-09
-1.46752e-07
-4.98654e-09
-1.42775e-07
-5.0487e-09
-1.38756e-07
-5.10871e-09
-1.34699e-07
-5.16648e-09
-1.30604e-07
-5.22185e-09
-1.26476e-07
-5.2746e-09
-1.22317e-07
-5.3245e-09
-1.18129e-07
-5.37125e-09
-1.13916e-07
-5.41458e-09
-1.09681e-07
-5.45417e-09
-1.05427e-07
-5.48972e-09
-1.01158e-07
-5.52094e-09
-9.68754e-08
-5.54755e-09
-9.25843e-08
-5.56932e-09
-8.82878e-08
-5.58605e-09
-8.39894e-08
-5.59759e-09
-7.96929e-08
-5.60383e-09
-7.54016e-08
-5.60474e-09
-5.60037e-09
-7.1119e-08
-7.50674e-10
-9.95334e-11
-3.90555e-09
4.34732e-09
-9.41657e-09
9.29803e-09
-1.68532e-08
1.33676e-08
-2.57207e-08
1.63372e-08
-3.56017e-08
1.83747e-08
-4.61745e-08
1.97159e-08
-5.71982e-08
2.05558e-08
-6.84937e-08
2.10361e-08
-7.99294e-08
2.12589e-08
-9.14103e-08
2.13e-08
-1.02869e-07
2.12158e-08
-1.1426e-07
2.10473e-08
-1.25551e-07
2.0823e-08
-1.36722e-07
2.05612e-08
-1.47755e-07
2.02731e-08
-1.58641e-07
1.99646e-08
-1.69369e-07
1.96386e-08
-1.7993e-07
1.92964e-08
-1.90314e-07
1.89379e-08
-2.00515e-07
1.8563e-08
-2.10522e-07
1.81714e-08
-2.20326e-07
1.77627e-08
-2.29919e-07
1.73367e-08
-2.39292e-07
1.68934e-08
-2.48434e-07
1.64329e-08
-2.57337e-07
1.59552e-08
-2.65992e-07
1.54607e-08
-2.74389e-07
1.49495e-08
-2.8252e-07
1.44223e-08
-2.90376e-07
1.38794e-08
-2.97948e-07
1.33214e-08
-3.05228e-07
1.27491e-08
-3.12208e-07
1.2163e-08
-3.1888e-07
1.1564e-08
-3.25237e-07
1.0953e-08
-3.31272e-07
1.03309e-08
-3.36978e-07
9.69873e-09
-3.4235e-07
9.05757e-09
-3.47381e-07
8.40858e-09
-3.52066e-07
7.75296e-09
-3.56402e-07
7.09198e-09
-3.60384e-07
6.42696e-09
-3.6401e-07
5.75925e-09
-3.67276e-07
5.09026e-09
-3.7018e-07
4.42141e-09
-3.72723e-07
3.75412e-09
-3.74903e-07
3.08983e-09
-3.76721e-07
2.43023e-09
-3.78179e-07
1.77729e-09
-3.79272e-07
1.13285e-09
-3.80012e-07
4.94811e-10
-3.80399e-07
-1.32401e-10
-3.80436e-07
-7.47803e-10
-3.80128e-07
-1.35029e-09
-3.79482e-07
-1.9388e-09
-3.78503e-07
-2.5123e-09
-3.77197e-07
-3.06986e-09
-3.75573e-07
-3.61065e-09
-3.73638e-07
-4.13394e-09
-3.71401e-07
-4.63913e-09
-3.6887e-07
-5.12576e-09
-3.66054e-07
-5.5935e-09
-3.62963e-07
-6.04218e-09
-3.59607e-07
-6.47172e-09
-3.55995e-07
-6.88223e-09
-3.52137e-07
-7.27388e-09
-3.48044e-07
-7.647e-09
-3.43725e-07
-8.00202e-09
-3.3919e-07
-8.33946e-09
-3.34449e-07
-8.65991e-09
-3.29513e-07
-8.96406e-09
-3.24389e-07
-9.2526e-09
-3.19089e-07
-9.5263e-09
-3.1362e-07
-9.78592e-09
-3.07992e-07
-1.00322e-08
-3.02214e-07
-1.0266e-08
-2.96293e-07
-1.04878e-08
-2.90237e-07
-1.06985e-08
-2.84055e-07
-1.08986e-08
-2.77754e-07
-1.10886e-08
-2.71341e-07
-1.1269e-08
-2.64823e-07
-1.14401e-08
-2.58208e-07
-1.16022e-08
-2.51501e-07
-1.17554e-08
-2.4471e-07
-1.18999e-08
-2.3784e-07
-1.20357e-08
-2.30899e-07
-1.21627e-08
-2.23893e-07
-1.22807e-08
-2.16828e-07
-1.23895e-08
-2.09711e-07
-1.24889e-08
-2.02547e-07
-1.25786e-08
-1.95343e-07
-1.26583e-08
-1.88105e-07
-1.27278e-08
-1.80839e-07
-1.27868e-08
-1.73551e-07
-1.2835e-08
-1.66248e-07
-1.28722e-08
-1.58936e-07
-1.28984e-08
-1.5162e-07
-1.29135e-08
-1.44306e-07
-1.29176e-08
-1.37e-07
-1.29107e-08
-1.28933e-08
-1.29707e-07
-1.50716e-09
1.40761e-09
-6.27979e-09
9.11996e-09
-1.39007e-08
1.69189e-08
-2.37596e-08
2.32265e-08
-3.52761e-08
2.78538e-08
-4.79822e-08
3.10808e-08
-6.15192e-08
3.32528e-08
-7.56145e-08
3.46512e-08
-9.00614e-08
3.5483e-08
-1.04704e-07
3.59016e-08
-1.19427e-07
3.60232e-08
-1.34148e-07
3.59364e-08
-1.48807e-07
3.57065e-08
-1.63364e-07
3.53798e-08
-1.77789e-07
3.49868e-08
-1.92063e-07
3.45466e-08
-2.06168e-07
3.407e-08
-2.20092e-07
3.35626e-08
-2.33823e-07
3.30269e-08
-2.47349e-07
3.24637e-08
-2.60659e-07
3.18728e-08
-2.73741e-07
3.1254e-08
-2.86585e-07
3.06068e-08
-2.9918e-07
2.9931e-08
-3.11512e-07
2.92263e-08
-3.23572e-07
2.84928e-08
-3.35348e-07
2.77305e-08
-3.46827e-07
2.69397e-08
-3.57998e-07
2.61208e-08
-3.6885e-07
2.52742e-08
-3.79371e-07
2.44007e-08
-3.89551e-07
2.3501e-08
-3.99377e-07
2.25758e-08
-4.08841e-07
2.16263e-08
-4.1793e-07
2.06534e-08
-4.26636e-07
1.96585e-08
-4.34948e-07
1.86428e-08
-4.42857e-07
1.76078e-08
-4.50354e-07
1.65551e-08
-4.57432e-07
1.54863e-08
-4.64082e-07
1.44032e-08
-4.70298e-07
1.33078e-08
-4.76073e-07
1.2202e-08
-4.81402e-07
1.10878e-08
-4.86279e-07
9.96744e-09
-4.907e-07
8.84312e-09
-4.94663e-07
7.71712e-09
-4.98165e-07
6.59177e-09
-5.01205e-07
5.4695e-09
-5.0378e-07
4.35281e-09
-5.05891e-07
3.24388e-09
-5.07541e-07
2.14443e-09
-5.0873e-07
1.0572e-09
-5.09463e-07
-1.55503e-11
-5.09741e-07
-1.07152e-09
-5.09571e-07
-2.10877e-09
-5.08958e-07
-3.1254e-09
-5.07909e-07
-4.11968e-09
-5.06429e-07
-5.08998e-09
-5.04528e-07
-6.03486e-09
-5.02214e-07
-6.95301e-09
-4.99497e-07
-7.84336e-09
-4.96385e-07
-8.70499e-09
-4.9289e-07
-9.53722e-09
-4.89022e-07
-1.03395e-08
-4.84793e-07
-1.11116e-08
-4.80213e-07
-1.18534e-08
-4.75296e-07
-1.2565e-08
-4.70051e-07
-1.32465e-08
-4.64492e-07
-1.38984e-08
-4.58631e-07
-1.45213e-08
-4.52479e-07
-1.51158e-08
-4.46049e-07
-1.56826e-08
-4.39353e-07
-1.62227e-08
-4.32402e-07
-1.67368e-08
-4.25208e-07
-1.7226e-08
-4.17783e-07
-1.76911e-08
-4.10137e-07
-1.81331e-08
-4.02283e-07
-1.85527e-08
-3.94231e-07
-1.89509e-08
-3.85991e-07
-1.93284e-08
-3.77574e-07
-1.96857e-08
-3.68991e-07
-2.00235e-08
-3.60251e-07
-2.03421e-08
-3.51364e-07
-2.0642e-08
-3.42341e-07
-2.09233e-08
-3.3319e-07
-2.11862e-08
-3.23922e-07
-2.14308e-08
-3.14546e-07
-2.16568e-08
-3.05071e-07
-2.18644e-08
-2.95507e-07
-2.20532e-08
-2.85862e-07
-2.22231e-08
-2.76147e-07
-2.2374e-08
-2.66369e-07
-2.25055e-08
-2.56538e-07
-2.26176e-08
-2.46663e-07
-2.27101e-08
-2.36752e-07
-2.27831e-08
-2.26814e-07
-2.28365e-08
-2.16857e-07
-2.28706e-08
-2.06889e-07
-2.28857e-08
-1.96918e-07
-2.28821e-08
-2.28605e-08
-1.8695e-07
-2.08683e-09
3.49442e-09
-8.13789e-09
1.5171e-08
-1.74527e-08
2.62338e-08
-2.92493e-08
3.5023e-08
-4.28605e-08
4.1465e-08
-5.77737e-08
4.5994e-08
-7.36042e-08
4.90834e-08
-9.00611e-08
5.1108e-08
-1.06922e-07
5.23437e-08
-1.24017e-07
5.29966e-08
-1.41219e-07
5.32254e-08
-1.58435e-07
5.31524e-08
-1.75598e-07
5.28692e-08
-1.92659e-07
5.24413e-08
-2.09586e-07
5.19131e-08
-2.26351e-07
5.13124e-08
-2.42937e-07
5.06558e-08
-2.59327e-07
4.99521e-08
-2.75505e-07
4.92056e-08
-2.9146e-07
4.8418e-08
-3.07176e-07
4.75896e-08
-3.22643e-07
4.67202e-08
-3.37845e-07
4.58093e-08
-3.52771e-07
4.48566e-08
-3.67406e-07
4.38617e-08
-3.81738e-07
4.28246e-08
-3.95753e-07
4.17453e-08
-4.09437e-07
4.0624e-08
-4.22777e-07
3.94612e-08
-4.35761e-07
3.82575e-08
-4.48373e-07
3.70134e-08
-4.60602e-07
3.573e-08
-4.72435e-07
3.44083e-08
-4.83858e-07
3.30495e-08
-4.9486e-07
3.16549e-08
-5.05427e-07
3.02262e-08
-5.1555e-07
2.8765e-08
-5.25215e-07
2.72732e-08
-5.34413e-07
2.5753e-08
-5.43133e-07
2.42064e-08
-5.51366e-07
2.26359e-08
-5.59102e-07
2.1044e-08
-5.66333e-07
1.94334e-08
-5.73053e-07
1.7807e-08
-5.79253e-07
1.61677e-08
-5.84928e-07
1.45185e-08
-5.90074e-07
1.28626e-08
-5.94685e-07
1.12033e-08
-5.9876e-07
9.54396e-09
-6.02295e-07
7.88789e-09
-6.05289e-07
6.23838e-09
-6.07743e-07
4.59855e-09
-6.09658e-07
2.97185e-09
-6.11035e-07
1.36155e-09
-6.11877e-07
-2.29192e-10
-6.12189e-07
-1.79719e-09
-6.11975e-07
-3.3395e-09
-6.11241e-07
-4.85349e-09
-6.09994e-07
-6.33661e-09
-6.08243e-07
-7.78651e-09
-6.05995e-07
-9.20107e-09
-6.0326e-07
-1.05784e-08
-6.00048e-07
-1.19169e-08
-5.9637e-07
-1.32153e-08
-5.92237e-07
-1.44723e-08
-5.87661e-07
-1.56873e-08
-5.82655e-07
-1.68597e-08
-5.77231e-07
-1.79891e-08
-5.71402e-07
-1.90755e-08
-5.65181e-07
-2.01191e-08
-5.58582e-07
-2.11203e-08
-5.51618e-07
-2.20796e-08
-5.44303e-07
-2.29978e-08
-5.3665e-07
-2.38757e-08
-5.28673e-07
-2.47141e-08
-5.20384e-07
-2.55142e-08
-5.11799e-07
-2.6277e-08
-5.02928e-07
-2.70035e-08
-4.93786e-07
-2.76947e-08
-4.84385e-07
-2.83517e-08
-4.74739e-07
-2.89752e-08
-4.64858e-07
-2.95661e-08
-4.54756e-07
-3.01251e-08
-4.44446e-07
-3.06529e-08
-4.33938e-07
-3.11498e-08
-4.23245e-07
-3.16162e-08
-4.12379e-07
-3.20524e-08
-4.01351e-07
-3.24586e-08
-3.90173e-07
-3.28346e-08
-3.78857e-07
-3.31806e-08
-3.67414e-07
-3.34965e-08
-3.55855e-07
-3.37821e-08
-3.44191e-07
-3.40374e-08
-3.32434e-07
-3.42623e-08
-3.20595e-07
-3.44568e-08
-3.08685e-07
-3.46208e-08
-2.96713e-07
-3.47547e-08
-2.84691e-07
-3.48585e-08
-2.72629e-07
-3.49329e-08
-2.60536e-07
-3.49783e-08
-2.48422e-07
-3.49957e-08
-3.49859e-08
-2.36297e-07
-2.50358e-09
5.998e-09
-9.53646e-09
2.22039e-08
-2.01803e-08
3.68776e-08
-3.35085e-08
4.83511e-08
-4.87721e-08
5.67286e-08
-6.5415e-08
6.26369e-08
-8.30292e-08
6.66975e-08
-1.0131e-07
6.93885e-08
-1.20024e-07
7.10583e-08
-1.38996e-07
7.19681e-08
-1.5809e-07
7.232e-08
-1.77209e-07
7.2271e-08
-1.96279e-07
7.19397e-08
-2.1525e-07
7.14118e-08
-2.34082e-07
7.07455e-08
-2.52748e-07
6.99785e-08
-2.71226e-07
6.91332e-08
-2.89496e-07
6.82223e-08
-3.07542e-07
6.72521e-08
-3.2535e-07
6.62254e-08
-3.42903e-07
6.5143e-08
-3.60188e-07
6.4005e-08
-3.7719e-07
6.28109e-08
-3.93893e-07
6.15603e-08
-4.10285e-07
6.02528e-08
-4.26348e-07
5.88883e-08
-4.4207e-07
5.74667e-08
-4.57434e-07
5.59883e-08
-4.72426e-07
5.44535e-08
-4.87032e-07
5.28628e-08
-5.01235e-07
5.12172e-08
-5.15023e-07
4.95175e-08
-5.2838e-07
4.77651e-08
-5.41292e-07
4.59614e-08
-5.53745e-07
4.41079e-08
-5.65725e-07
4.22067e-08
-5.7722e-07
4.02597e-08
-5.88216e-07
3.82694e-08
-5.98701e-07
3.62383e-08
-6.08664e-07
3.41691e-08
-6.18093e-07
3.20649e-08
-6.26978e-07
2.99288e-08
-6.35309e-07
2.77644e-08
-6.43077e-07
2.55752e-08
-6.50274e-07
2.33651e-08
-6.56894e-07
2.11379e-08
-6.62929e-07
1.88979e-08
-6.68375e-07
1.66492e-08
-6.73227e-07
1.43963e-08
-6.77483e-07
1.21434e-08
-6.8114e-07
9.89515e-09
-6.84197e-07
7.65578e-09
-6.86655e-07
5.42981e-09
-6.88515e-07
3.22162e-09
-6.8978e-07
1.03546e-09
-6.90452e-07
-1.12449e-09
-6.90538e-07
-3.25389e-09
-6.90042e-07
-5.3492e-09
-6.88972e-07
-7.40678e-09
-6.87335e-07
-9.42329e-09
-6.85141e-07
-1.13957e-08
-6.82398e-07
-1.33212e-08
-6.79117e-07
-1.51973e-08
-6.75311e-07
-1.70221e-08
-6.70989e-07
-1.87937e-08
-6.66166e-07
-2.05106e-08
-6.60854e-07
-2.21719e-08
-6.55066e-07
-2.37769e-08
-6.48816e-07
-2.5325e-08
-6.42119e-07
-2.68161e-08
-6.34989e-07
-2.82505e-08
-6.2744e-07
-2.96286e-08
-6.19487e-07
-3.0951e-08
-6.11144e-07
-3.22184e-08
-6.02426e-07
-3.3432e-08
-5.93348e-07
-3.45926e-08
-5.83924e-07
-3.57016e-08
-5.74167e-07
-3.67599e-08
-5.64093e-07
-3.77689e-08
-5.53715e-07
-3.87295e-08
-5.43047e-07
-3.96429e-08
-5.32104e-07
-4.051e-08
-5.20897e-07
-4.13316e-08
-5.09441e-07
-4.21085e-08
-4.9775e-07
-4.28413e-08
-4.85836e-07
-4.35305e-08
-4.73712e-07
-4.41763e-08
-4.61391e-07
-4.4779e-08
-4.48887e-07
-4.53387e-08
-4.36212e-07
-4.58556e-08
-4.23379e-07
-4.63295e-08
-4.10401e-07
-4.67604e-08
-3.9729e-07
-4.71485e-08
-3.84059e-07
-4.74935e-08
-3.7072e-07
-4.77958e-08
-3.57285e-07
-4.80554e-08
-3.43767e-07
-4.82728e-08
-3.30177e-07
-4.84484e-08
-3.16527e-07
-4.85829e-08
-3.02828e-07
-4.86773e-08
-2.89091e-07
-4.87326e-08
-4.87503e-08
-2.75327e-07
-2.80589e-09
8.80391e-09
-1.05883e-08
2.99863e-08
-2.22694e-08
4.85587e-08
-3.68068e-08
6.28886e-08
-5.33794e-08
7.33012e-08
-7.13891e-08
8.06467e-08
-9.04051e-08
8.57135e-08
-1.1011e-07
8.9093e-08
-1.30263e-07
9.1212e-08
-1.50684e-07
9.2389e-08
-1.71235e-07
9.28708e-08
-1.91814e-07
9.28498e-08
-2.12346e-07
9.24719e-08
-2.32777e-07
9.18428e-08
-2.53067e-07
9.10354e-08
-2.73185e-07
9.00968e-08
-2.93108e-07
8.90557e-08
-3.12814e-07
8.79286e-08
-3.32286e-07
8.67241e-08
-3.51507e-07
8.54463e-08
-3.7046e-07
8.40965e-08
-3.89131e-07
8.26751e-08
-4.07501e-07
8.11818e-08
-4.25557e-07
7.9616e-08
-4.43282e-07
7.79775e-08
-4.60659e-07
7.62659e-08
-4.77674e-07
7.44812e-08
-4.94309e-07
7.26236e-08
-5.10549e-07
7.06935e-08
-5.26378e-07
6.86916e-08
-5.41779e-07
6.66187e-08
-5.56738e-07
6.4476e-08
-5.71238e-07
6.22648e-08
-5.85263e-07
5.99869e-08
-5.98799e-07
5.76441e-08
-6.11831e-07
5.52387e-08
-6.24345e-07
5.27731e-08
-6.36326e-07
5.02502e-08
-6.4776e-07
4.7673e-08
-6.58636e-07
4.50449e-08
-6.68941e-07
4.23695e-08
-6.78663e-07
3.96508e-08
-6.87791e-07
3.6893e-08
-6.96317e-07
3.41004e-08
-7.04229e-07
3.12779e-08
-7.11522e-07
2.84304e-08
-7.18187e-07
2.5563e-08
-7.24219e-07
2.2681e-08
-7.29613e-07
1.97899e-08
-7.34364e-07
1.68952e-08
-7.38472e-07
1.40025e-08
-7.41933e-07
1.11175e-08
-7.44749e-07
8.24587e-09
-7.46921e-07
5.39319e-09
-7.48451e-07
2.56501e-09
-7.49341e-07
-2.33727e-10
-7.49599e-07
-2.99663e-09
-7.49228e-07
-5.71974e-09
-7.48237e-07
-8.39797e-09
-7.46633e-07
-1.10269e-08
-7.44426e-07
-1.36025e-08
-7.41626e-07
-1.61211e-08
-7.38245e-07
-1.85792e-08
-7.34293e-07
-2.0974e-08
-7.29783e-07
-2.3303e-08
-7.2473e-07
-2.55642e-08
-7.19146e-07
-2.77558e-08
-7.13046e-07
-2.98768e-08
-7.06445e-07
-3.19262e-08
-6.99357e-07
-3.39038e-08
-6.91798e-07
-3.58093e-08
-6.83784e-07
-3.76432e-08
-6.75329e-07
-3.94059e-08
-6.66449e-07
-4.10983e-08
-6.57159e-07
-4.27214e-08
-6.47476e-07
-4.42762e-08
-6.37413e-07
-4.57641e-08
-6.26987e-07
-4.71863e-08
-6.16212e-07
-4.85441e-08
-6.05102e-07
-4.98389e-08
-5.93673e-07
-5.10719e-08
-5.81939e-07
-5.22441e-08
-5.69914e-07
-5.33566e-08
-5.57613e-07
-5.44102e-08
-5.45048e-07
-5.54056e-08
-5.32235e-07
-5.63435e-08
-5.19188e-07
-5.72242e-08
-5.05918e-07
-5.80481e-08
-4.92442e-07
-5.88153e-08
-4.78771e-07
-5.9526e-08
-4.64921e-07
-6.01802e-08
-4.50903e-07
-6.07779e-08
-4.36733e-07
-6.13191e-08
-4.22422e-07
-6.18041e-08
-4.07985e-07
-6.22329e-08
-3.93434e-07
-6.2606e-08
-3.78783e-07
-6.29238e-08
-3.64045e-07
-6.31871e-08
-3.49231e-07
-6.33968e-08
-3.34354e-07
-6.35541e-08
-3.19426e-07
-6.36605e-08
-6.37178e-08
-3.04458e-07
-3.03079e-09
1.18347e-08
-1.13876e-08
3.8343e-08
-2.38776e-08
6.10488e-08
-3.93692e-08
7.83801e-08
-5.69802e-08
9.09122e-08
-7.60749e-08
9.97413e-08
-9.62e-08
1.05839e-07
-1.17026e-07
1.09919e-07
-1.38306e-07
1.12493e-07
-1.59856e-07
1.13939e-07
-1.81537e-07
1.14551e-07
-2.03244e-07
1.14557e-07
-2.24904e-07
1.14131e-07
-2.46459e-07
1.13398e-07
-2.67869e-07
1.12446e-07
-2.89102e-07
1.1133e-07
-3.10133e-07
1.10087e-07
-3.30941e-07
1.08736e-07
-3.51505e-07
1.07288e-07
-3.71808e-07
1.05749e-07
-3.91832e-07
1.04121e-07
-4.11561e-07
1.02404e-07
-4.30977e-07
1.00598e-07
-4.50063e-07
9.87025e-08
-4.68803e-07
9.67175e-08
-4.8718e-07
9.46424e-08
-5.05176e-07
9.24772e-08
-5.22774e-07
9.0222e-08
-5.39958e-07
8.78772e-08
-5.5671e-07
8.54436e-08
-5.73013e-07
8.2922e-08
-5.88851e-07
8.03137e-08
-6.04206e-07
7.76203e-08
-6.19063e-07
7.48437e-08
-6.33405e-07
7.19861e-08
-6.47216e-07
6.905e-08
-6.60482e-07
6.60384e-08
-6.73186e-07
6.29544e-08
-6.85315e-07
5.98018e-08
-6.96854e-07
5.65845e-08
-7.07791e-07
5.33067e-08
-7.18114e-07
4.99733e-08
-7.2781e-07
4.65892e-08
-7.3687e-07
4.31598e-08
-7.45282e-07
3.96907e-08
-7.5304e-07
3.6188e-08
-7.60135e-07
3.26578e-08
-7.6656e-07
2.91065e-08
-7.72311e-07
2.55409e-08
-7.77384e-07
2.19677e-08
-7.81775e-07
1.83937e-08
-7.85483e-07
1.48261e-08
-7.88509e-07
1.12716e-08
-7.90853e-07
7.73741e-09
-7.92519e-07
4.2302e-09
-7.93509e-07
7.5646e-10
-7.93829e-07
-2.67666e-09
-7.93485e-07
-6.06333e-09
-7.92486e-07
-9.39758e-09
-7.90839e-07
-1.26738e-08
-7.88555e-07
-1.58868e-08
-7.85644e-07
-1.90317e-08
-7.82119e-07
-2.21045e-08
-7.77991e-07
-2.51011e-08
-7.73276e-07
-2.80185e-08
-7.67986e-07
-3.08539e-08
-7.62137e-07
-3.36049e-08
-7.55744e-07
-3.62701e-08
-7.48822e-07
-3.88482e-08
-7.41387e-07
-4.13384e-08
-7.33456e-07
-4.37406e-08
-7.25044e-07
-4.60548e-08
-7.16168e-07
-4.82817e-08
-7.06845e-07
-5.04219e-08
-6.9709e-07
-5.24767e-08
-6.86919e-07
-5.44471e-08
-6.76348e-07
-5.63347e-08
-6.65393e-07
-5.8141e-08
-6.5407e-07
-5.98674e-08
-6.42393e-07
-6.15155e-08
-6.30379e-07
-6.30866e-08
-6.18041e-07
-6.4582e-08
-6.05394e-07
-6.60031e-08
-5.92454e-07
-6.73507e-08
-5.79234e-07
-6.86257e-08
-5.65748e-07
-6.98288e-08
-5.52012e-07
-7.09606e-08
-5.38039e-07
-7.20213e-08
-5.23843e-07
-7.30113e-08
-5.09438e-07
-7.39307e-08
-4.94839e-07
-7.47795e-08
-4.80059e-07
-7.55578e-08
-4.65112e-07
-7.62657e-08
-4.50013e-07
-7.69034e-08
-4.34775e-07
-7.74711e-08
-4.19412e-07
-7.79693e-08
-4.03937e-07
-7.83986e-08
-3.88364e-07
-7.87599e-08
-3.72707e-07
-7.90544e-08
-3.56977e-07
-7.92837e-08
-3.41188e-07
-7.94494e-08
-7.95539e-08
-3.25352e-07
-3.20129e-09
1.5036e-08
-1.20002e-08
4.7142e-08
-2.51207e-08
7.41693e-08
-4.1363e-08
9.46224e-08
-5.97959e-08
1.09345e-07
-7.97509e-08
1.19696e-07
-1.00755e-07
1.26843e-07
-1.22466e-07
1.3163e-07
-1.44633e-07
1.34659e-07
-1.67067e-07
1.36373e-07
-1.89628e-07
1.37112e-07
-2.12213e-07
1.37142e-07
-2.34745e-07
1.36664e-07
-2.5717e-07
1.35823e-07
-2.79445e-07
1.3472e-07
-3.01537e-07
1.33423e-07
-3.23423e-07
1.31972e-07
-3.45077e-07
1.30391e-07
-3.66481e-07
1.28692e-07
-3.87616e-07
1.26884e-07
-4.08463e-07
1.24968e-07
-4.29004e-07
1.22945e-07
-4.49222e-07
1.20815e-07
-4.69098e-07
1.18579e-07
-4.88615e-07
1.16235e-07
-5.07755e-07
1.13783e-07
-5.26501e-07
1.11222e-07
-5.44833e-07
1.08554e-07
-5.62735e-07
1.05779e-07
-5.80187e-07
1.02896e-07
-5.97174e-07
9.99083e-08
-6.13676e-07
9.68157e-08
-6.29676e-07
9.36205e-08
-6.45157e-07
9.03247e-08
-6.60102e-07
8.69309e-08
-6.74494e-07
8.3442e-08
-6.88317e-07
7.98612e-08
-7.01554e-07
7.61923e-08
-7.14192e-07
7.24395e-08
-7.26215e-07
6.86074e-08
-7.3761e-07
6.47011e-08
-7.48362e-07
6.0726e-08
-7.58461e-07
5.66881e-08
-7.67895e-07
5.25936e-08
-7.76653e-07
4.84492e-08
-7.84727e-07
4.4262e-08
-7.92109e-07
4.00393e-08
-7.98791e-07
3.57887e-08
-8.04768e-07
3.15183e-08
-8.10037e-07
2.72362e-08
-8.14594e-07
2.29504e-08
-8.18437e-07
1.86696e-08
-8.21568e-07
1.4402e-08
-8.23986e-07
1.01559e-08
-8.25696e-07
5.93976e-09
-8.26701e-07
1.76147e-09
-8.27006e-07
-2.3709e-09
-8.2662e-07
-6.44957e-09
-8.2555e-07
-1.04676e-08
-8.23806e-07
-1.44182e-08
-8.21398e-07
-1.82947e-08
-8.18338e-07
-2.20916e-08
-8.14639e-07
-2.58033e-08
-8.10315e-07
-2.94254e-08
-8.0538e-07
-3.29536e-08
-7.99849e-07
-3.63847e-08
-7.93738e-07
-3.97157e-08
-7.87064e-07
-4.29446e-08
-7.79842e-07
-4.60697e-08
-7.7209e-07
-4.90902e-08
-7.63825e-07
-5.20056e-08
-7.55064e-07
-5.4816e-08
-7.45824e-07
-5.75218e-08
-7.36122e-07
-6.01241e-08
-7.25975e-07
-6.2624e-08
-7.15399e-07
-6.50229e-08
-7.04411e-07
-6.73226e-08
-6.93027e-07
-6.95246e-08
-6.81264e-07
-7.1631e-08
-6.69136e-07
-7.36432e-08
-6.56659e-07
-7.55632e-08
-6.43849e-07
-7.73923e-08
-6.3072e-07
-7.9132e-08
-6.17287e-07
-8.07836e-08
-6.03565e-07
-8.23479e-08
-5.89568e-07
-8.38259e-08
-5.7531e-07
-8.52181e-08
-5.60807e-07
-8.6525e-08
-5.46071e-07
-8.77467e-08
-5.31118e-07
-8.88836e-08
-5.15962e-07
-8.99356e-08
-5.00617e-07
-9.09028e-08
-4.85098e-07
-9.17852e-08
-4.69418e-07
-9.25832e-08
-4.53592e-07
-9.32969e-08
-4.37635e-07
-9.39269e-08
-4.21559e-07
-9.4474e-08
-4.0538e-07
-9.49391e-08
-3.89111e-07
-9.53238e-08
-3.72765e-07
-9.56296e-08
-3.56355e-07
-9.58589e-08
-9.60141e-08
-3.39895e-07
-3.33234e-09
1.83683e-08
-1.24732e-08
5.62828e-08
-2.60849e-08
8.7781e-08
-4.29161e-08
1.11454e-07
-6.19974e-08
1.28426e-07
-8.26333e-08
1.40332e-07
-1.04333e-07
1.48542e-07
-1.26744e-07
1.54042e-07
-1.4961e-07
1.57525e-07
-1.72739e-07
1.59502e-07
-1.95989e-07
1.60363e-07
-2.19259e-07
1.60412e-07
-2.42471e-07
1.59876e-07
-2.65571e-07
1.58922e-07
-2.88517e-07
1.57666e-07
-3.11276e-07
1.56182e-07
-3.33822e-07
1.54518e-07
-3.56133e-07
1.52701e-07
-3.78187e-07
1.50746e-07
-3.99965e-07
1.48662e-07
-4.21448e-07
1.46451e-07
-4.42617e-07
1.44114e-07
-4.63455e-07
1.41653e-07
-4.83941e-07
1.39066e-07
-5.04059e-07
1.36352e-07
-5.23788e-07
1.33512e-07
-5.43112e-07
1.30546e-07
-5.6201e-07
1.27452e-07
-5.80464e-07
1.24233e-07
-5.98455e-07
1.20888e-07
-6.15966e-07
1.17419e-07
-6.32976e-07
1.13826e-07
-6.49469e-07
1.10113e-07
-6.65425e-07
1.06281e-07
-6.80828e-07
1.02333e-07
-6.95659e-07
9.82729e-08
-7.09901e-07
9.41037e-08
-7.23539e-07
8.98298e-08
-7.36555e-07
8.5456e-08
-7.48936e-07
8.09877e-08
-7.60665e-07
7.64306e-08
-7.7173e-07
7.1791e-08
-7.82118e-07
6.70758e-08
-7.91816e-07
6.22922e-08
-8.00815e-07
5.74479e-08
-8.09104e-07
5.25513e-08
-8.16676e-07
4.76108e-08
-8.23523e-07
4.26355e-08
-8.29639e-07
3.76346e-08
-8.3502e-07
3.26176e-08
-8.39664e-07
2.75943e-08
-8.43569e-07
2.25744e-08
-8.46735e-07
1.7568e-08
-8.49164e-07
1.25848e-08
-8.50859e-07
7.63477e-09
-8.51825e-07
2.72734e-09
-8.52068e-07
-2.12809e-09
-8.51595e-07
-6.92204e-09
-8.50416e-07
-1.16464e-08
-8.48542e-07
-1.62929e-08
-8.45983e-07
-2.08538e-08
-8.42752e-07
-2.53223e-08
-8.38863e-07
-2.96919e-08
-8.34332e-07
-3.3957e-08
-8.29172e-07
-3.81128e-08
-8.23402e-07
-4.21552e-08
-8.17037e-07
-4.60807e-08
-8.10095e-07
-4.98867e-08
-8.02593e-07
-5.35714e-08
-7.9455e-07
-5.71336e-08
-7.85983e-07
-6.05727e-08
-7.7691e-07
-6.38888e-08
-7.67349e-07
-6.70825e-08
-7.57318e-07
-7.01548e-08
-7.46835e-07
-7.31073e-08
-7.35916e-07
-7.59416e-08
-7.24579e-07
-7.86597e-08
-7.1284e-07
-8.12636e-08
-7.00716e-07
-8.37555e-08
-6.88221e-07
-8.61375e-08
-6.75373e-07
-8.84115e-08
-6.62186e-07
-9.05795e-08
-6.48675e-07
-9.2643e-08
-6.34855e-07
-9.46035e-08
-6.20741e-07
-9.64621e-08
-6.06347e-07
-9.82199e-08
-5.91688e-07
-9.98774e-08
-5.76777e-07
-1.01435e-07
-5.61631e-07
-1.02894e-07
-5.46261e-07
-1.04253e-07
-5.30684e-07
-1.05513e-07
-5.14914e-07
-1.06673e-07
-4.98965e-07
-1.07734e-07
-4.82852e-07
-1.08697e-07
-4.66588e-07
-1.0956e-07
-4.5019e-07
-1.10325e-07
-4.33671e-07
-1.10993e-07
-4.17046e-07
-1.11565e-07
-4.00328e-07
-1.12041e-07
-3.83532e-07
-1.12425e-07
-3.66672e-07
-1.12719e-07
-1.12926e-07
-3.4976e-07
-3.43491e-09
2.18033e-08
-1.2843e-08
6.56909e-08
-2.68393e-08
1.01777e-07
-4.41337e-08
1.28748e-07
-6.37269e-08
1.4802e-07
-8.4902e-08
1.61507e-07
-1.07154e-07
1.70794e-07
-1.30121e-07
1.77009e-07
-1.5354e-07
1.80944e-07
-1.77218e-07
1.8318e-07
-2.01014e-07
1.84158e-07
-2.24822e-07
1.8422e-07
-2.48569e-07
1.83623e-07
-2.72199e-07
1.82552e-07
-2.9567e-07
1.81138e-07
-3.18952e-07
1.79463e-07
-3.42016e-07
1.77582e-07
-3.6484e-07
1.75525e-07
-3.87404e-07
1.7331e-07
-4.09686e-07
1.70944e-07
-4.31668e-07
1.68433e-07
-4.5333e-07
1.65777e-07
-4.74654e-07
1.62977e-07
-4.9562e-07
1.60032e-07
-5.16209e-07
1.56941e-07
-5.36402e-07
1.53705e-07
-5.5618e-07
1.50323e-07
-5.75522e-07
1.46795e-07
-5.9441e-07
1.43121e-07
-6.12825e-07
1.39303e-07
-6.30747e-07
1.3534e-07
-6.48156e-07
1.31236e-07
-6.65035e-07
1.26991e-07
-6.81363e-07
1.22609e-07
-6.97122e-07
1.18093e-07
-7.12295e-07
1.13445e-07
-7.26862e-07
1.08671e-07
-7.40808e-07
1.03776e-07
-7.54116e-07
9.87633e-08
-7.66768e-07
9.36404e-08
-7.78751e-07
8.84136e-08
-7.9005e-07
8.30899e-08
-8.00652e-07
7.76771e-08
-8.10543e-07
7.21837e-08
-8.19714e-07
6.66184e-08
-8.28153e-07
6.09908e-08
-8.35853e-07
5.53106e-08
-8.42806e-07
4.95882e-08
-8.49005e-07
4.38343e-08
-8.54448e-07
3.806e-08
-8.5913e-07
3.22765e-08
-8.63051e-07
2.64952e-08
-8.6621e-07
2.07277e-08
-8.68611e-07
1.49855e-08
-8.70256e-07
9.27997e-09
-8.71151e-07
3.62234e-09
-8.71303e-07
-1.97652e-09
-8.70719e-07
-7.5055e-09
-8.69411e-07
-1.29551e-08
-8.67388e-07
-1.83155e-08
-8.64664e-07
-2.35779e-08
-8.61252e-07
-2.8734e-08
-8.57168e-07
-3.37764e-08
-8.52426e-07
-3.86985e-08
-8.47045e-07
-4.34946e-08
-8.4104e-07
-4.81599e-08
-8.3443e-07
-5.26903e-08
-8.27234e-07
-5.70828e-08
-8.1947e-07
-6.13353e-08
-8.11157e-07
-6.54464e-08
-8.02314e-07
-6.94155e-08
-7.9296e-07
-7.32428e-08
-7.83114e-07
-7.6929e-08
-7.72793e-07
-8.04755e-08
-7.62017e-07
-8.38839e-08
-7.50802e-07
-8.71564e-08
-7.39166e-07
-9.02953e-08
-7.27127e-07
-9.33033e-08
-7.14699e-07
-9.61827e-08
-7.01901e-07
-9.89361e-08
-6.88746e-07
-1.01566e-07
-6.75252e-07
-1.04074e-07
-6.61431e-07
-1.06463e-07
-6.473e-07
-1.08735e-07
-6.32872e-07
-1.1089e-07
-6.18163e-07
-1.12929e-07
-6.03186e-07
-1.14854e-07
-5.87956e-07
-1.16665e-07
-5.72488e-07
-1.18363e-07
-5.56794e-07
-1.19946e-07
-5.40891e-07
-1.21416e-07
-5.24792e-07
-1.22772e-07
-5.08512e-07
-1.24014e-07
-4.92066e-07
-1.25142e-07
-4.75469e-07
-1.26157e-07
-4.58736e-07
-1.27059e-07
-4.41881e-07
-1.27848e-07
-4.24919e-07
-1.28526e-07
-4.07865e-07
-1.29095e-07
-3.90734e-07
-1.29557e-07
-3.73539e-07
-1.29914e-07
-1.3017e-07
-3.56294e-07
-3.51776e-09
2.5321e-08
-1.31394e-08
7.53125e-08
-2.74418e-08
1.1608e-07
-4.51046e-08
1.46411e-07
-6.51061e-08
1.68021e-07
-8.67125e-08
1.83114e-07
-1.09407e-07
1.93488e-07
-1.3282e-07
2.00422e-07
-1.56684e-07
2.04808e-07
-1.80804e-07
2.073e-07
-2.05036e-07
2.0839e-07
-2.29277e-07
2.08461e-07
-2.53452e-07
2.07797e-07
-2.77506e-07
2.06606e-07
-3.01398e-07
2.0503e-07
-3.25097e-07
2.03162e-07
-3.48576e-07
2.01061e-07
-3.71812e-07
1.98762e-07
-3.94784e-07
1.96282e-07
-4.17471e-07
1.93632e-07
-4.39854e-07
1.90816e-07
-4.61914e-07
1.87836e-07
-4.8363e-07
1.84693e-07
-5.04983e-07
1.81385e-07
-5.25954e-07
1.77912e-07
-5.46522e-07
1.74273e-07
-5.66668e-07
1.70469e-07
-5.86372e-07
1.66499e-07
-6.05613e-07
1.62363e-07
-6.24372e-07
1.58062e-07