/*--------------------------------*- C++ -*----------------------------------*\
| =========                 |                                                 |
| \\      /  F ield         | OpenFOAM: The Open Source CFD Toolbox           |
|  \\    /   O peration     | Version:  2406                                  |
|   \\  /    A nd           | Website:  www.openfoam.com                      |
|    \\/     M anipulation  |                                                 |
\*---------------------------------------------------------------------------*/
FoamFile
{
    version     2.0;
    format      ascii;
    arch        "LSB;label=32;scalar=64";
    class       volVectorField;
    location    "240";
    object      U;
}
// * * * * * * * * * * * * * * * * * * * * * * * * * * * * * * * * * * * * * //

dimensions      [0 1 -1 0 0 0 0];

internalField   nonuniform List<vector> 
16128
(
(2.84326e-07 -2.83817e-07 0)
(6.20001e-07 -2.01452e-07 0)
(4.37498e-07 -1.94937e-08 0)
(-2.64927e-07 1.1871e-07 0)
(-1.34217e-06 2.08246e-07 0)
(-2.6496e-06 2.56188e-07 0)
(-4.09991e-06 2.78976e-07 0)
(-5.63166e-06 2.879e-07 0)
(-7.20477e-06 2.88974e-07 0)
(-8.79296e-06 2.85434e-07 0)
(-1.03788e-05 2.79208e-07 0)
(-1.19509e-05 2.71517e-07 0)
(-1.35023e-05 2.63127e-07 0)
(-1.50284e-05 2.54471e-07 0)
(-1.65269e-05 2.4575e-07 0)
(-1.7996e-05 2.37019e-07 0)
(-1.94346e-05 2.28253e-07 0)
(-2.08417e-05 2.19397e-07 0)
(-2.2216e-05 2.10392e-07 0)
(-2.35566e-05 2.01192e-07 0)
(-2.48622e-05 1.91764e-07 0)
(-2.61316e-05 1.82093e-07 0)
(-2.73633e-05 1.72176e-07 0)
(-2.85561e-05 1.62019e-07 0)
(-2.97087e-05 1.51637e-07 0)
(-3.08198e-05 1.41053e-07 0)
(-3.1888e-05 1.3029e-07 0)
(-3.29122e-05 1.19378e-07 0)
(-3.38913e-05 1.0835e-07 0)
(-3.48242e-05 9.72387e-08 0)
(-3.57099e-05 8.60811e-08 0)
(-3.65475e-05 7.49159e-08 0)
(-3.73362e-05 6.37833e-08 0)
(-3.80753e-05 5.27255e-08 0)
(-3.87642e-05 4.17857e-08 0)
(-3.94025e-05 3.10081e-08 0)
(-3.99897e-05 2.04373e-08 0)
(-4.05258e-05 1.01188e-08 0)
(-4.10105e-05 9.79401e-11 0)
(-4.14439e-05 -9.57993e-09 0)
(-4.18263e-05 -1.88702e-08 0)
(-4.21578e-05 -2.77295e-08 0)
(-4.24391e-05 -3.6117e-08 0)
(-4.26707e-05 -4.39947e-08 0)
(-4.28533e-05 -5.1329e-08 0)
(-4.29879e-05 -5.80882e-08 0)
(-4.30754e-05 -6.42365e-08 0)
(-4.31171e-05 -6.97148e-08 0)
(-4.31142e-05 -7.42692e-08 0)
(-4.30681e-05 -7.77951e-08 0)
(-4.29807e-05 -8.03895e-08 0)
(-4.28533e-05 -8.33089e-08 0)
(-4.26875e-05 -8.55065e-08 0)
(-4.24851e-05 -8.6858e-08 0)
(-4.2248e-05 -8.74397e-08 0)
(-4.19782e-05 -8.73088e-08 0)
(-4.16775e-05 -8.65085e-08 0)
(-4.1348e-05 -8.50807e-08 0)
(-4.09915e-05 -8.30697e-08 0)
(-4.061e-05 -8.05248e-08 0)
(-4.02054e-05 -7.75005e-08 0)
(-3.97795e-05 -7.40568e-08 0)
(-3.93341e-05 -7.0259e-08 0)
(-3.88708e-05 -6.61777e-08 0)
(-3.83912e-05 -6.18881e-08 0)
(-3.78967e-05 -5.74683e-08 0)
(-3.73888e-05 -5.29987e-08 0)
(-3.68686e-05 -4.856e-08 0)
(-3.63371e-05 -4.42322e-08 0)
(-3.57952e-05 -4.00935e-08 0)
(-3.52437e-05 -3.62208e-08 0)
(-3.46832e-05 -3.26875e-08 0)
(-3.4114e-05 -2.95618e-08 0)
(-3.35365e-05 -2.69052e-08 0)
(-3.29509e-05 -2.47709e-08 0)
(-3.2357e-05 -2.32044e-08 0)
(-3.17549e-05 -2.22433e-08 0)
(-3.11443e-05 -2.19162e-08 0)
(-3.0525e-05 -2.22407e-08 0)
(-2.98965e-05 -2.32238e-08 0)
(-2.92585e-05 -2.48618e-08 0)
(-2.86106e-05 -2.71404e-08 0)
(-2.79523e-05 -3.00364e-08 0)
(-2.72832e-05 -3.35177e-08 0)
(-2.66029e-05 -3.75416e-08 0)
(-2.59111e-05 -4.20554e-08 0)
(-2.52074e-05 -4.70008e-08 0)
(-2.44918e-05 -5.2316e-08 0)
(-2.3764e-05 -5.79331e-08 0)
(-2.30242e-05 -6.37801e-08 0)
(-2.22724e-05 -6.97813e-08 0)
(-2.1509e-05 -7.58606e-08 0)
(-2.07341e-05 -8.19438e-08 0)
(-1.99485e-05 -8.79592e-08 0)
(-1.91526e-05 -9.38369e-08 0)
(-1.83472e-05 -9.95098e-08 0)
(-1.75331e-05 -1.04917e-07 0)
(-1.67113e-05 -1.10004e-07 0)
(-1.58827e-05 -1.14725e-07 0)
(-1.50485e-05 -1.1904e-07 0)
(-1.42097e-05 -1.22918e-07 0)
(-1.33675e-05 -1.26333e-07 0)
(2.03048e-07 -6.21875e-07 0)
(-3.90068e-08 3.43067e-08 0)
(-1.5003e-06 9.89386e-07 0)
(-3.99897e-06 1.77314e-06 0)
(-7.29949e-06 2.32451e-06 0)
(-1.11632e-05 2.67661e-06 0)
(-1.54019e-05 2.88952e-06 0)
(-1.98784e-05 3.01017e-06 0)
(-2.44954e-05 3.06916e-06 0)
(-2.91837e-05 3.0865e-06 0)
(-3.38945e-05 3.07597e-06 0)
(-3.85942e-05 3.04726e-06 0)
(-4.32601e-05 3.00708e-06 0)
(-4.78774e-05 2.9598e-06 0)
(-5.24364e-05 2.90807e-06 0)
(-5.69306e-05 2.85332e-06 0)
(-6.13551e-05 2.79618e-06 0)
(-6.5706e-05 2.73686e-06 0)
(-6.99797e-05 2.67533e-06 0)
(-7.41727e-05 2.61147e-06 0)
(-7.82814e-05 2.54519e-06 0)
(-8.2302e-05 2.47637e-06 0)
(-8.62308e-05 2.40499e-06 0)
(-9.00639e-05 2.33101e-06 0)
(-9.37974e-05 2.25447e-06 0)
(-9.74275e-05 2.17541e-06 0)
(-0.00010095 2.09391e-06 0)
(-0.000104362 2.01006e-06 0)
(-0.000107659 1.92398e-06 0)
(-0.000110837 1.83579e-06 0)
(-0.000113893 1.74564e-06 0)
(-0.000116824 1.65368e-06 0)
(-0.000119627 1.56009e-06 0)
(-0.000122297 1.46505e-06 0)
(-0.000124833 1.36875e-06 0)
(-0.000127232 1.27141e-06 0)
(-0.000129491 1.17325e-06 0)
(-0.000131609 1.07449e-06 0)
(-0.000133582 9.75364e-07 0)
(-0.000135409 8.76131e-07 0)
(-0.00013709 7.77038e-07 0)
(-0.000138622 6.78345e-07 0)
(-0.000140006 5.80315e-07 0)
(-0.00014124 4.8321e-07 0)
(-0.000142324 3.87295e-07 0)
(-0.000143258 2.92831e-07 0)
(-0.000144044 2.00079e-07 0)
(-0.000144681 1.09248e-07 0)
(-0.00014517 2.04055e-08 0)
(-0.000145514 -6.65268e-08 0)
(-0.000145716 -1.51125e-07 0)
(-0.000145777 -2.31668e-07 0)
(-0.000145697 -3.09163e-07 0)
(-0.000145481 -3.83615e-07 0)
(-0.000145133 -4.54837e-07 0)
(-0.000144654 -5.22701e-07 0)
(-0.000144049 -5.87119e-07 0)
(-0.000143322 -6.48034e-07 0)
(-0.000142477 -7.05419e-07 0)
(-0.000141517 -7.5928e-07 0)
(-0.000140448 -8.09653e-07 0)
(-0.000139274 -8.56607e-07 0)
(-0.000137998 -9.00239e-07 0)
(-0.000136627 -9.4068e-07 0)
(-0.000135163 -9.78084e-07 0)
(-0.000133613 -1.01263e-06 0)
(-0.000131979 -1.04453e-06 0)
(-0.000130267 -1.07399e-06 0)
(-0.000128481 -1.10125e-06 0)
(-0.000126626 -1.12656e-06 0)
(-0.000124704 -1.15016e-06 0)
(-0.00012272 -1.17232e-06 0)
(-0.000120677 -1.19328e-06 0)
(-0.00011858 -1.21328e-06 0)
(-0.00011643 -1.23257e-06 0)
(-0.000114232 -1.25134e-06 0)
(-0.000111987 -1.2698e-06 0)
(-0.000109699 -1.28813e-06 0)
(-0.00010737 -1.30646e-06 0)
(-0.000105003 -1.32492e-06 0)
(-0.000102599 -1.34358e-06 0)
(-0.00010016 -1.36251e-06 0)
(-9.76881e-05 -1.38172e-06 0)
(-9.51855e-05 -1.40121e-06 0)
(-9.26538e-05 -1.42092e-06 0)
(-9.00945e-05 -1.44079e-06 0)
(-8.75094e-05 -1.46072e-06 0)
(-8.49001e-05 -1.48058e-06 0)
(-8.22683e-05 -1.50023e-06 0)
(-7.96158e-05 -1.51952e-06 0)
(-7.69443e-05 -1.53826e-06 0)
(-7.42557e-05 -1.55628e-06 0)
(-7.15519e-05 -1.57339e-06 0)
(-6.88349e-05 -1.58942e-06 0)
(-6.61068e-05 -1.60418e-06 0)
(-6.33697e-05 -1.61751e-06 0)
(-6.06258e-05 -1.62926e-06 0)
(-5.78773e-05 -1.63929e-06 0)
(-5.51265e-05 -1.64751e-06 0)
(-5.23757e-05 -1.65383e-06 0)
(-4.96272e-05 -1.65818e-06 0)
(-4.68832e-05 -1.66054e-06 0)
(1.30042e-08 -4.33296e-07 0)
(-1.0395e-06 1.50642e-06 0)
(-3.92009e-06 3.82483e-06 0)
(-8.15159e-06 5.74796e-06 0)
(-1.34368e-05 7.14276e-06 0)
(-1.94923e-05 8.08564e-06 0)
(-2.60806e-05 8.6945e-06 0)
(-3.30235e-05 9.06687e-06 0)
(-4.01894e-05 9.27235e-06 0)
(-4.74809e-05 9.36018e-06 0)
(-5.48267e-05 9.36617e-06 0)
(-6.21761e-05 9.31656e-06 0)
(-6.9494e-05 9.23016e-06 0)
(-7.67563e-05 9.11978e-06 0)
(-8.39468e-05 8.99357e-06 0)
(-9.10542e-05 8.85632e-06 0)
(-9.80702e-05 8.71054e-06 0)
(-0.000104988 8.55735e-06 0)
(-0.000111802 8.39708e-06 0)
(-0.000118506 8.2297e-06 0)
(-0.000125094 8.05503e-06 0)
(-0.000131562 7.87289e-06 0)
(-0.000137903 7.68313e-06 0)
(-0.000144112 7.48567e-06 0)
(-0.000150183 7.28049e-06 0)
(-0.000156109 7.06765e-06 0)
(-0.000161885 6.84723e-06 0)
(-0.000167505 6.6194e-06 0)
(-0.000172963 6.38434e-06 0)
(-0.000178254 6.14228e-06 0)
(-0.000183371 5.89349e-06 0)
(-0.000188309 5.63827e-06 0)
(-0.000193063 5.37698e-06 0)
(-0.000197628 5.10998e-06 0)
(-0.000201998 4.83769e-06 0)
(-0.000206169 4.56054e-06 0)
(-0.000210135 4.27903e-06 0)
(-0.000213894 3.99366e-06 0)
(-0.00021744 3.70496e-06 0)
(-0.000220769 3.41351e-06 0)
(-0.00022388 3.1199e-06 0)
(-0.000226767 2.82476e-06 0)
(-0.00022943 2.52871e-06 0)
(-0.000231865 2.23243e-06 0)
(-0.000234071 1.93657e-06 0)
(-0.000236046 1.64183e-06 0)
(-0.000237789 1.34887e-06 0)
(-0.000239301 1.05831e-06 0)
(-0.00024058 7.70494e-07 0)
(-0.000241628 4.85839e-07 0)
(-0.000242444 2.05363e-07 0)
(-0.000243031 -6.83297e-08 0)
(-0.000243391 -3.3622e-07 0)
(-0.000243526 -5.97996e-07 0)
(-0.000243439 -8.53068e-07 0)
(-0.000243133 -1.10093e-06 0)
(-0.000242612 -1.34113e-06 0)
(-0.00024188 -1.5733e-06 0)
(-0.000240941 -1.79712e-06 0)
(-0.000239801 -2.01231e-06 0)
(-0.000238465 -2.21869e-06 0)
(-0.000236937 -2.41613e-06 0)
(-0.000235225 -2.60459e-06 0)
(-0.000233333 -2.78407e-06 0)
(-0.000231268 -2.95466e-06 0)
(-0.000229036 -3.1165e-06 0)
(-0.000226644 -3.2698e-06 0)
(-0.000224098 -3.41481e-06 0)
(-0.000221404 -3.55184e-06 0)
(-0.000218569 -3.68122e-06 0)
(-0.000215599 -3.80336e-06 0)
(-0.000212501 -3.91866e-06 0)
(-0.00020928 -4.02753e-06 0)
(-0.000205942 -4.13042e-06 0)
(-0.000202494 -4.22776e-06 0)
(-0.000198942 -4.31997e-06 0)
(-0.00019529 -4.40746e-06 0)
(-0.000191544 -4.49062e-06 0)
(-0.00018771 -4.56978e-06 0)
(-0.000183793 -4.64525e-06 0)
(-0.000179797 -4.71731e-06 0)
(-0.000175727 -4.78615e-06 0)
(-0.000171587 -4.85195e-06 0)
(-0.000167383 -4.9148e-06 0)
(-0.000163119 -4.97478e-06 0)
(-0.000158798 -5.03188e-06 0)
(-0.000154426 -5.08606e-06 0)
(-0.000150005 -5.13724e-06 0)
(-0.000145541 -5.1853e-06 0)
(-0.000141037 -5.23007e-06 0)
(-0.000136498 -5.27138e-06 0)
(-0.000131927 -5.30902e-06 0)
(-0.000127328 -5.34281e-06 0)
(-0.000122705 -5.37252e-06 0)
(-0.000118063 -5.39796e-06 0)
(-0.000113405 -5.41895e-06 0)
(-0.000108735 -5.43533e-06 0)
(-0.000104058 -5.44699e-06 0)
(-9.93758e-05 -5.45384e-06 0)
(-9.46936e-05 -5.45584e-06 0)
(-9.00145e-05 -5.453e-06 0)
(-8.53422e-05 -5.44541e-06 0)
(-1.40553e-07 3.1529e-07 0)
(-1.90984e-06 4.09445e-06 0)
(-6.0471e-06 8.10176e-06 0)
(-1.17531e-05 1.13779e-05 0)
(-1.86709e-05 1.3779e-05 0)
(-2.64856e-05 1.54415e-05 0)
(-3.49326e-05 1.65486e-05 0)
(-4.38121e-05 1.72515e-05 0)
(-5.29737e-05 1.76612e-05 0)
(-6.23035e-05 1.78591e-05 0)
(-7.1716e-05 1.79062e-05 0)
(-8.1149e-05 1.78485e-05 0)
(-9.05582e-05 1.77196e-05 0)
(-9.99127e-05 1.75431e-05 0)
(-0.000109191 1.73344e-05 0)
(-0.000118377 1.71028e-05 0)
(-0.000127461 1.68537e-05 0)
(-0.000136432 1.65897e-05 0)
(-0.000145284 1.63117e-05 0)
(-0.000154007 1.60202e-05 0)
(-0.000162597 1.57148e-05 0)
(-0.000171044 1.53955e-05 0)
(-0.000179342 1.50619e-05 0)
(-0.000187485 1.4714e-05 0)
(-0.000195463 1.43515e-05 0)
(-0.000203271 1.39747e-05 0)
(-0.0002109 1.35834e-05 0)
(-0.000218343 1.3178e-05 0)
(-0.000225593 1.27586e-05 0)
(-0.000232642 1.23255e-05 0)
(-0.000239484 1.18791e-05 0)
(-0.00024611 1.14199e-05 0)
(-0.000252514 1.09482e-05 0)
(-0.000258688 1.04648e-05 0)
(-0.000264627 9.9701e-06 0)
(-0.000270323 9.46487e-06 0)
(-0.00027577 8.94982e-06 0)
(-0.000280963 8.42574e-06 0)
(-0.000285894 7.89349e-06 0)
(-0.00029056 7.35396e-06 0)
(-0.000294954 6.80811e-06 0)
(-0.000299073 6.25696e-06 0)
(-0.000302911 5.70154e-06 0)
(-0.000306465 5.14296e-06 0)
(-0.000309732 4.58234e-06 0)
(-0.000312708 4.02083e-06 0)
(-0.000315392 3.4596e-06 0)
(-0.000317782 2.89988e-06 0)
(-0.000319875 2.34299e-06 0)
(-0.000321672 1.79033e-06 0)
(-0.000323172 1.24302e-06 0)
(-0.000324375 7.01145e-07 0)
(-0.000325284 1.66775e-07 0)
(-0.000325898 -3.58923e-07 0)
(-0.000326221 -8.74959e-07 0)
(-0.000326255 -1.38036e-06 0)
(-0.000326004 -1.87421e-06 0)
(-0.000325471 -2.35571e-06 0)
(-0.00032466 -2.82409e-06 0)
(-0.000323577 -3.27868e-06 0)
(-0.000322227 -3.7189e-06 0)
(-0.000320616 -4.14429e-06 0)
(-0.000318749 -4.55448e-06 0)
(-0.000316633 -4.94922e-06 0)
(-0.000314275 -5.32836e-06 0)
(-0.000311682 -5.69186e-06 0)
(-0.000308861 -6.03977e-06 0)
(-0.000305819 -6.37224e-06 0)
(-0.000302565 -6.68951e-06 0)
(-0.000299106 -6.99191e-06 0)
(-0.000295449 -7.27982e-06 0)
(-0.000291603 -7.55369e-06 0)
(-0.000287574 -7.81402e-06 0)
(-0.000283372 -8.06133e-06 0)
(-0.000279002 -8.29617e-06 0)
(-0.000274474 -8.5191e-06 0)
(-0.000269794 -8.73066e-06 0)
(-0.000264969 -8.93139e-06 0)
(-0.000260007 -9.12178e-06 0)
(-0.000254915 -9.3023e-06 0)
(-0.000249699 -9.47335e-06 0)
(-0.000244367 -9.6353e-06 0)
(-0.000238925 -9.78844e-06 0)
(-0.00023338 -9.93299e-06 0)
(-0.000227738 -1.00691e-05 0)
(-0.000222005 -1.01969e-05 0)
(-0.000216187 -1.03165e-05 0)
(-0.000210292 -1.04278e-05 0)
(-0.000204324 -1.05307e-05 0)
(-0.00019829 -1.06252e-05 0)
(-0.000192196 -1.0711e-05 0)
(-0.000186048 -1.07882e-05 0)
(-0.000179851 -1.08564e-05 0)
(-0.000173612 -1.09156e-05 0)
(-0.000167336 -1.09656e-05 0)
(-0.000161028 -1.10062e-05 0)
(-0.000154696 -1.10374e-05 0)
(-0.000148343 -1.10593e-05 0)
(-0.000141975 -1.10717e-05 0)
(-0.000135598 -1.10748e-05 0)
(-0.000129216 -1.10688e-05 0)
(-0.000122835 -1.1054e-05 0)
(-2.52543e-07 1.49998e-06 0)
(-2.58159e-06 7.60577e-06 0)
(-7.72495e-06 1.35795e-05 0)
(-1.46151e-05 1.83736e-05 0)
(-2.28322e-05 2.18929e-05 0)
(-3.20291e-05 2.43594e-05 0)
(-4.19202e-05 2.60318e-05 0)
(-5.22924e-05 2.71187e-05 0)
(-6.29846e-05 2.77738e-05 0)
(-7.38737e-05 2.81119e-05 0)
(-8.48661e-05 2.82207e-05 0)
(-9.58924e-05 2.81674e-05 0)
(-0.000106902 2.80021e-05 0)
(-0.000117861 2.77603e-05 0)
(-0.000128741 2.7466e-05 0)
(-0.000139526 2.71339e-05 0)
(-0.000150201 2.67727e-05 0)
(-0.000160756 2.6387e-05 0)
(-0.00017118 2.5979e-05 0)
(-0.000181465 2.55492e-05 0)
(-0.000191601 2.50979e-05 0)
(-0.000201582 2.46247e-05 0)
(-0.000211398 2.41295e-05 0)
(-0.000221041 2.36119e-05 0)
(-0.000230503 2.30718e-05 0)
(-0.000239775 2.25093e-05 0)
(-0.000248848 2.19243e-05 0)
(-0.000257714 2.1317e-05 0)
(-0.000266364 2.06877e-05 0)
(-0.00027479 2.00366e-05 0)
(-0.000282983 1.93644e-05 0)
(-0.000290934 1.86714e-05 0)
(-0.000298636 1.79583e-05 0)
(-0.00030608 1.72258e-05 0)
(-0.000313258 1.64746e-05 0)
(-0.000320162 1.57058e-05 0)
(-0.000326785 1.49202e-05 0)
(-0.000333119 1.41189e-05 0)
(-0.000339157 1.33031e-05 0)
(-0.000344893 1.2474e-05 0)
(-0.000350319 1.1633e-05 0)
(-0.000355431 1.07815e-05 0)
(-0.000360222 9.92089e-06 0)
(-0.000364687 9.05283e-06 0)
(-0.000368823 8.17892e-06 0)
(-0.000372624 7.30085e-06 0)
(-0.000376088 6.42034e-06 0)
(-0.000379211 5.53916e-06 0)
(-0.000381991 4.65919e-06 0)
(-0.000384427 3.7823e-06 0)
(-0.000386516 2.91022e-06 0)
(-0.00038826 2.04433e-06 0)
(-0.000389658 1.18671e-06 0)
(-0.000390711 3.39149e-07 0)
(-0.000391421 -4.96691e-07 0)
(-0.00039179 -1.31916e-06 0)
(-0.00039182 -2.12671e-06 0)
(-0.000391516 -2.91797e-06 0)
(-0.000390881 -3.69164e-06 0)
(-0.00038992 -4.44651e-06 0)
(-0.000388639 -5.18152e-06 0)
(-0.000387043 -5.89574e-06 0)
(-0.000385138 -6.58838e-06 0)
(-0.000382931 -7.25882e-06 0)
(-0.00038043 -7.90655e-06 0)
(-0.000377641 -8.53124e-06 0)
(-0.000374573 -9.13269e-06 0)
(-0.000371233 -9.71086e-06 0)
(-0.000367629 -1.02658e-05 0)
(-0.000363771 -1.07978e-05 0)
(-0.000359666 -1.1307e-05 0)
(-0.000355324 -1.17939e-05 0)
(-0.000350752 -1.22591e-05 0)
(-0.00034596 -1.27029e-05 0)
(-0.000340955 -1.31261e-05 0)
(-0.000335748 -1.35292e-05 0)
(-0.000330346 -1.3913e-05 0)
(-0.000324757 -1.42779e-05 0)
(-0.000318991 -1.46247e-05 0)
(-0.000313055 -1.49538e-05 0)
(-0.000306957 -1.52659e-05 0)
(-0.000300706 -1.55614e-05 0)
(-0.00029431 -1.58407e-05 0)
(-0.000287775 -1.61041e-05 0)
(-0.000281111 -1.63519e-05 0)
(-0.000274325 -1.65843e-05 0)
(-0.000267424 -1.68013e-05 0)
(-0.000260416 -1.70032e-05 0)
(-0.000253308 -1.71897e-05 0)
(-0.000246108 -1.7361e-05 0)
(-0.000238823 -1.7517e-05 0)
(-0.000231461 -1.76575e-05 0)
(-0.000224028 -1.77824e-05 0)
(-0.000216531 -1.78917e-05 0)
(-0.000208979 -1.79853e-05 0)
(-0.000201377 -1.80632e-05 0)
(-0.000193734 -1.81253e-05 0)
(-0.000186054 -1.8172e-05 0)
(-0.000178346 -1.82032e-05 0)
(-0.000170615 -1.82194e-05 0)
(-0.000162867 -1.82208e-05 0)
(-0.00015511 -1.8208e-05 0)
(-3.25963e-07 2.98735e-06 0)
(-3.07365e-06 1.18317e-05 0)
(-9.00124e-06 2.00161e-05 0)
(-1.6826e-05 2.64692e-05 0)
(-2.60706e-05 3.11931e-05 0)
(-3.6355e-05 3.45217e-05 0)
(-4.73736e-05 3.68024e-05 0)
(-5.8902e-05 3.83064e-05 0)
(-7.07726e-05 3.92326e-05 0)
(-8.28567e-05 3.97301e-05 0)
(-9.50561e-05 3.99141e-05 0)
(-0.000107298 3.98739e-05 0)
(-0.000119528 3.96768e-05 0)
(-0.000131708 3.93709e-05 0)
(-0.00014381 3.89891e-05 0)
(-0.000155813 3.85522e-05 0)
(-0.000167702 3.80728e-05 0)
(-0.000179464 3.75576e-05 0)
(-0.000191088 3.70101e-05 0)
(-0.000202564 3.64315e-05 0)
(-0.000213882 3.58224e-05 0)
(-0.000225032 3.51825e-05 0)
(-0.000236006 3.45116e-05 0)
(-0.000246794 3.38094e-05 0)
(-0.000257387 3.30758e-05 0)
(-0.000267775 3.23105e-05 0)
(-0.000277949 3.15138e-05 0)
(-0.000287899 3.06856e-05 0)
(-0.000297615 2.98263e-05 0)
(-0.000307089 2.89362e-05 0)
(-0.00031631 2.80158e-05 0)
(-0.00032527 2.70658e-05 0)
(-0.000333958 2.60868e-05 0)
(-0.000342367 2.50798e-05 0)
(-0.000350486 2.40456e-05 0)
(-0.000358307 2.29854e-05 0)
(-0.000365821 2.19004e-05 0)
(-0.00037302 2.0792e-05 0)
(-0.000379897 1.96616e-05 0)
(-0.000386442 1.85108e-05 0)
(-0.000392649 1.73414e-05 0)
(-0.000398512 1.61551e-05 0)
(-0.000404022 1.4954e-05 0)
(-0.000409176 1.37401e-05 0)
(-0.000413966 1.25155e-05 0)
(-0.000418389 1.12825e-05 0)
(-0.00042244 1.00434e-05 0)
(-0.000426114 8.80065e-06 0)
(-0.000429411 7.55661e-06 0)
(-0.000432326 6.3138e-06 0)
(-0.000434858 5.07466e-06 0)
(-0.000437007 3.84158e-06 0)
(-0.000438772 2.6171e-06 0)
(-0.000440154 1.40362e-06 0)
(-0.000441153 2.03516e-07 0)
(-0.000441773 -9.80888e-07 0)
(-0.000442014 -2.14731e-06 0)
(-0.000441882 -3.29372e-06 0)
(-0.00044138 -4.41818e-06 0)
(-0.000440513 -5.51889e-06 0)
(-0.000439285 -6.59421e-06 0)
(-0.000437703 -7.64267e-06 0)
(-0.000435774 -8.66299e-06 0)
(-0.000433504 -9.65408e-06 0)
(-0.000430901 -1.06151e-05 0)
(-0.000427973 -1.15452e-05 0)
(-0.000424727 -1.2444e-05 0)
(-0.000421173 -1.33111e-05 0)
(-0.000417318 -1.41465e-05 0)
(-0.000413173 -1.49501e-05 0)
(-0.000408746 -1.57221e-05 0)
(-0.000404046 -1.64628e-05 0)
(-0.000399082 -1.71727e-05 0)
(-0.000393865 -1.78523e-05 0)
(-0.000388403 -1.85022e-05 0)
(-0.000382705 -1.9123e-05 0)
(-0.000376782 -1.97156e-05 0)
(-0.000370641 -2.02805e-05 0)
(-0.000364293 -2.08185e-05 0)
(-0.000357745 -2.13302e-05 0)
(-0.000351008 -2.18162e-05 0)
(-0.00034409 -2.22772e-05 0)
(-0.000336999 -2.27136e-05 0)
(-0.000329745 -2.31258e-05 0)
(-0.000322336 -2.35142e-05 0)
(-0.00031478 -2.38791e-05 0)
(-0.000307085 -2.42206e-05 0)
(-0.000299261 -2.45388e-05 0)
(-0.000291315 -2.48338e-05 0)
(-0.000283255 -2.51056e-05 0)
(-0.000275091 -2.53541e-05 0)
(-0.000266829 -2.55795e-05 0)
(-0.000258478 -2.57815e-05 0)
(-0.000250047 -2.59603e-05 0)
(-0.000241543 -2.61157e-05 0)
(-0.000232973 -2.6248e-05 0)
(-0.000224346 -2.63573e-05 0)
(-0.00021567 -2.64437e-05 0)
(-0.000206952 -2.65078e-05 0)
(-0.000198198 -2.65499e-05 0)
(-0.000189417 -2.65707e-05 0)
(-0.000180616 -2.65709e-05 0)
(-3.75138e-07 4.699e-06 0)
(-3.43554e-06 1.66026e-05 0)
(-9.96961e-06 2.71997e-05 0)
(-1.85292e-05 3.5431e-05 0)
(-2.85877e-05 4.14287e-05 0)
(-3.97333e-05 4.56612e-05 0)
(-5.16407e-05 4.85771e-05 0)
(-6.40751e-05 5.05168e-05 0)
(-7.68629e-05 5.17275e-05 0)
(-8.9872e-05 5.23943e-05 0)
(-0.000103002 5.26605e-05 0)
(-0.000116177 5.26378e-05 0)
(-0.000129343 5.24109e-05 0)
(-0.000142458 5.20409e-05 0)
(-0.000155494 5.15699e-05 0)
(-0.000168429 5.10249e-05 0)
(-0.000181246 5.04222e-05 0)
(-0.00019393 4.97713e-05 0)
(-0.00020647 4.90769e-05 0)
(-0.000218854 4.83411e-05 0)
(-0.000231072 4.75647e-05 0)
(-0.000243115 4.67477e-05 0)
(-0.00025497 4.589e-05 0)
(-0.000266629 4.49911e-05 0)
(-0.000278082 4.4051e-05 0)
(-0.000289317 4.30693e-05 0)
(-0.000300325 4.20462e-05 0)
(-0.000311095 4.09818e-05 0)
(-0.000321618 3.98763e-05 0)
(-0.000331883 3.87301e-05 0)
(-0.000341879 3.75437e-05 0)
(-0.000351597 3.63179e-05 0)
(-0.000361026 3.50535e-05 0)
(-0.000370157 3.37515e-05 0)
(-0.000378979 3.2413e-05 0)
(-0.000387484 3.10393e-05 0)
(-0.00039566 2.96319e-05 0)
(-0.000403501 2.81925e-05 0)
(-0.000410996 2.67228e-05 0)
(-0.000418138 2.52248e-05 0)
(-0.000424918 2.37006e-05 0)
(-0.000431328 2.21526e-05 0)
(-0.000437362 2.05831e-05 0)
(-0.000443013 1.89947e-05 0)
(-0.000448275 1.73901e-05 0)
(-0.000453142 1.57723e-05 0)
(-0.00045761 1.4144e-05 0)
(-0.000461674 1.25085e-05 0)
(-0.000465331 1.08687e-05 0)
(-0.000468578 9.22796e-06 0)
(-0.000471414 7.58936e-06 0)
(-0.000473836 5.95614e-06 0)
(-0.000475845 4.33152e-06 0)
(-0.000477441 2.71869e-06 0)
(-0.000478625 1.12079e-06 0)
(-0.000479399 -4.59183e-07 0)
(-0.000479766 -2.01828e-06 0)
(-0.000479729 -3.5536e-06 0)
(-0.000479292 -5.06253e-06 0)
(-0.00047846 -6.5426e-06 0)
(-0.000477239 -7.99156e-06 0)
(-0.000475635 -9.40734e-06 0)
(-0.000473655 -1.07881e-05 0)
(-0.000471306 -1.21323e-05 0)
(-0.000468597 -1.34385e-05 0)
(-0.000465534 -1.47057e-05 0)
(-0.000462128 -1.59329e-05 0)
(-0.000458386 -1.71197e-05 0)
(-0.000454319 -1.82655e-05 0)
(-0.000449936 -1.93703e-05 0)
(-0.000445247 -2.0434e-05 0)
(-0.00044026 -2.14569e-05 0)
(-0.000434987 -2.24394e-05 0)
(-0.000429437 -2.33819e-05 0)
(-0.00042362 -2.42851e-05 0)
(-0.000417546 -2.51498e-05 0)
(-0.000411224 -2.59766e-05 0)
(-0.000404665 -2.67663e-05 0)
(-0.000397878 -2.75197e-05 0)
(-0.000390872 -2.82377e-05 0)
(-0.000383657 -2.89208e-05 0)
(-0.000376242 -2.95698e-05 0)
(-0.000368637 -3.01853e-05 0)
(-0.00036085 -3.07677e-05 0)
(-0.00035289 -3.13175e-05 0)
(-0.000344767 -3.1835e-05 0)
(-0.000336489 -3.23204e-05 0)
(-0.000328065 -3.27739e-05 0)
(-0.000319504 -3.31956e-05 0)
(-0.000310815 -3.35856e-05 0)
(-0.000302006 -3.39439e-05 0)
(-0.000293086 -3.42705e-05 0)
(-0.000284064 -3.45653e-05 0)
(-0.000274948 -3.48285e-05 0)
(-0.000265746 -3.50602e-05 0)
(-0.000256468 -3.52604e-05 0)
(-0.000247122 -3.54296e-05 0)
(-0.000237715 -3.5568e-05 0)
(-0.000228257 -3.56763e-05 0)
(-0.000218754 -3.5755e-05 0)
(-0.000209215 -3.58051e-05 0)
(-0.000199647 -3.58276e-05 0)
(-4.09994e-07 6.57586e-06 0)
(-3.7067e-06 2.17898e-05 0)
(-1.07097e-05 3.49654e-05 0)
(-1.98464e-05 4.50757e-05 0)
(-3.05495e-05 5.24053e-05 0)
(-4.23792e-05 5.75741e-05 0)
(-5.49915e-05 6.1143e-05 0)
(-6.81411e-05 6.35285e-05 0)
(-8.16491e-05 6.50296e-05 0)
(-9.53805e-05 6.5869e-05 0)
(-0.000109233 6.62193e-05 0)
(-0.000123132 6.62149e-05 0)
(-0.000137019 6.5958e-05 0)
(-0.000150855 6.55226e-05 0)
(-0.00016461 6.49601e-05 0)
(-0.00017826 6.43035e-05 0)
(-0.000191789 6.35734e-05 0)
(-0.00020518 6.27815e-05 0)
(-0.000218422 6.1934e-05 0)
(-0.000231502 6.10339e-05 0)
(-0.000244409 6.00825e-05 0)
(-0.000257133 5.90798e-05 0)
(-0.000269662 5.80259e-05 0)
(-0.000281986 5.69203e-05 0)
(-0.000294093 5.57629e-05 0)
(-0.000305973 5.45534e-05 0)
(-0.000317615 5.32918e-05 0)
(-0.000329008 5.19782e-05 0)
(-0.000340141 5.0613e-05 0)
(-0.000351003 4.91964e-05 0)
(-0.000361584 4.77291e-05 0)
(-0.000371872 4.6212e-05 0)
(-0.000381856 4.46458e-05 0)
(-0.000391527 4.30317e-05 0)
(-0.000400873 4.13712e-05 0)
(-0.000409885 3.96656e-05 0)
(-0.000418552 3.79168e-05 0)
(-0.000426865 3.61266e-05 0)
(-0.000434814 3.42972e-05 0)
(-0.00044239 3.2431e-05 0)
(-0.000449585 3.05304e-05 0)
(-0.00045639 2.85983e-05 0)
(-0.000462798 2.66375e-05 0)
(-0.000468802 2.46513e-05 0)
(-0.000474395 2.2643e-05 0)
(-0.000479571 2.06159e-05 0)
(-0.000484325 1.85738e-05 0)
(-0.000488652 1.65203e-05 0)
(-0.00049255 1.44594e-05 0)
(-0.000496014 1.2395e-05 0)
(-0.000499043 1.0331e-05 0)
(-0.000501635 8.27154e-06 0)
(-0.000503791 6.2206e-06 0)
(-0.000505509 4.18219e-06 0)
(-0.000506791 2.16027e-06 0)
(-0.000507641 1.58653e-07 0)
(-0.000508059 -1.81899e-06 0)
(-0.000508051 -3.76893e-06 0)
(-0.000507619 -5.68779e-06 0)
(-0.000506771 -7.5724e-06 0)
(-0.000505512 -9.41979e-06 0)
(-0.000503847 -1.12273e-05 0)
(-0.000501786 -1.29925e-05 0)
(-0.000499335 -1.47132e-05 0)
(-0.000496503 -1.63876e-05 0)
(-0.000493299 -1.80142e-05 0)
(-0.000489732 -1.95918e-05 0)
(-0.000485811 -2.11194e-05 0)
(-0.000481548 -2.25965e-05 0)
(-0.000476951 -2.40226e-05 0)
(-0.000472031 -2.53976e-05 0)
(-0.000466798 -2.67217e-05 0)
(-0.000461263 -2.79953e-05 0)
(-0.000455436 -2.92188e-05 0)
(-0.000449328 -3.03928e-05 0)
(-0.000442949 -3.15182e-05 0)
(-0.000436308 -3.25958e-05 0)
(-0.000429417 -3.36265e-05 0)
(-0.000422285 -3.46111e-05 0)
(-0.000414923 -3.55506e-05 0)
(-0.000407339 -3.64457e-05 0)
(-0.000399543 -3.72973e-05 0)
(-0.000391545 -3.8106e-05 0)
(-0.000383355 -3.88725e-05 0)
(-0.000374981 -3.95972e-05 0)
(-0.000366433 -4.02805e-05 0)
(-0.000357719 -4.09227e-05 0)
(-0.00034885 -4.15241e-05 0)
(-0.000339833 -4.20847e-05 0)
(-0.000330679 -4.26047e-05 0)
(-0.000321395 -4.30841e-05 0)
(-0.000311992 -4.3523e-05 0)
(-0.000302477 -4.39213e-05 0)
(-0.00029286 -4.42791e-05 0)
(-0.00028315 -4.45967e-05 0)
(-0.000273356 -4.48742e-05 0)
(-0.000263485 -4.51121e-05 0)
(-0.000253548 -4.53108e-05 0)
(-0.000243553 -4.54711e-05 0)
(-0.000233507 -4.55938e-05 0)
(-0.000223419 -4.568e-05 0)
(-0.000213298 -4.57309e-05 0)
(-4.35798e-07 8.57682e-06 0)
(-3.91293e-06 2.72969e-05 0)
(-1.12789e-05 4.3185e-05 0)
(-2.08675e-05 5.52587e-05 0)
(-3.20798e-05 6.39697e-05 0)
(-4.44519e-05 7.01016e-05 0)
(-5.76233e-05 7.43366e-05 0)
(-7.13389e-05 7.71733e-05 0)
(-8.54146e-05 7.89661e-05 0)
(-9.97129e-05 7.99778e-05 0)
(-0.000114131 8.04109e-05 0)
(-0.000128591 8.04231e-05 0)
(-0.000143039 8.01341e-05 0)
(-0.000157433 7.96311e-05 0)
(-0.000171742 7.89742e-05 0)
(-0.000185944 7.82029e-05 0)
(-0.000200021 7.73414e-05 0)
(-0.000213957 7.64039e-05 0)
(-0.000227739 7.53982e-05 0)
(-0.000241354 7.4328e-05 0)
(-0.000254791 7.3195e-05 0)
(-0.000268038 7.19996e-05 0)
(-0.000281084 7.07417e-05 0)
(-0.000293917 6.9421e-05 0)
(-0.000306526 6.80373e-05 0)
(-0.000318899 6.65904e-05 0)
(-0.000331025 6.50803e-05 0)
(-0.000342893 6.35069e-05 0)
(-0.000354491 6.18705e-05 0)
(-0.000365807 6.01717e-05 0)
(-0.000376831 5.8411e-05 0)
(-0.00038755 5.65893e-05 0)
(-0.000397954 5.47076e-05 0)
(-0.00040803 5.27673e-05 0)
(-0.00041777 5.07698e-05 0)
(-0.00042716 4.87169e-05 0)
(-0.000436192 4.66105e-05 0)
(-0.000444854 4.44529e-05 0)
(-0.000453136 4.22467e-05 0)
(-0.00046103 3.99945e-05 0)
(-0.000468526 3.76993e-05 0)
(-0.000475616 3.53644e-05 0)
(-0.00048229 3.29933e-05 0)
(-0.000488543 3.05897e-05 0)
(-0.000494366 2.81576e-05 0)
(-0.000499754 2.5701e-05 0)
(-0.000504701 2.32244e-05 0)
(-0.000509203 2.07322e-05 0)
(-0.000513255 1.82291e-05 0)
(-0.000516854 1.57199e-05 0)
(-0.000519999 1.32093e-05 0)
(-0.000522688 1.07023e-05 0)
(-0.000524919 8.20374e-06 0)
(-0.000526695 5.71857e-06 0)
(-0.000528015 3.25157e-06 0)
(-0.000528884 8.07465e-07 0)
(-0.000529302 -1.60916e-06 0)
(-0.000529275 -3.99387e-06 0)
(-0.000528808 -6.34245e-06 0)
(-0.000527906 -8.65094e-06 0)
(-0.000526575 -1.09157e-05 0)
(-0.000524824 -1.31332e-05 0)
(-0.000522659 -1.53006e-05 0)
(-0.000520089 -1.74151e-05 0)
(-0.000517123 -1.94743e-05 0)
(-0.000513772 -2.14764e-05 0)
(-0.000510044 -2.34197e-05 0)
(-0.000505949 -2.5303e-05 0)
(-0.0005015 -2.71253e-05 0)
(-0.000496705 -2.88863e-05 0)
(-0.000491577 -3.05856e-05 0)
(-0.000486125 -3.22234e-05 0)
(-0.000480362 -3.37999e-05 0)
(-0.000474297 -3.53156e-05 0)
(-0.000467942 -3.67714e-05 0)
(-0.000461308 -3.81681e-05 0)
(-0.000454404 -3.95066e-05 0)
(-0.000447242 -4.07879e-05 0)
(-0.000439832 -4.20131e-05 0)
(-0.000432184 -4.31833e-05 0)
(-0.000424308 -4.42993e-05 0)
(-0.000416213 -4.53622e-05 0)
(-0.00040791 -4.63726e-05 0)
(-0.000399407 -4.73314e-05 0)
(-0.000390715 -4.82391e-05 0)
(-0.000381842 -4.90962e-05 0)
(-0.000372798 -4.99031e-05 0)
(-0.000363592 -5.06599e-05 0)
(-0.000354233 -5.13669e-05 0)
(-0.000344731 -5.20241e-05 0)
(-0.000335094 -5.26316e-05 0)
(-0.000325331 -5.31894e-05 0)
(-0.000315452 -5.36977e-05 0)
(-0.000305466 -5.41564e-05 0)
(-0.000295382 -5.45659e-05 0)
(-0.000285209 -5.49263e-05 0)
(-0.000274957 -5.52382e-05 0)
(-0.000264633 -5.55022e-05 0)
(-0.000254248 -5.57191e-05 0)
(-0.000243809 -5.58899e-05 0)
(-0.000233325 -5.6016e-05 0)
(-0.000222805 -5.60989e-05 0)
(-4.5547e-07 1.06725e-05 0)
(-4.07161e-06 3.30508e-05 0)
(-1.17191e-05 5.17581e-05 0)
(-2.16611e-05 6.58645e-05 0)
(-3.3274e-05 7.59984e-05 0)
(-4.6075e-05 8.31158e-05 0)
(-5.96891e-05 8.80274e-05 0)
(-7.38527e-05 9.13184e-05 0)
(-8.83767e-05 9.34025e-05 0)
(-0.000103121 9.45841e-05 0)
(-0.000117982 9.5097e-05 0)
(-0.000132882 9.51228e-05 0)
(-0.000147767 9.47989e-05 0)
(-0.000162594 9.42253e-05 0)
(-0.000177334 9.34712e-05 0)
(-0.000191964 9.25819e-05 0)
(-0.000206466 9.15856e-05 0)
(-0.000220824 9.04988e-05 0)
(-0.000235023 8.93306e-05 0)
(-0.000249053 8.80856e-05 0)
(-0.000262899 8.67658e-05 0)
(-0.000276551 8.53719e-05 0)
(-0.000289996 8.39038e-05 0)
(-0.000303223 8.23613e-05 0)
(-0.000316219 8.07442e-05 0)
(-0.000328973 7.90521e-05 0)
(-0.000341473 7.7285e-05 0)
(-0.000353707 7.5443e-05 0)
(-0.000365663 7.35263e-05 0)
(-0.000377329 7.15354e-05 0)
(-0.000388692 6.94709e-05 0)
(-0.000399742 6.73338e-05 0)
(-0.000410466 6.51253e-05 0)
(-0.000420853 6.28467e-05 0)
(-0.000430891 6.04998e-05 0)
(-0.000440568 5.80866e-05 0)
(-0.000449875 5.56092e-05 0)
(-0.000458799 5.30703e-05 0)
(-0.000467331 5.04727e-05 0)
(-0.000475461 4.78196e-05 0)
(-0.000483178 4.51144e-05 0)
(-0.000490475 4.2361e-05 0)
(-0.000497342 3.95633e-05 0)
(-0.000503771 3.67258e-05 0)
(-0.000509756 3.3853e-05 0)
(-0.00051529 3.09498e-05 0)
(-0.000520367 2.80213e-05 0)
(-0.000524983 2.50728e-05 0)
(-0.000529132 2.21098e-05 0)
(-0.000532812 1.91379e-05 0)
(-0.000536021 1.61629e-05 0)
(-0.000538757 1.31906e-05 0)
(-0.000541019 1.02268e-05 0)
(-0.00054281 7.27736e-06 0)
(-0.000544129 4.34801e-06 0)
(-0.00054498 1.44443e-06 0)
(-0.000545366 -1.42787e-06 0)
(-0.000545291 -4.26362e-06 0)
(-0.000544761 -7.0577e-06 0)
(-0.000543782 -9.80534e-06 0)
(-0.000542361 -1.25021e-05 0)
(-0.000540507 -1.51439e-05 0)
(-0.000538226 -1.77269e-05 0)
(-0.000535529 -2.0248e-05 0)
(-0.000532425 -2.27043e-05 0)
(-0.000528925 -2.50933e-05 0)
(-0.000525039 -2.74132e-05 0)
(-0.000520777 -2.96623e-05 0)
(-0.000516152 -3.18395e-05 0)
(-0.000511174 -3.39443e-05 0)
(-0.000505856 -3.59762e-05 0)
(-0.000500208 -3.79353e-05 0)
(-0.000494242 -3.9822e-05 0)
(-0.000487969 -4.16368e-05 0)
(-0.000481401 -4.33806e-05 0)
(-0.00047455 -4.50545e-05 0)