/*--------------------------------*- C++ -*----------------------------------*\
  =========                 |
  \\      /  F ield         | OpenFOAM: The Open Source CFD Toolbox
   \\    /   O peration     | Website:  https://openfoam.org
    \\  /    A nd           | Version:  11
     \\/     M anipulation  |
\*---------------------------------------------------------------------------*/
FoamFile
{
    format      ascii;
    class       surfaceScalarField;
    location    "7.5";
    object      phi;
}
// * * * * * * * * * * * * * * * * * * * * * * * * * * * * * * * * * * * * * //

dimensions      [0 3 -1 0 0 0 0];

internalField   nonuniform List<scalar> 
18960
(
0.0473692
0.000495066
-0.0478643
0.0467962
0.000573043
0.046259
0.000537124
0.0457388
0.000520268
0.0451735
0.000565282
0.0446471
0.000526415
0.0442534
0.000393711
0.0439049
0.000348466
0.0435054
0.000399527
0.0431495
0.00035592
0.0429895
0.000159967
0.0429621
2.73439e-05
0.043006
-4.38963e-05
0.0431137
-0.000107657
0.0433414
-0.000227688
0.0436941
-0.000352711
0.0441748
-0.000480736
0.0449162
-0.000741358
0.0458022
-0.00088599
0.0464216
-0.000619409
0.0465943
-0.000172681
0.046492
0.000102268
0.0460436
0.000448445
0.0449975
0.00104611
0.043569
0.00142842
0.0422918
0.00127722
0.0411112
0.00118061
0.0400652
0.00104604
0.0390859
0.00097932
0.0384625
0.000623374
0.0380556
0.000406851
0.0382414
-0.00018575
0.0390737
-0.000832334
0.0411802
-0.00210654
0.04419
-0.0030098
0.0503413
-0.00615123
0.0579779
-0.0076366
0.0682278
-0.0102499
0.0717012
-0.00347344
-0.00107362
0.0727748
0.0476877
0.000755363
-0.047948
0.0473976
0.000863149
0.0470426
0.000892107
0.0466922
0.000870645
0.0463519
0.000905551
0.0460076
0.000870735
0.0456629
0.000738428
0.0453406
0.000670781
0.0450546
0.00068547
0.0448541
0.000556495
0.0446738
0.00034019
0.0445817
0.000119434
0.0445546
-1.67589e-05
0.0447425
-0.000295498
0.0450708
-0.000556075
0.0454392
-0.000721114
0.0459033
-0.000944804
0.0466096
-0.00144766
0.0474202
-0.0016966
0.0483272
-0.00152638
0.0490416
-0.000887078
0.0493411
-0.000197261
0.0493498
0.000439756
0.0492499
0.00114606
0.0487671
0.00191121
0.0479132
0.00213106
0.0467275
0.00236636
0.0456201
0.00215339
0.0445634
0.00203605
0.0439083
0.00127848
0.0434484
0.000866723
0.0433218
-5.9118e-05
0.0431389
-0.00064942
0.0434508
-0.00241846
0.0436111
-0.00317008
0.0456037
-0.00814391
0.0478972
-0.00993005
0.0550619
-0.0174146
0.0639791
-0.0123907
-0.00640011
0.0693056
0.0475519
0.00115953
-0.047956
0.0471793
0.00123574
0.0467355
0.00133588
0.0462322
0.00137394
0.0458106
0.00132713
0.0454267
0.00125466
0.0450607
0.00110445
0.0447538
0.000977641
0.0445439
0.000895366
0.0443975
0.000702894
0.0443409
0.000396859
0.0443335
0.00012675
0.044412
-9.52113e-05
0.0446762
-0.000559746
0.0450847
-0.000964517
0.0455688
-0.00120527
0.0461164
-0.00149234
0.0467269
-0.00205819
0.0473602
-0.00232989
0.0481641
-0.00233032
0.0490263
-0.00174927
0.0497008
-0.000871762
0.0499702
0.000170375
0.0500417
0.00107461
0.0498299
0.00212296
0.0491471
0.00281384
0.047905
0.00360847
0.0465925
0.00346586
0.0450318
0.00359684
0.0437331
0.00257708
0.0424789
0.00212096
0.0420118
0.000407975
0.0417365
-0.000374084
0.0421789
-0.00286089
0.0428679
-0.00385909
0.0451959
-0.0104718
0.0479325
-0.0126667
0.052622
-0.0221041
0.0644524
-0.0242212
-0.0128434
0.0708957
0.0474615
0.00154561
-0.0478476
0.0471055
0.00159178
0.0466879
0.00175349
0.046297
0.00176479
0.0459801
0.00164403
0.0456841
0.0015507
0.0453826
0.00140591
0.0451362
0.00122403
0.0449057
0.00112585
0.044736
0.000872611
0.0446397
0.000493212
0.044652
0.000114403
0.0447007
-0.00014387
0.0449266
-0.000785695
0.0452783
-0.00131625
0.0457182
-0.00164509
0.0462301
-0.00200423
0.0468641
-0.00269224
0.0474318
-0.00289761
0.0480885
-0.00298699
0.048846
-0.00250679
0.0496775
-0.00170324
0.0501857
-0.000337864
0.0504719
0.000788505
0.0504522
0.0021426
0.050134
0.00313208
0.0492976
0.00444479
0.0483864
0.00437711
0.0472957
0.00468752
0.0463405
0.00353227
0.045217
0.00324448
0.0442716
0.00135344
0.043296
0.000601512
0.0428635
-0.00242838
0.0422466
-0.00324221
0.0421395
-0.0103648
0.0435202
-0.0140475
0.0430744
-0.0216582
0.0527055
-0.0338523
-0.0229942
0.0628563
0.0474072
0.00194667
-0.0478083
0.047024
0.00197502
0.0466045
0.002173
0.046204
0.00216524
0.0458339
0.00201415
0.04547
0.00191466
0.0451318
0.00174411
0.0448618
0.001494
0.0446613
0.00132633
0.0445354
0.000998581
0.044478
0.000550585
0.0444621
0.000130308
0.0446119
-0.000293654
0.0448959
-0.00106972
0.0452172
-0.00163759
0.0457189
-0.00214677
0.0463218
-0.00260712
0.046998
-0.00336844
0.0475761
-0.00347567
0.0481002
-0.00351115
0.0486653
-0.00307182
0.0494489
-0.00248687
0.050164
-0.00105302
0.0507439
0.000208662
0.0509868
0.00189963
0.0510841
0.00303487
0.0506103
0.00491855
0.0497395
0.00524789
0.0482892
0.00613778
0.0468593
0.0049622
0.045153
0.00495083
0.0439271
0.0025793
0.0429138
0.00161478
0.0424763
-0.00199082
0.0421317
-0.00289761
0.0411813
-0.00941433
0.0427316
-0.0155978
0.0411649
-0.0200915
0.0465641
-0.0392516
-0.0327387
0.0563087
0.0472635
0.00234728
-0.0476641
0.0468775
0.00236095
0.0464716
0.00257897
0.0461025
0.00253435
0.0457329
0.00238372
0.0454326
0.0022149
0.0451668
0.00200999
0.0449511
0.0017097
0.044782
0.00149542
0.0446783
0.00110226
0.0446156
0.000613318
0.0447115
3.43746e-05
0.0448591
-0.000441222
0.0451172
-0.00132784
0.0453778
-0.00189817
0.045875
-0.00264397
0.0464305
-0.00316263
0.0470431
-0.00398106
0.0476071
-0.00403969
0.0481737
-0.00407771
0.048681
-0.00357915
0.0493595
-0.00316537
0.0500507
-0.0017442
0.0507931
-0.000533789
0.051179
0.00151376
0.0514599
0.00275403
0.0512122
0.00516622
0.0506734
0.00578666
0.0497176
0.00709362
0.048702
0.00597773
0.0473627
0.00629021
0.0459507
0.00399127
0.0443634
0.0032021
0.0431558
-0.000783223
0.0423422
-0.00208402
0.0399758
-0.00704797
0.0399086
-0.0155306
0.038162
-0.0183449
0.0384259
-0.0395154
-0.0407052
0.0463923
0.0471996
0.0027553
-0.0476077
0.0468121
0.00274849
0.0464239
0.00296718
0.046045
0.00291324
0.0456953
0.00273347
0.045392
0.00251821
0.0451311
0.00227082
0.0449079
0.00193296
0.0447496
0.00165364
0.0446625
0.00118939
0.0446281
0.000647766
0.0446615
9.68715e-07
0.0448161
-0.000595829
0.0451025
-0.00161424
0.0454321
-0.00222781
0.0459379
-0.00314973
0.0465
-0.00372472
0.0470897
-0.00457084
0.0476528
-0.00460278
0.0482624
-0.00468728
0.0487368
-0.00405358
0.0493201
-0.00374865
0.0499536
-0.00237772
0.0507252
-0.00130539
0.0512935
0.000945493
0.0517608
0.00228676
0.0518968
0.0050302
0.0516859
0.00599756
0.0507975
0.00798205
0.0495988
0.0071764
0.0481329
0.00775614
0.0465187
0.0056054
0.0448896
0.00483128
0.0433104
0.000795987
0.0424313
-0.00120495
0.0400314
-0.00464809
0.0389087
-0.0144079
0.0377807
-0.0172168
0.0346296
-0.0363643
-0.0442991
0.0382234
0.0470439
0.00315942
-0.047448
0.0466529
0.00313948
0.046287
0.00333311
0.0459362
0.00326404
0.0455884
0.0030812
0.0453162
0.00279046
0.0450704
0.00251659
0.0448826
0.00212078
0.0447548
0.00178145
0.0446953
0.00124893
0.0446676
0.000675381
0.0448064
-0.000137828
0.0449851
-0.000774457
0.0452706
-0.00189976
0.0455975
-0.00255474
0.0460674
-0.00361965
0.046575
-0.00423227
0.0471584
-0.00515429
0.0476939
-0.00513826
0.0482897
-0.00528303
0.048756
-0.0045199
0.0492826
-0.00427528
0.0498351
-0.0029302
0.0506184
-0.00208866
0.0513288
0.000235054
0.0518915
0.00172405
0.0521886
0.00473315
0.0521754
0.0060107
0.0516881
0.00846936
0.0507787
0.00808581
0.0497046
0.00883022
0.0482211
0.00708894
0.0465789
0.00647351
0.0445157
0.00285912
0.043168
0.00014283
0.040655
-0.00213508
0.0377579
-0.0115108
0.0355542
-0.0150131
0.0307808
-0.031591
-0.0445895
0.0310713
0.0469778
0.00356831
-0.0473867
0.046591
0.00352629
0.0462219
0.00370225
0.0458791
0.00360684
0.04556
0.00340024
0.0452965
0.00305404
0.0450656
0.00274746
0.0448963
0.00229008
0.0447738
0.00190397
0.0447323
0.00129039
0.0447529
0.000654768
0.0448531
-0.000238004
0.0450324
-0.000953766
0.0453525
-0.00221986
0.0456938
-0.00289603
0.046176
-0.00410187
0.0466706
-0.00472684
0.0472295
-0.00571316
0.0477283
-0.00563711
0.0483243
-0.00587906
0.0488387
-0.00503427
0.0493578
-0.00479436
0.0498476
-0.00341997
0.0505297
-0.00277081
0.0513176
-0.000552847
0.0520127
0.00102896
0.0525379
0.00420798
0.0527602
0.00578834
0.0526146
0.00861502
0.0517997
0.00890064
0.0507908
0.00983919
0.0492444
0.00863527
0.0476601
0.00805784
0.0453299
0.00518933
0.0437382
0.00173457
0.0416102
-7.12365e-06
0.0381751
-0.00807577
0.0355272
-0.0123652
0.0298331
-0.0258969
-0.0417197
0.0269633
0.0468132
0.00396689
-0.0472118
0.0464478
0.00389165
0.0460798
0.00407025
0.045756
0.0039307
0.0454712
0.00368506
0.0452335
0.00329166
0.0450268
0.00295422
0.0448655
0.00245132
0.0447847
0.00198475
0.044762
0.00131307
0.0448118
0.000605042
0.0449444
-0.000370607
0.0451484
-0.00115776
0.0454583
-0.00252981
0.0458173
-0.00325504
0.0462763
-0.00456082
0.0467508
-0.00520134
0.0472827
-0.00624508
0.0477803
-0.00613474
0.0483406
-0.00643929
0.0488478
-0.0055415
0.049348
-0.00529453
0.0498226
-0.00389463
0.050373
-0.00332113
0.05119
-0.00136994
0.0520063
0.000212742
0.0527758
0.00343848
0.0531551
0.00540898
0.0532957
0.00847441
0.0527063
0.00949009
0.0519229
0.0106226
0.0505348
0.0100233
0.0492716
0.00932103
0.0469785
0.00748249
0.0450709
0.00364215
0.042923
0.00214076
0.0390831
-0.00423585
0.0355413
-0.00882337
0.0294121
-0.0197677
-0.0371357
0.0248282
0.0467518
0.00436283
-0.0471477
0.0463754
0.00426802
0.046038
0.00440764
0.0457308
0.00423795
0.0454422
0.00397369
0.0452223
0.00351151
0.0450248
0.00315174
0.0448914
0.00258472
0.0448302
0.00204597
0.0448386
0.00130465
0.0448966
0.000547041
0.0450572
-0.000531199
0.0452724
-0.001373
0.0456033
-0.00286064
0.0459548
-0.0036066
0.0463905
-0.00499647
0.0468193
-0.00563019
0.0473792
-0.00680501
0.0478628
-0.00661829
0.0483672
-0.00694366
0.048836
-0.00601031
0.0493687
-0.00582723
0.0498814
-0.00440736
0.0503829
-0.00382264
0.0511312
-0.00211826
0.0519651
-0.00062109
0.0529054
0.00249812
0.0535136
0.00480082
0.053968
0.00802002
0.0537248
0.00973322
0.0531687
0.0111787
0.0518364
0.0113557
0.0506424
0.010515
0.0483791
0.00974585
0.0460987
0.00592256
0.0440484
0.004191
0.0405305
-0.000717931
0.0366875
-0.00498041
0.0303176
-0.0133979
-0.0301629
0.0233448
0.046576
0.00474586
-0.046959
0.0462274
0.00461662
0.0458941
0.00474098
0.0456054
0.00452656
0.0453574
0.00422172
0.0451466
0.00372234
0.0449835
0.00331484
0.0448891
0.00267909
0.0448305
0.00210453
0.0448973
0.00123786
0.0449609
0.000483501
0.0451412
-0.000711502
0.045377
-0.00160878
0.0457023
-0.00318593
0.046063
-0.00396736
0.0465197
-0.00545316
0.0469438
-0.00605429
0.047414
-0.00727526
0.0478931
-0.0070973
0.0484006
-0.0074512
0.0488903
-0.00650004
0.0493709
-0.00630782
0.0498983
-0.00493472
0.0503472
-0.00427154
0.0510384
-0.00280945
0.0518323
-0.00141502
0.0529343
0.00139606
0.0537661
0.00396904
0.0544862
0.00729992
0.0545503
0.00966918
0.0543923
0.0113367
0.0531304
0.0126175
0.0519596
0.0116858
0.0503168
0.0113887
0.0480616
0.00817773
0.0457512
0.00650141
0.0425042
0.00252905
0.0388054
-0.00128153
0.032643
-0.00723552
-0.0217354
0.0242156
0.0465162
0.00512351
-0.0468938
0.0461679
0.00496489
0.0458585
0.00505037
0.0455877
0.00479741
0.0453451
0.00446432
0.0451535
0.00391393
0.0450208
0.00344748
0.0449408
0.00275914
0.0448925
0.00215278
0.0449726
0.00115775
0.0450762
0.0003799
0.0452925
-0.000927748
0.0455117
-0.00182795
0.0458499
-0.00352418
0.0462066
-0.004324
0.0466734
-0.00592002
0.0470669
-0.00644775
0.0474858
-0.0076942
0.0479343
-0.00754575
0.0484383
-0.00795527
0.0489473
-0.00700903
0.0493736
-0.00673405
0.0498879
-0.0054491
0.0503527
-0.00473627
0.051016
-0.0034728
0.0517758
-0.00217477
0.0528984
0.000273464
0.0538899
0.00297745
0.0549738
0.00621603
0.0552012
0.00944179
0.0554646
0.0110733
0.0548119
0.0132703
0.053507
0.0129906
0.0519545
0.0129412
0.0499212
0.0102111
0.0476835
0.00873913
0.044427
0.00578548
0.0412121
0.00193337
0.0357032
-0.0017266
-0.0130567
0.0270245
0.0463283
0.00548077
-0.0466856
0.0459968
0.00529639
0.0457215
0.00532565
0.045472
0.00504692
0.0452658
0.00467052
0.0450977
0.00408206
0.0449747
0.00357046
0.0449227
0.00281116
0.0449335
0.00214191
0.045015
0.00107624
0.0451507
0.000244217
0.0453924
-0.00116943
0.0456331
-0.00206859
0.0459695
-0.00386067
0.0463349
-0.0046894
0.0467553
-0.00634035
0.0471798
-0.00687223
0.0475792
-0.00809362
0.0480092
-0.00797573
0.0484223
-0.00836842
0.048944
-0.00753069
0.0493506
-0.00714068
0.0499143
-0.00601279
0.0503559
-0.00517785
0.050996
-0.00411296
0.0517015
-0.00288029
0.0528371
-0.000862096
0.0538694
0.00194517
0.0553051
0.00478035
0.0559271
0.00881975
0.0562448
0.0107556
0.0562212
0.0132939
0.0554098
0.013802
0.0539836
0.0143674
0.0519094
0.0122853
0.0501941
0.0104544
0.0470955
0.00888405
0.0440528
0.00497609
0.0398816
0.00244461
-0.00622844
0.0330534
0.0462868
0.0058276
-0.0466336
0.0459767
0.0056065
0.0457174
0.00558493
0.0454625
0.00530184
0.0452646
0.00486839
0.045126
0.00422069
0.0450378
0.00365869
0.045006
0.0028429
0.0450284
0.00211955
0.0451545
0.000950143
0.0452829
0.000115804
0.045541
-0.00142752
0.0457983
-0.00232591
0.0461411
-0.00420345
0.0464952
-0.0050435
0.04689
-0.00673513
0.0472983
-0.00728055
0.0476973
-0.00849266
0.0481047
-0.00838309
0.0484571
-0.00872081
0.0489389
-0.00801252
0.049339
-0.00754082
0.0499085
-0.00658227
0.0503632
-0.0056325
0.0510005
-0.00475028
0.0515963
-0.00347612
0.0527698
-0.00203553
0.0539123
0.000802629
0.0552865
0.00340621
0.0565337
0.00757247
0.0571183
0.010171
0.0574087
0.0130036
0.0570547
0.0141559
0.0562336
0.0151885
0.0542803
0.0142386
0.0525396
0.0121952
0.0498991
0.0115245
0.0467269
0.00814829
0.0425969
0.00657459
-0.00100694
0.0373754
0.0460875
0.00614877
-0.0464087
0.0457942
0.0058998
0.045555
0.00582412
0.0453587
0.00549813
0.0451876
0.00503946
0.0450613
0.00434706
0.0450134
0.00370659
0.0450103
0.00284602
0.0450525
0.00207729
0.0452097
0.000792961
0.0453749
-4.94513e-05
0.0456514
-0.00170398
0.0459366
-0.00261107
0.0462762
-0.00454304
0.0466427
-0.00541002
0.0470304
-0.00712286
0.047436
-0.0076861
0.0477962
-0.00885294
0.0481891
-0.00877596
0.0484991
-0.00903077
0.0489566
-0.00847002
0.0492901
-0.00787438
0.0498906
-0.00718273
0.0503143
-0.00605623
0.0510104
-0.00544636
0.0516468
-0.00411254
0.0525821
-0.00297084
0.0539375
-0.000552785
0.0552742
0.0020695
0.056857
0.00598975
0.0578411
0.00918691
0.0585042
0.0123404
0.0585409
0.0141192
0.0581815
0.015548
0.056629
0.015791
0.0550746
0.0137496
0.0532582
0.0133409
0.0509764
0.0104301
0.0470165
0.0105345
0.00320294
0.0428067
0.0460906
0.00645795
-0.0463998
0.0458086
0.00618177
0.0455625
0.00607021
0.0453814
0.0056792
0.045227
0.00519393
0.0451522
0.00442185
0.0451039
0.00375483
0.0451199
0.00283006
0.0452001
0.00199709
0.0453604
0.000632706
0.0455596
-0.000248683
0.0458289
-0.00197333
0.0461359
-0.00291802
0.0464432
-0.0048503
0.0468156
-0.0057825
0.0471739
-0.00748115
0.0475756
-0.0080878
0.0479117
-0.00918901
0.0483111
-0.00917536
0.0485549
-0.00927461
0.0490108
-0.00892589
0.049249
-0.00811263
0.0498036
-0.00773726
0.0502929
-0.00654556
0.050895
-0.00604851
0.0516724
-0.00488994
0.0525113
-0.00380974
0.0538408
-0.00188227
0.0552973
0.000613049
0.0570257
0.00426135
0.0584334
0.00777918
0.0594588
0.011315
0.0598381
0.0137399
0.0599848
0.0154013
0.0590893
0.0166865
0.0576398
0.015199
0.0557717
0.015209
0.0542549
0.0119469
0.051439
0.0133503
0.00728428
0.0473577
0.0458429
0.00675379
-0.0461387
0.0456016
0.00642307
0.0454117
0.00626007
0.0452529
0.005838
0.0451528
0.0052941
0.0450882
0.00448639
0.0450761
0.00376691
0.0451555
0.00275074
0.0452727
0.00187983
0.0454434
0.000462045
0.0456639
-0.00046922
0.0459456
-0.002255
0.0462821
-0.00325453
0.0465884
-0.00515656
0.0469888
-0.00618288
0.0472996
-0.00779203
0.0477268
-0.00851496
0.047985
-0.00944724
0.0484246
-0.00961497
0.0486322
-0.00948216
0.0490371
-0.00933079
0.0493144
-0.00838992
0.0497057
-0.00812862
0.0502056
-0.00704547
0.0508112
-0.00665405
0.0515946
-0.00567336
0.0524731
-0.0046882
0.0536444
-0.00305364
0.055202
-0.000944559
0.0570648
0.00239864
0.0588207
0.0060232
0.0603061
0.0098297
0.0611016
0.0129443
0.06156
0.0149429
0.0612671
0.0169794
0.0604342
0.0160319
0.0585239
0.0171194
0.0569881
0.0134827
0.0555145
0.0148239
0.0102905
0.0525083
0.0458401
0.00704224
-0.0461286
0.045614
0.00664919
0.0454519
0.00642224
0.0453202
0.0059697
0.0452404
0.00537388
0.0451965
0.00453026
0.0452184
0.00374503
0.0453169
0.0026522
0.0454524
0.00174438
0.0456257
0.000288697
0.0458739
-0.00071734
0.0461264
-0.00250759
0.0465275
-0.00365556
0.046776
-0.00540511
0.0472303
-0.00663714
0.0474696
-0.00803141
0.0479136
-0.00895894
0.0481474
-0.009681
0.0485121
-0.00997966
0.0487596
-0.00972972
0.0490571
-0.0096283
0.0493659
-0.0086987
0.0496981
-0.00846081
0.0501227
-0.00747005
0.050664
-0.00719536
0.0513541
-0.00636343
0.05237
-0.00570416
0.0535695
-0.00425313
0.0550532
-0.00242821
0.056983
0.000468835
0.059008
0.0039982
0.0609822
0.00785547
0.0622742
0.0116523
0.0631849
0.0140322
0.0631651
0.0169992
0.0630434
0.0161536
0.0618601
0.0183027
0.0601913
0.0151515
0.0586544
0.0163608
0.0130712
0.0558737
0.0456197
0.00728341
-0.0458609
0.0454478
0.00682109
0.0453054
0.00656471
0.0452093
0.00606574
0.0451742
0.00540895
0.0451736
0.00453091
0.0452337
0.00368488
0.0453488
0.00253713
0.0455223
0.00157091
0.0456996
0.000111376
0.0460336
-0.00105131
0.046234
-0.00270807
0.0466906
-0.0041121
0.0469366
-0.00565116
0.0473849
-0.00708543
0.0476809
-0.0083274
0.0480289
-0.00930694
0.0482895
-0.00994154
0.0485959
-0.0102861
0.0488619
-0.0099958
0.0490871
-0.0098534
0.0494146
-0.00902621
0.0496409
-0.00868718
0.0500477
-0.00787681
0.0504913
-0.00763896
0.0511868
-0.00705895
0.0520793
-0.00659664
0.0533667
-0.00554052
0.0548736
-0.00393509
0.0568906
-0.00154824
0.0590395
0.00184935
0.0613115
0.00558347
0.06308
0.00988388
0.0647373
0.0123748
0.0652355
0.016501
0.0654079
0.0159813
0.0649889
0.0187217
0.0635669
0.0165735
0.0624536
0.017474
0.0152426
0.0602823
0.0456962
0.00749986
-0.0459127
0.0455117
0.00700556
0.0454051
0.00667137
0.0453398
0.00613103
0.0453244
0.00542437
0.045323
0.00453234
0.0454387
0.00356911
0.0455296
0.0024463
0.0457789
0.00132153
0.0459006
-1.02692e-05
0.0463166
-0.00146734
0.0465226
-0.00291407
0.0469412
-0.00453071
0.0472016
-0.00591157
0.0476059
-0.00748967
0.0478733
-0.00859482
0.0482129
-0.00964656
0.0484952
-0.0102238
0.0486946
-0.0104855
0.0490013
-0.0103025
0.0491296
-0.00998168
0.0494738
-0.00937041
0.0496272
-0.00884058
0.0499833
-0.00823295
0.0503598
-0.00801542
0.0509565
-0.00765571
0.0517641
-0.0074042
0.053074
-0.0068504
0.0545317
-0.00539277
0.0566255
-0.00364207
0.0588769
-0.000402026
0.0615404
0.00291998
0.0636823
0.00774189
0.0658136
0.0102436
0.067085
0.0152296
0.0676212
0.0154451
0.0680409
0.018302
0.0671616
0.0174528
0.0662406
0.018395
0.0168633
0.06462
0.0455118
0.00766749
-0.0456794
0.0453575
0.00715981
0.0452821
0.00674683
0.0452469
0.00616619
0.045279
0.0053923
0.0452886
0.00452269
0.0454452
0.00341254
0.0455357
0.00235581
0.0458904
0.00096686
0.0460535
-0.000173417
0.0464207
-0.00183448
0.0466943
-0.00318771
0.0471073
-0.00494375
0.0474114
-0.00621559
0.0477513
-0.0078296
0.0480811
-0.00892461
0.0483341
-0.00989961
0.0486403
-0.01053
0.048787
-0.0106322
0.0491033
-0.0106188
0.049179
-0.0100574
0.0494617
-0.00965314
0.0496531
-0.00903204
0.0499178
-0.00849762
0.0502396
-0.00833722
0.050746
-0.00816206
0.0513626
-0.00802079
0.0525632
-0.00805101
0.0540175
-0.00684705
0.0561667
-0.00579135
0.0585554
-0.00279072
0.0614626
1.28047e-05
0.0640767
0.00512782
0.0665685
0.00775178
0.0687551
0.013043
0.0697117
0.0144885
0.0706733
0.0173404
0.0706691
0.017457
0.0701772
0.0188869
0.0179949
0.0690456
0.0456215
0.00781684
-0.0457709
0.0455102
0.00727108
0.0454723
0.00678474
0.0454372
0.00620132
0.0454759
0.00535359
0.0455101
0.00448852
0.045719
0.00320365
0.0458759
0.00219891
0.0461421
0.000700676
0.0463784
-0.00040976
0.0467249
-0.00218098
0.0470435
-0.00350635
0.0473687
-0.00526889
0.0477516
-0.00659846
0.0480106
-0.00808866
0.0483608
-0.00927477
0.0485514
-0.0100903
0.0488377
-0.0108163
0.0489531
-0.0107476
0.0491946
-0.0108602
0.0493189
-0.0101817
0.0494809
-0.00981519
0.0496698
-0.00922092
0.0498659
-0.00869369
0.0500448
-0.00851614
0.0505106
-0.00862787
0.0510012
-0.00851138
0.0520318
-0.00908165
0.0534159
-0.00823116
0.0553487
-0.00772414
0.0578899
-0.00533191
0.0610207
-0.00311794
0.0642394
0.0019091
0.0670599
0.00493126
0.0700339
0.010069
0.0717225
0.0127999
0.0729102
0.0161527
0.0736257
0.0167414
0.0739422
0.0185704
0.0187032
0.0732339
0.0454248
0.00791828
-0.0455262
0.0453432
0.00735266
0.0453233
0.00680465
0.0453287
0.0061959
0.0454505
0.00523184
0.0455894
0.00434955
0.0457683
0.00302483
0.0459639
0.00200324
0.0462336
0.000430974
0.0465594
-0.000735522
0.046874
-0.00249556
0.0472826
-0.00391502
0.0475603
-0.00554657
0.0479616
-0.00699978
0.0482137
-0.00834075
0.0485643
-0.00962535
0.0487247
-0.0102506
0.0489799
-0.0110715
0.0491306
-0.0108983
0.0492404
-0.01097
0.0494261
-0.0103674
0.0495152
-0.00990433
0.0496461
-0.00935179
0.0498794
-0.00892696
0.0499002
-0.00853698
0.0502829
-0.00901056
0.0506816
-0.00891014
0.0513398
-0.00973985
0.0526413
-0.00953259
0.0544507
-0.00953361
0.0568751
-0.00775628
0.0599959
-0.0062387
0.0637749
-0.00186995
0.0672066
0.0014996
0.0706046
0.00667089
0.0734867
0.00991783
0.0754509
0.0141884
0.0764042
0.0157882
0.0773849
0.0175898
0.0187119
0.0773762
0.0456106
0.00801397
-0.0457063
0.0455556
0.00740761
0.0455839
0.0067764
0.0456748
0.006105
0.0457616
0.00514501
0.0459313
0.00417985
0.0461259
0.00283025
0.0464012
0.00172796
0.04665
0.000182169
0.04702
-0.00110558
0.0472874
-0.00276297
0.0477065
-0.00433404
0.0479502
-0.00579036
0.04839
-0.00743949
0.0486116
-0.00856242
0.0488756
-0.00988933
0.0490518
-0.0104268
0.0492042
-0.0112239
0.049388
-0.0110822
0.0494121
-0.0109941
0.0495401
-0.0104953
0.0496726
-0.0100368
0.0496417
-0.00932098
0.0498627
-0.00914788
0.0498873
-0.0085616
0.0499807
-0.00910398
0.0502816
-0.00921099
0.0507528
-0.0102111
0.0516821
-0.0104618
0.0532793
-0.0111308
0.0555506
-0.0100276
0.0585064
-0.00919451
0.0624969
-0.00586046
0.0667191
-0.00272263
0.0707864
0.00260358
0.0742692
0.00643504
0.0775253
0.0109323
0.0793709
0.0139426
0.0807957
0.016165
0.0182874
0.0812202
0.0453411
0.00803559
-0.0453627
0.0453815
0.00736724
0.0454248
0.00673309
0.0455767
0.00595311
0.0457249
0.00499675
0.0459764
0.00392837
0.0461913
0.00261533
0.0465136
0.0014057
0.0468413
-0.000145528
0.0472296
-0.00149389
0.0475657
-0.00309904
0.0480004
-0.00476878
0.0482628
-0.00605273
0.0486147
-0.00779141
0.0489072
-0.00885495
0.0491077
-0.0100898
0.0493269
-0.0106459
0.0493914
-0.0112885
0.0495251
-0.0112158
0.0496584
-0.0111274
0.0496247
-0.0104616
0.0497552
-0.0101674
0.0497557
-0.00932146
0.0498435
-0.00923568
0.0498541
-0.00857217
0.0498017
-0.00905165
0.0499475
-0.00935677
0.0501446
-0.0104082
0.0507339
-0.0110511
0.0518678
-0.0122647
0.0540085
-0.0121684
0.0566422
-0.0118282
0.0605398
-0.00975804
0.0649343
-0.00711709
0.0701507
-0.00261279
0.0745855
0.00200022
0.0788146
0.0067032
0.0817938
0.0109633
0.0842297
0.0137291
0.0170905
0.0854266
0.0457096
0.00807564
-0.0457497
0.0457762
0.00730065
0.045901
0.0066083
0.0460439
0.00581019
0.0462322
0.00480843
0.0464557
0.00370488
0.0467529
0.00231809
0.0470956
0.00106306
0.0473734
-0.000423379
0.0478267
-0.00194715
0.048131
-0.00340338
0.0485099
-0.00514769
0.0488597
-0.00640247
0.0491422
-0.0080739
0.0494108
-0.00912363
0.0495773
-0.0102563
0.0497416
-0.0108102
0.0497662
-0.0113131
0.049804
-0.0112536
0.0499062
-0.0112295
0.0498311
-0.0103865
0.0499087
-0.010245
0.0499095
-0.00932232
0.0498799
-0.00920601
0.0499049
-0.00859716
0.0497775
-0.0089243
0.0497562
-0.00933541
0.0496331
-0.0102851
0.0498962
-0.0113142
0.0503848
-0.0127533
0.052024
-0.0138075
0.054234
-0.0140383
0.0579909
-0.0135149
0.0622497
-0.0113759
0.0680021
-0.0083652
0.0734521
-0.00344979
0.0790896
0.00106569
0.0834592
0.0065938
0.0870132
0.010175
0.0149654
0.0891383
0.0455137
0.00801546
-0.0454535
0.0456028
0.00721159
0.045741
0.00647009
0.0459309
0.00562027
0.0462425
0.00449678
0.0465473
0.00340011
0.0468295
0.00203586
0.0472458
0.000646819
0.0475728
-0.000750369
0.0480641
-0.00243843
0.0484064
-0.0037457
0.0488057
-0.00554704
0.0491848
-0.00678153
0.0494404
-0.0083295
0.0497083
-0.00939152
0.0498668
-0.0104148
0.04996
-0.0109034
0.0500308
-0.0113839
0.0500132
-0.011236
0.050022
-0.0112383
0.0500199
-0.0103845
0.049948
-0.0101731
0.0500782
-0.00945245
0.0499244
-0.00905225
0.0499445
-0.00861727
0.0497006
-0.00868041
0.0494993
-0.00913409
0.0491844
-0.00997024
0.0490739
-0.0112037
0.0490173
-0.0126967
0.0498914
-0.0146816
0.0513625
-0.0155094
0.0545748
-0.0167272
0.0583974
-0.0151985
0.0642966
-0.0142644
0.070482
-0.00963516
0.077498
-0.00595027
0.0839255
0.000166298
0.0892788
0.00482168
0.0117274
0.0925169
0.0461296
0.00794578
-0.04606
0.0462479
0.00709328
0.0464706
0.00624742
0.046732
0.00535887
0.0469311
0.00429767
0.0473331
0.00299813
0.0475924
0.00177655
0.0480647
0.00017452
0.0484378
-0.00112343
0.0488286
-0.00282929
0.0492258
-0.00414281
0.0495596
-0.00588089
0.0499269
-0.00714882
0.0501461
-0.0085487
0.0503162
-0.00956159
0.0504336
-0.0105323
0.0504621
-0.0109319
0.0503891
-0.011311
0.0504194
-0.0112662
0.0501951
-0.0110141
0.0503008
-0.0104901
0.0501011
-0.00997336
0.0502475
-0.00959884
0.0500392
-0.00884401
0.05007
-0.00864809
0.0498775
-0.0084879
0.049505
-0.0087616
0.0489957
-0.0094609
0.0484471
-0.0106551
0.0479035
-0.012153
0.0478695
-0.0146477
0.0483736
-0.0160135
0.0503399
-0.0186935
0.0534248
-0.0182833
0.0585697
-0.0194094
0.0650464
-0.0161119
0.0730471
-0.013951
0.0812051
-0.0079917
0.0894243
-0.00339755
0.0058712
0.0952805
0.0458188
0.00772717
-0.0456002
0.0461288
0.00678325
0.0463624
0.00601382
0.0467521
0.00496921
0.0470603
0.0039894
0.0475556
0.00250281
0.0479387
0.00139352
0.0483803
-0.000267079
0.0488453
-0.00158848
0.0492853
-0.00326932
0.0497519
-0.0046094
0.0500639
-0.00619284
0.0504514
-0.00753634
0.050597
-0.00869426
0.0508849
-0.0098495
0.0507722
-0.0104196
0.0508979
-0.0110576
0.0506906
-0.0111036
0.0507594
-0.0113351
0.0504404
-0.0106951
0.0505642
-0.0106139
0.0503757
-0.00978484
0.0503838
-0.00960693
0.0503309
-0.00879117
0.0502713
-0.00858852
0.0501366
-0.0083532
0.049738
-0.00836294
0.0490677
-0.00879064
0.048236
-0.0098234
0.0472963
-0.0112133
0.0463121
-0.0136634
0.0457977
-0.0154992
0.0460635
-0.0189593
0.0478245
-0.0200444
0.0513522
-0.022937
0.0568238
-0.0215834
0.0648311
-0.0219584
0.0741658
-0.0173264
0.0847193
-0.0139511
-0.00442479
0.0950153
0.046806
0.00753321
-0.046612
0.0471156
0.00647362
0.0474479
0.00568151
0.0478282
0.00458892
0.0482178
0.00359978
0.0486454
0.00207522
0.0491156
0.000923313
0.0495068
-0.000658222
0.0500927
-0.0021744
0.0503846
-0.00356118
0.050947
-0.00517186
0.0511211
-0.00636694
0.0515099
-0.00792512
0.0515296
-0.00871392
0.0517138
-0.0100338
0.0515805
-0.0102862
0.0516133
-0.0110905
0.0513458
-0.0108361
0.0511966
-0.0111859
0.0509982
-0.0104966
0.0508861
-0.0105018
0.0507807
-0.00967941
0.0506659
-0.00949217
0.0507394
-0.00886467
0.0506617
-0.0085108
0.0505114
-0.00820292
0.0502315
-0.00808302
0.0495919
-0.00815106
0.0485726
-0.00880413
0.0472655
-0.00990615
0.0456206
-0.0120185
0.0441345
-0.0140131
0.0427206
-0.0175454
0.0424072
-0.019731
0.0434287
-0.0239584
0.0465855
-0.0247402
0.0522972
-0.0276702
0.0607436
-0.0257727
0.0722697
-0.0254772
-0.0188433
0.0866882
0.0466933
0.00720166
-0.0463618
0.0470949
0.006072
0.0475674
0.00520903
0.0480311
0.00412525
0.0486779
0.00295294
0.0490829
0.00167021
0.049741
0.000265211
0.0501346
-0.00105178
0.0507998
-0.00283955
0.0511559
-0.00391729
0.0516197
-0.00563565
0.0518986
-0.0066459
0.0521104
-0.00813687
0.0522812
-0.00888477
0.0521873
-0.00993984
0.0521671
-0.010266
0.0519636
-0.0108869
0.0518038
-0.0106763
0.0514615
-0.0108437
0.0513181
-0.0103532
0.0510194
-0.0102032
0.0510111
-0.00967112
0.0508906
-0.00937166
0.0509732
-0.00894726
0.0510051
-0.00854264
0.0509958
-0.00819361
0.0508322
-0.00791942
0.0504247
-0.00774361
0.0495156
-0.00789501
0.0481092
-0.00849977
0.0460941
-0.0100034
0.0438285
-0.0117474
0.0410997
-0.0148167
0.0388903
-0.0175216
0.0367045
-0.0217726
0.0367074
-0.0247432
0.037744
-0.0287067
0.0424506
-0.0304793
0.049087
-0.0321136
-0.031524
0.0617677
0.0482435
0.00679854
-0.0478403
0.0486278
0.00568766
0.0491303
0.00470648
0.0495632
0.00369239
0.0501943
0.00232183
0.0506453
0.00121918
0.0512912
-0.000380667
0.0518577
-0.00161829
0.0522871
-0.00326889
0.0528532
-0.00448346
0.0530967
-0.00587915
0.0535088
-0.00705796
0.0534975
-0.00812559
0.0536575
-0.00904479
0.0534071
-0.00968939
0.0533432
-0.0102021
0.0528748
-0.0104185
0.0526731
-0.0104746
0.0521949
-0.0103655
0.0519651
-0.0101234
0.0515902
-0.00982824
0.0515211
-0.00960203
0.0514145
-0.00926506
0.0515304
-0.00906322
0.0516843
-0.00869647
0.0518411
-0.00835048
0.0518414
-0.00791964
0.0517037
-0.00760591
0.0511587
-0.00735009
0.0501043
-0.00744538
0.0481248
-0.00802382
0.0456464
-0.00926902
0.0419462
-0.0111165
0.0383286
-0.0139041
0.0334514
-0.0168953
0.0297836
-0.0210754
0.025491
-0.0244141
0.0238169
-0.0288052
0.0212506
-0.0295473
-0.0313562
0.0210828
0.0489555
0.00606603
-0.048223
0.0496221
0.00502108
0.0503783
0.00395029
0.0511503
0.00292039
0.0517485
0.00172362
0.0524604
0.000507317
0.0529206
-0.000840841
0.0536203
-0.00231809
0.0539722
-0.0036207
0.0544735
-0.00498478
0.0546479
-0.00605362
0.0548901
-0.00730009
0.0548202
-0.0080557
0.0547574
-0.00898199
0.054464
-0.00939594
0.0541853
-0.00992354
0.0536849
-0.0099181
0.053292
-0.0100816
0.0527643
-0.0098378
0.0523894
-0.00974857
0.0520203
-0.0094591
0.0518502
-0.00943195
0.0518412
-0.00925605
0.0520018
-0.00922382
0.052305
-0.00899967
0.052728
-0.00877347
0.0530642
-0.00825591
0.0533547
-0.00789632
0.0532899
-0.00728532
0.052908
-0.00706345
0.0517152
-0.00683109
0.0496962
-0.00724997
0.0463306
-0.00775092
0.0417582
-0.00933174
0.035984
-0.0111211
0.0290162
-0.0141076
0.0212167
-0.0166146
0.0125421
-0.0201307
0.00117739
-0.0181825
-0.018425
-0.0117539
0.0503099
0.00550406
-0.0497479
0.0508985
0.00443243
0.0515538
0.003295
0.052408