/*--------------------------------*- C++ -*----------------------------------*\
  =========                 |
  \\      /  F ield         | OpenFOAM: The Open Source CFD Toolbox
   \\    /   O peration     | Website:  https://openfoam.org
    \\  /    A nd           | Version:  10
     \\/     M anipulation  |
\*---------------------------------------------------------------------------*/
FoamFile
{
    format      ascii;
    class       volScalarField;
    location    "0.896456";
    object      p;
}
// * * * * * * * * * * * * * * * * * * * * * * * * * * * * * * * * * * * * * //

dimensions      [1 -1 -2 0 0 0 0];

internalField   nonuniform List<scalar> 
15984
(
2.35904
2.36237
2.36647
2.37113
2.37649
2.38235
2.38881
2.39571
2.40305
2.41073
2.4187
2.42688
2.4352
2.44357
2.45194
2.46024
2.4684
2.47639
2.48414
2.49164
2.49885
2.50576
2.51236
2.51864
2.5246
2.53026
2.53562
2.54069
2.54549
2.55004
2.55434
2.55842
2.56229
2.56597
2.56945
2.57276
2.5759
2.57888
2.58171
2.58439
2.58692
2.5893
2.59154
2.59365
2.59562
2.59746
2.59918
2.60079
2.60228
2.60368
2.605
2.60624
2.60743
2.60858
2.36242
2.36553
2.36932
2.37377
2.37884
2.38449
2.39069
2.3974
2.40455
2.41207
2.41991
2.42799
2.43624
2.44458
2.45295
2.46127
2.46949
2.47756
2.48543
2.49306
2.50043
2.5075
2.51427
2.52073
2.52687
2.53269
2.53822
2.54344
2.54837
2.55303
2.55743
2.56157
2.56548
2.56915
2.57261
2.57585
2.57889
2.58173
2.58438
2.58684
2.5891
2.59119
2.5931
2.59483
2.59638
2.59778
2.59902
2.60011
2.60107
2.60191
2.60265
2.60331
2.60391
2.60447
2.36539
2.36826
2.37183
2.37601
2.38088
2.38631
2.39232
2.39885
2.40583
2.41322
2.42095
2.42895
2.43715
2.44547
2.45386
2.46223
2.47052
2.4787
2.48669
2.49447
2.50199
2.50924
2.51619
2.52284
2.52916
2.53517
2.54087
2.54625
2.55133
2.55611
2.56061
2.56483
2.56878
2.57247
2.5759
2.57909
2.58204
2.58474
2.58722
2.58946
2.59147
2.59326
2.59483
2.59618
2.59732
2.59826
2.59901
2.59958
2.6
2.60027
2.60042
2.60047
2.60046
2.60041
2.36792
2.37058
2.37394
2.37792
2.38258
2.3878
2.39367
2.40004
2.40689
2.41417
2.42181
2.42976
2.43793
2.44626
2.45467
2.4631
2.47149
2.47977
2.4879
2.49584
2.50354
2.51097
2.51811
2.52495
2.53148
2.53768
2.54356
2.54911
2.55434
2.55926
2.56387
2.56817
2.57218
2.57589
2.57931
2.58246
2.58532
2.5879
2.59021
2.59224
2.594
2.5955
2.59673
2.59771
2.59843
2.59891
2.59917
2.59921
2.59907
2.59875
2.5983
2.59773
2.59709
2.59639
2.37
2.37247
2.37564
2.37944
2.38392
2.38901
2.3947
2.40095
2.4077
2.4149
2.42249
2.4304
2.43857
2.44692
2.45538
2.46389
2.47238
2.48079
2.48907
2.49717
2.50505
2.51268
2.52002
2.52707
2.5338
2.5402
2.54627
2.552
2.5574
2.56246
2.56719
2.57158
2.57566
2.5794
2.58283
2.58593
2.58872
2.59118
2.59333
2.59517
2.59669
2.59789
2.59879
2.59939
2.5997
2.59972
2.59949
2.59899
2.59828
2.59737
2.59629
2.59509
2.59379
2.59242
2.3716
2.37391
2.3769
2.38057
2.38489
2.38986
2.39544
2.40158
2.40826
2.4154
2.42296
2.43087
2.43905
2.44745
2.45598
2.46458
2.47319
2.48174
2.49018
2.49845
2.50652
2.51435
2.52191
2.52916
2.5361
2.54271
2.54898
2.5549
2.56047
2.56568
2.57054
2.57505
2.5792
2.58299
2.58642
2.5895
2.59222
2.59458
2.59658
2.59823
2.59951
2.60044
2.60101
2.60124
2.60113
2.6007
2.59995
2.59891
2.59762
2.59611
2.5944
2.59253
2.59055
2.5885
2.37275
2.37485
2.37773
2.38125
2.38548
2.39035
2.39584
2.40193
2.40856
2.41568
2.42323
2.43115
2.43938
2.44784
2.45645
2.46517
2.4739
2.48261
2.49122
2.49968
2.50794
2.51598
2.52375
2.53122
2.53838
2.5452
2.55168
2.5578
2.56355
2.56892
2.57392
2.57854
2.58278
2.58662
2.59008
2.59315
2.59581
2.59808
2.59994
2.60141
2.60246
2.60311
2.60337
2.60324
2.60271
2.60181
2.60056
2.59898
2.59711
2.59497
2.59261
2.59006
2.58737
2.5846
2.37332
2.3753
2.37807
2.3815
2.38564
2.39044
2.39589
2.40194
2.40856
2.41569
2.42328
2.43125
2.43954
2.44808
2.4568
2.46563
2.47451
2.48337
2.49216
2.50081
2.50929
2.51754
2.52554
2.53324
2.54062
2.54766
2.55435
2.56067
2.56661
2.57215
2.5773
2.58205
2.58638
2.5903
2.59379
2.59685
2.59948
2.60166
2.6034
2.60469
2.60553
2.60592
2.60586
2.60538
2.60444
2.60307
2.60132
2.59919
2.59673
2.59397
2.59093
2.58768
2.58426
2.58073
2.37335
2.37521
2.37789
2.38127
2.38537
2.39016
2.39562
2.40169
2.40835
2.41554
2.42319
2.43123
2.43961
2.44826
2.4571
2.46606
2.47508
2.4841
2.49306
2.50189
2.51057
2.51903
2.52725
2.53518
2.54279
2.55006
2.55697
2.5635
2.56963
2.57536
2.58067
2.58555
2.58999
2.59398
2.59752
2.6006
2.6032
2.60531
2.60694
2.60807
2.60871
2.60884
2.6085
2.60765
2.6063
2.60449
2.60223
2.59956
2.5965
2.59309
2.58937
2.58538
2.58119
2.57688
2.37272
2.37456
2.37719
2.38059
2.38473
2.38956
2.39507
2.40121
2.40793
2.41518
2.42291
2.43105
2.43954
2.4483
2.45728
2.46639
2.47558
2.48477
2.49391
2.50294
2.51181
2.52047
2.52889
2.53704
2.54489
2.55239
2.55953
2.56627
2.5726
2.57852
2.58399
2.58902
2.59358
2.59767
2.60127
2.60437
2.60696
2.60902
2.61055
2.61154
2.61198
2.61189
2.61126
2.61006
2.60831
2.60605
2.6033
2.60008
2.59642
2.59235
2.58791
2.58319
2.57817
2.57309
2.37149
2.37334
2.37601
2.37947
2.38363
2.38853
2.3941
2.40032
2.40714
2.41449
2.42234
2.4306
2.43922
2.44813
2.45726
2.46654
2.47591
2.48529
2.49463
2.50386
2.51295
2.52183
2.53047
2.53884
2.5469
2.55463
2.562
2.56896
2.57551
2.58162
2.58727
2.59246
2.59715
2.60135
2.60502
2.60816
2.61075
2.61277
2.61423
2.61509
2.61536
2.61506
2.61415
2.61261
2.61048
2.60778
2.60454
2.60076
2.59649
2.59176
2.5866
2.58109
2.57528
2.56941
2.36961
2.37152
2.3742
2.37772
2.38198
2.38697
2.39268
2.39903
2.40599
2.41349
2.42148
2.4299
2.43868
2.44776
2.45707
2.46653
2.47608
2.48566
2.49521
2.50466
2.51397
2.52308
2.53195
2.54055
2.54883
2.55677
2.56437
2.57156
2.57833
2.58464
2.59048
2.59583
2.60068
2.60499
2.60875
2.61195
2.61456
2.61657
2.61796
2.61872
2.61884
2.61834
2.61716
2.61531
2.61281
2.60969
2.60595
2.60162
2.59671
2.59134
2.58543
2.57915
2.57258
2.56592
2.36699
2.36889
2.37175
2.37537
2.37977
2.38492
2.39078
2.3973
2.40444
2.41212
2.4203
2.4289
2.43788
2.44715
2.45665
2.46631
2.47607
2.48586
2.49562
2.5053
2.51483
2.52418
2.53329
2.54212
2.55064
2.55882
2.56663
2.57405
2.58104
2.58757
2.59361
2.59914
2.60414
2.60859
2.61246
2.61573
2.61838
2.6204
2.62175
2.62243
2.62241
2.62174
2.62032
2.61817
2.61532
2.61178
2.60756
2.60268
2.59719
2.59109
2.58446
2.5774
2.57031
2.56242
2.36346
2.36551
2.36853
2.37235
2.37695
2.3823
2.38837
2.39511
2.40246
2.41036
2.41876
2.42759
2.43678
2.44626
2.45598
2.46587
2.47585
2.48586
2.49585
2.50576
2.51554
2.52512
2.53447
2.54355
2.55232
2.56074
2.56878
2.57642
2.58364
2.59039
2.59664
2.60236
2.60754
2.61213
2.61613
2.6195
2.62221
2.62425
2.62559
2.62621
2.62609
2.62526
2.62362
2.6212
2.61801
2.61407
2.60938
2.60396
2.59791
2.59104
2.58384
2.57616
2.5686
2.55923
2.35901
2.36126
2.36452
2.3686
2.37345
2.37906
2.3854
2.3924
2.40002
2.40818
2.41683
2.42591
2.43534
2.44508
2.45504
2.46516
2.47538
2.48564
2.49587
2.50602
2.51604
2.52588
2.53549
2.54482
2.55384
2.56251
2.57079
2.57866
2.58612
2.5931
2.59957
2.60549
2.61085
2.61562
2.61976
2.62324
2.62604
2.62813
2.62948
2.63007
2.62988
2.62891
2.62708
2.62441
2.6209
2.61658
2.61145
2.60549
2.59892
2.59153
2.58351
2.57501
2.56602
2.55599
2.35354
2.35612
2.3597
2.36404
2.36925
2.37518
2.38184
2.38915
2.39707
2.40553
2.41447
2.42383
2.43354
2.44354
2.45377
2.46415
2.47463
2.48515
2.49564
2.50605
2.51633
2.52643
2.5363
2.54589
2.55518
2.56411
2.57265
2.58077
2.58845
2.59567
2.60237
2.60851
2.61408
2.61903
2.62333
2.62696
2.62987
2.63204
2.63343
2.63401
2.63377
2.6327
2.6307
2.62781
2.62402
2.61933
2.61377
2.60729
2.60032
2.59237
2.5835
2.57246
2.56085
2.54723
2.34711
2.35018
2.3539
2.35874
2.36428
2.37061
2.37763
2.38529
2.39356
2.40237
2.41164
2.42132
2.43133
2.44162
2.45213
2.4628
2.47356
2.48435
2.49512
2.50581
2.51637
2.52675
2.53689
2.54676
2.55632
2.56552
2.57433
2.58272
2.59064
2.5981
2.60504
2.61142
2.6172
2.62235
2.62685
2.63064
2.63369
2.63597
2.63743
2.63804
2.63777
2.63662
2.63449
2.6314
2.62735
2.62232
2.61637
2.60942
2.60197
2.59251
2.58211
2.56813
2.55731
2.54709
2.33991
2.3431
2.34749
2.35259
2.35859
2.36537
2.37278
2.38083
2.38952
2.39865
2.40832
2.41834
2.42868
2.43928
2.4501
2.46107
2.47213
2.48322
2.49429
2.50527
2.51613
2.5268
2.53724
2.54741
2.55726
2.56674
2.57584
2.58449
2.59268
2.60039
2.60758
2.61421
2.62022
2.6256
2.6303
2.63428
2.6375
2.63992
2.64148
2.64214
2.64188
2.64068
2.63843
2.63516
2.63087
2.62552
2.6192
2.6118
2.60216
2.59017
2.57819
2.5698
2.55591
2.54235
2.33148
2.33513
2.34002
2.34585
2.35242
2.35959
2.36744
2.37581
2.38478
2.39438
2.40438
2.41484
2.42552
2.43649
2.44763
2.45891
2.4703
2.4817
2.49309
2.5044
2.51557
2.52656
2.53732
2.5478
2.55796
2.56776
2.57715
2.58609
2.59456
2.60253
2.60998
2.61686
2.62313
2.62875
2.63368
2.63789
2.6413
2.64389
2.64557
2.64632
2.64608
2.64484
2.64249
2.63905
2.63451
2.62894
2.62224
2.61327
2.60223
2.59817
2.58428
2.56865
2.55505
2.54059
2.32299
2.32675
2.33236
2.3386
2.34562
2.35333
2.36167
2.37053
2.37975
2.3896
2.40006
2.41076
2.42185
2.43317
2.44468
2.4563
2.46801
2.47975
2.49149
2.50313
2.51467
2.526
2.5371
2.54792
2.55842
2.56854
2.57825
2.58751
2.59627
2.60452
2.61223
2.61939
2.62592
2.6318
2.63699
2.64143
2.64507
2.64785
2.64969
2.65053
2.65033
2.64905
2.64658
2.64298
2.63823
2.63252
2.62539
2.61576
2.61301
2.59437
2.58056
2.56751
2.55255
2.53655
2.31304
2.31633
2.32316
2.33135
2.33875
2.34662
2.35546
2.36473
2.37435
2.38454
2.39516
2.40619
2.41761
2.42934
2.44117
2.45315
2.46524
2.47734
2.48944
2.50145
2.51335
2.52507
2.53655
2.54775
2.55861
2.56909
2.57915
2.58874
2.59781
2.60635
2.61434
2.62177
2.62858
2.63473
2.64019
2.6449
2.64879
2.65178
2.65378
2.65473
2.65456
2.65322
2.65062
2.64681
2.64186
2.63562
2.62689
2.62095
2.60934
2.59628
2.58132
2.56618
2.5499
2.53279
2.30241
2.30695
2.31349
2.32472
2.32967
2.3391
2.34897
2.35851
2.36864
2.37904
2.39003
2.40134
2.41294
2.42487
2.43715
2.4495
2.46195
2.47443
2.4869
2.49931
2.5116
2.52373
2.53563
2.54724
2.55851
2.5694
2.57983
2.58978
2.59918
2.60802
2.61629
2.62398
2.63107
2.63751
2.64325
2.64824
2.65239
2.6556
2.65778
2.65882
2.65864
2.65722
2.65447
2.65049
2.64495
2.63679
2.63072
2.62128
2.6099
2.59601
2.58074
2.56459
2.54746
2.52951
2.29365
2.29921
2.30629
2.3166
2.32105
2.32971
2.34186
2.35226
2.36278
2.37347
2.38452
2.39604
2.40789
2.42008
2.43257
2.44528
2.45808
2.47094
2.48383
2.49666
2.50939
2.52197
2.53432
2.54638
2.5581
2.56942
2.58028
2.59061
2.60037
2.60952
2.61805
2.626
2.63335
2.64007
2.64609
2.65137
2.65578
2.65922
2.66155
2.66266
2.66245
2.66091
2.65808
2.65356
2.64608
2.64056
2.63231
2.62213
2.60986
2.59555
2.57981
2.56312
2.54554
2.52751
2.28588
2.29128
2.2985
2.30699
2.31347
2.32274
2.33545
2.34514
2.35667
2.36781
2.37906
2.39064
2.40263
2.41493
2.42761
2.44056
2.45369
2.46691
2.48019
2.4935
2.50668
2.51972
2.53257
2.54512
2.55734
2.56914
2.58045
2.59121
2.60135
2.61082
2.61961
2.62775
2.63534
2.6423
2.6486
2.65416
2.65883
2.66247
2.66493
2.66607
2.66579
2.6642
2.66094
2.65463
2.65013
2.64313
2.63394
2.62284
2.60974
2.59489
2.57881
2.56202
2.54491
2.52769
2.27784
2.28396
2.29086
2.29914
2.30774
2.31801
2.32788
2.33683
2.35005
2.36168
2.37297
2.38468
2.39674
2.40923
2.42211
2.43532
2.44873
2.46232
2.47601
2.48973
2.50338
2.51694
2.53031
2.5434
2.55615
2.56848
2.5803
2.59153
2.60207
2.61187
2.62091
2.6292
2.63689
2.64407
2.65063
2.65647
2.66139
2.66521
2.66775
2.66888
2.66852
2.66624
2.66152
2.65858
2.65292
2.64519
2.6353
2.62332
2.60948
2.59412
2.57796
2.56184
2.5458
2.52332
2.2728
2.2783
2.28502
2.29286
2.30148
2.31079
2.32067
2.33086
2.34341
2.35485
2.36634
2.37815
2.39037
2.40302
2.4161
2.4295
2.44318
2.4571
2.47119
2.48534
2.49951
2.51358
2.52749
2.54114
2.55446
2.56735
2.57971
2.59143
2.60241
2.61255
2.62181
2.63022
2.63797
2.64527
2.65207
2.65819
2.66333
2.66727
2.66984
2.67085
2.66987
2.66886
2.66572
2.66127
2.65512
2.64677
2.63615
2.62346
2.60909
2.59358
2.57781
2.56259
2.54243
2.52356
2.26896
2.27426
2.28049
2.28787
2.2958
2.30451
2.31417
2.32472
2.33627
2.34784
2.35947
2.37144
2.38388
2.39662
2.40972
2.42322
2.4371
2.45129
2.46572
2.48032
2.49497
2.50957
2.52402
2.53824
2.55213
2.5656
2.57851
2.59076
2.60221
2.61274
2.62224
2.63075
2.63855
2.64588
2.65285
2.65917
2.66443
2.66842
2.67091
2.67125
2.67237
2.67108
2.66794
2.66332
2.65659
2.64756
2.63631
2.62317
2.60868
2.59366
2.57819
2.55994
2.5428
2.52483
2.26721
2.27204
2.27765
2.28384
2.29096
2.29883
2.30816
2.31785
2.32913
2.34067
2.35231
2.36433
2.37675
2.38953
2.40274
2.41637
2.43043
2.44485
2.45961
2.4746
2.48974
2.50487
2.51985
2.53459
2.54901
2.56306
2.57651
2.58931
2.60136
2.61239
2.62224
2.63078
2.6386
2.64596
2.65287
2.65919
2.66453
2.66844
2.6702
2.67373
2.67361
2.67217
2.6693
2.66436
2.65709
2.64751
2.63588
2.62267
2.60876
2.59462
2.58025
2.56357
2.54622
2.52756
2.26696
2.27078
2.27541
2.28096
2.28723
2.29444
2.30204
2.31105
2.32222
2.3335
2.34515
2.35714
2.36949
2.38219
2.3954
2.40912
2.42329
2.43788
2.45287
2.46823
2.48381
2.49945
2.51491
2.53004
2.545
2.55961
2.57363
2.58703
2.59994
2.61168
2.62206
2.63029
2.638
2.64531
2.65213
2.65834
2.66355
2.66663
2.67148
2.67324
2.67352
2.67259
2.66964
2.66437
2.65669
2.64675
2.635
2.62239
2.60963
2.59708
2.58232
2.56642
2.54829
2.52948
2.26933
2.27193
2.27538
2.27961
2.28453
2.28999
2.29667
2.30562
2.31545
2.32627
2.3376
2.34949
2.36177
2.37457
2.38775
2.40145
2.41562
2.43031
2.4454
2.46097
2.47692
2.49328
2.50909
2.52447
2.53977
2.55558
2.57075
2.58529
2.59862
2.61148
2.62137
2.62913
2.63663
2.64382
2.65058
2.65654
2.6608
2.66499
2.66951
2.67189
2.67286
2.67199
2.66889
2.66335
2.65539
2.64534
2.63396
2.6227
2.6133
2.59894
2.58326
2.56736
2.54978
2.53307
2.27027
2.27128
2.27326
2.27614
2.2801
2.28577
2.29298
2.30101
2.31021
2.32038
2.33069
2.34173
2.35358
2.36607
2.37927
2.39297
2.40724
2.42181
2.43672
2.45211
2.46797
2.48587
2.50283
2.5196
2.53587
2.55143
2.56741
2.58302
2.5976
2.61063
2.61977
2.62702
2.63424
2.6413
2.64784
2.65302
2.65631
2.66292
2.66703
2.66991
2.67096
2.67015
2.66699
2.66135
2.65338
2.64352
2.63267
2.62279
2.61632
2.59537
2.58303
2.56772
2.55246
2.53608
2.27457
2.27411
2.27463
2.27601
2.2785
2.28223
2.28742
2.2936
2.30202
2.31226
2.32266
2.3337
2.34511
2.35737
2.37074
2.38481
2.3995
2.41491
2.43101
2.44702
2.46334
2.47822
2.49506
2.51242
2.52984
2.54703
2.56398
2.58035
2.59548
2.60864
2.61637
2.62341
2.63051
2.6372
2.64298
2.6467
2.65407
2.65925
2.66356
2.66656
2.66772
2.66699
2.66394
2.65848
2.6508
2.64141
2.63128
2.62104
2.61047
2.59817
2.58419
2.56951
2.55552
2.53918
2.27987
2.27885
2.27878
2.27965
2.28149
2.28442
2.28831
2.29321
2.29804
2.30314
2.3111
2.32054
2.33082
2.34237
2.35533
2.36958
2.38468
2.40064
2.41726
2.43427
2.45152
2.46872
2.48671
2.50512
2.52357
2.54168
2.55927
2.57606
2.59152
2.60394
2.61041
2.61794
2.62473
2.63052
2.63492
2.64322
2.64894
2.65397
2.65834
2.66148
2.66283
2.66237
2.65963
2.65453
2.64725
2.63823
2.6284
2.61763
2.60986
2.6002
2.58282
2.57071
2.55629
2.54259
2.28403
2.28097
2.27898
2.27801
2.27802
2.27902
2.28115
2.28425
2.28766
2.2919
2.29782
2.30524
2.31457
2.32555
2.33846
2.35279
2.36842
2.38496
2.40231
2.4205
2.43929
2.45818
2.4775
2.49684
2.51584
2.53448
2.5525
2.56974
2.58496
2.59512
2.60306
2.61057
2.61602
2.61964
2.63001
2.6365
2.6419
2.64688
2.65121
2.65458
2.6563
2.65626
2.6541
2.64974
2.64331
2.6352
2.62619
2.61608
2.60975
2.59876
2.58245
2.57072
2.55803
2.54493
2.286
2.28075
2.27646
2.27306
2.27059
2.26921
2.26913
2.2704
2.27316
2.27755
2.28373
2.29171
2.30128
2.31244
2.3264
2.34125
2.35662
2.37286
2.39018
2.40835
2.42709
2.4469
2.46713
2.48681
2.50609
2.52477
2.54287
2.55994
2.57657
2.5843
2.59416
2.60072
2.6038
2.61165
2.62027
2.62786
2.63299
2.6378
2.64215
2.64581
2.64806
2.6486
2.6473
2.64393
2.63861
2.63168
2.62369
2.61522
2.60842
2.59273
2.58276
2.57151
2.55952
2.54757
2.28786
2.28182
2.27649
2.27214
2.26876
2.26642
2.26535
2.26571
2.26762
2.27122
2.27644
2.28335
2.29178
2.30165
2.31222
2.32494
2.33985
2.35651
2.37462
2.394
2.41427
2.43481
2.45552
2.47528
2.4945
2.51296
2.53195
2.54905
2.56074
2.57398
2.58331
2.58929
2.59195
2.60139
2.61029
2.61652
2.62212
2.62703
2.63134
2.63518
2.63805
2.63927
2.63889
2.63664
2.63253
2.6268
2.61982
2.61192
2.6026
2.59365
2.58088
2.57226
2.56173
2.54924
2.2908
2.28357
2.27696
2.27155
2.26724
2.264
2.26205
2.26151
2.26222
2.26476
2.2687
2.27457
2.28298
2.29259
2.30392
2.31687
2.33144
2.34752
2.36491
2.38323
2.40216
2.42218
2.44253
2.46204
2.48092
2.49844
2.51835
2.53937
2.55094
2.56323
2.57062
2.57443
2.5814
2.58996
2.59723
2.6037
2.60954
2.61465
2.61905
2.62292
2.62622
2.62823
2.62872
2.62765
2.62491
2.62057
2.61468
2.6073
2.59884
2.58983
2.57965
2.57282
2.56426
2.54833
2.29481
2.28663
2.27895
2.27201
2.26639
2.26189
2.25874
2.25708
2.25704
2.25891
2.26294
2.26904
2.27666
2.28518
2.29661
2.30957
2.32381
2.3392
2.35539
2.37176
2.3902
2.40917
2.42762
2.4443
2.46514
2.48733
2.50344
2.52001
2.53711
2.55065
2.55679
2.56096
2.5675
2.57569
2.58284
2.58954
2.59551
2.60083
2.60548
2.60946
2.6129
2.61561
2.61686
2.61684
2.61532
2.61237
2.60804
2.60244
2.59583
2.58835
2.57938
2.56869
2.55823
2.54802
2.30021
2.29138
2.28287
2.27467
2.26784
2.2618
2.25824
2.25568
2.25475
2.25577
2.25913
2.26474
2.27237
2.28001
2.29089
2.30353
2.3172
2.3313
2.34476
2.36602
2.38566
2.39673
2.41148
2.42791
2.45569
2.46979
2.49563
2.50878
2.52308
2.52952
2.53921
2.5464
2.55406
2.56059
2.56778
2.57428
2.58032
2.58581
2.59078
2.5951
2.59873
2.60169
2.60371
2.60448
2.60403
2.60226
2.5992
2.59499
2.58984
2.58385
2.5768
2.56894
2.55982
2.54989
2.30667
2.29741
2.2884
2.27956
2.27083
2.26339
2.26207
2.25775
2.25578
2.25591
2.25868
2.26273
2.2704
2.27835
2.28816
2.30043
2.3155
2.3296
2.34644
2.35572
2.36814
2.38056
2.39752
2.40737
2.43288
2.46051
2.47819
2.49035
2.50826
2.52082
2.51865
2.53324
2.53763
2.54528
2.55183
2.55827
2.56432
2.57
2.57517
2.57985
2.58386
2.58707
2.58951
2.59099
2.59139
2.59072
2.58889
2.58604
2.58226
2.57758
2.57198
2.56559
2.55832
2.55021
2.31414
2.30473
2.29551
2.2865
2.27795
2.26985
2.26385
2.26276
2.26009
2.25983
2.26299
2.26808
2.2747
2.28234
2.29295
2.29977
2.31059
2.3228
2.33651
2.35191
2.36335
2.36882
2.38775
2.41716
2.43225
2.45333
2.46808
2.47543
2.49457
2.50238
2.5039
2.51465
2.52105
2.52872
2.53543
2.54184
2.54781
2.55362
2.5589
2.56389
2.56828
2.57176
2.57458
2.57649
2.57757
2.57785
2.57724
2.57578
2.57353
2.5705
2.56663
2.5619
2.55624
2.54959
2.32223
2.31294
2.30379
2.29485
2.28623
2.27862
2.27048
2.26541
2.26916
2.26644
2.26854
2.27018
2.27782
2.2831
2.29181
2.29983
2.30949
2.32388
2.33465
2.34377
2.35561
2.37902
2.39705
2.41106
2.42678
2.44691
2.45717
2.46429
2.47515
2.48243
2.49048
2.50009
2.50583
2.51252
2.51897
2.5251
2.53105
2.53675
2.54218
2.54725
2.55167
2.55565
2.55863
2.56104
2.56256
2.56354
2.56393
2.56383
2.56312
2.56185
2.55993
2.55722
2.55347
2.54851
2.33058
2.32154
2.31263
2.30397
2.29561
2.28777
2.28094
2.27507
2.27653
2.27448
2.27621
2.27919
2.28418
2.29
2.29612
2.30332
2.31066
2.31801
2.32949
2.34979
2.36446
2.37785
2.39254
2.40523
2.41838
2.43817
2.43927
2.44952
2.45833
2.47049
2.47604
2.48381
2.49017
2.49645
2.50266
2.50852
2.51427
2.51979
2.52502
2.52991
2.53435
2.53829
2.5416
2.54431
2.54634
2.54781
2.54901
2.55005
2.55091
2.55155
2.55181
2.55134
2.54968
2.54648
2.3388
2.32991
2.32131
2.31267
2.30543
2.29671
2.29113
2.2857
2.28266
2.28472
2.28132
2.2834
2.28761
2.29219
2.29777
2.30598
2.31494
2.32813
2.33904
2.35175
2.36383
2.3743
2.38773
2.40879
2.41236
2.42198
2.42986
2.43565
2.44856
2.45512
2.46221
2.46884
2.47502
2.48107
2.48678
2.49232
2.49769
2.50279
2.50765
2.51217
2.5163
2.52
2.52324
2.52602
2.5284
2.53039
2.53233
2.5344
2.53677
2.53952
2.54239
2.5447
2.54546
2.5443
2.34649
2.33791
2.32921
2.32153
2.31417
2.30659
2.30124
2.29693
2.29515
2.29372
2.29396
2.2951
2.29874
2.3037
2.30872
2.31495
2.32275
2.33187
2.3418
2.35378
2.36667
2.38347
2.38026
2.38745
2.40811
2.41228
2.42218
2.42676
2.4374
2.44294
2.44943
2.45555
2.46105
2.4665
2.47183
2.47677
2.48153
2.48603
2.49023
2.49411
2.49762
2.50083
2.50361
2.50617
2.50849
2.51088
2.5135
2.51669
2.52059
2.52549
2.53135
2.5374
2.54134
2.54235
2.35358
2.34492
2.33666
2.32901
2.32229
2.31646
2.31029
2.30633
2.30423
2.30258
2.30261
2.30397
2.30692
2.31074
2.31521
2.32084
2.3278
2.33716
2.3497
2.36131
2.36581
2.37307
2.38088
2.38606
2.40006
2.40555
2.41389
2.41926
2.42673
2.43248
2.43816
2.44366
2.44856
2.45337
2.45793
2.46218
2.46609
2.46971
2.47295
2.47589
2.4785
2.48073
2.48278
2.48464
2.48671
2.48911
2.49235
2.49669
2.50241
2.50961
2.51903
2.52961
2.53819
2.54168
2.36007
2.35149
2.34338
2.33585
2.32946
2.32344
2.31893
2.31536
2.31312
2.31171
2.31182
2.31323
2.31698
2.32124
2.32639
2.3327
2.33967
2.34649
2.35236
2.36016
2.36564
2.37171
2.38018
2.38437
2.39693
2.40116
2.40734
2.41292
2.41866
2.42388
2.42888
2.43343
2.43775
2.44171
2.4455
2.44888
2.45157
2.45418
2.45599
2.45778
2.45903
2.46001
2.4608
2.46175
2.46309
2.46539
2.46897
2.47463
2.48236
2.49234
2.50575
2.52175
2.53678
2.54381
2.36663
2.35821
2.35024
2.34296
2.33663
2.33148
2.32719
2.32436
2.32258
2.32202
2.32213
2.32311
2.32414
2.32721
2.33158
2.33708
2.34329
2.34963
2.35565
2.36132
2.36835
2.37336
2.38001
2.38534
2.39239
2.39804
2.40309
2.40812
2.4129
2.41737
2.42153
2.42537
2.42888
2.43186
2.4346
2.43679
2.43834
2.43955
2.44006
2.44014
2.43977
2.43904
2.43837
2.43801
2.43857
2.44022
2.44446
2.45093
2.46065
2.47439
2.49217
2.51483
2.53824
2.55111
2.37368
2.36552
2.3579
2.35075
2.34473
2.33959
2.33576
2.33281
2.33096
2.33036
2.33034
2.3311
2.33245
2.33511
2.33888
2.34354
2.34881
2.35431
2.36
2.36427
2.36977
2.37565
2.38056
2.38631
2.39142
2.39637
2.40088
2.40519
2.40924
2.41302
2.41638
2.41942
2.42201
2.42404
2.42561
2.4265
2.42674
2.42629
2.42513
2.42339
2.42116
2.41865
2.416
2.41476
2.41424
2.41567
2.41959
2.4274
2.44005
2.45828
2.48184
2.51112
2.54416
2.56619
2.38073
2.37265
2.36519
2.35849
2.35254
2.34726
2.34381
2.34108
2.33903
2.33909
2.33883
2.33964
2.34055
2.34287
2.34618
2.35036
2.35467
2.35934
2.36409
2.36856
2.37344
2.37827
2.38287
2.38761
2.39215
2.39646
2.40051
2.40434
2.40754
2.41075
2.41352
2.4157
2.41737
2.41837
2.41867
2.41821
2.41687
2.41471
2.41176
2.40818
2.40422
2.39991
2.39556
2.39281
2.39156
2.39276
2.39705
2.40736
2.42427
2.44734
2.47508
2.50732
2.54445
2.57823
2.38747
2.37938
2.37207
2.36557
2.35988
2.35469
2.3515
2.34832
2.34686
2.34683
2.34656
2.34734
2.3483
2.35057
2.35339
2.35681
2.36097
2.36484
2.36927
2.37337
2.3778
2.38207
2.38636
2.39044
2.39448
2.39828
2.40185
2.40531
2.40818
2.4107
2.41281
2.41427
2.41476
2.41484
2.41399
2.41208
2.40932
2.40541
2.40052
2.39514
2.38918
2.38326
2.37758
2.37358
2.37199
2.37317
2.37946
2.3923
2.41233
2.4375
2.46632
2.49729
2.52826
2.56015
2.39354
2.38541
2.37812
2.37174
2.36621
2.36163
2.3581
2.35543
2.35429
2.35376
2.35377
2.35448
2.35585
2.35781
2.36051
2.3637
2.36724
2.37094
2.37488
2.37883
2.38287
2.38687
2.39082
2.39465
2.39836
2.40189
2.4052
2.40814
2.41051
2.41261
2.41407
2.4148
2.41473
2.41372
2.41168
2.40845
2.40401
2.39847
2.39199
2.38466
2.37691
2.36917
2.36227
2.35731
2.35533
2.35714
2.36436
2.37862
2.39844
2.42254
2.44903
2.47523
2.4987
2.52129
2.39887
2.39065
2.38341
2.37715
2.37184
2.36754
2.36424
2.36188
2.36085
2.36042
2.36048
2.36146
2.36284
2.36494
2.36747
2.37051
2.37381
2.37734
2.38102
2.3848
2.38869
2.39248
2.39633
2.39997
2.40357
2.40693
2.41005
2.41278
2.41496
2.41661
2.41741
2.4175
2.41669
2.41478
2.4117
2.40719
2.40138
2.39422
2.38596
2.37683
2.36725
2.35813
2.34982
2.3438
2.34128
2.3431
2.3504
2.36376
2.38227
2.40407
2.42697
2.44761
2.46305
2.47193
2.40343
2.39516
2.38795
2.3819
2.37668
2.37274
2.3697
2.36773
2.36686
2.36663
2.36698
2.36801
2.3696
2.37174
2.37431
2.37727
2.38048
2.38391
2.38751
2.3913
2.3951
2.3989
2.40274
2.40628
2.40993
2.41316
2.41624
2.41885
2.42091
2.42224
2.42273
2.42233
2.42081
2.41801
2.41381
2.40821
2.40113
2.39252
2.3827
2.37204
2.36063
2.34987
2.34039
2.33294
2.32963
2.33021
2.33654
2.34824
2.36464
2.38388
2.40338
2.42006
2.42913
2.42169
2.6097
2.6108
2.6119
2.61299
2.61408
2.61513
2.61613
2.61711
2.61807
2.619
2.6199
2.62073
2.62149
2.62217
2.62272
2.62314
2.62339
2.62347
2.62334
2.62297
2.605
2.60553
2.60607
2.60664
2.60725
2.60788
2.60851
2.60913
2.60978
2.61046
2.61117
2.61188
2.61259
2.61327
2.61391
2.61446
2.61492
2.61524
2.61541
2.61536
2.60033
2.60026
2.60022
2.60023
2.60031
2.60047
2.60071
2.60099
2.60132
2.60173
2.60223
2.60282
2.60348
2.60417
2.6049
2.60561
2.60629
2.60689
2.60737
2.60771
2.59568
2.59498
2.59433
2.59375
2.59327
2.59291
2.5927
2.59262
2.59263
2.59276
2.59304
2.5935
2.5941
2.59483
2.59566
2.59655
2.59746
2.59835
2.59919
2.59993
2.59104
2.58968
2.58838
2.58717
2.58609
2.58518
2.58446
2.58396
2.58366
2.58352
2.58358
2.58387
2.58441
2.58517
2.58611
2.58719
2.58837
2.58958
2.5908
2.59195
2.58642
2.58436
2.58236
2.58048
2.57876
2.57724
2.57597
2.57498
2.5743
2.5739
2.57375
2.57389
2.57434
2.57513
2.57618
2.57748
2.5789
2.58049
2.58204
2.5837
2.58178
2.57899
2.57626
2.57365
2.57124
2.56906
2.56719
2.56566
2.56453
2.56381
2.56346
2.56346
2.56382
2.56461
2.56577
2.56727
2.56897
2.57091
2.57291
2.57508
2.57713
2.57355
2.57007
2.56668
2.56353
2.56063
2.5581
2.55598
2.55434
2.55322
2.55262
2.5525
2.55278
2.55354
2.55478
2.55639
2.55839
2.56066
2.56324
2.566
2.57248
2.56809
2.56378
2.55961
2.55561
2.55193
2.54875
2.54599
2.54376
2.5422
2.54127
2.54099
2.54123
2.54194
2.54303
2.54479
2.54697
2.54965
2.55285
2.55623
2.56778
2.56267
2.55737
2.5525
2.5476
2.54311
2.53919
2.53578
2.53297
2.5309
2.52965
2.52911
2.52925
2.5296
2.5307
2.53202
2.53451
2.53769
2.54133
2.54604
2.56325
2.55721
2.55089
2.54526
2.53959
2.53406
2.52986
2.52547
2.52228
2.51969
2.51811
2.51729
2.51731
2.51781
2.51805
2.51717
2.52163
2.52382
2.52853
2.53503
2.55899
2.55179
2.54465
2.53771
2.53141
2.5248
2.52041
2.51555
2.5115
2.50809
2.50573
2.50436
2.50411
2.50542
2.50687
2.50373
2.50725
2.51014
2.51513
2.52641
2.5551
2.54629
2.53803
2.53054
2.52281
2.51542
2.50886
2.50306
2.49837
2.49449
2.49107
2.4884
2.48678
2.48644
2.4873
2.48864
2.4907
2.49559
2.4996
2.50434
2.55122
2.54062
2.53113
2.52156
2.51247
2.50543
2.4982
2.49063
2.48366
2.47782
2.47308
2.46958
2.46736
2.4664
2.46692
2.46867
2.47239
2.4779
2.48181
2.49107
2.54338
2.53375
2.52541
2.51516
2.50437
2.49406
2.48428
2.47527
2.46742
2.461
2.45596
2.45219
2.44987
2.44839
2.44874
2.45035
2.45395
2.46041
2.46764
2.4692
2.54001
2.52873
2.51769
2.50576
2.49314
2.48123
2.47042
2.46082
2.45243
2.44551
2.43974
2.43573
2.43296
2.43147
2.43147
2.43274
2.4359
2.44138
2.44862
2.45597
2.53468
2.52245
2.50903
2.49522
2.48174
2.46899
2.4575
2.44723
2.43803
2.43039
2.42381
2.41965
2.41658
2.41514
2.41502
2.41604
2.41911
2.42393
2.43017
2.43841
2.52905
2.51516
2.50046
2.48576
2.47125
2.45755
2.44474
2.43383
2.42384
2.41544
2.40826
2.40411
2.40104
2.39964
2.39964
2.4008
2.40375
2.4086
2.41517
2.4226
2.52502
2.50904
2.49274
2.47676
2.46141
2.44595
2.43248
2.42014
2.40973
2.40088
2.39373
2.38889
2.38603
2.38494
2.38528
2.38659
2.38924
2.39509
2.40083
2.40743
2.51979
2.50261
2.48537
2.46817
2.45185
2.43554
2.42038
2.4071
2.39673
2.38743
2.38007
2.37518
2.37249
2.37169
2.37243
2.37405
2.37676
2.38234
2.38741
2.39448
2.51502
2.49685
2.47896
2.46069
2.4446
2.4272
2.41054
2.39573
2.38271
2.37318
2.36641
2.36211
2.36005
2.35983
2.3611
2.36295
2.36643
2.37045
2.37574
2.38305
2.51109
2.49246
2.47545
2.4546
2.43307
2.415
2.39899
2.38444
2.37174
2.36175
2.35471
2.35045
2.34861
2.34854
2.35032
2.35299
2.35564
2.35966
2.36532
2.37316
2.50934
2.48888
2.4663
2.44648
2.42689
2.40827
2.39095
2.37516
2.36166
2.35104
2.34365
2.33939
2.33778
2.338
2.33951
2.34314
2.34576
2.35
2.35628
2.36512
2.505
2.48412
2.46294
2.44293
2.42233
2.4019
2.38333
2.36673
2.35266
2.34167
2.33412
2.3299
2.32833
2.32872
2.33049
2.33311
2.33654
2.34173
2.34935
2.35997
2.50385
2.48347
2.46142
2.43982
2.41892
2.39874
2.37929
2.3617
2.34694
2.33546
2.32758
2.32306
2.32131
2.32116
2.32268
2.32613
2.3307
2.33735
2.34678
2.3594
2.50421
2.48287
2.4623
2.44031
2.41835
2.39751
2.37783
2.36014
2.34503
2.33324
2.32505
2.32025
2.31853
2.31909
2.32092
2.32429
2.33019
2.33855
2.34961
2.36411
2.50526
2.48486
2.46307
2.44172
2.42061
2.39997
2.38033
2.36246
2.3471
2.33524
2.32725
2.3226
2.32116
2.32209
2.32554
2.33013
2.33671
2.34609
2.35865
2.37522
2.50722
2.48734
2.4665
2.44619
2.42582
2.40575
2.3865
2.3688
2.35394
2.34214
2.33494
2.33086
2.32962
2.33118
2.33495
2.34046
2.34843
2.35909
2.3728
2.39006
2.51102
2.49165
2.47147
2.45249
2.43313
2.41397
2.3956
2.37892
2.3646
2.35347
2.34661
2.34293
2.34217
2.34408
2.34825
2.35471
2.36385
2.37582
2.39064
2.40893
2.51478
2.49682
2.47761
2.45985
2.44145
2.42363
2.40677
2.39118
2.37966
2.36819
2.36125
2.35845
2.35818
2.36052
2.36567
2.37314
2.38344
2.39649
2.41238
2.43097
2.51894
2.50203
2.4843
2.46737
2.45006
2.43404
2.41924
2.40585
2.39493
2.38516
2.3795
2.37692
2.37723
2.38098
2.38616
2.39413
2.40475
2.41757
2.4325
2.45049
2.52303
2.50701
2.491
2.47403
2.45843
2.44361
2.43
2.41824
2.40846
2.40154
2.39654
2.39431
2.39648
2.39984
2.40535
2.41354
2.42437
2.43764
2.45283
2.4702
2.52779
2.51219
2.49708
2.48105
2.46685
2.45333
2.44162
2.43059
2.42206
2.41497
2.41198
2.41128
2.4128
2.4169
2.42289
2.43145
2.44238
2.45578
2.47086
2.48778
2.53075
2.51629
2.50197
2.48768
2.47447
2.4622
2.45147
2.44211
2.43432
2.42939
2.42677
2.42679
2.42922
2.4335
2.44013
2.44904
2.46038
2.47366
2.48813
2.50463
2.53471
2.51997
2.50677
2.49339
2.48128
2.47025
2.46062
2.45229
2.44592
2.44205
2.44073
2.44154
2.44448
2.4495
2.45671
2.46601
2.47743
2.4905
2.50494
2.52039
2.53742
2.52318
2.51148
2.49816
2.48743
2.4772
2.46864
2.46136
2.45617
2.45359
2.45325
2.45484
2.45848
2.46421
2.47187
2.48149
2.49303
2.50604
2.52022
2.53519
2.54121
2.52296
2.51537
2.50163
2.493
2.48358
2.47516
2.4688
2.46501
2.46343
2.46415
2.4666
2.47105
2.47763
2.48558
2.49564
2.50747
2.52075
2.53446
2.54886
2.53709
2.52705
2.51745
2.50878
2.50031
2.48826
2.48148
2.47433
2.47247
2.47179
2.47388
2.47683
2.48208
2.48971
2.49802
2.50791
2.52014
2.53353
2.54645
2.55995
2.53934
2.5273
2.52077
2.50757
2.50031
2.4915
2.47969
2.47871
2.4761
2.4759
2.47918
2.48245
2.48993
2.49802
2.50667
2.51733
2.5291
2.54151
2.55594
2.57048
2.5413
2.5321
2.52285
2.51344
2.50368
2.49728
2.49142
2.48579
2.4855
2.48626
2.48814
2.49318
2.50019
2.50895
2.5193
2.53042
2.54326
2.55653
2.57024
2.58363
2.54192