/*--------------------------------*- C++ -*----------------------------------*\
  =========                 |
  \\      /  F ield         | OpenFOAM: The Open Source CFD Toolbox
   \\    /   O peration     | Website:  https://openfoam.org
    \\  /    A nd           | Version:  10
     \\/     M anipulation  |
\*---------------------------------------------------------------------------*/
FoamFile
{
    format      ascii;
    class       volVectorField;
    location    "0.896456";
    object      U;
}
// * * * * * * * * * * * * * * * * * * * * * * * * * * * * * * * * * * * * * //

dimensions      [0 1 -1 0 0 0 0];

internalField   nonuniform List<vector> 
15984
(
(0.630188 -0.095215 0)
(0.620602 -0.0942299 0)
(0.610525 -0.093118 0)
(0.599989 -0.09176 0)
(0.589027 -0.0903079 0)
(0.577695 -0.0886696 0)
(0.566009 -0.0869916 0)
(0.554099 -0.0852237 0)
(0.54191 -0.0834126 0)
(0.529592 -0.0815796 0)
(0.517185 -0.0797498 0)
(0.504751 -0.0779451 0)
(0.492354 -0.0761862 0)
(0.480058 -0.074494 0)
(0.467924 -0.0728869 0)
(0.456007 -0.0713815 0)
(0.444359 -0.0699934 0)
(0.433026 -0.0687356 0)
(0.422049 -0.0676191 0)
(0.411462 -0.0666525 0)
(0.401297 -0.0658421 0)
(0.391577 -0.0651918 0)
(0.382324 -0.0647033 0)
(0.373553 -0.0643757 0)
(0.365276 -0.0642059 0)
(0.357502 -0.0641884 0)
(0.350238 -0.064316 0)
(0.343487 -0.0645788 0)
(0.337253 -0.0649646 0)
(0.331538 -0.0654594 0)
(0.326343 -0.0660464 0)
(0.32167 -0.0667075 0)
(0.31752 -0.0674221 0)
(0.313895 -0.0681674 0)
(0.310796 -0.0689184 0)
(0.308225 -0.0696486 0)
(0.306184 -0.0703293 0)
(0.304675 -0.0709304 0)
(0.303699 -0.0714196 0)
(0.30326 -0.071763 0)
(0.303357 -0.0719244 0)
(0.30399 -0.0718691 0)
(0.305156 -0.0715586 0)
(0.306852 -0.0709526 0)
(0.309072 -0.0700117 0)
(0.311808 -0.0686953 0)
(0.315045 -0.0669631 0)
(0.318768 -0.0647743 0)
(0.322958 -0.0620901 0)
(0.327589 -0.0588723 0)
(0.332635 -0.0550862 0)
(0.338063 -0.0506997 0)
(0.343836 -0.0456851 0)
(0.349915 -0.0400192 0)
(0.63109 -0.0847658 0)
(0.621741 -0.0836362 0)
(0.611813 -0.0822897 0)
(0.601432 -0.0808378 0)
(0.590603 -0.0792342 0)
(0.579346 -0.077575 0)
(0.567735 -0.0758247 0)
(0.555833 -0.0740839 0)
(0.543681 -0.0723225 0)
(0.531355 -0.0705778 0)
(0.518913 -0.0688729 0)
(0.506422 -0.0672291 0)
(0.493948 -0.0656656 0)
(0.481557 -0.0642004 0)
(0.46931 -0.0628505 0)
(0.457265 -0.0616312 0)
(0.445475 -0.0605557 0)
(0.433989 -0.0596354 0)
(0.42285 -0.0588795 0)
(0.412096 -0.0582951 0)
(0.401759 -0.057887 0)
(0.391867 -0.0576576 0)
(0.382443 -0.057607 0)
(0.373503 -0.0577331 0)
(0.365063 -0.0580315 0)
(0.357134 -0.0584959 0)
(0.349723 -0.0591174 0)
(0.342837 -0.0598855 0)
(0.336482 -0.0607873 0)
(0.330662 -0.0618077 0)
(0.32538 -0.0629295 0)
(0.320639 -0.0641337 0)
(0.316443 -0.0653987 0)
(0.312795 -0.066701 0)
(0.3097 -0.0680147 0)
(0.30716 -0.0693127 0)
(0.305179 -0.0705654 0)
(0.303763 -0.0717413 0)
(0.302915 -0.0728067 0)
(0.302638 -0.0737264 0)
(0.302935 -0.074464 0)
(0.303805 -0.0749818 0)
(0.30525 -0.0752386 0)
(0.307267 -0.0751931 0)
(0.309849 -0.0748028 0)
(0.312988 -0.0740244 0)
(0.316671 -0.0728143 0)
(0.320882 -0.0711287 0)
(0.325598 -0.0689244 0)
(0.330794 -0.0661606 0)
(0.336439 -0.0627973 0)
(0.342497 -0.0587995 0)
(0.348927 -0.0541342 0)
(0.355687 -0.0487757 0)
(0.632269 -0.0745514 0)
(0.623066 -0.0731446 0)
(0.613308 -0.0716242 0)
(0.603029 -0.0699461 0)
(0.592274 -0.0682626 0)
(0.581091 -0.0664716 0)
(0.569487 -0.0647275 0)
(0.55759 -0.0629429 0)
(0.545405 -0.0612208 0)
(0.533026 -0.059558 0)
(0.520513 -0.0579752 0)
(0.50793 -0.056491 0)
(0.495346 -0.0551233 0)
(0.482826 -0.0538881 0)
(0.470435 -0.0528001 0)
(0.458232 -0.0518724 0)
(0.446273 -0.0511162 0)
(0.434609 -0.0505408 0)
(0.423286 -0.0501538 0)
(0.412344 -0.04996 0)
(0.401817 -0.0499626 0)
(0.391735 -0.0501622 0)
(0.382123 -0.0505574 0)
(0.373 -0.0511445 0)
(0.364383 -0.0519181 0)
(0.356285 -0.0528707 0)
(0.348716 -0.0539927 0)
(0.341686 -0.0552726 0)
(0.335201 -0.0566966 0)
(0.329267 -0.0582492 0)
(0.32389 -0.0599125 0)
(0.319075 -0.0616668 0)
(0.314827 -0.0634896 0)
(0.311152 -0.065357 0)
(0.308055 -0.0672428 0)
(0.305543 -0.069119 0)
(0.303621 -0.0709549 0)
(0.302296 -0.0727181 0)
(0.301574 -0.0743742 0)
(0.301461 -0.0758862 0)
(0.301959 -0.0772177 0)
(0.303072 -0.0783266 0)
(0.304801 -0.0791711 0)
(0.307146 -0.0797076 0)
(0.3101 -0.079891 0)
(0.313655 -0.0796744 0)
(0.317799 -0.0790113 0)
(0.322516 -0.0778542 0)
(0.327781 -0.0761571 0)
(0.333568 -0.0738721 0)
(0.339842 -0.0709569 0)
(0.346565 -0.0673723 0)
(0.353692 -0.0630791 0)
(0.361175 -0.0580455 0)
(0.633739 -0.0644713 0)
(0.624679 -0.062784 0)
(0.615024 -0.060984 0)
(0.604804 -0.059142 0)
(0.594093 -0.0572431 0)
(0.582898 -0.0553969 0)
(0.571286 -0.0535501 0)
(0.559361 -0.0517776 0)
(0.547085 -0.0500831 0)
(0.534615 -0.0484923 0)
(0.521987 -0.0470247 0)
(0.509271 -0.0456977 0)
(0.496538 -0.0445261 0)
(0.483856 -0.0435235 0)
(0.471288 -0.0427021 0)
(0.458898 -0.0420726 0)
(0.446743 -0.041644 0)
(0.434877 -0.0414232 0)
(0.423347 -0.041415 0)
(0.412195 -0.0416219 0)
(0.401458 -0.0420449 0)
(0.391168 -0.0426829 0)
(0.381352 -0.043533 0)
(0.372031 -0.04459 0)
(0.363223 -0.0458474 0)
(0.354945 -0.0472965 0)
(0.347208 -0.048927 0)
(0.340024 -0.0507264 0)
(0.3334 -0.0526804 0)
(0.327345 -0.0547729 0)
(0.321865 -0.0569854 0)
(0.316969 -0.0592975 0)
(0.312663 -0.0616866 0)
(0.308955 -0.0641286 0)
(0.305852 -0.0665966 0)
(0.303363 -0.0690617 0)
(0.301496 -0.0714931 0)
(0.300259 -0.0738574 0)
(0.299662 -0.0761191 0)
(0.29971 -0.078241 0)
(0.30041 -0.0801837 0)
(0.301767 -0.0819044 0)
(0.303785 -0.0833587 0)
(0.306462 -0.0845007 0)
(0.309796 -0.0852829 0)
(0.313779 -0.0856545 0)
(0.318398 -0.0855691 0)
(0.323637 -0.0849688 0)
(0.329473 -0.0838046 0)
(0.335877 -0.082029 0)
(0.34281 -0.0795919 0)
(0.350233 -0.0764478 0)
(0.358098 -0.072554 0)
(0.36635 -0.0678699 0)
(0.635557 -0.054499 0)
(0.626593 -0.0525006 0)
(0.616991 -0.050391 0)
(0.606814 -0.0483444 0)
(0.596063 -0.0462311 0)
(0.58483 -0.0442728 0)
(0.573152 -0.0423084 0)
(0.561103 -0.0405246 0)
(0.548733 -0.0388461 0)
(0.536122 -0.0373232 0)
(0.523335 -0.0359707 0)
(0.510445 -0.0348024 0)
(0.497523 -0.0338308 0)
(0.48464 -0.0330668 0)
(0.471862 -0.0325198 0)
(0.459254 -0.0321976 0)
(0.446875 -0.0321064 0)
(0.434781 -0.0322503 0)
(0.423021 -0.0326311 0)
(0.411638 -0.0332494 0)
(0.400672 -0.034104 0)
(0.390157 -0.0351919 0)
(0.380121 -0.0365079 0)
(0.370588 -0.0380459 0)
(0.361578 -0.0397975 0)
(0.353108 -0.0417531 0)
(0.345194 -0.0439013 0)
(0.337845 -0.0462292 0)
(0.331074 -0.048722 0)
(0.324889 -0.0513628 0)
(0.3193 -0.0541327 0)
(0.314316 -0.0570115 0)
(0.309945 -0.0599763 0)
(0.306197 -0.0630026 0)
(0.303082 -0.0660632 0)
(0.30061 -0.0691291 0)
(0.298792 -0.0721692 0)
(0.297639 -0.0751494 0)
(0.297161 -0.0780328 0)
(0.297367 -0.0807828 0)
(0.298267 -0.0833567 0)
(0.299867 -0.0857107 0)
(0.302174 -0.0877986 0)
(0.305187 -0.0895721 0)
(0.308906 -0.0909828 0)
(0.313322 -0.0919761 0)
(0.318428 -0.0924933 0)
(0.324211 -0.0924823 0)
(0.330636 -0.091884 0)
(0.337679 -0.0906519 0)
(0.345302 -0.0887279 0)
(0.35346 -0.0860584 0)
(0.362103 -0.0825952 0)
(0.371171 -0.0782911 0)
(0.637754 -0.0446448 0)
(0.628851 -0.0422305 0)
(0.619243 -0.0398251 0)
(0.60903 -0.0374586 0)
(0.598228 -0.0351896 0)
(0.586887 -0.0330194 0)
(0.575098 -0.0309925 0)
(0.562887 -0.0291421 0)
(0.550346 -0.0274762 0)
(0.537543 -0.0260161 0)
(0.524549 -0.0247758 0)
(0.51144 -0.0237666 0)
(0.498288 -0.0229989 0)
(0.485166 -0.0224807 0)
(0.472143 -0.0222184 0)
(0.459285 -0.0222161 0)
(0.446654 -0.0224762 0)
(0.434306 -0.0229994 0)
(0.422293 -0.0237837 0)
(0.410659 -0.0248262 0)
(0.399446 -0.0261237 0)
(0.388689 -0.0276716 0)
(0.378418 -0.0294637 0)
(0.36866 -0.0314925 0)
(0.359436 -0.0337486 0)
(0.350765 -0.036221 0)
(0.342662 -0.0388974 0)
(0.335141 -0.041764 0)
(0.328214 -0.0448051 0)
(0.321893 -0.0480035 0)
(0.316187 -0.0513404 0)
(0.311106 -0.0547955 0)
(0.306663 -0.0583456 0)
(0.302868 -0.0619665 0)
(0.299733 -0.065631 0)
(0.297271 -0.0693103 0)
(0.295494 -0.0729728 0)
(0.294418 -0.0765838 0)
(0.294052 -0.0801068 0)
(0.29441 -0.0835036 0)
(0.295504 -0.0867301 0)
(0.297344 -0.0897412 0)
(0.299937 -0.0924886 0)
(0.303283 -0.0949257 0)
(0.307387 -0.0969958 0)
(0.312249 -0.0986394 0)
(0.317856 -0.0997922 0)
(0.324189 -0.100406 0)
(0.331223 -0.100418 0)
(0.338927 -0.099767 0)
(0.347268 -0.0983941 0)
(0.356196 -0.0962387 0)
(0.365656 -0.0932425 0)
(0.375583 -0.089349 0)
(0.640412 -0.0348058 0)
(0.631487 -0.0319437 0)
(0.621837 -0.0291929 0)
(0.611521 -0.026482 0)
(0.600572 -0.0239964 0)
(0.589097 -0.021614 0)
(0.577099 -0.0194716 0)
(0.564688 -0.0175566 0)
(0.551924 -0.0158948 0)
(0.53888 -0.0145014 0)
(0.525632 -0.0133838 0)
(0.512256 -0.012547 0)
(0.498829 -0.0119953 0)
(0.485425 -0.0117315 0)
(0.472118 -0.011758 0)
(0.458975 -0.0120763 0)
(0.44606 -0.0126872 0)
(0.433432 -0.0135907 0)
(0.421143 -0.0147865 0)
(0.409241 -0.0162707 0)
(0.397763 -0.0180352 0)
(0.386749 -0.0200697 0)
(0.37623 -0.0223618 0)
(0.366234 -0.0249009 0)
(0.356785 -0.0276769 0)
(0.347902 -0.0306792 0)
(0.339603 -0.0338956 0)
(0.331902 -0.0373117 0)
(0.324812 -0.0409116 0)
(0.318346 -0.0446779 0)
(0.312515 -0.0485919 0)
(0.307332 -0.0526331 0)
(0.302809 -0.0567788 0)
(0.298958 -0.0610051 0)
(0.295794 -0.0652854 0)
(0.293332 -0.0695907 0)
(0.291587 -0.0738897 0)
(0.290577 -0.0781473 0)
(0.290313 -0.0823286 0)
(0.290814 -0.0863922 0)
(0.292094 -0.0902944 0)
(0.294166 -0.0939883 0)
(0.297035 -0.0974258 0)
(0.300711 -0.10056 0)
(0.305206 -0.103318 0)
(0.310517 -0.105643 0)
(0.316628 -0.107478 0)
(0.323522 -0.108759 0)
(0.331179 -0.109421 0)
(0.339568 -0.109398 0)
(0.348651 -0.108621 0)
(0.358377 -0.107021 0)
(0.368685 -0.104531 0)
(0.379495 -0.101085 0)
(0.643535 -0.0249327 0)
(0.634538 -0.0216092 0)
(0.62478 -0.0184066 0)
(0.614297 -0.015414 0)
(0.603167 -0.0126271 0)
(0.591481 -0.0101175 0)
(0.579224 -0.00787762 0)
(0.566533 -0.00591826 0)
(0.553471 -0.00424521 0)
(0.54012 -0.00288555 0)
(0.526559 -0.001856 0)
(0.512868 -0.00116644 0)
(0.499123 -0.000821532 0)
(0.485402 -0.000821816 0)
(0.471777 -0.00116455 0)
(0.458318 -0.0018443 0)
(0.44509 -0.00285349 0)
(0.432151 -0.00418239 0)
(0.419553 -0.00580679 0)
(0.407346 -0.00771449 0)
(0.39558 -0.00991287 0)
(0.384296 -0.0124051 0)
(0.373524 -0.0151874 0)
(0.363289 -0.0182444 0)
(0.353611 -0.0215558 0)
(0.344511 -0.0251039 0)
(0.336008 -0.0288741 0)
(0.32812 -0.0328522 0)
(0.32086 -0.0370225 0)
(0.314242 -0.0413677 0)
(0.308279 -0.0458691 0)
(0.302984 -0.0505066 0)
(0.298371 -0.0552586 0)
(0.294456 -0.0601012 0)
(0.291252 -0.0650089 0)
(0.288779 -0.069953 0)
(0.287053 -0.0749033 0)
(0.286095 -0.0798247 0)
(0.28592 -0.0846831 0)
(0.28655 -0.0894356 0)
(0.288004 -0.0940385 0)
(0.290295 -0.0984434 0)
(0.293429 -0.102608 0)
(0.297433 -0.106463 0)
(0.302319 -0.109948 0)
(0.308073 -0.112998 0)
(0.314689 -0.115559 0)
(0.322154 -0.117554 0)
(0.330447 -0.118914 0)
(0.339534 -0.119567 0)
(0.349378 -0.11943 0)
(0.359916 -0.11843 0)
(0.371068 -0.116473 0)
(0.382757 -0.113497 0)
(0.647191 -0.0150078 0)
(0.638077 -0.0112002 0)
(0.628101 -0.00753188 0)
(0.617392 -0.00416208 0)
(0.605995 -0.00101318 0)
(0.594002 0.0018199 0)
(0.581449 0.00431565 0)
(0.568422 0.00642265 0)
(0.555002 0.00811553 0)
(0.54128 0.00940288 0)
(0.527344 0.0102896 0)
(0.513276 0.0107805 0)
(0.499159 0.010881 0)
(0.485069 0.010597 0)
(0.471081 0.00993524 0)
(0.457267 0.00890317 0)
(0.443691 0.00750877 0)
(0.430414 0.00576044 0)
(0.417494 0.00365361 0)
(0.404987 0.00119635 0)
(0.392936 -0.00158296 0)
(0.381372 -0.00464969 0)
(0.370316 -0.00795861 0)
(0.359813 -0.0115315 0)
(0.349893 -0.0153764 0)
(0.34057 -0.0194776 0)
(0.33186 -0.0238138 0)
(0.32378 -0.0283664 0)
(0.316344 -0.0331189 0)
(0.309568 -0.0380543 0)
(0.303465 -0.0431541 0)
(0.298051 -0.0483989 0)
(0.293339 -0.0537675 0)
(0.289347 -0.0592371 0)
(0.286091 -0.0647837 0)
(0.283592 -0.0703795 0)
(0.281871 -0.0759955 0)
(0.280949 -0.0815979 0)
(0.280847 -0.0871531 0)
(0.28159 -0.0926178 0)
(0.283201 -0.097948 0)
(0.28569 -0.103097 0)
(0.289083 -0.108019 0)
(0.293407 -0.112632 0)
(0.29867 -0.116886 0)
(0.304865 -0.120712 0)
(0.311984 -0.124044 0)
(0.320023 -0.126806 0)
(0.328957 -0.128921 0)
(0.338753 -0.13029 0)
(0.34935 -0.130837 0)
(0.360679 -0.130453 0)
(0.372616 -0.12904 0)
(0.385045 -0.126501 0)
(0.651385 -0.00494335 0)
(0.642106 -0.000506402 0)
(0.631895 0.00373778 0)
(0.620815 0.00754825 0)
(0.60907 0.0110136 0)
(0.59669 0.0140132 0)
(0.583714 0.016602 0)
(0.57027 0.0187371 0)
(0.556436 0.020417 0)
(0.542299 0.0216399 0)
(0.527945 0.0224054 0)
(0.513459 0.0227165 0)
(0.498927 0.0225805 0)
(0.484431 0.0220074 0)
(0.470047 0.0210098 0)
(0.455849 0.0196012 0)
(0.441904 0.0177968 0)
(0.428273 0.0156121 0)
(0.415013 0.0130644 0)
(0.402171 0.0101703 0)
(0.389789 0.00694434 0)
(0.377906 0.00339018 0)
(0.366574 -0.000508386 0)
(0.355813 -0.00469218 0)
(0.345629 -0.00910712 0)
(0.336066 -0.0137749 0)
(0.327141 -0.0186892 0)
(0.318865 -0.0238295 0)
(0.311249 -0.0291766 0)
(0.30431 -0.0347135 0)
(0.298062 -0.0404223 0)
(0.29252 -0.0462842 0)
(0.2877 -0.0522791 0)
(0.283619 -0.0583858 0)
(0.280298 -0.0645818 0)
(0.277756 -0.0708418 0)
(0.276021 -0.0771378 0)
(0.275115 -0.0834393 0)
(0.275065 -0.0897118 0)
(0.275901 -0.095914 0)
(0.277646 -0.102001 0)
(0.280315 -0.107931 0)
(0.28395 -0.11364 0)
(0.28858 -0.119061 0)
(0.294206 -0.12413 0)
(0.300829 -0.128783 0)
(0.308447 -0.132942 0)
(0.317054 -0.13652 0)
(0.326632 -0.139439 0)
(0.337115 -0.14157 0)
(0.348418 -0.142824 0)
(0.360429 -0.143027 0)
(0.372964 -0.142114 0)
(0.385862 -0.139893 0)
(0.656258 0.00540581 0)
(0.646653 0.0104755 0)
(0.636045 0.0151878 0)
(0.624609 0.0194465 0)
(0.612438 0.0232522 0)
(0.599577 0.0265855 0)
(0.586153 0.0293541 0)
(0.572208 0.0316312 0)
(0.557871 0.0333459 0)
(0.543231 0.034516 0)
(0.528379 0.0351503 0)
(0.513405 0.0352604 0)
(0.498397 0.0348619 0)
(0.48344 0.0339721 0)
(0.468613 0.0326094 0)
(0.453989 0.0307933 0)
(0.439637 0.0285431 0)
(0.42562 0.0258791 0)
(0.411993 0.0228208 0)
(0.398806 0.0193883 0)
(0.386102 0.0156027 0)
(0.373922 0.0114857 0)
(0.362295 0.00706093 0)
(0.351248 0.00233113 0)
(0.340833 -0.00271595 0)
(0.331023 -0.00798677 0)
(0.321862 -0.0134942 0)
(0.313375 -0.0192348 0)
(0.305573 -0.0251885 0)
(0.298464 -0.0313365 0)
(0.292063 -0.0376619 0)
(0.286384 -0.0441479 0)
(0.281444 -0.0507762 0)
(0.277261 -0.0575278 0)
(0.273855 -0.0643826 0)
(0.271252 -0.071318 0)
(0.269481 -0.0783083 0)
(0.268568 -0.0853265 0)
(0.268544 -0.092338 0)
(0.269447 -0.0993039 0)
(0.271296 -0.106179 0)
(0.274124 -0.112923 0)
(0.277981 -0.119462 0)
(0.282892 -0.125736 0)
(0.288862 -0.131676 0)
(0.295898 -0.137208 0)
(0.304009 -0.142255 0)
(0.313168 -0.146701 0)
(0.323346 -0.150459 0)
(0.334439 -0.15335 0)
(0.346314 -0.155276 0)
(0.358752 -0.155952 0)
(0.371507 -0.155408 0)
(0.384291 -0.153146 0)
(0.661741 0.0159283 0)
(0.651766 0.0217583 0)
(0.64075 0.0270363 0)
(0.628764 0.0318649 0)
(0.616098 0.0360597 0)
(0.602687 0.0396915 0)
(0.588664 0.0426697 0)
(0.574173 0.0450241 0)
(0.559238 0.0467441 0)
(0.544024 0.0478387 0)
(0.528611 0.0483215 0)
(0.513092 0.0482115 0)
(0.497558 0.0475298 0)
(0.482095 0.046301 0)
(0.466784 0.0445505 0)
(0.4517 0.042304 0)
(0.43691 0.0395881 0)
(0.422479 0.0364273 0)
(0.40846 0.0328471 0)
(0.394904 0.0288724 0)
(0.381854 0.0245268 0)
(0.369348 0.0198326 0)
(0.357419 0.0148112 0)
(0.346093 0.00948675 0)
(0.335384 0.00388537 0)
(0.325361 -0.00202636 0)
(0.315978 -0.00815731 0)
(0.307277 -0.0145163 0)
(0.299284 -0.0210954 0)
(0.292004 -0.0278736 0)
(0.285447 -0.0348321 0)
(0.279624 -0.041955 0)
(0.274552 -0.0492273 0)
(0.27025 -0.0566331 0)
(0.266743 -0.0641565 0)
(0.264057 -0.0717787 0)
(0.262225 -0.0794773 0)
(0.261276 -0.0872295 0)
(0.26125 -0.0950026 0)
(0.262188 -0.10276 0)
(0.264112 -0.110457 0)
(0.267067 -0.118051 0)
(0.271116 -0.125469 0)
(0.276278 -0.132644 0)
(0.282569 -0.139511 0)
(0.289994 -0.145982 0)
(0.298568 -0.151968 0)
(0.308238 -0.157325 0)
(0.31894 -0.161936 0)
(0.330448 -0.165484 0)
(0.342588 -0.167958 0)
(0.354925 -0.168687 0)
(0.367333 -0.168341 0)
(0.378959 -0.165459 0)
(0.667913 0.0268714 0)
(0.657397 0.0335048 0)
(0.645814 0.0394276 0)
(0.633323 0.0447817 0)
(0.619987 0.049446 0)
(0.605935 0.0533477 0)
(0.591263 0.056562 0)
(0.576085 0.0589994 0)
(0.56051 0.0607238 0)
(0.544653 0.0617335 0)
(0.528613 0.062049 0)
(0.512488 0.0616979 0)
(0.496373 0.060709 0)
(0.480357 0.0591147 0)
(0.46452 0.056948 0)
(0.44894 0.0542414 0)
(0.433684 0.0510276 0)
(0.418812 0.0473385 0)
(0.404382 0.0432035 0)
(0.390442 0.0386517 0)
(0.377034 0.0337114 0)
(0.364196 0.0284085 0)
(0.35196 0.0227678 0)
(0.340351 0.0168128 0)
(0.329393 0.0105656 0)
(0.319091 0.00405549 0)
(0.309521 -0.00274736 0)
(0.300603 -0.00974128 0)
(0.292399 -0.016948 0)
(0.284929 -0.024356 0)
(0.278201 -0.0319464 0)
(0.272223 -0.0397051 0)
(0.267008 -0.0476207 0)
(0.262575 -0.0556824 0)
(0.258949 -0.0638775 0)
(0.256156 -0.0721933 0)
(0.254234 -0.0806109 0)
(0.253217 -0.0891123 0)
(0.253152 -0.0976683 0)
(0.254085 -0.106244 0)
(0.256043 -0.1148 0)
(0.259087 -0.123286 0)
(0.263289 -0.13163 0)
(0.268666 -0.139768 0)
(0.27524 -0.147619 0)
(0.283021 -0.155089 0)
(0.292008 -0.162052 0)
(0.302066 -0.168304 0)
(0.313112 -0.173659 0)
(0.324631 -0.17761 0)
(0.336602 -0.18038 0)
(0.347913 -0.180834 0)
(0.358953 -0.179747 0)
(0.368298 -0.176033 0)
(0.674435 0.0383143 0)
(0.663338 0.0457147 0)
(0.651139 0.0524284 0)
(0.63799 0.0583175 0)
(0.623959 0.0634326 0)
(0.609188 0.0676903 0)
(0.593783 0.0710943 0)
(0.577879 0.0736456 0)
(0.561586 0.0753646 0)
(0.545021 0.0762721 0)
(0.528296 0.076398 0)
(0.511513 0.0757789 0)
(0.49477 0.0744526 0)
(0.478157 0.0724596 0)
(0.46176 0.0698413 0)
(0.445652 0.0666391 0)
(0.429904 0.0628924 0)
(0.414576 0.0586404 0)
(0.399719 0.0539202 0)
(0.385383 0.0487632 0)
(0.371609 0.043202 0)
(0.35843 0.0372671 0)
(0.345878 0.0309868 0)
(0.333979 0.0243869 0)
(0.322755 0.0174922 0)
(0.312221 0.0103264 0)
(0.30238 0.00291757 0)
(0.293304 -0.00475568 0)
(0.28491 -0.0126182 0)
(0.277252 -0.0206803 0)
(0.270348 -0.0289262 0)
(0.264204 -0.0373397 0)
(0.25883 -0.0459115 0)
(0.254244 -0.0546356 0)
(0.25047 -0.0635076 0)
(0.247541 -0.0725214 0)
(0.245491 -0.081667 0)
(0.244365 -0.0909314 0)
(0.244215 -0.100292 0)
(0.245094 -0.109716 0)
(0.247037 -0.119166 0)
(0.250119 -0.128587 0)
(0.254419 -0.137914 0)
(0.259961 -0.147075 0)
(0.266772 -0.155976 0)
(0.274845 -0.16449 0)
(0.284142 -0.172435 0)
(0.294381 -0.179458 0)
(0.30541 -0.185319 0)
(0.316149 -0.189251 0)
(0.326845 -0.191654 0)
(0.336395 -0.191079 0)
(0.344673 -0.187736 0)
(0.350291 -0.184473 0)
(0.680562 0.0502256 0)
(0.66891 0.0585877 0)
(0.656091 0.0660193 0)
(0.642272 0.0725861 0)
(0.627565 0.0781436 0)
(0.61205 0.0827569 0)
(0.5959 0.0863745 0)
(0.579244 0.0890186 0)
(0.562208 0.0907142 0)
(0.544916 0.0914984 0)
(0.527483 0.0914103 0)
(0.510019 0.0904952 0)
(0.492624 0.0887997 0)
(0.475396 0.0863728 0)
(0.458418 0.0832673 0)
(0.441768 0.0795329 0)
(0.425513 0.075217 0)
(0.409714 0.0703652 0)
(0.394421 0.0650207 0)
(0.379678 0.0592235 0)
(0.365528 0.053007 0)
(0.352004 0.0464057 0)
(0.339134 0.0394504 0)
(0.326943 0.0321694 0)
(0.315452 0.0245899 0)
(0.304679 0.0167389 0)
(0.294623 0.0086457 0)
(0.285334 0.000314404 0)
(0.276781 -0.00821208 0)
(0.268947 -0.0169164 0)
(0.261868 -0.0258016 0)
(0.255553 -0.0348577 0)
(0.250007 -0.0440779 0)
(0.245248 -0.0534605 0)
(0.241298 -0.0630074 0)
(0.238194 -0.072721 0)
(0.235974 -0.0825996 0)
(0.234689 -0.0926387 0)
(0.234398 -0.102821 0)
(0.235161 -0.11312 0)
(0.237024 -0.123499 0)
(0.240074 -0.133902 0)
(0.2444 -0.144269 0)
(0.250038 -0.154515 0)
(0.257015 -0.164526 0)
(0.265266 -0.174102 0)
(0.27467 -0.182936 0)
(0.284619 -0.190436 0)
(0.294894 -0.196309 0)
(0.303848 -0.199554 0)
(0.312219 -0.200466 0)
(0.319162 -0.197053 0)
(0.321162 -0.194909 0)
(0.325157 -0.187107 0)
(0.68471 0.0625723 0)
(0.672607 0.0717791 0)
(0.659356 0.0802206 0)
(0.645044 0.0873795 0)
(0.629736 0.0935506 0)
(0.613654 0.09853 0)
(0.596856 0.102375 0)
(0.579548 0.10512 0)
(0.561852 0.106786 0)
(0.543902 0.107432 0)
(0.525818 0.107108 0)
(0.507715 0.105871 0)
(0.4897 0.103775 0)
(0.471878 0.100882 0)
(0.454338 0.0972553 0)
(0.437157 0.0929526 0)
(0.420404 0.0880306 0)
(0.40414 0.0825446 0)
(0.388415 0.076541 0)
(0.373273 0.0700689 0)
(0.358751 0.0631665 0)
(0.344884 0.0558698 0)
(0.331698 0.0482129 0)
(0.319218 0.0402277 0)
(0.307462 0.0319448 0)
(0.296445 0.0233929 0)
(0.286176 0.0145989 0)
(0.276639 0.00560084 0)
(0.267934 -0.00362103 0)
(0.259931 -0.0129913 0)
(0.252687 -0.0225299 0)
(0.246208 -0.0322316 0)
(0.240494 -0.0420942 0)
(0.235553 -0.0521252 0)
(0.231408 -0.0623363 0)
(0.228094 -0.0727419 0)
(0.225657 -0.0833512 0)
(0.224151 -0.0941687 0)
(0.223646 -0.105187 0)
(0.22421 -0.116383 0)
(0.225904 -0.127723 0)
(0.228824 -0.139156 0)
(0.233081 -0.15062 0)
(0.238723 -0.162013 0)
(0.245748 -0.173166 0)
(0.253951 -0.183701 0)
(0.263039 -0.193134 0)
(0.271913 -0.200505 0)
(0.280241 -0.205204 0)
(0.286111 -0.207287 0)
(0.291539 -0.204892 0)
(0.29057 -0.201196 0)
(0.288693 -0.19476 0)
(0.287837 -0.195429 0)
(0.683345 0.0749641 0)
(0.671466 0.0854512 0)
(0.658389 0.0946392 0)
(0.644006 0.102633 0)
(0.628708 0.10934 0)
(0.612327 0.114694 0)
(0.595269 0.11882 0)
(0.57762 0.121709 0)
(0.55953 0.123365 0)
(0.541156 0.123943 0)
(0.52262 0.123376 0)
(0.504045 0.121831 0)
(0.485547 0.119325 0)
(0.467244 0.115944 0)
(0.449231 0.111771 0)
(0.431588 0.106875 0)
(0.414395 0.101318 0)
(0.39771 0.0951704 0)
(0.381587 0.0884784 0)
(0.366071 0.081301 0)
(0.351196 0.0736807 0)
(0.336998 0.0656602 0)
(0.323507 0.0572716 0)
(0.310745 0.0485515 0)
(0.298732 0.0395343 0)
(0.287484 0.0302525 0)
(0.277011 0.0207375 0)
(0.267306 0.0110206 0)
(0.258394 0.00112318 0)
(0.250261 -0.00892944 0)
(0.242856 -0.019118 0)
(0.236209 -0.0294541 0)
(0.230316 -0.0399437 0)
(0.225174 -0.0506031 0)
(0.220801 -0.0614563 0)
(0.217228 -0.0725317 0)
(0.214503 -0.0838543 0)
(0.212689 -0.0954408 0)
(0.211867 -0.107295 0)
(0.212117 -0.119402 0)
(0.213515 -0.131732 0)
(0.216182 -0.144244 0)
(0.220255 -0.156863 0)
(0.225774 -0.169458 0)
(0.23267 -0.181686 0)
(0.240384 -0.1929 0)
(0.248365 -0.202182 0)
(0.255195 -0.208362 0)
(0.259303 -0.209406 0)
(0.26079 -0.212351 0)
(0.260288 -0.20645 0)
(0.257954 -0.206214 0)
(0.251382 -0.199761 0)
(0.253458 -0.1964 0)
(0.671066 0.0862641 0)
(0.660695 0.0982946 0)
(0.64882 0.108548 0)
(0.635669 0.117445 0)
(0.621069 0.124743 0)
(0.605465 0.130754 0)
(0.588957 0.135318 0)
(0.571627 0.138517 0)
(0.553776 0.140331 0)
(0.53547 0.14071 0)
(0.516867 0.140066 0)
(0.498183 0.138158 0)
(0.479473 0.135316 0)
(0.460931 0.131433 0)
(0.44265 0.126737 0)
(0.424711 0.121242 0)
(0.407208 0.115032 0)
(0.390206 0.108212 0)
(0.373764 0.100807 0)
(0.357936 0.0929101 0)
(0.342758 0.0845456 0)
(0.328269 0.075778 0)
(0.314497 0.0666355 0)
(0.301475 0.0571561 0)
(0.289223 0.0473787 0)
(0.277759 0.0373402 0)
(0.267095 0.027078 0)
(0.25723 0.0166292 0)
(0.248131 0.00604045 0)
(0.239895 -0.00470546 0)
(0.232354 -0.0155442 0)
(0.22555 -0.0265017 0)
(0.219473 -0.0375925 0)
(0.214104 -0.0488446 0)
(0.209451 -0.0602992 0)
(0.205543 -0.0720042 0)
(0.202429 -0.084005 0)
(0.200181 -0.096335 0)
(0.198896 -0.109012 0)
(0.198672 -0.122035 0)
(0.199612 -0.135383 0)
(0.201877 -0.149025 0)
(0.20563 -0.162871 0)
(0.210869 -0.176661 0)
(0.217247 -0.189707 0)
(0.223738 -0.201071 0)
(0.229376 -0.209076 0)
(0.233451 -0.211673 0)
(0.228138 -0.212463 0)
(0.223521 -0.210132 0)
(0.221385 -0.212557 0)
(0.219616 -0.208699 0)
(0.224974 -0.206534 0)
(0.232501 -0.198369 0)
(0.641839 0.0945939 0)
(0.634799 0.107999 0)
(0.625876 0.119896 0)
(0.615356 0.13044 0)
(0.603465 0.139162 0)
(0.590053 0.145851 0)
(0.575285 0.150904 0)
(0.559403 0.154439 0)
(0.542448 0.156604 0)
(0.525071 0.15724 0)
(0.507196 0.156426 0)
(0.488938 0.154556 0)
(0.47057 0.151299 0)
(0.452173 0.14711 0)
(0.433992 0.141866 0)
(0.416011 0.135848 0)
(0.398434 0.129008 0)
(0.381302 0.121556 0)
(0.36469 0.113438 0)
(0.348667 0.104863 0)
(0.333271 0.0957227 0)
(0.31856 0.0862177 0)
(0.304558 0.0763031 0)
(0.291313 0.0660411 0)
(0.278855 0.055476 0)
(0.267204 0.0446521 0)
(0.256375 0.0336143 0)
(0.246373 0.0224094 0)
(0.237167 0.011083 0)
(0.22881 -0.000347668 0)
(0.221154 -0.0118204 0)
(0.214187 -0.0233646 0)
(0.207905 -0.0350101 0)
(0.202265 -0.0467963 0)
(0.197257 -0.0587845 0)
(0.1929 -0.071049 0)
(0.189249 -0.0836629 0)
(0.186391 -0.0966829 0)
(0.184444 -0.110151 0)
(0.183545 -0.124087 0)
(0.183841 -0.138494 0)
(0.185551 -0.153341 0)
(0.188848 -0.168444 0)
(0.19352 -0.183262 0)
(0.198506 -0.1965 0)
(0.202335 -0.206937 0)
(0.204857 -0.212105 0)
(0.199996 -0.213747 0)
(0.189758 -0.216361 0)
(0.183309 -0.211724 0)
(0.184302 -0.210798 0)
(0.192591 -0.209358 0)
(0.199613 -0.208496 0)
(0.210297 -0.207989 0)
(0.5943 0.0976084 0)
(0.592485 0.114025 0)
(0.588431 0.127229 0)
(0.582431 0.139107 0)
(0.573658 0.149214 0)
(0.563317 0.157931 0)
(0.551749 0.164437 0)
(0.538753 0.168842 0)
(0.524381 0.171548 0)
(0.508663 0.172636 0)
(0.492379 0.172154 0)
(0.475359 0.170259 0)
(0.457824 0.166922 0)
(0.440209 0.162378 0)
(0.422521 0.156889 0)
(0.404966 0.150371 0)
(0.387633 0.143077 0)
(0.370632 0.134969 0)
(0.354076 0.126289 0)
(0.33801 0.11697 0)
(0.322511 0.107188 0)
(0.307704 0.0968911 0)
(0.293519 0.0862209 0)
(0.280105 0.0751715 0)
(0.267482 0.0638026 0)
(0.25568 0.0521691 0)
(0.244721 0.0403286 0)
(0.234612 0.0283437 0)
(0.225331 0.0162753 0)
(0.216804 0.00419682 0)
(0.209108 -0.00791224 0)
(0.202003 -0.0200095 0)
(0.195487 -0.0321369 0)
(0.189501 -0.0443581 0)
(0.184009 -0.0567679 0)
(0.179025 -0.0694808 0)
(0.174618 -0.08261 0)
(0.170906 -0.0962478 0)
(0.168049 -0.110473 0)
(0.166252 -0.125341 0)
(0.165745 -0.140889 0)
(0.166821 -0.157036 0)
(0.169484 -0.173332 0)
(0.17293 -0.188548 0)
(0.174915 -0.200642 0)
(0.174117 -0.207742 0)
(0.168217 -0.209984 0)
(0.154666 -0.213213 0)
(0.151314 -0.21147 0)
(0.154398 -0.212317 0)
(0.158508 -0.210638 0)
(0.165677 -0.213984 0)
(0.177611 -0.216762 0)
(0.191553 -0.218497 0)
(0.546789 0.102044 0)
(0.545836 0.117041 0)
(0.5419 0.131651 0)
(0.538835 0.143895 0)
(0.534859 0.156552 0)
(0.528835 0.166526 0)
(0.52017 0.174087 0)
(0.510129 0.180076 0)
(0.498587 0.183893 0)
(0.485787 0.185948 0)
(0.471743 0.186123 0)
(0.456532 0.184423 0)
(0.440602 0.181432 0)
(0.424371 0.176977 0)
(0.407822 0.171247 0)
(0.391031 0.164528 0)
(0.374313 0.156824 0)
(0.357777 0.148299 0)
(0.34153 0.139083 0)
(0.325648 0.129158 0)
(0.310238 0.118743 0)
(0.295389 0.107755 0)
(0.281197 0.0963316 0)
(0.267671 0.0845072 0)
(0.254931 0.0723314 0)
(0.243014 0.0598727 0)
(0.231953 0.0472044 0)
(0.221764 0.0344144 0)
(0.212428 0.0215942 0)
(0.20385 0.0088314 0)
(0.196084 -0.00385861 0)
(0.188774 -0.0164022 0)
(0.181919 -0.0288783 0)
(0.175428 -0.0413804 0)
(0.16924 -0.054047 0)
(0.163371 -0.0670527 0)
(0.157925 -0.0805696 0)
(0.153076 -0.094748 0)
(0.149068 -0.109724 0)
(0.146214 -0.125608 0)
(0.144871 -0.142459 0)
(0.145286 -0.16001 0)
(0.146969 -0.177082 0)
(0.14783 -0.191282 0)
(0.144956 -0.199847 0)
(0.136708 -0.202138 0)
(0.12315 -0.204713 0)
(0.118296 -0.205614 0)
(0.120047 -0.207045 0)
(0.124607 -0.211757 0)
(0.132538 -0.218529 0)
(0.143882 -0.223799 0)
(0.157656 -0.229051 0)
(0.173503 -0.233203 0)
(0.504672 0.106297 0)
(0.501469 0.119778 0)
(0.498272 0.134339 0)
(0.495865 0.14695 0)
(0.492821 0.160181 0)
(0.487136 0.172875 0)
(0.481955 0.180812 0)
(0.47562 0.188098 0)
(0.46731 0.193388 0)
(0.45723 0.196598 0)
(0.445587 0.19771 0)
(0.432906 0.196896 0)
(0.419173 0.194367 0)
(0.404495 0.190261 0)
(0.389384 0.184673 0)
(0.373917 0.177876 0)
(0.358157 0.170004 0)
(0.342416 0.161242 0)
(0.326706 0.151589 0)
(0.31124 0.141264 0)
(0.296099 0.130244 0)
(0.281394 0.118691 0)
(0.267233 0.106575 0)
(0.253707 0.0940135 0)
(0.240907 0.0810315 0)
(0.228904 0.0677576 0)
(0.217749 0.0542476 0)
(0.20747 0.0406315 0)
(0.198047 0.0270452 0)
(0.189382 0.013621 0)
(0.181397 0.000463733 0)
(0.173849 -0.0123981 0)
(0.166513 -0.0250416 0)
(0.159304 -0.037609 0)
(0.152148 -0.0503203 0)
(0.145092 -0.0634391 0)
(0.138314 -0.0772255 0)
(0.132091 -0.091914 0)
(0.126798 -0.107727 0)
(0.122918 -0.124831 0)
(0.120872 -0.143265 0)
(0.120531 -0.16209 0)
(0.120193 -0.178652 0)
(0.116223 -0.189236 0)
(0.106275 -0.192372 0)
(0.0915377 -0.194951 0)
(0.0848895 -0.197698 0)
(0.0853923 -0.201505 0)
(0.0901177 -0.209496 0)
(0.0985326 -0.218774 0)
(0.109182 -0.227794 0)
(0.122061 -0.236191 0)
(0.137121 -0.243629 0)
(0.154528 -0.24962 0)
(0.465474 0.113149 0)
(0.460131 0.126633 0)
(0.455404 0.138909 0)
(0.452245 0.151066 0)
(0.451837 0.162758 0)
(0.446445 0.175433 0)
(0.440442 0.184005 0)
(0.437124 0.194067 0)
(0.431369 0.200291 0)
(0.424122 0.204383 0)
(0.415285 0.206648 0)
(0.404926 0.206901 0)
(0.393347 0.205147 0)
(0.380811 0.201644 0)
(0.367446 0.196609 0)
(0.353409 0.190036 0)
(0.338982 0.182309 0)
(0.324218 0.173443 0)
(0.30934 0.163632 0)
(0.294483 0.153027 0)
(0.279769 0.141605 0)
(0.265348 0.129574 0)
(0.251326 0.116859 0)
(0.237825 0.103641 0)
(0.224986 0.089935 0)
(0.212886 0.0758356 0)
(0.201555 0.0615032 0)
(0.19108 0.047067 0)
(0.181438 0.0327269 0)
(0.172538 0.0186891 0)
(0.164148 0.00515972 0)
(0.156267 -0.0078616 0)
(0.148235 -0.0204193 0)
(0.140048 -0.0327705 0)
(0.131655 -0.0452746 0)
(0.123168 -0.0583325 0)
(0.114874 -0.0723277 0)
(0.107208 -0.087609 0)
(0.100756 -0.10451 0)
(0.0961346 -0.12322 0)
(0.0935973 -0.143427 0)
(0.091763 -0.16249 0)
(0.0872797 -0.175673 0)
(0.0759677 -0.180305 0)
(0.0595475 -0.18329 0)
(0.0513191 -0.187128 0)
(0.0517314 -0.193296 0)
(0.0561809 -0.204264 0)
(0.0639649 -0.216131 0)
(0.0737195 -0.228199 0)
(0.0851684 -0.239424 0)
(0.0986851 -0.249745 0)
(0.114516 -0.259073 0)
(0.132927 -0.266626 0)
(0.42252 0.122573 0)
(0.415199 0.134201 0)
(0.40998 0.145198 0)
(0.407811 0.156532 0)
(0.407201 0.166524 0)
(0.401903 0.174607 0)
(0.399358 0.186296 0)
(0.39773 0.197924 0)
(0.392187 0.204596 0)
(0.387559 0.209859 0)
(0.381417 0.21336 0)
(0.373612 0.214811 0)
(0.364363 0.214141 0)
(0.353845 0.21149 0)
(0.342257 0.206995 0)
(0.329872 0.200953 0)
(0.316779 0.193513 0)
(0.303189 0.184804 0)
(0.289283 0.175073 0)
(0.275161 0.164323 0)
(0.260998 0.15274 0)
(0.246935 0.140327 0)
(0.233084 0.127191 0)