/*--------------------------------*- C++ -*----------------------------------*\
  =========                 |
  \\      /  F ield         | OpenFOAM: The Open Source CFD Toolbox
   \\    /   O peration     | Website:  https://openfoam.org
    \\  /    A nd           | Version:  10
     \\/     M anipulation  |
\*---------------------------------------------------------------------------*/
FoamFile
{
    format      ascii;
    class       volScalarField;
    location    "0.248999";
    object      T;
}
// * * * * * * * * * * * * * * * * * * * * * * * * * * * * * * * * * * * * * //

dimensions      [0 0 0 1 0 0 0];

internalField   nonuniform List<scalar> 
16320
(
0.00306553
0.00262287
0.00236679
0.00242548
0.00232668
0.00166304
0.00156323
0.00167066
0.00197225
0.00248177
0.00332392
0.00371847
0.00378444
0.003689
0.00352895
0.00339934
0.00338564
0.00355705
0.00412093
0.00476056
0.00497515
0.00507488
0.00517711
0.00533108
0.00556346
0.00569142
0.00572687
0.00573161
0.00570833
0.00563076
0.00555935
0.00552768
0.00551362
0.00551436
0.00555228
0.00561917
0.00565048
0.00562491
0.00525713
0.00411042
0.00285107
0.00233363
0.00220565
0.00247107
0.00306082
0.00361994
0.00416996
0.00468615
0.00510929
0.00547427
0.00590356
0.00685955
0.00883288
0.010587
0.0110054
0.0104974
0.00900406
0.00830784
0.00758286
0.00580799
0.00404112
0.00304112
0.00265408
0.00262192
0.00276651
0.00348434
0.00542675
0.00836683
0.0110238
0.0124392
0.0128996
0.0133371
0.0156411
0.0182995
0.018399
0.0159241
0.00949336
0.00473609
0.00299877
0.00233315
0.00207703
0.00197804
0.00193596
0.00190517
0.00188345
0.00187568
0.00189045
0.00206612
0.00273486
0.0029951
0.00308205
0.00283533
0.00285613
0.00323305
0.00393497
0.00397558
0.00311819
0.00240686
0.00219146
0.00201779
0.0018872
0.00176212
0.00152978
0.00139072
0.00134954
0.00134079
0.00137866
0.00150051
0.00161029
0.00162503
0.00163368
0.00167608
0.00175582
0.00374717
0.00302758
0.00246011
0.00236764
0.00230641
0.00166481
0.00154181
0.00162288
0.00186785
0.00226607
0.00300671
0.00366532
0.00391294
0.00390813
0.00379346
0.0035712
0.00343873
0.00345014
0.00379694
0.00432251
0.00442556
0.00442967
0.00452367
0.00497184
0.00542832
0.00554756
0.00556695
0.00556591
0.00553833
0.00549586
0.00546709
0.00545924
0.00546234
0.00549591
0.00555008
0.00557015
0.00543257
0.00473227
0.00281027
0.00193505
0.00168377
0.00165305
0.00210206
0.00256144
0.0035635
0.00393901
0.00419313
0.00447369
0.00471981
0.00499511
0.00546773
0.00656413
0.00880572
0.0104944
0.0107711
0.0101121
0.00870928
0.00812037
0.00702333
0.00506443
0.00365445
0.00290467
0.00262902
0.00262425
0.00280033
0.003605
0.00568109
0.00811391
0.0101331
0.0114487
0.0121581
0.0133799
0.0167532
0.0184792
0.0183325
0.0157605
0.00929469
0.00464991
0.00298221
0.00234175
0.00209286
0.00200317
0.00196342
0.00193648
0.00190206
0.00187313
0.0018618
0.00190865
0.00230634
0.00296333
0.00303365
0.00273794
0.00278204
0.00308977
0.0037998
0.00389744
0.00345236
0.00266663
0.00249182
0.00245995
0.00247609
0.00234235
0.00194565
0.00155613
0.00142356
0.0013728
0.00136357
0.00143385
0.00159461
0.00163759
0.00166528
0.00170254
0.00178069
0.00430364
0.00341871
0.00256049
0.00236357
0.00229542
0.0016852
0.00154001
0.00160866
0.00183181
0.00218009
0.0027641
0.0035013
0.00389236
0.00389766
0.00383595
0.00381101
0.00362497
0.00347655
0.00359167
0.00404142
0.00413514
0.00393257
0.00387302
0.00423224
0.00509984
0.00544619
0.00549158
0.005484
0.00546011
0.00543733
0.00542955
0.00543098
0.00544995
0.00549323
0.00551148
0.00536513
0.0045731
0.00254527
0.00169043
0.00149321
0.00150291
0.00201347
0.0028552
0.0037396
0.00434177
0.00562865
0.0054021
0.00489908
0.00490296
0.00505111
0.0054879
0.0066475
0.00900228
0.0105102
0.0105809
0.00961218
0.0083012
0.00770483
0.00641745
0.00470675
0.00351951
0.00287014
0.0026645
0.0026825
0.00292209
0.00386306
0.00599838
0.008048
0.00947415
0.0104357
0.0114636
0.0138044
0.0174323
0.018546
0.0182148
0.0153343
0.00846496
0.00423689
0.00279588
0.00227667
0.00208653
0.00202284
0.00199111
0.00198066
0.0019816
0.00196672
0.00191713
0.00189522
0.00204613
0.00289394
0.00298932
0.002676
0.00270276
0.00290311
0.00353002
0.00378962
0.00362881
0.00301678
0.00280183
0.00293161
0.00337722
0.00338278
0.00295047
0.00204006
0.00160965
0.00144926
0.00140947
0.00144483
0.00159972
0.00167195
0.00170255
0.00174468
0.00186446
0.00481565
0.0039574
0.00277642
0.00237457
0.0022507
0.00174494
0.00154581
0.00161294
0.00181246
0.00213606
0.00262372
0.00314462
0.00359747
0.00368905
0.00373146
0.00386987
0.00398756
0.00360256
0.00352625
0.00385477
0.00397216
0.0036098
0.00343852
0.00360994
0.00436455
0.00519475
0.00540601
0.00543421
0.00542556
0.00541243
0.00541072
0.00542354
0.00544808
0.00547043
0.00538419
0.00479944
0.00285351
0.00172079
0.0014484
0.00144282
0.00176073
0.00263603
0.00357847
0.00473795
0.00609921
0.00845424
0.00773026
0.00610332
0.00548036
0.00546502
0.0057967
0.00710763
0.00956285
0.0105062
0.0102243
0.00863551
0.00751084
0.00701885
0.00607476
0.00461128
0.00349793
0.00293134
0.00279922
0.0028416
0.003138
0.00409572
0.00619916
0.00807807
0.0091373
0.00992968
0.0112761
0.014621
0.0177664
0.0185292
0.0179806
0.0144756
0.0072575
0.00375461
0.00257697
0.00218717
0.00206095
0.00202902
0.00202672
0.00205521
0.00214813
0.00218111
0.00214179
0.00201872
0.00199218
0.0025395
0.00293331
0.00264984
0.00261224
0.00272068
0.00318882
0.00362625
0.0035989
0.00324756
0.00295169
0.00311212
0.00384769
0.00412803
0.00400113
0.00326407
0.00209777
0.00161658
0.001501
0.00150683
0.00164175
0.00172552
0.00174975
0.0018107
0.00206399
0.00520719
0.00452875
0.00314212
0.00243112
0.00222538
0.00187636
0.00156464
0.00162698
0.00178127
0.00209318
0.00250916
0.0028397
0.003182
0.00347271
0.00364824
0.00388715
0.00428393
0.00392782
0.00353668
0.00374861
0.00390274
0.00348713
0.00323362
0.00330392
0.00386808
0.00488087
0.00532569
0.00540734
0.00541234
0.0054061
0.00540597
0.00542093
0.00543245
0.00540134
0.00506015
0.00370692
0.00205514
0.00149786
0.00140563
0.00149409
0.00190406
0.0026604
0.00328602
0.00496688
0.00744343
0.00823355
0.0100461
0.00842074
0.00686025
0.00656364
0.00689371
0.00860812
0.0103159
0.0103708
0.00916846
0.00756711
0.00695865
0.00668267
0.00613606
0.00484591
0.00373099
0.00316182
0.00298136
0.00300761
0.00325048
0.00409827
0.00606815
0.00799898
0.00903198
0.00975776
0.0112444
0.0150497
0.0178446
0.0184406
0.0176326
0.0132048
0.00621283
0.00337817
0.0024028
0.00210685
0.00204019
0.00203075
0.00207943
0.00221901
0.00243908
0.00260565
0.00259651
0.00231466
0.00205699
0.00216039
0.00285153
0.00263055
0.00256917
0.00262804
0.00289854
0.0034417
0.00352665
0.00332481
0.00306669
0.00326667
0.00404758
0.00455368
0.00455764
0.00418582
0.00297353
0.00191917
0.0016324
0.00161141
0.0017225
0.0017914
0.00180882
0.00195696
0.0027162
0.00545044
0.00492911
0.00357132
0.00253244
0.00223179
0.00204258
0.00160792
0.00165531
0.00177324
0.0020106
0.00240103
0.00273467
0.00304006
0.00343972
0.00376202
0.00406593
0.00452029
0.00414255
0.00353277
0.00369863
0.0038864
0.00345251
0.00315251
0.00318603
0.00367437
0.00470259
0.00527189
0.0053925
0.00540669
0.00540453
0.0054049
0.00541252
0.00539512
0.00526149
0.00459691
0.00295131
0.00176496
0.00143962
0.00139501
0.00145145
0.00160583
0.00176981
0.00200529
0.00354557
0.00784902
0.00996855
0.0117678
0.0102822
0.00903577
0.00885807
0.00931064
0.0103782
0.0104648
0.00948727
0.00780408
0.00712691
0.00694269
0.00686116
0.00666773
0.00563213
0.00410618
0.00330746
0.00303218
0.00304299
0.00323708
0.0039703
0.00574437
0.00777786
0.00893132
0.00967983
0.0112755
0.0152241
0.0177732
0.018282
0.0171535
0.0117824
0.0053684
0.00303517
0.00225367
0.00203606
0.00200442
0.00203728
0.00216082
0.0024225
0.00288958
0.00333691
0.0033942
0.00300067
0.00229739
0.00214091
0.00263116
0.0025765
0.00251818
0.00254949
0.00271944
0.0032177
0.00337981
0.00328331
0.00311744
0.00330607
0.0040412
0.00483441
0.00517018
0.00500932
0.00396837
0.00236815
0.00180048
0.00173872
0.00182021
0.00186394
0.00191238
0.0023721
0.00403858
0.00555575
0.00514274
0.00392645
0.00263751
0.00226028
0.00217017
0.00172333
0.00170343
0.00178348
0.00197766
0.00235357
0.00277423
0.0034446
0.00417221
0.00457387
0.00481315
0.00474221
0.00427857
0.00356559
0.00367924
0.00389911
0.00345552
0.00313006
0.00315399
0.00363424
0.00465561
0.00524713
0.00538281
0.00540322
0.00540342
0.00540198
0.00539876
0.00534561
0.00510095
0.00423283
0.00263596
0.00172247
0.00142936
0.00135275
0.00133405
0.0013243
0.00136784
0.00148043
0.00217778
0.00504885
0.0104432
0.0116985
0.0118141
0.0110716
0.0108671
0.0109546
0.0108184
0.00985752
0.0082244
0.00742615
0.00722058
0.00732473
0.00753593
0.00737928
0.00594976
0.00418394
0.00332379
0.00299891
0.00299158
0.00313985
0.00376282
0.00538159
0.00752817
0.00881478
0.00962309
0.0113445
0.0152118
0.0175666
0.0180541
0.0164625
0.0101423
0.004624
0.00275224
0.00213771
0.00197587
0.00196031
0.00203914
0.00225591
0.00270815
0.00350297
0.00389258
0.00391601
0.00359815
0.00274434
0.00223814
0.0023955
0.00250909
0.00248135
0.00250816
0.00263176
0.00302711
0.00320699
0.00316745
0.00312338
0.00335222
0.00396104
0.00492622
0.00555273
0.00556222
0.00471996
0.00284964
0.00201535
0.00186501
0.00191105
0.00195197
0.00214546
0.00314264
0.00570533
0.00557303
0.00520711
0.00415664
0.00275948
0.00229736
0.00225628
0.00191397
0.00179318
0.00183716
0.00200068
0.00235913
0.00303213
0.0042524
0.00506701
0.00525742
0.00517491
0.00492246
0.00429221
0.00359697
0.00367593
0.00392734
0.00347054
0.00313638
0.00316008
0.00365888
0.00468936
0.00524522
0.00537934
0.00540355
0.00540514
0.00539997
0.00537837
0.0052866
0.00495946
0.0040547
0.00264999
0.00175372
0.00144955
0.00134727
0.00130614
0.00128757
0.00128703
0.0013358
0.00170353
0.00309749
0.00851962
0.0117371
0.012399
0.0121532
0.0119423
0.0116074
0.0106626
0.00909157
0.00805641
0.00767488
0.00779173
0.00819784
0.00828316
0.00786929
0.00588912
0.00413171
0.00325755
0.00288059
0.00284512
0.00295647
0.003482
0.00492884
0.00723266
0.00870551
0.00957561
0.0113537
0.0150286
0.0172789
0.0177691
0.0156646
0.00876112
0.00410798
0.00256171
0.00205324
0.0019222
0.00191428
0.00203478
0.0023612
0.00304224
0.00381478
0.00404358
0.00406672
0.00386704
0.00316085
0.00244761
0.00231948
0.00249107
0.00247431
0.00249315
0.00258119
0.00287307
0.00305349
0.00305631
0.00309019
0.00340683
0.00397848
0.00517541
0.00587011
0.00578793
0.00491139
0.00307976
0.0021974
0.00198742
0.00200021
0.00208445
0.00251291
0.00426944
0.00635245
0.005557
0.00519808
0.00429436
0.00288164
0.00235969
0.00232773
0.00207639
0.00195491
0.00197449
0.00212522
0.00253389
0.0035797
0.00485957
0.00544088
0.0054705
0.00526251
0.00493474
0.00422407
0.00358318
0.00369874
0.00398338
0.00349419
0.00314951
0.00318332
0.00374045
0.00479603
0.00525867
0.00537736
0.00540312
0.00540501
0.00539721
0.00535718
0.00524284
0.0048986
0.00407066
0.00273416
0.00184767
0.00151478
0.00137303
0.00132894
0.00131441
0.0013002
0.00130382
0.00158385
0.0025302
0.00527434
0.0110155
0.0122752
0.0123696
0.0122094
0.0117661
0.010546
0.00912892
0.0085084
0.00853164
0.00870575
0.00880288
0.00870368
0.0079271
0.00568454
0.00408842
0.00323835
0.002778
0.00260638
0.00266928
0.0030455
0.00423736
0.00673689
0.00856645
0.00956
0.011346
0.014659
0.016945
0.0174705
0.0148405
0.00759632
0.0036734
0.00239227
0.00198218
0.00188422
0.00188593
0.00202445
0.002402
0.00321702
0.0038828
0.00400819
0.00400793
0.00381314
0.0032529
0.00257856
0.00234139
0.00248566
0.00247509
0.00249187
0.00254778
0.00273852
0.00288025
0.00292439
0.00305748
0.0034079
0.00415964
0.00553511
0.00603836
0.00579095
0.0043777
0.00295635
0.00228057
0.00209744
0.00211134
0.00229359
0.00304969
0.00533188
0.00627899
0.00551317
0.00518024
0.00439521
0.00304335
0.00246384
0.00243191
0.00223994
0.00219391
0.00226099
0.00248772
0.00311893
0.00439844
0.00539259
0.00567553
0.00556125
0.00517467
0.00482661
0.00404749
0.00355884
0.00375495
0.00408674
0.00352918
0.00316756
0.00320125
0.00376147
0.00483219
0.00527734
0.005378
0.00540249
0.00540479
0.00539538
0.00534496
0.00522816
0.00490659
0.0041244
0.00292524
0.00205117
0.00167181
0.00147211
0.00142901
0.00143059
0.00139
0.00132571
0.00157242
0.0024278
0.00418414
0.00851268
0.0112513
0.0121109
0.0120275
0.0116388
0.0104677
0.00944716
0.0090962
0.00900886
0.00898177
0.00892162
0.00868841
0.00778752
0.00567619
0.00422885
0.00334026
0.00277424
0.00248132
0.00243549
0.002629
0.0034932
0.00581829
0.00829681
0.00956784
0.0113643
0.014227
0.0166037
0.0171892
0.0141325
0.00681932
0.0033904
0.0022847
0.00193292
0.00185048
0.00185695
0.00200466
0.00241371
0.00328536
0.00385871
0.00392372
0.00377192
0.00346534
0.00313701
0.00265422
0.0024514
0.00248566
0.00248418
0.00248737
0.00251501
0.00259379
0.00269608
0.00278033
0.00303732
0.00344797
0.00443413
0.00589372
0.00621733
0.00543469
0.00360049
0.00268387
0.00232037
0.00220908
0.00224573
0.00256286
0.00375669
0.00562897
0.00598973
0.00550008
0.0051882
0.00451118
0.00339057
0.00270385
0.00264338
0.00255632
0.00261094
0.00281195
0.00328597
0.00412841
0.0052095
0.00579855
0.00585045
0.00548803
0.00491849
0.00449095
0.00383905
0.00354406
0.00385783
0.00422316
0.0035885
0.00319458
0.00320936
0.00373563
0.00481979
0.00528957
0.00538655
0.00540444
0.00540639
0.0053937
0.00533334
0.00522791
0.00492294
0.00425817
0.0032555
0.00247263
0.0020186
0.00173414
0.00169207
0.00168384
0.00146928
0.00134317
0.00167123
0.00256093
0.00404226
0.00656551
0.00967686
0.0108186
0.0108863
0.0107253
0.0100825
0.00941869
0.00914731
0.00903925
0.00897496
0.00887751
0.00862273
0.00782013
0.00611559
0.00481178
0.00378036
0.00298558
0.00250016
0.00233525
0.00240631
0.00294184
0.00473446
0.00774226
0.009481
0.0113318
0.0137313
0.0162476
0.0169676
0.0136464
0.00640173
0.00324159
0.0022203
0.00189605
0.00182229
0.00183196
0.00198085
0.00239933
0.00330011
0.00384713
0.00386364
0.00344179
0.00298433
0.00282592
0.00266095
0.00251557
0.00249577
0.00250567
0.00247495
0.00246662
0.00248968
0.00254641
0.00266311
0.00293158
0.003495
0.00491658
0.0063647
0.00643224
0.00514975
0.00336969
0.00261056
0.00238898
0.00233201
0.00239189
0.00287986
0.00440733
0.00543894
0.00533948
0.00550757
0.00524053
0.00475898
0.00396477
0.00327384
0.0031485
0.00320964
0.00337183
0.00371293
0.00430333
0.00510416
0.00581558
0.00603402
0.0059504
0.0052744
0.0045493
0.00413206
0.00368926
0.00354579
0.00400818
0.00437963
0.00365753
0.00320905
0.00319821
0.00364932
0.00472339
0.0052911
0.00541317
0.00542493
0.00541813
0.00539573
0.00533331
0.00523215
0.00497831
0.00443493
0.00365831
0.00306591
0.00269729
0.00236221
0.00231127
0.00205965
0.00144796
0.001327
0.00173738
0.00260573
0.00407705
0.0060992
0.00859673
0.00956803
0.00961344
0.00956251
0.00936787
0.00917413
0.00906767
0.00898692
0.008925
0.00879807
0.00862328
0.00817624
0.00724277
0.00605005
0.00471029
0.00351307
0.00270262
0.0023236
0.00229835
0.00256064
0.00374867
0.00671124
0.00922714
0.011083
0.0131195
0.0158839
0.0167847
0.0133717
0.00621616
0.00318899
0.00220118
0.00188075
0.00180476
0.00180894
0.00194517
0.00235174
0.00326972
0.00394532
0.00397908
0.0034347
0.0028086
0.00262522
0.00258195
0.00251564
0.00249753
0.00250994
0.00242116
0.00238394
0.00238892
0.00243606
0.00257924
0.00289817
0.00368047
0.00548878
0.00670401
0.00664051
0.00508936
0.00337596
0.00265307
0.00247095
0.00245515
0.00258325
0.00331715
0.00472835
0.00508656
0.00448907
0.00554283
0.00538217
0.00508785
0.00459187
0.00410575
0.0040204
0.00411171
0.00432053
0.00471104
0.0052465
0.00579406
0.00613338
0.00614593
0.00593452
0.00500237
0.00425521
0.00388433
0.00359002
0.00357348
0.0041741
0.00454733
0.00373652
0.00320909
0.00317087
0.00351483
0.0044538
0.00524728
0.00544849
0.00548413
0.00546782
0.00541649
0.00533606
0.00524373
0.00502326
0.00461348
0.00408383
0.0037304
0.00356591
0.00342988
0.00329194
0.00227368
0.00143526
0.00127591
0.00152504
0.002001
0.00311184
0.00548631
0.00807749
0.0090682
0.00918498
0.00917665
0.00913815
0.00907847
0.00899171
0.00894333
0.00883623
0.00876691
0.00856801
0.00849502
0.00817344
0.00776263
0.00599117
0.0042208
0.00302016
0.00240046
0.00225053
0.00235897
0.00305716
0.00540077
0.00874143
0.0106091
0.01243
0.0155444
0.0166714
0.0133278
0.00620985
0.00320529
0.00221022
0.00188096
0.00179951
0.0017968
0.00190146
0.00227116
0.00313754
0.00399594
0.00409529
0.00360052
0.0028209
0.002537
0.00247015
0.00247062
0.00247796
0.00248743
0.00231197
0.0022942
0.00231974
0.0024031
0.00258452
0.003003
0.00418676
0.00623714
0.00708243
0.00679699
0.00505587
0.00349445
0.00278502
0.0025651
0.00256535
0.00279162
0.00377842
0.0047219
0.00473431
0.00373877
0.00558744
0.00551442
0.00535693
0.00510627
0.00485513
0.00484809
0.00494361
0.00515792
0.00548123
0.00584147
0.00614606
0.0062178
0.00615516
0.00580493
0.00471349
0.0040329
0.00372067
0.0035432
0.00361821
0.00434666
0.0047047
0.00380325
0.00319329
0.00312062
0.00333684
0.00401857
0.00502229
0.00544728
0.00555281
0.0055585
0.00549231
0.00537544
0.00527734
0.00509298
0.0048183
0.00450707
0.0043711
0.00439937
0.00446127
0.00416568
0.002474
0.00138539
0.00123968
0.00131286
0.00144183
0.00177581
0.0027854
0.00605976
0.00856463
0.00898374
0.00907052
0.00906335
0.00903154
0.00895178
0.00888057
0.00883364
0.00872988
0.00868042
0.00853322
0.00846649
0.00812682
0.00692235
0.00478572
0.00333086
0.00252662
0.00224645
0.00228408
0.00266757
0.00426369
0.00783271
0.0100607
0.0118307
0.0152464
0.016628
0.0134326
0.00636464
0.00330406
0.00225831
0.00190025
0.00180329
0.00179379
0.00186645
0.00216288
0.00292816
0.004005
0.00424523
0.00390554
0.00299725
0.00255707
0.0024297
0.00239365
0.00239417
0.00238326
0.00225397
0.00226959
0.00231917
0.00242897
0.00268632
0.00340359
0.00528013
0.00707995
0.007433
0.00674642
0.00474036
0.00346823
0.00288715
0.00267662
0.00269452
0.0030742
0.00425972
0.00468063
0.00432348
0.00321181
0.00560811
0.00558819
0.00552399
0.00543403
0.00535651
0.00539627
0.00550874
0.0056861
0.0059029
0.00611134
0.00623167
0.00621327
0.00607902
0.00550786
0.00443799
0.00386538
0.0036129
0.00352197
0.00366054
0.00448243
0.0048267
0.00386705
0.00313901
0.00301105
0.00308049
0.00358766
0.00453568
0.00535472
0.00556878
0.00564035
0.00561565
0.005503
0.00537983
0.00524846
0.00508874
0.00493352
0.00493826
0.00505128
0.00515114
0.00471918
0.00267138
0.00142043
0.00125586
0.00129098
0.0013374
0.00143591
0.00177355
0.00284118
0.00684272
0.00831076
0.00876185
0.00886454
0.0088584
0.00881796
0.00877507
0.00875838
0.00873799
0.00869496
0.00866642
0.00852244
0.00833705
0.00722722
0.00509197
0.00357523
0.00268412
0.00229166
0.00227977
0.00249206
0.00355917
0.00667831
0.00928998
0.011201
0.0149697
0.0166301
0.0136955
0.00665706
0.00345088
0.00233183
0.00193826
0.00182224
0.00180395
0.00185248
0.00208469
0.0026942
0.00392113
0.00444034
0.00431267
0.00349059
0.00272246
0.00246393
0.0023919
0.00236523
0.00233589
0.00225975
0.00228899
0.00237324
0.00256715
0.00307969
0.00449955
0.00674017
0.00777324
0.00769407
0.00632575
0.00438701
0.00340281
0.0029645
0.00279639
0.00284083
0.00338998
0.00456358
0.00462288
0.00385699
0.00291087
0.00561318
0.00561499
0.00560292
0.00559725
0.00561039
0.00568185
0.00579544
0.00592988
0.00607183
0.00619015
0.00621657
0.00613582
0.00583426
0.00508137
0.0042247
0.00374864
0.0035441
0.00351323
0.00369271
0.0045623
0.00489964
0.00388895
0.00300141
0.00280905
0.00281937
0.00318244
0.00392231
0.00496578
0.00554096
0.00565605
0.00570313
0.00565947
0.00557246
0.00547231
0.00538153
0.00531792
0.00536521
0.00547378
0.00548596
0.00490829
0.00273934
0.00151917
0.0013076
0.00131585
0.0013395
0.00137877
0.00157852
0.00218576
0.00374036
0.006111
0.00748061
0.00803191
0.00824263
0.00837486
0.00848622
0.0085843
0.00863622
0.00864579
0.00862786
0.00859393
0.00837124
0.00758268
0.00552215
0.00391779
0.00293173
0.00242206
0.00232911
0.00245375
0.0031563
0.00561622
0.00848909
0.0106483
0.0148221
0.0167145
0.0141443
0.00714053
0.00367054
0.00244287
0.00199543
0.00185368
0.00182512
0.00185167
0.00204846
0.00256682
0.00368317
0.00455747
0.00464404
0.00422484
0.00326007
0.00266283
0.00246841
0.00240306
0.00236723
0.00233917
0.00241706
0.00260455
0.00307074
0.00425368
0.00650378
0.00794638
0.00822859
0.00779946
0.00588175
0.00420599
0.0033888
0.00306316
0.00296453
0.003033
0.00367976
0.00475791
0.00457356
0.00351578
0.00275238
0.00560948
0.00561674
0.00562615
0.00565912
0.0057114
0.0058028
0.00590406
0.0060094
0.006118
0.00618894
0.00614911
0.00591596
0.00540369
0.00470543
0.00405233
0.00367066
0.00351171
0.00351313
0.00371291
0.00458236
0.0049446
0.00393954
0.00288443
0.00260414
0.002578
0.0028006
0.00333641
0.00421528
0.00522413
0.00563917
0.00570297
0.00573227
0.00569901
0.0056438
0.00560029
0.0055858
0.00562765
0.00567709
0.00559197
0.00485942
0.00278856
0.00168367
0.00143773
0.00142682
0.00138427
0.00136802
0.00154892
0.00210165
0.00295651
0.00413813
0.00528404
0.00620431
0.00690328
0.00745705
0.00788884
0.00821224
0.0084284
0.00854174
0.0085751
0.00854776
0.00850528
0.00808091
0.00648832
0.00450497
0.00332043
0.00266776
0.00246566
0.00252097
0.0029803
0.00473288
0.00746783
0.0100866
0.0147315
0.0168732
0.0146966
0.00789299
0.00397253
0.00258612
0.00206715
0.00189275
0.0018523
0.00186673
0.00203251
0.00250226
0.00348514
0.00456539
0.00483155
0.00477349
0.00426207
0.00332876
0.00281637
0.00264057
0.002582
0.00266719
0.00289453
0.00341314
0.00460366
0.00665069
0.008099
0.00857258
0.00850826
0.00777862
0.00568559
0.00413232
0.00337467
0.00308731
0.00302658
0.00314574
0.00387822
0.00487682
0.00449245
0.0032382
0.00263817
0.00559189
0.00560451
0.00562419
0.0056717
0.00573935
0.00583729
0.00592912
0.00602166
0.00611703
0.00615585
0.00604647
0.0056304
0.004999
0.00439921
0.00390977
0.00362175
0.00350186
0.00351714
0.00372729
0.00457804
0.0049571
0.00403738
0.00287036
0.00248306
0.0024063
0.00249213
0.0028258
0.00344853
0.00441087
0.0053058
0.00566293
0.0057177
0.00572455
0.0057131
0.0057069
0.00571361
0.0057402
0.00573879
0.00558897
0.00474642
0.00284486
0.00182708
0.00166317
0.0016313
0.0013954
0.00136618
0.00159992
0.00223574
0.00282153
0.00345071
0.00422805
0.00506306
0.00588969
0.00665242
0.00729829
0.0077908
0.00814432
0.00837672
0.00847982
0.00850262
0.0084422
0.00837905
0.00740867
0.0052723
0.00379657
0.00298522
0.00267085
0.0026788
0.00296031
0.00420133
0.0067276
0.00976244
0.0146299
0.0170196
0.015421
0.00898439
0.00432322
0.00271217
0.00211734
0.001915
0.00186521
0.00187647
0.00203384
0.00247474
0.00337485
0.00449121
0.00490274
0.00502731
0.0049963
0.00456978
0.00380758
0.00344332
0.00335066
0.00370786
0.00435399
0.00557381
0.00717209
0.00833815
0.00879676
0.00883441
0.0086478
0.00787662
0.00592653
0.00429563
0.00341973
0.00307755
0.00301546
0.00317397
0.00395957
0.00487187
0.00436639
0.00303561
0.00256328
0.00555764
0.00557165
0.00560576
0.00566851
0.00573936
0.00583818
0.00592546
0.00601091
0.00609501
0.00611005
0.00597722
0.00538074
0.00466881
0.00415048
0.00379554
0.00359131
0.00350456
0.00352992
0.0037403
0.00454987
0.00494649
0.00416782
0.00292609
0.00247014
0.00234934
0.00234622
0.00249337
0.00286358
0.003476
0.00435944
0.00516713
0.00555642
0.00567966
0.00570446
0.00572237
0.00574447
0.00576143
0.00573945
0.00554276
0.0047355
0.00302603
0.0021482
0.00218607
0.00162038
0.00133215
0.00134971
0.00162999
0.00226003
0.00266273
0.00308619
0.00372478
0.0045267
0.00537523
0.00617512
0.00687317
0.00744118
0.00786243
0.00816763
0.00835809
0.00841435
0.00841077
0.0083217
0.00794718
0.00608406
0.0043131
0.00333663
0.00291619
0.00287758
0.00305319
0.00391163
0.00600124
0.00948957
0.0145013
0.0170905
0.0160986
0.010268
0.00471736
0.002837
0.00215765
0.00192464
0.00186831
0.00187808
0.00203922
0.00249795
0.00336606
0.00444167
0.00488065
0.00508249
0.00538119
0.00557097
0.00540463
0.00522091
0.00527311
0.00600589
0.00687915
0.00786445
0.00862588
0.00895898
0.00901376
0.00895159
0.00874933
0.00826739
0.00686702
0.00494584
0.0037204
0.00311088
0.00294475
0.00309517
0.0038745
0.00475766
0.00416908
0.0029175
0.0025262
0.00552213
0.00552676
0.0055784
0.00565332
0.00572937
0.00582663
0.0059038
0.00597601
0.00604847
0.0060721
0.00594349
0.0053378
0.00448389
0.00398067
0.00370712
0.00357264
0.00351745
0.00355143
0.00375222
0.0044705
0.00489351
0.00434943
0.00311438
0.00252742
0.00235978
0.00233628
0.00238396
0.00255278
0.00288002
0.00341002
0.00408848
0.00477972
0.00530443
0.00557862
0.00568034
0.0057239
0.00574384
0.00571019
0.00549291
0.00479036
0.00365313
0.00279971
0.00230105
0.00135382
0.00122657
0.00127251
0.00146628
0.00180906
0.00208793
0.00246398
0.00304095
0.00384745
0.00476372
0.00561364
0.00637002
0.00700971
0.00751241
0.00789413
0.00815924
0.00830059
0.00831223
0.00828747
0.00809518
0.00693381
0.00487668
0.00368102
0.00313999
0.00305485
0.00317536
0.00377617
0.00541301
0.00913871
0.0142692
0.0170229
0.0165786
0.0117775
0.00529958
0.00300765
0.00220198
0.00192732
0.00185835
0.00186584
0.00203146
0.00250962
0.00338133
0.00439704
0.00482126
0.00506103
0.00554348
0.00631764
0.00681575
0.00700856
0.00734166
0.00792463
0.00845455
0.0088663
0.00906524
0.00910425
0.00907316
0.00898495
0.0088611
0.00862326
0.00799659
0.00617721
0.00443471
0.00338869
0.00289647
0.00290502
0.00355785
0.00439514
0.00387561
0.00282891
0.00249978
0.00548414
0.00549681
0.00556204
0.00562478
0.00570372
0.00579344
0.00585784
0.0059205
0.0059891
0.00602551
0.00593241
0.00536186
0.00448152
0.00391975
0.0036542
0.00355672
0.00353264
0.00357195
0.00375852
0.00437733
0.0048262
0.00450324
0.0035117
0.00274116
0.00246382
0.00238283
0.00239673
0.00248656
0.0026253
0.0028966
0.00330927
0.00382387
0.00440518
0.00497505
0.00542741
0.00560665
0.0056585
0.00560744
0.00540653
0.00494601
0.00414112
0.00295386
0.00190399
0.0011872
0.00114511
0.00114774
0.0011879
0.00133309
0.00165595
0.00207047
0.0025559
0.00317379
0.00399776
0.00488353
0.00572063
0.00645255
0.00706567
0.00753419
0.00790209
0.00812188
0.00819871
0.00816666
0.00811586
0.0073288
0.00539575
0.00400114
0.00333803
0.00320329
0.00329254
0.00375527
0.00513424
0.00866694
0.0138422
0.0167291
0.0168016
0.0132549
0.00598074
0.003201
0.00225346
0.00193175
0.00184932
0.0018507
0.0020167
0.00251338
0.00339112
0.00436981
0.00477766
0.0050655
0.00579377
0.00702054
0.00781726
0.00818192
0.00849471
0.0087945
0.00900191
0.00911021
0.00913431
0.0091159
0.00907684
0.00902695
0.00896057
0.00883085
0.00849887
0.00735673
0.00535324
0.00399868
0.0030567
0.00277002
0.0030398
0.00379413
0.00359452
0.00280299
0.00250179
0.00544564
0.00547899
0.00554177
0.00560174
0.00567298
0.00574965
0.00580297
0.00585579
0.00591372
0.00595582
0.00590328
0.00547556
0.00453728
0.00393324
0.00365311
0.00355444
0.0035423
0.00358457
0.00375678
0.00427099
0.00475164
0.00458076
0.0039314
0.00321524
0.0027917
0.00258977
0.00251477
0.00252419
0.00259683
0.00271238
0.0029279
0.0032492
0.00364085
0.00409033
0.00467775
0.00514368
0.0053504
0.0053519
0.00526994
0.00496605
0.00419604
0.00277975
0.00140433
0.00110792
0.00107719
0.00107415
0.00110632
0.00122537
0.0015514
0.00198894
0.00245872
0.00298078
0.00363576
0.00439298
0.00519267
0.00593143
0.00661808
0.0071872
0.00762582
0.0079406
0.00805923
0.00806564
0.00799867
0.00749324
0.00577325
0.00429761
0.00353635
0.0033573
0.0034193
0.00378553
0.00498226
0.00824997
0.0133349
0.0163089
0.0167529
0.0141585
0.00663543
0.00343465
0.00233546
0.00195278
0.00184875
0.00184475
0.0020052
0.00250757
0.003383
0.00432317
0.00471941
0.00508746
0.00610768
0.00768614
0.0084068
0.00874714
0.00892566
0.0090451
0.00911223
0.00913323
0.00912799
0.00910075
0.00908797
0.00906079
0.00902932
0.00896895
0.00881369
0.00824084
0.00651045
0.0049368
0.00362936
0.00285618
0.00280427
0.00321428
0.00338569
0.00286741
0.00254375
0.00542901
0.00547154
0.00552617
0.00556754
0.00563188
0.00569229
0.00573623
0.00578102
0.00583043
0.00586215
0.00583859
0.00555572
0.00472897
0.0040081
0.00367254
0.00356088
0.00354843
0.00358806
0.00374145
0.00413525
0.00460921
0.00456891
0.00418069
0.00368075
0.00331502
0.00304361
0.00283888
0.00270666
0.00266371
0.00270769
0.00278506
0.00294424
0.00320285
0.00350429
0.00388261
0.00428874
0.00473793
0.00508119
0.00516194
0.00494001
0.00412515
0.00222922
0.00123362
0.00106021
0.00104045
0.00104392
0.00108473
0.00121173
0.00155047
0.00200389
0.0024643
0.00295572
0.00350815
0.00417003
0.004864
0.00564185
0.00642063
0.00705426
0.00750775
0.00780701
0.00794295
0.00795226
0.00791277
0.00750672
0.00595227
0.00450277
0.00371023
0.00350563
0.00354081
0.00383513
0.00488255
0.00788839
0.0127579
0.0157834
0.0164377
0.0145018
0.00715931
0.00370571
0.00243846
0.00198424
0.00185505
0.0018437
0.00199919
0.00249719
0.0033536
0.00425294
0.00464993
0.00509468
0.00638323
0.00806724
0.00868931
0.00894759
0.00903873
0.00908828
0.00911396
0.00911889
0.00911063
0.00910718
0.00911164
0.00911453
0.00910154
0.00907926
0.00902022
0.00876955
0.00769149
0.00594421
0.00460576
0.00328436
0.00279543
0.00289276
0.00319675
0.00300181
0.00266855
0.0054127
0.00546124
0.00549177
0.00553457
0.00557782
0.00562986
0.00567011
0.00570944
0.00575201
0.00578114
0.00575547
0.00556588
0.00493514
0.00417783
0.00373756
0.00358169
0.00355224
0.00358445
0.00370503
0.00396292
0.00433082
0.00447048
0.00422604
0.00392142
0.00366269
0.00342532
0.00320057
0.00300474
0.00283229
0.0027493
0.00274807
0.00280808
0.00294817
0.00312045
0.00334433
0.00369737
0.0043768
0.00495921
0.00510359
0.00485703
0.00376901
0.0017227
0.00115449
0.00103403
0.00101811
0.00102712
0.00108031
0.00125672
0.00171563
0.00222462
0.00264027
0.00302207
0.00345999
0.00397032
0.00468707
0.00555257
0.00638378
0.00704192
0.00747934
0.00773969
0.00784356
0.00785127
0.00780932
0.00745273
0.00598532
0.00457301
0.00380118
0.00359609
0.00362193
0.00388557
0.00484631
0.00763052
0.0121249
0.0151769
0.0159474
0.0144051
0.00764406
0.00397412
0.00255125
0.0020259
0.00187227
0.00185314
0.00200498
0.00250758
0.00336988
0.00417734
0.00453401
0.00507319
0.00650124
0.0082123
0.00878255
0.00898884
0.00904787
0.00907513
0.00908077
0.00906398
0.00905306
0.00905612
0.00906333
0.00907759
0.00910649
0.00912686
0.00912214
0.00902439
0.00851286
0.00682365
0.00558363
0.00416668
0.00303031
0.00282547
0.00300459
0.00315312