/*--------------------------------*- C++ -*----------------------------------*\
  =========                 |
  \\      /  F ield         | OpenFOAM: The Open Source CFD Toolbox
   \\    /   O peration     | Website:  https://openfoam.org
    \\  /    A nd           | Version:  10
     \\/     M anipulation  |
\*---------------------------------------------------------------------------*/
FoamFile
{
    format      ascii;
    class       volVectorField;
    location    "0.248999";
    object      U;
}
// * * * * * * * * * * * * * * * * * * * * * * * * * * * * * * * * * * * * * //

dimensions      [0 1 -1 0 0 0 0];

internalField   nonuniform List<vector> 
16320
(
(-0.215336 0.177113 0)
(-0.224051 0.198946 0)
(-0.210871 0.220453 0)
(-0.204386 0.259159 0)
(-0.223418 0.316365 0)
(-0.187003 0.335565 0)
(-0.141906 0.349946 0)
(-0.0954705 0.341026 0)
(-0.0489615 0.315494 0)
(-0.00239473 0.276693 0)
(0.0340515 0.216409 0)
(-0.00284054 0.0865444 0)
(-0.103857 -0.067914 0)
(-0.22988 -0.16851 0)
(-0.324671 -0.216386 0)
(-0.381876 -0.22048 0)
(-0.431546 -0.185432 0)
(-0.483764 -0.12367 0)
(-0.527441 -0.0589157 0)
(-0.578435 0.010985 0)
(-0.617148 0.0808194 0)
(-0.621676 0.146483 0)
(-0.606318 0.211929 0)
(-0.57761 0.283401 0)
(-0.546342 0.359217 0)
(-0.524106 0.424003 0)
(-0.510983 0.473484 0)
(-0.500682 0.507737 0)
(-0.491399 0.530454 0)
(-0.482933 0.543859 0)
(-0.476125 0.549617 0)
(-0.472272 0.548808 0)
(-0.471921 0.540818 0)
(-0.474569 0.524523 0)
(-0.477923 0.497989 0)
(-0.476902 0.458018 0)
(-0.464563 0.400128 0)
(-0.434646 0.317186 0)
(-0.378802 0.205983 0)
(-0.281267 0.107191 0)
(-0.170593 0.0467276 0)
(-0.0735617 0.0109322 0)
(0.0226298 -0.0119914 0)
(0.125102 0.0428113 0)
(0.232352 0.110966 0)
(0.327386 0.178411 0)
(0.402641 0.237884 0)
(0.460977 0.285213 0)
(0.506848 0.31511 0)
(0.544185 0.325728 0)
(0.574368 0.31674 0)
(0.591533 0.294323 0)
(0.594499 0.261503 0)
(0.590873 0.228341 0)
(0.57597 0.207945 0)
(0.565808 0.193407 0)
(0.583808 0.168309 0)
(0.61385 0.107228 0)
(0.635533 0.0187193 0)
(0.658588 -0.0773655 0)
(0.68755 -0.146433 0)
(0.712199 -0.185541 0)
(0.728582 -0.206828 0)
(0.744105 -0.217987 0)
(0.756429 -0.216745 0)
(0.726468 -0.199441 0)
(0.625192 -0.154029 0)
(0.53205 -0.0365047 0)
(0.471914 0.0968402 0)
(0.359848 0.177692 0)
(0.192305 0.191637 0)
(0.0207346 0.168138 0)
(-0.134001 0.117707 0)
(-0.277242 0.0261552 0)
(-0.40257 -0.0758784 0)
(-0.506103 -0.193777 0)
(-0.620235 -0.32852 0)
(-0.684075 -0.410603 0)
(-0.669154 -0.434863 0)
(-0.602149 -0.429932 0)
(-0.521008 -0.411078 0)
(-0.45854 -0.393442 0)
(-0.412539 -0.376654 0)
(-0.367915 -0.349702 0)
(-0.324504 -0.307289 0)
(-0.28332 -0.245794 0)
(-0.241535 -0.164408 0)
(-0.195047 -0.058105 0)
(-0.111742 0.10247 0)
(-0.0422394 0.287385 0)
(-0.0131746 0.342938 0)
(0.0138707 0.376027 0)
(0.0509395 0.392719 0)
(0.0840313 0.388 0)
(0.116405 0.357403 0)
(0.130585 0.310808 0)
(0.140582 0.236898 0)
(0.143282 0.0981991 0)
(0.052613 -0.0304979 0)
(-0.120049 -0.0794336 0)
(-0.227922 -0.107439 0)
(-0.254937 -0.12689 0)
(-0.243829 -0.127435 0)
(-0.21859 -0.115687 0)
(-0.183272 -0.103687 0)
(-0.14059 -0.0928128 0)
(-0.099502 -0.0774815 0)
(-0.0553325 -0.0625345 0)
(-0.0174713 -0.06845 0)
(-0.0036195 -0.0981327 0)
(0.00196243 -0.135139 0)
(0.00475208 -0.164488 0)
(0.00729542 -0.164369 0)
(-0.229155 0.22005 0)
(-0.232727 0.24572 0)
(-0.21723 0.271608 0)
(-0.193634 0.313128 0)
(-0.195097 0.368375 0)
(-0.162343 0.382503 0)
(-0.122235 0.38933 0)
(-0.0783497 0.380355 0)
(-0.0355813 0.35253 0)
(0.00883343 0.305202 0)
(0.0421003 0.23336 0)
(0.0326629 0.0923224 0)
(-0.0386082 -0.0839096 0)
(-0.138544 -0.209306 0)
(-0.223194 -0.276667 0)
(-0.278493 -0.289085 0)
(-0.323854 -0.25137 0)
(-0.377675 -0.17472 0)
(-0.43046 -0.0913888 0)
(-0.492027 -0.00842826 0)
(-0.551459 0.0753262 0)
(-0.575455 0.141853 0)
(-0.568544 0.199142 0)
(-0.543516 0.269053 0)
(-0.518017 0.354277 0)
(-0.498742 0.433565 0)
(-0.484816 0.492804 0)
(-0.476137 0.533077 0)
(-0.470837 0.558789 0)
(-0.468151 0.574295 0)
(-0.467988 0.582931 0)
(-0.47145 0.58587 0)
(-0.479268 0.582212 0)
(-0.490184 0.569315 0)
(-0.500409 0.542294 0)
(-0.501672 0.493023 0)
(-0.482165 0.412216 0)
(-0.426767 0.291989 0)
(-0.339541 0.176199 0)
(-0.248088 0.0972342 0)
(-0.168272 0.0328237 0)
(-0.105378 -0.0278711 0)
(-0.0320364 -0.0455422 0)
(0.0650962 -0.0214032 0)
(0.167021 0.0960672 0)
(0.277346 0.190681 0)
(0.361216 0.263081 0)
(0.420731 0.312375 0)
(0.465715 0.340937 0)
(0.50067 0.350629 0)
(0.530223 0.343722 0)
(0.547778 0.329224 0)
(0.551716 0.303773 0)
(0.554147 0.278614 0)
(0.541783 0.259837 0)
(0.539064 0.234796 0)
(0.560695 0.195042 0)
(0.591004 0.12079 0)
(0.620578 0.0182639 0)
(0.650523 -0.0774343 0)
(0.687056 -0.142547 0)
(0.720781 -0.178884 0)
(0.744256 -0.198173 0)
(0.763789 -0.208701 0)
(0.775463 -0.212175 0)
(0.737957 -0.206948 0)
(0.627507 -0.177099 0)
(0.519909 -0.0792741 0)
(0.426377 0.0440594 0)
(0.29776 0.132117 0)
(0.13958 0.167048 0)
(-0.0205342 0.166365 0)
(-0.175482 0.134374 0)
(-0.289346 0.0459617 0)
(-0.39451 -0.0437977 0)
(-0.482381 -0.156089 0)
(-0.582631 -0.297341 0)
(-0.637778 -0.389055 0)
(-0.629384 -0.41297 0)
(-0.572111 -0.405592 0)
(-0.503908 -0.387987 0)
(-0.450979 -0.372573 0)
(-0.404997 -0.354524 0)
(-0.354115 -0.323853 0)
(-0.303574 -0.278368 0)
(-0.257206 -0.214512 0)
(-0.214089 -0.132576 0)
(-0.172295 -0.03043 0)
(-0.107922 0.111786 0)
(-0.0226091 0.344324 0)
(0.00766003 0.411604 0)
(0.0387306 0.433199 0)
(0.0844243 0.441469 0)
(0.12463 0.438341 0)
(0.165402 0.421048 0)
(0.195179 0.380282 0)
(0.211798 0.305801 0)
(0.226091 0.158684 0)
(0.187563 -0.0115959 0)
(0.0341838 -0.1166 0)
(-0.114388 -0.174324 0)
(-0.17524 -0.19608 0)
(-0.184385 -0.17471 0)
(-0.179569 -0.130677 0)
(-0.159835 -0.0998221 0)
(-0.1253 -0.0808348 0)
(-0.088062 -0.0636182 0)
(-0.0479424 -0.0476673 0)
(-0.0153725 -0.0501767 0)
(-0.00620293 -0.0841109 0)
(-0.00648902 -0.137152 0)
(0.00278335 -0.177274 0)
(0.0228974 -0.17372 0)
(-0.225177 0.258148 0)
(-0.225225 0.285586 0)
(-0.21087 0.317717 0)
(-0.179481 0.360365 0)
(-0.163926 0.414174 0)
(-0.134062 0.426949 0)
(-0.0990722 0.426971 0)
(-0.0515568 0.416268 0)
(-0.00821632 0.385828 0)
(0.0419793 0.332092 0)
(0.0790593 0.247313 0)
(0.0933128 0.112178 0)
(0.0440591 -0.0622669 0)
(-0.0394874 -0.209384 0)
(-0.107353 -0.298571 0)
(-0.15872 -0.333692 0)
(-0.206611 -0.305527 0)
(-0.26427 -0.220779 0)
(-0.327215 -0.121646 0)
(-0.400851 -0.0312141 0)
(-0.482371 0.0641103 0)
(-0.53073 0.139519 0)
(-0.533086 0.196011 0)
(-0.511366 0.263399 0)
(-0.488268 0.344391 0)
(-0.473487 0.438351 0)
(-0.462729 0.511063 0)
(-0.454787 0.559584 0)
(-0.451764 0.589441 0)
(-0.452449 0.607963 0)
(-0.456339 0.620526 0)
(-0.464261 0.628401 0)
(-0.476512 0.630264 0)
(-0.490879 0.620895 0)
(-0.500758 0.590372 0)
(-0.491296 0.525875 0)
(-0.448059 0.418745 0)
(-0.381854 0.282097 0)
(-0.308658 0.173701 0)
(-0.240264 0.0888664 0)
(-0.189611 0.013503 0)
(-0.149226 -0.0251964 0)
(-0.0953911 -0.0340377 0)
(-0.0214529 -0.0491753 0)
(0.0719243 0.0119605 0)
(0.204102 0.161784 0)
(0.300225 0.265885 0)
(0.356186 0.325234 0)
(0.396749 0.357556 0)
(0.431482 0.369848 0)
(0.464645 0.369773 0)
(0.483944 0.362666 0)
(0.489326 0.347376 0)
(0.498456 0.329369 0)
(0.493626 0.306935 0)
(0.504203 0.272045 0)
(0.535946 0.215812 0)
(0.57167 0.129805 0)
(0.609574 0.0185675 0)
(0.649947 -0.0794543 0)
(0.696549 -0.144571 0)
(0.739831 -0.181586 0)
(0.772303 -0.201244 0)
(0.799399 -0.211212 0)
(0.814594 -0.215206 0)
(0.773361 -0.212472 0)
(0.658838 -0.183522 0)
(0.545317 -0.101517 0)
(0.42327 0.00879425 0)
(0.275972 0.0988203 0)
(0.117101 0.147647 0)
(-0.0464959 0.16133 0)
(-0.188205 0.132159 0)
(-0.276465 0.0472578 0)
(-0.357053 -0.0349603 0)
(-0.416105 -0.13965 0)
(-0.498258 -0.281669 0)
(-0.551867 -0.373825 0)
(-0.563184 -0.39287 0)
(-0.529695 -0.381724 0)
(-0.482358 -0.366053 0)
(-0.441679 -0.351123 0)
(-0.397968 -0.331928 0)
(-0.343819 -0.300699 0)
(-0.287224 -0.253588 0)
(-0.233054 -0.184631 0)
(-0.185475 -0.0981038 0)
(-0.147768 0.00730651 0)
(-0.113625 0.144245 0)
(-0.0249657 0.387968 0)
(0.024695 0.484324 0)
(0.0610864 0.496196 0)
(0.112035 0.497393 0)
(0.157786 0.492344 0)
(0.204371 0.48369 0)
(0.248949 0.447233 0)
(0.276426 0.376389 0)
(0.293133 0.239746 0)
(0.300945 0.0733295 0)
(0.202232 -0.0889575 0)
(0.0439452 -0.223683 0)
(-0.0534575 -0.296494 0)
(-0.0829593 -0.268395 0)
(-0.110386 -0.178426 0)
(-0.119769 -0.113024 0)
(-0.105888 -0.0746984 0)
(-0.0799075 -0.0497712 0)
(-0.0490347 -0.0298234 0)
(-0.0291334 -0.0336586 0)
(-0.0236214 -0.0739831 0)
(-0.0218675 -0.135045 0)
(0.000990458 -0.176851 0)
(0.0336649 -0.162135 0)
(-0.211312 0.297778 0)
(-0.203595 0.325467 0)
(-0.19265 0.361269 0)
(-0.161497 0.402687 0)
(-0.131641 0.45425 0)
(-0.102913 0.467319 0)
(-0.0734107 0.461043 0)
(-0.0190706 0.446302 0)
(0.0238019 0.413109 0)
(0.076301 0.356348 0)
(0.119662 0.265594 0)
(0.141609 0.13957 0)
(0.122559 -0.0187771 0)
(0.0650956 -0.167611 0)
(0.0111563 -0.276856 0)
(-0.0357514 -0.335336 0)
(-0.0846844 -0.33299 0)
(-0.14754 -0.248059 0)
(-0.220995 -0.137815 0)
(-0.308782 -0.0433001 0)
(-0.412966 0.0527242 0)
(-0.489688 0.134886 0)
(-0.503014 0.19475 0)
(-0.487643 0.264821 0)
(-0.467315 0.341247 0)
(-0.450603 0.437377 0)
(-0.442949 0.526593 0)
(-0.436158 0.584761 0)
(-0.433427 0.619952 0)
(-0.434437 0.642315 0)
(-0.439007 0.659031 0)
(-0.447413 0.671926 0)
(-0.459315 0.678513 0)
(-0.47136 0.670294 0)
(-0.471476 0.632697 0)
(-0.438579 0.550745 0)
(-0.39673 0.419693 0)
(-0.346976 0.28606 0)
(-0.291544 0.181293 0)
(-0.252062 0.0877605 0)
(-0.234093 0.0109884 0)
(-0.216451 -0.0245646 0)
(-0.188245 -0.0594216 0)
(-0.127692 -0.0854633 0)
(-0.0465352 -0.0660005 0)
(0.0917325 0.0964164 0)
(0.210841 0.226232 0)
(0.272085 0.308721 0)
(0.31181 0.359836 0)
(0.3482 0.384851 0)
(0.385594 0.393772 0)
(0.40633 0.393253 0)
(0.415609 0.386268 0)
(0.43261 0.373379 0)
(0.441662 0.338832 0)
(0.470931 0.296399 0)
(0.514056 0.226178 0)
(0.559319 0.130891 0)
(0.607875 0.0164558 0)
(0.658581 -0.089545 0)
(0.714505 -0.159948 0)
(0.767242 -0.198821 0)
(0.81053 -0.218498 0)
(0.847879 -0.228722 0)
(0.868935 -0.231801 0)
(0.828339 -0.2245 0)
(0.713906 -0.18511 0)
(0.589818 -0.109186 0)
(0.446207 -0.0123908 0)
(0.28091 0.0726346 0)
(0.115245 0.128895 0)
(-0.0567889 0.151035 0)
(-0.176026 0.11119 0)
(-0.248474 0.0213325 0)
(-0.307281 -0.0567639 0)
(-0.339325 -0.155542 0)
(-0.404931 -0.293386 0)
(-0.464538 -0.370285 0)
(-0.497082 -0.382461 0)
(-0.493081 -0.368044 0)
(-0.468902 -0.353274 0)
(-0.439713 -0.339696 0)
(-0.400403 -0.320866 0)
(-0.346037 -0.289474 0)
(-0.283729 -0.236558 0)
(-0.222903 -0.156283 0)
(-0.170912 -0.0566195 0)
(-0.1354 0.0640416 0)
(-0.115275 0.202654 0)
(-0.0342059 0.414656 0)
(0.0417338 0.554447 0)
(0.078588 0.561262 0)
(0.132749 0.555538 0)
(0.181967 0.545277 0)
(0.230512 0.537269 0)
(0.282546 0.504473 0)
(0.319634 0.436839 0)
(0.337881 0.318298 0)
(0.355684 0.170768 0)
(0.307023 -0.00596126 0)
(0.190508 -0.204256 0)
(0.0837786 -0.361332 0)
(0.0449196 -0.36856 0)
(0.00318057 -0.267391 0)
(-0.0452055 -0.152165 0)
(-0.0670969 -0.0794939 0)
(-0.0671365 -0.0362348 0)
(-0.0559538 -0.0142392 0)
(-0.0512541 -0.0176583 0)
(-0.0503333 -0.0619134 0)
(-0.0382404 -0.125629 0)
(-0.000190061 -0.1587 0)
(0.0233015 -0.134647 0)
(-0.193622 0.340974 0)
(-0.176874 0.370803 0)
(-0.166271 0.402885 0)
(-0.139327 0.440706 0)
(-0.103661 0.490295 0)
(-0.0719526 0.505307 0)
(-0.0437302 0.490688 0)
(0.0132347 0.47123 0)
(0.0527176 0.434933 0)
(0.101797 0.376493 0)
(0.143489 0.285741 0)
(0.164959 0.160701 0)
(0.165977 0.0129496 0)
(0.145312 -0.128293 0)
(0.115934 -0.234459 0)
(0.077953 -0.299605 0)
(0.025682 -0.32128 0)
(-0.0383883 -0.248691 0)
(-0.120973 -0.127389 0)
(-0.221637 -0.0359177 0)
(-0.347261 0.05379 0)
(-0.45234 0.132968 0)
(-0.478587 0.19628 0)
(-0.472058 0.26592 0)
(-0.45927 0.343431 0)
(-0.439054 0.438391 0)
(-0.427898 0.53896 0)
(-0.421345 0.606409 0)
(-0.415646 0.648101 0)
(-0.41379 0.674918 0)
(-0.415641 0.695612 0)
(-0.420692 0.712675 0)
(-0.427932 0.721883 0)
(-0.431703 0.711751 0)
(-0.414429 0.664881 0)
(-0.376678 0.564894 0)
(-0.348351 0.422899 0)
(-0.315298 0.30147 0)
(-0.28447 0.197538 0)
(-0.27852 0.096355 0)
(-0.285191 0.0160167 0)
(-0.282738 -0.050979 0)
(-0.258217 -0.115835 0)
(-0.203975 -0.141389 0)
(-0.131455 -0.104544 0)
(-0.0680579 -0.0451364 0)
(0.106564 0.192543 0)
(0.172563 0.291809 0)
(0.221868 0.355669 0)
(0.261016 0.391915 0)
(0.300393 0.409483 0)
(0.321942 0.412521 0)
(0.341528 0.416175 0)
(0.367546 0.395255 0)
(0.400953 0.356962 0)
(0.452274 0.305762 0)
(0.504568 0.226641 0)
(0.56131 0.127134 0)
(0.615483 0.00926755 0)
(0.671252 -0.107901 0)
(0.736491 -0.18426 0)
(0.799809 -0.226486 0)
(0.851084 -0.24844 0)
(0.89268 -0.261462 0)
(0.914964 -0.262611 0)
(0.877206 -0.245189 0)
(0.769129 -0.189791 0)
(0.638937 -0.108523 0)
(0.480727 -0.0173332 0)
(0.299786 0.0616067 0)
(0.127859 0.117624 0)
(-0.0472907 0.137303 0)
(-0.151356 0.0770348 0)
(-0.214367 -0.0221287 0)
(-0.261403 -0.0997724 0)
(-0.287737 -0.195899 0)
(-0.351004 -0.322276 0)
(-0.418081 -0.383616 0)
(-0.460362 -0.39452 0)
(-0.474448 -0.381411 0)
(-0.46753 -0.365096 0)
(-0.449585 -0.352109 0)
(-0.416401 -0.332864 0)
(-0.363473 -0.297161 0)
(-0.298344 -0.234671 0)
(-0.233205 -0.139235 0)
(-0.176595 -0.0193685 0)
(-0.140068 0.121029 0)
(-0.117979 0.263841 0)
(-0.0547368 0.442372 0)
(0.043907 0.615672 0)
(0.0844736 0.623613 0)
(0.142896 0.612572 0)
(0.194459 0.595911 0)
(0.242931 0.581634 0)
(0.295516 0.55264 0)
(0.339106 0.488049 0)
(0.363348 0.384455 0)
(0.387044 0.251242 0)
(0.389741 0.081372 0)
(0.316123 -0.155531 0)
(0.225421 -0.374652 0)
(0.16818 -0.420539 0)
(0.126056 -0.330265 0)
(0.0692386 -0.208862 0)
(0.00345167 -0.098074 0)
(-0.0425426 -0.0295394 0)
(-0.0639209 0.00122979 0)
(-0.076745 -0.00142484 0)
(-0.0772576 -0.0448719 0)
(-0.0479106 -0.102854 0)
(-0.0140967 -0.120404 0)
(-0.0344614 -0.0456636 0)
(-0.176346 0.385273 0)
(-0.154593 0.419643 0)
(-0.139987 0.446837 0)
(-0.114643 0.477292 0)
(-0.0786744 0.522795 0)
(-0.0425731 0.544018 0)
(-0.0116225 0.519917 0)
(0.041528 0.495587 0)
(0.0771543 0.456487 0)
(0.120061 0.396433 0)
(0.155393 0.307766 0)
(0.175899 0.184521 0)
(0.188351 0.0410956 0)
(0.19596 -0.0956871 0)
(0.190999 -0.196571 0)
(0.165772 -0.255233 0)
(0.112115 -0.272265 0)
(0.048674 -0.210728 0)
(-0.0405612 -0.0938743 0)
(-0.145226 -0.0102653 0)
(-0.288705 0.0713659 0)
(-0.418256 0.142961 0)
(-0.458358 0.203968 0)
(-0.461653 0.268163 0)
(-0.455711 0.344588 0)
(-0.435239 0.441371 0)
(-0.419859 0.546506 0)
(-0.410069 0.622775 0)
(-0.398389 0.671791 0)
(-0.390876 0.703507 0)
(-0.387038 0.727919 0)
(-0.385925 0.748002 0)
(-0.385846 0.758025 0)
(-0.377994 0.744346 0)
(-0.347207 0.68606 0)
(-0.317124 0.570786 0)
(-0.300848 0.432731 0)
(-0.283656 0.319268 0)
(-0.278348 0.212195 0)
(-0.295767 0.104909 0)
(-0.311608 0.00240664 0)
(-0.306415 -0.0937289 0)
(-0.277295 -0.158412 0)
(-0.234513 -0.181669 0)
(-0.176967 -0.150303 0)
(-0.119963 -0.0512323 0)
(-0.0160182 0.105004 0)
(0.0758099 0.277658 0)
(0.125229 0.349208 0)
(0.171469 0.39377 0)
(0.214056 0.418483 0)
(0.249595 0.425722 0)
(0.283473 0.425329 0)
(0.32707 0.400294 0)
(0.385035 0.363549 0)
(0.448033 0.302822 0)
(0.514888 0.219952 0)
(0.582245 0.117069 0)
(0.633721 -0.00480527 0)
(0.687188 -0.129624 0)
(0.75595 -0.210983 0)
(0.822392 -0.258136 0)
(0.873847 -0.28536 0)
(0.915103 -0.301012 0)
(0.939176 -0.298614 0)
(0.907978 -0.269313 0)
(0.807178 -0.197626 0)
(0.67079 -0.104027 0)
(0.505394 -0.0116037 0)
(0.317815 0.0630301 0)
(0.143112 0.113401 0)
(-0.0304655 0.119798 0)
(-0.12621 0.0345819 0)
(-0.186064 -0.0714919 0)
(-0.228662 -0.153386 0)
(-0.264392 -0.248906 0)
(-0.344904 -0.357716 0)
(-0.413563 -0.409859 0)
(-0.454281 -0.423182 0)
(-0.471516 -0.41504 0)
(-0.474187 -0.399583 0)
(-0.467309 -0.386587 0)
(-0.441343 -0.364445 0)
(-0.394209 -0.320945 0)
(-0.334679 -0.243613 0)
(-0.275301 -0.125472 0)
(-0.217481 0.0240636 0)
(-0.161465 0.182099 0)
(-0.125662 0.327723 0)
(-0.0801872 0.47719 0)
(0.0316588 0.656831 0)
(0.0818628 0.678294 0)
(0.142195 0.664151 0)
(0.193779 0.640986 0)
(0.242305 0.618309 0)
(0.2925 0.589435 0)
(0.33847 0.528026 0)
(0.372652 0.435317 0)
(0.405081 0.31192 0)
(0.432559 0.149135 0)
(0.416598 -0.107696 0)
(0.36273 -0.356706 0)
(0.296067 -0.443613 0)
(0.2403 -0.372647 0)
(0.176974 -0.243786 0)
(0.0911232 -0.122265 0)
(0.0009987 -0.0275437 0)
(-0.0675688 0.0181987 0)
(-0.102074 0.0196686 0)
(-0.0960204 -0.0177807 0)
(-0.0563785 -0.0622754 0)
(-0.0545285 -0.0374388 0)
(-0.106633 0.116205 0)
(-0.166252 0.428729 0)
(-0.139402 0.466041 0)
(-0.116811 0.492208 0)
(-0.0914396 0.513994 0)
(-0.0572282 0.552324 0)
(-0.0126202 0.58021 0)
(0.019756 0.549117 0)
(0.0667424 0.520463 0)
(0.100343 0.479915 0)
(0.138006 0.418278 0)
(0.170601 0.329456 0)
(0.196107 0.206762 0)
(0.219201 0.0544958 0)
(0.238853 -0.0836205 0)
(0.244655 -0.17447 0)
(0.22778 -0.216269 0)
(0.176732 -0.208114 0)
(0.105278 -0.142949 0)
(0.0226199 -0.0487183 0)
(-0.0786319 0.0364806 0)
(-0.234314 0.104676 0)
(-0.387414 0.166802 0)
(-0.440696 0.220758 0)
(-0.453311 0.277204 0)
(-0.45326 0.348563 0)
(-0.43446 0.443988 0)
(-0.416055 0.54942 0)
(-0.400616 0.633119 0)
(-0.381619 0.689542 0)
(-0.366508 0.726541 0)
(-0.354875 0.754352 0)
(-0.345829 0.775941 0)
(-0.337078 0.78539 0)
(-0.319951 0.768335 0)
(-0.28349 0.701026 0)
(-0.259723 0.577462 0)
(-0.252363 0.44571 0)
(-0.247893 0.333623 0)
(-0.258409 0.221852 0)
(-0.287614 0.105585 0)
(-0.307513 -0.0131482 0)
(-0.296689 -0.111269 0)
(-0.264049 -0.168865 0)
(-0.227893 -0.191485 0)
(-0.183738 -0.172275 0)
(-0.132114 -0.0846271 0)
(-0.0970899 0.070987 0)
(0.00155711 0.258644 0)
(0.0500135 0.347432 0)
(0.101899 0.398208 0)
(0.152531 0.42535 0)
(0.199309 0.433711 0)
(0.255162 0.422771 0)
(0.318419 0.398431 0)
(0.385914 0.354013 0)
(0.460972 0.288083 0)
(0.536912 0.201699 0)
(0.606057 0.09324 0)
(0.649423 -0.0347304 0)
(0.694529 -0.155812 0)
(0.758826 -0.23402 0)
(0.821939 -0.284791 0)
(0.870285 -0.318163 0)
(0.909947 -0.33664 0)
(0.936451 -0.33386 0)
(0.912728 -0.297071 0)
(0.818876 -0.213101 0)
(0.677346 -0.103745 0)
(0.508225 -0.00353394 0)
(0.322576 0.0702378 0)
(0.150493 0.112473 0)
(-0.0151994 0.100309 0)
(-0.106124 -0.00850945 0)
(-0.169417 -0.1217 0)
(-0.212375 -0.20974 0)
(-0.269747 -0.303993 0)
(-0.366672 -0.394363 0)
(-0.431986 -0.437407 0)
(-0.466012 -0.450699 0)
(-0.479286 -0.446692 0)
(-0.485988 -0.435786 0)
(-0.487014 -0.423045 0)
(-0.467446 -0.397351 0)
(-0.428267 -0.344103 0)
(-0.380284 -0.245872 0)
(-0.332995 -0.108744 0)
(-0.276442 0.0551446 0)
(-0.196557 0.219396 0)
(-0.137355 0.370399 0)
(-0.0980754 0.509096 0)
(0.00654524 0.677247 0)
(0.068777 0.72245 0)
(0.129358 0.705553 0)
(0.18055 0.676072 0)
(0.228933 0.64581 0)
(0.277757 0.612669 0)
(0.327288 0.554967 0)
(0.372209 0.471592 0)
(0.417411 0.354049 0)
(0.466924 0.189995 0)
(0.492559 -0.0746556 0)
(0.471919 -0.327612 0)
(0.418723 -0.44805 0)
(0.352581 -0.405642 0)
(0.267213 -0.26363 0)
(0.171861 -0.122204 0)
(0.0580336 -0.0248075 0)
(-0.0640783 0.037834 0)
(-0.116312 0.045867 0)
(-0.103889 0.0200044 0)
(-0.0955523 -0.00271204 0)
(-0.110582 0.0881855 0)
(-0.173365 0.249474 0)
(-0.164999 0.469114 0)
(-0.132459 0.506405 0)
(-0.0995436 0.532675 0)
(-0.0714664 0.547773 0)
(-0.0387132 0.578745 0)
(0.0139183 0.609309 0)
(0.0494427 0.57612 0)
(0.0931901 0.543193 0)
(0.125024 0.50081 0)
(0.159543 0.438176 0)
(0.195341 0.349324 0)
(0.225825 0.224233 0)
(0.258393 0.0689279 0)
(0.286379 -0.064693 0)
(0.28605 -0.140162 0)
(0.262939 -0.159736 0)
(0.211401 -0.133076 0)
(0.138252 -0.0617734 0)
(0.066499 0.0291648 0)
(-0.0300039 0.0998996 0)
(-0.192146 0.151833 0)
(-0.360696 0.202562 0)
(-0.424512 0.246946 0)
(-0.445313 0.293552 0)
(-0.450845 0.357029 0)
(-0.435197 0.44786 0)
(-0.414154 0.550105 0)
(-0.391847 0.637957 0)
(-0.365261 0.700898 0)
(-0.341695 0.743247 0)
(-0.321725 0.773918 0)
(-0.304338 0.795655 0)
(-0.286517 0.803914 0)
(-0.261832 0.784145 0)
(-0.224775 0.713748 0)
(-0.205121 0.587773 0)
(-0.203963 0.45752 0)
(-0.209243 0.34378 0)
(-0.227312 0.232353 0)
(-0.259997 0.118453 0)
(-0.286312 0.00168153 0)
(-0.281746 -0.102069 0)
(-0.248573 -0.160298 0)
(-0.214006 -0.181357 0)
(-0.176351 -0.162744 0)
(-0.134889 -0.0990433 0)
(-0.105232 0.0577151 0)
(-0.034896 0.236869 0)
(0.0161588 0.346543 0)
(0.0682753 0.397117 0)
(0.124851 0.42352 0)
(0.187218 0.427761 0)
(0.25543 0.416256 0)
(0.326917 0.384874 0)
(0.404211 0.332283 0)
(0.484572 0.26124 0)
(0.561784 0.171045 0)
(0.623373 0.0663821 0)
(0.654508 -0.0577471 0)
(0.68993 -0.165942 0)
(0.745075 -0.243231 0)
(0.800594 -0.301773 0)
(0.843425 -0.346072 0)
(0.87959 -0.368037 0)
(0.90698 -0.369505 0)
(0.891844 -0.330336 0)
(0.806673 -0.237728 0)
(0.662294 -0.111007 0)
(0.492853 0.000296162 0)
(0.314013 0.0766102 0)
(0.148593 0.110922 0)
(-0.00631753 0.0798652 0)
(-0.094908 -0.0475938 0)
(-0.163345 -0.16676 0)
(-0.211504 -0.260644 0)
(-0.294653 -0.350437 0)
(-0.398535 -0.424058 0)
(-0.455888 -0.458394 0)
(-0.480933 -0.468415 0)
(-0.48935 -0.465568 0)
(-0.498034 -0.457009 0)
(-0.503675 -0.442885 0)
(-0.488732 -0.413249 0)
(-0.455391 -0.351292 0)
(-0.421313 -0.239333 0)
(-0.386016 -0.100012 0)
(-0.327542 0.0593885 0)
(-0.244145 0.226165 0)
(-0.167416 0.385022 0)
(-0.116701 0.52746 0)
(-0.0251004 0.680324 0)
(0.0488508 0.753233 0)
(0.105314 0.73372 0)
(0.156518 0.699171 0)
(0.20616 0.663379 0)
(0.256755 0.626306 0)
(0.313129 0.572009 0)
(0.369141 0.493891 0)
(0.426931 0.379707 0)
(0.496885 0.204822 0)
(0.549019 -0.0546863 0)
(0.552239 -0.308059 0)
(0.511526 -0.448409 0)
(0.433164 -0.429424 0)
(0.334757 -0.280653 0)
(0.234808 -0.115887 0)
(0.108519 -0.011493 0)
(-0.0549354 0.0589134 0)
(-0.118323 0.0737911 0)
(-0.122163 0.0586874 0)
(-0.139981 0.0740219 0)
(-0.15742 0.20163 0)
(-0.250686 0.373652 0)
(-0.170219 0.505131 0)
(-0.131536 0.539806 0)
(-0.0883316 0.565653 0)
(-0.0555613 0.57654 0)
(-0.0211374 0.601108 0)
(0.0361284 0.62865 0)
(0.0757784 0.598084 0)
(0.118034 0.560629 0)
(0.151435 0.514926 0)
(0.186189 0.451061 0)
(0.220736 0.360751 0)
(0.252792 0.226153 0)
(0.2944 0.0805034 0)
(0.321418 -0.0351243 0)
(0.308161 -0.0928535 0)
(0.275483 -0.0922507 0)
(0.219068 -0.0473826 0)
(0.150651 0.0365147 0)
(0.089091 0.114694 0)
(0.00195099 0.169546 0)
(-0.161269 0.208341 0)
(-0.339243 0.247819 0)
(-0.411341 0.281112 0)
(-0.438295 0.316445 0)
(-0.447338 0.369574 0)
(-0.434617 0.452285 0)
(-0.412373 0.550044 0)
(-0.383472 0.638788 0)
(-0.349442 0.70642 0)
(-0.317693 0.753403 0)
(-0.289936 0.786116 0)
(-0.264226 0.80807 0)
(-0.237637 0.815329 0)
(-0.207013 0.793996 0)
(-0.170275 0.723798 0)
(-0.154599 0.597946 0)
(-0.159639 0.465389 0)
(-0.172818 0.347512 0)
(-0.195105 0.239017 0)
(-0.224011 0.138106 0)
(-0.249203 0.0377316 0)
(-0.253734 -0.0651023 0)
(-0.227959 -0.136279 0)
(-0.199224 -0.16202 0)
(-0.169558 -0.142516 0)
(-0.136027 -0.0826216 0)
(-0.0961682 0.0421003 0)
(-0.0481823 0.212817 0)
(0.0151889 0.338876 0)
(0.065082 0.385285 0)
(0.127696 0.408609 0)
(0.198917 0.410026 0)
(0.273636 0.39202 0)
(0.347719 0.35381 0)
(0.427363 0.295355 0)
(0.509585 0.222716 0)
(0.581664 0.142257 0)
(0.628619 0.0519234 0)
(0.650612 -0.0600517 0)
(0.678727 -0.159707 0)
(0.722295 -0.241868 0)
(0.766052 -0.311618 0)
(0.803637 -0.366906 0)
(0.83494 -0.395329 0)
(0.859727 -0.401004 0)
(0.85409 -0.366448 0)
(0.779961 -0.274068 0)
(0.632736 -0.128685 0)
(0.463649 -0.00513672 0)
(0.298081 0.0770892 0)
(0.142502 0.106919 0)
(0.000250107 0.0607873 0)
(-0.0895889 -0.0775408 0)
(-0.163985 -0.201509 0)
(-0.217084 -0.300439 0)
(-0.321888 -0.385738 0)
(-0.424701 -0.443682 0)
(-0.472551 -0.467932 0)
(-0.489821 -0.472597 0)
(-0.494767 -0.468438 0)
(-0.50421 -0.458665 0)
(-0.512161 -0.441847 0)
(-0.499692 -0.409629 0)
(-0.472239 -0.343599 0)
(-0.450526 -0.22837 0)
(-0.426367 -0.0904086 0)
(-0.374292 0.0594472 0)
(-0.296299 0.220112 0)
(-0.212229 0.381836 0)
(-0.146404 0.53399 0)
(-0.0647958 0.676841 0)
(0.0162182 0.768832 0)
(0.0732965 0.752808 0)
(0.126981 0.714119 0)
(0.179725 0.674229 0)
(0.235228 0.634088 0)
(0.299092 0.58139 0)
(0.365731 0.502911 0)
(0.43718 0.39042 0)
(0.520917 0.200219 0)
(0.584185 -0.0493839 0)
(0.60033 -0.30244 0)
(0.559588 -0.447807 0)
(0.462468 -0.437289 0)
(0.365093 -0.282502 0)
(0.271044 -0.115932 0)
(0.141936 -0.00406851 0)
(-0.0444155 0.0713109 0)
(-0.120179 0.0941446 0)
(-0.152168 0.0952827 0)
(-0.179628 0.155613 0)
(-0.219036 0.325469 0)
(-0.332915 0.456891 0)
(-0.177962 0.536748 0)
(-0.134197 0.567293 0)
(-0.0828012 0.591564 0)
(-0.0450564 0.60009 0)
(-0.00551469 0.618744 0)
(0.0536082 0.638441 0)
(0.0975606 0.610538 0)
(0.140286 0.569835 0)
(0.175624 0.518386 0)
(0.209877 0.447875 0)
(0.238734 0.348121 0)
(0.274013 0.21594 0)
(0.31918 0.0921246 0)
(0.329585 0.00265055 0)
(0.305099 -0.0352282 0)
(0.268088 -0.010479 0)
(0.212523 0.0486303 0)
(0.152287 0.130587 0)
(0.0997954 0.196201 0)
(0.02272 0.24223 0)
(-0.139678 0.270521 0)
(-0.323173 0.299474 0)
(-0.401444 0.321854 0)
(-0.432479 0.345643 0)
(-0.443104 0.387517 0)
(-0.431212 0.457922 0)
(-0.408239 0.549904 0)
(-0.375127 0.63741 0)
(-0.334697 0.707614 0)
(-0.296034 0.757919 0)
(-0.260951 0.792157 0)
(-0.227266 0.814827 0)
(-0.19322 0.821065 0)
(-0.157723 0.799048 0)
(-0.122417 0.730207 0)
(-0.109679 0.606567 0)
(-0.119021 0.471611 0)
(-0.140109 0.349432 0)
(-0.166059 0.24458 0)
(-0.196112 0.156771 0)
(-0.232133 0.0702372 0)
(-0.247067 -0.0225153 0)
(-0.214271 -0.0993172 0)
(-0.192242 -0.135195 0)
(-0.169716 -0.120652 0)
(-0.146087 -0.0656042 0)
(-0.106398 0.0304523 0)
(-0.042686 0.195973 0)
(0.0270858 0.320685 0)
(0.07557 0.359276 0)
(0.143291 0.377569 0)
(0.218554 0.37515 0)
(0.293677 0.351627 0)
(0.369821 0.308793 0)
(0.45038 0.254123 0)
(0.528006 0.191845 0)
(0.591052 0.126253 0)
(0.628221 0.0509459 0)
(0.647778 -0.046676 0)
(0.671354 -0.144402 0)
(0.703305 -0.234903 0)
(0.735076 -0.316223 0)
(0.764729 -0.378318 0)
(0.790469 -0.412585 0)
(0.812514 -0.418696 0)
(0.813089 -0.394644 0)
(0.755255 -0.315153 0)
(0.60646 -0.166473 0)
(0.425029 -0.026276 0)
(0.27716 0.0662854 0)
(0.133807 0.0980104 0)
(0.00374019 0.043623 0)
(-0.0877828 -0.0987382 0)
(-0.164848 -0.225804 0)
(-0.221202 -0.328226 0)
(-0.337281 -0.409308 0)
(-0.43339 -0.451378 0)
(-0.474006 -0.464589 0)
(-0.487858 -0.462911 0)
(-0.49246 -0.455588 0)
(-0.503229 -0.443056 0)
(-0.513164 -0.423078 0)
(-0.502995 -0.389267 0)
(-0.480307 -0.323326 0)
(-0.469556 -0.207033 0)
(-0.458561 -0.0702578 0)
(-0.41893 0.0758336 0)
(-0.352903 0.221043 0)
(-0.269821 0.372014 0)
(-0.190248 0.527328 0)
(-0.109724 0.667567 0)
(-0.0250189 0.769523 0)
(0.0373158 0.766474 0)
(0.0946618 0.72314 0)
(0.152639 0.679931 0)
(0.215952 0.636631 0)
(0.28633 0.582955 0)
(0.362346 0.501052 0)
(0.44693 0.382357 0)
(0.53683 0.183518 0)
(0.599388 -0.059261 0)
(0.619347 -0.304297 0)
(0.562284 -0.440186 0)
(0.450656 -0.418473 0)
(0.370718 -0.273445 0)
(0.282671 -0.127289 0)
(0.159025 -0.0188741 0)
(-0.0312525 0.0641048 0)
(-0.119346 0.103876 0)
(-0.178703 0.134389 0)
(-0.216471 0.236971 0)
(-0.289796 0.415702 0)
(-0.397518 0.503606 0)
(-0.185401 0.56453 0)
(-0.137969 0.590352 0)
(-0.0811015 0.611496 0)
(-0.0395105 0.617177 0)
(0.00582391 0.631694 0)
(0.0657079 0.641427 0)
(0.112049 0.612382 0)
(0.154346 0.566831 0)
(0.189006 0.507399 0)
(0.220389 0.428543 0)
(0.254032 0.32463 0)
(0.294998 0.214604 0)
(0.325591 0.115185 0)
(0.314693 0.0529176 0)
(0.285976 0.0438576 0)
(0.252686 0.0819792 0)
(0.202893 0.142983 0)
(0.151917 0.21625 0)
(0.10566 0.274092 0)
(0.0379876 0.315419 0)
(-0.123913 0.336806 0)
(-0.31028 0.355644 0)
(-0.394468 0.36764 0)
(-0.42828 0.380119 0)
(-0.438755 0.410892 0)
(-0.425989 0.467277 0)
(-0.401817 0.550954 0)
(-0.366439 0.635362 0)
(-0.321215 0.706409 0)
(-0.277258 0.758427 0)
(-0.235846 0.794062 0)
(-0.195294 0.817165 0)
(-0.155227 0.822748 0)
(-0.116426 0.800521 0)
(-0.082504 0.734698 0)
(-0.0695758 0.617158 0)
(-0.0798212 0.481407 0)
(-0.10876 0.354843 0)
(-0.14127 0.255893 0)
(-0.183419 0.181699 0)
(-0.241736 0.111915 0)
(-0.261263 0.0245281 0)
(-0.218613 -0.0593301 0)
(-0.200551 -0.101354 0)
(-0.181339 -0.0962614 0)
(-0.160461 -0.0529766 0)
(-0.116062 0.029941 0)
(-0.0409496 0.180111 0)
(0.0353282 0.307858 0)
(0.0882557 0.336404 0)
(0.16106 0.34706 0)
(0.237518 0.339242 0)
(0.31272 0.312384 0)
(0.387933 0.2732 0)
(0.463218 0.225361 0)
(0.533594 0.172909 0)
(0.592626 0.117742 0)
(0.631297 0.053576 0)
(0.65618 -0.0299486 0)
(0.67816 -0.125681 0)
(0.699022 -0.223714 0)
(0.719307 -0.314732 0)
(0.741821 -0.381313 0)
(0.763219 -0.417444 0)
(0.779079 -0.422677 0)
(0.780612 -0.407124 0)
(0.739703 -0.34527 0)
(0.600846 -0.218081 0)
(0.394224 -0.0606452 0)
(0.25154 0.0433236 0)
(0.120301 0.0820998 0)
(0.00124929 0.0274644 0)
(-0.0879751 -0.112221 0)
(-0.164254 -0.242421 0)
(-0.223175 -0.34776 0)
(-0.339051 -0.421859 0)
(-0.42511 -0.449636 0)
(-0.461404 -0.453451 0)
(-0.475776 -0.445561 0)
(-0.482747 -0.433524 0)
(-0.495603 -0.417411 0)
(-0.507936 -0.393695 0)
(-0.500138 -0.358358 0)
(-0.479972 -0.294068 0)
(-0.476952 -0.179559 0)
(-0.476315 -0.0437352 0)
(-0.448209 0.0978653 0)
(-0.396845 0.228805 0)
(-0.323401 0.365656 0)
(-0.241661 0.513105 0)
(-0.157546 0.6526 0)
(-0.0677081 0.757422 0)
(-0.00155136 0.77339 0)
(0.0648748 0.725752 0)
(0.12895 0.681017 0)
(0.200937 0.635455 0)
(0.27747 0.57781 0)
(0.359844 0.493731 0)
(0.452991 0.359136 0)
(0.541438 0.165975 0)
(0.600595 -0.073407 0)
(0.618346 -0.305037 0)
(0.542795 -0.420603 0)
(0.432653 -0.377259 0)
(0.370562 -0.257193 0)
(0.290644 -0.145718 0)
(0.180912 -0.0572686 0)
(-0.00174406 0.034177 0)
(-0.106335 0.100878 0)
(-0.19408 0.17028 0)
(-0.25852 0.312677 0)
(-0.353752 0.459708 0)
(-0.433679 0.520957 0)
(-0.190733 0.589457 0)
(-0.142073 0.609543 0)
(-0.0851444 0.625836 0)
(-0.0373641 0.627711 0)
(0.013525 0.635712 0)
(0.0693194 0.63503 0)
(0.115295 0.603377 0)
(0.157473 0.554171 0)
(0.192594 0.490775 0)
(0.226188 0.412152 0)
(0.262574 0.320205 0)
(0.297163 0.227798 0)
(0.31053 0.150776 0)
(0.288642 0.111047 0)
(0.262502 0.123629 0)
(0.234691 0.167494 0)
(0.193625 0.227877 0)
(0.152236 0.293869 0)
(0.11137 0.34867 0)
(0.0518733 0.388817 0)
(-0.111108 0.406046 0)
(-0.298882 0.414741 0)
(-0.389249 0.416517 0)
(-0.424871 0.418874 0)
(-0.434165 0.439494 0)