/*--------------------------------*- C++ -*----------------------------------*\
  =========                 |
  \\      /  F ield         | OpenFOAM: The Open Source CFD Toolbox
   \\    /   O peration     | Website:  https://openfoam.org
    \\  /    A nd           | Version:  10
     \\/     M anipulation  |
\*---------------------------------------------------------------------------*/
FoamFile
{
    format      ascii;
    class       surfaceScalarField;
    location    "0.250933";
    object      phi;
}
// * * * * * * * * * * * * * * * * * * * * * * * * * * * * * * * * * * * * * //

dimensions      [1 0 -1 0 0 0 0];

internalField   nonuniform List<scalar> 
32368
(
0.000199007
4.3939e-05
0.000164987
0.000107711
0.000146724
0.000161628
0.000141812
0.000214886
0.000147157
0.000258942
0.000161186
0.00028644
0.000180959
0.000299268
0.000204099
0.000300901
0.000226753
0.000293098
0.000246944
0.000277341
0.000260834
0.000251609
0.000262735
0.000223365
0.000249541
0.000192236
0.000225063
0.000162208
0.00019792
0.00013512
0.000175739
0.000112251
0.000161736
9.35139e-05
0.000155383
7.84183e-05
0.00015354
6.61819e-05
0.000154523
5.61694e-05
0.000156168
4.77597e-05
0.000157831
4.07972e-05
0.000159176
3.53822e-05
0.000164451
3.09322e-05
0.000171915
2.71508e-05
0.00017329
2.13769e-05
0.000171906
8.88466e-06
0.000170113
-8.53865e-06
0.000165498
-2.43343e-05
0.00015583
-3.47045e-05
0.000138786
-3.86108e-05
0.000111426
-3.49355e-05
-3.03479e-05
8.56096e-05
0.000268795
2.81237e-05
0.000230946
8.3833e-05
0.000192461
0.000138892
0.000175958
0.000178319
0.000174162
0.000215181
0.000182939
0.00024133
0.000202258
0.000254123
0.000227878
0.000255031
0.000255423
0.000246216
0.000278254
0.000231242
0.000293472
0.000204217
0.000296771
0.000174923
0.000283966
0.000145875
0.000258447
0.000119794
0.000228036
9.82396e-05
0.000200984
8.19334e-05
0.000181787
6.9653e-05
0.00017042
6.01495e-05
0.000164891
5.20254e-05
0.000163007
4.51218e-05
0.000163861
3.97372e-05
0.000169787
3.60556e-05
0.000178499
3.25711e-05
0.000186983
2.86705e-05
0.000189996
2.33785e-05
0.000184975
1.45422e-05
0.000177178
-1.83433e-06
0.000169784
-1.84143e-05
0.000162151
-2.83577e-05
0.000150951
-3.05606e-05
0.000132254
-2.5348e-05
0.000105518
-1.59605e-05
-7.37818e-06
8.27091e-05
0.000268266
1.86237e-05
0.000265999
5.72496e-05
0.000231451
9.8177e-05
0.000202878
0.000136168
0.000189904
0.000167762
0.000193466
0.000189724
0.00021221
0.000200464
0.000243185
0.000199943
0.000278947
0.00018971
0.000309717
0.000174855
0.000330239
0.000147519
0.000337226
0.00011717
0.000326954
8.96817e-05
0.000301318
6.80467e-05
0.000267543
5.32851e-05
0.000234014
4.50314e-05
0.000207203
4.09963e-05
0.000189118
3.87313e-05
0.00017976
3.68233e-05
0.000178599
3.53005e-05
0.00018377
3.35804e-05
0.000191749
3.1176e-05
0.000198705
2.76122e-05
0.000200605
2.35873e-05
0.000197258
1.6708e-05
0.00018718
2.85695e-06
0.00017473
-1.62327e-05
0.000165238
-2.84599e-05
0.000156894
-2.98626e-05
0.000144664
-2.24667e-05
0.000124159
-8.9232e-06
0.000100155
3.64181e-06
1.44603e-05
8.16711e-05
0.000217387
1.15236e-05
0.000227497
3.79361e-05
0.000210917
6.41729e-05
0.000186512
8.90014e-05
0.000174117
0.000115603
0.000176753
0.000137928
0.000198234
0.000148174
0.000235675
0.000146982
0.000280254
0.000135791
0.000322171
0.000121267
0.000352305
9.5655e-05
0.000368759
6.32197e-05
0.000366093
3.59867e-05
0.000345034
1.64659e-05
0.000311798
5.83802e-06
0.000274406
3.73012e-06
0.000241732
7.48248e-06
0.000220025
1.3802e-05
0.000208637
1.93576e-05
0.000204988
2.25669e-05
0.000205683
2.39229e-05
0.000208147
2.32196e-05
0.000208776
2.05251e-05
0.000205287
1.58512e-05
0.000197618
6.35887e-06
0.000183464
-1.38098e-05
0.000170584
-3.16864e-05
0.000161518
-3.5215e-05
0.000153867
-2.65703e-05
0.000142218
-1.00949e-05
0.000121747
9.02691e-06
0.000102118
2.28009e-05
3.48345e-05
8.76991e-05
0.000135849
5.13158e-06
0.000143765
2.33149e-05
0.000135167
3.57215e-05
0.000125869
5.10232e-05
0.000125353
6.70824e-05
0.000136714
8.25432e-05
0.000163396
9.36555e-05
0.000205616
9.53747e-05
0.000256549
8.62018e-05
0.000311026
6.94664e-05
0.000352277
5.09954e-05
0.000376491
2.19144e-05
0.00038505
-4.49725e-06
0.000377123
-2.23328e-05
0.000354951
-3.18607e-05
0.000324234
-3.2343e-05
0.000292507
-2.53748e-05
0.000264783
-1.44957e-05
0.000244279
-3.02764e-06
0.000231855
6.02836e-06
0.000225203
1.17927e-05
0.000221758
1.33514e-05
0.000214694
1.21897e-05
0.000206144
6.56218e-06
0.000194553
-8.81203e-06
0.000178093
-3.40796e-05
0.000167452
-4.31486e-05
0.000160199
-3.46072e-05
0.000152447
-1.52938e-05
0.000139682
7.82486e-06
0.000118065
2.82143e-05
0.00010289
4.11861e-05
5.24318e-05
9.33988e-05
3.48707e-05
-5.62013e-06
3.69919e-05
3.68027e-06
4.18057e-05
7.93943e-06
5.1602e-05
1.1701e-05
6.59766e-05
1.65299e-05
8.82142e-05
2.34309e-05
0.000124367
2.973e-05
0.000174982
3.15757e-05
0.000232892
2.6804e-05
0.000292908
1.35875e-05
0.000341075
5.21156e-06
0.000372818
-1.24988e-05
0.000392507
-3.27975e-05
0.000399305
-4.68078e-05
0.000390928
-5.47688e-05
0.00037031
-5.5771e-05
0.000341786
-4.92851e-05
0.000311036
-3.74128e-05
0.000283314
-2.30245e-05
0.000261484
-9.77318e-06
0.00024589
3.33695e-08
0.000233633
3.40822e-06
0.000219466
2.61065e-06
0.000204919
-6.8219e-06
0.000188802
-2.98205e-05
0.000173577
-4.89752e-05
0.00016509
-4.41456e-05
0.000157793
-2.35198e-05
0.000148602
3.54181e-06
0.000132887
3.02607e-05
0.000112785
4.67009e-05
0.000102234
5.71933e-05
6.62952e-05
9.81852e-05
-3.7717e-05
-1.64536e-05
-3.03559e-05
-1.90835e-05
-1.1748e-05
-2.82014e-05
1.47941e-05
-3.76853e-05
4.75366e-05
-4.45331e-05
8.6195e-05
-4.81026e-05
0.000131652
-4.71139e-05
0.00018516
-4.3913e-05
0.000243089
-4.13628e-05
0.0003012
-4.25317e-05
0.000351261
-4.34892e-05
0.000386598
-4.74194e-05
0.000409237
-5.86601e-05
0.000420241
-6.62346e-05
0.000420076
-7.02565e-05
0.000408157
-6.85345e-05
0.000385138
-6.15844e-05
0.000355773
-4.95722e-05
0.000325201
-3.47283e-05
0.00029644
-2.01149e-05
0.000270786
-9.05176e-06
0.000247398
-6.18605e-06
0.00022428
-8.60233e-06
0.000202625
-2.37093e-05
0.000182226
-4.98326e-05
0.00017031
-5.14367e-05
0.000161966
-3.1941e-05
0.000152578
-2.9607e-06
0.000138751
2.83788e-05
0.000120252
5.21387e-05
0.000105013
6.32371e-05
0.000100195
7.00736e-05
7.61992e-05
0.000101712
-6.29825e-05
-3.97012e-05
-4.51572e-05
-5.71226e-05
-1.29665e-05
-8.02029e-05
2.61261e-05
-9.74572e-05
7.01862e-05
-0.000109451
0.000116082
-0.000115583
0.000164033
-0.00011623
0.000214116
-0.000111767
0.000264502
-0.000103678
0.000314646
-9.36331e-05
0.00036333
-8.52129e-05
0.000404238
-7.67965e-05
0.00043159
-7.28518e-05
0.000448369
-7.36996e-05
0.000453406
-7.43567e-05
0.000445989
-7.20419e-05
0.000427951
-6.502e-05
0.000400633
-5.35814e-05
0.000367751
-3.865e-05
0.000333284
-2.47783e-05
0.000297997
-1.58489e-05
0.00026129
-1.44889e-05
0.000226864
-2.11312e-05
0.00019829
-4.41536e-05
0.00017743
-5.47133e-05
0.000165677
-3.82691e-05
0.000154145
-9.09166e-06
0.000139335
2.57049e-05
0.000122376
5.54853e-05
0.000104093
7.02345e-05
9.62259e-05
7.5736e-05
9.77124e-05
7.89406e-05
8.19358e-05
0.000104313
-6.04617e-05
-7.99792e-05
-2.894e-05
-0.000109666
1.20785e-05
-0.000131606
5.56504e-05
-0.000146263
9.83295e-05
-0.000154405
0.00013956
-0.000157684
0.000180067
-0.000157096
0.000219871
-0.000152987
0.000258104
-0.00014458
0.000295941
-0.000131829
0.00033671
-0.000117605
0.000374008
-0.000103185
0.000406509
-8.91811e-05
0.000433401
-7.89966e-05
0.000452693
-7.23084e-05
0.000460127
-6.59026e-05
0.000454067
-5.8055e-05
0.000435618
-4.80816e-05
0.000406001
-3.60674e-05
0.000367789
-2.52038e-05
0.000322103
-2.18002e-05
0.000272112
-2.1163e-05
0.000225966
-3.52907e-05
0.000190011
-5.49579e-05
0.000171018
-4.26884e-05
0.00015589
-1.48518e-05
0.000136851
2.2477e-05
0.000118681
5.61108e-05
0.000100366
7.73677e-05
8.88682e-05
8.3597e-05
8.8222e-05
8.46434e-05
9.58336e-05
8.36174e-05
8.3987e-05
0.000106792
-2.83869e-05
-0.000124782
7.48614e-06
-0.000151152
4.32004e-05
-0.000164037
7.79702e-05
-0.000168266
0.000111088
-0.000173891
0.000143491
-0.000178718
0.000174889
-0.000180911
0.000205495
-0.000178973
0.000234161
-0.000171874
0.00026104
-0.000159213
0.000288641
-0.000141035
0.000319435
-0.000120299
0.000353668
-9.96583e-05
0.000390945
-8.25266e-05
0.000423527
-7.08896e-05
0.000446116
-6.04888e-05
0.000456694
-5.0771e-05
0.000450717
-4.07262e-05
0.000429885
-3.09778e-05
0.000392803
-2.49259e-05
0.000336138
-2.40649e-05
0.000277202
-2.93689e-05
0.000221229
-4.79998e-05
0.000184754
-4.52229e-05
0.000159105
-2.06992e-05
0.000136113
1.94107e-05
0.000112625
5.55234e-05
9.29483e-05
8.19668e-05
7.92974e-05
9.26898e-05
7.58133e-05
9.30414e-05
8.22749e-05
8.91663e-05
9.50974e-05
8.38297e-05
8.30735e-05
0.000109914
7.60608e-06
-0.00015601
3.73728e-05
-0.00016782
6.3277e-05
-0.000176415
8.88143e-05
-0.000187244
0.000117594
-0.000196721
0.000147185
-0.000201384
0.000175538
-0.000202119
0.000202279
-0.00019921
0.000226928
-0.000191177
0.000248666
-0.000177432
0.000268857
-0.00015973
0.000287463
-0.000139183
0.000304428
-0.000116651
0.000327172
-9.35528e-05
0.000361361
-7.31632e-05
0.000398968
-5.80079e-05
0.000429563
-4.64625e-05
0.000442748
-3.65315e-05
0.000436667
-2.8426e-05
0.000397949
-2.43312e-05
0.000344244
-2.52989e-05
0.000275157
-3.81506e-05
0.000215179
-4.66446e-05
0.000174821
-2.73682e-05
0.000140082
1.40146e-05
0.00011006
5.48223e-05
8.55513e-05
8.27366e-05
6.94725e-05
0.00010125
6.25423e-05
0.000103221
6.63683e-05
9.83678e-05
7.85918e-05
8.88815e-05
9.65899e-05
8.12074e-05
7.93695e-05
0.000113547
2.89288e-05
-0.000164775
4.81348e-05
-0.000179928
7.13258e-05
-0.000195129
9.75144e-05
-0.00020747
0.000124838
-0.000215935
0.000151804
-0.000220036
0.000178258
-0.000220296
0.000202463
-0.00021553
0.000224104
-0.00020515
0.000243696
-0.000190568
0.000261041
-0.000172012
0.000276543
-0.000151088
0.000290187
-0.000127981
0.000302965
-0.000103913
0.000318738
-8.03497e-05
0.000346578
-5.87786e-05
0.00038275
-4.43974e-05
0.000407196
-3.40904e-05
0.000416457
-2.62304e-05
0.000395011
-2.34133e-05
0.000341774
-2.96065e-05
0.000266627
-4.33625e-05
0.000213257
-3.16654e-05
0.000158402
2.86288e-06
0.000115807
5.05858e-05
8.25021e-05
8.38459e-05
6.17831e-05
0.000104712
5.1305e-05
0.000114656
5.06374e-05
0.000110396
6.03407e-05
9.93584e-05
7.80348e-05
8.47059e-05
9.91438e-05
7.53422e-05
7.32626e-05
0.000116697
3.20153e-05
-0.000179409
5.27752e-05
-0.000198568
7.68273e-05
-0.000214419
0.00010239
-0.000225702
0.000128505
-0.000233341
0.0001546
-0.00023619
0.000179232
-0.000233966
0.000201831
-0.000225943
0.000222731
-0.000213166
0.000241343
-0.000196757
0.000257872
-0.000177342
0.00027266
-0.000155969
0.00028498
-0.000133304
0.000295012
-0.000109226
0.000303851
-8.52489e-05
0.000312875
-6.28203e-05
0.000334348
-4.36594e-05
0.000363664
-3.0625e-05
0.000384748
-2.36029e-05
0.000378651
-2.44514e-05
0.000327097
-3.29589e-05
0.000259687
-3.47612e-05
0.00020058
-9.01526e-06
0.000139898
4.17334e-05
9.08157e-05
8.20338e-05
5.98614e-05
0.000107583
4.43406e-05
0.000120669
3.92372e-05
0.000124208
4.33919e-05
0.000115172
5.71312e-05
9.70245e-05
7.96533e-05
7.94904e-05
0.000100517
6.7299e-05
6.56771e-05
0.000117285
3.21241e-05
-0.000197895
5.37195e-05
-0.000218262
7.80552e-05
-0.000233826
0.000103785
-0.000244093
0.000129863
-0.000249607
0.000154879
-0.000250266
0.000178656
-0.000245262
0.000201125
-0.000234497
0.000221611
-0.000218983
0.000239902
-0.000200202
0.000255809
-0.000179198
0.000269964
-0.000156436
0.000282203
-0.000133093
0.000291471
-0.000109454
0.000298855
-8.56029e-05
0.000301674
-6.39456e-05
0.000305761
-4.39583e-05
0.000320886
-2.82344e-05
0.000346553
-2.1069e-05
0.000348455
-2.34873e-05
0.000304939
-2.93823e-05
0.000253902
-1.27859e-05
0.000183753
2.43315e-05
0.000119691
7.7444e-05
7.00853e-05
0.000108713
4.41042e-05
0.000125806
3.28621e-05
0.000133144
3.19322e-05
0.000131312
3.97212e-05
0.000117216
5.67385e-05
9.20161e-05
8.02768e-05
7.18861e-05
9.94835e-05
5.82081e-05
5.63564e-05
0.000114098
2.92054e-05
-0.000216991
5.14763e-05
-0.000238027
7.63573e-05
-0.000253683
0.000103086
-0.000262876
0.000129846
-0.000266452
0.000155715
-0.000264232
0.000180082
-0.000255433
0.000202465
-0.000241631
0.000222795
-0.000223452
0.000240918
-0.000202128
0.000256534
-0.00017933
0.000269806
-0.000154864
0.000281416
-0.000130215
0.000290299
-0.000106158
0.000296474
-8.24214e-05
0.0002962
-6.12175e-05
0.000295731
-4.18009e-05
0.000297659
-2.7082e-05
0.00031139
-1.82325e-05
0.00031747
-1.93426e-05
0.00028588
-1.4056e-05
0.000244453
1.86873e-05
0.000170524
6.64139e-05
0.000100542
0.000109362
5.61364e-05
0.000130578
3.39144e-05
0.000141485
2.60111e-05
0.000143339
2.81115e-05
0.000136178
3.83683e-05
0.000116467
5.84673e-05
8.70332e-05
7.95705e-05
6.29975e-05
9.63441e-05
4.87119e-05
4.64742e-05
0.000108203
2.36291e-05
-0.000236494
4.76152e-05
-0.000258449
7.40433e-05
-0.00027403
0.000101928
-0.0002824
0.000130153
-0.000284401
0.000157742
-0.000278823
0.000182914
-0.000266013
0.00020562
-0.00024812
0.00022573
-0.000227113
0.000243821
-0.000203012
0.000259316
-0.000178141
0.000271803
-0.000151901
0.000282375
-0.000125766
0.000290363
-0.000100818
0.000294624
-7.70839e-05
0.000294263
-5.6449e-05
0.000289575
-3.87028e-05
0.000286142
-2.36386e-05
0.00028176
-1.46966e-05
0.00028592
-1.12547e-05
0.000270509
1.03846e-05
0.000230571
5.66106e-05
0.000158241
0.000108986
8.71806e-05
0.000138465
4.71783e-05
0.000150303
2.78962e-05
0.000155329
2.25173e-05
0.000151563
2.68938e-05
0.000138683
3.99035e-05
0.000112698
6.04366e-05
7.95272e-05
7.8663e-05
5.34107e-05
9.31418e-05
3.88541e-05
3.59848e-05
0.000102946
1.64337e-05
-0.000256859
4.26783e-05
-0.000280317
7.16213e-05
-0.000295948
0.000101651
-0.000303052
0.000131646
-0.000301979
0.000160485
-0.000292673
0.000186837
-0.000275234
0.000210361
-0.000253133
0.000230469
-0.000228534
0.000247783
-0.000201524
0.000262857
-0.000174402
0.000274553
-0.000147165
0.000284066
-0.00011993
0.00029095
-9.40619e-05
0.000293397
-7.20678e-05
0.00029303
-5.14901e-05
0.000285159
-3.31595e-05
0.000278913
-1.93034e-05
0.000266505
-1.03787e-05
0.000268754
3.46981e-06
0.00025938
4.4266e-05
0.000215736
9.83149e-05
0.000145028
0.000149646
7.76847e-05
0.000164791
4.1247e-05
0.000168429
2.45459e-05
0.000167501
2.09834e-05
0.000157896
2.72722e-05
0.000138522
4.2861e-05
0.000106407
6.21408e-05
7.01974e-05
7.80208e-05
4.31874e-05
9.01509e-05
2.80878e-05
2.34576e-05
9.79832e-05
8.10157e-06
-0.000278578
3.73763e-05
-0.000303209
6.94589e-05
-0.000318224
0.000101909
-0.000322898
0.000134444
-0.000317452
0.000164738
-0.000303552
0.000191096
-0.000281231
0.000214021
-0.000254602
0.000233455
-0.000225749
0.000249472
-0.000196141
0.000264109
-0.000167028
0.000276133
-0.000139825
0.000285126
-0.000112554
0.000291334
-8.82718e-05
0.000292564
-6.61728e-05
0.000290113
-4.55556e-05
0.000281634
-2.74966e-05
0.000272426
-1.48157e-05
0.000256215
-3.97365e-06
0.000261081
2.72142e-05
0.000250986
8.54873e-05
0.00020358
0.000145121
0.000129744
0.000185741
6.93248e-05
0.000187297
3.68054e-05
0.000184813
2.23717e-05
0.000178009
2.03856e-05
0.00016244
2.83133e-05
0.000136126
4.51835e-05
9.74058e-05
6.241e-05
5.89485e-05
7.5797e-05
3.05805e-05
8.56583e-05
1.32105e-05
3.86277e-06
9.14648e-05
-3.82363e-07
-0.000301271
3.21978e-05
-0.000325869
6.78701e-05
-0.000339932
0.000103143
-0.000342611
0.000137231
-0.000333453
0.000168807
-0.000312912
0.000194786
-0.000283885
0.000216287
-0.000251735
0.000234179
-0.000219028
0.000248533
-0.000187358
0.000262138
-0.000157027
0.000275281
-0.000130211
0.000284897
-0.000105004
0.00028949
-8.19631e-05
0.000291485
-5.93453e-05
0.000288198
-3.88492e-05
0.000277267
-2.19308e-05
0.000263837
-9.64025e-06
0.000248163
9.50546e-06
0.000255876
5.89793e-05
0.000239983
0.000131577
0.000190409
0.000190744
0.000115074
0.000216663
6.15059e-05
0.000207285
3.25695e-05
0.000199562
2.01525e-05
0.000186686
1.94978e-05
0.000165046
2.88292e-05
0.000131105
4.49201e-05
8.59744e-05
5.89869e-05
4.51752e-05
6.9198e-05
1.29999e-05
7.5094e-05
-1.14044e-05
-2.84489e-05
7.68014e-05
-8.32922e-06
-0.000325477
2.77024e-05
-0.000352029
6.69117e-05
-0.000366765
0.000105537
-0.000367209
0.000142504
-0.000352338
0.000173727
-0.000322882
0.000197812
-0.000282891
0.000217004
-0.000244291
0.000233018
-0.000208665
0.000244227
-0.000174075
0.000257669
-0.000144503
0.000272123
-0.000119606
0.000282287
-9.71843e-05
0.000284763
-7.41352e-05
0.000286053
-5.18036e-05
0.000283795
-3.22211e-05
0.000274046
-1.67611e-05
0.000255842
-3.30311e-07
0.00024405
3.35448e-05
0.000248636
0.000100983
0.000228256
0.000179141
0.000173766
0.000234003
0.00010056
0.000241945
5.33917e-05
0.00022502
2.77034e-05
0.000212504
1.71316e-05
0.000193426
1.71942e-05
0.000165682
2.66791e-05
0.000123265
3.94603e-05
7.23276e-05
4.87974e-05
2.62477e-05
5.32166e-05
-1.45183e-05
5.23913e-05
-4.50219e-05
-6.65558e-05
4.68889e-05
-1.58986e-05
-0.000355447
2.40867e-05
-0.000383746
6.75877e-05
-0.000397717
0.000109631
-0.000392011
0.000147523
-0.000367135
0.000176324
-0.000324927
0.000196584
-0.000275892
0.000213239
-0.000233847
0.000226593
-0.000195909
0.000236771
-0.000162401
0.000250242
-0.000133026
0.000265678
-0.000109037
0.00027461
-8.82215e-05
0.000278771
-6.51029e-05
0.000278862
-4.37185e-05
0.000276568
-2.55304e-05
0.000267222
-7.24566e-06
0.000248729
1.88245e-05
0.00024228
6.98451e-05
0.000239404
0.000152041
0.000211905
0.000226036
0.000152789
0.000272307
8.52847e-05
0.000260474
4.42515e-05
0.000240278
2.17106e-05
0.000222941
1.22286e-05
0.000198249
1.18435e-05
0.000164419
1.92319e-05
0.000112015
2.63746e-05
5.42104e-05
2.75086e-05
-1.35811e-06
2.28536e-05
-4.87946e-05
1.49149e-05
-8.01327e-05
-9.26836e-05
6.43685e-06
-2.02544e-05
-0.000392395
2.29679e-05
-0.000420628
6.74929e-05
-0.000431401
0.000109985
-0.000417868
0.000146664
-0.000378848
0.000171412
-0.000319862
0.000190123
-0.000265555
0.000205154
-0.000221223
0.000216409
-0.000181918
0.000226569
-0.000147245
0.000239321
-0.000119207
0.000254509
-9.83849e-05
0.00026334
-7.63644e-05
0.000267662
-5.41032e-05
0.000267706
-3.463e-05
0.000263471
-1.4542e-05
0.000252852
1.06855e-05
0.00024287
5.21507e-05
0.000239456
0.000119906
0.000230365
0.000204713
0.000192649
0.000273306
0.000128954
0.000301111
6.94765e-05
0.000273838
3.36297e-05
0.000252933
1.41998e-05
0.000229937
4.18839e-06
0.000201448
1.93652e-06
0.00015976
4.05614e-06
9.51173e-05
7.92015e-07
2.81643e-05
-7.93856e-06
-3.6893e-05
-1.87411e-05
-8.27111e-05
-2.5785e-05
-0.000103007
-0.0001066
-3.4943e-05
-2.45087e-05
-0.000438299
1.89573e-05
-0.000466143
6.41207e-05
-0.000471656
0.000105748
-0.000439867
0.000138176
-0.000379078
0.000159901
-0.000306394
0.000176668
-0.000250556
0.000189181
-0.000203963
0.000199415
-0.000164449
0.000208358
-0.000132114
0.000223813
-0.000106966
0.000237671
-8.59418e-05
0.000246405
-6.25885e-05
0.000251699
-4.12903e-05
0.000249224
-2.07016e-05
0.000242418
5.57707e-06
0.000235584
4.25622e-05
0.000235428
9.88855e-05
0.000230652
0.000176049
0.000212595
0.000257801
0.000170182
0.000314503
0.000104078
0.000317596
5.29117e-05
0.000283557
2.19296e-05
0.000260706
3.72844e-06
0.000233481
-8.51617e-06
0.000201001
-1.54305e-05
0.000147196
-2.32403e-05
6.93855e-05
-3.70243e-05
-9.11057e-06
-5.13702e-05
-7.37371e-05
-5.85718e-05
-0.00011028
-6.57411e-05
-0.000119433
-0.000114415
-7.40535e-05
-3.23987e-05
-0.000494022
1.16656e-05
-0.000515345
5.7085e-05
-0.00049921
9.63493e-05
-0.000441151
0.000122541
-0.000363342
0.000139173
-0.000287667
0.00015287
-0.000231893
0.000163781
-0.000186182
0.000174261
-0.000148679
0.000187443
-0.00012051
0.000202731
-9.64004e-05
0.000213402
-7.06011e-05
0.000221302
-4.6398e-05
0.000223311
-2.4083e-05
0.000220308
3.35405e-06
0.000212999
3.8401e-05
0.000214402
8.50088e-05
0.000218085
0.000154268
0.000213235
0.000234474
0.000187982
0.000305572
0.000140913
0.000343725
7.8207e-05
0.000320667
3.5675e-05
0.000287448
8.46108e-06
0.000263401
-1.1719e-05
0.000232337
-2.89244e-05
0.00019258
-4.47121e-05
0.000120548
-6.34393e-05
2.76727e-05
-8.01839e-05
-5.7672e-05
-9.01821e-05
-0.000112318
-9.18811e-05
-0.000135121
-9.788e-05
-0.000134461
-0.000121607
-0.000103977
-4.21304e-05
-0.000542891
3.66023e-06
-0.000542008
4.61592e-05
-0.000500516
7.60077e-05
-0.000425563
9.4865e-05
-0.000341042
0.000108097
-0.000268908
0.000119886
-0.000216103
0.000131233
-0.000174746
0.000145463
-0.000142108
0.000160635
-0.000111794
0.000171139
-8.20667e-05
0.000177866
-5.211e-05
0.000182812
-2.62812e-05
0.000181141
2.36256e-06
0.000179183
3.70291e-05
0.000177659
7.77036e-05
0.000187205
0.000136641
0.000193258
0.000211446
0.000184485
0.000287029
0.000157486
0.000340689
0.000105887
0.000351583
5.39306e-05
0.000311301
1.79517e-05
0.000285719
-9.88099e-06
0.000257825
-3.62583e-05
0.000221737
-6.26042e-05
0.000164775
-8.8171e-05
6.91453e-05
-0.000107905
-4.04646e-05
-0.000118268
-0.000115661
-0.000117739
-0.000154944
-0.000112889
-0.000162669
-0.000116398
-0.000152587
-0.000131004
-0.0001177
-5.26363e-05
-0.000567782
-9.58366e-06
-0.000546613
2.61855e-05
-0.000487983
4.66709e-05
-0.000405114
5.94776e-05
-0.000322029
6.85833e-05
-0.000258638
7.98575e-05
-0.000211427
9.3188e-05
-0.000177492
0.000105718
-0.000141048
0.000116337
-0.00010059
0.000121525
-6.33179e-05
0.000127187
-3.13143e-05
0.000128384
1.13018e-06
0.000129405
3.531e-05
0.000131791
7.37934e-05
0.000141009
0.000124454
0.000155621
0.000189667
0.000161041
0.000260736
0.000149232
0.000318845
0.000120666
0.000350953
7.22227e-05
0.000328948
3.02093e-05
0.000296937
-4.70244e-06
0.00027289
-3.91829e-05
0.000239578
-7.7836e-05
0.00018869
-0.000112796
0.000103772
-0.000137457
-1.2594e-05
-0.000147066
-0.000114697
-0.000142502
-0.000175465
-0.000128052
-0.000198109
-0.000116302
-0.000190931
-0.000112207
-0.000169247
-0.000137755
-0.000105891
-6.82256e-05
-0.000574218
-3.02175e-05
-0.000541496
-4.03776e-06
-0.000470634
1.22475e-05
-0.00038933
1.82332e-05
-0.000313551
2.12074e-05
-0.000264206
2.66527e-05
-0.000231222
3.62107e-05
-0.000185801
4.77335e-05
-0.000134249
5.51524e-05
-8.52287e-05
6.18864e-05
-4.2878e-05
6.22194e-05
1.12557e-07
6.68784e-05
3.33495e-05
7.5548e-05
7.1122e-05
8.70892e-05
0.000118001
0.000101227
0.000174833
0.000114913
0.000234418
0.000119771
0.00029157
0.000110345
0.000333339
8.07493e-05
0.000332739
3.949e-05
0.000297643
-6.6517e-08
0.000273444
-4.05469e-05
0.000242917
-8.93104e-05
0.000196493
-0.000136621
0.000121302
-0.00016735
1.82447e-05
-0.000176804
-9.6712e-05
-0.000166999
-0.000178198
-0.000143457
-0.000218271
-0.000117876
-0.000221948
-9.91061e-05
-0.000202895
-8.53437e-05
-0.000169047
-0.000125157
-6.96632e-05
-9.2311e-05
-0.000573474
-5.8331e-05
-0.00052887
-3.76568e-05
-0.000455747
-3.10142e-05
-0.000379288
-3.60601e-05
-0.000319475
-4.56266e-05
-0.00028721
-4.42676e-05
-0.000232127
-3.39819e-05
-0.00017256
-2.56804e-05
-0.000116655
-2.11201e-05
-6.44796e-05
-2.35363e-05
-1.22918e-05
-1.51024e-05
2.95445e-05
2.46592e-07
6.45964e-05
1.58524e-05
0.000106669
3.37616e-05
0.000156566
5.21831e-05
0.000210723
6.77781e-05
0.000260994
7.51811e-05
0.0003017
6.73948e-05
0.000313983
3.72682e-05
0.000285884
-5.3344e-07
0.000258925
-4.4247e-05
0.000229395
-9.71935e-05
0.000188666
-0.000150199
0.00012815
-0.000184844
4.65866e-05
-0.000196177
-5.29153e-05
-0.000184604
-0.00014981
-0.000156687
-0.000211244
-0.0001205
-0.00023636
-8.94402e-05
-0.000232454
-6.5851e-05
-0.000206753
-4.58705e-05
-0.000166062
-0.000126934
-4.64803e-05
-0.000120555
-0.000569244
-9.22379e-05
-0.000511758
-8.18061e-05
-0.000443297
-8.86501e-05
-0.00037538
-0.000111486
-0.000333454
-0.000122993
-0.000279374
-0.000122404
-0.000210585
-0.000121445
-0.000147887
-0.000124759
-8.7578e-05
-0.000130959
-2.91851e-05
-0.000119341
1.4811e-05
-9.7015e-05
5.1515e-05
-7.46955e-05
9.05009e-05
-5.06513e-05
0.000133904
-2.48126e-05
0.000182421
9.30043e-07
0.000229566
1.91861e-05
0.000264871
2.67633e-05
0.000274959
1.23797e-05
0.000259646
-1.50345e-05
0.000235022
-5.26269e-05
0.000210601
-9.90993e-05
0.000180417
-0.00014555
0.000137808
-0.00017874
7.86392e-05
-0.000190815
2.90319e-06
-0.000184573
-8.48389e-05
-0.000163661
-0.000167065
-0.000128561
-0.000220431
-8.97799e-05
-0.000247876
-5.71988e-05
-0.00024978
-3.19403e-05
-0.000219977
-2.60321e-05
-0.000176243
-0.000132252
-3.70198e-05
-0.000152034
-0.000556549
-0.000134189
-0.000497517
-0.000136996
-0.00043157
-0.000162755
-0.000373628
-0.000195079
-0.000329999
-0.000204285
-0.000251488
-0.000211108
-0.000177793
-0.000218837
-0.000109921
-0.000223652
-4.93985e-05
-0.000209706
-1.21853e-06
-0.000189094
3.80311e-05
-0.000165431
7.61083e-05
-0.000139558
0.000114832
-0.000111823
0.000154967
-8.22036e-05
0.000193923
-5.40923e-05
0.000222321
-3.81671e-05
0.00023447
-3.5809e-05
0.000232678
-4.461e-05
0.000221739
-6.60208e-05
0.000205676
-9.47377e-05
0.000184793
-0.000124643
0.000156468
-0.000148302
0.000115812
-0.000161193
6.02084e-05
-0.000159038
-1.51707e-05
-0.000149803
-9.44691e-05
-0.000128279
-0.000169498
-9.54894e-05
-0.000223001
-5.81572e-05
-0.000262402
-2.60524e-05
-0.000265426
-9.53239e-06
-0.000227996
-1.39127e-05
-0.000178457
-0.000139807
-4.05205e-05
-0.000188451
-0.000540572
-0.000183169
-0.000484429
-0.000199931
-0.000418826
-0.000242571
-0.000369713
-0.000272022
-0.000303449
-0.000282193
-0.000212958
-0.000289368
-0.000132939
-0.000290515
-6.57269e-05
-0.000281324
-1.36028e-05
-0.000260503
2.61771e-05
-0.000233665
5.92639e-05
-0.000208588
8.9785e-05
-0.000183836
0.000122094
-0.000158585
0.000153313
-0.000132847
0.000181125
-0.00010991
0.000199463
-9.25639e-05
0.000208619
-8.56115e-05
0.000208405
-8.74993e-05
0.000201389
-9.57707e-05
0.00018748
-0.000105739
0.000168087
-0.000113738
0.000138801
-0.000119055
9.8151e-05
-0.000119621
4.40003e-05
-0.000117352
-2.72596e-05
-0.000108638
-0.000100838
-8.76067e-05
-0.000170508
-5.82421e-05
-0.000229303
-2.59908e-05
-0.000275148
-4.91522e-06
-0.000271412
-2.84454e-07
-0.000227978
-1.84367e-05
-0.000178056
-0.000149898
-6.66183e-05
-0.000228411
-0.000525055
-0.00023313
-0.000470962
-0.00026196
-0.00040805
-0.000315431
-0.000354695
-0.000334403
-0.000264316
-0.000342538
-0.000166386
-0.000333785
-8.42627e-05
-0.000314401
-2.22243e-05
-0.00029215
1.90236e-05
-0.000266385
5.14327e-05
-0.000245634
7.66333e-05
-0.000228155
0.000104045
-0.000209609
0.000129864
-0.000189521
0.000153417
-0.000168222
0.000172351
-0.000148317
0.000184406
-0.000131944
0.000190172
-0.000120262
0.000187837
-0.000111391
0.000177757
-0.000103366
0.000164183
-9.54986e-05
0.000143505
-8.7545e-05
0.000113511
-8.22124e-05
7.34765e-05
-8.01338e-05
2.01569e-05
-7.9317e-05
-4.51983e-05
-6.8476e-05
-0.000112621
-4.54962e-05
-0.000177327
-2.15095e-05
-0.000233174
-1.55413e-06
-0.000279262
5.25825e-06
-0.000263164
-8.07324e-06
-0.00021269
-3.98805e-05
-0.000174858
-0.000142089
-8.12067e-05
-0.000267582
-0.000510382
-0.000279488
-0.000455874
-0.000324327
-0.000392185
-0.000379859
-0.000329733
-0.000386895
-0.000227076
-0.000381809
-0.000121618
-0.000352194
-3.65541e-05
-0.000313476
1.55818e-05
-0.000286758
4.74845e-05
-0.000270936
7.49114e-05
-0.00025949
9.79811e-05
-0.000246455
0.000118948
-0.00023118
0.000137148
-0.000213446
0.000152469
-0.000194616
0.000164381
-0.000175296
0.000170927
-0.000155535
0.000169326
-0.000136417
0.00016325
-0.000117614
0.000152343
-9.86426e-05
0.000136146
-7.91314e-05
0.000111936
-6.34548e-05
7.94928e-05
-5.50431e-05
3.87365e-05
-5.03324e-05
-1.46085e-05
-4.43614e-05
-7.2201e-05
-3.06941e-05
-0.000129116
-1.15665e-05
-0.00018212
5.32043e-06
-0.000227703
1.47041e-05
-0.000265375
4.85155e-06
-0.000236437
-2.23514e-05
-0.00018656
-5.96813e-05
-0.000168932
-0.000135181
-8.71731e-05
-0.000304635
-0.00049509
-0.000322438
-0.000440125
-0.000372022
-0.000374333
-0.000423421
-0.000304527
-0.000425805
-0.000190988
-0.00040571
-7.77562e-05
-0.000357869
3.59538e-06
-0.000307938
4.61185e-05
-0.000284955
7.30151e-05
-0.000275185
9.58274e-05
-0.000266664
0.000114202
-0.000256249
0.000127994
-0.000242704
0.000138655
-0.000226476
0.000146937
-0.000208292
0.000151604
-0.000188226
0.000150445
-0.000166772
0.00014563
-0.000143515
0.000136556
-0.000118701
0.000122633
-9.282e-05
0.000102867
-6.6393e-05
7.2457e-05
-4.49209e-05
3.64685e-05
-3.14231e-05
-4.55915e-06
-2.30835e-05
-5.24921e-05
-1.43889e-05
-9.76157e-05
-1.42375e-06
-0.000140536
1.27165e-05
-0.000179947
2.36873e-05
-0.000213708
1.85321e-05
-0.000233469
-8.77502e-06
-0.000193843
-4.45894e-05
-0.000164932
-7.48652e-05
-0.000148496
-0.000137233
-9.64788e-05
-0.000330653
-0.000480281
-0.000351369
-0.000425065
-0.000400645
-0.000356756
-0.000451993
-0.00028046
-0.000448242
-0.000160026
-0.000415523
-4.34523e-05
-0.000354877
3.45624e-05
-0.000300974
7.13864e-05
-0.000277417
9.26114e-05
-0.000269286
0.000109716
-0.000261345
0.000121072
-0.000253362
0.000128248
-0.000242879
0.000133122
-0.000228701
0.000134181
-0.000212648
0.000132514
-0.000193588
0.00012825
-0.000171475
0.000120514
-0.000146521
0.0001086
-0.000118691
9.08667e-05
-8.63657e-05
6.29314e-05
-5.26677e-05
2.33086e-05
-2.87713e-05
-1.32563e-05
-1.298e-05
-5.16877e-05
-5.52739e-06
-8.6125e-05
4.88511e-06
-0.000116863
1.73874e-05
-0.000142936
2.82299e-05
-0.000165574
2.92999e-05
-0.000183652
9.71147e-06
-0.000182099
-2.89134e-05
-0.000147932
-6.99752e-05
-0.000144384
-9.1344e-05
-0.000128447
-0.000135674
-0.000104594
-0.000349507
-0.000466763
-0.00036852
-0.000412465
-0.000414268
-0.000342636
-0.000463321
-0.00026147
-0.000452638
-0.000140125
-0.000413177
-2.09205e-05
-0.000345896
5.66677e-05
-0.000285203
8.78348e-05
-0.000260381
0.000102971
-0.000252839
0.000113887
-0.000248299
0.000118843
-0.000243117
0.000120174
-0.000234998
0.000119483
-0.000225106
0.000117699
-0.000212048
0.00011342
-0.000194966
0.000107167
-0.000173748
9.68756e-05
-0.000148744
8.14354e-05
-0.000119126
5.69117e-05
-8.17266e-05
1.58229e-05
-4.74159e-05
-2.74359e-05
-2.24369e-05
-6.12688e-05
-7.76627e-06
-9.0832e-05
3.24621e-06
-0.000114198
1.48701e-05
-0.000129676
2.62179e-05
-0.000139
3.15172e-05
-0.000144717
2.29614e-05
-0.000146154
-9.65621e-06
-0.000130423
-5.46561e-05
-0.000109812
-9.3273e-05
-0.000112776
-0.000104969
-0.000113623
-0.00012707
-0.000114828
-0.000359158
-0.000454632
-0.000372942
-0.000401314