/*--------------------------------*- C++ -*----------------------------------*\
  =========                 |
  \\      /  F ield         | OpenFOAM: The Open Source CFD Toolbox
   \\    /   O peration     | Website:  https://openfoam.org
    \\  /    A nd           | Version:  10
     \\/     M anipulation  |
\*---------------------------------------------------------------------------*/
FoamFile
{
    format      ascii;
    class       volVectorField;
    location    "0.250933";
    object      U;
}
// * * * * * * * * * * * * * * * * * * * * * * * * * * * * * * * * * * * * * //

dimensions      [0 1 -1 0 0 0 0];

internalField   nonuniform List<vector> 
16320
(
(0.387973 0.0806065 0)
(0.339495 0.204641 0)
(0.285695 0.324358 0)
(0.250799 0.41675 0)
(0.2411 0.474044 0)
(0.249186 0.499897 0)
(0.270227 0.504869 0)
(0.29975 0.497631 0)
(0.326464 0.485168 0)
(0.356355 0.461914 0)
(0.392971 0.429766 0)
(0.419377 0.395574 0)
(0.428968 0.361752 0)
(0.424067 0.331211 0)
(0.411667 0.305075 0)
(0.401403 0.280769 0)
(0.401544 0.256119 0)
(0.413664 0.232128 0)
(0.435517 0.208402 0)
(0.462443 0.185457 0)
(0.488814 0.163459 0)
(0.507894 0.14176 0)
(0.519441 0.12033 0)
(0.52209 0.0992692 0)
(0.505408 0.0792751 0)
(0.458786 0.0580957 0)
(0.396416 0.0272525 0)
(0.344747 -0.0103537 0)
(0.310395 -0.0424867 0)
(0.284605 -0.0647836 0)
(0.260147 -0.0767835 0)
(0.22713 -0.0794851 0)
(0.18881 -0.0801095 0)
(0.429311 0.0542408 0)
(0.401968 0.147742 0)
(0.35148 0.247475 0)
(0.306496 0.332316 0)
(0.281986 0.390275 0)
(0.276082 0.418744 0)
(0.288442 0.425099 0)
(0.317172 0.418166 0)
(0.347024 0.404884 0)
(0.381165 0.385427 0)
(0.427599 0.355193 0)
(0.4674 0.323293 0)
(0.488407 0.290829 0)
(0.492012 0.260975 0)
(0.483627 0.236276 0)
(0.47115 0.216701 0)
(0.463752 0.200474 0)
(0.46643 0.185701 0)
(0.479177 0.170112 0)
(0.497879 0.153343 0)
(0.515739 0.135917 0)
(0.527175 0.118149 0)
(0.534324 0.100084 0)
(0.534897 0.0829676 0)
(0.515221 0.0652266 0)
(0.458961 0.0425608 0)
(0.385957 0.00806568 0)
(0.328139 -0.0261322 0)
(0.293687 -0.0486828 0)
(0.270624 -0.0584257 0)
(0.249439 -0.0572526 0)
(0.218404 -0.0493253 0)
(0.183529 -0.0390861 0)
(0.425139 0.0367539 0)
(0.410371 0.106293 0)
(0.372733 0.179126 0)
(0.326111 0.247934 0)
(0.294852 0.299715 0)
(0.280918 0.327766 0)
(0.288164 0.333617 0)
(0.317059 0.324941 0)
(0.353017 0.308044 0)
(0.392781 0.289318 0)
(0.446765 0.258109 0)
(0.499921 0.225149 0)
(0.533509 0.193856 0)
(0.547516 0.167447 0)
(0.545541 0.148755 0)
(0.533342 0.138413 0)
(0.5203 0.133625 0)
(0.513367 0.129511 0)
(0.514926 0.12345 0)
(0.523066 0.115377 0)
(0.533678 0.105775 0)
(0.540042 0.0951745 0)
(0.542319 0.0819117 0)
(0.537826 0.067548 0)
(0.510624 0.0492849 0)
(0.443593 0.0206043 0)
(0.363039 -0.0168158 0)
(0.306609 -0.0429639 0)
(0.277341 -0.0513631 0)
(0.25864 -0.0452078 0)
(0.239307 -0.0290864 0)
(0.210193 -0.0106454 0)
(0.180901 0.00862887 0)
(0.358328 0.0275237 0)
(0.348867 0.0769025 0)
(0.32626 0.123722 0)
(0.290969 0.173975 0)
(0.263182 0.215248 0)
(0.251099 0.239475 0)
(0.259961 0.245252 0)
(0.293537 0.23694 0)
(0.339138 0.218047 0)
(0.38587 0.198611 0)
(0.445129 0.16596 0)
(0.509704 0.128353 0)
(0.556902 0.0955866 0)
(0.584203 0.0697329 0)
(0.592907 0.0534841 0)
(0.585826 0.048607 0)
(0.570285 0.0531119 0)
(0.553721 0.0625943 0)
(0.544844 0.0713484 0)
(0.544557 0.0765904 0)
(0.547546 0.077034 0)
(0.546982 0.0721487 0)
(0.544186 0.0616591 0)
(0.534193 0.0488833 0)
(0.495094 0.0280412 0)
(0.415375 -0.0097519 0)
(0.33539 -0.0446166 0)
(0.288604 -0.0576906 0)
(0.267758 -0.0500094 0)
(0.254937 -0.0297422 0)
(0.238444 -0.00198106 0)
(0.214159 0.0245541 0)
(0.192415 0.0496404 0)
(0.226228 0.0147208 0)
(0.221528 0.0514056 0)
(0.212072 0.0807669 0)
(0.197364 0.113093 0)
(0.189236 0.141956 0)
(0.192091 0.160733 0)
(0.212078 0.168001 0)
(0.253134 0.163391 0)
(0.309283 0.14785 0)
(0.363347 0.127837 0)
(0.424984 0.0980932 0)
(0.498587 0.0546268 0)
(0.560301 0.014713 0)
(0.600483 -0.0157813 0)
(0.620399 -0.0327801 0)
(0.622143 -0.0346028 0)
(0.610406 -0.022953 0)
(0.593 -0.00275499 0)
(0.578031 0.0186753 0)
(0.569568 0.0352773 0)
(0.564213 0.0450771 0)
(0.555727 0.0460996 0)
(0.54601 0.0404107 0)
(0.525942 0.0274753 0)
(0.468437 -0.000821093 0)
(0.379241 -0.0464811 0)
(0.309818 -0.0683195 0)
(0.277743 -0.0627428 0)
(0.264783 -0.038376 0)
(0.255268 -0.00435608 0)
(0.239257 0.0321048 0)
(0.218155 0.063373 0)
(0.20386 0.0903375 0)
(0.0551139 -0.00125035 0)
(0.0547838 0.0235691 0)
(0.0606533 0.0428688 0)
(0.0764982 0.0602515 0)
(0.0952629 0.0741 0)
(0.119909 0.0858496 0)
(0.158368 0.0925371 0)
(0.21515 0.0896851 0)
(0.285434 0.0763489 0)
(0.353517 0.054118 0)
(0.419899 0.0351467 0)
(0.495469 0.00151144 0)
(0.566566 -0.0341109 0)
(0.615568 -0.0625748 0)
(0.644523 -0.0812755 0)
(0.655362 -0.0873122 0)
(0.65192 -0.0790237 0)
(0.639632 -0.0592109 0)
(0.623634 -0.0329138 0)
(0.607431 -0.00667561 0)
(0.59036 0.0130737 0)
(0.569653 0.0199311 0)
(0.547394 0.0177104 0)
(0.508092 0.00103765 0)
(0.427373 -0.0389854 0)
(0.34114 -0.0778069 0)
(0.291506 -0.078692 0)
(0.271742 -0.053456 0)
(0.262704 -0.0139084 0)
(0.253214 0.030746 0)
(0.236896 0.0698002 0)
(0.22043 0.102368 0)
(0.21434 0.127597 0)
(-0.0777469 -0.0139883 0)
(-0.0744648 -0.00501598 0)
(-0.045021 -0.00762742 0)
(0.00222514 -0.0148307 0)
(0.0560698 -0.0171451 0)
(0.112588 -0.0139028 0)
(0.172469 -0.00729977 0)
(0.238758 -0.00315404 0)
(0.310627 -0.00610707 0)
(0.381966 -0.0175207 0)
(0.44516 -0.0268213 0)
(0.510068 -0.0428251 0)
(0.576076 -0.0665087 0)
(0.627308 -0.0851529 0)
(0.661146 -0.0976796 0)
(0.681156 -0.103282 0)
(0.689463 -0.10019 0)
(0.686026 -0.0861857 0)
(0.672696 -0.0628599 0)
(0.651613 -0.0352669 0)
(0.621296 -0.0122679 0)
(0.584399 -0.00435474 0)
(0.543544 -0.00701595 0)
(0.476204 -0.030991 0)
(0.38105 -0.0763885 0)
(0.310617 -0.0907168 0)
(0.279754 -0.0691536 0)
(0.266362 -0.0274507 0)
(0.256258 0.0246232 0)
(0.243388 0.0727125 0)
(0.228049 0.110894 0)
(0.219875 0.139275 0)
(0.223276 0.159106 0)
(-0.147378 -0.0483119 0)
(-0.117652 -0.0712062 0)
(-0.0603817 -0.107049 0)
(0.0149954 -0.132625 0)
(0.0909247 -0.146276 0)
(0.163513 -0.149259 0)
(0.232736 -0.143164 0)
(0.298929 -0.131251 0)
(0.36271 -0.118385 0)
(0.424522 -0.109028 0)
(0.478607 -0.10295 0)
(0.527983 -0.0985415 0)
(0.58164 -0.10256 0)
(0.631875 -0.108797 0)
(0.669371 -0.112672 0)
(0.695124 -0.111387 0)
(0.711098 -0.104406 0)
(0.717137 -0.0909843 0)
(0.710758 -0.0709093 0)
(0.689399 -0.0466748 0)
(0.646654 -0.0271999 0)
(0.59211 -0.0220978 0)
(0.527731 -0.03052 0)
(0.430116 -0.0644462 0)
(0.336472 -0.0939542 0)
(0.288812 -0.0805778 0)
(0.267975 -0.0406439 0)
(0.252889 0.0161014 0)
(0.239769 0.0722901 0)
(0.225477 0.118288 0)
(0.214575 0.151417 0)
(0.216981 0.170738 0)
(0.230711 0.182756 0)
(-0.149469 -0.130872 0)
(-0.0920297 -0.181162 0)
(-0.013644 -0.223027 0)
(0.0695136 -0.247509 0)
(0.148837 -0.260106 0)
(0.224519 -0.262709 0)
(0.294919 -0.25523 0)
(0.359208 -0.239136 0)
(0.417358 -0.216696 0)
(0.470919 -0.191741 0)
(0.519021 -0.169506 0)
(0.562216 -0.147883 0)
(0.605364 -0.13125 0)
(0.64629 -0.12236 0)
(0.680872 -0.116065 0)
(0.70916 -0.108722 0)
(0.729977 -0.0979809 0)
(0.740741 -0.0830964 0)
(0.738209 -0.0648957 0)
(0.714991 -0.0463789 0)
(0.660938 -0.0362123 0)
(0.586779 -0.0338937 0)
(0.492058 -0.0520573 0)
(0.377684 -0.0872123 0)
(0.299215 -0.086031 0)
(0.267505 -0.0506911 0)
(0.24711 0.00688768 0)
(0.229521 0.0695142 0)
(0.213284 0.124361 0)
(0.200257 0.164166 0)
(0.199445 0.186474 0)
(0.214084 0.193156 0)
(0.237808 0.197079 0)
(-0.0915604 -0.222014 0)
(-0.0175833 -0.279427 0)
(0.0541415 -0.312226 0)
(0.127012 -0.331886 0)
(0.202833 -0.346779 0)
(0.276272 -0.3548 0)
(0.345023 -0.353536 0)
(0.407969 -0.342403 0)
(0.464959 -0.321458 0)
(0.516691 -0.291488 0)
(0.563594 -0.255257 0)
(0.606956 -0.21561 0)
(0.64825 -0.177981 0)
(0.685336 -0.149538 0)
(0.715331 -0.128711 0)
(0.738783 -0.110318 0)
(0.756636 -0.0926043 0)
(0.765956 -0.0742384 0)
(0.760187 -0.0557348 0)
(0.72728 -0.0424777 0)
(0.661102 -0.0400456 0)
(0.565216 -0.0438801 0)
(0.440595 -0.0690198 0)
(0.327418 -0.0834036 0)
(0.26808 -0.0573299 0)
(0.240573 -0.00106772 0)
(0.219311 0.064883 0)
(0.197385 0.127375 0)
(0.180559 0.176356 0)
(0.174175 0.205486 0)
(0.186333 0.211624 0)
(0.212802 0.204211 0)
(0.245566 0.201998 0)
(-0.0131075 -0.305543 0)
(0.049707 -0.35364 0)
(0.112258 -0.387265 0)
(0.178705 -0.413491 0)
(0.245835 -0.433299 0)
(0.313498 -0.444237 0)
(0.379681 -0.446082 0)
(0.442114 -0.438717 0)
(0.500406 -0.420725 0)
(0.555877 -0.390562 0)
(0.608391 -0.349632 0)
(0.656456 -0.299708 0)
(0.698069 -0.245623 0)
(0.731493 -0.195048 0)
(0.759268 -0.154102 0)
(0.781165 -0.12223 0)
(0.794398 -0.0958133 0)
(0.796836 -0.072573 0)
(0.779936 -0.0530787 0)
(0.730997 -0.0420892 0)
(0.646478 -0.0405483 0)
(0.52547 -0.053428 0)
(0.386972 -0.0733041 0)
(0.284912 -0.0608712 0)
(0.238181 -0.0101402 0)
(0.21235 0.0593025 0)
(0.185415 0.125662 0)
(0.160744 0.18498 0)
(0.147525 0.224458 0)
(0.15201 0.23628 0)
(0.177494 0.223091 0)
(0.214519 0.203556 0)
(0.254515 0.19821 0)
(0.0406474 -0.372136 0)
(0.0908452 -0.420398 0)
(0.147943 -0.460211 0)
(0.210834 -0.490842 0)
(0.275732 -0.509471 0)
(0.34076 -0.517556 0)
(0.403842 -0.517437 0)
(0.464984 -0.508755 0)
(0.525434 -0.489621 0)
(0.583568 -0.459519 0)
(0.637827 -0.420005 0)
(0.688216 -0.372071 0)
(0.734269 -0.317351 0)
(0.774359 -0.257642 0)
(0.805646 -0.197323 0)
(0.826393 -0.144423 0)
(0.835818 -0.105448 0)
(0.829574 -0.0763629 0)
(0.797896 -0.0550373 0)
(0.730088 -0.0435141 0)
(0.619655 -0.0445794 0)
(0.476186 -0.0607424 0)
(0.337176 -0.0605763 0)
(0.253693 -0.0238355 0)
(0.214714 0.0480645 0)
(0.181898 0.120912 0)
(0.148349 0.187283 0)
(0.125831 0.239308 0)
(0.1196 0.263434 0)
(0.136567 0.252792 0)
(0.174005 0.219774 0)
(0.217816 0.192664 0)
(0.261862 0.186857 0)
(0.0595985 -0.435311 0)
(0.108791 -0.486361 0)
(0.166331 -0.524744 0)
(0.227924 -0.551361 0)
(0.291378 -0.566995 0)
(0.354776 -0.573656 0)
(0.417752 -0.571775 0)
(0.481169 -0.559681 0)
(0.544312 -0.537335 0)
(0.605009 -0.505744 0)
(0.662168 -0.464857 0)
(0.715318 -0.415609 0)
(0.763582 -0.359239 0)
(0.806024 -0.297833 0)
(0.841981 -0.234324 0)
(0.86448 -0.171823 0)
(0.869862 -0.118995 0)
(0.856261 -0.0810175 0)
(0.810137 -0.0565983 0)
(0.7183 -0.0459282 0)
(0.58149 -0.0509968 0)
(0.429356 -0.0569562 0)
(0.300027 -0.0335685 0)
(0.232349 0.0291796 0)
(0.195324 0.107931 0)
(0.150913 0.183665 0)
(0.114161 0.246297 0)
(0.0968279 0.28537 0)
(0.0992292 0.290072 0)
(0.127415 0.255278 0)
(0.173994 0.205546 0)
(0.219797 0.173513 0)
(0.263868 0.169839 0)
(0.061074 -0.496329 0)
(0.112088 -0.542839 0)
(0.169786 -0.578437 0)
(0.232498 -0.603653 0)
(0.297395 -0.618455 0)
(0.362543 -0.623663 0)
(0.428833 -0.617969 0)
(0.495892 -0.600989 0)
(0.561892 -0.574028 0)
(0.625309 -0.537811 0)
(0.685024 -0.493002 0)
(0.740255 -0.440632 0)
(0.790225 -0.38218 0)
(0.833599 -0.319087 0)
(0.869497 -0.253721 0)
(0.892511 -0.190699 0)
(0.895606 -0.131482 0)
(0.871632 -0.0843977 0)
(0.806083 -0.0565582 0)
(0.689496 -0.0482427 0)
(0.537851 -0.0511031 0)
(0.387544 -0.0367722 0)
(0.275614 0.00714138 0)
(0.221047 0.0871287 0)
(0.175915 0.170028 0)
(0.122286 0.244622 0)
(0.0864582 0.297215 0)
(0.0764094 0.320396 0)
(0.0874847 0.304549 0)
(0.124559 0.245989 0)
(0.174098 0.185979 0)
(0.217083 0.151334 0)
(0.259373 0.149589 0)
(0.0521809 -0.547248 0)
(0.104805 -0.592498 0)
(0.164138 -0.626976 0)
(0.229355 -0.65098 0)
(0.297578 -0.665077 0)
(0.36773 -0.668252 0)
(0.439843 -0.658796 0)
(0.511553 -0.637236 0)
(0.581059 -0.604586 0)
(0.647285 -0.562009 0)
(0.709266 -0.51116 0)
(0.766048 -0.453549 0)
(0.816615 -0.390773 0)
(0.859623 -0.324811 0)
(0.89287 -0.257566 0)
(0.912285 -0.193808 0)
(0.910603 -0.134009 0)
(0.873863 -0.0836046 0)
(0.782513 -0.0523031 0)
(0.642967 -0.0439354 0)
(0.492256 -0.0368832 0)
(0.352708 0.000441891 0)
(0.262811 0.0599855 0)
(0.216801 0.147274 0)
(0.157573 0.232411 0)
(0.099008 0.299959 0)
(0.0678084 0.338769 0)
(0.0645985 0.344651 0)
(0.0827015 0.308618 0)
(0.126101 0.229539 0)
(0.172717 0.163115 0)
(0.210881 0.128624 0)
(0.24977 0.126768 0)
(0.0352239 -0.593159 0)
(0.09151 -0.639665 0)
(0.155175 -0.67451 0)
(0.224186 -0.697632 0)
(0.296726 -0.709683 0)
(0.372922 -0.708703 0)
(0.451278 -0.694708 0)
(0.528421 -0.668087 0)
(0.602235 -0.629441 0)
(0.671338 -0.580013 0)
(0.734978 -0.522227 0)
(0.792586 -0.458445 0)
(0.843055 -0.390396 0)
(0.884481 -0.320192 0)
(0.913317 -0.251546 0)
(0.926518 -0.186443 0)
(0.917143 -0.126996 0)
(0.865177 -0.077157 0)
(0.743901 -0.044988 0)
(0.585331 -0.0328343 0)
(0.448591 -0.0056393 0)
(0.328246 0.0502673 0)
(0.256122 0.121684 0)
(0.213773 0.209993 0)
(0.141893 0.292263 0)
(0.0827605 0.348914 0)
(0.0574809 0.371532 0)
(0.0593947 0.359329 0)
(0.0844786 0.303159 0)
(0.130762 0.209742 0)
(0.171989 0.140137 0)
(0.205822 0.105587 0)
(0.239428 0.101803 0)
(0.0131043 -0.636396 0)
(0.0746441 -0.685418 0)
(0.143885 -0.721374 0)
(0.218699 -0.744583 0)
(0.297755 -0.754195 0)
(0.380727 -0.748233 0)
(0.464816 -0.727796 0)
(0.546905 -0.694318 0)
(0.624823 -0.648881 0)
(0.696597 -0.592526 0)
(0.761451 -0.527634 0)
(0.819124 -0.457329 0)
(0.86871 -0.38355 0)
(0.906509 -0.309374 0)
(0.92947 -0.239219 0)
(0.934643 -0.172026 0)
(0.912914 -0.112067 0)
(0.841252 -0.064351 0)
(0.691578 -0.0330258 0)
(0.529415 -0.00852999 0)
(0.412164 0.0421946 0)
(0.312274 0.10701 0)
(0.253688 0.189165 0)
(0.208204 0.275438 0)
(0.128426 0.34887 0)
(0.0725774 0.391416 0)
(0.0526234 0.396352 0)
(0.0579457 0.36542 0)
(0.0899595 0.288503 0)
(0.136582 0.187479 0)
(0.172303 0.117331 0)
(0.201003 0.0815333 0)
(0.227967 0.0740355 0)
(-0.0120032 -0.676189 0)
(0.0561578 -0.728532 0)
(0.13177 -0.764834 0)
(0.213255 -0.787405 0)
(0.300064 -0.793882 0)
(0.391041 -0.783394 0)
(0.481362 -0.756546 0)
(0.567565 -0.715239 0)
(0.648604 -0.661886 0)
(0.722275 -0.598187 0)
(0.78746 -0.526514 0)
(0.844327 -0.450128 0)
(0.891147 -0.371536 0)
(0.923277 -0.294808 0)
(0.939613 -0.22228 0)
(0.93575 -0.153842 0)
(0.897602 -0.0932732 0)
(0.80177 -0.0489508 0)
(0.633831 -0.0178244 0)
(0.483319 0.0296445 0)
(0.383809 0.0992331 0)
(0.303362 0.169937 0)
(0.254538 0.25897 0)
(0.198218 0.340534 0)
(0.115814 0.401835 0)
(0.0657089 0.427535 0)
(0.04986 0.414134 0)
(0.0582001 0.363483 0)
(0.0956934 0.265487 0)
(0.138918 0.160932 0)
(0.168638 0.0900648 0)
(0.191286 0.0510508 0)
(0.21065 0.0357887 0)
(-0.0372111 -0.711552 0)
(0.0379855 -0.766413 0)
(0.120666 -0.802418 0)
(0.209201 -0.823558 0)
(0.303198 -0.826265 0)
(0.40121 -0.809474 0)
(0.498056 -0.776123 0)
(0.588747 -0.727344 0)
(0.672038 -0.666232 0)
(0.746067 -0.595168 0)
(0.809995 -0.518095 0)
(0.864427 -0.435785 0)
(0.906407 -0.354687 0)
(0.931705 -0.276969 0)
(0.940044 -0.201755 0)
(0.925007 -0.132595 0)
(0.867347 -0.0740575 0)
(0.746391 -0.0331452 0)
(0.576928 0.00677107 0)
(0.448781 0.0796641 0)
(0.361847 0.162166 0)
(0.296336 0.239247 0)
(0.253504 0.328645 0)
(0.183257 0.403097 0)
(0.103131 0.450303 0)
(0.0591479 0.457198 0)
(0.0460778 0.425435 0)
(0.057742 0.352494 0)
(0.0970815 0.236104 0)
(0.132533 0.128459 0)
(0.153776 0.0535595 0)
(0.166449 0.00625689 0)
(0.173829 -0.0232446 0)
(-0.0592487 -0.743372 0)
(0.0214103 -0.798922 0)
(0.110674 -0.83443 0)
(0.204921 -0.852236 0)
(0.306046 -0.848788 0)
(0.410196 -0.823762 0)
(0.511528 -0.782429 0)
(0.60535 -0.726672 0)
(0.690123 -0.658884 0)
(0.762533 -0.582113 0)
(0.824239 -0.499338 0)
(0.874452 -0.414694 0)
(0.908518 -0.332219 0)
(0.926991 -0.254206 0)
(0.92654 -0.177718 0)
(0.896245 -0.109456 0)
(0.816106 -0.0550188 0)
(0.679371 -0.0124469 0)
(0.525298 0.0477119 0)
(0.421419 0.141513 0)
(0.344774 0.229727 0)
(0.290302 0.313356 0)
(0.246466 0.398013 0)
(0.163417 0.462567 0)
(0.0889852 0.493159 0)
(0.0505261 0.480556 0)
(0.0386334 0.429554 0)
(0.053088 0.330515 0)
(0.0874998 0.198584 0)
(0.109595 0.0847867 0)
(0.117728 0.00151272 0)
(0.11604 -0.0577614 0)
(0.109044 -0.101014 0)
(-0.0771534 -0.772474 0)
(0.00740454 -0.824476 0)
(0.102798 -0.85688 0)
(0.201481 -0.869048 0)
(0.307018 -0.858277 0)
(0.414225 -0.826082 0)
(0.516822 -0.777637 0)
(0.610957 -0.714431 0)
(0.695006 -0.640315 0)
(0.765696 -0.559935 0)
(0.822091 -0.472495 0)
(0.865525 -0.386505 0)
(0.893788 -0.30422 0)
(0.904515 -0.225243 0)
(0.892143 -0.150706 0)
(0.843623 -0.0861481 0)
(0.746512 -0.0340498 0)
(0.610802 0.02161 0)
(0.4844 0.106778 0)
(0.398041 0.21153 0)
(0.329191 0.300838 0)
(0.281672 0.390017 0)
(0.229508 0.465122 0)
(0.13884 0.517449 0)
(0.0721044 0.528832 0)
(0.0376931 0.497179 0)
(0.0248582 0.423796 0)
(0.0391429 0.296333 0)
(0.0601433 0.149616 0)
(0.0649147 0.0280835 0)
(0.0548574 -0.0648748 0)
(0.0394389 -0.132338 0)
(0.0215666 -0.180022 0)
(-0.0861388 -0.797898 0)
(0.000636867 -0.846381 0)
(0.0969774 -0.877696 0)
(0.194529 -0.885229 0)
(0.299108 -0.866941 0)
(0.405071 -0.825525 0)
(0.506427 -0.766257 0)
(0.598536 -0.693704 0)
(0.67787 -0.612506 0)
(0.744202 -0.525848 0)
(0.796478 -0.436712 0)
(0.83306 -0.349632 0)
(0.854878 -0.267613 0)
(0.858847 -0.189555 0)
(0.832162 -0.119948 0)
(0.766042 -0.0582072 0)
(0.663409 0.00220414 0)
(0.548066 0.0802081 0)
(0.450444 0.183764 0)
(0.374176 0.287227 0)
(0.314356 0.375749 0)
(0.268595 0.464441 0)
(0.201401 0.527549 0)
(0.110428 0.564816 0)
(0.0514627 0.55591 0)
(0.0187169 0.504891 0)
(0.00260576 0.404542 0)
(0.00996747 0.248006 0)
(0.0112511 0.089895 0)
(-0.0045417 -0.039114 0)
(-0.0265934 -0.134083 0)
(-0.0494604 -0.199251 0)
(-0.0692477 -0.229104 0)
(-0.0900407 -0.832021 0)
(-0.00854059 -0.880478 0)
(0.0845944 -0.911757 0)
(0.179138 -0.911476 0)
(0.280485 -0.879513 0)
(0.38352 -0.821114 0)
(0.478681 -0.745856 0)
(0.562527 -0.661599 0)
(0.635501 -0.571642 0)
(0.694227 -0.478871 0)
(0.73757 -0.387381 0)
(0.769055 -0.30213 0)
(0.787054 -0.22083 0)
(0.781138 -0.146524 0)
(0.742377 -0.0827742 0)
(0.669884 -0.0152525 0)
(0.57701 0.0642751 0)
(0.490153 0.161751 0)
(0.41509 0.266547 0)
(0.346553 0.365329 0)
(0.295054 0.453648 0)
(0.24605 0.532486 0)
(0.163495 0.582255 0)
(0.078991 0.601042 0)
(0.0259555 0.571545 0)
(-0.00935443 0.496646 0)
(-0.0313212 0.365681 0)
(-0.0389397 0.182047 0)
(-0.0564647 0.0182385 0)
(-0.0845525 -0.107842 0)
(-0.107676 -0.194297 0)
(-0.13112 -0.238803 0)
(-0.151309 -0.244174 0)
(-0.0982594 -0.882227 0)
(-0.0228106 -0.927464 0)
(0.0674817 -0.950775 0)
(0.159266 -0.934883 0)
(0.254122 -0.884286 0)
(0.345591 -0.804943 0)
(0.425777 -0.71265 0)
(0.495982 -0.614701 0)
(0.556635 -0.514687 0)
(0.60481 -0.418338 0)
(0.641145 -0.328765 0)
(0.669974 -0.244422 0)
(0.684266 -0.166166 0)
(0.668997 -0.0971886 0)
(0.625839 -0.0279851 0)
(0.560285 0.055738 0)
(0.489401 0.150323 0)
(0.427753 0.253352 0)
(0.369867 0.351781 0)
(0.314133 0.443114 0)
(0.269238 0.527614 0)
(0.210433 0.588348 0)
(0.118638 0.62367 0)
(0.0445063 0.621733 0)
(-0.00745516 0.567192 0)
(-0.0499496 0.462652 0)
(-0.0814556 0.296108 0)
(-0.104863 0.0959947 0)
(-0.132118 -0.0614553 0)
(-0.153455 -0.169886 0)
(-0.170319 -0.236628 0)
(-0.189385 -0.257092 0)
(-0.206751 -0.242123 0)
(-0.111587 -0.93459 0)
(-0.038165 -0.973103 0)
(0.0494043 -0.986366 0)
(0.131805 -0.955373 0)
(0.208863 -0.883921 0)
(0.279095 -0.78066 0)
(0.33785 -0.668695 0)
(0.389903 -0.55626 0)
(0.434909 -0.447481 0)
(0.471873 -0.35128 0)
(0.505623 -0.264901 0)
(0.534964 -0.181792 0)
(0.543982 -0.107048 0)
(0.524886 -0.034522 0)
(0.486349 0.0537085 0)
(0.439686 0.147275 0)
(0.396341 0.24667 0)
(0.358377 0.342557 0)
(0.315163 0.433383 0)
(0.274658 0.515348 0)
(0.231588 0.585315 0)
(0.160255 0.626148 0)
(0.0723816 0.644955 0)
(0.00427925 0.616477 0)
(-0.0543167 0.529097 0)
(-0.107788 0.386217 0)
(-0.148474 0.186738 0)
(-0.174325 -0.00824523 0)
(-0.191556 -0.144013 0)
(-0.197319 -0.226589 0)
(-0.202771 -0.268747 0)
(-0.21505 -0.26933 0)
(-0.224873 -0.238154 0)
(-0.12925 -0.982484 0)
(-0.0605395 -1.01611 0)
(0.016891 -1.02228 0)
(0.0853288 -0.981054 0)
(0.13883 -0.884025 0)
(0.180558 -0.753016 0)
(0.21255 -0.622509 0)
(0.244155 -0.504803 0)
(0.275362 -0.396171 0)
(0.305289 -0.298614 0)
(0.340712 -0.205488 0)
(0.368762 -0.118219 0)
(0.371045 -0.0396777 0)
(0.351914 0.0520937 0)
(0.334336 0.147193 0)
(0.314313 0.24172 0)
(0.298343 0.33433 0)
(0.279973 0.419661 0)
(0.254507 0.499397 0)
(0.225782 0.568708 0)
(0.1803 0.616814 0)
(0.103024 0.639037 0)
(0.0226196 0.632299 0)
(-0.0503724 0.56439 0)
(-0.122106 0.435234 0)
(-0.18302 0.255092 0)
(-0.216989 0.0459818 0)
(-0.227475 -0.12318 0)
(-0.223207 -0.227088 0)
(-0.212051 -0.282374 0)
(-0.205235 -0.301907 0)
(-0.205939 -0.28866 0)
(-0.204254 -0.247819 0)
(-0.16016 -1.02426 0)
(-0.0976271 -1.0544 0)
(-0.0354154 -1.05096 0)
(0.0151524 -0.993271 0)
(0.0433042 -0.86675 0)
(0.0522135 -0.714708 0)
(0.0544665 -0.579008 0)
(0.0718655 -0.464638 0)
(0.101467 -0.353491 0)
(0.132 -0.248258 0)
(0.165577 -0.144665 0)
(0.178611 -0.0561833 0)
(0.166276 0.0497808 0)
(0.177777 0.14502 0)
(0.185843 0.232969 0)
(0.192535 0.318728 0)
(0.1978 0.401676 0)
(0.197901 0.476662 0)
(0.189397 0.542381 0)
(0.168374 0.591966 0)
(0.117166 0.612339 0)
(0.039107 0.608514 0)
(-0.0435318 0.55745 0)
(-0.128295 0.444059 0)
(-0.205848 0.282556 0)
(-0.253956 0.09355 0)
(-0.263956 -0.0947605 0)
(-0.248498 -0.220275 0)
(-0.22605 -0.294302 0)
(-0.202931 -0.330135 0)
(-0.185072 -0.335278 0)
(-0.172125 -0.313259 0)
(-0.159705 -0.266665 0)
(-0.203277 -1.05313 0)
(-0.150973 -1.07304 0)
(-0.10415 -1.04879 0)
(-0.0776265 -0.959558 0)
(-0.0789791 -0.804549 0)
(-0.0985704 -0.647734 0)
(-0.103825 -0.517944 0)
(-0.0898778 -0.405083 0)
(-0.0702385 -0.290914 0)
(-0.0516122 -0.18242 0)
(-0.0500938 -0.0697746 0)
(-0.052102 0.0563293 0)
(-0.0135665 0.135648 0)
(0.0200629 0.210325 0)
(0.0526477 0.286829 0)
(0.0815144 0.364599 0)
(0.103721 0.439796 0)
(0.117831 0.503206 0)
(0.120901 0.548699 0)
(0.0972165 0.56446 0)
(0.0376126 0.55032 0)
(-0.0434758 0.50534 0)
(-0.130258 0.413129 0)
(-0.211896 0.279935 0)
(-0.267147 0.123735 0)
(-0.283876 -0.0426701 0)
(-0.266585 -0.186991 0)
(-0.237176 -0.282173 0)
(-0.205106 -0.342174 0)
(-0.173344 -0.372994 0)
(-0.144055 -0.373725 0)
(-0.114921 -0.345687 0)
(-0.10383 -0.293762 0)
(-0.254876 -1.06293 0)
(-0.214189 -1.06311 0)
(-0.187131 -1.00834 0)
(-0.187171 -0.880367 0)
(-0.217389 -0.712181 0)
(-0.243569 -0.564207 0)
(-0.252361 -0.437289 0)
(-0.257977 -0.319815 0)
(-0.261595 -0.199814 0)
(-0.267619 -0.0774315 0)
(-0.262167 0.0217725 0)
(-0.210785 0.0944443 0)
(-0.163246 0.164903 0)
(-0.113184 0.237307 0)
(-0.0631113 0.312509 0)
(-0.01639 0.384045 0)
(0.0189081 0.446969 0)
(0.0402049 0.486391 0)
(0.0385156 0.496261 0)
(0.00199861 0.474506 0)
(-0.0587811 0.431373 0)
(-0.1305 0.361409 0)
(-0.198857 0.264668 0)
(-0.249269 0.148 0)
(-0.271738 0.0193956 0)
(-0.262949 -0.11332 0)
(-0.235755 -0.22605 0)
(-0.202911 -0.3082 0)
(-0.164476 -0.367536 0)
(-0.122715 -0.400199 0)
(-0.0818792 -0.401622 0)
(-0.0505964 -0.372254 0)
(-0.0614969 -0.301417 0)
(-0.311505 -1.05358 0)
(-0.28618 -1.03028 0)
(-0.281174 -0.943116 0)
(-0.306196 -0.787026 0)
(-0.348206 -0.621222 0)
(-0.37617 -0.47513 0)
(-0.395714 -0.349043 0)
(-0.413248 -0.229257 0)
(-0.422332 -0.117304 0)
(-0.413306 -0.0244071 0)
(-0.372757 0.054167 0)
(-0.324893 0.125972 0)
(-0.272586 0.196549 0)
(-0.215191 0.26683 0)
(-0.158477 0.333042 0)
(-0.107122 0.386479 0)
(-0.0705695 0.419795 0)
(-0.0561566 0.428714 0)
(-0.0637478 0.410602 0)
(-0.0924387 0.374752 0)
(-0.133786 0.324458 0)
(-0.176159 0.258698 0)
(-0.209258 0.178801 0)
(-0.228369 0.0849326 0)
(-0.227987 -0.0217592 0)
(-0.210849 -0.135716 0)
(-0.18823 -0.234671 0)
(-0.15678 -0.314773 0)
(-0.115087 -0.381324 0)
(-0.0689986 -0.416035 0)
(-0.0267962 -0.413766 0)
(-0.00431062 -0.365665 0)
(-0.0424741 -0.269389 0)
(-0.372491 -1.028 0)
(-0.362805 -0.980835 0)
(-0.375608 -0.863369 0)
(-0.414497 -0.692248 0)
(-0.452231 -0.527081 0)
(-0.476954 -0.380338 0)
(-0.500037 -0.254289 0)
(-0.515722 -0.143371 0)
(-0.5157 -0.0505055 0)
(-0.493833 0.02689 0)
(-0.455686 0.0930985 0)
(-0.409539 0.156944 0)
(-0.357288 0.222313 0)
(-0.303082 0.283135 0)
(-0.251456 0.334153 0)
(-0.206858 0.367846 0)
(-0.172218 0.379755 0)
(-0.151897 0.373037 0)
(-0.147543 0.350795 0)
(-0.154508 0.315346 0)
(-0.165367 0.269723 0)
(-0.173809 0.213336 0)
(-0.177715 0.143918 0)
(-0.175681 0.0618721 0)
(-0.165247 -0.0352587 0)
(-0.151302 -0.142717 0)
(-0.13227 -0.235056 0)
(-0.101645 -0.319226 0)
(-0.0625497 -0.397325 0)
(-0.0230346 -0.428509 0)
(0.00631723 -0.406378 0)
(0.00117441 -0.328688 0)
(-0.0724614 -0.23047 0)
(-0.43242 -0.988947 0)
(-0.434667 -0.919229 0)
(-0.457365 -0.778873 0)
(-0.494949 -0.598449 0)
(-0.521564 -0.430095 0)
(-0.53927 -0.285043 0)
(-0.558632 -0.167153 0)
(-0.5711 -0.0734041 0)
(-0.568645 0.00381156 0)
(-0.547673 0.069841 0)
(-0.51712 0.13018 0)
(-0.478005 0.189832 0)
(-0.431457 0.243858 0)
(-0.382665 0.290271 0)
(-0.334714 0.326018 0)
(-0.291056 0.346786 0)
(-0.253288 0.351301 0)
(-0.223555 0.340588 0)
(-0.201315 0.318041 0)
(-0.182637 0.285014 0)
(-0.164219 0.242117 0)
(-0.145838 0.186982 0)
(-0.130037 0.120027 0)
(-0.117969 0.0414848 0)
(-0.106953 -0.0522939 0)
(-0.09786 -0.149257 0)
(-0.0770608 -0.237009 0)
(-0.0466044 -0.324442 0)
(-0.0177427 -0.41077 0)
(0.00832153 -0.430624 0)
(0.0123267 -0.378057 0)
(-0.028815 -0.282765 0)
(-0.0983359 -0.202158 0)
(-0.486951 -0.941706 0)
(-0.496105 -0.852668 0)
(-0.518209 -0.696973 0)
(-0.544045 -0.511145 0)
(-0.557405 -0.341902 0)
(-0.566014 -0.197843 0)
(-0.577804 -0.0855745 0)
(-0.584946 -0.00135039 0)
(-0.582432 0.0642474 0)
(-0.569906 0.125179 0)
(-0.548986 0.179119 0)
(-0.519096 0.226508 0)
(-0.480785 0.265657 0)
(-0.437824 0.297145 0)
(-0.393321 0.319369 0)
(-0.349025 0.329396 0)
(-0.305246 0.326623 0)
(-0.263629 0.312027 0)
(-0.224412 0.287877 0)
(-0.185924 0.253925 0)
(-0.146966 0.20765 0)
(-0.112664 0.148724 0)
(-0.0883589 0.0833119 0)
(-0.0735906 0.00913338 0)
(-0.062458 -0.080703 0)
(-0.0505546 -0.165281 0)
(-0.0305162 -0.245415 0)
(-0.00341299 -0.325169 0)
(0.0151719 -0.407752 0)
(0.0238954 -0.407952 0)
(-0.00283612 -0.326015 0)
(-0.0619105 -0.241728 0)
(-0.107727 -0.182444 0)
(-0.531981 -0.891952 0)
(-0.541656 -0.789097 0)
(-0.557248 -0.625198 0)
(-0.568837 -0.437872 0)
(-0.566569 -0.26798 0)
(-0.562333 -0.124161 0)
(-0.566295 -0.0172207 0)
(-0.568705 0.057801 0)
(-0.566988 0.11846 0)
(-0.562729 0.172198 0)
(-0.552586 0.216165 0)
(-0.532661 0.250373 0)
(-0.502992 0.275689 0)
(-0.465567 0.294283 0)
(-0.423639 0.305333 0)
(-0.379046 0.305547 0)
(-0.331978 0.29494 0)
(-0.283036 0.274239 0)
(-0.232753 0.244742 0)
(-0.18189 0.205734 0)
(-0.129945 0.154389 0)
(-0.0858204 0.0971046 0)
(-0.0554713 0.0318215 0)
(-0.0345222 -0.0456344 0)
(-0.024841 -0.117306 0)
(-0.0114434 -0.183845 0)
(0.00748331 -0.251493 0)
(0.0271763 -0.318429 0)
(0.0337672 -0.384319 0)
(0.0216692 -0.357801 0)
(-0.0386601 -0.2661 0)
(-0.095085 -0.208019 0)
(-0.113914 -0.185481 0)
(-0.565737 -0.84465 0)
(-0.571347 -0.734467 0)
(-0.577061 -0.567563 0)
(-0.572817 -0.379377 0)
(-0.555646 -0.209875 0)
(-0.541537 -0.0689616 0)
(-0.537887 0.0323143 0)
(-0.53446 0.101525 0)
(-0.530827 0.156893 0)
(-0.53253 0.201672 0)
(-0.532764 0.235497 0)
(-0.524413 0.258549 0)
(-0.504022 0.272132 0)
(-0.472446 0.279513 0)
(-0.435436 0.280094 0)
(-0.3937 0.270725 0)
(-0.345462 0.252573 0)
(-0.292221 0.22636 0)
(-0.235517 0.19178 0)
(-0.176543 0.147059 0)
(-0.111819 0.0871453 0)
(-0.0608717 0.0220473 0)
(-0.0270752 -0.0432363 0)
(-0.0100076 -0.0972967 0)
(0.0024901 -0.146531 0)
(0.0179116 -0.195225 0)
(0.0345499 -0.246997 0)
(0.0446891 -0.300873 0)
(0.0387797 -0.344789 0)
(-0.00377509 -0.288495 0)
(-0.0827658 -0.21674 0)
(-0.123137 -0.180659 0)
(-0.1304 -0.200395 0)
(-0.587901 -0.803157 0)
(-0.586285 -0.690935 0)
(-0.580453 -0.525082 0)
(-0.562535 -0.336458 0)
(-0.533946 -0.169572 0)
(-0.511307 -0.0327989 0)
(-0.500551 0.0643407 0)
(-0.489084 0.129856 0)
(-0.481227 0.178448 0)
(-0.487138 0.214002 0)
(-0.497057 0.237827 0)
(-0.501218 0.251051 0)
(-0.492423 0.255526 0)
(-0.468981 0.254505 0)
(-0.438289 0.24717 0)
(-0.400253 0.232242 0)
(-0.35262 0.209908 0)
(-0.298162 0.179702 0)
(-0.238718 0.138603 0)
(-0.175214 0.0803697 0)
(-0.102156 0.00384848 0)
(-0.0507618 -0.0573117 0)
(-0.0186244 -0.100273 0)
(0.000356125 -0.137906 0)
(0.0168668 -0.169538 0)
(0.0333519 -0.198907 0)
(0.0469813 -0.23236 0)
(0.0487696 -0.269637 0)
(0.0253292 -0.282822 0)
(-0.0543686 -0.21383 0)
(-0.127851 -0.171932 0)
(-0.145014 -0.165707 0)
(-0.153105 -0.209196 0)
(-0.599484 -0.768619 0)
(-0.589179 -0.659685 0)
(-0.571235 -0.499677 0)
(-0.542272 -0.313693 0)
(-0.506062 -0.148063 0)
(-0.475724 -0.0128321 0)
(-0.457989 0.0817218 0)
(-0.437879 0.143054 0)
(-0.42419 0.18261 0)
(-0.43375 0.207771 0)
(-0.454107 0.223163 0)
(-0.472025 0.22901 0)
(-0.474887 0.228587 0)
(-0.460382 0.223737 0)
(-0.4366 0.213158 0)
(-0.403226 0.195874 0)
(-0.358864 0.170456 0)
(-0.307346 0.13403 0)
(-0.249901 0.0795617 0)
(-0.17734 -0.00887014 0)
(-0.100749 -0.0845782 0)
(-0.0566439 -0.126156 0)
(-0.0296153 -0.161515 0)
(-0.00990965 -0.184154 0)
(0.00992582 -0.195114 0)
(0.0278301 -0.20024 0)
(0.0377841 -0.211223 0)
(0.0310427 -0.225062 0)
(-0.0173946 -0.202281 0)
(-0.117767 -0.143174 0)
(-0.170762 -0.125545 0)
(-0.169071 -0.1538 0)
(-0.175715 -0.207489 0)
(-0.602933 -0.740545 0)
(-0.584063 -0.639835 0)
(-0.555536 -0.489768 0)
(-0.516272 -0.310403 0)
(-0.472248 -0.144718 0)
(-0.434563 -0.00890662 0)
(-0.410772 0.0850398 0)
(-0.384137 0.142844 0)
(-0.365987 0.171808 0)
(-0.378462 0.185783 0)
(-0.408779 0.195425 0)
(-0.44029 0.19977 0)
(-0.454609 0.199038 0)
(-0.449417 0.193867 0)
(-0.432915 0.182992 0)
(-0.405363 0.163723 0)
(-0.365786 0.133696 0)
(-0.316221 0.08677 0)
(-0.251819 0.00939003 0)
(-0.167846 -0.106693 0)
(-0.11793 -0.176916 0)
(-0.0835969 -0.222879 0)
(-0.0618221 -0.248057 0)
(-0.0420958 -0.250886 0)
(-0.0212289 -0.233445 0)
(-0.00443955 -0.206357 0)
(0.00346042 -0.187329 0)
(-0.0120151 -0.162418 0)
(-0.0866602 -0.111762 0)
(-0.18326 -0.078531 0)
(-0.210164 -0.0838468 0)
(-0.197374 -0.137392 0)
(-0.203237 -0.194663 0)
(-0.600875 -0.717808 0)
(-0.574676 -0.628601 0)
(-0.537213 -0.491307 0)
(-0.487358 -0.321352 0)
(-0.4344 -0.15419 0)
(-0.390803 -0.0163281 0)
(-0.361914 0.0798242 0)
(-0.330378 0.134832 0)
(-0.30906 0.153205 0)
(-0.323046 0.157295 0)
(-0.360363 0.163219 0)
(-0.404287 0.170481 0)