/*--------------------------------*- C++ -*----------------------------------*\
  =========                 |
  \\      /  F ield         | OpenFOAM: The Open Source CFD Toolbox
   \\    /   O peration     | Website:  https://openfoam.org
    \\  /    A nd           | Version:  10
     \\/     M anipulation  |
\*---------------------------------------------------------------------------*/
FoamFile
{
    format      ascii;
    class       volScalarField;
    location    "0.248999";
    object      p;
}
// * * * * * * * * * * * * * * * * * * * * * * * * * * * * * * * * * * * * * //

dimensions      [1 -1 -2 0 0 0 0];

internalField   nonuniform List<scalar> 
16320
(
0.533106
0.544268
0.558131
0.5662
0.575329
0.582436
0.588788
0.608265
0.639457
0.680138
0.706322
0.684829
0.60982
0.536497
0.497822
0.48459
0.481943
0.486347
0.49163
0.491528
0.501957
0.511373
0.520192
0.529852
0.535441
0.539989
0.543849
0.547818
0.552337
0.55804
0.565852
0.576182
0.589737
0.606504
0.626744
0.649984
0.675323
0.70055
0.72425
0.749702
0.761234
0.762732
0.751866
0.741944
0.723313
0.7061
0.694388
0.688208
0.685872
0.686358
0.688329
0.692585
0.696455
0.701826
0.70602
0.706768
0.713867
0.716257
0.719909
0.72672
0.729527
0.730787
0.728987
0.711402
0.660211
0.593193
0.564761
0.575338
0.590269
0.615474
0.653856
0.690836
0.716762
0.719287
0.723098
0.723892
0.715674
0.731375
0.784079
0.872845
0.945567
0.978306
0.9869
0.976793
0.950406
0.925031
0.9084
0.902418
0.9038
0.902649
0.90983
0.914781
0.915767
0.913335
0.915028
0.915084
0.924296
0.921634
0.747469
0.532848
0.417083
0.365043
0.339756
0.327949
0.324916
0.328336
0.334709
0.343898
0.356772
0.379848
0.416574
0.469243
0.534556
0.518311
0.522169
0.532877
0.538646
0.546719
0.552504
0.558597
0.57612
0.603821
0.634563
0.646748
0.624584
0.573821
0.522855
0.4955
0.489263
0.490586
0.49301
0.49411
0.489027
0.497162
0.50571
0.517266
0.527964
0.533671
0.538758
0.543114
0.547296
0.551876
0.557599
0.56535
0.575397
0.58833
0.604311
0.623224
0.645269
0.669488
0.696458
0.726373
0.748215
0.757981
0.752329
0.732968
0.708502
0.696932
0.684032
0.675203
0.670918
0.672107
0.676173
0.682102
0.687574
0.694025
0.698407
0.701418
0.704034
0.70821
0.712248
0.71291
0.715058
0.718471
0.720643
0.718461
0.701609
0.653461
0.591163
0.574107
0.585001
0.601307
0.629401
0.667768
0.70144
0.717586
0.72075
0.722975
0.72338
0.716606
0.740287
0.806296
0.903392
0.963292
0.985549
0.989027
0.963818
0.924786
0.89009
0.868321
0.859703
0.86325
0.857274
0.865752
0.871131
0.875385
0.876962
0.881436
0.880929
0.881583
0.875716
0.819665
0.636248
0.498866
0.424511
0.381245
0.350005
0.335399
0.332771
0.338098
0.349731
0.368619
0.399772
0.445545
0.498198
0.547689
0.504003
0.50399
0.511729
0.514622
0.520147
0.525312
0.53059
0.54427
0.566817
0.586505
0.591556
0.573098
0.539912
0.509665
0.493588
0.492011
0.499749
0.504211
0.501348
0.491521
0.49214
0.49778
0.508428
0.523682
0.52889
0.536068
0.540838
0.545433
0.550338
0.5562
0.56359
0.572907
0.584375
0.598024
0.614194
0.63359
0.654709
0.682692
0.72356
0.746591
0.752113
0.741599
0.721592
0.693114
0.672511
0.659948
0.653455
0.655616
0.661516
0.669213
0.676873
0.682428
0.689872
0.693602
0.694653
0.698998
0.701466
0.704851
0.702507
0.701683
0.702858
0.703923
0.69904
0.682467
0.641189
0.58579
0.58176
0.593444
0.611472
0.642168
0.678969
0.709338
0.716237
0.718957
0.720117
0.720499
0.713979
0.743253
0.815999
0.916853
0.969868
0.986379
0.978929
0.93567
0.88707
0.846954
0.822153
0.809583
0.805118
0.807553
0.813342
0.818338
0.823708
0.829007
0.835229
0.838143
0.836074
0.832025
0.815407
0.703904
0.581676
0.502367
0.452315
0.407487
0.367029
0.349679
0.349788
0.36288
0.389697
0.430664
0.480842
0.5248
0.555425
0.490417
0.488764
0.492507
0.494825
0.498607
0.499608
0.504829
0.516278
0.532775
0.544387
0.546141
0.536241
0.515312
0.4971
0.490136
0.494919
0.507559
0.518866
0.512851
0.497768
0.490032
0.487539
0.498479
0.515907
0.525901
0.529462
0.536334
0.541608
0.547022
0.553115
0.559899
0.567891
0.576859
0.58708
0.599985
0.616393
0.623901
0.670674
0.714959
0.733176
0.735364
0.719953
0.698788
0.677238
0.658713
0.650823
0.645813
0.64685
0.652842
0.661364
0.670356
0.676128
0.684023
0.687215
0.686959
0.69259
0.693401
0.694417
0.690772
0.687036
0.685177
0.683224
0.6734
0.65799
0.626246
0.581103
0.581965
0.597689
0.618986
0.652102
0.686159
0.71188
0.713575
0.714633
0.714634
0.714289
0.707763
0.733058
0.795282
0.887836
0.94588
0.959194
0.940186
0.889858
0.83743
0.795664
0.771234
0.753408
0.748653
0.760207
0.759103
0.765937
0.771451
0.779496
0.78826
0.798052
0.79917
0.799162
0.792622
0.739274
0.626372
0.568529
0.525116
0.483973
0.43422
0.388408
0.37524
0.389981
0.42639
0.473006
0.517236
0.547974
0.563899
0.477677
0.47644
0.47473
0.476366
0.478912
0.478037
0.482205
0.491555
0.504226
0.512818
0.514948
0.510903
0.499664
0.491335
0.490849
0.499311
0.515339
0.532118
0.527087
0.507979
0.489342
0.481299
0.489715
0.503141
0.516457
0.523355
0.530543
0.536101
0.542217
0.548409
0.554539
0.56088
0.567073
0.573989
0.582948
0.587847
0.604111
0.654307
0.688053
0.700474
0.69886
0.684073
0.670682
0.658859
0.648247
0.643651
0.640479
0.64366
0.647853
0.655742
0.665318
0.668732
0.677561
0.67999
0.683462
0.68405
0.684364
0.683911
0.676689
0.674878
0.671124
0.664593
0.647135
0.634076
0.607622
0.574532
0.575874
0.596183
0.622349
0.657542
0.689835
0.709652
0.708568
0.707709
0.706066
0.702177
0.697291
0.702816
0.734559
0.802953
0.869516
0.887411
0.870831
0.826992
0.781852
0.74066
0.722988
0.707433
0.702997
0.707067
0.707391
0.71765
0.724371
0.734697
0.746761
0.762815
0.770702
0.774203
0.769657
0.746554
0.658449
0.610993
0.581616
0.556438
0.522491
0.459567
0.422307
0.432225
0.474697
0.520243
0.551414
0.571322
0.587343
0.464925
0.463692
0.461553
0.462555
0.462586
0.462296
0.465554
0.472159
0.482796
0.490791
0.494993
0.494594
0.491772
0.491707
0.496541
0.50843
0.524853
0.543326
0.543501
0.521764
0.493572
0.480506
0.48302
0.49213
0.50513
0.516037
0.523117
0.52951
0.536154
0.542303
0.54775
0.552368
0.556058
0.560038
0.563623
0.561052
0.583529
0.62158
0.642814
0.651017
0.645349
0.639575
0.639064
0.642388
0.63992
0.638387
0.639149
0.641403
0.646417
0.652946
0.660264
0.666481
0.67111
0.67571
0.676817
0.676396
0.676155
0.674083
0.666725
0.665115
0.659888
0.650919
0.627342
0.614347
0.589072
0.563904
0.56494
0.589538
0.621353
0.658787
0.689266
0.7041
0.701442
0.698531
0.694845
0.686731
0.673231
0.65906
0.663049
0.707766
0.765878
0.792555
0.785438
0.757359
0.726306
0.696795
0.685531
0.672931
0.6677
0.665991
0.671013
0.678787
0.685658
0.699119
0.716372
0.735576
0.750841
0.757471
0.753228
0.738447
0.67554
0.632955
0.6177
0.6064
0.594544
0.554558
0.499408
0.495252
0.532216
0.565237
0.579584
0.593497
0.600894
0.452399
0.45136
0.449528
0.449998
0.449119
0.448978
0.449938
0.456892
0.467582
0.476491
0.483622
0.487808
0.491336
0.497754
0.507004
0.51952
0.535029
0.551258
0.560454
0.542679
0.504123
0.483662
0.479552
0.484037
0.495777
0.507258
0.515462
0.522608
0.529362
0.53535
0.539978
0.542852
0.544112
0.544783
0.545187
0.540573
0.558821
0.584649
0.59938
0.60242
0.597927
0.595446
0.60611
0.626763
0.637292
0.637286
0.639493
0.642221
0.647
0.652621
0.658407
0.663074
0.667439
0.66958
0.669842
0.669636
0.668237
0.665535
0.656842
0.658956
0.652811
0.640849
0.611829
0.596579
0.571527
0.550044
0.550894
0.579284
0.617341
0.656699
0.685338
0.696306
0.692098
0.687533
0.681479
0.667456
0.642688
0.613377
0.605963
0.635958
0.676588
0.710101
0.71152
0.698261
0.682838
0.668996
0.659157
0.650761
0.639058
0.633234
0.641562
0.649585
0.6591
0.675991
0.697996
0.720706
0.739438
0.74591
0.740332
0.723699
0.678231
0.645041
0.637876
0.635918
0.637624
0.635118
0.599922
0.577256
0.591473
0.602788
0.605403
0.609122
0.610287
0.440546
0.440105
0.438834
0.439035
0.438544
0.439446
0.441801
0.447604
0.459186
0.472071
0.483799
0.489134
0.49888
0.507484
0.517794
0.531246
0.546159
0.560774
0.578118
0.562474
0.518702
0.49006
0.479842
0.479205
0.489084
0.500327
0.509076
0.516223
0.522765
0.528295
0.531871
0.533198
0.532697
0.530694
0.52797
0.523414
0.535553
0.555107
0.568418
0.572885
0.573706
0.578541
0.592624
0.61745
0.63432
0.639428
0.641679
0.645003
0.648445
0.652853
0.657009
0.660338
0.663031
0.664463
0.664885
0.66379
0.660946
0.658863
0.649037
0.652032
0.645135
0.630804
0.601211
0.580798
0.555913
0.534781
0.535833
0.567892
0.611641
0.652397
0.679276
0.687765
0.682185
0.675728
0.667148
0.646215
0.611697
0.577701
0.568199
0.588167
0.616472
0.653147
0.661866
0.66067
0.650203
0.647856
0.640307
0.632243
0.623247
0.620624
0.623244
0.631913
0.646274
0.667521
0.692357
0.715779
0.733195
0.73487
0.728457
0.708185
0.673655
0.651389
0.649651
0.652519
0.666371
0.689503
0.69406
0.666191
0.643214
0.632479
0.620245
0.617224
0.609524
0.429462
0.429672
0.429583
0.430154
0.430485
0.432953
0.437423
0.44575
0.459669
0.474446
0.488918
0.4973
0.509859
0.518715
0.529467
0.543788
0.557906
0.577237
0.593078
0.581753
0.535563
0.498309
0.48131
0.476923
0.484454
0.492804
0.503416
0.510666
0.516694
0.521493
0.523929
0.524368
0.522432
0.518594
0.513772
0.508973
0.518444
0.535323
0.553338
0.564861
0.572341
0.58159
0.593504
0.616642
0.634307
0.642501
0.644784
0.648392
0.650828
0.654103
0.656885
0.659067
0.660687
0.660305
0.659449
0.657168
0.655173
0.65242
0.642834
0.64307
0.635156
0.619089
0.597041
0.565165
0.544495
0.520834
0.521615
0.554953
0.60534
0.647261
0.672199
0.679167
0.672214
0.664237
0.653502
0.626158
0.586755
0.556442
0.548686
0.563583
0.584901
0.619783
0.634029
0.636841
0.632018
0.630988
0.626271
0.619908
0.614986
0.613666
0.619255
0.6282
0.645777
0.66792
0.692259
0.713054
0.725741
0.723776
0.714729
0.694693
0.667727
0.657807
0.656368
0.660266
0.684612
0.729049
0.772783
0.745168
0.680539
0.645871
0.625304
0.610675
0.603122
0.419709
0.420787
0.421862
0.422941
0.424818
0.429205
0.436503
0.447231
0.463399
0.481214
0.494998
0.511061
0.521531
0.530287
0.540165
0.556272
0.573439
0.592769
0.608908
0.5996
0.553127
0.508241
0.484708
0.477062
0.482164
0.488738
0.499281
0.506044
0.511427
0.515312
0.516891
0.516383
0.513515
0.508756
0.503171
0.500094
0.507933
0.520497
0.543769
0.561611
0.575122
0.591026
0.603698
0.62349
0.638578
0.645807
0.649772
0.652512
0.653341
0.655729
0.657178
0.65814
0.657728
0.657553
0.655898
0.65241
0.64834
0.645511
0.636646
0.631832
0.622008
0.607179
0.585583
0.557881
0.535473
0.512437
0.513024
0.538011
0.598849
0.642196
0.665407
0.671342
0.66314
0.654011
0.641309
0.611643
0.572225
0.546949
0.540669
0.552663
0.569834
0.601705
0.618025
0.623462
0.621998
0.621722
0.618703
0.61497
0.611054
0.612239
0.617604
0.629255
0.647139
0.669775
0.69155
0.708704
0.716508
0.712423
0.699142
0.683698
0.665257
0.662925
0.660189
0.667734
0.700338
0.762013
0.840687
0.807301
0.703166
0.64423
0.616075
0.595085
0.588466
0.411033
0.413062
0.415092
0.416672
0.422861
0.429435
0.438565
0.452321
0.471348
0.491515
0.50922
0.522845
0.53241
0.542323
0.554646
0.569804
0.587802
0.607872
0.624937
0.616138
0.570383
0.518926
0.489414
0.478367
0.480731
0.486763
0.496388
0.502374
0.507089
0.509887
0.510698
0.509315
0.505976
0.500991
0.496058
0.493913
0.498179
0.507341
0.532458
0.551963
0.567755
0.59083
0.610084
0.633596
0.646072
0.652222
0.65515
0.65687
0.657196
0.658475
0.658471
0.657807
0.656203
0.654665
0.651638
0.647046
0.641782
0.637391
0.629072
0.619748
0.608971
0.59521
0.577421
0.55269
0.524282
0.508298
0.506384
0.525682
0.591785
0.637876
0.659761
0.66487
0.655623
0.645835
0.632061
0.604444
0.566926
0.544248
0.538735
0.54917
0.563445
0.591844
0.60975
0.616463
0.615407
0.617696
0.614998
0.61309
0.611342
0.610788
0.620175
0.632815
0.649299
0.670128
0.689154
0.701179
0.703452
0.699334
0.688099
0.67791
0.664567
0.665835
0.660294
0.678583
0.711928
0.787697
0.900023
0.864838
0.719621
0.633446
0.595922
0.577068
0.565386
0.403636
0.40649
0.409489
0.412321
0.41826
0.428411
0.441732
0.460044
0.481722
0.502909
0.519742
0.532073
0.542355
0.553042
0.566955
0.582834
0.602154
0.62302
0.640601
0.630989
0.586604
0.529899
0.495196
0.481078
0.480034
0.48681
0.49391
0.49934
0.503521
0.505374
0.505565
0.503452
0.499619
0.494686
0.490052
0.487993
0.490957
0.498222
0.515202
0.530799
0.54438
0.584982
0.612772
0.641822
0.655251
0.660477
0.662495
0.661661
0.660346
0.660121
0.65871
0.656951
0.654708
0.6515
0.647371
0.641966
0.635394
0.628901
0.620135
0.610843
0.598006
0.585117
0.569676
0.550357
0.519195
0.504123
0.499037
0.519121
0.58148
0.634682
0.655713
0.660015
0.649962
0.640026
0.626609
0.601471
0.565662
0.545854
0.541625
0.54918
0.561074
0.585833
0.605883
0.613603
0.611922
0.616729
0.614698
0.615441
0.612016
0.615501
0.623867
0.63834
0.650083
0.667979
0.683266
0.689883
0.688725
0.683311
0.67637
0.670517
0.667232
0.668586
0.661661
0.68446
0.722795
0.806077
0.9441
0.922112
0.744138
0.628383
0.573686
0.554231
0.532405
0.39691
0.400531
0.405021
0.409682
0.418371
0.429825
0.445684
0.465415
0.487725
0.508935
0.526255
0.539836
0.551108
0.562436
0.577864
0.59528
0.616227
0.637528
0.654518
0.643869
0.601519
0.540786
0.500998
0.484127
0.481137
0.487691
0.492209
0.4978
0.500495
0.501429
0.500943
0.498297
0.494026
0.488904
0.484123
0.48149
0.482912
0.48856
0.499964
0.510789
0.51855
0.564308
0.607879
0.644638
0.662344
0.668228
0.668629
0.664842
0.662768
0.661168
0.658303
0.655084
0.651584
0.64747
0.642525
0.636367
0.629072
0.621253
0.612857
0.60385
0.588087
0.577526
0.566927
0.54664
0.519978
0.495986
0.495137
0.514746
0.569133
0.632132
0.653244
0.656712
0.6462
0.636529
0.623758
0.59981
0.567866
0.551044
0.547235
0.552388
0.560551
0.580867
0.602835
0.611694
0.609269
0.617117
0.615615
0.618055
0.615433
0.620652
0.629376
0.639473
0.648553
0.662898
0.671199
0.672989
0.672261
0.671994
0.671223
0.664262
0.671022
0.670005
0.664855
0.689053
0.730882
0.821
0.972137
0.971852
0.780509
0.635542
0.562052
0.531776
0.498631
0.39126
0.395828
0.401104
0.407173
0.417475
0.429945
0.446252
0.466555
0.489426
0.511688
0.530919
0.546678
0.559693
0.571431
0.588388
0.607482
0.629787
0.651225
0.667082
0.655124
0.615001
0.551327
0.507192
0.48768
0.482574
0.487965
0.491993
0.49727
0.498945
0.498733
0.496353
0.493247
0.488481
0.48302
0.477815
0.474162
0.473684
0.476992
0.48403
0.491695
0.49552
0.536886
0.593438
0.641219
0.667221
0.675401
0.674776
0.668395
0.663283
0.660645
0.656705
0.652398
0.647801
0.642729
0.636927
0.630136
0.622168
0.61352
0.604808
0.596288
0.583245
0.573325
0.560577
0.54233
0.520005
0.490163
0.489707
0.50648
0.556088
0.628018
0.651958
0.654753
0.644196
0.635073
0.623599
0.602205
0.575727
0.560579
0.556605
0.558068
0.561961
0.576724
0.59807
0.609772
0.607438
0.618117
0.618601
0.616317
0.619254
0.621289
0.629392
0.639711
0.645726
0.650123
0.65611
0.660258
0.662761
0.666011
0.667984
0.666672
0.671008
0.669976
0.67074
0.694308
0.740607
0.836902
0.987243
1.00544
0.83172
0.661052
0.562667
0.508768
0.47037
0.385958
0.391135
0.397021
0.404051
0.414523
0.42818
0.445064
0.465732
0.489055
0.512648
0.534309
0.552438
0.567603
0.581314
0.598002
0.619525
0.642943
0.663978
0.677864
0.66404
0.626695
0.560072
0.512187
0.490575
0.484774
0.489496
0.49468
0.496619
0.497916
0.496333
0.492817
0.487447
0.482074
0.476228
0.470771
0.466502
0.464486
0.465438
0.469492
0.474981
0.478519
0.514771
0.57542
0.628336
0.660468
0.671059
0.670692
0.662625
0.659959
0.656955
0.652741
0.647989
0.642723
0.636877
0.630225
0.622841
0.61445
0.605118
0.595305
0.585251
0.572487
0.564461
0.55476
0.536208
0.515479
0.486767
0.481785
0.496838
0.545208
0.619065
0.650795
0.653747
0.643453
0.634949
0.625184
0.605906
0.585523
0.572426
0.566799
0.565377
0.565077
0.574202
0.590162
0.60436
0.608413
0.616064
0.61738
0.614178
0.621755
0.623061
0.628665
0.635545
0.637735
0.639861
0.647932
0.653452
0.660814
0.664915
0.661691
0.670118
0.670104
0.667551
0.678331
0.699245
0.749956
0.851202
0.989151
1.02011
0.881542
0.712954
0.573302
0.490798
0.447579
0.380856
0.386394
0.392583
0.400046
0.410557
0.424134
0.441531
0.462885
0.48716
0.512262
0.535992
0.556912
0.574649
0.591047
0.60962
0.632497
0.656132
0.676019
0.687424
0.671915
0.634989
0.567187
0.51744
0.494017
0.487111
0.491445
0.495924
0.497886
0.496711
0.494193
0.489631
0.483512
0.476818
0.470029
0.463556
0.458807
0.455634
0.4552
0.457464
0.462488
0.468899
0.498079
0.55673
0.614451
0.643569
0.651899
0.652405
0.64948
0.658552
0.652415
0.647997
0.642363
0.636297
0.629618
0.622179
0.614126
0.605344
0.595698
0.585288
0.574505
0.563782
0.550441
0.541581
0.526586
0.506862
0.483199
0.473087
0.487141
0.532212
0.606137
0.649363
0.653013
0.64356
0.635571
0.627681
0.609914
0.595254
0.58608
0.57856
0.572058
0.568927
0.570981
0.583687
0.598223
0.605634
0.607027
0.613834
0.615886
0.614365
0.621962
0.626019
0.630402
0.630995
0.636063
0.647924
0.65457
0.660715
0.658711
0.667216
0.668688
0.66766
0.666196
0.680684
0.704668
0.758372
0.860265
0.980987
1.02054
0.92917
0.774272
0.595864
0.481448
0.427391
0.375792
0.381411
0.387793
0.395394
0.405645
0.419011
0.436107
0.457539
0.482904
0.510071
0.536589
0.56051
0.581411
0.60095
0.622368
0.646203
0.669412
0.687682
0.695673
0.67801
0.640798
0.571843
0.52039
0.496511
0.489954
0.494766
0.498052
0.49973
0.494413
0.49115
0.485854
0.479391
0.471575
0.463731
0.456378
0.451097
0.447253
0.446058
0.447358
0.45078
0.459898
0.487503
0.54013
0.596228
0.621353
0.61845
0.618304
0.62397
0.638584
0.640029
0.638544
0.634175
0.627563
0.620017
0.612042
0.603614
0.594486
0.58472
0.574436
0.563412
0.551924
0.538667
0.531385
0.517469
0.497853
0.477926
0.464737
0.477574
0.518979
0.589278
0.646146
0.651474
0.644105
0.636008
0.628958
0.614823
0.604068
0.598306
0.591613
0.578793
0.570398
0.567971
0.575707
0.590146
0.597922
0.59819
0.606663
0.612735
0.614114
0.611957
0.620026
0.624166
0.626166
0.632568
0.645319
0.652838
0.65279
0.662624
0.665517
0.665722
0.665195
0.666566
0.682265
0.708326
0.764974
0.866333
0.973436
1.01841
0.967662
0.836425
0.633543
0.483011
0.41046
0.370934
0.376406
0.382492
0.390078
0.399985
0.412834
0.42935
0.450453
0.476203
0.505728
0.535257
0.562129
0.587502
0.611536
0.635828
0.660506
0.682771
0.698437
0.703151
0.682271
0.643169
0.576188
0.523291
0.498626
0.493458
0.499148
0.501464
0.501082
0.498795
0.487127
0.480283
0.473446
0.465564
0.457013
0.448934
0.443072
0.438927
0.437139
0.437608
0.44095
0.450908
0.476257
0.523072
0.573367
0.592829
0.58266
0.579914
0.58873
0.605785
0.616059
0.621244
0.619332
0.614159
0.607075
0.599047
0.590512
0.581611
0.572109
0.5621
0.551674
0.54081
0.527235
0.514735
0.508721
0.490747
0.47156
0.458319
0.469981
0.5041
0.571073
0.639725
0.649094
0.643402
0.635579
0.629066
0.618657
0.611312
0.608354
0.604171
0.585127
0.570134
0.564651
0.567293
0.578337
0.587854
0.590946
0.599143
0.604045
0.609286
0.609302
0.604747
0.609813
0.615633
0.622166
0.633355
0.644763
0.65571
0.6602
0.661017
0.66165
0.663621
0.667649
0.682975
0.71078
0.769494
0.867593
0.964637
1.01962
0.996944
0.899026
0.685365
0.491446
0.399641
0.365952
0.371341
0.377242
0.384297
0.393563
0.40561
0.421246
0.441785
0.467953
0.498722
0.53124
0.562302
0.592806
0.62211
0.649621
0.674912
0.696157
0.70843
0.709904
0.684992
0.643222
0.578884
0.525753
0.501226
0.49706
0.503816
0.506832
0.504515
0.497367
0.490276
0.476782
0.465578
0.457131
0.448711
0.440277
0.434302
0.429946
0.427782
0.428501
0.4313
0.442178
0.466665
0.504088
0.539721
0.562517
0.550276
0.545783
0.555182
0.570044
0.58392
0.591226
0.593771
0.592336
0.588053
0.581998
0.574912
0.566909
0.558195
0.548868
0.539167
0.528894
0.518078
0.502293
0.495988
0.484148
0.465824
0.453496
0.46266
0.492515
0.557302
0.628265
0.64482
0.640763
0.633605
0.627812
0.620627
0.615627
0.615779
0.615046
0.591117
0.568514
0.559675
0.558602
0.567459
0.577188
0.581371
0.589836
0.595388
0.600472
0.603017
0.605529
0.60849
0.612418
0.623679
0.637258
0.64609
0.652184
0.65514
0.657151
0.659146
0.663083
0.670254
0.685086
0.714389
0.772422
0.866719
0.958348
1.02522
1.02279
0.961721
0.750535
0.508512
0.396831
0.360975
0.366033
0.371627
0.378362
0.38692
0.397957
0.412484
0.431958
0.45752
0.489247
0.524276
0.560339
0.596221
0.631667
0.66284
0.688987
0.708511
0.717943
0.71588
0.687063
0.643016
0.580408
0.525723
0.504297
0.502831
0.509209
0.51099
0.508935
0.498396
0.487009
0.475619
0.462036
0.449642
0.438977
0.431123
0.424339
0.419967
0.41798
0.418484
0.421725
0.429941
0.452009
0.478913
0.513179
0.532389
0.520561
0.515727
0.526816
0.536928
0.551057
0.560952
0.566585
0.568297
0.566849
0.563138
0.557683
0.551095
0.543614
0.535334
0.526419
0.516699
0.507493
0.495222
0.486217
0.475215
0.461217
0.450262
0.457731
0.484506
0.545021
0.615149
0.637426
0.635925
0.630357
0.625785
0.621346
0.617862
0.622256
0.62376
0.594172
0.564317
0.551769
0.548483
0.556475
0.566167
0.571322
0.579896
0.58608
0.591106
0.5956
0.601795
0.608312
0.615121
0.624138
0.633986
0.641093
0.646667
0.651051
0.654583
0.658658
0.664364
0.673957
0.690331
0.722721
0.77737
0.866903
0.958729
1.02943
1.04368
1.02042
0.828333
0.535738
0.400366
0.356059
0.360774
0.36595
0.37214
0.380002
0.389966
0.403018
0.420937
0.445468
0.477243
0.514179
0.554565
0.5977
0.638885
0.674544
0.701994
0.720394
0.726625
0.720745
0.687066
0.640749
0.579889
0.525625
0.504585
0.504738
0.511056
0.513659
0.509393
0.497136
0.4816
0.467917
0.455286
0.443421
0.432109
0.420567
0.413617
0.409692
0.407458
0.408045
0.410808
0.418562
0.433469
0.455747
0.47574
0.493916
0.493882
0.49474
0.501168
0.508587
0.519525
0.529915
0.538011
0.542716
0.544036
0.542953
0.539823
0.534955
0.528981
0.522055
0.514277
0.5058
0.496706
0.485798
0.474777
0.471017
0.458419
0.448415
0.454849
0.478414
0.533063
0.60041
0.627115
0.629605
0.625989
0.622885
0.620776
0.618541
0.626934
0.630548
0.59505
0.557127
0.540445
0.53596
0.544412
0.554725
0.560648
0.569298
0.576167
0.581937
0.587069
0.593266
0.601036
0.609403
0.617493
0.626699
0.63499
0.642172
0.648261
0.653938
0.660184
0.668519
0.681071
0.700985
0.73308
0.787066
0.871067
0.966205
1.02818
1.0656
1.07552
0.921353
0.581402
0.411664
0.351265
0.355599
0.360312
0.365929
0.372964
0.381762
0.393336
0.40945
0.432201
0.462999
0.500962
0.544516
0.594672
0.643799
0.684113
0.712637
0.729945
0.733867
0.72386
0.686012
0.635319
0.576929
0.526718
0.502376
0.497292
0.506625
0.50954
0.504711
0.48936
0.467574
0.451799
0.439201
0.428545
0.419743
0.412115
0.404224
0.399435
0.397092
0.397066
0.399145
0.404032
0.41121
0.42472
0.435375
0.446639
0.460242
0.470404
0.478091
0.484696
0.493302
0.502466
0.511067
0.517757
0.521881
0.523072
0.522165
0.519558
0.515284
0.509785
0.503377
0.496249
0.488272
0.479285
0.466934
0.464155
0.455868
0.447881
0.45344
0.474157
0.522401
0.584987
0.614746
0.622138
0.620949
0.619567
0.619355
0.617931
0.62973
0.636791
0.593738
0.546385
0.525928
0.520663
0.530747
0.542396
0.549525
0.558621
0.566303
0.572997
0.578249
0.584717
0.592465
0.600954
0.609736
0.619955
0.629715
0.638646
0.647037
0.655185
0.664181
0.675382
0.690896
0.713816
0.748076
0.804482
0.882668
0.975869
1.0361
1.08691
1.11893
1.02696
0.661499
0.436068
0.346771
0.35064
0.354847
0.359895
0.366123
0.373774
0.383789
0.397864
0.418228
0.446967
0.484914
0.53117
0.585667
0.643236
0.6898
0.720067
0.736236
0.738114
0.725543
0.683903
0.627927
0.568607
0.523003
0.499744
0.494304
0.495802
0.495202
0.486701
0.470992
0.452887
0.434382
0.421062
0.410974
0.403021
0.396563
0.391203
0.386029
0.384875
0.385061
0.38652
0.389494
0.395704
0.396548
0.396047
0.404088
0.423406
0.442068
0.455945
0.464642
0.47325
0.481657
0.489997
0.497407
0.502813
0.505656
0.50647
0.505621
0.503106
0.498967
0.493879
0.48802
0.481199
0.473873
0.462132
0.460252
0.454147
0.448326
0.453157
0.471221
0.51262
0.569877
0.600963
0.613894
0.615368
0.615861
0.616279
0.615604
0.630018
0.641011
0.588729
0.532349
0.508806
0.503292
0.515377
0.52893
0.538043
0.54779
0.556222
0.564072
0.569196
0.576131
0.584227
0.593266
0.602919
0.613535
0.62499
0.636217
0.647145
0.658195
0.670175
0.684323
0.703075
0.729708
0.768389
0.82378
0.901486
0.992168
1.06318
1.10173
1.13704
1.11971
0.797574
0.489173
0.343034
0.346265
0.349949
0.354341
0.359698
0.366181
0.37463
0.386535
0.40412
0.429909
0.466042
0.51332
0.57161
0.636914
0.69079
0.723332
0.738346
0.73878
0.724771
0.680296
0.619101
0.557739
0.51267
0.492063
0.486509
0.486548
0.484148
0.473322
0.454115
0.434418
0.416418
0.402733
0.392969
0.385802
0.380137
0.375687
0.372428
0.37196
0.372729
0.373566
0.374204
0.376037
0.371579
0.365368
0.370793
0.390211
0.415114
0.436143
0.448595
0.457949
0.466327
0.474594
0.481976
0.487888
0.492002
0.494081
0.494145
0.492994
0.49023
0.486183
0.481337
0.475575
0.469579
0.459202
0.458239
0.453738
0.449444
0.453733
0.469467
0.504903
0.555722
0.586473
0.6048
0.609236
0.611586
0.613889
0.611806
0.62746
0.642177
0.58076
0.516303
0.490286
0.484766
0.499005
0.514255
0.526198
0.536688
0.546177
0.554813
0.559961
0.567144
0.575626
0.58538
0.59602
0.607508
0.620733
0.634445
0.648217
0.662331
0.677333
0.694723
0.716752
0.746596
0.788118
0.845272
0.92547
1.01651
1.09373
1.12668
1.1481
1.16731
0.967998
0.595304
0.341838
0.344001
0.346603
0.349907
0.354177
0.359341
0.366146
0.375845
0.390449
0.412693
0.445564
0.491874
0.552329
0.622276
0.685672
0.721988
0.736428
0.735702
0.719443
0.672153
0.607029
0.54763
0.499209
0.475524
0.47004
0.470166
0.467475
0.456769
0.438177
0.417597
0.398636
0.384787
0.375278
0.368522
0.363528
0.360114
0.358813
0.359566
0.361096
0.362089
0.366859
0.360472
0.349162
0.341569
0.346102
0.36573
0.393821
0.419881
0.436093
0.446741
0.455581
0.463479
0.470893
0.477269
0.481978
0.484777
0.485772
0.48531
0.483599
0.480366
0.476362
0.471515
0.466733
0.457671
0.457634
0.454374
0.451441
0.455122
0.468858
0.499212
0.542585
0.572737
0.594889
0.602199
0.606566
0.610329
0.609458
0.625311
0.640428
0.571387
0.500167
0.471983
0.466367
0.482431
0.499557
0.513716
0.525136
0.535872
0.544698
0.55029
0.557692
0.566438
0.577074
0.589034
0.602185
0.616007
0.633144
0.649868
0.666821
0.685024
0.705633
0.730939
0.764332
0.808973
0.86925
0.948356
1.04076
1.12299
1.16408
1.17457
1.18683
1.11026
0.773246
0.343846
0.345246
0.346744
0.348321
0.350632
0.353977
0.358847
0.366174
0.377693
0.39611
0.4247
0.467522
0.527206
0.601529
0.672682
0.713551
0.726646
0.724092
0.70492
0.656696
0.589996
0.528082
0.486091
0.461999
0.451716
0.448163
0.443708
0.434119
0.417893
0.398764
0.381736
0.368414
0.358425
0.351855
0.347734
0.345862
0.346102
0.347825
0.349921
0.351319
0.352678
0.342894
0.330767
0.322214
0.327901
0.349062
0.380256
0.409408
0.427327
0.438821
0.448174
0.455904
0.463285
0.470004
0.475166
0.47858
0.480127
0.480042
0.47891
0.476443
0.473168
0.469206
0.465191
0.457256
0.458307
0.455983
0.454059
0.457381
0.469884
0.495817
0.53099
0.560493
0.584407
0.594039
0.60035
0.605303
0.607229
0.622821
0.636816
0.562472
0.486218
0.456024
0.44978
0.466086
0.485057
0.50084
0.513204
0.524646
0.53428
0.540222
0.547914
0.557204
0.568344
0.581494
0.596227
0.61225
0.631295
0.651478
0.671309
0.692869
0.716477
0.744856
0.781419
0.830157
0.893437
0.971832
1.06324
1.14996
1.20077
1.21588
1.21153
1.19821
0.985358
0.350909
0.350746
0.350568
0.350636
0.350963
0.351499
0.353552
0.358099
0.366272
0.380601
0.404679
0.442507
0.499667
0.575687
0.654294
0.700553
0.712765
0.706161
0.683154
0.634592
0.566299
0.503399
0.460444
0.439774
0.432062
0.428404
0.423297
0.414022
0.400543
0.384154
0.367062
0.35346
0.343378
0.336987
0.333805
0.332961
0.333793
0.336508
0.339629
0.340718
0.336767
0.327607
0.315949
0.307174
0.31723
0.34057
0.373735
0.403939
0.421806
0.433994
0.443566
0.451607
0.459155
0.466087
0.471683
0.475334
0.476926
0.477013
0.476379
0.47461
0.471839
0.468347
0.464754
0.459808
0.459034
0.457724
0.457656
0.461159
0.472601
0.493457
0.520455
0.551107
0.574178
0.58527
0.593185
0.599331
0.60359
0.617828
0.632779
0.555322
0.475339
0.443283
0.43618
0.452481
0.471831
0.488271
0.501362
0.513764
0.525335
0.530958
0.53847
0.547567
0.55912
0.573042
0.589356
0.608176
0.629522
0.652812
0.675518
0.699857
0.72599
0.757442
0.797353
0.849197
0.915326
0.992549
1.08267
1.16732
1.22723
1.25164
1.25855
1.25294
1.17218
0.367558
0.364264
0.361163
0.358228
0.355688
0.353547
0.351973
0.352643
0.356807
0.36671
0.386124
0.419412
0.472073
0.548306
0.632805
0.686381
0.699352
0.686518
0.656608
0.60669
0.537187
0.473603
0.431147
0.410352
0.402366
0.399501
0.39746
0.392595
0.383317
0.369983
0.355082
0.341933
0.331447
0.324907
0.322068
0.321651
0.322362
0.325352
0.327591
0.327272
0.32257
0.314232
0.305275
0.299776
0.313071
0.337626
0.371382
0.401701
0.419377
0.431486
0.441357
0.449853
0.457727
0.464619
0.470514
0.474041
0.475591
0.476064
0.475631
0.474383
0.472036
0.468683
0.46407
0.463274
0.461959
0.461484
0.461204
0.465032
0.474448
0.491483
0.510627
0.544076
0.564335
0.576289
0.58527
0.592373
0.597851
0.608707
0.631371
0.550774
0.468115
0.434006
0.425689
0.441253
0.460225
0.476607
0.490007
0.502788
0.514602
0.521221
0.52888
0.53809
0.54965
0.564266
0.582009
0.603952
0.629263
0.655456
0.679541
0.704907
0.732653
0.766213
0.810374
0.865831
0.933889
1.0126
1.09282
1.17237
1.2384
1.27403
1.29893
1.29863
1.28045
0.40331
0.394105
0.38413
0.37552
0.367666
0.360643
0.35478
0.350729
0.350635
0.355818
0.370175
0.399345
0.448951
0.52363
0.614438
0.675237
0.687125
0.665936
0.627989
0.575145
0.504538
0.442332
0.402134
0.382604
0.375272
0.373799
0.374793
0.374445
0.369866
0.360776
0.348237
0.335288
0.324144
0.316654
0.313003
0.311914
0.312432
0.314631
0.31518
0.314315
0.310334
0.304017
0.298187
0.298274
0.314134
0.341055
0.375308
0.402188
0.418603
0.430506
0.440574
0.449594
0.45782
0.464683
0.470459
0.47386
0.475797
0.476554
0.476471
0.475641
0.473689
0.470673
0.46779
0.46597
0.464805
0.464833
0.464191
0.467337
0.475193
0.489469
0.50467
0.535859
0.554724
0.567413
0.576917
0.58415
0.590213
0.597642
0.632744
0.548173
0.463775
0.427642
0.418156
0.4323
0.450728
0.466435
0.479826
0.492794
0.504967
0.51276
0.52049
0.529732
0.54113
0.555832
0.575666
0.601282
0.628804
0.654382
0.679142
0.704733
0.73435
0.771462
0.817021
0.877269
0.947851
1.02432
1.09972
1.16949
1.23039
1.27655
1.30945
1.33058
1.32689
0.461766
0.445318
0.42672
0.408859
0.392059
0.376418
0.363304
0.353596
0.348012
0.349318
0.359602
0.386244
0.438185
0.516906
0.607865
0.668767
0.675854
0.648541
0.600113
0.542537
0.472269
0.41375
0.377539
0.360396
0.354601
0.355188
0.359714
0.364227
0.364367
0.359324
0.348358