/*--------------------------------*- C++ -*----------------------------------*\
  =========                 |
  \\      /  F ield         | OpenFOAM: The Open Source CFD Toolbox
   \\    /   O peration     | Website:  https://openfoam.org
    \\  /    A nd           | Version:  10
     \\/     M anipulation  |
\*---------------------------------------------------------------------------*/
FoamFile
{
    format      ascii;
    class       surfaceScalarField;
    location    "0.248999";
    object      phi;
}
// * * * * * * * * * * * * * * * * * * * * * * * * * * * * * * * * * * * * * //

dimensions      [1 0 -1 0 0 0 0];

internalField   nonuniform List<scalar> 
32368
(
-0.00011205
8.78381e-05
-0.000136086
0.000119523
-0.000135086
0.000156231
-0.000140626
0.000183451
-0.000174521
0.000227076
-0.000166614
0.000339105
-0.000122467
0.000378028
-7.00796e-05
0.000360647
-2.20665e-05
0.000301154
6.51948e-06
0.000225085
7.67292e-06
0.000135269
-2.48959e-05
4.53658e-05
-6.90117e-05
-3.24149e-05
-0.000103925
-7.30197e-05
-0.000133142
-9.27986e-05
-0.000156755
-9.81597e-05
-0.000175063
-8.54311e-05
-0.000181203
-5.60139e-05
-0.000168506
-2.41737e-05
-0.000168182
1.01915e-06
-0.000170033
2.3387e-05
-0.000168483
4.27178e-05
-0.000161734
6.033e-05
-0.000149892
7.73927e-05
-0.000138873
9.49824e-05
-0.000133669
0.000112348
-0.000131093
0.000126844
-0.000129738
0.000137569
-0.000129726
0.000145785
-0.000131031
0.000152747
-0.000132848
0.000158357
-0.000135637
0.000162152
-0.000139653
0.000164637
-0.000144471
0.000164507
-0.000148719
0.000160645
-0.000151174
0.000151662
-0.000149954
0.00013647
-0.000144688
0.000115296
-0.000156345
0.000111024
-0.000159198
8.95762e-05
-0.00011552
4.79167e-05
-2.13725e-05
-6.66009e-06
7.39227e-05
-2.1294e-05
0.000149954
1.26867e-05
0.000177391
6.21468e-05
0.000186629
9.45149e-05
0.000187154
0.000113912
0.000186724
0.000122835
0.000186498
0.000125185
0.000184382
0.0001212
0.00017347
0.000109096
0.00014391
8.73647e-05
0.000117005
6.03244e-05
0.000104329
4.56269e-05
0.000100585
4.09405e-05
0.000113255
3.94908e-05
0.000134302
3.97457e-05
0.000155095
2.68253e-05
0.000192693
4.64611e-06
0.000281943
-2.75564e-05
0.000406014
-7.40828e-05
0.000516421
-0.000121158
0.000554731
-0.000151002
0.000519903
-0.000156474
0.000399553
-0.000138414
0.000238446
-9.35845e-05
0.000132199
-4.70835e-05
8.45287e-05
-1.10646e-05
5.7806e-05
1.11557e-05
3.61155e-05
2.21282e-05
1.29824e-05
2.55686e-05
-9.15256e-06
2.33331e-05
-2.29779e-05
1.52619e-05
-3.60133e-05
3.91089e-06
-5.19912e-05
-6.28807e-06
-8.62322e-05
-2.16661e-05
-0.000190857
-6.53059e-05
-0.000369789
-0.000172718
-0.000547841
-0.000311541
-0.000648518
-0.000440324
-0.000656218
-0.000506333
-0.000607826
-0.000525338
-0.000542388
-0.000510952
-0.000476265
-0.000466853
-0.000411121
-0.000397618
-0.000342547
-0.000305645
-0.000259765
-0.000194956
-0.000141535
-5.96107e-05
-5.73508e-05
0.000102083
-2.49276e-05
0.000261218
-2.08826e-07
0.000304224
2.91631e-05
0.000359198
6.0963e-05
0.000366378
7.25805e-05
0.000322785
7.66103e-05
0.00024991
8.41742e-05
0.000217603
0.000134449
0.000213176
0.000122428
0.000130312
-2.32976e-05
-2.54406e-05
-0.000112957
-7.76113e-05
-0.000143074
-8.58109e-05
-0.000147975
-8.74808e-05
-0.000147012
-8.5017e-05
-0.00013421
-7.37078e-05
-0.000110896
-6.34915e-05
-7.99413e-05
-5.7137e-05
-4.63153e-05
-4.82065e-05
-1.98765e-05
-3.7299e-05
-6.62245e-06
-3.57936e-05
4.65362e-08
-5.8934e-05
3.57039e-06
-9.76486e-05
5.06005e-06
-0.000134624
-0.000143083
5.85143e-06
-9.63817e-05
8.49986e-05
-0.000123672
0.000118449
-0.000127826
0.000170689
-0.000124041
0.000207655
-0.000144428
0.000248769
-0.000137968
0.000359407
-9.95704e-05
0.000397441
-5.47855e-05
0.000381633
-1.22693e-05
0.000324725
1.48489e-05
0.000243931
1.81062e-05
0.00014406
-2.21265e-06
4.90517e-05
-3.46025e-05
-2.87871e-05
-6.38e-05
-7.67343e-05
-9.0303e-05
-0.000102337
-0.000114489
-0.000113927
-0.000135593
-0.00010711
-0.000153556
-7.79802e-05
-0.000153051
-3.87178e-05
-0.000161448
-6.09645e-06
-0.000172921
2.24384e-05
-0.000178616
4.693e-05
-0.000168695
6.74197e-05
-0.000147321
8.40085e-05
-0.000135184
9.60614e-05
-0.00013017
0.000116293
-0.000128008
0.000134249
-0.000127433
0.000147363
-0.000128337
0.000156856
-0.00013043
0.000164109
-0.000133354
0.000169944
-0.000137766
0.000174644
-0.000143524
0.000177867
-0.000149774
0.000178153
-0.000155659
0.000173765
-0.000160159
0.000163792
-0.000167978
0.00015073
-0.000225067
0.000173152
-0.000284253
0.000172015
-0.000265598
0.00011799
-0.000172481
3.21957e-05
-6.16121e-05
-3.07284e-05
1.81599e-05
-3.09507e-05
8.81517e-05
-2.98749e-05
0.000121067
2.26561e-05
0.000147516
6.57568e-05
0.00016669
0.000103571
0.00017612
0.000125329
0.000182746
0.000132425
0.000183014
0.000131038
0.000170471
0.000120506
0.000136488
9.80046e-05
0.000109764
6.92473e-05
9.90585e-05
5.47723e-05
9.6615e-05
5.03183e-05
0.000112529
4.88966e-05
0.000131668
4.63541e-05
0.000156215
3.10956e-05
0.000209193
5.44251e-06
0.000308292
-3.07035e-05
0.000430709
-7.6826e-05
0.000530047
-0.000120208
0.000558386
-0.000144622
0.000521734
-0.000148358
0.000396079
-0.000131719
0.000232284
-9.10105e-05
0.000132023
-5.01552e-05
8.47165e-05
-1.81129e-05
5.52832e-05
4.83485e-06
3.05847e-05
1.87778e-05
6.02788e-06
2.45045e-05
-1.43982e-05
2.27576e-05
-2.45115e-05
1.5296e-05
-3.61152e-05
5.10627e-06
-5.03283e-05
-4.06405e-06
-8.24433e-05
-1.85125e-05
-0.000183545
-6.31578e-05
-0.000356114
-0.000174245
-0.000533598
-0.000313755
-0.00064263
-0.000432751
-0.00064167
-0.000482142
-0.000587859
-0.000486137
-0.000515368
-0.000467448
-0.000436788
-0.000412034
-0.000366148
-0.000336339
-0.000297957
-0.000243924
-0.00023163
-0.000136821
-0.000150407
-9.52459e-06
-4.73404e-05
0.000142633
-7.56038e-06
0.00029359
1.69518e-05
0.000348263
5.40152e-05
0.000402432
9.1065e-05
0.000402239
0.000105266
0.000364899
0.000111198
0.000292327
0.000125226
0.000256193
0.00018113
0.000233295
0.000212074
0.000175842
9.66642e-05
3.00319e-05
-3.03569e-05
-7.51338e-05
-8.21872e-05
-0.000111816
-9.86727e-05
-0.000119458
-0.000109348
-0.00011281
-0.000108579
-8.90063e-05
-9.77e-05
-6.32499e-05
-7.39469e-05
-4.91723e-05
-4.41792e-05
-3.83908e-05
-1.808e-05
-2.63504e-05
-6.87035e-06
-2.79189e-05
-4.06173e-06
-5.53641e-05
-1.70768e-06
-0.000104964
8.53171e-06
-0.000146946
-0.000142683
2.3681e-05
-8.04621e-05
8.41089e-05
-0.000106629
0.000114607
-0.000115085
0.000178426
-0.000106421
0.000224129
-0.000114084
0.000266025
-0.000107673
0.00036857
-7.0179e-05
0.000409454
-2.71785e-05
0.000389992
1.4851e-05
0.00033188
4.0914e-05
0.000248394
4.48171e-05
0.000147635
2.71466e-05
5.5427e-05
4.75188e-07
-1.53759e-05
-2.58952e-05
-6.79751e-05
-4.80906e-05
-0.00010164
-6.81308e-05
-0.000118101
-8.90993e-05
-0.000117374
-0.000113351
-9.31105e-05
-0.000129548
-5.08147e-05
-0.000145427
-1.30763e-05
-0.000167237
1.96146e-05
-0.000187535
4.97649e-05
-0.000183814
7.38867e-05
-0.000156152
9.65903e-05
-0.000131555
0.000105075
-0.000125547
0.000119712
-0.000123483
0.000139554
-0.000123386
0.000155176
-0.000124829
0.000166076
-0.00012736
0.000174124
-0.00013101
0.000180648
-0.000136092
0.000186191
-0.000142166
0.000190133
-0.000148452
0.0001905
-0.000155012
0.000185994
-0.00016775
0.000180075
-0.000239505
0.000216882
-0.00034865
0.000259196
-0.000377811
0.000228533
-0.000307359
0.000131779
-0.000183459
1.34355e-05
-8.89956e-05
-2.34198e-05
-2.68576e-05
-3.14486e-05
1.37863e-05
-3.313e-05
6.06283e-05
-1.41656e-05
8.07498e-05
2.87738e-05
0.000108084
6.27416e-05
0.000135321
0.000101172
0.000151025
0.000124404
0.000156868
0.000131076
0.000148542
0.000125127
0.000117838
0.000102522
9.63305e-05
7.4342e-05
8.95704e-05
6.28906e-05
9.05773e-05
5.84841e-05
0.000111058
5.91339e-05
0.000131737
5.34392e-05
0.000161396
3.3881e-05
0.000220744
5.56889e-06
0.000319882
-3.33413e-05
0.000438878
-8.09134e-05
0.000530561
-0.000122954
0.00055014
-0.000143513
0.000514494
-0.000145028
0.000388897
-0.000127442
0.000230843
-8.76537e-05
0.00013762
-4.79322e-05
9.07173e-05
-2.153e-05
5.85414e-05
-3.65968e-07
2.93043e-05
1.48032e-05
2.75205e-06
2.23235e-05
-1.55016e-05
2.0827e-05
-2.42802e-05
1.35028e-05
-3.3363e-05
3.71478e-06
-4.50401e-05
-4.76548e-06
-7.43184e-05
-1.91023e-05
-0.000173495
-6.9604e-05
-0.000337774
-0.000186027
-0.000511021
-0.000315115
-0.000623423
-0.000410358
-0.000619816
-0.000452293
-0.000563143
-0.000452601
-0.000485067
-0.000424759
-0.000393138
-0.000362918
-0.000310763
-0.000276999
-0.000246264
-0.000178403
-0.00019626
-7.40075e-05
-0.000134152
4.32662e-05
-5.24008e-05
0.000187819
-1.4606e-07
0.000315867
3.0793e-05
0.000382752
7.29475e-05
0.000435693
0.000112674
0.000435974
0.000134162
0.000408195
0.000140383
0.000339244
0.00015987
0.000288526
0.000199247
0.000253387
0.000246698
0.000205656
0.000202112
9.8773e-05
6.61025e-05
-3.14636e-05
-8.21583e-06
-0.000100458
-3.45975e-05
-0.000135958
-5.14367e-05
-0.000132178
-6.84507e-05
-0.000113324
-7.53848e-05
-7.75985e-05
-6.60618e-05
-4.75868e-05
-4.47876e-05
-2.79076e-05
-2.46292e-05
-1.53614e-05
-1.84744e-05
-1.88438e-05
-1.80751e-05
-5.21085e-05
-8.6034e-06
-0.000106523
1.21699e-05
-0.0001436
-0.000117569
2.93955e-05
-6.40868e-05
8.50457e-05
-8.26646e-05
0.000109979
-9.80973e-05
0.000174183
-9.02199e-05
0.00023494
-8.38297e-05
0.000282424
-7.7625e-05
0.00036114
-4.00826e-05
0.000413617
1.18245e-06
0.000390155
4.11074e-05
0.000333896
6.55389e-05
0.000249396
6.98422e-05
0.000154195
5.48238e-05
6.91472e-05
3.49437e-05
-2.99951e-06
1.37317e-05
-5.63498e-05
-5.89937e-06
-9.38899e-05
-2.35851e-05
-0.000111753
-4.1716e-05
-0.000111866
-6.79261e-05
-9.52538e-05
-9.96628e-05
-5.45425e-05
-0.000124134
-1.45615e-05
-0.000154986
1.80268e-05
-0.000190759
4.96754e-05
-0.000193598
7.8835e-05
-0.000175692
0.000107212
-0.000138208
0.000120028
-0.000122118
0.000124871
-0.00011888
0.000144411
-0.000118585
0.000161311
-0.000119814
0.00017358
-0.000122144
0.000182684
-0.000125555
0.000190113
-0.000129864
0.000196353
-0.000134773
0.000200686
-0.000140102
0.00020126
-0.000150984
0.000200472
-0.000196318
0.000221559
-0.000320279
0.000298471
-0.000407669
0.000332878
-0.000392791
0.000266823
-0.000310207
0.000126496
-0.000202527
1.54183e-05
-0.000121214
-2.95517e-05
-6.36743e-05
-4.92799e-05
-2.37703e-05
-4.46301e-05
5.78124e-06
-2.47739e-05
3.18531e-05
5.61337e-06
5.7581e-05
3.96727e-05
8.60256e-05
7.17801e-05
0.000107035
0.00010369
0.000118912
0.000117995
0.000116268
0.000117236
9.22461e-05
9.58801e-05
7.96366e-05
7.5174e-05
7.86349e-05
6.92124e-05
8.81244e-05
6.65454e-05
0.000115265
7.04185e-05
0.000139107
5.92677e-05
0.000169235
3.55346e-05
0.000223883
4.25995e-06
0.000321185
-3.88345e-05
0.000436028
-8.85925e-05
0.000514416
-0.000128949
0.00052906
-0.000145247
0.000499067
-0.000147606
0.000384522
-0.000130422
0.000236837
-9.03534e-05
0.000147825
-4.8398e-05
9.95778e-05
-2.21081e-05
6.40811e-05
-2.8203e-06
3.03809e-05
1.21121e-05
2.64241e-06
2.03587e-05
-1.41083e-05
1.88313e-05
-2.20856e-05
1.02385e-05
-2.91902e-05
9.26237e-08
-3.90245e-05
-8.20105e-06
-6.69399e-05
-2.36197e-05
-0.000161851
-8.59036e-05
-0.00031235
-0.000203786
-0.000473502
-0.000320732
-0.000588819
-0.000396892
-0.000595792
-0.000429609
-0.000542834
-0.000426436
-0.000456474
-0.000391317
-0.000350754
-0.000320126
-0.000254727
-0.000224632
-0.000193248
-0.000122774
-0.000148393
-2.47609e-05
-0.000119515
9.49947e-05
-6.88632e-05
0.000240223
4.99076e-06
0.000380626
3.98172e-05
0.000413118
8.4421e-05
0.000460393
0.000126682
0.00046473
0.000156217
0.000443941
0.000163651
0.000387131
0.000182599
0.000319491
0.000211341
0.000278862
0.000256309
0.00023379
0.000252367
0.000155024
0.000130609
2.5268e-05
5.14136e-05
-8.16363e-05
2.24579e-05
-0.000140444
7.44518e-06
-0.000144846
-8.68342e-06
-0.000121949
-3.37198e-05
-0.000101337
-4.84417e-05
-5.74272e-05
-4.45299e-05
-2.13856e-05
-3.78946e-05
-3.6568e-06
-3.8662e-05
-7.72049e-06
-3.72248e-05
-4.28304e-05
-1.65344e-05
-9.83672e-05
1.09803e-05
-0.000120011
-5.4608e-05
3.18251e-06
-5.09146e-05
8.83236e-05
-6.01959e-05
0.000108585
-7.72448e-05
0.000164159
-7.2072e-05
0.000238122
-5.78068e-05
0.000292599
-4.7894e-05
0.000346037
-1.27646e-05
0.000413194
2.55963e-05
0.000388135
5.97506e-05
0.000337565
7.89214e-05
0.000257234
8.43194e-05
0.000165822
7.75854e-05
8.37032e-05
6.19288e-05
1.1311e-05
4.81164e-05
-4.46273e-05
3.26884e-05
-7.96432e-05
1.51688e-05
-9.72964e-05
-3.45723e-06
-9.54638e-05
-2.59337e-05
-8.65154e-05
-6.62197e-05
-4.67019e-05
-0.000101285
-8.95099e-06
-0.000137565
2.0382e-05
-0.000184784
5.1081e-05
-0.000194721
8.25658e-05
-0.000183964
0.000111204
-0.000148127
0.000126996
-0.000120913
0.000130197
-0.000115018
0.000147158
-0.000113534
0.000165207
-0.000113745
0.000179184
-0.000115087
0.00018942
-0.000117299
0.000197701
-0.000119916
0.000204493
-0.000122952
0.000209155
-0.000128338
0.000210939
-0.000148728
0.000219529
-0.000225362
0.000273053
-0.000339565
0.00036598
-0.000391173
0.000371105
-0.000377777
0.000270965
-0.000328655
0.000131757
-0.000242109
1.21685e-05
-0.000167357
-5.51189e-05
-9.68232e-05
-9.13649e-05
-4.25611e-05
-6.62422e-05
-2.06282e-05
-2.93744e-05
4.64624e-06
-8.55413e-06
2.33329e-05
2.13226e-05
4.3936e-05
5.31964e-05
6.26923e-05
7.85666e-05
7.52403e-05
9.20413e-05
7.57616e-05
9.3951e-05
6.36227e-05
8.0386e-05
6.38851e-05
7.51826e-05
7.00807e-05
7.33215e-05
9.4908e-05
8.03906e-05
0.000122422
7.68481e-05
0.000145601
5.93882e-05
0.000172147
3.36727e-05
0.000216115
6.40552e-07
0.000307585
-4.23723e-05
0.000412149
-9.21268e-05
0.000485615
-0.000134593
0.00050491
-0.000154723
0.00048512
-0.000158824
0.000391276
-0.000141074
0.000253872
-9.85466e-05
0.00016031
-5.04968e-05
0.000109007
-2.15361e-05
7.00656e-05
-2.60639e-06
3.31467e-05
1.15951e-05
4.1527e-06
1.93148e-05
-1.14119e-05
1.6479e-05
-1.88893e-05
6.07325e-06
-2.52363e-05
-4.65184e-06
-3.46106e-05
-1.35075e-05
-6.54489e-05
-3.28029e-05
-0.000155779
-0.000107606
-0.000292829
-0.000227785
-0.000430652
-0.000333048
-0.000530505
-0.000395351
-0.000560658
-0.00042055
-0.000516185
-0.000414968
-0.000423001
-0.000370326
-0.000310067
-0.000286576
-0.000205853
-0.000182923
-0.000152224
-8.38184e-05
-0.000117679
2.32331e-06
-0.000116982
0.000118869
-8.15961e-05
0.000269316
-3.57248e-06
0.000406668
4.02218e-05
0.000438009
8.61267e-05
0.000479309
0.000129689
0.000485864
0.00016497
0.000469572
0.000177534
0.00042718
0.000192156
0.000351743
0.000216474
0.000305462
0.000256149
0.000260234
0.000274025
0.000191847
0.000190547
7.25743e-05
0.00010166
-5.99943e-05
6.70262e-05
-0.000133043
5.0859e-05
-0.000148297
4.31355e-05
-0.000126352
2.51515e-05
-0.000107856
-1.20134e-05
-7.65286e-05
-4.08125e-05
-2.04889e-05
-5.55529e-05
8.92778e-06
-6.32829e-05
6.78064e-06
-5.41298e-05
-2.73217e-05
-2.4373e-05
-7.29277e-05
-1.99103e-05
-5.5152e-05
2.38986e-05
-4.80766e-05
-4.1421e-05
9.303e-05
-4.55136e-05
0.000110404
-5.88315e-05
0.000157162
-5.41782e-05
0.000240008
-3.66824e-05
0.000298125
-2.14707e-05
0.000333015
1.12465e-05
0.000404228
4.40049e-05
0.000384993
7.2363e-05
0.000342567
8.75396e-05
0.000270733
9.07322e-05
0.00017967
8.77261e-05
9.59575e-05
8.03738e-05
2.10362e-05
7.07803e-05
-3.18236e-05
5.99056e-05
-6.11347e-05
4.27337e-05
-7.36917e-05
2.42008e-05
-7.55174e-05
1.51639e-06
-6.20211e-05
-3.81126e-05
-3.26367e-05
-7.9009e-05
3.4083e-06
-0.000121023
2.92934e-05
-0.000174968
5.71452e-05
-0.000190678
8.78189e-05
-0.000185165
0.000113814
-0.000151595
0.000128902
-0.000120024
0.000131758
-0.000111856
0.000147363
-0.000108597
0.000166973
-0.000107139
0.000182703
-0.00010677
0.000194149
-0.000107039
0.000203162
-0.000107575
0.0002103
-0.000108902
0.000215434
-0.000115583
0.000219977
-0.00014194
0.000237932
-0.000222817
0.000309726
-0.000306058
0.000393047
-0.000342249
0.000377851
-0.000360332
0.000272978
-0.000354824
0.000136317
-0.000321274
-4.52931e-06
-0.000274487
-0.000106346
-0.000165782
-0.000160484
-6.34301e-05
-0.000122781
-2.58412e-05
-4.5759e-05
-9.18198e-06
-1.24734e-05
4.09893e-06
1.3027e-05
1.69125e-05
4.17286e-05
2.84999e-05
6.12596e-05
3.79902e-05
7.23462e-05
4.24655e-05
7.55517e-05
4.65405e-05
7.40317e-05
5.32233e-05
7.531e-05
7.5354e-05
8.41083e-05
0.000102713
8.61235e-05
0.000126289
7.48052e-05
0.000147034
5.37585e-05
0.000167585
2.61075e-05
0.000193691
-5.86784e-06
0.00027962
-4.52591e-05
0.00039055
-9.67986e-05
0.000472473
-0.000144692
0.000495152
-0.000169235
0.000481489
-0.000174209
0.000400955
-0.000156294
0.000271876
-0.000110462
0.000171191
-5.56646e-05
0.000115944
-2.12455e-05
7.4417e-05
-1.22707e-06
3.58785e-05
1.2559e-05
6.21361e-06
1.88697e-05
-8.74858e-06
1.39722e-05
-1.6044e-05
1.48408e-06
-2.24328e-05
-9.79902e-06
-3.27655e-05
-1.98713e-05
-6.94718e-05
-4.57081e-05
-0.000162402
-0.000133864
-0.000292292
-0.000253565
-0.000402111
-0.000345117
-0.000469377
-0.000395176
-0.000515983
-0.000416331
-0.000479657
-0.000408586
-0.000389007
-0.000352668
-0.000277009
-0.000257086
-0.00017677
-0.000147425
-0.000133626
-5.77502e-05
-0.000110468
2.04659e-05
-0.000107111
0.000112573
-8.90943e-05
0.00025298
-1.52897e-05
0.000402177
3.91065e-05
0.000478913
8.19778e-05
0.000502186
0.000124731
0.000504765
0.000162303
0.000490148
0.000182931
0.000456561
0.000194414
0.000382421
0.000219661
0.00033403
0.000257041
0.000287834
0.000282056
0.000218292
0.000235078
0.000103421
0.000151609
-4.21344e-05
0.000107311
-0.000122455
8.70821e-05
-0.000143158
7.92206e-05
-0.000126285
8.35375e-05
-0.000100164
4.08564e-05
-7.9888e-05
-2.67627e-05
-2.20619e-05
-7.32025e-05
2.36057e-05
-8.81772e-05
2.60771e-05
-6.73657e-05
-6.88612e-07
-4.2988e-05
-2.48776e-05
-5.30957e-05
2.04043e-05
7.3891e-05
-6.50626e-05
-3.6039e-05
9.8595e-05
-3.64867e-05
0.000114478
-4.44383e-05
0.000154184
-3.97917e-05
0.000239452
-1.99529e-05
0.000300636
1.52371e-06
0.000325843
2.83903e-05
0.00037805
5.88096e-05
0.000376864
8.39666e-05
0.000344283
9.72604e-05
0.000279595
9.8987e-05
0.000190116
9.28433e-05
0.00010087
8.24998e-05
2.25801e-05
7.53729e-05
-2.06739e-05
6.92149e-05
-4.27294e-05
6.05435e-05
-5.22651e-05
4.62908e-05
-5.19236e-05
2.80883e-05
-3.66385e-05
-1.03273e-05
-4.40891e-06
-5.86853e-05
2.55618e-05
-0.000106589
4.45322e-05
-0.000164625
6.96475e-05
-0.000184679
9.64546e-05
-0.00018187
0.000118101
-0.00014996
0.000129645
-0.000118365
0.000130924
-0.000108949
0.000146151
-0.000103883
0.00016699
-0.000100368
0.000184256
-9.78231e-05
0.0001969
-9.58407e-05
0.00020651
-9.39861e-05
0.000213717
-9.32892e-05
0.0002192
-9.86905e-05
0.000226134
-0.000123416
0.000249928
-0.000188284
0.000319274
-0.000248349
0.000388764
-0.00029161
0.000367214
-0.00032879
0.000270819
-0.000363556
0.000139238
-0.000368824
-6.51061e-06
-0.000329032
-0.000125653
-0.00023166
-0.000189001
-0.000104945
-0.000168404
-3.36145e-05
-7.98043e-05
-1.71163e-05
-1.74747e-05
-6.29684e-06
9.15662e-06
3.3983e-06
3.5262e-05
1.1644e-05
5.26361e-05
2.02048e-05
6.20424e-05
2.84606e-05
6.73795e-05
3.75533e-05
7.20236e-05
5.6537e-05
8.11255e-05
8.15213e-05
8.64348e-05
0.000105977
8.16029e-05
0.000126979
6.56839e-05
0.000140449
4.24568e-05
0.000155023
1.78407e-05
0.00017881
-1.13432e-05
0.000270557
-4.87427e-05
0.000382703
-0.000101436
0.000463201
-0.000153661
0.000486584
-0.000184096
0.000477682
-0.000193421
0.000407634
-0.000176337
0.000284442
-0.000127631
0.000175935
-6.44644e-05
0.00011802
-2.2589e-05
7.5335e-05
-9.92958e-08
3.66644e-05
1.38454e-05
7.70269e-06
1.84495e-05
-6.66858e-06
1.13909e-05
-1.41691e-05
-2.84796e-06
-2.11845e-05
-1.47393e-05
-3.39146e-05
-2.65784e-05
-8.09014e-05
-6.14931e-05
-0.000182765
-0.000159833
-0.000301622
-0.000273606
-0.000389949
-0.00035049
-0.000436279
-0.000390728
-0.000476449
-0.000407158
-0.000446976
-0.000395513
-0.000354595
-0.000328643
-0.000248144
-0.000223729
-0.000170252
-0.000118309
-0.000141498
-4.69848e-05
-0.000116509
2.57759e-05
-0.000100287
0.000104694
-8.78163e-05
0.000218959
-3.76628e-05
0.000375126
2.87827e-05
0.000493921
7.04539e-05
0.000516387
0.000112234
0.000517482
0.000149971
0.000503362
0.000176771
0.000474771
0.000193031
0.000409505
0.000222788
0.00035952
0.000260851
0.000312186
0.000290815
0.000235386
0.00026208
0.00011437
0.000193558
-2.83925e-05
0.000143997
-0.000110802
0.000120395
-0.000137189
0.000108118
-0.000127747
0.000121777
-9.86856e-05
0.00010131
-7.11747e-05
-8.11708e-08
-1.50827e-05
-8.50384e-05
4.29616e-05
-0.000103895
4.96479e-05
-8.65594e-05
3.49851e-05
-6.94847e-05
3.08724e-05
-6.93783e-05
7.56364e-05
9.25616e-05
-7.05631e-05
-3.38613e-05
0.000103878
-3.15951e-05
0.000119191
-3.42497e-05
0.000154069
-2.84088e-05
0.000236811
-6.75407e-06
0.000300545
1.61064e-05
0.000321146
4.45531e-05
0.000353809
7.27703e-05
0.000359644
9.56395e-05
0.000333931
0.000109987
0.000276547
0.000111737
0.000190066
9.54353e-05
9.05389e-05
8.27378e-05
2.31434e-05
7.83281e-05
-1.2714e-05
7.56814e-05
-3.04663e-05
7.09816e-05
-3.57272e-05
6.05603e-05
-2.82817e-05
4.28948e-05
-4.99676e-06
8.71553e-06
2.95797e-05
-4.33769e-05
5.53349e-05
-9.60549e-05
6.4958e-05
-0.00015486
8.65968e-05
-0.000178525
0.00010873
-0.000177081
0.00012468
-0.000146492
0.000129785
-0.000116585
0.000128217
-0.000106175
0.000144131
-9.93606e-05
0.000165775
-9.37396e-05
0.00018416
-8.9006e-05
0.0001978
-8.45268e-05
0.000207659
-8.03711e-05
0.000215042
-7.7644e-05
0.000220909
-8.02984e-05
0.000228726
-9.63918e-05
0.000251007
-0.000142277
0.000310306
-0.00019033
0.000368065
-0.000234065
0.000345212
-0.000281011
0.000263228
-0.00032545
0.00014717
-0.000348779
1.95273e-05
-0.000329693
-0.000108046
-0.00025681
-0.000187529
-0.000140715
-0.000181657
-5.0051e-05
-0.000100303
-1.86034e-05
-2.71018e-05
-9.54295e-06
8.34975e-06
-1.32485e-06
3.26919e-05
5.64047e-06
4.9677e-05
1.39346e-05
5.75659e-05
2.35806e-05
6.35878e-05
3.85933e-05
7.08195e-05
6.00952e-05
7.91779e-05
8.44965e-05
7.97984e-05
0.000105256
6.88483e-05
0.00011862
5.18327e-05
0.000130068
3.261e-05
0.000143342
1.21838e-05
0.000174379
-1.35859e-05
0.000267086
-4.97196e-05
0.000373313
-0.000103029
0.000455525
-0.000160591
0.00048222
-0.000204807
0.00047615
-0.000217272
0.000413635
-0.000204
0.000295469
-0.000152479
0.00017836
-8.01749e-05
0.000116046
-2.62527e-05
7.31053e-05
-2.96268e-07
3.56542e-05
1.44176e-05
8.21634e-06
1.78116e-05
-5.51756e-06
9.03683e-06
-1.34919e-05
-6.5669e-06
-2.14727e-05
-1.89788e-05
-3.74264e-05
-3.2944e-05
-9.67092e-05
-7.78654e-05
-0.000204957
-0.000182112
-0.000313703
-0.000287832
-0.000385706
-0.000351605
-0.00041975
-0.000382228
-0.000447733
-0.000393752
-0.00042228
-0.000378408
-0.000327623
-0.000304563
-0.000227957
-0.000195226
-0.000181475
-0.000105266
-0.000156104
-4.00898e-05
-0.00012761
2.58553e-05
-0.000105612
9.96206e-05
-9.45171e-05
0.000202222
-5.61826e-05
0.000355189
9.64315e-06
0.000491654
5.2576e-05
0.000523058
9.27682e-05
0.000526418
0.000131691
0.000512422
0.000165132
0.000488433
0.000189525
0.000434657
0.000225148
0.000384914
0.000267271
0.00033063
0.000297957
0.000246226
0.000274373
0.000114201
0.00021686
-2.36133e-05
0.00016801
-0.000101923
0.000144708
-0.000133248
0.000132332
-0.000131444
0.000154817
-0.000108729
0.000147167
-7.15342e-05
3.07488e-05
-3.54316e-06
-8.60248e-05
6.34524e-05
-0.000113741
7.56163e-05
-0.000100314
6.64544e-05
-8.67881e-05
7.89124e-05
-7.55117e-05
0.000103216
0.000109845
-8.46204e-05
-3.35867e-05
0.000109009
-2.91103e-05
0.000123693
-2.74332e-05
0.000154577
-1.91512e-05
0.000231237
3.15256e-06
0.000294579
2.81863e-05
0.0003119
5.69715e-05
0.000333009
8.38395e-05
0.000330153
0.000106303
0.000304542
0.000119392
0.000252319
0.00011361
0.000167172
9.40367e-05
7.58645e-05
8.59032e-05
2.36147e-05
8.37615e-05
-4.36319e-06
8.07608e-05
-1.72697e-05
7.61451e-05
-1.55632e-05
6.59213e-05
-4.82134e-07
5.26999e-05
2.84316e-05
2.02925e-05
6.88773e-05
-3.24447e-05
8.86934e-05
-8.81424e-05
8.8313e-05
-0.00014768
0.000106446
-0.000172454
0.000125105
-0.000171558
0.000134033
-0.000140492
0.000132338
-0.000113677
0.000125931
-0.000103493
0.000142248
-9.51777e-05
0.000164045
-8.75617e-05
0.000183023
-8.05173e-05
0.000197228
-7.36831e-05
0.000207067
-6.74676e-05
0.000214773
-6.23803e-05
0.000220332
-6.10197e-05
0.000227124
-6.93425e-05
0.000245579
-0.000100883
0.000292164
-0.00013895
0.000335844
-0.000184228
0.000313011
-0.000232522
0.000250081
-0.000274065
0.000159257
-0.000303211
5.87212e-05
-0.000303814
-5.3829e-05
-0.000250711
-0.000150122
-0.000151828
-0.000162693
-6.81904e-05
-9.45315e-05
-2.35745e-05
-2.9865e-05
-1.03996e-05
7.14104e-06
-2.04134e-06
3.15709e-05
5.17522e-06
4.84746e-05
1.36431e-05
5.53609e-05
2.45729e-05
6.0448e-05
4.15804e-05
6.68659e-05
6.31723e-05
7.11799e-05
8.17236e-05
6.63478e-05
9.79317e-05
5.53796e-05
0.000111769
4.14979e-05
0.00012401
2.68686e-05
0.00013647
1.04777e-05
0.000175803
-1.16721e-05
0.000261087
-4.61041e-05
0.000354132
-9.7769e-05
0.000436615
-0.000159039
0.000482802
-0.000215322
0.000483447
-0.00024182
0.00043438
-0.000235738
0.000319984
-0.000187128
0.000184365
-0.000106756
0.000112542
-3.4486e-05
6.896e-05
-3.06502e-06
3.36891e-05
1.33051e-05
8.29234e-06
1.65694e-05
-4.96658e-06
6.81225e-06
-1.32758e-05
-9.52052e-06
-2.24065e-05
-2.20678e-05
-4.21458e-05
-3.81676e-05
-0.000114703
-9.28646e-05
-0.000228241
-0.000198858
-0.000328954
-0.000297203
-0.000386886
-0.000350754
-0.000411836
-0.000371633
-0.00043078
-0.000376576
-0.000408431
-0.000357364
-0.000314956
-0.000282675
-0.000223898
-0.000175453
-0.000195289
-9.54433e-05
-0.000172485
-3.3958e-05
-0.000147609
2.87858e-05
-0.000126173
0.000100345
-0.000111582
0.000195399
-7.86116e-05
0.000336986
-1.64553e-05
0.000469287
2.97933e-05
0.000525398
7.02422e-05
0.000534705
0.000110929
0.000520864
0.000150742
0.000500619
0.000186371
0.000459889
0.000230686
0.000409527
0.000275957
0.000343681
0.000298221
0.00024398
0.000281342
0.000106001
0.000220817
-2.31659e-05
0.00017913
-9.54941e-05
0.000156867
-0.000129343
0.000153935
-0.000138281
0.00019013
-0.00013026
0.000182348
-8.48273e-05
5.42078e-05
-7.62148e-06
-8.11459e-05
7.00884e-05
-0.000122178
9.03558e-05
-0.000115438
8.95504e-05
-9.47315e-05
0.000106698
-8.5823e-05
0.00011659
0.000127593
-0.000101805
-3.40963e-05
0.000113187
-2.79617e-05
0.000126779
-2.2907e-05
0.000154057
-1.22695e-05
0.000217378
1.06898e-05
0.00028022
3.67653e-05
0.000293946
6.48078e-05
0.000302332
8.86602e-05
0.000289276
0.000106507
0.000255905
0.000112279
0.000200361
9.86095e-05
0.000125317
8.88779e-05
6.36615e-05
8.55418e-05
2.65207e-05
8.40396e-05
6.5262e-06
8.17684e-05
4.46723e-07
7.72928e-05
8.69483e-06
6.94073e-05
2.86227e-05
5.67833e-05
6.82552e-05
2.63104e-05
0.000109846
-2.50638e-05
0.000122282
-8.19241e-05
0.000112408
-0.000143394
0.000128681
-0.000167587
0.000143703
-0.000168228
0.000146678
-0.000137319
0.000139005
-0.000111196
0.000126804
-0.000100815
0.000140937
-9.13666e-05
0.00016211
-8.20282e-05
0.000181273
-7.28502e-05
0.000195642
-6.3992e-05
0.000205566
-5.57628e-05
0.000213306
-4.84389e-05
0.000218006
-4.39837e-05
0.000223464
-4.6891e-05
0.000237206
-6.48072e-05
0.000267826
-9.36495e-05
0.000290611
-0.000138033
0.000268559
-0.00018465
0.000226305
-0.000227564
0.000167838
-0.000267477
0.000100607
-0.000287692
3.96427e-06
-0.000243409
-0.000100087
-0.000156699
-0.000125318
-8.12519e-05
-7.56636e-05
-3.36104e-05
-2.59809e-05
-1.17146e-05
8.04568e-06
-9.38542e-07
3.36789e-05
6.77647e-06
4.91902e-05
1.59875e-05
5.44727e-05
2.77635e-05
5.81252e-05
4.51186e-05
6.21896e-05
6.36195e-05
6.27535e-05
8.10674e-05
5.70834e-05
9.6895e-05
4.74154e-05
0.000110905
3.60078e-05
0.000122775
2.40965e-05
0.000135532
1.0734e-05
0.000174374
-7.94423e-06
0.000244178
-3.79817e-05
0.000324007
-8.45057e-05
0.000403332
-0.000145398
0.000464031
-0.000208711
0.000483512
-0.000249
0.000456978
-0.000252563
0.000357269
-0.000219966
0.000206176
-0.000141278
0.000111286
-5.21888e-05
6.41807e-05
-8.95252e-06
3.11914e-05
1.004e-05
8.01636e-06
1.44412e-05
-4.81221e-06
4.72506e-06
-1.34516e-05
-1.15165e-05
-2.31176e-05
-2.42513e-05
-4.60356e-05
-4.21156e-05
-0.000127552
-0.000103657
-0.000241925
-0.000209625
-0.000336201
-0.000301138
-0.000386862
-0.000347304
-0.000407798
-0.00036028
-0.000422329
-0.00035778
-0.000399463
-0.000333482
-0.000309745
-0.000259845
-0.000225311
-0.000157958
-0.000207861
-8.39963e-05
-0.000193421
-2.44909e-05
-0.000181903
4.02169e-05
-0.000161496
0.000116069
-0.000137693
0.000206783
-0.000104339
0.000324752
-4.82164e-05
0.000442977
3.96678e-06
0.000521673
4.49174e-05
0.000540385
8.90002e-05
0.000529768
0.000136465
0.000513288
0.000185649
0.000481503
0.00023849
0.000429937
0.000284076
0.000351778
0.000296182
0.000234977
0.000275359
9.18048e-05
0.000213441
-2.64917e-05
0.000178947
-8.99753e-05
0.000158355
-0.00012298
0.000184639
-0.000140405
0.000225164
-0.000147756
0.00020191
-0.000108815
6.87336e-05
-3.78358e-05
-7.12608e-05
5.1536e-05
-0.00012373
8.94447e-05
-0.000121815
0.000103727
-9.70984e-05
0.000116947
-0.000102637
0.000126506
0.000142819
-0.00012156
-3.45629e-05
0.000116349
-2.72118e-05
0.000128545
-1.90691e-05
0.00015004
-7.7211e-06
0.000191922
1.45409e-05
0.000245389
4.03147e-05
0.000259023
6.35741e-05
0.00025334
8.08919e-05
0.000233866
9.01721e-05
0.000199772
9.0288e-05
0.000151168
8.54232e-05
9.92518e-05
8.25475e-05
5.82208e-05
8.24253e-05
3.27733e-05
8.03912e-05
1.98816e-05
8.26769e-05
2.15579e-05
7.911e-05
3.75681e-05
7.22045e-05
6.52752e-05
5.94972e-05
0.000110726
3.05896e-05
0.000150522
-1.9324e-05
0.000153785
-7.65701e-05
0.000136743
-0.000139938
0.000151939
-0.00016425
0.000164014
-0.000166556
0.00016241
-0.000136276
0.00014978
-0.000109041
0.000130863
-9.80653e-05
0.000140508
-8.78287e-05
0.000160001
-7.7117e-05
0.000179157
-6.62462e-05
0.000193388
-5.57879e-05
0.000203475
-4.59024e-05
0.000211079
-3.68057e-05
0.000215089
-3.01213e-05
0.000218844
-2.84468e-05
0.000227302
-3.56831e-05
0.000242023
-5.36087e-05
0.000241759
-9.26552e-05
0.000216118
-0.00013633
0.000192189
-0.000184912
0.000162371
-0.000242174
0.000128358
-0.000297468
5.81509e-05
-0.000250017
-4.76231e-05
-0.000162743
-8.13755e-05
-8.99276e-05
-5.79198e-05
-4.25504e-05
-2.33161e-05
-1.48646e-05
6.42093e-06
-3.7729e-07
3.36201e-05
9.42282e-06
5.43761e-05
2.05002e-05
5.87847e-05
3.36484e-05
6.06816e-05
5.0211e-05
6.06521e-05
6.70065e-05
5.73588e-05
8.31064e-05
5.06596e-05
9.77413e-05
4.19177e-05
0.000110742
3.2301e-05
0.000122406