/*--------------------------------*- C++ -*----------------------------------*\
  =========                 |
  \\      /  F ield         | OpenFOAM: The Open Source CFD Toolbox
   \\    /   O peration     | Website:  https://openfoam.org
    \\  /    A nd           | Version:  10
     \\/     M anipulation  |
\*---------------------------------------------------------------------------*/
FoamFile
{
    format      ascii;
    class       volScalarField;
    location    "0.248999";
    object      rho;
}
// * * * * * * * * * * * * * * * * * * * * * * * * * * * * * * * * * * * * * //

dimensions      [1 -3 0 0 0 0 0];

internalField   nonuniform List<scalar> 
16320
(
0.605929
0.723019
0.821656
0.813368
0.861575
1.22028
1.31235
1.26858
1.1297
0.954883
0.740399
0.641699
0.561453
0.506726
0.491522
0.496699
0.495985
0.476399
0.415678
0.359753
0.35154
0.351096
0.350098
0.3463
0.335336
0.330581
0.330883
0.333023
0.337139
0.345313
0.354644
0.363187
0.372679
0.383224
0.393308
0.403036
0.416428
0.433947
0.480013
0.635501
0.930301
1.13882
1.18773
1.04616
0.823383
0.679639
0.580209
0.511702
0.467732
0.436856
0.406253
0.351796
0.274729
0.230977
0.223525
0.234589
0.276244
0.300396
0.330795
0.435968
0.629004
0.83728
0.957019
0.945387
0.831505
0.593185
0.362609
0.239594
0.186566
0.172398
0.176612
0.18048
0.15967
0.136955
0.136936
0.158392
0.262669
0.538065
0.911026
1.30349
1.58622
1.72327
1.77619
1.78642
1.75821
1.71835
1.67427
1.52183
1.15147
1.05008
1.02857
1.12416
1.11717
0.98431
0.810228
0.801999
1.03281
1.3342
1.18843
0.920112
0.770048
0.721808
0.773843
0.821636
0.838876
0.853244
0.845909
0.798557
0.771972
0.814447
0.888463
0.975475
1.06079
0.481948
0.600937
0.754722
0.792687
0.825926
1.15634
1.26236
1.23691
1.12637
0.975697
0.749477
0.593735
0.51096
0.46615
0.455116
0.477356
0.497086
0.49789
0.453423
0.394195
0.391421
0.397781
0.398417
0.369999
0.342548
0.338381
0.339928
0.34261
0.347198
0.353509
0.360309
0.36724
0.375281
0.38312
0.391254
0.403634
0.42939
0.51279
0.900585
1.34725
1.56851
1.58575
1.21493
0.963763
0.681441
0.605066
0.56106
0.522537
0.496167
0.471658
0.434667
0.364969
0.274615
0.231882
0.226897
0.242586
0.283331
0.305611
0.353676
0.491954
0.685017
0.864445
0.952189
0.931546
0.813063
0.571368
0.352108
0.251212
0.20676
0.191551
0.19137
0.182663
0.149241
0.135899
0.137409
0.159923
0.268633
0.554714
0.942041
1.34415
1.60373
1.71425
1.75513
1.73419
1.69407
1.65569
1.62503
1.56941
1.30415
1.00798
0.994355
1.1086
1.09635
0.988936
0.808246
0.787544
0.889737
1.14423
1.14613
0.901186
0.701991
0.631469
0.682736
0.783684
0.820918
0.844601
0.863934
0.849852
0.80545
0.850592
0.932219
1.01957
1.07167
0.408048
0.513658
0.696354
0.758635
0.789547
1.08613
1.20047
1.17887
1.07815
0.937371
0.745686
0.570313
0.483308
0.455612
0.448338
0.449831
0.480354
0.505333
0.486359
0.423762
0.414679
0.441037
0.457398
0.431133
0.361346
0.342958
0.34315
0.346543
0.35119
0.356417
0.361671
0.367553
0.373605
0.37932
0.388285
0.411473
0.498829
0.934555
1.49139
1.74211
1.74367
1.28333
0.880579
0.645793
0.539693
0.408526
0.421471
0.466283
0.470106
0.461628
0.429749
0.357694
0.267012
0.229939
0.228748
0.253377
0.294429
0.318749
0.381419
0.519439
0.695823
0.854548
0.914116
0.886455
0.764552
0.528354
0.337927
0.256925
0.22488
0.214407
0.206368
0.179039
0.143158
0.135073
0.13775
0.163713
0.293883
0.611229
1.01692
1.40318
1.61958
1.69901
1.71305
1.64599
1.55975
1.50048
1.49422
1.48839
1.37101
0.97229
0.948013
1.06552
1.06189
0.994967
0.824408
0.770613
0.802776
0.960964
1.01402
0.836606
0.600117
0.517441
0.53415
0.695961
0.794478
0.840693
0.864692
0.875107
0.848785
0.897489
0.984046
1.04807
1.03797
0.354833
0.430332
0.618074
0.726073
0.771888
0.997618
1.13789
1.11527
1.02421
0.88799
0.725271
0.594164
0.499099
0.469508
0.457669
0.445606
0.443499
0.501831
0.506749
0.449927
0.429845
0.470587
0.505114
0.49795
0.419835
0.355128
0.345678
0.347267
0.351297
0.356071
0.360552
0.364835
0.368927
0.373929
0.38827
0.447487
0.761817
1.358
1.71992
1.77056
1.4552
0.951631
0.680397
0.49804
0.376302
0.268227
0.291089
0.369276
0.415062
0.42166
0.402938
0.33145
0.249228
0.227909
0.234105
0.279449
0.32167
0.344721
0.396204
0.519125
0.682505
0.812101
0.838203
0.806808
0.695354
0.494352
0.327098
0.257799
0.236035
0.22882
0.212022
0.169647
0.139944
0.134381
0.138482
0.17193
0.339793
0.680279
1.07529
1.41438
1.59913
1.64715
1.61634
1.50862
1.35832
1.27106
1.25465
1.30038
1.30938
1.04303
0.901689
1.00713
1.02899
0.998277
0.861297
0.766808
0.773719
0.857416
0.935643
0.827682
0.567213
0.479869
0.457284
0.516625
0.721216
0.837151
0.87105
0.901763
0.904929
0.955123
1.02998
1.05446
0.951935
0.319628
0.366559
0.526427
0.682729
0.749835
0.887684
1.07382
1.0527
0.986299
0.853635
0.715072
0.626872
0.547131
0.492973
0.468791
0.447563
0.419146
0.472031
0.51928
0.47216
0.436875
0.480906
0.527677
0.530609
0.465213
0.373605
0.347103
0.345443
0.349061
0.353455
0.357414
0.360504
0.363711
0.370268
0.401403
0.552543
1.02421
1.52203
1.70555
1.63354
1.27886
0.895919
0.71115
0.462192
0.303446
0.272381
0.222138
0.26633
0.329041
0.348098
0.336271
0.270681
0.228853
0.228456
0.259736
0.314972
0.34267
0.356585
0.38425
0.485248
0.626747
0.732375
0.756299
0.73457
0.65133
0.488458
0.330663
0.259692
0.240085
0.234794
0.213758
0.164298
0.138353
0.133719
0.139522
0.185281
0.391056
0.724893
1.06518
1.32792
1.48498
1.52259
1.45916
1.29854
1.11689
0.990414
0.970186
1.06491
1.19079
1.14036
0.864361
0.950561
0.982387
0.974072
0.897669
0.772253
0.761444
0.811337
0.874464
0.796287
0.566814
0.467506
0.444641
0.463181
0.612239
0.834353
0.901394
0.934584
0.960218
1.01188
1.06217
1.01721
0.753431
0.297211
0.327774
0.450305
0.636412
0.722191
0.788595
1.00883
0.993855
0.94866
0.850523
0.718316
0.63017
0.563632
0.498079
0.459884
0.435697
0.404563
0.456989
0.536043
0.491526
0.442503
0.484929
0.533853
0.5382
0.478998
0.382347
0.345738
0.342135
0.345519
0.349621
0.353109
0.355584
0.359114
0.370871
0.427206
0.662374
1.15197
1.50439
1.60555
1.5628
1.40027
1.25915
1.1104
0.631284
0.284069
0.223134
0.189244
0.21735
0.249265
0.256834
0.247088
0.223758
0.223448
0.248161
0.302179
0.330685
0.339338
0.342318
0.348404
0.41147
0.559946
0.685719
0.72088
0.70344
0.634058
0.494876
0.342669
0.264099
0.242402
0.237132
0.212993
0.161145
0.137512
0.13313
0.141139
0.203079
0.436951
0.756583
1.02511
1.21119
1.33133
1.35548
1.26651
1.08931
0.875789
0.727569
0.703727
0.781389
1.01265
1.08389
0.888582
0.917948
0.948713
0.955459
0.917852
0.796518
0.774052
0.803838
0.841864
0.778254
0.582444
0.456187
0.41628
0.421788
0.522019
0.815926
0.966454
0.992454
1.01878
1.0566
1.05598
0.871767
0.518422
0.283722
0.305803
0.398906
0.594471
0.692331
0.72085
0.909697
0.934551
0.913492
0.839493
0.715966
0.61266
0.496997
0.415683
0.386225
0.376085
0.393106
0.448922
0.547675
0.513925
0.45049
0.487688
0.533824
0.534727
0.475321
0.379635
0.342285
0.338284
0.341361
0.34521
0.348287
0.35035
0.354654
0.372123
0.448775
0.714544
1.13041
1.42518
1.54383
1.57341
1.57317
1.51677
1.42652
1.00277
0.439805
0.212625
0.190468
0.189407
0.203613
0.209248
0.209417
0.213557
0.235916
0.283669
0.314284
0.323133
0.317872
0.307714
0.310142
0.385896
0.543646
0.671794
0.710855
0.694834
0.634222
0.509328
0.356674
0.268112
0.244021
0.237775
0.210491
0.15949
0.137276
0.132688
0.144235
0.229297
0.48428
0.776523
0.987667
1.12146
1.20258
1.21335
1.09896
0.898379
0.679196
0.598826
0.586488
0.630168
0.811367
0.985804
0.933162
0.902058
0.925503
0.939073
0.924103
0.829552
0.803375
0.820524
0.825877
0.752209
0.596599
0.456234
0.400261
0.398352
0.470696
0.776566
1.03719
1.07845
1.07839
1.07598
0.983193
0.675341
0.372706
0.275431
0.294492
0.367851
0.554352
0.665116
0.678621
0.804275
0.86973
0.870876
0.822136
0.71454
0.562074
0.408767
0.348967
0.343161
0.35769
0.38659
0.45522
0.560007
0.533149
0.460186
0.492001
0.533069
0.528369
0.465746
0.371753
0.338169
0.334366
0.337087
0.340552
0.343186
0.345424
0.351089
0.372841
0.453695
0.688201
1.06404
1.33431
1.47003
1.52824
1.5525
1.56625
1.54579
1.26289
0.713529
0.261508
0.190489
0.181255
0.185908
0.190476
0.197219
0.215782
0.254103
0.287371
0.301848
0.296832
0.280919
0.277149
0.287374
0.385773
0.544045
0.674709
0.72721
0.711278
0.65516
0.535132
0.37879
0.273578
0.244803
0.237388
0.20846
0.159454
0.137563
0.132502
0.148394
0.256999
0.518826
0.785754
0.964219
1.06615
1.12207
1.11842
0.976678
0.756668
0.593873
0.558246
0.548603
0.569665
0.68702
0.883488
0.936229
0.883864
0.910076
0.932892
0.934597
0.868053
0.836636
0.837775
0.821359
0.724286
0.589976
0.438541
0.38561
0.392811
0.472744
0.780069
1.10053
1.16795
1.12045
1.05723
0.860004
0.503716
0.334321
0.269277
0.28801
0.348548
0.520114
0.635648
0.64807
0.734019
0.794473
0.811155
0.777853
0.6723
0.484046
0.365566
0.33218
0.33723
0.36004
0.393923
0.476143
0.57671
0.548022
0.46846
0.496897
0.532472
0.522013
0.451276
0.358019
0.333553
0.330889
0.333198
0.336175
0.338234
0.341047
0.347198
0.368866
0.439764
0.648612
0.977669
1.23135
1.40419
1.48098
1.51718
1.55855
1.58606
1.35654
0.873492
0.424444
0.203949
0.184044
0.183326
0.186666
0.194522
0.217749
0.252168
0.270402
0.269316
0.263017
0.259325
0.261179
0.282552
0.394164
0.541301
0.666107
0.748835
0.755531
0.710744
0.595874
0.428912
0.287019
0.246214
0.235904
0.206428
0.161431
0.138223
0.132474
0.153431
0.287207
0.556549
0.810444
0.964483
1.04217
1.08062
1.06671
0.919709
0.689749
0.567151
0.548512
0.544447
0.566446
0.658732
0.829217
0.921532
0.880584
0.909088
0.933926
0.946719
0.907237
0.877941
0.862349
0.814501
0.710265
0.559316
0.414082
0.378741
0.397268
0.544894
0.859242
1.18067
1.23788
1.12308
0.981167
0.714412
0.399065
0.33468
0.265253
0.283026
0.33443
0.484218
0.600765
0.614938
0.678993
0.710276
0.714118
0.673986
0.552983
0.404844
0.336974
0.325551
0.338429
0.374557
0.413961
0.510286
0.596152
0.55638
0.471588
0.501776
0.533174
0.519242
0.446634
0.352408
0.329643
0.327854
0.32984
0.332204
0.333804
0.336621
0.34223
0.36128
0.425078
0.595669
0.862817
1.08479
1.28703
1.36935
1.40074
1.48151
1.58666
1.38157
0.916465
0.537787
0.265955
0.202068
0.187965
0.18996
0.196738
0.219069
0.242582
0.251875
0.253677
0.253089
0.253205
0.258868
0.284848
0.387845
0.512493
0.63336
0.735457
0.78338
0.766064
0.679147
0.511715
0.322188
0.25149
0.233866
0.204014
0.164416
0.13916
0.13257
0.158111
0.312515
0.588072
0.834126
0.974612
1.04062
1.06921
1.04582
0.892145
0.661212
0.561644
0.552092
0.571522
0.618333
0.678699
0.803707
0.87783
0.882061
0.90767
0.938216
0.958072
0.952016
0.92598
0.892802
0.802026
0.6909
0.522751
0.391912
0.36998
0.428098
0.677736
0.989269
1.26238
1.27332
1.09097
0.875849
0.571403
0.368353
0.342317
0.260388
0.277404
0.320603
0.428189
0.544916
0.566047
0.597768
0.60362
0.584048
0.52118
0.42977
0.349696
0.31992
0.322985
0.352138
0.403653
0.456044
0.551699
0.614396
0.556479
0.470591
0.503855
0.533798
0.519345
0.448386
0.351887
0.326976
0.324961
0.326924
0.32861
0.329907
0.332737
0.337222
0.354584
0.405904
0.528623
0.702004
0.875717
1.06983
1.1366
1.17483
1.40111
1.58261
1.32096
0.879015
0.562192
0.347685
0.236515
0.21166
0.210754
0.213916
0.227324
0.242751
0.249367
0.251182
0.251198
0.25189
0.257558
0.280286
0.353094
0.440966
0.548594
0.673872
0.770244
0.782248
0.736004
0.599756
0.386871
0.266324
0.234421
0.202863
0.168709
0.140598
0.132621
0.161382
0.328983
0.609372
0.85408
0.990011
1.05004
1.07164
1.04104
0.885472
0.650867
0.557365
0.557048
0.622592
0.7158
0.753769
0.799774
0.858997
0.883458
0.902891
0.943421
0.973483
0.981296
0.962543
0.914976
0.81783
0.675831
0.470966
0.364504
0.357676
0.459125
0.73614
1.05133
1.31267
1.29217
1.04828
0.766393
0.471116
0.369681
0.368943
0.255354
0.270264
0.299807
0.362353
0.445146
0.474101
0.479531
0.475388
0.452058
0.407191
0.354795
0.318781
0.313178
0.323837
0.374532
0.44639
0.507756
0.588406
0.629489
0.548515
0.466683
0.504799
0.537668
0.52411
0.458326
0.359104
0.325249
0.32141
0.323398
0.324996
0.326468
0.328909
0.332716
0.346228
0.385008
0.46478
0.557955
0.64359
0.759928
0.800191
0.92092
1.40766
1.60894
1.28716
0.876178
0.56445
0.378463
0.268174
0.240471
0.239254
0.240014
0.244346
0.248654
0.250341
0.25099
0.250621
0.251634
0.254111
0.264269
0.293859
0.344398
0.432822
0.565008
0.709533
0.778544
0.764248
0.679044
0.482508
0.301888
0.239664
0.206144
0.175288
0.142575
0.132861
0.163276
0.337137
0.618041
0.864043
1.00342
1.06025
1.08072
1.04937
0.897664
0.653869
0.540416
0.54004
0.623572
0.763501
0.812291
0.830605
0.864086
0.890543
0.902443
0.961288
0.998638
1.00621
0.985082
0.923084
0.813157
0.634777
0.42356
0.347486
0.347175
0.468596
0.745989
1.05862
1.33128
1.30864
1.00369
0.660045
0.422745
0.379648
0.413238
0.249502
0.259294
0.277369
0.310865
0.355044
0.372508
0.377675
0.375334
0.360721
0.337992
0.316466
0.306674
0.312438
0.330218
0.402498
0.487432
0.552762
0.618752
0.638181
0.537463
0.4609
0.504281
0.543962
0.53198
0.476955
0.381529
0.326835
0.318341
0.317985
0.319528
0.322244
0.325373
0.328264
0.339119
0.365629
0.410803
0.451051
0.477377
0.507895
0.540634
0.79465
1.36993
1.66001
1.47281
1.15332
0.748206
0.424638
0.286785
0.254656
0.250811
0.249951
0.249777
0.250076
0.250895
0.250325
0.250931
0.250016
0.25264
0.251367
0.257418
0.263965
0.335872
0.468001
0.630646
0.754753
0.767888
0.731336
0.586664
0.367174
0.251965
0.214542
0.184085
0.144846
0.133033
0.163069
0.336548
0.617294
0.868691
1.0137
1.06956
1.087
1.06439
0.924836
0.679296
0.531256
0.525046
0.595742
0.763401
0.845229
0.875467
0.887601
0.899171
0.908467
0.999029
1.01937
1.01084
0.974719
0.905941
0.7788
0.552809
0.374856
0.329617
0.340819
0.474866
0.728756
1.02714
1.3205
1.31998
0.974171
0.586068
0.414738
0.391368
0.464691
0.243987
0.250104
0.260888
0.277836
0.299601
0.308998
0.314521
0.315168
0.311116
0.305209
0.300985
0.306344
0.316829
0.342989
0.434946
0.524844
0.589776
0.640398
0.64239
0.525148
0.455467
0.505089
0.55341
0.544513
0.503898
0.423089
0.341328
0.318073
0.313079
0.312626
0.314883
0.319716
0.322512
0.330451
0.345525
0.366562
0.377583
0.377776
0.378031
0.411267
0.69787
1.35028
1.66794
1.70178
1.61239
1.32519
0.844084
0.384319
0.269839
0.256227
0.252262
0.250806
0.249916
0.250168
0.249898
0.248547
0.248321
0.246265
0.246955
0.245396
0.25006
0.288577
0.408133
0.567311
0.717103
0.760254
0.747031
0.661546
0.454435
0.279366
0.225791
0.192833
0.147219
0.133075
0.161756
0.329673
0.60713
0.864903
1.02059
1.07829
1.09156
1.07663
0.963461
0.725582
0.528462
0.507321
0.551878
0.716464
0.843802
0.890954
0.916166
0.930984
0.944041
1.00499
1.00727
0.99196
0.950711
0.86385
0.68382
0.439928
0.330226
0.314057
0.346413
0.510334
0.744036
1.00999
1.28514
1.30014
0.942669
0.540715
0.418853
0.410015
0.510275
0.239793
0.243876
0.250423
0.259077
0.269638
0.276469
0.281504
0.285388
0.288673
0.292278
0.298746
0.309797
0.32533
0.36774
0.469494
0.558446
0.620056
0.656874
0.645226
0.516172
0.452397
0.504635
0.568525
0.567678
0.548318
0.475393
0.380011
0.323147
0.311537
0.306606
0.305774
0.308633
0.312219
0.316153
0.322339
0.329466
0.327727
0.321051
0.31757
0.350691
0.624133
1.26273
1.59646
1.69585
1.72069
1.62835
1.31763
0.812611
0.336049
0.275428
0.259573
0.254698
0.252803
0.251653
0.250242
0.247781
0.245013
0.242486
0.239339
0.239272
0.239259
0.27213
0.379606
0.522569
0.669149
0.740091
0.736335
0.694657
0.533737
0.322986
0.244086
0.20336
0.149767
0.133032
0.159054
0.31713
0.591191
0.855334
1.0189
1.08105
1.09143
1.08
0.986377
0.781592
0.540632
0.483418
0.498792
0.613069
0.795741
0.88108
0.915779
0.936238
0.951266
0.986595
0.986278
0.959368
0.896897
0.752267
0.51239
0.346413
0.300368
0.302303
0.373631
0.55536
0.767912
1.00045
1.23248
1.25116
0.906066
0.54434
0.4321
0.443372
0.535748
0.23641
0.23977
0.244135
0.249029
0.254973
0.260093
0.265454
0.271982
0.279555
0.28834
0.300415
0.316249
0.343187
0.40528
0.502779
0.587894
0.645059
0.670449
0.648625
0.51315
0.45156
0.508168
0.600686
0.612768
0.601989
0.538057
0.440541
0.349347
0.312344
0.304437
0.299137
0.297677
0.298139
0.299273
0.300131
0.300609
0.295898
0.289754
0.290548
0.32831
0.596412
1.14237
1.48348
1.62703
1.67404
1.64742
1.44006
1.03533
0.613466
0.371985
0.301821
0.278661
0.268973
0.261947
0.255455
0.249268
0.244226
0.240068
0.236364
0.232925
0.234658
0.252931
0.341719
0.468319
0.602392
0.695113
0.707726
0.691732
0.587516
0.376045
0.266527
0.213677
0.151284
0.132491
0.154622
0.297613
0.565049
0.835932
1.01024
1.07528
1.08612
1.07441
0.99281
0.812047
0.572932
0.464086
0.460541
0.50793
0.656619
0.813831
0.883658
0.914044
0.928751
0.947443
0.93401
0.875662
0.749695
0.539566
0.357449
0.293203
0.282712
0.297612
0.40323
0.583755
0.779742
0.978536
1.15298
1.17238
0.879812
0.56701
0.453949
0.477135
0.541042
0.23342
0.236604
0.240161
0.243442
0.247467
0.251595
0.257369
0.265284
0.27502
0.287163
0.304049
0.33012
0.374892
0.444992
0.535127
0.613394
0.664185
0.682036
0.652837
0.515539
0.451548
0.505761
0.628613
0.664322
0.662195
0.615549
0.520128
0.41307
0.329754
0.303468
0.296837
0.291392
0.288314
0.286291
0.283941
0.281384
0.276911
0.273766
0.278743
0.323217
0.574639
1.00887
1.30898
1.45599
1.56398
1.57516
1.39087
1.03447
0.752581
0.538902
0.421055
0.356147
0.316749
0.289701
0.270322
0.256101
0.245759
0.238515
0.233409
0.229661
0.226102
0.23226
0.285359
0.400227
0.522421
0.624206
0.656733
0.660064
0.606741
0.433819
0.301474
0.225042
0.152344
0.131335
0.149114
0.271408
0.529825
0.8061
0.997192
1.06548
1.07296
1.06013
0.986924
0.821751
0.597776
0.456536
0.437497
0.44725
0.502045
0.640548
0.767068
0.823599
0.844982
0.826357
0.776803
0.666446
0.494066
0.347148
0.286314
0.27058
0.272409
0.298576
0.418111
0.597246
0.789823
0.97773
1.12065
1.12801
0.869372
0.597591
0.491368
0.519716
0.542104
0.231128
0.234009
0.236961
0.239636
0.242826
0.246421
0.25231
0.260644
0.271247
0.286248
0.308443
0.347865
0.409487
0.484353
0.566634
0.635436
0.679344
0.691913
0.65731
0.519267
0.452076
0.497254
0.635216
0.699683
0.714519
0.697867
0.618318
0.506277
0.394014
0.319893
0.295509
0.288511
0.283368
0.278722
0.274092
0.270195
0.266428
0.265407
0.272814
0.323696
0.552257
0.908235
1.09582
1.22465
1.48029
1.486
1.26293
0.917505
0.748078
0.622053
0.51196
0.426211
0.363331
0.317963
0.285992
0.264095
0.248824
0.237968
0.230962
0.22607
0.223205
0.219242
0.242079
0.336197
0.450381
0.550395
0.597905
0.611301
0.593326
0.473607
0.33132
0.231666
0.153234
0.130117
0.142134
0.239925
0.492685
0.781544
0.99422
1.06462
1.06504
1.04846
0.971864
0.814263
0.606916
0.458457
0.4258
0.418647
0.4249
0.46457
0.553399
0.617068
0.640184
0.584652
0.506844
0.403053
0.318552
0.275879
0.26182
0.260954
0.26738
0.29534
0.40153
0.57653
0.78402
0.982257
1.11461
1.1193
0.877277
0.642969
0.546907
0.564084
0.543235
0.229429
0.232222
0.234477
0.236218
0.238927
0.242072
0.247701
0.256085
0.267511
0.284399
0.309675
0.364118
0.442405
0.522255
0.596349
0.654799
0.69213
0.699271
0.661314
0.524566
0.453082
0.483946
0.626049
0.707011
0.737187
0.7482
0.708257
0.613874
0.498553
0.391854
0.321502
0.291952
0.280435
0.274073
0.26808
0.263425
0.260014
0.259696
0.269364
0.317343
0.50914
0.75691
0.803445
1.16056
1.47128
1.42054
1.16667
0.855923
0.745927
0.659241
0.553052
0.457036
0.383959
0.331806
0.295038
0.269199
0.251229
0.238124
0.22881
0.223263
0.219102
0.216919
0.22022
0.284048
0.391113
0.486439
0.54184
0.560208
0.562056
0.496417
0.364767
0.236759
0.153958
0.129175
0.13588
0.2106
0.454708
0.756273
0.993209
1.07013
1.06025
1.03833
0.954449
0.791527
0.59746
0.456059
0.421083
0.408167
0.388802
0.377148
0.390376
0.406089
0.404665
0.361824
0.322771
0.286246
0.263439
0.254794
0.254023
0.256564
0.264063
0.282478
0.347609
0.50328
0.7234
0.970752
1.13394
1.1541
0.919779
0.704318
0.627256
0.6073
0.547332
0.227764
0.230762
0.23212
0.233194
0.235303
0.237976
0.243439
0.251852
0.26356
0.280739
0.307349
0.365766
0.463305
0.552898
0.622996
0.671947
0.70183
0.704369
0.664762
0.535494
0.457842
0.464959
0.588166
0.695221
0.742445
0.759426
0.746841
0.694646
0.602966
0.497616
0.405332
0.336811
0.295353
0.274175
0.264448
0.258306
0.254758
0.255046
0.265455
0.306744
0.41007
0.562533
0.725178
1.32076
1.51234
1.42536
1.22551
1.01466
0.896012
0.779244
0.642734
0.513105
0.415664
0.351833
0.308026
0.277205
0.2556
0.239939
0.228607
0.220972
0.216588
0.213364
0.213151
0.244327
0.339531
0.436567
0.499632
0.522076
0.531643
0.502893
0.395964
0.243029
0.155282
0.129023
0.13152
0.183821
0.406223
0.720867
0.987
1.07417
1.05806
1.03038
0.94074
0.772594
0.583406
0.452725
0.419086
0.403489
0.371533
0.328484
0.307644
0.302421
0.291931
0.27442
0.261278
0.251937
0.248551
0.249164
0.251374
0.255422
0.261236
0.272317
0.300792
0.407655
0.610769
0.891359
1.15329
1.2347
1.0221
0.808946
0.744695
0.659852
0.558046
0.226218
0.228686
0.229246
0.230523
0.232136
0.234533
0.239718
0.247727
0.259161
0.275969
0.301993
0.360372
0.464699
0.567909
0.643179
0.687697
0.710533
0.708791
0.668158
0.546894
0.46259
0.448678
0.521521
0.641379
0.71379
0.747292
0.746741
0.713788
0.659797
0.57931
0.492664
0.414854
0.350725
0.302629
0.269995
0.257044
0.252273
0.253181
0.262968
0.289399
0.352173
0.511308
0.834013
1.39624
1.50286
1.49932
1.45115
1.3099
1.07012
0.874283
0.722396
0.590647
0.473009
0.388157
0.330698
0.291497
0.263802
0.244634
0.230191
0.220625
0.214955
0.211918
0.208562
0.22572
0.304157
0.399201
0.468062
0.494749
0.506276
0.494598
0.407461
0.252113
0.15848
0.130379
0.129173
0.163182
0.360352
0.682418
0.974951
1.07329
1.04968
1.01749
0.925986
0.754714
0.569966
0.447035
0.415182
0.396314
0.349968
0.291362
0.264429
0.255952
0.24996
0.244644
0.242571
0.242858
0.244957
0.247779
0.251024
0.254823
0.259951
0.268722
0.287384
0.347201
0.512281
0.759012
1.10136
1.2933
1.22141
0.98769
0.893098
0.722719
0.573331
0.22475
0.226138
0.22654
0.227609
0.229071
0.231348
0.236171
0.243629
0.254647
0.270865
0.295682
0.346494
0.456662
0.570314
0.652498
0.698573
0.71799
0.713337
0.671356
0.559651
0.465868
0.438832
0.466815
0.544414
0.620665
0.681616
0.705982
0.696683
0.656596
0.600639
0.537655
0.470978
0.410117
0.357552
0.30697
0.273818
0.26012
0.258521
0.262525
0.280048
0.335498
0.515434
1.05377
1.3692
1.4447
1.49291
1.4815
1.35943
1.08858
0.864182
0.712052
0.597396
0.496186
0.413929
0.350982
0.306734
0.273537
0.249805
0.232924
0.220879
0.214546
0.210929
0.208781
0.21712
0.280128
0.369595
0.441287
0.470592
0.483168
0.480829
0.409104
0.259631
0.162559
0.132661
0.128858
0.152418
0.324478
0.63883
0.950031
1.05939
1.02976
0.993352
0.904716
0.737477
0.558637
0.442893
0.412423
0.387848
0.326881
0.262132
0.242342
0.235999
0.234593
0.234878
0.237055
0.240234
0.24378
0.247723
0.251195
0.255408
0.26062
0.268402
0.282191
0.316292
0.430545
0.622968
0.936861
1.26395
1.35048
1.21293
1.05687
0.803811
0.597301
0.222555
0.223288
0.223733
0.22523
0.22651
0.22879
0.23312
0.239797
0.249935
0.265664
0.289381
0.333125
0.431517
0.559173
0.654442
0.70458
0.722928
0.716766
0.675674
0.576244
0.474676
0.433624
0.435883
0.47307
0.519543
0.567588
0.607784
0.626531
0.616084
0.58278
0.54344
0.498295
0.447087
0.40072
0.355879
0.317823
0.283887
0.263917
0.259915
0.27262
0.328984
0.618488
1.12003
1.30157
1.35322
1.4132
1.41997
1.31105
1.04416
0.82287
0.681018
0.577623
0.494024
0.420127
0.362223
0.312785
0.274385
0.248497
0.231567
0.220419
0.214077
0.210838
0.208664
0.214501
0.269418
0.351423
0.421025
0.450398
0.463699
0.465725
0.406676
0.265444
0.16766
0.135846
0.130543
0.148071
0.299601
0.592374
0.915933
1.0338
0.999896
0.96156
0.877161
0.719097
0.549543
0.4408
0.410471
0.380404
0.307899
0.245839
0.23102
0.227504
0.228695
0.231149
0.234556
0.238806
0.243316
0.247589
0.251694
0.256193
0.261975
0.269814
0.281868
0.305294
0.373177
0.528419
0.750582
1.1279
1.37321
1.36955
1.22042
0.925767
0.638706
0.220819
0.220918
0.222027
0.223075
0.224692
0.226628
0.23021
0.23589
0.244796
0.259106
0.282135
0.321343
0.403566
0.531184
0.643979
0.703661
0.724222
0.718136
0.68159
0.598131
0.498087
0.434701
0.422686
0.437211
0.462812
0.494925
0.527065
0.548862
0.558653
0.550553
0.527977
0.499714
0.46443
0.430786
0.396046
0.354036
0.296483
0.261335
0.254467
0.267986
0.345936
0.760564
1.12144
1.23115
1.26896
1.3237
1.33885
1.20922
0.911058
0.717258
0.615397
0.547181
0.485361
0.428163
0.365746
0.31004
0.269706
0.24393
0.228376
0.218872
0.213821
0.211054
0.209513
0.214685
0.266759
0.345714
0.411975
0.439626
0.451626
0.452759
0.39954
0.267798
0.1738
0.139868
0.133623
0.148487
0.278871
0.550121
0.877031
0.998831
0.960839
0.921841
0.842434
0.693367
0.531713
0.438897
0.412433
0.375117
0.297348
0.237578
0.225002
0.223126
0.225427
0.228835
0.2331
0.238616
0.244181
0.249397
0.254625
0.259983
0.265812
0.273629
0.285169
0.30429
0.345967
0.472563
0.63432
0.914605
1.29548
1.4158
1.35368
1.06967
0.701545
0.220382
0.220499
0.221251
0.221728
0.222148
0.22402
0.226981
0.231605
0.239013
0.251173
0.271935
0.308458
0.382423
0.499466
0.622019
0.694891
0.720552
0.71746
0.688624
0.61802
0.529817
0.458033
0.420502
0.421359
0.436424
0.458683
0.482104
0.501333
0.515916
0.522732
0.509806
0.493326
0.475271
0.449589
0.418722
0.365479
0.290858
0.255525
0.249933
0.271446
0.462693
0.889945
1.09771
1.1653
1.19907
1.24721
1.24598
1.09678
0.830155
0.665446
0.57501
0.525109
0.487923
0.430573
0.362021
0.303793
0.262633
0.238073
0.225025
0.218049
0.2145
0.212377
0.211638
0.217814
0.270856
0.349696
0.411298
0.437111
0.445518
0.441333
0.385413
0.262925
0.17775
0.143495
0.136726
0.148824
0.25927
0.50882
0.822165
0.949785
0.913005
0.875884
0.808395
0.671834
0.518462
0.437886
0.414876
0.373162
0.291844
0.232929
0.221015
0.219826
0.223053
0.227485
0.233949
0.241767
0.25087
0.259697
0.267198
0.272328
0.276745
0.283413
0.293921
0.311341
0.345559
0.435422
0.604288
0.765758
1.12203
1.40168
1.41913
1.22618
0.817993
0.221113
0.220963
0.220986
0.220866
0.220807
0.221828
0.224044
0.22747
0.233324
0.24291
0.259981
0.292477
0.36035
0.472241
0.596156
0.680225
0.710382
0.710178
0.688047
0.631488
0.55582
0.489098
0.44306
0.425375
0.42789
0.440333
0.456185
0.472314
0.487939
0.501489
0.50098
0.493815
0.481216
0.456142
0.419788
0.355229
0.279697
0.251852
0.250513
0.309612
0.627057
0.945083
1.05513
1.12611
1.16112
1.20593
1.20349
1.06095
0.805982
0.64367
0.555471
0.517368
0.483821
0.426108
0.352482
0.289871
0.250409
0.231123
0.22267
0.218917
0.217036
0.215722
0.216399
0.226216
0.289304
0.375992
0.435557
0.456706
0.460675
0.443388
0.369754
0.248983
0.178384
0.146894
0.139596
0.149134
0.244299
0.462221
0.757916
0.890951
0.85708
0.82236
0.76706
0.646719
0.507456
0.436415
0.416243
0.376085
0.290276
0.229644
0.217856
0.217525
0.221417
0.228008
0.239795
0.255925
0.275755
0.294201
0.305204
0.307212
0.301816
0.302034
0.309188
0.324868
0.3546
0.425805
0.583285
0.732361
0.934098
1.29904
1.43013
1.35968
1.01086
0.223949
0.223093
0.222297
0.222018
0.221452
0.22096
0.222024
0.224407
0.228609
0.235531
0.248576
0.273988
0.333629
0.44415
0.57294
0.663674
0.697746
0.697639
0.677951
0.632984
0.568558
0.50813
0.465389
0.444982
0.438881
0.439931
0.445029
0.455644
0.47275
0.496952
0.503445
0.495166
0.482499
0.452389
0.405424
0.338475
0.26703
0.251675
0.268099
0.42856
0.733821
0.940581
1.03597
1.10137
1.1379
1.18356
1.18433
1.04427
0.778212
0.609691
0.535944
0.50427
0.472812
0.414035
0.330605
0.269158
0.239087
0.227604
0.224077
0.223233
0.222448
0.222994
0.226759
0.24873
0.32508
0.409936
0.462913
0.477055
0.476393
0.443478
0.35067
0.234398
0.17781
0.14939
0.140945
0.148315
0.222611
0.413132
0.700655
0.840083
0.810209
0.777639
0.734393
0.627812
0.497164
0.434065
0.416841
0.380616
0.298775
0.230045
0.216271
0.216231
0.221407
0.23276
0.259992
0.303182
0.344419
0.376195
0.392504
0.387256
0.360784
0.342199
0.336253
0.344826
0.368775
0.419806
0.547847
0.71877
0.85283
1.11327
1.37361
1.40459
1.2323
0.230814
0.228836
0.227956
0.2275
0.226521
0.224505
0.223466
0.223448
0.225285
0.229684
0.238529
0.25767
0.300695
0.407035
0.545544
0.64653
0.686797
0.683262
0.660824
0.621669
0.564756
0.509829
0.471053
0.451067
0.442599
0.438902
0.439043
0.444801
0.464831
0.49784
0.503756
0.493613
0.477718
0.440677
0.388685
0.314937
0.258451
0.254667
0.310518
0.53463
0.777658
0.926425
1.04111
1.08224
1.12661
1.1752
1.16795
1.00083
0.710026
0.56295
0.507639
0.483435
0.450771
0.386453
0.301479
0.25334
0.234364
0.229487
0.229562
0.230506
0.232199
0.23698
0.24778
0.295767
0.380757
0.460259
0.498905
0.504428
0.494565
0.441223
0.327882
0.220924
0.178417
0.152419
0.141425
0.145446
0.195942
0.368995
0.667145
0.802964
0.771523
0.739142
0.70732
0.619164
0.493186
0.431772
0.415888
0.381705
0.307517
0.232769
0.215279
0.21504
0.222675
0.248323
0.317772
0.387896
0.44038
0.473599
0.491853
0.495658
0.474527
0.428963
0.390543
0.377944
0.388615
0.423207
0.501135
0.667521
0.811376
0.988617
1.2073
1.36045
1.34242
0.245375
0.242596
0.242742
0.240988
0.23698
0.231215
0.227293
0.224833
0.224146
0.225854
0.231615
0.245172
0.275887
0.358102
0.512285
0.630436
0.675552
0.668476
0.641209
0.601839
0.547736
0.4974
0.462361
0.443782
0.435387
0.430937
0.430806
0.435066
0.45546
0.49339
0.500919
0.489739
0.469925
0.428512
0.368637
0.281711
0.25274
0.259742
0.354594
0.583433
0.776253
0.922075
1.04159
1.08177
1.13287
1.17735
1.12179
0.858646
0.590886
0.497803
0.474437
0.459086
0.425119
0.352763
0.281656
0.247155
0.235646
0.235427
0.237866
0.242683
0.247472
0.25723
0.284652
0.346446
0.430741
0.502076
0.528041
0.528066
0.506058
0.431864
0.302594
0.211742
0.180747
0.155966
0.140324
0.141628
0.174154
0.334972
0.638097
0.780089
0.750212
0.716534
0.688129
0.613484
0.499653
0.432828
0.416048
0.382298
0.312852
0.234606
0.214829
0.214618
0.226571
0.275645
0.366357
0.434115
0.478016
0.504967
0.527285
0.545439
0.555459
0.546269
0.500227
0.44315
0.424265
0.437818
0.486151
0.605746
0.758495
0.910904
1.08166
1.19614
1.31805
0.269394
0.269277
0.275
0.270608
0.260186
0.246306
0.234789
0.228222
0.224751
0.224529
0.22812
0.238391
0.263924
0.321289
0.47021
0.614165
0.665283
0.656229
0.621106
0.578302
0.524984
0.478466
0.447031
0.430729
0.424375
0.422555
0.426146
0.434183
0.452629
0.491248
0.500978
0.489427
0.466767
0.418738
0.340499
0.262788
0.24727
0.264964
0.382465
0.594118
0.763879
0.928615
1.0512
1.09454
1.14957
1.16643
1.00245
0.647825
0.497531
0.467188
0.46102
0.446701
0.407916
0.333473
0.274941
0.2479
0.242857
0.244205
0.25009
0.254858
0.259721
0.271448
0.30882
0.380002
0.466835
0.531087
0.548012
0.543382
0.50883