/*--------------------------------*- C++ -*----------------------------------*\
  =========                 |
  \\      /  F ield         | OpenFOAM: The Open Source CFD Toolbox
   \\    /   O peration     | Website:  https://openfoam.org
    \\  /    A nd           | Version:  11
     \\/     M anipulation  |
\*---------------------------------------------------------------------------*/
FoamFile
{
    format      ascii;
    class       surfaceScalarField;
    location    "7";
    object      phi;
}
// * * * * * * * * * * * * * * * * * * * * * * * * * * * * * * * * * * * * * //

dimensions      [0 3 -1 0 0 0 0];

internalField   nonuniform List<scalar> 
18960
(
0.0889085
0.000421857
-0.0893303
0.0885197
0.000388779
0.0881643
0.000355433
0.0878382
0.000326119
0.0875863
0.000251889
0.0873605
0.000225793
0.0871548
0.000205632
0.0869905
0.000164348
0.0868657
0.000124739
0.0867977
6.80136e-05
0.0867689
2.8835e-05
0.0867741
-5.2111e-06
0.0868036
-2.9517e-05
0.0868831
-7.94668e-05
0.0870115
-0.00012845
0.0871477
-0.000136185
0.087297
-0.000149273
0.0875371
-0.000240117
0.087786
-0.000248867
0.0879174
-0.000131394
0.0878197
9.76975e-05
0.0872927
0.000526999
0.0861303
0.00116234
0.0848332
0.00129718
0.0840303
0.000802893
0.0838159
0.000214348
0.0840687
-0.00025276
0.0850189
-0.000950243
0.0863798
-0.00136088
0.0878521
-0.00147234
0.0892475
-0.00139537
0.090708
-0.00146052
0.0920571
-0.00134903
0.0932205
-0.00116346
0.0939258
-0.000705308
0.094323
-0.000397145
0.0943415
-1.8561e-05
0.0943189
2.26799e-05
0.0938022
0.000516626
-0.000369244
0.0941715
0.0890319
0.000744171
-0.0893542
0.0887296
0.000691055
0.088445
0.000640017
0.0881788
0.000592335
0.0879228
0.000507871
0.0877193
0.000429311
0.0875572
0.000367721
0.087428
0.00029356
0.0873663
0.000186508
0.0873429
9.1361e-05
0.0873303
4.1421e-05
0.0873596
-3.4493e-05
0.0875051
-0.000175045
0.0876813
-0.00025562
0.0878554
-0.000302585
0.0880495
-0.000330256
0.0882299
-0.000329661
0.0884073
-0.000417494
0.088559
-0.000400595
0.0887641
-0.000336525
0.0890025
-0.000140724
0.0891893
0.000340234
0.0893362
0.00101546
0.089408
0.00122533
0.0892857
0.000925207
0.0890833
0.000416777
0.0890487
-0.000218153
0.0892474
-0.00114896
0.0897506
-0.00186408
0.0906313
-0.00235305
0.0917115
-0.00247558
0.092889
-0.00263803
0.0940514
-0.00251137
0.0952245
-0.00233664
0.0962671
-0.00174788
0.0971439
-0.00127391
0.0977287
-0.000603345
0.0981919
-0.000440588
0.098641
6.75505e-05
0.000170778
0.098101
0.0890415
0.00106854
-0.0893659
0.0887372
0.000995324
0.0884515
0.000925738
0.0881984
0.000845496
0.0879702
0.000736052
0.0877896
0.000609894
0.0876311
0.000526208
0.0875085
0.000416196
0.087456
0.000238934
0.0874599
8.75209e-05
0.0874622
3.90856e-05
0.0875364
-0.000108629
0.0876458
-0.000284503
0.0878376
-0.000447391
0.0880354
-0.000500446
0.0881586
-0.0004534
0.0882421
-0.000413178
0.0883611
-0.000536537
0.0886276
-0.000667074
0.0890277
-0.000736583
0.0893514
-0.000464419
0.0895331
0.00015856
0.089584
0.000964519
0.0894619
0.00134742
0.0891215
0.00126563
0.0887291
0.000809175
0.0885187
-7.81629e-06
0.0886795
-0.00130975
0.0890328
-0.00221734
0.0897738
-0.00309405
0.0906321
-0.0033339
0.0916268
-0.00363272
0.0925926
-0.00347719
0.0936352
-0.00337918
0.0946162
-0.00272887
0.0955407
-0.00219847
0.0961172
-0.00117981
0.096451
-0.000774399
0.0966496
-0.000131058
-0.000271341
0.0970917
0.0890428
0.00139075
-0.089365
0.0887534
0.00128472
0.0884637
0.00121548
0.0882277
0.00108143
0.0880148
0.000949014
0.0878443
0.000780319
0.0876942
0.000676382
0.0876049
0.000505455
0.0875249
0.000318983
0.0875063
0.000106081
0.0875309
1.44765e-05
0.0876019
-0.000179606
0.0876669
-0.000349518
0.0878107
-0.000591173
0.0880127
-0.000702419
0.0882012
-0.000641897
0.0883122
-0.000524218
0.0884248
-0.00064913
0.0886519
-0.000894157
0.0889187
-0.0010034
0.0892034
-0.000749175
0.0894301
-6.81266e-05
0.0896357
0.000758902
0.0897738
0.00120936
0.0898831
0.00115636
0.0900125
0.000679786
0.0901477
-0.000143042
0.090402
-0.00156407
0.090734
-0.00254928
0.0912964
-0.00365647
0.0920051
-0.00404263
0.0929297
-0.0045573
0.0938907
-0.00443816
0.0949979
-0.0044864
0.0960859
-0.0038169
0.0972492
-0.00336173
0.0981912
-0.00212183
0.0989707
-0.00155387
0.099256
-0.000416371
-0.000141941
0.0991266
0.0890524
0.00169293
-0.0893546
0.0887637
0.00157338
0.0884981
0.00148117
0.08826
0.00131952
0.0880558
0.00115319
0.0879014
0.000934666
0.0877353
0.000842506
0.087659
0.000581807
0.0875942
0.000383732
0.0875795
0.00012084
0.0876167
-2.27503e-05
0.0876774
-0.00024031
0.0877848
-0.000456937
0.0879091
-0.000715449
0.0880307
-0.000824015
0.0882042
-0.000815377
0.0884512
-0.000771243
0.0886695
-0.000867455
0.088759
-0.000983647
0.088807
-0.00105143
0.0889231
-0.00086527
0.089321
-0.000466041
0.0897976
0.000282332
0.0902165
0.000790412
0.0904643
0.000908577
0.0905473
0.000596771
0.0904171
-1.27828e-05
0.0902437
-0.00139064
0.0902223
-0.00252788
0.0903902
-0.00382439
0.090875
-0.0045274
0.0915478
-0.00523013
0.0923551
-0.00524544
0.093244
-0.00537533
0.0941622
-0.00473514
0.0950823
-0.00428176
0.0960027
-0.00304227
0.0967064
-0.0022576
0.0973516
-0.00106153
-0.000738206
0.0979479
0.0890652
0.00198894
-0.0893612
0.0887866
0.00185196
0.0885266
0.00174119
0.088303
0.00154312
0.0881
0.00135619
0.0879372
0.00109745
0.0878015
0.000978195
0.0877267
0.000656592
0.0876612
0.000449286
0.0876763
0.000105698
0.0877029
-4.93725e-05
0.0877777
-0.000315137
0.0878353
-0.000514483
0.087954
-0.000834204
0.0881238
-0.000993799
0.0883296
-0.00102116
0.0884946
-0.000936182
0.0885936
-0.000966504
0.0886948
-0.00108486
0.0888596
-0.00121621
0.0890855
-0.00109122
0.0893666
-0.000747119
0.0896722
-2.3267e-05
0.089971
0.000491644
0.0902059
0.000673625
0.0904663
0.000336372
0.0906655
-0.000211989
0.0908363
-0.00156139
0.0910327
-0.00272424
0.0913654
-0.00415709
0.0918427
-0.00500476
0.0925553
-0.0059427
0.0933993
-0.00608949
0.0944441
-0.00642005
0.0955887
-0.00587979
0.0968761
-0.0055691
0.0981352
-0.0043014
0.0992644
-0.00338685
0.0999744
-0.00177145
-0.00086488
0.100101
0.0890752
0.00228622
-0.0893725
0.088816
0.00211115
0.0885733
0.00198384
0.0883641
0.00175234
0.0881549
0.00156536
0.0880087
0.00124371
0.087885
0.00110189
0.0877889
0.000752634
0.0877241
0.000514093
0.0877482
8.15977e-05
0.0878097
-0.000110896
0.0878561
-0.000361446
0.0878901
-0.000548525
0.0880176
-0.000961708
0.0882296
-0.00120575
0.0884207
-0.00121235
0.0885563
-0.00107172
0.0886677
-0.00107792
0.088787
-0.00120412
0.088924
-0.0013533
0.0890847
-0.00125189
0.0893021
-0.000964495
0.0895915
-0.000312688
0.0898886
0.000194583
0.0902308
0.000331433
0.0905412
2.5927e-05
0.0907603
-0.000431084
0.0907609
-0.001562
0.0907563
-0.00271967
0.0908216
-0.00422235
0.0910362
-0.00521936
0.0914685
-0.00637497
0.0921445
-0.00676555
0.09296
-0.00723555
0.0938913
-0.00681107
0.0948288
-0.00650655
0.0958571
-0.00532973
0.0968715
-0.00440123
0.0979379
-0.00283789
-0.00176089
0.0988339
0.089097
0.00256749
-0.0893783
0.0888379
0.00237032
0.0886003
0.00222141
0.0883794
0.0019732
0.0881901
0.00175466
0.0880564
0.00137743
0.0879377
0.0012206
0.0878573
0.000833094
0.087826
0.000545371
0.0878412
6.63548e-05
0.0878702
-0.000139877
0.087937
-0.000428282
0.0880346
-0.000646091
0.0881416
-0.0010687
0.0882654
-0.00132957
0.0884283
-0.00137527
0.0886244
-0.00126782
0.0887874
-0.00124086
0.0888956
-0.00131232
0.088959
-0.00141675
0.0890693
-0.00136214
0.0892737
-0.0011689
0.0896257
-0.000664649
0.089942
-0.000121767
0.0901801
9.33836e-05
0.0903481
-0.000142122
0.0904746
-0.000557601
0.0905441
-0.00163148
0.0906851
-0.00286069
0.0909228
-0.00445998
0.0913108
-0.00560739
0.0918637
-0.00692785
0.0926
-0.00750184
0.0935609
-0.00819649
0.0947265
-0.00797664
0.0960676
-0.00784773
0.097509
-0.00677109
0.0989516
-0.00584379
0.100203
-0.00408955
-0.00243499
0.100877
0.0891324
0.00284838
-0.0894133
0.0888787
0.00262402
0.0886578
0.00244232
0.0884558
0.00217521
0.0882964
0.001914
0.0881434
0.00153042
0.0880577
0.0013063
0.0879879
0.000902913
0.0879336
0.000599705
0.0879383
6.16057e-05
0.0880053
-0.00020686
0.0880723
-0.000495254
0.0881381
-0.000711863
0.0882229
-0.00115357
0.088344
-0.00145059
0.0885324
-0.00156372
0.088734
-0.00146939
0.0888699
-0.00137679
0.0889707
-0.00141308
0.0890653
-0.00151135
0.0891548
-0.00145166
0.0893097
-0.0013238
0.0895719
-0.000926847
0.0898319
-0.000381823
0.0900848
-0.000159516
0.0903027
-0.000360035
0.0904732
-0.000728081
0.0904523
-0.00161059
0.090439
-0.0028474
0.0904921
-0.00451302
0.0906546
-0.0057699
0.0910094
-0.00728262
0.0915747
-0.00806715
0.0923349
-0.00895674
0.0933456
-0.00898728
0.0944405
-0.00894272
0.0956417
-0.00797229
0.0968522
-0.00705421
0.0981833
-0.00542069
-0.00379611
0.0995444
0.0891267
0.00311664
-0.089395
0.0888981
0.00285268
0.0886757
0.00266465
0.0884682
0.00238268
0.0883012
0.00208102
0.088186
0.00164566
0.0880973
0.001395
0.0880397
0.000960506
0.0879926
0.000646828
0.0880177
3.64392e-05
0.0880688
-0.000257897
0.0881393
-0.000565781
0.0882288
-0.000801343
0.0883119
-0.00123667
0.0884165
-0.0015552
0.0885853
-0.00173249
0.0887644
-0.00164858
0.0889615
-0.00157384
0.0890909
-0.00154247
0.0891731
-0.00159357
0.0892415
-0.00152006
0.0893044
-0.0013867
0.0895
-0.0011224
0.0897686
-0.000650477
0.0900184
-0.00040933
0.0902235
-0.000565105
0.0903751
-0.000879635
0.0903302
-0.00156569
0.090185
-0.00270228
0.0901431
-0.00447104
0.0902595
-0.00588632
0.0906522
-0.00767536
0.0912604
-0.00867535
0.0921632
-0.00985954
0.0933097
-0.0101338
0.094739
-0.010372
0.0963421
-0.00957544
0.0980402
-0.00875231
0.0997092
-0.00708971
-0.00499953
0.100913
0.0891923
0.0033885
-0.0894641
0.0889486
0.00309634
0.0887452
0.00286808
0.0885776
0.00255025
0.0884085
0.0022501
0.0882955
0.00175868
0.0882193
0.00147124
0.0881629
0.0010169
0.088152
0.000657678
0.0881202
6.82872e-05
0.0881688
-0.000306509
0.0882688
-0.000665801
0.0883661
-0.000898641
0.088455
-0.00132557
0.0885176
-0.0016178
0.0886596
-0.00187448
0.0888438
-0.00183282
0.0890596
-0.00178955
0.0892012
-0.00168408
0.0892882
-0.00168064
0.0893155
-0.00154728
0.0893685
-0.00143978
0.0895246
-0.00127845
0.089764
-0.000889935
0.0899863
-0.00063156
0.0901589
-0.000737745
0.0903012
-0.00102197
0.0903348
-0.00159924
0.0901825
-0.00254999
0.0899317
-0.00422021
0.0897909
-0.00574552
0.0898214
-0.00770594
0.0901421
-0.00899596
0.0907783
-0.0104958
0.0917469
-0.0111023
0.0930751
-0.0117002
0.0946429
-0.0111433
0.096241
-0.0103504
0.0980776
-0.00892631
-0.00662203
0.0997001
0.0891692
0.00366168
-0.0894424
0.0889635
0.003302
0.0887504
0.00308126
0.0885816
0.00271899
0.0884361
0.00239564
0.0883377
0.00185705
0.0882608
0.00154818
0.0882282
0.00104951
0.0882026
0.000683205
0.0881995
7.14415e-05
0.0882285
-0.000335532
0.0883336
-0.000770939
0.0884356
-0.00100058
0.0885265
-0.00141644
0.0885913
-0.00168266
0.088739
-0.0020222
0.0889152
-0.00200901
0.0891332
-0.00200755
0.0892878
-0.00183862
0.0893765
-0.0017694
0.0894462
-0.001617
0.0894653
-0.00145888
0.0895446
-0.00135769
0.0897059
-0.00105121
0.0899037
-0.000829427
0.0900841
-0.000918176
0.0902216
-0.00115945
0.0902549
-0.00163249
0.0901185
-0.00241358
0.0897774
-0.00387913
0.0894287
-0.00539679
0.0892941
-0.00757134
0.0894135
-0.00911538
0.0899234
-0.0110057
0.0907938
-0.0119728
0.0921604
-0.0130667
0.0940243
-0.0130072
0.0960477
-0.0123738
0.0984687
-0.0113473
-0.00847832
0.100325
0.0892593
0.00390773
-0.0895053
0.0890344
0.00352689
0.0888516
0.00326399
0.0886985
0.0028721
0.0885657
0.00252847
0.088453
0.00196976
0.0883936
0.00160753
0.0883572
0.00108599
0.088336
0.00070431
0.0883464
6.11368e-05
0.0883585
-0.000347674
0.0884592
-0.000871659
0.0885597
-0.00110106
0.0886697
-0.00152644
0.0887529
-0.00176589
0.0888764
-0.00214572
0.0890263
-0.0021589
0.0892233
-0.00220455
0.0893701
-0.00198535
0.0895192
-0.00191852
0.0895999
-0.00169773
0.0896451
-0.00150408
0.0896852
-0.00139782
0.0897893
-0.0011553
0.0899282
-0.000968285
0.0900349
-0.00102489
0.0901262
-0.00125076
0.0901634
-0.00166964
0.0900921
-0.00234234
0.0897947
-0.00358175
0.0893573
-0.00495937
0.0889187
-0.00713272
0.0886831
-0.0088798
0.088723
-0.0110456
0.0892475
-0.0124973
0.0901001
-0.0139193
0.091781
-0.0146881
0.0935722
-0.014165
0.0963217
-0.0140969
-0.0107386
0.098582
0.0892376
0.00414535
-0.0894752
0.0890448
0.00371975
0.0888693
0.00343943
0.0887164
0.00302499
0.0886017
0.00264325
0.0885138
0.00205761
0.0884438
0.00167758
0.0884222
0.00110754
0.0884181
0.000708464
0.0884314
4.77672e-05
0.0884582
-0.000374485
0.0885462
-0.000959593
0.0886408
-0.00119572
0.0887708
-0.00165635
0.0888719
-0.00186704
0.088976
-0.0022498
0.0891153
-0.00229824
0.0892871
-0.00237631
0.0894786
-0.00217692
0.089611
-0.00205084
0.0897112
-0.00179793
0.0897586
-0.0015515
0.0898098
-0.00144904
0.0898714
-0.00121692
0.0899559
-0.00105273
0.0900028
-0.00107183
0.0900257
-0.0012736
0.0900236
-0.00166756
0.089949
-0.00226772
0.0896673
-0.00330003
0.0892786
-0.00457075
0.0886925
-0.00654658
0.0882421
-0.00842941
0.0879645
-0.010768
0.0881943
-0.0127271
0.0886851
-0.0144101
0.0901421
-0.016145
0.0919128
-0.0159357
0.0947937
-0.0169778
-0.0137019
0.097757
0.089323
0.00439383
-0.0895715
0.0891325
0.0039103
0.0889777
0.00359423
0.0888584
0.00314426
0.0887352
0.0027664
0.0886599
0.00213298
0.0885869
0.00175053
0.088579
0.00111544
0.08856
0.000727512
0.088589
1.87828e-05
0.0886099
-0.000395414
0.0886964
-0.00104611
0.0888138
-0.00131312
0.0889399
-0.00178242
0.089034
-0.00196114
0.0891297
-0.00234551
0.0892695
-0.00243808
0.0894353
-0.00254213
0.0896121
-0.00235371
0.0897571
-0.00219577
0.0898801
-0.00192097
0.0899957
-0.00166712
0.0900392
-0.0014925
0.0900931
-0.00127087
0.0901105
-0.00107012
0.0900782
-0.00103956
0.0900211
-0.00121645
0.0898914
-0.00153789
0.0898069
-0.00218318
0.0895632
-0.00305634
0.0892198
-0.0042274
0.0886307
-0.00595747
0.0881022
-0.00790093
0.0874233
-0.010089
0.0872655
-0.0125693
0.0872073
-0.014352
0.088036
-0.0169737
0.0893247
-0.0172244
0.0916154
-0.0192685
-0.016694
0.0946075
0.0893052
0.00460077
-0.0895122
0.0891338
0.00408177
0.0889904
0.00373754
0.0888791
0.00325563
0.0887748
0.00287065
0.0886972
0.00221056
0.0886361
0.00181167
0.0886413
0.00111019
0.0886336
0.000735237
0.0886665
-1.41281e-05
0.0887008
-0.000429723
0.0887913
-0.00113654
0.0889018
-0.00142366
0.0890246
-0.0019052
0.089163
-0.00209954
0.0892658
-0.00244835
0.089406
-0.00257828
0.0895235
-0.00265963
0.0897155
-0.00254568
0.0898567
-0.00233701
0.0900118
-0.00207601
0.0901029
-0.00175824
0.0901504
-0.00154
0.0902097
-0.0013302
0.0902493
-0.00110968
0.0901985
-0.000988766
0.0900879
-0.00110588
0.089904
-0.0013539
0.0896897
-0.00196892
0.0893758
-0.00274247
0.0890014
-0.00385299
0.0883816
-0.00533764
0.0878375
-0.00735681
0.0870236
-0.00927519
0.0865441
-0.0120898
0.0861435
-0.0139514
0.0863754
-0.0172056
0.0871959
-0.0180448
0.0890534
-0.0211261
-0.0195951
0.0919545
0.0894342
0.00481935
-0.0896528
0.0892601
0.00425586
0.0891163
0.00388138
0.0890153
0.00335662
0.0889372
0.00294872
0.0888731
0.00227472
0.0888344
0.00185037
0.08884
0.00110455
0.0888517
0.000723514
0.0888911
-5.35153e-05
0.0889301
-0.000468711
0.0889966
-0.00120306
0.089093
-0.00152001
0.0891951
-0.0020073
0.0893707
-0.00227518
0.0894867
-0.00256436
0.0896338
-0.00272538
0.0897328
-0.00275866
0.089877
-0.00268986
0.0900481
-0.00250804
0.0902057
-0.00223367
0.090345
-0.00189756
0.0904142
-0.0016092
0.090452
-0.00136793
0.0904899
-0.00114759
0.0904341
-0.000932957
0.090326
-0.000997772
0.0900664
-0.0010943
0.0897744
-0.00167691
0.0893204
-0.00228854
0.0889018
-0.00343435
0.0882154
-0.00465122
0.0875629
-0.00670431
0.0867048
-0.0084171
0.0859382
-0.0113232
0.0852465
-0.0132597
0.0848969
-0.0168559
0.0850359
-0.0181838
0.0860332
-0.0221234
-0.0217995
0.0882376
0.0894057
0.00499537
-0.0895817
0.0892534
0.00440812
0.0891254
0.00400946
0.0890281
0.0034539
0.0889618
0.00301497
0.0889284
0.00230813
0.0888912
0.00188754
0.0888941
0.00110169
0.0889108
0.000706815
0.0889704
-0.000113067
0.0890419
-0.000540222
0.0890868
-0.00124797
0.089191
-0.00162423
0.0892927
-0.00210897
0.0894765
-0.002459
0.0895996
-0.00268742
0.0897599
-0.00288567
0.0899014
-0.00290023
0.0900451
-0.00283352
0.0901787
-0.00264167
0.0903437
-0.00239862
0.0904887
-0.00204264
0.0905827
-0.00170317
0.0906064
-0.00139162
0.0906472
-0.0011884
0.0905887
-0.000874441
0.0904968
-0.000905857
0.0902598
-0.000857281
0.0899508
-0.00136797
0.0894643
-0.00180204
0.0889403
-0.00291031
0.0881317
-0.00384269
0.0872924
-0.00586492
0.0863018
-0.00742651
0.085267
-0.0102884
0.0842365
-0.0122292
0.0834122
-0.0160317
0.0829734
-0.017745
0.0830362
-0.0221862
-0.0235706
0.0848074
0.0895971
0.00517499
-0.0897767
0.0894435
0.0045617
0.0893215
0.00413147
0.0892388
0.00353654
0.0891597
0.00309408
0.0891293
0.00233853
0.0891143
0.00190253
0.0891187
0.00109729
0.0891561
0.0006695
0.0892148
-0.000171861
0.0892991
-0.000624499
0.0893521
-0.00130092
0.0895029
-0.0017751
0.0895729
-0.00217893
0.0897095
-0.00259564
0.0898431
-0.00282095
0.0899938
-0.00303638
0.0901621
-0.00306854
0.0903311
-0.00300256
0.0904774
-0.00278791
0.0906106
-0.00253187
0.0907343
-0.00216631
0.0908768
-0.00184564
0.0909278
-0.00144268
0.0909729
-0.00123342
0.0909375
-0.000839048
0.0908476
-0.000815985
0.0905987
-0.000608373
0.0902753
-0.00104456
0.0897474
-0.00127416
0.0891799
-0.00234284
0.0883691
-0.00303185
0.0874009
-0.00489671
0.0862177
-0.0062433
0.0849213
-0.00899211
0.0836142
-0.0109221
0.0822025
-0.0146199
0.0812143
-0.0167569
0.0802407
-0.0212126
-0.0240731
0.0807432
0.089556
0.00534668
-0.0897277
0.0894346
0.00468307
0.0893241
0.00424198
0.089255
0.00360563
0.0892091
0.00314005
0.0891657
0.00238194
0.0891712
0.00189703
0.0891928
0.00107565
0.0892585
0.000603785
0.0892859
-0.000199261
0.0893982
-0.00073675
0.0894662
-0.00136894
0.0896159
-0.00192482
0.0897291
-0.00229215
0.0898754
-0.00274188
0.0900072
-0.00295274
0.090151
-0.00318022
0.0902932
-0.00321069
0.0904898
-0.00319924
0.0906519
-0.00294993
0.0908462
-0.00272619
0.0909608
-0.00228092
0.0911119
-0.00199676
0.0911689
-0.0014997
0.0912201
-0.00128461
0.091191
-0.000809917
0.0911235
-0.000748524
0.090914
-0.000398858
0.0906189
-0.000749423
0.0900816
-0.000736888
0.0894866
-0.00174787
0.0886782
-0.00222345
0.0876938
-0.00391229
0.0864607
-0.00501016
0.0849293
-0.00746071
0.0833702
-0.00936303
0.0814001
-0.0126498
0.0798136
-0.0151704
0.0778963
-0.0192954
-0.0230654
0.0768886
0.089832
0.00550164
-0.0899869
0.0896934
0.00482166
0.0895927
0.00434265
0.089514
0.00368433
0.0894669
0.00318712
0.0894504
0.00239843
0.0894516
0.00189585
0.0894753
0.00105192
0.0895431
0.000535986
0.0895852
-0.000241307
0.0897049
-0.000856435
0.0897815
-0.00144555
0.0899141
-0.00205742
0.0900591
-0.00243715
0.0901967
-0.0028795
0.0903634
-0.00311944
0.0905133
-0.00333009
0.0906569
-0.00335435
0.0908146
-0.00335689
0.0909806
-0.00311594
0.0911657
-0.00291126
0.0913397
-0.00245497
0.0915078
-0.00216484
0.0915995
-0.00159143
0.09166
-0.00134516
0.0916416
-0.000791486
0.0915992
-0.000706073
0.0914511
-0.000250743
0.0911915
-0.000489853
0.0907463
-0.000291656
0.0901206
-0.00112223
0.0892843
-0.00138711
0.0881984
-0.00282641
0.0870324
-0.0038442
0.0853443
-0.0057726
0.08372
-0.00773866
0.0814913
-0.0104211
0.0793971
-0.0130762
0.0769325
-0.0168308
-0.0207677
0.0746348
0.0898126
0.00562634
-0.0899373
0.0897141
0.00492014
0.0896293
0.00442747
0.0895661
0.00374753
0.0895277
0.00322548
0.0895143
0.00241184
0.0895364
0.00187374
0.0895554
0.00103298
0.0896394
0.000452003
0.0896889
-0.000290881
0.0898304
-0.000997843
0.0899173
-0.00153252
0.090061
-0.00220111
0.0902112
-0.00258734
0.0903672
-0.0030355
0.0905295
-0.00328177
0.090715
-0.0035156
0.0908699
-0.00350922
0.0910715
-0.00355851
0.0912202
-0.00326467
0.0914357
-0.00312673
0.0915774
-0.00259667
0.0917791
-0.00236656
0.0919188
-0.00173114
0.092045
-0.00147133
0.092064
-0.000810482
0.0920565
-0.000698604
0.091916
-0.000110173
0.0917412
-0.000315127
0.0913484
0.00010118
0.090776
-0.000549839
0.0900945
-0.000705606
0.0889294
-0.00166131
0.0877958
-0.00271055
0.086096
-0.00407285
0.0843671
-0.0060098
0.0820691
-0.008123
0.0796811
-0.0106882
0.0766701
-0.0138198
-0.0178997
0.0738021
0.0901479
0.00576613
-0.0902877
0.0900569
0.00501111
0.0899798
0.0045046
0.0899408
0.00378656
0.0899032
0.00326303
0.0898896
0.0024255
0.0899246
0.00183874
0.0899288
0.00102878
0.0900426
0.000338151
0.0900705
-0.000318825
0.0902013
-0.00112857
0.0903207
-0.00165193
0.0904446
-0.00232504
0.0906087
-0.00275144
0.090771
-0.00319772
0.090928
-0.00343882
0.0911196
-0.0037072
0.0912915
-0.00368107
0.0914909
-0.00375795
0.0916745
-0.00344825
0.0919003
-0.00335256
0.0920976
-0.00279398
0.0922785
-0.00254743
0.092435
-0.00188767
0.0925929
-0.00162916
0.0926696
-0.000887233
0.092742
-0.000771019
0.092661
-2.91199e-05
0.0925224
-0.000176559
0.0922876
0.000335975
0.0917093
2.84872e-05
0.0911897
-0.000185981
0.0901475
-0.000619123
0.0890599
-0.00162297
0.0874459
-0.0024589
0.0856286
-0.00419248
0.0832677
-0.00576209
0.0807315
-0.00815197
0.0774782
-0.0105666
-0.0146198
0.0741983
0.0900947
0.00585451
-0.090183
0.0900321
0.00507366
0.0899892
0.00454756
0.0899751
0.00380062
0.0899809
0.00325718
0.0899782
0.00242822
0.0900578
0.00175919
0.0900592
0.00102732
0.0901783
0.000219075
0.0902531
-0.000393623
0.0903635
-0.00123901
0.0904971
-0.00178544
0.0906385
-0.00246653
0.0907885
-0.00290142
0.0909893
-0.00339852
0.0911506
-0.00360014
0.0913644
-0.00392097
0.0915386
-0.00385524
0.0917769
-0.00399628
0.0919489
-0.00362025
0.092195
-0.0035986
0.0924172
-0.00301624
0.0926779
-0.00280816
0.0928689
-0.00207864
0.0930944
-0.00185462
0.09321
-0.00100288
0.0933245
-0.000885533
0.0934094
-0.000113939
0.0932319
8.80495e-07
0.0932087
0.000359158
0.0927333
0.000503942
0.0922905
0.000256845
0.0914562
0.000215099
0.0904404
-0.000607089
0.0890519
-0.00107048
0.0873732
-0.00251371
0.0851454
-0.00353435
0.0826554
-0.00566189
0.079338
-0.00724915
-0.0109401
0.0756583
0.0905439
0.0059617
-0.0906511
0.0904855
0.00513209
0.090447
0.00458607
0.0904298
0.00381784
0.090482
0.00320498
0.0904713
0.00243886
0.090559
0.00167157
0.0906082
0.000978081
0.0907186
0.00010864
0.0908105
-0.000485521
0.0909122
-0.00134072
0.0910363
-0.00190947
0.0911936
-0.00262385
0.0913301
-0.00303788
0.0915168
-0.00358526
0.0916745
-0.00375789
0.0919037
-0.00415016
0.0920626
-0.0040141
0.0923039
-0.00423757
0.0925285
-0.00384486
0.0927707
-0.0038408
0.0929896
-0.00323518
0.0932885
-0.00310698
0.0935331
-0.00232329
0.0937721
-0.00209359
0.0940581
-0.00128889
0.0941477
-0.000975125
0.0944154
-0.000381719
0.094331
8.53593e-05
0.0943777
0.000312455
0.0941224
0.000759192
0.0937844
0.000594824
0.0931752
0.000824333
0.0923471
0.000220976
0.091148
0.000128617
0.0896856
-0.0010513
0.0876837
-0.00153241
0.0854199
-0.00339815
0.0823753
-0.00420453
-0.00740407
0.0788393
0.090483
0.00601407
-0.0905354
0.0904429
0.00517218
0.0904803
0.00454871
0.0904481
0.00384998
0.0905328
0.00312034
0.0905579
0.0024137
0.0906762
0.00155329
0.0907613
0.000892981
0.0908689
1.10567e-06
0.0910064
-0.000623016
0.0911525
-0.00148683
0.0912986
-0.00205562
0.0914983
-0.00282349
0.0916236
-0.00316325
0.0918555
-0.00381715
0.0920017
-0.00390408
0.092231
-0.0043795
0.0924234
-0.00420641
0.0926505
-0.0044647
0.0928853
-0.00407963
0.0931499
-0.0041055
0.0934467
-0.00353196
0.0937053
-0.00336551
0.0940979
-0.00271589
0.0943098
-0.00230549
0.0947595
-0.00173863
0.094924
-0.00113962
0.0952799
-0.000737619
0.0954018
-3.6587e-05
0.0955368
0.00017751
0.0955038
0.000792175
0.0953351
0.000763537
0.0949396
0.00121979
0.094377
0.000783577
0.093451
0.00105463
0.0923056
9.41481e-05
0.0906394
0.000133739
0.0887222
-0.00148097
0.0861197
-0.00160196
-0.00421765
0.0829332
0.0911176
0.00600558
-0.0911091
0.0910392
0.0052506
0.0910925
0.00449545
0.0910989
0.00384358
0.091198
0.00302118
0.0912428
0.00236895
0.0913514
0.00144469
0.0914555
0.000788881
0.0915821
-0.00012546
0.0917069
-0.00074782
0.0918904
-0.00167038
0.0920092
-0.00217443
0.092213
-0.00302725
0.0923656
-0.00331586
0.092573
-0.00402452
0.0927606
-0.00409169
0.0929502
-0.00456914
0.0931882
-0.00444441
0.0933772
-0.00465373
0.0936742
-0.00437656
0.0938644
-0.00429575
0.0942464
-0.00391392
0.094453
-0.00357212
0.0949288
-0.00319171
0.0951962
-0.0025729
0.0956867
-0.00222912
0.0960046
-0.00145747
0.0964159
-0.00114898
0.0967383
-0.00035899
0.0970204
-0.000104582
0.0971802
0.000632349
0.0972619
0.000681835
0.0971044
0.00137733
0.096817
0.00107096
0.0962049
0.00166672
0.0954255
0.000873571
0.0941959
0.00136337
0.0926658
4.91215e-05
0.0906473
0.000416509
-0.00163597
0.0880657
0.0910315
0.00595421
-0.0909801
0.0910468
0.00523529
0.0911124
0.00442991
0.0911805
0.00377545
0.0912723
0.00292932
0.0913749
0.00226641
0.0915078
0.00131178
0.0916289
0.000667802
0.0918227
-0.000319256
0.0919664
-0.000891537
0.0921695
-0.00187351
0.0923446
-0.00234948
0.0925192
-0.00320188
0.0927449
-0.00354161
0.0928929
-0.0041725
0.0931719
-0.00437064
0.093317
-0.00471424
0.0936414
-0.00476881
0.0938096
-0.00482193
0.0941866
-0.00475355
0.0943817
-0.00449092
0.0948266
-0.00435883
0.0951067
-0.00385217
0.095578
-0.00366299
0.0959813
-0.0029762
0.096487
-0.00273482
0.0969848
-0.00195529
0.0975001
-0.00166427
0.0979697
-0.000828641
0.0984558
-0.000590616
0.0988049
0.000283259
0.0991172
0.000369478
0.09924
0.00125451
0.0992802
0.00103082
0.0990302
0.00191673
0.0986022
0.00130148
0.0978479
0.00211768
0.0968096
0.00108743
0.095464
0.00176218
0.000471709
0.0933563
0.0918894
0.00597469
-0.0919099
0.0918833
0.00524145
0.0919409
0.00437229
0.0920082
0.00370816
0.0921228
0.00281465
0.0922427
0.00214657
0.0923868
0.00116769
0.0925344
0.000520205
0.0926996
-0.000484537
0.0929102
-0.00110211
0.0930464
-0.00200971
0.0933056
-0.0026087
0.0934221
-0.00331839
0.0937322
-0.0038517
0.0938344
-0.00427467
0.0941414
-0.00467764
0.0942569
-0.00482979
0.0945979
-0.00510977
0.0947381
-0.00496213
0.0950975
-0.00511293
0.0953515
-0.00474493
0.0957609
-0.00476827
0.0961261
-0.00421736
0.0966066
-0.00414351
0.0971079
-0.00347745
0.0976743
-0.00330122
0.0982557
-0.0025367
0.098917
-0.00232561
0.0995462
-0.00145776
0.100211
-0.00125551
0.100794
-0.000299521
0.101377
-0.000214173
0.101803
0.000829449
0.102144
0.000689583
0.102303
0.00175761
0.10228
0.00132434
0.102075
0.00232268
0.101497
0.00166543
0.100857
0.0024018
0.00191378
0.0994153
0.0918544
0.00591349
-0.0917932
0.0919453
0.00515058
0.0920296
0.004288
0.0921393
0.00359844
0.092296
0.00265798
0.0925044
0.00193814
0.092661
0.00101104
0.0929041
0.000277097
0.0930033
-0.000583685
0.0933205
-0.00141928
0.0934412
-0.0021304
0.093768
-0.00293556
0.0938829
-0.00343328
0.094187
-0.00415584
0.094305
-0.00439265
0.0946038
-0.00497645
0.0947743
-0.00500024
0.095045
-0.00538048
0.0952735
-0.00519069
0.0956086
-0.00544802
0.0959093
-0.00504562
0.0963185
-0.00517746
0.0967574
-0.00465627
0.0972809
-0.00466699
0.0978382
-0.00403474
0.0985227
-0.00398576
0.0992228
-0.00323674
0.100023
-0.00312555
0.100839
-0.0022738
0.101734
-0.00215121
0.102601
-0.00116565
0.103443
-0.00105698
0.104246
2.71337e-05
0.104917
1.84885e-05
0.105542
0.00113198
0.105841
0.00102616
0.106271
0.0018927
0.106067
0.00186927
0.106036
0.00243287
0.00250628
0.105443
0.0931524
0.00582669
-0.0930656
0.0932999
0.00500311
0.0934077
0.00418021
0.0935509
0.00345524
0.0935904
0.00261844
0.0937885
0.00174007
0.0938873
0.000912166
0.0942414
-7.69696e-05
0.094384
-0.000726233
0.0946607
-0.00169602
0.0947818
-0.00225155
0.0950484
-0.00320206
0.0951849
-0.00356983
0.095428
-0.00439889
0.0955912
-0.00455593
0.09581
-0.00519522
0.0959794
-0.00516961
0.0962231
-0.00562415
0.0964327
-0.00540037
0.0967152
-0.00573049
0.097035
-0.00536546
0.0974471
-0.00558951
0.0978852
-0.00509435
0.0984355
-0.00521732
0.0990717
-0.00467092
0.0997879
-0.00470204
0.100632
-0.00408085
0.101533
-0.00402689
0.102562
-0.00330269
0.103592
-0.00318049
0.104748
-0.00232226
0.105853
-0.00216224
0.107062
-0.00118097
0.108114
-0.00103387
0.109301
-5.54329e-05
0.110111
0.000216744
0.111053
0.000950351
0.111592
0.00133001
0.112158
0.00186728
0.00236272
0.112301
0.0931021
0.00567361
-0.092949
0.0933653
0.00473992
0.0935616
0.00398384
0.0939364
0.00308052
0.0941735
0.00238132
0.0945254
0.00138819
0.0947088
0.000728759
0.0949485
-0.000316673
0.0951451
-0.000922858
0.0954581
-0.00200902
0.0956521
-0.00244556
0.0959043
-0.00345426
0.0960717
-0.00373722
0.0962813
-0.00460851
0.0964423
-0.00471694
0.0966445
-0.00539735
0.0968101
-0.00533524
0.0970173
-0.00583137
0.0972331
-0.00561613
0.0974972
-0.00599462
0.0977984
-0.00566666
0.0981498
-0.00594095
0.0986163
-0.00556079
0.0991412
-0.00574221
0.0998115
-0.00534124
0.100533
-0.00542379
0.101456
-0.00500375
0.102387
-0.00495746
0.103615
-0.00453073
0.104784
-0.00435007
0.106257
-0.00379543
0.107615
-0.00352014
0.109258
-0.00282386
0.110589
-0.00236479
0.112244
-0.00171051
0.113602
-0.00114104
0.115019
-0.000467011
0.116202
0.00014766
0.117364
0.000704887
0.00157489
0.118152
0.095177
0.00565027
-0.0951537
0.0953308
0.00458611
0.0953962
0.00391845
0.0955519
0.00292482
0.0957139
0.00221934
0.0959812
0.00112083
0.0962875
0.000422517
0.0966259
-0.000655099
0.0969161
-0.00121308
0.0971844
-0.00227737
0.0974379
-0.00269901
0.0976525
-0.00366882
0.0978754
-0.00396018
0.0980627
-0.00479578
0.0982766
-0.0049309
0.0983886
-0.00550928
0.0985996
-0.00554625
0.0987053
-0.00593705
0.0989889
-0.00589972
0.0991265
-0.0061323
0.0995131
-0.00605322
0.0997649
-0.00619271
0.100296
-0.0060917
0.100739
-0.00618495
0.101519
-0.00612193
0.102209
-0.00611358
0.103281
-0.00607544
0.104297
-0.0059739
0.105646
-0.00587966
0.10694
-0.00564385
0.108597
-0.00545257
0.110175
-0.00509802
0.112114
-0.00476314
0.113967
-0.00421769
0.116076
-0.00381937
0.118069
-0.00313448
0.120226
-0.00262415
0.122192
-0.0018182
0.124203
-0.0013057
-0.000129543
0.125907
0.0957289
0.00512891
-0.0952076
0.0962494
0.0040656
0.0967682
0.0033997
0.097259
0.00243396
0.0976922
0.00178616
0.0979769
0.000836124
0.0982124
0.00018709
0.0983823
-0.00082503
0.0986816
-0.00151241
0.0988274
-0.00242314
0.0990987
-0.00297029
0.0991761
-0.00374626
0.0993639
-0.00414799
0.0993448
-0.00477661
0.0995021
-0.00508823
0.0994708
-0.00547797
0.0996356
-0.00571112
0.0996343
-0.00593567
0.0998164
-0.0060819
0.0998845