/*--------------------------------*- C++ -*----------------------------------*\
  =========                 |
  \\      /  F ield         | OpenFOAM: The Open Source CFD Toolbox
   \\    /   O peration     | Website:  https://openfoam.org
    \\  /    A nd           | Version:  11
     \\/     M anipulation  |
\*---------------------------------------------------------------------------*/
FoamFile
{
    format      ascii;
    class       volVectorField;
    location    "0";
    object      C;
}
// * * * * * * * * * * * * * * * * * * * * * * * * * * * * * * * * * * * * * //

dimensions      [0 1 0 0 0 0 0];

internalField   nonuniform List<vector> 
9600
(
(-0.21645382 -7.3698393 0.5)
(0.030744344 -7.3698393 0.5)
(0.27794251 -7.3698393 0.5)
(0.52514068 -7.3698393 0.5)
(0.77233884 -7.3698393 0.5)
(1.019537 -7.3698393 0.5)
(1.2667351 -7.3698393 0.5)
(1.5139333 -7.3698393 0.5)
(1.7611315 -7.3698393 0.5)
(2.0083296 -7.3698393 0.5)
(2.2555278 -7.3698393 0.5)
(2.502726 -7.3698393 0.5)
(2.7499241 -7.3698393 0.5)
(2.9971223 -7.3698393 0.5)
(3.2443205 -7.3698393 0.5)
(3.4915186 -7.3698393 0.5)
(3.7387168 -7.3698393 0.5)
(3.985915 -7.3698393 0.5)
(4.2331131 -7.3698393 0.5)
(4.4803113 -7.3698393 0.5)
(4.7275095 -7.3698393 0.5)
(4.9747077 -7.3698393 0.5)
(5.2219058 -7.3698393 0.5)
(5.469104 -7.3698393 0.5)
(5.7163022 -7.3698393 0.5)
(5.9635003 -7.3698393 0.5)
(6.2106985 -7.3698393 0.5)
(6.4578967 -7.3698393 0.5)
(6.7050948 -7.3698393 0.5)
(6.952293 -7.3698393 0.5)
(7.1994912 -7.3698393 0.5)
(7.4466893 -7.3698393 0.5)
(7.6938875 -7.3698393 0.5)
(7.9410857 -7.3698393 0.5)
(8.1882838 -7.3698393 0.5)
(8.435482 -7.3698393 0.5)
(8.6826802 -7.3698393 0.5)
(8.9298783 -7.3698393 0.5)
(9.1770765 -7.3698393 0.5)
(9.4242747 -7.3698393 0.5)
(-0.10677117 -7.1085385 0.5)
(0.13480225 -7.1085385 0.5)
(0.37637566 -7.1085385 0.5)
(0.61794908 -7.1085385 0.5)
(0.85952249 -7.1085385 0.5)
(1.1010959 -7.1085385 0.5)
(1.3426693 -7.1085385 0.5)
(1.5842427 -7.1085385 0.5)
(1.8258161 -7.1085385 0.5)
(2.0673895 -7.1085385 0.5)
(2.308963 -7.1085385 0.5)
(2.5505364 -7.1085385 0.5)
(2.7921098 -7.1085385 0.5)
(3.0336832 -7.1085385 0.5)
(3.2752566 -7.1085385 0.5)
(3.51683 -7.1085385 0.5)
(3.7584034 -7.1085385 0.5)
(3.9999769 -7.1085385 0.5)
(4.2415503 -7.1085385 0.5)
(4.4831237 -7.1085385 0.5)
(4.7246971 -7.1085385 0.5)
(4.9662705 -7.1085385 0.5)
(5.2078439 -7.1085385 0.5)
(5.4494174 -7.1085385 0.5)
(5.6909908 -7.1085385 0.5)
(5.9325642 -7.1085385 0.5)
(6.1741376 -7.1085385 0.5)
(6.415711 -7.1085385 0.5)
(6.6572844 -7.1085385 0.5)
(6.8988578 -7.1085385 0.5)
(7.1404313 -7.1085385 0.5)
(7.3820047 -7.1085385 0.5)
(7.6235781 -7.1085385 0.5)
(7.8651515 -7.1085385 0.5)
(8.1067249 -7.1085385 0.5)
(8.3482983 -7.1085385 0.5)
(8.5898718 -7.1085385 0.5)
(8.8314452 -7.1085385 0.5)
(9.0730186 -7.1085385 0.5)
(9.314592 -7.1085385 0.5)
(0.0029112599 -6.8472382 0.5)
(0.23885993 -6.8472382 0.5)
(0.47480861 -6.8472382 0.5)
(0.71075728 -6.8472382 0.5)
(0.94670594 -6.8472382 0.5)
(1.1826546 -6.8472382 0.5)
(1.4186033 -6.8472382 0.5)
(1.654552 -6.8472382 0.5)
(1.8905006 -6.8472382 0.5)
(2.1264493 -6.8472382 0.5)
(2.362398 -6.8472382 0.5)
(2.5983467 -6.8472382 0.5)
(2.8342953 -6.8472382 0.5)
(3.070244 -6.8472382 0.5)
(3.3061927 -6.8472382 0.5)
(3.5421414 -6.8472382 0.5)
(3.77809 -6.8472382 0.5)
(4.0140387 -6.8472382 0.5)
(4.2499874 -6.8472382 0.5)
(4.4859361 -6.8472382 0.5)
(4.7218847 -6.8472382 0.5)
(4.9578334 -6.8472382 0.5)
(5.1937821 -6.8472382 0.5)
(5.4297308 -6.8472382 0.5)
(5.6656794 -6.8472382 0.5)
(5.9016281 -6.8472382 0.5)
(6.1375768 -6.8472382 0.5)
(6.3735255 -6.8472382 0.5)
(6.6094741 -6.8472382 0.5)
(6.8454228 -6.8472382 0.5)
(7.0813715 -6.8472382 0.5)
(7.3173202 -6.8472382 0.5)
(7.5532688 -6.8472382 0.5)
(7.7892175 -6.8472382 0.5)
(8.0251662 -6.8472382 0.5)
(8.2611149 -6.8472382 0.5)
(8.4970635 -6.8472382 0.5)
(8.7330122 -6.8472382 0.5)
(8.9689609 -6.8472382 0.5)
(9.2049096 -6.8472382 0.5)
(0.11259344 -6.5859384 0.5)
(0.34291738 -6.5859384 0.5)
(0.57324133 -6.5859384 0.5)
(0.80356528 -6.5859384 0.5)
(1.0338892 -6.5859384 0.5)
(1.2642131 -6.5859384 0.5)
(1.4945371 -6.5859384 0.5)
(1.724861 -6.5859384 0.5)
(1.955185 -6.5859384 0.5)
(2.1855089 -6.5859384 0.5)
(2.4158329 -6.5859384 0.5)
(2.6461568 -6.5859384 0.5)
(2.8764808 -6.5859384 0.5)
(3.1068047 -6.5859384 0.5)
(3.3371287 -6.5859384 0.5)
(3.5674526 -6.5859384 0.5)
(3.7977766 -6.5859384 0.5)
(4.0281005 -6.5859384 0.5)
(4.2584245 -6.5859384 0.5)
(4.4887484 -6.5859384 0.5)
(4.7190724 -6.5859384 0.5)
(4.9493963 -6.5859384 0.5)
(5.1797203 -6.5859384 0.5)
(5.4100442 -6.5859384 0.5)
(5.6403682 -6.5859384 0.5)
(5.8706921 -6.5859384 0.5)
(6.1010161 -6.5859384 0.5)
(6.33134 -6.5859384 0.5)
(6.561664 -6.5859384 0.5)
(6.7919879 -6.5859384 0.5)
(7.0223119 -6.5859384 0.5)
(7.2526358 -6.5859384 0.5)
(7.4829598 -6.5859384 0.5)
(7.7132837 -6.5859384 0.5)
(7.9436077 -6.5859384 0.5)
(8.1739316 -6.5859384 0.5)
(8.4042555 -6.5859384 0.5)
(8.6345795 -6.5859384 0.5)
(8.8649034 -6.5859384 0.5)
(9.0952274 -6.5859384 0.5)
(0.22227535 -6.3246394 0.5)
(0.44697458 -6.3246394 0.5)
(0.67167382 -6.3246394 0.5)
(0.89637304 -6.3246394 0.5)
(1.1210723 -6.3246394 0.5)
(1.3457715 -6.3246394 0.5)
(1.5704707 -6.3246394 0.5)
(1.79517 -6.3246394 0.5)
(2.0198692 -6.3246394 0.5)
(2.2445684 -6.3246394 0.5)
(2.4692677 -6.3246394 0.5)
(2.6939669 -6.3246394 0.5)
(2.9186661 -6.3246394 0.5)
(3.1433654 -6.3246394 0.5)
(3.3680646 -6.3246394 0.5)
(3.5927638 -6.3246394 0.5)
(3.8174631 -6.3246394 0.5)
(4.0421623 -6.3246394 0.5)
(4.2668615 -6.3246394 0.5)
(4.4915608 -6.3246394 0.5)
(4.71626 -6.3246394 0.5)
(4.9409593 -6.3246394 0.5)
(5.1656585 -6.3246394 0.5)
(5.3903577 -6.3246394 0.5)
(5.615057 -6.3246394 0.5)
(5.8397562 -6.3246394 0.5)
(6.0644554 -6.3246394 0.5)
(6.2891547 -6.3246394 0.5)
(6.5138539 -6.3246394 0.5)
(6.7385531 -6.3246394 0.5)
(6.9632524 -6.3246394 0.5)
(7.1879516 -6.3246394 0.5)
(7.4126508 -6.3246394 0.5)
(7.6373501 -6.3246394 0.5)
(7.8620493 -6.3246394 0.5)
(8.0867485 -6.3246394 0.5)
(8.3114478 -6.3246394 0.5)
(8.536147 -6.3246394 0.5)
(8.7608462 -6.3246394 0.5)
(8.9855455 -6.3246394 0.5)
(0.33195697 -6.063341 0.5)
(0.55103151 -6.063341 0.5)
(0.77010604 -6.063341 0.5)
(0.98918056 -6.063341 0.5)
(1.2082551 -6.063341 0.5)
(1.4273296 -6.063341 0.5)
(1.6464042 -6.063341 0.5)
(1.8654787 -6.063341 0.5)
(2.0845532 -6.063341 0.5)
(2.3036278 -6.063341 0.5)
(2.5227023 -6.063341 0.5)
(2.7417768 -6.063341 0.5)
(2.9608514 -6.063341 0.5)
(3.1799259 -6.063341 0.5)
(3.3990004 -6.063341 0.5)
(3.618075 -6.063341 0.5)
(3.8371495 -6.063341 0.5)
(4.0562241 -6.063341 0.5)
(4.2752986 -6.063341 0.5)
(4.4943731 -6.063341 0.5)
(4.7134477 -6.063341 0.5)
(4.9325222 -6.063341 0.5)
(5.1515967 -6.063341 0.5)
(5.3706713 -6.063341 0.5)
(5.5897458 -6.063341 0.5)
(5.8088204 -6.063341 0.5)
(6.0278949 -6.063341 0.5)
(6.2469694 -6.063341 0.5)
(6.466044 -6.063341 0.5)
(6.6851185 -6.063341 0.5)
(6.904193 -6.063341 0.5)
(7.1232676 -6.063341 0.5)
(7.3423421 -6.063341 0.5)
(7.5614166 -6.063341 0.5)
(7.7804912 -6.063341 0.5)
(7.9995657 -6.063341 0.5)
(8.2186403 -6.063341 0.5)
(8.4377148 -6.063341 0.5)
(8.6567893 -6.063341 0.5)
(8.8758639 -6.063341 0.5)
(0.44163829 -5.8020434 0.5)
(0.65508814 -5.8020434 0.5)
(0.86853798 -5.8020434 0.5)
(1.0819878 -5.8020434 0.5)
(1.2954377 -5.8020434 0.5)
(1.5088875 -5.8020434 0.5)
(1.7223374 -5.8020434 0.5)
(1.9357872 -5.8020434 0.5)
(2.1492371 -5.8020434 0.5)
(2.3626869 -5.8020434 0.5)
(2.5761368 -5.8020434 0.5)
(2.7895866 -5.8020434 0.5)
(3.0030365 -5.8020434 0.5)
(3.2164864 -5.8020434 0.5)
(3.4299362 -5.8020434 0.5)
(3.6433861 -5.8020434 0.5)
(3.8568359 -5.8020434 0.5)
(4.0702858 -5.8020434 0.5)
(4.2837356 -5.8020434 0.5)
(4.4971855 -5.8020434 0.5)
(4.7106353 -5.8020434 0.5)
(4.9240852 -5.8020434 0.5)
(5.137535 -5.8020434 0.5)
(5.3509849 -5.8020434 0.5)
(5.5644347 -5.8020434 0.5)
(5.7778846 -5.8020434 0.5)
(5.9913344 -5.8020434 0.5)
(6.2047843 -5.8020434 0.5)
(6.4182342 -5.8020434 0.5)
(6.631684 -5.8020434 0.5)
(6.8451339 -5.8020434 0.5)
(7.0585837 -5.8020434 0.5)
(7.2720336 -5.8020434 0.5)
(7.4854834 -5.8020434 0.5)
(7.6989333 -5.8020434 0.5)
(7.9123831 -5.8020434 0.5)
(8.125833 -5.8020434 0.5)
(8.3392828 -5.8020434 0.5)
(8.5527327 -5.8020434 0.5)
(8.7661825 -5.8020434 0.5)
(0.55131926 -5.5407465 0.5)
(0.75914445 -5.5407465 0.5)
(0.96696963 -5.5407465 0.5)
(1.1747948 -5.5407465 0.5)
(1.38262 -5.5407465 0.5)
(1.5904452 -5.5407465 0.5)
(1.7982704 -5.5407465 0.5)
(2.0060956 -5.5407465 0.5)
(2.2139207 -5.5407465 0.5)
(2.4217459 -5.5407465 0.5)
(2.6295711 -5.5407465 0.5)
(2.8373963 -5.5407465 0.5)
(3.0452215 -5.5407465 0.5)
(3.2530467 -5.5407465 0.5)
(3.4608719 -5.5407465 0.5)
(3.6686971 -5.5407465 0.5)
(3.8765222 -5.5407465 0.5)
(4.0843474 -5.5407465 0.5)
(4.2921726 -5.5407465 0.5)
(4.4999978 -5.5407465 0.5)
(4.707823 -5.5407465 0.5)
(4.9156482 -5.5407465 0.5)
(5.1234734 -5.5407465 0.5)
(5.3312986 -5.5407465 0.5)
(5.5391237 -5.5407465 0.5)
(5.7469489 -5.5407465 0.5)
(5.9547741 -5.5407465 0.5)
(6.1625993 -5.5407465 0.5)
(6.3704245 -5.5407465 0.5)
(6.5782497 -5.5407465 0.5)
(6.7860749 -5.5407465 0.5)
(6.9939001 -5.5407465 0.5)
(7.2017252 -5.5407465 0.5)
(7.4095504 -5.5407465 0.5)
(7.6173756 -5.5407465 0.5)
(7.8252008 -5.5407465 0.5)
(8.033026 -5.5407465 0.5)
(8.2408512 -5.5407465 0.5)
(8.4486764 -5.5407465 0.5)
(8.6565016 -5.5407465 0.5)
(0.66099988 -5.2794505 0.5)
(0.86320041 -5.2794505 0.5)
(1.0654009 -5.2794505 0.5)
(1.2676015 -5.2794505 0.5)
(1.469802 -5.2794505 0.5)
(1.6720026 -5.2794505 0.5)
(1.8742031 -5.2794505 0.5)
(2.0764036 -5.2794505 0.5)
(2.2786042 -5.2794505 0.5)
(2.4808047 -5.2794505 0.5)
(2.6830053 -5.2794505 0.5)
(2.8852058 -5.2794505 0.5)
(3.0874063 -5.2794505 0.5)
(3.2896069 -5.2794505 0.5)
(3.4918074 -5.2794505 0.5)
(3.694008 -5.2794505 0.5)
(3.8962085 -5.2794505 0.5)
(4.098409 -5.2794505 0.5)
(4.3006096 -5.2794505 0.5)
(4.5028101 -5.2794505 0.5)
(4.7050107 -5.2794505 0.5)
(4.9072112 -5.2794505 0.5)
(5.1094118 -5.2794505 0.5)
(5.3116123 -5.2794505 0.5)
(5.5138128 -5.2794505 0.5)
(5.7160134 -5.2794505 0.5)
(5.9182139 -5.2794505 0.5)
(6.1204145 -5.2794505 0.5)
(6.322615 -5.2794505 0.5)
(6.5248155 -5.2794505 0.5)
(6.7270161 -5.2794505 0.5)
(6.9292166 -5.2794505 0.5)
(7.1314172 -5.2794505 0.5)
(7.3336177 -5.2794505 0.5)
(7.5358182 -5.2794505 0.5)
(7.7380188 -5.2794505 0.5)
(7.9402193 -5.2794505 0.5)
(8.1424199 -5.2794505 0.5)
(8.3446204 -5.2794505 0.5)
(8.5468209 -5.2794505 0.5)
(0.7706801 -5.0181555 0.5)
(0.967256 -5.0181555 0.5)
(1.1638319 -5.0181555 0.5)
(1.3604078 -5.0181555 0.5)
(1.5569837 -5.0181555 0.5)
(1.7535596 -5.0181555 0.5)
(1.9501356 -5.0181555 0.5)
(2.1467115 -5.0181555 0.5)
(2.3432874 -5.0181555 0.5)
(2.5398633 -5.0181555 0.5)
(2.7364392 -5.0181555 0.5)
(2.9330151 -5.0181555 0.5)
(3.129591 -5.0181555 0.5)
(3.326167 -5.0181555 0.5)
(3.5227429 -5.0181555 0.5)
(3.7193188 -5.0181555 0.5)
(3.9158947 -5.0181555 0.5)
(4.1124706 -5.0181555 0.5)
(4.3090465 -5.0181555 0.5)
(4.5056224 -5.0181555 0.5)
(4.7021984 -5.0181555 0.5)
(4.8987743 -5.0181555 0.5)
(5.0953502 -5.0181555 0.5)
(5.2919261 -5.0181555 0.5)
(5.488502 -5.0181555 0.5)
(5.6850779 -5.0181555 0.5)
(5.8816538 -5.0181555 0.5)
(6.0782298 -5.0181555 0.5)
(6.2748057 -5.0181555 0.5)
(6.4713816 -5.0181555 0.5)
(6.6679575 -5.0181555 0.5)
(6.8645334 -5.0181555 0.5)
(7.0611093 -5.0181555 0.5)
(7.2576852 -5.0181555 0.5)
(7.4542612 -5.0181555 0.5)
(7.6508371 -5.0181555 0.5)
(7.847413 -5.0181555 0.5)
(8.0439889 -5.0181555 0.5)
(8.2405648 -5.0181555 0.5)
(8.4371407 -5.0181555 0.5)
(0.88035989 -4.7568614 0.5)
(1.0713112 -4.7568614 0.5)
(1.2622625 -4.7568614 0.5)
(1.4532138 -4.7568614 0.5)
(1.6441651 -4.7568614 0.5)
(1.8351164 -4.7568614 0.5)
(2.0260677 -4.7568614 0.5)
(2.217019 -4.7568614 0.5)
(2.4079703 -4.7568614 0.5)
(2.5989217 -4.7568614 0.5)
(2.789873 -4.7568614 0.5)
(2.9808243 -4.7568614 0.5)
(3.1717756 -4.7568614 0.5)
(3.3627269 -4.7568614 0.5)
(3.5536782 -4.7568614 0.5)
(3.7446295 -4.7568614 0.5)
(3.9355808 -4.7568614 0.5)
(4.1265321 -4.7568614 0.5)
(4.3174834 -4.7568614 0.5)
(4.5084347 -4.7568614 0.5)
(4.6993861 -4.7568614 0.5)
(4.8903374 -4.7568614 0.5)
(5.0812887 -4.7568614 0.5)
(5.27224 -4.7568614 0.5)
(5.4631913 -4.7568614 0.5)
(5.6541426 -4.7568614 0.5)
(5.8450939 -4.7568614 0.5)
(6.0360452 -4.7568614 0.5)
(6.2269965 -4.7568614 0.5)
(6.4179478 -4.7568614 0.5)
(6.6088991 -4.7568614 0.5)
(6.7998505 -4.7568614 0.5)
(6.9908018 -4.7568614 0.5)
(7.1817531 -4.7568614 0.5)
(7.3727044 -4.7568614 0.5)
(7.5636557 -4.7568614 0.5)
(7.754607 -4.7568614 0.5)
(7.9455583 -4.7568614 0.5)
(8.1365096 -4.7568614 0.5)
(8.3274609 -4.7568614 0.5)
(0.99003921 -4.4955685 0.5)
(1.1753659 -4.4955685 0.5)
(1.3606927 -4.4955685 0.5)
(1.5460194 -4.4955685 0.5)
(1.7313461 -4.4955685 0.5)
(1.9166728 -4.4955685 0.5)
(2.1019996 -4.4955685 0.5)
(2.2873263 -4.4955685 0.5)
(2.472653 -4.4955685 0.5)
(2.6579798 -4.4955685 0.5)
(2.8433065 -4.4955685 0.5)
(3.0286332 -4.4955685 0.5)
(3.2139599 -4.4955685 0.5)
(3.3992867 -4.4955685 0.5)
(3.5846134 -4.4955685 0.5)
(3.7699401 -4.4955685 0.5)
(3.9552669 -4.4955685 0.5)
(4.1405936 -4.4955685 0.5)
(4.3259203 -4.4955685 0.5)
(4.511247 -4.4955685 0.5)
(4.6965738 -4.4955685 0.5)
(4.8819005 -4.4955685 0.5)
(5.0672272 -4.4955685 0.5)
(5.2525539 -4.4955685 0.5)
(5.4378807 -4.4955685 0.5)
(5.6232074 -4.4955685 0.5)
(5.8085341 -4.4955685 0.5)
(5.9938609 -4.4955685 0.5)
(6.1791876 -4.4955685 0.5)
(6.3645143 -4.4955685 0.5)
(6.549841 -4.4955685 0.5)
(6.7351678 -4.4955685 0.5)
(6.9204945 -4.4955685 0.5)
(7.1058212 -4.4955685 0.5)
(7.291148 -4.4955685 0.5)
(7.4764747 -4.4955685 0.5)
(7.6618014 -4.4955685 0.5)
(7.8471281 -4.4955685 0.5)
(8.0324549 -4.4955685 0.5)
(8.2177816 -4.4955685 0.5)
(1.099718 -4.2342768 0.5)
(1.2794202 -4.2342768 0.5)
(1.4591224 -4.2342768 0.5)
(1.6388245 -4.2342768 0.5)
(1.8185267 -4.2342768 0.5)
(1.9982289 -4.2342768 0.5)
(2.1779311 -4.2342768 0.5)
(2.3576332 -4.2342768 0.5)
(2.5373354 -4.2342768 0.5)
(2.7170376 -4.2342768 0.5)
(2.8967397 -4.2342768 0.5)
(3.0764419 -4.2342768 0.5)
(3.2561441 -4.2342768 0.5)
(3.4358463 -4.2342768 0.5)
(3.6155484 -4.2342768 0.5)
(3.7952506 -4.2342768 0.5)
(3.9749528 -4.2342768 0.5)
(4.154655 -4.2342768 0.5)
(4.3343571 -4.2342768 0.5)
(4.5140593 -4.2342768 0.5)
(4.6937615 -4.2342768 0.5)
(4.8734637 -4.2342768 0.5)
(5.0531658 -4.2342768 0.5)
(5.232868 -4.2342768 0.5)
(5.4125702 -4.2342768 0.5)
(5.5922724 -4.2342768 0.5)
(5.7719745 -4.2342768 0.5)
(5.9516767 -4.2342768 0.5)
(6.1313789 -4.2342768 0.5)
(6.3110811 -4.2342768 0.5)
(6.4907832 -4.2342768 0.5)
(6.6704854 -4.2342768 0.5)
(6.8501876 -4.2342768 0.5)
(7.0298897 -4.2342768 0.5)
(7.2095919 -4.2342768 0.5)
(7.3892941 -4.2342768 0.5)
(7.5689963 -4.2342768 0.5)
(7.7486984 -4.2342768 0.5)
(7.9284006 -4.2342768 0.5)
(8.1081028 -4.2342768 0.5)
(1.2093963 -3.9729864 0.5)
(1.3834739 -3.9729864 0.5)
(1.5575516 -3.9729864 0.5)
(1.7316292 -3.9729864 0.5)
(1.9057069 -3.9729864 0.5)
(2.0797845 -3.9729864 0.5)
(2.2538622 -3.9729864 0.5)
(2.4279398 -3.9729864 0.5)
(2.6020174 -3.9729864 0.5)
(2.7760951 -3.9729864 0.5)
(2.9501727 -3.9729864 0.5)
(3.1242504 -3.9729864 0.5)
(3.298328 -3.9729864 0.5)
(3.4724057 -3.9729864 0.5)
(3.6464833 -3.9729864 0.5)
(3.820561 -3.9729864 0.5)
(3.9946386 -3.9729864 0.5)
(4.1687163 -3.9729864 0.5)
(4.3427939 -3.9729864 0.5)
(4.5168716 -3.9729864 0.5)
(4.6909492 -3.9729864 0.5)
(4.8650269 -3.9729864 0.5)
(5.0391045 -3.9729864 0.5)
(5.2131822 -3.9729864 0.5)
(5.3872598 -3.9729864 0.5)
(5.5613375 -3.9729864 0.5)
(5.7354151 -3.9729864 0.5)
(5.9094928 -3.9729864 0.5)
(6.0835704 -3.9729864 0.5)
(6.2576481 -3.9729864 0.5)
(6.4317257 -3.9729864 0.5)
(6.6058034 -3.9729864 0.5)
(6.779881 -3.9729864 0.5)
(6.9539586 -3.9729864 0.5)
(7.1280363 -3.9729864 0.5)
(7.3021139 -3.9729864 0.5)
(7.4761916 -3.9729864 0.5)
(7.6502692 -3.9729864 0.5)
(7.8243469 -3.9729864 0.5)
(7.9984245 -3.9729864 0.5)
(1.3190739 -3.7116975 0.5)
(1.4875271 -3.7116975 0.5)
(1.6559802 -3.7116975 0.5)
(1.8244334 -3.7116975 0.5)
(1.9928865 -3.7116975 0.5)
(2.1613397 -3.7116975 0.5)
(2.3297928 -3.7116975 0.5)
(2.498246 -3.7116975 0.5)
(2.6666991 -3.7116975 0.5)
(2.8351523 -3.7116975 0.5)
(3.0036054 -3.7116975 0.5)
(3.1720586 -3.7116975 0.5)
(3.3405117 -3.7116975 0.5)
(3.5089649 -3.7116975 0.5)
(3.6774181 -3.7116975 0.5)
(3.8458712 -3.7116975 0.5)
(4.0143244 -3.7116975 0.5)
(4.1827775 -3.7116975 0.5)
(4.3512307 -3.7116975 0.5)
(4.5196838 -3.7116975 0.5)
(4.688137 -3.7116975 0.5)
(4.8565901 -3.7116975 0.5)
(5.0250433 -3.7116975 0.5)
(5.1934964 -3.7116975 0.5)
(5.3619496 -3.7116975 0.5)
(5.5304027 -3.7116975 0.5)
(5.6988559 -3.7116975 0.5)
(5.8673091 -3.7116975 0.5)
(6.0357622 -3.7116975 0.5)
(6.2042154 -3.7116975 0.5)
(6.3726685 -3.7116975 0.5)
(6.5411217 -3.7116975 0.5)
(6.7095748 -3.7116975 0.5)
(6.878028 -3.7116975 0.5)
(7.0464811 -3.7116975 0.5)
(7.2149343 -3.7116975 0.5)
(7.3833874 -3.7116975 0.5)
(7.5518406 -3.7116975 0.5)
(7.7202937 -3.7116975 0.5)
(7.8887469 -3.7116975 0.5)
(1.4287509 -3.4504102 0.5)
(1.5915795 -3.4504102 0.5)
(1.7544082 -3.4504102 0.5)
(1.9172369 -3.4504102 0.5)
(2.0800656 -3.4504102 0.5)
(2.2428943 -3.4504102 0.5)
(2.405723 -3.4504102 0.5)
(2.5685517 -3.4504102 0.5)
(2.7313804 -3.4504102 0.5)
(2.8942091 -3.4504102 0.5)
(3.0570378 -3.4504102 0.5)
(3.2198665 -3.4504102 0.5)
(3.3826952 -3.4504102 0.5)
(3.5455239 -3.4504102 0.5)
(3.7083526 -3.4504102 0.5)
(3.8711813 -3.4504102 0.5)
(4.03401 -3.4504102 0.5)
(4.1968387 -3.4504102 0.5)
(4.3596674 -3.4504102 0.5)
(4.5224961 -3.4504102 0.5)
(4.6853247 -3.4504102 0.5)
(4.8481534 -3.4504102 0.5)
(5.0109821 -3.4504102 0.5)
(5.1738108 -3.4504102 0.5)
(5.3366395 -3.4504102 0.5)
(5.4994682 -3.4504102 0.5)
(5.6622969 -3.4504102 0.5)
(5.8251256 -3.4504102 0.5)
(5.9879543 -3.4504102 0.5)
(6.150783 -3.4504102 0.5)
(6.3136117 -3.4504102 0.5)
(6.4764404 -3.4504102 0.5)
(6.6392691 -3.4504102 0.5)
(6.8020978 -3.4504102 0.5)
(6.9649265 -3.4504102 0.5)
(7.1277552 -3.4504102 0.5)
(7.2905839 -3.4504102 0.5)
(7.4534126 -3.4504102 0.5)
(7.6162413 -3.4504102 0.5)
(7.7790699 -3.4504102 0.5)
(1.5384271 -3.1891248 0.5)
(1.6956313 -3.1891248 0.5)
(1.8528356 -3.1891248 0.5)
(2.0100399 -3.1891248 0.5)
(2.1672441 -3.1891248 0.5)
(2.3244484 -3.1891248 0.5)
(2.4816527 -3.1891248 0.5)
(2.638857 -3.1891248 0.5)
(2.7960612 -3.1891248 0.5)
(2.9532655 -3.1891248 0.5)
(3.1104698 -3.1891248 0.5)
(3.2676741 -3.1891248 0.5)
(3.4248783 -3.1891248 0.5)
(3.5820826 -3.1891248 0.5)
(3.7392869 -3.1891248 0.5)
(3.8964912 -3.1891248 0.5)
(4.0536954 -3.1891248 0.5)
(4.2108997 -3.1891248 0.5)
(4.368104 -3.1891248 0.5)
(4.5253083 -3.1891248 0.5)
(4.6825125 -3.1891248 0.5)
(4.8397168 -3.1891248 0.5)
(4.9969211 -3.1891248 0.5)
(5.1541254 -3.1891248 0.5)
(5.3113296 -3.1891248 0.5)
(5.4685339 -3.1891248 0.5)
(5.6257382 -3.1891248 0.5)
(5.7829425 -3.1891248 0.5)
(5.9401467 -3.1891248 0.5)
(6.097351 -3.1891248 0.5)
(6.2545553 -3.1891248 0.5)
(6.4117596 -3.1891248 0.5)
(6.5689638 -3.1891248 0.5)
(6.7261681 -3.1891248 0.5)
(6.8833724 -3.1891248 0.5)
(7.0405767 -3.1891248 0.5)
(7.1977809 -3.1891248 0.5)
(7.3549852 -3.1891248 0.5)
(7.5121895 -3.1891248 0.5)
(7.6693937 -3.1891248 0.5)
(1.6481024 -2.9278414 0.5)
(1.7996823 -2.9278414 0.5)
(1.9512622 -2.9278414 0.5)
(2.1028421 -2.9278414 0.5)
(2.254422 -2.9278414 0.5)
(2.4060019 -2.9278414 0.5)
(2.5575818 -2.9278414 0.5)
(2.7091617 -2.9278414 0.5)
(2.8607416 -2.9278414 0.5)
(3.0123215 -2.9278414 0.5)
(3.1639014 -2.9278414 0.5)
(3.3154813 -2.9278414 0.5)
(3.4670612 -2.9278414 0.5)
(3.6186411 -2.9278414 0.5)
(3.770221 -2.9278414 0.5)
(3.9218009 -2.9278414 0.5)
(4.0733808 -2.9278414 0.5)
(4.2249607 -2.9278414 0.5)
(4.3765406 -2.9278414 0.5)
(4.5281205 -2.9278414 0.5)
(4.6797003 -2.9278414 0.5)
(4.8312802 -2.9278414 0.5)
(4.9828601 -2.9278414 0.5)
(5.13444 -2.9278414 0.5)
(5.2860199 -2.9278414 0.5)
(5.4375998 -2.9278414 0.5)
(5.5891797 -2.9278414 0.5)
(5.7407596 -2.9278414 0.5)
(5.8923395 -2.9278414 0.5)
(6.0439194 -2.9278414 0.5)
(6.1954993 -2.9278414 0.5)
(6.3470792 -2.9278414 0.5)
(6.4986591 -2.9278414 0.5)
(6.650239 -2.9278414 0.5)
(6.8018189 -2.9278414 0.5)
(6.9533988 -2.9278414 0.5)
(7.1049787 -2.9278414 0.5)
(7.2565586 -2.9278414 0.5)
(7.4081385 -2.9278414 0.5)
(7.5597184 -2.9278414 0.5)
(1.7577768 -2.6665601 0.5)
(1.9037324 -2.6665601 0.5)
(2.049688 -2.6665601 0.5)
(2.1956435 -2.6665601 0.5)
(2.3415991 -2.6665601 0.5)
(2.4875547 -2.6665601 0.5)
(2.6335102 -2.6665601 0.5)
(2.7794658 -2.6665601 0.5)
(2.9254214 -2.6665601 0.5)
(3.0713769 -2.6665601 0.5)
(3.2173325 -2.6665601 0.5)
(3.3632881 -2.6665601 0.5)
(3.5092436 -2.6665601 0.5)
(3.6551992 -2.6665601 0.5)
(3.8011548 -2.6665601 0.5)
(3.9471103 -2.6665601 0.5)
(4.0930659 -2.6665601 0.5)
(4.2390215 -2.6665601 0.5)
(4.384977 -2.6665601 0.5)
(4.5309326 -2.6665601 0.5)
(4.6768882 -2.6665601 0.5)
(4.8228438 -2.6665601 0.5)
(4.9687993 -2.6665601 0.5)
(5.1147549 -2.6665601 0.5)
(5.2607105 -2.6665601 0.5)
(5.406666 -2.6665601 0.5)
(5.5526216 -2.6665601 0.5)
(5.6985772 -2.6665601 0.5)
(5.8445327 -2.6665601 0.5)
(5.9904883 -2.6665601 0.5)
(6.1364439 -2.6665601 0.5)
(6.2823994 -2.6665601 0.5)
(6.428355 -2.6665601 0.5)
(6.5743106 -2.6665601 0.5)
(6.7202661 -2.6665601 0.5)
(6.8662217 -2.6665601 0.5)
(7.0121773 -2.6665601 0.5)
(7.1581328 -2.6665601 0.5)
(7.3040884 -2.6665601 0.5)
(7.450044 -2.6665601 0.5)
(1.8674502 -2.4052814 0.5)
(2.0077815 -2.4052814 0.5)
(2.1481128 -2.4052814 0.5)
(2.2884441 -2.4052814 0.5)
(2.4287754 -2.4052814 0.5)
(2.5691067 -2.4052814 0.5)
(2.709438 -2.4052814 0.5)
(2.8497693 -2.4052814 0.5)
(2.9901005 -2.4052814 0.5)
(3.1304318 -2.4052814 0.5)
(3.2707631 -2.4052814 0.5)
(3.4110944 -2.4052814 0.5)
(3.5514257 -2.4052814 0.5)
(3.691757 -2.4052814 0.5)
(3.8320883 -2.4052814 0.5)
(3.9724196 -2.4052814 0.5)
(4.1127509 -2.4052814 0.5)
(4.2530822 -2.4052814 0.5)
(4.3934135 -2.4052814 0.5)
(4.5337448 -2.4052814 0.5)
(4.674076 -2.4052814 0.5)
(4.8144073 -2.4052814 0.5)
(4.9547386 -2.4052814 0.5)
(5.0950699 -2.4052814 0.5)
(5.2354012 -2.4052814 0.5)
(5.3757325 -2.4052814 0.5)
(5.5160638 -2.4052814 0.5)
(5.6563951 -2.4052814 0.5)
(5.7967264 -2.4052814 0.5)
(5.9370577 -2.4052814 0.5)
(6.077389 -2.4052814 0.5)
(6.2177203 -2.4052814 0.5)
(6.3580515 -2.4052814 0.5)
(6.4983828 -2.4052814 0.5)
(6.6387141 -2.4052814 0.5)
(6.7790454 -2.4052814 0.5)
(6.9193767 -2.4052814 0.5)
(7.059708 -2.4052814 0.5)
(7.2000393 -2.4052814 0.5)
(7.3403706 -2.4052814 0.5)
(1.9771224 -2.1440054 0.5)
(2.1118295 -2.1440054 0.5)
(2.2465366 -2.1440054 0.5)
(2.3812436 -2.1440054 0.5)
(2.5159507 -2.1440054 0.5)
(2.6506578 -2.1440054 0.5)
(2.7853649 -2.1440054 0.5)
(2.9200719 -2.1440054 0.5)
(3.054779 -2.1440054 0.5)
(3.1894861 -2.1440054 0.5)
(3.3241932 -2.1440054 0.5)
(3.4589002 -2.1440054 0.5)
(3.5936073 -2.1440054 0.5)
(3.7283144 -2.1440054 0.5)
(3.8630215 -2.1440054 0.5)
(3.9977286 -2.1440054 0.5)
(4.1324356 -2.1440054 0.5)
(4.2671427 -2.1440054 0.5)
(4.4018498 -2.1440054 0.5)
(4.5365569 -2.1440054 0.5)
(4.6712639 -2.1440054 0.5)
(4.805971 -2.1440054 0.5)
(4.9406781 -2.1440054 0.5)
(5.0753852 -2.1440054 0.5)
(5.2100922 -2.1440054 0.5)
(5.3447993 -2.1440054 0.5)
(5.4795064 -2.1440054 0.5)
(5.6142135 -2.1440054 0.5)
(5.7489206 -2.1440054 0.5)
(5.8836276 -2.1440054 0.5)
(6.0183347 -2.1440054 0.5)
(6.1530418 -2.1440054 0.5)
(6.2877489 -2.1440054 0.5)
(6.4224559 -2.1440054 0.5)
(6.557163 -2.1440054 0.5)
(6.6918701 -2.1440054 0.5)
(6.8265772 -2.1440054 0.5)
(6.9612842 -2.1440054 0.5)
(7.0959913 -2.1440054 0.5)
(7.2306984 -2.1440054 0.5)
(2.0867933 -1.8827327 0.5)
(2.2158762 -1.8827327 0.5)
(2.3449591 -1.8827327 0.5)
(2.4740421 -1.8827327 0.5)
(2.603125 -1.8827327 0.5)
(2.7322079 -1.8827327 0.5)
(2.8612908 -1.8827327 0.5)
(2.9903738 -1.8827327 0.5)
(3.1194567 -1.8827327 0.5)
(3.2485396 -1.8827327 0.5)
(3.3776226 -1.8827327 0.5)
(3.5067055 -1.8827327 0.5)
(3.6357884 -1.8827327 0.5)
(3.7648714 -1.8827327 0.5)
(3.8939543 -1.8827327 0.5)
(4.0230372 -1.8827327 0.5)
(4.1521201 -1.8827327 0.5)
(4.2812031 -1.8827327 0.5)
(4.410286 -1.8827327 0.5)
(4.5393689 -1.8827327 0.5)
(4.6684519 -1.8827327 0.5)
(4.7975348 -1.8827327 0.5)
(4.9266177 -1.8827327 0.5)
(5.0557007 -1.8827327 0.5)
(5.1847836 -1.8827327 0.5)
(5.3138665 -1.8827327 0.5)
(5.4429494 -1.8827327 0.5)
(5.5720324 -1.8827327 0.5)
(5.7011153 -1.8827327 0.5)
(5.8301982 -1.8827327 0.5)
(5.9592812 -1.8827327 0.5)
(6.0883641 -1.8827327 0.5)
(6.217447 -1.8827327 0.5)
(6.34653 -1.8827327 0.5)
(6.4756129 -1.8827327 0.5)
(6.6046958 -1.8827327 0.5)
(6.7337787 -1.8827327 0.5)
(6.8628617 -1.8827327 0.5)
(6.9919446 -1.8827327 0.5)
(7.1210275 -1.8827327 0.5)
(2.1964626 -1.6214635 0.5)
(2.3199215 -1.6214635 0.5)
(2.4433803 -1.6214635 0.5)
(2.5668392 -1.6214635 0.5)
(2.6902981 -1.6214635 0.5)
(2.8137569 -1.6214635 0.5)
(2.9372158 -1.6214635 0.5)
(3.0606746 -1.6214635 0.5)
(3.1841335 -1.6214635 0.5)
(3.3075924 -1.6214635 0.5)
(3.4310512 -1.6214635 0.5)
(3.5545101 -1.6214635 0.5)
(3.6779689 -1.6214635 0.5)
(3.8014278 -1.6214635 0.5)
(3.9248867 -1.6214635 0.5)
(4.0483455 -1.6214635 0.5)
(4.1718044 -1.6214635 0.5)
(4.2952632 -1.6214635 0.5)
(4.4187221 -1.6214635 0.5)
(4.542181 -1.6214635 0.5)
(4.6656398 -1.6214635 0.5)
(4.7890987 -1.6214635 0.5)
(4.9125576 -1.6214635 0.5)
(5.0360164 -1.6214635 0.5)
(5.1594753 -1.6214635 0.5)
(5.2829341 -1.6214635 0.5)
(5.406393 -1.6214635 0.5)
(5.5298519 -1.6214635 0.5)
(5.6533107 -1.6214635 0.5)
(5.7767696 -1.6214635 0.5)
(5.9002284 -1.6214635 0.5)
(6.0236873 -1.6214635 0.5)
(6.1471462 -1.6214635 0.5)
(6.270605 -1.6214635 0.5)
(6.3940639 -1.6214635 0.5)
(6.5175227 -1.6214635 0.5)
(6.6409816 -1.6214635 0.5)
(6.7644405 -1.6214635 0.5)
(6.8878993 -1.6214635 0.5)
(7.0113582 -1.6214635 0.5)
(2.3061302 -1.3601985 0.5)
(2.4239651 -1.3601985 0.5)
(2.5418 -1.3601985 0.5)
(2.6596349 -1.3601985 0.5)
(2.7774698 -1.3601985 0.5)
(2.8953046 -1.3601985 0.5)
(3.0131395 -1.3601985 0.5)
(3.1309744 -1.3601985 0.5)
(3.2488093 -1.3601985 0.5)
(3.3666442 -1.3601985 0.5)
(3.484479 -1.3601985 0.5)
(3.6023139 -1.3601985 0.5)
(3.7201488 -1.3601985 0.5)
(3.8379837 -1.3601985 0.5)
(3.9558186 -1.3601985 0.5)
(4.0736534 -1.3601985 0.5)
(4.1914883 -1.3601985 0.5)
(4.3093232 -1.3601985 0.5)
(4.4271581 -1.3601985 0.5)
(4.544993 -1.3601985 0.5)
(4.6628278 -1.3601985 0.5)
(4.7806627 -1.3601985 0.5)
(4.8984976 -1.3601985 0.5)
(5.0163325 -1.3601985 0.5)
(5.1341674 -1.3601985 0.5)
(5.2520022 -1.3601985 0.5)
(5.3698371 -1.3601985 0.5)
(5.487672 -1.3601985 0.5)
(5.6055069 -1.3601985 0.5)
(5.7233418 -1.3601985 0.5)
(5.8411766 -1.3601985 0.5)
(5.9590115 -1.3601985 0.5)
(6.0768464 -1.3601985 0.5)
(6.1946813 -1.3601985 0.5)
(6.3125162 -1.3601985 0.5)
(6.430351 -1.3601985 0.5)
(6.5481859 -1.3601985 0.5)
(6.6660208 -1.3601985 0.5)
(6.7838557 -1.3601985 0.5)
(6.9016906 -1.3601985 0.5)
(2.4157958 -1.0989382 0.5)
(2.5280068 -1.0989382 0.5)
(2.6402179 -1.0989382 0.5)
(2.7524289 -1.0989382 0.5)
(2.8646399 -1.0989382 0.5)
(2.9768509 -1.0989382 0.5)
(3.0890619 -1.0989382 0.5)
(3.2012729 -1.0989382 0.5)
(3.3134839 -1.0989382 0.5)
(3.4256949 -1.0989382 0.5)
(3.5379059 -1.0989382 0.5)
(3.6501169 -1.0989382 0.5)
(3.7623279 -1.0989382 0.5)
(3.8745389 -1.0989382 0.5)
(3.9867499 -1.0989382 0.5)
(4.0989609 -1.0989382 0.5)
(4.2111719 -1.0989382 0.5)
(4.3233829 -1.0989382 0.5)
(4.4355939 -1.0989382 0.5)
(4.5478049 -1.0989382 0.5)
(4.6600159 -1.0989382 0.5)
(4.7722269 -1.0989382 0.5)
(4.8844379 -1.0989382 0.5)
(4.9966489 -1.0989382 0.5)
(5.1088599 -1.0989382 0.5)
(5.2210709 -1.0989382 0.5)
(5.3332819 -1.0989382 0.5)
(5.4454929 -1.0989382 0.5)
(5.5577039 -1.0989382 0.5)
(5.6699149 -1.0989382 0.5)
(5.7821259 -1.0989382 0.5)
(5.8943369 -1.0989382 0.5)
(6.0065479 -1.0989382 0.5)
(6.1187589 -1.0989382 0.5)
(6.2309699 -1.0989382 0.5)
(6.3431809 -1.0989382 0.5)
(6.4553919 -1.0989382 0.5)
(6.5676029 -1.0989382 0.5)
(6.679814 -1.0989382 0.5)
(6.792025 -1.0989382 0.5)
(2.5254592 -0.83768349 0.5)
(2.6320464 -0.83768349 0.5)
(2.7386336 -0.83768349 0.5)
(2.8452209 -0.83768349 0.5)
(2.9518081 -0.83768349 0.5)
(3.0583954 -0.83768349 0.5)
(3.1649826 -0.83768349 0.5)
(3.2715699 -0.83768349 0.5)
(3.3781571 -0.83768349 0.5)
(3.4847443 -0.83768349 0.5)
(3.5913316 -0.83768349 0.5)
(3.6979188 -0.83768349 0.5)
(3.8045061 -0.83768349 0.5)
(3.9110933 -0.83768349 0.5)
(4.0176806 -0.83768349 0.5)
(4.1242678 -0.83768349 0.5)
(4.230855 -0.83768349 0.5)
(4.3374423 -0.83768349 0.5)
(4.4440295 -0.83768349 0.5)
(4.5506168 -0.83768349 0.5)
(4.657204 -0.83768349 0.5)
(4.7637913 -0.83768349 0.5)
(4.8703785 -0.83768349 0.5)
(4.9769658 -0.83768349 0.5)
(5.083553 -0.83768349 0.5)
(5.1901402 -0.83768349 0.5)
(5.2967275 -0.83768349 0.5)
(5.4033147 -0.83768349 0.5)
(5.509902 -0.83768349 0.5)
(5.6164892 -0.83768349 0.5)
(5.7230765 -0.83768349 0.5)
(5.8296637 -0.83768349 0.5)
(5.9362509 -0.83768349 0.5)
(6.0428382 -0.83768349 0.5)
(6.1494254 -0.83768349 0.5)
(6.2560127 -0.83768349 0.5)
(6.3625999 -0.83768349 0.5)
(6.4691872 -0.83768349 0.5)
(6.5757744 -0.83768349 0.5)
(6.6823616 -0.83768349 0.5)
(2.6351198 -0.57643516 0.5)
(2.7360834 -0.57643516 0.5)
(2.837047 -0.57643516 0.5)
(2.9380106 -0.57643516 0.5)
(3.0389743 -0.57643516 0.5)
(3.1399379 -0.57643516 0.5)
(3.2409015 -0.57643516 0.5)
(3.3418651 -0.57643516 0.5)
(3.4428287 -0.57643516 0.5)
(3.5437924 -0.57643516 0.5)
(3.644756 -0.57643516 0.5)
(3.7457196 -0.57643516 0.5)
(3.8466832 -0.57643516 0.5)
(3.9476469 -0.57643516 0.5)
(4.0486105 -0.57643516 0.5)
(4.1495741 -0.57643516 0.5)
(4.2505377 -0.57643516 0.5)
(4.3515013 -0.57643516 0.5)
(4.452465 -0.57643516 0.5)
(4.5534286 -0.57643516 0.5)
(4.6543922 -0.57643516 0.5)
(4.7553558 -0.57643516 0.5)
(4.8563195 -0.57643516 0.5)
(4.9572831 -0.57643516 0.5)
(5.0582467 -0.57643516 0.5)
(5.1592103 -0.57643516 0.5)
(5.2601739 -0.57643516 0.5)
(5.3611376 -0.57643516 0.5)
(5.4621012 -0.57643516 0.5)
(5.5630648 -0.57643516 0.5)
(5.6640284 -0.57643516 0.5)
(5.7649921 -0.57643516 0.5)
(5.8659557 -0.57643516 0.5)
(5.9669193 -0.57643516 0.5)
(6.0678829 -0.57643516 0.5)
(6.1688465 -0.57643516 0.5)
(6.2698102 -0.57643516 0.5)
(6.3707738 -0.57643516 0.5)
(6.4717374 -0.57643516 0.5)
(6.572701 -0.57643516 0.5)
(2.7447772 -0.31519439 0.5)
(2.8401174 -0.31519439 0.5)
(2.9354575 -0.31519439 0.5)
(3.0307977 -0.31519439 0.5)
(3.1261379 -0.31519439 0.5)
(3.221478 -0.31519439 0.5)
(3.3168182 -0.31519439 0.5)