/*--------------------------------*- C++ -*----------------------------------*\
  =========                 |
  \\      /  F ield         | OpenFOAM: The Open Source CFD Toolbox
   \\    /   O peration     | Website:  https://openfoam.org
    \\  /    A nd           | Version:  10
     \\/     M anipulation  |
\*---------------------------------------------------------------------------*/
FoamFile
{
    format      ascii;
    class       surfaceScalarField;
    location    "0.896456";
    object      phi;
}
// * * * * * * * * * * * * * * * * * * * * * * * * * * * * * * * * * * * * * //

dimensions      [1 0 -1 0 0 0 0];

internalField   nonuniform List<scalar> 
31672
(
0.000468707
-6.74109e-05
0.000461752
-6.67493e-05
0.000454677
-6.5834e-05
0.000447278
-6.49369e-05
0.000439636
-6.38279e-05
0.000431776
-6.27409e-05
0.000423685
-6.153e-05
0.000415451
-6.0339e-05
0.000407071
-5.91121e-05
0.000398591
-5.78857e-05
0.000390049
-5.66726e-05
0.000381488
-5.54892e-05
0.000372954
-5.43509e-05
0.000364483
-5.32714e-05
0.000356111
-5.22637e-05
0.000347873
-5.13396e-05
0.000339797
-5.05092e-05
0.000331912
-4.97819e-05
0.000324251
-4.91656e-05
0.000316839
-4.86674e-05
0.000309705
-4.82917e-05
0.000302871
-4.80434e-05
0.000296355
-4.79224e-05
0.000290172
-4.793e-05
0.000284333
-4.80623e-05
0.00027885
-4.83165e-05
0.000273727
-4.86863e-05
0.000268978
-4.91635e-05
0.000264602
-4.97411e-05
0.000260608
-5.04043e-05
0.000257
-5.1145e-05
0.00025378
-5.19434e-05
0.000250957
-5.27871e-05
0.000248532
-5.36555e-05
0.000246509
-5.45302e-05
0.000244895
-5.53882e-05
0.00024369
-5.62088e-05
0.000242897
-5.69628e-05
0.000242521
-5.76299e-05
0.000242559
-5.81753e-05
0.000243018
-5.85736e-05
0.000243896
-5.87963e-05
0.000245193
-5.88096e-05
0.000246905
-5.85802e-05
0.000249027
-5.80761e-05
0.000251551
-5.72628e-05
0.000254467
-5.61048e-05
0.00025776
-5.45728e-05
0.000261414
-5.26289e-05
0.00026541
-5.02445e-05
0.000269723
-4.73869e-05
0.000274331
-4.40312e-05
0.0002792
-4.01519e-05
-3.57287e-05
0.000284299
0.000469812
-5.9743e-05
0.000463092
-5.88513e-05
0.000456048
-5.78449e-05
0.000448686
-5.67354e-05
0.000441116
-5.55874e-05
0.000433259
-5.43785e-05
0.000425217
-5.31605e-05
0.000416986
-5.19294e-05
0.000408579
-5.07149e-05
0.00040007
-4.95285e-05
0.000391488
-4.83879e-05
0.000382873
-4.73057e-05
0.000374268
-4.62964e-05
0.000365712
-4.53715e-05
0.000357245
-4.45434e-05
0.000348897
-4.38226e-05
0.000340706
-4.32182e-05
0.000332704
-4.2739e-05
0.000324922
-4.23915e-05
0.000317389
-4.21814e-05
0.000310134
-4.21121e-05
0.000303179
-4.21861e-05
0.000296543
-4.24031e-05
0.000290243
-4.27623e-05
0.000284291
-4.32597e-05
0.000278699
-4.38907e-05
0.000273474
-4.46484e-05
0.00026863
-4.55243e-05
0.000264169
-4.65098e-05
0.000260103
-4.75908e-05
0.000256436
-4.8757e-05
0.000253172
-4.99885e-05
0.00025032
-5.12724e-05
0.000247883
-5.2587e-05
0.000245867
-5.3913e-05
0.00024428
-5.52275e-05
0.000243123
-5.65067e-05
0.000242407
-5.7724e-05
0.000242132
-5.88562e-05
0.000242295
-5.98652e-05
0.000242911
-6.07296e-05
0.000243977
-6.14158e-05
0.000245489
-6.18867e-05
0.000247448
-6.21112e-05
0.000249848
-6.20523e-05
0.000252679
-6.16738e-05
0.000255936
-6.09403e-05
0.000259599
-5.98138e-05
0.000263653
-5.82612e-05
0.000268074
-5.62456e-05
0.000272837
-5.37326e-05
0.000277916
-5.06946e-05
0.000283275
-4.71027e-05
-4.29339e-05
0.000288879
0.000471213
-5.21754e-05
0.000464504
-5.10842e-05
0.000457546
-4.98527e-05
0.000450239
-4.86262e-05
0.00044264
-4.73138e-05
0.000434816
-4.60291e-05
0.000426736
-4.47532e-05
0.000418456
-4.34918e-05
0.000410022
-4.22837e-05
0.000401458
-4.11356e-05
0.000392808
-4.00652e-05
0.000384114
-3.90841e-05
0.000375413
-3.82049e-05
0.000366746
-3.74374e-05
0.000358154
-3.67929e-05
0.000349675
-3.62804e-05
0.000341349
-3.59086e-05
0.000333213
-3.56844e-05
0.000325297
-3.56129e-05
0.000317632
-3.5698e-05
0.000310245
-3.59417e-05
0.000303157
-3.63447e-05
0.000296389
-3.69058e-05
0.00028996
-3.76228e-05
0.000283881
-3.84911e-05
0.000278168
-3.95045e-05
0.000272831
-4.06565e-05
0.000267883
-4.19371e-05
0.000263331
-4.3337e-05
0.000259187
-4.4842e-05
0.000255453
-4.64397e-05
0.000252139
-4.81115e-05
0.000249253
-4.9843e-05
0.000246799
-5.16112e-05
0.000244788
-5.33972e-05
0.000243225
-5.51776e-05
0.000242116
-5.6926e-05
0.000241475
-5.86196e-05
0.000241298
-6.02268e-05
0.00024159
-6.17154e-05
0.000242367
-6.30604e-05
0.000243623
-6.42247e-05
0.000245358
-6.51715e-05
0.000247572
-6.58676e-05
0.000250257
-6.62724e-05
0.00025341
-6.63487e-05
0.000257019
-6.60583e-05
0.000261069
-6.53598e-05
0.000265541
-6.4218e-05
0.000270411
-6.25902e-05
0.000275647
-6.04422e-05
0.000281225
-5.77401e-05
0.000287103
-5.44523e-05
-5.05499e-05
0.000293241
0.000472694
-4.46868e-05
0.00046604
-4.33505e-05
0.000459158
-4.19109e-05
0.000451823
-4.05057e-05
0.000444265
-3.90309e-05
0.000436367
-3.76724e-05
0.000428205
-3.62727e-05
0.000419888
-3.49984e-05
0.000411363
-3.37884e-05
0.000402708
-3.26768e-05
0.000393963
-3.1675e-05
0.000385163
-3.07952e-05
0.000376345
-3.00475e-05
0.000367547
-2.94417e-05
0.000358815
-2.89862e-05
0.000350192
-2.86894e-05
0.000341723
-2.85576e-05
0.00033344
-2.85964e-05
0.000325375
-2.88086e-05
0.00031756
-2.91962e-05
0.000310021
-2.97602e-05
0.000302782
-3.04994e-05
0.000295867
-3.14123e-05
0.000289294
-3.24943e-05
0.000283079
-3.37409e-05
0.000277237
-3.51443e-05
0.000271783
-3.66978e-05
0.000266726
-3.83902e-05
0.000262079
-4.02115e-05
0.000257848
-4.21473e-05
0.000254043
-4.41841e-05
0.000250674
-4.63038e-05
0.000247747
-4.84904e-05
0.000245272
-5.07209e-05
0.000243261
-5.29764e-05
0.000241718
-5.52329e-05
0.00024066
-5.74624e-05
0.000240091
-5.96444e-05
0.000240012
-6.1739e-05
0.000240436
-6.37247e-05
0.000241372
-6.55646e-05
0.000242821
-6.72242e-05
0.000244783
-6.86662e-05
0.000247256
-6.98524e-05
0.000250237
-7.07427e-05
0.000253719
-7.12945e-05
0.000257693
-7.14734e-05
0.000262151
-7.12253e-05
0.000267053
-7.0511e-05
0.000272386
-6.92945e-05
0.000278121
-6.75356e-05
0.000284218
-6.51902e-05
0.000290644
-6.22279e-05
-5.8611e-05
0.000297356
0.000474357
-3.72591e-05
0.000467789
-3.56368e-05
0.000460841
-3.3962e-05
0.000453523
-3.23473e-05
0.000445881
-3.07338e-05
0.000437914
-2.92171e-05
0.000429712
-2.77563e-05
0.000421271
-2.64249e-05
0.000412644
-2.52058e-05
0.00040387
-2.41232e-05
0.00039499
-2.31881e-05
0.000386041
-2.24091e-05
0.00037707
-2.17958e-05
0.000368122
-2.13559e-05
0.00035924
-2.10965e-05
0.000350465
-2.10232e-05
0.000341833
-2.11402e-05
0.000333381
-2.145e-05
0.000325144
-2.19543e-05
0.000317158
-2.26533e-05
0.00030945
-2.35463e-05
0.000302049
-2.46312e-05
0.000294977
-2.59044e-05
0.000288253
-2.73605e-05
0.000281894
-2.89936e-05
0.000275917
-3.07955e-05
0.000270334
-3.27583e-05
0.000265161
-3.48702e-05
0.000260407
-3.71206e-05
0.000256086
-3.94948e-05
0.000252203
-4.19791e-05
0.000248772
-4.45541e-05
0.000245801
-4.72047e-05
0.000243301
-4.99069e-05
0.000241286
-5.26425e-05
0.00023976
-5.53852e-05
0.000238746
-5.81089e-05
0.000238244
-6.0791e-05
0.000238263
-6.33898e-05
0.000238818
-6.58866e-05
0.000239914
-6.82395e-05
0.000241555
-7.04134e-05
0.000243744
-7.23693e-05
0.000246481
-7.40675e-05
0.000249762
-7.54682e-05
0.000253591
-7.65274e-05
0.000257939
-7.71867e-05
0.000262801
-7.74118e-05
0.000268155
-7.71596e-05
0.000273978
-7.63838e-05
0.00028023
-7.5037e-05
0.000286885
-7.30745e-05
0.000293896
-7.04624e-05
-6.71495e-05
0.000301213
0.000476263
-2.98945e-05
0.000469702
-2.79124e-05
0.0004627
-2.60071e-05
0.000455305
-2.41047e-05
0.000447583
-2.23536e-05
0.000439514
-2.06619e-05
0.000431189
-1.91219e-05
0.000422619
-1.7729e-05
0.000413848
-1.64966e-05
0.000404917
-1.54408e-05
0.000395866
-1.45713e-05
0.000386745
-1.38962e-05
0.000377599
-1.34221e-05
0.000368474
-1.31547e-05
0.000359413
-1.3098e-05
0.000350458
-1.32553e-05
0.000341645
-1.36288e-05
0.000333012
-1.42192e-05
0.000324594
-1.50255e-05
0.000316426
-1.60456e-05
0.000308537
-1.72778e-05
0.000300959
-1.87184e-05
0.000293715
-2.03619e-05
0.000286826
-2.22019e-05
0.000280311
-2.42312e-05
0.000274188
-2.6441e-05
0.000268471
-2.88219e-05
0.000263173
-3.13623e-05
0.000258307
-3.40503e-05
0.000253887
-3.68716e-05
0.00024992
-3.9811e-05
0.000246421
-4.28509e-05
0.0002434
-4.5974e-05
0.000240869
-4.91586e-05
0.000238845
-5.23832e-05
0.000237335
-5.56248e-05
0.00023636
-5.88554e-05
0.000235923
-6.20504e-05
0.000236032
-6.51699e-05
0.000236714
-6.81938e-05
0.000237967
-7.10781e-05
0.000239797
-7.37863e-05
0.000242211
-7.62782e-05
0.000245212
-7.85173e-05
0.000248807
-8.04532e-05
0.000252973
-8.20306e-05
0.000257707
-8.32111e-05
0.000262994
-8.39431e-05
0.000268816
-8.41811e-05
0.000275145
-8.38733e-05
0.00028194
-8.29694e-05
0.000289177
-8.14165e-05
0.000296797
-7.91816e-05
-7.61917e-05
0.000304749
0.000478418
-2.24702e-05
0.000471765
-2.01737e-05
0.000464694
-1.79338e-05
0.000457225
-1.58045e-05
0.000449368
-1.3824e-05
0.000441183
-1.1985e-05
0.000432699
-1.0334e-05
0.000423958
-8.8759e-06
0.000415
-7.62373e-06
0.000405873
-6.5913e-06
0.000396623
-5.78753e-06
0.000387302
-5.21832e-06
0.000377954
-4.88791e-06
0.000368624
-4.79929e-06
0.000359352
-4.95377e-06
0.000350182
-5.35208e-06
0.000341154
-5.99356e-06
0.000332309
-6.87754e-06
0.000323686
-7.99796e-06
0.000315316
-9.35007e-06
0.000307234
-1.09321e-05
0.00029947
-1.27394e-05
0.000292048
-1.47638e-05
0.00028499
-1.6999e-05
0.000278315
-1.94355e-05
0.00027204
-2.20638e-05
0.000266181
-2.48729e-05
0.000260753
-2.78514e-05
0.00025577
-3.09861e-05
0.000251244
-3.42633e-05
0.000247188
-3.76671e-05
0.000243614
-4.11811e-05
0.000240538
-4.47856e-05
0.00023797
-4.84634e-05
0.000235928
-5.21871e-05
0.000234427
-5.59396e-05
0.000233482
-5.9689e-05
0.0002331
-6.34105e-05
0.000233296
-6.70672e-05
0.000234096
-7.06362e-05
0.000235498
-7.40708e-05
0.000237515
-7.73366e-05
0.000240152
-8.03926e-05
0.000243427
-8.31977e-05
0.000247317
-8.56882e-05
0.000251834
-8.78204e-05
0.000256964
-8.95529e-05
0.000262689
-9.08251e-05
0.00026899
-9.15828e-05
0.00027584
-9.17833e-05
0.000283192
-9.13502e-05
0.00029103
-9.02406e-05
0.000299274
-8.84046e-05
-8.57475e-05
0.000307886
0.000480799
-1.50408e-05
0.000474043
-1.23462e-05
0.000466897
-9.76111e-06
0.000459276
-7.3735e-06
0.000451243
-5.13147e-06
0.000442886
-3.12533e-06
0.000434196
-1.34352e-06
0.000425236
1.88616e-07
0.000416055
1.46183e-06
0.000406694
2.46827e-06
0.00039721
3.20225e-06
0.000387655
3.65989e-06
0.000378075
3.83946e-06
0.00036851
3.74093e-06
0.000359006
3.36557e-06
0.000349602
2.71611e-06
0.00034034
1.79612e-06
0.000331262
6.10821e-07
0.00032241
-8.33832e-07
0.000313824
-2.53367e-06
0.00030554
-4.48422e-06
0.000297586
-6.67779e-06
0.000289983
-9.09751e-06
0.00028275
-1.17384e-05
0.000275906
-1.45914e-05
0.000269472
-1.76473e-05
0.000263464
-2.08948e-05
0.000257897
-2.43209e-05
0.000252788
-2.79123e-05
0.00024815
-3.16545e-05
0.000243999
-3.55324e-05
0.000240344
-3.95292e-05
0.000237207
-4.36255e-05
0.000234595
-4.78051e-05
0.000232526
-5.20392e-05
0.000231022
-5.63134e-05
0.000230094
-6.05944e-05
0.000229755
-6.48574e-05
0.000230029
-6.90685e-05
0.000230935
-7.32013e-05
0.00023248
-7.72083e-05
0.000234678
-8.10567e-05
0.00023754
-8.47084e-05
0.000241067
-8.80959e-05
0.000245264
-9.1179e-05
0.000250132
-9.39029e-05
0.000255655
-9.62188e-05
0.000261819
-9.80676e-05
0.00026862
-9.93881e-05
0.000275997
-0.000100127
0.000283928
-0.000100194
0.000292389
-9.95558e-05
0.000301216
-9.81146e-05
-9.57819e-05
0.000310476
0.00048342
-7.49254e-06
0.000476592
-4.41195e-06
0.000469245
-1.42748e-06
0.000461431
1.27011e-06
0.000453219
3.74367e-06
0.000444626
5.94943e-06
0.000435694
7.87573e-06
0.000426472
9.49783e-06
0.00041702
1.08007e-05
0.000407392
1.1783e-05
0.000397638
1.24435e-05
0.000387808
1.27826e-05
0.00037795
1.28024e-05
0.000368111
1.25062e-05
0.000358336
1.18986e-05
0.000348672
1.09854e-05
0.00033916
9.77346e-06
0.000329847
8.27039e-06
0.000320775
6.48111e-06
0.000311979
4.41389e-06
0.000303487
2.08275e-06
0.000295319
-4.98671e-07
0.000287508
-3.32553e-06
0.000280083
-6.39193e-06
0.000273062
-9.67847e-06
0.000266462
-1.31747e-05
0.000260298
-1.68709e-05
0.000254588
-2.07546e-05
0.000249348
-2.48125e-05
0.000244593
-2.90293e-05
0.000240339
-3.33909e-05
0.000236596
-3.78789e-05
0.000233387
-4.24772e-05
0.000230719
-4.71661e-05
0.000228613
-5.19224e-05
0.000227094
-5.6728e-05
0.000226173
-6.15545e-05
0.000225868
-6.63746e-05
0.000226208
-7.11587e-05
0.00022721
-7.58742e-05
0.000228885
-8.04791e-05
0.000231255
-8.49391e-05
0.000234327
-8.92063e-05
0.000238104
-9.32167e-05
0.000242605
-9.69221e-05
0.000247818
-0.000100279
0.000253743
-0.00010322
0.000260358
-0.000105693
0.000267659
-0.0001076
0.00027557
-0.000108929
0.000284071
-0.000109488
0.000293082
-0.000109343
0.000302459
-0.000108221
-0.000106241
0.000312208
0.000486398
1.59561e-07
0.000479382
3.73659e-06
0.000471865
7.08878e-06
0.000463822
1.01296e-05
0.000455306
1.29126e-05
0.000446407
1.532e-05
0.000437174
1.73883e-05
0.000427656
1.9097e-05
0.000417908
2.04285e-05
0.000407976
2.13857e-05
0.000397916
2.19697e-05
0.000387783
2.21843e-05
0.000377626
2.2035e-05
0.000367493
2.15294e-05
0.000357427
2.06755e-05
0.000347476
1.94826e-05
0.000337688
1.79621e-05
0.000328112
1.61237e-05
0.000318782
1.39783e-05
0.00030973
1.1537e-05
0.000300989
8.8142e-06
0.000292595
5.82051e-06
0.000284582
2.56379e-06
0.000276961
-9.33968e-07
0.000269756
-4.67004e-06
0.000262986
-8.6247e-06
0.000256664
-1.27841e-05
0.000250808
-1.71369e-05
0.000245433
-2.16714e-05
0.000240559
-2.63726e-05
0.000236197
-3.12268e-05
0.000232361
-3.62149e-05
0.00022907
-4.13228e-05
0.000226334
-4.65295e-05
0.000224179
-5.18172e-05
0.000222629
-5.71648e-05
0.000221703
-6.25498e-05
0.000221417
-6.79433e-05
0.000221805
-7.3318e-05
0.000222888
-7.86385e-05
0.000224682
-8.38675e-05
0.000227205
-8.8969e-05
0.000230471
-9.38783e-05
0.000234496
-9.85487e-05
0.00023929
-0.000102924
0.000244853
-0.000106953
0.000251189
-0.000110559
0.000258223
-0.000113697
0.00026604
-0.000116211
0.000274446
-0.000118154
0.000283452
-0.000119203
0.000292906
-0.000119475
0.000302643
-0.00011861
-0.000116817
0.000312619
0.000489744
7.9916e-06
0.00048255
1.20757e-05
0.000474675
1.58853e-05
0.000466313
1.9335e-05
0.000457519
2.23598e-05
0.000448278
2.50411e-05
0.000438707
2.72375e-05
0.00042883
2.90462e-05
0.000418714
3.04075e-05
0.000408418
3.13368e-05
0.000397993
3.18361e-05
0.000387501
3.19145e-05
0.000376994
3.15821e-05
0.000366522
3.08513e-05
0.000356133
2.97344e-05
0.000345881
2.82448e-05
0.000335811
2.6397e-05
0.000325958
2.42053e-05
0.000316357
2.16843e-05
0.000307047
1.8848e-05
0.000298073
1.57121e-05
0.000289465
1.22905e-05
0.000281243
8.59712e-06
0.000273426
4.64571e-06
0.000266025
4.52354e-07
0.000259064
-3.97137e-06
0.000252568
-8.60913e-06
0.000246559
-1.3446e-05
0.000241049
-1.847e-05
0.000236051
-2.36666e-05
0.000231574
-2.90216e-05
0.000227632
-3.45182e-05
0.000224244
-4.01411e-05
0.000221427
-4.58746e-05
0.000219207
-5.17005e-05
0.000217611
-5.76008e-05
0.000216661
-6.35574e-05
0.000216374
-6.9539e-05
0.000216792
-7.55237e-05
0.000217937
-8.14741e-05
0.000219829
-8.73542e-05
0.000222486
-9.31215e-05
0.000225936
-9.87159e-05
0.000230194
-0.000104086
0.000235281
-0.000109173
0.000241168
-0.000113921
0.000247907
-0.000118233
0.000255364
-0.000122074
0.000263611
-0.00012521
0.00027246
-0.000127711
0.000281816
-0.000129185
0.000291463
-0.000129692
0.000301263
-0.000128968
-0.000127114
0.000311085
0.000493445
1.60468e-05
0.000485857
2.0771e-05
0.000477765
2.49618e-05
0.00046905
2.88365e-05
0.000459842
3.22128e-05
0.000450224
3.51027e-05
0.000440219
3.75164e-05
0.000429932
3.94026e-05
0.000419402
4.07933e-05
0.000408694
4.16861e-05
0.000397869
4.20896e-05
0.000386985
4.20194e-05
0.000376095
4.14872e-05
0.000365256
4.05126e-05
0.00035452
3.9113e-05
0.000343935
3.73081e-05
0.000333542
3.51129e-05
0.000323386
3.25478e-05
0.000313503
2.963e-05
0.000303931
2.63786e-05
0.000294704
2.2811e-05
0.000285853
1.89438e-05
0.000277396
1.4793e-05
0.000269352
1.03745e-05
0.000261746
5.7044e-06
0.000254603
7.967e-07
0.00024795
-4.33463e-06
0.000241799
-9.66913e-06
0.000236158
-1.51939e-05
0.000231033
-2.08948e-05
0.000226436
-2.67575e-05
0.000222378
-3.27677e-05
0.000218884
-3.89121e-05
0.000215974
-4.51773e-05
0.00021367
-5.1551e-05
0.000212012
-5.80113e-05
0.000211017
-6.45528e-05
0.00021071
-7.11375e-05
0.000211137
-7.77521e-05
0.000212321
-8.43556e-05
0.000214287
-9.09146e-05
0.000217048
-9.73845e-05
0.000220666
-0.000103699
0.00022514
-0.000109814
0.000230492
-0.000115657
0.000236696
-0.000121162
0.0002438
-0.000126236
0.000251641
-0.000130757
0.000260229
-0.000134539
0.000269321
-0.000137426
0.000278759
-0.000139157
0.000288173
-0.000139595
0.000297699
-0.000139049
-0.000136386
0.000306515
0.000497456
2.44405e-05
0.00048956
2.97223e-05
0.000480984
3.44977e-05
0.000471853
3.87674e-05
0.000462205
4.24978e-05
0.000452119
4.56483e-05
0.000441675
4.82267e-05
0.000430926
5.02144e-05
0.000419948
5.16317e-05
0.000408796
5.24814e-05
0.000397535
5.27784e-05
0.000386223
5.25425e-05
0.000374917
5.17949e-05
0.000363677
5.05563e-05
0.000352559
4.88529e-05
0.000341607
4.67065e-05
0.000330872
4.4142e-05
0.000320389
4.11805e-05
0.000310199
3.78433e-05
0.000300349
3.41541e-05
0.000290865
3.01326e-05
0.000281768
2.57983e-05
0.000273083
2.11691e-05
0.000264837
1.62636e-05
0.000257045
1.10995e-05
0.000249724
5.69225e-06
0.00024289
6.08128e-08
0.000236565
-5.782e-06
0.000230762
-1.18171e-05
0.00022549
-1.80326e-05
0.000220759
-2.44123e-05
0.000216582
-3.09433e-05
0.000212974
-3.76146e-05
0.000209966
-4.44174e-05
0.000207569
-5.13413e-05
0.000205826
-5.8372e-05
0.000204767
-6.55036e-05
0.000204411
-7.27091e-05
0.000204813
-7.99673e-05
0.000205998
-8.72506e-05
0.000208004
-9.45171e-05
0.00021085
-0.000101721
0.000214604
-0.000108804
0.000219264
-0.000115708
0.000224843
-0.000122366
0.000231361
-0.000128667
0.000238747
-0.000134543
0.000246857
-0.000139642
0.000255625
-0.000144004
0.000264502
-0.000146853
0.000273825
-0.000148986
0.00028273
-0.000148943
0.000291721
-0.000148607
-0.000145077
0.000299743
0.00050159
3.31612e-05
0.000493284
3.90753e-05
0.00048428
4.44457e-05
0.000474681
4.91595e-05
0.000464554
5.3261e-05
0.000453973
5.66905e-05
0.000443023
5.94494e-05
0.000431765
6.15365e-05
0.000420278
6.29676e-05
0.000408628
6.37627e-05
0.000396877
6.39376e-05
0.000385096
6.35199e-05
0.000373342
6.25356e-05
0.000361678
6.10109e-05
0.000350158
5.89796e-05
0.000338832
5.64686e-05
0.000327746
5.35078e-05
0.000316935
5.01278e-05
0.000306439
4.63469e-05
0.000296295
4.21968e-05
0.000286534
3.7699e-05
0.000277179
3.28756e-05
0.000268253
2.77473e-05
0.000259785
2.2335e-05
0.000251798
1.66579e-05
0.000244304
1.07349e-05
0.00023731
4.58692e-06
0.000230832
-1.78206e-06
0.000224875
-8.33538e-06
0.000219449
-1.50685e-05
0.000214573
-2.19699e-05
0.000210258
-2.90253e-05
0.000206527
-3.62262e-05
0.000203393
-4.35665e-05
0.000200881
-5.10412e-05
0.000199031
-5.86448e-05
0.00019787
-6.63739e-05
0.000197431
-7.42084e-05
0.000197769
-8.21326e-05
0.000198924
-9.01163e-05
0.000200923
-9.81211e-05
0.000203816
-0.000106103
0.000207663
-0.000113999
0.000212484
-0.000121744
0.000218268
-0.000129277
0.000225045
-0.000136387
0.000232581
-0.000143032
0.000240788
-0.000148545
0.000249314
-0.000153285
0.00025769
-0.000155813
0.000266178
-0.000157989
0.000273701
-0.00015688
0.000282588
-0.000158173
-0.000155567
0.000291545
0.00050528
4.21906e-05
0.000496526
4.88581e-05
0.000487125
5.47616e-05
0.000477069
6.00367e-05
0.000466475
6.45017e-05
0.000455391
6.82296e-05
0.00044392
7.11784e-05
0.000432138
7.33672e-05
0.000420135
7.48154e-05
0.000407984
7.55438e-05
0.000395751
7.55881e-05
0.000383505
7.49718e-05
0.000371307
7.37336e-05
0.000359219
7.19014e-05
0.000347293
6.95195e-05
0.000335575
6.66198e-05
0.000324124
6.32383e-05
0.000312969
5.94087e-05
0.000302152
5.51628e-05
0.000291715
5.05269e-05
0.000281673
4.55295e-05
0.000272057
4.01943e-05
0.000262899
3.45458e-05
0.000254221
2.86061e-05
0.000246034
2.23956e-05
0.00023835
1.59347e-05
0.000231189
9.24482e-06
0.000224549
2.3503e-06
0.000218454
-4.73894e-06
0.0002129
-1.19944e-05
0.000207889
-1.9417e-05
0.000203432
-2.69941e-05
0.000199548
-3.4722e-05
0.000196262
-4.25934e-05
0.000193599
-5.06192e-05
0.000191605
-5.87906e-05
0.000190305
-6.71232e-05
0.000189745
-7.55933e-05
0.000189977
-8.41993e-05
0.000191043
-9.2904e-05
0.000192996
-0.00010168
0.000195888
-0.000110474
0.000199776
-0.000119236
0.000204714
-0.000127877
0.00021062
-0.000136325
0.000217497
-0.000144208
0.000225026
-0.000151484
0.00023285
-0.000157091
0.000240562
-0.000161805
0.000247814
-0.000163668
0.000255716
-0.00016617
0.000263522
-0.000166535
0.000272162
-0.000168313
-0.000188651
0.000300646
0.000507603
5.15775e-05
0.000498551
5.87862e-05
0.000488726
6.55482e-05
0.000478334
7.11759e-05
0.000467319
7.61445e-05
0.000455832
8.01656e-05
0.000443931
8.33308e-05
0.000431711
8.56401e-05
0.00041926
8.7109e-05
0.000406653
8.77837e-05
0.000393974
8.76906e-05
0.000381284
8.68808e-05
0.000368657
8.53694e-05
0.000356149
8.32169e-05
0.000343825
8.04611e-05
0.000331737
7.71558e-05
0.00031992
7.33311e-05
0.000308427
6.90329e-05
0.000297303
6.42951e-05
0.000286566
5.91566e-05
0.000276248
5.36344e-05
0.000266381
4.77669e-05
0.000256992
4.15766e-05
0.000248098
3.50883e-05
0.000239704
2.83251e-05
0.000231824
2.131e-05
0.000224477
1.40684e-05
0.000217681
6.62389e-06
0.000211439
-1.01162e-06
0.000205748
-8.80147e-06
0.000200601
-1.67471e-05
0.000196009
-2.48415e-05
0.000191979
-3.30857e-05
0.000188538
-4.14785e-05
0.00018571
-5.00408e-05
0.000183537
-5.87742e-05
0.000182059
-6.77001e-05
0.000181317
-7.68104e-05
0.000181377
-8.60994e-05
0.000182295
-9.55457e-05
0.000184123
-0.000105114
0.000186923
-0.000114767
0.000190786
-0.000124439
0.000195753
-0.000134028
0.000201651
-0.000143373
0.000208406
-0.000151897
0.000215479
-0.00015949
0.000222305
-0.000164644
0.000228622
-0.00016932
0.000234863
-0.000170991
0.000246904
-0.000178481
0.00025391
-0.000182802
0.000304594
-0.000223245
-0.000261317
0.000353227
0.000507353
6.06306e-05
0.00049791
6.90747e-05
0.000487819
7.62028e-05
0.000477009
8.26335e-05
0.000465779
8.79156e-05
0.000454087
9.22645e-05
0.000441975
9.56672e-05
0.000429517
9.81745e-05
0.000416839
9.96228e-05
0.000403963
0.000100324
0.000391012
0.000100085
0.000378014
9.91094e-05
0.000365046
9.7352e-05
0.000352204
9.48867e-05
0.000339541
9.17594e-05
0.000327135
8.80365e-05
0.000315008
8.37589e-05
0.000303207
7.89801e-05
0.00029179
7.37345e-05
0.000280779
6.80748e-05
0.000270197
6.20159e-05
0.000260079
5.55976e-05
0.000250454
4.88471e-05
0.000241341
4.17903e-05
0.000232751
3.4453e-05
0.000224703
2.68627e-05
0.000217208
1.90485e-05
0.000210274
1.10362e-05
0.000203886
2.85756e-06
0.000198061
-5.48148e-06
0.000192777
-1.39501e-05
0.000188036
-2.25531e-05
0.000183845
-3.1298e-05
0.000180223
-4.0193e-05
0.000177199
-4.92664e-05
0.000174805
-5.85394e-05
0.000173082
-6.80361e-05
0.000172085
-7.77692e-05
0.000171883
-8.77416e-05
0.000172543
-9.79313e-05
0.000174145
-0.000108323
0.000176779
-0.000118882
0.000180526
-0.000129527
0.000185381
-0.000140078
0.000191085
-0.000150196
0.000197304
-0.000159069
0.000203224
-0.000166468
0.000208663
-0.000170874
0.000213412
-0.000177057
0.00022467
-0.000184998
0.000246547
-0.00021068
0.000304264
-0.000250884
0.000358812
-0.000291108
-0.000288488
0.000383954
0.000503514
7.03099e-05
0.000493444
7.90681e-05
0.000482887
8.68908e-05
0.000472046
9.36975e-05
0.00046083
9.94052e-05
0.000449149
0.000104124
0.000437234
0.000107752
0.000424709
0.000110477
0.00041201
0.000112287
0.00039913
0.00011276
0.000386103
0.000112647
0.000373081
0.000111396
0.000360027
0.000109489
0.000347048
0.000106711
0.000334188
0.000103269
0.000321549
9.91535e-05
0.000309199
9.44316e-05
0.00029716
8.91888e-05
0.000285512
8.34339e-05
0.000274253
7.72569e-05
0.000263445
7.06461e-05
0.000253109
6.3676e-05
0.000243275
5.63523e-05
0.00023396
4.87123e-05
0.000225181
4.07838e-05
0.000216962
3.25985e-05
0.000209315
2.41916e-05
0.000202244
1.5597e-05
0.00019574
6.85192e-06
0.000189803
-2.03875e-06
0.000184401
-1.10246e-05
0.000179521
-2.01185e-05
0.000175163
-2.9335e-05
0.000171331
-3.86928e-05
0.000168051
-4.82335e-05
0.00016535
-5.79979e-05
0.000163276
-6.80264e-05
0.000161909
-7.8357e-05
0.000161318
-8.89939e-05
0.000161603
-9.99378e-05
0.00016287
-0.000111185
0.000165227
-0.000122702
0.000168724
-0.000134368
0.000173293
-0.00014582
0.000178359
-0.000156406
0.000183466
-0.00016524
0.000187703
-0.000172168
0.000194546
-0.000179365
0.000201756
-0.000194671
0.000235492
-0.000242859
0.000279937
-0.000282553
0.000322576
-0.000304801
0.000337907
-0.000311983
-0.000313959
0.000360983
0.000500843
8.21979e-05
0.000486658
9.08437e-05
0.000474407
9.77071e-05
0.000462417
0.00010448
0.000450572
0.000110496
0.000438968
0.000115367
0.000427218
0.000119303
0.000415742
0.000121986
0.000403536
0.000124029
0.000391123
0.000124937
0.000378508
0.000124561
0.000365646
0.000123603
0.000352821
0.000121352
0.000339948
0.00011851
0.000327206
0.0001147
0.000314549
0.000110334
0.000302161
0.000105176
0.000290017
9.95549e-05
0.00027826
9.32782e-05
0.000266852
8.66515e-05
0.000255878
7.94732e-05
0.000245368
7.19603e-05
0.000235356
6.40703e-05
0.000225874
5.58385e-05
0.000216942
4.73065e-05
0.000208581
3.85087e-05
0.000200804
2.94878e-05
0.000193616
2.02884e-05
0.000187016
1.09537e-05
0.000180961
1.5343e-06
0.000175433
-7.95718e-06
0.000170402
-1.75147e-05
0.00016584
-2.71571e-05
0.00016174
-3.69153e-05
0.00015812
-4.6853e-05
0.00015501
-5.70363e-05
0.000152477
-6.75358e-05
0.000150596
-7.84148e-05
0.000149463
-8.9691e-05
0.000149217
-0.000101398
0.000149999
-0.000113551
0.000151946
-0.0001261
0.000155053
-0.000138764
0.000158923
-0.000150879
0.000162628
-0.000161407
0.000165923
-0.000170201
0.000172214
-0.000181307
0.00018591
-0.000202771
0.000224283
-0.000272754
0.000261763
-0.000306058
0.000282753
-0.000314896
0.000299258
-0.000326451
0.00031892
-0.000331184
-0.000331061
0.000338254
0.00053334
9.91768e-05
0.000497902
0.000110517
0.000470462
0.000115563
0.000451616
0.000118687
0.000437797
0.000121739
0.000425379
0.000126005
0.000413717
0.000129765
0.000402131
0.000132684
0.000390987
0.000134659
0.000379236
0.000135903
0.000367453
0.000135852
0.000355308
0.000134926
0.000342984
0.000132845
0.00033065
0.000129734
0.000318278
0.000125887
0.000305876
0.000121278
0.00029365
0.000115845
0.000281573
0.000109854
0.000269794
0.000103207
0.00025837
9.60712e-05
0.000247287
8.8498e-05
0.000236677
8.03939e-05
0.00022654
7.1953e-05
0.000216931
6.31364e-05
0.000207878
5.39927e-05
0.000199404
4.45692e-05
0.000191531
3.4918e-05
0.000184259
2.51011e-05
0.000177563
1.51826e-05
0.00017141
5.22662e-06
0.000165773
-4.76288e-06
0.000160582
-1.47304e-05
0.000155776
-2.47121e-05
0.000151332
-3.4767e-05
0.000147253
-4.49892e-05
0.000143574
-5.54823e-05
0.000140379
-6.63627e-05
0.000137774
-7.77216e-05
0.000135901
-8.96227e-05
0.000134963
-0.000102133
0.000135166
-0.000115299
0.000136646
-0.000128957
0.000139038
-0.000142495
0.000141519
-0.000154694
0.000143174
-0.000164969
0.000146781
-0.000178207
0.000160586
-0.000205038
0.000188201
-0.000270126
0.000230638
-0.000305635
0.00023548
-0.000323812
0.000251788
-0.000338239
0.000269777
-0.000343811
0.000288427
-0.000347998
-0.000348208
0.000308861
0.000571389
0.000112786
0.000543508
0.000125112
0.000502272
0.000137447
0.000460905
0.00014001
0.000429615
0.000141596
0.000409615
0.000140729
0.000395828
0.000140718
0.000384344
0.00014268
0.000373565
0.000144251
0.000363047
0.000145605
0.000352359
0.000145781
0.000341562
0.000144897
0.000330133
0.000143221
0.000318519
0.000140402
0.000306868
0.000136364
0.000295065
0.000131673
0.000283271
0.00012613
0.000271536
0.000119868
0.000259934
0.000113011
0.0002486
0.000105444
0.000237592
9.74733e-05
0.000226922
8.89365e-05
0.000216731
7.99592e-05
0.000207028
7.05848e-05
0.000197869
6.08318e-05
0.000189296
5.07743e-05
0.000181342
4.04761e-05
0.000174006
3.00213e-05
0.00016726
1.95027e-05
0.000161054
9.01064e-06
0.000155281
-1.39598e-06
0.000149854
-1.16767e-05
0.000144689
-2.18777e-05
0.00013974
-3.20828e-05
0.000134999
-4.24313e-05
0.000130525
-5.3093e-05
0.000126438
-6.42505e-05
0.000122891
-7.60451e-05
0.000120121
-8.8604e-05
0.000118415
-0.000102048
0.00011805
-0.000116398
0.000118896
-0.00013121
0.00012015
-0.000145136
0.000120656
-0.000157412
0.000122171
-0.00017165
0.000134267
-0.000204134
0.000153055
-0.000263935
0.000181311
-0.000303485
0.000187482
-0.000324099
0.000203208
-0.000341153
0.000217876
-0.000351605
0.000236137
-0.000359323
0.000255479
-0.000362599
-0.000359013
0.000274803
0.000548954
0.000119067
0.000545345
0.00013498
0.000522096
0.000147405
0.000492006
0.000157441
0.000448533
0.00016283
0.000408899
0.000163169
0.000383332
0.000156768
0.000366592
0.000154478
0.000354459
0.000154006
0.000344123
0.000154236
0.000334205
0.000154503
0.000324219
0.000153849
0.000314264
0.000152222
0.000303683
0.000149727
0.00029287
0.000146005
0.000281875
0.000141364
0.000270704
0.000135801
0.000259539
0.000129493
0.000248334
0.00012242
0.000237258
0.000114677
0.000226411
0.000106332
0.000215843
9.74466e-05
0.000205667
8.80112e-05
0.000195929
7.81386e-05
0.000186708
6.77982e-05
0.00017805
5.71217e-05
0.000170001
4.61779e-05
0.000162571
3.50794e-05
0.000155732
2.39606e-05
0.0001494
1.29623e-05
0.000143414
2.22403e-06
0.000137659
-8.25172e-06
0.000131992
-1.84949e-05
0.000126331
-2.86461e-05
0.000120681
-3.89338e-05
0.000115162
-4.96254e-05
0.000109965
-6.09824e-05
0.000105333
-7.32276e-05
0.000101625
-8.65822e-05
9.92422e-05
-0.000101183
9.83262e-05
-0.000116946
9.82797e-05
-0.000132604
9.77276e-05
-0.000146908
9.73934e-05
-0.000163248
0.000106606
-0.000198312
0.000116269
-0.00025874
0.000131051
-0.000299363
0.000136631
-0.000321595
0.000150475
-0.00033866
0.000164426
-0.000353924
0.000181118
-0.000364896
0.000198792
-0.000370001
0.000216064
-0.000367622
-0.000355816
0.000231608
0.000502758
0.000124778
0.000500017
0.00014169
0.000492577
0.000154704
0.000487062
0.000169638
0.000457277
0.000175615
0.000417532
0.000181517
0.000381337
0.000174469
0.000353558
0.000170278
0.00033564
0.000165914
0.000323326
0.000163647
0.000313426
0.000162577
0.000304337