/*--------------------------------*- C++ -*----------------------------------*\
  =========                 |
  \\      /  F ield         | OpenFOAM: The Open Source CFD Toolbox
   \\    /   O peration     | Website:  https://openfoam.org
    \\  /    A nd           | Version:  10
     \\/     M anipulation  |
\*---------------------------------------------------------------------------*/
FoamFile
{
    format      ascii;
    class       volScalarField;
    location    "0.896456";
    object      rho;
}
// * * * * * * * * * * * * * * * * * * * * * * * * * * * * * * * * * * * * * //

dimensions      [1 -3 0 0 0 0 0];

internalField   nonuniform List<scalar> 
15984
(
0.958172
0.960305
0.96019
0.962769
0.963402
0.965765
0.967287
0.969352
0.971471
0.97369
0.975951
0.978289
0.980663
0.983095
0.985517
0.987943
0.990317
0.992622
0.99484
0.99697
0.998992
1.00095
1.00279
1.00458
1.00626
1.00786
1.00938
1.0108
1.01218
1.01344
1.01468
1.01582
1.01692
1.01796
1.01896
1.01989
1.02082
1.02165
1.0225
1.02325
1.02398
1.02466
1.02532
1.02593
1.0265
1.02705
1.02755
1.02804
1.02848
1.02891
1.0293
1.02969
1.03008
1.03043
0.9596
0.960383
0.961747
0.962824
0.964379
0.966058
0.967822
0.969877
0.971898
0.974049
0.976315
0.978629
0.981013
0.983415
0.985844
0.988251
0.99062
0.992932
0.99517
0.997334
0.999405
1.00141
1.00332
1.00516
1.00689
1.00855
1.01012
1.01159
1.01301
1.0143
1.01558
1.01673
1.01786
1.0189
1.01988
1.02079
1.02168
1.02246
1.02327
1.02394
1.02459
1.02521
1.02576
1.02625
1.02672
1.02712
1.02749
1.02783
1.02812
1.0284
1.02863
1.02886
1.02906
1.02927
0.960207
0.961651
0.962022
0.963864
0.964805
0.96661
0.968345
0.97021
0.972259
0.974406
0.976645
0.97896
0.981334
0.983729
0.986133
0.988526
0.990882
0.99321
0.995482
0.997692
0.999832
1.0019
1.00387
1.00576
1.00756
1.00927
1.01088
1.0124
1.01384
1.01519
1.01649
1.01766
1.01881
1.01984
1.02081
1.02172
1.02254
1.0233
1.02405
1.02464
1.02522
1.02577
1.0262
1.02662
1.02695
1.02723
1.02747
1.02764
1.02781
1.02791
1.02799
1.02804
1.02809
1.02811
0.960988
0.962203
0.962653
0.96449
0.965171
0.967314
0.968535
0.970518
0.972517
0.974608
0.976841
0.979154
0.981542
0.983934
0.986342
0.988733
0.991119
0.993487
0.995802
0.998065
1.00026
1.00236
1.0044
1.00634
1.00819
1.00994
1.01162
1.01319
1.01469
1.01608
1.0174
1.01861
1.01976
1.02079
1.02175
1.02265
1.02342
1.0242
1.02483
1.02539
1.02591
1.02634
1.02672
1.02701
1.02723
1.02737
1.02746
1.0275
1.0275
1.02743
1.02735
1.02723
1.02708
1.02695
0.961662
0.962629
0.96341
0.964553
0.965893
0.967294
0.968962
0.970759
0.972708
0.974801
0.977004
0.979303
0.981648
0.984062
0.986489
0.988946
0.991381
0.993783
0.996138
0.998425
1.00066
1.00282
1.00491
1.00691
1.00884
1.01065
1.01239
1.014
1.01555
1.01699
1.01835
1.01958
1.02075
1.02178
1.02274
1.02361
1.02437
1.02512
1.02566
1.02621
1.02664
1.027
1.02727
1.02746
1.02756
1.02757
1.02752
1.02741
1.02724
1.02702
1.02677
1.02645
1.02617
1.02582
0.962522
0.962801
0.964056
0.96473
0.966195
0.9675
0.969112
0.970896
0.97284
0.974908
0.977098
0.979368
0.981732
0.98415
0.986621
0.989105
0.991595
0.994048
0.996459
0.998813
1.0011
1.00331
1.00545
1.00751
1.00948
1.01135
1.01315
1.01483
1.01642
1.0179
1.01929
1.02055
1.02174
1.02278
1.02375
1.02461
1.02536
1.02607
1.02658
1.02706
1.02744
1.0277
1.02788
1.02794
1.02792
1.02781
1.02765
1.02736
1.02703
1.02665
1.02623
1.0257
1.02527
1.02469
0.962439
0.963481
0.963873
0.965151
0.966253
0.967686
0.96927
0.971044
0.972946
0.975
0.977164
0.97945
0.981838
0.984291
0.986795
0.989303
0.991816
0.994285
0.996728
0.99911
1.00144
1.00372
1.00592
1.00806
1.0101
1.01205
1.0139
1.01565
1.01729
1.01882
1.02024
1.02155
1.02273
1.02383
1.02477
1.02564
1.02638
1.02705
1.02751
1.02795
1.02825
1.02844
1.02851
1.02847
1.02835
1.02809
1.02778
1.02737
1.02686
1.02632
1.02568
1.02495
1.02436
1.02352
0.962664
0.963539
0.963918
0.965298
0.96623
0.967669
0.96927
0.97101
0.972939
0.974985
0.977152
0.979454
0.98186
0.984351
0.986877
0.989433
0.991964
0.994475
0.996955
0.999399
1.0018
1.00416
1.00644
1.00864
1.01075
1.01276
1.01467
1.01648
1.01816
1.01975
1.0212
1.02256
1.02376
1.02491
1.02583
1.02672
1.02743
1.02805
1.02847
1.02887
1.02907
1.0292
1.02918
1.02904
1.02879
1.0284
1.02794
1.02735
1.02667
1.026
1.0251
1.02428
1.02353
1.0222
0.962595
0.963315
0.964006
0.964978
0.966175
0.967562
0.969136
0.970878
0.972789
0.974858
0.977068
0.979399
0.981824
0.984327
0.986876
0.989455
0.992038
0.994615
0.997182
0.999711
1.0022
1.00462
1.00696
1.00922
1.0114
1.01347
1.01544
1.01729
1.01904
1.02066
1.02218
1.02357
1.02481
1.02597
1.0269
1.02778
1.02848
1.02906
1.02946
1.0298
1.02995
1.03
1.0299
1.02967
1.02923
1.02876
1.02811
1.02741
1.02653
1.02575
1.02458
1.02369
1.02248
1.02126
0.962587
0.962952
0.963675
0.964947
0.965976
0.967362
0.968947
0.970716
0.972661
0.974764
0.976996
0.979361
0.981825
0.984373
0.986967
0.989565
0.992182
0.994778
0.997392
0.999952
1.00248
1.00494
1.00735
1.0097
1.01197
1.01413
1.01617
1.01808
1.01989
1.02156
1.02315
1.02457
1.02588
1.02702
1.028
1.02884
1.02955
1.03009
1.03049
1.03074
1.03087
1.03084
1.03064
1.03029
1.02976
1.02913
1.02837
1.0276
1.02629
1.02571
1.02387
1.02339
1.02114
1.02087
0.962304
0.962472
0.963727
0.964211
0.965745
0.96702
0.968648
0.970466
0.972424
0.974562
0.976817
0.979202
0.981685
0.984261
0.986875
0.98953
0.992225
0.994914
0.99758
1.00018
1.00275
1.0053
1.00781
1.01025
1.01259
1.01479
1.01688
1.01885
1.02074
1.0225
1.02416
1.02561
1.02695
1.02809
1.02908
1.02991
1.03063
1.03114
1.03151
1.03173
1.03181
1.03171
1.03142
1.03095
1.03033
1.02963
1.02859
1.02784
1.0262
1.02552
1.02349
1.02279
1.0204
1.02051
0.961758
0.961967
0.962649
0.964265
0.964916
0.966785
0.968193
0.970086
0.972084
0.974274
0.976557
0.979002
0.981508
0.984121
0.986774
0.989497
0.992225
0.994963
0.997682
1.00038
1.00303
1.00564
1.00821
1.01066
1.01301
1.01525
1.01743
1.01953
1.02154
1.0234
1.02511
1.02665
1.02797
1.02916
1.03014
1.03097
1.03171
1.03218
1.03256
1.03275
1.03279
1.03259
1.03219
1.03167
1.03091
1.03009
1.02891
1.02803
1.02613
1.02547
1.02311
1.0227
1.02015
1.02187
0.960636
0.961448
0.962083
0.963138
0.964471
0.965909
0.967661
0.969546
0.971653
0.973889
0.976277
0.978762
0.981349
0.983981
0.986696
0.989443
0.992208
0.995004
0.997747
1.00049
1.00324
1.00593
1.00854
1.01109
1.01356
1.01589
1.01814
1.02027
1.02232
1.02423
1.02599
1.02756
1.02897
1.03015
1.03127
1.03203
1.03284
1.03329
1.03367
1.0338
1.03376
1.03351
1.03303
1.03239
1.03154
1.03047
1.02944
1.02799
1.02652
1.02535
1.02279
1.02393
1.02638
1.02399
0.959553
0.960468
0.961083
0.962305
0.963596
0.965213
0.966977
0.96898
0.971098
0.973433
0.975839
0.978384
0.98101
0.983707
0.986471
0.98929
0.992124
0.994991
0.997818
1.00064
1.00342
1.00617
1.00884
1.01142
1.01395
1.01641
1.01878
1.02102
1.02312
1.02506
1.02683
1.02845
1.02987
1.03118
1.03223
1.03315
1.03387
1.03443
1.03467
1.03486
1.03471
1.03439
1.03384
1.03308
1.03223
1.03101
1.03013
1.02794
1.02769
1.02487
1.02782
1.02479
1.03857
1.03587
0.958559
0.958732
0.960001
0.960985
0.962536
0.964169
0.966057
0.968072
0.970299
0.972659
0.975201
0.977807
0.980571
0.983335
0.986231
0.989085
0.991997
0.994925
0.997796
1.00071
1.00357
1.00636
1.0091
1.0118
1.01443
1.01695
1.01936
1.02163
1.02382
1.02586
1.02777
1.02943
1.03092
1.03216
1.03329
1.03414
1.03496
1.03541
1.03581
1.03583
1.0357
1.03534
1.03474
1.03389
1.03311
1.03152
1.0308
1.02853
1.02928
1.02644
1.03464
1.03751
1.0725
1.08689
0.956849
0.958444
0.958225
0.959987
0.961269
0.963027
0.964991
0.967101
0.969445
0.971871
0.974492
0.977208
0.980021
0.982926
0.985818
0.988827
0.991789
0.994764
0.997734
1.00072
1.00364
1.00651
1.00935
1.01215
1.01487
1.01743
1.01987
1.0222
1.02447
1.02657
1.02856
1.03025
1.03185
1.03309
1.03432
1.03517
1.03602
1.03654
1.03684
1.03691
1.03672
1.03628
1.03561
1.0347
1.03393
1.03206
1.03176
1.02931
1.0338
1.03113
1.05757
1.10261
1.15091
1.50854
0.96055
0.957586
0.959199
0.95882
0.960014
0.961659
0.963604
0.965716
0.968206
0.970782
0.973501
0.976479
0.979293
0.982342
0.985279
0.988394
0.991475
0.994525
0.997568
1.00063
1.00364
1.00659
1.00948
1.01235
1.01512
1.01778
1.02035
1.02279
1.02514
1.02731
1.02935
1.03109
1.0327
1.03401
1.03526
1.03625
1.03708
1.03765
1.03794
1.03795
1.03767
1.03723
1.03656
1.03561
1.03469
1.03304
1.03369
1.03157
1.0487
1.05111
1.16286
1.23619
1.79285
1.84709
0.969178
0.966776
0.962865
0.961744
0.961527
0.962241
0.963067
0.965775
0.966546
0.969966
0.972063
0.97541
0.978415
0.981695
0.984797
0.987873
0.991093
0.994174
0.997369
1.00047
1.00353
1.00659
1.0096
1.01255
1.01539
1.01811
1.02075
1.02327
1.02571
1.02795
1.0301
1.03192
1.03363
1.03504
1.03631
1.03735
1.03812
1.03865
1.03896
1.03887
1.03868
1.03826
1.0376
1.03647
1.03589
1.0343
1.03866
1.0443
1.10135
1.19595
1.46163
1.81875
1.85064
1.93423
1.01473
0.994214
0.982405
0.974676
0.968049
0.964755
0.964052
0.96353
0.968212
0.967436
0.972338
0.97336
0.97756
0.98017
0.983879
0.987003
0.990438
0.993582
0.996964
1.00017
1.00337
1.00651
1.00963
1.01269
1.01566
1.01851
1.02125
1.02383
1.02628
1.02859
1.03077
1.03271
1.03446
1.03589
1.03719
1.03824
1.03903
1.03974
1.03998
1.04
1.03974
1.03931
1.03855
1.03764
1.03756
1.03952
1.05368
1.12385
1.27906
1.77987
1.87866
1.93139
1.98945
1.99596
1.18903
1.11128
1.04824
1.00896
0.991525
0.98009
0.973163
0.969467
0.966839
0.970955
0.96913
0.974595
0.975039
0.98027
0.982111
0.987051
0.988878
0.993823
0.995595
1.00015
1.00278
1.00615
1.00942
1.01262
1.01576
1.01874
1.0216
1.02433
1.02689
1.02925
1.03145
1.03342
1.03522
1.03672
1.03811
1.0392
1.04006
1.04076
1.04102
1.04097
1.04076
1.04027
1.03977
1.03938
1.04274
1.06006
1.14141
1.33319
1.87164
1.87709
1.98817
2.01023
2.00609
1.99244
1.35422
1.32074
1.23944
1.142
1.05641
1.01029
0.989632
0.977493
0.973102
0.970044
0.971153
0.972327
0.976936
0.977463
0.981986
0.984784
0.9891
0.991995
0.996057
0.998701
1.00292
1.00581
1.00921
1.01255
1.01578
1.01885
1.02181
1.02465
1.02732
1.02978
1.03205
1.03409
1.03593
1.03746
1.03887
1.03995
1.04091
1.04158
1.04184
1.04184
1.04164
1.04138
1.04129
1.04526
1.06452
1.15879
1.40739
1.87302
1.91909
2.02373
2.02166
2.01341
1.99227
1.95346
1.40057
1.39792
1.38716
1.31695
1.22568
1.11912
1.04234
1.00629
0.984619
0.977898
0.974027
0.97381
0.974238
0.97909
0.979896
0.984321
0.98717
0.99109
0.994872
0.998183
1.00196
1.0054
1.009
1.0124
1.01584
1.01905
1.02209
1.025
1.02771
1.03026
1.03253
1.03462
1.03648
1.03805
1.03939
1.04042
1.0414
1.04212
1.04244
1.04257
1.04254
1.04282
1.04675
1.07055
1.16813
1.48824
1.88201
1.98226
2.03526
2.03302
2.0184
1.9873
1.93328
1.84967
1.38492
1.39836
1.39194
1.40275
1.34996
1.26377
1.15556
1.06615
1.01768
0.991115
0.980877
0.975845
0.976007
0.977054
0.979969
0.982839
0.986225
0.98988
0.993797
0.997259
1.0011
1.00499
1.00821
1.01254
1.01554
1.01905
1.02224
1.02517
1.02794
1.0305
1.03282
1.03507
1.03698
1.03865
1.03996
1.04113
1.04211
1.04267
1.04304
1.04324
1.04375
1.04795
1.07349
1.18179
1.54737
1.90981
2.0242
2.05022
2.04349
2.0227
1.98034
1.90942
1.8068
1.6731
1.31977
1.37743
1.39413
1.40296
1.38347
1.38742
1.26292
1.16096
1.08366
1.03434
1.00396
0.989488
0.981068
0.980031
0.979998
0.982907
0.984966
0.989715
0.991909
0.997273
0.99958
1.00461
1.00778
1.01141
1.0157
1.01877
1.02216
1.02526
1.02821
1.03096
1.0334
1.03572
1.03777
1.03952
1.04057
1.04151
1.04227
1.04292
1.04347
1.04421
1.04787
1.07597
1.19336
1.59424
1.94618
2.04927
2.06047
2.05158
2.02475
1.97263
1.88835
1.76716
1.61165
1.42269
1.23714
1.32691
1.3788
1.40388
1.40179
1.40903
1.35534
1.25229
1.13605
1.0605
1.01913
0.99589
0.985843
0.98078
0.980014
0.981249
0.983733
0.987636
0.990833
0.995391
0.998859
1.00318
1.00719
1.011
1.01477
1.01889
1.02203
1.02585
1.02884
1.03191
1.03452
1.03698
1.039
1.04039
1.04123
1.04206
1.04271
1.04334
1.04417
1.04743
1.07418
1.21164
1.62595
1.97705
2.06336
2.06907
2.05863
2.02645
1.96764
1.87449
1.73882
1.56434
1.35962
1.20771
1.20305
1.3029
1.37204
1.40871
1.41469
1.42037
1.39729
1.34298
1.2252
1.12746
1.05899
1.01807
0.994901
0.985949
0.981894
0.982238
0.983052
0.986639
0.989479
0.993856
0.997724
1.00195
1.0062
1.01055
1.01438
1.01868
1.02257
1.02665
1.03068
1.03436
1.03781
1.04014
1.04126
1.04163
1.04172
1.04202
1.04258
1.04353
1.04659
1.07243
1.21561
1.66762
1.99055
2.07163
2.07529
2.06376
2.02975
1.96895
1.87082
1.72372
1.53582
1.33026
1.19484
1.14939
1.2242
1.3172
1.38301
1.42742
1.44015
1.44994
1.4333
1.38967
1.27847
1.17911
1.10342
1.05096
1.01797
0.997864
0.987865
0.984513
0.984305
0.985797
0.988715
0.992368
0.996608
1.00082
1.00547
1.01015
1.01469
1.01969
1.02472
1.03047
1.03669
1.04273
1.0468
1.04693
1.04431
1.0423
1.04149
1.04142
1.04242
1.04573
1.07223
1.22027
1.67721
2.00319
2.07597
2.08012
2.06895
2.03546
1.97637
1.87736
1.72536
1.52941
1.32724
1.18647
1.13904
1.14604
1.32176
1.3899
1.43923
1.4662
1.47259
1.46448
1.44886
1.36946
1.271
1.17727
1.10664
1.05658
1.02426
1.00457
0.992426
0.986864
0.984398
0.985492
0.987536
0.99164
0.995734
1.0008
1.00552
1.01144
1.01687
1.02522
1.03485
1.04614
1.05969
1.07033
1.07005
1.05659
1.04681
1.04182
1.04005
1.04073
1.04436
1.0712
1.22215
1.68642
2.00598
2.07861
2.08341
2.07446
2.04412
1.98965
1.89375
1.74493
1.55224
1.33796
1.17312
1.13164
1.1403
1.16111
1.43911
1.4572
1.46793
1.47177
1.46652
1.45899
1.40392
1.33996
1.24238
1.15832
1.09397
1.04794
1.01842
1.00085
0.990619
0.98573
0.984286
0.985167
0.988259
0.991577
0.996895
1.00199
1.00955
1.01724
1.03292
1.05367
1.07937
1.10998
1.14736
1.16266
1.11997
1.07819
1.04935
1.03973
1.03892
1.04231
1.06826
1.21476
1.67927
2.0042
2.0788
2.08557
2.07964
2.05428
2.00599
1.91974
1.78352
1.60089
1.38686
1.18323
1.14054
1.12159
1.14586
1.1642
1.40063
1.40813
1.40818
1.3982
1.37529
1.33251
1.2719
1.19689
1.1373
1.08842
1.0513
1.02509
1.00746
0.996486
0.98912
0.98586
0.984791
0.987497
0.991072
0.998582
1.00586
1.02183
1.03792
1.06549
1.10957
1.17614
1.24412
1.30548
1.34376
1.33789
1.21728
1.08079
1.04436
1.03809
1.04094
1.06563
1.19896
1.64518
1.98845
2.07573
2.08612
2.08348
2.06425
2.02492
1.95464
1.83767
1.6717
1.46726
1.25169
1.14809
1.09523
1.12708
1.11983
1.13978
1.15872
1.16681
1.16797
1.16107
1.14552
1.1284
1.1102
1.09082
1.07397
1.05874
1.04256
1.02623
1.01433
1.00698
1.00681
1.00869
1.0167
1.02367
1.04051
1.05551
1.08252
1.12458
1.18049
1.25159
1.34003
1.41648
1.47736
1.51371
1.53285
1.47272
1.19757
1.06665
1.03903
1.03961
1.06283
1.17935
1.58389
1.95931
2.06878
2.08445
2.08525
2.07282
2.0435
1.99142
1.90007
1.76127
1.57753
1.378
1.20096
1.08166
1.09077
1.0774
1.10208
1.09087
1.2576
1.23328
1.21706
1.20302
1.18497
1.18046
1.17125
1.16167
1.15911
1.15898
1.16222
1.16178
1.16114
1.16829
1.17957
1.19313
1.20751
1.23057
1.25856
1.29068
1.3354
1.39009
1.44321
1.50439
1.56968
1.62512
1.66068
1.68798
1.66686
1.45134
1.14099
1.04734
1.03915
1.05654
1.15465
1.51185
1.9176
2.0571
2.08057
2.08479
2.07836
2.05886
2.02387
1.95955
1.85485
1.70491
1.51671
1.31657
1.14992
1.09276
1.06592
1.06167
1.04669
1.06125
1.68959
1.64296
1.60085
1.56508
1.52861
1.51603
1.49613
1.48593
1.47976
1.47906
1.47095
1.45991
1.45218
1.45024
1.4531
1.46014
1.46711
1.47985
1.49856
1.52212
1.55362
1.59152
1.63132
1.67872
1.72393
1.75265
1.77913
1.77668
1.64129
1.35353
1.07629
1.04188
1.04982
1.1276
1.42857
1.86235
2.0393
2.07409
2.0813
2.08109
2.07034
2.04993
2.01063
1.94108
1.83189
1.6788
1.49297
1.30183
1.13084
1.09449
1.05431
1.05233
1.04158
1.02767
1.56445
1.56976
1.55343
1.53394
1.51091
1.4976
1.48379
1.47836
1.47859
1.48075
1.48124
1.47841
1.47836
1.48364
1.49491
1.50981
1.5274
1.54844
1.57478
1.60551
1.64111
1.67973
1.72193
1.75876
1.79272
1.82481
1.83288
1.76882
1.58945
1.16307
1.05019
1.04716
1.10489
1.34383
1.80247
2.00951
2.06542
2.07526
2.07911
2.07471
2.06392
2.0432
2.0026
1.93244
1.82323
1.6711
1.48777
1.30117
1.13918
1.10077
1.04455
1.05279
1.03207
1.02659
1.06456
1.0756
1.09064
1.10746
1.12777
1.1467
1.16748
1.19412
1.22268
1.25232
1.28334
1.31636
1.34758
1.37886
1.41242
1.45158
1.48889
1.52469
1.56072
1.60089
1.64407
1.68995
1.73094
1.77956
1.82394
1.84184
1.80229
1.65787
1.37301
1.0772
1.04976
1.08278
1.25993
1.78032
1.94227
2.05949
2.06541
2.07335
2.07346
2.06872
2.06056
2.04331
2.01096
1.95596
1.86791
1.7398
1.57408
1.38781
1.21349
1.12828
1.05997
1.05488
1.04211
1.02035
0.95152
0.951059
0.955114
0.964758
0.979185
0.998742
1.02217
1.04644
1.0707
1.09682
1.12385
1.14811
1.17455
1.20165
1.23757
1.28332
1.34098
1.40276
1.46345
1.52765
1.58515
1.65228
1.72655
1.79752
1.82888
1.83512
1.79048
1.58691
1.10158
1.0589
1.06431
1.20661
1.69936
1.89257
2.04301
2.05144
2.06476
2.06806
2.06644
2.06339
2.05846
2.04624
2.02561
1.9897
1.92989
1.83668
1.70256
1.53545
1.36188
1.20208
1.15207
1.05743
1.07768
1.03542
0.965691
0.978929
0.99436
1.01418
1.03496
1.0593
1.09263
1.12199
1.13374
1.13885
1.14696
1.15332
1.15952
1.1606
1.15875
1.17297
1.20428
1.24653
1.31335
1.4108
1.52472
1.64151
1.75327
1.7919
1.80843
1.7295
1.53594
1.16282
1.07748
1.08596
1.18878
1.55657
1.84639
2.02194
2.03631
2.05489
2.05911
2.06138
2.06046
2.06123
2.05973
2.05541
2.04717
2.03145
2.0055
1.96317
1.89652
1.79251
1.64384
1.47731
1.32072
1.19584
1.16591
1.09081
0.994626
1.01982
1.05338
1.09565
1.14662
1.20517
1.23467
1.24554
1.24326
1.23723
1.21881
1.19398
1.1608
1.13072
1.12449
1.13347
1.15899
1.2107
1.29708
1.40569
1.51565
1.67552
1.72791
1.7317
1.67864
1.6472
1.22234
1.07405
1.07603
1.12571
1.55615
1.85313
1.94301
2.0297
2.03688
2.04811
2.05205
2.05288
2.05439
2.05528
2.05518
2.05388
2.05062
2.04426
2.03379
2.01656
1.98967
1.9513
1.89684
1.82043
1.72054
1.60666
1.46136
1.38333
1.00974
1.04308
1.08819
1.14421
1.20447
1.26569
1.26998
1.27844
1.27091
1.25694
1.23067
1.19163
1.14771
1.12071
1.12501
1.13387
1.16646
1.23368
1.29607
1.50523
1.66329
1.6861
1.71296
1.74173
1.78421
1.11682
1.13504
1.10265
1.18501
1.56084
1.80058
1.90299
2.0141
2.0223
2.03549
2.04051
2.04309
2.04476
2.04586
2.04965
2.048
2.05047
2.04901
2.04823
2.045
2.0405
2.03293
2.02173
2.00558
1.98369
1.95473
1.91816
1.87421
1.82011
1.00968
1.04408
1.09193
1.15068
1.21362
1.25523
1.28903
1.27924
1.27881
1.25975
1.24022
1.20077
1.15396
1.16184
1.16362
1.17596
1.26201
1.34221
1.55709
1.54464
1.60091
1.61262
1.60282
1.65514
1.12973
1.09835
1.10937
1.12417
1.47152
1.85244
1.85093
2.00719
1.99618
2.02311
2.02728
2.03143
2.03329
2.03494
2.03855
2.03995
2.04114
2.04193
2.04352
2.04277
2.04351
2.04187
2.04051
2.03797
2.03467
2.03036
2.02428
2.01648
2.00652
1.9947
0.99608
1.02495
1.06501
1.12051
1.17969
1.24158
1.26724
1.28939
1.27532
1.27873
1.26847
1.262
1.26141
1.28724
1.27428
1.38879
1.38114
1.49606
1.51405
1.54575
1.60084
1.57626
1.30819
1.09401
1.10913
1.1197
1.20594
1.53774
1.77999
1.89311
1.97013
1.98329
2.00685
2.01367
2.0191
2.02135
2.02206
2.02716
2.02848
2.02914
2.03332
2.03293
2.03519
2.03508
2.03586
2.03597
2.03604
2.03558
2.03477
2.03352
2.03188
2.02955
2.02668
2.02286
0.981151
0.998517
1.02775
1.06764
1.11848
1.17388
1.22775
1.24665
1.29057
1.27281
1.29244
1.28775
1.32977
1.31558
1.38567
1.38115
1.44014
1.45755
1.48135
1.40291
1.29203
1.1245
1.14229
1.11074
1.14894
1.22388
1.52929
1.783
1.88423
1.91593
1.9658
1.99664
1.99823
2.00574
2.00818
2.00974
2.01478
2.01624
2.01738
2.02146
2.02127
2.02493
2.02437
2.02671
2.02672
2.0275
2.02808
2.0286
2.02881
2.02878
2.02854
2.02754
2.02631
2.024
0.97216
0.978888
0.9919
1.01089
1.04099
1.07737
1.12386
1.17008
1.20177
1.24634
1.24657
1.30167
1.28677
1.32565
1.32236
1.33744
1.32118
1.28166
1.19998
1.12292
1.12207
1.10044
1.13092
1.13904
1.28864
1.52718
1.82765
1.82346
1.90346
1.97467
1.97288
1.98875
1.99206
1.99614
1.99659
2.00157
2.00361
2.00568
2.00884
2.0109
2.01255
2.01434
2.01516
2.01651
2.01714
2.01814
2.01899
2.02006
2.02107
2.0221
2.02288
2.02326
2.02292
2.02161
0.971878
0.972609
0.977382
0.988517
0.988766
1.01887
1.0182
1.06432
1.07019
1.10084
1.13189
1.13708
1.14968
1.15534
1.1535
1.1279
1.11724
1.09597
1.09451
1.09344
1.11408
1.12826
1.17021
1.42775
1.66668
1.6982
1.88561
1.87875
1.96379
1.96251
1.97581
1.98142
1.98341
1.98476
1.98947
1.99127
1.99407
1.99587
1.99863
1.99992
2.00184
2.00315
2.00413
2.00541
2.0058
2.00764
2.00841
2.01005
2.01178
2.01388
2.01612
2.01793
2.01879
2.01843
0.982418
0.97639
0.986429
0.9818
0.988826
0.996678
0.996146
1.01897
1.00802
1.0406
1.03083
1.05272
1.05248
1.05999
1.06697
1.07036
1.07858
1.08909
1.10269
1.13205
1.18939
1.33652
1.64951
1.63555
1.81532
1.79911
1.91847
1.92193
1.95848
1.96262
1.96981
1.973
1.97284
1.97907
1.97875
1.98293
1.98378
1.98603
1.98779
1.98891
1.99055
1.99026
1.99232
1.99128
1.99442
1.99343
1.99617
1.99697
1.99987
2.00262
2.0064
2.01039
2.013
2.01376
1.00355
1.00057
1.00653
1.00036
1.01529
1.00098
1.02383
1.01563
1.02869
1.03491
1.04181
1.05206
1.05959
1.07123
1.08192
1.09882
1.1232
1.16532
1.24537
1.36725
1.52566
1.63382
1.79013
1.75756
1.87395
1.87398
1.93377
1.93768
1.95514
1.95995
1.96399
1.96333
1.96764
1.96946
1.97154
1.97333
1.97488
1.97558
1.97699
1.97712
1.97688
1.97807
1.97632
1.97865
1.97657
1.97857
1.97863
1.98095
1.98293
1.98767
1.9923
1.99858
2.00415
2.00625
1.07668
1.08435
1.09252
1.09989
1.10088
1.10853
1.10668
1.11237
1.11557
1.12335
1.13096
1.14663
1.16546
1.19584
1.23786
1.29363
1.36704
1.45743
1.55088
1.64667
1.73337
1.78722
1.86344
1.85338
1.89867
1.92836
1.93621
1.94748
1.95227
1.95475
1.95659
1.95868
1.96082
1.96275
1.9626
1.96554
1.96314
1.96612
1.96504
1.96384
1.96484
1.96179
1.96147
1.95915
1.9586
1.95566
1.95846
1.95361
1.96245
1.95986
1.97253
1.97838
1.99012
1.99353
1.25564
1.28973
1.32267
1.34619
1.36916
1.37995
1.39348
1.39686
1.40576
1.41227
1.42485
1.44229
1.46729
1.49921
1.53954
1.58587
1.64031
1.69538
1.75025
1.79678
1.83564
1.88161
1.88195
1.91688
1.92183
1.93715
1.94085
1.94629
1.94874
1.95076
1.95209
1.95327
1.95493
1.95425
1.95719
1.95551
1.95728
1.95411
1.95406
1.95139
1.94858
1.94541
1.94249
1.93973
1.9303
1.93337
1.91967
1.93047
1.91817
1.93139
1.93166
1.94869
1.96184
1.9719
1.46265
1.50531
1.53972
1.58145
1.59777
1.62492
1.63194
1.6435
1.65014
1.65551
1.66574
1.67673
1.69317
1.71604
1.7365
1.76874
1.79282
1.82517
1.84651
1.88248
1.88459
1.90908
1.91167
1.92836
1.93223
1.93844
1.94136
1.94458
1.94575
1.94719
1.94738
1.94985
1.94909
1.95042
1.94934
1.94815
1.94708
1.94351
1.94134
1.93643
1.93288
1.92456
1.91952
1.90589
1.90634
1.88785
1.89155
1.87734
1.88988
1.8881
1.90712
1.91238
1.93691
1.94372
1.64982
1.6796
1.71576
1.7353
1.75781
1.77008
1.77761
1.79064
1.78492
1.79391
1.80047
1.80304
1.82581
1.82325
1.84926
1.84842
1.87655
1.8766
1.89948
1.90262
1.91637
1.92009
1.92826
1.93245
1.93607
1.93943
1.94127
1.94358
1.94247
1.94549
1.9451
1.94699
1.94497
1.94607
1.94271
1.94219
1.93857
1.93407
1.92853
1.92545
1.91086
1.90934
1.89287
1.89008
1.87658
1.86897
1.85982
1.85991
1.87234
1.88889
1.91018
1.92745
1.94044
1.93886
1.78458
1.80475
1.81878
1.83302
1.83932
1.84822
1.84842
1.8578
1.85329
1.86238
1.86175
1.8684
1.87906
1.8779
1.89057
1.89186
1.90416
1.90632
1.91599
1.91878
1.92537
1.92878
1.93273
1.9355
1.9378
1.94032
1.94187
1.94138
1.94403
1.9445
1.94455
1.94461
1.94197
1.942
1.93809
1.93624
1.92948
1.92635
1.92007
1.90464
1.90121
1.88291
1.87861
1.86161
1.84911
1.84353
1.85046
1.86578
1.89213
1.91521
1.93714
1.96047
1.98154
1.99791
1.86708
1.87176
1.87715
1.87988
1.88255
1.88317
1.88621
1.88521
1.88884
1.89189
1.89312
1.90002
1.89907
1.90653
1.90784
1.91414
1.91677
1.92084
1.92441
1.92751
1.93086
1.93334
1.93639
1.93786
1.94063
1.94194
1.94164
1.945
1.94355
1.94552
1.94408
1.94348
1.94164
1.93947
1.93564
1.93174
1.92531
1.91775
1.90423
1.89807
1.88532
1.87209
1.85456
1.84416
1.83818
1.84144
1.8594
1.87945
1.8955
1.9109
1.92896
1.94913
1.96823
1.98356
1.90738
1.90681
1.90508
1.90499
1.90375
1.90391
1.90389
1.90517
1.90539
1.90892
1.90821
1.91258
1.91327
1.91703
1.91896
1.92185
1.92456
1.92727
1.92974
1.93252
1.93477
1.9376
1.93883
1.94149
1.94274
1.9438
1.94505
1.94621
1.94664
1.94642
1.94501
1.94384
1.94098
1.93836
1.93337
1.92775
1.91823
1.91017
1.89927
1.88869
1.87083
1.85303
1.84252
1.83484
1.83644
1.85122
1.86312
1.87156
1.87615
1.88777
1.90405
1.92684
1.94253
1.94351
1.93031
1.92042
1.92372
1.91631
1.9183
1.91476
1.91555
1.91463
1.91591
1.91664
1.91798
1.9196
1.92126
1.92321
1.92533
1.92724
1.92993
1.93172
1.93449
1.93627
1.93895
1.94047
1.94327
1.94375
1.94662
1.94696
1.94869
1.94905
1.94927
1.94798
1.947
1.94522
1.94178
1.93775
1.93184
1.92491
1.91559
1.9058
1.89334
1.87895
1.85897
1.84459
1.83689
1.83447
1.8435
1.8484
1.84958
1.83896
1.84285
1.85598
1.87941
1.90596
1.92462
1.93251
1.0308
1.03116
1.03151
1.03186
1.03221
1.03251
1.03283
1.03308
1.03345
1.0336
1.03396
1.03401
1.03434
1.03442
1.03467
1.03462
1.03473
1.03468
1.03463
1.03445
1.02947
1.02967
1.02988
1.03008
1.0303
1.03051
1.0307
1.03088
1.03108
1.03126
1.03138
1.03164
1.03166
1.03195
1.03201
1.03225
1.03229
1.03238
1.03233
1.03231
1.02815
1.02817
1.02821
1.02827
1.02832
1.02841
1.02849
1.0286
1.02862
1.02883
1.02886
1.02898
1.02923
1.02927
1.02957
1.02961
1.02984
1.02989
1.0301
1.03015
1.0268
1.02668
1.02653
1.02644
1.02632
1.02628
1.02626
1.02626
1.0263
1.02633
1.02645
1.02651
1.02662
1.02684
1.02692
1.02725
1.02735
1.02769
1.02778
1.02808
1.02552
1.02516
1.02487
1.02457
1.02433
1.0241
1.02398
1.02387
1.0238
1.02378
1.02378
1.02391
1.02386
1.0243
1.0243
1.02446
1.02489
1.02498
1.02551
1.02578
1.02423
1.02367
1.02319
1.0227
1.02226
1.02189
1.02157
1.02133
1.02118
1.02108
1.02105
1.02109
1.02112
1.02147
1.02144
1.02211
1.02206
1.02299
1.02289
1.02357
1.023
1.02208
1.02154
1.0208
1.02015
1.01961
1.01912
1.01872
1.01842
1.01827
1.01816
1.01813
1.01825
1.01824
1.01884
1.01893
1.01926
1.02018
1.02036
1.02143
1.02191
1.02039
1.01999
1.01851
1.01816
1.01714
1.01675
1.01612
1.0157
1.01541
1.01526
1.01518
1.01494
1.01545
1.01536
1.01544
1.01648
1.01629
1.01768
1.01785
1.02047
1.0187
1.01838
1.01656
1.01669
1.01489
1.01552
1.01402
1.01494
1.01419
1.01475
1.01458
1.01481
1.01384
1.01302
1.0152
1.01143
1.0148
1.01332
1.01568
1.01833
1.01883
1.01632
1.01732
1.01534
1.01757
1.01495
1.01789
1.01999
1.02211
1.02413
1.02715
1.02722
1.02436
1.02827
1.01264
1.02326
1.01053
1.01783
1.01218
1.01786
1.01953
1.01648
1.02198
1.01931
1.02925
1.02651
1.04377
1.05209
1.07179
1.08206
1.0992
1.10629
1.10409
1.0881
1.09077
1.04832
1.07822
1.01758
1.03442
1.01876
1.02613
1.02317
1.04329
1.04093
1.07062
1.10922
1.15074
1.19206
1.26202
1.32105
1.36703
1.41815
1.41932
1.42013
1.35027
1.37346
1.21118
1.23731
1.06843
1.04029
1.03517
1.06624
1.10513
1.1553
1.25304
1.36455
1.49069
1.60693
1.69364
1.75419
1.79009
1.82141
1.82974
1.81964
1.81185
1.73814
1.74769
1.54953
1.53665
1.08924
1.08665
1.23261
1.35795
1.53673
1.68014
1.78116
1.84512
1.88569
1.90887
1.92097
1.92758
1.93033
1.92925
1.92941
1.92289
1.91005
1.91514
1.81532
1.87721
1.24465
1.47543
1.61312
1.75432
1.85249
1.90608
1.93295
1.94274
1.94522
1.94297
1.93879
1.9339
1.93261
1.92663
1.92121
1.91688
1.92208
1.90089
1.91858
1.85544
1.64563
1.78066
1.89849
1.94448
1.9593
1.9585
1.95456
1.94779
1.94092
1.9318
1.9229
1.91379
1.90528
1.88897
1.8769
1.86924
1.86325
1.86595
1.86419
1.87889
1.93292
1.96873
1.97431
1.96834
1.96346
1.9513
1.94243
1.92581
1.90692
1.89465
1.85986
1.85634
1.82414
1.79956
1.76622
1.76492
1.75573
1.76086
1.77001
1.79905
1.9664
1.97416
1.97151
1.9588
1.9455
1.91173
1.90001
1.85483
1.82463
1.77463
1.76616
1.71428
1.68284
1.65399
1.6266
1.61808
1.62354
1.62676
1.65891
1.67212
1.9892
1.97562
1.95025
1.9267
1.86329
1.84006
1.77061
1.71612
1.6631
1.627
1.58584
1.5461
1.50197
1.4647
1.45585
1.45736
1.47271
1.50311
1.51274
1.57594
1.96716
1.93534
1.87651
1.79876
1.73777
1.65235
1.5771
1.50272
1.44821
1.40261
1.36158
1.31379
1.27896
1.26736
1.27342
1.2768
1.29768
1.35623
1.40437
1.46664
1.897
1.80957
1.7114
1.6133
1.50216
1.39524
1.308
1.24905
1.20645
1.17903
1.15365
1.13093
1.12068
1.12453
1.12523
1.1433
1.21116
1.28742
1.3468
1.38708
1.74503
1.61319
1.47352
1.33338
1.23769
1.18882
1.16046
1.14038
1.12386
1.1076
1.09224
1.081
1.07766
1.07746
1.09127
1.12213
1.20809
1.28095
1.32737
1.35415
1.51323
1.33875
1.22392
1.17789
1.15704
1.1445
1.13412
1.12255
1.11009
1.09502
1.08126
1.0722
1.07024
1.07406
1.10102
1.18186
1.2561
1.29812
1.31804
1.32936
1.24955
1.17878
1.15991
1.15319
1.14906
1.15097
1.15246
1.14248
1.13094
1.11414
1.10174
1.09656
1.10303
1.14976
1.23512
1.28159
1.2982
1.30304
1.30186
1.30028
1.15869
1.15428
1.15862
1.17591
1.19431
1.20122
1.20185
1.19951
1.19317
1.18397
1.1839
1.1959
1.25853
1.29931
1.30409
1.30138
1.30109
1.28786
1.27693
1.28888
1.14902
1.17212
1.2028
1.21326
1.21615
1.21536
1.21774
1.22628
1.24407
1.26778
1.29251
1.31453
1.33564
1.31462
1.31729
1.31684
1.28778
1.27696
1.28008
1.30133
1.17612
1.20281
1.21515
1.21649
1.21465
1.21531
1.22274
1.24697
1.28259
1.32152
1.34973
1.35781
1.36674
1.36819
1.35018
1.31686
1.29743
1.29733
1.31684
1.37118
1.18986
1.20298
1.19735
1.18792
1.18265
1.19561
1.22584
1.27034
1.32569
1.3749
1.39242
1.40308
1.40291
1.39734
1.37914
1.36371
1.36338
1.37227
1.40439
1.45359
1.17607
1.16481
1.14345
1.13119
1.13329
1.16016
1.21608
1.28477
1.35405
1.39456
1.41218
1.40959
1.41312
1.41047
1.40473
1.40556
1.41096
1.42232
1.44404
1.45841
1.13301
1.11104
1.08668
1.0771
1.08311
1.11768
1.18182
1.26251
1.33243
1.37747
1.38889
1.39456
1.40371
1.40729
1.40529
1.4039
1.40855
1.41394
1.41728
1.40915
1.08796
1.06947
1.04536
1.03641
1.0371
1.05116
1.08836
1.13776
1.19499
1.25062
1.28171
1.30422
1.31922
1.32318
1.32671
1.31545
1.31006
1.28782
1.24905
1.20598
1.04938
1.04058
1.021
1.00923
1.0083
1.00795
1.01517
1.02363
1.04568
1.06322
1.08453
1.09734
1.1166
1.11595
1.11891
1.10765
1.1013
1.07745
1.06655
1.05801
1.02474
1.01517
1.00861
0.99827
0.994776
0.9892
0.990369
0.995413
0.991069
1.00408
1.00149
1.01103
1.00803
1.01372
1.01417
1.01238
1.01277
1.00824
1.01442
1.00291
1.01359
1.00982
1.00121
0.995619
0.989954
0.987197
0.983213
0.98029
0.982975
0.978419
0.983734
0.980714
0.983482
0.985695
0.98685
0.990376
0.989667
0.995782
0.99785
0.998799
1.01846
1.00669
1.00292
0.995719
0.991466
0.987106
0.98408
0.982331
0.979265
0.979823
0.978314
0.97934
0.980517
0.982294
0.984663
0.988351
0.991014
0.994436
0.998942
1.00207
1.03136
1.01476
1.01097
0.997701
0.99711
0.990408
0.987523
0.984327
0.983465
0.982173
0.982208
0.982918
0.984013
0.986194
0.987941
0.991363
0.994526
0.999352
1.00221
1.00851
1.11512
1.0364
1.06778
1.00626
1.03227
0.995635