/*--------------------------------*- C++ -*----------------------------------*\
  =========                 |
  \\      /  F ield         | OpenFOAM: The Open Source CFD Toolbox
   \\    /   O peration     | Website:  https://openfoam.org
    \\  /    A nd           | Version:  10
     \\/     M anipulation  |
\*---------------------------------------------------------------------------*/
FoamFile
{
    format      ascii;
    class       volScalarField;
    location    "0.896456";
    object      T;
}
// * * * * * * * * * * * * * * * * * * * * * * * * * * * * * * * * * * * * * //

dimensions      [0 0 0 1 0 0 0];

internalField   nonuniform List<scalar> 
15984
(
0.00857837
0.00857141
0.00858732
0.00858119
0.00859491
0.00859504
0.00860478
0.00861128
0.00861879
0.00862664
0.0086351
0.00864361
0.00865223
0.00866052
0.00866883
0.0086768
0.00868472
0.00869257
0.00870036
0.00870798
0.0087155
0.00872251
0.00872939
0.00873565
0.00874174
0.00874739
0.00875271
0.00875791
0.00876247
0.0087672
0.00877128
0.00877546
0.00877922
0.00878281
0.00878615
0.00878945
0.00879217
0.00879513
0.00879751
0.00880016
0.0088025
0.00880476
0.0088067
0.00880864
0.00881039
0.00881194
0.00881348
0.00881476
0.00881605
0.00881706
0.00881816
0.00881902
0.00881975
0.00882061
0.0085779
0.00858219
0.00858374
0.00859024
0.0085947
0.00860014
0.00860682
0.00861267
0.00862038
0.00862826
0.00863621
0.00864455
0.00865284
0.00866126
0.00866949
0.00867773
0.0086859
0.00869399
0.00870199
0.00870977
0.00871739
0.00872456
0.00873146
0.00873787
0.00874404
0.00874979
0.00875526
0.00876051
0.00876523
0.00877005
0.00877408
0.00877835
0.00878204
0.00878566
0.008789
0.00879218
0.00879495
0.00879787
0.00879993
0.00880255
0.00880472
0.00880647
0.0088082
0.00880982
0.00881111
0.00881239
0.00881342
0.00881421
0.008815
0.00881543
0.00881602
0.00881625
0.00881652
0.00881662
0.00858323
0.00858074
0.00859037
0.00858909
0.00859829
0.00860181
0.00860802
0.0086149
0.00862179
0.00862921
0.00863701
0.00864506
0.00865325
0.00866167
0.00867017
0.00867868
0.00868723
0.00869553
0.00870366
0.00871154
0.00871912
0.00872638
0.00873338
0.00873993
0.0087462
0.00875218
0.00875784
0.00876324
0.00876818
0.00877297
0.00877715
0.00878147
0.00878515
0.00878888
0.0087922
0.00879529
0.00879822
0.00880089
0.00880291
0.00880544
0.00880729
0.00880867
0.00881027
0.00881124
0.00881233
0.00881312
0.00881363
0.00881406
0.00881405
0.00881406
0.00881386
0.00881369
0.00881316
0.00881281
0.00858546
0.00858422
0.00859237
0.00859038
0.00860118
0.00860092
0.00861117
0.00861645
0.00862329
0.00863081
0.00863835
0.00864621
0.00865418
0.00866263
0.00867121
0.00867995
0.00868854
0.00869689
0.00870512
0.00871307
0.00872081
0.0087283
0.00873544
0.00874228
0.00874873
0.00875497
0.00876069
0.00876621
0.00877124
0.00877605
0.00878045
0.00878473
0.00878856
0.00879232
0.00879574
0.00879873
0.00880185
0.00880394
0.00880636
0.00880842
0.00881
0.00881134
0.00881233
0.00881309
0.00881369
0.00881408
0.00881417
0.00881397
0.00881355
0.00881304
0.00881216
0.00881128
0.00881041
0.00880921
0.00858697
0.00858728
0.00859178
0.00859534
0.00859955
0.00860543
0.0086111
0.00861758
0.00862449
0.00863171
0.00863931
0.00864718
0.00865551
0.00866384
0.00867242
0.00868085
0.00868937
0.00869786
0.00870626
0.00871458
0.00872253
0.00873028
0.00873756
0.00874457
0.00875114
0.00875752
0.00876338
0.00876909
0.00877424
0.0087792
0.00878363
0.00878811
0.00879189
0.00879582
0.00879918
0.00880229
0.00880528
0.00880722
0.00880982
0.00881138
0.00881284
0.00881382
0.00881459
0.00881498
0.00881517
0.00881516
0.00881474
0.00881408
0.00881305
0.00881184
0.00881038
0.00880903
0.00880701
0.00880542
0.00858509
0.00859095
0.00859058
0.00859784
0.00860039
0.00860668
0.00861241
0.00861865
0.00862532
0.00863257
0.00864017
0.00864827
0.0086565
0.00866495
0.00867337
0.00868189
0.00869034
0.00869886
0.00870732
0.00871567
0.00872388
0.00873182
0.00873938
0.00874666
0.00875349
0.00876007
0.00876612
0.00877195
0.00877728
0.00878239
0.00878697
0.00879153
0.00879543
0.00879942
0.00880275
0.00880586
0.00880867
0.00881058
0.00881303
0.00881445
0.00881556
0.00881642
0.00881689
0.0088171
0.0088169
0.00881638
0.00881526
0.00881424
0.00881267
0.00881075
0.00880861
0.00880675
0.00880371
0.00880177
0.00858997
0.00858831
0.00859521
0.00859655
0.00860198
0.00860677
0.00861247
0.00861857
0.00862546
0.00863273
0.00864055
0.00864857
0.00865672
0.00866508
0.00867352
0.00868221
0.00869092
0.00869984
0.00870861
0.00871735
0.00872581
0.00873395
0.0087417
0.00874903
0.00875602
0.00876263
0.00876891
0.0087748
0.00878035
0.00878551
0.00879034
0.00879487
0.00879909
0.0088028
0.00880648
0.00880936
0.00881211
0.00881401
0.00881646
0.00881757
0.00881861
0.00881921
0.00881945
0.00881935
0.00881863
0.00881777
0.00881615
0.00881436
0.00881237
0.00880979
0.00880719
0.00880479
0.00880077
0.00879859
0.00859004
0.00858942
0.00859605
0.00859612
0.00860278
0.00860726
0.00861262
0.0086189
0.00862552
0.00863291
0.00864081
0.00864887
0.0086571
0.00866542
0.00867403
0.00868273
0.00869176
0.00870085
0.00870991
0.00871879
0.00872733
0.00873551
0.00874342
0.0087509
0.00875813
0.00876491
0.00877138
0.00877747
0.00878325
0.00878858
0.0087936
0.00879809
0.00880253
0.00880599
0.00880996
0.00881268
0.0088155
0.00881762
0.00881992
0.00882086
0.00882193
0.00882214
0.00882211
0.00882169
0.00882064
0.00881937
0.00881738
0.00881528
0.00881269
0.00880906
0.00880653
0.00880253
0.00879725
0.00879671
0.00859077
0.00859106
0.00859461
0.00859814
0.00860229
0.00860721
0.00861284
0.0086192
0.00862612
0.0086335
0.00864124
0.0086493
0.00865767
0.00866625
0.00867508
0.00868403
0.00869311
0.00870218
0.00871106
0.00871984
0.00872835
0.00873669
0.00874478
0.00875256
0.00875998
0.00876707
0.00877375
0.00878014
0.00878605
0.00879163
0.00879668
0.00880137
0.00880583
0.00880942
0.00881346
0.00881627
0.00881911
0.00882132
0.00882341
0.00882429
0.00882519
0.00882521
0.00882493
0.00882399
0.00882316
0.00882108
0.00881903
0.00881593
0.00881313
0.00880829
0.00880562
0.00879978
0.00879588
0.00879165
0.00858856
0.00859196
0.00859503
0.00859598
0.00860175
0.00860681
0.00861255
0.00861889
0.00862573
0.00863305
0.00864089
0.00864898
0.0086574
0.00866602
0.00867492
0.00868423
0.00869358
0.0087031
0.00871221
0.00872137
0.00873016
0.00873882
0.00874706
0.00875483
0.00876223
0.0087694
0.00877619
0.00878285
0.00878886
0.00879469
0.00879963
0.00880461
0.00880881
0.00881294
0.00881674
0.00882
0.00882267
0.00882506
0.00882679
0.00882798
0.00882836
0.00882834
0.00882789
0.00882687
0.0088255
0.00882324
0.00882037
0.00881606
0.00881491
0.00880609
0.00880677
0.00879488
0.00879709
0.00878207
0.00858662
0.00859181
0.00859028
0.00859848
0.00859982
0.00860614
0.00861173
0.00861793
0.008625
0.00863238
0.00864042
0.00864879
0.00865752
0.00866641
0.00867568
0.00868507
0.00869436
0.00870372
0.00871307
0.0087226
0.00873179
0.0087405
0.00874858
0.00875626
0.00876379
0.00877131
0.00877856
0.0087854
0.00879145
0.00879719
0.00880214
0.00880729
0.00881177
0.00881618
0.00882012
0.00882363
0.00882624
0.00882872
0.00883043
0.00883149
0.0088317
0.00883158
0.00883099
0.00882982
0.00882792
0.00882479
0.00882273
0.00881633
0.00881595
0.00880573
0.00880564
0.00879283
0.00879359
0.00877264
0.0085847
0.00858974
0.00859337
0.0085917
0.00860128
0.00860262
0.00861068
0.00861668
0.0086239
0.00863133
0.00863967
0.00864806
0.00865716
0.00866632
0.00867587
0.00868531
0.00869499
0.00870461
0.00871421
0.00872367
0.00873294
0.0087418
0.00875024
0.0087586
0.00876682
0.0087747
0.00878194
0.00878842
0.00879423
0.00879968
0.00880487
0.00880989
0.00881498
0.00881935
0.00882366
0.00882742
0.00882986
0.00883261
0.00883406
0.00883503
0.00883508
0.00883508
0.00883458
0.00883273
0.00883085
0.00882725
0.00882479
0.00881767
0.00881731
0.00880468
0.00880489
0.00878703
0.00878655
0.00874905
0.00858521
0.00858487
0.00858955
0.00859324
0.00859727
0.00860303
0.00860856
0.00861527
0.00862216
0.00862986
0.00863793
0.00864663
0.0086557
0.00866538
0.00867509
0.00868503
0.0086951
0.00870495
0.00871511
0.00872488
0.00873413
0.00874308
0.00875193
0.00876034
0.00876832
0.00877616
0.00878355
0.00879055
0.00879678
0.00880259
0.00880792
0.00881325
0.00881811
0.00882304
0.00882659
0.00883113
0.00883311
0.00883603
0.0088374
0.00883857
0.00883883
0.00883875
0.00883804
0.00883627
0.00883387
0.00883111
0.00882568
0.00882158
0.00881558
0.00880493
0.00880431
0.00877058
0.00872555
0.00871902
0.0085821
0.00858136
0.00858682
0.00858974
0.00859486
0.00859976
0.00860596
0.0086124
0.00861999
0.00862761
0.00863631
0.00864528
0.00865478
0.00866466
0.00867471
0.0086848
0.00869505
0.00870506
0.00871529
0.00872522
0.00873497
0.00874427
0.00875349
0.00876241
0.00877067
0.00877829
0.00878534
0.00879217
0.00879876
0.00880506
0.00881106
0.00881653
0.00882189
0.00882618
0.00883074
0.00883422
0.00883723
0.00883934
0.00884173
0.00884226
0.00884313
0.00884308
0.00884224
0.00884059
0.00883704
0.00883425
0.00882592
0.00882629
0.00880796
0.00880881
0.00875913
0.0087589
0.00861732
0.00860827
0.00857482
0.00858146
0.00858195
0.00858795
0.00859165
0.00859739
0.00860344
0.00861074
0.00861831
0.00862665
0.00863507
0.00864441
0.00865357
0.00866372
0.00867348
0.00868411
0.00869452
0.00870485
0.00871553
0.00872553
0.00873543
0.00874528
0.00875473
0.00876348
0.00877169
0.00877968
0.00878726
0.00879456
0.00880115
0.00880738
0.00881294
0.00881878
0.00882414
0.00882957
0.00883394
0.00883839
0.00884079
0.00884398
0.00884515
0.00884692
0.00884741
0.00884724
0.00884617
0.00884449
0.00883929
0.00883832
0.0088272
0.00882649
0.00879779
0.00879702
0.00870031
0.00864772
0.00833638
0.00819388
0.00857022
0.00856532
0.00858033
0.00858033
0.00858775
0.00859355
0.00860009
0.00860766
0.00861532
0.00862415
0.00863292
0.0086423
0.00865202
0.0086619
0.00867262
0.00868281
0.00869371
0.00870454
0.00871527
0.0087255
0.00873581
0.00874587
0.00875536
0.00876414
0.00877251
0.00878106
0.00878916
0.00879681
0.00880347
0.00880995
0.00881563
0.00882195
0.00882705
0.00883312
0.00883714
0.00884206
0.00884468
0.00884749
0.00884963
0.00885099
0.00885176
0.00885189
0.00885096
0.00884901
0.00884275
0.00884299
0.00882682
0.00882587
0.00876405
0.00875989
0.00851167
0.0081291
0.00775276
0.00588336
0.00851389
0.0085514
0.00855052
0.00857151
0.00858095
0.0085892
0.00859725
0.00860607
0.00861373
0.00862248
0.00863159
0.00863978
0.00865058
0.00866024
0.00867159
0.00868187
0.0086927
0.00870385
0.00871493
0.00872545
0.00873593
0.00874631
0.00875622
0.00876544
0.0087743
0.00878289
0.00879081
0.00879839
0.00880516
0.0088119
0.00881791
0.00882462
0.00883031
0.00883647
0.00884099
0.00884528
0.00884844
0.00885125
0.00885363
0.00885558
0.00885711
0.00885697
0.00885557
0.00885327
0.0088475
0.00884472
0.00881903
0.00881374
0.00864501
0.00859381
0.00773682
0.00723843
0.00496997
0.00480475
0.00841221
0.00844458
0.00849478
0.00852316
0.00854684
0.00856502
0.00858451
0.00858945
0.00861395
0.00861636
0.00863245
0.0086386
0.00864892
0.00865765
0.00866865
0.00868034
0.00869103
0.00870295
0.00871375
0.00872502
0.00873605
0.00874646
0.0087564
0.00876586
0.00877514
0.00878423
0.00879247
0.00880033
0.00880724
0.00881413
0.00882005
0.00882685
0.00883259
0.00883867
0.00884361
0.00884809
0.00885234
0.00885594
0.00885852
0.00886153
0.00886231
0.00886182
0.00885991
0.0088586
0.00884914
0.00884471
0.00878641
0.00871419
0.00823233
0.00754622
0.00614597
0.00492312
0.00481212
0.00457973
0.0080056
0.0081836
0.00829934
0.008386
0.00846705
0.00852184
0.00855643
0.00859131
0.00858206
0.00862353
0.00861589
0.00864428
0.00864521
0.00866118
0.00866798
0.00868038
0.00869032
0.00870281
0.00871311
0.00872453
0.0087355
0.00874634
0.00875642
0.00876603
0.00877523
0.00878422
0.00879271
0.00880094
0.00880866
0.00881595
0.00882245
0.0088291
0.00883525
0.00884198
0.0088475
0.00885265
0.00885733
0.00885992
0.00886354
0.00886587
0.00886728
0.00886686
0.00886545
0.00886166
0.00884708
0.00881173
0.00867119
0.00810193
0.00708875
0.00508621
0.00479297
0.00463392
0.00447487
0.00443503
0.00680721
0.00729522
0.00775264
0.00807603
0.00824268
0.00836626
0.00845566
0.00851973
0.00857611
0.00857513
0.00862887
0.00861873
0.00865444
0.00864848
0.00867313
0.00867073
0.00869596
0.00869388
0.00871947
0.00872036
0.00873756
0.00874749
0.00875748
0.00876705
0.00877599
0.0087849
0.00879341
0.00880151
0.0088093
0.00881698
0.00882421
0.00883157
0.00883816
0.00884511
0.00885075
0.00885632
0.00886118
0.00886452
0.00886846
0.00887177
0.00887288
0.00887271
0.0088687
0.00886003
0.00881561
0.00865279
0.00801432
0.00683627
0.00486446
0.00481572
0.00452246
0.00445023
0.00443342
0.00443581
0.00595127
0.00611076
0.00653082
0.00711303
0.00771376
0.00809304
0.00829307
0.00842911
0.00850161
0.00856501
0.0085933
0.00862246
0.00862251
0.00865968
0.00866176
0.00867955
0.00868424
0.00870143
0.00870825
0.00872711
0.00873175
0.00874719
0.00875745
0.00876705
0.00877645
0.00878585
0.00879468
0.00880292
0.0088108
0.00881863
0.00882624
0.00883381
0.00884104
0.00884873
0.00885501
0.00886153
0.00886644
0.0088707
0.00887524
0.00887836
0.00887946
0.00887725
0.00886931
0.0088229
0.00864707
0.00792488
0.00650339
0.00487562
0.00473749
0.00447007
0.00444884
0.00444089
0.00445952
0.0045176
0.00572787
0.00575001
0.00581102
0.00615058
0.00662264
0.00728262
0.00785203
0.00816635
0.00838196
0.0084766
0.00854959
0.00859199
0.00862971
0.00862938
0.00866596
0.00867069
0.00868962
0.00869912
0.00870976
0.00872416
0.00873403
0.0087462
0.00875606
0.00876665
0.00877557
0.00878518
0.00879458
0.00880347
0.00881211
0.00882016
0.00882866
0.00883676
0.00884474
0.00885298
0.00886081
0.00886873
0.00887426
0.0088789
0.00888341
0.00888581
0.00888549
0.00887836
0.00883583
0.00862649
0.00788935
0.00617329
0.00487042
0.00460751
0.00446805
0.00444916
0.00445503
0.00449645
0.00459119
0.00476492
0.00577052
0.00572896
0.00577306
0.0057542
0.00599069
0.00642317
0.00706125
0.0076874
0.00808957
0.008344
0.00847032
0.00855514
0.008596
0.00863029
0.00864901
0.00866881
0.00868429
0.00869749
0.00870841
0.008723
0.00873382
0.00874361
0.00875838
0.00876248
0.00877681
0.00878523
0.00879481
0.00880478
0.00881418
0.00882323
0.00883219
0.00883974
0.00884818
0.0088564
0.00886544
0.00887314
0.00887963
0.00888626
0.00889095
0.00889292
0.00888787
0.00884719
0.00862749
0.00782349
0.00595828
0.00481748
0.00453104
0.00445624
0.00444999
0.00447108
0.00453903
0.00467715
0.00490889
0.00526363
0.00603486
0.00579591
0.00574455
0.00572945
0.00582651
0.00583322
0.00644333
0.0070383
0.0075774
0.00797623
0.00825666
0.00841816
0.00853299
0.00858575
0.00863115
0.00865148
0.00867984
0.00868475
0.00871218
0.00871181
0.00873767
0.00873912
0.00875612
0.00876792
0.00877279
0.00878672
0.00879615
0.0088061
0.00881521
0.00882372
0.0088325
0.0088401
0.0088481
0.00885649
0.00886869
0.00887925
0.00888842
0.00889503
0.00889856
0.00889605
0.00886404
0.00862743
0.0077692
0.00580182
0.00474459
0.00449401
0.00445403
0.00445448
0.00449097
0.0045834
0.0047583
0.0050515
0.00550193
0.00619051
0.00641532
0.00599736
0.00578909
0.00570622
0.00573611
0.00573203
0.00598449
0.00650185
0.00720762
0.00775934
0.00811288
0.00834319
0.00847084
0.00855897
0.00861143
0.00864748
0.00867316
0.00868682
0.00870695
0.00871509
0.00873246
0.00874197
0.00875335
0.00876554
0.00877674
0.0087834
0.00879668
0.00880213
0.00881225
0.00881914
0.00882723
0.00883417
0.00884287
0.008855
0.0088699
0.00888235
0.00889321
0.00890058
0.00890205
0.00887807
0.00865578
0.00766724
0.00570342
0.00468539
0.00447986
0.00445446
0.00446034
0.00451054
0.00462084
0.00482193
0.00516578
0.00570604
0.00652407
0.0072799
0.0065825
0.00609277
0.00580279
0.00567114
0.00566841
0.00566856
0.00578682
0.00604728
0.00666428
0.00727741
0.00778573
0.00813906
0.00837144
0.00849214
0.0085736
0.00861814
0.0086595
0.00867717
0.00870187
0.00871318
0.00872888
0.00874104
0.00875219
0.00876159
0.00877427
0.00878136
0.00879005
0.00879492
0.00879761
0.00880051
0.00880234
0.00881081
0.00882725
0.00884847
0.00887049
0.00888844
0.00890084
0.00890587
0.00888837
0.00867751
0.00765261
0.00557626
0.00466613
0.00447602
0.00445778
0.0044686
0.00452523
0.00464252
0.00485925
0.0052426
0.00584824
0.00671204
0.00741403
0.00765002
0.00645787
0.0060159
0.00574535
0.00558463
0.00555444
0.00553788
0.00562564
0.0058287
0.00636719
0.0069379
0.00745052
0.00786216
0.00815947
0.00836838
0.00849929
0.008576
0.00862697
0.00866405
0.00868934
0.00870861
0.00872278
0.00873685
0.00874658
0.00875504
0.00876356
0.00876667
0.00876757
0.00876004
0.00874595
0.00873044
0.00872813
0.00875537
0.0088034
0.00884489
0.00887507
0.00889678
0.00890584
0.00889098
0.00867929
0.00762736
0.00555168
0.00464599
0.00447784
0.00446116
0.00447391
0.00453207
0.00464775
0.00486847
0.0052681
0.00590883
0.00676832
0.00751772
0.00777839
0.00767618
0.00597656
0.00569569
0.00551404
0.00542733
0.00542065
0.00546936
0.00555077
0.00589726
0.006385
0.00692755
0.0074063
0.0077969
0.00808512
0.00828797
0.00843571
0.00853141
0.00860252
0.00864397
0.00867815
0.00869492
0.00871214
0.00872073
0.00873169
0.00873131
0.00873419
0.00871073
0.00867493
0.00862397
0.00855332
0.0085042
0.00853853
0.0086754
0.00878253
0.00884916
0.00888745
0.00890281
0.00888968
0.0086796
0.00761262
0.00552416
0.00464394
0.00447923
0.00446412
0.00447508
0.00452912
0.00463633
0.00484973
0.00523696
0.00585583
0.00675687
0.00766363
0.00789314
0.00778019
0.00758475
0.00548862
0.00542963
0.00540094
0.00539999
0.00543422
0.00547947
0.00571328
0.0060094
0.0065127
0.00701928
0.00746928
0.0078372
0.00810667
0.0082932
0.00842531
0.00851559
0.00857823
0.00862216
0.00864804
0.00867307
0.00868126
0.0086915
0.00867981
0.00866596
0.00858491
0.00846417
0.00830789
0.00812082
0.0078955
0.00782678
0.00815739
0.00850011
0.00875929
0.00886483
0.00889463
0.00888639
0.00868754
0.00764871
0.005543
0.00464741
0.0044811
0.00446499
0.00447278
0.00451906
0.00461451
0.0048038
0.00514774
0.00570757
0.0065563
0.00764768
0.00788887
0.00797276
0.00774878
0.00757036
0.00564534
0.00562165
0.00563003
0.00568075
0.00578784
0.00598795
0.00629156
0.00671191
0.00709369
0.00744692
0.00774744
0.00798595
0.00816812
0.00830285
0.0084111
0.00848734
0.00854672
0.00857512
0.00859722
0.00858689
0.00857999
0.00850172
0.00842299
0.0082553
0.00797544
0.00757083
0.00719967
0.00690006
0.00673807
0.00680112
0.00750329
0.00847586
0.00879658
0.0088738
0.00887218
0.00868608
0.00773252
0.00564412
0.0046777
0.004485
0.00446427
0.00446847
0.00450487
0.00458285
0.00473342
0.00501565
0.00548993
0.00622808
0.00727454
0.00788739
0.00821819
0.00793678
0.00793352
0.00774354
0.00682675
0.00678243
0.00678158
0.00683053
0.00693529
0.00705802
0.00719638
0.00734989
0.007495
0.00763627
0.00778932
0.00795068
0.00808469
0.00818689
0.00823398
0.00826597
0.00824971
0.00824317
0.00815967
0.0080945
0.00794359
0.00770196
0.00738723
0.00701429
0.00659368
0.00627608
0.00605515
0.00594564
0.00590454
0.00617643
0.00762212
0.00858133
0.00883368
0.00885241
0.00868046
0.00783815
0.00584341
0.00473554
0.00449189
0.00446293
0.00446296
0.00448835
0.00454736
0.00465643
0.00486569
0.00522962
0.00581479
0.00663176
0.00759062
0.00836028
0.00825105
0.00830392
0.00806974
0.00810037
0.00630189
0.00642486
0.00651195
0.00659198
0.00669972
0.00673628
0.0068047
0.0068794
0.00691987
0.00695144
0.00696323
0.00699895
0.00703707
0.0070306
0.00700285
0.00696431
0.0069238
0.00683766
0.00673015
0.00660592
0.00642729
0.0062117
0.00602371
0.00581896
0.00561558
0.00546087
0.00537951
0.0053263
0.00542542
0.00626266
0.00798973
0.00872752
0.00882017
0.00869708
0.00797547
0.00609974
0.00482245
0.0045042
0.0044606
0.0044566
0.00447231
0.00451344
0.00458622
0.00472705
0.00497945
0.00539819
0.00604473
0.00693657
0.0079098
0.00828429
0.00844717
0.0084329
0.00850698
0.00833663
0.00470156
0.00483286
0.00495983
0.00507511
0.00520037
0.00525027
0.00532915
0.00537724
0.00541102
0.00542559
0.00547438
0.00553832
0.00559243
0.00562769
0.00564766
0.00565444
0.00566347
0.00565227
0.00562037
0.00557229
0.005498
0.00540471
0.00531129
0.00519955
0.00510049
0.00505289
0.00501214
0.00505197
0.00550154
0.00670313
0.00845075
0.00875498
0.00871128
0.00812832
0.00642656
0.00494522
0.0045259
0.00445843
0.00445031
0.00445601
0.00448143
0.00452527
0.00460896
0.00476494
0.00503513
0.00547556
0.00613417
0.00700595
0.00804139
0.00827771
0.00853575
0.00851164
0.00855134
0.00862061
0.0050869
0.00506289
0.00511169
0.00517441
0.0052533
0.00530231
0.00535669
0.00538364
0.00539085
0.00539298
0.00540511
0.00543297
0.0054551
0.00546148
0.00545041
0.00542968
0.00540282
0.0053666
0.00531526
0.005253
0.00517893
0.00509904
0.00501317
0.00494649
0.00488972
0.00483934
0.00485227
0.00506197
0.00566657
0.00777437
0.00863631
0.0086863
0.00824962
0.0067922
0.00508398
0.00457143
0.00445679
0.00444402
0.00444303
0.00445811
0.00448434
0.00452976
0.00461783
0.00477762
0.00505149
0.00549445
0.00615041
0.00700538
0.00798216
0.00822588
0.0086142
0.00850803
0.00863599
0.00863757
0.00748207
0.00738826
0.00727268
0.00715149
0.00701506
0.00689508
0.00677207
0.00662473
0.00647788
0.00633676
0.00620037
0.00606593
0.00595015
0.00584339
0.00573899
0.00561979
0.00551495
0.00542255
0.00533602
0.00524171
0.00514373
0.00504493
0.00496619
0.00486904
0.00478741
0.00477623
0.00491601
0.00538013
0.00653857
0.00835914
0.00861032
0.00836889
0.0072007
0.00511129
0.00470056
0.00444586
0.00444178
0.00443283
0.00443992
0.00445626
0.00447773
0.00451645
0.00458683
0.00470983
0.00492192
0.00527043
0.00580764
0.0065659
0.00748957
0.00800672
0.00848994
0.00849371
0.00855771
0.00869941
0.00837773
0.00835966
0.00830469
0.00820598
0.00807305
0.00790679
0.00772196
0.00754402
0.00737934
0.00721503
0.0070577
0.0069295
0.00679854
0.00667381
0.00650991
0.00631235
0.00607967
0.00585329
0.00565365
0.00546026
0.00530677
0.00513448
0.00495539
0.00479805
0.00475239
0.00477129
0.0049272
0.0055968
0.00809959
0.00846962
0.00845712
0.00747702
0.00531443
0.00478926
0.00445175
0.00444405
0.00442484
0.00442605
0.00443679
0.00444983
0.00446533
0.00449407
0.0045392
0.00461718
0.00475285
0.00498319
0.00536145
0.00592704
0.00665859
0.00751779
0.00780557
0.00847574
0.0082824
0.00857843
0.00826539
0.00812787
0.00797858
0.00780408
0.00763286
0.0074468
0.00721342
0.00702302
0.00695241
0.00692898
0.00689197
0.0068717
0.00686022
0.0068827
0.00692776
0.00688223
0.00674545
0.00656174
0.00627407
0.00588595
0.00548944
0.00514135
0.00485406
0.00478734
0.00477996
0.00503341
0.0057129
0.007609
0.00824909
0.00822409
0.00753442
0.00576271
0.0048713
0.00446312
0.00444407
0.00441485
0.0044157
0.00441947
0.00442887
0.00443376
0.00444257
0.00445531
0.00447408
0.00450686
0.00456042
0.00465106
0.0048037
0.00506809
0.00550852
0.00610818
0.00680556
0.00749637
0.00766323
0.00813992
0.00803897
0.00781247
0.00753816
0.00722523
0.00688697
0.00653938
0.00637425
0.00631398
0.00632544
0.00636156
0.00646921
0.00662157
0.00683369
0.00704171
0.00711613
0.00709964
0.00698611
0.00673199
0.00632718
0.00587888
0.00549476
0.00500993
0.00489523
0.00491808
0.00511681
0.00526139
0.00713604
0.00817509
0.00821536
0.00789478
0.00572474
0.00481518
0.00460415
0.00442158
0.00441821
0.00440537
0.00440707
0.00441431
0.00441894
0.00442378
0.00442984
0.00443721
0.00444642
0.0044602
0.00448056
0.00451375
0.00456716
0.00464696
0.00476825
0.00495409
0.00522352
0.00557058
0.00609951
0.00641787
0.00793727
0.00765407
0.00730952
0.00692672
0.00656042
0.00622643
0.00619566
0.00614768
0.00618157
0.00625307
0.00639607
0.00662204
0.00689859
0.00708856
0.00709519
0.00707852
0.00692161
0.00658432
0.00630353
0.00547682
0.00499752
0.00495277
0.00490512
0.00485697
0.0047956
0.0077053
0.00766097
0.00792755
0.00741863
0.00564669
0.0049136
0.00466235
0.0044184
0.00441172
0.00439545
0.00439574
0.00440048
0.00440624
0.00441233
0.00441151
0.00442124
0.00442094
0.00442755
0.00443053
0.00443676
0.00444352
0.00445482
0.00447225
0.00449932
0.00453844
0.00459312
0.00466641
0.00475889
0.00488132
0.00796005
0.00766692
0.00730212
0.00690259
0.00651955
0.00628274
0.00611442
0.00614948
0.00614617
0.00623951
0.00634554
0.00656577
0.00685526
0.00683264
0.00685153
0.00681604
0.00639286
0.00604748
0.00525061
0.00531387
0.00515411
0.00514354
0.00521182
0.00506785
0.00750341
0.00780548
0.00778342
0.00771868
0.00593909
0.00474146
0.00474125
0.00439745
0.00442938
0.00438359
0.00438583
0.00438792
0.00439427
0.00440043
0.00440147
0.00440645
0.00441072
0.00441451
0.00441521
0.00441937
0.00441845
0.00442085
0.00442069
0.00442131
0.00442201
0.00442337
0.00442702
0.0044331
0.00444248
0.00445463
0.00809485
0.00783489
0.00750998
0.00711004
0.00672808
0.00636997
0.00622445
0.00611461
0.00617475
0.00615761
0.00621611
0.00626201
0.0062832
0.00617782
0.00626966
0.00576981
0.00582909
0.00540975
0.005377
0.00530146
0.00514392
0.00523622
0.00635965
0.00769838
0.00764078
0.00763426
0.00713095
0.00560896
0.00488306
0.00460566
0.0044283
0.00441781
0.00437704
0.00437548
0.0043753
0.00438147
0.00439022
0.00438917
0.00439537
0.00440253
0.00440098
0.0044078
0.00440774
0.00441124
0.00441139
0.00441164
0.00441044
0.00440894
0.00440685
0.00440435
0.00440129
0.00439822
0.00439471
0.00439155
0.00824677
0.00807092
0.00781033
0.00748933
0.00712206
0.00676334
0.00644348
0.00633166
0.0061263
0.00620434
0.00611576
0.00614246
0.00596838
0.00604675
0.0057628
0.00580188
0.0055876
0.00555528
0.00549133
0.00582101
0.00635251
0.00737144
0.00731162
0.00756326
0.00735943
0.00696611
0.00559834
0.00481563
0.004577
0.00451452
0.00441425
0.00436283
0.00436938
0.00436465
0.00437053
0.00437776
0.0043771
0.00438378
0.00439069
0.00439055
0.00439859
0.00439748
0.00440384
0.0044029
0.00440549
0.00440547
0.00440488
0.00440357
0.00440191
0.00439979
0.00439702
0.00439452
0.00439075
0.00438722
0.00835297
0.00826338
0.00812366
0.00794121
0.00768365
0.00739879
0.00707157
0.00677477
0.0066003
0.00635856
0.00636221
0.00610088
0.00618508
0.00601893
0.00605002
0.0060006
0.00609381
0.00630169
0.00676397
0.00729109
0.00734223
0.00752892
0.00737127
0.00735751
0.00653893
0.00556275
0.0046503
0.00468058
0.00449999
0.00435917
0.00437292
0.00435163
0.00435552
0.00435759
0.00436744
0.00436677
0.00437232
0.0043774
0.00437959
0.00438358
0.00438767
0.00439059
0.00439451
0.00439626
0.00439839
0.00439875
0.00439897
0.00439844
0.00439774
0.00439658
0.00439533
0.00439372
0.00439159
0.00438892
0.00838485
0.00834671
0.00827529
0.00815162
0.00812405
0.00785422
0.0078403
0.00748271
0.00743181
0.00723138
0.00702256
0.00699687
0.00693295
0.00691285
0.00694068
0.00712362
0.00721951
0.00740152
0.00744614
0.00749392
0.00739284
0.00733227
0.00710946
0.0058784
0.00504317
0.00496931
0.00448997
0.0045171
0.0043444
0.00435887
0.00434204
0.00434142
0.00434791
0.00435558
0.00435526
0.00436101
0.00436427
0.00436925
0.00437169
0.00437674
0.00437974
0.0043833
0.00438679
0.00438882
0.00439209
0.00439153
0.00439321
0.0043932
0.00439354
0.0043937
0.00439381
0.00439385
0.00439329
0.00439205
0.00832216
0.00834291
0.00822728
0.00823881
0.00815437
0.00806361
0.00804921
0.00785417
0.00793336
0.00768015
0.00775378
0.00759632
0.00761007
0.00757245
0.00753931
0.00753572
0.0075035
0.00746028
0.00739963
0.00724457
0.00693309
0.00621365
0.00502787
0.0050861
0.00462206
0.00467181
0.00439911
0.00439949
0.00433632
0.00433701
0.00433267
0.00433646
0.00434653
0.00434243
0.00435253
0.00435203
0.00435853
0.00436149
0.00436498
0.00436932
0.00437186
0.00437812
0.00437847
0.00438521
0.00438237
0.00438874
0.00438729
0.0043911
0.00439152
0.00439402
0.00439592
0.00439768
0.00439879
0.00439888
0.00817155
0.00816567
0.00808874
0.00811206
0.00796962
0.0080633
0.00786236
0.00791228
0.00780466
0.00775218
0.00770097
0.00763049
0.00758594
0.00751594
0.00745603
0.00735923
0.00722108
0.00698807
0.006574
0.00601754
0.00540304
0.00506081
0.00463412
0.00473027
0.00446249
0.00447262
0.00434937
0.00435025
0.00432472
0.00432432
0.0043255
0.00433671
0.00433591
0.00434042
0.00434387
0.00434745
0.00435093
0.00435577
0.00435837
0.00436327
0.00436839
0.00436969
0.00437718
0.00437532
0.00438355
0.00438335
0.00438894
0.00439143
0.00439709
0.00439923
0.00440549
0.00441008
0.00441272
0.00441417
0.00763749
0.00755589
0.00747358
0.00739967
0.00737276
0.00730298
0.00730094
0.00725241
0.0072246
0.00717018
0.0071223
0.00702926
0.00692692
0.00676335
0.00654826
0.00628293
0.00596329
0.00560976
0.00528495
0.00499399
0.00475523
0.00462379
0.00445049
0.00448254
0.00439865
0.00433857
0.00433209
0.00431701
0.00431666
0.00432049
0.00432534
0.00432882
0.00433175
0.00433454
0.0043416
0.00434109
0.00435117
0.00434921
0.00435481
0.00436065
0.00436063
0.00436916
0.00437128
0.00437814
0.00438175
0.00439245
0.00439254
0.00441353
0.00440738
0.00443094
0.00442618
0.00444125
0.00444138
0.00444606
0.00656718
0.00637083
0.0061912
0.00606418
0.00594633
0.00588685
0.00581898
0.00579783
0.00575671
0.0057288
0.00567847
0.00561216
0.00551898
0.00540863
0.00527683
0.00513474
0.00497753
0.00482887
0.00468947
0.00457903
0.00449544
0.00439489
0.0044064
0.00433579
0.0043374
0.00431327
0.00431411
0.00431108
0.0043142
0.0043177
0.0043222
0.00432642
0.00432902
0.00433584
0.0043342
0.00434184
0.00434065
0.00434985
0.00435088
0.00435698
0.00436259
0.0043684
0.00437375
0.00437933
0.00440174
0.00439772
0.00443679
0.00442366
0.00446967
0.00446389
0.00449531
0.00449655
0.00450798
0.00450774
0.00565453
0.0054754
0.00533575
0.00517921
0.00511321
0.00501676
0.00498699
0.00494565
0.00492184
0.0049046
0.00487445
0.00484408
0.00479983
0.00474125
0.00469297
0.00461658
0.00456484
0.00449443
0.00445321
0.00437605
0.00438132
0.00433582
0.00433891
0.00431174
0.00431232
0.00430739
0.00430902
0.0043096
0.00431427
0.00431784
0.00432344
0.00432339
0.00432971
0.00433037
0.00433558
0.00433982
0.00434265
0.0043498
0.00435257
0.00436049
0.00436449
0.00437881
0.00438549
0.0044146
0.0044126
0.00445846
0.00445695
0.00450518
0.00449859
0.0045365
0.00453429
0.00457518
0.00457667
0.0046001
0.00502791
0.00492201
0.00480311
0.00473558
0.00466317
0.00462041
0.00459409
0.00455534
0.00456594
0.00454316
0.00452612
0.00452124
0.00446661
0.0044773
0.00442056
0.00443046
0.00437205
0.00438059
0.00433654
0.00433757
0.0043153
0.00431573
0.00430574
0.00430496
0.00430507
0.00430536
0.00430855
0.0043103
0.00431852
0.00431755
0.00432338
0.00432309
0.00433056
0.0043299
0.00433793
0.00433828
0.00434396
0.00435018
0.00435734
0.00435783
0.00438388
0.00437951
0.00440961