/*--------------------------------*- C++ -*----------------------------------*\
  =========                 |
  \\      /  F ield         | OpenFOAM: The Open Source CFD Toolbox
   \\    /   O peration     | Website:  https://openfoam.org
    \\  /    A nd           | Version:  11
     \\/     M anipulation  |
\*---------------------------------------------------------------------------*/
FoamFile
{
    format      ascii;
    class       surfaceScalarField;
    location    "3";
    object      phi;
}
// * * * * * * * * * * * * * * * * * * * * * * * * * * * * * * * * * * * * * //

dimensions      [0 3 -1 0 0 0 0];

internalField   nonuniform List<scalar> 
18960
(
0.0480328
0.000603578
-0.0486364
0.0473803
0.00065251
0.0467638
0.000616532
0.046354
0.000409767
0.0459444
0.000409657
0.0448573
0.00108706
0.0427271
0.00213019
0.0404062
0.00232093
0.0390316
0.00137457
0.0386839
0.000347671
0.0389749
-0.000290989
0.0400756
-0.00110068
0.0417819
-0.0017063
0.0434081
-0.00162619
0.0447475
-0.00133939
0.0459542
-0.00120675
0.0472127
-0.00125845
0.0484289
-0.00121622
0.0497109
-0.00128195
0.0508336
-0.00112277
0.0518269
-0.000993295
0.0526516
-0.000824651
0.0529492
-0.000297559
0.0527833
0.000165895
0.0522742
0.000509036
0.0514671
0.000807135
0.0504111
0.00105599
0.0492209
0.00119025
0.0480975
0.00112331
0.0472369
0.000860636
0.0466294
0.000607503
0.0463566
0.000272816
0.0464072
-5.06154e-05
0.0466493
-0.000242081
0.0470562
-0.000406963
0.0474783
-0.000422027
0.0478493
-0.000371052
0.0485735
-0.000724223
0.0493483
-0.000774783
-0.000641226
0.0499896
0.0482867
0.000883485
-0.0485667
0.0480099
0.00092932
0.0477047
0.000921799
0.047342
0.00077244
0.046777
0.000974682
0.0460936
0.00177043
0.0451386
0.00308523
0.0441062
0.0033533
0.0433324
0.00214832
0.0430497
0.000630403
0.0431505
-0.000391783
0.0436078
-0.00155794
0.0442677
-0.00236625
0.0449381
-0.00229657
0.0456834
-0.00208466
0.0466556
-0.00217899
0.0478515
-0.00245441
0.0492184
-0.00258309
0.0506476
-0.00271113
0.0519521
-0.00242732
0.053109
-0.00215016
0.0541111
-0.00182671
0.054711
-0.000897511
0.0548727
4.18411e-06
0.0547502
0.000631557
0.0543661
0.00119121
0.0536496
0.00177254
0.0527426
0.00209725
0.0517755
0.00209041
0.050828
0.00180815
0.0498758
0.0015597
0.0490604
0.00108822
0.0482437
0.000766014
0.0476383
0.000363333
0.0471566
7.47975e-05
0.0468499
-0.000115414
0.0467139
-0.000235034
0.0463482
-0.000358504
0.0460453
-0.000471855
-0.00103891
0.046443
0.048168
0.00123153
-0.048516
0.0477907
0.00130657
0.0473053
0.00140729
0.0466952
0.00138249
0.0461033
0.00156658
0.0453185
0.00255525
0.0444206
0.00398313
0.0436284
0.00414544
0.0429912
0.00278559
0.0428828
0.000738794
0.0433368
-0.000845833
0.044214
-0.00243513
0.0452237
-0.00337594
0.0461797
-0.00325256
0.0470828
-0.00298776
0.0479493
-0.00304548
0.0488688
-0.00337391
0.0498541
-0.00356843
0.0509076
-0.00376464
0.0519777
-0.00349734
0.0528417
-0.00301423
0.053559
-0.002544
0.0540659
-0.00140441
0.0542034
-0.000133271
0.0538873
0.00094761
0.0533341
0.00174443
0.0524956
0.00261108
0.0515447
0.00304811
0.0505675
0.00306768
0.0497274
0.00264819
0.0490479
0.00223921
0.0486746
0.00146155
0.0485493
0.000891272
0.0486269
0.000285722
0.0489187
-0.00021696
0.0491342
-0.000330869
0.0496605
-0.000761425
0.0502062
-0.000904178
0.050824
-0.00108967
-0.000961055
0.0507462
0.0480997
0.00159175
-0.0484599
0.047726
0.00168031
0.0472816
0.00185165
0.0468455
0.00181856
0.0463115
0.00210056
0.0455461
0.00332067
0.0450153
0.00451391
0.0447547
0.00440607
0.0445814
0.00295886
0.0448343
0.000485916
0.0454737
-0.00148524
0.0460738
-0.00303521
0.0464331
-0.00373521
0.0466842
-0.00350366
0.0470349
-0.00333844
0.0476434
-0.00365404
0.0484936
-0.00422405
0.0495783
-0.00465317
0.0507877
-0.00497404
0.051976
-0.00468569
0.0530144
-0.00405262
0.0540137
-0.00354322
0.0547508
-0.00214153
0.0550941
-0.000476639
0.0550749
0.000966858
0.0548328
0.00198657
0.0543225
0.00312135
0.0535811
0.00378945
0.052691
0.0039578
0.0517624
0.00357682
0.0508266
0.00317501
0.0499224
0.00236575
0.0490015
0.00181213
0.0481558
0.00113146
0.0475435
0.000395355
0.0471047
0.000107905
0.0467197
-0.000376472
0.0466409
-0.000825347
0.0465458
-0.000994593
-0.00150102
0.0470858
0.0480124
0.00197319
-0.0483938
0.0475995
0.00209315
0.0471774
0.00227371
0.0467062
0.00228979
0.0460652
0.00274157
0.0454498
0.00393608
0.0452851
0.00467857
0.0453758
0.0043154
0.0454206
0.00291407
0.0455211
0.000385384
0.0456485
-0.00161263
0.0458881
-0.00327481
0.0463041
-0.00415118
0.046936
-0.00413556
0.0477044
-0.00410684
0.0485133
-0.0044629
0.0493141
-0.0050249
0.0501548
-0.00549385
0.0510446
-0.00586389
0.0519877
-0.0056287
0.0528397
-0.00490465
0.0534822
-0.00418576
0.053974
-0.00263333
0.0543201
-0.000822682
0.0542278
0.00105915
0.0539114
0.00230295
0.0533681
0.00366463
0.0526544
0.00450318
0.0518186
0.00479363
0.0509977
0.00439767
0.0502916
0.00388113
0.0497421
0.00291521
0.0494511
0.00210312
0.0494067
0.00117593
0.0495165
0.000285556
0.049651
-2.66098e-05
0.0499725
-0.000698009
0.0503322
-0.00118502
0.050768
-0.00143041
-0.0014088
0.0506758
0.0479268
0.00237628
-0.0483299
0.0475075
0.00251249
0.0470928
0.00268836
0.046586
0.00279658
0.0459965
0.00333109
0.0456256
0.00430698
0.0455778
0.00472636
0.0456479
0.00424535
0.0458512
0.00271071
0.0461926
4.4027e-05
0.0466924
-0.00211246
0.047229
-0.00381139
0.0476162
-0.0045384
0.0478849
-0.00440432
0.0481759
-0.00439784
0.048653
-0.00493995
0.0492877
-0.00565959
0.0501142
-0.00632036
0.0510733
-0.00682298
0.0521027
-0.00665815
0.0530211
-0.00582301
0.0538693
-0.00503392
0.0546675
-0.00343155
0.0552308
-0.00138606
0.0554277
0.000862331
0.0552808
0.00244982
0.0548835
0.00406188
0.0542609
0.00512581
0.0534445
0.00561006
0.0525408
0.00530137
0.0516527
0.00476916
0.0508127
0.00375527
0.0499464
0.00296945
0.0490339
0.00208835
0.0482416
0.00107794
0.0477219
0.000493083
0.0472116
-0.000187781
0.0469872
-0.000960557
0.0469158
-0.00135908
-0.00194605
0.0474531
0.0478378
0.00280593
-0.0482675
0.0474248
0.00292548
0.0470006
0.00311261
0.046474
0.00332313
0.0460168
0.00378834
0.0457809
0.0045429
0.0458188
0.00468837
0.0459909
0.00407334
0.0463657
0.00233591
0.0467531
-0.000343426
0.047055
-0.00241438
0.0472335
-0.00398984
0.0473259
-0.00463083
0.0476051
-0.00468346
0.048177
-0.00496977
0.0489089
-0.00567184
0.0496747
-0.00642541
0.0504873
-0.00713291
0.0512766
-0.00761232
0.0521077
-0.00748929
0.0529146
-0.00662987
0.0535717
-0.00569099
0.0540287
-0.00388857
0.0544523
-0.00180963
0.0546429
0.000671725
0.0545397
0.00255297
0.0542486
0.004353
0.0537906
0.00558379
0.053123
0.00627764
0.0523571
0.00606735
0.0515877
0.00553848
0.0509006
0.00444238
0.0504597
0.00341038
0.0502621
0.00228599
0.0502303
0.00110965
0.0503295
0.000393942
0.0503817
-0.000240003
0.0505065
-0.00108536
0.0507666
-0.00161922
-0.00180899
0.0506296
0.0477403
0.00324133
-0.0481757
0.0473268
0.00333898
0.0468973
0.00354204
0.0464451
0.00377532
0.0460827
0.00415083
0.0459548
0.00467079
0.0460356
0.0046076
0.0462207
0.00388824
0.0466651
0.00189151
0.0471907
-0.000869117
0.0476615
-0.00288512
0.0479717
-0.00430005
0.0482191
-0.00487823
0.0485134
-0.00497781
0.0488712
-0.00532756
0.0493316
-0.0061322
0.049913
-0.00700681
0.0506512
-0.00787117
0.051426
-0.00838704
0.0523007
-0.00836404
0.0530923
-0.00742143
0.0538518
-0.00645055
0.0546454
-0.00468219
0.0553177
-0.00248187
0.055697
0.000292403
0.0557094
0.00254061
0.0554938
0.00456862
0.0550289
0.00604866
0.054368
0.00693857
0.0535283
0.00690699
0.0526853
0.00638148
0.0518529
0.00527484
0.0510244
0.00423882
0.0501324
0.00317804
0.0492033
0.00203877
0.0485295
0.00106766
0.0479929
0.000296619
0.047591
-0.000683469
0.0474151
-0.00144325
-0.00229535
0.0479014
0.0476522
0.00366773
-0.0480786
0.0472487
0.00374255
0.0468343
0.00395641
0.0464546
0.00415499
0.0461821
0.00442332
0.0461168
0.0047361
0.0462169
0.00450751
0.0464577
0.00364742
0.0470479
0.00130131
0.0476253
-0.00144652
0.0479643
-0.00322412
0.048145
-0.00448073
0.0482555
-0.00498869
0.048491
-0.00521339
0.0488694
-0.00570595
0.0494427
-0.00670544
0.0500838
-0.0076479
0.0508001
-0.00858748
0.0515176
-0.00910452
0.0522645
-0.00911095
0.0530418
-0.00819879
0.0537256
-0.00713433
0.0542101
-0.00516667
0.0546526
-0.00292438
0.0550616
-0.000116599
0.0551878
0.00241439
0.0551077
0.00464876
0.0548609
0.00629541
0.0544145
0.00738496
0.0537776
0.00754396
0.0529697
0.00718933
0.0521733
0.00607129
0.0515648
0.00484727
0.0512155
0.00352738
0.0510462
0.00220806
0.0510507
0.00106308
0.0509734
0.000373969
0.0509046
-0.000614681
0.0509049
-0.00144358
-0.00205941
0.050669
0.0475654
0.00408049
-0.0479781
0.0471844
0.00412355
0.0467925
0.00434825
0.0464841
0.00446344
0.0462998
0.00460763
0.0462852
0.00475071
0.0464217
0.00437095
0.0467832
0.00328598
0.0473758
0.000708673
0.0477993
-0.00186996
0.0481192
-0.00354411
0.0483899
-0.00475139
0.048709
-0.00530783
0.0490966
-0.00560094
0.0494785
-0.00608792
0.0499302
-0.00715708
0.0504547
-0.00817242
0.0510692
-0.00920195
0.051726
-0.00976137
0.0524853
-0.00987028
0.0532243
-0.00893776
0.0538863
-0.00779629
0.0546682
-0.00594861
0.0554395
-0.00369562
0.055952
-0.000629146
0.0561971
0.00216934
0.0561633
0.00468254
0.0558906
0.0065681
0.0554024
0.0078732
0.0546936
0.0082527
0.0539125
0.00797041
0.0530985
0.00688531
0.0522934
0.0056524
0.0514229
0.00439789
0.0504257
0.00320525
0.0496176
0.00187118
0.0489927
0.000998845
0.0485209
-0.000142825
0.0481641
-0.00108677
-0.00238224
0.0484869
0.0474976
0.0044781
-0.0478952
0.0471211
0.00450007
0.0468044
0.00466494
0.0465709
0.00469697
0.0464187
0.00475981
0.0464512
0.00471822
0.0466142
0.00420793
0.04708
0.00282013
0.0476861
0.000102655
0.0480921
-0.00227599
0.0483784
-0.00383043
0.0486278
-0.00500078
0.0488768
-0.00555676
0.0492325
-0.00595667
0.0496357
-0.00649112
0.0501299
-0.0076513
0.0506564
-0.00869895
0.0512531
-0.0097986
0.0518279
-0.0103361
0.0524792
-0.0105217
0.0531931
-0.00965163
0.05392
-0.00852324
0.0544661
-0.00649465
0.0549257
-0.00415527
0.0554576
-0.00116105
0.0558195
0.00180747
0.0559812
0.00452088
0.0559245
0.00662478
0.0556399
0.00815781
0.0551614
0.00873121
0.0544971
0.00863471
0.0536665
0.00771591
0.0528685
0.0064504
0.0523193
0.00494706
0.0519943
0.00353026
0.0518728
0.00199263
0.0517927
0.00107898
0.0515433
0.000106584
0.0513078
-0.000851255
-0.00201156
0.0509371
0.0474371
0.00485211
-0.0478111
0.0471038
0.00483343
0.046834
0.00493465
0.046654
0.00487697
0.0465741
0.00483979
0.0466366
0.00465569
0.0468488
0.00399567
0.0474253
0.00224368
0.0479626
-0.000434662
0.0482839
-0.00259729
0.0485081
-0.00405458
0.0487186
-0.00521131
0.0490546
-0.00589283
0.0495613
-0.00646332
0.050061
-0.00699081
0.0505482
-0.00813854
0.0510383
-0.00918903
0.0515783
-0.0103386
0.0520936
-0.0108514
0.0527231
-0.0111512
0.0534077
-0.0103362
0.0540329
-0.00914843
0.054747
-0.00720874
0.0555588
-0.00496715
0.0562471
-0.00184935
0.0567069
0.00134767
0.0568886
0.00433917
0.0568436
0.00666986
0.0565464
0.00845496
0.0560552
0.00922239
0.0553864
0.00930351
0.0546276
0.00847476
0.0538325
0.00724546
0.0529616
0.00581802
0.051944
0.00454781
0.0509824
0.00295421
0.0501931
0.00186833
0.0497245
0.000575202
0.0492654
-0.000392152
-0.0020239
0.0492777
0.0474135
0.00519299
-0.0477543
0.0471112
0.00513571
0.0469084
0.00513739
0.0467727
0.0050127
0.0467164
0.00489605
0.0468149
0.00455719
0.0471064
0.00370422
0.0477216
0.00162847
0.0481736
-0.00088669
0.048438
-0.00286164
0.0486172
-0.00423376
0.0488797
-0.00547379
0.0492551
-0.00626829
0.0497609
-0.00696911
0.0502818
-0.00751171
0.0508147
-0.00867144
0.0512846
-0.00965894
0.0518031
-0.0108571
0.052283
-0.0113313
0.0527962
-0.0116643
0.0534185
-0.0109585
0.0541406
-0.00987053
0.0547839
-0.00785201
0.0553211
-0.00550439
0.0559127
-0.00244096
0.056472
0.000788408
0.0568578
0.00395334
0.057012
0.0065157
0.0569154
0.00855152
0.0565767
0.00956106
0.0560484
0.00983186
0.0553346
0.00918853
0.0544617
0.00811838
0.0537097
0.00656998
0.0531905
0.00506701
0.0529107
0.00323409
0.0527173
0.00206172
0.0524835
0.000809021
0.0520306
6.07371e-05
-0.00163362
0.0516403
0.0474085
0.00549159
-0.0477071
0.047155
0.00538918
0.046999
0.00529343
0.0468982
0.00511347
0.0468907
0.0049036
0.0470103
0.00443756
0.0474107
0.00330385
0.0480298
0.00100931
0.0484101
-0.001267
0.0486098
-0.00306129
0.0487525
-0.00437646
0.0489816
-0.00570295
0.0493244
-0.0066111
0.0498569
-0.00750158
0.0504963
-0.00815113
0.0511401
-0.00931518
0.051688
-0.0102069
0.0522003
-0.0113694
0.052647
-0.011778
0.053124
-0.0121413
0.0537149
-0.0115495
0.054274
-0.0104297
0.0549422
-0.0085202
0.0557294
-0.00629162
0.0565203
-0.00323181
0.0571984
0.000110329
0.0576481
0.00350365
0.0578338
0.00633002
0.0578192
0.00856612
0.0575478
0.0098324
0.0570475
0.0103322
0.0563524
0.0098836
0.0556169
0.00885395
0.054804
0.00738286
0.0537861
0.00608484
0.0527417
0.00427856
0.0517616
0.00304174
0.0511395
0.00143115
0.0506735
0.000526702
-0.00134424
0.0503842
0.0474361
0.00575124
-0.0476958
0.0472362
0.00558911
0.0471072
0.00542245
0.0470138
0.00520684
0.0470331
0.00488427
0.0472162
0.00425445
0.0477096
0.00281052
0.0482813
0.000437579
0.0485833
-0.001569
0.0487197
-0.00319766
0.0488118
-0.00446863
0.0490231
-0.00591424
0.0494018
-0.00698974
0.0500048
-0.00810461
0.0507
-0.00884634
0.0513792
-0.00999442
0.0519448
-0.0107725
0.052477
-0.0119015
0.0529343
-0.0122352
0.0533571
-0.0125642
0.0537748
-0.0119672
0.0544164
-0.0110713
0.055117
-0.00922075
0.055733
-0.0069077
0.0563552
-0.00385399
0.0570908
-0.000625292
0.0576934
0.00290109
0.0580827
0.0059407
0.0582228
0.008426
0.0580986
0.0099567
0.0577267
0.010704
0.057192
0.0104183
0.0563935
0.00965253
0.0555453
0.00823103
0.0548033
0.00682678
0.0543007
0.00478119
0.0539123
0.00343015
0.0536229
0.00172058
0.0531082
0.00104134
-0.000968819
0.0527328
0.0474182
0.0059711
-0.047638
0.0472818
0.00572546
0.0471766
0.00552771
0.0471235
0.00525995
0.047184
0.00482375
0.0474678
0.00397061
0.0480526
0.0022258
0.048541
-5.08762e-05
0.0487653
-0.00179325
0.048895
-0.00332738
0.0489759
-0.00454959
0.0492
-0.00613827
0.0495398
-0.00732957
0.0500824
-0.00864727
0.0507837
-0.00954756
0.0515144
-0.0107251
0.0521639
-0.011422
0.0527889
-0.0125265
0.0533099
-0.0127562
0.0537801
-0.0130344
0.0542613
-0.0124483
0.0547706
-0.0115806
0.0553368
-0.00978699
0.0560369
-0.00760776
0.0568441
-0.00466122
0.0576635
-0.00144465
0.0583924
0.0021722
0.0589099
0.00542318
0.0591878
0.00814806
0.0592079
0.00993661
0.0588987
0.0110132
0.0583078
0.0110091
0.0575722
0.0103882
0.0568526
0.0089506
0.0559544
0.00772502
0.0549337
0.00580183
0.0538074
0.00455646
0.0529865
0.00254149
0.0523124
0.00171543
-0.000484817
0.0518284
0.047495
0.00615633
-0.0476802
0.0473813
0.00583915
0.0472833
0.00562576
0.0472697
0.0052735
0.0473987
0.0046947
0.0478636
0.00350576
0.0484101
0.00167934
0.0487681
-0.000408901
0.0489724
-0.00199762
0.0490863
-0.00344125
0.0491964
-0.00465971
0.049393
-0.00633486
0.0496966
-0.00763314
0.0501827
-0.00913339
0.050835
-0.0101998
0.0516043
-0.0114945
0.052299
-0.0121167
0.0529308
-0.0131584
0.0535112
-0.0133366
0.0540376
-0.0135608
0.0544349
-0.0128457
0.0549256
-0.0120712
0.0555598
-0.0104213
0.0562253
-0.0082732
0.056892
-0.00532794
0.057709
-0.0022616
0.0585195
0.00136164
0.0591905
0.00475222
0.0596187
0.00771987
0.0597716
0.00978372
0.0596456
0.0111392
0.0592926
0.0113622
0.058657
0.0110238
0.0578598
0.00974781
0.056915
0.00866983
0.0562091
0.00650771
0.0555964
0.0051692
0.0551374
0.00300042
0.0545744
0.00227852
5.83504e-05
0.0540312
0.0475471
0.00630821
-0.047699
0.0474475
0.00593872
0.0474148
0.00565852
0.0474591
0.00522917
0.0477173
0.00443647
0.0482232
0.00299996
0.048648
0.00125444
0.0489215
-0.000682389
0.0490909
-0.00216696
0.0492231
-0.00357352
0.0493277
-0.00476425
0.0495415
-0.00654863
0.0498465
-0.00793814
0.0502812
-0.00956816
0.0508328
-0.0107513
0.0515585
-0.0122202
0.0522968
-0.012855
0.0529861
-0.0138476
0.0536246
-0.0139751
0.0542339
-0.0141701
0.0547938
-0.0134056
0.0553234
-0.0126008
0.0558986
-0.0109965
0.0565876
-0.00896219
0.0574095
-0.00614986
0.0583304
-0.00318244
0.0592566
0.000435444
0.0600883
0.00392049
0.0606344
0.00717377
0.0609144
0.00950366
0.0609032
0.0111504
0.060596
0.0116694
0.0599382
0.0116815
0.0592431
0.010443
0.0584353
0.00947759
0.0574806
0.00746242
0.0563681
0.00628167
0.0553812
0.00398727
0.0544219
0.00323783
0.000686548
0.0537937
0.0476669
0.00644968
-0.0478084
0.0476107
0.00599492
0.0476735
0.00559574
0.0478545
0.00504818
0.0481811
0.00410986
0.0485988
0.00258227
0.0489125
0.000940701
0.0490935
-0.000863328
0.0491666
-0.0022401
0.0493151
-0.003722
0.0494879
-0.00493705
0.0496977
-0.00675846
0.0499668
-0.00820722
0.050406
-0.0100073
0.0508537
-0.011199
0.0514618
-0.0128283
0.052192
-0.0135852
0.0529294
-0.014585
0.0536081
-0.0146538
0.0542743
-0.0148363
0.0549279
-0.0140592
0.0555072
-0.0131802
0.0561214
-0.0116106
0.056886
-0.0097268
0.0576948
-0.00695869
0.0585688
-0.0040564
0.059554
-0.000549821
0.0605215
0.00295299
0.0612576
0.00643767
0.0617307
0.00903058
0.0618593
0.0110219
0.0617818
0.0117468
0.0613159
0.0121475
0.0606743
0.0110846
0.0597735
0.0103784
0.0588211
0.0084148
0.057907
0.00719582
0.0572232
0.0046711
0.0565713
0.0038897
0.00139849
0.0558593
0.0477893
0.00653945
-0.047879
0.047795
0.00598916
0.047858
0.00553272
0.0481256
0.00478066
0.0484778
0.00375761
0.0488422
0.00221786
0.0490795
0.000703387
0.049203
-0.000986802
0.0492315
-0.0022686
0.0494394
-0.00392987
0.049664
-0.00516166
0.0499036
-0.0069981
0.0501413
-0.00844489
0.0505555
-0.0104215
0.0509626
-0.0116061
0.051475
-0.0133407
0.0520288
-0.0141391
0.0527109
-0.015267
0.0533919
-0.0153349
0.0540481
-0.0154924
0.0547888
-0.0147999
0.0556121
-0.0140035
0.0563684
-0.0123669
0.0572484
-0.0106068
0.0581856
-0.0078959
0.0592033
-0.00507405
0.0602054
-0.00155196
0.0612964
0.00186206
0.0622274
0.00550659
0.0628883
0.00836973
0.0631133
0.0107968
0.0631557
0.0117045
0.0628317
0.0124714
0.0622145
0.0117018
0.0614364
0.0111565
0.0606365
0.00921467
0.0595679
0.00826447
0.058465
0.00577394
0.0572862
0.00506858
0.00228042
0.0564043
0.0480772
0.00659399
-0.0481317
0.0481465
0.00591981
0.0483181
0.0053611
0.048644
0.00445479
0.0489705
0.00343112
0.0492443
0.00194406
0.0493642
0.000583434
0.0494339
-0.00105642
0.049482
-0.00231678
0.0496267
-0.00407451
0.0498442
-0.00537916
0.0501822
-0.00733615
0.0504104
-0.00867309
0.0507448
-0.0107558
0.051113
-0.0119744
0.0515267
-0.0137545
0.0519932
-0.0146055
0.0525003
-0.0157741
0.0531029
-0.0159375
0.0537609
-0.0161504
0.0544894
-0.0155284
0.0553691
-0.0148832
0.056306
-0.0133038
0.0573445
-0.0116453
0.05848
-0.00903138
0.0596618
-0.00625586
0.0608199
-0.00271009
0.0619867
0.000695323
0.0630138
0.00447951
0.0639156
0.00746792
0.0643732
0.0103392
0.0644929
0.0115847
0.0643444
0.0126199
0.0639725
0.0120737
0.0632736
0.0118554
0.0623653
0.010123
0.0612755
0.00935423
0.0602981
0.0067514
0.0593993
0.00596732
0.00321716
0.0584626
0.0482351
0.00659576
-0.0482369
0.0483422
0.00581273
0.0485313
0.00517194
0.0488109
0.0041752
0.0490781
0.00316393
0.0493447
0.00167751
0.049435
0.000493109
0.0495514
-0.00117279
0.0496709
-0.00243634
0.0498508
-0.00425441
0.0500619
-0.00559023
0.0503971
-0.00767132
0.0507018
-0.00897785
0.0510025
-0.0110565
0.0513297
-0.0123015
0.0516944
-0.0141192
0.0520606
-0.0149717
0.0524137
-0.0161272
0.0528647
-0.0163886
0.0534201
-0.0167058
0.0540443
-0.0161526
0.0548607
-0.0156996
0.0558788
-0.0143219
0.0571085
-0.012875
0.0584694
-0.0103923
0.0599878
-0.00777427
0.0614801
-0.00420235
0.0628975
-0.000722131
0.064067
0.00331006
0.065123
0.0064119
0.065834
0.00962822
0.0661518
0.0112669
0.066053
0.0127188
0.0657526
0.012374
0.0651858
0.0124223
0.0645052
0.0108036
0.0635522
0.0103072
0.0624958
0.00780777
0.0612155
0.00724768
0.00437603
0.0600566
0.0487257
0.00653357
-0.0486635
0.0489158
0.00562266
0.0491232
0.0049645
0.0493266
0.00397189
0.0495289
0.00296162
0.049729
0.00147741
0.0498223
0.000399806
0.0499403
-0.00129084
0.0500463
-0.00254233
0.0502869
-0.00449498
0.0504743
-0.00577764
0.0507083
-0.00790537
0.0510066
-0.00927607
0.0513426
-0.0113926
0.051649
-0.012608
0.0519208
-0.014391
0.0522296
-0.0152804
0.0525137
-0.0164113
0.0527934
-0.0166684
0.0531901
-0.0171025
0.0536916
-0.0166542
0.0543988
-0.0164067
0.0552994
-0.0152226
0.0565224
-0.014098
0.0580261
-0.011896
0.0598252
-0.00957334
0.0616744
-0.00605154
0.06358
-0.00262777
0.0651804
0.00170971
0.0664621
0.00513014
0.0673441
0.00874627
0.0679339
0.0106771
0.0680461
0.0126067
0.0678091
0.012611
0.0672943
0.0129371
0.0666802
0.0114176
0.0658697
0.0111177
0.0648188
0.00885874
0.0636856
0.00838081
0.00561319
0.0624485
0.0488742
0.00642834
-0.0487689
0.0490195
0.00547729
0.0491973
0.00478673
0.0494048
0.00376437
0.0495583
0.00280813
0.049737
0.00129871
0.0498937
0.000243124
0.0500933
-0.00149048
0.0502836
-0.00273259
0.0505454
-0.00475677
0.0508155
-0.00604771
0.0510975
-0.00818739
0.0513654
-0.00954399
0.0516515
-0.0116787
0.0519713
-0.0129277
0.0522378
-0.0146575
0.0524578
-0.0155004
0.05271
-0.0166636
0.0529154
-0.0168738
0.0531918
-0.0173788
0.0535437
-0.0170061
0.0540744
-0.0169374
0.0547659
-0.015914
0.0558553
-0.0151874
0.0572115
-0.0132522
0.0590781
-0.01144
0.0612209
-0.00819436
0.0636373
-0.0050441
0.065908
-0.000560992
0.0678096
0.0032285
0.0691405
0.00741534
0.0699447
0.00987284
0.0702505
0.0123009
0.0702401
0.0126214
0.0697882
0.013389
0.0691634
0.0120424
0.068369
0.0119121
0.0675092
0.00971856
0.0664837
0.00940634
0.0069258
0.065171
0.0495411
0.00632622
-0.049439
0.0496742
0.00534415
0.0498038
0.00465717
0.0499843
0.00358389
0.0501051
0.00268734
0.050221
0.00118279
0.0503722
9.18743e-05
0.050597
-0.00171524
0.0508262
-0.00296174
0.0510987
-0.00502928
0.0513767
-0.00632577
0.0516647
-0.00847531
0.0519478
-0.00982719
0.0521619
-0.0118927
0.0523809
-0.0131468
0.0526048
-0.0148814
0.0527777
-0.0156733
0.0529663
-0.0168522
0.0531057
-0.0170132
0.0533445
-0.0176176
0.0535601
-0.0172217
0.0540081
-0.0173855
0.0545412
-0.0164471
0.0554278
-0.016074
0.0565967
-0.0144211
0.058293
-0.0131363
0.0603593
-0.0102606
0.0629346
-0.0076194
0.0657283
-0.00335471
0.0684911
0.000465716
0.0706653
0.00524109
0.0721873
0.00835079
0.072872
0.0116163
0.0730103
0.0124831
0.0726863
0.013713
0.0721201
0.0126085
0.0713407
0.0126915
0.0704447
0.0106145
0.0694719
0.0103791
0.0082578
0.0681399
0.0495269
0.00621355
-0.0494143
0.0496454
0.00522568
0.0497839
0.00451869
0.0499454
0.00342236
0.050142
0.00249076
0.050346
0.000978749
0.0505543
-0.000116421
0.0507988
-0.00195975
0.0510956
-0.00325854
0.0513895
-0.00532314
0.0517385
-0.00667479
0.0520359
-0.00877274
0.0523387
-0.01013
0.0526206
-0.0121746
0.0528368
-0.0133631
0.0530149
-0.0150595
0.0531235
-0.0157818
0.0532562
-0.0169849
0.0533288
-0.0170858
0.0535082
-0.017797
0.0536692
-0.0173827
0.0540262
-0.0177424
0.0544987
-0.0169196
0.0552951
-0.0168704
0.0563242
-0.0154502
0.057814
-0.0146262
0.0596811
-0.0121277
0.0621211
-0.0100594
0.0648703
-0.00610387
0.0680837
-0.0027477
0.0711315
0.00219328
0.0737864
0.00569585
0.0754831
0.00991965
0.0763033
0.0116628
0.0762804
0.013736
0.0757105
0.0131785
0.0749318
0.0134702
0.0738682
0.0116781
0.0729946
0.0112527
0.00951275
0.0717397
0.0502673
0.00613296
-0.0501867
0.0503975
0.00509547
0.0505472
0.00436902
0.0506741
0.0032954
0.0508444
0.00232043
0.0510537
0.000769451
0.0513231
-0.000385784
0.0515685
-0.00220518
0.0518396
-0.00352956
0.0520778
-0.00556142
0.0524104
-0.00700734
0.0527075
-0.00906989
0.052994
-0.0104164
0.0532228
-0.0124033
0.053386
-0.0135263
0.0535443
-0.0152178
0.0535779
-0.0158154
0.0536294
-0.0170364
0.0536115
-0.0170679
0.0536757
-0.0178612
0.0537543
-0.0174613
0.0540265
-0.0180146
0.0544167
-0.0173098
0.055139
-0.0175927
0.0561077
-0.0164189
0.05759
-0.0161085
0.0593683
-0.0139059
0.0617608
-0.0124519
0.0643946
-0.0087376
0.0675125
-0.00586564
0.0707226
-0.00101677
0.0740574
0.00236106
0.076935
0.00704205
0.0790416
0.00955617
0.0801871
0.0125904
0.0801859
0.0131797
0.0796426
0.0140135
0.0784377
0.012883
0.077221
0.0124695
0.0108213
0.0759124
0.0501448
0.00602047
-0.0500323
0.0503024
0.0049379
0.0504916
0.00417982
0.0507241
0.00306287
0.0510081
0.00203644
0.0512614
0.000516098
0.0516018
-0.000726198
0.0519096
-0.00251298
0.0522816
-0.00390153
0.0525868
-0.0058666
0.0528959
-0.00731646
0.0531949
-0.0093689
0.0534468
-0.0106683
0.053637
-0.0125935
0.0537551
-0.0136444
0.0538586
-0.0153213
0.053894
-0.0158507
0.0538815
-0.0170239
0.0538193
-0.0170057
0.0538141
-0.0178561
0.0538173
-0.0174644
0.0539678
-0.0181651
0.0542437
-0.0175858
0.0548246
-0.0181736
0.0556458
-0.0172401
0.0570223
-0.017485
0.0588324
-0.015716
0.0612576
-0.0148771
0.0641291
-0.0116091
0.0674067
-0.00914321
0.0708807
-0.00449077
0.0742592
-0.00101748
0.0775574
0.00374391
0.080362
0.00675147
0.0827737
0.0101788
0.0842454
0.011708
0.0847676
0.0134913
0.084289
0.0133616
0.0831758
0.0135826
0.012603
0.0813941
0.0511584
0.0059034
-0.0510414
0.0512944
0.00480191
0.0514993
0.00397488
0.0517125
0.00284967
0.0519934
0.00175558
0.0522637
0.000245836
0.0525815
-0.00104404
0.0529102
-0.00284163
0.0532348
-0.00422614
0.0535605
-0.00619231
0.0538298
-0.0075858
0.0541118
-0.00965086
0.0543357
-0.0108922
0.054461
-0.0127188
0.0545353
-0.0137188
0.0544825
-0.0152684
0.0543994
-0.0157677
0.0542345
-0.0168589
0.0540777
-0.0168489
0.053902
-0.0176803
0.0538337
-0.0173962
0.0538038
-0.0181352
0.0539973
-0.0177793
0.0543423
-0.0185186
0.0551306
-0.0180284
0.0561596
-0.018514
0.0578985
-0.017455
0.0601015
-0.0170801
0.063207
-0.0147146
0.0667549
-0.0126912
0.0708806
-0.00861646
0.0749487
-0.00508556
0.0788952
-0.00020263
0.0821874
0.00345925
0.0849256
0.0074407
0.0870178
0.00961574
0.0886926
0.0118165
0.0894001
0.0126541
0.0897711
0.0132116
0.0139299
0.0884442
0.0510667
0.00569076
-0.0508541
0.0512888
0.00457981
0.0515785
0.00368525
0.051889
0.00253916
0.0522284
0.00141618
0.052595
-0.000120831
0.0529546
-0.00140355
0.0534014
-0.00328848
0.0537383
-0.00456308
0.054116
-0.00656998
0.0544373
-0.00790711
0.0546607
-0.00987422
0.0549146
-0.0111461
0.0549794
-0.0127836
0.0550543
-0.0137937
0.054871
-0.0150851
0.0548049
-0.0157016
0.0544417
-0.0164957
0.0543088
-0.0167161
0.0539121
-0.0172835
0.0538274
-0.0173115
0.0535152
-0.017823
0.0537323
-0.0179964
0.0537278
-0.0185142
0.0544466
-0.0187471
0.0550982
-0.0191656
0.0567259
-0.0190827
0.0585476
-0.0189018
0.0616138
-0.0177807
0.0650949
-0.0161723
0.0696692
-0.0131908
0.0744293
-0.00984559
0.0795623
-0.00533569
0.0840997
-0.00107809
0.0882641
0.00327629
0.0908975
0.00698227
0.0933072
0.00940682
0.0942045
0.0117569
0.0953143
0.0121018
0.0140433
0.0952009
0.0524494
0.00545957
-0.0522183
0.0527196
0.00430962
0.0530024
0.00340249
0.0533268
0.00221475
0.0536277
0.00111524
0.054059
-0.000552067
0.0543894
-0.00173399
0.0547769
-0.00367596
0.0551571
-0.00494328
0.055428
-0.00684094
0.0557707
-0.00824981
0.0558186
-0.00992206
0.0560687
-0.0113962
0.0559024
-0.0126173
0.0559585
-0.0138498
0.0555479
-0.0146744
0.0554351
-0.0155889
0.0548755
-0.0159361
0.0547103
-0.0165509
0.0540717
-0.016645
0.0539633
-0.017203
0.0534261
-0.0172858
0.0534779
-0.0180482
0.053224
-0.0182603
0.0537103
-0.0192334
0.0539448
-0.0194002
0.0552583
-0.0203962
0.0565436
-0.0201871
0.0594795
-0.0207166
0.0625147
-0.0192075
0.0674748
-0.0181509
0.0723234
-0.0146941
0.0787168
-0.0117291
0.0842914
-0.00665269
0.0903911
-0.0028234
0.0949346
0.00243873
0.0990391
0.00530237
0.101286
0.00950954
0.102855
0.0105334
0.0138487
0.103049
0.0525041
0.00511974
-0.0521642
0.0529196
0.00389405
0.0533134
0.00300875
0.0538096
0.00171852
0.0542247
0.000700137
0.054669
-0.000996385
0.055165
-0.00222996
0.0555096
-0.00402059
0.0560429
-0.00547656
0.0562119
-0.00700996
0.0566522
-0.00869009
0.0566206
-0.00989042
0.0568278
-0.0116034
0.0565704
-0.01236
0.0565524
-0.0138318
0.0560372
-0.0141592
0.0557996
-0.0153513
0.0551395
-0.015276
0.0547663
-0.0161777
0.054092
-0.0159707
0.0537298
-0.0168408
0.0531775
-0.0167334
0.0529955
-0.0178662
0.052654
-0.0179187
0.0527603
-0.0193397
0.052791
-0.019431
0.0535099
-0.021115
0.0543443
-0.0210215
0.0564381
-0.0228104
0.0590444
-0.0218138
0.0635297
-0.0226362
0.0686139
-0.0197783
0.0754122
-0.0185274
0.0823052
-0.0135457
0.0899959
-0.0105141
0.097049
-0.00461442
0.103654
-0.0013024
0.108613
0.00454987
0.11249
0.0066566
0.0125629
0.113776
0.0544208
0.00488683
-0.0541879
0.05476
0.00355492
0.055134
0.00263475
0.0555399
0.00131261
0.0561281
0.000111929
0.056465
-0.00133329
0.0570627
-0.00282763
0.0573636
-0.00432147
0.0578803
-0.00599328
0.0580831
-0.00721283
0.0583272
-0.00893417
0.0583498
-0.00991299
0.0582462
-0.0114999
0.0580287
-0.0121425
0.0576436
-0.0134467
0.0571995
-0.013715
0.0565275
-0.0146794
0.0559553
-0.0147038
0.0551905
-0.0154128
0.0545477
-0.0153279
0.0538422
-0.0161354
0.0533566
-0.0162478
0.0527691
-0.0172787
0.0524699
-0.0176195
0.052021
-0.0188908
0.0518725
-0.0192824
0.0516944
-0.0209369
0.0521109
-0.021438
0.0528157
-0.0235153
0.0548363
-0.0238344
0.0576735
-0.0254734
0.0623781
-0.0244829
0.0683484
-0.0244978
0.0758575
-0.0210547
0.0842901
-0.0189467
0.0934256
-0.0137499
0.102672
-0.0105493
0.111529
-0.0043071
0.119895
-0.00170866
0.00727195
0.125186
0.0554896
0.00422512
-0.0548279
0.0560293
0.00301519
0.0566878
0.00197619
0.0571299
0.000870548
0.0576702
-0.000428373
0.0581489
-0.00181199
0.0586752
-0.00335394
0.0590976
-0.0047438
0.0593147
-0.00621041
0.0596456
-0.00754379
0.0595863
-0.00887488
0.0596723
-0.00999894
0.0592871
-0.0111146
0.0590907
-0.0119461
0.0583839
-0.0127398
0.0579351
-0.0132663
0.056981
-0.0137253
0.0563302
-0.014053
0.0553201
-0.0144027
0.0546837
-0.0146915
0.053798
-0.0152497
0.0532608
-0.0157106
0.0525018
-0.0165197
0.052144
-0.0172617
0.0513767
-0.0181235
0.0510373
-0.018943
0.0501635
-0.0200631
0.0498969
-0.0211714
0.049163
-0.0227813
0.0495865
-0.0242578
0.0500831
-0.0259701
0.0528347
-0.0272345
0.0562229
-0.0278859
0.0619174
-0.0267493
0.0685025
-0.0255318
0.0778395
-0.0230868
0.0876238
-0.0203336
0.0990973
-0.0157806
0.11015
-0.0127613
-0.00511172
0.122534
0.0576494
0.0038107
-0.057235
0.0580889
0.0025757
0.058692
0.00137305
0.0594426
0.000120013
0.0600873
-0.00107307
0.0608193
-0.00254407
0.0612707
-0.00380527
0.0618154
-0.0052885
0.0619921
-0.00638713
0.06224