/*--------------------------------*- C++ -*----------------------------------*\
  =========                 |
  \\      /  F ield         | OpenFOAM: The Open Source CFD Toolbox
   \\    /   O peration     | Website:  https://openfoam.org
    \\  /    A nd           | Version:  10
     \\/     M anipulation  |
\*---------------------------------------------------------------------------*/
FoamFile
{
    format      ascii;
    class       volScalarField;
    location    "0.050274";
    object      p;
}
// * * * * * * * * * * * * * * * * * * * * * * * * * * * * * * * * * * * * * //

dimensions      [1 -1 -2 0 0 0 0];

internalField   nonuniform List<scalar> 
16320
(
0.472967
0.469773
0.48239
0.501614
0.503943
0.497013
0.481158
0.460253
0.437782
0.400303
0.322966
0.249663
0.214008
0.217446
0.23424
0.251441
0.276559
0.309683
0.333059
0.351356
0.383214
0.470544
0.640682
0.778632
0.890728
0.925483
0.724388
0.505297
0.40525
0.374992
0.367825
0.386896
0.415268
0.46369
0.547691
0.664715
0.74555
0.741235
0.679062
0.63314
0.595449
0.588936
0.559031
0.513921
0.488582
0.482883
0.494475
0.491902
0.485873
0.471143
0.453202
0.434697
0.416921
0.402512
0.396243
0.398322
0.400446
0.418989
0.48182
0.60591
0.799608
0.871397
0.861638
0.862219
0.841336
0.79823
0.773585
0.7096
0.663405
0.64514
0.640652
0.630877
0.62043
0.607227
0.596353
0.616563
0.462092
0.428194
0.422641
0.405709
0.377982
0.355153
0.339795
0.327099
0.306922
0.283277
0.258756
0.237063
0.221148
0.202734
0.211652
0.213455
0.2152
0.228992
0.262716
0.30691
0.338036
0.398383
0.37152
0.338012
0.338559
0.336037
0.34453
0.372703
0.453913
0.649525
0.98513
1.13294
1.20197
1.21241
1.00877
0.742713
0.613999
0.475092
0.456814
0.444835
0.423484
0.401143
0.39339
0.396497
0.392906
0.382282
0.357727
0.316686
0.262747
0.233183
0.230034
0.234369
0.244659
0.25939
0.283112
0.30884
0.341855
0.407132
0.549865
0.74778
0.873716
0.973267
0.992625
0.82377
0.568085
0.433475
0.384151
0.370629
0.378219
0.400406
0.444519
0.523138
0.620592
0.673798
0.664066
0.607819
0.543568
0.519294
0.535612
0.536445
0.527265
0.499024
0.480807
0.493126
0.489026
0.483049
0.470215
0.45446
0.438045
0.424301
0.414886
0.410978
0.408674
0.404123
0.437828
0.510772
0.647852
0.81845
0.853728
0.844468
0.838235
0.816934
0.785374
0.76747
0.719415
0.681835
0.662301
0.660667
0.652491
0.643112
0.631506
0.626
0.614567
0.48496
0.457012
0.457795
0.429072
0.388865
0.359497
0.34018
0.318885
0.294235
0.267432
0.239703
0.214063
0.188784
0.179606
0.182882
0.164356
0.158449
0.162141
0.177399
0.213185
0.225218
0.237816
0.24672
0.253593
0.27323
0.292124
0.321941
0.383094
0.51082
0.78407
1.23189
1.33594
1.4226
1.49182
1.32993
0.989452
0.765552
0.474815
0.437057
0.391816
0.345683
0.322879
0.318849
0.331155
0.342761
0.345353
0.340368
0.322352
0.294974
0.281582
0.269751
0.26255
0.26116
0.263376
0.271568
0.289694
0.327939
0.413418
0.601702
0.831925
0.966583
1.06981
1.12688
0.972018
0.65487
0.471793
0.40773
0.387226
0.384247
0.399588
0.436558
0.501506
0.576374
0.606552
0.589303
0.53977
0.477009
0.452965
0.490262
0.547943
0.578318
0.561037
0.480163
0.492678
0.486839
0.479529
0.467858
0.454353
0.44154
0.431801
0.428223
0.425402
0.427664
0.421281
0.466464
0.564813
0.724195
0.844109
0.847082
0.836504
0.821928
0.797897
0.765711
0.758175
0.724484
0.694867
0.680834
0.679328
0.67191
0.662712
0.650792
0.644778
0.621048
0.502815
0.479629
0.479064
0.439282
0.392289
0.360051
0.335118
0.310525
0.284045
0.254729
0.224731
0.19748
0.175036
0.17062
0.168371
0.151689
0.150033
0.145893
0.155101
0.17623
0.185454
0.190419
0.192415
0.197845
0.211989
0.239015
0.26947
0.324209
0.454688
0.772605
1.3402
1.44188
1.52282
1.59305
1.49659
1.13677
0.895427
0.466296
0.403905
0.337608
0.295768
0.280705
0.279985
0.294642
0.31373
0.329109
0.335756
0.334415
0.335307
0.328591
0.314816
0.30376
0.296925
0.294653
0.297987
0.309001
0.341108
0.429117
0.639142
0.910746
1.07001
1.17836
1.27998
1.14205
0.74443
0.504855
0.420744
0.39261
0.385292
0.395682
0.42641
0.479263
0.531477
0.548872
0.531433
0.495016
0.450151
0.430087
0.466679
0.541406
0.611268
0.640363
0.503919
0.495866
0.484542
0.47382
0.463529
0.453243
0.445031
0.440239
0.43854
0.441243
0.444633
0.442563
0.504788
0.626392
0.793865
0.854994
0.838616
0.826874
0.809197
0.784284
0.755661
0.751814
0.729787
0.706506
0.698252
0.69598
0.687951
0.677628
0.664333
0.65599
0.623817
0.513458
0.494002
0.489733
0.442423
0.392671
0.356644
0.329585
0.303707
0.275057
0.24397
0.213818
0.185475
0.170557
0.168161
0.156147
0.147995
0.142755
0.137165
0.143905
0.155632
0.161505
0.163784
0.165324
0.169072
0.182629
0.203396
0.235851
0.28642
0.398945
0.678828
1.27629
1.45522
1.52667
1.58756
1.55133
1.1893
0.949934
0.444496
0.36588
0.303753
0.272889
0.262938
0.263895
0.279045
0.301922
0.324896
0.341147
0.356203
0.374268
0.365403
0.356876
0.348599
0.338541
0.328936
0.329446
0.338011
0.372161
0.470416
0.703185
1.00169
1.18964
1.29942
1.43546
1.32456
0.85091
0.545984
0.432001
0.390675
0.379656
0.384817
0.406112
0.447085
0.492924
0.505464
0.494734
0.477294
0.458848
0.443822
0.486968
0.523316
0.594361
0.766264
0.571101
0.507837
0.480915
0.465106
0.456437
0.450949
0.448414
0.449175
0.45311
0.458905
0.466869
0.477464
0.548013
0.676201
0.825658
0.852382
0.834258
0.815568
0.797149
0.770297
0.757002
0.74165
0.734421
0.713572
0.713887
0.709466
0.699556
0.686668
0.672
0.665363
0.61875
0.519988
0.504613
0.494224
0.441538
0.388053
0.351949
0.324018
0.296245
0.265666
0.233803
0.203923
0.176169
0.169758
0.167717
0.149543
0.143011
0.132227
0.126055
0.133378
0.139971
0.144765
0.148876
0.15538
0.163716
0.179252
0.197081
0.228999
0.275692
0.377524
0.62041
1.14451
1.38194
1.41631
1.4466
1.45344
1.14144
0.945431
0.415001
0.33945
0.290099
0.266015
0.258506
0.260024
0.274046
0.298398
0.326284
0.349037
0.370477
0.389882
0.396261
0.395572
0.390604
0.379621
0.364536
0.362437
0.372009
0.414413
0.537686
0.806963
1.11469
1.31944
1.4233
1.58218
1.54651
0.941123
0.580167
0.436345
0.382239
0.365038
0.363746
0.37446
0.410423
0.452648
0.472486
0.477703
0.480729
0.48397
0.491391
0.592289
0.640813
0.836262
0.906505
0.616936
0.516106
0.475966
0.454355
0.446582
0.446126
0.450465
0.458508
0.467518
0.478243
0.490337
0.507208
0.573268
0.693339
0.816057
0.839905
0.820674
0.79113
0.785663
0.756068
0.754499
0.740358
0.736937
0.723575
0.724625
0.718756
0.706327
0.690521
0.674386
0.672022
0.597092
0.522658
0.51358
0.495248
0.435092
0.381629
0.345925
0.316834
0.287231
0.255127
0.223288
0.192303
0.172557
0.171902
0.163683
0.149899
0.136833
0.124181
0.117572
0.124192
0.130579
0.138422
0.148198
0.160954
0.176868
0.195899
0.215014
0.248472
0.291742
0.386636
0.605109
1.07848
1.32243
1.32116
1.34725
1.36102
1.09681
0.93428
0.389215
0.328007
0.291521
0.273286
0.266862
0.267711
0.278704
0.301404
0.331604
0.358875
0.381294
0.407767
0.426797
0.425929
0.420957
0.409926
0.394117
0.392876
0.406466
0.463947
0.623575
0.94023
1.25319
1.45539
1.5456
1.68647
1.77181
1.06623
0.615444
0.439881
0.373469
0.349393
0.336952
0.337641
0.364502
0.408608
0.443171
0.462141
0.476642
0.485256
0.544964
0.807812
1.10039
1.24089
0.890223
0.615324
0.503386
0.461221
0.439458
0.433325
0.438851
0.450674
0.465409
0.48004
0.49367
0.507743
0.527109
0.568967
0.653427
0.771438
0.845602
0.825867
0.784389
0.779314
0.748822
0.750024
0.738404
0.737385
0.727876
0.730151
0.723516
0.708724
0.689819
0.670561
0.682335
0.571194
0.525132
0.52365
0.492823
0.427124
0.374017
0.338197
0.307898
0.276617
0.243704
0.213142
0.181097
0.172221
0.173851
0.16029
0.150939
0.132867
0.121646
0.115913
0.123333
0.132257
0.144328
0.16082
0.181101
0.203147
0.223317
0.249533
0.283907
0.329082
0.422149
0.625011
1.05364
1.26832
1.25915
1.29536
1.29742
1.07132
0.925113
0.375363
0.330049
0.3045
0.289509
0.283039
0.282865
0.291299
0.311168
0.34046
0.370188
0.394087
0.416785
0.436582
0.441702
0.439018
0.431256
0.417694
0.419298
0.440805
0.521063
0.73132
1.08759
1.39674
1.58101
1.65774
1.7537
1.91239
1.19181
0.650142
0.442188
0.367687
0.333963
0.308605
0.298993
0.314424
0.358166
0.40457
0.434439
0.449541
0.43969
0.466975
0.617963
0.851959
1.05015
0.739201
0.546995
0.468204
0.435564
0.420782
0.418875
0.429394
0.447081
0.467896
0.486759
0.500212
0.511867
0.525708
0.531391
0.586153
0.721454
0.840661
0.824121
0.780847
0.77734
0.742287
0.746645
0.734988
0.734519
0.725878
0.730026
0.723512
0.707323
0.687259
0.668501
0.685181
0.562208
0.532034
0.531995
0.488196
0.417845
0.365231
0.329013
0.297448
0.265086
0.23249
0.203462
0.178116
0.173621
0.1675
0.158912
0.148109
0.131319
0.123165
0.12128
0.131493
0.145755
0.164649
0.187708
0.210736
0.234266
0.253348
0.279397
0.311452
0.355411
0.445227
0.637127
1.04075
1.22836
1.21504
1.26497
1.25078
1.05827
0.919277
0.373266
0.341473
0.322045
0.309261
0.302694
0.301731
0.308088
0.325227
0.352177
0.377732
0.400577
0.422043
0.440046
0.448194
0.447217
0.444467
0.436094
0.441559
0.474511
0.582904
0.849851
1.23329
1.51063
1.66997
1.73387
1.80171
1.89788
1.31884
0.705799
0.458606
0.368008
0.320237
0.284504
0.264226
0.265654
0.302789
0.355166
0.389505
0.397113
0.382999
0.399809
0.527659
0.757478
0.920442
0.586383
0.473846
0.418082
0.395924
0.386967
0.389689
0.406201
0.431246
0.458587
0.481082
0.492731
0.49783
0.50002
0.478472
0.52722
0.692774
0.85051
0.834844
0.785895
0.782829
0.741916
0.746805
0.733558
0.729698
0.72356
0.728435
0.721418
0.705393
0.685538
0.666938
0.677089
0.557322
0.538782
0.535897
0.480307
0.40715
0.355385
0.318706
0.286012
0.253221
0.222134
0.194344
0.177986
0.177712
0.164748
0.160521
0.14522
0.133396
0.128812
0.135292
0.151434
0.171336
0.194613
0.219399
0.241515
0.262933
0.278742
0.301488
0.331126
0.373751
0.460012
0.640837
1.01565
1.20237
1.18898
1.23377
1.2242
1.06747
0.92609
0.378306
0.355434
0.340099
0.329163
0.322623
0.320949
0.3257
0.340655
0.362433
0.384897
0.405587
0.42566
0.441817
0.450169
0.450065
0.451035
0.449281
0.458971
0.503862
0.64054
0.950859
1.33354
1.59041
1.72263
1.76486
1.81894
1.87079
1.31017
0.752001
0.500932
0.383708
0.312079
0.265576
0.234901
0.224994
0.250685
0.303079
0.347192
0.365434
0.361117
0.384788
0.506717
0.700508
0.853749
0.502235
0.368989
0.335041
0.318315
0.313743
0.320117
0.340665
0.372175
0.406255
0.435416
0.449982
0.453051
0.448671
0.428808
0.496036
0.679676
0.862406
0.843981
0.797664
0.790058
0.748754
0.749841
0.739822
0.721467
0.728313
0.730451
0.721527
0.705558
0.686743
0.668316
0.68683
0.558978
0.547762
0.537422
0.469393
0.395297
0.344773
0.307634
0.273929
0.241201
0.211647
0.185424
0.180015
0.179068
0.167252
0.157959
0.145807
0.139472
0.140549
0.156
0.177897
0.201432
0.22511
0.248579
0.267798
0.285885
0.299067
0.319045
0.346288
0.389268
0.469366
0.631157
0.953947
1.17817
1.16672
1.20081
1.19563
1.07064
0.942759
0.38511
0.368209
0.356013
0.34675
0.34035
0.337868
0.340715
0.353321
0.370548
0.389956
0.408955
0.428555
0.443584
0.451012
0.450913
0.452942
0.454772
0.468723
0.524361
0.68405
1.01806
1.38827
1.64077
1.74927
1.76996
1.81257
1.83452
1.30886
0.814231
0.581696
0.429584
0.32447
0.254765
0.212778
0.195801
0.211198
0.258418
0.313486
0.352636
0.367932
0.400519
0.533346
0.71953
0.827555
0.481476
0.299339
0.250578
0.227944
0.217223
0.216351
0.228654
0.257249
0.295738
0.337227
0.370363
0.388508
0.39429
0.393144
0.471763
0.662005
0.876277
0.855175
0.81256
0.802687
0.763925
0.754112
0.746923
0.729098
0.737729
0.736885
0.726124
0.710732
0.693594
0.67651
0.696409
0.572988
0.555344
0.531883
0.455634
0.382913
0.333643
0.295974
0.26145
0.229183
0.199719
0.181601
0.183992
0.178051
0.169792
0.158582
0.150716
0.149352
0.158254
0.180481
0.204901
0.227996
0.250863
0.272537
0.288561
0.305155
0.316894
0.338224
0.365257
0.415379
0.484587
0.609856
0.868833
1.14409
1.13448
1.15426
1.16955
1.07782
0.965422
0.390678
0.378536
0.36907
0.361356
0.355005
0.351362
0.352176
0.361671
0.375491
0.392839
0.411099
0.431017
0.445336
0.451296
0.450986
0.452874
0.455845
0.472355
0.535071
0.711338
1.0554
1.42349
1.66678
1.73449
1.73182
1.74615
1.69307
1.3087
0.904157
0.696259
0.516273
0.368129
0.263039
0.201498
0.178145
0.186379
0.227235
0.294157
0.354215
0.388885
0.45425
0.618833
0.785677
0.862049
0.48849
0.266927
0.200191
0.169721
0.15659
0.153615
0.159979
0.179483
0.211618
0.255248
0.300526
0.334378
0.358623
0.376345
0.459233
0.655182
0.887879
0.865281
0.825819
0.816518
0.782233
0.765522
0.761892
0.745607
0.752037
0.749021
0.737099
0.722897
0.707324
0.692188
0.716309
0.589178
0.559106
0.521782
0.440631
0.3703
0.32199
0.283866
0.248977
0.217918
0.187429
0.180886
0.187187
0.182475
0.171039
0.161656
0.157979
0.163086
0.178323
0.203077
0.226537
0.248692
0.270678
0.289349
0.307353
0.316841
0.335113
0.360755
0.392621
0.440593
0.492893
0.591845
0.800452
1.05666
1.09094
1.10113
1.14653
1.08936
0.992584
0.394891
0.386558
0.379167
0.372556
0.366335
0.361569
0.360253
0.366909
0.378296
0.394364
0.41241
0.432259
0.445672
0.449643
0.449637
0.451147
0.454428
0.471862
0.537009
0.722555
1.06714
1.43419
1.6569
1.7159
1.68759
1.6866
1.62027
1.28679
0.924734
0.740484
0.588403
0.431782
0.292744
0.205236
0.170846
0.173944
0.211569
0.286442
0.362752
0.433187
0.594869
0.815585
1.00311
1.06422
0.510072
0.250421
0.174851
0.144843
0.133923
0.131406
0.135833
0.149898
0.175309
0.214555
0.261822
0.304496
0.341824
0.372221
0.454415
0.651711
0.904075
0.874991
0.841909
0.829932
0.8018
0.787972
0.786313
0.769056
0.772865
0.767654
0.755541
0.742956
0.727173
0.713254
0.723298
0.596093
0.560163
0.509329
0.425229
0.357233
0.309744
0.271415
0.236898
0.207039
0.179724
0.180757
0.184935
0.183166
0.172185
0.166973
0.167957
0.179156
0.197398
0.22207
0.24465
0.266601
0.287221
0.305544
0.322331
0.337825
0.35849
0.386856
0.416697
0.450202
0.482972
0.578223
0.754485
0.946485
1.03315
1.05567
1.13655
1.10396
1.02537
0.397969
0.392907
0.387368
0.381766
0.37575
0.370183
0.367058
0.370972
0.380703
0.395803
0.413069
0.431223
0.443012
0.444683
0.447117
0.44969
0.452619
0.468999
0.532814
0.718487
1.05802
1.42769
1.63895
1.70722
1.70214
1.56997
1.40676
1.16997
0.898448
0.74095
0.608249
0.471334
0.331471
0.220136
0.172652
0.170675
0.206578
0.282128
0.363442
0.475911
0.808522
1.21709
1.41186
0.82215
0.366505
0.205427
0.153628
0.13325
0.12581
0.124368
0.128764
0.140607
0.162216
0.19715
0.242473
0.290127
0.335683
0.375454
0.453307
0.648358
0.912955
0.876969
0.852606
0.844296
0.826741
0.820386
0.819233
0.798699
0.798928
0.791906
0.781401
0.771794
0.754339
0.738775
0.715881
0.596314
0.557423
0.495519
0.409771
0.343675
0.296899
0.258737
0.225476
0.195742
0.177921
0.183286
0.186212
0.183472
0.1763
0.173817
0.181311
0.197225
0.216259
0.241007
0.263388
0.2848
0.305422
0.324774
0.34281
0.361614
0.379425
0.405788
0.433853
0.464066
0.494814
0.573585
0.713401
0.856381
0.957819
1.01125
1.12244
1.12823
1.07533
0.401021
0.398706
0.395122
0.390596
0.385016
0.379152
0.374576
0.375745
0.384184
0.397809
0.413017
0.427001
0.437066
0.437829
0.444424
0.448735
0.452231
0.466082
0.52286
0.695877
1.03601
1.40363
1.61505
1.65751
1.59108
1.45576
1.29512
1.08773
0.866781
0.70594
0.599193
0.477683
0.357591
0.242554
0.18044
0.171275
0.201716
0.27099
0.336232
0.426853
0.675599
0.875552
1.1173
0.592181
0.283682
0.178509
0.142258
0.127407
0.122362
0.122202
0.12706
0.138279
0.15779
0.18936
0.232224
0.282559
0.3348
0.384431
0.458213
0.642951
0.915515
0.894258
0.874081
0.867536
0.8614
0.862838
0.858522
0.832176
0.828504
0.820218
0.81263
0.80883
0.799703
0.813011
0.724281
0.596911
0.552705
0.48156
0.394483
0.329782
0.283693
0.246222
0.215122
0.185789
0.179401
0.188324
0.187924
0.183395
0.181185
0.184324
0.198356
0.217588
0.236694
0.261745
0.284083
0.30546
0.326746
0.347579
0.364357
0.383592
0.399647
0.420568
0.447042
0.476182
0.50391
0.567367
0.671252
0.762271
0.88656
0.96872
1.09782
1.1751
1.12633
0.405145
0.405224
0.403811
0.400523
0.395676
0.389978
0.384492
0.382892
0.389988
0.401355
0.413799
0.42488
0.434776
0.436635
0.441788
0.447485
0.452073
0.464547
0.512937
0.665155
0.999489
1.39894
1.6389
1.65767
1.58833
1.44331
1.29679
1.04113
0.848695
0.660146
0.572229
0.472247
0.364856
0.263996
0.192481
0.173908
0.196025
0.255207
0.305307
0.375988
0.593948
0.765701
0.935009
0.526431
0.260532
0.17003
0.137329
0.124488
0.120291
0.121772
0.127389
0.138363
0.156742
0.185523
0.226193
0.276873
0.335338
0.396464
0.469624
0.638449
0.910387
0.918375
0.898645
0.903789
0.901052
0.904384
0.896253
0.865011
0.858642
0.850649
0.845625
0.846379
0.844395
0.873932
0.733204
0.598084
0.545442
0.466662
0.379214
0.315722
0.270545
0.23457
0.205938
0.183887
0.183933
0.190679
0.188837
0.18777
0.188398
0.199461
0.218767
0.239664
0.258485
0.283211
0.305465
0.326831
0.348843
0.36518
0.383467
0.398077
0.413587
0.434732
0.460693
0.487672
0.50838
0.558385
0.622515
0.673955
0.813837
0.920005
1.1058
1.25491
1.17088
0.410876
0.413251
0.413809
0.412054
0.408313
0.403215
0.397417
0.393243
0.398937
0.407607
0.416984
0.425441
0.435052
0.438221
0.441414
0.445635
0.451745
0.464566
0.509158
0.650982
0.991854
1.42407
1.677
1.70499
1.64278
1.49724
1.28374
1.03913
0.84494
0.650713
0.553797
0.467882
0.369361
0.280676
0.205802
0.178652
0.191661
0.243847
0.291121
0.375296
0.600907
0.752351
0.852374
0.517293
0.257676
0.168127
0.135595
0.123162
0.119547
0.121933
0.127722
0.138933
0.156641
0.183382
0.22135
0.271862
0.334312
0.409807
0.487499
0.644596
0.922553
0.979458
0.939311
0.948877
0.935038
0.931254
0.922148
0.89252
0.887737
0.881032
0.877873
0.88081
0.880595
0.905128
0.771025
0.604268
0.537784
0.45051
0.363619
0.301669
0.257794
0.224085
0.197184
0.185008
0.192085
0.19696
0.192453
0.19397
0.200077
0.218236
0.240789
0.261131
0.279975
0.303126
0.32604
0.347953
0.368107
0.382774
0.398344
0.411939
0.42899
0.450778
0.474554
0.493536
0.504739
0.540269
0.570184
0.606811
0.741081
0.895374
1.15671
1.36064
1.21846
0.416935
0.422254
0.424334
0.424404
0.422128
0.417873
0.412323
0.405824
0.410395
0.416618
0.423742
0.43155
0.4419
0.444267
0.443964
0.446043
0.452815
0.467328
0.512437
0.65779
1.01452
1.46676
1.69144
1.70119
1.62515
1.45529
1.24514
1.02847
0.828459
0.64505
0.554404
0.465841
0.372443
0.291103
0.217178
0.183967
0.191357
0.235438
0.285477
0.391731
0.638411
0.763967
0.835049
0.536568
0.260691
0.168009
0.135133
0.122429
0.118699
0.121695
0.127888
0.13974
0.157556
0.182469
0.217929
0.267144
0.332386
0.418011
0.508846
0.666837
0.939337
1.0379
1.02996
0.966381
0.953868
0.94084
0.933187
0.91262
0.912619
0.908738
0.906962
0.90987
0.907325
0.91439
0.837696
0.615027
0.529076
0.433289
0.347917
0.287673
0.245413
0.213776
0.188647
0.188351
0.202905
0.197411
0.196531
0.201543
0.215247
0.238687
0.262387
0.281516
0.300998
0.324338
0.347996
0.370556
0.385222
0.400139
0.411837
0.425811
0.444756
0.466931
0.485842
0.493094
0.490824
0.512663
0.520288
0.54649
0.685359
0.893039
1.20067
1.4048
1.27393
0.42122
0.429683
0.433895
0.435356
0.434642
0.430989
0.425002
0.418429
0.421611
0.426749
0.4335
0.44195
0.453645
0.455895
0.452836
0.450724
0.456577
0.473394
0.524029
0.685165
1.06716
1.47353
1.64434
1.63708
1.55053
1.38555
1.17208
0.999202
0.795374
0.645998
0.557635
0.468251
0.379201
0.300868
0.229226
0.191095
0.193918
0.237819
0.297575
0.465247
0.739549
0.796407
0.85547
0.546609
0.259308
0.168682
0.13621
0.124383
0.120651
0.122743
0.130549
0.14282
0.160125
0.183311
0.21656
0.264337
0.330844
0.42184
0.526716
0.675633
0.932001
1.05914
1.03651
0.955837
0.942623
0.933171
0.93518
0.927924
0.931455
0.930917
0.930693
0.9335
0.929368
0.92898
0.88866
0.62661
0.519544
0.415782
0.332219
0.273836
0.233451
0.202257
0.186119
0.194037
0.208717
0.201449
0.204148
0.212258
0.232936
0.259351
0.283457
0.302598
0.323804
0.348636
0.372377
0.391396
0.404292
0.413909
0.424064
0.438985
0.459557
0.481075
0.492354
0.488348
0.46499
0.471765
0.467728
0.500932
0.651187
0.882229
1.20137
1.32872
1.30638
0.421899
0.433624
0.440343
0.442967
0.443387
0.440013
0.433455
0.427209
0.42984
0.435746
0.444142
0.453844
0.466459
0.471412
0.466004
0.459544
0.463544
0.482478
0.547438
0.745415
1.13623
1.44179
1.54758
1.53351
1.46241
1.32828
1.12547
0.970951
0.770667
0.644316
0.558771
0.47186
0.385894
0.310284
0.241679
0.200539
0.2013
0.247805
0.333502
0.663581
1.00965
0.996199
1.12916
0.570983
0.246606
0.164518
0.136877
0.127767
0.124851
0.12809
0.134126
0.146339
0.1636
0.186018
0.217326
0.263694
0.33109
0.426519
0.538431
0.680246
0.908167
1.04672
0.999095
0.921233
0.90949
0.914573
0.924362
0.939397
0.945548
0.947677
0.948527
0.950377
0.943588
0.942002
0.907037
0.630971
0.507607
0.398334
0.316633
0.260513
0.222614
0.190435
0.186255
0.200018
0.206873
0.204414
0.210183
0.224584
0.251652
0.280444
0.304883
0.324954
0.349155
0.374882
0.399337
0.410982
0.419755
0.42624
0.435851
0.451635
0.471677
0.49092
0.493569
0.477368
0.433514
0.424788
0.42149
0.460152
0.605954
0.836371
1.1906
1.34827
1.35441
0.418948
0.431131
0.439966
0.444742
0.446313
0.443586
0.436761
0.43075
0.43378
0.441698
0.452802
0.464416
0.479121
0.489354
0.48484
0.474027
0.475185
0.497726
0.588219
0.838499
1.19523
1.38508
1.44593
1.43476
1.37733
1.2626
1.07469
0.936919
0.75375
0.63759
0.557014
0.473199
0.389908
0.31879
0.253006
0.211689
0.215693
0.269157
0.4204
0.98103
1.26387
1.33737
0.89221
0.363792
0.196556
0.153917
0.136074
0.13022
0.128356
0.133775
0.140165
0.151218
0.168686
0.190923
0.221375
0.266613
0.335315
0.436051
0.554901
0.684294
0.877325
1.0175
0.955298
0.905385
0.892623
0.902137
0.921593
0.943366
0.954771
0.95982
0.960982
0.959758
0.948286
0.946486
0.892056
0.62513
0.492521
0.380836
0.301254
0.24809
0.2124
0.184492
0.187152
0.201614
0.206833
0.208127
0.216618
0.238733
0.27064
0.300749
0.326186
0.34764
0.374176
0.399835
0.417524
0.429134
0.433776
0.439026
0.448648
0.463895
0.481834
0.49495
0.487536
0.452376
0.399862
0.385163
0.387926
0.430035
0.558117
0.789287
1.17773
1.42373
1.43177
0.409598
0.421332
0.432117
0.440088
0.443266
0.441843
0.43568
0.430276
0.434488
0.444745
0.458824
0.472523
0.487909
0.503712
0.504027
0.494314
0.49363
0.52567
0.655679
0.952642
1.22673
1.32832
1.36091
1.34056
1.28459
1.19015
1.02839
0.900959
0.734875
0.630241
0.553208
0.472694
0.392273
0.326699
0.262246
0.220555
0.22165
0.269345
0.434109
0.865046
0.956219
0.962866
0.595232
0.273232
0.174851
0.148399
0.135622
0.132086
0.132119
0.139132
0.146837
0.157068
0.174864
0.197743
0.228381
0.273607
0.344469
0.451036
0.575191
0.686967
0.839593
0.990934
0.939507
0.872118
0.874334
0.890178
0.9209
0.945581
0.962192
0.969996
0.970939
0.967028
0.955036
0.981454
0.867548
0.617744
0.476086
0.363595
0.286176
0.236726
0.202669
0.183324
0.190747
0.204756
0.205203
0.210554
0.224198
0.253368
0.288196
0.319476
0.34543
0.370224
0.399397
0.422322
0.436518
0.444301
0.44815
0.45327
0.462777
0.476374
0.489689
0.492172
0.468864
0.417425
0.372062
0.359671
0.370929
0.418525
0.534934
0.779332
1.20839
1.47883
1.45148
0.393374
0.403684
0.414288
0.42732
0.434225
0.435422
0.430959
0.428072
0.434262
0.447299
0.463921
0.479313
0.49502
0.509893
0.513416
0.509824
0.516489
0.56914
0.755117
1.06248
1.23091
1.27702
1.29056
1.27015
1.21635
1.12834
1.00211
0.859586
0.716051
0.62621
0.547811
0.470818
0.394458
0.332436
0.269354
0.226934
0.222903
0.265385
0.424311
0.767908
0.816979
0.817151
0.516824
0.249772
0.168312
0.14632
0.136293
0.13351
0.136149
0.144008
0.153451
0.163506
0.18238
0.206356
0.237777
0.283603
0.355971
0.46522
0.590521
0.69048
0.815835
0.981007
0.919617
0.846793
0.855759
0.879223
0.916957
0.947151
0.968119
0.978206
0.979486
0.976478
0.976535
1.00841
0.858952
0.617781
0.463126
0.347255
0.271686
0.226277
0.192734
0.184858
0.195639
0.20195
0.203326
0.212393
0.232877
0.267604
0.304348
0.336427
0.36438
0.393586
0.422521
0.441232
0.455163
0.46014
0.463771
0.46927
0.478031
0.488405
0.493729
0.479917
0.434113
0.382573
0.351777
0.347581
0.365669
0.417487
0.535833
0.809433
1.2626
1.50252
1.43097
0.372055
0.379129
0.390276
0.405213
0.418369
0.423697
0.425771
0.427549
0.436584
0.452565
0.471317
0.488205
0.502822
0.512809
0.513628
0.521382
0.544458
0.638433
0.883218
1.13145
1.2146
1.23013
1.23227
1.21454
1.17317
1.07808
0.969335
0.817787
0.70979
0.623508
0.544173
0.468244
0.396133
0.336771
0.273329
0.231358
0.223451
0.264242
0.432004
0.789044
0.783789
0.771372
0.499621
0.244626
0.166269
0.145204
0.137149
0.135589
0.140161
0.148834
0.160598
0.171131
0.191473
0.216797
0.249189
0.295285
0.366591
0.473719
0.599054
0.697711
0.811472
0.977935
0.895917
0.842675
0.848674
0.872238
0.913502
0.94871
0.973448
0.984973
0.985522
0.983363
0.987251
1.01059
0.87133
0.629932
0.454498
0.332308
0.258218
0.216301
0.187685
0.188206
0.196908
0.20005
0.204585
0.215668
0.242992
0.281573
0.320216
0.353878
0.38508
0.417917
0.443742
0.459722
0.472162
0.476424
0.480278
0.485712
0.492614
0.497509
0.489821
0.450517
0.392961
0.35242
0.339637
0.34508
0.372062
0.430294
0.56342
0.887814
1.32945
1.46522
1.38433
0.359716
0.366568
0.384277
0.397971
0.407739
0.418066
0.426396
0.432836
0.445008
0.463139
0.483532
0.501629
0.515114
0.521851
0.521102
0.534061
0.582717
0.738137
1.00789
1.14601
1.18029
1.18188
1.17762
1.16372
1.12459
1.02727
0.929633
0.785292
0.69494
0.615835
0.539116
0.465488
0.39781
0.339505
0.274855
0.233588
0.226841
0.274344
0.481683
0.903204
0.793069
0.766603
0.498287
0.241245
0.163093
0.143803
0.137437
0.137419
0.143731
0.154143
0.168564
0.179723
0.202082
0.229013
0.262547
0.308181
0.375451
0.47557
0.60095
0.704351
0.815652
0.996123
0.874563
0.848973
0.846188
0.865363
0.908098
0.950905
0.979643
0.99075
0.989499
0.985267
0.969496
0.999531
0.898605
0.657574
0.450841
0.319666
0.246262
0.206613
0.186829
0.193641
0.201014
0.199004
0.205607
0.221074
0.254747
0.296691
0.33711
0.373531
0.40847
0.442193
0.462103
0.477344
0.487545
0.492085
0.496245
0.501071
0.504513
0.499766
0.469179
0.407155
0.353742
0.330666
0.334205
0.347893
0.37971
0.44856
0.61205
0.987762
1.36277
1.40436
1.32533
0.348746
0.359624
0.387954
0.405167
0.413872
0.425353
0.435019
0.446031
0.460169
0.479307
0.500783
0.52049
0.534752
0.540518
0.537129
0.556427
0.640572
0.856284
1.07531
1.12101
1.12483
1.12192
1.11654
1.10268
1.06674
0.979174
0.884121
0.756083
0.676711
0.604425
0.532708
0.462314
0.398279
0.340972
0.274916
0.234981
0.237768
0.313634
0.675995
1.24659
1.00674
1.02118
0.517411
0.223481
0.155455
0.141297
0.137329
0.139986
0.147671
0.159686
0.176896
0.189649
0.214439
0.243258
0.277985
0.322557
0.383779
0.472062
0.587087
0.704606
0.825802
1.01607
0.91113
0.839427
0.834425
0.854114
0.89944
0.954766
0.986879
0.994382
0.989931
0.983757
0.964657
0.979989
0.905352
0.690185
0.450331
0.308017
0.2357
0.1968
0.188258
0.199119
0.198744
0.198308
0.207009
0.229208
0.26875
0.313162
0.354747
0.393312
0.431465
0.463153
0.476474
0.49354
0.5025
0.507619
0.511601
0.51472
0.511198
0.489034
0.427074
0.360375
0.322937
0.318883
0.333385
0.352711
0.387943
0.472264
0.676742
1.0992
1.354
1.3493
1.27197
0.344954
0.363427
0.407092
0.428575
0.431704
0.439792
0.450996
0.467177
0.481622
0.499789
0.521524
0.543373
0.560274
0.567796
0.56545
0.59651
0.723072
0.962105
1.0777
1.07717
1.06569
1.06177
1.05434
1.04457
1.01357
0.939273
0.83038
0.725666
0.657145
0.590088
0.524755
0.458531
0.39856
0.340115
0.274941
0.242025
0.25661
0.423586
1.14495
1.4437
1.25428
0.761175
0.309647
0.176418
0.143782
0.137596
0.13748
0.14289
0.152182
0.166126
0.186355
0.201506
0.228949
0.259823
0.295528
0.338591
0.393299
0.46815
0.562811
0.684053
0.832474
1.01999
0.93288
0.813314
0.809298
0.832321
0.889543
0.958892
0.991414
0.993053
0.984429
0.973492
0.948155
0.964032
0.897399
0.714683
0.449527
0.297864
0.226096
0.191394
0.191309
0.201522
0.199246
0.201113
0.211056
0.240586
0.284393
0.329664
0.371192
0.410582
0.450385
0.479028
0.490632
0.508858
0.518109
0.523823
0.526636
0.52531
0.5097
0.455848
0.375206
0.31983
0.30452
0.314393
0.336601
0.357784
0.402004
0.505318
0.757653
1.19105
1.3285
1.30886
1.23078
0.345758
0.375559
0.451561
0.484884
0.472609
0.472663
0.488955
0.498301
0.509126
0.523726
0.544004
0.567196
0.587762
0.602806
0.606829
0.649949
0.820094
1.02163
1.04808
1.02219
1.00037
0.994404
0.989163
0.981399
0.949057
0.884583
0.777239
0.704922
0.639009
0.575212
0.515265
0.453044
0.398911
0.338017
0.272943
0.249623
0.268104
0.442253
1.01531
1.01744
0.889498
0.488301
0.229894
0.155129
0.137103
0.134861
0.138139
0.145989
0.157386
0.173958
0.197591
0.21588
0.245927
0.278669
0.31478
0.355918
0.404682
0.467391
0.544167
0.65457
0.814881
0.976839
0.929126
0.791663
0.776585
0.808788
0.882501
0.960479
0.988939
0.983865
0.971447
0.955941
0.931216
0.934495
0.882605
0.729333
0.444215
0.286921
0.216674
0.190258
0.196053
0.204596
0.19945
0.203389
0.217982
0.253424
0.299044
0.343213
0.383836
0.424167
0.464533
0.490211
0.508516
0.5259
0.535618
0.540807
0.541358
0.531347
0.491275
0.404104
0.326843
0.294293
0.296752
0.315824
0.342458
0.3696
0.422465
0.552523
0.853011
1.2431
1.29926
1.26971
1.17889
0.342706
0.389358
0.532931
0.607958
0.542101
0.523876
0.535299
0.536573
0.540148
0.549487
0.567365
0.591101
0.614013
0.635904
0.644902
0.693199
0.908006
1.01962
1.00119
0.961799
0.936814
0.92438
0.91995
0.912875
0.881539
0.822532
0.732585
0.672298
0.61327
0.556761
0.502252
0.446284
0.39616
0.335477
0.267887
0.254037
0.272069
0.430531
0.871052
0.883869
0.76163
0.427623
0.213057
0.146977
0.134719
0.133925
0.139477
0.149228
0.163169
0.183306
0.210931
0.233019
0.265087
0.299025
0.33465
0.373442
0.417422
0.471453
0.537026
0.634063
0.783138
0.908443
0.876842
0.763879
0.74964
0.789113
0.876549
0.954564
0.976664
0.965996
0.951668
0.932761
0.911885
0.902662
0.869079
0.7378
0.436335
0.275788
0.207205
0.191174
0.200579
0.199577
0.197989
0.204525
0.225525
0.264972
0.31028
0.352453
0.392008
0.435297
0.477807
0.502254
0.529024
0.545646
0.555534
0.558544
0.554182
0.527006
0.448903
0.350162
0.293372
0.282454
0.295826
0.321805
0.351595
0.385482
0.453699
0.618405
0.949428
1.25009
1.2678
1.22429
1.12556
0.337864
0.399496
0.599431
0.784648
0.654497
0.578711
0.589247
0.579234
0.57274
0.577537
0.592677
0.616188
0.640269
0.66723
0.665544
0.717152
0.927725
0.970168
0.9364
0.896512
0.869844
0.855691
0.867601
0.856194
0.818358
0.749375
0.689557
0.63691
0.584361
0.535643
0.486771
0.437354
0.39049
0.329986
0.266944
0.255676
0.273269
0.424154
0.85218
0.805164
0.713053
0.41711
0.211782
0.145586
0.13458
0.133626
0.141498
0.153105
0.169563
0.194212
0.226109
0.252415
0.285481
0.319554
0.353723
0.389898
0.430491
0.479077