/*--------------------------------*- C++ -*----------------------------------*\
  =========                 |
  \\      /  F ield         | OpenFOAM: The Open Source CFD Toolbox
   \\    /   O peration     | Website:  https://openfoam.org
    \\  /    A nd           | Version:  10
     \\/     M anipulation  |
\*---------------------------------------------------------------------------*/
FoamFile
{
    format      ascii;
    class       volScalarField;
    location    "0.050274";
    object      rho;
}
// * * * * * * * * * * * * * * * * * * * * * * * * * * * * * * * * * * * * * //

dimensions      [1 -3 0 0 0 0 0];

internalField   nonuniform List<scalar> 
16320
(
0.287487
0.272681
0.283564
0.292313
0.291328
0.288461
0.291852
0.315398
0.371376
0.395999
0.383758
0.362249
0.348154
0.307682
0.278251
0.300221
0.33654
0.383156
0.413315
0.424345
0.404136
0.42354
0.452384
0.464051
0.453271
0.490948
0.446885
0.344677
0.328449
0.378333
0.392878
0.375248
0.342241
0.335045
0.348726
0.395841
0.432676
0.433289
0.408921
0.436205
0.746859
1.24562
1.37472
1.27201
0.950899
0.366002
0.219263
0.14172
0.139695
0.136746
0.133837
0.135811
0.151271
0.196345
0.236506
0.258773
0.27803
0.55119
0.774734
0.948575
1.0579
0.709051
0.313622
0.177791
0.154537
0.152297
0.218991
0.232274
0.190985
0.137895
0.123703
0.120006
0.11836
0.118419
0.151074
0.655122
1.08629
1.06809
1.05209
1.0139
0.961706
0.919633
0.889082
0.865509
0.825914
0.779648
0.731309
0.687384
0.655797
0.615938
0.628651
0.573474
0.502709
0.557663
0.599658
0.588453
0.6223
0.686957
0.486383
0.382716
0.425045
0.532351
0.640326
0.75413
0.897037
1.27498
2.00238
2.04306
2.08303
2.07038
1.73656
1.37097
1.16588
0.281909
0.27167
0.274722
0.26115
0.250339
0.246442
0.248455
0.252576
0.266378
0.296764
0.318726
0.299591
0.286274
0.278183
0.284911
0.310199
0.339378
0.370165
0.400445
0.432302
0.476833
0.532367
0.525597
0.513727
0.472651
0.414651
0.427148
0.427573
0.524817
0.564912
0.557163
0.478988
0.344791
0.333877
0.330906
0.363573
0.38873
0.390293
0.39267
0.476783
0.843711
1.279
1.41565
1.3904
1.07877
0.39624
0.244886
0.149688
0.141011
0.138039
0.135996
0.139891
0.15294
0.188533
0.244409
0.27942
0.355308
0.651606
0.848719
1.02821
1.02009
0.59256
0.260773
0.169058
0.150944
0.148293
0.19642
0.222603
0.193707
0.143027
0.127365
0.123512
0.121886
0.122322
0.163828
0.700437
1.14183
1.09613
1.09996
1.05092
0.979345
0.926905
0.889857
0.849091
0.801574
0.747727
0.689519
0.633643
0.580766
0.561736
0.550002
0.374828
0.257664
0.317716
0.330125
0.353622
0.359368
0.34155
0.280381
0.262475
0.28991
0.359026
0.499997
0.745527
1.07333
1.64518
2.53323
2.25052
2.20981
2.48833
2.30908
1.84901
1.46678
0.278715
0.270075
0.246797
0.226309
0.214968
0.213363
0.219173
0.224685
0.227189
0.22995
0.239327
0.285509
0.294577
0.301064
0.317208
0.335061
0.352294
0.364639
0.385266
0.422283
0.486422
0.579549
0.58095
0.560877
0.512723
0.450757
0.508964
0.631642
0.65241
0.627417
0.594898
0.465888
0.323697
0.313812
0.307146
0.33282
0.347755
0.347486
0.355476
0.432918
0.734561
1.15941
1.46897
1.56078
1.27711
0.498279
0.221608
0.1647
0.150089
0.146054
0.144652
0.154
0.159028
0.177384
0.230299
0.273235
0.350424
0.682995
0.902312
1.08564
0.946168
0.490718
0.223965
0.16104
0.14883
0.15133
0.215336
0.232018
0.197145
0.14375
0.129151
0.1257
0.124218
0.124929
0.167597
0.699155
1.17279
1.13602
1.13559
1.06768
0.984963
0.927649
0.880415
0.833317
0.781077
0.721333
0.658583
0.60068
0.554155
0.539405
0.488916
0.238651
0.195293
0.208816
0.202588
0.223388
0.228286
0.225106
0.217435
0.218161
0.235263
0.27831
0.355692
0.567756
0.884925
1.51068
2.59082
2.31404
2.26449
2.54273
2.50125
1.96875
1.5094
0.284778
0.252269
0.22424
0.203129
0.19533
0.195206
0.202608
0.212009
0.217611
0.217717
0.216737
0.283959
0.31969
0.34111
0.362144
0.377107
0.386507
0.394997
0.406501
0.436773
0.507235
0.638725
0.668995
0.617646
0.558052
0.509632
0.730576
0.891988
0.788147
0.693553
0.590181
0.403427
0.283224
0.278585
0.286319
0.307324
0.314767
0.312904
0.324015
0.397358
0.669192
1.09424
1.51528
1.75531
1.49487
0.636781
0.224517
0.176801
0.167233
0.166749
0.166966
0.173802
0.174286
0.178597
0.205094
0.23376
0.323004
0.702825
0.970353
1.1239
0.810589
0.384973
0.203882
0.156846
0.149287
0.159765
0.233665
0.241282
0.201081
0.14602
0.131594
0.128049
0.126388
0.127199
0.167803
0.669285
1.18408
1.1601
1.15277
1.07243
0.985419
0.921284
0.869278
0.819641
0.762579
0.699099
0.635745
0.576085
0.544566
0.52633
0.385082
0.194088
0.181817
0.179034
0.176723
0.188452
0.193971
0.195754
0.197096
0.200346
0.214038
0.242418
0.305602
0.470347
0.77869
1.31775
2.44715
2.36017
2.18534
2.42056
2.54452
1.96272
1.36601
0.274735
0.236159
0.208098
0.191942
0.186489
0.187125
0.194926
0.206592
0.21709
0.221951
0.229886
0.251986
0.308908
0.363006
0.400608
0.417257
0.420281
0.426585
0.435073
0.466841
0.548541
0.7066
0.750046
0.68231
0.602102
0.559923
0.915288
1.02893
0.828023
0.682422
0.517223
0.302743
0.259459
0.255367
0.267984
0.288496
0.292156
0.289374
0.303915
0.367356
0.587433
1.07057
1.49025
1.82749
1.79397
0.756509
0.2486
0.190632
0.181204
0.182157
0.184586
0.188212
0.188741
0.187908
0.199964
0.218883
0.31082
0.704602
1.00943
1.1177
0.751467
0.36796
0.212384
0.162829
0.157878
0.192209
0.260441
0.256604
0.203995
0.147853
0.13359
0.129671
0.12776
0.129765
0.182181
0.67879
1.19828
1.17678
1.16017
1.06994
0.977633
0.911481
0.858363
0.804531
0.743498
0.677947
0.615014
0.558014
0.540937
0.491953
0.246644
0.18144
0.171273
0.16496
0.169022
0.175146
0.181078
0.186574
0.192646
0.195841
0.210641
0.23497
0.298455
0.451395
0.763004
1.23677
2.27262
2.4244
1.95501
2.11811
2.4201
1.86431
1.21129
0.255662
0.226108
0.2014
0.188912
0.184681
0.185276
0.192378
0.204377
0.217674
0.22741
0.233549
0.234007
0.286217
0.364253
0.417842
0.444474
0.449069
0.453918
0.463899
0.503229
0.605726
0.785856
0.813932
0.742689
0.64185
0.610411
1.2424
1.19484
0.832001
0.620826
0.379091
0.257689
0.237423
0.235076
0.252011
0.271556
0.274678
0.276232
0.291546
0.356288
0.629699
1.2841
1.84236
2.66861
2.21645
0.827657
0.256247
0.197903
0.188618
0.189115
0.192326
0.194894
0.197869
0.198043
0.203686
0.220888
0.28886
0.667714
1.02146
1.10308
0.845523
0.545556
0.305914
0.186426
0.179357
0.237355
0.284377
0.271132
0.20732
0.150813
0.135272
0.130757
0.128673
0.134488
0.235796
0.732883
1.20974
1.19105
1.16143
1.05843
0.966359
0.89959
0.844434
0.786648
0.721853
0.655538
0.58994
0.54995
0.536661
0.418021
0.200063
0.174007
0.163223
0.156323
0.163202
0.168634
0.177506
0.187774
0.198338
0.20666
0.226725
0.257175
0.344726
0.514393
0.821788
1.24241
2.20162
2.44064
1.80422
1.92719
2.31618
1.81203
1.16533
0.246696
0.220518
0.202511
0.192846
0.189075
0.189234
0.194825
0.205674
0.219992
0.232841
0.240758
0.241716
0.276297
0.365559
0.433979
0.467306
0.473765
0.479677
0.493844
0.546401
0.675666
0.872904
0.865923
0.79221
0.69174
0.622823
1.42239
1.40709
0.89093
0.555649
0.293885
0.238892
0.21937
0.215668
0.236247
0.251455
0.260167
0.268437
0.294486
0.416806
0.959114
2.142
3.1991
3.45865
1.62945
0.549477
0.229803
0.196018
0.188745
0.188983
0.192849
0.196076
0.201978
0.204867
0.208814
0.218062
0.259776
0.552745
1.01374
1.21079
1.20036
0.840061
0.428358
0.214096
0.199258
0.255429
0.294383
0.280054
0.211513
0.150888
0.135335
0.131032
0.129159
0.143771
0.400809
0.952096
1.21762
1.20646
1.15738
1.0446
0.952741
0.884692
0.827199
0.76538
0.698088
0.633773
0.566612
0.547995
0.518234
0.272963
0.188543
0.170954
0.160194
0.154641
0.162554
0.170456
0.182934
0.199224
0.213986
0.233317
0.258455
0.317814
0.436037
0.607169
0.913691
1.29876
2.17162
2.37273
1.73593
1.86258
2.24366
1.78471
1.1615
0.241944
0.22175
0.208914
0.201161
0.197289
0.196936
0.201103
0.210431
0.22431
0.237962
0.247851
0.246182
0.275953
0.370122
0.449836
0.487307
0.495543
0.502899
0.524302
0.595466
0.759579
0.957682
0.90661
0.831769
0.737345
0.655052
1.3994
1.5518
0.932652
0.522759
0.275721
0.228754
0.202919
0.198071
0.213826
0.229798
0.242348
0.25663
0.291668
0.439219
0.93609
1.74728
2.5178
2.79427
1.33037
0.4167
0.209132
0.188853
0.184036
0.184417
0.189205
0.194068
0.202269
0.208896
0.210663
0.212801
0.243383
0.431968
0.940989
1.18718
1.2977
0.931207
0.463474
0.224246
0.210279
0.27875
0.310641
0.287588
0.198861
0.144328
0.133828
0.130671
0.129369
0.153432
0.56845
1.16863
1.22402
1.22038
1.14888
1.02881
0.936143
0.867283
0.806793
0.742152
0.674945
0.614093
0.561759
0.545689
0.457819
0.233002
0.185315
0.169622
0.161593
0.160013
0.169965
0.183209
0.201589
0.220906
0.236737
0.25964
0.283641
0.34589
0.464429
0.625755
0.925971
1.28092
2.11401
2.22315
1.59781
1.84229
2.19158
1.77577
1.16055
0.242098
0.22721
0.21772
0.210936
0.207078
0.206427
0.20941
0.217266
0.229919
0.241319
0.25104
0.249094
0.272582
0.364649
0.457096
0.500853
0.51289
0.522662
0.552972
0.64477
0.839468
1.00228
0.886443
0.829417
0.755235
0.767648
1.37222
1.569
0.93346
0.448119
0.26288
0.21873
0.190964
0.183141
0.188875
0.204707
0.221518
0.238602
0.266287
0.385559
0.81527
1.53025
2.31392
2.62058
1.18148
0.427044
0.196689
0.178211
0.173532
0.173996
0.180297
0.187169
0.19767
0.20705
0.207881
0.206999
0.227974
0.356844
0.783657
1.11603
1.29939
0.927474
0.440715
0.225457
0.213345
0.282152
0.303908
0.261719
0.165211
0.137189
0.132652
0.130236
0.129229
0.154698
0.607861
1.22804
1.23139
1.22676
1.13498
1.01045
0.91732
0.847645
0.784235
0.718155
0.653776
0.596818
0.562165
0.539399
0.338458
0.200052
0.181321
0.170939
0.166741
0.173088
0.187282
0.207212
0.227079
0.246157
0.25904
0.280217
0.299686
0.354664
0.469498
0.624959
0.901256
1.23028
2.01314
2.14961
1.55549
1.79473
2.15088
1.79717
1.17269
0.244711
0.23419
0.226451
0.220566
0.216884
0.215949
0.218014
0.224718
0.234854
0.244649
0.253631
0.251213
0.270139
0.353513
0.454847
0.506594
0.525002
0.536606
0.577629
0.690312
0.908389
1.05138
0.914764
0.833583
0.761841
0.96056
1.76739
1.5743
0.862967
0.372532
0.257459
0.20948
0.183367
0.172377
0.166757
0.178831
0.198112
0.219442
0.244452
0.355822
0.779975
1.48646
2.20511
2.45932
1.09129
0.379821
0.176433
0.154657
0.149262
0.150273
0.15827
0.167271
0.18001
0.191911
0.194706
0.193836
0.207112
0.303368
0.706214
1.09066
1.29956
0.887101
0.395079
0.22543
0.21841
0.281577
0.280585
0.217965
0.150257
0.135801
0.132626
0.130265
0.128936
0.146344
0.567133
1.24165
1.24571
1.22925
1.1161
0.990131
0.896875
0.826315
0.760023
0.693335
0.631915
0.579245
0.56332
0.499834
0.251187
0.193044
0.182186
0.176022
0.177442
0.191627
0.210878
0.230711
0.254772
0.271126
0.279566
0.296516
0.313209
0.365471
0.482541
0.621661
0.846902
1.13193
1.81659
2.08123
1.54628
1.68633
2.08402
1.81954
1.20165
0.248122
0.240132
0.23396
0.228959
0.225451
0.224225
0.225229
0.230841
0.238777
0.247062
0.255283
0.253144
0.269893
0.345219
0.449325
0.507023
0.529643
0.544343
0.59318
0.722354
0.957144
1.12215
0.999201
0.859415
0.782225
1.44884
2.27571
1.6402
0.827329
0.393898
0.274481
0.210854
0.177342
0.161953
0.152022
0.158332
0.17742
0.203446
0.232777
0.345473
0.799089
1.56862
2.2915
2.33885
1.07416
0.320118
0.145126
0.122923
0.11609
0.115265
0.121236
0.130647
0.145158
0.161121
0.170678
0.174722
0.186515
0.264523
0.647998
1.06185
1.32135
0.888974
0.390147
0.235003
0.234701
0.278812
0.266909
0.201469
0.14796
0.136345
0.133266
0.130973
0.129991
0.144495
0.504457
1.2636
1.26071
1.21986
1.09271
0.968337
0.875366
0.803525
0.734563
0.667999
0.606598
0.570567
0.562181
0.41043
0.207037
0.194216
0.186981
0.18529
0.193213
0.213205
0.232635
0.255362
0.275089
0.285648
0.297906
0.314143
0.334531
0.404645
0.511784
0.586356
0.698181
0.912191
1.52217
1.9811
1.56642
1.5084
1.96603
1.84588
1.2389
0.250854
0.245216
0.239979
0.235768
0.232441
0.230747
0.230677
0.234864
0.241271
0.248448
0.256339
0.255852
0.271487
0.34034
0.444835
0.504919
0.529887
0.54695
0.600487
0.739117
0.983563
1.15978
1.0166
0.864785
0.986426
1.82509
2.14423
1.5419
0.738201
0.42922
0.306901
0.229497
0.183747
0.154561
0.141934
0.144529
0.162997
0.193734
0.230827
0.357808
0.881496
1.74787
2.43627
2.39508
1.1016
0.291734
0.124121
0.10028
0.0927544
0.0912593
0.0947654
0.102362
0.115713
0.133174
0.148301
0.157252
0.172041
0.239679
0.605588
1.04325
1.33526
0.892703
0.389618
0.241298
0.245432
0.282785
0.268281
0.200441
0.149054
0.137804
0.134693
0.132687
0.132581
0.150169
0.511374
1.29801
1.26557
1.20373
1.06736
0.944988
0.853164
0.779549
0.708927
0.644256
0.581054
0.567428
0.542885
0.280508
0.205521
0.197454
0.193402
0.197805
0.211283
0.232024
0.250798
0.271751
0.288356
0.302201
0.319951
0.337676
0.407286
0.449321
0.454995
0.42165
0.447927
0.621959
1.21164
1.8051
1.60724
1.31718
1.77114
1.86734
1.27393
0.252559
0.248628
0.24471
0.24092
0.237842
0.235622
0.234533
0.237378
0.242788
0.249174
0.256568
0.258808
0.272248
0.333771
0.439135
0.501456
0.527703
0.545985
0.601975
0.745297
0.990083
1.15201
0.984249
0.833999
0.830958
1.5111
2.07382
1.53873
0.794362
0.454294
0.334976
0.25543
0.199418
0.156424
0.136909
0.136671
0.154935
0.189654
0.241367
0.449034
1.24824
2.32773
3.17522
2.93067
1.08841
0.252153
0.112198
0.0898824
0.0834823
0.0820677
0.0844504
0.0902831
0.101507
0.118062
0.13551
0.147097
0.16462
0.223611
0.565281
1.02128
1.34437
0.863368
0.364298
0.245112
0.25499
0.29229
0.276361
0.204431
0.151566
0.140204
0.13714
0.135545
0.136914
0.174414
0.570596
1.32149
1.26625
1.18341
1.04124
0.920401
0.829698
0.754604
0.683944
0.621618
0.565579
0.562056
0.487472
0.241842
0.206262
0.20211
0.202104
0.212036
0.226716
0.247652
0.268189
0.282612
0.299532
0.31725
0.333874
0.347543
0.351427
0.318821
0.243196
0.226241
0.258384
0.480833
1.02209
1.63423
1.5827
1.22641
1.56587
1.87528
1.28081
0.254119
0.251452
0.248411
0.245153
0.242419
0.239662
0.23778
0.239371
0.244218
0.249842
0.255241
0.260804
0.267978
0.310242
0.425878
0.496081
0.525144
0.543357
0.598078
0.742508
0.982132
1.14004
0.966922
0.896105
1.52338
2.04069
1.8647
1.38107
0.758641
0.453262
0.344384
0.274535
0.215334
0.16365
0.137155
0.134128
0.151898
0.191317
0.294691
0.805412
2.15185
3.57215
4.0619
1.96472
0.649339
0.17541
0.103794
0.0862511
0.0805486
0.0793533
0.0816157
0.0866039
0.0963936
0.111409
0.129328
0.142287
0.161143
0.212521
0.518489
0.995875
1.35077
0.819932
0.330537
0.252496
0.276691
0.31011
0.289993
0.210153
0.155552
0.143542
0.140586
0.139704
0.145678
0.279863
0.904241
1.32936
1.26105
1.16031
1.01485
0.894465
0.804762
0.728866
0.66005
0.59834
0.562256
0.556141
0.35544
0.219381
0.208714
0.206882
0.213101
0.22703
0.242545
0.261819
0.283084
0.297895
0.314873
0.329774
0.335912
0.318431
0.263681
0.217256
0.200632
0.207032
0.234971
0.429127
0.920765
1.47012
1.47426
1.16642
1.43633
1.8505
1.20853
0.255489
0.254245
0.252102
0.24933
0.246845
0.243898
0.241366
0.241671
0.245816
0.250692
0.253861
0.259715
0.259284
0.278059
0.387431
0.483049
0.522003
0.541413
0.591071
0.723694
0.968868
1.14611
1.00044
0.847763
0.967241
1.29666
1.67544
1.3715
0.896896
0.501965
0.357676
0.28452
0.2243
0.173464
0.140682
0.134291
0.149434
0.187663
0.308322
0.836314
1.93321
2.68269
3.17985
1.41329
0.455189
0.154481
0.105871
0.089226
0.0809132
0.0790455
0.0815781
0.0860457
0.0948455
0.108436
0.126023
0.140228
0.159531
0.204245
0.463302
0.964334
1.35623
0.828999
0.331938
0.271263
0.312996
0.336246
0.307378
0.216942
0.161497
0.147795
0.144666
0.144816
0.157061
0.443303
1.26655
1.32924
1.25279
1.13641
0.988352
0.867574
0.778898
0.703169
0.638254
0.577745
0.563923
0.536296
0.272976
0.214302
0.212809
0.214697
0.227151
0.24254
0.260321
0.276948
0.298638
0.316707
0.32995
0.33122
0.298938
0.24279
0.208801
0.197935
0.197878
0.205814
0.226501
0.380704
0.822857
1.28433
1.374
1.12303
1.27479
1.79789
1.04843
0.257331
0.257167
0.256094
0.253842
0.251793
0.248856
0.245947
0.24499
0.248232
0.252589
0.254331
0.258831
0.257528
0.272455
0.364383
0.463713
0.514663
0.538858
0.582676
0.699772
0.937705
1.18865
1.20869
0.927872
0.978538
0.979552
1.2536
1.19383
0.9206
0.562059
0.37383
0.291108
0.230182
0.181528
0.145745
0.135644
0.145896
0.178577
0.293919
0.791206
1.78608
2.45124
2.82213
1.30782
0.395469
0.158401
0.121318
0.103807
0.0840445
0.0809053
0.083528
0.0869348
0.0950912
0.107414
0.124257
0.139273
0.158663
0.199175
0.395652
0.919801
1.39109
0.970093
0.412548
0.3104
0.351466
0.362815
0.325717
0.227959
0.170114
0.152851
0.148789
0.149358
0.163831
0.515384
1.37041
1.32577
1.24058
1.11122
0.960802
0.840544
0.752907
0.679259
0.619663
0.574642
0.566716
0.469801
0.230815
0.218976
0.219492
0.227409
0.243599
0.261151
0.276761
0.295843
0.315025
0.329526
0.329416
0.289422
0.235515
0.206022
0.194614
0.194967
0.199772
0.208718
0.224391
0.362073
0.747274
1.10583
1.27316
1.06613
1.14078
1.75714
1.00543
0.25989
0.260749
0.260555
0.259076
0.257608
0.254912
0.251928
0.24974
0.252156
0.255442
0.255854
0.259127
0.257918
0.270667
0.349406
0.451109
0.507686
0.536473
0.578478
0.691794
0.926856
1.20831
1.33694
1.22229
1.22588
1.17626
1.19635
1.11117
0.890304
0.599576
0.401267
0.302328
0.236447
0.188219
0.151685
0.138005
0.143539
0.171005
0.281238
0.809909
1.81695
2.41888
2.58308
1.32871
0.396582
0.173473
0.137952
0.117833
0.0923114
0.0864665
0.0885622
0.0889683
0.0962827
0.107501
0.123212
0.138613
0.157773
0.196503
0.326707
0.840498
1.4613
1.43693
0.799035
0.398809
0.386192
0.38149
0.339679
0.243231
0.177873
0.157397
0.152665
0.153113
0.162094
0.456128
1.3707
1.3319
1.22842
1.08421
0.931584
0.813729
0.72735
0.657931
0.603434
0.577864
0.561713
0.337959
0.224877
0.224253
0.228544
0.242759
0.261201
0.278303
0.29014
0.312411
0.331609
0.340038
0.318949
0.258695
0.218137
0.199585
0.195042
0.198001
0.203957
0.210405
0.221925
0.35356
0.680097
0.943866
1.13581
1.00345
1.12677
1.76064
1.17481
0.262553
0.264835
0.265336
0.26493
0.263965
0.261574
0.258729
0.25552
0.25732
0.259553
0.259224
0.261906
0.260777
0.27331
0.353306
0.453929
0.509123
0.539249
0.581463
0.696589
0.940319
1.23218
1.37367
1.31751
1.30253
1.27696
1.37069
1.19038
0.899997
0.563616
0.385973
0.298043
0.237039
0.19113
0.157447
0.140854
0.143135
0.166339
0.2802
0.87538
1.97316
2.46332
2.47016
1.39351
0.423646
0.188123
0.150923
0.133873
0.112469
0.100247
0.0986626
0.0938214
0.0990897
0.108858
0.122917
0.138339
0.157232
0.194329
0.295537
0.715638
1.48297
1.76117
1.35856
0.637202
0.446598
0.407289
0.352926
0.253071
0.177743
0.158853
0.155615
0.156146
0.16286
0.36844
1.35757
1.34939
1.21376
1.05539
0.901882
0.786427
0.701965
0.636596
0.586332
0.58137
0.515902
0.265653
0.225058
0.230827
0.239569
0.258893
0.278514
0.293916
0.307571
0.329651
0.345641
0.340189
0.284807
0.228548
0.202639
0.193564
0.194501
0.201695
0.208013
0.210737
0.216837
0.343763
0.623069
0.800377
0.970337
0.932148
1.13241
1.76014
1.57431
0.265176
0.268395
0.269818
0.270055
0.269634
0.26783
0.26439
0.261272
0.262419
0.264142
0.263817
0.266454
0.266155
0.27762
0.355649
0.458632
0.514116
0.545153
0.59151
0.716624
0.975215
1.23131
1.35498
1.29774
1.28118
1.48442
1.46684
1.23645
0.864851
0.527917
0.373637
0.294385
0.238595
0.194062
0.162944
0.143883
0.143881
0.17463
0.325121
1.10983
2.21327
2.50581
2.49413
1.41919
0.425063
0.211453
0.18027
0.169425
0.157842
0.133443
0.110004
0.100951
0.103269
0.110764
0.123073
0.138809
0.156997
0.192634
0.284207
0.62787
1.38831
1.8252
1.53777
0.90342
0.549057
0.44801
0.343698
0.212453
0.167516
0.159373
0.158235
0.159392
0.166374
0.348859
1.37785
1.36173
1.19812
1.02523
0.871828
0.758904
0.676962
0.61233
0.580569
0.581388
0.416796
0.232206
0.23219
0.238648
0.253657
0.275159
0.293583
0.309487
0.328609
0.347073
0.351861
0.312204
0.240351
0.20645
0.19391
0.192196
0.19737
0.206614
0.210887
0.20925
0.207791
0.33275
0.581365
0.729651
0.882299
0.85534
1.01031
1.53078
1.76997
0.265103
0.270302
0.273294
0.27443
0.274172
0.271579
0.268671
0.265105
0.266242
0.268234
0.268574
0.271983
0.273084
0.285921
0.360565
0.464823
0.520737
0.552859
0.610349
0.758646
1.02176
1.21419
1.29626
1.24248
1.23012
1.43859
1.40385
1.18795
0.813948
0.513744
0.372412
0.295094
0.240931
0.197669
0.168274
0.14864
0.146475
0.18712
0.434872
1.60372
3.02059
3.16888
3.25516
1.39443
0.386148
0.218423
0.196176
0.192101
0.186876
0.161499
0.116015
0.105101
0.106312
0.112743
0.123852
0.13907
0.157721
0.192387
0.271866
0.597236
1.32507
1.77004
1.25647
0.67894
0.511961
0.426094
0.298718
0.192908
0.166602
0.161215
0.160594
0.162111
0.171673
0.347945
1.38491
1.36554
1.17844
0.994742
0.841718
0.732215
0.654361
0.587977
0.579355
0.557729
0.293458
0.232771
0.237667
0.247599
0.268595
0.291698
0.311526
0.32801
0.347871
0.358107
0.335951
0.254469
0.210631
0.19521
0.191236
0.193981
0.201073
0.210173
0.211655
0.205944
0.200945
0.321359
0.539192
0.677937
0.83625
0.841153
0.899685
1.10262
1.16363
0.26197
0.268638
0.273463
0.275762
0.276149
0.274356
0.26972
0.267068
0.268027
0.270807
0.272203
0.277038
0.281396
0.296565
0.372607
0.474569
0.530203
0.564448
0.641619
0.820768
1.05852
1.17743
1.2395
1.19241
1.16746
1.30024
1.2854
1.1046
0.778573
0.509254
0.373389
0.296249
0.24233
0.201256
0.173684
0.154084
0.155411
0.233043
0.784294
2.59876
3.77678
4.04908
2.45613
0.839281
0.287839
0.209282
0.198532
0.19945
0.196519
0.172151
0.121712
0.108789
0.109675
0.114967
0.125132
0.140588
0.159947
0.194192
0.268211
0.570873
1.24278
1.74569
1.13343
0.591271
0.463835
0.372874
0.253243
0.185931
0.167341
0.16283
0.162445
0.164314
0.186444
0.438479
1.41706
1.3568
1.15405
0.963157
0.812001
0.707099
0.63348
0.576558
0.575945
0.503573
0.253953
0.235588
0.242657
0.258672
0.283046
0.305905
0.32791
0.347511
0.358179
0.347556
0.277073
0.217481
0.198359
0.193245
0.193162
0.197367
0.204697
0.211889
0.210027
0.197813
0.19039
0.296495
0.494301
0.634103
0.782352
0.857326
0.883884
0.980406
0.997492
0.256649
0.265154
0.272752
0.276524
0.275004
0.273333
0.2699
0.266715
0.268373
0.272009
0.274555
0.280225
0.286775
0.300594
0.374286
0.484844
0.543774
0.58512
0.691746
0.896146
1.08191
1.15089
1.13933
1.17564
1.15013
1.25063
1.18527
1.02048
0.731155
0.496081
0.370331
0.295851
0.242412
0.204931
0.176463
0.157307
0.161644
0.270845
0.947582
2.42976
2.90542
2.98753
1.67283
0.6234
0.250305
0.202496
0.198443
0.20071
0.199673
0.176372
0.126464
0.112473
0.113084
0.117721
0.127026
0.142834
0.164393
0.196744
0.260582
0.514322
1.13562
1.70693
1.2604
0.660371
0.466065
0.354597
0.243812
0.186951
0.169232
0.164571
0.164108
0.166878
0.225717
0.831524
1.564
1.34997
1.12713
0.930948
0.782661
0.683836
0.613928
0.574836
0.571714
0.365973
0.236271
0.236166
0.246986
0.269605
0.296739
0.322157
0.344286
0.361569
0.354001
0.319846
0.237718
0.206594
0.197267
0.195552
0.196742
0.201279
0.207563
0.211198
0.205632
0.186823
0.179116
0.256508
0.433647
0.581358
0.721585
0.857705
0.917997
0.966388
0.957545
0.248989
0.263427
0.272538
0.274876
0.270215
0.270671
0.269273
0.265324
0.268147
0.272968
0.276369
0.282233
0.290582
0.293922
0.339927
0.476449
0.556424
0.61752
0.761862
0.966914
1.08486
1.12093
1.08812
1.13224
1.31951
1.30661
1.1631
0.938868
0.651188
0.464756
0.359032
0.291983
0.242068
0.207458
0.179784
0.160025
0.166067
0.298473
1.02619
2.30872
2.5511
2.58679
1.50955
0.512036
0.229394
0.199153
0.200839
0.20305
0.204775
0.183996
0.135071
0.117902
0.117933
0.122305
0.13084
0.146855
0.170174
0.199215
0.253224
0.467574
1.0749
1.63057
1.2384
0.688015
0.480612
0.351335
0.246307
0.1913
0.172185
0.166502
0.165334
0.168708
0.260342
1.16204
1.61299
1.35023
1.10541
0.899827
0.754018
0.662243
0.593496
0.576387
0.54949
0.283471
0.230333
0.237771
0.25277
0.280619
0.30789
0.334167
0.356419
0.366283
0.348115
0.285216
0.221402
0.203783
0.199264
0.199124
0.201084
0.205557
0.209485
0.207422
0.195786
0.175281
0.169921
0.230484
0.388627
0.53043
0.666907
0.843292
0.93819
0.971867
0.948703
0.245513
0.272944
0.288182
0.284895
0.265377
0.264246
0.26303
0.267124
0.269203
0.274822
0.27911
0.28432
0.292798
0.291707
0.306055
0.430513
0.56103
0.66606
0.848818
1.01505
1.0767
1.09044
1.05199
1.08747
1.35827
1.32928
1.1542
0.845926
0.574916
0.427752
0.341908
0.283339
0.239395
0.208194
0.181648
0.162415
0.172734
0.345664
1.13152
2.54216
2.49489
2.35032
1.4379
0.479467
0.220959
0.198686
0.203422
0.205844
0.207514
0.19545
0.147237
0.124336
0.123349
0.126848
0.135284
0.150996
0.174521
0.202049
0.252911
0.459525
1.0548
1.55602
1.10817
0.636759
0.46767
0.35563
0.258222
0.200313
0.177639
0.169346
0.165884
0.168008
0.25357
1.22634
1.628
1.36522
1.09025
0.870766
0.727198
0.641862
0.583796
0.577739
0.486333
0.241134
0.232032
0.240649
0.261368
0.29107
0.321424
0.34975
0.37004
0.373114
0.34126
0.253299
0.211184
0.20276
0.201751
0.20289
0.205553
0.209078
0.209096
0.19894
0.182637
0.165259
0.166454
0.223541
0.379245
0.512943
0.648442
0.843445
0.942916
0.954071
0.929566
0.272401
0.353874
0.409588
0.425302
0.312226
0.281502
0.260657
0.27001
0.273362
0.278865
0.284471
0.289179
0.29627
0.295486
0.302449
0.406999
0.566882
0.729479
0.929513
1.02552
1.05356
1.06706
1.02184
1.03451
1.22669
1.24069
1.09291
0.798621
0.551117
0.414026
0.33366
0.278036
0.238014
0.208734
0.18232
0.163765
0.185766
0.414535
1.31609
2.8291
2.48766
2.30914
1.40243
0.467087
0.21704
0.199218
0.205057
0.208439
0.208062
0.205884
0.159137
0.130879
0.129142
0.132498
0.140666
0.15649
0.176459
0.20299
0.251878
0.449797
1.02802
1.55547
0.894543
0.526552
0.434437
0.36417
0.278988
0.216806
0.187467
0.173864
0.166587
0.167012
0.195148
1.07257
1.60009
1.39857
1.08284
0.84588
0.703228
0.622603
0.582686
0.574976
0.353689
0.230679
0.233323
0.244537
0.27097
0.302783
0.33549
0.361751
0.378155
0.367985
0.314901
0.230046
0.208014
0.205398
0.206136
0.207742
0.209806
0.210375
0.203215
0.185985
0.169493
0.158054
0.164447
0.220078
0.379115
0.521359
0.677645
0.866215
0.934531
0.923247
0.892049
0.314547
0.465247
0.592447
0.635422
0.408721
0.282965
0.264156
0.276031
0.28065
0.286167
0.292705
0.297403
0.303566
0.302779
0.309566
0.410567
0.59773
0.806363
0.978362
1.01329
1.0101
0.988675
1.02734
1.03005
1.17102
1.14325
1.00396
0.740721
0.525058
0.40237
0.327275
0.275396
0.237643
0.209587
0.182106
0.168673
0.232577
0.622306
1.83099
3.83465
3.23175
3.03979
1.37778
0.420546
0.209372
0.197378
0.2054
0.211985
0.21256
0.213945
0.168959
0.137826
0.135242
0.138432
0.146108
0.162115
0.178538
0.202343
0.247912
0.445316
1.00316
1.52936
1.09472
0.607572
0.45135
0.391847
0.325799
0.248301
0.203164
0.179013
0.167025
0.16691
0.185958
0.89623
1.53205
1.43168
1.07877
0.823281
0.681649
0.602409
0.583873
0.547773
0.279623
0.226761
0.234658
0.250094
0.281904
0.314002
0.348029
0.371019
0.370477
0.342333
0.276937
0.220863
0.209747
0.209589
0.210726
0.212287
0.212217
0.207503
0.191146
0.170817
0.158677
0.153988
0.163931
0.209926
0.367934
0.531228
0.722605
0.90838
0.917072
0.896929
0.878621
0.333791
0.572931
0.798678
0.875384
0.541666
0.31041
0.282882
0.279063
0.288795
0.295623
0.302489
0.305783
0.313417
0.313407
0.326609
0.452705
0.667334
0.883737
0.984058
0.984916
0.972334
0.940424
0.998516
1.17011
1.18417
1.08367
0.881007
0.637917
0.478525
0.382066
0.316925
0.271495
0.2371
0.208414
0.18045
0.194713
0.358051
1.03007
3.06372
4.21885
3.94692
2.33227
0.852592
0.304402
0.197104
0.194264
0.206165
0.215973
0.218585
0.222391
0.179226
0.144999
0.141899
0.144865
0.152753
0.167456
0.181505
0.202093
0.24143
0.429803
0.984349
1.47596
1.21021
0.763204
0.532957
0.45035
0.364769
0.276491
0.21608
0.180568
0.166544
0.166226
0.18277
0.82577
1.46271
1.44844
1.07398
0.803382
0.662308
0.592005
0.584288
0.484464
0.24042
0.229651
0.23794
0.259474
0.29381
0.328747
0.359247
0.378524
0.35806
0.326165
0.24938
0.217764
0.213179
0.214171
0.215487
0.21584
0.212147
0.198393
0.175104
0.156949
0.15196
0.152501
0.164205
0.195874
0.339383
0.528479
0.759529
0.932307
0.903272
0.896291
0.962444
0.330418
0.642772
1.02771
1.17768
0.735144
0.367906
0.376227
0.295694
0.300746
0.305452
0.312731
0.315577
0.323578
0.33008
0.351623
0.510824
0.751186
0.92995
0.963925
0.952808
0.940094
0.897518
0.931745
1.12969
1.13187
1.01733
0.774465
0.56057
0.435424
0.359266
0.304866
0.265435
0.235918
0.20694
0.179825
0.212934
0.449505
1.22868
2.87674
3.03503
2.90859
1.56245
0.657474
0.255547
0.189544
0.19296
0.207155
0.219747
0.223827
0.232183
0.190597
0.153101
0.149224
0.151947
0.1595
0.173582
0.184556
0.202548
0.23839
0.435572
0.943279
1.38911
1.25168
0.85993
0.588869
0.483093
0.402459
0.305697
0.219494
0.178761
0.164995
0.16533
0.193754
0.775091
1.41574
1.45971
1.0621
0.781953
0.643895
0.590253
0.579483
0.357059
0.231125
0.231789
0.242584
0.270592
0.303646
0.33812
0.368646
0.383457
0.359177
0.318453
0.237687
0.217892
0.217189
0.219029
0.219858
0.218178
0.207119
0.183352
0.15968
0.147608
0.149091
0.153309
0.16553
0.190102
0.304704
0.51632
0.77904
0.933383
0.890166
0.909418
1.08248
0.307758
0.66832
1.29759
1.61614
1.02375
0.54076
0.504007
0.319404
0.313641
0.316028
0.322426
0.326278
0.334477
0.345023
0.36202
0.555653
0.821436
0.936611
0.930642
0.896266
0.877627
0.922804
0.921087
1.05338
1.03978
0.921869
0.690767
0.5124
0.407928
0.341399
0.294553
0.260411
0.233789
0.206143
0.178346
0.247786
0.5492
1.31264
2.76993
2.67673
2.55958
1.41891
0.579678
0.23142
0.186405
0.19263
0.208569
0.223619
0.230984
0.242648
0.203645
0.162288
0.157038
0.159181
0.16634
0.17906
0.188589
0.204801
0.237635
0.43111
0.891146
1.24202
1.16337
0.845239
0.590562
0.489762
0.421699
0.311019
0.211914
0.174519
0.162969
0.164863
0.255813
0.848194
1.4175
1.47179
1.04674
0.760222
0.62474
0.590372
0.548876
0.280468
0.226595
0.232858
0.247533
0.279069
0.31327
0.348425
0.374907
0.386294
0.361886
0.303478
0.232435
0.219936
0.222181
0.223755
0.224159
0.21722
0.195396
0.166688
0.148224
0.143061
0.148968
0.155407
0.168743
0.193811
0.299735
0.505693
0.769591
0.909132
0.872746
0.887103
1.0335
0.288676
0.679743
1.5068
2.17378
1.42867
0.802581
0.58209
0.334165
0.326433
0.327625
0.332596
0.337724
0.344254
0.358245
0.360229
0.566434
0.841502
0.908743
0.886441
0.846564
0.821822
0.95344
1.06329
1.04131
0.951318
0.767603
0.57252
0.449721
0.374136
0.32141
0.282857
0.254598
0.2302
0.201959
0.189322
0.306921
0.662468
1.40229
2.96154
2.48687
2.32574
1.3588
0.518691
0.211217
0.184688
0.193562
0.209969
0.226721
0.239007
0.253866
0.218285
0.171986
0.164653
0.166027
0.172522
0.183987
0.192816
0.207914
0.238113
0.423775
0.839242
1.0913
1.01156
0.757532
0.549403
0.474416
0.412294
0.285889
0.19968
0.170283
0.160718
0.16638
0.429291
1.08365
1.51031
1.4975
1.03223
0.739439
0.613172
0.589515
0.484495
0.240522
0.228121
0.234403