/*--------------------------------*- C++ -*----------------------------------*\
  =========                 |
  \\      /  F ield         | OpenFOAM: The Open Source CFD Toolbox
   \\    /   O peration     | Website:  https://openfoam.org
    \\  /    A nd           | Version:  10
     \\/     M anipulation  |
\*---------------------------------------------------------------------------*/
FoamFile
{
    format      ascii;
    class       volVectorField;
    location    "0.050274";
    object      U;
}
// * * * * * * * * * * * * * * * * * * * * * * * * * * * * * * * * * * * * * //

dimensions      [0 1 -1 0 0 0 0];

internalField   nonuniform List<vector> 
16320
(
(-0.342289 -0.0677891 0)
(-0.276522 -0.0647154 0)
(-0.233326 -0.0203944 0)
(-0.261314 0.0203629 0)
(-0.410113 0.0346864 0)
(-0.533668 0.113507 0)
(-0.543643 0.243096 0)
(-0.44863 0.408877 0)
(-0.29343 0.556033 0)
(-0.0971583 0.614974 0)
(0.0510293 0.527584 0)
(0.0708894 0.455943 0)
(0.112044 0.381643 0)
(0.169481 0.266719 0)
(0.283009 0.227248 0)
(0.392047 0.123035 0)
(0.460763 0.0370163 0)
(0.497268 0.0134621 0)
(0.549262 0.00459216 0)
(0.608 -0.0174351 0)
(0.599126 -0.124467 0)
(0.434705 -0.337608 0)
(0.150583 -0.654656 0)
(-0.00696514 -0.948952 0)
(-0.0725118 -1.00176 0)
(-0.0845515 -0.726326 0)
(-0.185894 -0.43962 0)
(-0.40956 -0.220158 0)
(-0.545623 -0.085165 0)
(-0.514107 0.020682 0)
(-0.412896 0.1252 0)
(-0.268571 0.256924 0)
(-0.085635 0.401636 0)
(0.00828501 0.527667 0)
(-0.00271797 0.62862 0)
(-0.0703395 0.691244 0)
(-0.188459 0.757121 0)
(-0.337234 0.772692 0)
(-0.478461 0.693798 0)
(-0.603978 0.494653 0)
(-0.655425 0.192772 0)
(-0.634449 -0.0586709 0)
(-0.550132 -0.228765 0)
(-0.440726 -0.36018 0)
(-0.332537 -0.418747 0)
(-0.122222 -0.178401 0)
(-0.144537 0.135157 0)
(-0.0444486 0.515024 0)
(-0.172818 0.594863 0)
(-0.242722 0.568979 0)
(-0.30726 0.519943 0)
(-0.356857 0.459734 0)
(-0.392366 0.419908 0)
(-0.40844 0.408236 0)
(-0.369448 0.398071 0)
(-0.270265 0.340982 0)
(-0.0858851 0.103199 0)
(0.246312 -0.201507 0)
(0.306895 -0.321977 0)
(0.328833 -0.401396 0)
(0.379368 -0.455998 0)
(0.406012 -0.481446 0)
(0.412155 -0.507507 0)
(0.475571 -0.467116 0)
(0.673745 -0.242288 0)
(0.793308 0.075993 0)
(0.796358 0.0301504 0)
(0.871143 -0.116032 0)
(0.83016 -0.24388 0)
(0.645088 -0.436785 0)
(0.555779 -0.616559 0)
(0.542612 -0.722504 0)
(0.518953 -0.804096 0)
(0.414878 -0.890183 0)
(0.269092 -0.893438 0)
(-0.00105095 -0.579581 0)
(-0.0776994 -0.538995 0)
(-0.115996 -0.532375 0)
(-0.144221 -0.527278 0)
(-0.172754 -0.506484 0)
(-0.207754 -0.489236 0)
(-0.229647 -0.479693 0)
(-0.234175 -0.472271 0)
(-0.223222 -0.459854 0)
(-0.201348 -0.4411 0)
(-0.171342 -0.415714 0)
(-0.13163 -0.378015 0)
(-0.0824305 -0.325362 0)
(-0.0180205 -0.255951 0)
(0.0286763 -0.1833 0)
(0.107101 -0.130849 0)
(0.109943 -0.00416533 0)
(0.259342 0.392625 0)
(0.312611 0.576856 0)
(0.354855 0.736249 0)
(0.359337 0.816352 0)
(0.337004 0.801678 0)
(0.339179 0.770035 0)
(0.127213 0.648174 0)
(-0.123986 0.488035 0)
(-0.220573 0.419339 0)
(-0.0508233 0.295151 0)
(0.106158 0.192103 0)
(0.2809 0.104803 0)
(0.332845 0.00293756 0)
(0.249408 -0.160471 0)
(0.273439 -0.298577 0)
(0.188132 -0.365628 0)
(0.0958263 -0.415406 0)
(0.0362215 -0.455671 0)
(0.0111198 -0.463472 0)
(-0.0625928 -0.402876 0)
(-0.149653 -0.330661 0)
(-0.313078 -0.100846 0)
(-0.255474 -0.076275 0)
(-0.229019 -0.057994 0)
(-0.295149 -0.069835 0)
(-0.431764 -0.0850205 0)
(-0.540314 -0.0389683 0)
(-0.573589 0.0436128 0)
(-0.50226 0.149216 0)
(-0.342028 0.273234 0)
(-0.136386 0.384615 0)
(0.0437516 0.428783 0)
(0.18511 0.423127 0)
(0.257649 0.31352 0)
(0.344723 0.168346 0)
(0.447979 0.0510436 0)
(0.532375 -0.0416337 0)
(0.58501 -0.0801005 0)
(0.61674 -0.0707294 0)
(0.641059 -0.0478412 0)
(0.652631 -0.0496452 0)
(0.601052 -0.1088 0)
(0.431344 -0.260537 0)
(0.173853 -0.516519 0)
(0.0353945 -0.75921 0)
(-0.0646354 -0.854644 0)
(-0.0157271 -0.763149 0)
(-0.138711 -0.438939 0)
(-0.428088 -0.114802 0)
(-0.584864 0.0641157 0)
(-0.553985 0.15025 0)
(-0.469705 0.228172 0)
(-0.359596 0.330212 0)
(-0.199463 0.480698 0)
(-0.113008 0.606157 0)
(-0.109152 0.732137 0)
(-0.180593 0.817207 0)
(-0.288069 0.899539 0)
(-0.407399 0.921792 0)
(-0.518955 0.827479 0)
(-0.629289 0.594739 0)
(-0.692101 0.265605 0)
(-0.658063 -0.00259787 0)
(-0.55167 -0.208374 0)
(-0.424685 -0.365 0)
(-0.307281 -0.468505 0)
(0.00915524 -0.22232 0)
(-0.144977 0.22149 0)
(-0.0936074 0.573445 0)
(-0.200689 0.694955 0)
(-0.259897 0.669422 0)
(-0.307104 0.612729 0)
(-0.34594 0.537817 0)
(-0.371572 0.481322 0)
(-0.375123 0.448364 0)
(-0.322761 0.421191 0)
(-0.214524 0.331641 0)
(-0.009425 0.0707265 0)
(0.194185 -0.191885 0)
(0.268022 -0.304141 0)
(0.316171 -0.378559 0)
(0.384083 -0.416708 0)
(0.427663 -0.440983 0)
(0.460542 -0.482721 0)
(0.567462 -0.46924 0)
(0.715332 -0.342454 0)
(0.779025 -0.16884 0)
(0.785485 -0.00153152 0)
(0.853216 0.0117899 0)
(0.822932 -0.10162 0)
(0.648067 -0.3396 0)
(0.541784 -0.56379 0)
(0.508131 -0.686946 0)
(0.458652 -0.755903 0)
(0.330251 -0.810075 0)
(0.238546 -0.749747 0)
(-0.0337229 -0.528939 0)
(-0.0882307 -0.502851 0)
(-0.107358 -0.493285 0)
(-0.132351 -0.486526 0)
(-0.159118 -0.475333 0)
(-0.200169 -0.469402 0)
(-0.224749 -0.466253 0)
(-0.226204 -0.461031 0)
(-0.210079 -0.451254 0)
(-0.182231 -0.436671 0)
(-0.142523 -0.413607 0)
(-0.0919612 -0.380729 0)
(-0.0318699 -0.339228 0)
(0.0280718 -0.287583 0)
(0.0599962 -0.258238 0)
(0.114759 -0.201058 0)
(0.0440696 -0.142258 0)
(0.0941885 0.323503 0)
(0.133139 0.586757 0)
(0.227883 0.825374 0)
(0.285323 0.904906 0)
(0.349305 0.859398 0)
(0.404712 0.772181 0)
(0.395627 0.572386 0)
(0.34753 0.386323 0)
(0.252135 0.342474 0)
(0.3281 0.242413 0)
(0.433503 0.134432 0)
(0.499101 0.0303685 0)
(0.471338 -0.0598528 0)
(0.349271 -0.144828 0)
(0.352341 -0.196688 0)
(0.300095 -0.196816 0)
(0.165397 -0.254502 0)
(0.0377438 -0.322368 0)
(-0.00554764 -0.333523 0)
(-0.0352424 -0.293817 0)
(-0.115139 -0.268672 0)
(-0.285565 -0.11022 0)
(-0.255597 -0.108417 0)
(-0.263339 -0.134993 0)
(-0.346098 -0.192937 0)
(-0.433193 -0.212062 0)
(-0.492156 -0.171599 0)
(-0.523316 -0.0957581 0)
(-0.49486 -0.0138375 0)
(-0.39054 0.0581367 0)
(-0.214343 0.129293 0)
(-0.066736 0.225108 0)
(0.217419 0.312262 0)
(0.316804 0.223899 0)
(0.428753 0.127112 0)
(0.51709 0.0593768 0)
(0.577827 0.0168779 0)
(0.6215 -0.0137751 0)
(0.651039 -0.0319186 0)
(0.663004 -0.0367212 0)
(0.643183 -0.0445982 0)
(0.545044 -0.0896187 0)
(0.347457 -0.202944 0)
(0.1134 -0.406656 0)
(0.0169996 -0.600567 0)
(-0.09204 -0.700081 0)
(0.00372395 -0.779194 0)
(-0.143577 -0.401665 0)
(-0.470334 -0.0498352 0)
(-0.580818 0.103529 0)
(-0.546785 0.184532 0)
(-0.462468 0.263864 0)
(-0.358825 0.371003 0)
(-0.219876 0.539156 0)
(-0.184094 0.667673 0)
(-0.195513 0.803022 0)
(-0.262711 0.911713 0)
(-0.349883 1.00468 0)
(-0.438813 1.03284 0)
(-0.515763 0.929373 0)
(-0.603751 0.672793 0)
(-0.676168 0.339957 0)
(-0.642377 0.0690509 0)
(-0.510893 -0.148484 0)
(-0.365078 -0.323965 0)
(-0.2621 -0.484103 0)
(0.0114782 -0.338767 0)
(-0.0496455 0.23802 0)
(-0.131103 0.646929 0)
(-0.22231 0.778349 0)
(-0.271232 0.75042 0)
(-0.299591 0.688608 0)
(-0.321144 0.607288 0)
(-0.332256 0.546273 0)
(-0.323489 0.500114 0)
(-0.279547 0.435316 0)
(-0.197844 0.286495 0)
(-0.0702376 -0.0311614 0)
(0.146213 -0.203882 0)
(0.213096 -0.276857 0)
(0.281986 -0.33383 0)
(0.35932 -0.359878 0)
(0.412187 -0.401065 0)
(0.468664 -0.462092 0)
(0.612846 -0.481174 0)
(0.739329 -0.357869 0)
(0.731569 -0.115936 0)
(0.703757 0.116281 0)
(0.768476 0.148103 0)
(0.758428 0.0155255 0)
(0.621042 -0.276731 0)
(0.533904 -0.525504 0)
(0.492267 -0.652358 0)
(0.429107 -0.709561 0)
(0.29865 -0.739508 0)
(0.233632 -0.655278 0)
(-0.041426 -0.501716 0)
(-0.0907253 -0.477891 0)
(-0.0977965 -0.470761 0)
(-0.124494 -0.463358 0)
(-0.154204 -0.459785 0)
(-0.198057 -0.459123 0)
(-0.221111 -0.457321 0)
(-0.219096 -0.452191 0)
(-0.198737 -0.443368 0)
(-0.163854 -0.428041 0)
(-0.116374 -0.405159 0)
(-0.0599629 -0.376099 0)
(0.00308297 -0.34144 0)
(0.0534199 -0.308415 0)
(0.0841087 -0.277652 0)
(0.10345 -0.211464 0)
(0.022066 -0.106046 0)
(-0.0716757 0.226597 0)
(-0.0429676 0.458516 0)
(0.111558 0.740826 0)
(0.232822 0.783592 0)
(0.362426 0.688221 0)
(0.470394 0.545009 0)
(0.540833 0.381825 0)
(0.558851 0.247238 0)
(0.515981 0.158019 0)
(0.527341 0.0604473 0)
(0.578112 -0.0377505 0)
(0.59794 -0.113107 0)
(0.520316 -0.149666 0)
(0.336343 -0.174871 0)
(0.312581 -0.169968 0)
(0.238059 -0.131567 0)
(0.137785 -0.170565 0)
(0.0604067 -0.278851 0)
(-0.00166313 -0.325292 0)
(-0.0284264 -0.29057 0)
(-0.134221 -0.292127 0)
(-0.303684 -0.123195 0)
(-0.295864 -0.162876 0)
(-0.335721 -0.230875 0)
(-0.394257 -0.288252 0)
(-0.421617 -0.291417 0)
(-0.431845 -0.248579 0)
(-0.442429 -0.172155 0)
(-0.432388 -0.0873567 0)
(-0.376679 -0.0202468 0)
(-0.264251 0.0161629 0)
(-0.244066 -0.00212365 0)
(0.21677 0.16532 0)
(0.344364 0.179237 0)
(0.45466 0.156023 0)
(0.532603 0.123862 0)
(0.579227 0.0930051 0)
(0.608941 0.0624233 0)
(0.636294 0.0302063 0)
(0.656428 0.00355478 0)
(0.636817 -0.0210875 0)
(0.528227 -0.0652456 0)
(0.330621 -0.158057 0)
(0.116769 -0.307422 0)
(0.0186699 -0.458346 0)
(-0.0958526 -0.56191 0)
(0.00738884 -0.727398 0)
(-0.161452 -0.29917 0)
(-0.44993 0.0298438 0)
(-0.544344 0.158341 0)
(-0.520907 0.231189 0)
(-0.441246 0.297292 0)
(-0.330917 0.399907 0)
(-0.209962 0.560213 0)
(-0.199526 0.700782 0)
(-0.22185 0.848044 0)
(-0.293817 0.967797 0)
(-0.373156 1.06548 0)
(-0.445668 1.09137 0)
(-0.50014 0.976506 0)
(-0.562051 0.706916 0)
(-0.625435 0.396331 0)
(-0.588421 0.165485 0)
(-0.44341 -0.0136444 0)
(-0.28354 -0.238949 0)
(-0.19759 -0.439609 0)
(-0.0513052 -0.309796 0)
(-0.0255647 0.239234 0)
(-0.160843 0.716047 0)
(-0.242351 0.850571 0)
(-0.284771 0.815453 0)
(-0.300365 0.744967 0)
(-0.301789 0.66247 0)
(-0.298778 0.605433 0)
(-0.277295 0.558648 0)
(-0.226433 0.470064 0)
(-0.161907 0.297642 0)
(-0.0467235 -0.0174049 0)
(0.121054 -0.150942 0)
(0.170033 -0.2123 0)
(0.238865 -0.263064 0)
(0.298778 -0.302144 0)
(0.353119 -0.375414 0)
(0.435792 -0.465434 0)
(0.602241 -0.508912 0)
(0.69587 -0.360499 0)
(0.678037 -0.076122 0)
(0.653936 0.170627 0)
(0.709807 0.208169 0)
(0.708027 0.0654372 0)
(0.601462 -0.239212 0)
(0.532551 -0.493297 0)
(0.485615 -0.621027 0)
(0.413016 -0.672832 0)
(0.287909 -0.692986 0)
(0.239792 -0.607872 0)
(-0.0360192 -0.483452 0)
(-0.0894035 -0.46266 0)
(-0.0901076 -0.456914 0)
(-0.120585 -0.449985 0)
(-0.154043 -0.450399 0)
(-0.197407 -0.451622 0)
(-0.217699 -0.450227 0)
(-0.212096 -0.444817 0)
(-0.185941 -0.433923 0)
(-0.144379 -0.416434 0)
(-0.091591 -0.39328 0)
(-0.0313202 -0.36585 0)
(0.0298753 -0.332962 0)
(0.0734763 -0.307714 0)
(0.103657 -0.258943 0)
(0.0795776 -0.196247 0)
(0.0581193 0.0384807 0)
(-0.106359 0.188783 0)
(-0.0956061 0.326342 0)
(0.0501122 0.531944 0)
(0.216696 0.538768 0)
(0.360925 0.449927 0)
(0.467314 0.334161 0)
(0.532685 0.212223 0)
(0.566665 0.0870596 0)
(0.585979 -0.0272626 0)
(0.612039 -0.10808 0)
(0.649457 -0.179859 0)
(0.670549 -0.231876 0)
(0.611091 -0.256768 0)
(0.420939 -0.255745 0)
(0.356667 -0.206235 0)
(0.251459 -0.129747 0)
(0.153106 -0.150868 0)
(0.0820577 -0.276805 0)
(-0.000332392 -0.368078 0)
(-0.0333528 -0.338354 0)
(-0.182942 -0.33861 0)
(-0.351425 -0.146441 0)
(-0.376035 -0.220373 0)
(-0.408297 -0.295017 0)
(-0.4197 -0.329623 0)
(-0.398801 -0.318056 0)
(-0.372394 -0.274802 0)
(-0.360205 -0.201506 0)
(-0.351505 -0.115236 0)
(-0.328 -0.038523 0)
(-0.277033 -0.01011 0)
(-0.300348 -0.109412 0)
(0.101104 -0.0615388 0)
(0.350796 0.128636 0)
(0.456691 0.180902 0)
(0.521637 0.184407 0)
(0.561364 0.16986 0)
(0.584058 0.14643 0)
(0.60615 0.114131 0)
(0.624092 0.0775447 0)
(0.599012 0.0351158 0)
(0.480027 -0.0231225 0)
(0.303218 -0.118965 0)
(0.128361 -0.228875 0)
(0.0286617 -0.339843 0)
(-0.096773 -0.445948 0)
(0.028483 -0.671462 0)
(-0.0911802 -0.266423 0)
(-0.336189 0.068491 0)
(-0.451903 0.193372 0)
(-0.457506 0.27343 0)
(-0.384946 0.341485 0)
(-0.25249 0.444643 0)
(-0.165451 0.577367 0)
(-0.154699 0.724607 0)
(-0.193762 0.869561 0)
(-0.28359 0.99566 0)
(-0.376437 1.08582 0)
(-0.455712 1.09534 0)
(-0.503305 0.964028 0)
(-0.53155 0.693606 0)
(-0.566263 0.389376 0)
(-0.508523 0.178381 0)
(-0.356353 0.0159093 0)
(-0.15893 -0.275542 0)
(-0.053456 -0.339205 0)
(0.0145912 -0.238715 0)
(-0.00382778 0.303014 0)
(-0.203344 0.765145 0)
(-0.27379 0.898467 0)
(-0.307844 0.858627 0)
(-0.315025 0.779714 0)
(-0.299941 0.699945 0)
(-0.288189 0.646002 0)
(-0.251067 0.604125 0)
(-0.180176 0.516269 0)
(-0.113461 0.339354 0)
(-0.00169874 0.0221558 0)
(0.104117 -0.105542 0)
(0.129262 -0.159965 0)
(0.174504 -0.209268 0)
(0.214481 -0.288434 0)
(0.287255 -0.395764 0)
(0.400541 -0.495755 0)
(0.567292 -0.544886 0)
(0.616855 -0.34159 0)
(0.597336 0.0109565 0)
(0.59776 0.22689 0)
(0.649422 0.25332 0)
(0.654426 0.0920877 0)
(0.579609 -0.217635 0)
(0.53193 -0.470409 0)
(0.481957 -0.597792 0)
(0.400161 -0.648517 0)
(0.273702 -0.664866 0)
(0.219804 -0.571615 0)
(-0.034631 -0.465361 0)
(-0.0886065 -0.451196 0)
(-0.0838431 -0.449206 0)
(-0.11764 -0.441754 0)
(-0.15532 -0.443832 0)
(-0.197703 -0.445801 0)
(-0.214141 -0.444256 0)
(-0.202667 -0.436556 0)
(-0.170394 -0.422748 0)
(-0.123546 -0.403329 0)
(-0.0668527 -0.379674 0)
(-0.00328786 -0.351066 0)
(0.0520496 -0.323298 0)
(0.0900024 -0.294177 0)
(0.105046 -0.222731 0)
(0.0493304 -0.143168 0)
(-0.0465005 0.0475407 0)
(-0.0863058 0.175211 0)
(-0.0741452 0.22011 0)
(0.0456822 0.346452 0)
(0.209456 0.338034 0)
(0.332629 0.281752 0)
(0.423008 0.210342 0)
(0.487362 0.130108 0)
(0.543293 0.0360799 0)
(0.59908 -0.0666656 0)
(0.650488 -0.168479 0)
(0.704127 -0.248793 0)
(0.733388 -0.299058 0)
(0.691769 -0.326733 0)
(0.526626 -0.332512 0)
(0.435163 -0.287738 0)
(0.318988 -0.196169 0)
(0.212111 -0.190591 0)
(0.117252 -0.315652 0)
(-0.00214231 -0.427046 0)
(-0.0524003 -0.411648 0)
(-0.219608 -0.391731 0)
(-0.423299 -0.176926 0)
(-0.457991 -0.2588 0)
(-0.457133 -0.314934 0)
(-0.42406 -0.329395 0)
(-0.368048 -0.310468 0)
(-0.312273 -0.269882 0)
(-0.274184 -0.203834 0)
(-0.251954 -0.120997 0)
(-0.226897 -0.0421135 0)
(-0.194413 0.0120472 0)
(-0.162417 -0.146452 0)
(-0.0756465 -0.360389 0)
(0.294023 0.0594095 0)
(0.405158 0.184607 0)
(0.470865 0.227627 0)
(0.515706 0.231051 0)
(0.539931 0.212737 0)
(0.558905 0.180439 0)
(0.571753 0.139123 0)
(0.535638 0.0873655 0)
(0.402412 0.0176858 0)
(0.249346 -0.073808 0)
(0.10793 -0.163879 0)
(0.0278783 -0.244042 0)
(-0.0975109 -0.344693 0)
(0.0350279 -0.563317 0)
(-0.0722969 -0.201783 0)
(-0.221392 0.0884037 0)
(-0.354881 0.209756 0)
(-0.382308 0.295205 0)
(-0.299436 0.383706 0)
(-0.158993 0.48589 0)
(-0.0977849 0.598198 0)
(-0.0756487 0.735448 0)
(-0.127921 0.867201 0)
(-0.251866 0.997314 0)
(-0.387253 1.07153 0)
(-0.49103 1.05513 0)
(-0.546555 0.902889 0)
(-0.57575 0.611026 0)
(-0.616087 0.276418 0)
(-0.549566 0.0845115 0)
(-0.404756 0.0352128 0)
(0.15671 0.156204 0)
(0.191183 -0.0887424 0)
(0.155509 -0.113628 0)
(0.0442548 0.404141 0)
(-0.256901 0.803126 0)
(-0.317331 0.913169 0)
(-0.340562 0.873362 0)
(-0.343168 0.795409 0)
(-0.32215 0.723433 0)
(-0.302542 0.670778 0)
(-0.253944 0.624601 0)
(-0.166673 0.543956 0)
(-0.0664591 0.374738 0)
(0.0113744 0.0940115 0)
(0.0723404 -0.0507567 0)
(0.089085 -0.109419 0)
(0.102037 -0.185937 0)
(0.163289 -0.330901 0)
(0.271024 -0.445839 0)
(0.378895 -0.531815 0)
(0.519455 -0.556069 0)
(0.53286 -0.296327 0)
(0.533524 0.0876903 0)
(0.553092 0.261069 0)
(0.601747 0.267763 0)
(0.613818 0.0877141 0)
(0.567107 -0.217991 0)
(0.528436 -0.461997 0)
(0.474388 -0.586573 0)
(0.383123 -0.639756 0)
(0.255804 -0.65441 0)
(0.168812 -0.539071 0)
(-0.0370859 -0.454982 0)
(-0.089883 -0.440875 0)
(-0.0802424 -0.444347 0)
(-0.115035 -0.436374 0)
(-0.157681 -0.439246 0)
(-0.197666 -0.441214 0)
(-0.208297 -0.437764 0)
(-0.190493 -0.427507 0)
(-0.152767 -0.411398 0)
(-0.101687 -0.390479 0)
(-0.0410985 -0.36647 0)
(0.021184 -0.335549 0)
(0.0695374 -0.319646 0)
(0.102439 -0.275442 0)
(0.0899791 -0.193021 0)
(0.0812386 0.0557133 0)
(-0.071995 0.0951327 0)
(-0.0639117 0.143702 0)
(-0.042885 0.150516 0)
(0.0616993 0.227644 0)
(0.195998 0.219628 0)
(0.301055 0.190825 0)
(0.38518 0.151607 0)
(0.454244 0.0975605 0)
(0.52622 0.0203264 0)
(0.603364 -0.0801882 0)
(0.677956 -0.205243 0)
(0.749328 -0.289286 0)
(0.788352 -0.340139 0)
(0.760765 -0.369359 0)
(0.615805 -0.383655 0)
(0.509971 -0.359581 0)
(0.402684 -0.25848 0)
(0.2838 -0.21464 0)
(0.147754 -0.335929 0)
(0.00590538 -0.459254 0)
(-0.0655779 -0.455255 0)
(-0.241475 -0.417626 0)
(-0.513733 -0.195581 0)
(-0.525124 -0.26273 0)
(-0.486736 -0.296989 0)
(-0.417606 -0.299073 0)
(-0.33682 -0.279462 0)
(-0.259242 -0.245297 0)
(-0.197819 -0.19311 0)
(-0.161583 -0.122531 0)
(-0.115683 -0.0609737 0)
(-0.0989085 0.000841423 0)
(-0.0241008 -0.0455385 0)
(-0.0116478 -0.394519 0)
(0.191397 -0.11926 0)
(0.337857 0.126378 0)
(0.410451 0.23056 0)
(0.459796 0.260208 0)
(0.48725 0.252437 0)
(0.505792 0.225735 0)
(0.510704 0.186241 0)
(0.457212 0.13112 0)
(0.311459 0.0523184 0)
(0.177801 -0.0324692 0)
(0.0599857 -0.117086 0)
(0.0129812 -0.176204 0)
(-0.0829823 -0.257574 0)
(0.0650169 -0.467511 0)
(-0.0123553 -0.177647 0)
(-0.111411 0.087878 0)
(-0.264761 0.213948 0)
(-0.306902 0.303157 0)
(-0.206778 0.416536 0)
(-0.0984796 0.506806 0)
(-0.0216222 0.613066 0)
(0.0177171 0.729048 0)
(-0.0464761 0.842218 0)
(-0.216613 0.969412 0)
(-0.409643 1.03433 0)
(-0.552163 0.99418 0)
(-0.641977 0.811829 0)
(-0.715538 0.487869 0)
(-0.72676 0.175849 0)
(-0.572521 -0.00161665 0)
(-0.370176 -0.116514 0)
(-0.141505 -0.194348 0)
(0.16957 -0.130834 0)
(0.0133016 0.081767 0)
(-0.0739785 0.565301 0)
(-0.336381 0.821843 0)
(-0.372598 0.890843 0)
(-0.378203 0.855711 0)
(-0.377497 0.792826 0)
(-0.363188 0.734552 0)
(-0.342475 0.681821 0)
(-0.286981 0.620292 0)
(-0.189199 0.539554 0)
(-0.0692329 0.39131 0)
(-0.0370804 0.177254 0)
(0.00897532 -0.00375051 0)
(0.0596696 -0.117537 0)
(0.0595933 -0.228527 0)
(0.174994 -0.360814 0)
(0.296381 -0.446341 0)
(0.404187 -0.522119 0)
(0.52116 -0.519847 0)
(0.514306 -0.246021 0)
(0.530449 0.113137 0)
(0.543176 0.26565 0)
(0.576452 0.240544 0)
(0.58409 0.0471344 0)
(0.544247 -0.246338 0)
(0.510519 -0.470657 0)
(0.453708 -0.587124 0)
(0.352361 -0.644816 0)
(0.224142 -0.665765 0)
(0.0785118 -0.526472 0)
(-0.0480445 -0.465612 0)
(-0.0874128 -0.435064 0)
(-0.0792149 -0.440577 0)
(-0.112163 -0.43324 0)
(-0.159708 -0.436029 0)
(-0.19604 -0.436934 0)
(-0.20028 -0.43134 0)
(-0.176244 -0.41895 0)
(-0.133507 -0.400929 0)
(-0.0791682 -0.378751 0)
(-0.0147055 -0.354282 0)
(0.0388876 -0.326003 0)
(0.0827563 -0.314928 0)
(0.0933222 -0.252912 0)
(0.0478327 -0.120718 0)
(-0.0437564 0.0630477 0)
(-0.0748937 0.12591 0)
(-0.0702203 0.124424 0)
(-0.0258686 0.125521 0)
(0.0751017 0.165413 0)
(0.186413 0.162922 0)
(0.279634 0.149665 0)
(0.360354 0.126348 0)
(0.437178 0.081395 0)
(0.52935 0.0042481 0)
(0.61315 -0.0993757 0)
(0.705123 -0.208592 0)
(0.784314 -0.280803 0)
(0.826807 -0.331872 0)
(0.808197 -0.369579 0)
(0.677406 -0.397891 0)
(0.565367 -0.400082 0)
(0.47609 -0.306864 0)
(0.334438 -0.224458 0)
(0.152075 -0.324391 0)
(0.00103525 -0.464588 0)
(-0.0723422 -0.476075 0)
(-0.241805 -0.428552 0)
(-0.590107 -0.195641 0)
(-0.567496 -0.238641 0)
(-0.497944 -0.253225 0)
(-0.406303 -0.24847 0)
(-0.31043 -0.231518 0)
(-0.218974 -0.205057 0)
(-0.139821 -0.167678 0)
(-0.0936441 -0.113049 0)
(-0.0525969 -0.0712016 0)
(-0.0401275 -0.0310075 0)
(0.0525673 -0.080646 0)
(0.0582814 -0.388248 0)
(0.164236 -0.197765 0)
(0.285397 0.0648786 0)
(0.35898 0.205659 0)
(0.411541 0.259155 0)
(0.442311 0.266858 0)
(0.458704 0.251103 0)
(0.449756 0.217839 0)
(0.369187 0.163675 0)
(0.210724 0.0793491 0)
(0.0922534 -0.00318406 0)
(-0.00447932 -0.0804122 0)
(-0.0139237 -0.123095 0)
(-0.0501265 -0.203521 0)
(0.110075 -0.38111 0)
(0.0827276 -0.128533 0)
(0.0140057 0.096713 0)
(-0.167976 0.216749 0)
(-0.241733 0.297965 0)
(-0.145091 0.412332 0)
(-0.0654925 0.514632 0)
(0.046478 0.617657 0)
(0.0990288 0.708242 0)
(0.0333248 0.796518 0)
(-0.171935 0.917554 0)
(-0.414807 0.99103 0)
(-0.58083 0.9666 0)
(-0.651218 0.831558 0)
(-0.673377 0.588455 0)
(-0.63004 0.360405 0)
(-0.463653 0.214368 0)
(-0.249758 0.0242195 0)
(-0.133596 -0.34529 0)
(-0.051364 -0.278435 0)
(-0.162054 0.046486 0)
(-0.249434 0.596757 0)
(-0.420138 0.778272 0)
(-0.418856 0.82255 0)
(-0.404558 0.803484 0)
(-0.404921 0.763915 0)
(-0.409432 0.721385 0)
(-0.395898 0.67132 0)
(-0.341606 0.595157 0)
(-0.24046 0.507565 0)
(-0.11735 0.394257 0)
(-0.0351665 0.221104 0)
(-0.0525052 -0.0306472 0)
(0.0433881 -0.194784 0)
(0.0392145 -0.281344 0)
(0.181147 -0.365446 0)
(0.307703 -0.418536 0)
(0.424469 -0.479896 0)
(0.546998 -0.450433 0)
(0.518662 -0.156572 0)
(0.529133 0.169663 0)
(0.530366 0.293016 0)
(0.542278 0.242402 0)
(0.543812 0.00864432 0)
(0.51119 -0.297977 0)
(0.480482 -0.498589 0)
(0.418709 -0.598977 0)
(0.298837 -0.652822 0)
(0.181134 -0.659988 0)
(0.00681264 -0.509975 0)
(-0.0523125 -0.467638 0)
(-0.0725834 -0.432414 0)
(-0.0780162 -0.435826 0)
(-0.109752 -0.431271 0)
(-0.160886 -0.43381 0)
(-0.192737 -0.43348 0)
(-0.190172 -0.425758 0)
(-0.160092 -0.411373 0)
(-0.112868 -0.391631 0)
(-0.056166 -0.368383 0)
(0.00810639 -0.34241 0)
(0.0516344 -0.321337 0)
(0.0965478 -0.299087 0)
(0.0690008 -0.239515 0)
(0.0983625 0.0322208 0)
(-0.111369 0.120451 0)
(-0.0863357 0.135014 0)
(-0.0871962 0.119192 0)
(-0.0205473 0.11967 0)
(0.0806604 0.136269 0)
(0.180541 0.137118 0)
(0.269229 0.131894 0)
(0.352598 0.11751 0)
(0.44113 0.0802658 0)
(0.544298 0.0103152 0)
(0.634673 -0.0905517 0)
(0.732299 -0.185976 0)
(0.815844 -0.256386 0)
(0.856889 -0.311109 0)
(0.836239 -0.357282 0)
(0.701307 -0.394717 0)
(0.587423 -0.407146 0)
(0.480709 -0.323278 0)
(0.285135 -0.219437 0)
(0.110184 -0.314557 0)
(-0.0245057 -0.463891 0)
(-0.0839035 -0.484873 0)
(-0.228981 -0.432994 0)
(-0.643025 -0.168903 0)
(-0.588305 -0.192176 0)
(-0.498515 -0.19571 0)
(-0.394358 -0.189073 0)
(-0.289075 -0.175365 0)
(-0.188408 -0.154849 0)
(-0.0966491 -0.128267 0)
(-0.0362977 -0.0892674 0)
(0.00316641 -0.055164 0)
(0.0187687 -0.0268279 0)
(0.0964228 -0.060283 0)
(0.108287 -0.377535 0)
(0.177257 -0.246672 0)
(0.264398 0.0163257 0)
(0.331677 0.177 0)
(0.381614 0.248418 0)
(0.412507 0.270494 0)
(0.42285 0.265702 0)
(0.393009 0.240064 0)
(0.274964 0.190437 0)
(0.0957935 0.111041 0)
(-0.0201883 0.0314374 0)
(-0.1068 -0.0534453 0)
(-0.0738232 -0.090556 0)
(-0.0455494 -0.184605 0)
(0.154278 -0.33321 0)
(0.17177 -0.0258855 0)
(0.178953 0.127984 0)
(-0.0124052 0.223678 0)
(-0.103229 0.292403 0)
(-0.0607776 0.394805 0)
(-0.00932528 0.511813 0)
(0.102534 0.604252 0)
(0.15809 0.671006 0)
(0.105912 0.73957 0)
(-0.106659 0.8478 0)
(-0.373043 0.94132 0)
(-0.535781 0.956 0)
(-0.586505 0.88077 0)
(-0.594893 0.680966 0)
(-0.558452 0.459589 0)
(-0.395962 0.282551 0)
(-0.136982 0.0178419 0)
(-0.077979 -0.509032 0)
(-0.0506337 -0.424886 0)
(-0.225585 -0.133448 0)
(-0.332877 0.440643 0)
(-0.443339 0.63504 0)
(-0.424749 0.685611 0)
(-0.410728 0.68945 0)
(-0.41892 0.675656 0)
(-0.443568 0.657333 0)
(-0.441083 0.61696 0)
(-0.39723 0.536751 0)
(-0.298397 0.446238 0)
(-0.171774 0.349441 0)
(-0.0417566 0.187278 0)
(-0.0854012 -0.122692 0)
(-0.0005044 -0.266489 0)
(-0.00272304 -0.32144 0)
(0.156557 -0.374474 0)
(0.283162 -0.403181 0)
(0.417957 -0.449609 0)
(0.563177 -0.376209 0)
(0.551253 -0.0630448 0)
(0.552445 0.229437 0)
(0.574014 0.310921 0)
(0.599162 0.22629 0)
(0.560758 -0.0761293 0)
(0.501089 -0.374305 0)
(0.454795 -0.538744 0)
(0.385506 -0.616595 0)
(0.262864 -0.65623 0)
(0.1642 -0.6313 0)
(-0.00730511 -0.497938 0)
(-0.0491826 -0.456373 0)
(-0.0564413 -0.432188 0)
(-0.077308 -0.430628 0)
(-0.109225 -0.429582 0)
(-0.161452 -0.432358 0)
(-0.187731 -0.430657 0)
(-0.178076 -0.420944 0)
(-0.142231 -0.404793 0)
(-0.0910484 -0.3837 0)
(-0.0321875 -0.359334 0)
(0.0274757 -0.331238 0)
(0.0625599 -0.312573 0)
(0.0961023 -0.266726 0)
(0.0266881 -0.201275 0)
(-0.0103529 0.0981802 0)
(-0.127347 0.147665 0)
(-0.110351 0.129633 0)
(-0.104395 0.112791 0)
(-0.0232384 0.112622 0)
(0.0805601 0.116958 0)
(0.178843 0.119814 0)
(0.269171 0.123409 0)
(0.361162 0.11898 0)
(0.461838 0.0883205 0)
(0.574414 0.0198454 0)
(0.677991 -0.0810891 0)
(0.777864 -0.172999 0)
(0.855919 -0.244174 0)
(0.888599 -0.304301 0)
(0.858421 -0.354726 0)
(0.716184 -0.3924 0)
(0.596949 -0.393487 0)
(0.487865 -0.322277 0)
(0.28154 -0.206816 0)
(0.0908928 -0.295048 0)
(-0.0458808 -0.457673 0)
(-0.0974749 -0.48313 0)
(-0.213554 -0.432582 0)
(-0.675263 -0.123512 0)
(-0.5975 -0.135071 0)
(-0.495334 -0.134444 0)
(-0.383719 -0.128012 0)
(-0.271897 -0.117158 0)
(-0.164808 -0.101015 0)
(-0.0644567 -0.0812225 0)
(0.00768499 -0.0564712 0)
(0.0480905 -0.0307467 0)
(0.0647711 -0.0139965 0)
(0.139431 -0.0563683 0)
(0.148953 -0.369741 0)
(0.200033 -0.283927 0)
(0.266941 -0.01687 0)
(0.324302 0.157348 0)
(0.367638 0.242804 0)
(0.394816 0.275602 0)
(0.396273 0.278606 0)
(0.345082 0.258963 0)
(0.193701 0.216068 0)
(0.00795957 0.152372 0)
(-0.0897297 0.0884036 0)
(-0.153515 -0.00470796 0)
(-0.119568 -0.056479 0)
(-0.0917916 -0.167787 0)
(0.133721 -0.256366 0)
(0.129418 0.0662207 0)
(0.244719 0.159648 0)
(0.12028 0.19212 0)
(0.09872 0.229448 0)
(0.0519388 0.34945 0)
(0.0762597 0.483761 0)
(0.155158 0.574503 0)
(0.200284 0.627094 0)
(0.162233 0.679251 0)
(-0.0247025 0.763011 0)
(-0.295468 0.87105 0)
(-0.462332 0.915998 0)
(-0.514301 0.872039 0)
(-0.522511 0.699512 0)
(-0.502727 0.505129 0)
(-0.358015 0.347214 0)
(-0.063951 0.0917376 0)
(-0.0117009 -0.524439 0)
(0.000637432 -0.512315 0)
(-0.129465 -0.288773 0)
(-0.287381 0.159016 0)
(-0.403804 0.359357 0)
(-0.399733 0.413307 0)
(-0.395605 0.427756 0)
(-0.408949 0.44386 0)
(-0.45119 0.460857 0)
(-0.462274 0.441727 0)
(-0.441126 0.374882 0)
(-0.356833 0.28986 0)
(-0.234732 0.200104 0)
(-0.106615 0.0523206 0)
(-0.134322 -0.204576 0)
(-0.0286511 -0.30926 0)
(-0.0402129 -0.341856 0)
(0.124191 -0.383739 0)
(0.244175 -0.40627 0)
(0.399267 -0.439089 0)
(0.556613 -0.306372 0)
(0.571306 0.0228695 0)
(0.590267 0.275342 0)
(0.651586 0.319073 0)
(0.664767 0.184481 0)
(0.56313 -0.146326 0)
(0.492319 -0.425959 0)
(0.435349 -0.573322 0)
(0.362255 -0.637446 0)
(0.248875 -0.66314 0)
(0.14973 -0.618123 0)
(0.00456004 -0.495077 0)
(-0.0407107 -0.450981 0)
(-0.0433358 -0.432763 0)
(-0.075046 -0.4259 0)
(-0.110624 -0.428169 0)
(-0.161599 -0.431143 0)
(-0.181109 -0.427804 0)
(-0.164283 -0.41634 0)
(-0.123107 -0.398832 0)
(-0.0683295 -0.376995 0)
(-0.00715838 -0.350975 0)
(0.04531 -0.32562 0)
(0.0751199 -0.298161 0)
(0.0853756 -0.224852 0)
(-0.0136027 -0.10893 0)
(-0.107158 0.110698 0)
(-0.157252 0.144627 0)
(-0.145301 0.112148 0)
(-0.121116 0.0978481 0)
(-0.0295704 0.0961112 0)
(0.0773836 0.0984077 0)
(0.180852 0.106926 0)
(0.285677 0.124995 0)
(0.388757 0.128471 0)
(0.503076 0.102331 0)
(0.626255 0.0362251 0)
(0.736125 -0.0607046 0)
(0.829416 -0.154192 0)
(0.894238 -0.228845 0)
(0.913648 -0.296684 0)
(0.872078 -0.35169 0)
(0.72663 -0.387121 0)
(0.593889 -0.37192 0)
(0.48543 -0.311679 0)
(0.306041 -0.189027 0)
(0.0966854 -0.261159 0)
(-0.05163 -0.442379 0)
(-0.111596 -0.47378 0)
(-0.203331 -0.42393 0)
(-0.692308 -0.0694919 0)
(-0.600395 -0.0748863 0)
(-0.49076 -0.0729035 0)
(-0.3746 -0.0675244 0)
(-0.25802 -0.0589733 0)
(-0.145973 -0.046992 0)
(-0.0397391 -0.0324666 0)
(0.0374375 -0.0177912 0)
(0.0846925 -0.00157087 0)
(0.100984 0.00527347 0)
(0.173155 -0.0488483 0)
(0.177163 -0.368881 0)
(0.224647 -0.314566 0)
(0.280137 -0.0406143 0)
(0.328544 0.144504 0)
(0.36429 0.240913 0)
(0.384852 0.281727 0)
(0.375551 0.290279 0)
(0.304923 0.275155 0)
(0.132081 0.239167 0)
(-0.0475101 0.192392 0)
(-0.108791 0.146264 0)
(-0.138419 0.0699415 0)
(-0.129954 0.0288755 0)
(-0.122257 -0.107164 0)
(0.0393447 -0.132126 0)
(0.0688064 0.124926 0)
(0.236539 0.135515 0)
(0.203248 0.0891639 0)
(0.22523 0.0669564 0)
(0.187491 0.225768 0)
(0.194431 0.400945 0)
(0.224337 0.523071 0)
(0.238449 0.580434 0)
(0.20085 0.62032 0)
(0.0510393 0.678383 0)
(-0.204648 0.778149 0)
(-0.392694 0.8352 0)
(-0.470191 0.806952 0)
(-0.482083 0.663827 0)
(-0.458785 0.509158 0)
(-0.333561 0.39352 0)
(-0.00737481 0.168135 0)
(0.0794471 -0.459847 0)
(0.0515798 -0.523158 0)
(0.0047671 -0.394884 0)
(-0.180777 -0.140492 0)
(-0.349847 -0.0359473 0)
(-0.374743 -0.0307862 0)
(-0.365307 -0.0400311 0)
(-0.363492 -0.0192102 0)
(-0.40873 0.029231 0)
(-0.436668 0.0566926 0)
(-0.449483 0.0494194 0)
(-0.392871 0.0193446 0)
(-0.290858 -0.0261411 0)
(-0.174124 -0.118616 0)
(-0.166004 -0.274572 0)
(-0.0382925 -0.339522 0)
(-0.0644853 -0.359101 0)
(0.101626 -0.39014 0)
(0.217944 -0.416262 0)
(0.384928 -0.431225 0)
(0.547922 -0.256746 0)
(0.586742 0.0817088 0)
(0.62578 0.294675 0)
(0.692417 0.3147 0)
(0.679759 0.141289 0)
(0.552156 -0.192106 0)
(0.476241 -0.470813 0)
(0.417949 -0.612042 0)
(0.34702 -0.667037 0)
(0.251894 -0.679018 0)
(0.150964 -0.624261 0)
(0.027429 -0.491043 0)
(-0.028485 -0.444928 0)
(-0.0307142 -0.430038 0)
(-0.0728633 -0.422538 0)
(-0.113809 -0.426943 0)
(-0.160833 -0.429463 0)
(-0.172779 -0.424135 0)
(-0.149178 -0.411113 0)
(-0.103325 -0.392637 0)
(-0.0449118 -0.370724 0)
(0.0148471 -0.343157 0)
(0.0610876 -0.327433 0)
(0.0818669 -0.278962 0)
(0.0583188 -0.187817 0)
(-0.0194261 0.0797286 0)
(-0.168595 0.109707 0)
(-0.17974 0.121755 0)
(-0.180397 0.0882505 0)
(-0.136692 0.0786291 0)
(-0.0353377 0.0782794 0)
(0.0825565 0.0886706 0)
(0.198356 0.110817 0)
(0.309349 0.135188 0)
(0.424674 0.143857 0)
(0.552218 0.117683 0)
(0.676733 0.0520336 0)
(0.785008 -0.0457695 0)
(0.870436 -0.137752 0)
(0.918982 -0.213855 0)
(0.921673 -0.28663 0)
(0.866104 -0.346608 0)
(0.718933 -0.384392 0)
(0.572326 -0.358212 0)
(0.475737 -0.296861 0)
(0.352084 -0.160873 0)
(0.135857 -0.200401 0)
(-0.038498 -0.412286 0)
(-0.120728 -0.460474 0)
(-0.195816 -0.407663 0)
(-0.70309 -0.010475 0)
(-0.601398 -0.0128154 0)
(-0.487018 -0.0111522 0)
(-0.367542 -0.00758733 0)
(-0.247521 -0.00186658 0)
(-0.132496 0.00534 0)
(-0.0209335 0.013668 0)
(0.0577413 0.0211505 0)
(0.109999 0.0268752 0)
(0.124774 0.0212632 0)
(0.198512 -0.0456451 0)
(0.192434 -0.377683 0)
(0.24391 -0.355465 0)
(0.298866 -0.0700732 0)
(0.33709 0.131922 0)
(0.365082 0.239993 0)
(0.378861 0.287465 0)
(0.359502 0.29951 0)