/*--------------------------------*- C++ -*----------------------------------*\
  =========                 |
  \\      /  F ield         | OpenFOAM: The Open Source CFD Toolbox
   \\    /   O peration     | Website:  https://openfoam.org
    \\  /    A nd           | Version:  11
     \\/     M anipulation  |
\*---------------------------------------------------------------------------*/
FoamFile
{
    format      ascii;
    class       volScalarField;
    location    "3";
    object      mag(U);
}
// * * * * * * * * * * * * * * * * * * * * * * * * * * * * * * * * * * * * * //

dimensions      [0 1 -1 0 0 0 0];

internalField   nonuniform List<scalar> 
9600
(
0.996207
0.996398
0.995509
0.994771
0.994907
0.996057
0.997681
0.989774
0.958532
0.932953
0.925845
0.930818
0.948869
0.971011
0.990176
1.0065
1.02
1.0314
1.04068
1.04793
1.0538
1.05826
1.06121
1.06239
1.06189
1.05961
1.05672
1.05255
1.04788
1.04222
1.03683
1.03147
1.02654
1.02205
1.0176
1.01366
1.00999
1.00685
1.0041
1.00136
0.996975
0.997202
0.997493
0.997773
0.997769
0.99739
0.99724
0.999053
1.00112
1.0018
1.00018
1.00033
1.0041
1.01215
1.01817
1.02278
1.02723
1.03232
1.03717
1.04148
1.04502
1.04777
1.04947
1.04957
1.04888
1.04583
1.04381
1.03848
1.03562
1.0287
1.02458
1.0179
1.01398
1.00795
1.00386
1
0.99638
0.993631
0.99242
0.990079
0.997075
0.997325
0.997506
0.99776
0.998355
0.999878
1.00199
1.00241
1.00028
0.992763
0.981879
0.980868
0.985774
0.995101
1.00693
1.01897
1.02983
1.03924
1.04734
1.05364
1.05957
1.06358
1.06711
1.06828
1.06935
1.06681
1.06527
1.06057
1.05718
1.05074
1.0467
1.04031
1.03662
1.0316
1.02801
1.02486
1.02079
1.01746
1.01453
1.00942
0.997169
0.997464
0.997744
0.99826
0.99914
1.00017
1.00282
1.00559
1.00693
1.01034
1.01664
1.0235
1.02945
1.03337
1.03653
1.03865
1.03968
1.04071
1.04247
1.04499
1.04778
1.05048
1.05187
1.05178
1.0512
1.0487
1.04632
1.04199
1.03818
1.03359
1.02851
1.02251
1.01824
1.01208
1.00732
1.00362
0.99898
0.996768
0.995425
0.993567
0.997214
0.997579
0.997949
0.998722
0.999579
1.00047
1.00389
1.011
1.01626
1.01738
1.0138
1.00863
1.005
1.00578
1.01162
1.02058
1.02996
1.03887
1.04676
1.05255
1.05822
1.06215
1.06542
1.06674
1.06818
1.06677
1.0652
1.06134
1.05756
1.05207
1.04736
1.04163
1.03799
1.0326
1.03028
1.02594
1.02286
1.01835
1.01573
1.0101
0.997261
0.997807
0.998275
0.998897
0.999962
1.00228
1.00758
1.01158
1.01439
1.01876
1.02423
1.03031
1.03646
1.04175
1.04571
1.04795
1.04923
1.04976
1.05069
1.0512
1.05247
1.05481
1.0558
1.05555
1.05457
1.05214
1.04988
1.04582
1.04199
1.03753
1.03293
1.02718
1.02257
1.01634
1.01139
1.00722
1.00239
1.00045
0.99855
0.996733
0.99744
0.998018
0.998757
0.999517
1.00076
1.00318
1.00881
1.01425
1.01775
1.02149
1.02454
1.0251
1.02263
1.0199
1.02015
1.02487
1.03172
1.03905
1.04671
1.05244
1.05763
1.06184
1.06487
1.06635
1.06746
1.06733
1.06576
1.06251
1.05864
1.05362
1.04858
1.04323
1.03918
1.03435
1.03186
1.02734
1.0247
1.01947
1.01685
1.01083
0.997614
0.998621
0.999273
1.00006
1.00168
1.00516
1.00977
1.0146
1.01872
1.02214
1.02577
1.03083
1.03664
1.04359
1.04891
1.05279
1.05493
1.0559
1.05733
1.05795
1.05832
1.05964
1.06093
1.0607
1.05951
1.05604
1.05368
1.0501
1.04648
1.04189
1.03743
1.03209
1.02707
1.02099
1.01613
1.01072
1.0065
1.00446
1.00174
0.999833
0.998177
0.999048
0.999597
1.0005
1.00241
1.0059
1.01072
1.01575
1.01969
1.02309
1.02695
1.0305
1.03272
1.03362
1.03373
1.03446
1.03792
1.04208
1.04774
1.0532
1.0583
1.06217
1.0651
1.0667
1.0681
1.06867
1.06699
1.06443
1.06041
1.05567
1.0501
1.04531
1.04054
1.03635
1.03338
1.02876
1.02604
1.02067
1.01789
1.01143
0.998296
0.99918
0.999857
1.00086
1.00303
1.00709
1.01145
1.01635
1.02036
1.02286
1.02663
1.03122
1.03609
1.04252
1.04895
1.05408
1.05768
1.05972
1.06147
1.06341
1.06458
1.06512
1.06615
1.06674
1.0659
1.0618
1.05841
1.0551
1.05123
1.04682
1.04218
1.03689
1.03166
1.02627
1.02059
1.01444
1.011
1.00812
1.00514
1.00282
0.998547
0.999529
1.00026
1.00146
1.00382
1.0077
1.01313
1.0178
1.02033
1.02293
1.02692
1.03173
1.03616
1.03987
1.04284
1.04426
1.04623
1.0484
1.05226
1.05597
1.06014
1.06401
1.0669
1.06805
1.06933
1.07054
1.06945
1.06693
1.06329
1.05868
1.05268
1.04794
1.04249
1.0385
1.03485
1.03024
1.02739
1.0219
1.01882
1.01194
0.998723
0.999673
1.00058
1.00213
1.00468
1.0088
1.01387
1.01833
1.02095
1.02297
1.02594
1.03036
1.03567
1.04153
1.04816
1.05407
1.05892
1.06267
1.06525
1.06725
1.06969
1.07068
1.072
1.07279
1.07267
1.0689
1.065
1.06114
1.05718
1.05236
1.04774
1.04254
1.03683
1.03138
1.02534
1.0191
1.01532
1.01144
1.00904
1.00594
0.999082
1.00021
1.00131
1.00318
1.00598
1.00984
1.01424
1.01826
1.02036
1.02205
1.02546
1.02996
1.03497
1.04104
1.04694
1.05133
1.0548
1.05689
1.05933
1.06197
1.0645
1.06806
1.07064
1.07129
1.07218
1.07337
1.07306
1.07053
1.06687
1.06278
1.05655
1.05144
1.0456
1.04111
1.03689
1.03241
1.02907
1.02312
1.01973
1.01267
0.999182
1.00052
1.00159
1.00369
1.00653
1.01016
1.01427
1.01765
1.01982
1.02157
1.0244
1.02828
1.03371
1.04005
1.04711
1.05407
1.06
1.06497
1.06913
1.07138
1.07458
1.07634
1.07799
1.07897
1.07953
1.07681
1.07284
1.0684
1.06414
1.05894
1.05394
1.04896
1.04293
1.0366
1.03107
1.02402
1.02023
1.01542
1.01297
1.0089
1.00029
1.0018
1.00264
1.00462
1.00746
1.01086
1.01439
1.01714
1.0196
1.02139
1.02379
1.02748
1.03217
1.03881
1.04706
1.05443
1.06065
1.06474
1.06786
1.07049
1.07218
1.07439
1.07679
1.07699
1.07697
1.0775
1.07765
1.07563
1.07177
1.06774
1.06173
1.05621
1.05007
1.04458
1.03998
1.03505
1.03119
1.02489
1.02132
1.01437
0.999868
1.00176
1.00257
1.00442
1.00729
1.01057
1.01377
1.01631
1.01919
1.02139
1.02375
1.02695
1.03153
1.03798
1.04599
1.05445
1.06231
1.06844
1.07404
1.07713
1.08034
1.08268
1.08438
1.08562
1.08646
1.08517
1.0816
1.07696
1.07248
1.0669
1.06133
1.05593
1.05063
1.04309
1.03757
1.03002
1.02506
1.02022
1.01684
1.01235
1.00105
1.00316
1.00379
1.00494
1.00764
1.01087
1.01376
1.01608
1.01923
1.02225
1.02422
1.02745
1.03161
1.03689
1.04525
1.05413
1.06317
1.0703
1.07548
1.07912
1.08129
1.08276
1.08487
1.08546
1.08474
1.08441
1.08373
1.08259
1.07856
1.07441
1.06849
1.06262
1.05642
1.04993
1.04483
1.03879
1.03444
1.02759
1.02339
1.01719
0.99995
1.00243
1.003
1.00406
1.0069
1.01012
1.01289
1.01536
1.01851
1.02209
1.02494
1.02826
1.03216
1.03685
1.04398
1.05278
1.06239
1.07014
1.07785
1.08293
1.08665
1.08949
1.09151
1.09297
1.09397
1.09369
1.09079
1.087
1.08189
1.07714
1.0704
1.06447
1.05879
1.05141
1.04522
1.03744
1.0311
1.02577
1.02147
1.01638
1.0006
1.00311
1.00409
1.00477
1.00718
1.01015
1.01282
1.01563
1.01855
1.02259
1.02604
1.0295
1.0339
1.03778
1.04378
1.0515
1.06131
1.07064
1.07883
1.08523
1.09035
1.09297
1.09504
1.09617
1.09535
1.0946
1.09221
1.09118
1.08704
1.08355
1.07726
1.07137
1.06394
1.05753
1.05109
1.04479
1.03943
1.03281
1.02671
1.02076
0.998736
1.00087
1.00243
1.00334
1.00564
1.00875
1.0117
1.01488
1.01819
1.02219
1.02628
1.03036
1.03531
1.03981
1.04507
1.05146
1.06087
1.06984
1.07908
1.08692
1.09317
1.09797
1.10111
1.10311
1.10369
1.10443
1.10171
1.09883
1.09326
1.08898
1.0821
1.07539
1.0683
1.06149
1.05424
1.04679
1.03927
1.03318
1.02747
1.02174
0.999411
1.00108
1.00324
1.00473
1.00662
1.00924
1.0117
1.01499
1.01859
1.02252
1.02705
1.0315
1.03749
1.04258
1.04798
1.05336
1.06095
1.06971
1.07938
1.08811
1.09616
1.10252
1.10625
1.10935
1.10906
1.10924
1.10594
1.10423
1.09949
1.09564
1.08897
1.08329
1.07482
1.06825
1.05974
1.05351
1.04654
1.03985
1.03286
1.02607
0.997492
0.998677
1.00065
1.00254
1.00444
1.00684
1.00942
1.01318
1.01797
1.02253
1.02729
1.03207
1.03876
1.04488
1.051
1.05617
1.06318
1.0709
1.07964
1.08918
1.09737
1.10536
1.1109
1.11574
1.11631
1.11811
1.11595
1.11411
1.10832
1.10353
1.09653
1.08995
1.08177
1.0744
1.06594
1.05833
1.04987
1.04245
1.03611
1.02885
0.99847
0.999836
1.00141
1.00333
1.00556
1.00814
1.01103
1.01428
1.01915
1.02411
1.029
1.03346
1.04009
1.04732
1.05435
1.0606
1.0674
1.0743
1.08173
1.0904
1.09839
1.10783
1.11395
1.12126
1.12365
1.12614
1.12366
1.12203
1.11692
1.11253
1.10523
1.09921
1.09029
1.08305
1.07373
1.06568
1.05748
1.04993
1.04223
1.03421
0.995471
0.997332
0.998491
0.999963
1.00247
1.00545
1.00892
1.01234
1.01687
1.0226
1.02875
1.034
1.04082
1.04867
1.05724
1.0647
1.07182
1.0798
1.08595
1.09405
1.10061
1.10996
1.11599
1.12481
1.12854
1.13296
1.13291
1.13271
1.12807
1.12361
1.11592
1.10927
1.10027
1.092
1.08283
1.07388
1.0653
1.05539
1.04867
1.03919
0.996002
0.998395
0.999957
1.00115
1.00349
1.00668
1.01066
1.01438
1.01901
1.02451
1.03159
1.03742
1.04413
1.05191
1.06022
1.06902
1.07637
1.08595
1.09233
1.10097
1.10543
1.11413
1.11918
1.12759
1.1325
1.13884
1.14087
1.1423
1.139
1.13555
1.12827
1.12141
1.11248
1.1032
1.09381
1.08367
1.07477
1.06481
1.057
1.04666
0.991831
0.994239
0.996178
0.997779
0.999927
1.00279
1.00718
1.01167
1.01682
1.02259
1.03023
1.03749
1.04435
1.0534
1.0615
1.0723
1.07959
1.09131
1.0984
1.10885
1.11343
1.12193
1.1256
1.13301
1.13689
1.1438
1.14605
1.15039
1.14896
1.14822
1.14175
1.13583
1.12641
1.11741
1.10683
1.09601
1.08636
1.075
1.06691
1.05534
0.992593
0.995008
0.997072
0.999074
1.00179
1.00459
1.00884
1.01385
1.01964
1.02606
1.03348
1.04271
1.04882
1.05935
1.06689
1.07924
1.08553
1.09761
1.10483
1.11694
1.12256
1.13133
1.13572
1.14261
1.14552
1.15077
1.15283
1.15687
1.15772
1.1578
1.15518
1.14944
1.14295
1.13259
1.12403
1.11099
1.10189
1.08812
1.08047
1.06633
0.986828
0.989376
0.991452
0.993392
0.996678
1.00049
1.00493
1.01079
1.01607
1.02427
1.03045
1.04236
1.04853
1.06043
1.06781
1.0827
1.08991
1.10244
1.10889
1.12256
1.12961
1.14059
1.1449
1.15392
1.15653
1.16372
1.16396
1.16753
1.16658
1.16786
1.16576
1.16286
1.15792
1.14946
1.14201
1.12922
1.12023
1.10481
1.09693
1.08049
0.98768
0.990486
0.992944
0.995053
0.998157
1.0031
1.00738
1.01516
1.01996
1.02946
1.03572
1.04781
1.05523
1.06807
1.07568
1.09007
1.09943
1.11274
1.11942
1.13077
1.13889
1.15005
1.15674
1.16464
1.16995
1.1758
1.18078
1.18251
1.18397
1.18167
1.18103
1.17596
1.17378
1.16519
1.16073
1.14846
1.14166
1.12585
1.11826
1.10094
0.97959
0.982718
0.985077
0.988291
0.991169
0.997156
1.00129
1.0103
1.016
1.02701
1.03396
1.04669
1.055
1.06906
1.07765
1.09129
1.10163
1.1159
1.12508
1.13671
1.14464
1.15636
1.16456
1.17438
1.18018
1.1878
1.19317
1.19848
1.20215
1.20248
1.20221
1.19645
1.19429
1.18488
1.18087
1.16904
1.16306
1.14819
1.14094
1.12452
0.980317
0.985263
0.987258
0.991516
0.99464
1.00125
1.00638
1.01558
1.02235
1.0336
1.04205
1.05468
1.06567
1.07776
1.09106
1.10081
1.11497
1.12494
1.13945
1.14763
1.15981
1.16743
1.17977
1.18655
1.19655
1.20156
1.21019
1.21324
1.22065
1.22177
1.22679
1.22262
1.22315
1.21353
1.2085
1.19796
1.18906
1.17695
1.16785
1.1535
0.968077
0.974392
0.976877
0.982096
0.986396
0.99336
1.00046
1.00977
1.01871
1.02989
1.04077
1.05376
1.06564
1.0795
1.09243
1.1054
1.11767
1.1301
1.14272
1.15412
1.16516
1.17476
1.18539
1.19393
1.20476
1.21149
1.22306
1.22573
1.23778
1.23659
1.24769
1.24396
1.25064
1.2437
1.24374
1.23256
1.22729
1.21226
1.2048
1.18878
0.971681
0.977046
0.981833
0.985088
0.99287
0.997278
1.00963
1.01608
1.03085
1.03977
1.05568
1.0658
1.08325
1.09291
1.11162
1.11969
1.13795
1.1447
1.16225
1.16836
1.18537
1.19046
1.20517
1.20968
1.22442
1.22847
1.24386
1.2464
1.26189
1.26275
1.27701
1.27497
1.28536
1.27958
1.28499
1.27488
1.27531
1.2611
1.25781
1.24019
0.957616
0.964255
0.970613
0.97677
0.984169
0.993026
1.00284
1.01376
1.02675
1.04034
1.05469
1.06888
1.08482
1.09795
1.11503
1.12627
1.14393
1.15162
1.16926
1.175
1.19242
1.1972
1.21341
1.21737
1.23422
1.23831
1.25665
1.25953
1.2792
1.28016
1.30085
1.30022
1.31929
1.31579
1.33046
1.32262
1.33014
1.31685
1.31834
1.29716
0.960961
0.965676
0.975925
0.981016
0.994002
1.00229
1.01985
1.03046
1.05067
1.06241
1.08285
1.09494
1.11549
1.1264
1.14668
1.15615
1.17513
1.18253
1.19882
1.2057
1.21941
1.2257
1.23822
1.24343
1.25723
1.26248
1.27936
1.28543
1.30549
1.31109
1.3335
1.33848
1.36064
1.36359
1.38473
1.38404
1.40203
1.39608
1.40878
1.39307
0.941993
0.953028
0.964721
0.975359
0.987492
1.0006
1.01594
1.03177
1.0495
1.06798
1.0863
1.10568
1.12282
1.14131
1.15638
1.17289
1.18538
1.19918
1.20839
1.22013
1.22613
1.23672
1.2405
1.25026
1.25638
1.26591
1.27442
1.28737
1.30013
1.31584
1.33083
1.34929
1.36551
1.38468
1.40118
1.41981
1.43577
1.45235
1.46583
1.47934
0.940983
0.955826
0.969566
0.98897
1.00841
1.03081
1.0512
1.07322
1.09245
1.11419
1.13146
1.15241
1.16736
1.18624
1.19899
1.21415
1.22457
1.23528
1.24228
1.24967
1.25363
1.25857
1.26209
1.26617
1.26983
1.27608
1.2814
1.29016
1.29902
1.31275
1.32564
1.34618
1.36262
1.38645
1.40212
1.42529
1.4357
1.45862
1.46025
1.48728
0.945032
0.966659
0.986155
1.00514
1.02435
1.04532
1.06721
1.09155
1.11445
1.13941
1.16074
1.1832
1.20209
1.22014
1.23612
1.24865
1.26073
1.26777
1.27493
1.27727
1.27968
1.27804
1.27761
1.27455
1.2735
1.27238
1.27283
1.27369
1.27776
1.28456
1.29541
1.29913
1.30602
1.30749
1.30321
1.2912
1.27153
1.24303
1.17647
1.17045
0.975343
1.01156
1.05022
1.08704
1.12182
1.15611
1.18617
1.21791
1.24421
1.2713
1.29317
1.31351
1.32993
1.34299
1.35328
1.35839
1.36115
1.35741
1.35138
1.33991
1.32756
1.30859
1.28978
1.26668
1.24474
1.22248
1.20167
1.1839
1.16437
1.13945
1.10857
1.06395
0.993173
0.884616
0.765343
0.632362
0.525375
0.412826
0.338551
0.276325
1.12596
1.15927
1.19197
1.22533
1.25792
1.2878
1.31391
1.33531
1.35107
1.36363
1.37161
1.37838
1.38201
1.38385
1.37876
1.37046
1.35305
1.33293
1.30307
1.27185
1.23076
1.18809
1.13618
1.08073
1.01948
0.954033
0.889932
0.822275
0.763342
0.692649
0.628271
0.432534
0.0747062
0.0866265
0.191878
0.296038
0.341847
0.369242
0.388613
0.387883
0.998587
0.998209
0.997052
0.995154
0.993852
0.993532
0.991562
0.986846
0.984013
0.983568
0.984539
0.986337
0.988914
0.992075
0.994875
0.997212
0.999116
1.00075
1.00262
1.00413
1.00525
1.00584
1.00622
1.00624
1.00617
1.00624
1.0065
1.00673
1.00684
1.00677
1.00668
1.00648
1.0063
1.00615
1.00591
1.00572
1.0053
1.00524
1.00487
1.00867
0.998891
0.998686
0.997196
0.995191
0.993518
0.992705
0.990193
0.985458
0.982628
0.982362
0.983458
0.985423
0.988253
0.991636
0.994659
0.997216
0.99941
1.00122
1.00305
1.00443
1.00544
1.00587
1.00626
1.00643
1.00646
1.0066
1.00699
1.00716
1.00708
1.00694
1.00691
1.00675
1.00659
1.00649
1.00622
1.00605
1.0057
1.00532
1.00428
1.00345
1.00168
0.999554
0.997809
0.995093
0.99248
0.992143
0.989494
0.984688
0.981453
0.981087
0.982311
0.984454
0.987564
0.991269
0.99449
0.997149
0.999546
1.00151
1.00333
1.0048
1.00591
1.00618
1.00644
1.00658
1.00672
1.00684
1.00716
1.00741
1.00735
1.00725
1.00724
1.00706
1.00693
1.00683
1.00654
1.00643
1.00612
1.00599
1.00604
1.00824
1.00024
0.999706
0.998145
0.995378
0.99246
0.991173
0.987971
0.983325
0.980018
0.979542
0.980928
0.983261
0.986643
0.990612
0.99402
0.996816
0.999462
1.00159
1.00356
1.00507
1.00595
1.00614
1.00633
1.0066
1.00697
1.00716
1.00748
1.00762
1.00757
1.00759
1.00764
1.00742
1.00726
1.00706
1.00682
1.00665
1.00626
1.00595
1.00516
1.00379
1.00307
1.00057
0.998765
0.995355
0.991462
0.990122
0.98691
0.982283
0.978667
0.977866
0.979427
0.982033
0.985773
0.990127
0.993747
0.996613
0.999535
1.0019
1.00402
1.00527
1.00595
1.0062
1.00647
1.0068
1.0072
1.00748
1.00758
1.00767
1.00774
1.00787
1.00794
1.00773
1.00763
1.00734
1.00711
1.00699
1.00677
1.00665
1.00666
1.00771
1.00184
1.00048
0.999137
0.995932
0.991051
0.988516
0.985078
0.980853
0.976954
0.975801
0.977608
0.980582
0.984651
0.989292
0.993104
0.996058
0.999271
1.00196
1.00428
1.0052
1.00573
1.00598
1.00643
1.00701
1.0076
1.00809
1.00822
1.0081
1.00811
1.00831
1.0082
1.00801
1.0079
1.00757
1.0074
1.00712
1.0069
1.00666
1.00607
1.00486
1.00435
1.00162
0.999659
0.995711
0.989973
0.987049
0.983782
0.979435
0.975047
0.973499
0.975565
0.979108
0.983799
0.988878
0.992924
0.995984
0.999537
1.0024
1.00447
1.00505
1.00558
1.00598
1.00672
1.00747
1.008
1.0084
1.0086
1.00834
1.00843
1.00865
1.00856
1.00838
1.00823
1.0079
1.00775
1.00756
1.00737
1.00728
1.00726
1.00763
1.00335
1.00151
0.999505
0.995943
0.989669
0.985453
0.981808
0.977586
0.972729
0.970863
0.973121
0.977208
0.982556
0.988003
0.992247
0.995389
0.999369
1.00251
1.0043
1.00479
1.00523
1.00576
1.00668
1.00759
1.00823
1.00871
1.00897
1.00884
1.00902
1.00912
1.00898
1.0089
1.00869
1.00827
1.00801
1.00776
1.00751
1.00736
1.00695
1.00608
1.00553
1.00295
0.999606
0.995607
0.989048
0.983852
0.979944
0.9756
0.969975
0.967873
0.970455
0.975342
0.981634
0.987671
0.992138
0.995445
0.999703
1.00258
1.00401
1.00449
1.00517
1.00606
1.00719
1.00808
1.00866
1.00903
1.00907
1.00907
1.00944
1.00942
1.00924
1.00921
1.00899
1.00876
1.00852
1.00826
1.00794
1.00786
1.00783
1.00784
1.00489
1.00273
0.998961
0.995722
0.988983
0.982145
0.977158
0.972791
0.967005
0.964674
0.967362
0.972849
0.980216
0.98686
0.991496
0.995036
0.999733
1.00215
1.00353
1.00413
1.00518
1.00635
1.00752
1.00839
1.00915
1.00964
1.00961
1.00967
1.01004
1.00983
1.0097
1.00966
1.00933
1.00906
1.00874
1.00846
1.00813
1.00799
1.00773
1.00719
1.00682
1.00424
0.999431
0.995536
0.988743
0.980905
0.974541
0.969473
0.963486
0.960872
0.963703
0.970079
0.978958
0.986603
0.991505
0.995266
1.00008
1.00181
1.00305
1.00395
1.00557
1.00706
1.00818
1.00882
1.00955
1.00996
1.00999
1.01021
1.01049
1.01018
1.01001
1.00989
1.00957
1.00941
1.00922
1.00892
1.00861
1.0084
1.00835
1.00823
1.00636
1.00375
0.999137
0.994937
0.988456
0.979833
0.971565
0.96528
0.959424
0.956514
0.959228
0.966332
0.977035
0.986053
0.99121
0.995104
0.999917
1.00129
1.00263
1.00398
1.00601
1.00756
1.00841
1.00909
1.01004
1.01054
1.01069
1.01094
1.01093
1.01058
1.01032
1.01019
1.0099
1.00967
1.00951
1.00929
1.00898
1.00862
1.0084
1.00812
1.00802
1.00548
1.0002
0.994855
0.988168
0.978789
0.968496
0.960616
0.954535
0.951133
0.953636
0.961772
0.974892
0.985954
0.991631
0.995486
1.00016
1.00136
1.00272
1.00447
1.00679
1.00821
1.00882
1.00955
1.01051
1.01076
1.01083
1.01113
1.01121
1.01099
1.01089
1.01079
1.01054
1.01033
1.01009
1.00989
1.00956
1.00925
1.0089
1.00877
1.00784
1.00491
1.00013
0.994268
0.987408
0.97758
0.965656
0.955882
0.949022
0.944684
0.946462
0.955614
0.971743
0.985565
0.991832
0.995509
1.00023
1.0016
1.003
1.00513
1.00727
1.00857
1.00898
1.0099
1.0109
1.01121
1.01149
1.01193
1.01189
1.01174
1.01153
1.0114
1.01114
1.01089
1.01055
1.01034
1.00998
1.00967
1.00923
1.00886
1.0096
1.00691
1.00182
0.994562
0.986975
0.976383
0.963267
0.951415
0.942693
0.936879
0.937371
0.947326
0.967424
0.985525
0.99309
0.996605
1.00116
1.00279
1.0039
1.00623
1.00787
1.00925
1.00947
1.01049
1.01148
1.0118
1.01217
1.01269
1.01255
1.01248
1.01224
1.01203
1.01171
1.01155
1.01111
1.01077
1.0104
1.01004
1.00986
1.00964
1.01034
1.00612
1.00135
0.994056
0.985927
0.974959
0.961287
0.947068
0.935663
0.927829
0.925926
0.936211
0.961331
0.984959
0.994369
0.997926
1.00234
1.0043
1.00479
1.0071
1.00803
1.0097
1.00997
1.01114
1.01207
1.0125
1.01296
1.01334
1.01303
1.01292
1.01274
1.01249
1.01218
1.01211
1.01171
1.01145
1.01101
1.01051
1.01032
1.01009
1.01209
1.00793
1.00307
0.995441
0.986077
0.973703
0.959295
0.943091
0.928652
0.917499
0.911718
0.921476
0.953173
0.984569
0.996501
1.0003
1.00447
1.00652
1.00618
1.00829
1.00855
1.01042
1.01064
1.01171
1.01245
1.01302
1.01359
1.01368
1.0135
1.01343
1.01324
1.01315
1.01288
1.01283
1.01239
1.01203
1.01176
1.01116
1.01103
1.01073
1.01364
1.00841
1.00301
0.995335
0.985519
0.972353
0.957105
0.939168
0.921838
0.906533
0.89468
0.902524
0.942228
0.983832
0.997845
1.00294
1.00651
1.00822
1.00725
1.00929
1.00925
1.01122
1.01137
1.01247
1.01314
1.01375
1.01455
1.01435
1.01424
1.01409
1.01401
1.01389
1.01381
1.01369
1.01332
1.01271
1.01244
1.01176
1.01163
1.01137
1.01561
1.01054
1.00531
0.997028
0.986797
0.971918
0.954791
0.936125
0.916204
0.895416
0.875011
0.878897
0.928111
0.982218
0.999077
1.0055
1.00936
1.01035
1.00894
1.01076
1.01073
1.01237
1.01221
1.01325
1.01391
1.01441
1.01536
1.01514
1.01518
1.01496
1.01488
1.01452
1.01442
1.01408
1.01386
1.0133
1.01295
1.01242
1.01222
1.01203
1.01812
1.01243
1.0064
0.997006
0.986978
0.971345
0.952219
0.933949
0.912147
0.88489
0.853496
0.850291
0.908819
0.97804
0.999468
1.0066
1.01101
1.01226
1.01084
1.0124
1.01223
1.01349
1.01325
1.01414
1.01495
1.01532
1.01637
1.01609
1.01632
1.01577
1.01594
1.01536
1.01539
1.01484
1.01445
1.01403
1.01351
1.01318
1.01278
1.01272
1.0209
1.01505
1.00964
0.999611
0.988994
0.972109
0.95054
0.932656
0.910124
0.876125
0.831889
0.817496
0.883714
0.970603
0.997948
1.00685
1.01163
1.01387
1.01304
1.014
1.01355
1.01485
1.01456
1.01511
1.016
1.01647
1.01732
1.01693
1.01734
1.01661
1.01708
1.01622
1.01651
1.01603
1.01557
1.01509
1.01437
1.01412
1.01353
1.01358
1.02495
1.01894
1.01194
1.00144
0.990496
0.973333
0.950006
0.931879
0.909598
0.869828
0.811387
0.781565
0.850667
0.956842
0.993137
1.00589
1.01177
1.01434
1.01468
1.01528
1.01503
1.0164
1.01611
1.01647
1.01716
1.0177
1.01846
1.01804
1.01869
1.01785
1.01858
1.01782
1.01802
1.01746
1.01695
1.0164
1.01558
1.01522
1.01457
1.0146
1.02924
1.02293
1.016
1.00715
0.995264
0.976858
0.952275
0.933018
0.910654
0.866472
0.794064
0.744204
0.808783
0.935185
0.984618
1.00242
1.01095
1.01423
1.01545
1.0163
1.01693
1.01805
1.01777
1.01823
1.01855
1.01901
1.01952
1.01897
1.01963
1.01878
1.01952
1.01888
1.01919
1.01858
1.01812
1.01752
1.01681
1.01645
1.01573
1.01578
1.03464
1.02929
1.02069
1.01233
0.999703
0.98096
0.956902
0.937172
0.914063
0.864838
0.779828
0.706201
0.756773
0.902722
0.970765
0.995723
1.00777
1.01312
1.01524
1.01713
1.01886
1.01976
1.0198
1.02036
1.0205
1.02095
1.02113
1.0206
1.02088
1.02001
1.02053
1.01963
1.02009
1.01928
1.01927
1.01848
1.01791
1.0176
1.01684
1.01696
1.04166
1.03468
1.02651
1.01996
1.00737
0.987353
0.965255
0.945585
0.920703
0.86434
0.767727
0.668672
0.697107
0.856469
0.949941
0.984301
1.00093
1.01023
1.01393
1.01712
1.01969
1.0209
1.02171
1.02221
1.02258
1.0231
1.02335
1.02311
1.02278
1.02214
1.02229
1.02131
1.02187
1.02068
1.02077
1.01959
1.01906
1.01866
1.01788
1.01813
1.05108
1.04364
1.03779
1.03209
1.01797
0.996791
0.978519
0.95974
0.93064
0.86374
0.754893
0.631308
0.632145
0.794084
0.919691
0.966742
0.989324
1.00418
1.00998
1.01512
1.0191
1.0212
1.02339
1.02436
1.02555
1.02648
1.02653
1.02659
1.02608
1.02564
1.0254
1.02438
1.02441
1.02276
1.02248
1.02105
1.02055
1.01994
1.01919
1.01949
1.06371
1.05458
1.05127
1.04884
1.0336
1.01294
0.998947
0.981261
0.942773
0.861168
0.738265
0.592713
0.560146
0.717533
0.877094
0.942113
0.972695
0.994274
1.00293
1.01106
1.01693
1.01989
1.02393
1.02534
1.02692
1.02858
1.02844
1.02939
1.02892
1.02863
1.02803
1.02693
1.02626
1.02485
1.02434
1.02328
1.02266
1.022
1.02113
1.02137
1.07843
1.06862
1.06907
1.07094
1.05317
1.03638
1.02675
1.00788
0.954969
0.8529
0.713082
0.549199
0.482268
0.625605
0.819419
0.907744
0.949277
0.980178
0.993645
1.00569
1.01374
1.01816
1.02365
1.02563
1.02733
1.02981
1.02941
1.03098
1.03011
1.03036
1.02959
1.02932
1.02852
1.02818
1.02733
1.02677
1.0257
1.025
1.02387
1.02404
1.09749
1.08709
1.0913
1.09366
1.07429
1.06499
1.06013
1.03273
0.961389
0.834242
0.67375
0.49468
0.397573
0.523154
0.744287
0.861808
0.916899
0.960831
0.981729
0.997542
1.00966
1.01596
1.023
1.02672
1.02885
1.03182
1.0314
1.0332
1.03258
1.03407
1.03332
1.03427
1.03277
1.03304
1.03127
1.03104
1.0292
1.02864
1.02712
1.02733
1.12045
1.11077
1.12315
1.12231
1.10813
1.10821
1.0997
1.05117
0.952518
0.798682
0.61447
0.422401
0.302812
0.417413
0.650803
0.802294
0.874359
0.932507
0.963979
0.985378
1.00379
1.01369
1.02259
1.02903
1.03108
1.03495
1.03519
1.03747
1.03735
1.03948
1.03804
1.0393
1.03684
1.03742
1.03485
1.03497
1.0325
1.03227
1.03054
1.03106
1.14823
1.14651
1.16594
1.16097
1.16175
1.17089
1.13729
1.05704
0.92034
0.737073
0.529527
0.326405
0.193617
0.303844
0.552913
0.730018
0.822521
0.894471
0.937977
0.96849
0.992009
1.00812
1.01832
1.02807
1.03105
1.03612
1.03728
1.04032
1.03991
1.04238
1.0407
1.04234
1.03979
1.04081
1.03816
1.03881
1.03638
1.03659
1.03479
1.03508
1.18437
1.19976
1.21589
1.21452
1.23452
1.21696
1.15187
1.03395
0.856288
0.639866
0.412034
0.20163
0.0759597
0.206503
0.453522
0.646017
0.762484
0.849077
0.905076
0.946672
0.975062
0.997969
1.0103
1.02342
1.02932
1.03529
1.03801
1.04185
1.04168
1.04494
1.043
1.04547
1.04291
1.0445
1.04185
1.0431
1.04047
1.04133
1.03903
1.04011
1.24138
1.26454
1.26854
1.28529
1.28607
1.23219
1.13892
0.973701
0.74886
0.497585
0.254179
0.0360575
0.106803
0.160377
0.36528
0.563242
0.69603
0.799318
0.866823
0.920886
0.955739
0.985804
1.00247
1.01876
1.02908
1.036
1.04135
1.04578
1.04631
1.05013
1.04813
1.05122
1.04854
1.0507
1.04773
1.04896
1.04595
1.04658
1.0445
1.04551
1.31264
1.33265
1.33971
1.3547
1.3194
1.23365
1.0855
0.861349
0.583461
0.299473
0.0785385
0.15708
0.250563
0.240978
0.339102
0.491501
0.632704
0.745466
0.824385
0.893216
0.933651
0.972064
0.994429
1.01299
1.03002
1.03687
1.04703
1.05149
1.0542
1.0586
1.05726
1.06156
1.05889
1.06217
1.05884
1.06078
1.05684
1.0581
1.05544
1.05719
1.41832
1.42176
1.43034
1.4032
1.32015
1.17042
0.941225
0.638797
0.318246
0.0631629
0.230915
0.413204
0.468258
0.415574
0.338452
0.437613
0.573138
0.694382
0.775676
0.860969
0.908161
0.953459
0.985739
1.00454
1.03111
1.03703
1.05426
1.05803
1.06419
1.0696
1.06935
1.07469
1.07206
1.07605
1.07276
1.0755
1.07125
1.07242
1.06942
1.06936
1.48818
1.48289
1.45052
1.36636
1.19936
0.956126
0.629795
0.252383
0.126152
0.398541
0.592867
0.674976
0.673095
0.553154
0.437005
0.454012
0.537405
0.647054
0.720765
0.816958
0.879834
0.928266
0.976954
0.992555
1.02891
1.03654
1.05915
1.06389
1.07409
1.08114
1.08269
1.0914
1.08887
1.09534
1.09192
1.09695
1.09328
1.09426
1.08901
1.08846
1.46106
1.38789
1.24013
1.00278
0.74959
0.476276
0.320519
0.393006
0.618647
0.774959
0.846597
0.86179
0.782011
0.636387
0.546674
0.503624
0.484256
0.578935
0.650146
0.748929
0.838093
0.890313
0.952302
0.975871
1.0158
1.02824
1.05243
1.06885
1.07916
1.09302
1.0965
1.10865
1.10954
1.12129
1.12082
1.12756
1.1272
1.12821
1.12794
1.12603
1.00703
0.76568
0.570643
0.496402
0.51048
0.535786
0.618661
0.716895
0.791498
0.854667
0.87294
0.87177
0.795618
0.632892
0.494086
0.427047
0.475555
0.532601
0.534824
0.633611
0.700445
0.782206
0.862527
0.927756
0.980285
1.02099
1.04601
1.07577
1.08657
1.10562
1.11138
1.12387
1.1246
1.13204
1.13068
1.13499
1.13519
1.14055
1.14576
1.15651
0.187833
0.326205
0.442773
0.477098
0.463045
0.487285
0.550292
0.624438
0.682687
0.731528
0.73957
0.74082
0.688359
0.551923
0.405836
0.340207
0.309159
0.214287
0.276781
0.364058
0.457508
0.544346
0.658956
0.765382
0.875525
0.950741
0.975001
1.03376
1.05042
1.09107
1.10469
1.13262
1.14833
1.17428
1.18861
1.20814
1.21921
1.229
1.23601
1.23816
0.398127
0.427818
0.473695
0.517198
0.550764
0.574848
0.581826
0.569008
0.551924
0.52347
0.491721
0.459766
0.428436
0.383644
0.33285
0.304158
0.306127
0.305565
0.292743
0.282077
0.265866
0.242577
0.236458
0.239031
0.256301
0.166593
0.524642
0.626427
0.639346
0.688434
0.713561
0.766343
0.8052
0.858195
0.898913
0.947008
0.987561
1.03944
1.09366
1.15536
1.01436
1.01417
1.01614
1.01665
1.01761
1.01776
1.0184
1.01849
1.01858
1.01896
1.0186
1.01917
1.01856
1.01908
1.0185
1.01873
1.01822
1.01802
1.01736
1.01665
1.01544
1.01373
1.01119
1.00757
1.00244
0.995398
0.986381
0.976777
0.970475
0.970802
0.978283
0.991224
1.00349
1.00538
1.00421
1.00413
1.00405
1.00397
1.004
1.0041
0.998199
0.998628
0.997343
0.997826
0.997411
0.997646
0.997845
0.997732
0.998283
0.997812
0.99839
0.997917
0.998284
0.998155
0.998219
0.998279
0.998284
0.998431
0.998573
0.998893
0.999437
1.00042
1.00205
1.00461
1.00817
1.01231
1.01655
1.02123
1.02358
1.02424
1.02192
1.01313
1.00689
1.0053
1.00519
1.00517
1.00508
1.00489
1.00457
1.00446
1.01212
1.01283
1.01486
1.01563
1.01705
1.01721
1.01753
1.01818
1.01775
1.01843
1.01781
1.01843
1.01757
1.01815
1.01719
1.01744
1.01648
1.01612
1.01497
1.01387
1.01211
1.00999
1.00721
1.00394
1.00028
0.996482
0.993394
0.993455
0.99682
1.00086
1.00297
1.00399
1.00464
1.00468
1.00457
1.00448
1.00446
1.00485
1.00492
1.00482
1.00065
1.00116
1.00003
1.00022
0.99972
0.99993
1.00001
0.999869
1.00019
1.00007
1.00015
1.00047
1.00017
1.00078
1.00062
1.0012
1.00131
1.00207
1.00266
1.00378
1.00514
1.00701
1.00937
1.01233
1.01551
1.01828
1.02077
1.02234
1.02296
1.02212
1.01879
1.01464
1.01155
1.00942
1.00738
1.00652
1.00607
1.00557
1.00517
1.00508
1.01036
1.01192
1.01342
1.01429
1.0151
1.01588
1.01579
1.01649
1.01619
1.01667
1.01619
1.01665
1.01589
1.01613
1.0154
1.01529
1.01441
1.01371
1.01249
1.01115
1.00939
1.0074
1.00516
1.00297
1.00107
0.99969
0.999519
1.00107
1.00345
1.00495
1.0057
1.00646
1.00661
1.00663
1.0065
1.00608
1.00604
1.00613
1.00582
1.0055
1.00294
1.00299
1.0025
1.0023
1.00238
1.00225
1.00238
1.00242
1.00248
1.00272
1.00261
1.00305
1.003
1.00356
1.00352
1.00422
1.00455
1.0055
1.00635
1.00763
1.00893
1.01044
1.01204
1.01376
1.01529
1.01622
1.0172
1.01826
1.01839
1.01737
1.01477
1.01314
1.01219
1.01078
1.00883
1.00754
1.00697
1.00639
1.00608
1.00594
1.00919
1.01093
1.01198
1.01311
1.01341
1.0143
1.0143
1.01479
1.01468
1.01501
1.01473
1.0149
1.01444
1.01451
1.01391
1.0137
1.01282
1.0121
1.01089
1.00975
1.00827
1.00679
1.0053
1.00409
1.00307
1.00239
1.00252
1.00386
1.00549
1.00604
1.00658
1.00762
1.00798
1.00813
1.00811
1.00775
1.00736
1.00693
1.00656
1.00638
1.00504
1.00454
1.00459
1.00472
1.00468
1.00487
1.00493
1.00501
1.00516
1.00529
1.0054
1.0057
1.00578
1.00616
1.00642
1.00695
1.00751
1.00831
1.00905
1.01004
1.01095
1.01186
1.01277
1.01374
1.01444
1.01458
1.01475
1.0152
1.01503
1.01381
1.01219
1.01153
1.01122
1.0102
1.0089
1.00815
1.00755
1.00719
1.0069
1.00676
1.00868
1.01028
1.01089
1.0119
1.01213
1.01288
1.01297
1.0134
1.01342
1.01368
1.01353
1.01374
1.01346
1.01343
1.01299
1.01269
1.01198
1.01128
1.01034
1.00943
1.00845
1.0075
1.0066
1.00609
1.00584
1.00567
1.00596
1.00698
1.00777
1.00779
1.00813
1.00884
1.00908
1.00916
1.00906
1.00866
1.00806
1.00757
1.0073
1.00709
1.00672
1.00642
1.00644
1.00669
1.00691
1.00719
1.00738
1.00756
1.00771
1.00779
1.00789
1.00803
1.00823
1.00855
1.00883
1.00926
1.00976
1.01036
1.01084
1.01136
1.0119
1.01248
1.01317
1.01368
1.01378
1.01359
1.01351
1.0135
1.01285
1.0117
1.01101
1.01068
1.0104
1.0097
1.00909
1.00866
1.0083
1.00795
1.00758
1.00738
1.00862
1.00987
1.01035
1.01125
1.01137
1.01198
1.01207
1.01249
1.01262
1.01297
1.01296
1.01317
1.01294