/*--------------------------------*- C++ -*----------------------------------*\
  =========                 |
  \\      /  F ield         | OpenFOAM: The Open Source CFD Toolbox
   \\    /   O peration     | Website:  https://openfoam.org
    \\  /    A nd           | Version:  11
     \\/     M anipulation  |
\*---------------------------------------------------------------------------*/
FoamFile
{
    format      ascii;
    class       surfaceScalarField;
    location    "3";
    object      phi;
}
// * * * * * * * * * * * * * * * * * * * * * * * * * * * * * * * * * * * * * //

dimensions      [0 3 -1 0 0 0 0];

internalField   nonuniform List<scalar> 
18960
(
0.0892719
0.000362578
-0.0896344
0.0888966
0.000375308
0.0885555
0.000341095
0.0882725
0.000282933
0.0880292
0.0002433
0.0877258
0.00030347
0.0867063
0.00101948
0.0844325
0.00227375
0.0819046
0.00252793
0.0807201
0.00118448
0.0810115
-0.000291362
0.082233
-0.00122154
0.084151
-0.00191801
0.0859608
-0.00180978
0.0873925
-0.0014317
0.0884662
-0.00107365
0.0892748
-0.000808599
0.0898926
-0.000617808
0.0903658
-0.000473285
0.0907496
-0.00038379
0.0910022
-0.0002526
0.0911569
-0.000154699
0.0912371
-8.01243e-05
0.0912522
-1.51649e-05
0.0911504
0.000101783
0.0909646
0.000185884
0.0906995
0.000265012
0.0904542
0.000245328
0.0901839
0.000270331
0.089988
0.000195903
0.0898428
0.000145233
0.0897589
8.38151e-05
0.0897774
-1.8486e-05
0.0898616
-8.41373e-05
0.0899261
-6.4511e-05
0.0901422
-0.00021613
0.0903059
-0.000163699
0.0906138
-0.000307901
0.0909308
-0.000317047
-0.000188543
0.0911194
0.0893602
0.000651725
-0.0896493
0.0890967
0.000638788
0.0888267
0.000611046
0.0885207
0.00058897
0.0882025
0.000561508
0.0878316
0.00067438
0.0874935
0.00135751
0.0874332
0.00233406
0.0875842
0.00237694
0.0874857
0.00128296
0.0872798
-8.53838e-05
0.0872114
-0.00115317
0.0872329
-0.00193954
0.0873639
-0.00194076
0.0875726
-0.00164043
0.0879091
-0.00141007
0.0883968
-0.00129638
0.0889916
-0.00121255
0.0895669
-0.00104859
0.0900903
-0.000907159
0.0905415
-0.000703887
0.0908909
-0.000504076
0.0911142
-0.000303436
0.0912762
-0.000177164
0.0912636
0.000114428
0.0912496
0.000199899
0.0910769
0.000437707
0.090892
0.000430216
0.090579
0.000583335
0.0902541
0.000520787
0.0898523
0.000547072
0.0895147
0.000421375
0.0890637
0.000432515
0.0887634
0.000216144
0.0884814
0.000217486
0.0881537
0.000111618
0.0880776
-8.76362e-05
0.0878329
-6.31394e-05
0.0878951
-0.00037931
-0.000681599
0.0883882
0.0894021
0.000948354
-0.0896988
0.0891073
0.000933615
0.0888106
0.000907772
0.0885519
0.000847612
0.0883228
0.000790621
0.0880316
0.000965613
0.0875031
0.00188599
0.0869547
0.00288244
0.0863952
0.00293653
0.085706
0.00197208
0.0855611
5.95586e-05
0.0859399
-0.00153201
0.0866912
-0.00269086
0.0876758
-0.00292534
0.0885995
-0.00256413
0.0893829
-0.00219343
0.0900284
-0.00194187
0.0905226
-0.00170684
0.0909086
-0.00143454
0.0912406
-0.00123915
0.0914701
-0.000933412
0.0916261
-0.000660036
0.0917413
-0.000418688
0.0917917
-0.000227523
0.0917397
0.000166449
0.0916535
0.000286082
0.0915036
0.000587598
0.0913691
0.00056469
0.0911753
0.000777153
0.0910562
0.000639883
0.0909475
0.000655771
0.0909007
0.00046822
0.0909391
0.000394074
0.09098
0.000175245
0.0911839
1.35345e-05
0.0913568
-6.11989e-05
0.0915502
-0.00028105
0.0918481
-0.000361063
0.0919291
-0.00046026
-0.000547424
0.0917949
0.0894189
0.00126992
-0.0897405
0.0891307
0.00122183
0.0888493
0.00118913
0.0886152
0.00108176
0.0883661
0.00103968
0.0880578
0.00127394
0.0877584
0.00218536
0.087659
0.00298184
0.0878876
0.00270796
0.088524
0.00133565
0.0892474
-0.000663859
0.0897784
-0.00206292
0.08984
-0.00275251
0.0896611
-0.00274642
0.0894997
-0.00240276
0.0894385
-0.00213224
0.0894892
-0.00199252
0.0896738
-0.00189147
0.0899923
-0.00175297
0.0903762
-0.00162307
0.0907563
-0.00131354
0.0910748
-0.000978535
0.0913179
-0.000661742
0.091506
-0.000415672
0.0915485
0.000123981
0.0915422
0.000292395
0.0914416
0.000688213
0.0912941
0.000712134
0.091073
0.000998303
0.0908262
0.000886617
0.0904274
0.00105462
0.0900872
0.000808364
0.0896644
0.000816866
0.0892641
0.000575623
0.0889074
0.000370158
0.088669
0.000177207
0.0884248
-3.67892e-05
0.0883305
-0.000266804
0.088439
-0.000568742
-0.000992385
0.0888839
0.0894589
0.00157013
-0.0897592
0.0891747
0.00150608
0.0889156
0.00144826
0.0886587
0.00133868
0.0883796
0.00131869
0.0880904
0.00156321
0.0879757
0.00229999
0.0882025
0.00275506
0.0885006
0.00240983
0.0886166
0.00121967
0.0884001
-0.000447377
0.0880267
-0.00168947
0.0878894
-0.00261526
0.0881735
-0.00303043
0.0887517
-0.00298097
0.0893768
-0.0027574
0.0899568
-0.00257253
0.090465
-0.00239969
0.0908289
-0.00211686
0.0911348
-0.00192894
0.0913405
-0.00151925
0.091529
-0.00116703
0.091606
-0.00073879
0.0916914
-0.000501004
0.0917545
6.08367e-05
0.0917445
0.000302411
0.0916646
0.000768132
0.0915652
0.000811551
0.0914699
0.00109356
0.0913662
0.000990312
0.0913487
0.00107213
0.0913287
0.000828409
0.0914062
0.000739317
0.0914989
0.000482962
0.0916755
0.000193488
0.0918003
5.24759e-05
0.0919813
-0.000217772
0.0922035
-0.000489074
0.0922247
-0.00058989
-0.00082185
0.0920541
0.0894937
0.00186898
-0.0897925
0.0892147
0.00178499
0.088952
0.00171101
0.0886968
0.00159385
0.088488
0.00152752
0.0883342
0.00171703
0.0882833
0.00235084
0.0883909
0.00264745
0.0887421
0.00205863
0.0893763
0.000585541
0.0899738
-0.00104489
0.0904979
-0.00221357
0.090793
-0.00291038
0.0908046
-0.00304205
0.0906707
-0.00284706
0.0905396
-0.00262625
0.0904996
-0.00253255
0.0905437
-0.00244381
0.0906665
-0.00223968
0.0908601
-0.00212253
0.0911239
-0.00178299
0.0913977
-0.00144091
0.091612
-0.000953077
0.0917698
-0.000658739
0.0918271
3.48656e-06
0.0918654
0.000264141
0.0918382
0.000795347
0.0917265
0.000923176
0.091578
0.00124212
0.0913783
0.00118997
0.0910644
0.00138603
0.0907306
0.00116222
0.0903095
0.00116042
0.0898926
0.000899864
0.0894904
0.000595662
0.0892561
0.000286792
0.0890069
3.14777e-05
0.0889087
-0.000390935
0.0890109
-0.000692064
-0.00122448
0.0894135
0.0895342
0.00215827
-0.0898235
0.0892804
0.00203877
0.0890413
0.00195017
0.088819
0.00181616
0.0886241
0.00172242
0.0885029
0.00183817
0.0885113
0.00234251
0.0886879
0.00247082
0.0891432
0.00160331
0.0896769
5.18857e-05
0.089848
-0.00121602
0.0896534
-0.00201894
0.0892716
-0.00252862
0.0890584
-0.0028288
0.0891733
-0.00296199
0.0895333
-0.00298631
0.0899686
-0.0029678
0.090427
-0.00290225
0.0908044
-0.002617
0.0911045
-0.00242268
0.0913163
-0.00199481
0.0915151
-0.0016397
0.0916083
-0.00104629
0.091681
-0.000731435
0.091815
-0.000130473
0.0918827
0.000196466
0.0918824
0.000795594
0.0918407
0.000964905
0.0917742
0.00130858
0.0917286
0.00123554
0.0917224
0.00139225
0.0917514
0.0011332
0.0918638
0.00104804
0.0920166
0.000747066
0.0921626
0.000449697
0.0923111
0.000138323
0.0924249
-8.24e-05
0.0925479
-0.000513938
0.0925581
-0.000702217
-0.00101626
0.0923499
0.0895981
0.00242582
-0.0898656
0.0893419
0.00229491
0.0891142
0.00217791
0.0889208
0.00200957
0.0887996
0.00184353
0.0886851
0.00195272
0.0886853
0.0023423
0.0889846
0.00217155
0.0894904
0.00109748
0.089896
-0.000353665
0.0902476
-0.00156765
0.0906224
-0.00239377
0.0909856
-0.00289177
0.091209
-0.00305222
0.0912741
-0.00302708
0.0912476
-0.00295987
0.0911979
-0.00291802
0.091222
-0.00292643
0.0913083
-0.00270323
0.0914051
-0.00251953
0.0915596
-0.00214929
0.0917927
-0.00187278
0.0919932
-0.00124676
0.0921569
-0.000895142
0.0921676
-0.000141222
0.0921959
0.000168168
0.0922318
0.000759677
0.0921854
0.00101129
0.0921074
0.00138657
0.091947
0.00139596
0.0917394
0.00159986
0.0914322
0.00144047
0.0910441
0.00143605
0.0906584
0.00113278
0.0902474
0.000860719
0.0899474
0.00043837
0.0897665
9.84559e-05
0.0896624
-0.000409878
0.0896652
-0.00070499
-0.00140128
0.0900502
0.0896829
0.00268604
-0.0899432
0.0894353
0.00254254
0.0892375
0.00237567
0.0891026
0.00214453
0.0890102
0.00193593
0.0888868
0.00207616
0.0889884
0.00224068
0.0893552
0.00180473
0.0898352
0.000617456
0.0902627
-0.000781127
0.0905226
-0.00182759
0.0905733
-0.00244446
0.0904646
-0.00278304
0.0902858
-0.00287341
0.0901232
-0.00286451
0.0901284
-0.00296507
0.0903125
-0.00310216
0.0905435
-0.00315742
0.0908598
-0.00301955
0.0911736
-0.00283329
0.0913778
-0.00235353
0.0915547
-0.00204968
0.0917141
-0.0014061
0.0917904
-0.000971459
0.0919641
-0.000314939
0.0921026
2.97036e-05
0.0921483
0.000713945
0.0921701
0.000989526
0.0921558
0.00140086
0.0921267
0.00142505
0.092126
0.00160053
0.0922072
0.00135926
0.0923342
0.00130913
0.092488
0.000978928
0.0926777
0.00067107
0.0928053
0.000310753
0.0928616
4.2145e-05
0.0929262
-0.00047448
0.0929364
-0.000715157
-0.00114316
0.0926783
0.0897171
0.00294029
-0.0899713
0.0894883
0.00277135
0.0892985
0.00256548
0.0891797
0.00226334
0.0891106
0.00200497
0.089063
0.00212374
0.0891966
0.00210712
0.0895817
0.00141961
0.0900192
0.000179939
0.0903476
-0.00110952
0.0905788
-0.00205876
0.0907816
-0.00264728
0.0910119
-0.00301328
0.0912643
-0.00312583
0.0914675
-0.00306771
0.0915913
-0.00308886
0.0916335
-0.00314438
0.0916855
-0.00320946
0.0917836
-0.00311764
0.0919098
-0.00295946
0.0920408
-0.00248456
0.0922027
-0.00221155
0.0923966
-0.00159999
0.0926049
-0.00117973
0.0926676
-0.000377706
0.0926208
7.65677e-05
0.0926664
0.000668303
0.0926605
0.000995396
0.0926424
0.00141895
0.0925624
0.00150509
0.092397
0.00176596
0.0921577
0.00159859
0.0918485
0.00161832
0.0915102
0.00131715
0.0910872
0.00109409
0.0907894
0.000608554
0.0906337
0.000197843
0.0904836
-0.000324393
0.0904251
-0.000656599
-0.0014903
0.0907722
0.0898139
0.00319169
-0.0900653
0.0896041
0.00298116
0.0894797
0.00268983
0.0894085
0.00233457
0.0893079
0.00210553
0.0893241
0.00210756
0.0895762
0.00185506
0.0899419
0.0010539
0.0902978
-0.000175944
0.090551
-0.00136279
0.0907667
-0.00227444
0.0909353
-0.00281581
0.0910118
-0.00308983
0.0910216
-0.00313562
0.0909527
-0.00299885
0.0908853
-0.00302146
0.0908844
-0.00314345
0.0909851
-0.00331012
0.0911454
-0.00327794
0.0913669
-0.00318104
0.0915686
-0.00268625
0.091748
-0.00239095
0.0919069
-0.00175889
0.0919941
-0.00126687
0.0921788
-0.000562409
0.0923867
-0.000131357
0.0925002
0.000554801
0.0925974
0.000898239
0.0926352
0.0013811
0.0926155
0.00152476
0.0926385
0.00174302
0.0926813
0.00155581
0.0928253
0.00147432
0.093001
0.00114138
0.0931886
0.000906525
0.0933248
0.000472355
0.0933606
0.000162064
0.0934005
-0.000364294
0.0933675
-0.000623602
-0.00118599
0.0930632
0.0898924
0.0034447
-0.0901454
0.0897118
0.00316177
0.0895731
0.00282855
0.0894897
0.00241801
0.089494
0.0021012
0.0896202
0.00198133
0.0898702
0.00160507
0.0901913
0.000732794
0.0904493
-0.000433976
0.0906223
-0.00153571
0.0907452
-0.00239739
0.0909083
-0.00297886
0.0910932
-0.00327478
0.0913077
-0.00335012
0.0915377
-0.00322881
0.0917745
-0.0032583
0.0919323
-0.00330127
0.0920518
-0.00342959
0.0921501
-0.00337626
0.0922845
-0.00331544
0.092451
-0.00285277
0.0925963
-0.00253623
0.0928046
-0.0019672
0.0930511
-0.00151339
0.0931891
-0.000700326
0.093158
-0.000100331
0.0931896
0.000523205
0.0932002
0.000887648
0.0932217
0.00135966
0.0932058
0.00154058
0.0931339
0.00181492
0.0929577
0.00173207
0.0926985
0.00173344
0.0923966
0.0014433
0.0920318
0.00127138
0.0917305
0.0007736
0.0915055
0.000387115
0.091379
-0.000237802
0.0913364
-0.000581004
-0.00148054
0.0916309
0.0900288
0.00365608
-0.0902402
0.0898708
0.00331979
0.089828
0.00287134
0.089817
0.00242901
0.0898232
0.00209504
0.089882
0.00192251
0.0900939
0.00139317
0.0903781
0.000448622
0.090572
-0.000627882
0.0906851
-0.00164879
0.0907883
-0.0025006
0.0909467
-0.00313723
0.0911541
-0.00348218
0.0913502
-0.00354623
0.0914976
-0.00337622
0.091578
-0.00333873
0.0916197
-0.00334296
0.0916509
-0.00346081
0.0916893
-0.00341464
0.0918063
-0.00343242
0.0919523
-0.00299882
0.0921311
-0.00271503
0.0922653
-0.00210134
0.0923574
-0.00160548
0.09252
-0.000862959
0.0927795
-0.000359866
0.0929622
0.000340554
0.0931032
0.000746665
0.0931951
0.00126769
0.0932599
0.00147581
0.0932485
0.00182634
0.0933034
0.00167719
0.0934193
0.00161751
0.0935569
0.00130576
0.0937626
0.0010656
0.0938949
0.000641341
0.0939565
0.000325489
0.0939351
-0.000216338
0.0938635
-0.00050947
-0.0011653
0.0935483
0.0901639
0.00383068
-0.0903385
0.0900574
0.00342625
0.0900318
0.002897
0.0899934
0.0024674
0.0899933
0.00209515
0.0900971
0.0018187
0.0903151
0.00117515
0.0905252
0.000238524
0.0906581
-0.000760833
0.0907155
-0.00170614
0.0908067
-0.00259179
0.0909526
-0.00328316
0.0911466
-0.00367616
0.0913858
-0.00378545
0.091661
-0.00365141
0.0919369
-0.00361461
0.0921799
-0.00358602
0.0923771
-0.00365801
0.0925277
-0.00356526
0.0926614
-0.00356606
0.0928571
-0.00319458
0.09303
-0.00288784
0.0932382
-0.00230955
0.0934844
-0.00185172
0.0937156
-0.00109414
0.0937787
-0.000422936
0.0938094
0.000309805
0.0938418
0.000714269
0.0938824
0.00122712
0.0938932
0.00146493
0.0939264
0.00179319
0.0938253
0.00177827
0.0936086
0.00183421
0.0933464
0.00156792
0.0930358
0.00137627
0.0927535
0.000923648
0.0925185
0.000560468
0.0923989
-9.67584e-05
0.0923692
-0.00047971
-0.00135763
0.0925615
0.0904052
0.00397858
-0.0905531
0.0903271
0.00350434
0.0902997
0.00292441
0.0902769
0.00249021
0.0902602
0.00211185
0.090363
0.00171593
0.0904967
0.00104146
0.0906497
8.55052e-05
0.0907733
-0.000884451
0.0908413
-0.00177413
0.0908752
-0.00262567
0.0909515
-0.00335949
0.0911471
-0.00387169
0.0914374
-0.00407579
0.0917659
-0.00397993
0.0920588
-0.00390754
0.0922434
-0.00377061
0.092371
-0.00378564
0.0924213
-0.00361555
0.0924947
-0.00363942
0.0925677
-0.00326762
0.0926973
-0.00301739
0.0928081
-0.00242037
0.0928971
-0.00194071
0.0930108
-0.00120782
0.0932671
-0.000679255
0.0935419
3.50133e-05
0.0937246
0.000531583
0.0938567
0.00109503
0.093983
0.0013386
0.0940264
0.00174983
0.0940758
0.00172883
0.0941469
0.00176315
0.0942989
0.00141591
0.0944261
0.001249
0.0945969
0.000752872
0.0946517
0.000505715
0.0946125
-5.76141e-05
0.0945152
-0.000382338
-0.0011144
0.0942719
0.0905759
0.00404761
-0.090645
0.0905318
0.0035485
0.0904928
0.00296341
0.0904334
0.00254962
0.0904374
0.0021078
0.090538
0.00161537
0.0906698
0.0009097
0.090819
-6.37475e-05
0.0909199
-0.000985363
0.0909634
-0.00181761
0.090965
-0.00262725
0.0910485
-0.00344297
0.0912067
-0.0040299
0.0914821
-0.00435125
0.0918288
-0.00432663
0.0921939
-0.00427267
0.0925113
-0.00408796
0.0927926
-0.00406695
0.0930069
-0.00382985
0.093155
-0.00378756
0.0933321
-0.00344471
0.0935155
-0.0032008
0.0937072
-0.00261201
0.0939601
-0.00219366
0.0942286
-0.00147631
0.0944306
-0.000881207
0.0944865
-2.08739e-05
0.0945767
0.000441306
0.0946266
0.00104518
0.0946891
0.00127606
0.0947453
0.00169362
0.0947825
0.00169162
0.0946607
0.00188496
0.0944487
0.0016279
0.094171
0.00152673
0.0939163
0.00100756
0.0936808
0.000741258
0.0936116
1.15617e-05
0.0935432
-0.000313978
-0.00119461
0.0936235
0.0909337
0.00412295
-0.091009
0.0908587
0.00362353
0.090741
0.00308107
0.0906643
0.00262631
0.0906798
0.00209227
0.090786
0.00150926
0.0909159
0.000779716
0.0910269
-0.000174698
0.0911175
-0.00107599
0.0911458
-0.00184586
0.0911706
-0.00265212
0.0912045
-0.00347684
0.0912958
-0.00412119
0.0915256
-0.00458107
0.0918816
-0.0046826
0.092294
-0.0046851
0.0926754
-0.00446931
0.0929642
-0.00435576
0.0931382
-0.00400385
0.093255
-0.00390441
0.0933199
-0.00350957
0.0934199
-0.00330081
0.0935443
-0.00273639
0.0936381
-0.00228751
0.0937413
-0.00157942
0.0939307
-0.00107063
0.0942434
-0.000333597
0.0945151
0.000169608
0.0946863
0.000873953
0.0948392
0.00112319
0.0949596
0.00157317
0.0950562
0.00159505
0.0951258
0.00181542
0.0952359
0.00151772
0.0953303
0.00143234
0.0954419
0.000896028
0.0955104
0.000672673
0.0954494
7.25789e-05
0.0953787
-0.000243276
-0.00101528
0.0951994
0.0910334
0.00418832
-0.0910988
0.0909459
0.00371103
0.0908562
0.00317079
0.0908283
0.00265424
0.0908653
0.00205528
0.0909878
0.00138672
0.0910974
0.000670142
0.0911691
-0.000246407
0.0912436
-0.00115049
0.0913427
-0.00194494
0.091376
-0.00268543
0.0913852
-0.003486
0.0914253
-0.00416131
0.0915965
-0.00475231
0.0918993
-0.00498533
0.0923023
-0.00508816
0.0926993
-0.0048663
0.0931046
-0.0047611
0.0934399
-0.00433908
0.0936757
-0.00414027
0.0938706
-0.00370447
0.0940689
-0.00349902
0.0942627
-0.00293027
0.0945145
-0.00253924
0.094795
-0.00185998
0.0950682
-0.00134377
0.0952453
-0.000510734
0.0953947
2.01924e-05
0.095535
0.000733637
0.0956406
0.00101763
0.0956973
0.00151651
0.0957997
0.00149266
0.0958144
0.00180063
0.0957406
0.00159158
0.0955215
0.00165145
0.0953145
0.00110297
0.0950477
0.00093953
0.0949795
0.000140741
0.0948693
-0.000133098
-0.00104683
0.0949009
0.0913581
0.00428576
-0.0914556
0.0912819
0.00378726
0.0911838
0.00326887
0.0911322
0.00270585
0.0911394
0.00204804
0.0912487
0.00127744
0.0913613
0.000557577
0.091407
-0.000292152
0.091482
-0.00122547
0.0915847
-0.0020476
0.0916323
-0.00273305
0.0916453
-0.00349901
0.0916664
-0.00418247
0.0917481
-0.00483393
0.0919375
-0.00517482
0.0923025
-0.00545316
0.0927399
-0.00530365
0.0931881
-0.00520927
0.0935744
-0.0047254
0.0939144
-0.00448029
0.0941379
-0.00392801
0.0943005
-0.00366156
0.0944539
-0.0030837
0.0945874
-0.00267274
0.0946968
-0.00196935
0.0948437
-0.00149074
0.095084
-0.000751026
0.0954002
-0.000296001
0.0956694
0.000464436
0.0959124
0.000774704
0.0960613
0.00136755
0.0961837
0.0013703
0.0962597
0.0017246
0.0964073
0.001444
0.0965034
0.00155528
0.0966136
0.000992812
0.0966665
0.000886643
0.096602
0.000205211
0.0964526
1.63449e-05
-0.000912964
0.0963187
0.09137
0.00440511
-0.0914894
0.0913121
0.00384522
0.0912397
0.00334122
0.0912339
0.00271167
0.0913089
0.00197303
0.091423
0.00116338
0.091558
0.000422566
0.0916245
-0.000358684
0.0916696
-0.00127059
0.0917489
-0.00212685
0.091848
-0.00283218
0.0919051
-0.00355609
0.0919271
-0.0042045
0.0919926
-0.00489938
0.0921139
-0.00529612
0.0923805
-0.00571982
0.0927674
-0.00569052
0.0932076
-0.0056495
0.0936839
-0.00520166
0.0941107
-0.0049071
0.094486
-0.00430337
0.0947781
-0.00395362
0.0950491
-0.00335471
0.0953077
-0.00293129
0.0955826
-0.00224428
0.0958914
-0.00179952
0.0961354
-0.00099504
0.0963632
-0.000523823
0.096559
0.00026869
0.0967564
0.000577277
0.0969034
0.0012205
0.0970093
0.0012645
0.0970973
0.00163658
0.0971424
0.00139883
0.0970767
0.001621
0.0969714
0.00109815
0.0967358
0.00112219
0.0966774
0.000263626
0.0965363
0.000157491
-0.00089265
0.096516
0.0917377
0.0045199
-0.0918525
0.0916689
0.00391402
0.0916639
0.00334623
0.0916877
0.00268785
0.0917237
0.00193703
0.091777
0.00111012
0.0918469
0.00035265
0.091898
-0.000409808
0.0919176
-0.00129023
0.0920181
-0.00222732
0.0921168
-0.00293086
0.0922331
-0.00367242
0.0922787
-0.00425006
0.0923499
-0.0049706
0.0924181
-0.00536435
0.0925705
-0.00587217
0.0928427
-0.00596269
0.0932771
-0.00608394
0.0937578
-0.00568237
0.0942854
-0.00543465
0.0947586
-0.00477661
0.0951677
-0.00436272
0.0954689
-0.00365591
0.0957441
-0.00320646
0.0959386
-0.00243884
0.0961385
-0.00199943
0.0963385
-0.00119497
0.0966289
-0.000814252
0.0969098
-1.22185e-05
0.0971989
0.00028819
0.0974309
0.000988473
0.097639
0.0010564
0.0977432
0.00153239
0.097863
0.001279
0.0979619
0.00152216
0.0980816
0.000978394
0.0981636
0.00104027
0.0981336
0.000293613
0.0980284
0.000262683
-0.000717119
0.0978529
0.0917866
0.00462364
-0.0918904
0.0917332
0.00396742
0.0917584
0.00332112
0.0918005
0.00264575
0.0918213
0.00191623
0.0918583
0.00107309
0.0919473
0.000263659
0.0920808
-0.000543278
0.092163
-0.00137251
0.0922679
-0.00233224
0.0923804
-0.0030433
0.092499
-0.00379107
0.0926067
-0.00435769
0.0926979
-0.00506183
0.0927797
-0.00544612
0.0928829
-0.00597544
0.0930533
-0.00613307
0.0933712
-0.00640186
0.0938273
-0.00613849
0.0943481
-0.0059554
0.0949132
-0.00534166
0.0954471
-0.00489662
0.0959021
-0.00411095
0.0963143
-0.00361862
0.0966476
-0.00277218
0.0970071
-0.00235895
0.0973379
-0.00152577
0.0976386
-0.00111498
0.0978845
-0.000258071
0.0981314
4.12591e-05
0.0983563
0.000763616
0.0985852
0.000827515
0.0987311
0.00138646
0.098841
0.0011691
0.0988671
0.00149605
0.0988548
0.000990671
0.0987662
0.0011289
0.0987149
0.000344888
0.0986401
0.000337509
-0.000615227
0.0985382
0.0922814
0.00472005
-0.0923778
0.0922485
0.00400032
0.0922676
0.00330197
0.0923184
0.00259503
0.0923408
0.00189374
0.0923805
0.00103345
0.0924475
0.000196609
0.0925512
-0.000646925
0.0926126
-0.0014339
0.0926581
-0.0023778
0.0927336
-0.00311873
0.0928426
-0.00390007
0.0929503
-0.00446541
0.0930894
-0.00520091
0.0932131
-0.00556986
0.093341
-0.00610329
0.0934516
-0.00624372
0.0936578
-0.00660805
0.0939719
-0.00645254
0.0944488
-0.00643235
0.0949942
-0.00588709
0.0956231
-0.00552546
0.0962016
-0.00468944
0.096785
-0.00420201
0.0972524
-0.00323968
0.0976368
-0.00274328
0.0979382
-0.00182717
0.0982541
-0.00143092
0.0985681
-0.000572024
0.098882
-0.000272699
0.0991602
0.000485444
0.0994399
0.000547791
0.099668
0.00115834
0.0998553
0.000981891
0.0999584
0.00139291
0.100055
0.000894155
0.100116
0.00106749
0.100121
0.000340136
0.100083
0.000375954
-0.000506946
0.0999744
0.0923512
0.00474918
-0.0923803
0.0923445
0.00400705
0.0923516
0.00329487
0.0923949
0.0025517
0.0924661
0.00182255
0.0925264
0.000973128
0.092595
0.000128056
0.0926819
-0.000733904
0.0927583
-0.00151023
0.092862
-0.00248149
0.092978
-0.00323473
0.0931343
-0.00405644
0.0932736
-0.00460471
0.0934508
-0.00537807
0.0936393
-0.00575835
0.0938061
-0.00627015
0.0939507
-0.0063883
0.0941013
-0.00675859
0.0943321
-0.0066834
0.094662
-0.0067622
0.0951216
-0.00634674
0.0957025
-0.00610629
0.0963355
-0.00532249
0.0970212
-0.00488767
0.0976684
-0.00388686
0.0982728
-0.00334771
0.0987925
-0.00234692
0.0992645
-0.00190287
0.0996524
-0.000959894
0.100015
-0.000635782
0.1003
0.000200782
0.100564
0.000284001
0.100816
0.000906708
0.101036
0.000761597
0.101214
0.00121439
0.101304
0.000804056
0.101307
0.00106491
0.101267
0.000380239
0.101195
0.00044752
-0.000385639
0.101074
0.0929899
0.00479423
-0.0930349
0.0930003
0.00399667
0.0930069
0.00328827
0.0930264
0.00253219
0.0930973
0.00175161
0.0931683
0.000902136
0.0932002
9.61623e-05
0.093306
-0.000839706
0.0933634
-0.00156763
0.0934388
-0.00255685
0.0935417
-0.00333768
0.0936817
-0.00419641
0.0937908
-0.00471383
0.0939186
-0.00550591
0.0940807
-0.00592038
0.0942964
-0.00648583
0.0945011
-0.00659301
0.0946859
-0.0069434
0.0948858
-0.00688334
0.0951453
-0.00702165
0.0954348
-0.00663629
0.0958908
-0.00656231
0.0964609
-0.00589261
0.0971469
-0.00557365
0.0979054
-0.00464532
0.0987183
-0.00416068
0.0994388
-0.00306738
0.100082
-0.00254577
0.100619
-0.00149742
0.101103
-0.00111927
0.101504
-0.000200305
0.101848
-6.05707e-05
0.102106
0.000648996
0.102384
0.000483602
0.102596
0.00100207
0.102779
0.000621958
0.10289
0.000953566
0.102918
0.000352258
0.102846
0.000519599
-0.000297764
0.102758
0.093017
0.00479695
-0.0930197
0.09305
0.00396366
0.093089
0.00324928
0.0931387
0.00248252
0.0931907
0.00169957
0.0932974
0.000795514
0.0933514
4.21334e-05
0.0934718
-0.000960095
0.0935687
-0.00166453
0.0936721
-0.00266028
0.0937679
-0.00343349
0.0939618
-0.00439028
0.0941215
-0.00487354
0.0942567
-0.00564109
0.094436
-0.00609973
0.0946833
-0.00673311
0.0949534
-0.00686313
0.0952456
-0.00723564
0.0954901
-0.0071278
0.0957882
-0.00731974
0.0960639
-0.00691203
0.0964047
-0.0069031
0.0968146
-0.00630246
0.0973879
-0.00614693
0.0980945
-0.00535197
0.0989294
-0.0049955
0.0998239
-0.00396191
0.100731
-0.00345322
0.101544
-0.00231001
0.102281
-0.00185664
0.102887
-0.000806143
0.103404
-0.000577584
0.103796
0.000256673
0.104103
0.000177051
0.104339
0.00076653
0.104498
0.000462462
0.104626
0.000825938
0.104676
0.000301895
0.104683
0.000512749
-0.000154431
0.10454
0.0938458
0.00481386
-0.0938627
0.0938574
0.00395202
0.0938814
0.00322527
0.0939619
0.00240202
0.0939765
0.00168494
0.094047
0.000725075
0.0940988
-9.6779e-06
0.094218
-0.00107934
0.0943455
-0.00179198
0.0944877
-0.00280256
0.0945703
-0.00351605
0.094708
-0.00452798
0.0948668
-0.00503231
0.0950353
-0.00580964
0.0951546
-0.006219
0.0953447
-0.00692324
0.0955649
-0.00708334
0.095853
-0.00752365
0.0961163
-0.00739115
0.0964482
-0.00765159
0.0967769
-0.00724078
0.0971707
-0.00729691
0.097576
-0.00670771
0.0980432
-0.00661415
0.0985845
-0.00589332
0.0993036
-0.00571463
0.100151
-0.00480934
0.101176
-0.00447861
0.102215
-0.00334901
0.10326
-0.00290079
0.104164
-0.00171073
0.104964
-0.00137717
0.105561
-0.000340584
0.106013
-0.000274456
0.106362
0.000417331
0.106595
0.000228919
0.106749
0.000672373
0.106821
0.000229561
0.106877
0.000456606
-6.0372e-05
0.106783
0.0937872
0.00481775
-0.093791
0.093859
0.00388022
0.0938821
0.00320212
0.0939951
0.00228902
0.0940658
0.00161421
0.0941816
0.000609362
0.0942788
-0.000106904
0.0943921
-0.00119268
0.0945588
-0.00195871
0.0947268
-0.00297053
0.0948561
-0.00364537
0.0950057
-0.00467752
0.0951736
-0.00520023
0.0953898
-0.00602584
0.0955578
-0.00638701
0.0957864
-0.00715184
0.0959994
-0.00729636
0.0962841
-0.00780832
0.0965814
-0.00768846
0.0969508
-0.008021
0.0973589
-0.00764889
0.0978337
-0.00777168
0.0983522
-0.00722617
0.0989291
-0.00719107
0.0995471
-0.00651135
0.100204
-0.00637195
0.100926
-0.00553069
0.101755
-0.00530748
0.102747
-0.00434172
0.103826
-0.00397988
0.105005
-0.00288929
0.106063
-0.00243497
0.107084
-0.00136186
0.107858
-0.00104824
0.108484
-0.000208511
0.108858
-0.00014515
0.109163
0.000366679
0.109277
0.000115653
0.109345
0.000389318
-3.84327e-05
0.109323
0.0948661
0.00483324
-0.0948816
0.0949088
0.00383755
0.0949409
0.00316996
0.0950025
0.00222748
0.0950788
0.00153786
0.0951789
0.000509262
0.0953066
-0.000234619
0.0954375
-0.00132351
0.0955538
-0.00207504
0.0957174
-0.00313409
0.0958583
-0.00378636
0.0959908
-0.00480997
0.096125
-0.0053344
0.0963642
-0.00626506
0.0965341
-0.00655694
0.0967197
-0.00733745
0.0969306
-0.0075072
0.0971787
-0.00805644
0.0974044
-0.00791414
0.0976737
-0.00829033
0.0980467
-0.00802185
0.0985432
-0.00826823
0.099087
-0.00777001
0.09974
-0.00784402
0.100476
-0.00724748
0.101265
-0.00716078
0.102087
-0.0063526
0.10292
-0.00614067
0.103814
-0.00523606
0.104753
-0.00491813
0.105838
-0.00397422
0.106958
-0.00355512
0.108195
-0.00259886
0.109321
-0.00217471
0.110424
-0.00131138
0.111269
-0.000989846
0.111988
-0.00035305
0.112398
-0.000294017
0.112709
7.88801e-05
1.94874e-07
0.11267
0.0947966
0.00480379
-0.0947671
0.0948695
0.00376461
0.0949689
0.00307059
0.0950684
0.00212791
0.0952132
0.00139312
0.0953485
0.000373977
0.0954899
-0.000376076
0.0956664
-0.00150001
0.0958168
-0.0022254
0.0960431
-0.00336041
0.096197
-0.00394031
0.0963878
-0.00500068
0.0965497
-0.00549637
0.0967177
-0.00643308
0.0969291
-0.00676828
0.0970656
-0.00747393
0.0973111
-0.00775277
0.0974963
-0.00824163
0.0978391
-0.00825695
0.0981326
-0.00858376
0.0985546
-0.00844386
0.0989558
-0.00866942
0.0995956
-0.00840983
0.100182
-0.00843092
0.101011
-0.00807573
0.101828
-0.00797771
0.102903
-0.00742791
0.103928
-0.00716531
0.105101
-0.0064093
0.106139
-0.00595666
0.107288
-0.00512263
0.108319
-0.00458661
0.10951
-0.00378981
0.110639
-0.00330329
0.111877
-0.00254933
0.113018
-0.00213072
0.114182
-0.0015173
0.11504
-0.00115177
0.115938
-0.000819788
-0.000311512
0.11625
0.0962959
0.00474027
-0.0962323
0.0963648
0.00369563
0.0964461
0.00298928
0.0965368
0.00203722
0.0966309
0.00129908
0.0967925
0.000212398
0.0969295
-0.00051307
0.0971104
-0.00168094
0.0972364
-0.00235138
0.097398
-0.00352203
0.0975346
-0.00407694
0.0977184
-0.00518444
0.0978546
-0.00563258
0.0980036
-0.00658211
0.0981594
-0.00692406
0.098311
-0.00762545
0.0984269
-0.00786871
0.0985842
-0.00839892
0.0988126
-0.00848538
0.0990788
-0.00884991
0.0994601
-0.00882515
0.0998808
-0.00909013
0.100443
-0.00897209
0.101093
-0.0090811
0.10187
-0.00885204
0.102692
-0.00880047
0.103697
-0.00843237
0.104758
-0.00822696
0.106101
-0.00775186
0.107417
-0.00727226
0.109005
-0.00671129
0.11037
-0.00595159
0.11194
-0.00536004
0.11316
-0.00452266
0.114654
-0.00404365
0.115768
-0.00324467
0.117124
-0.0028735
0.118126
-0.00215387
0.119305
-0.00199835
-0.00114995
0.120143
0.0962144
0.00456325
-0.0960374
0.0964138
0.00349622
0.0966208
0.00278223
0.0968709
0.00178715
0.0970556
0.00111434
0.0972105
5.75806e-05
0.0973908
-0.000693414
0.0975711
-0.00186119
0.0977932
-0.00257356
0.0979383
-0.00366707
0.0981748
-0.00431348
0.0982662
-0.00527586
0.0984626
-0.00582893
0.0985136
-0.00663312
0.0986805
-0.007091
0.0987554
-0.00770037
0.0989187
-0.00803196
0.0989935
-0.00847377
0.0992569
-0.00874869
0.0994357
-0.00902875
0.0998235
-0.00921299
0.100069
-0.00933548
0.100626
-0.0095295
0.10111
-0.00956462
0.101951
-0.00969325
0.102759
-0.00960862
0.103937
-0.0096104
0.105043
-0.00933262
0.106537
-0.00924564
0.107934
-0.00866992
0.109704
-0.00848144
0.111402
-0.00764867
0.113378
-0.00733681
0.11518
-0.00632395
0.117095
-0.00595913
0.118742
-0.00489208
0.120439
-0.00456965
0.121846
-0.00356137
0.123179
-0.00333111
-0.00223154
0.12426
0.0983602
0.00459498
-0.098392
0.0984245
0.00343193
0.0984642
0.00274255
0.0986059
0.00164545
0.0987767
0.000943506
0.0990704
-0.000236113
0.0993108
-0.000933799
0.0994708
-0.00202122
0.099659
-0.00276174
0.0998172
-0.0038252
0.100005
-0.00450178
0.100125
-0.00539582
0.100268
-0.00597121
0.100311
-0.00667692
0.100408
-0.00718765
0.100408
-0.00770041
0.100507
-0.0081306
0.100489
-0.00845566
0.10065
-0.00891045
0.100685
-0.00906293
0.101068
-0.0095966
0.101253
-0.00952052
0.101837
-0.0101132
0.102268
-0.00999553
0.103112
-0.0105373
0.103851
-0.0103474
0.105029
-0.0107888
0.106155
-0.0104585
0.107683
-0.0107742
0.109315
-0.0103013
0.111227
-0.0103936
0.113295
-0.0097167
0.115505
-0.00954695
0.117804
-0.00862295
0.120132
-0.00828721
0.122475
-0.00723444
0.124755
-0.00685042
0.126927
-0.0057332
0.128936
-0.00533997
-0.00377444
0.130479
0.0989535
0.00415056
-0.0985091
0.0993108
0.00307465
0.0997363
0.00231705
0.0999898
0.00139188
0.100305
0.000628428
0.10037
-0.000301587
0.100669
-0.00123211
0.100793
-0.00214517
0.101058
-0.00302677
0.101085
-0.00385203
0.101235
-0.00465274
0.101182
-0.00534224
0.101271
-0.0060604
0.101195
-0.00660088
0.101242
-0.00723425
0.101163
-0.00762145
0.101207
-0.00817488
0.101154
-0.00840274
0.101178
-0.00893461
0.101184
-0.00906902
0.101267
-0.00967902
0.101496
-0.00974939
0.101784
-0.010402
0.10227
-0.0104816
0.10286
-0.0111273
0.103692