/*--------------------------------*- C++ -*----------------------------------*\
  =========                 |
  \\      /  F ield         | OpenFOAM: The Open Source CFD Toolbox
   \\    /   O peration     | Website:  https://openfoam.org
    \\  /    A nd           | Version:  10
     \\/     M anipulation  |
\*---------------------------------------------------------------------------*/
FoamFile
{
    format      ascii;
    class       volScalarField;
    location    "0.850796";
    object      rho;
}
// * * * * * * * * * * * * * * * * * * * * * * * * * * * * * * * * * * * * * //

dimensions      [1 -3 0 0 0 0 0];

internalField   nonuniform List<scalar> 
15708
(
0.972337
0.973667
0.97537
0.976657
0.977853
0.978943
0.979921
0.980793
0.981554
0.982245
0.982854
0.983455
0.984041
0.984637
0.985247
0.985872
0.986525
0.987207
0.987914
0.988677
0.989477
0.990331
0.991249
0.9922
0.993223
0.994311
0.995438
0.996639
0.997886
0.999189
1.00055
1.00194
1.00338
1.00486
1.00637
1.00791
1.00947
1.01105
1.01262
1.01422
1.01577
1.01735
1.01887
1.02041
1.0219
1.0234
1.02484
1.02626
1.02771
1.02904
1.03049
0.972507
0.973572
0.975231
0.976506
0.977694
0.978807
0.979795
0.980676
0.981444
0.982147
0.982788
0.983406
0.984007
0.984624
0.98524
0.985868
0.986529
0.987216
0.987926
0.988683
0.989476
0.990329
0.991241
0.992207
0.993225
0.994315
0.995435
0.996647
0.997889
0.999199
1.00056
1.00198
1.00342
1.00492
1.00646
1.00802
1.00961
1.01121
1.01282
1.01447
1.01606
1.0177
1.01927
1.02087
1.02243
1.02396
1.02548
1.02696
1.02844
1.02988
1.0313
0.972465
0.973181
0.975173
0.976056
0.97752
0.978578
0.979601
0.980482
0.981273
0.982
0.982686
0.983332
0.98396
0.984599
0.985244
0.985896
0.98657
0.987281
0.988009
0.988759
0.989577
0.990413
0.991332
0.992286
0.993306
0.994386
0.995523
0.996712
0.997975
0.999274
1.00064
1.00206
1.00351
1.00504
1.00659
1.00819
1.00979
1.01144
1.01307
1.01474
1.01639
1.01807
1.0197
1.02134
1.02295
1.02455
1.02611
1.02764
1.02916
1.03066
1.0321
0.971151
0.973551
0.974394
0.976157
0.977199
0.978284
0.979295
0.980225
0.981076
0.981842
0.982556
0.983206
0.98386
0.984513
0.985187
0.985875
0.986581
0.987315
0.988054
0.988852
0.989653
0.990523
0.99144
0.992403
0.99343
0.994505
0.995653
0.996841
0.998107
0.999413
1.00078
1.0022
1.00368
1.00519
1.00677
1.00837
1.01
1.01168
1.01334
1.01506
1.01675
1.01847
1.02014
1.02183
1.02348
1.02514
1.02675
1.02832
1.0299
1.0314
1.03295
0.971597
0.972672
0.974129
0.975447
0.976706
0.977861
0.978918
0.979877
0.98076
0.981582
0.982345
0.983067
0.983774
0.984477
0.98519
0.985915
0.986648
0.987389
0.988157
0.988944
0.989775
0.990653
0.991573
0.992556
0.993575
0.994667
0.995802
0.997008
0.998262
0.999589
1.00095
1.00239
1.00387
1.00541
1.00699
1.00861
1.01027
1.01195
1.01365
1.01539
1.01711
1.01887
1.02059
1.02233
1.02401
1.02572
1.02737
1.02899
1.03062
1.03216
1.03373
0.970454
0.971975
0.973441
0.974781
0.976069
0.977258
0.978381
0.979427
0.980396
0.981298
0.982137
0.982926
0.983695
0.98446
0.985237
0.986012
0.986783
0.987552
0.988322
0.989124
0.989953
0.99083
0.991762
0.992747
0.993773
0.994862
0.996
0.99719
0.998442
0.99976
1.00114
1.00258
1.00408
1.00563
1.00724
1.00888
1.01055
1.01226
1.01399
1.01576
1.01751
1.0193
1.02106
1.02282
1.02456
1.02628
1.028
1.02966
1.03129
1.03291
1.03448
0.969328
0.971765
0.972462
0.974262
0.975463
0.976719
0.977906
0.979036
0.980113
0.981111
0.982021
0.982851
0.983643
0.984424
0.985209
0.986018
0.986833
0.987627
0.988438
0.989251
0.990123
0.991015
0.991947
0.992904
0.993947
0.995022
0.996194
0.997425
0.998727
1.00008
1.00148
1.00291
1.00439
1.00593
1.00752
1.00917
1.01085
1.01258
1.01433
1.01612
1.01791
1.01973
1.02153
1.02332
1.02511
1.02686
1.02862
1.03032
1.03199
1.03364
1.03522
0.969121
0.970146
0.971666
0.973101
0.974601
0.976031
0.977362
0.978603
0.979727
0.98076
0.981726
0.982629
0.983497
0.984336
0.98517
0.986009
0.98687
0.98772
0.988571
0.989422
0.990301
0.9912
0.992113
0.993089
0.994116
0.995252
0.996454
0.997717
0.999025
1.00038
1.00179
1.00324
1.00474
1.00628
1.00787
1.0095
1.01119
1.01292
1.01469
1.0165
1.01834
1.02017
1.02201
1.02385
1.02565
1.02747
1.02923
1.03098
1.03268
1.03434
1.03598
0.967156
0.969449
0.970564
0.972674
0.973838
0.975392
0.976692
0.97799
0.979178
0.980276
0.981298
0.982294
0.983282
0.984269
0.985206
0.986076
0.986924
0.987755
0.98861
0.989495
0.990422
0.991395
0.992401
0.993435
0.994507
0.995634
0.996811
0.998047
0.999335
1.00068
1.00207
1.00354
1.00504
1.0066
1.00822
1.00987
1.01158
1.01333
1.01512
1.01695
1.0188
1.02066
1.02252
1.02438
1.02621
1.02806
1.02985
1.03163
1.03335
1.03505
1.03669
0.966365
0.967385
0.9698
0.971004
0.973182
0.974216
0.976214
0.977311
0.978567
0.979756
0.980883
0.981977
0.983061
0.984087
0.985055
0.985978
0.986876
0.98778
0.988737
0.989724
0.990722
0.991713
0.992721
0.993766
0.994846
0.995976
0.997137
0.998351
0.999621
1.00095
1.00235
1.0038
1.00533
1.00689
1.00853
1.01021
1.01196
1.01373
1.01556
1.01741
1.01928
1.02116
1.02305
1.02493
1.02679
1.02866
1.03048
1.03228
1.03403
1.03575
1.0374
0.963908
0.966827
0.967634
0.970134
0.971517
0.973127
0.974911
0.976473
0.977922
0.979252
0.980484
0.981619
0.98272
0.983793
0.984838
0.985849
0.986861
0.987865
0.988873
0.989882
0.990909
0.991944
0.992985
0.994047
0.99513
0.996252
0.997437
0.998671
0.99998
1.00134
1.00276
1.00423
1.00576
1.00734
1.00898
1.01066
1.01241
1.0142
1.01602
1.01787
1.01976
1.02166
1.02358
1.02548
1.02738
1.02927
1.03111
1.03293
1.03471
1.03643
1.03811
0.962792
0.965842
0.96616
0.969099
0.969705
0.972576
0.973386
0.975479
0.976925
0.978541
0.979983
0.981296
0.982472
0.983575
0.98466
0.985724
0.986787
0.987851
0.988908
0.989947
0.990995
0.992075
0.993181
0.994303
0.995439
0.996602
0.997807
0.999057
1.00037
1.00173
1.00315
1.00463
1.00617
1.00776
1.00941
1.0111
1.01286
1.01465
1.01651
1.01839
1.02029
1.02221
1.02413
1.02604
1.02796
1.02987
1.03175
1.03359
1.03539
1.03713
1.03883
0.966021
0.963867
0.966515
0.966356
0.969422
0.969977
0.972935
0.973913
0.976117
0.977568
0.979188
0.980657
0.982003
0.983237
0.984418
0.985565
0.986693
0.987816
0.988942
0.990067
0.991191
0.992316
0.993457
0.994593
0.995757
0.996943
0.99817
0.999442
1.00076
1.00213
1.00356
1.00504
1.00657
1.00817
1.00984
1.01156
1.01332
1.01514
1.017
1.01891
1.02082
1.02276
1.02471
1.02665
1.0286
1.03052
1.0324
1.03425
1.03605
1.03782
1.03949
0.972869
0.967247
0.970915
0.966373
0.970247
0.969558
0.972256
0.973585
0.975326
0.977037
0.9786
0.980067
0.9815
0.982871
0.984195
0.98544
0.98665
0.987862
0.989081
0.990272
0.991434
0.992588
0.993739
0.994914
0.996095
0.99731
0.998541
0.99981
1.00113
1.00252
1.00396
1.00546
1.00701
1.00863
1.0103
1.01204
1.01383
1.01568
1.01754
1.01945
1.02139
1.02336
1.02532
1.02729
1.02924
1.03116
1.03305
1.03491
1.03673
1.03849
1.04021
0.987518
0.989763
0.971396
0.973469
0.968043
0.970375
0.97002
0.972429
0.97395
0.975811
0.977651
0.979349
0.980942
0.982446
0.983901
0.985309
0.986657
0.987934
0.989159
0.990374
0.991571
0.992759
0.993929
0.995119
0.996332
0.997591
0.998875
1.00021
1.00156
1.00298
1.00441
1.00592
1.00748
1.00909
1.01078
1.01252
1.01433
1.01619
1.01809
1.02002
1.02197
1.02395
1.02593
1.02794
1.0299
1.03184
1.03373
1.03559
1.0374
1.03918
1.04086
1.04913
1.01178
0.996555
0.980985
0.977102
0.972433
0.971862
0.97166
0.973003
0.974704
0.976562
0.978392
0.98014
0.981797
0.983386
0.984914
0.98637
0.987769
0.989104
0.990397
0.991653
0.992888
0.994129
0.995341
0.99663
0.997861
0.999226
1.00051
1.00195
1.00333
1.00484
1.00633
1.00794
1.00958
1.01128
1.01305
1.01489
1.01675
1.01867
1.02062
1.0226
1.02458
1.02658
1.02858
1.03057
1.03251
1.03443
1.03629
1.03812
1.0399
1.04157
1.17499
1.09903
1.04276
1.00855
0.988002
0.978423
0.973919
0.972553
0.972615
0.973848
0.975602
0.977507
0.979376
0.981176
0.982877
0.984491
0.98602
0.987499
0.988926
0.990314
0.991648
0.992993
0.994301
0.995641
0.996895
0.998283
0.999495
1.00098
1.0022
1.00383
1.0051
1.00685
1.00829
1.01009
1.01176
1.01355
1.01542
1.01733
1.01925
1.02122
1.02321
1.02523
1.02723
1.02925
1.03124
1.0332
1.03512
1.037
1.03883
1.0406
1.04228
1.32219
1.21897
1.12817
1.06126
1.01863
0.994846
0.981809
0.976018
0.973957
0.974056
0.975228
0.97692
0.978781
0.98065
0.982442
0.984142
0.98576
0.987316
0.988814
0.990283
0.991695
0.993074
0.99444
0.995799
0.997191
0.998475
0.999974
1.00114
1.00282
1.0039
1.00584
1.00686
1.00908
1.01014
1.0126
1.01401
1.01596
1.01784
1.01984
1.02185
1.02387
1.02588
1.02791
1.02997
1.03197
1.03395
1.03589
1.03776
1.0396
1.04135
1.04301
1.48588
1.3455
1.24094
1.13587
1.06856
1.01709
0.995554
0.982318
0.976705
0.974629
0.974871
0.976236
0.97802
0.979922
0.981798
0.983623
0.985371
0.987037
0.988629
0.990165
0.99167
0.993123
0.994543
0.995944
0.997308
0.998775
1.00008
1.0017
1.00285
1.00467
1.00574
1.0078
1.00887
1.0112
1.01234
1.0149
1.01609
1.01877
1.02033
1.02241
1.02454
1.02656
1.02863
1.0306
1.03267
1.03459
1.03658
1.03844
1.04029
1.04205
1.04376
1.49532
1.48358
1.33644
1.23911
1.12585
1.07633
1.00969
0.996245
0.982569
0.978115
0.976805
0.976906
0.977902
0.979391
0.981198
0.98305
0.984886
0.98668
0.988407
0.990058
0.991612
0.993165
0.994534
0.996093
0.997333
0.998924
1.00015
1.00188
1.00321
1.00484
1.00645
1.0079
1.00984
1.01119
1.01345
1.01478
1.01729
1.01867
1.02138
1.02307
1.02516
1.02721
1.02938
1.03138
1.03342
1.03536
1.03732
1.03918
1.04101
1.04278
1.04447
1.51702
1.51174
1.43343
1.29571
1.20563
1.08584
1.07951
0.994822
0.991505
0.980311
0.976471
0.976318
0.977435
0.97901
0.980757
0.982612
0.984495
0.986371
0.98816
0.989919
0.99153
0.993123
0.994596
0.996028
0.997569
0.998841
1.00049
1.00169
1.00357
1.00472
1.00683
1.008
1.01031
1.01171
1.01364
1.01587
1.01748
1.01984
1.02136
1.02397
1.02575
1.02797
1.03019
1.03226
1.03429
1.0363
1.03818
1.04005
1.04183
1.04357
1.04523
1.52297
1.52443
1.48233
1.38037
1.25023
1.15102
1.06214
1.05531
0.996497
0.983648
0.979049
0.976942
0.977122
0.978473
0.980232
0.982126
0.984079
0.986004
0.987896
0.989693
0.991437
0.992991
0.994634
0.995967
0.997595
0.998906
1.00059
1.00197
1.00355
1.00531
1.00663
1.00867
1.01003
1.01238
1.0138
1.01631
1.01781
1.02047
1.02234
1.02437
1.02654
1.02864
1.03078
1.03283
1.03489
1.0369
1.03896
1.04083
1.04269
1.04441
1.04603
1.52869
1.52533
1.50035
1.39867
1.2811
1.18279
1.10083
1.04451
1.02134
0.995274
0.982271
0.978262
0.977627
0.978273
0.979826
0.981694
0.983681
0.985628
0.987579
0.989388
0.991224
0.992819
0.994501
0.995912
0.997501
0.999004
1.00052
1.00223
1.00356
1.00542
1.00685
1.00888
1.01043
1.0126
1.01427
1.01668
1.01862
1.02059
1.02305
1.02524
1.02733
1.02949
1.03161
1.0337
1.03573
1.03772
1.03967
1.04155
1.04333
1.04498
1.04659
1.5253
1.53236
1.47543
1.38608
1.27297
1.17898
1.10491
1.05429
1.02336
1.00395
0.989192
0.980697
0.978171
0.978578
0.979886
0.981573
0.983449
0.985354
0.987267
0.989113
0.990871
0.992611
0.994162
0.995839
0.997216
0.998953
1.00026
1.0022
1.0035
1.00561
1.00694
1.00911
1.01118
1.0126
1.0149
1.01651
1.01915
1.02126
1.02319
1.02568
1.02802
1.03014
1.03231
1.03446
1.03661
1.03862
1.04053
1.04232
1.04409
1.04576
1.04731
1.52189
1.48765
1.45091
1.34363
1.24774
1.16503
1.09874
1.04942
1.01975
1.00236
0.991231
0.984153
0.980219
0.979295
0.980053
0.981545
0.983298
0.985142
0.986989
0.988852
0.990461
0.992257
0.993746
0.995459
0.99686
0.998604
1.00002
1.00187
1.00338
1.00538
1.00699
1.00916
1.01103
1.01331
1.01488
1.01738
1.01905
1.02184
1.02411
1.02605
1.02853
1.03086
1.03305
1.03518
1.03734
1.03947
1.04153
1.04344
1.0453
1.04711
1.0487
1.40558
1.39473
1.32651
1.26303
1.19295
1.13188
1.07837
1.04209
1.01498
0.998423
0.989697
0.983783
0.980382
0.979324
0.979999
0.981477
0.983213
0.985054
0.986805
0.988629
0.990177
0.99194
0.993385
0.995063
0.996455
0.998161
0.99949
1.00132
1.00272
1.00488
1.00646
1.00888
1.01063
1.01328
1.01532
1.01767
1.01966
1.02228
1.02434
1.02695
1.02909
1.0317
1.03404
1.03622
1.03857
1.04099
1.0434
1.04566
1.04793
1.04999
1.05161
1.14863
1.14119
1.13192
1.11149
1.0855
1.06132
1.03648
1.01535
1.00079
0.990346
0.985618
0.9828
0.980553
0.979893
0.980544
0.98201
0.983744
0.985598
0.987277
0.989007
0.990397
0.992039
0.993288
0.994903
0.99615
0.997838
0.999112
1.00093
1.00223
1.00428
1.00582
1.00817
1.01
1.01265
1.01497
1.01744
1.0198
1.02241
1.02481
1.02729
1.03011
1.03255
1.03523
1.03809
1.04133
1.04474
1.04863
1.0528
1.05598
1.05816
1.05925
1.11115
1.09778
1.08151
1.06613
1.04843
1.03283
1.01856
1.00543
0.996757
0.989277
0.985838
0.983849
0.982848
0.983036
0.984045
0.985871
0.987936
0.990026
0.99161
0.993084
0.993972
0.99487
0.995331
0.996225
0.996821
0.998102
0.999016
1.00064
1.00186
1.00383
1.00538
1.00779
1.00962
1.01212
1.01467
1.01717
1.01996
1.02284
1.02549
1.02822
1.03133
1.0349
1.03928
1.04563
1.0535
1.06232
1.07122
1.08066
1.08348
1.08372
1.0776
1.25994
1.21436
1.16514
1.1211
1.08652
1.06125
1.04232
1.02563
1.0166
1.00842
1.00578
1.00472
1.00572
1.00779
1.01057
1.01382
1.01718
1.02033
1.02185
1.01908
1.01446
1.01035
1.00648
1.00366
1.00153
1.00075
1.0004
1.00108
1.00187
1.00349
1.00505
1.00742
1.00937
1.01205
1.01475
1.01747
1.02041
1.02359
1.02712
1.03144
1.03811
1.05003
1.06912
1.09075
1.11307
1.13591
1.15226
1.17766
1.16385
1.123
1.09036
1.29487
1.30088
1.29857
1.28655
1.26218
1.23224
1.20851
1.1804
1.16681
1.15125
1.14832
1.14449
1.14938
1.15893
1.1703
1.17806
1.18427
1.18777
1.18471
1.16673
1.13912
1.10958
1.07835
1.05124
1.03134
1.01807
1.01022
1.00606
1.00433
1.00419
1.00512
1.00708
1.00918
1.01202
1.01506
1.01865
1.02311
1.03048
1.04451
1.06754
1.10562
1.1626
1.22489
1.2802
1.32096
1.35715
1.37191
1.31303
1.21225
1.12697
1.08773
1.18448
1.24286
1.28439
1.30566
1.32402
1.33912
1.35498
1.36184
1.37543
1.38559
1.40511
1.41408
1.43073
1.43667
1.4459
1.45602
1.46577
1.47601
1.47937
1.45757
1.37006
1.25147
1.159
1.09434
1.05313
1.02849
1.01479
1.00781
1.00445
1.00392
1.00508
1.00724
1.01046
1.01531
1.02389
1.03913
1.06537
1.11282
1.19437
1.29045
1.38523
1.46221
1.51394
1.54202
1.5614
1.55827
1.49117
1.29194
1.1408
1.09965
1.11288
1.14229
1.16184
1.20199
1.25562
1.29882
1.3329
1.36468
1.39029
1.42326
1.45251
1.48702
1.52298
1.55026
1.58781
1.62272
1.64326
1.65466
1.65253
1.61919
1.5272
1.37987
1.24784
1.15075
1.08541
1.04368
1.02016
1.0098
1.0057
1.0048
1.00725
1.01409
1.02604
1.04556
1.07978
1.13986
1.23177
1.33284
1.43432
1.51328
1.57092
1.63266
1.66118
1.67602
1.70336
1.70726
1.60762
1.35364
1.15144
1.11085
1.22533
1.46332
1.12524
1.10917
1.11488
1.13911
1.18286
1.23252
1.28145
1.32779
1.38371
1.44409
1.50978
1.56939
1.64828
1.68858
1.70849
1.70913
1.69437
1.65682
1.58192
1.44421
1.27795
1.14503
1.0731
1.03835
1.02394
1.02017
1.02294
1.03469
1.05661
1.09832
1.17229
1.2537
1.33686
1.41925
1.48856
1.53704
1.57994
1.61697
1.65196
1.67872
1.69487
1.75024
1.79725
1.76183
1.64287
1.35547
1.16226
1.1827
1.40044
1.64375
1.68634
1.11295
1.10353
1.10797
1.12164
1.15263
1.20001
1.25942
1.3258
1.40029
1.49618
1.5922
1.64934
1.68157
1.696
1.69173
1.65708
1.58124
1.43696
1.27318
1.15789
1.09678
1.08037
1.07937
1.09504
1.13867
1.22206
1.30764
1.38181
1.44641
1.49958
1.51991
1.53135
1.54623
1.56126
1.57682
1.59431
1.61715
1.64004
1.66337
1.72086
1.794
1.81436
1.76934
1.60819
1.30386
1.23375
1.31856
1.58811
1.67137
1.63152
1.39938
1.2552
1.24319
1.2398
1.24604
1.27462
1.32595
1.37636
1.43036
1.49507
1.55215
1.58434
1.60033
1.57205
1.49688
1.40454
1.31653
1.24284
1.19922
1.1895
1.20252
1.25822
1.36119
1.44906
1.51119
1.52674
1.50897
1.50088
1.49627
1.49527
1.49151
1.48698
1.4914
1.5021
1.51573
1.52519
1.52914
1.57085
1.63891
1.72234
1.78682
1.79766
1.73395
1.49478
1.35782
1.35412
1.52206
1.63384
1.62707
1.49393
1.23322
1.12515
1.29063
1.29118
1.29596
1.30245
1.31651
1.33782
1.35423
1.36508
1.37557
1.37501
1.35204
1.32724
1.30513
1.29671
1.29825
1.31282
1.35066
1.42208
1.47827
1.52911
1.51418
1.47317
1.45398
1.41115
1.35049
1.30531
1.27775
1.27008
1.28228
1.28621
1.29048
1.30469
1.32675
1.36032
1.41665
1.50272
1.59956
1.7051
1.74447
1.74808
1.63096
1.46069
1.43038
1.46523
1.58831
1.61073
1.53817
1.33292
1.18836
1.15813
1.15811
1.17506
1.20217
1.21773
1.23825
1.25667
1.27507
1.29049
1.31064
1.33288
1.35059
1.36524
1.39718
1.44124
1.47681
1.49942
1.51058
1.49416
1.43814
1.40619
1.30785
1.23546
1.18098
1.15764
1.14485
1.17403
1.18222
1.18256
1.18565
1.19402
1.1988
1.21083
1.24135
1.29078
1.35769
1.4578
1.59569
1.66696
1.68841
1.66691
1.53426
1.49503
1.49287
1.56071
1.60352
1.58362
1.45387
1.28633
1.2353
1.22882
1.24801
1.35811
1.44845
1.43904
1.44144
1.46012
1.47322
1.49738
1.51636
1.53582
1.54817
1.55055
1.55078
1.52208
1.48636
1.45009
1.3925
1.29716
1.19794
1.14326
1.10827
1.09542
1.11883
1.16339
1.19375
1.22608
1.2383
1.23963
1.22194
1.19552
1.19325
1.19864
1.21787
1.26632
1.35575
1.49635
1.56911
1.61269
1.62194
1.56468
1.53555
1.53514
1.57021
1.62604
1.63595
1.58508
1.45991
1.37465
1.35033
1.36113
1.46272
1.6387
1.78385
1.75569
1.73694
1.71289
1.68759
1.65991
1.62683
1.58968
1.55063
1.50863
1.45488
1.37933
1.28399
1.19594
1.11947
1.07912
1.0673
1.06532
1.0808
1.11847
1.167
1.25431
1.30627
1.33337
1.33608
1.33253
1.30893
1.2738
1.25201
1.24913
1.26662
1.32998
1.43146
1.49971
1.54305
1.55543
1.56067
1.55315
1.55464
1.57502
1.66106
1.68181
1.69063
1.64362
1.56931
1.53542
1.54291
1.62302
1.73947
1.81834
1.91414
1.99635
1.70861
1.66755
1.62079
1.56794
1.50888
1.44296
1.37029
1.29246
1.21041
1.13462
1.07133
1.0527
1.04141
1.04245
1.0478
1.06785
1.10132
1.15478
1.22786
1.30001
1.35083
1.36401
1.37114
1.37162
1.36891
1.35952
1.35583
1.35724
1.37157
1.40631
1.45136
1.49816
1.5135
1.53612
1.54282
1.56439
1.59197
1.67249
1.7318
1.74144
1.75039
1.73105
1.71258
1.71935
1.76957
1.83887
1.88251
1.94635
2.00239
2.03569
2.06471
1.63825
1.574
1.5043
1.42853
1.3511
1.27188
1.19584
1.12694
1.07149
1.04278
1.03476
1.03909
1.0406
1.05557
1.0765
1.11426
1.16352
1.20951
1.26788
1.31084
1.34295
1.37329
1.37299
1.37941
1.38096
1.39006
1.39328
1.40989
1.42586
1.45376
1.47989
1.50828
1.5308
1.55751
1.61166
1.69387
1.76157
1.81993
1.8286
1.84373
1.85232
1.85879
1.87524
1.90575
1.94294
1.9808
2.00655
2.0373
2.05926
2.07447
2.0853
1.6213
1.54654
1.46564
1.37928
1.29418
1.21375
1.14366
1.08878
1.06153
1.05016
1.05406
1.05612
1.07276
1.09408
1.12469
1.16239
1.19993
1.24293
1.27712
1.31193
1.33971
1.35768
1.37308
1.38207
1.39241
1.40135
1.41508
1.43395
1.45593
1.48634
1.51926
1.56413
1.62515
1.72221
1.80096
1.86053
1.86775
1.9032
1.91052
1.93123
1.93946
1.95632
1.97341
1.9961
2.01646
2.03443
2.04875
2.06368
2.07297
2.08159
2.08896
1.66034
1.58855
1.51015
1.42541
1.34106
1.25972
1.18807
1.1441
1.09364
1.10433
1.09571
1.1056
1.1192
1.13789
1.17051
1.19827
1.23619
1.26605
1.29452
1.32306
1.3435
1.36559
1.3812
1.39544
1.41419
1.43129
1.456
1.48747
1.53166
1.59752
1.67626
1.75789
1.82154
1.88444
1.88881
1.92729
1.9337
1.9549
1.96256
1.9785
1.98663
2.00066
2.01311
2.0265
2.03779
2.0491
2.05842
2.06769
2.07575
2.08214
2.08853
1.74058
1.68371
1.61952
1.54944
1.47805
1.40788
1.34385
1.28868
1.25673
1.21864
1.22229
1.21501
1.2218
1.23133
1.24567
1.26918
1.29225
1.31749
1.33778
1.36241
1.38102
1.40922
1.43017
1.45898
1.4964
1.54365
1.60468
1.66396
1.73632
1.79478
1.84583
1.88552
1.92086
1.92522
1.94931
1.95553
1.9694
1.97698
1.98579
1.9951
2.00437
2.0143
2.02361
2.03373
2.04151
2.05208
2.058
2.06826
2.07206
2.0812
2.08492
1.81425
1.77521
1.73118
1.68152
1.62933
1.57712
1.5287
1.48869
1.46355
1.44471
1.44492
1.43792
1.43336
1.43856
1.4467
1.4572
1.47087
1.48329
1.50015
1.52034
1.54719
1.58167
1.61427
1.65795
1.70055
1.74595
1.79026
1.83096
1.87193
1.89873
1.92291
1.93581
1.94945
1.95302
1.96532
1.97068
1.97785
1.98441
1.99187
1.99922
2.00815
2.01439
2.0248
2.03032
2.04145
2.04608
2.05699
2.06058
2.07083
2.07434
2.08288
1.87237
1.8491
1.82124
1.79052
1.75807
1.72568
1.6964
1.67133
1.65292
1.64474
1.63706
1.63844
1.63822
1.64381
1.65277
1.6634
1.67728
1.68892
1.70591
1.72262
1.74631
1.76778
1.79257
1.81775
1.84503
1.87022
1.89304
1.91156
1.92662
1.94524
1.94618
1.95697
1.95988
1.96618
1.97048
1.97511
1.98032
1.98542
1.99175
1.9974
2.00499
2.01119
2.01977
2.02647
2.03544
2.04229
2.05089
2.05722
2.06486
2.07073
2.07467
1.91048
1.89769
1.88284
1.86524
1.84701
1.82813
1.81081
1.79667
1.78889
1.78217
1.78314
1.78194
1.78525
1.79003
1.79787
1.80764
1.81672
1.82764
1.83787
1.85079
1.86333
1.87529
1.88839
1.90111
1.91617
1.92664
1.93712
1.94571
1.95444
1.95589
1.96061
1.96365
1.96585
1.96838
1.97068
1.97393
1.97729
1.98172
1.98629
1.99179
1.99844
2.00453
2.01228
2.01914
2.0276
2.03224
2.04365
2.04634
2.05787
2.05903
2.06687
1.93279
1.92648
1.9189
1.91006
1.90045
1.89088
1.88187
1.87598
1.87043
1.87038
1.86934
1.87082
1.87279
1.87741
1.8822
1.88846
1.89469
1.90056
1.907
1.91315
1.9203
1.92643
1.93355
1.94005
1.9462
1.95111
1.95672
1.95793
1.96201
1.96255
1.96457
1.96548
1.96649
1.96727
1.96861
1.97038
1.97261
1.97591
1.97922
1.98385
1.98935
1.99517
2.00253
2.01012
2.01776
2.02572
2.03312
2.04021
2.04719
2.05244
2.05844
1.94562
1.9423
1.93912
1.93485
1.93056
1.92594
1.92189
1.9189
1.91659
1.91622
1.9159
1.91734
1.91885
1.92167
1.92456
1.92819
1.93167
1.93549
1.9397
1.94256
1.9468
1.95019
1.9535
1.95674
1.95949
1.96205
1.96414
1.96547
1.96639
1.96669
1.96681
1.96653
1.96594
1.96532
1.96516
1.96532
1.96596
1.96764
1.96963
1.97358
1.97834
1.98394
1.99071
1.99756
2.00491
2.01278
2.02059
2.02866
2.03593
2.04215
2.04767
1.95161
1.95026
1.94837
1.94645
1.94417
1.94211
1.94064
1.93925
1.93862
1.93828
1.93861
1.93945
1.94079
1.94258
1.94437
1.94648
1.94874
1.95127
1.95363
1.95621
1.95873
1.96128
1.96344
1.96571
1.96747
1.96907
1.97017
1.97069
1.97051
1.96973
1.9683
1.96655
1.96377
1.96163
1.95886
1.95644
1.95388
1.95156
1.95106
1.95187
1.95418
1.95773
1.96286
1.96896
1.97588
1.98325
1.99081
1.99808
2.00462
2.01036
2.01547
1.95465
1.95389
1.95293
1.95193
1.95081
1.94965
1.94864
1.94808
1.94792
1.94815
1.94874
1.94949
1.95064
1.95199
1.95368
1.95558
1.95749
1.95953
1.96161
1.96409
1.9663
1.96847
1.97063
1.97228
1.9741
1.9751
1.975
1.97461
1.97249
1.97087
1.96648
1.96274
1.95602
1.95108
1.9433
1.9388
1.9342
1.93339
1.93336
1.9374
1.94126
1.94945
1.95659
1.96627
1.97486
1.9843
1.99156
1.99908
2.00494
2.00981
2.01302
1.0318
1.0332
1.03448
1.03587
1.03717
1.03851
1.03982
1.04115
1.04244
1.04371
1.04496
1.0462
1.04739
1.04852
1.04962
1.05064
1.05159
1.05244
1.05322
1.05387
1.05443
1.05483
1.05513
1.05524
1.05523
1.05505
1.0327
1.03408
1.03546
1.03681
1.03816
1.03947
1.04078
1.04207
1.04331
1.04455
1.04578
1.04691
1.04808
1.04913
1.05014
1.05108
1.05194
1.05272
1.05338
1.05396
1.05441
1.05475
1.05494
1.055
1.05491
1.05466
1.03359
1.03491
1.03641
1.03769
1.03908
1.04039
1.04168
1.04296
1.04419
1.04536
1.04653
1.04764
1.0487
1.04971
1.05064
1.0515
1.05227
1.05296
1.05355
1.05403
1.05441
1.05465
1.05479
1.05477
1.05462
1.05431
1.03437
1.03584
1.03725
1.03862
1.03996
1.04128
1.04257
1.04382
1.04503
1.04617
1.04728
1.04833
1.04933
1.05027
1.05113
1.05192
1.05261
1.05322
1.05373
1.05413
1.05443
1.05459
1.05466
1.05459
1.05437
1.05402
1.03519
1.03668
1.03809
1.0395
1.04083
1.04215
1.04343
1.04465
1.04581
1.04694
1.04799
1.049
1.04994
1.05081
1.05162
1.05232
1.05295
1.05349
1.05391
1.05425
1.05447
1.05457
1.05456
1.05443
1.05417
1.05375
1.03599
1.0375
1.03894
1.04034
1.04169
1.043
1.04424
1.04546
1.04659
1.04767
1.0487
1.04967
1.05054
1.05136
1.05208
1.05272
1.05327
1.05374
1.05409
1.05436
1.05452
1.05456
1.05451
1.05433
1.05399
1.05358
1.03678
1.03829
1.03974
1.04116
1.04251
1.04379
1.04504
1.04622
1.04735
1.0484
1.04937
1.05027
1.05111
1.05185
1.05252
1.0531
1.05359
1.05398
1.05429
1.05448
1.05459
1.05458
1.05447
1.05424
1.05388
1.05341
1.03753
1.03907
1.04053
1.04194
1.04329
1.04458
1.04581
1.04698
1.04804
1.04907
1.05
1.05087
1.05165
1.05235
1.05295
1.05347
1.05389
1.05423
1.05446
1.05461
1.05465
1.05461
1.05446
1.05419
1.0538
1.05331
1.03828
1.03981
1.0413
1.04271
1.04406
1.04534
1.04655
1.04768
1.04876
1.04973
1.05063
1.05144
1.05218
1.05281
1.05337
1.05382
1.0542
1.05446
1.05465
1.05475
1.05475
1.05466
1.05448
1.05418
1.05377
1.05326
1.03901
1.04056
1.04204
1.04344
1.04481
1.04607
1.04726
1.04837
1.04942
1.05033
1.05123
1.05196
1.05266
1.05325
1.05375
1.05417
1.05446
1.0547
1.05483
1.05488
1.05485
1.05473
1.0545
1.0542
1.05377
1.05326
1.03973
1.04127
1.04278
1.04417
1.04552
1.04678
1.04793
1.04905
1.05001
1.05097
1.05176
1.0525
1.05313
1.05367
1.05413
1.05448
1.05476
1.05493
1.05503
1.05504
1.05498
1.05482
1.05458
1.05426
1.05383
1.05332
1.04043
1.04201
1.04348
1.04489
1.04621
1.04745
1.0486
1.04966
1.05064
1.0515
1.05232
1.05294
1.05361
1.05403
1.05451
1.05478
1.05501
1.05515
1.05518
1.05518
1.05508
1.05492
1.05466
1.05434
1.0539
1.05343
1.04115
1.04269
1.04418
1.04559
1.04688
1.04813
1.04925
1.05031
1.05119
1.05211
1.05277
1.0535
1.05395
1.05445
1.05478
1.05504
1.05521
1.05534
1.05532
1.05529
1.05519
1.055
1.05476
1.05441
1.05405
1.05356
1.04182
1.0434
1.04487
1.04624
1.04758
1.04874
1.0499
1.05088
1.05181
1.05262
1.05327
1.05396
1.05432
1.0548
1.05503
1.0553
1.05539
1.05546
1.05544
1.05541
1.05529
1.05508
1.05485
1.05455
1.05417
1.05376
1.04254
1.04406
1.04558
1.04692
1.04822
1.04941
1.05048
1.05147
1.05229
1.05312
1.05368
1.05432
1.05466
1.05507
1.05525
1.05546
1.05551
1.05556
1.05557
1.05551
1.0553
1.0551
1.0549
1.0546
1.05431
1.05395
1.04324
1.04475
1.04624
1.04756
1.04886
1.05
1.05107
1.052
1.05286
1.05351
1.05417
1.05458
1.055
1.05523
1.05538
1.05551
1.05557
1.0555
1.05545
1.05533
1.0552
1.05503
1.05482
1.05464
1.05443
1.05416
1.04393
1.04544
1.04692
1.04822
1.04948
1.05059
1.05161
1.05251
1.05328
1.05387
1.05449
1.05481
1.05516
1.05533
1.0554
1.05547
1.05543
1.05536
1.05524
1.05512
1.055
1.05486
1.05473
1.05458
1.0545
1.05439
1.04463
1.04614
1.04757
1.04888
1.05008
1.05118
1.05212
1.05298
1.05366
1.05424
1.05472
1.05498
1.05526
1.05528
1.05533
1.0552
1.05515
1.05504
1.05495
1.05488
1.05482
1.05483
1.05484
1.05499
1.05511
1.05518
1.04531
1.04688
1.0482
1.04953
1.05065
1.05173
1.05261
1.05342
1.05405
1.0546
1.05481
1.05512
1.0551
1.0551
1.05489
1.05486
1.05484
1.05494
1.05487
1.05547
1.05545
1.05634
1.05735
1.05825
1.05909
1.05976
1.04602
1.04753
1.04887
1.05017
1.05128
1.05229
1.05312
1.05379
1.05436
1.05459
1.05492
1.05483
1.05476
1.05464
1.05472
1.05499
1.05576
1.05639
1.05806
1.06155
1.06336
1.06828
1.07334
1.07701
1.0815
1.08539
1.04679
1.04822
1.04954
1.05076
1.05183
1.05273
1.05345
1.05404
1.0544
1.05451
1.05452
1.05446
1.05465
1.05459
1.05754
1.05758
1.06622
1.06658
1.08179
1.09849
1.11132
1.13131
1.15162
1.16612
1.18508
1.19927
1.04757
1.04893
1.05022
1.05133
1.05234
1.05307
1.05371
1.05403
1.05411
1.05415
1.05446
1.05447
1.05711
1.05869
1.07353
1.08208
1.11122
1.15582
1.20653
1.26515
1.32031
1.37975
1.43333
1.47136
1.51024
1.54307
1.04803
1.04937
1.05057
1.05161
1.0526
1.05316
1.05361
1.05364
1.05392
1.05449
1.05663
1.05957
1.07435
1.09329
1.15421
1.23878
1.33898
1.4133
1.46777
1.5145
1.55257
1.58553
1.62077
1.65075
1.68481
1.72732
1.04869
1.04995
1.05105
1.05212
1.05275
1.05322
1.05339
1.05409
1.0555
1.06146
1.07067
1.11031
1.16865
1.30604
1.40562
1.45629
1.4894
1.51308
1.52895
1.55018
1.56722
1.58273
1.61012
1.65254
1.68991
1.72591
1.05006
1.05122
1.05228
1.05313
1.05349
1.05386
1.05498
1.05899
1.07329
1.09982
1.18566
1.33282
1.43459
1.45987
1.48315
1.47002
1.44658
1.41248
1.3756
1.35802
1.32619
1.30518
1.30861
1.32254
1.36168
1.45681
1.05272
1.05358
1.0544
1.05444
1.05495
1.0581
1.06607
1.09847
1.17373
1.34249
1.44702
1.48705
1.47802
1.42572
1.35654
1.29599
1.2826
1.27944
1.26963
1.26135
1.24197
1.21215
1.20563
1.21351
1.24122
1.32246
1.05859
1.0579
1.05678
1.05748
1.06295
1.08553
1.15658
1.29342
1.47059
1.50574
1.49295
1.40807
1.27671
1.23855
1.23857
1.27075
1.31774
1.38214
1.37521
1.33984
1.29832
1.23313
1.21619
1.23345
1.29592
1.47089
1.06936
1.06263
1.06314
1.07559
1.11861
1.26588
1.4761
1.52008
1.52593
1.40539
1.24061
1.1762
1.18085
1.25305
1.3739
1.48447
1.51389
1.51157
1.44479
1.30158
1.27613
1.27687
1.33547
1.4988
1.62858
1.69998
1.07504
1.07125
1.1013
1.21106
1.42428
1.53793
1.58589
1.42515
1.22465
1.12631
1.12478
1.17787
1.31712
1.44955
1.51194
1.52911
1.52561
1.50257
1.48912
1.48768
1.50055
1.55995
1.59084
1.60519
1.60618
1.5365
1.09194
1.14208
1.36356
1.57855
1.62988
1.4661
1.23196
1.09965
1.09198
1.12046
1.18301
1.2728
1.39585
1.45523
1.47849
1.49158
1.50578
1.51322
1.51597
1.51092
1.50375
1.48786
1.43109
1.3912
1.37674
1.37276
1.29533
1.51483
1.67793
1.61324
1.26327
1.09003
1.07877
1.09058
1.12516
1.16015
1.19803
1.231
1.2603
1.29476
1.31668
1.32708
1.33167
1.33248
1.3335
1.34
1.34657
1.35397
1.38527
1.44413
1.52939
1.7017
1.67006
1.67666
1.39202
1.11514
1.07784
1.07746
1.09288
1.12024
1.14184
1.16387
1.19207
1.2142
1.23468
1.25453
1.27403
1.29492
1.32118
1.35424
1.39658
1.45145
1.5323
1.64636
1.77902
1.90339
2.01549
2.07357
1.55849
1.22454
1.09411
1.07776
1.08136
1.1031
1.13989
1.18013
1.2233
1.27135
1.32138
1.37401
1.43227
1.49375
1.56253
1.63542
1.70963
1.78434
1.86053
1.93995
2.00124
2.04772
2.06639
2.10005
2.11252
2.12403
1.14712
1.09064
1.08721
1.10147
1.14789
1.23172
1.34527
1.47912
1.60819
1.69913
1.76665
1.84068
1.90281
1.94308
1.98555
2.02384
2.04283
2.06904
2.08754
2.09026
2.10338
2.10834
2.11537
2.12062
2.1257
2.12895
1.11184
1.12002
1.16694
1.28249
1.47376
1.67346
1.80593
1.86955
1.94744
1.99947
2.0288
2.05956
2.0744
2.08581
2.09418
2.09413
2.1004
2.10382
2.10577
2.10879
2.11209
2.11551
2.11853
2.12205
2.12531
2.128
1.19214
1.31072
1.53451
1.74228
1.87325
1.93957
2.01854
2.0562
2.07905
2.08735
2.09896
2.10528
2.10273
2.10557
2.10452
2.10466
2.10545
2.1058
2.10737
2.10932
2.11158
2.11444
2.11759
2.12093
2.12415
2.1272
1.57181
1.77335
1.88642
1.97795
2.03601
2.06766
2.09128
2.10281
2.10879
2.11004
2.11064
2.10877
2.10785
2.10618
2.10476
2.1038
2.10353
2.104
2.10541
2.10715
2.1096
2.11275
2.11595
2.11948
2.1228
2.12601
1.90104
1.99005
2.0375
2.07429
2.09446
2.10499
2.11113
2.11311
2.1134
2.11169
2.11023
2.10775
2.10597
2.10367
2.10184
2.10055
2.10016
2.1006
2.102
2.10371
2.10641
2.10949
2.11309
2.1167
2.12035
2.1237
2.03449
2.0712
2.09097
2.10232
2.10851
2.11172
2.11318
2.11301
2.11211
2.10999
2.10787
2.10483
2.1024
2.09955
2.0978
2.09631
2.09589
2.09617
2.09764
2.09968
2.1024
2.10599
2.10971
2.11375
2.11759
2.12131
2.08325
2.09542
2.10286
2.1075
2.10997
2.11128
2.11164
2.11076
2.10925
2.10656
2.10408
2.10057