/*--------------------------------*- C++ -*----------------------------------*\
  =========                 |
  \\      /  F ield         | OpenFOAM: The Open Source CFD Toolbox
   \\    /   O peration     | Website:  https://openfoam.org
    \\  /    A nd           | Version:  10
     \\/     M anipulation  |
\*---------------------------------------------------------------------------*/
FoamFile
{
    format      ascii;
    class       volVectorField;
    location    "0.850796";
    object      U;
}
// * * * * * * * * * * * * * * * * * * * * * * * * * * * * * * * * * * * * * //

dimensions      [0 1 -1 0 0 0 0];

internalField   nonuniform List<vector> 
15708
(
(0.66669 -0.14285 0)
(0.649427 -0.137791 0)
(0.632368 -0.132413 0)
(0.615636 -0.126802 0)
(0.599258 -0.121018 0)
(0.583252 -0.115151 0)
(0.567681 -0.109264 0)
(0.552563 -0.103412 0)
(0.537915 -0.097639 0)
(0.523748 -0.0919821 0)
(0.510071 -0.0864685 0)
(0.496885 -0.0811184 0)
(0.484191 -0.0759455 0)
(0.471983 -0.070958 0)
(0.460256 -0.0661586 0)
(0.449006 -0.061548 0)
(0.438221 -0.0571233 0)
(0.427889 -0.0528771 0)
(0.417999 -0.0488017 0)
(0.408543 -0.0448893 0)
(0.399511 -0.0411314 0)
(0.390893 -0.0375192 0)
(0.382682 -0.0340415 0)
(0.374872 -0.0306922 0)
(0.367458 -0.0274614 0)
(0.360437 -0.0243438 0)
(0.353807 -0.0213333 0)
(0.347567 -0.0184259 0)
(0.341716 -0.0156194 0)
(0.336257 -0.012913 0)
(0.331192 -0.0103073 0)
(0.326522 -0.00780502 0)
(0.322252 -0.00540928 0)
(0.318384 -0.00312454 0)
(0.314921 -0.000956442 0)
(0.311864 0.00108896 0)
(0.309215 0.00300481 0)
(0.306972 0.00478385 0)
(0.305135 0.00641923 0)
(0.303698 0.00790392 0)
(0.302656 0.00923106 0)
(0.302 0.0103951 0)
(0.301719 0.0113902 0)
(0.301799 0.0122121 0)
(0.302221 0.0128588 0)
(0.302967 0.0133279 0)
(0.304012 0.0136196 0)
(0.305331 0.0137363 0)
(0.306895 0.0136833 0)
(0.308675 0.0134674 0)
(0.310639 0.0131012 0)
(0.671564 -0.124493 0)
(0.654637 -0.119505 0)
(0.637869 -0.114201 0)
(0.621275 -0.10878 0)
(0.604975 -0.103249 0)
(0.58899 -0.0977244 0)
(0.573384 -0.0922262 0)
(0.558182 -0.0868215 0)
(0.543411 -0.081543 0)
(0.529093 -0.0764199 0)
(0.515241 -0.0714741 0)
(0.501868 -0.0667203 0)
(0.488978 -0.0621665 0)
(0.476571 -0.0578153 0)
(0.464644 -0.0536649 0)
(0.453198 -0.0497123 0)
(0.442223 -0.045951 0)
(0.431711 -0.0423715 0)
(0.421652 -0.0389621 0)
(0.412036 -0.0357124 0)
(0.402855 -0.0326123 0)
(0.3941 -0.0296513 0)
(0.385762 -0.0268175 0)
(0.377835 -0.0241023 0)
(0.370312 -0.0214963 0)
(0.363188 -0.0189919 0)
(0.35646 -0.0165835 0)
(0.350126 -0.0142661 0)
(0.344185 -0.0120372 0)
(0.338636 -0.00989534 0)
(0.333481 -0.00784044 0)
(0.328722 -0.00587506 0)
(0.324359 -0.00400179 0)
(0.320396 -0.00222431 0)
(0.316832 -0.000547545 0)
(0.313669 0.00102283 0)
(0.310908 0.00248081 0)
(0.308547 0.00381989 0)
(0.306584 0.00503382 0)
(0.305016 0.00611664 0)
(0.303836 0.00706238 0)
(0.303036 0.00786624 0)
(0.302605 0.00852381 0)
(0.302531 0.0090321 0)
(0.302795 0.00938938 0)
(0.30338 0.00959606 0)
(0.304266 0.00965287 0)
(0.305427 0.00956355 0)
(0.30684 0.0093343 0)
(0.308475 0.00897316 0)
(0.310305 0.00849141 0)
(0.676534 -0.10658 0)
(0.659835 -0.101417 0)
(0.643221 -0.0962107 0)
(0.626714 -0.0908701 0)
(0.610431 -0.0855725 0)
(0.594388 -0.0802949 0)
(0.578692 -0.0751408 0)
(0.563347 -0.0701383 0)
(0.548409 -0.0653168 0)
(0.5339 -0.0606985 0)
(0.519843 -0.0562985 0)
(0.506255 -0.0521239 0)
(0.493147 -0.0481764 0)
(0.480524 -0.0444538 0)
(0.468387 -0.040949 0)
(0.456736 -0.0376542 0)
(0.445567 -0.0345587 0)
(0.434874 -0.0316494 0)
(0.424646 -0.0289111 0)
(0.414875 -0.0263279 0)
(0.40555 -0.0238874 0)
(0.396663 -0.0215772 0)
(0.388207 -0.0193883 0)
(0.38017 -0.017309 0)
(0.372547 -0.0153297 0)
(0.36533 -0.0134412 0)
(0.358514 -0.0116365 0)
(0.352096 -0.00991092 0)
(0.346075 -0.008261 0)
(0.34045 -0.00668534 0)
(0.335218 -0.00518372 0)
(0.330381 -0.0037561 0)
(0.325939 -0.00240534 0)
(0.321893 -0.00113482 0)
(0.318244 5.08575e-05 0)
(0.31499 0.00114629 0)
(0.312133 0.00214634 0)
(0.30967 0.00304552 0)
(0.3076 0.00383817 0)
(0.305919 0.00451929 0)
(0.30462 0.00508387 0)
(0.303697 0.00552799 0)
(0.303138 0.0058484 0)
(0.302932 0.00604328 0)
(0.303064 0.00611133 0)
(0.303516 0.00605475 0)
(0.30427 0.00587492 0)
(0.305304 0.00557693 0)
(0.306595 0.00516747 0)
(0.308119 0.0046555 0)
(0.309848 0.00405256 0)
(0.681634 -0.0888786 0)
(0.665081 -0.0836092 0)
(0.64851 -0.078322 0)
(0.632005 -0.0730201 0)
(0.615647 -0.0678612 0)
(0.59952 -0.0628075 0)
(0.583636 -0.0579541 0)
(0.568097 -0.0533145 0)
(0.552938 -0.0489189 0)
(0.538192 -0.0447835 0)
(0.523891 -0.0409154 0)
(0.510058 -0.0373128 0)
(0.496708 -0.0339684 0)
(0.483848 -0.0308721 0)
(0.471484 -0.0280111 0)
(0.459618 -0.0253703 0)
(0.448247 -0.0229352 0)
(0.437369 -0.0206899 0)
(0.426976 -0.0186202 0)
(0.417056 -0.0167113 0)
(0.407598 -0.0149475 0)
(0.39859 -0.0133101 0)
(0.390019 -0.0117834 0)
(0.381878 -0.0103488 0)
(0.374159 -0.0089975 0)
(0.366855 -0.00772288 0)
(0.359962 -0.00651997 0)
(0.353474 -0.00538423 0)
(0.347387 -0.00431209 0)
(0.341698 -0.0033011 0)
(0.336404 -0.00235018 0)
(0.331504 -0.00145912 0)
(0.326996 -0.00063047 0)
(0.322881 0.000132236 0)
(0.319158 0.00082521 0)
(0.315827 0.00144467 0)
(0.312888 0.00198606 0)
(0.31034 0.00244451 0)
(0.308179 0.00281522 0)
(0.306401 0.00309386 0)
(0.305003 0.00327635 0)
(0.303975 0.0033597 0)
(0.30331 0.00334157 0)
(0.302995 0.00322118 0)
(0.303019 0.00299846 0)
(0.303363 0.00267605 0)
(0.304012 0.00225647 0)
(0.304947 0.00174608 0)
(0.306145 0.0011503 0)
(0.307585 0.000479343 0)
(0.309245 -0.000255574 0)
(0.68694 -0.0713544 0)
(0.670416 -0.0658892 0)
(0.65386 -0.0604455 0)
(0.637228 -0.0551595 0)
(0.620707 -0.0500386 0)
(0.604363 -0.0451845 0)
(0.588257 -0.0405894 0)
(0.572458 -0.0362882 0)
(0.557017 -0.0322979 0)
(0.54198 -0.0286255 0)
(0.527389 -0.0252706 0)
(0.513275 -0.0222291 0)
(0.499657 -0.0194923 0)
(0.486546 -0.0170436 0)
(0.473947 -0.0148613 0)
(0.461862 -0.012922 0)
(0.450289 -0.011202 0)
(0.43922 -0.00967334 0)
(0.428651 -0.00830514 0)
(0.418571 -0.00707054 0)
(0.40897 -0.00594926 0)
(0.399836 -0.00493418 0)
(0.391158 -0.00401742 0)
(0.382929 -0.0031967 0)
(0.375134 -0.00246282 0)
(0.367765 -0.00180364 0)
(0.360813 -0.00120826 0)
(0.354271 -0.000668285 0)
(0.348131 -0.000178346 0)
(0.342391 0.000264506 0)
(0.337045 0.000661622 0)
(0.332092 0.00101209 0)
(0.32753 0.00131465 0)
(0.323358 0.00156743 0)
(0.319576 0.00176725 0)
(0.316182 0.00191009 0)
(0.313176 0.00199162 0)
(0.310556 0.00200778 0)
(0.30832 0.00195466 0)
(0.306463 0.00182865 0)
(0.304982 0.00162668 0)
(0.303869 0.00134689 0)
(0.303117 0.000987654 0)
(0.302715 0.000548684 0)
(0.302652 3.09646e-05 0)
(0.302912 -0.000562899 0)
(0.303481 -0.00122812 0)
(0.304341 -0.0019613 0)
(0.305473 -0.00275181 0)
(0.306857 -0.00359108 0)
(0.308473 -0.0044665 0)
(0.692504 -0.0539683 0)
(0.675927 -0.048103 0)
(0.659203 -0.0425531 0)
(0.642401 -0.0371416 0)
(0.625627 -0.0320764 0)
(0.608992 -0.0273225 0)
(0.592572 -0.0229631 0)
(0.576445 -0.019009 0)
(0.56067 -0.0154625 0)
(0.545299 -0.0123165 0)
(0.530372 -0.00955723 0)
(0.515926 -0.00712974 0)
(0.501992 -0.00499617 0)
(0.488588 -0.00314654 0)
(0.475726 -0.00156322 0)
(0.463408 -0.00022375 0)
(0.451629 0.000895015 0)
(0.440379 0.00181254 0)
(0.429644 0.00254422 0)
(0.419414 0.00310672 0)
(0.409681 0.00352336 0)
(0.400437 0.00382082 0)
(0.391668 0.00402729 0)
(0.383359 0.00415907 0)
(0.3755 0.00423249 0)
(0.368075 0.00425732 0)
(0.361073 0.00423988 0)
(0.354484 0.00418452 0)
(0.348302 0.00409468 0)
(0.342521 0.00397235 0)
(0.337136 0.00381834 0)
(0.332143 0.00363243 0)
(0.327541 0.00341337 0)
(0.323326 0.00315891 0)
(0.319498 0.0028661 0)
(0.316055 0.00253171 0)
(0.312996 0.00215237 0)
(0.31032 0.0017247 0)
(0.308023 0.00124552 0)
(0.306104 0.000712272 0)
(0.304557 0.000122505 0)
(0.303377 -0.000525115 0)
(0.302557 -0.00123098 0)
(0.302088 -0.00199419 0)
(0.301959 -0.00281282 0)
(0.302158 -0.00368356 0)
(0.302669 -0.00460093 0)
(0.303476 -0.00556071 0)
(0.304567 -0.00655336 0)
(0.305919 -0.00756901 0)
(0.307516 -0.0085961 0)
(0.698357 -0.0364485 0)
(0.681606 -0.0303028 0)
(0.664651 -0.024412 0)
(0.64758 -0.0189374 0)
(0.63045 -0.0139235 0)
(0.613443 -0.00938593 0)
(0.596596 -0.00525324 0)
(0.580049 -0.00155721 0)
(0.563866 0.0016941 0)
(0.548103 0.00450142 0)
(0.532805 0.00687963 0)
(0.518001 0.00881707 0)
(0.503723 0.010333 0)
(0.489999 0.0114813 0)
(0.476841 0.0123101 0)
(0.464255 0.0128639 0)
(0.45224 0.0131833 0)
(0.440791 0.0133073 0)
(0.429897 0.0132708 0)
(0.419543 0.0131051 0)
(0.409712 0.0128342 0)
(0.400386 0.0124765 0)
(0.391544 0.0120446 0)
(0.383172 0.0115533 0)
(0.375255 0.0110121 0)
(0.367781 0.0104302 0)
(0.360739 0.00981546 0)
(0.354117 0.00917398 0)
(0.347906 0.0085101 0)
(0.342099 0.00782643 0)
(0.336688 0.00712397 0)
(0.331668 0.00640263 0)
(0.327037 0.00566158 0)
(0.32279 0.00489909 0)
(0.318928 0.00411286 0)
(0.315448 0.00330028 0)
(0.312349 0.00245846 0)
(0.30963 0.00158475 0)
(0.307289 0.000676699 0)
(0.305322 -0.00026759 0)
(0.303727 -0.00124944 0)
(0.302498 -0.00226906 0)
(0.301629 -0.00332605 0)
(0.301112 -0.0044188 0)
(0.300938 -0.00554467 0)
(0.301095 -0.00669995 0)
(0.30157 -0.00787939 0)
(0.302349 -0.00907529 0)
(0.303419 -0.0102804 0)
(0.304762 -0.0114847 0)
(0.306362 -0.0126763 0)
(0.704449 -0.0188845 0)
(0.687438 -0.0123596 0)
(0.670178 -0.00618019 0)
(0.652656 -0.000480224 0)
(0.635113 0.00472306 0)
(0.617647 0.00939537 0)
(0.600318 0.0133911 0)
(0.583258 0.0167412 0)
(0.56656 0.0194932 0)
(0.550296 0.0216839 0)
(0.534533 0.0233629 0)
(0.519321 0.024583 0)
(0.50469 0.0253954 0)
(0.490658 0.0258475 0)
(0.47723 0.0259844 0)
(0.46441 0.02585 0)
(0.452192 0.0254863 0)
(0.440567 0.0249305 0)
(0.429521 0.0242151 0)
(0.419037 0.0233688 0)
(0.409095 0.0224162 0)
(0.399677 0.0213798 0)
(0.390764 0.0202785 0)
(0.382338 0.0191299 0)
(0.374381 0.0179476 0)
(0.366877 0.0167422 0)
(0.359811 0.015521 0)
(0.353171 0.0142894 0)
(0.346945 0.0130508 0)
(0.341123 0.0118071 0)
(0.335698 0.0105588 0)
(0.330664 0.00930541 0)
(0.326015 0.00804548 0)
(0.32175 0.00677724 0)
(0.317866 0.00549855 0)
(0.314362 0.00420727 0)
(0.311237 0.00290134 0)
(0.308489 0.00157887 0)
(0.306117 0.000238439 0)
(0.304119 -0.00112099 0)
(0.302492 -0.00249956 0)
(0.301231 -0.00389698 0)
(0.300331 -0.00531184 0)
(0.299785 -0.00674181 0)
(0.299585 -0.00818343 0)
(0.299721 -0.00963188 0)
(0.30018 -0.0110819 0)
(0.300951 -0.0125255 0)
(0.302022 -0.0139548 0)
(0.303377 -0.0153597 0)
(0.305001 -0.0167287 0)
(0.710611 -0.00112185 0)
(0.69331 0.00614338 0)
(0.675617 0.0127679 0)
(0.657581 0.0186798 0)
(0.639463 0.0238543 0)
(0.621418 0.028272 0)
(0.603489 0.0319894 0)
(0.585878 0.0349647 0)
(0.568658 0.0373175 0)
(0.551901 0.0390294 0)
(0.535677 0.0401671 0)
(0.520038 0.040787 0)
(0.505017 0.0409445 0)
(0.490636 0.0406974 0)
(0.476907 0.0401047 0)
(0.463829 0.0392228 0)
(0.451394 0.0381035 0)
(0.439589 0.0367921 0)
(0.428397 0.0353295 0)
(0.417797 0.0337499 0)
(0.407768 0.0320828 0)
(0.398285 0.0303531 0)
(0.389326 0.0285808 0)
(0.380868 0.0267814 0)
(0.37289 0.0249667 0)
(0.365372 0.0231456 0)
(0.358298 0.021325 0)
(0.351653 0.0195096 0)
(0.345423 0.0177019 0)
(0.339598 0.0159032 0)
(0.33417 0.0141133 0)
(0.329131 0.0123312 0)
(0.324478 0.0105552 0)
(0.320206 0.00878323 0)
(0.316313 0.00701338 0)
(0.312798 0.00524365 0)
(0.30966 0.00347252 0)
(0.306897 0.00169895 0)
(0.30451 -7.75886e-05 0)
(0.302495 -0.00185701 0)
(0.300852 -0.00363864 0)
(0.299576 -0.00542089 0)
(0.298662 -0.0072014 0)
(0.298106 -0.00897687 0)
(0.297899 -0.0107432 0)
(0.298033 -0.0124948 0)
(0.298496 -0.0142258 0)
(0.29928 -0.0159284 0)
(0.300372 -0.017594 0)
(0.301759 -0.0192125 0)
(0.303428 -0.0207726 0)
(0.716423 0.0171614 0)
(0.698647 0.024908 0)
(0.680478 0.0317952 0)
(0.661955 0.0379422 0)
(0.643275 0.0432237 0)
(0.624643 0.0476429 0)
(0.606119 0.0511809 0)
(0.587916 0.0538861 0)
(0.570136 0.0557959 0)
(0.552807 0.0569712 0)
(0.53607 0.0574822 0)
(0.519969 0.0574051 0)
(0.504539 0.0568185 0)
(0.489804 0.0557987 0)
(0.475774 0.0544186 0)
(0.462447 0.0527456 0)
(0.449809 0.0508397 0)
(0.437844 0.0487534 0)
(0.426528 0.0465323 0)
(0.415837 0.0442144 0)
(0.405742 0.0418305 0)
(0.396216 0.0394057 0)
(0.38723 0.0369595 0)
(0.378757 0.0345074 0)
(0.370774 0.0320608 0)
(0.363259 0.0296273 0)
(0.356192 0.0272123 0)
(0.349556 0.024819 0)
(0.343337 0.0224486 0)
(0.337523 0.0201009 0)
(0.332104 0.0177747 0)
(0.327074 0.0154683 0)
(0.322426 0.0131795 0)
(0.318159 0.0109061 0)
(0.314268 0.00864621 0)
(0.310754 0.00639821 0)
(0.307616 0.00416111 0)
(0.304852 0.00193435 0)
(0.302463 -0.000281524 0)
(0.300447 -0.00248541 0)
(0.298803 -0.0046757 0)
(0.297529 -0.00684979 0)
(0.29662 -0.00900415 0)
(0.296071 -0.0111344 0)
(0.295876 -0.0132355 0)
(0.296028 -0.0153011 0)
(0.296516 -0.0173249 0)
(0.297332 -0.0192985 0)
(0.298466 -0.0212133 0)
(0.299906 -0.0230593 0)
(0.301639 -0.0248253 0)
(0.720843 0.035473 0)
(0.702872 0.043896 0)
(0.684327 0.0513107 0)
(0.66539 0.0578104 0)
(0.646195 0.0632407 0)
(0.626988 0.0676637 0)
(0.607854 0.0709444 0)
(0.589051 0.0733516 0)
(0.570664 0.0747446 0)
(0.552802 0.0753321 0)
(0.53556 0.0751632 0)
(0.519003 0.0743405 0)
(0.503173 0.0729637 0)
(0.488095 0.0711283 0)
(0.47378 0.0689224 0)
(0.460221 0.066424 0)
(0.447403 0.0637018 0)
(0.435302 0.0608164 0)
(0.423888 0.0578164 0)
(0.413131 0.0547433 0)
(0.402995 0.0516304 0)
(0.393448 0.0485031 0)
(0.384459 0.0453806 0)
(0.375996 0.0422769 0)
(0.368031 0.039202 0)
(0.36054 0.036162 0)
(0.3535 0.0331601 0)
(0.346892 0.0301972 0)
(0.3407 0.0272726 0)
(0.334912 0.0243844 0)
(0.329516 0.0215299 0)
(0.324505 0.0187063 0)
(0.319875 0.0159106 0)
(0.315622 0.0131401 0)
(0.311743 0.0103927 0)
(0.308239 0.00766716 0)
(0.30511 0.00496295 0)
(0.302356 0.00228043 0)
(0.299977 -0.000379222 0)
(0.297973 -0.00301359 0)
(0.296343 -0.00561958 0)
(0.295085 -0.00819347 0)
(0.294197 -0.0107305 0)
(0.293675 -0.0132254 0)
(0.293512 -0.0156717 0)
(0.293701 -0.018063 0)
(0.294234 -0.0203921 0)
(0.295104 -0.0226501 0)
(0.2963 -0.0248281 0)
(0.297813 -0.0269164 0)
(0.299632 -0.0289038 0)
(0.722548 0.0540782 0)
(0.704639 0.0630622 0)
(0.686029 0.0712625 0)
(0.666872 0.0780087 0)
(0.647381 0.0837646 0)
(0.627694 0.0880394 0)
(0.608136 0.0912563 0)
(0.588862 0.0932016 0)
(0.56995 0.0941657 0)
(0.551618 0.094097 0)
(0.533916 0.0932219 0)
(0.516952 0.0916083 0)
(0.500769 0.0893922 0)
(0.485394 0.0866911 0)
(0.470836 0.0836107 0)
(0.457086 0.0802429 0)
(0.444125 0.0766667 0)
(0.431924 0.0729499 0)
(0.420446 0.0691467 0)
(0.409656 0.0653011 0)
(0.399514 0.0614475 0)
(0.38998 0.0576116 0)
(0.381018 0.053812 0)
(0.372593 0.0500605 0)
(0.364672 0.046364 0)
(0.357227 0.042726 0)
(0.350233 0.0391467 0)
(0.34367 0.0356244 0)
(0.337519 0.0321561 0)
(0.331768 0.0287376 0)
(0.326406 0.0253646 0)
(0.321425 0.0220324 0)
(0.31682 0.018737 0)
(0.31259 0.0154751 0)
(0.308732 0.0122443 0)
(0.305248 0.00904318 0)
(0.302138 0.00587185 0)
(0.299403 0.00273151 0)
(0.297048 -0.000375422 0)
(0.295068 -0.00344558 0)
(0.293466 -0.00647473 0)
(0.292241 -0.00945741 0)
(0.291391 -0.0123875 0)
(0.290912 -0.0152582 0)
(0.2908 -0.0180619 0)
(0.291047 -0.0207918 0)
(0.291645 -0.0234389 0)
(0.292589 -0.0259949 0)
(0.293869 -0.0284506 0)
(0.295476 -0.0307965 0)
(0.297401 -0.0330219 0)
(0.719333 0.0719541 0)
(0.701948 0.0822025 0)
(0.683889 0.0909038 0)
(0.665021 0.0981456 0)
(0.645611 0.104243 0)
(0.625898 0.108591 0)
(0.606193 0.111747 0)
(0.586645 0.113367 0)
(0.567488 0.11384 0)
(0.548804 0.113163 0)
(0.530825 0.111531 0)
(0.513556 0.109095 0)
(0.497118 0.106006 0)
(0.481533 0.102401 0)
(0.46681 0.0984056 0)
(0.45294 0.09413 0)
(0.4399 0.0896676 0)
(0.427657 0.085093 0)
(0.416171 0.0804677 0)
(0.405398 0.0758379 0)
(0.395293 0.0712382 0)
(0.385812 0.0666934 0)
(0.376913 0.0622198 0)
(0.368555 0.0578265 0)
(0.360705 0.0535178 0)
(0.353329 0.0492932 0)
(0.346401 0.0451498 0)
(0.339899 0.0410824 0)
(0.333804 0.0370847 0)
(0.328102 0.0331496 0)
(0.322783 0.0292702 0)
(0.31784 0.0254401 0)
(0.313269 0.0216538 0)
(0.309068 0.0179071 0)
(0.305238 0.0141971 0)
(0.30178 0.0105225 0)
(0.298698 0.00688388 0)
(0.295993 0.00328317 0)
(0.29367 -0.000275985 0)
(0.291727 -0.00378823 0)
(0.290167 -0.00724819 0)
(0.28899 -0.0106488 0)
(0.288195 -0.0139823 0)
(0.287778 -0.0172403 0)
(0.287734 -0.0204139 0)
(0.288058 -0.0234956 0)
(0.288742 -0.0264755 0)
(0.289781 -0.0293445 0)
(0.291165 -0.0320938 0)
(0.292887 -0.0347139 0)
(0.294939 -0.0371948 0)
(0.707866 0.0885809 0)
(0.692375 0.100066 0)
(0.675374 0.109079 0)
(0.657932 0.118204 0)
(0.6394 0.124284 0)
(0.620256 0.129269 0)
(0.600967 0.132141 0)
(0.581592 0.133697 0)
(0.562527 0.133606 0)
(0.543844 0.132357 0)
(0.525784 0.129965 0)
(0.508459 0.126688 0)
(0.491948 0.122695 0)
(0.476302 0.118153 0)
(0.461541 0.113213 0)
(0.447662 0.108004 0)
(0.434641 0.102632 0)
(0.422441 0.0971831 0)
(0.411018 0.0917238 0)
(0.400326 0.0863033 0)
(0.390313 0.0809564 0)
(0.380933 0.075706 0)
(0.372137 0.0705657 0)
(0.363884 0.0655418 0)
(0.356135 0.0606344 0)
(0.348855 0.0558393 0)
(0.342016 0.0511488 0)
(0.335593 0.0465536 0)
(0.329569 0.0420433 0)
(0.323928 0.0376077 0)
(0.318662 0.033237 0)
(0.313764 0.028922 0)
(0.309232 0.0246558 0)
(0.305066 0.0204324 0)
(0.301268 0.016249 0)
(0.297843 0.0121037 0)
(0.294793 0.00799828 0)
(0.292125 0.0039352 0)
(0.289842 -8.0829e-05 0)
(0.287946 -0.00404231 0)
(0.28644 -0.00794197 0)
(0.285324 -0.0117709 0)
(0.284599 -0.0155196 0)
(0.284261 -0.0191777 0)
(0.284305 -0.0227352 0)
(0.284725 -0.026183 0)
(0.285515 -0.0295102 0)
(0.286669 -0.0327076 0)
(0.288179 -0.0357664 0)
(0.290037 -0.0386778 0)
(0.292236 -0.0414324 0)
(0.685896 0.1028 0)
(0.672521 0.115582 0)
(0.659453 0.127017 0)
(0.644317 0.136296 0)
(0.626909 0.143403 0)
(0.609415 0.148647 0)
(0.591069 0.151861 0)
(0.572633 0.153295 0)
(0.554116 0.153015 0)
(0.535963 0.151235 0)
(0.518243 0.148191 0)
(0.501182 0.144117 0)
(0.484881 0.139241 0)
(0.469413 0.13377 0)
(0.454815 0.127886 0)
(0.441091 0.12174 0)
(0.428224 0.115457 0)
(0.416183 0.109131 0)
(0.404921 0.102838 0)
(0.394391 0.0966285 0)
(0.384541 0.0905402 0)
(0.375321 0.0845945 0)
(0.366682 0.0788017 0)
(0.358578 0.0731645 0)
(0.350968 0.0676781 0)
(0.343816 0.0623336 0)
(0.337091 0.0571182 0)
(0.330769 0.0520175 0)
(0.324831 0.0470168 0)
(0.319263 0.042101 0)
(0.314058 0.0372572 0)
(0.30921 0.0324729 0)
(0.30472 0.0277398 0)
(0.300591 0.0230494 0)
(0.296827 0.0183994 0)
(0.293435 0.0137862 0)
(0.290422 0.00921425 0)
(0.287793 0.00468632 0)
(0.285557 0.000208671 0)
(0.283716 -0.00420931 0)
(0.282273 -0.00855843 0)
(0.281232 -0.0128273 0)
(0.280591 -0.0170038 0)
(0.280349 -0.0210753 0)
(0.280498 -0.0250313 0)
(0.281035 -0.02886 0)
(0.281952 -0.0325502 0)
(0.283242 -0.0360924 0)
(0.284898 -0.0394777 0)
(0.286911 -0.0426979 0)
(0.289276 -0.0457448 0)
(0.652319 0.113143 0)
(0.644357 0.127972 0)
(0.633784 0.14128 0)
(0.621236 0.151314 0)
(0.607285 0.160105 0)
(0.592027 0.166193 0)
(0.575844 0.170165 0)
(0.558957 0.171777 0)
(0.541771 0.171467 0)
(0.524567 0.169362 0)
(0.507677 0.165785 0)
(0.491291 0.161015 0)
(0.475556 0.155332 0)
(0.46057 0.14899 0)
(0.44639 0.142206 0)
(0.433038 0.135155 0)
(0.420507 0.127985 0)
(0.408774 0.120804 0)
(0.3978 0.113696 0)
(0.387542 0.10672 0)
(0.377948 0.0999115 0)
(0.368967 0.0932933 0)
(0.36055 0.0868731 0)
(0.352649 0.0806485 0)
(0.345223 0.0746108 0)
(0.338234 0.0687445 0)
(0.331651 0.0630329 0)
(0.325449 0.0574541 0)
(0.319611 0.0519899 0)
(0.314126 0.0466188 0)
(0.308986 0.0413244 0)
(0.304192 0.0360905 0)
(0.299746 0.0309066 0)
(0.295653 0.0257619 0)
(0.291921 0.0206541 0)
(0.288562 0.0155762 0)
(0.285586 0.0105385 0)
(0.282998 0.00554222 0)
(0.280812 0.00059583 0)
(0.279031 -0.00428702 0)
(0.27766 -0.00909602 0)
(0.276702 -0.0138173 0)
(0.276159 -0.018436 0)
(0.276027 -0.0229364 0)
(0.276301 -0.0273063 0)
(0.276973 -0.0315318 0)
(0.278038 -0.0356009 0)
(0.279484 -0.0395038 0)
(0.281305 -0.043232 0)
(0.283493 -0.0467783 0)
(0.286042 -0.0501366 0)
(0.611733 0.119684 0)
(0.606751 0.136487 0)
(0.600124 0.150878 0)
(0.591674 0.163636 0)
(0.581019 0.173852 0)
(0.568684 0.181426 0)
(0.554867 0.186261 0)
(0.540128 0.188513 0)
(0.524781 0.188386 0)
(0.509188 0.186197 0)
(0.493629 0.182277 0)
(0.478379 0.176972 0)
(0.46362 0.170617 0)
(0.449477 0.163512 0)
(0.436025 0.155912 0)
(0.423306 0.14803 0)
(0.411333 0.140032 0)
(0.400098 0.132047 0)
(0.389574 0.124171 0)
(0.379722 0.116467 0)
(0.370496 0.108978 0)
(0.361849 0.101725 0)
(0.353733 0.0947145 0)
(0.346102 0.0879412 0)
(0.338913 0.0813897 0)
(0.332128 0.075041 0)
(0.325717 0.0688685 0)
(0.319659 0.0628492 0)
(0.313936 0.0569513 0)
(0.308541 0.0511539 0)
(0.30347 0.0454371 0)
(0.29873 0.0397705 0)
(0.294322 0.0341603 0)
(0.290262 0.0285656 0)
(0.286555 0.0230229 0)
(0.283222 0.0174694 0)
(0.280279 0.0119798 0)
(0.277731 0.00651351 0)
(0.275594 0.00108921 0)
(0.273879 -0.00427023 0)
(0.272585 -0.0095533 0)
(0.27172 -0.0147418 0)
(0.271287 -0.019818 0)
(0.271281 -0.0247643 0)
(0.271694 -0.0295653 0)
(0.272522 -0.0342045 0)
(0.273753 -0.0386691 0)
(0.275378 -0.0429487 0)
(0.277384 -0.0470354 0)
(0.279765 -0.0509238 0)
(0.282514 -0.0546103 0)
(0.569229 0.124704 0)
(0.566758 0.140707 0)
(0.562113 0.15845 0)
(0.556543 0.172656 0)
(0.548959 0.184533 0)
(0.539594 0.193541 0)
(0.52869 0.199681 0)
(0.516468 0.202776 0)
(0.503365 0.203228 0)
(0.489723 0.20122 0)
(0.475921 0.197208 0)
(0.46222 0.191578 0)
(0.448825 0.184726 0)
(0.43588 0.177008 0)
(0.423481 0.168723 0)
(0.411688 0.160119 0)
(0.40053 0.151388 0)
(0.390015 0.142681 0)
(0.380129 0.134106 0)
(0.370846 0.125738 0)
(0.362127 0.117626 0)
(0.353932 0.109793 0)
(0.346215 0.102245 0)
(0.338931 0.0949744 0)
(0.332041 0.0879614 0)
(0.325509 0.0811784 0)
(0.319309 0.0745959 0)
(0.313417 0.0681788 0)
(0.307825 0.0618889 0)
(0.302531 0.0557084 0)
(0.297529 0.0495903 0)
(0.292839 0.0435354 0)
(0.288463 0.0374949 0)
(0.284428 0.0314931 0)
(0.280736 0.0254852 0)
(0.277419 0.0195147 0)
(0.274519 0.0135353 0)
(0.271985 0.00761035 0)
(0.269893 0.0016879 0)
(0.268244 -0.00414671 0)
(0.267031 -0.00991813 0)
(0.266268 -0.0155928 0)
(0.265956 -0.0211459 0)
(0.26609 -0.026557 0)
(0.266662 -0.0318067 0)
(0.267664 -0.0368774 0)
(0.269083 -0.0417542 0)
(0.270904 -0.0464262 0)
(0.273116 -0.0508864 0)
(0.275705 -0.0551318 0)
(0.278666 -0.0591627 0)
(0.529336 0.126147 0)
(0.525371 0.14533 0)
(0.523426 0.161462 0)
(0.518164 0.178813 0)
(0.513053 0.192039 0)
(0.506433 0.202781 0)
(0.49807 0.210255 0)
(0.488391 0.214494 0)
(0.477719 0.215781 0)
(0.466294 0.214105 0)
(0.454541 0.210143 0)
(0.442694 0.204366 0)
(0.430993 0.197221 0)
(0.41958 0.18909 0)
(0.40855 0.180299 0)
(0.397976 0.171123 0)
(0.387904 0.16179 0)
(0.378353 0.152475 0)
(0.369326 0.143304 0)
(0.360806 0.134364 0)
(0.352763 0.125712 0)
(0.34516 0.117378 0)
(0.33796 0.109367 0)
(0.331123 0.101667 0)
(0.324609 0.0942593 0)
(0.318392 0.0871053 0)
(0.312445 0.0801745 0)
(0.306748 0.0734139 0)
(0.301309 0.0667913 0)
(0.296117 0.0602679 0)
(0.291189 0.0538004 0)
(0.286537 0.0473758 0)
(0.282183 0.0409498 0)
(0.278156 0.0345355 0)
(0.27447 0.0280952 0)
(0.271164 0.021677 0)
(0.268255 0.0152362 0)
(0.265758 0.00880643 0)
(0.2637 0.0024286 0)
(0.262128 -0.00393316 0)
(0.260982 -0.0101943 0)
(0.260324 -0.0163682 0)
(0.260143 -0.0224181 0)
(0.260429 -0.0283165 0)
(0.261176 -0.0340365 0)
(0.26237 -0.0395584 0)
(0.263997 -0.0448644 0)
(0.266037 -0.0499433 0)
(0.268473 -0.0547887 0)
(0.271287 -0.0594014 0)
(0.274472 -0.0637868 0)
(0.49137 0.128109 0)
(0.485742 0.147602 0)
(0.482098 0.16431 0)
(0.479787 0.18324 0)
(0.474464 0.197481 0)
(0.470035 0.209383 0)
(0.463975 0.218897 0)
(0.45683 0.222819 0)
(0.448381 0.226141 0)
(0.43906 0.224746 0)
(0.429558 0.221019 0)
(0.41987 0.215236 0)
(0.410159 0.207936 0)
(0.400547 0.199527 0)
(0.391148 0.190366 0)
(0.382055 0.180766 0)
(0.373328 0.170976 0)
(0.364993 0.161189 0)
(0.357055 0.151547 0)
(0.349506 0.142153 0)
(0.342326 0.133069 0)
(0.335483 0.124335 0)
(0.328939 0.115959 0)
(0.322664 0.107927 0)
(0.316621 0.100209 0)
(0.31079 0.0927698 0)
(0.305146 0.085559 0)
(0.299684 0.0785277 0)
(0.294413 0.0716345 0)
(0.289337 0.0648142 0)
(0.284474 0.0580548 0)
(0.279854 0.051284 0)
(0.275502 0.0445292 0)
(0.271461 0.0377054 0)
(0.267763 0.0308859 0)
(0.264439 0.0239992 0)
(0.261525 0.0171059 0)
(0.25904 0.0101795 0)
(0.257012 0.00329484 0)
(0.255471 -0.0035743 0)
(0.254434 -0.0103824 0)
(0.253872 -0.0170711 0)
(0.253828 -0.0236381 0)
(0.25428 -0.0300443 0)
(0.255219 -0.0362561 0)
(0.256626 -0.0422488 0)
(0.258481 -0.0480012 0)
(0.260759 -0.0534998 0)
(0.263435 -0.0587395 0)
(0.266484 -0.0637249 0)
(0.269892 -0.0684692 0)
(0.447718 0.13414 0)
(0.444877 0.149038 0)
(0.443054 0.168068 0)
(0.439001 0.185681 0)
(0.433731 0.201109 0)
(0.431687 0.214047 0)
(0.426154 0.223863 0)
(0.421617 0.231037 0)
(0.416562 0.232345 0)
(0.408307 0.233014 0)
(0.401301 0.229579 0)
(0.393823 0.223884 0)
(0.386275 0.216568 0)
(0.378693 0.208031 0)
(0.371189 0.198657 0)
(0.36385 0.188789 0)
(0.356728 0.178693 0)
(0.349854 0.168579 0)
(0.343241 0.158607 0)
(0.336886 0.148893 0)
(0.33077 0.139511 0)
(0.324866 0.130502 0)
(0.31914 0.12188 0)
(0.313556 0.113634 0)
(0.30809 0.105722 0)
(0.302723 0.0981024 0)
(0.297442 0.0907103 0)
(0.292252 0.0834995 0)
(0.287166 0.0764037 0)
(0.282206 0.0693686 0)
(0.277405 0.0623492 0)
(0.272802 0.0553101 0)
(0.268436 0.0482136 0)
(0.264357 0.0410629 0)
(0.260624 0.0338175 0)
(0.257247 0.0265244 0)
(0.254298 0.01914 0)
(0.251799 0.0117501 0)
(0.249781 0.00430021 0)
(0.248285 -0.00307525 0)
(0.247305 -0.0104314 0)
(0.246878 -0.0176803 0)
(0.246973 -0.0247921 0)
(0.247606 -0.0317311 0)
(0.248755 -0.0384598 0)
(0.250395 -0.0449448 0)
(0.252498 -0.0511608 0)
(0.25503 -0.0570902 0)
(0.257952 -0.0627275 0)
(0.261229 -0.0680816 0)
(0.264835 -0.0731757 0)
(0.402196 0.13857 0)
(0.401195 0.153502 0)
(0.400375 0.170337 0)
(0.396354 0.186564 0)
(0.391921 0.203242 0)
(0.389905 0.217162 0)
(0.388379 0.227192 0)
(0.383628 0.23539 0)
(0.379699 0.237812 0)
(0.376176 0.238214 0)
(0.36991 0.2353 0)
(0.364874 0.229997 0)
(0.359687 0.222837 0)
(0.35429 0.214328 0)
(0.348849 0.204911 0)
(0.343456 0.194934 0)
(0.338151 0.184686 0)
(0.33296 0.174399 0)
(0.327893 0.16425 0)
(0.322943 0.154367 0)
(0.318093 0.144836 0)
(0.313314 0.135703 0)
(0.30857 0.12698 0)
(0.303821 0.118656 0)
(0.299045 0.110691 0)
(0.294228 0.10302 0)
(0.289372 0.0955778 0)
(0.284489 0.0882934 0)
(0.279606 0.0810961 0)
(0.274762 0.0739293 0)
(0.270004 0.066727 0)
(0.265387 0.0594625 0)
(0.260973 0.0520821 0)
(0.256825 0.0445991 0)
(0.252998 0.0369736 0)
(0.249556 0.0292387 0)
(0.246543 0.0213971 0)
(0.244005 0.0134827 0)
(0.24198 0.00553072 0)
(0.240525 -0.00244059 0)
(0.239599 -0.0103525 0)
(0.239262 -0.0181937 0)
(0.239505 -0.0258874 0)
(0.24032 -0.0333946 0)
(0.241685 -0.0406683 0)
(0.243568 -0.047665 0)
(0.245927 -0.0543513 0)
(0.248707 -0.0607071 0)
(0.251853 -0.066724 0)
(0.255307 -0.0724167 0)
(0.259025 -0.0778231 0)
(0.354082 0.140859 0)
(0.354847 0.155774 0)
(0.354634 0.171768 0)
(0.351836 0.188707 0)
(0.348718 0.205323 0)
(0.347495 0.219585 0)
(0.34582 0.230741 0)
(0.344511 0.237155 0)
(0.342541 0.242011 0)
(0.339513 0.241296 0)
(0.336686 0.238821 0)
(0.333816 0.233802 0)
(0.330813 0.226775 0)
(0.327658 0.218345 0)
(0.324404 0.208965 0)
(0.321094 0.198996 0)
(0.317765 0.188738 0)
(0.314435 0.178429 0)
(0.311101 0.168256 0)
(0.307749 0.158362 0)
(0.304351 0.148844 0)
(0.300867 0.139753 0)
(0.297258 0.131104 0)
(0.293482 0.122869 0)
(0.28951 0.115007 0)
(0.285327 0.107441 0)
(0.280944 0.100095 0)
(0.276396 0.0928712 0)
(0.271721 0.0856931 0)
(0.266981 0.0784886 0)
(0.262238 0.0711924 0)
(0.257579 0.0637659 0)
(0.253066 0.0561598 0)
(0.248806 0.0483687 0)
(0.244851 0.0403911 0)
(0.241284 0.0322224 0)
(0.23817 0.0239161 0)
(0.235565 0.0154523 0)
(0.233509 0.00695415 0)
(0.232057 -0.00160463 0)
(0.231195 -0.0101339 0)
(0.230957 -0.0185835 0)
(0.231337 -0.0268912 0)
(0.232322 -0.034997 0)
(0.233881 -0.042841 0)
(0.235965 -0.0503664 0)
(0.238513 -0.0575253 0)
(0.241452 -0.0642834 0)
(0.244696 -0.0706324 0)
(0.248158 -0.0765947 0)
(0.251767 -0.0822249 0)
(0.303337 0.140126 0)
(0.305659 0.156276 0)
(0.307747 0.173372 0)
(0.305622 0.189467 0)
(0.302683 0.206561 0)
(0.302721 0.221163 0)
(0.302765 0.232168 0)
(0.302606 0.239696 0)
(0.302454 0.24284 0)
(0.302117 0.242986 0)
(0.301428 0.240309 0)
(0.300767 0.235257 0)
(0.300053 0.228312 0)
(0.299189 0.219994 0)
(0.298182 0.210728 0)
(0.297055 0.200872 0)
(0.295817 0.190722 0)
(0.294468 0.18052 0)
(0.293 0.170468 0)
(0.29139 0.160717 0)
(0.289592 0.151377 0)
(0.287553 0.142505 0)
(0.285208 0.134117 0)
(0.28251 0.12617 0)
(0.279424 0.118605 0)
(0.275942 0.111323 0)
(0.272069 0.104238 0)
(0.267859 0.0972306 0)
(0.263378 0.0902113 0)
(0.258711 0.0830833 0)
(0.253947 0.0757902 0)
(0.249186 0.0682707 0)
(0.244534 0.0604919 0)
(0.240091 0.0524388 0)
(0.235954 0.044101 0)
(0.232218 0.035513 0)
(0.228962 0.0267021 0)
(0.226255 0.017716 0)
(0.224151 0.0085936 0)
(0.222691 -0.000571598 0)
(0.221864 -0.00973247 0)
(0.221695 -0.0188297 0)
(0.22217 -0.0277765 0)
(0.223258 -0.0364924 0)
(0.224908 -0.0449022 0)
(0.227046 -0.0529352 0)
(0.229588 -0.060526 0)
(0.232431 -0.0676242 0)
(0.235462 -0.0742122 0)
(0.238566 -0.0803191 0)
(0.241646 -0.086029 0)
(0.251329 0.138678 0)
(0.256516 0.156378 0)
(0.257076 0.172572 0)
(0.255681 0.189077 0)
(0.256095 0.20649 0)
(0.256713 0.221008 0)
(0.257932 0.231946 0)
(0.259582 0.238958 0)
(0.261388 0.242231 0)
(0.263049 0.24207 0)
(0.264712 0.239234 0)
(0.266373 0.234175 0)
(0.267935 0.227346 0)
(0.269345 0.219192 0)
(0.270571 0.210123 0)
(0.271614 0.200473 0)
(0.272473 0.19053 0)
(0.273143 0.180546 0)
(0.2736 0.170737 0)
(0.273804 0.161275 0)
(0.273688 0.152282 0)
(0.273179 0.143816 0)
(0.272177 0.13589 0)
(0.270622 0.12845 0)
(0.268455 0.121407 0)
(0.26568 0.114631 0)
(0.262314 0.108001 0)
(0.258425 0.101384 0)
(0.254096 0.0946744 0)
(0.249453 0.0877583 0)
(0.244607 0.0805683 0)
(0.239695 0.0730335 0)
(0.234842 0.0651389 0)
(0.230183 0.0568515 0)
(0.225828 0.0481779 0)
(0.221903 0.039158 0)
(0.21849 0.0298258 0)
(0.215676 0.0202661 0)
(0.213506 0.0105297 0)
(0.212014 0.000707508 0)
(0.211186 -0.00911474 0)
(0.210995 -0.018861 0)
(0.211414 -0.028431 0)