/*--------------------------------*- C++ -*----------------------------------*\
  =========                 |
  \\      /  F ield         | OpenFOAM: The Open Source CFD Toolbox
   \\    /   O peration     | Website:  https://openfoam.org
    \\  /    A nd           | Version:  11
     \\/     M anipulation  |
\*---------------------------------------------------------------------------*/
FoamFile
{
    format      ascii;
    class       volScalarField;
    location    "8.5";
    object      mag(U);
}
// * * * * * * * * * * * * * * * * * * * * * * * * * * * * * * * * * * * * * //

dimensions      [0 1 -1 0 0 0 0];

internalField   nonuniform List<scalar> 
9600
(
0.990067
0.989643
0.98901
0.987944
0.987239
0.986379
0.985872
0.985966
0.986344
0.987022
0.988061
0.989578
0.99132
0.993216
0.995421
0.998143
1.001
1.00448
1.00857
1.0119
1.01382
1.0161
1.01957
1.02149
1.02131
1.02036
1.01839
1.01346
0.999426
0.980593
0.96903
0.96452
0.965126
0.975468
0.992052
1.00962
1.03014
1.04673
1.07389
1.07188
0.991282
0.991123
0.990955
0.990547
0.990103
0.99011
0.990514
0.991105
0.992165
0.993747
0.995151
0.996905
0.99939
1.00257
1.00574
1.00894
1.01245
1.01628
1.01993
1.02376
1.02809
1.03148
1.03263
1.03313
1.03451
1.03593
1.03602
1.03442
1.03177
1.03134
1.03041
1.02732
1.02563
1.0266
1.03022
1.03801
1.05338
1.0636
1.08617
1.08719
0.991143
0.990974
0.990762
0.990377
0.990365
0.990502
0.990928
0.991569
0.99244
0.993917
0.995448
0.9972
0.999444
1.00231
1.00598
1.00941
1.01255
1.01588
1.02001
1.02476
1.02895
1.03103
1.03163
1.03249
1.0347
1.03768
1.03959
1.03966
1.03836
1.03536
1.03044
1.02423
1.02035
1.0206
1.02717
1.03623
1.05137
1.06342
1.07978
1.08932
0.991077
0.990906
0.990686
0.990305
0.990229
0.990336
0.990907
0.991742
0.99301
0.993917
0.99587
0.998111
1.0006
1.00273
1.00632
1.01
1.01386
1.0165
1.01984
1.02424
1.02851
1.03116
1.03295
1.03406
1.03509
1.03614
1.03767
1.03788
1.03683
1.03484
1.03445
1.03397
1.03573
1.03616
1.04172
1.04609
1.05811
1.06641
1.08223
1.09141
0.990889
0.990705
0.990456
0.99015
0.990092
0.990432
0.990948
0.991949
0.993142
0.994463
0.996303
0.9982
1.0008
1.00339
1.00648
1.00951
1.0135
1.01752
1.02114
1.02383
1.02687
1.03038
1.03426
1.03661
1.03689
1.03618
1.03529
1.03544
1.03644
1.03735
1.03888
1.03985
1.04052
1.03788
1.04021
1.04242
1.05274
1.06228
1.07716
1.08698
0.99071
0.990554
0.990275
0.989996
0.990166
0.990341
0.99122
0.991982
0.993408
0.994342
0.996476
0.998647
1.00128
1.00337
1.0068
1.01008
1.01466
1.0175
1.02072
1.02357
1.02809
1.03154
1.03444
1.03569
1.03653
1.03648
1.03663
1.0365
1.0366
1.03665
1.03704
1.03694
1.03839
1.03786
1.04304
1.04519
1.05493
1.06285
1.07599
1.08864
0.990455
0.990347
0.990083
0.989857
0.990108
0.990289
0.991243
0.992166
0.993656
0.994483
0.996696
0.998917
1.00197
1.00358
1.0068
1.01044
1.01494
1.01782
1.02118
1.02399
1.02825
1.03148
1.0346
1.03644
1.03786
1.03774
1.03756
1.03677
1.03613
1.03573
1.03604
1.03594
1.03801
1.03763
1.04101
1.04144
1.04856
1.05579
1.0675
1.08361
0.99018
0.990156
0.989906
0.989671
0.989957
0.990183
0.991361
0.992171
0.993626
0.994627
0.996838
0.99887
1.00181
1.00415
1.00749
1.0102
1.0146
1.01844
1.02219
1.02471
1.02806
1.03099
1.03452
1.03754
1.03915
1.03887
1.03798
1.03712
1.03673
1.03619
1.03576
1.03517
1.03559
1.0344
1.03657
1.03715
1.04346
1.0524
1.06101
1.08091
0.989947
0.989897
0.989768
0.989539
0.989814
0.990181
0.991227
0.992233
0.99396
0.994782
0.99694
0.998988
1.00251
1.00473
1.00756
1.01025
1.01509
1.01892
1.02295
1.02504
1.02843
1.03163
1.03495
1.03782
1.0399
1.0403
1.03983
1.03871
1.03787
1.03643
1.03535
1.0338
1.03383
1.03276
1.03399
1.03443
1.03611
1.04426
1.0492
1.06986
0.989605
0.989579
0.989477
0.989288
0.989605
0.990007
0.991067
0.992191
0.99398
0.994712
0.996935
0.998951
1.00259
1.00475
1.00819
1.01061
1.01501
1.01886
1.02333
1.026
1.02934
1.03202
1.03484
1.03775
1.04056
1.04183
1.04173
1.03997
1.03844
1.0365
1.03547
1.0333
1.0328
1.031
1.03094
1.03122
1.02985
1.03718
1.03948
1.06102
0.989349
0.989302
0.989355
0.989098
0.989479
0.989949
0.991009
0.992018
0.994011
0.994993
0.997311
0.999036
1.00265
1.00546
1.00895
1.01118
1.01499
1.01901
1.024
1.02724
1.03005
1.03274
1.03542
1.0381
1.04146
1.04302
1.04342
1.04169
1.04034
1.03793
1.03667
1.03347
1.03205
1.02965
1.02805
1.02948
1.02637
1.03155
1.02921
1.04826
0.988829
0.98891
0.988901
0.988765
0.989124
0.98957
0.990839
0.991608
0.993786
0.995009
0.997245
0.998979
1.00267
1.0053
1.00906
1.01166
1.01541
1.01901
1.02395
1.02772
1.03075
1.03356
1.03645
1.03843
1.04144
1.04327
1.04493
1.0437
1.04253
1.03927
1.03769
1.03401
1.03179
1.02911
1.02576
1.02654
1.02233
1.02711
1.02144
1.0369
0.988529
0.988609
0.988738
0.988524
0.989024
0.989248
0.990805
0.99147
0.993582
0.994844
0.997677
0.999426
1.00284
1.00562
1.00954
1.01264
1.01622
1.01972
1.02435
1.02817
1.03192
1.03461
1.03797
1.03946
1.0425
1.04399
1.04639
1.04546
1.04503
1.04193
1.04008
1.03654
1.03269
1.02971
1.02391
1.02364
1.01853
1.02251
1.01556
1.02717
0.98792
0.987861
0.988204
0.987813
0.988557
0.988587
0.990159
0.991216
0.993036
0.994494
0.997184
0.999483
1.00261
1.00559
1.00931
1.01277
1.01693
1.02007
1.02449
1.02825
1.03284
1.03535
1.03907
1.04023
1.04345
1.04443
1.04715
1.04665
1.04698
1.04447
1.04236
1.0392
1.03419
1.03099
1.02375
1.02197
1.01486
1.01703
1.01038
1.01906
0.987551
0.987517
0.987981
0.987546
0.988317
0.988447
0.989969
0.990773
0.992983
0.994475
0.997075
0.999905
1.00292
1.00612
1.01
1.01341
1.0181
1.02076
1.02548
1.02896
1.03382
1.03638
1.04058
1.04181
1.04516
1.04597
1.04858
1.04856
1.04925
1.04781
1.04533
1.04337
1.03757
1.03404
1.02591
1.02256
1.01327
1.01314
1.00475
1.01155
0.986785
0.986644
0.987184
0.986685
0.987329
0.98765
0.989086
0.990028
0.992014
0.993714
0.996513
0.999388
1.0028
1.00569
1.01001
1.01309
1.01828
1.0213
1.02621
1.02925
1.03404
1.03656
1.04146
1.04309
1.04633
1.04726
1.04946
1.05028
1.05037
1.05042
1.04734
1.04624
1.04056
1.03703
1.0288
1.02449
1.0137
1.01121
1.00005
1.00433
0.986331
0.986271
0.986798
0.986351
0.987061
0.987268
0.988886
0.990326
0.9919
0.993725
0.996445
0.999171
1.00342
1.00612
1.01075
1.01359
1.01933
1.02276
1.0279
1.03071
1.03558
1.03762
1.04254
1.04472
1.04822
1.04972
1.05142
1.05272
1.05268
1.05384
1.05099
1.05042
1.0453
1.04175
1.03355
1.02861
1.01734
1.01284
0.999452
0.999919
0.985041
0.984991
0.985602
0.985246
0.98581
0.986221
0.98743
0.989031
0.991105
0.992666
0.995688
0.998051
1.00275
1.00562
1.01064
1.01346
1.01917
1.02276
1.02828
1.03123
1.03641
1.03877
1.04298
1.04533
1.04862
1.05107
1.05258
1.0548
1.05433
1.05632
1.05386
1.05331
1.04894
1.04572
1.03762
1.03249
1.02135
1.01571
1.00142
0.997563
0.984535
0.984581
0.985202
0.984916
0.985428
0.986029
0.987272
0.988615
0.991462
0.992791
0.996403
0.998528
1.00337
1.00606
1.01168
1.01465
1.02044
1.02376
1.02974
1.03262
1.03813
1.04109
1.04514
1.0476
1.05023
1.0532
1.05472
1.05782
1.05737
1.06
1.05816
1.05835
1.05437
1.05199
1.04447
1.03925
1.02832
1.02164
1.00699
1.00023
0.982785
0.982888
0.983461
0.983295
0.983835
0.984362
0.986257
0.987151
0.990196
0.991604
0.995387
0.997625
1.00278
1.00554
1.01117
1.01445
1.02048
1.02402
1.03003
1.03343
1.03807
1.04164
1.04541
1.0489
1.0511
1.05482
1.05554
1.05934
1.05913
1.06211
1.06131
1.06254
1.05903
1.05707
1.05052
1.04537
1.03528
1.02762
1.01448
1.00321
0.982071
0.982439
0.982883
0.982891
0.983619
0.983961
0.986146
0.987171
0.990493
0.992021
0.996197
0.998504
1.00378
1.00688
1.01267
1.01608
1.02212
1.02588
1.03161
1.03597
1.03993
1.04408
1.04691
1.05111
1.05264
1.05732
1.05788
1.06249
1.06237
1.06591
1.06538
1.06773
1.06568
1.06468
1.05938
1.05431
1.04569
1.03728
1.02576
1.0126
0.979757
0.980395
0.980837
0.980638
0.981691
0.981882
0.984223
0.985229
0.988941
0.990688
0.995155
0.997886
1.00318
1.0067
1.01264
1.01645
1.02219
1.02702
1.03148
1.03697
1.04033
1.0453
1.04719
1.05216
1.05303
1.05767
1.05829
1.06324
1.06395
1.06815
1.06856
1.07121
1.07065
1.07017
1.0672
1.06232
1.05617
1.04629
1.03753
1.02257
0.978994
0.97958
0.98036
0.980022
0.981297
0.981552
0.98423
0.985354
0.989186
0.991405
0.995904
0.999168
1.00462
1.00872
1.01432
1.01983
1.02409
1.0305
1.03427
1.0404
1.04282
1.04849
1.04976
1.05477
1.05534
1.05993
1.06064
1.06512
1.06637
1.0709
1.07275
1.07596
1.07753
1.07779
1.07728
1.07281
1.06961
1.06006
1.05323
1.0368
0.976246
0.976626
0.977696
0.977168
0.978675
0.978871
0.981747
0.98322
0.986999
0.989783
0.994146
0.998241
1.00287
1.00915
1.01331
1.02045
1.02448
1.03176
1.03494
1.04205
1.0441
1.05011
1.05087
1.05574
1.05637
1.06023
1.06105
1.06517
1.06732
1.07134
1.07465
1.07794
1.08189
1.08249
1.08567
1.08143
1.08179
1.07216
1.06957
1.05155
0.975525
0.975578
0.977144
0.976585
0.978262
0.978938
0.981307
0.984065
0.987042
0.991584
0.994713
1.00096
1.00445
1.0118
1.01589
1.02383
1.0276
1.03539
1.03861
1.04601
1.04766
1.05393
1.05477
1.05916
1.05953
1.06301
1.06408
1.0671
1.06973
1.07329
1.07795
1.08134
1.08752
1.08886
1.0949
1.09228
1.0963
1.08786
1.089
1.07144
0.972005
0.971888
0.973255
0.973455
0.973886
0.976396
0.977179
0.981974
0.983747
0.989814
0.992573
0.999697
1.00347
1.01138
1.01596
1.02398
1.02838
1.03654
1.0395
1.04702
1.04915
1.05471
1.05607
1.05944
1.06072
1.06279
1.06443
1.06637
1.06959
1.07231
1.07807
1.08133
1.0895
1.09188
1.10108
1.09999
1.1082
1.10114
1.10652
1.08996
0.969993
0.972047
0.971569
0.973822
0.973393
0.976801
0.977507
0.982861
0.984991
0.991233
0.995207
1.00178
1.00708
1.01468
1.02
1.02879
1.03313
1.04142
1.04545
1.05154
1.05528
1.05883
1.06157
1.06299
1.06503
1.06521
1.06662
1.06743
1.07006
1.07258
1.0785
1.08224
1.09148
1.09535
1.10744
1.10851
1.12097
1.11689
1.12677
1.11285
0.963343
0.966843
0.966036
0.968747
0.96828
0.97201
0.973932
0.978335
0.982515
0.988066
0.993218
1.0003
1.00582
1.0142
1.02002
1.02862
1.03499
1.0417
1.04792
1.05263
1.05762
1.0598
1.06355
1.06379
1.06589
1.06511
1.0656
1.06625
1.06688
1.06882
1.07373
1.07773
1.08698
1.09232
1.10628
1.11067
1.12716
1.12705
1.14238
1.13352
0.962371
0.965665
0.966063
0.96776
0.9696
0.971803
0.975285
0.979966
0.984637
0.990973
0.99709
1.00422
1.01146
1.01917
1.02769
1.03439
1.04322
1.04844
1.05654
1.05943
1.0656
1.06667
1.07044
1.06996
1.07071
1.06983
1.0682
1.06734
1.06695
1.06753
1.06989
1.07397
1.08219
1.08858
1.10281
1.11008
1.12952
1.13421
1.15576
1.15441
0.956495
0.958598
0.959648
0.961228
0.963396
0.966196
0.970601
0.975031
0.981474
0.987494
0.99538
1.00201
1.01195
1.01854
1.02947
1.03539
1.04649
1.0509
1.06042
1.06284
1.06979
1.07056
1.07385
1.07351
1.07296
1.07141
1.06885
1.06621
1.06419
1.06347
1.063
1.06515
1.06994
1.07594
1.08873
1.09837
1.11936
1.12966
1.15708
1.16363
0.956338
0.958457
0.961217
0.961809
0.966461
0.968175
0.974733
0.978631
0.987152
0.992245
1.00319
1.00913
1.02116
1.02741
1.04024
1.0458
1.05793
1.06243
1.072
1.07517
1.08104
1.0828
1.08469
1.08438
1.08275
1.08002
1.07591
1.07169
1.06649
1.06313
1.05967
1.05907
1.05988
1.06333
1.07227
1.08189
1.10056
1.11548
1.14462
1.16189
0.946281
0.947384
0.952221
0.952359
0.958733
0.960709
0.969359
0.973913
0.984045
0.990646
1.00209
1.00924
1.0225
1.02963
1.04373
1.04997
1.06257
1.06843
1.07735
1.08171
1.08693
1.08925
1.09033
1.08982
1.08748
1.08417
1.07841
1.07325
1.06585
1.06026
1.0533
1.04964
1.04585
1.04549
1.04621
1.05378
1.06283
1.08108
1.0999
1.13258
0.945371
0.947778
0.95301
0.955352
0.960467
0.966068
0.973428
0.98058
0.992035
0.999925
1.01427
1.02221
1.03739
1.04562
1.05957
1.06865
1.07977
1.08807
1.09568
1.1019
1.10598
1.10899
1.10925
1.1091
1.10528
1.10168
1.09432
1.08804
1.07754
1.07005
1.05798
1.05082
1.0391
1.0354
1.02502
1.02857
1.02325
1.03919
1.04135
1.07555
0.930206
0.934899
0.941306
0.945645
0.953821
0.95939
0.970617
0.977898
0.991891
1.00032
1.01588
1.02614
1.04124
1.05293
1.06646
1.0775
1.08835
1.098
1.10541
1.11248
1.11612
1.11999
1.11954
1.11985
1.11545
1.11228
1.10364
1.09818
1.08517
1.07776
1.06204
1.05335
1.03537
1.02813
1.00854
1.00706
0.9883
0.991889
0.979678
1.00135
0.928109
0.932272
0.940497
0.945259
0.955003
0.963246
0.975408
0.987998
1.00306
1.01864
1.03476
1.05081
1.0659
1.08161
1.09476
1.10902
1.11978
1.13162
1.13885
1.14743
1.15052
1.15558
1.15357
1.15528
1.14903
1.14764
1.13748
1.13331
1.11916
1.11148
1.09424
1.08349
1.06258
1.05022
1.02474
1.01238
0.98188
0.97245
0.937152
0.93782
0.913643
0.924566
0.935262
0.946066
0.956492
0.969554
0.982076
0.997453
1.01154
1.02927
1.045
1.064
1.07974
1.09832
1.11172
1.1281
1.13825
1.15204
1.15761
1.16862
1.16888
1.17721
1.17327
1.17871
1.1713
1.17419
1.16329
1.16381
1.14945
1.14635
1.12727
1.11755
1.09462
1.07945
1.05312
1.03302
1.00169
0.978048
0.937947
0.914421
0.903991
0.916607
0.928579
0.945232
0.961202
0.982285
1.00166
1.02601
1.04611
1.07015
1.08887
1.11101
1.12738
1.14704
1.16083
1.17742
1.18728
1.20064
1.20561
1.21554
1.21549
1.22205
1.21814
1.22199
1.21522
1.21732
1.20824
1.20923
1.19769
1.1971
1.18038
1.17735
1.15254
1.14311
1.10756
1.09008
1.05229
1.03096
0.990775
0.971146
0.907076
0.930839
0.949237
0.973046
0.991145
1.01529
1.03309
1.05805
1.07788
1.10397
1.1246
1.14973
1.16835
1.19059
1.20499
1.22359
1.23247
1.24693
1.25
1.26009
1.25783
1.26413
1.25771
1.26213
1.25327
1.2578
1.24869
1.25539
1.2471
1.25612
1.24428
1.2524
1.23103
1.23028
1.19084
1.17286
1.10629
1.0763
0.991849
0.977423
0.91951
0.955552
0.990287
1.02763
1.06085
1.09736
1.13118
1.1663
1.1972
1.22827
1.25483
1.28082
1.30217
1.32221
1.33789
1.35122
1.36092
1.36698
1.36966
1.3684
1.36297
1.35467
1.34246
1.33004
1.31248
1.29791
1.27982
1.26808
1.25602
1.25149
1.25221
1.25685
1.27003
1.27298
1.28334
1.27232
1.2239
1.17683
1.08643
1.07524
1.066
1.10308
1.1396
1.17631
1.21192
1.24534
1.27622
1.30385
1.32731
1.34955
1.36141
1.37799
1.38273
1.39465
1.39387
1.40002
1.38982
1.38712
1.36556
1.35366
1.32041
1.29922
1.25292
1.22205
1.16225
1.12446
1.05583
1.01113
0.942559
0.888305
0.835228
0.768722
0.762033
0.6605
0.257676
0.00580834
0.128038
0.219022
0.305581
0.339607
1.1084
1.12688
1.15329
1.21636
1.37903
1.37855
1.07453
0.666122
0.566137
0.63679
0.746113
0.869296
0.976369
1.00742
1.02242
1.02547
1.02456
1.02601
1.02222
1.02315
1.02
1.02042
1.01877
1.01904
1.01857
1.01871
1.01782
1.0178
1.01675
1.01654
1.01599
1.01563
1.01529
1.01445
1.01413
1.01339
1.01317
1.01264
1.01281
1.01179
1.11401
1.12929
1.16011
1.22731
1.35788
1.35659
1.03815
0.698858
0.622761
0.680713
0.775487
0.88857
0.997007
1.0242
1.03215
1.03282
1.02896
1.03008
1.02474
1.02592
1.02211
1.02226
1.0204
1.02007
1.01967
1.01965
1.01882
1.01876
1.01774
1.01727
1.01686
1.01625
1.01627
1.01531
1.01514
1.01415
1.01402
1.01342
1.01315
1.01055
1.11253
1.12405
1.15493
1.21707
1.32705
1.36373
1.1054
0.76849
0.66967
0.716478
0.801559
0.924899
1.02634
1.0506
1.04798
1.04317
1.03483
1.03452
1.02714
1.0279
1.02352
1.02364
1.02154
1.02102
1.02051
1.02044
1.01951
1.0196
1.01855
1.01825
1.01765
1.01695
1.01681
1.01591
1.01572
1.01469
1.01456
1.01413
1.01416
1.01382
1.11099
1.12209
1.15061
1.1993
1.28402
1.33069
1.10823
0.842901
0.750909
0.754886
0.829212
0.956224
1.05377
1.07839
1.06293
1.05362
1.04059
1.03915
1.03002
1.03033
1.02543
1.02497
1.02289
1.02161
1.02105
1.02101
1.01992
1.02018
1.01912
1.01891
1.01824
1.01765
1.0173
1.01653
1.01626
1.01526
1.01489
1.0144
1.01434
1.01397
1.10668
1.11458
1.13735
1.15463
1.23371
1.28926
1.12819
0.889393
0.800353
0.778846
0.849739
1.00353
1.09651
1.11598
1.08633
1.06676
1.04911
1.04451
1.03324
1.03243
1.02702
1.02619
1.02405
1.02244
1.02166
1.02156
1.02036
1.02068
1.01954
1.01935
1.01853
1.01802
1.01747
1.01688
1.0165
1.01578
1.01562
1.01506
1.01459
1.01343
1.10134
1.10573
1.11946
1.10682
1.1709
1.22193
1.08728
0.895639
0.81543
0.790836
0.872562
1.02497
1.13811
1.15371
1.11159
1.08007
1.05809
1.05049
1.03747
1.0354
1.02943
1.02783
1.02583
1.02365
1.0227
1.02231
1.021
1.02132
1.02009
1.02003
1.01907
1.01869
1.01794
1.01762
1.01693
1.01633
1.01589
1.01571
1.01561
1.01588
1.09133
1.09236
1.09131
1.05594
1.09681
1.15759
1.05071
0.89699
0.812665
0.7908
0.877822
1.03859
1.19226
1.20007
1.14631
1.09611
1.06913
1.0573
1.04229
1.03839
1.03213
1.02968
1.02799
1.02542
1.02438
1.02364
1.02224
1.0224
1.02104
1.02114
1.01986
1.01965
1.01866
1.01856
1.01776
1.01748
1.01672
1.01625
1.01558
1.01416
1.08014
1.07715
1.06066
1.01003
1.02078
1.07108
0.98402
0.865083
0.787982
0.777383
0.867968
1.04063
1.22198
1.25058
1.18339
1.11266
1.07929
1.06405
1.04695
1.0415
1.03487
1.03111
1.02977
1.02667
1.02593
1.02478
1.02333
1.02332
1.022
1.02206
1.02078
1.02062
1.01943
1.01919
1.01823
1.01805
1.01726
1.01715
1.01694
1.01708
1.06427
1.06025
1.02929
0.963977
0.947645
0.983222
0.920386
0.820539
0.760712
0.748863
0.837714
1.02687
1.23723
1.30239
1.22846
1.13366
1.08992
1.07121
1.05167
1.0443
1.03728
1.03252
1.03111
1.0278
1.02692
1.02564
1.02422
1.02403
1.02264
1.02259
1.02135
1.02124
1.02004
1.01979
1.01894
1.01869
1.01777
1.01737
1.01686
1.01587
1.05054
1.04139
1.00427
0.922331
0.876325
0.88234
0.846885
0.77067
0.722972
0.704707
0.783552
0.994287
1.23654
1.32718
1.27389
1.1569
1.1009
1.07776
1.05658
1.04715
1.03944
1.03426
1.03223
1.02892
1.02778
1.02632
1.02487
1.02456
1.0232
1.02311
1.02188
1.02171
1.02035
1.0199
1.01919
1.01885
1.01839
1.01804
1.01787
1.01778
1.03614
1.01927
0.981113
0.889193
0.819661
0.806694
0.788307
0.731192
0.683854
0.660679
0.72657
0.963187
1.23211
1.32511
1.30983
1.18335
1.1142
1.08421
1.06237
1.05036
1.04215
1.03673
1.03389
1.03067
1.02915
1.02754
1.02607
1.02553
1.02408
1.02392
1.02277
1.02252
1.02152
1.02073
1.02012
1.01933
1.01889
1.01819
1.01786
1.01718
1.0253
0.999494
0.960742
0.873668
0.782802
0.751394
0.743011
0.701991
0.654175
0.633708
0.710114
0.967078
1.2436
1.31761
1.30835
1.20571
1.12674
1.08806
1.06773
1.05323
1.04464
1.03937
1.03565
1.03266
1.03093
1.02915
1.02783
1.02708
1.02563
1.02528
1.02418
1.0236
1.02298
1.0219
1.02136
1.02034
1.02014
1.01918
1.01881
1.01851
1.01265
0.983931
0.942072
0.87133
0.780561
0.740743
0.729057
0.701819
0.666327
0.668787
0.774845
1.04404
1.27858
1.29994
1.26821
1.21704
1.13592
1.08972
1.07204
1.05523
1.04632
1.04151
1.03688
1.03449
1.03223
1.03054
1.02923
1.02816
1.02703
1.02625
1.02534
1.02456
1.02389
1.02318
1.02246
1.02143
1.02088
1.01988
1.01933
1.01855
1.00253
0.973536
0.930772
0.877434
0.797792
0.759886
0.74984
0.736961
0.725284
0.763613
0.903601
1.13219
1.29332
1.2677
1.21089
1.20153
1.13828
1.09
1.07331
1.05611
1.04612
1.04207
1.03717
1.03522
1.03286
1.03108
1.02975
1.02866
1.0276
1.0267
1.0258
1.02506
1.02433
1.02379
1.02299
1.0225
1.02156
1.02086
1.02012
1.01982
0.991755
0.964375
0.924285
0.885957
0.830995
0.797848
0.792088
0.805093
0.819467
0.887016
1.01418
1.15396
1.27133
1.23083
1.16263
1.15361
1.13615
1.08771
1.0703
1.05726
1.04599
1.04319
1.0377
1.03558
1.03358
1.03175
1.03042
1.02915
1.02831
1.02725
1.02631
1.0257
1.02469
1.02447
1.02338
1.02308
1.02209
1.02159
1.02072
1.02012
0.984353
0.961563
0.92725
0.8951
0.858152
0.836562
0.834684
0.857503
0.887594
0.954393
1.04616
1.14909
1.23113
1.19321
1.11224
1.08709
1.11953
1.07916
1.06476
1.0575
1.04648
1.04461
1.03924
1.03683
1.03536
1.03345
1.03229
1.03073
1.02999
1.02877
1.02747
1.02678
1.02562
1.02513
1.02414
1.02365
1.0227
1.02231
1.02156
1.02117
0.981007
0.959201
0.934102
0.909033
0.886944
0.877711
0.877879
0.902607
0.933378
0.987168
1.05309
1.13073
1.1797
1.15391
1.05603
1.02237
1.08332
1.06754
1.05546
1.0542
1.04471
1.04399
1.04075
1.0375
1.03675
1.03459
1.03379
1.03241
1.03155
1.03071
1.02961
1.02873
1.02762
1.02664
1.02579
1.02491
1.02411
1.02328
1.02251
1.02193
0.982729
0.963934
0.948659
0.928058
0.912228
0.910894
0.917689
0.940088
0.96443
1.00337
1.04802
1.10086
1.12736
1.10822
0.997351
0.961844
1.03363
1.05118
1.03945
1.04496
1.03979
1.03918
1.03937
1.03647
1.03657
1.03486
1.03428
1.03317
1.03219
1.03154
1.03057
1.02996
1.02907
1.0283
1.02747
1.02644
1.02558
1.02446
1.02392
1.02303
0.987611
0.969618
0.961811
0.953244
0.948622
0.948792
0.958502
0.979142
0.996439
1.01528
1.04167
1.0679
1.07593
1.05244
0.942126
0.902438
0.984383
1.02854
1.02267
1.0328
1.0335
1.03258
1.03615
1.03426
1.03518
1.0342
1.03404
1.03366
1.0325
1.03202
1.03105
1.03056
1.02976
1.0291
1.02832
1.02739
1.02657
1.0255
1.02493
1.02442
0.994237
0.985553
0.981173
0.978186
0.983466
0.985884
0.998148
1.01848
1.03371
1.03937
1.04217
1.0386
1.03113
0.991566
0.884356
0.839407
0.942305
0.996693
1.0053
1.01845
1.02711
1.02741
1.03304
1.03204
1.03368
1.03365
1.03382
1.03396
1.03322
1.03262
1.03162
1.03122
1.03033
1.02989
1.02895
1.02814
1.02736
1.02649
1.02565
1.0251
1.00522
1.00206
0.999507
1.00652
1.02229
1.03038
1.04348
1.06018
1.07341
1.06771
1.03822
1.01415
0.981941
0.919571
0.818298
0.781525
0.901432
0.964152
0.986076
1.00315
1.0191
1.02212
1.02956
1.03014
1.03241
1.03347
1.03369
1.03399
1.03398
1.03377
1.03274
1.03203
1.03105
1.03051
1.0296
1.02878
1.02802
1.02741
1.02689
1.02653
1.01712
1.02247
1.02659
1.04058
1.05541
1.06974
1.0898
1.10506
1.11953
1.07332
1.02662
0.974457
0.917789
0.830278
0.745257
0.735217
0.859516
0.931987
0.963976
0.98645
1.00484
1.01335
1.02351
1.02766
1.03018
1.03258
1.03319
1.03395
1.03423
1.03442
1.03421
1.0337
1.03287
1.03181
1.03134
1.03022
1.02938
1.02839
1.02773
1.02728
1.03615
1.04546
1.04834
1.07557
1.09718
1.11983
1.14222
1.16058
1.14702
1.07159
0.994646
0.910658
0.825218
0.723319
0.674899
0.706591
0.830258
0.902705
0.938147
0.969777
0.987822
1.00348
1.01486
1.02328
1.02694
1.03075
1.03218
1.03353
1.03414
1.03464
1.03474
1.03464
1.03448
1.03376
1.0332
1.03227
1.03135
1.03046
1.02982
1.02927
1.05408
1.06994
1.08195
1.11305
1.13883
1.17745
1.20054
1.22079
1.1535
1.0481
0.929045
0.813423
0.70606
0.617427
0.61794
0.693054
0.813172
0.87476
0.913696
0.954003
0.972938
0.99408
1.00535
1.01547
1.02227
1.02726
1.03024
1.0324
1.03371
1.03468
1.03513
1.0352
1.03537
1.0348
1.03416
1.03331
1.03239
1.03159
1.03086
1.03036
1.07965
1.097
1.11657
1.15031
1.1878
1.24775
1.27627
1.25277
1.14161
0.979944
0.816075
0.68011
0.575944
0.544058
0.592709
0.695284
0.797325
0.854002
0.898586
0.938004
0.962344
0.981123
0.99598
1.00707
1.01612
1.02204
1.02705
1.03005
1.03242
1.03378
1.03502
1.03518
1.03576
1.03555
1.03557
1.03473
1.03438
1.03339
1.033
1.03253
1.10512
1.12232
1.15829
1.19685
1.25523
1.3216
1.33953
1.25754
1.07291
0.84435
0.649855
0.527759
0.493913
0.529396
0.60769
0.708843
0.785646
0.843372
0.890507
0.923671
0.952752
0.97183
0.989586
1.00021
1.01161
1.01751
1.02432
1.02757
1.03123
1.03288
1.03493
1.0352
1.03627
1.03599
1.03627
1.03558
1.03542
1.03442
1.03423
1.03385
1.13013
1.15882
1.19991
1.24073
1.33956
1.40406
1.36342
1.20274
0.91175
0.643728
0.478769
0.463738
0.522965
0.577942
0.654987
0.734621
0.78826
0.841741
0.88774
0.917235
0.946852
0.967791
0.98536
0.996376
1.00954
1.01453
1.02302
1.02608
1.03106
1.03257
1.03544
1.03596
1.03764
1.03737
1.03821
1.0374
1.03764
1.03651
1.03644
1.03589
1.15262
1.18896
1.2351
1.30725
1.43672
1.43606
1.33478
1.05435
0.694301
0.508537
0.521871
0.592046
0.625733
0.65334
0.713511
0.764976
0.811093
0.852317
0.89208
0.921872
0.945129
0.966643
0.98369
0.994767
1.00788
1.01376
1.02276
1.02556
1.03115
1.03225
1.03589
1.03594
1.03807
1.03735
1.0385
1.03754
1.03816
1.03731
1.03782
1.03763
1.17883
1.22588
1.27685
1.39436
1.47684
1.4098
1.16864
0.838561
0.692956
0.728137
0.752371
0.741127
0.72165
0.734365
0.772753
0.807049
0.848377
0.878078
0.9042
0.93366
0.950977
0.969596
0.985405
0.995254
1.00662
1.01353
1.0202
1.02446
1.0298
1.03165
1.03584
1.03611
1.03871
1.03785
1.0395
1.03841
1.03936
1.03832
1.03897
1.03849
1.19634
1.24177
1.31334
1.43215
1.39205
1.17067
0.917277
0.877011
0.883485
0.885574
0.853518
0.819232
0.809574
0.827681
0.847184
0.867784
0.897842
0.913532
0.931223
0.952564
0.965893
0.978672
0.992055
1.00016
1.00788
1.01515
1.02021
1.02477
1.02908
1.03217
1.03526
1.03674
1.03922
1.03975
1.04169
1.04132
1.0425
1.04175
1.04263
1.0423
1.19567
1.23218
1.31438
1.31475
1.11813
0.8994
0.886558
0.900117
0.898729
0.892122
0.856554
0.853351
0.869679
0.900151
0.925205
0.952811
0.960872
0.969846
0.977298
0.982801
0.992277
0.999428
1.00737
1.01417
1.01989
1.02435
1.02975
1.03248
1.03673
1.03966
1.04142
1.04446
1.0446
1.04708
1.046
1.04642
1.0451
1.04452
1.04403
1.04382
1.15202
1.18255
1.2007
1.06245
0.791883
0.768691
0.78919
0.797319
0.80637
0.811936
0.816028
0.852053
0.881971
0.926517
0.961643
1.0011
1.02411
1.04358
1.03621
1.03746
1.03338
1.03641
1.03782
1.04086
1.04476
1.04439
1.04954
1.04662
1.0504
1.04932
1.05082
1.05268
1.05145
1.05464
1.05132
1.05362
1.05049
1.05168
1.05027
1.05086
1.07359
1.07358
1.00616
0.744435
0.571464
0.566416
0.589755
0.608975
0.646595
0.689773
0.746849
0.81098
0.866641
0.92375
0.972198
1.01506
1.05189
1.07893
1.09416
1.10044
1.08607
1.08541
1.07565
1.07777
1.07352
1.07134
1.07169
1.06685
1.06743
1.06267
1.06304
1.06056
1.05931
1.05827
1.05616
1.0558
1.05435
1.05481
1.05501
1.05549
0.971375
0.920949
0.813688
0.51451
0.34873
0.336291
0.346734
0.378936
0.44525
0.518941
0.618165
0.712592
0.808904
0.889277
0.964383
1.01577
1.06166
1.08951
1.1167
1.13104
1.14061
1.13182
1.12168
1.11799
1.10605
1.10478
1.0958
1.09617
1.091
1.08951
1.08603
1.08378
1.0801
1.07724
1.07466
1.07063
1.06958
1.06635
1.06887
1.06762
0.894386
0.806253
0.705766
0.478032
0.308897
0.239416
0.152558
0.134145
0.184814
0.275266
0.401724
0.531231
0.670667
0.799238
0.906166
0.987484
1.05068
1.09363
1.125
1.14565
1.1666
1.17185
1.176
1.16835
1.16558
1.15449
1.14364
1.13795
1.13211
1.12776
1.12282
1.11931
1.11357
1.11102
1.10673
1.10359
1.09968
1.09428
1.09044
1.08838
0.871
0.770284
0.693578
0.563903
0.432718
0.430669
0.387101
0.313465
0.205147
0.103168
0.0692112
0.226484
0.406608
0.590643
0.748395
0.888954
0.98672
1.06328
1.11341
1.15026
1.175
1.19234
1.203
1.20803
1.21291
1.21327
1.21042
1.20205
1.19704
1.18719
1.18432
1.17677
1.17291
1.16842
1.1629
1.15747
1.15064
1.14319
1.13305
1.12674
0.917382
0.840514
0.749205
0.685191
0.616195
0.596686
0.664265
0.672488
0.597221
0.489707
0.371361
0.238427
0.170954
0.295455
0.494917
0.681528
0.827669
0.944042
1.02543
1.09509
1.14284
1.18045
1.20311
1.22014
1.22827
1.23555
1.23841
1.24064
1.24051
1.23743
1.23381
1.22986
1.22629
1.22288
1.21917
1.21428
1.20995
1.2042
1.19951
1.19101
0.912062
0.842529
0.770541
0.711524
0.666586
0.651393
0.666479
0.742596
0.796833
0.776848
0.749426
0.675639
0.590379
0.496988
0.385909
0.368498
0.445287
0.556066
0.666563
0.773212
0.883859
0.987668
1.07362
1.12989
1.17489
1.20995
1.22766
1.2423
1.24731
1.25104
1.24936
1.24757
1.24314
1.23864
1.23952
1.23836
1.23658
1.23699
1.23959
1.24228
0.946199
0.809573
0.681428
0.606775
0.482682
0.349461
0.388945
0.515525
0.608187
0.634714
0.644648
0.634737
0.629977
0.620461
0.622445
0.642934
0.631711
0.588316
0.577282
0.514924
0.361576
0.355944
0.419851
0.517704
0.61552
0.72752
0.824666
0.904463
0.968962
1.02938
1.07633
1.12395
1.1569
1.18869
1.20839
1.23257
1.2511
1.26771
1.2827
1.29047
0.347292
0.332069
0.319521
0.327089
0.32943
0.338356
0.352192
0.358466
0.356959
0.367023
0.377461
0.396369
0.423735
0.458352
0.500997
0.545631
0.576832
0.598133
0.607767
0.61926
0.609607
0.598437
0.574123
0.519299
0.455718
0.279084
0.323245
0.571368
0.627373
0.680898
0.721749
0.762227
0.797779
0.840769
0.878572
0.923838
0.962182
1.01557
1.06278
1.12438
1.01502
1.01157
1.00811
1.00333
0.99752
0.991081
0.985493
0.98214
0.982592
0.986671
0.995432
1.00531
1.01426
1.01643
1.01625
1.01468
1.01335
1.0128
1.0128
1.01267
1.01251
1.01217
1.01187
1.01158
1.01127
1.01094
1.01058
1.01021
1.00983
1.00945
1.00905
1.00862
1.00816
1.00768
1.00721
1.00674
1.00628
1.00582
1.0054
1.00515
1.00762
1.01188
1.01454
1.01871
1.0224
1.02598
1.02716
1.02787
1.0276
1.02533
1.02071
1.01563
1.01334
1.01291
1.01342
1.01429
1.015
1.01507
1.01489
1.01459
1.01427
1.01389
1.01342
1.01296
1.01256
1.01214
1.01164
1.01112
1.01067
1.01028
1.00988
1.00939
1.00886
1.00832
1.00776
1.00718
1.00662
1.00617
1.00577
1.00542
1.01359
1.0104
1.00783
1.00486
1.00336
1.00409
1.00604
1.00837
1.01056
1.01209
1.01311
1.01344
1.01352
1.01392
1.01446
1.01492
1.01513
1.01514
1.015
1.01476
1.0145
1.01418
1.01379
1.01333
1.0129
1.01251
1.01205
1.01155
1.01112
1.01079
1.01038
1.00993
1.00935
1.00882
1.00831
1.00783
1.00724
1.00682
1.00643
1.00617
1.01552
1.02081
1.02304
1.02664
1.02746
1.02814
1.02816
1.02745
1.02534
1.02236
1.01934
1.01681
1.01572
1.01557
1.01578
1.01581
1.0157
1.01543
1.01512
1.01492
1.01475
1.01448
1.01408
1.0136
1.01312
1.01266
1.0122
1.01175
1.01137
1.01102
1.01058
1.01005
1.0095
1.00895
1.00845
1.00796
1.00738
1.00693
1.00658
1.00624
1.01131
1.00971
1.00931
1.00933
1.01069
1.01169
1.01266
1.01329
1.01361
1.01416
1.01445
1.0147
1.01483
1.01516
1.01548
1.01562
1.01562
1.01558
1.01542
1.0151
1.01483
1.01457
1.01439
1.014
1.01353
1.01303
1.01255
1.01215
1.0118
1.01153
1.0111
1.01056
1.01003
1.00958
1.00903
1.00855
1.00801
1.00756
1.00714
1.00682
1.01821
1.02137
1.02278
1.024
1.02442
1.0245
1.02422
1.02335
1.02218
1.02089
1.01964
1.01858
1.0177
1.01705
1.01673
1.01666
1.01656
1.01626
1.01583
1.01543
1.01514
1.0149
1.0146
1.01413
1.01365
1.01314
1.01271
1.01232
1.01185
1.01151
1.01107
1.01057
1.01012
1.00958
1.00907
1.00859
1.00808
1.00762
1.00721
1.00696
1.01204
1.01213
1.01254
1.01324
1.01411
1.01451
1.01482
1.01515
1.01547
1.01594
1.01614
1.0163
1.01626
1.01626
1.0163
1.01646
1.01655
1.01642
1.01603
1.01565
1.0154
1.01531
1.01501
1.01459
1.01404
1.01367
1.01319
1.01291
1.01253
1.01215
1.01164
1.01119
1.01066
1.01025
1.00975
1.00923
1.00863
1.00821
1.00786
1.00746
1.01847
1.02032
1.02103
1.02167
1.0219
1.0219
1.02153
1.02106
1.02044
1.01994
1.01946
1.01898
1.01843
1.01794
1.01766
1.01751
1.01741
1.01702
1.01651
1.01615
1.01585
1.01552
1.01518
1.01471
1.01424
1.01372
1.01331
1.01296
1.01263
1.01224
1.01171
1.01124
1.0107
1.01031
1.00984
1.00929
1.00877
1.00838
1.00804
1.0077
1.01477
1.01531
1.01548
1.01584
1.01607
1.01633
1.01655
1.01691
1.01713
1.01739
1.01747
1.01753
1.01746
1.01744
1.0175
1.01767
1.01757
1.01723
1.01681
1.01663
1.01645
1.01626
1.01584
1.01546
1.01497
1.01449
1.01405
1.01378
1.01339
1.01295
1.01253
1.01201
1.01147
1.01107
1.01052
1.01
1.00949
1.00907
1.00859
1.00817
1.01859
1.01962
1.02
1.02039
1.02043
1.02056
1.02036
1.02032
1.02005
1.01999
1.01962
1.01937
1.01888
1.01873
1.01859
1.01858
1.01821
1.01769
1.01736
1.01712
1.01674
1.01637
1.01609
1.01562
1.01513
1.0147
1.0143
1.01393
1.01357
1.01308
1.01262
1.01209
1.01163
1.01125
1.01068