/*--------------------------------*- C++ -*----------------------------------*\
  =========                 |
  \\      /  F ield         | OpenFOAM: The Open Source CFD Toolbox
   \\    /   O peration     | Website:  https://openfoam.org
    \\  /    A nd           | Version:  11
     \\/     M anipulation  |
\*---------------------------------------------------------------------------*/
FoamFile
{
    format      ascii;
    class       volVectorField;
    location    "8.5";
    object      U;
}
// * * * * * * * * * * * * * * * * * * * * * * * * * * * * * * * * * * * * * //

dimensions      [0 1 -1 0 0 0 0];

internalField   nonuniform List<vector> 
9600
(
(0.990067 0.000540008 -4.39045e-21)
(0.989643 0.000405122 0)
(0.98901 0.000611028 -4.44418e-21)
(0.987944 0.000627002 4.3904e-21)
(0.987239 0.000730485 0)
(0.986379 0.000941999 2.20335e-21)
(0.985872 0.000671656 -4.34454e-21)
(0.985966 0.000476816 2.12478e-21)
(0.986344 0.000246077 2.04303e-21)
(0.987022 -2.15337e-05 -2.04789e-21)
(0.988061 -0.000297478 1.5061e-23)
(0.989578 -0.000474224 0)
(0.99132 -0.000725176 0)
(0.993215 -0.0010234 -7.8262e-22)
(0.99542 -0.00134415 7.10942e-23)
(0.998142 -0.0015014 7.15581e-22)
(1.001 -0.00188489 0)
(1.00448 -0.00229176 0)
(1.00857 -0.00204131 9.2249e-25)
(1.0119 -0.00125859 0)
(1.01382 -0.00104283 0)
(1.0161 -0.00190328 -6.54413e-25)
(1.01957 -0.00232963 1.23374e-24)
(1.02149 -0.00113266 -3.20585e-22)
(1.02131 -0.000139728 3.14601e-22)
(1.02036 0.000182093 3.48864e-22)
(1.01839 0.000706776 -3.51976e-22)
(1.01346 0.00239035 -8.58167e-22)
(0.999415 0.00476798 8.5037e-22)
(0.98058 0.00500022 0)
(0.969027 0.00252622 0)
(0.96452 0.000879027 1.16786e-21)
(0.965126 -0.000742782 -2.34465e-21)
(0.975463 -0.00296879 1.19107e-21)
(0.992042 -0.00441102 0)
(1.00961 -0.00451726 1.82846e-23)
(1.03013 -0.00353743 1.9176e-21)
(1.04672 -0.00380713 -1.89422e-21)
(1.07389 -0.000790509 -1.1178e-23)
(1.07188 -0.00209374 -1.11848e-21)
(0.991282 0.000480281 -4.50429e-21)
(0.991123 0.000358609 -6.44775e-23)
(0.990955 0.000151381 3.47889e-23)
(0.990547 -6.99506e-06 4.56959e-21)
(0.990103 -0.00018868 2.26438e-21)
(0.99011 -0.00049277 -2.26487e-21)
(0.990514 -0.000766629 3.47875e-23)
(0.991105 -0.000868823 1.72365e-23)
(0.992165 -0.000889885 -2.10815e-21)
(0.993747 -0.000857698 2.14589e-21)
(0.995151 -0.00079075 -1.57246e-23)
(0.996905 -0.000856676 2.96195e-23)
(0.99939 -0.000690247 8.33224e-22)
(1.00257 -0.000650005 -1.65758e-21)
(1.00574 -0.000608229 8.08161e-22)
(1.00894 -0.000782141 6.57109e-22)
(1.01245 -0.00053789 -6.61869e-22)
(1.01628 -0.000509269 2.60402e-22)
(1.01993 -0.000642645 -2.57213e-22)
(1.02376 -0.000552054 0)
(1.02809 -0.000361809 0)
(1.03148 -1.40627e-05 -1.64154e-22)
(1.03263 0.000406269 1.6231e-22)
(1.03313 0.000438491 2.49422e-24)
(1.03451 0.000401638 0)
(1.03593 0.000787421 3.66186e-22)
(1.03602 0.0015075 3.39815e-23)
(1.03441 0.00340245 4.72143e-22)
(1.03175 0.00562317 -8.51036e-22)
(1.03133 0.00553327 -1.53386e-23)
(1.0304 0.00410747 1.08147e-21)
(1.02732 0.000874824 -1.09538e-21)
(1.02563 -0.00164404 1.23689e-21)
(1.02658 -0.00560337 -2.45776e-21)
(1.0302 -0.00628826 1.19941e-21)
(1.03797 -0.00920876 -1.86767e-23)
(1.05335 -0.00836657 -1.72358e-23)
(1.06354 -0.0113859 0)
(1.08613 -0.00951491 1.15397e-23)
(1.08718 -0.00337164 -9.90293e-22)
(0.991143 0.000427882 0)
(0.990974 0.000255101 4.67845e-21)
(0.990762 0.000312964 -4.62499e-21)
(0.990377 0.000327675 0)
(0.990365 0.000287145 0)
(0.990502 0.000235813 -7.10692e-23)
(0.990928 0.000210623 -1.06465e-22)
(0.991569 -0.00012765 0)
(0.99244 -0.000626391 -2.21116e-21)
(0.993917 -0.000990353 2.11546e-21)
(0.995447 -0.00134015 0)
(0.997198 -0.00189847 -3.03349e-23)
(0.999441 -0.00262753 2.85225e-23)
(1.00231 -0.00311558 0)
(1.00597 -0.00330322 -7.49915e-22)
(1.0094 -0.00353297 7.38618e-22)
(1.01254 -0.00406713 1.95489e-23)
(1.01587 -0.00466367 -4.34734e-24)
(1.02 -0.0044276 -1.11449e-22)
(1.02475 -0.00384771 1.15277e-22)
(1.02894 -0.00347012 9.18505e-23)
(1.03103 -0.00319807 -9.59076e-23)
(1.03163 -0.00277078 2.57648e-24)
(1.03249 -0.0019513 -3.25047e-22)
(1.0347 -0.00120257 3.19688e-22)
(1.03768 -0.000594885 3.46285e-22)
(1.03959 0.00083618 -3.61977e-22)
(1.03965 0.00336727 8.60766e-22)
(1.03834 0.00604838 -8.591e-22)
(1.03534 0.00676518 1.58179e-23)
(1.03042 0.00637529 0)
(1.02422 0.00449602 1.18585e-21)
(1.02035 0.00133253 -2.43635e-21)
(1.02059 -0.00402754 1.22809e-21)
(1.02714 -0.00834563 1.31566e-21)
(1.03614 -0.0139435 -3.76113e-21)
(1.05127 -0.0144582 1.74979e-22)
(1.06326 -0.0182757 2.29491e-21)
(1.07965 -0.0165904 -3.0314e-23)
(1.08919 -0.0166324 -3.65313e-24)
(0.991077 0.000613475 -9.45981e-21)
(0.990906 0.000365967 4.72013e-21)
(0.990686 0.000422778 4.72927e-21)
(0.990305 0.000297559 -4.75171e-21)
(0.990229 5.47821e-05 0)
(0.990336 -0.000396571 2.41227e-21)
(0.990907 -0.000745194 -2.27477e-21)
(0.991741 -0.00130959 2.31999e-21)
(0.993008 -0.00184019 -7.00784e-23)
(0.993914 -0.00223395 -2.18952e-21)
(0.995867 -0.00237707 -1.94812e-21)
(0.998107 -0.00291068 3.97887e-21)
(1.0006 -0.00312472 -1.01736e-21)
(1.00272 -0.0036345 -1.70501e-21)
(1.00631 -0.00370577 8.18647e-22)
(1.00999 -0.0037627 6.92466e-22)
(1.01385 -0.00344872 -6.81023e-22)
(1.01649 -0.00378884 -8.69137e-24)
(1.01983 -0.00435952 -3.88485e-24)
(1.02423 -0.00423354 0)
(1.02851 -0.00296762 0)
(1.03116 -0.00131491 2.77339e-24)
(1.03295 -0.000358267 0)
(1.03406 -0.000665379 0)
(1.03509 -0.00139801 -4.93748e-24)
(1.03614 -0.00127679 1.0927e-23)
(1.03767 0.000261384 -3.83134e-22)
(1.03787 0.00334436 -4.50785e-22)
(1.03681 0.00655642 8.97594e-22)
(1.03481 0.00763345 -1.04632e-21)
(1.03442 0.00758179 1.03423e-21)
(1.03395 0.00572028 3.59531e-23)
(1.03573 0.00253475 1.21719e-21)
(1.03615 -0.00493054 -1.2549e-21)
(1.04168 -0.00854898 -1.28644e-21)
(1.04599 -0.0145416 -1.29926e-21)
(1.05797 -0.0174117 1.21032e-22)
(1.06628 -0.0168889 2.48074e-21)
(1.082 -0.0224146 3.10098e-23)
(1.09132 -0.0142251 2.47463e-23)
(0.990889 0.000610538 0)
(0.990705 0.000288363 4.98471e-21)
(0.990456 0.000336634 -9.85765e-21)
(0.99015 0.000206662 4.87566e-21)
(0.990092 -0.000128679 0)
(0.990432 -0.000594198 0)
(0.990948 -0.000910825 0)
(0.991948 -0.00161368 7.21522e-23)
(0.99314 -0.00198881 -2.15214e-21)
(0.99446 -0.00254856 2.22935e-21)
(0.996298 -0.00324785 -6.59783e-23)
(0.998193 -0.00375211 1.86741e-21)
(1.00079 -0.00435368 -2.83375e-21)
(1.00338 -0.00509653 9.01346e-22)
(1.00646 -0.00583189 0)
(1.00949 -0.00598122 6.57268e-22)
(1.01348 -0.00610755 -6.80543e-22)
(1.0175 -0.00649591 8.91502e-24)
(1.02112 -0.0068942 0)
(1.02381 -0.00661582 0)
(1.02685 -0.00555115 -9.33874e-23)
(1.03037 -0.00451052 9.33546e-23)
(1.03425 -0.00345613 0)
(1.03661 -0.00231386 -3.27078e-22)
(1.03689 -0.00174167 3.33255e-22)
(1.03618 -0.00151539 3.55815e-22)
(1.03529 -0.000495673 -3.47125e-22)
(1.03544 0.00220862 8.37349e-22)
(1.03642 0.00586877 -8.93236e-22)
(1.03732 0.00772876 -3.08751e-23)
(1.03885 0.00776264 0)
(1.03983 0.00638779 -3.72958e-23)
(1.04051 0.00383628 -1.24887e-21)
(1.03788 -0.00206015 1.2844e-21)
(1.04017 -0.00861365 -4.25535e-23)
(1.04229 -0.0162192 0)
(1.0525 -0.0224961 0)
(1.06199 -0.0250224 2.49282e-21)
(1.07675 -0.0296378 -2.40896e-21)
(1.08663 -0.0276485 6.78548e-23)
(0.99071 0.000676487 -4.83584e-21)
(0.990554 0.000240783 -1.54608e-22)
(0.990275 0.000270206 1.54975e-22)
(0.989996 -3.49275e-05 1.55343e-22)
(0.990166 -0.000280225 0)
(0.990341 -0.000956608 0)
(0.991219 -0.00136102 0)
(0.99198 -0.00220341 2.1906e-21)
(0.993404 -0.00287174 -4.76037e-21)
(0.994335 -0.0037033 2.1366e-21)
(0.996468 -0.00410453 0)
(0.998635 -0.00492118 1.89884e-21)
(1.00126 -0.00556776 -1.96614e-21)
(1.00335 -0.00643156 -8.40929e-22)
(1.00678 -0.00660237 8.42307e-22)
(1.01006 -0.0068716 2.25684e-23)
(1.01464 -0.00698966 -2.00903e-23)
(1.01747 -0.00723584 0)
(1.02069 -0.00725369 7.72888e-24)
(1.02355 -0.0069784 0)
(1.02807 -0.0058757 -1.50451e-24)
(1.03153 -0.00460965 -5.44364e-24)
(1.03443 -0.00325335 0)
(1.03569 -0.00199367 3.34795e-22)
(1.03653 -0.00134489 -3.34538e-22)
(1.03648 -0.000921252 3.35869e-22)
(1.03663 -0.000171084 -3.78463e-22)
(1.0365 0.00196354 -8.362e-22)
(1.03659 0.00491385 8.34665e-22)
(1.03663 0.00646259 8.97103e-25)
(1.03702 0.00668942 6.67552e-23)
(1.03692 0.00619016 -7.23059e-23)
(1.03838 0.00496519 1.29872e-21)
(1.03786 0.000222756 -2.67511e-21)
(1.04302 -0.00664406 1.37569e-21)
(1.0451 -0.0137358 0)
(1.05467 -0.0233248 9.18656e-23)
(1.06257 -0.024196 -9.08602e-23)
(1.07548 -0.0330262 -7.91844e-23)
(1.08829 -0.0276064 2.239e-21)
(0.990455 0.000588313 -1.88143e-22)
(0.990347 8.48902e-05 -1.00141e-20)
(0.990083 9.17345e-05 1.62079e-22)
(0.989857 -0.000242831 4.93324e-21)
(0.990108 -0.000521203 0)
(0.990288 -0.00134689 1.57721e-22)
(0.991241 -0.00179153 1.55289e-22)
(0.992161 -0.00303613 0)
(0.99365 -0.00351352 2.46721e-21)
(0.994473 -0.00447137 -2.03899e-21)
(0.996682 -0.00537536 0)
(0.998898 -0.0061147 1.29099e-22)
(1.00195 -0.00657085 -9.27563e-22)
(1.00355 -0.00745936 9.29313e-22)
(1.00676 -0.00849766 0)
(1.0104 -0.0090961 6.71771e-22)
(1.0149 -0.00880502 -6.9535e-22)
(1.01778 -0.00862247 0)
(1.02114 -0.00886163 -1.33381e-22)
(1.02395 -0.0091943 1.17746e-22)
(1.02822 -0.00826529 3.0372e-24)
(1.03146 -0.0066654 1.09749e-23)
(1.03459 -0.00471734 -1.00307e-23)
(1.03644 -0.00302023 -3.3142e-22)
(1.03786 -0.00183739 3.31128e-22)
(1.03774 -0.00143936 2.15272e-23)
(1.03756 -0.000757933 3.85499e-22)
(1.03677 0.00105999 -4.35065e-22)
(1.03612 0.00456129 -9.19601e-22)
(1.03571 0.00672266 9.16203e-22)
(1.03601 0.00738983 -6.85152e-23)
(1.03592 0.00684002 1.96683e-24)
(1.038 0.00533195 0)
(1.03763 0.00152715 -8.61872e-23)
(1.04099 -0.0061573 -1.48593e-21)
(1.04135 -0.0134278 -1.56667e-21)
(1.04826 -0.0249498 -1.22344e-22)
(1.05541 -0.028417 3.14438e-21)
(1.06676 -0.0396862 -2.8663e-21)
(1.08294 -0.0380615 2.94509e-21)
(0.99018 0.000584123 5.24546e-21)
(0.990156 -6.89371e-05 1.49936e-22)
(0.989906 -0.000138327 -1.03348e-20)
(0.989671 -0.000530051 5.08569e-21)
(0.989957 -0.000883448 0)
(0.990182 -0.00172068 -1.62226e-22)
(0.991358 -0.00260348 -2.51281e-21)
(0.992164 -0.00362507 5.12785e-21)
(0.993616 -0.00436148 -4.6783e-21)
(0.994612 -0.00553125 2.23342e-21)
(0.996817 -0.00640692 0)
(0.998844 -0.00721763 1.96627e-21)
(1.00178 -0.00780464 -1.97568e-21)
(1.00411 -0.00891703 -8.09304e-22)
(1.00744 -0.0100735 8.67165e-22)
(1.01015 -0.0103205 0)
(1.01455 -0.0102281 4.40121e-25)
(1.01839 -0.00990788 0)
(1.02214 -0.0101585 1.56389e-23)
(1.02466 -0.0100821 -3.34271e-24)
(1.02802 -0.00934985 -1.53351e-24)
(1.03096 -0.00754562 -5.53309e-24)
(1.0345 -0.00586013 1.03103e-23)
(1.03753 -0.00370037 -3.23093e-22)
(1.03915 -0.00189905 3.32419e-22)
(1.03887 -0.00112797 3.47139e-22)
(1.03798 -0.000461456 -3.46373e-22)
(1.03712 0.00137101 -8.20251e-22)
(1.03672 0.00406157 1.79023e-21)
(1.03617 0.00602059 -1.92487e-21)
(1.03574 0.00666058 1.03093e-21)
(1.03515 0.00633811 7.41779e-23)
(1.03558 0.00538581 0)
(1.0344 0.00284359 8.81135e-23)
(1.03657 -0.00291831 0)
(1.0371 -0.00995594 0)
(1.0432 -0.0232151 0)
(1.05206 -0.0267808 3.25446e-21)
(1.06021 -0.0413011 -3.43863e-21)
(1.08014 -0.0408015 -1.87139e-22)
(0.989947 0.000432136 -5.09548e-21)
(0.989897 -0.00031628 9.11732e-25)
(0.989768 -0.000492465 -5.74071e-21)
(0.989539 -0.000891291 5.5847e-21)
(0.989813 -0.00131892 -3.3633e-22)
(0.990178 -0.00247886 -2.79868e-21)
(0.991222 -0.00311012 2.32129e-21)
(0.992223 -0.00455726 -1.59673e-22)
(0.993946 -0.00536744 -2.58513e-21)
(0.994761 -0.00646497 4.76912e-21)
(0.99691 -0.00770146 -2.48021e-21)
(0.998951 -0.008619 0)
(1.00247 -0.00941247 -1.87086e-22)
(1.00468 -0.0102683 -5.78803e-23)
(1.0075 -0.0113208 5.19224e-23)
(1.01018 -0.0121572 6.60228e-22)
(1.01502 -0.0121082 -6.86558e-22)
(1.01885 -0.0115978 0)
(1.02289 -0.0113493 -1.55381e-23)
(1.02498 -0.0114264 1.51879e-25)
(1.02837 -0.0108429 0)
(1.03159 -0.00924299 5.09347e-24)
(1.03492 -0.00735603 9.42182e-24)
(1.03781 -0.00494616 9.72779e-24)
(1.0399 -0.00253053 -1.96802e-23)
(1.0403 -0.00102565 0)
(1.03983 -0.000327881 0)
(1.03871 0.0007148 8.33102e-22)
(1.03786 0.00357777 -7.77435e-22)
(1.03641 0.00628156 -6.01889e-23)
(1.03532 0.00773069 0)
(1.03377 0.00745666 -1.31356e-21)
(1.03381 0.00673006 2.58343e-21)
(1.03275 0.00480482 -2.82261e-21)
(1.03399 -0.00107246 1.47494e-21)
(1.0344 -0.00755827 -2.04263e-22)
(1.03587 -0.0225028 -3.19011e-21)
(1.04388 -0.0280805 3.38611e-21)
(1.04827 -0.0442063 3.72395e-21)
(1.06877 -0.0483835 -6.97476e-21)
(0.989605 0.000359115 -5.56669e-21)
(0.989579 -0.000558047 1.04426e-20)
(0.989477 -0.000837411 -1.59899e-23)
(0.989287 -0.00136145 -5.94103e-21)
(0.989603 -0.0018939 3.47343e-22)
(0.990003 -0.00294053 1.7158e-22)
(0.991059 -0.00410213 1.6826e-22)
(0.992176 -0.00551355 2.57785e-21)
(0.993961 -0.006209 -9.40478e-23)
(0.994683 -0.00757512 -2.50082e-21)
(0.996895 -0.00889338 -2.11276e-21)
(0.998901 -0.0100298 2.90494e-22)
(1.00253 -0.0106684 3.21934e-21)
(1.00468 -0.0115534 -1.86839e-21)
(1.00811 -0.0129475 8.39124e-22)
(1.01052 -0.0137481 9.46048e-23)
(1.01491 -0.0139067 0)
(1.01877 -0.0132906 -2.66778e-22)
(1.02325 -0.0127958 3.89067e-22)
(1.02592 -0.0127229 -1.10948e-22)
(1.02927 -0.0120846 0)
(1.03197 -0.0105669 -1.61165e-22)
(1.0348 -0.00883767 1.46136e-22)
(1.03773 -0.00633569 -2.9061e-22)
(1.04055 -0.003475 2.7278e-22)
(1.04183 -0.0014099 3.06821e-22)
(1.04173 -0.000126433 -7.04774e-22)
(1.03997 0.00120772 -4.53002e-22)
(1.03843 0.00372107 7.57719e-22)
(1.03648 0.00622908 1.21076e-22)
(1.03544 0.0076008 0)
(1.03327 0.0077268 1.47985e-22)
(1.03278 0.00668406 0)
(1.03099 0.00527776 1.49577e-21)
(1.03094 0.00143769 -1.68441e-21)
(1.03121 -0.00347795 -3.41177e-21)
(1.02971 -0.0172 3.1836e-21)
(1.03689 -0.0245477 0)
(1.03865 -0.0415815 -3.77494e-21)
(1.05984 -0.0499889 3.98719e-21)
(0.989349 9.05812e-05 -6.15485e-21)
(0.989302 -0.000951534 3.58236e-22)
(0.989354 -0.00133911 -5.73583e-21)
(0.989096 -0.00201855 6.48173e-21)
(0.989476 -0.00257042 0)
(0.989941 -0.00391635 0)
(0.990997 -0.00496966 0)
(0.991997 -0.0065057 0)
(0.993983 -0.00751177 -2.56004e-21)
(0.994955 -0.00872079 2.56866e-21)
(0.997258 -0.0102876 0)
(0.998969 -0.0115733 -1.40479e-22)
(1.00257 -0.0125577 -1.12082e-21)
(1.00537 -0.0134151 9.94233e-22)
(1.00885 -0.0143928 0)
(1.01106 -0.0152976 6.64902e-22)
(1.01487 -0.0158303 -7.54843e-22)
(1.0189 -0.015164 0)
(1.0239 -0.0144718 -7.34261e-24)
(1.02714 -0.0140457 0)
(1.02996 -0.0134444 0)
(1.03267 -0.0119693 4.55597e-24)
(1.03537 -0.0101021 8.28649e-24)
(1.03807 -0.00782713 1.59249e-23)
(1.04145 -0.00473037 3.42884e-23)
(1.04302 -0.00187445 3.4753e-22)
(1.04342 0.000121925 -2.88105e-22)
(1.04169 0.00127225 8.31196e-22)
(1.04033 0.00361404 -7.87766e-22)
(1.03791 0.00641735 -6.09086e-23)
(1.03664 0.00848485 0)
(1.03343 0.00924217 -7.48902e-23)
(1.03201 0.00850056 0)
(1.02962 0.00744765 0)
(1.02804 0.00387403 1.99004e-22)
(1.02948 -0.000397793 3.70853e-21)
(1.0263 -0.0116435 -6.95341e-21)
(1.03134 -0.0207392 7.32114e-21)
(1.02846 -0.039228 1.56115e-22)
(1.04701 -0.0512166 -4.20642e-21)
(0.988829 -0.00011125 6.52724e-23)
(0.988909 -0.00130785 1.18825e-20)
(0.988899 -0.00182923 -1.18794e-20)
(0.988762 -0.00263079 -3.30494e-22)
(0.989119 -0.00327495 8.8759e-21)
(0.989559 -0.00460162 -2.94595e-21)
(0.990822 -0.0057941 0)
(0.991578 -0.00774996 -2.72974e-21)
(0.993749 -0.00853104 1.07306e-22)
(0.994958 -0.0100849 2.64181e-21)
(0.99718 -0.0113737 -1.52752e-22)
(0.998892 -0.0131592 1.42394e-22)
(1.00257 -0.01407 2.64022e-22)
(1.00519 -0.0150342 0)
(1.00893 -0.0159907 0)
(1.01152 -0.0168277 0)
(1.01526 -0.0175057 1.5587e-24)
(1.01887 -0.0171586 0)
(1.02382 -0.0164765 2.18047e-23)
(1.0276 -0.0156691 -2.93329e-24)
(1.03065 -0.0146475 2.44348e-24)
(1.03348 -0.012999 -4.69841e-24)
(1.03639 -0.0113365 -8.54575e-24)
(1.03839 -0.00950401 -2.66934e-22)
(1.04142 -0.00645646 2.334e-22)
(1.04327 -0.00306299 2.73884e-22)
(1.04493 -0.000243916 -2.54734e-22)
(1.0437 0.00170799 -3.57975e-24)
(1.04252 0.00399937 -8.1783e-22)
(1.03925 0.00691001 8.0815e-22)
(1.03765 0.00893387 0)
(1.03396 0.0103687 0)
(1.03175 0.00946771 1.20053e-21)
(1.02907 0.00884409 1.50526e-22)
(1.02574 0.00563816 -3.13891e-21)
(1.02654 0.00185669 -1.92698e-21)
(1.02231 -0.00588137 -7.31143e-22)
(1.027 -0.0147733 4.04192e-21)
(1.02097 -0.0308623 4.17043e-21)
(1.03585 -0.0466094 -4.14359e-21)
(0.988529 -0.00057858 0)
(0.988607 -0.00195359 3.85027e-22)
(0.988735 -0.00254799 -3.85105e-22)
(0.988518 -0.00355158 0)
(0.989015 -0.00424018 0)
(0.989231 -0.00584691 0)
(0.99078 -0.00702775 -3.70005e-22)
(0.991429 -0.00898504 -3.58915e-22)
(0.993531 -0.0101132 2.71071e-21)
(0.994776 -0.011618 -2.88641e-21)
(0.997594 -0.0129071 1.57589e-22)
(0.999316 -0.0148595 2.09653e-21)
(1.00271 -0.0160959 -3.41046e-21)
(1.00547 -0.0171538 1.02799e-21)
(1.00938 -0.018041 -5.39557e-23)
(1.01247 -0.0184016 6.64064e-22)
(1.01603 -0.0194507 -6.70371e-22)
(1.01954 -0.0192776 0)
(1.02418 -0.01851 -1.46927e-23)
(1.02802 -0.017293 3.0282e-24)
(1.03179 -0.0161044 -2.52254e-24)
(1.03451 -0.0147167 0)
(1.03789 -0.0127179 0)
(1.03941 -0.0106647 0)
(1.04247 -0.00794542 0)
(1.04398 -0.00436114 2.67188e-22)
(1.04639 -0.00104922 -6.14232e-22)
(1.04546 0.00174309 9.84384e-22)
(1.04502 0.00417362 -7.66072e-22)
(1.0419 0.00734294 -8.91208e-22)
(1.04004 0.00962162 8.85811e-22)
(1.03647 0.0120635 -1.20232e-21)
(1.03263 0.0114077 1.35916e-21)
(1.02965 0.0112601 1.70989e-22)
(1.02387 0.00889837 0)
(1.02363 0.00501082 -3.57584e-21)
(1.01853 -0.000930732 -7.17088e-23)
(1.02247 -0.00871598 4.06857e-21)
(1.01532 -0.022195 4.07465e-21)
(1.02639 -0.0401192 -8.89318e-21)
(0.98792 -0.000932808 -6.86662e-21)
(0.987858 -0.00246515 5.9561e-21)
(0.988199 -0.00317055 -5.98534e-21)
(0.987804 -0.00428637 -6.33353e-21)
(0.988544 -0.00507285 6.3639e-21)
(0.988564 -0.00680959 3.91683e-22)
(0.990128 -0.00788186 3.81889e-22)
(0.991163 -0.0102605 -6.86767e-25)
(0.992972 -0.011313 -2.79406e-21)
(0.994406 -0.0132201 2.97614e-21)
(0.997081 -0.0143014 0)
(0.999347 -0.0164812 0)
(1.00245 -0.0177682 0)
(1.00541 -0.0189177 -1.0568e-21)
(1.00911 -0.0199044 9.92064e-22)
(1.01257 -0.0203155 9.56155e-23)
(1.01671 -0.0211219 0)
(1.01985 -0.0210876 0)
(1.02429 -0.0203387 0)
(1.02807 -0.0191352 0)
(1.03268 -0.0179246 1.94045e-24)
(1.03523 -0.016053 0)
(1.03898 -0.0139668 0)
(1.04016 -0.0116839 -1.97063e-22)
(1.04341 -0.00947989 -2.75175e-23)
(1.04441 -0.00588827 2.03548e-22)
(1.04715 -0.00260139 0)
(1.04665 0.00124346 6.35395e-22)
(1.04697 0.00415427 1.15675e-22)
(1.04444 0.00789427 -7.82613e-22)
(1.04231 0.0100801 6.27558e-23)
(1.03911 0.0137425 0)
(1.0341 0.0138284 1.30801e-21)
(1.0309 0.0137748 -1.84273e-22)
(1.02368 0.0123775 -1.45165e-21)
(1.02193 0.00848341 2.07203e-22)
(1.01486 0.00307536 -2.26947e-22)
(1.01702 -0.00388251 3.92879e-21)
(1.01029 -0.0135846 -3.8763e-21)
(1.01858 -0.0313419 0)
(0.98755 -0.00168336 -6.7177e-21)
(0.987511 -0.00342947 6.18437e-21)
(0.987972 -0.00426138 -3.75735e-23)
(0.987531 -0.00551079 -1.32093e-20)
(0.988297 -0.00635189 6.61185e-21)
(0.988413 -0.00823861 -4.04755e-22)
(0.989924 -0.00946616 0)
(0.990702 -0.0118978 -9.54324e-25)
(0.992897 -0.0130711 -2.51434e-21)
(0.99436 -0.0151059 3.07116e-21)
(0.996941 -0.0163279 0)
(0.999734 -0.0184778 0)
(1.00272 -0.0200279 1.1967e-21)
(1.0059 -0.0212247 -8.10583e-22)
(1.00975 -0.0223671 0)
(1.01316 -0.022662 6.47934e-22)
(1.01784 -0.0231009 -6.97533e-22)
(1.0205 -0.0231395 0)
(1.02523 -0.0227503 0)
(1.02874 -0.0213979 -2.16857e-24)
(1.03363 -0.0198158 -2.00758e-24)
(1.03623 -0.0176613 0)
(1.04046 -0.0157096 0)
(1.04173 -0.0131413 1.02593e-23)
(1.0451 -0.0110359 1.08432e-23)
(1.04594 -0.0073574 0)
(1.04857 -0.00406772 2.49853e-22)
(1.04856 0.000471072 -2.43842e-22)
(1.04924 0.00333034 0)
(1.04778 0.00824874 0)
(1.04528 0.0101868 0)
(1.04327 0.0147385 0)
(1.03744 0.0164088 0)
(1.03391 0.0165712 1.59594e-21)
(1.02578 0.0162953 -1.41698e-21)
(1.02248 0.0130266 -2.14043e-22)
(1.01323 0.0092672 4.31938e-21)
(1.01314 0.00222607 -4.08401e-21)
(1.00473 -0.00620639 0)
(1.01131 -0.0221118 -2.83879e-22)
(0.986783 -0.00219651 4.32064e-22)
(0.986636 -0.00405061 7.30047e-21)
(0.987171 -0.00501629 -6.90977e-21)
(0.986664 -0.0064089 -6.41803e-21)
(0.987302 -0.00728201 1.02714e-20)
(0.987606 -0.00933872 -2.98437e-21)
(0.989031 -0.010424 -2.8222e-21)
(0.989941 -0.0131136 6.76595e-21)
(0.991905 -0.0146994 -5.32423e-22)
(0.993575 -0.0166346 -3.17479e-21)
(0.996346 -0.018251 0)
(0.999185 -0.0201574 0)
(1.00256 -0.0219931 -1.43353e-22)
(1.00542 -0.0232809 -1.07521e-21)
(1.00971 -0.0244461 9.4921e-22)
(1.01279 -0.0246341 6.81672e-22)
(1.01797 -0.0250966 -6.82773e-22)
(1.021 -0.0247661 0)
(1.02591 -0.0246841 0)
(1.02899 -0.0231918 2.24628e-24)
(1.03381 -0.0219056 1.14765e-24)
(1.03638 -0.0191592 0)
(1.04131 -0.0174112 0)
(1.04299 -0.0141586 -9.21844e-23)
(1.04626 -0.0125206 9.20353e-23)
(1.04723 -0.00855365 1.53778e-22)
(1.04944 -0.00583917 -1.53423e-22)
(1.05028 -0.000421126 5.97344e-23)
(1.05037 0.00227792 -6.69332e-22)
(1.05039 0.00790516 6.67084e-22)
(1.04729 0.010468 0)
(1.04613 0.0150605 0)
(1.04039 0.0187052 1.22006e-21)
(1.03685 0.0194812 3.18218e-22)
(1.02859 0.0208695 -3.09104e-21)
(1.02433 0.0182069 1.73552e-21)
(1.01357 0.0159846 -4.26045e-21)
(1.01117 0.00950247 8.19584e-21)
(1.00005 0.00172551 3.66185e-22)
(1.00423 -0.0139768 -4.13642e-21)
(0.986325 -0.00335608 0)
(0.986256 -0.00547727 6.72049e-21)
(0.986777 -0.00647425 -1.48356e-20)
(0.986318 -0.00801539 6.76218e-21)
(0.98702 -0.00896635 -4.48209e-22)
(0.987206 -0.011104 -3.90485e-21)
(0.988809 -0.0123534 2.62827e-21)
(0.990214 -0.0149124 0)
(0.991754 -0.016995 -2.68731e-21)
(0.993545 -0.0189231 2.72151e-21)
(0.996227 -0.0208312 0)
(0.998916 -0.0225919 2.44223e-21)
(1.00312 -0.0246515 -2.4501e-21)
(1.00579 -0.0258524 0)
(1.01038 -0.0271794 -6.99005e-22)
(1.01322 -0.027389 8.07976e-22)
(1.01895 -0.0277085 3.49323e-23)
(1.02239 -0.0274563 0)
(1.02755 -0.0269424 -8.70769e-24)
(1.0304 -0.0254036 0)
(1.0353 -0.0242886 -5.84089e-25)
(1.0374 -0.0214188 5.71467e-25)
(1.04235 -0.0198454 -9.57907e-25)
(1.0446 -0.0159368 0)
(1.04812 -0.0142436 0)
(1.04967 -0.0100257 9.94892e-23)
(1.05139 -0.00783211 -2.58963e-22)
(1.05272 -0.00231332 -3.22947e-22)
(1.05268 0.000737222 1.07473e-21)
(1.05382 0.00685469 -5.89941e-22)
(1.05094 0.0105212 0)
(1.05032 0.0147418 0)
(1.04511 0.0199578 0)
(1.04153 0.0216111 -1.5995e-22)
(1.03326 0.0244948 3.47737e-22)
(1.02835 0.023109 -2.03533e-22)
(1.01709 0.0226459 -3.26648e-21)
(1.01269 0.0176779 3.91193e-21)
(0.999372 0.0126261 -2.53101e-22)
(0.999914 -0.00325312 -4.71744e-21)
(0.985033 -0.00396259 -8.15815e-21)
(0.984971 -0.00619978 4.6841e-22)
(0.985575 -0.00727634 7.49253e-21)
(0.985205 -0.00895343 -1.45428e-20)
(0.985759 -0.00999199 1.16766e-20)
(0.986145 -0.0122214 -3.7167e-21)
(0.987331 -0.0139747 8.96355e-22)
(0.988899 -0.0161753 3.36518e-21)
(0.990928 -0.0187409 -6.98845e-21)
(0.992451 -0.0206441 6.59951e-21)
(0.995425 -0.0228916 -3.01186e-21)
(0.997744 -0.0247667 -2.49223e-21)
(1.00239 -0.026998 2.35544e-21)
(1.00523 -0.0281188 0)
(1.01021 -0.0294528 -1.1141e-22)
(1.01302 -0.0297066 6.30586e-22)
(1.01872 -0.0302929 -6.67918e-22)
(1.02234 -0.0292276 1.61335e-22)
(1.02786 -0.0294462 -1.45847e-22)
(1.03088 -0.0267756 6.97011e-25)
(1.03608 -0.0262041 -2.79269e-24)
(1.03852 -0.0227469 -1.8397e-23)
(1.04275 -0.0218619 1.43864e-23)
(1.04518 -0.0175447 4.86643e-23)
(1.0485 -0.016062 -4.85753e-23)
(1.05101 -0.0113344 3.51443e-23)
(1.05254 -0.00909251 -3.1781e-23)
(1.05479 -0.00380996 -1.29163e-23)
(1.05433 -0.000600523 -3.00139e-23)
(1.05631 0.00504412 -6.47192e-22)
(1.05381 0.010627 7.27591e-22)
(1.05321 0.0144756 0)
(1.04874 0.0206668 -1.15562e-22)
(1.04545 0.0236761 1.23277e-21)
(1.03724 0.0279537 -2.64995e-21)
(1.03211 0.0280218 1.39766e-21)
(1.02091 0.0298382 -3.75771e-21)
(1.01539 0.0256206 -4.09406e-22)
(1.00113 0.024016 8.34862e-21)
(0.997522 0.00902427 -3.93097e-21)
(0.984519 -0.00566041 9.95996e-22)
(0.984548 -0.00809346 7.87477e-21)
(0.985158 -0.00927908 -6.94032e-21)
(0.984854 -0.0110257 -9.85629e-22)
(0.985352 -0.0122327 0)
(0.985926 -0.0142689 0)
(0.987134 -0.0165117 -4.66865e-22)
(0.988441 -0.0185318 0)
(0.991227 -0.0215642 3.31505e-21)
(0.992516 -0.0233502 -6.02191e-21)
(0.996069 -0.0258119 3.10849e-21)
(0.998144 -0.0276947 1.67459e-22)
(1.00292 -0.0301427 3.97163e-24)
(1.00557 -0.0312441 1.25045e-22)
(1.01115 -0.0327346 0)
(1.01413 -0.0325269 0)
(1.01989 -0.033543 -2.88938e-23)
(1.02326 -0.0321484 1.79637e-23)
(1.02923 -0.032312 -6.8392e-24)
(1.0322 -0.0296208 -7.24994e-25)
(1.03772 -0.0289952 0)
(1.04079 -0.0250786 0)
(1.04486 -0.0241542 2.02557e-23)
(1.04741 -0.0197804 1.29001e-22)
(1.05007 -0.0184268 -1.52943e-22)
(1.05311 -0.0138219 0)
(1.05466 -0.0114933 -3.35778e-24)
(1.0578 -0.00637763 1.34276e-23)
(1.05737 -0.00246716 3.88519e-22)
(1.06 0.00202815 -3.62129e-22)
(1.05812 0.00905763 -8.58326e-23)
(1.05826 0.013629 0)
(1.05418 0.020113 1.2019e-22)
(1.05171 0.0242667 1.22013e-22)
(1.04403 0.0301798 -1.60921e-22)
(1.03877 0.0314426 -2.96141e-21)
(1.0277 0.0356554 -3.8171e-22)
(1.02112 0.0327212 3.07093e-21)
(1.0064 0.0344829 2.27039e-22)
(0.999999 0.0216393 -2.71329e-22)
(0.982764 -0.00634961 -9.03381e-21)
(0.982847 -0.00896218 8.28902e-21)
(0.983407 -0.010267 -1.71357e-20)
(0.983221 -0.0120279 1.75999e-20)
(0.983741 -0.0136346 -8.28708e-21)
(0.984242 -0.0153835 -3.97311e-21)
(0.986086 -0.0183437 3.99696e-21)
(0.986942 -0.0203218 3.65611e-21)
(0.989917 -0.0235003 -6.66998e-21)
(0.991273 -0.0256002 6.65941e-21)
(0.994984 -0.0283054 -3.21366e-21)
(0.997172 -0.0300565 -1.74178e-22)
(1.00224 -0.0328072 -8.08681e-22)
(1.00497 -0.0337588 6.2325e-23)
(1.01054 -0.0357157 1.02249e-21)
(1.01384 -0.0350557 5.73492e-22)
(1.01983 -0.0363246 -5.07363e-22)
(1.02345 -0.0342964 -6.18695e-24)
(1.02944 -0.0348702 6.60303e-25)
(1.03295 -0.031502 0)
(1.0376 -0.0312078 1.85625e-24)
(1.04129 -0.0271061 0)
(1.04508 -0.0260927 -1.39929e-23)
(1.04868 -0.0213639 -7.57078e-24)
(1.05091 -0.019724 -1.78537e-22)
(1.0547 -0.015582 2.08625e-22)
(1.05546 -0.0127599 -5.48158e-23)
(1.0593 -0.00938935 1.26132e-22)
(1.05912 -0.00361437 -8.43012e-23)
(1.06211 9.20545e-05 -2.58439e-23)
(1.06129 0.00694495 0)
(1.06247 0.0121972 -7.34549e-22)
(1.05884 0.0200763 7.30708e-22)
(1.05678 0.0246329 -1.26908e-22)
(1.05003 0.0322175 0)
(1.0448 0.0345194 0)
(1.03445 0.0415123 0)
(1.02685 0.039753 0)
(1.01346 0.0454204 -4.18304e-21)
(1.00258 0.0354889 7.46365e-21)
(0.982033 -0.00865077 8.79751e-21)
(0.982374 -0.011291 -6.72731e-22)
(0.982798 -0.012908 -1.75443e-20)
(0.982783 -0.014546 -4.3131e-22)
(0.98348 -0.0165557 8.73843e-21)
(0.98379 -0.0183404 0)
(0.985915 -0.0213621 0)
(0.986889 -0.0235872 0)
(0.990131 -0.0267943 3.11817e-21)
(0.991596 -0.0290468 -4.03584e-21)
(0.995685 -0.0319271 1.96159e-22)
(0.997935 -0.033694 -2.61707e-21)
(1.00311 -0.0365617 2.47258e-21)
(1.00619 -0.0371854 -1.21359e-22)
(1.0119 -0.0395755 -9.96134e-24)
(1.01535 -0.03848 -5.82088e-24)
(1.02133 -0.0400788 0)
(1.02519 -0.0376509 -1.87023e-23)
(1.03091 -0.0381262 -6.89105e-25)
(1.03539 -0.0346437 2.10531e-24)
(1.03937 -0.0341408 -9.33282e-23)
(1.04366 -0.0297659 1.02951e-22)
(1.04652 -0.0286881 -3.17842e-23)
(1.05082 -0.0246563 2.21017e-23)
(1.0524 -0.0222464 -4.7434e-23)
(1.05715 -0.0191268 -2.07984e-22)
(1.05778 -0.014874 2.53625e-22)
(1.06242 -0.012427 8.82226e-23)
(1.06235 -0.00722048 -2.12957e-22)
(1.0659 -0.0033568 1.13308e-22)
(1.06537 0.00358911 0)
(1.06769 0.0086782 5.99466e-23)
(1.06554 0.0173947 0)
(1.06444 0.0227519 8.05272e-22)
(1.05889 0.0322983 -1.93604e-21)
(1.05371 0.0355541 3.43153e-21)
(1.04473 0.0448366 -5.24823e-21)
(1.03633 0.0443888 2.86451e-21)
(1.02437 0.0534429 -3.12721e-21)
(1.01157 0.0456619 3.34421e-21)
(0.97971 -0.00963344 -5.95266e-22)
(0.980318 -0.0122861 1.04364e-20)
(0.980733 -0.014305 -9.34079e-21)
(0.980511 -0.0157885 5.841e-22)
(0.981522 -0.0182123 0)
(0.981673 -0.0202428 -5.64748e-22)
(0.983947 -0.0232972 0)
(0.98489 -0.0258619 4.52315e-21)
(0.988508 -0.0292579 -7.82866e-22)
(0.990187 -0.0315104 -3.303e-21)
(0.994542 -0.0349254 -2.04794e-22)
(0.997224 -0.0363501 -1.76067e-22)
(1.00239 -0.0398563 0)
(1.00591 -0.0399876 -7.29895e-22)
(1.01173 -0.0429127 7.61879e-22)
(1.01561 -0.0414294 3.40572e-22)
(1.02129 -0.0429937 -3.87153e-22)
(1.02623 -0.0403894 5.88823e-24)
(1.03067 -0.0408263 5.95e-23)
(1.03631 -0.0370758 -7.02228e-23)
(1.0397 -0.0362364 3.23147e-24)
(1.0448 -0.0322213 -3.64192e-23)
(1.04676 -0.0299525 3.32568e-23)
(1.05181 -0.0272484 -4.36022e-23)
(1.05278 -0.0230615 2.90832e-23)
(1.05745 -0.0217489 -5.0952e-22)
(1.05815 -0.0170973 4.45853e-22)
(1.06314 -0.0149014 2.98711e-22)
(1.06391 -0.00951426 -3.2505e-22)
(1.06813 -0.00631302 -2.74284e-24)
(1.06856 0.000741988 0)
(1.0712 0.00549415 -5.67359e-22)
(1.07054 0.0150715 4.38417e-22)
(1.06997 0.0205963 7.87075e-22)
(1.06673 0.0318183 -6.69937e-22)
(1.06171 0.0361067 0)
(1.05507 0.0481253 -2.17751e-21)
(1.04515 0.0488791 2.14144e-21)
(1.03576 0.0605577 0)
(1.02099 0.0567766 2.05567e-22)
(0.978914 -0.0125437 3.54424e-22)
(0.979462 -0.0152211 -1.06385e-20)
(0.980201 -0.0176308 9.82588e-21)
(0.979832 -0.0192783 -2.02406e-20)
(0.981055 -0.0217883 1.52193e-20)
(0.981256 -0.0241078 -4.23479e-21)
(0.983855 -0.0271789 0)
(0.984902 -0.0298304 -5.4272e-22)
(0.988609 -0.0337879 -3.37565e-21)
(0.990758 -0.0358184 3.43984e-21)
(0.995103 -0.0399271 2.06007e-22)
(0.998333 -0.0408482 -2.64099e-21)
(1.00363 -0.0445329 3.58459e-21)
(1.00774 -0.0444024 -1.07524e-21)
(1.01321 -0.0473629 0)
(1.0188 -0.0457347 0)
(1.02301 -0.0471164 1.20296e-23)
(1.02954 -0.0444112 1.11799e-22)
(1.03333 -0.0441112 -2.19468e-22)
(1.03959 -0.0409789 1.16947e-22)
(1.0421 -0.0388587 -1.96579e-22)
(1.04786 -0.0362501 1.83249e-22)
(1.04928 -0.0318859 5.92303e-23)
(1.05432 -0.0306973 8.29043e-22)
(1.05502 -0.0261437 -7.80752e-22)
(1.05964 -0.0247001 -5.98622e-22)
(1.06045 -0.020252 8.78376e-23)
(1.06495 -0.0189248 -9.77898e-23)
(1.06628 -0.0138373 6.17092e-22)
(1.07084 -0.0113376 1.83088e-23)
(1.07274 -0.00426067 2.97157e-24)
(1.07596 -9.6169e-05 -2.8875e-23)
(1.07749 0.00958609 6.64005e-23)
(1.07768 0.0153504 7.15326e-22)
(1.07692 0.0278183 -1.46085e-21)
(1.07229 0.0334053 7.28846e-22)
(1.06856 0.047494 0)
(1.05886 0.0504739 0)
(1.05124 0.0647065 0)
(1.03481 0.064172 2.43184e-21)
(0.976148 -0.0138533 0)