/*--------------------------------*- C++ -*----------------------------------*\
  =========                 |
  \\      /  F ield         | OpenFOAM: The Open Source CFD Toolbox
   \\    /   O peration     | Website:  https://openfoam.org
    \\  /    A nd           | Version:  10
     \\/     M anipulation  |
\*---------------------------------------------------------------------------*/
FoamFile
{
    format      ascii;
    class       surfaceScalarField;
    location    "0.648748";
    object      phi;
}
// * * * * * * * * * * * * * * * * * * * * * * * * * * * * * * * * * * * * * //

dimensions      [1 0 -1 0 0 0 0];

internalField   nonuniform List<scalar> 
31672
(
0.000401086
-5.92134e-05
0.000398984
-6.09118e-05
0.000396648
-6.25571e-05
0.000394066
-6.41402e-05
0.000391252
-6.56387e-05
0.000388233
-6.70359e-05
0.000385006
-6.82991e-05
0.000381567
-6.94057e-05
0.000377983
-7.03489e-05
0.000374229
-7.10745e-05
0.000370331
-7.15769e-05
0.00036633
-7.1889e-05
0.000362256
-7.19866e-05
0.00035813
-7.18765e-05
0.000353982
-7.15618e-05
0.000349833
-7.10565e-05
0.000345723
-7.0376e-05
0.00034167
-6.95414e-05
0.000337695
-6.85723e-05
0.000333834
-6.7496e-05
0.000330093
-6.63396e-05
0.000326496
-6.51278e-05
0.000323063
-6.38928e-05
0.000319817
-6.26619e-05
0.000316783
-6.14648e-05
0.000313972
-6.03279e-05
0.000311403
-5.92769e-05
0.000309091
-5.83346e-05
0.000307051
-5.75206e-05
0.000305301
-5.68526e-05
0.000303851
-5.63444e-05
0.000302718
-5.60051e-05
0.000301913
-5.58414e-05
0.00030145
-5.5854e-05
0.000301344
-5.60403e-05
0.000301605
-5.63912e-05
0.000302239
-5.68917e-05
0.000303268
-5.75234e-05
0.000304692
-5.8262e-05
0.000306516
-5.90721e-05
0.000308752
-5.9929e-05
0.000311394
-6.07807e-05
0.000314458
-6.15713e-05
0.000317937
-6.2259e-05
0.000321842
-6.27872e-05
0.000326167
-6.30851e-05
0.00033088
-6.31181e-05
0.000335998
-6.277e-05
0.000341493
-6.20265e-05
0.000347329
-6.07471e-05
0.000353509
-5.89477e-05
0.00035996
-5.64688e-05
0.000366673
-5.33083e-05
-4.93493e-05
0.000373528
0.000399899
-5.49613e-05
0.000397842
-5.64123e-05
0.00039554
-5.78272e-05
0.000393015
-5.91887e-05
0.000390311
-6.04973e-05
0.00038741
-6.17062e-05
0.000384305
-6.28009e-05
0.000381012
-6.37628e-05
0.000377536
-6.45865e-05
0.000373927
-6.52278e-05
0.000370216
-6.56699e-05
0.000366403
-6.59261e-05
0.000362521
-6.59978e-05
0.000358585
-6.58828e-05
0.000354607
-6.55832e-05
0.000350625
-6.51149e-05
0.000346655
-6.44908e-05
0.000342719
-6.37307e-05
0.000338841
-6.28559e-05
0.000335043
-6.18915e-05
0.000331345
-6.08635e-05
0.000327762
-5.97993e-05
0.000324325
-5.8728e-05
0.00032105
-5.76793e-05
0.000317955
-5.66795e-05
0.000315063
-5.57582e-05
0.000312392
-5.49388e-05
0.000309959
-5.42453e-05
0.000307783
-5.36975e-05
0.000305881
-5.33126e-05
0.00030427
-5.31047e-05
0.000302969
-5.30831e-05
0.000301997
-5.32537e-05
0.000301374
-5.36185e-05
0.000301115
-5.4172e-05
0.000301237
-5.49072e-05
0.000301748
-5.58063e-05
0.000302679
-5.68515e-05
0.00030403
-5.8017e-05
0.000305814
-5.92657e-05
0.000308042
-6.05728e-05
0.00031073
-6.18851e-05
0.000313885
-6.31453e-05
0.000317509
-6.4311e-05
0.000321601
-6.53153e-05
0.000326173
-6.60999e-05
0.000331193
-6.65944e-05
0.000336688
-6.67327e-05
0.000342608
-6.64252e-05
0.000348945
-6.56098e-05
0.000355676
-6.41869e-05
0.000362776
-6.21115e-05
0.000370148
-5.92825e-05
-5.55758e-05
0.000377732
0.000398931
-5.05887e-05
0.000396909
-5.17894e-05
0.000394676
-5.29782e-05
0.000392202
-5.41407e-05
0.00038951
-5.52619e-05
0.000386636
-5.63095e-05
0.000383606
-5.72655e-05
0.000380436
-5.81065e-05
0.000377124
-5.88136e-05
0.000373705
-5.93776e-05
0.000370179
-5.9775e-05
0.000366549
-5.99969e-05
0.000362834
-6.00363e-05
0.000359048
-5.99173e-05
0.00035522
-5.96363e-05
0.000351368
-5.92029e-05
0.000347513
-5.86323e-05
0.000343678
-5.79407e-05
0.00033988
-5.71548e-05
0.00033614
-5.62933e-05
0.000332472
-5.5386e-05
0.000328899
-5.44585e-05
0.000325442
-5.35413e-05
0.000322116
-5.26619e-05
0.00031895
-5.18503e-05
0.000315963
-5.11332e-05
0.000313172
-5.05369e-05
0.000310601
-5.00841e-05
0.000308269
-4.97963e-05
0.000306199
-4.96905e-05
0.000304414
-4.97812e-05
0.000302934
-5.00788e-05
0.000301782
-5.05878e-05
0.00030098
-5.13109e-05
0.000300553
-5.22418e-05
0.000300518
-5.3374e-05
0.000300895
-5.46886e-05
0.000301712
-5.61665e-05
0.000302978
-5.77827e-05
0.000304713
-5.94968e-05
0.000306929
-6.1286e-05
0.000309645
-6.30908e-05
0.000312876
-6.4858e-05
0.00031663
-6.65395e-05
0.000320911
-6.80656e-05
0.000325727
-6.93805e-05
0.00033108
-7.04046e-05
0.000336938
-7.10569e-05
0.000343327
-7.12622e-05
0.00035021
-7.09383e-05
0.000357526
-6.99837e-05
0.000365274
-6.83278e-05
0.000373353
-6.58374e-05
-6.25183e-05
0.000381798
0.000398179
-4.60787e-05
0.00039607
-4.70424e-05
0.000393802
-4.80074e-05
0.000391385
-4.89892e-05
0.000388798
-4.99412e-05
0.000386056
-5.08438e-05
0.000383151
-5.16733e-05
0.000380094
-5.2407e-05
0.00037691
-5.30229e-05
0.000373589
-5.35128e-05
0.000370183
-5.38683e-05
0.000366685
-5.40586e-05
0.000363114
-5.40915e-05
0.000359477
-5.3971e-05
0.000355784
-5.37078e-05
0.000352058
-5.33089e-05
0.000348307
-5.27893e-05
0.000344563
-5.21635e-05
0.000340836
-5.14579e-05
0.000337136
-5.06913e-05
0.000333489
-4.98939e-05
0.000329907
-4.90924e-05
0.000326413
-4.8316e-05
0.000323031
-4.75943e-05
0.000319779
-4.69585e-05
0.000316678
-4.64343e-05
0.000313755
-4.60499e-05
0.000311028
-4.58293e-05
0.000308527
-4.57939e-05
0.000306272
-4.59624e-05
0.000304292
-4.63492e-05
0.000302614
-4.69653e-05
0.000301261
-4.78158e-05
0.000300262
-4.89029e-05
0.000299646
-5.02212e-05
0.000299439
-5.17625e-05
0.000299662
-5.35096e-05
0.000300345
-5.54404e-05
0.000301507
-5.75303e-05
0.000303174
-5.97394e-05
0.000305362
-6.20389e-05
0.000308092
-6.43739e-05
0.00031139
-6.66868e-05
0.000315265
-6.89304e-05
0.000319725
-7.10265e-05
0.000324796
-7.29223e-05
0.000330445
-7.45272e-05
0.000336711
-7.57628e-05
0.000343571
-7.65477e-05
0.000350996
-7.6775e-05
0.000358958
-7.63514e-05
0.000367433
-7.51793e-05
0.000376356
-7.31533e-05
-7.01693e-05
0.000385607
0.000397626
-4.14387e-05
0.000395498
-4.21663e-05
0.000393225
-4.29365e-05
0.000390807
-4.3733e-05
0.000388232
-4.45286e-05
0.000385518
-4.52951e-05
0.000382683
-4.60152e-05
0.000379719
-4.66551e-05
0.000376643
-4.71988e-05
0.000373463
-4.76294e-05
0.000370181
-4.79425e-05
0.000366826
-4.81205e-05
0.000363389
-4.81493e-05
0.000359879
-4.80394e-05
0.000356312
-4.7795e-05
0.000352696
-4.74298e-05
0.000349047
-4.69553e-05
0.00034538
-4.63911e-05
0.000341708
-4.57568e-05
0.000338043
-4.50762e-05
0.000334404
-4.43776e-05
0.000330803
-4.36887e-05
0.000327256
-4.30403e-05
0.000323795
-4.24626e-05
0.000320441
-4.19874e-05
0.000317212
-4.16433e-05
0.000314136
-4.14579e-05
0.00031124
-4.14584e-05
0.000308548
-4.16662e-05
0.000306093
-4.21016e-05
0.000303901
-4.27802e-05
0.000302
-4.37132e-05
0.000300426
-4.49067e-05
0.00029921
-4.63629e-05
0.000298384
-4.80774e-05
0.000297978
-5.00399e-05
0.000298024
-5.22353e-05
0.000298549
-5.46395e-05
0.000299584
-5.72276e-05
0.000301162
-5.99602e-05
0.000303298
-6.28058e-05
0.000306024
-6.57057e-05
0.000309371
-6.86083e-05
0.000313346
-7.14607e-05
0.000317984
-7.41776e-05
0.000323283
-7.67183e-05
0.000329255
-7.8961e-05
0.000335928
-8.08571e-05
0.000343259
-8.22796e-05
0.00035126
-8.31438e-05
0.000359908
-8.3331e-05
0.00036914
-8.27288e-05
0.000378894
-8.12131e-05
-7.86601e-05
0.000389095
0.00039729
-3.66668e-05
0.000395119
-3.71628e-05
0.000392819
-3.77378e-05
0.000390383
-3.8363e-05
0.000387822
-3.9016e-05
0.000385142
-3.96662e-05
0.00038235
-4.02859e-05
0.000379459
-4.08495e-05
0.000376469
-4.13349e-05
0.000373389
-4.17241e-05
0.000370221
-4.20037e-05
0.000366977
-4.21742e-05
0.000363657
-4.22098e-05
0.000360263
-4.2114e-05
0.000356806
-4.18932e-05
0.000353294
-4.15612e-05
0.000349733
-4.11307e-05
0.000346137
-4.06196e-05
0.00034251
-4.0048e-05
0.000338869
-3.9442e-05
0.000335224
-3.88292e-05
0.00033159
-3.82384e-05
0.00032799
-3.77023e-05
0.000324438
-3.72527e-05
0.000320962
-3.69219e-05
0.000317586
-3.67413e-05
0.000314341
-3.67411e-05
0.000311252
-3.69484e-05
0.000308349
-3.73881e-05
0.000305665
-3.80809e-05
0.000303236
-3.90444e-05
0.000301093
-4.02907e-05
0.000299272
-4.18272e-05
0.000297812
-4.36559e-05
0.000296747
-4.57735e-05
0.000296116
-4.81691e-05
0.000295956
-5.08286e-05
0.000296296
-5.37266e-05
0.000297177
-5.68374e-05
0.000298637
-6.01238e-05
0.000300699
-6.35497e-05
0.000303395
-6.70553e-05
0.000306767
-7.05953e-05
0.000310831
-7.41026e-05
0.000315619
-7.75079e-05
0.00032114
-8.07409e-05
0.000327432
-8.37052e-05
0.000334494
-8.63277e-05
0.000342316
-8.84756e-05
0.000350926
-9.00669e-05
0.000360265
-9.09547e-05
0.000370304
-9.10157e-05
0.00038099
-9.01115e-05
-8.80815e-05
0.000392211
0.000397131
-3.1742e-05
0.000394898
-3.20205e-05
0.000392538
-3.24032e-05
0.000390067
-3.28697e-05
0.000387496
-3.33927e-05
0.000384824
-3.39385e-05
0.000382062
-3.44772e-05
0.00037922
-3.49793e-05
0.000376301
-3.54223e-05
0.00037331
-3.57869e-05
0.000370242
-3.60531e-05
0.000367101
-3.62163e-05
0.000363898
-3.62732e-05
0.000360621
-3.61982e-05
0.00035727
-3.60061e-05
0.000353851
-3.57044e-05
0.000350373
-3.53146e-05
0.000346833
-3.48488e-05
0.000343248
-3.43311e-05
0.000339624
-3.37872e-05
0.000335964
-3.32442e-05
0.000332286
-3.27351e-05
0.000328609
-3.22928e-05
0.000324955
-3.19522e-05
0.000321346
-3.17469e-05
0.000317812
-3.17111e-05
0.00031438
-3.18773e-05
0.00031108
-3.2275e-05
0.000307945
-3.29315e-05
0.000305011
-3.38693e-05
0.000302316
-3.51082e-05
0.000299898
-3.66617e-05
0.000297798
-3.85384e-05
0.000296059
-4.07416e-05
0.000294724
-4.32684e-05
0.000293836
-4.61083e-05
0.000293434
-4.92469e-05
0.00029356
-5.26599e-05
0.000294255
-5.63189e-05
0.000295565
-6.01874e-05
0.000297508
-6.42308e-05
0.000300159
-6.83839e-05
0.000303518
-7.26103e-05
0.000307645
-7.68262e-05
0.000312563
-8.09799e-05
0.000318289
-8.4978e-05
0.000324882
-8.87399e-05
0.000332323
-9.21691e-05
0.00034066
-9.51445e-05
0.000349864
-9.75576e-05
0.000359931
-9.92557e-05
0.000370839
-0.000100101
0.000382493
-9.99191e-05
-9.85122e-05
0.00039481
0.000397224
-2.66665e-05
0.000394879
-2.67191e-05
0.000392408
-2.69165e-05
0.000389853
-2.72389e-05
0.000387215
-2.76449e-05
0.000384528
-2.81066e-05
0.000381784
-2.85861e-05
0.000378977
-2.90467e-05
0.000376127
-2.94695e-05
0.000373218
-2.98241e-05
0.000370247
-3.00957e-05
0.000367213
-3.02674e-05
0.00036412
-3.03424e-05
0.00036095
-3.02963e-05
0.000357703
-3.01362e-05
0.000354376
-2.98688e-05
0.000350972
-2.95125e-05
0.000347492
-2.90842e-05
0.000343942
-2.8609e-05
0.000340321
-2.81113e-05
0.00033664
-2.7622e-05
0.000332915
-2.7175e-05
0.000329157
-2.68055e-05
0.000325387
-2.65503e-05
0.000321629
-2.64475e-05
0.000317912
-2.65337e-05
0.000314267
-2.68435e-05
0.00031073
-2.74108e-05
0.000307333
-2.82648e-05
0.000304117
-2.94319e-05
0.000301124
-3.09334e-05
0.000298396
-3.27853e-05
0.000295983
-3.4998e-05
0.000293933
-3.75762e-05
0.000292292
-4.05171e-05
0.000291108
-4.38115e-05
0.000290429
-4.74437e-05
0.000290307
-5.13915e-05
0.000290776
-5.56242e-05
0.000291896
-6.01111e-05
0.000293702
-6.4807e-05
0.000296241
-6.96497e-05
0.000299572
-7.4604e-05
0.000303716
-7.96018e-05
0.000308734
-8.45505e-05
0.000314645
-8.94047e-05
0.000321511
-9.40311e-05
0.000329328
-9.83748e-05
0.00033815
-0.000102269
0.000347961
-0.000105626
0.000358791
-0.000108253
0.000370568
-0.000110018
0.000383227
-0.000110657
-0.000109996
0.000396691
0.00039736
-2.14128e-05
0.000394868
-2.12403e-05
0.000392321
-2.12694e-05
0.000389705
-2.14596e-05
0.000387037
-2.17657e-05
0.000384338
-2.21678e-05
0.000381595
-2.26043e-05
0.000378827
-2.30472e-05
0.000376024
-2.34675e-05
0.000373182
-2.38349e-05
0.000370287
-2.41244e-05
0.000367335
-2.43256e-05
0.00036433
-2.44248e-05
0.000361263
-2.44187e-05
0.000358119
-2.42914e-05
0.000354883
-2.40587e-05
0.000351554
-2.37314e-05
0.000348129
-2.33329e-05
0.00034461
-2.28859e-05
0.000340994
-2.24179e-05
0.000337287
-2.19625e-05
0.000333502
-2.15541e-05
0.000329648
-2.12318e-05
0.000325745
-2.10362e-05
0.000321822
-2.10077e-05
0.000317902
-2.11877e-05
0.000314021
-2.16145e-05
0.000310215
-2.23256e-05
0.000306522
-2.3355e-05
0.00030299
-2.47314e-05
0.000299665
-2.648e-05
0.000296594
-2.86188e-05
0.00029383
-3.11605e-05
0.000291427
-3.41111e-05
0.000289438
-3.74697e-05
0.000287916
-4.12275e-05
0.000286917
-4.53685e-05
0.000286501
-4.98705e-05
0.000286701
-5.47061e-05
0.000287581
-5.98355e-05
0.000289198
-6.52155e-05
0.000291601
-7.08078e-05
0.000294866
-7.65361e-05
0.000298974
-8.23738e-05
0.000304081
-8.81789e-05
0.000310092
-9.39817e-05
0.000317245
-9.95279e-05
0.000325355
-0.000104938
0.000334688
-0.000109794
0.000345098
-0.000114314
0.00035665
-0.000117902
0.000369262
-0.000120783
0.000382884
-0.000122271
-0.000122502
0.00039741
0.000397813
-1.59546e-05
0.00039512
-1.55655e-05
0.000392356
-1.54333e-05
0.000389588
-1.55041e-05
0.000386852
-1.57499e-05
0.000384108
-1.61001e-05
0.00038135
-1.65221e-05
0.000378596
-1.69787e-05
0.000375844
-1.74172e-05
0.000373054
-1.78217e-05
0.000370215
-1.8155e-05
0.000367375
-1.83979e-05
0.000364473
-1.85426e-05
0.000361525
-1.85828e-05
0.000358487
-1.84939e-05
0.000355348
-1.82927e-05
0.0003521
-1.7989e-05
0.000348735
-1.76071e-05
0.000345247
-1.71722e-05
0.000341636
-1.67141e-05
0.000337904
-1.62684e-05
0.000334053
-1.5872e-05
0.000330096
-1.55668e-05
0.000326049
-1.53988e-05
0.000321939
-1.54127e-05
0.000317795
-1.56533e-05
0.000313649
-1.61644e-05
0.000309546
-1.69884e-05
0.000305527
-1.81645e-05
0.00030164
-1.97258e-05
0.000297943
-2.1702e-05
0.000294485
-2.41139e-05
0.000291327
-2.6976e-05
0.000288527
-3.02955e-05
0.000286145
-3.40727e-05
0.000284239
-3.83004e-05
0.000282871
-4.29637e-05
0.000282106
-4.80397e-05
0.000281991
-5.35026e-05
0.000282593
-5.93067e-05
0.000283972
-6.54152e-05
0.000286191
-7.17967e-05
0.000289316
-7.83583e-05
0.000293361
-8.50794e-05
0.000298477
-9.18312e-05
0.00030457
-9.86347e-05
0.000311944
-0.000105239
0.000320363
-0.000111775
0.000330102
-0.000117773
0.00034105
-0.000123468
0.000353202
-0.000128191
0.000366526
-0.000132179
0.000381011
-0.00013457
-0.000135811
0.000396324
0.000398248
-1.02491e-05
0.000395382
-9.66285e-06
0.000392491
-9.38346e-06
0.000389603
-9.37341e-06
0.000386742
-9.55897e-06
0.000383909
-9.90784e-06
0.000381109
-1.03384e-05
0.000378343
-1.08357e-05
0.000375583
-1.13236e-05
0.000372849
-1.17925e-05
0.000370142
-1.21926e-05
0.000367443
-1.25053e-05
0.000364675
-1.27053e-05
0.000361839
-1.27919e-05
0.000358894
-1.27533e-05
0.000355822
-1.2582e-05
0.000352641
-1.22968e-05
0.000349334
-1.19211e-05
0.000345888
-1.14822e-05
0.000342292
-1.10122e-05
0.00033853
-1.05491e-05
0.000334613
-1.01355e-05
0.000330544
-9.81011e-06
0.000326338
-9.63033e-06
0.000322022
-9.64754e-06
0.000317628
-9.90885e-06
0.000313192
-1.04655e-05
0.00030876
-1.13658e-05
0.000304378
-1.2656e-05
0.000300097
-1.43717e-05
0.000295977
-1.65474e-05
0.000292076
-1.92102e-05
0.000288463
-2.23794e-05
0.000285208
-2.60642e-05
0.000282377
-3.02643e-05
0.000280033
-3.49716e-05
0.000278244
-4.01708e-05
0.000277081
-4.58403e-05
0.000276598
-5.19526e-05
0.000276877
-5.84674e-05
0.000277965
-6.53526e-05
0.000279932
-7.25474e-05
0.000282864
-8.00025e-05
0.000286807
-8.76755e-05
0.000291835
-9.54542e-05
0.00029802
-0.000103315
0.000305465
-0.000111089
0.000314122
-0.000118794
0.000324228
-0.000126065
0.000335586
-0.00013301
0.000348206
-0.000138995
0.00036203
-0.000143929
0.000376746
-0.000147314
-0.000149099
0.000392194
0.000398958
-4.27293e-06
0.000395805
-3.48773e-06
0.000392671
-3.09371e-06
0.000389604
-3.01029e-06
0.000386566
-3.19116e-06
0.000383652
-3.54866e-06
0.000380777
-4.05116e-06
0.00037797
-4.61059e-06
0.000375268
-5.2038e-06
0.000372627
-5.75464e-06
0.000370008
-6.25279e-06
0.00036736
-6.65146e-06
0.000364649
-6.93816e-06
0.000361906
-7.08637e-06
0.000359114
-7.09845e-06
0.000356196
-6.9611e-06
0.000353153
-6.68296e-06
0.00034996
-6.30254e-06
0.000346602
-5.83683e-06
0.000343027
-5.33085e-06
0.000339226
-4.8032e-06
0.000335216
-4.34305e-06
0.000331004
-3.95715e-06
0.000326609
-3.71848e-06
0.000322068
-3.69708e-06
0.000317402
-3.93254e-06
0.00031265
-4.49083e-06
0.000307851
-5.41979e-06
0.000303067
-6.78665e-06
0.00029835
-8.61985e-06
0.000293762
-1.09669e-05
0.000289375
-1.38581e-05
0.000285259
-1.73166e-05
0.00028149
-2.13541e-05
0.000278147
-2.59739e-05
0.000275301
-3.11676e-05
0.00027303
-3.69186e-05
0.000271407
-4.32034e-05
0.000270496
-4.99944e-05
0.000270371
-5.725e-05
0.000271099
-6.49387e-05
0.000272771
-7.30093e-05
0.000275457
-8.1408e-05
0.000279166
-9.00733e-05
0.000284158
-9.89394e-05
0.000290242
-0.000107968
0.000297787
-0.000116994
0.000306573
-0.000125973
0.000316886
-0.000134624
0.000328348
-0.00014263
0.000341179
-0.000149868
0.000354514
-0.000155366
0.000369102
-0.000159747
-0.000161775
0.000383786
0.000399767
2.05476e-06
0.000396298
2.99974e-06
0.000392889
3.48948e-06
0.00038959
3.59534e-06
0.000386393
3.39081e-06
0.000383308
2.96272e-06
0.000380363
2.36641e-06
0.000377568
1.68157e-06
0.000374881
9.58989e-07
0.000372266
2.78056e-07
0.000369696
-3.49363e-07
0.000367169
-8.75736e-07
0.000364638
-1.25903e-06
0.000362052
-1.48645e-06
0.000359435
-1.54902e-06
0.000356659
-1.45149e-06
0.000353699
-1.17625e-06
0.000350578
-7.67275e-07
0.000347243
-2.57344e-07
0.000343734
3.24316e-07
0.000339938
9.25326e-07
0.000335863
1.50903e-06
0.000331524
1.99887e-06
0.000326941
2.34126e-06
0.000322143
2.46425e-06
0.000317172
2.30682e-06
0.000312064
1.80154e-06
0.000306872
8.85575e-07
0.000301639
-5.04427e-07
0.000296433
-2.41644e-06
0.000291326
-4.90086e-06
0.000286395
-7.9933e-06
0.000281715
-1.17194e-05
0.00027737
-1.60976e-05
0.000273446
-2.11317e-05
0.000270029
-2.68157e-05
0.000267202
-3.31318e-05
0.000265047
-4.00532e-05
0.000263635
-4.75514e-05
0.000263058
-5.5586e-05
0.000263354
-6.41168e-05
0.00026466
-7.30925e-05
0.000266982
-8.24949e-05
0.000270521
-9.2207e-05
0.000275199
-0.000102271
0.000281243
-0.000112468
0.000288702
-0.000122876
0.000297477
-0.000133088
0.000307778
-0.000143117
0.000318966
-0.000151935
0.000331235
-0.000160259
0.000343242
-0.00016535
0.000357256
-0.000171505
-0.000171638
0.000368721
0.000400721
8.77289e-06
0.000396832
9.86643e-06
0.000393093
1.0404e-05
0.000389505
1.04879e-05
0.000386106
1.0213e-05
0.0003829
9.65007e-06
0.000379887
8.90879e-06
0.000377014
8.052e-06
0.000374358
7.15889e-06
0.000371791
6.27573e-06
0.000369305
5.48081e-06
0.000366935
4.81886e-06
0.000364534
4.30222e-06
0.000362113
3.97766e-06
0.000359653
3.83623e-06
0.00035708
3.91778e-06
0.000354304
4.1905e-06
0.0003513
4.64341e-06
0.000348029
5.23614e-06
0.000344479
5.92355e-06
0.000340637
6.66613e-06
0.000336508
7.38614e-06
0.000332068
8.04199e-06
0.000327327
8.55087e-06
0.000322297
8.83868e-06
0.000317012
8.82756e-06
0.00031152
8.44228e-06
0.000305869
7.60742e-06
0.000300124
6.25082e-06
0.000294363
4.30892e-06
0.000288664
1.7276e-06
0.00028311
-1.53278e-06
0.000277785
-5.50648e-06
0.000272788
-1.0214e-05
0.000268216
-1.56623e-05
0.00026416
-2.18435e-05
0.00026071
-2.87386e-05
0.000257962
-3.6318e-05
0.000255984
-4.45506e-05
0.000254875
-5.33959e-05
0.000254688
-6.28043e-05
0.000255527
-7.27421e-05
0.000257475
-8.31765e-05
0.000260613
-9.40233e-05
0.00026505
-0.000105267
0.000270851
-0.000116802
0.000278076
-0.000128506
0.000286734
-0.000140053
0.00029654
-0.000151208
0.000306852
-0.000160402
0.000317894
-0.000169438
0.000328063
-0.00017363
0.000340576
-0.000181921
-0.000181426
0.000352552
0.000401728
1.59683e-05
0.000397405
1.71537e-05
0.000393248
1.77016e-05
0.000389333
1.77112e-05
0.000385661
1.72876e-05
0.000382267
1.65502e-05
0.000379134
1.55837e-05
0.000376253
1.44928e-05
0.000373592
1.33538e-05
0.000371117
1.22436e-05
0.000368775
1.12332e-05
0.000366541
1.03693e-05
0.000364353
9.70342e-06
0.000362099
9.24866e-06
0.000359856
9.04615e-06
0.000357443
9.09008e-06
0.000354822
9.37553e-06
0.000351986
9.89279e-06
0.000348845
1.05885e-05
0.00034544
1.14353e-05
0.000341635
1.23414e-05
0.00033743
1.3297e-05
0.000332837
1.4175e-05
0.000327868
1.49231e-05
0.000322545
1.54461e-05
0.000316901
1.5657e-05
0.000310986
1.54663e-05
0.00030485
1.4785e-05
0.000298558
1.35292e-05
0.00029218
1.16229e-05
0.000285809
9.00009e-06
0.000279551
5.60797e-06
0.000273504
1.40899e-06
0.00026777
-3.61295e-06
0.000262462
-9.4728e-06
0.000257685
-1.61604e-05
0.000253535
-2.36541e-05
0.000250115
-3.19185e-05
0.000247497
-4.09166e-05
0.000245774
-5.06024e-05
0.000245024
-6.09247e-05
0.00024534
-7.18756e-05
0.000246787
-8.33817e-05
0.000249501
-9.53932e-05
0.000253543
-0.000107918
0.000258979
-0.000120745
0.00026586
-0.000133821
0.000273844
-0.000146388
0.000282567
-0.000158208
0.000290917
-0.000166895
0.000299634
-0.000176475
0.000307492
-0.000179621
0.000320804
-0.00019199
-0.000227942
0.000368349
0.00040262
2.36957e-05
0.000397771
2.49292e-05
0.000393212
2.5408e-05
0.000388939
2.52857e-05
0.000385
2.46629e-05
0.000381405
2.36495e-05
0.000378156
2.24011e-05
0.000375223
2.09949e-05
0.000372594
1.95483e-05
0.000370207
1.8141e-05
0.000368025
1.68558e-05
0.000365967
1.57566e-05
0.000363984
1.48885e-05
0.000362013
1.43034e-05
0.000359999
1.3996e-05
0.000357824
1.40106e-05
0.000355435
1.43336e-05
0.000352772
1.49298e-05
0.000349823
1.57775e-05
0.00034645
1.68009e-05
0.000342667
1.79744e-05
0.000338456
1.91857e-05
0.000333751
2.03768e-05
0.000328586
2.14458e-05
0.000322978
2.22943e-05
0.000316959
2.28179e-05
0.000310574
2.29121e-05
0.000303885
2.24714e-05
0.000296966
2.13974e-05
0.0002899
1.95981e-05
0.000282786
1.69938e-05
0.00027574
1.35217e-05
0.000268876
9.13432e-06
0.000262325
3.80391e-06
0.000256196
-2.46364e-06
0.000250609
-9.67132e-06
0.000245669
-1.77846e-05
0.000241488
-2.67652e-05
0.000238145
-3.65637e-05
0.000235744
-4.71296e-05
0.000234341
-5.84127e-05
0.000234041
-7.03993e-05
0.000234907
-8.3016e-05
0.000237118
-9.62521e-05
0.000240587
-0.000110036
0.000245521
-0.000124203
0.000251606
-0.000138345
0.000258326
-0.000151439
0.000265046
-0.000163243
0.0002708
-0.000170729
0.000277817
-0.00018217
0.00030435
-0.000203933
0.000360091
-0.000243115
-0.00027656
0.000417978
0.000403167
3.19519e-05
0.000397809
3.31864e-05
0.000392785
3.35639e-05
0.000388159
3.32254e-05
0.000383923
3.23072e-05
0.000380143
3.09739e-05
0.000376782
2.93296e-05
0.000373828
2.75429e-05
0.000371243
2.57052e-05
0.00036898
2.39309e-05
0.000366976
2.23104e-05
0.000365164
2.09145e-05
0.000363464
1.98202e-05
0.000361746
1.90459e-05
0.00036006
1.86566e-05
0.000358187
1.86301e-05
0.000356062
1.89866e-05
0.000353656
1.97008e-05
0.000350864
2.07297e-05
0.000347664
2.20033e-05
0.000343959
2.34838e-05
0.000339712
2.5046e-05
0.000334918
2.66255e-05
0.000329558
2.81184e-05
0.000323646
2.93952e-05
0.000317224
3.0337e-05
0.000310339
3.08225e-05
0.000303059
3.07256e-05
0.000295457
2.99297e-05
0.000287618
2.83229e-05
0.000279664
2.58098e-05
0.00027172
2.23127e-05
0.000263922
1.7775e-05
0.000256417
1.21642e-05
0.000249352
5.47516e-06
0.000242846
-2.26601e-06
0.000237022
-1.10289e-05
0.000232
-2.07675e-05
0.000227858
-3.14106e-05
0.000224695
-4.28971e-05
0.000222569
-5.51836e-05
0.000221569
-6.82409e-05
0.000221829
-8.20221e-05
0.000223326
-9.64956e-05
0.000226229
-0.000111553
0.000230321
-0.000126907
0.000235147
-0.000141597
0.000239651
-0.000154376
0.000244003
-0.00016589
0.000251091
-0.000175665
0.000276355
-0.000205118
0.000323626
-0.000247259
0.000370441
-0.000284197
-0.00030281
0.000400843
0.000402792
4.06288e-05
0.000397015
4.18406e-05
0.000391649
4.20566e-05
0.000386671
4.14592e-05
0.000382203
4.0202e-05
0.000378239
3.84462e-05
0.000374801
3.63512e-05
0.00037187
3.40846e-05
0.000369403
3.17769e-05
0.000367333
2.95564e-05
0.000365583
2.75299e-05
0.000364066
2.57904e-05
0.000362701
2.44124e-05
0.000361377
2.34403e-05
0.00036001
2.29199e-05
0.000358542
2.2869e-05
0.000356759
2.32745e-05
0.000354656
2.41281e-05
0.000352093
2.53774e-05
0.00034912
2.69858e-05
0.000345549
2.87944e-05
0.000341312
3.08587e-05
0.000336445
3.28975e-05
0.000330902
3.49315e-05
0.000324685
3.67558e-05
0.000317825
3.8243e-05
0.000310381
3.92456e-05
0.000302421
3.96146e-05
0.000294031
3.92096e-05
0.000285309
3.78988e-05
0.000276386
3.55633e-05
0.000267424
3.21066e-05
0.000258582
2.74601e-05
0.000250023
2.15854e-05
0.000241906
1.44784e-05
0.000234381
6.16745e-06
0.000227562
-3.28319e-06
0.000221583
-1.38214e-05
0.000216552
-2.53753e-05
0.000212557
-3.78476e-05
0.000209649
-5.11737e-05
0.000207922
-6.53482e-05
0.000207401
-8.03162e-05
0.000208237
-9.60258e-05
0.000210292
-0.000112322
0.000213226
-0.000128424
0.000216029
-0.00014291
0.000218438
-0.000155185
0.000221453
-0.000167063
0.000249576
-0.00020079
0.000296806
-0.000247963
0.000334243
-0.000278291
0.000351879
-0.000295929
-0.000306207
0.000360496
0.000400213
4.92805e-05
0.000394342
5.0537e-05
0.00038887
5.06362e-05
0.000383823
4.97596e-05
0.000379299
4.81472e-05
0.000375338
4.59348e-05
0.000371964
4.33284e-05
0.000369153
4.05139e-05
0.000366867
3.76608e-05
0.000365068
3.49173e-05
0.000363668
3.24186e-05
0.000362541
3.02722e-05
0.000361607
2.85612e-05
0.000360774
2.73739e-05
0.000359832
2.67125e-05
0.00035881
2.66235e-05
0.000357513
2.71044e-05
0.000355784
2.81315e-05
0.000353625
2.96589e-05
0.000350773
3.16369e-05
0.000347372
3.39218e-05
0.000343233
3.65012e-05
0.000338294
3.91919e-05
0.000332565
4.18718e-05
0.000326028
4.4386e-05
0.000318703
4.65661e-05
0.00031064
4.82352e-05
0.000301924
4.92142e-05
0.000292663
4.93356e-05
0.000282973
4.84412e-05
0.000272985
4.63866e-05
0.000262874
4.3048e-05
0.000252836
3.83397e-05
0.00024307
3.2214e-05
0.000233769
2.46727e-05
0.000225105
1.57562e-05
0.000217226
5.54149e-06
0.000210248
-5.86493e-06
0.000204277
-1.8392e-05
0.000199388
-3.19053e-05
0.00019564
-4.6326e-05
0.000193059
-6.16469e-05
0.000191736
-7.78163e-05
0.000191681
-9.47822e-05
0.000192725
-0.000112052
0.000193905
-0.000128316
0.000194482
-0.000141878
0.000195663
-0.000155257
0.000221633
-0.00018951
0.000261101
-0.000235399
0.000284559
-0.000264854
0.00029294
-0.000281946
0.000296612
-0.000295045
-0.000306926
0.000301864
0.000393408
5.72034e-05
0.000387995
5.86291e-05
0.000382924
5.87015e-05
0.000378272
5.76744e-05
0.000374087
5.57205e-05
0.000370426
5.31058e-05
0.000367408
4.99712e-05
0.000364999
4.6573e-05
0.00036315
4.31373e-05
0.000361811
3.98202e-05
0.000360913
3.67954e-05
0.000360349
3.41992e-05
0.000359995
3.21369e-05
0.000359739
3.06855e-05
0.000359434
2.98984e-05
0.000358958
2.9775e-05
0.000358177
3.03556e-05
0.000356912
3.16153e-05
0.000355191
3.34973e-05
0.000352684
3.58919e-05
0.000349451
3.88003e-05
0.000345395
4.19984e-05
0.000340405
4.54565e-05
0.000334468
4.89535e-05
0.00032758
5.23143e-05
0.000319756
5.53518e-05
0.000311036
5.78545e-05
0.000301498
5.96094e-05
0.000291261
6.04116e-05
0.000280462
6.00741e-05
0.000269261
5.84197e-05
0.000257859
5.52907e-05
0.00024648
5.05716e-05
0.00023536
4.42037e-05
0.000224736
3.61968e-05
0.00021481
2.66142e-05
0.000205756
1.55625e-05
0.000197697
3.19053e-06
0.000190703
-1.03841e-05
0.000184882
-2.50387e-05
0.000180262
-4.06296e-05
0.000176848
-5.71242e-05
0.000174662
-7.45155e-05
0.000173659
-9.26133e-05
0.000173266
-0.000110434
0.000172095
-0.00012585
0.000171379
-0.000139826
0.000190534
-0.000172115
0.000222313
-0.000216247
0.000237705
-0.000244286
0.00023992
-0.000261951
0.000240482
-0.000278131
0.000243541
-0.000293949
-0.000308181
0.000248822
0.000380595
6.38681e-05
0.000375939
6.54026e-05
0.000371786
6.55294e-05
0.00036809
6.44571e-05
0.000364816
6.23038e-05
0.000362079
5.9333e-05
0.000359863
5.57702e-05
0.00035827
5.18228e-05
0.000357257
4.77877e-05
0.000356738
4.39004e-05
0.000356669
4.03416e-05
0.000356976
3.72876e-05
0.000357469
3.48671e-05
0.000358031
3.31776e-05
0.000358499
3.22766e-05
0.000358767
3.21791e-05
0.000358636
3.29143e-05
0.00035799
3.44684e-05
0.000356586
3.67776e-05
0.000354472
3.98017e-05
0.000351448
4.33404e-05
0.000347427
4.74217e-05
0.000342384
5.17336e-05
0.000336186
5.62329e-05
0.000328853
6.0611e-05
0.000320413
6.46839e-05
0.000310927
6.81946e-05
0.000300478
7.08904e-05
0.000289172
7.25291e-05
0.000277169
7.28953e-05
0.000264654
7.17715e-05
0.000251843
6.89531e-05
0.000238998
6.42799e-05
0.000226414
5.76723e-05
0.000214379
4.91489e-05
0.000203136
3.88062e-05
0.000192882
2.6797e-05
0.000183776
1.33105e-05
0.000175834
-1.42275e-06
0.000169121
-1.72916e-05
0.000163648
-3.40943e-05
0.000159368
-5.17683e-05
0.000156251
-7.03389e-05
0.000154093
-8.93491e-05
0.000151698
-0.000106896
0.000148456
-0.000121433
0.000159863
-0.000149673
0.000184085
-0.000192039
0.000192453
-0.000218597
0.000189515
-0.000236766
0.000187439
-0.00025615
0.000188996
-0.000276074
0.000193192
-0.000294455
-0.000309746
0.000198775
0.000361726
6.97386e-05
0.000357045
7.06763e-05
0.000353782
7.06174e-05
0.000351379
6.94389e-05
0.000349581
6.71593e-05
0.000348346
6.39141e-05
0.000347648
5.9989e-05
0.000347486
5.55794e-05
0.000347856
5.1036e-05
0.000348729
4.66137e-05
0.000349998
4.25717e-05
0.000351557
3.91058e-05
0.000353258
3.63866e-05
0.00035495
3.45324e-05
0.000356458
3.36068e-05
0.000357635
3.36332e-05
0.000358311
3.46457e-05
0.000358202
3.66581e-05
0.000357361
3.95864e-05
0.000355397
4.32922e-05
0.000352482
4.77847e-05
0.000348404
5.27945e-05
0.000343045
5.82655e-05
0.000336407
6.38933e-05
0.000328515
6.94125e-05
0.000319376
7.46724e-05
0.000309035
7.93538e-05
0.000297593
8.31266e-05
0.000285165
8.57418e-05
0.000271902
8.69558e-05
0.000258025
8.64885e-05
0.000243794
8.40745e-05
0.000229494
7.94918e-05
0.000215458
7.26309e-05
0.000202034
6.3517e-05
0.000189518
5.229e-05
0.000178143
3.91708e-05
0.00016804
2.444e-05
0.000159259
8.38445e-06
0.000151759
-8.75938e-06
0.000145535
-2.68309e-05
0.000140455
-4.5674e-05
0.000136372
-6.52378e-05
0.000132618
-8.45676e-05
0.000128035
-0.000101285
0.000130562
-0.000122792
0.00014792
-0.000163897
0.000150047
-0.000188653
0.000142274
-0.000206667
0.000137793
-0.000229071
0.000137895
-0.000253203
0.000141041
-0.000275979
0.000145851
-0.000295738
-0.000311317
0.000151441
0.000341542
7.71975e-05
0.000333407
7.57918e-05
0.000329456
7.44005e-05
0.000327799
7.25513e-05
0.000327512
6.988e-05
0.000328121
6.62977e-05
0.000329448
6.19791e-05
0.000331396
5.71647e-05
0.000333803
5.21652e-05