/*--------------------------------*- C++ -*----------------------------------*\
  =========                 |
  \\      /  F ield         | OpenFOAM: The Open Source CFD Toolbox
   \\    /   O peration     | Website:  https://openfoam.org
    \\  /    A nd           | Version:  10
     \\/     M anipulation  |
\*---------------------------------------------------------------------------*/
FoamFile
{
    format      ascii;
    class       volScalarField;
    location    "0.648748";
    object      rho;
}
// * * * * * * * * * * * * * * * * * * * * * * * * * * * * * * * * * * * * * //

dimensions      [1 -3 0 0 0 0 0];

internalField   nonuniform List<scalar> 
15984
(
1.01146
1.01092
1.0105
1.01012
1.00982
1.00963
1.0096
1.00965
1.00979
1.0101
1.01039
1.0108
1.01131
1.0119
1.01255
1.01329
1.01403
1.0149
1.01573
1.01665
1.01757
1.01848
1.01939
1.02026
1.02114
1.022
1.02283
1.02363
1.02438
1.0251
1.02576
1.02636
1.02691
1.02737
1.02779
1.02814
1.02841
1.02862
1.02879
1.02887
1.02888
1.0288
1.02868
1.02837
1.0282
1.02771
1.02743
1.02677
1.0263
1.02552
1.02489
1.02398
1.02321
1.02219
1.01295
1.01239
1.01203
1.01147
1.01117
1.01099
1.01087
1.01077
1.01083
1.01087
1.01105
1.01142
1.01183
1.01241
1.013
1.01367
1.01443
1.0152
1.01606
1.0169
1.01783
1.01871
1.01962
1.02054
1.02145
1.02233
1.02322
1.02407
1.02488
1.02565
1.02637
1.02701
1.02759
1.02811
1.02856
1.02895
1.02923
1.02946
1.02963
1.02969
1.02966
1.02954
1.02935
1.02906
1.02871
1.02819
1.02773
1.02689
1.02639
1.02516
1.02461
1.0231
1.02255
1.02071
1.01426
1.01381
1.01342
1.01301
1.01251
1.01207
1.01174
1.01156
1.01152
1.01162
1.01181
1.01215
1.01251
1.01299
1.0135
1.01413
1.01478
1.01554
1.01633
1.0172
1.01808
1.019
1.01993
1.02088
1.0218
1.02276
1.02367
1.02457
1.02544
1.02625
1.02702
1.02773
1.02836
1.02894
1.02941
1.02984
1.03014
1.03038
1.03056
1.0306
1.03057
1.03042
1.03013
1.02982
1.02929
1.02878
1.02801
1.02739
1.02612
1.02553
1.02385
1.02321
1.02107
1.02011
1.01557
1.01504
1.01432
1.01389
1.01349
1.01314
1.0129
1.01268
1.01257
1.01253
1.01261
1.01278
1.01309
1.01348
1.01397
1.01451
1.01518
1.01584
1.01669
1.01749
1.01841
1.01932
1.02029
1.02123
1.02225
1.0232
1.0242
1.02514
1.02607
1.02695
1.02776
1.02854
1.02922
1.02984
1.03035
1.03082
1.03115
1.03141
1.03159
1.03161
1.03157
1.03138
1.03103
1.03066
1.03004
1.02939
1.02859
1.02753
1.02657
1.02522
1.02397
1.02235
1.02088
1.01912
1.0168
1.01609
1.01553
1.01496
1.01455
1.01404
1.01373
1.01347
1.01329
1.01322
1.01325
1.01339
1.01363
1.01399
1.0144
1.01493
1.01552
1.01622
1.01699
1.01784
1.01873
1.0197
1.02066
1.02165
1.02268
1.02371
1.02473
1.02575
1.02673
1.02768
1.02858
1.0294
1.03014
1.03081
1.03139
1.03187
1.03225
1.03251
1.03269
1.0327
1.03265
1.03242
1.03201
1.03159
1.03083
1.03016
1.02909
1.02805
1.02678
1.02532
1.02379
1.02209
1.02023
1.01819
1.01786
1.01722
1.01662
1.01606
1.01554
1.01507
1.01466
1.01433
1.01411
1.01396
1.01394
1.014
1.01418
1.01446
1.01482
1.01532
1.01589
1.01657
1.01734
1.01817
1.01911
1.02005
1.02108
1.02211
1.02318
1.02426
1.02533
1.02642
1.02746
1.02847
1.02944
1.03034
1.03115
1.03187
1.0325
1.03301
1.03343
1.03369
1.03389
1.03389
1.03383
1.03356
1.0331
1.03259
1.03178
1.03096
1.02975
1.02864
1.02708
1.02554
1.02377
1.02179
1.0197
1.01743
1.01875
1.01821
1.01761
1.01702
1.01646
1.01597
1.01548
1.01512
1.0148
1.01462
1.01453
1.01454
1.01466
1.01489
1.01524
1.01568
1.01625
1.01691
1.01765
1.01853
1.01945
1.02045
1.02148
1.02257
1.02369
1.02482
1.026
1.02714
1.02829
1.02937
1.03041
1.03137
1.03225
1.03302
1.03371
1.03425
1.03471
1.03498
1.03519
1.03519
1.0351
1.03473
1.03437
1.0336
1.0329
1.0318
1.03061
1.02922
1.02756
1.02586
1.02377
1.02162
1.01927
1.01664
1.0198
1.01923
1.01856
1.01789
1.01727
1.01664
1.01619
1.01573
1.0154
1.01519
1.01505
1.01504
1.01511
1.01531
1.01562
1.01605
1.01659
1.01723
1.018
1.01887
1.01981
1.02084
1.02194
1.02309
1.02427
1.02548
1.02671
1.02794
1.02916
1.03032
1.03144
1.03247
1.0334
1.03425
1.03498
1.03558
1.03606
1.03637
1.03659
1.03659
1.03647
1.03614
1.03554
1.03492
1.0339
1.0329
1.03143
1.03004
1.02811
1.02623
1.02391
1.02163
1.01882
1.01593
1.02038
1.01979
1.01917
1.01862
1.018
1.01746
1.01696
1.01649
1.01617
1.01586
1.01572
1.01559
1.01561
1.01574
1.01598
1.01641
1.01692
1.01758
1.01834
1.01923
1.02021
1.02128
1.02244
1.02364
1.02489
1.02619
1.02749
1.0288
1.03008
1.03134
1.03252
1.03364
1.03465
1.03556
1.03635
1.03701
1.03751
1.03786
1.03807
1.03811
1.03787
1.0376
1.03689
1.03633
1.03502
1.03422
1.03219
1.03117
1.02846
1.02702
1.02403
1.0218
1.01827
1.01532
1.02121
1.02059
1.01989
1.01911
1.01852
1.01809
1.01748
1.01707
1.01666
1.01645
1.01607
1.01597
1.01596
1.01606
1.01632
1.01671
1.01722
1.01788
1.01865
1.01955
1.02059
1.02172
1.02293
1.02421
1.02554
1.02691
1.0283
1.02968
1.03108
1.03239
1.03369
1.03489
1.03598
1.03696
1.03782
1.03852
1.03906
1.03944
1.03966
1.0397
1.03947
1.03914
1.03844
1.03774
1.0364
1.03547
1.03321
1.0323
1.02916
1.02784
1.02391
1.02221
1.01715
1.01553
1.02138
1.02091
1.02036
1.0198
1.01917
1.01867
1.01805
1.01762
1.01712
1.01671
1.01646
1.01642
1.01653
1.01661
1.01679
1.01707
1.01748
1.01814
1.01892
1.01991
1.02099
1.02219
1.02346
1.02483
1.02622
1.02768
1.02915
1.03063
1.03212
1.03354
1.03492
1.0362
1.03737
1.03843
1.03934
1.0401
1.04069
1.04109
1.04134
1.04135
1.04122
1.04079
1.04006
1.03926
1.03797
1.0367
1.03477
1.03309
1.03013
1.02844
1.02428
1.02233
1.01727
1.01543
1.02177
1.02128
1.02078
1.02015
1.01971
1.01891
1.01861
1.01782
1.01743
1.01713
1.01692
1.01681
1.01664
1.01661
1.01675
1.01712
1.01762
1.01838
1.01929
1.02042
1.02151
1.02273
1.02401
1.0254
1.02686
1.02841
1.02998
1.03158
1.03316
1.03471
1.03619
1.03756
1.03882
1.03995
1.04094
1.04177
1.0424
1.04286
1.04313
1.04318
1.04297
1.04253
1.04184
1.04098
1.03933
1.03858
1.03578
1.03468
1.03099
1.02944
1.02483
1.0228
1.01724
1.01745
1.02194
1.0215
1.02106
1.02054
1.02002
1.01941
1.01878
1.01825
1.01784
1.01743
1.01712
1.01684
1.01681
1.01683
1.01705
1.01741
1.01792
1.01854
1.01951
1.02047
1.02199
1.02318
1.02458
1.02604
1.02756
1.02919
1.03086
1.03258
1.03428
1.03594
1.03752
1.03902
1.04038
1.04159
1.04264
1.04352
1.04422
1.0447
1.045
1.04503
1.04494
1.04429
1.04384
1.04243
1.0418
1.03923
1.03842
1.03487
1.03327
1.02882
1.02746
1.02194
1.02212
1.0243
1.02196
1.02166
1.0212
1.02077
1.02022
1.01975
1.01914
1.0187
1.01798
1.01784
1.01719
1.01716
1.01691
1.01697
1.0171
1.01751
1.01813
1.01889
1.01978
1.02079
1.02197
1.02336
1.0249
1.02653
1.02827
1.03003
1.03185
1.03368
1.03546
1.03723
1.03889
1.0405
1.04196
1.04325
1.04437
1.04532
1.04606
1.04658
1.04696
1.04703
1.04692
1.04639
1.04571
1.04465
1.04325
1.04164
1.03938
1.03677
1.03432
1.03025
1.02983
1.02465
1.04135
1.03161
1.02189
1.02164
1.02134
1.02088
1.02043
1.0198
1.01933
1.01876
1.01831
1.0178
1.01751
1.01715
1.01715
1.01703
1.01722
1.01754
1.01807
1.0188
1.01987
1.0209
1.02259
1.02388
1.02546
1.02712
1.02891
1.03076
1.0327
1.03468
1.03664
1.03855
1.04034
1.04202
1.04356
1.04492
1.04613
1.04716
1.04798
1.04857
1.049
1.04913
1.04894
1.04856
1.04782
1.04662
1.0454
1.04341
1.04124
1.03848
1.03611
1.03156
1.03758
1.03142
1.08694
1.08034
1.02143
1.02136
1.02114
1.02087
1.02042
1.01999
1.01939
1.01892
1.01832
1.01795
1.01747
1.01731
1.01699
1.01711
1.01722
1.01753
1.01803
1.01886
1.01981
1.02126
1.02243
1.02415
1.02582
1.02762
1.02953
1.03153
1.0336
1.03569
1.03778
1.03983
1.04174
1.04355
1.0452
1.04667
1.04799
1.04912
1.05003
1.05068
1.05115
1.05131
1.05121
1.05076
1.05006
1.04875
1.04783
1.04496
1.04353
1.03938
1.03917
1.03404
1.06102
1.05841
1.23585
1.60258
1.02091
1.02086
1.02081
1.02058
1.02035
1.01979
1.01943
1.01882
1.01836
1.01782
1.01747
1.0171
1.01705
1.01687
1.01711
1.01739
1.01791
1.01869
1.01982
1.02102
1.02266
1.02424
1.02607
1.02801
1.03007
1.03218
1.03443
1.03668
1.03899
1.04119
1.04327
1.0452
1.04694
1.04848
1.04984
1.05103
1.05203
1.05277
1.05334
1.05355
1.05349
1.05309
1.05222
1.05158
1.04924
1.04818
1.04446
1.04224
1.04613
1.04772
1.13296
1.33929
1.62564
1.82463
1.02018
1.02028
1.02035
1.02024
1.01995
1.01962
1.01907
1.0186
1.01813
1.01769
1.0173
1.01699
1.01678
1.01678
1.01684
1.01717
1.01774
1.01844
1.01968
1.02077
1.02282
1.02435
1.02631
1.02843
1.03066
1.03294
1.03532
1.03773
1.04015
1.04249
1.04466
1.04668
1.04856
1.05026
1.05176
1.05303
1.05411
1.05487
1.0555
1.05578
1.05581
1.05536
1.05491
1.05346
1.05249
1.04937
1.04781
1.04595
1.07241
1.12415
1.41732
1.77381
1.95788
2.00106
1.01946
1.01952
1.01974
1.01966
1.0195
1.01926
1.01885
1.01841
1.01788
1.0174
1.01702
1.01673
1.01641
1.01652
1.01652
1.01675
1.01737
1.01829
1.01929
1.02103
1.02207
1.02452
1.02632
1.0286
1.03101
1.03349
1.03603
1.03856
1.04113
1.04366
1.04608
1.04827
1.05028
1.05207
1.05368
1.05507
1.05623
1.05714
1.05793
1.05828
1.0584
1.05821
1.05733
1.05638
1.05416
1.05254
1.05113
1.07254
1.13825
1.50441
1.83219
1.97643
2.00878
2.00853
1.01946
1.01923
1.01902
1.01909
1.01891
1.0187
1.01835
1.01804
1.01762
1.01712
1.01668
1.01631
1.01605
1.01593
1.01607
1.0163
1.01681
1.01769
1.01867
1.02072
1.02181
1.02418
1.02622
1.02862
1.03119
1.03388
1.03666
1.03943
1.04217
1.04488
1.04745
1.04985
1.05204
1.05397
1.05567
1.05716
1.0584
1.05942
1.0603
1.06073
1.06092
1.06068
1.05995
1.05865
1.0566
1.056
1.06876
1.14504
1.51556
1.87229
2.01479
2.04006
2.03104
2.01411
1.02423
1.02142
1.01951
1.01895
1.01835
1.01811
1.01783
1.01736
1.01701
1.01661
1.01602
1.01573
1.0155
1.01536
1.01545
1.01565
1.01617
1.01694
1.01837
1.01939
1.02165
1.02343
1.02596
1.02856
1.03128
1.0341
1.03701
1.04001
1.04296
1.04583
1.04865
1.05131
1.05371
1.05579
1.05762
1.05924
1.06058
1.06171
1.06265
1.06319
1.06347
1.06329
1.06263
1.06095
1.05979
1.06707
1.13325
1.48327
1.8971
2.04004
2.05825
2.04826
2.03157
2.01123
1.04325
1.03121
1.0244
1.02084
1.01895
1.01783
1.01729
1.01678
1.01625
1.01575
1.01533
1.01491
1.01463
1.0144
1.01451
1.0147
1.01518
1.01611
1.01698
1.01922
1.0201
1.02326
1.02531
1.02811
1.03108
1.03416
1.03729
1.04045
1.0435
1.04645
1.04933
1.05226
1.05503
1.05745
1.05951
1.06128
1.06273
1.064
1.06501
1.06566
1.06605
1.06594
1.0649
1.0637
1.06659
1.1101
1.41107
1.89864
2.05867
2.07595
2.06574
2.04998
2.03083
2.0073
1.09836
1.06032
1.0397
1.02847
1.02251
1.01928
1.01739
1.01648
1.01568
1.01502
1.01446
1.01406
1.01358
1.0137
1.01337
1.01359
1.01397
1.01481
1.01627
1.01761
1.02027
1.02234
1.0251
1.02915
1.03118
1.03456
1.03784
1.04115
1.04444
1.04748
1.05032
1.05321
1.05607
1.05871
1.06108
1.0631
1.06477
1.06626
1.06737
1.06816
1.06858
1.06834
1.06716
1.06715
1.0911
1.28873
1.8761
2.07406
2.09311
2.08285
2.06796
2.05029
2.02872
2.00092
1.2127
1.12468
1.07425
1.04652
1.03175
1.02385
1.01942
1.01692
1.01558
1.01439
1.01364
1.013
1.01228
1.01214
1.01174
1.01229
1.01277
1.01369
1.01532
1.01886
1.02149
1.02495
1.02851
1.03138
1.03644
1.03852
1.04117
1.04328
1.04567
1.04858
1.05126
1.05392
1.05692
1.05986
1.06253
1.06482
1.06677
1.06849
1.06973
1.07061
1.0709
1.0704
1.06962
1.0789
1.19684
1.79581
2.08259
2.10965
2.09939
2.08548
2.07021
2.05024
2.02413
1.99026
1.39454
1.24036
1.14143
1.08352
1.05138
1.03399
1.02459
1.01932
1.01631
1.01468
1.01321
1.01239
1.01114
1.01136
1.01063
1.01296
1.01314
1.01696
1.02176
1.02542
1.03346
1.04309
1.05394
1.0593
1.06227
1.06709
1.05901
1.05408
1.0521
1.05252
1.05361
1.05557
1.05814
1.06104
1.06388
1.0664
1.06867
1.07055
1.07199
1.07284
1.07297
1.0721
1.07305
1.1338
1.66764
2.08647
2.12441
2.11495
2.10231
2.08922
2.07111
2.0476
2.01671
1.97348
1.51422
1.3318
1.2008
1.11927
1.07183
1.04503
1.03033
1.02248
1.01754
1.01495
1.0131
1.01193
1.01147
1.01142
1.01828
1.0161
1.03126
1.02492
1.0689
1.10386
1.13812
1.19433
1.23007
1.23296
1.23631
1.20412
1.1603
1.11115
1.07849
1.06078
1.0564
1.05699
1.05902
1.06197
1.06505
1.06791
1.07046
1.07255
1.07406
1.07475
1.07475
1.07378
1.0915
1.42513
2.06353
2.13492
2.12901
2.11765
2.10647
2.09122
2.07032
2.04337
2.00511
1.95097
1.49402
1.31177
1.18588
1.10929
1.06526
1.04076
1.02772
1.02006
1.01634
1.01472
1.01328
1.01668
1.01618
1.02867
1.02681
1.09879
1.18653
1.29021
1.39717
1.48954
1.56769
1.61993
1.63398
1.62735
1.621
1.55976
1.49738
1.30731
1.14506
1.0884
1.06615
1.06002
1.06027
1.06289
1.06611
1.06928
1.07211
1.07434
1.07578
1.07647
1.07542
1.07862
1.29089
1.98992
2.13824
2.14027
2.13116
2.12158
2.10948
2.09153
2.0688
2.0369
1.99069
1.9242
1.37927
1.22933
1.13188
1.07545
1.04522
1.02754
1.02
1.01771
1.01796
1.01857
1.03094
1.05001
1.1341
1.28346
1.44406
1.57822
1.69263
1.76465
1.81325
1.846
1.86895
1.88048
1.88743
1.87412
1.86684
1.81378
1.76618
1.59058
1.32702
1.14759
1.08409
1.06502
1.06169
1.06364
1.06711
1.0706
1.07357
1.07578
1.077
1.07714
1.08201
1.24341
1.89963
2.13111
2.14854
2.14266
2.13417
2.12519
2.11088
2.09198
2.06671
2.02974
1.97511
1.89509
1.15844
1.08723
1.04947
1.02795
1.01881
1.01894
1.02218
1.0379
1.07449
1.18717
1.39616
1.597
1.74222
1.83241
1.88113
1.9067
1.91967
1.92478
1.92728
1.9282
1.9286
1.92814
1.93433
1.93153
1.93621
1.91715
1.89086
1.77134
1.52169
1.23907
1.1101
1.06948
1.0623
1.06427
1.06794
1.07159
1.07456
1.07651
1.07823
1.09148
1.23318
1.83261
2.11009
2.15301
2.15112
2.14426
2.13733
2.12727
2.11218
2.09243
2.06461
2.02356
1.96144
1.86905
1.02795
1.01699
1.01354
1.02023
1.03919
1.1055
1.27177
1.52028
1.72858
1.85869
1.91903
1.94406
1.94363
1.93716
1.92537
1.91452
1.90015
1.87245
1.86532
1.86765
1.87506
1.88596
1.90089
1.91591
1.9277
1.93362
1.92148
1.83211
1.55803
1.23942
1.10718
1.06785
1.06189
1.06446
1.06856
1.07229
1.07507
1.07793
1.09524
1.22533
1.78081
2.08573
2.15262
2.15685
2.15213
2.14608
2.13928
2.12855
2.11336
2.0931
2.06453
2.02142
1.95484
1.85372
1.05695
1.11576
1.218
1.38343
1.59775
1.83388
1.93906
1.96898
1.97271
1.9617
1.9419
1.90786
1.86356
1.79015
1.74036
1.6831
1.63791
1.6116
1.60741
1.62107
1.65687
1.71131
1.76457
1.82632
1.88939
1.91388
1.91069
1.81196
1.52185
1.21616
1.09528
1.06246
1.06084
1.06461
1.06889
1.07255
1.07627
1.09748
1.20951
1.72785
2.05752
2.14752
2.15953
2.15767
2.15264
2.14755
2.13975
2.12934
2.11428
2.09412
2.06577
2.02235
1.95409
1.84953
1.68037
1.81604
1.9263
1.97138
1.98384
1.98061
1.96684
1.94239
1.899
1.83159
1.74036
1.64334
1.47718
1.37614
1.27705
1.21223
1.18449
1.1829
1.19281
1.2204
1.27185
1.35293
1.43698
1.59637
1.78425
1.88559
1.8937
1.79382
1.42973
1.15461
1.07013
1.05721
1.0599
1.06475
1.06936
1.07443
1.10345
1.18469
1.68211
2.0203
2.13881
2.15878
2.15977
2.15677
2.15272
2.14699
2.13956
2.12918
2.11443
2.09461
2.0672
2.02649
1.96309
1.86417
1.96079
1.96725
1.9677
1.95859
1.93469
1.89309
1.83188
1.74674
1.63348
1.48456
1.31464
1.16226
1.09282
1.06473
1.06
1.06079
1.06516
1.07192
1.08723
1.10727
1.13895
1.19844
1.32712
1.5597
1.77414
1.85787
1.81855
1.60774
1.24747
1.08895
1.05544
1.05489
1.05918
1.06432
1.07082
1.10167
1.15385
1.67055
1.95762
2.12714
2.15486
2.15935
2.15843
2.15585
2.15206
2.14622
2.13843
2.12786
2.11322
2.09384
2.06727
2.02856
1.9699
1.881
1.93451
1.91456
1.88164
1.83182
1.76239
1.66864
1.54624
1.38682
1.21409
1.08961
1.03739
1.02557
1.02998
1.04792
1.0831
1.11979
1.16939
1.13502
1.09498
1.10211
1.13277
1.20384
1.36465
1.62501
1.78254
1.82188
1.75066
1.3625
1.11279
1.05642
1.04986
1.05376
1.06194
1.07341
1.1004
1.12934
1.67383
1.9117
2.103
2.14871
2.15645
2.15751
2.15634
2.15456
2.1503
2.14407
2.13628
2.12614
2.11248
2.09485
2.07143
2.03824
1.98825
1.91189
1.81468
1.76078
1.68946
1.59787
1.48273
1.33759
1.17739
1.06642
1.01928
1.00749
1.00983
1.03257
1.0954
1.20124
1.28744
1.31546
1.30041
1.23036
1.15299
1.14183
1.18977
1.3255
1.53176
1.68018
1.72579
1.68325
1.38572
1.14215
1.05612
1.04507
1.04779
1.05515
1.06061
1.06995
1.1125
1.69139
1.87324
2.07694
2.13736
2.15144
2.15426
2.15437
2.15386
2.15161
2.14714
2.14142
2.13331
2.12408
2.11311
2.09846
2.0796
2.05504
2.02016
1.967
1.61847
1.53117
1.42751
1.30779
1.17734
1.06156
1.018
0.999053
0.997399
1.00547
1.03441
1.08617
1.16964
1.28939
1.3522
1.36657
1.36244
1.33846
1.31764
1.32027
1.40284
1.52465
1.60269
1.65838
1.65675
1.36874
1.12238
1.06059
1.03952
1.04358
1.05014
1.05358
1.10155
1.17023
1.58992
1.8852
2.04228
2.12663
2.14225
2.14904
2.15011
2.15055
2.15006
2.14719
2.14332
2.1374
2.12957
2.12042
2.10953
2.09781
2.08262
2.06288
2.03838
2.00483
1.38485
1.28392
1.17705
1.08669
1.01188
1.00083
0.990217
0.990612
0.995495
1.01109
1.04604
1.10247
1.18614
1.29033
1.35507
1.37365
1.38458
1.39046
1.40735
1.4315
1.48459
1.52195
1.54164
1.48664
1.26506
1.10834
1.05288
1.03162
1.03701
1.04108
1.04588
1.1071
1.11352
1.59591
1.84851
2.04802
2.10249
2.13467
2.14074
2.14447
2.14559
2.14618
2.14489
2.14277
2.13796
2.133
2.12464
2.11609
2.10472
2.09347
2.07984
2.06461
2.04586
2.02194
1.18215
1.09748
1.04003
0.991533
0.994041
0.986243
0.986429
0.985833
0.990071
1.00187
1.02084
1.0592
1.12003
1.20642
1.29751
1.33685
1.37098
1.37715
1.40196
1.41735
1.43391
1.40817
1.30462
1.16909
1.07272
1.03217
1.03183
1.03554
1.04042
1.06117
1.09485
1.10959
1.72325
1.76342
2.03219
2.09123
2.12291
2.13235
2.13684
2.13925
2.14058
2.14068
2.13971
2.13642
2.13275
2.1265
2.1193
2.1101
2.09952
2.08782
2.07492
2.0612
2.04618
2.02837
1.04881
1.01457
0.985117
0.990199
0.984075
0.983341
0.981667
0.982346
0.985393
0.992068
1.00336
1.02064
1.05034
1.09356
1.14859
1.20627
1.25766
1.26289
1.27889
1.26269
1.21606
1.15172
1.08556
1.02995
1.0343
1.02723
1.03621
1.04465
1.06576
1.07058
1.27201
1.83687
1.78294
2.01266
2.07441
2.11255
2.12225
2.12815
2.13115
2.1334
2.13412
2.13423
2.1321
2.1297
2.12495
2.11923
2.11177
2.10299
2.09287
2.08167
2.06955
2.0566
2.04249
2.02744
1.00719
0.982715
0.988083
0.981484
0.980766
0.979237
0.98009
0.980399
0.981899
0.984602
0.989042
0.996236
1.00775
1.02422
1.04479
1.06692
1.08016
1.08759
1.09242
1.07645
1.05796
1.02504
1.02606
1.01542
1.02414
1.02882
1.03643
1.04516
1.06591
1.55707
1.56301
1.9322
1.9539
2.07521
2.09587
2.11238
2.11796
2.12217
2.12504
2.12701
2.12803
2.12708
2.12485
2.12226
2.11697
2.11163
2.10405
2.09537
2.08564
2.07432
2.06234
2.04927
2.03582
2.02163
0.97974
0.988759
0.978581
0.9795
0.977237
0.978529
0.979036
0.979972
0.980717
0.981943
0.983485
0.98603
0.989869
0.994824
1.00097
1.00949
1.01141
1.01583
1.01638
1.0116
1.01162
1.00951
1.01565
1.01989
1.02951
1.04638
1.08719
1.23018
1.66261
1.64342
1.84461
2.01163
2.03779
2.09033
2.10006
2.10918
2.11282
2.1166
2.11904
2.12015
2.12046
2.11906
2.11748
2.11305
2.10933
2.10237
2.09567
2.08631
2.07693
2.06607
2.05487
2.04271
2.02982
2.01635
0.98468
0.984282
0.978621
0.974695
0.977394
0.977873
0.979166
0.980098
0.981055
0.981945
0.98277
0.983937
0.985539
0.987752
0.990597
0.993738
0.997247
1.00078
1.00438
1.00838
1.01336
1.01994
1.03149
1.04685
1.07446
1.15204
1.33317
1.60089
1.81611
1.81663
2.00843
2.04431
2.07996
2.09027
2.09885
2.10353
2.10715
2.1102
2.11188
2.11287
2.11239
2.11134
2.10757
2.10542
2.09909
2.0942
2.08595
2.07811
2.06815
2.05818
2.04677
2.03523
2.02263
2.00981
0.981903
0.983084
0.975997
0.97499
0.977002
0.977776
0.979248
0.980612
0.981849
0.98321
0.984533
0.98609
0.987945
0.990169
0.992816
0.995929
0.999525
1.00348
1.00799
1.01324
1.01957
1.02972
1.05424
1.1021
1.24596
1.45876
1.77172
1.78355
1.94068
1.95703
2.0547
2.06738
2.08258
2.08898
2.09498
2.09844
2.1017
2.10411
2.1054
2.10535
2.10433
2.10187
2.10056
2.09506
2.09026
2.0841
2.07605
2.06773
2.05803
2.04822
2.03758
2.02657
2.01475
2.00239
0.99014
0.981144
0.975756
0.976471
0.976259
0.978405
0.979839
0.981631
0.983366
0.985279
0.987276
0.989559
0.9921
0.99503
0.998552
1.00288
1.00832
1.01555
1.02617
1.04255
1.06829
1.11683
1.20593
1.42063
1.59974
1.81592
1.85581
1.96096
2.00805
2.03813
2.06357
2.07615
2.08306
2.08727
2.0913
2.09406
2.09673
2.09788
2.09835
2.09755
2.09593
2.09309
2.08961
2.08424
2.07893
2.07156
2.06406
2.05554
2.04674
2.03714
2.0271
2.01629
2.005
1.99317
0.989216
0.984042
0.98088
0.976544
0.978844
0.979441
0.98177
0.983641
0.985966
0.988458
0.991389
0.994789
0.998823
1.00372
1.00987
1.01791
1.02897
1.04472
1.06876
1.11027
1.19689
1.36122
1.57946
1.73476
1.88889
1.91269
1.98808
2.02261
2.0455
2.06348
2.07067
2.07791
2.08168
2.08485
2.08812
2.09037
2.09134
2.09171
2.09104
2.08969
2.08706
2.08374
2.07933
2.07345
2.06776
2.06008
2.0526
2.04375
2.03486
2.02508
2.01513
2.00461
1.9938
1.98248
0.989586
1.00604
0.987628
0.984085
0.982164
0.982628
0.984887
0.987225
0.989851
0.993492
0.998069
1.00363
1.01072
1.02015
1.03265
1.05047
1.07753
1.12142
1.20239
1.3425
1.53499
1.70333
1.87006
1.87546
1.97945
1.98596
2.03687
2.04795
2.06175
2.06969
2.07424
2.07865
2.08145
2.08369
2.08544
2.0863
2.08648
2.08577
2.08459
2.08186
2.07805
2.0738
2.06834
2.06222
2.05556
2.04731
2.03936
2.03024
2.02095
2.01123
2.00143
1.99126
1.98081
1.96949
1.07562
1.04732
1.00197
1.01166
0.997393
0.993475
0.994077
0.997018
0.999555
1.0045
1.01204
1.02171
1.03454
1.05337
1.07966
1.12072
1.18973
1.30457
1.46147
1.62993
1.78076
1.91552
1.93881
2.00137
2.00843
2.04436
2.05329
2.06492
2.0704
2.07453
2.07773
2.08031
2.08165
2.08303
2.08366
2.08307
2.08189
2.08042
2.07757
2.07366
2.06914
2.06404
2.05728
2.05014
2.04182
2.0333
2.02448
2.01454
2.00538
1.99538
1.98595
1.97578
1.96531
1.95374
1.33416
1.18659
1.11121
1.0599
1.06743
1.03694
1.03809
1.03134
1.03481
1.03923
1.05186
1.06995
1.09434
1.13503
1.19751
1.29661
1.4271
1.56858
1.71923
1.86405
1.91956
1.99186
1.9951
2.03724
2.04648
2.06187
2.07046
2.07436
2.07771
2.0806
2.08185
2.08275
2.08297
2.08324
2.08243
2.08077
2.07873
2.07544
2.0714
2.06601
2.05993
2.05251
2.04473
2.03637
2.02736
2.0178
2.00691
1.99754
1.98651
1.9776
1.96717
1.95781
1.94676
1.93494
1.65162
1.54968
1.43716
1.33972
1.24518
1.23107
1.19706
1.20174
1.19538
1.19898
1.21592
1.25116
1.29503
1.36776
1.46011
1.55716
1.68175
1.80279
1.89286
1.98038
1.98964
2.02936
2.03633
2.06234
2.06939
2.07816
2.08189
2.08433
2.08649
2.0864
2.08692
2.08599
2.08567
2.08432
2.08224
2.07925
2.07529
2.07045
2.06464
2.05785
2.05048
2.04189
2.03274
2.02231
2.01139
1.99999
1.98868
1.97633
1.96625
1.9541
1.9446
1.93477
1.9253
1.91352
1.82141
1.77905
1.72763
1.67539
1.63018
1.58953
1.55273
1.51755
1.5301
1.51987
1.52803
1.54736
1.5903
1.64332
1.71955
1.78642
1.8742
1.94615
1.98855
2.0294
2.03566
2.0593
2.0658
2.08174
2.08604
2.09261
2.09353
2.09506
2.09403
2.09419
2.09219
2.09197
2.08883
2.0868
2.08266
2.07871
2.07305
2.067
2.05961
2.05119
2.04159
2.03078
2.01925
2.00656
1.99304
1.97873
1.96519
1.95313
1.94081
1.93286
1.92361
1.91514
1.90505
1.89122
1.8927
1.88009
1.86278
1.84276
1.82096
1.80118
1.78533
1.77527
1.76806
1.76569
1.77611
1.78616
1.8125
1.85203
1.89315
1.93689
1.98041
2.01747
2.04045
2.05751
2.0696
2.0815
2.08877
2.09729
2.10228
2.10421
2.10563
2.10486
2.10437
2.10191
2.10046
2.09701
2.09419
2.08945
2.08478
2.0787
2.07187
2.06369
2.05451
2.0438
2.03228
2.0189
2.00517
1.98995
1.97533
1.96035
1.9463
1.93295
1.92054
1.90918
1.89841
1.88703
1.87679
1.86387
1.91756
1.91594
1.9137
1.91034
1.90667
1.9029
1.90002
1.89854
1.89934
1.903
1.91226
1.9241
1.94009
1.96341
1.98867
2.01106
2.0351
2.0534
2.06988
2.08129
2.09227
2.10107
2.10799
2.11426
2.11552
2.11782
2.117
2.11683
2.11376
2.11247
2.10774
2.10523
2.09856
2.095
2.08644
2.08092
2.07081
2.06218
2.04958
2.03737
2.02241
2.00794
1.99134
1.9748
1.95803
1.93862
1.92453
1.9107
1.90087
1.89339
1.88786
1.883
1.87887
1.86944
1.92539
1.92782
1.93104
1.93415
1.93756
1.94168
1.94574
1.95122
1.95716
1.96522
1.97306
1.98835
2.00034
2.01646
2.03229
2.04844
2.06399
2.07806
2.09047
2.10087
2.11078
2.1191
2.12508
2.12822
2.13006
2.13146
2.13014
2.12909
2.12552
2.12229
2.11746
2.11242
2.10671
2.099
2.09187
2.08197
2.07242
2.05925
2.04662
2.03068
2.01528
1.99714
1.97851
1.9578
1.9372
1.92321
1.90902
1.90032
1.89735
1.89977
1.91016
1.91902
1.92049
1.92223
1.92692
1.9308
1.93588
1.94144
1.94842
1.955
1.96287
1.97168
1.98059
1.99158
2.00219
2.01424
2.0277
2.04108
2.0554
2.06872
2.08266
2.09564
2.10721
2.11835
2.12754
2.13495
2.13948
2.14267
2.14382
2.14511
2.1429
2.14173
2.13653
2.13381
2.12674
2.12254
2.11339
2.10786
2.09637
2.08699
2.07234
2.05976
2.04332
2.02702
2.00667
1.98666
1.96385
1.94304
1.92616
1.91161
1.90182
1.90436
1.91279
1.92081
1.92761
1.93215
1.93142
1.92131
1.02111
1.02006
1.01889
1.01771
1.01645
1.01519
1.01385
1.01249
1.01111
1.00972
1.00832
1.00698
1.00559
1.00435
1.00298
1.00188
1.00059
0.999624
0.998547
0.997611
1.01998
1.01806
1.01691
1.0154
1.01387
1.01228
1.01066
1.00899
1.00737
1.00567
1.00419
1.00242
1.00122
0.999339
0.998508
0.996659
0.996121
0.994495
0.994114
0.992987
1.01843
1.01685
1.01512
1.01331
1.01147
1.00953
1.00761
1.00566
1.00357
1.00191
0.999432
0.998607
0.99573
0.995337
0.99278
0.992395
0.990527
0.990083
0.989028
0.988738
1.01726
1.0153
1.01326
1.01109
1.00893
1.00663
1.00446
1.00198
1.00013
0.997089
0.996206
0.993067
0.991971
0.989483
0.988586
0.986696
0.986006
0.984843
0.98426
0.983787
1.01612
1.01381
1.01147
1.00899
1.00646
1.0039
1.00115
0.998809
0.995709
0.994108
0.990357
0.989413
0.985977
0.985589
0.982682
0.98215
0.98045
0.980084
0.97943
0.979373
1.01497
1.01239
1.00969
1.00688
1.00394
1.00101
0.997941
0.995092
0.991887
0.989354
0.986369
0.9837
0.982282
0.978622
0.978552
0.976446
0.975828
0.974908
0.974506
0.974593
1.01389
1.01098
1.00791
1.00466
1.00144
0.997825
0.994971
0.990321
0.989007
0.983542
0.982524
0.978059
0.976743
0.97389
0.972446
0.970483
0.969912
0.969768
0.969613
0.969974
1.01286
1.00946
1.00608
1.00236
0.998649
0.994815
0.990844
0.987186
0.983306
0.979689
0.976487
0.973014
0.970754
0.968182
0.966823
0.964865
0.964479
0.964043
0.964241
0.964799
1.01168
1.00801
1.00418
0.999822
0.995914
0.991194
0.987169
0.982927
0.97842
0.974803
0.970465
0.967389
0.963793
0.962177
0.960122
0.959105
0.958684
0.958637
0.958928
0.960328
1.01032
1.00746
1.00271
0.997929
0.994461
0.987779
0.988007
0.978979
0.979197
0.971405
0.968334
0.962294
0.958835
0.954902
0.953383
0.952153
0.951285
0.951778
0.952951
0.954492
1.00922
1.00856
1.00025
0.999705
0.99548
0.997921
0.99753
0.996486
0.997373
0.98695
0.977445
0.97299
0.958611
0.956423
0.948203
0.947267
0.947521
0.945816
0.946329
0.949186
1.01029
1.01375
1.00523
1.02042
1.02929
1.05474
1.06967
1.08845
1.09595
1.08285
1.07597
1.02597
1.0316
0.971245
0.970809
0.950139
0.941592
0.942499
0.943441
0.943874
1.01625
1.0389
1.06624
1.1122
1.18597
1.28057
1.34849
1.41202
1.43848
1.42105
1.3632
1.35967
1.20724
1.23988
1.03274
0.993691
0.975849
0.950446
0.936887
0.941706
1.08432
1.14036
1.28916
1.46461
1.61212
1.692
1.73598
1.74567
1.73526
1.71036
1.69274
1.60977
1.62394
1.39717
1.50687
1.30754
1.05655
1.00395
0.981497
0.948163
1.33763
1.61715
1.74717
1.82607
1.85663
1.86428
1.84487
1.81312
1.79141
1.75553
1.72184
1.69708
1.66289
1.63959
1.58453
1.42197
1.64953
1.2397
0.987717
0.984981
1.73099
1.83191
1.90041
1.91675
1.90433
1.87576
1.85031
1.79918
1.77529
1.72192
1.66854
1.63283
1.6214
1.6115
1.58485
1.6088
1.477
1.48834
1.50666
1.05084
1.94595
1.97085
1.9557
1.93041
1.90259
1.87393
1.81307
1.78773
1.70686
1.62239
1.52023
1.44804
1.42506
1.43501
1.49159
1.5245
1.51322
1.50709
1.43735
1.51843
1.99251
1.97345
1.95054
1.92293
1.8934
1.84326
1.81173
1.72795
1.65091
1.55649
1.45056
1.35095
1.28308
1.25922
1.28588
1.36708
1.44579
1.46351
1.45826
1.44995
1.99374
1.97184
1.94582
1.91635
1.87583
1.8364
1.77672
1.71069
1.62981
1.53416
1.4204
1.31441
1.22833
1.18903
1.18439
1.2035
1.30727
1.40195
1.44197
1.42798
1.99198
1.96616
1.9372
1.90186
1.86099
1.80842
1.75443
1.68601
1.6155
1.53578
1.4201
1.2977
1.21312
1.16198
1.13837
1.15191
1.16113
1.29121
1.39483
1.41608
1.98658
1.95821
1.92363
1.88057
1.82684
1.77102
1.70752
1.64461
1.58489
1.52735
1.45143
1.32349
1.22266
1.17147
1.13681
1.13608
1.14567
1.20963
1.3274
1.38595
1.97887
1.94338
1.89736
1.84073
1.77521
1.70358
1.63312
1.57386
1.52905
1.49008
1.44358
1.36387
1.22138
1.18106
1.16292
1.14614
1.15469
1.20525
1.31162
1.37136
1.96551
1.91869
1.85843
1.78379
1.69785
1.6091
1.52491
1.46672
1.43919
1.42737
1.41639
1.38006
1.24828
1.15906
1.17794
1.19288
1.19767
1.22403
1.31871
1.37354
1.94417
1.88224
1.80149
1.70215
1.59177
1.48102
1.37989
1.31559
1.29814
1.31361
1.36512
1.37804
1.31335
1.13293
1.18688
1.24926
1.27169
1.29837
1.34273
1.37868
1.91385
1.83287
1.72801
1.60382
1.46966
1.34068
1.22677
1.14426
1.11973
1.14293
1.24972
1.35966
1.34435
1.17445
1.14096
1.26758
1.31541
1.33961
1.36801
1.38897
1.87535
1.77313
1.64538
1.4998
1.35104
1.21413
1.10143
1.04728
1.01995
1.02774
1.09732
1.29375
1.34737
1.2385
1.13679
1.25767
1.32601
1.35372
1.37343
1.38944
1.83071
1.70704
1.55845
1.39867
1.24391
1.11602
1.04026
1.0018
0.99852
1.00563
1.04526
1.18677
1.30869
1.26705
1.16606
1.19463
1.31748
1.34759
1.37499
1.36798
1.78265
1.63715
1.46877
1.29784
1.14588
1.04941
1.01055
1.00007
0.998151
1.00851
1.043
1.14131
1.25556
1.26746
1.17376
1.15088
1.23668
1.29948
1.31656
1.27435
1.73873
1.57215
1.38686
1.21005
1.08696
1.02452
1.01206
1.0015
1.01659
1.03526
1.06571
1.13677
1.20878
1.21908
1.16514
1.10998
1.12931
1.16839
1.18486
1.1315
1.71052
1.53019
1.33511
1.15282
1.04699
1.02875
1.01469
1.02409
1.05774
1.0908
1.12045
1.15266
1.19178
1.19334
1.15713
1.06835
1.05324
1.05433
1.06679
1.04201
1.70136
1.51536
1.31369
1.13681
1.04611
1.02061
1.02542
1.04339
1.09709
1.15285
1.18569
1.18611
1.18948
1.17887
1.14177
1.06365
1.01559
0.986242
0.999721
0.987373
1.71806
1.52583
1.31269
1.11748
1.05747
1.01954
1.02274
1.05608
1.11463
1.17397
1.2252
1.20837
1.21033
1.18382
1.14182
1.07812
1.00542
0.973553
0.967062
0.965344
1.75172
1.57946
1.3766
1.17176
1.06544
1.0186
1.01019
1.03425
1.09714
1.16514
1.2342
1.21434
1.21613
1.18776
1.15401
1.09018
1.03556
0.986515
0.965866
0.96501
1.79801
1.64054
1.44903
1.25342
1.07749
1.03287
0.999534
0.995157
1.01912
1.08125
1.16246
1.17603
1.19607
1.17272
1.14998
1.09143
1.04627
0.993787
0.974382
0.965246
1.88472
1.7614
1.59302
1.3963
1.20887
1.03676
1.02096
0.983957
0.984247
0.987861
1.01701
1.06861
1.11647
1.11002
1.10839
1.07006
1.03408
0.990687
0.964721
0.965378
1.95624
1.88087
1.76755
1.60413
1.4045
1.20981
1.04467
1.0054
0.978321
0.976331
0.959163
0.964503
0.968798
0.992719
0.990731
0.992977
0.976479
0.958071
0.958911
0.962276
1.99249
1.95238
1.8931
1.80631
1.67889
1.50843
1.30343
1.15962
0.98727
1.00425
0.951947
0.971843
0.926612
0.9452
0.939481
0.945826
0.947279
0.946944
0.959719
0.960518
2.00838
1.98278
1.95261
1.91081
1.85557
1.7756
1.66755
1.51894
1.35224
1.15557
1.05178
0.979965
0.972476
0.971697
0.953849
0.94872