/*--------------------------------*- C++ -*----------------------------------*\
  =========                 |
  \\      /  F ield         | OpenFOAM: The Open Source CFD Toolbox
   \\    /   O peration     | Website:  https://openfoam.org
    \\  /    A nd           | Version:  10
     \\/     M anipulation  |
\*---------------------------------------------------------------------------*/
FoamFile
{
    format      ascii;
    class       volVectorField;
    location    "0.648748";
    object      U;
}
// * * * * * * * * * * * * * * * * * * * * * * * * * * * * * * * * * * * * * //

dimensions      [0 1 -1 0 0 0 0];

internalField   nonuniform List<vector> 
15984
(
(0.508806 -0.0775687 0)
(0.506545 -0.079923 0)
(0.503972 -0.0821908 0)
(0.501048 -0.0843746 0)
(0.497773 -0.086428 0)
(0.494161 -0.0883324 0)
(0.490231 -0.0900453 0)
(0.486007 -0.0915501 0)
(0.481486 -0.0927913 0)
(0.476679 -0.093752 0)
(0.471656 -0.0944198 0)
(0.466457 -0.094806 0)
(0.461105 -0.0949029 0)
(0.455644 -0.0947106 0)
(0.450111 -0.0942432 0)
(0.444544 -0.0935145 0)
(0.438985 -0.0925481 0)
(0.433469 -0.0913702 0)
(0.428035 -0.0900114 0)
(0.422716 -0.0885048 0)
(0.417545 -0.086886 0)
(0.412552 -0.0851922 0)
(0.407768 -0.0834606 0)
(0.403219 -0.0817282 0)
(0.398932 -0.0800312 0)
(0.39493 -0.0784038 0)
(0.391237 -0.076878 0)
(0.387875 -0.0754826 0)
(0.384865 -0.0742429 0)
(0.382226 -0.0731804 0)
(0.379978 -0.0723122 0)
(0.37814 -0.0716504 0)
(0.376728 -0.0712023 0)
(0.375759 -0.0709694 0)
(0.37525 -0.0709473 0)
(0.375216 -0.0711259 0)
(0.375669 -0.0714875 0)
(0.376621 -0.0720078 0)
(0.378081 -0.0726565 0)
(0.380048 -0.0733944 0)
(0.382553 -0.0741888 0)
(0.385632 -0.0749757 0)
(0.389261 -0.075691 0)
(0.393419 -0.0762802 0)
(0.39812 -0.0766716 0)
(0.403384 -0.0767931 0)
(0.409186 -0.0765668 0)
(0.415522 -0.0759098 0)
(0.422386 -0.0747297 0)
(0.429737 -0.0729568 0)
(0.437561 -0.0704799 0)
(0.445809 -0.0672434 0)
(0.454438 -0.0631237 0)
(0.463381 -0.0580927 0)
(0.506549 -0.0721706 0)
(0.504317 -0.0741962 0)
(0.501806 -0.0761539 0)
(0.498983 -0.0780482 0)
(0.495836 -0.0798448 0)
(0.49238 -0.0815076 0)
(0.488643 -0.0830064 0)
(0.484632 -0.0843181 0)
(0.480356 -0.0854267 0)
(0.475832 -0.0862817 0)
(0.471085 -0.0868625 0)
(0.466149 -0.0871866 0)
(0.46107 -0.0872536 0)
(0.455876 -0.0870617 0)
(0.450597 -0.0866239 0)
(0.445267 -0.0859527 0)
(0.439917 -0.0850695 0)
(0.434584 -0.0839998 0)
(0.429299 -0.0827725 0)
(0.424094 -0.0814204 0)
(0.419001 -0.0799779 0)
(0.414049 -0.0784815 0)
(0.409268 -0.0769678 0)
(0.404685 -0.0754735 0)
(0.400328 -0.0740346 0)
(0.396224 -0.072685 0)
(0.392398 -0.0714565 0)
(0.388876 -0.070378 0)
(0.385683 -0.0694746 0)
(0.382844 -0.0687679 0)
(0.380382 -0.0682748 0)
(0.378321 -0.0680074 0)
(0.376685 -0.0679726 0)
(0.375496 -0.0681717 0)
(0.374776 -0.0686 0)
(0.374548 -0.0692462 0)
(0.374829 -0.0700933 0)
(0.375638 -0.0711145 0)
(0.37699 -0.0722796 0)
(0.378886 -0.0735472 0)
(0.381366 -0.0748844 0)
(0.384487 -0.0762286 0)
(0.388215 -0.0775075 0)
(0.392534 -0.0786698 0)
(0.397474 -0.0796375 0)
(0.403044 -0.0803345 0)
(0.409241 -0.0806866 0)
(0.416065 -0.0805976 0)
(0.423493 -0.0799777 0)
(0.431517 -0.0787309 0)
(0.440092 -0.0767646 0)
(0.4492 -0.0739782 0)
(0.458762 -0.0702909 0)
(0.468715 -0.0655636 0)
(0.504652 -0.0666251 0)
(0.502419 -0.0683296 0)
(0.499955 -0.0700026 0)
(0.497199 -0.0716249 0)
(0.494159 -0.0731927 0)
(0.490845 -0.0746414 0)
(0.487266 -0.0759542 0)
(0.48343 -0.0771027 0)
(0.479362 -0.0780689 0)
(0.475079 -0.0788202 0)
(0.470583 -0.0793376 0)
(0.465896 -0.0796148 0)
(0.46106 -0.0796526 0)
(0.456105 -0.0794642 0)
(0.451052 -0.0790552 0)
(0.445932 -0.0784393 0)
(0.44077 -0.0776349 0)
(0.435596 -0.0766658 0)
(0.430439 -0.0755609 0)
(0.425329 -0.0743525 0)
(0.420294 -0.0730738 0)
(0.415363 -0.0717617 0)
(0.410566 -0.0704528 0)
(0.405931 -0.0691836 0)
(0.401486 -0.0679901 0)
(0.39726 -0.0669067 0)
(0.393282 -0.0659652 0)
(0.389581 -0.0651949 0)
(0.386186 -0.0646213 0)
(0.383126 -0.0642663 0)
(0.38043 -0.0641469 0)
(0.378128 -0.0642754 0)
(0.376248 -0.0646589 0)
(0.374819 -0.0652983 0)
(0.373869 -0.0661888 0)
(0.373426 -0.0673184 0)
(0.373517 -0.0686699 0)
(0.374163 -0.0702151 0)
(0.375391 -0.0719237 0)
(0.377197 -0.0737529 0)
(0.379636 -0.0756683 0)
(0.382781 -0.0776057 0)
(0.386596 -0.0794954 0)
(0.391068 -0.0812764 0)
(0.396236 -0.0828745 0)
(0.402116 -0.0842098 0)
(0.408707 -0.0851944 0)
(0.416018 -0.0857345 0)
(0.424045 -0.0857379 0)
(0.432753 -0.085084 0)
(0.442127 -0.0836913 0)
(0.452114 -0.0814156 0)
(0.4627 -0.078194 0)
(0.473745 -0.0738639 0)
(0.503069 -0.0609526 0)
(0.500833 -0.0623481 0)
(0.498386 -0.0637411 0)
(0.495674 -0.0651194 0)
(0.492706 -0.0664502 0)
(0.489505 -0.0677035 0)
(0.486062 -0.0688439 0)
(0.48239 -0.0698502 0)
(0.478502 -0.0706895 0)
(0.47442 -0.0713517 0)
(0.470143 -0.071816 0)
(0.465685 -0.0720618 0)
(0.461073 -0.0720853 0)
(0.456328 -0.0719036 0)
(0.451478 -0.071525 0)
(0.446544 -0.0709604 0)
(0.441548 -0.070229 0)
(0.436514 -0.0693538 0)
(0.431467 -0.0683622 0)
(0.426432 -0.0672859 0)
(0.421438 -0.066159 0)
(0.416511 -0.0650178 0)
(0.411679 -0.0638994 0)
(0.406972 -0.0628408 0)
(0.40242 -0.0618786 0)
(0.398053 -0.061048 0)
(0.393903 -0.0603814 0)
(0.390002 -0.059909 0)
(0.386383 -0.0596572 0)
(0.383081 -0.0596481 0)
(0.380129 -0.0598998 0)
(0.377562 -0.0604248 0)
(0.375414 -0.0612304 0)
(0.373722 -0.0623177 0)
(0.372518 -0.0636816 0)
(0.371837 -0.06531 0)
(0.371713 -0.0671851 0)
(0.372173 -0.069278 0)
(0.373251 -0.0715583 0)
(0.374947 -0.0739826 0)
(0.377324 -0.0765126 0)
(0.380472 -0.0790848 0)
(0.384356 -0.0816316 0)
(0.388964 -0.0840837 0)
(0.394347 -0.0863701 0)
(0.400527 -0.0884005 0)
(0.407517 -0.0900917 0)
(0.415324 -0.0913297 0)
(0.423948 -0.0920223 0)
(0.433375 -0.092051 0)
(0.44358 -0.0912886 0)
(0.454529 -0.0896225 0)
(0.466158 -0.0869053 0)
(0.478379 -0.0830715 0)
(0.501835 -0.0551141 0)
(0.49956 -0.0562145 0)
(0.497093 -0.0573386 0)
(0.494397 -0.058487 0)
(0.49148 -0.0596088 0)
(0.488354 -0.060685 0)
(0.485016 -0.0616782 0)
(0.481474 -0.0625578 0)
(0.477744 -0.0632976 0)
(0.473829 -0.0638797 0)
(0.469746 -0.0642967 0)
(0.465498 -0.0645174 0)
(0.46109 -0.0645413 0)
(0.45654 -0.0643722 0)
(0.451874 -0.0640242 0)
(0.447109 -0.0635091 0)
(0.442261 -0.0628457 0)
(0.437349 -0.0620558 0)
(0.432395 -0.0611672 0)
(0.42742 -0.0602107 0)
(0.422449 -0.0592219 0)
(0.417508 -0.0582365 0)
(0.412624 -0.0572927 0)
(0.407827 -0.0564287 0)
(0.403148 -0.055682 0)
(0.398619 -0.0550887 0)
(0.394275 -0.0546831 0)
(0.390151 -0.0544962 0)
(0.386285 -0.0545558 0)
(0.382715 -0.0548853 0)
(0.379481 -0.0555033 0)
(0.376622 -0.0564235 0)
(0.37418 -0.0576535 0)
(0.372196 -0.0591948 0)
(0.370709 -0.0610423 0)
(0.369761 -0.063184 0)
(0.369394 -0.0656014 0)
(0.36964 -0.0682666 0)
(0.370539 -0.0711465 0)
(0.372097 -0.0742005 0)
(0.374385 -0.077383 0)
(0.377509 -0.0806339 0)
(0.381437 -0.0838872 0)
(0.386161 -0.0870684 0)
(0.391741 -0.0901025 0)
(0.398208 -0.0929008 0)
(0.405584 -0.0953665 0)
(0.41389 -0.0973912 0)
(0.423125 -0.0988611 0)
(0.433288 -0.0996529 0)
(0.444361 -0.0996303 0)
(0.456308 -0.098652 0)
(0.46907 -0.0965759 0)
(0.482561 -0.0932544 0)
(0.500905 -0.0491409 0)
(0.498562 -0.0499395 0)
(0.496055 -0.050817 0)
(0.493346 -0.0517382 0)
(0.490448 -0.0526744 0)
(0.487369 -0.0535889 0)
(0.484112 -0.0544513 0)
(0.480681 -0.0552208 0)
(0.47708 -0.0558779 0)
(0.473312 -0.0563976 0)
(0.469393 -0.0567687 0)
(0.465328 -0.0569801 0)
(0.461109 -0.0570086 0)
(0.45674 -0.056862 0)
(0.452243 -0.0565456 0)
(0.447631 -0.0560798 0)
(0.442916 -0.0554784 0)
(0.438113 -0.0547663 0)
(0.433237 -0.0539694 0)
(0.428307 -0.0531196 0)
(0.423345 -0.0522525 0)
(0.418374 -0.0514057 0)
(0.413421 -0.0506181 0)
(0.408515 -0.0499299 0)
(0.403689 -0.0493801 0)
(0.398976 -0.0490064 0)
(0.394414 -0.0488449 0)
(0.390042 -0.0489286 0)
(0.385901 -0.0492869 0)
(0.382035 -0.0499448 0)
(0.378489 -0.0509225 0)
(0.375309 -0.0522344 0)
(0.372541 -0.0538893 0)
(0.370232 -0.0558892 0)
(0.368429 -0.0582295 0)
(0.367181 -0.0608981 0)
(0.366535 -0.0638762 0)
(0.366532 -0.0671376 0)
(0.367218 -0.0706457 0)
(0.368604 -0.0743635 0)
(0.370773 -0.0782407 0)
(0.37384 -0.0822169 0)
(0.377779 -0.0862277 0)
(0.382591 -0.0902004 0)
(0.38834 -0.0940472 0)
(0.395073 -0.0976898 0)
(0.402825 -0.101014 0)
(0.411616 -0.103913 0)
(0.421465 -0.106262 0)
(0.432379 -0.107923 0)
(0.44435 -0.108752 0)
(0.45735 -0.108583 0)
(0.471321 -0.107247 0)
(0.486181 -0.104568 0)
(0.500294 -0.0430053 0)
(0.497842 -0.043517 0)
(0.49525 -0.0441409 0)
(0.492499 -0.0448508 0)
(0.489587 -0.0456109 0)
(0.486527 -0.0463833 0)
(0.483323 -0.0471286 0)
(0.479974 -0.0478139 0)
(0.476481 -0.0484077 0)
(0.472845 -0.0488869 0)
(0.469068 -0.0492313 0)
(0.465163 -0.049437 0)
(0.461119 -0.0494855 0)
(0.456922 -0.0493658 0)
(0.452583 -0.0490884 0)
(0.448114 -0.0486673 0)
(0.443522 -0.0481247 0)
(0.438816 -0.0474815 0)
(0.434008 -0.0467648 0)
(0.429111 -0.046007 0)
(0.424144 -0.0452445 0)
(0.419128 -0.0445167 0)
(0.414089 -0.0438646 0)
(0.409056 -0.0433301 0)
(0.404061 -0.0429548 0)
(0.399142 -0.0427792 0)
(0.394337 -0.0428414 0)
(0.38969 -0.0431771 0)
(0.385245 -0.0438177 0)
(0.381052 -0.0447906 0)
(0.377161 -0.0461178 0)
(0.373623 -0.0478154 0)
(0.370491 -0.0498933 0)
(0.36782 -0.0523546 0)
(0.365663 -0.0551952 0)
(0.364074 -0.0584037 0)
(0.363109 -0.0619607 0)
(0.362818 -0.0658416 0)
(0.363249 -0.0700071 0)
(0.364423 -0.0744223 0)
(0.366435 -0.0790371 0)
(0.369405 -0.0837883 0)
(0.373315 -0.0886152 0)
(0.378179 -0.0934383 0)
(0.384066 -0.0981761 0)
(0.391033 -0.102736 0)
(0.399133 -0.107013 0)
(0.408395 -0.110888 0)
(0.418854 -0.114228 0)
(0.430524 -0.116884 0)
(0.443415 -0.118694 0)
(0.457512 -0.119475 0)
(0.472761 -0.119024 0)
(0.489085 -0.117121 0)
(0.499982 -0.036694 0)
(0.497388 -0.0369243 0)
(0.494689 -0.0373107 0)
(0.49185 -0.0378269 0)
(0.488887 -0.0384306 0)
(0.485813 -0.0390797 0)
(0.48263 -0.0397329 0)
(0.479337 -0.0403515 0)
(0.47593 -0.0409031 0)
(0.472406 -0.0413597 0)
(0.46876 -0.0416983 0)
(0.464995 -0.0419067 0)
(0.46111 -0.0419823 0)
(0.45708 -0.0418954 0)
(0.452897 -0.0416598 0)
(0.448565 -0.0412824 0)
(0.444086 -0.0407921 0)
(0.439471 -0.0402052 0)
(0.434722 -0.0395541 0)
(0.429849 -0.0388708 0)
(0.424866 -0.0381931 0)
(0.419793 -0.0375619 0)
(0.414653 -0.037021 0)
(0.409474 -0.036615 0)
(0.404291 -0.0363884 0)
(0.39914 -0.0363853 0)
(0.394065 -0.036647 0)
(0.389111 -0.037212 0)
(0.384329 -0.0381151 0)
(0.379773 -0.0393861 0)
(0.375498 -0.0410493 0)
(0.371562 -0.043123 0)
(0.368025 -0.0456188 0)
(0.364948 -0.0485413 0)
(0.362392 -0.0518876 0)
(0.360418 -0.055647 0)
(0.359088 -0.0598007 0)
(0.358463 -0.0643236 0)
(0.358595 -0.0691766 0)
(0.359508 -0.0743265 0)
(0.361315 -0.0797233 0)
(0.36414 -0.0852919 0)
(0.367978 -0.091 0)
(0.372847 -0.0967365 0)
(0.378828 -0.102448 0)
(0.385993 -0.108004 0)
(0.394404 -0.113345 0)
(0.404107 -0.118286 0)
(0.415154 -0.122764 0)
(0.427576 -0.126533 0)
(0.441395 -0.129494 0)
(0.456612 -0.131381 0)
(0.473188 -0.131979 0)
(0.491034 -0.131015 0)
(0.499976 -0.0301987 0)
(0.497176 -0.0301388 0)
(0.494314 -0.0302992 0)
(0.491354 -0.0306355 0)
(0.48831 -0.0310958 0)
(0.485194 -0.0316499 0)
(0.482009 -0.0322362 0)
(0.47875 -0.0328088 0)
(0.475411 -0.0333447 0)
(0.471985 -0.0338009 0)
(0.468458 -0.0341541 0)
(0.464826 -0.0343851 0)
(0.46109 -0.0344918 0)
(0.457219 -0.0344502 0)
(0.453188 -0.0342594 0)
(0.448991 -0.0339309 0)
(0.444626 -0.0334848 0)
(0.440098 -0.0329458 0)
(0.435401 -0.0323452 0)
(0.430546 -0.0317159 0)
(0.425539 -0.031099 0)
(0.420396 -0.030538 0)
(0.41514 -0.0300793 0)
(0.409798 -0.0297717 0)
(0.404403 -0.0296636 0)
(0.398995 -0.0298022 0)
(0.393619 -0.0302332 0)
(0.388325 -0.0309994 0)
(0.383169 -0.0321395 0)
(0.378209 -0.0336873 0)
(0.373507 -0.0356706 0)
(0.369128 -0.0381098 0)
(0.365139 -0.0410183 0)
(0.361608 -0.0444012 0)
(0.358602 -0.0482569 0)
(0.356192 -0.0525759 0)
(0.354445 -0.0573409 0)
(0.353432 -0.0625266 0)
(0.353209 -0.0680978 0)
(0.353807 -0.074016 0)
(0.355364 -0.0802349 0)
(0.357987 -0.0866805 0)
(0.361691 -0.0933178 0)
(0.366512 -0.100048 0)
(0.372542 -0.106799 0)
(0.379844 -0.11346 0)
(0.388528 -0.119957 0)
(0.398622 -0.126098 0)
(0.410225 -0.131833 0)
(0.423376 -0.136888 0)
(0.438084 -0.141144 0)
(0.454421 -0.144312 0)
(0.472285 -0.146144 0)
(0.49159 -0.146231 0)
(0.500269 -0.0234761 0)
(0.497226 -0.0231375 0)
(0.494152 -0.0230807 0)
(0.491024 -0.0232543 0)
(0.487846 -0.0236054 0)
(0.484641 -0.0240815 0)
(0.481433 -0.0246285 0)
(0.478181 -0.0251955 0)
(0.474887 -0.0257409 0)
(0.471546 -0.0262247 0)
(0.468133 -0.0266173 0)
(0.464628 -0.0268932 0)
(0.461032 -0.0270408 0)
(0.457318 -0.0270554 0)
(0.453443 -0.0269107 0)
(0.449387 -0.0266264 0)
(0.44514 -0.0262169 0)
(0.440699 -0.0257128 0)
(0.436059 -0.0251442 0)
(0.431219 -0.0245465 0)
(0.426183 -0.0239643 0)
(0.420963 -0.0234424 0)
(0.415577 -0.0230311 0)
(0.410053 -0.0227836 0)
(0.404425 -0.0227539 0)
(0.398734 -0.0229944 0)
(0.393026 -0.0235567 0)
(0.387356 -0.0244886 0)
(0.381784 -0.0258334 0)
(0.376373 -0.0276282 0)
(0.371195 -0.0299046 0)
(0.366321 -0.0326888 0)
(0.361828 -0.0359987 0)
(0.357789 -0.0398421 0)
(0.35428 -0.0442166 0)
(0.351377 -0.0491115 0)
(0.349155 -0.0545084 0)
(0.347693 -0.0603824 0)
(0.347057 -0.0667029 0)
(0.347283 -0.0734232 0)
(0.348518 -0.0805014 0)
(0.35088 -0.0878923 0)
(0.354388 -0.0955108 0)
(0.359099 -0.103304 0)
(0.365107 -0.111168 0)
(0.372485 -0.119048 0)
(0.381379 -0.126784 0)
(0.391809 -0.134309 0)
(0.403899 -0.141403 0)
(0.417723 -0.147937 0)
(0.433264 -0.153635 0)
(0.450562 -0.158217 0)
(0.469565 -0.161389 0)
(0.489988 -0.162682 0)
(0.500857 -0.0164849 0)
(0.497491 -0.015875 0)
(0.494151 -0.0156222 0)
(0.490801 -0.0156605 0)
(0.487462 -0.0159321 0)
(0.484149 -0.0163687 0)
(0.480869 -0.0168991 0)
(0.477606 -0.0175009 0)
(0.474349 -0.0180762 0)
(0.471081 -0.0186246 0)
(0.467774 -0.0190839 0)
(0.464404 -0.0194307 0)
(0.460951 -0.0196406 0)
(0.457397 -0.0197158 0)
(0.45369 -0.0196302 0)
(0.449782 -0.0193898 0)
(0.445659 -0.0190128 0)
(0.441309 -0.0185262 0)
(0.436725 -0.017967 0)
(0.431899 -0.0173718 0)
(0.42683 -0.0167925 0)
(0.421528 -0.0162737 0)
(0.416006 -0.0158762 0)
(0.410287 -0.015658 0)
(0.404405 -0.015678 0)
(0.398402 -0.0159911 0)
(0.392329 -0.0166525 0)
(0.386243 -0.0177161 0)
(0.38021 -0.0192344 0)
(0.374303 -0.0212511 0)
(0.368594 -0.0238009 0)
(0.363164 -0.0269093 0)
(0.358094 -0.0305949 0)
(0.353475 -0.034871 0)
(0.349393 -0.0397434 0)
(0.345933 -0.0452065 0)
(0.343175 -0.0512422 0)
(0.341202 -0.0578232 0)
(0.340091 -0.0649173 0)
(0.339883 -0.072479 0)
(0.34072 -0.080469 0)
(0.342751 -0.088837 0)
(0.346002 -0.0975105 0)
(0.350529 -0.106431 0)
(0.356426 -0.115516 0)
(0.363814 -0.124656 0)
(0.372813 -0.133799 0)
(0.383504 -0.142754 0)
(0.396017 -0.151428 0)
(0.410369 -0.159504 0)
(0.426588 -0.166885 0)
(0.444548 -0.172852 0)
(0.464075 -0.17749 0)
(0.484934 -0.179774 0)
(0.501752 -0.00918584 0)
(0.498001 -0.00833863 0)
(0.494324 -0.00792222 0)
(0.490697 -0.00786645 0)
(0.487133 -0.00809246 0)
(0.483673 -0.00853139 0)
(0.480295 -0.00910654 0)
(0.476996 -0.00975951 0)
(0.473756 -0.0104254 0)
(0.470538 -0.0110538 0)
(0.467339 -0.0116026 0)
(0.464102 -0.0120362 0)
(0.460802 -0.012329 0)
(0.45741 -0.0124675 0)
(0.453876 -0.0124418 0)
(0.450137 -0.012241 0)
(0.446161 -0.0118813 0)
(0.441926 -0.0114026 0)
(0.437417 -0.0108354 0)
(0.432618 -0.0102298 0)
(0.427524 -0.0096168 0)
(0.422137 -0.00908228 0)
(0.416464 -0.0086386 0)
(0.410529 -0.00838274 0)
(0.404368 -0.0083696 0)
(0.398025 -0.00867122 0)
(0.391552 -0.00935696 0)
(0.385008 -0.01049 0)
(0.378465 -0.0121222 0)
(0.372004 -0.014306 0)
(0.365707 -0.0170873 0)
(0.359663 -0.0205035 0)
(0.353964 -0.0245782 0)
(0.348703 -0.0293183 0)
(0.343973 -0.0347196 0)
(0.339873 -0.0407745 0)
(0.336498 -0.0474692 0)
(0.333936 -0.0547798 0)
(0.332273 -0.0626745 0)
(0.33155 -0.0711116 0)
(0.331924 -0.0800556 0)
(0.333549 -0.0894523 0)
(0.33645 -0.0992324 0)
(0.3407 -0.109358 0)
(0.34644 -0.119724 0)
(0.353718 -0.130267 0)
(0.362753 -0.140878 0)
(0.373581 -0.151434 0)
(0.386353 -0.161741 0)
(0.40097 -0.171441 0)
(0.417493 -0.180382 0)
(0.435382 -0.18761 0)
(0.454467 -0.193448 0)
(0.474451 -0.19607 0)
(0.502914 -0.00151035 0)
(0.498691 -0.000403975 0)
(0.494611 0.000171557 0)
(0.490641 0.00031025 0)
(0.486815 8.70662e-05 0)
(0.483151 -0.000392099 0)
(0.47965 -0.00107513 0)
(0.476291 -0.00184575 0)
(0.473057 -0.00267207 0)
(0.469912 -0.00344022 0)
(0.466815 -0.00414998 0)
(0.463723 -0.00472545 0)
(0.460592 -0.0051467 0)
(0.457386 -0.0053776 0)
(0.454049 -0.00542155 0)
(0.450506 -0.00527049 0)
(0.446691 -0.00492195 0)
(0.442578 -0.00442743 0)
(0.43815 -0.00380997 0)
(0.433395 -0.00312021 0)
(0.428273 -0.00240477 0)
(0.422805 -0.00174853 0)
(0.416992 -0.00120754 0)
(0.410822 -0.000864187 0)
(0.404363 -0.000789027 0)
(0.397646 -0.00105769 0)
(0.390729 -0.00174394 0)
(0.383683 -0.0029181 0)
(0.376584 -0.0046422 0)
(0.369513 -0.00697183 0)
(0.362563 -0.00995414 0)
(0.355834 -0.0136281 0)
(0.349429 -0.0180266 0)
(0.343449 -0.023173 0)
(0.338 -0.029073 0)
(0.333184 -0.0357157 0)
(0.329108 -0.0430829 0)
(0.325874 -0.0511492 0)
(0.323577 -0.05988 0)
(0.32226 -0.0692345 0)
(0.322076 -0.0791675 0)
(0.323214 -0.0896484 0)
(0.32568 -0.100599 0)
(0.329573 -0.111982 0)
(0.335006 -0.123714 0)
(0.342109 -0.135764 0)
(0.351031 -0.14794 0)
(0.361858 -0.160202 0)
(0.374719 -0.172152 0)
(0.38918 -0.183344 0)
(0.405274 -0.193537 0)
(0.421755 -0.201154 0)
(0.438736 -0.207496 0)
(0.455081 -0.208905 0)
(0.504353 0.00666685 0)
(0.499543 0.00795571 0)
(0.494971 0.0086072 0)
(0.490592 0.00874216 0)
(0.486445 0.00846154 0)
(0.482546 0.00786388 0)
(0.478889 0.00705109 0)
(0.475456 0.00610621 0)
(0.472232 0.0051197 0)
(0.469145 0.00416198 0)
(0.466155 0.00329001 0)
(0.463224 0.00255749 0)
(0.460292 0.00200519 0)
(0.457303 0.00166606 0)
(0.454179 0.00154624 0)
(0.45086 0.0016594 0)
(0.447251 0.00200292 0)
(0.443298 0.00254023 0)
(0.438985 0.00322273 0)
(0.434278 0.00399988 0)
(0.42915 0.0048136 0)
(0.423597 0.00559624 0)
(0.41762 0.00627893 0)
(0.411227 0.00677589 0)
(0.404454 0.0069992 0)
(0.397341 0.0068625 0)
(0.389947 0.00628003 0)
(0.382344 0.005169 0)
(0.374616 0.003448 0)
(0.366859 0.00104501 0)
(0.359177 -0.00210118 0)
(0.35168 -0.00603189 0)
(0.344476 -0.0107669 0)
(0.337685 -0.0163294 0)
(0.331427 -0.0227345 0)
(0.325817 -0.0299753 0)
(0.320964 -0.038029 0)
(0.316976 -0.0468683 0)
(0.313958 -0.0564595 0)
(0.311963 -0.0667652 0)
(0.311143 -0.0777306 0)
(0.311688 -0.0893263 0)
(0.313632 -0.101513 0)
(0.31705 -0.11421 0)
(0.322085 -0.1274 0)
(0.328871 -0.140972 0)
(0.337564 -0.15486 0)
(0.348175 -0.16874 0)
(0.360754 -0.182353 0)
(0.374259 -0.194507 0)
(0.38892 -0.205487 0)
(0.401867 -0.212406 0)
(0.414293 -0.217769 0)
(0.424844 -0.219553 0)
(0.505975 0.0153399 0)
(0.500506 0.0167781 0)
(0.495353 0.0174854 0)
(0.490493 0.0175709 0)
(0.485961 0.0171625 0)
(0.481778 0.0163781 0)
(0.477936 0.0153359 0)
(0.474408 0.0141418 0)
(0.471169 0.0128914 0)
(0.468154 0.0116588 0)
(0.465308 0.0105462 0)
(0.462567 0.00959982 0)
(0.45986 0.00887514 0)
(0.457117 0.00839477 0)
(0.454259 0.00818123 0)
(0.451202 0.00826141 0)
(0.447834 0.00860595 0)
(0.444084 0.0092036 0)
(0.439919 0.00999382 0)
(0.435312 0.0109335 0)
(0.430199 0.0119348 0)
(0.424592 0.0129533 0)
(0.418479 0.0138713 0)
(0.411831 0.0146105 0)
(0.404716 0.0150654 0)
(0.397168 0.0151365 0)
(0.389249 0.0147248 0)
(0.381035 0.0137337 0)
(0.372618 0.0120723 0)
(0.364102 0.00966073 0)
(0.355601 0.00643186 0)
(0.347236 0.00232632 0)
(0.339145 -0.00271114 0)
(0.331452 -0.00868491 0)
(0.32428 -0.0155873 0)
(0.317768 -0.0234302 0)
(0.312038 -0.0321896 0)
(0.307204 -0.0418301 0)
(0.303373 -0.0523151 0)
(0.300612 -0.0636057 0)
(0.299071 -0.0756446 0)
(0.298927 -0.0884164 0)
(0.30024 -0.101868 0)
(0.303088 -0.115953 0)
(0.307607 -0.130623 0)
(0.313932 -0.145841 0)
(0.322214 -0.161373 0)
(0.332196 -0.176855 0)
(0.343884 -0.191614 0)
(0.355045 -0.203894 0)
(0.366072 -0.214138 0)
(0.372931 -0.219859 0)
(0.374836 -0.21618 0)
(0.381439 -0.219804 0)
(0.507626 0.0246702 0)
(0.501421 0.0262002 0)
(0.495625 0.0268634 0)
(0.49021 0.0268226 0)
(0.485245 0.026201 0)
(0.480744 0.0251409 0)
(0.476697 0.0237903 0)
(0.473071 0.022261 0)
(0.469825 0.0206756 0)
(0.466897 0.019127 0)
(0.464217 0.0177119 0)
(0.461702 0.0165028 0)
(0.459265 0.0155547 0)
(0.456815 0.0149144 0)
(0.454278 0.0146 0)
(0.451541 0.0146356 0)
(0.448468 0.015012 0)
(0.444974 0.0156942 0)
(0.441012 0.0166373 0)
(0.436522 0.0177765 0)
(0.431472 0.0190361 0)
(0.42583 0.0203432 0)
(0.41956 0.021571 0)
(0.412683 0.0226363 0)
(0.405217 0.0234177 0)
(0.397209 0.0237983 0)
(0.388722 0.0236607 0)
(0.379838 0.0228906 0)
(0.370657 0.0213807 0)
(0.361295 0.0190343 0)
(0.351881 0.0157686 0)
(0.342553 0.0115188 0)
(0.333451 0.00624299 0)
(0.32473 -0.000102944 0)
(0.316553 -0.00753452 0)
(0.309029 -0.0159906 0)
(0.302317 -0.0254765 0)
(0.296537 -0.0359492 0)
(0.291798 -0.0473604 0)
(0.288179 -0.0596695 0)
(0.28581 -0.0728215 0)
(0.284884 -0.0868144 0)
(0.28547 -0.101573 0)
(0.287636 -0.11708 0)
(0.29149 -0.133303 0)
(0.297206 -0.150132 0)
(0.304779 -0.167266 0)
(0.313528 -0.183825 0)
(0.323263 -0.198835 0)
(0.330107 -0.209813 0)
(0.333733 -0.215613 0)
(0.337222 -0.220758 0)
(0.327612 -0.215928 0)
(0.317787 -0.210569 0)
(0.508978 0.0347145 0)
(0.501992 0.036274 0)
(0.495523 0.0368269 0)
(0.48955 0.0365648 0)
(0.484118 0.0356356 0)
(0.479287 0.0342059 0)
(0.47503 0.0324337 0)
(0.471308 0.0304737 0)
(0.468083 0.0284511 0)
(0.465272 0.0264889 0)
(0.462798 0.0246957 0)
(0.460556 0.0231546 0)
(0.45845 0.0219406 0)
(0.456369 0.0210988 0)
(0.454211 0.0206698 0)
(0.451866 0.0206599 0)
(0.449159 0.021076 0)
(0.445986 0.0218793 0)
(0.442281 0.0230229 0)
(0.437988 0.024416 0)
(0.433033 0.0260255 0)
(0.427379 0.0276812 0)
(0.421006 0.0293447 0)
(0.413889 0.0308501 0)
(0.406063 0.0320734 0)
(0.397567 0.0328801 0)
(0.388466 0.0331323 0)
(0.378848 0.032694 0)
(0.368822 0.0314383 0)
(0.358516 0.0292501 0)
(0.348075 0.02603 0)
(0.337656 0.0216976 0)
(0.327426 0.016195 0)
(0.317551 0.00949535 0)
(0.308193 0.00159263 0)
(0.299563 -0.00753475 0)
(0.291746 -0.0177769 0)
(0.284915 -0.0291226 0)
(0.279176 -0.0415082 0)
(0.274603 -0.0548785 0)
(0.271314 -0.0691869 0)
(0.269515 -0.084427 0)
(0.269282 -0.100534 0)
(0.270637 -0.117497 0)
(0.273737 -0.135284 0)
(0.278593 -0.153655 0)
(0.285064 -0.17191 0)
(0.29151 -0.18867 0)
(0.297184 -0.201612 0)
(0.298406 -0.210698 0)
(0.289212 -0.209668 0)
(0.280348 -0.209041 0)
(0.275858 -0.209577 0)
(0.272129 -0.204902 0)
(0.509129 0.0454047 0)
(0.501546 0.0469377 0)
(0.494523 0.0473158 0)
(0.488054 0.0467456 0)
(0.482232 0.0454069 0)
(0.477107 0.0435075 0)
(0.472684 0.0412016 0)
(0.46892 0.038705 0)
(0.465756 0.0361481 0)
(0.463127 0.0336845 0)
(0.460926 0.031431 0)
(0.459041 0.0294936 0)
(0.457345 0.0279646 0)
(0.455716 0.0268835 0)
(0.454039 0.026316 0)
(0.452167 0.0262704 0)
(0.44992 0.0267336 0)
(0.447159 0.0276917 0)
(0.443786 0.0290791 0)
(0.439751 0.0308337 0)
(0.434951 0.0328099 0)
(0.429342 0.0349969 0)
(0.422894 0.0371493 0)
(0.415548 0.0392379 0)
(0.407352 0.041039 0)
(0.398339 0.0424108 0)
(0.38857 0.0431911 0)
(0.378141 0.0432189 0)
(0.367173 0.0423422 0)
(0.355808 0.040423 0)
(0.34421 0.03734 0)
(0.332558 0.0329954 0)
(0.321044 0.0273198 0)
(0.309869 0.0202754 0)
(0.299224 0.011863 0)
(0.289277 0.00211735 0)
(0.280277 -0.00896723 0)
(0.27227 -0.021227 0)
(0.265421 -0.0346368 0)
(0.259811 -0.0491263 0)
(0.255527 -0.0646377 0)
(0.25278 -0.0811709 0)
(0.251636 -0.0986643 0)
(0.252099 -0.11711 0)
(0.254268 -0.136403 0)
(0.258097 -0.156046 0)
(0.262586 -0.174512 0)
(0.265441 -0.189665 0)
(0.262641 -0.198704 0)
(0.254589 -0.200816 0)
(0.241038 -0.198877 0)
(0.229983 -0.194302 0)
(0.226886 -0.195016 0)
(0.228248 -0.198383 0)
(0.506336 0.0565043 0)
(0.498611 0.0580196 0)
(0.491426 0.0581907 0)
(0.484787 0.0572586 0)
(0.478811 0.0554644 0)
(0.473589 0.0529954 0)
(0.469156 0.0500816 0)
(0.465493 0.0469257 0)
(0.462533 0.0437278 0)
(0.460202 0.0406527 0)
(0.458392 0.0378465 0)
(0.456983 0.0354346 0)
(0.455818 0.0335188 0)
(0.454762 0.0321733 0)
(0.453689 0.0314393 0)
(0.452407 0.031346 0)
(0.450723 0.0318846 0)
(0.448479 0.0330315 0)
(0.445563 0.0347258 0)
(0.441838 0.0369008 0)
(0.437282 0.0393773 0)
(0.431764 0.0421728 0)
(0.425242 0.0449943 0)
(0.417719 0.0477897 0)
(0.409123 0.0503269 0)
(0.399554 0.0524281 0)
(0.389058 0.0538994 0)
(0.377734 0.0545496 0)
(0.365717 0.0541981 0)
(0.353167 0.0526783 0)
(0.340267 0.0498425 0)
(0.327221 0.0455683 0)
(0.314255 0.0397692 0)
(0.301606 0.0324016 0)
(0.289505 0.0234672 0)
(0.278162 0.013013 0)
(0.26775 0.00112072 0)
(0.258539 -0.0121836 0)
(0.250526 -0.0266999 0)
(0.243819 -0.0423741 0)
(0.238454 -0.059127 0)
(0.234659 -0.0769732 0)
(0.232525 -0.0958767 0)
(0.231997 -0.115801 0)
(0.233128 -0.136482 0)
(0.235431 -0.156656 0)
(0.236564 -0.173934 0)
(0.232156 -0.185057 0)
(0.219808 -0.187926 0)
(0.203669 -0.183971 0)
(0.192718 -0.183045 0)
(0.188257 -0.183421 0)
(0.187682 -0.187882 0)
(0.190359 -0.194435 0)
(0.497456 0.0671074 0)
(0.49056 0.0687753 0)
(0.484017 0.0688613 0)
(0.477897 0.0676331 0)
(0.472336 0.0653832 0)
(0.467468 0.0623497 0)
(0.463408 0.0587632 0)
(0.460159 0.0548859 0)
(0.457686 0.0509676 0)
(0.455917 0.0471939 0)
(0.454738 0.0437582 0)
(0.454018 0.0408055 0)
(0.453597 0.0384549 0)
(0.453304 0.036807 0)
(0.452989 0.0358976 0)
(0.452465 0.0357545 0)
(0.451497 0.036398 0)
(0.449898 0.0377945 0)
(0.447524 0.039876 0)
(0.444215 0.042518 0)
(0.439945 0.0456941 0)
(0.434574 0.0491442 0)
(0.428009 0.0528496 0)
(0.420254 0.0565037 0)
(0.411248 0.0599606 0)
(0.401069 0.0629835 0)
(0.389769 0.065339 0)
(0.377455 0.066797 0)
(0.364272 0.0671409 0)
(0.350398 0.0661716 0)
(0.336036 0.0637085 0)
(0.321423 0.0595975 0)
(0.306823 0.0537286 0)
(0.292518 0.0460494 0)
(0.27879 0.0365688 0)
(0.265894 0.0253504 0)
(0.254027 0.0125092 0)
(0.243383 -0.00183952 0)
(0.234172 -0.0175771 0)
(0.226313 -0.0345077 0)
(0.219874 -0.0525799 0)
(0.215039 -0.0717911 0)
(0.211883 -0.0921259 0)
(0.210317 -0.113498 0)
(0.210234 -0.135136 0)
(0.209936 -0.154617 0)
(0.204521 -0.168594 0)
(0.189396 -0.17309 0)
(0.17104 -0.168873 0)
(0.158787 -0.166399 0)
(0.152303 -0.16849 0)
(0.150368 -0.175687 0)
(0.152042 -0.185419 0)
(0.156102 -0.195465 0)
(0.478715 0.0760582 0)
(0.473888 0.0781893 0)
(0.469162 0.0784535 0)
(0.464601 0.07715 0)
(0.460388 0.0745731 0)
(0.456679 0.0710488 0)
(0.45366 0.0668331 0)
(0.451448 0.0622248 0)
(0.449995 0.057541 0)
(0.449249 0.0530253 0)
(0.449124 0.0489082 0)
(0.449469 0.0453676 0)
(0.450122 0.0425549 0)
(0.450891 0.0405796 0)
(0.451596 0.0395043 0)
(0.452045 0.0393421 0)
(0.451987 0.0401327 0)
(0.451177 0.0418391 0)
(0.449414 0.0443913 0)
(0.44661 0.0476857 0)
(0.442623 0.0515985 0)
(0.437342 0.0559928 0)
(0.430714 0.0606498 0)
(0.422636 0.0654211 0)
(0.413133 0.0699977 0)
(0.40224 0.0741533 0)
(0.390023 0.0776055 0)
(0.376602 0.0800757 0)
(0.362138 0.0813066 0)
(0.346818 0.0810639 0)
(0.330862 0.0791225 0)
(0.314534 0.0752812 0)
(0.298148 0.0693957 0)
(0.282046 0.0614016 0)
(0.266568 0.05132 0)
(0.252023 0.0392473 0)
(0.238669 0.0253363 0)
(0.226635 0.00979658 0)
(0.21622 -0.00727327 0)
(0.207365 -0.025607 0)
(0.199901 -0.0450664 0)
(0.194002 -0.065641 0)
(0.189774 -0.0873882 0)
(0.187134 -0.110028 0)
(0.185274 -0.131796 0)
(0.179579 -0.14882 0)
(0.163167 -0.156482 0)
(0.142466 -0.152162 0)
(0.127938 -0.148158 0)
(0.119808 -0.151313 0)
(0.116623 -0.160529 0)
(0.117091 -0.172591 0)
(0.120022 -0.185072 0)
(0.124481 -0.19656 0)
(0.447276 0.0819802 0)
(0.445531 0.0847923 0)
(0.443729 0.0855748 0)
(0.441857 0.0845265 0)
(0.440078 0.0819141 0)
(0.43858 0.0780831 0)
(0.437567 0.0734013 0)
(0.437234 0.0681621 0)
(0.437607 0.0627735 0)
(0.438628 0.057555 0)
(0.440207 0.0527697 0)
(0.442203 0.0486618 0)
(0.444445 0.0454153 0)
(0.446716 0.0431564 0)
(0.448801 0.0419724 0)
(0.4505 0.0418775 0)
(0.451536 0.0429117 0)
(0.451613 0.0450584 0)
(0.45053 0.0482355 0)
(0.448096 0.0523166 0)
(0.444289 0.0571967 0)
(0.438936 0.0626763 0)
(0.431986 0.068591 0)
(0.423427 0.0746367 0)
(0.413189 0.0805081 0)
(0.401424 0.0860212 0)
(0.388165 0.0907863 0)
(0.373553 0.094466 0)
(0.357765 0.0967705 0)
(0.340981 0.0974287 0)
(0.32341 0.0961612 0)
(0.305336 0.0927034 0)
(0.28713 0.0868584 0)
(0.269207 0.0785388 0)
(0.251983 0.0677781 0)
(0.235831 0.0547182 0)
(0.221048 0.03958 0)
(0.207828 0.0226288 0)
(0.196167 0.00418495 0)
(0.186478 -0.0156876 0)
(0.178147 -0.0365708 0)
(0.171365 -0.0585271 0)
(0.166162 -0.0816159 0)
(0.162302 -0.105046 0)
(0.156647 -0.125652 0)
(0.140932 -0.137599 0)
(0.117399 -0.134284 0)
(0.100273 -0.128597 0)
(0.0902686 -0.131724 0)
(0.0855613 -0.142674 0)
(0.0848466 -0.157224 0)
(0.0866984 -0.172143 0)
(0.0901334 -0.185963 0)
(0.0945799 -0.198066 0)
(0.404177 0.0852162 0)
(0.405615 0.0883212 0)
(0.407093 0.0895719 0)
(0.408451 0.088917 0)
(0.409817 0.0864638 0)
(0.411377 0.0825129 0)
(0.41328 0.0775008 0)
(0.415749 0.0717731 0)
(0.418854 0.0658062 0)
(0.422484 0.0599922 0)
(0.426566 0.0546514 0)
(0.430946 0.0500616 0)
(0.435406 0.046507 0)
(0.4397 0.0440913 0)
(0.443554 0.0429624 0)
(0.446734 0.0431097 0)
(0.448955 0.044586 0)
(0.449859 0.0474268 0)
(0.44917 0.0515265 0)
(0.446846 0.0566312 0)
(0.442767 0.0627508 0)
(0.436898 0.0695503 0)
(0.429217 0.0768936 0)
(0.419639 0.0844019 0)
(0.408436 0.0918994 0)
(0.395656 0.0987483 0)
(0.381275 0.104977 0)
(0.365517 0.109956 0)
(0.348574 0.113513 0)
(0.330573 0.115293 0)
(0.311647 0.114881 0)
(0.292063 0.111917 0)
(0.272247 0.106137 0)
(0.252707 0.0974328 0)
(0.233961 0.0858599 0)
(0.216462 0.0716235 0)
(0.200556 0.0550398 0)
(0.186456 0.036491 0)
(0.17416 0.0163696 0)
(0.163743 -0.00499628 0)
(0.155086 -0.0274159 0)
(0.147573 -0.0506362 0)
(0.141374 -0.0746327 0)
(0.135073 -0.0977576 0)
(0.121037 -0.114598 0)
(0.0969855 -0.115558 0)
(0.0754887 -0.107528 0)
(0.0632892 -0.109885 0)
(0.0569223 -0.122183 0)
(0.0549323 -0.139022 0)
(0.0555996 -0.156297 0)
(0.0578716 -0.172521 0)
(0.0612678 -0.187131 0)
(0.0655016 -0.199744 0)
(0.353154 0.0861468 0)
(0.356711 0.0893335 0)
(0.360986 0.0905442 0)
(0.365403 0.0900347 0)
(0.369988 0.0876588 0)
(0.374935 0.0836051 0)
(0.380309 0.0783007 0)
(0.386264 0.0721853 0)
(0.392855 0.0657317 0)