/*--------------------------------*- C++ -*----------------------------------*\
  =========                 |
  \\      /  F ield         | OpenFOAM: The Open Source CFD Toolbox
   \\    /   O peration     | Website:  https://openfoam.org
    \\  /    A nd           | Version:  11
     \\/     M anipulation  |
\*---------------------------------------------------------------------------*/
FoamFile
{
    format      ascii;
    class       volScalarField;
    location    "9.5";
    object      p;
}
// * * * * * * * * * * * * * * * * * * * * * * * * * * * * * * * * * * * * * //

dimensions      [0 2 -2 0 0 0 0];

internalField   nonuniform List<scalar> 
9600
(
0.0335094
0.0331014
0.0323847
0.0314291
0.0303113
0.0290183
0.027468
0.0255489
0.0232115
0.0205277
0.0175097
0.0142514
0.0106842
0.00682836
0.00274862
-0.00136163
-0.00523816
-0.00881387
-0.0119638
-0.0144817
-0.0162405
-0.0171596
-0.0172706
-0.0163909
-0.0147974
-0.0126182
-0.0101391
-0.00752803
-0.00488754
-0.00251125
-0.000436487
0.00152264
0.00370927
0.00550557
0.00598915
0.00678784
0.00714521
0.00674517
0.00602531
0.00316816
0.0333571
0.0327989
0.0318994
0.0308332
0.0296276
0.0282491
0.0265875
0.0245296
0.022078
0.0192955
0.0162576
0.0129993
0.0095091
0.00576684
0.00183186
-0.0021101
-0.00585418
-0.00929635
-0.0123042
-0.0147096
-0.0163916
-0.0172828
-0.0174311
-0.0167289
-0.0152361
-0.0131551
-0.0108195
-0.00831382
-0.00574003
-0.00324231
-0.00111412
0.000710992
0.00267978
0.00448353
0.00562179
0.00625579
0.00700487
0.00741182
0.00709497
0.00659793
0.0331512
0.0325026
0.0315619
0.0304905
0.0292932
0.0279076
0.0262112
0.024142
0.0217113
0.0190085
0.0160452
0.012834
0.00930223
0.00551794
0.00160108
-0.00229867
-0.00600281
-0.00941416
-0.0123989
-0.0148008
-0.0164972
-0.0174276
-0.0175667
-0.0168705
-0.0153901
-0.013446
-0.0110803
-0.00857042
-0.00599408
-0.00362231
-0.00146451
0.000600748
0.00246742
0.00427314
0.00583445
0.00676441
0.00678028
0.00731712
0.00729215
0.00692967
0.0329245
0.0322195
0.0312336
0.030114
0.0288774
0.0274396
0.0256825
0.0235366
0.0210369
0.0182307
0.015166
0.0118958
0.00841879
0.00469696
0.000842819
-0.00296823
-0.00661044
-0.00997269
-0.0129246
-0.0152772
-0.0169242
-0.0178071
-0.0179595
-0.0173427
-0.0159178
-0.0139781
-0.0116809
-0.00914034
-0.00665464
-0.00426803
-0.00198515
0.000112572
0.0018886
0.00352948
0.00513551
0.00646355
0.00686485
0.00750405
0.00778038
0.00823985
0.0326828
0.0319382
0.0308969
0.0297293
0.028475
0.0270021
0.0251866
0.0229772
0.0204295
0.0176149
0.0146416
0.0114609
0.00795577
0.00421425
0.000381045
-0.00338529
-0.00699294
-0.0103274
-0.0132476
-0.0155936
-0.0172456
-0.018156
-0.0183377
-0.0176975
-0.0162783
-0.0144052
-0.0121474
-0.00956663
-0.0070841
-0.00469945
-0.00241208
-0.00037758
0.00160092
0.00327789
0.0047569
0.00618743
0.0071637
0.00770254
0.00802296
0.00880884
0.0324458
0.0316561
0.0305646
0.0293624
0.0280859
0.0265785
0.0247015
0.0224285
0.0198467
0.0170493
0.0140803
0.0108416
0.00729281
0.00355194
-0.000254423
-0.00399567
-0.00759565
-0.0109386
-0.0138677
-0.016216
-0.0178638
-0.0187513
-0.0189191
-0.0183054
-0.0169629
-0.0150892
-0.0127328
-0.0101892
-0.00763184
-0.00521554
-0.00290322
-0.000839062
0.00117497
0.00281215
0.00436403
0.00577659
0.00696872
0.00776334
0.00825329
0.00900967
0.0322091
0.0313733
0.0302393
0.0290075
0.0277065
0.0261583
0.0242327
0.0219092
0.0193097
0.0165036
0.0135034
0.0102206
0.00667314
0.00291931
-0.000898774
-0.00463177
-0.00821558
-0.0115674
-0.0144981
-0.0168432
-0.0184946
-0.0193649
-0.0195381
-0.018943
-0.0176087
-0.0157145
-0.01331
-0.0107471
-0.00815818
-0.0056854
-0.00333663
-0.0012674
0.000671624
0.0023783
0.00392861
0.0053637
0.00670715
0.00780815
0.00850032
0.00907074
0.0319845
0.0311046
0.0299256
0.0286562
0.0273345
0.0257584
0.0237914
0.0214269
0.0187935
0.0159583
0.01293
0.00964661
0.0060397
0.00225483
-0.00156662
-0.00530811
-0.00891541
-0.0122978
-0.0152651
-0.0176309
-0.0192867
-0.020194
-0.0203532
-0.0197619
-0.0184389
-0.0164924
-0.0140336
-0.0113871
-0.00877364
-0.0062361
-0.00385052
-0.00175322
0.000243392
0.00203047
0.003554
0.00487281
0.00630114
0.00760181
0.00858236
0.00917205
0.031773
0.0308373
0.0296138
0.0283158
0.0269798
0.0253798
0.0233795
0.0209689
0.018291
0.0154314
0.0123743
0.00903436
0.00538166
0.00156583
-0.00229542
-0.00607162
-0.00972381
-0.0131375
-0.0161414
-0.018543
-0.0202116
-0.0211341
-0.0212862
-0.0206806
-0.0193279
-0.0173222
-0.0148302
-0.0120879
-0.00937825
-0.00678103
-0.00432779
-0.00220813
-0.000190895
0.00160613
0.00318554
0.00450111
0.00583295
0.00719361
0.0084748
0.00934135
0.0315602
0.0305652
0.0293116
0.0279919
0.0266457
0.0250254
0.0229892
0.020535
0.017811
0.0149111
0.0118165
0.00842053
0.0047018
0.000814641
-0.00309134
-0.00691518
-0.0106133
-0.0140707
-0.0171395
-0.0195963
-0.021273
-0.0222165
-0.0223848
-0.0217442
-0.0203875
-0.0183199
-0.0157186
-0.0128898
-0.0100497
-0.00739378
-0.00485012
-0.0026458
-0.000685486
0.00118383
0.00284161
0.00421552
0.00548249
0.0067279
0.00804967
0.00923474
0.0313692
0.0303081
0.0290186
0.0276975
0.0263354
0.0246913
0.0226234
0.0201299
0.0173453
0.0143863
0.0112466
0.00778019
0.00397251
2.87164e-06
-0.00395117
-0.00783458
-0.0116099
-0.0151449
-0.0182654
-0.0207776
-0.0225205
-0.02348
-0.0236382
-0.0229649
-0.0215847
-0.0194168
-0.0167565
-0.0137606
-0.0108387
-0.00802366
-0.00542623
-0.00305076
-0.00110626
0.000750484
0.00245372
0.00390444
0.00521447
0.0063096
0.00746283
0.00890836
0.0312021
0.0300798
0.0287588
0.027438
0.0260562
0.0243802
0.0222738
0.0197321
0.0168974
0.0138668
0.0106618
0.00711111
0.00320924
-0.000851427
-0.00490502
-0.0088665
-0.0127172
-0.0163486
-0.019538
-0.022127
-0.0239343
-0.0249063
-0.0250765
-0.0243737
-0.0229278
-0.0206727
-0.0179117
-0.0147973
-0.011691
-0.00868389
-0.00604427
-0.00354181
-0.00148313
0.000356766
0.00208348
0.00356709
0.00492452
0.00599003
0.00696352
0.00830435
0.031048
0.0298718
0.0285408
0.0272204
0.0258085
0.0240868
0.0219421
0.0193545
0.0164577
0.0133378
0.01004
0.0064054
0.0023933
-0.00179206
-0.00594946
-0.0100109
-0.0139453
-0.0177001
-0.0209944
-0.0236582
-0.0255167
-0.0265385
-0.0267445
-0.0259833
-0.0244304
-0.0221359
-0.0191877
-0.0159566
-0.0126885
-0.00953008
-0.0066531
-0.00406571
-0.0018689
6.90725e-05
0.00176804
0.00324253
0.00454179
0.00565784
0.00660253
0.0075528
0.0309245
0.0296993
0.0283634
0.0270359
0.0255949
0.0238164
0.0216307
0.0189924
0.0160185
0.0127968
0.00938741
0.00566447
0.00151842
-0.00280426
-0.0070781
-0.0112922
-0.0153397
-0.0191967
-0.0226194
-0.0253868
-0.0273411
-0.0283791
-0.0285763
-0.027811
-0.0261777
-0.0237995
-0.0206662
-0.0172456
-0.0138201
-0.0104863
-0.00728474
-0.00455719
-0.00230397
-0.000256663
0.00148061
0.00299708
0.00421261
0.00528327
0.00632269
0.00698103
0.0308395
0.0295721
0.0282404
0.0268883
0.0254016
0.0235751
0.0213457
0.0186383
0.0155669
0.0122355
0.00868254
0.00484286
0.000595855
-0.00390387
-0.00835762
-0.0127128
-0.0168954
-0.0208899
-0.0244579
-0.0273315
-0.029401
-0.0304541
-0.0306501
-0.0298921
-0.0281767
-0.025674
-0.0223987
-0.0187352
-0.0150781
-0.0115422
-0.00807456
-0.00509153
-0.00267701
-0.000558895
0.00122601
0.00276091
0.0040009
0.00495057
0.00590507
0.00644965
0.030813
0.0294866
0.0281578
0.0267693
0.0252395
0.0233609
0.0210679
0.0183097
0.015116
0.0116452
0.00794585
0.00396159
-0.000424531
-0.00510288
-0.00975581
-0.0142979
-0.0186394
-0.0227886
-0.0265372
-0.0295007
-0.031687
-0.0328354
-0.033031
-0.0322175
-0.0304198
-0.0277878
-0.0243876
-0.0205068
-0.0165558
-0.0126979
-0.00899348
-0.00569795
-0.00302104
-0.000791479
0.00107785
0.0025979
0.0038234
0.00466
0.00548875
0.00599369
0.030836
0.0294699
0.0281315
0.0266972
0.0251156
0.0231916
0.0207936
0.0179592
0.0146582
0.0110102
0.00713911
0.00298229
-0.00155414
-0.00644001
-0.0113084
-0.0160572
-0.0206307
-0.0249077
-0.0288574
-0.0319649
-0.0342648
-0.0355227
-0.0357104
-0.0348664
-0.0329897
-0.0302173
-0.026641
-0.022536
-0.0182907
-0.0140464
-0.0100463
-0.00644932
-0.00340581
-0.000938378
0.00105202
0.00258953
0.00373987
0.00445726
0.0051741
0.00548758
0.0309243
0.029496
0.0281406
0.0266767
0.0250082
0.0230382
0.0205681
0.0175898
0.0141719
0.0103536
0.0062903
0.00191471
-0.0028011
-0.0078929
-0.0130547
-0.0180266
-0.0228508
-0.0272936
-0.0314505
-0.0347614
-0.037167
-0.0385096
-0.0387396
-0.037916
-0.0359312
-0.0329934
-0.0292204
-0.0248584
-0.020302
-0.0156721
-0.0112926
-0.00732382
-0.00387871
-0.00108578
0.00114294
0.00279845
0.00390815
0.00447587
0.00494704
0.00500123
0.0311078
0.0296261
0.0282165
0.0267073
0.0249494
0.022874
0.0203362
0.0172228
0.0136482
0.00963557
0.00531691
0.000712731
-0.00423253
-0.00951569
-0.0149977
-0.0202397
-0.0253443
-0.0300215
-0.0343445
-0.037888
-0.0404715
-0.0419046
-0.0421338
-0.041366
-0.0393169
-0.0361724
-0.0321922
-0.027561
-0.0226453
-0.017636
-0.0128248
-0.00837502
-0.00442115
-0.00121705
0.00132383
0.00319347
0.00432668
0.00476363
0.0049913
0.00483985
0.0313933
0.0298455
0.0283527
0.0267803
0.0249434
0.0227327
0.0200988
0.0168479
0.0130691
0.00884882
0.0042782
-0.000605606
-0.00584078
-0.0113364
-0.0171539
-0.0227294
-0.0281229
-0.0330942
-0.0376356
-0.0413835
-0.0441287
-0.0457986
-0.0460268
-0.0452089
-0.0431675
-0.0398678
-0.0356423
-0.0307119
-0.0254082
-0.0199834
-0.0146846
-0.00972349
-0.00518536
-0.00140328
0.00159289
0.00380038
0.00507073
0.00551426
0.00543491
0.00520425
0.0317707
0.0301494
0.0285595
0.0268847
0.0249772
0.0226299
0.0198194
0.0164343
0.0124407
0.00795816
0.00307631
-0.00206874
-0.00766676
-0.0134323
-0.019555
-0.0255644
-0.0312935
-0.0365537
-0.0413315
-0.0454063
-0.0482612
-0.0501253
-0.0505114
-0.0496104
-0.0475461
-0.0441237
-0.0396505
-0.0344274
-0.0287139
-0.0228305
-0.0169554
-0.0114252
-0.00626565
-0.001785
0.00186041
0.00457441
0.00619029
0.00684573
0.00664496
0.00624526
0.0322359
0.0305198
0.0288474
0.0270429
0.0250221
0.0225613
0.0195447
0.0159478
0.0117226
0.00699474
0.00172823
-0.00373443
-0.00968291
-0.0158473
-0.0223006
-0.0287193
-0.034832
-0.0405261
-0.0454896
-0.0498907
-0.0529958
-0.0549831
-0.0555721
-0.0546571
-0.0525295
-0.049028
-0.0443289
-0.0388007
-0.0326533
-0.0262965
-0.0198428
-0.0136247
-0.00773919
-0.0024796
0.00195401
0.00538169
0.00759152
0.00870887
0.00882264
0.0083497
0.032821
0.0309831
0.0292109
0.0272742
0.0250835
0.0224873
0.0192755
0.0154445
0.010857
0.00585828
0.000222437
-0.00567583
-0.0119915
-0.0186089
-0.025428
-0.0323657
-0.0388359
-0.0450039
-0.0503013
-0.0549444
-0.0583941
-0.0605293
-0.0612931
-0.0604719
-0.058274
-0.0546941
-0.0497818
-0.0439738
-0.0374081
-0.0305217
-0.0234582
-0.0165229
-0.00984884
-0.00368884
0.00169279
0.00605297
0.00915492
0.0110643
0.0116753
0.0115354
0.033502
0.0315393
0.0296406
0.0275887
0.0252028
0.02239
0.0189332
0.0149042
0.0099134
0.00447392
-0.00146294
-0.00791523
-0.0146224
-0.0217734
-0.0290243
-0.0364838
-0.0434244
-0.0500469
-0.0558038
-0.0606701
-0.0644551
-0.0668514
-0.0677796
-0.0670661
-0.064856
-0.0612511
-0.056151
-0.0500477
-0.0430981
-0.0356875
-0.028019
-0.0203347
-0.01279
-0.00566002
0.000787046
0.0062754
0.0105084
0.0136088
0.0149703
0.0155657
0.0343815
0.032249
0.0301959
0.0279947
0.0253401
0.022343
0.0185604
0.0140761
0.0088764
0.0028939
-0.00349542
-0.0104638
-0.0177239
-0.0254456
-0.0331935
-0.0411856
-0.0487616
-0.0557896
-0.0620506
-0.0673087
-0.0713868
-0.0740457
-0.0751805
-0.0746756
-0.0724957
-0.0688432
-0.0636253
-0.0572667
-0.0499666
-0.0420205
-0.0337288
-0.0253132
-0.0169119
-0.00876024
-0.00116915
0.00568534
0.0112263
0.0158319
0.0186205
0.0205221
0.0355588
0.033177
0.030784
0.0284106
0.0255731
0.022161
0.0180965
0.0131591
0.0075171
0.00108822
-0.00590741
-0.0134563
-0.0212931
-0.0296601
-0.0380758
-0.0465754
-0.054816
-0.0624335
-0.0692093
-0.0748714
-0.0792902
-0.0822589
-0.0836407
-0.083337
-0.0812277
-0.0776169
-0.0723684
-0.0657538
-0.058127
-0.0497581
-0.0408756
-0.0317129
-0.022485
-0.0133099
-0.00462647
0.00362333
0.0107018
0.0170216
0.0218257
0.0260328
0.0367703
0.0342107
0.0315973
0.0288264
0.0256828
0.0219417
0.0175086
0.0121037
0.00586526
-0.00118824
-0.00872221
-0.0170027
-0.0255776
-0.0345488
-0.0437662
-0.0529302
-0.0618441
-0.0700923
-0.0774446
-0.0835922
-0.08843
-0.0917465
-0.0933611
-0.0933487
-0.0914583
-0.0878524
-0.0826143
-0.075888
-0.0679785
-0.0591785
-0.0497989
-0.0399758
-0.0300174
-0.0198275
-0.0100369
-0.000493426
0.00822199
0.0163047
0.0232434
0.0299809
0.0379385
0.0351403
0.0325387
0.029501
0.0258787
0.0216192
0.0166556
0.0107029
0.00394128
-0.00385214
-0.0121834
-0.0211567
-0.0306277
-0.0403674
-0.0504306
-0.0603447
-0.0700521
-0.0789666
-0.0869639
-0.093724
-0.0988993
-0.102667
-0.104621
-0.104799
-0.103172
-0.0996965
-0.094494
-0.0877089
-0.079648
-0.0705402
-0.0607858
-0.0503983
-0.0398043
-0.0287909
-0.0179568
-0.00723791
0.00300346
0.0126658
0.0215308
0.0298908
0.0395775
0.03631
0.0333696
0.0301115
0.0261241
0.0211451
0.0155513
0.00889781
0.00135733
-0.00704723
-0.0164278
-0.0262592
-0.0367191
-0.0472912
-0.0582901
-0.0691371
-0.0796271
-0.0894026
-0.0980027
-0.105441
-0.111171
-0.115342
-0.117738
-0.118228
-0.116883
-0.113568
-0.10842
-0.101599
-0.0934563
-0.0842565
-0.0742677
-0.0634554
-0.0522939
-0.0406898
-0.0289179
-0.0171822
-0.00565741
0.00534554
0.0157118
0.0250381
0.0416082
0.0378016
0.0344518
0.0306071
0.0261164
0.0205472
0.0139809
0.00655319
-0.00198989
-0.0113503
-0.0217788
-0.0325734
-0.0441136
-0.0559364
-0.0678214
-0.079742
-0.0910722
-0.101751
-0.111122
-0.119189
-0.125585
-0.130189
-0.133018
-0.133894
-0.132936
-0.129871
-0.12515
-0.11853
-0.110758
-0.101283
-0.0910007
-0.0801225
-0.0684176
-0.0562554
-0.0437184
-0.0311021
-0.0185443
-0.00645567
0.00495092
0.0149795
0.0440811
0.0396025
0.0354834
0.0310264
0.0258111
0.0196256
0.0122974
0.00401055
-0.00565182
-0.0161115
-0.0277817
-0.0402468
-0.0529688
-0.066161
-0.0792807
-0.0923303
-0.104701
-0.116296
-0.126596
-0.135289
-0.142413
-0.147535
-0.150906
-0.152098
-0.151414
-0.148599
-0.144357
-0.138096
-0.130307
-0.121226
-0.110903
-0.099643
-0.0877542
-0.0751755
-0.062223
-0.0490241
-0.0357441
-0.022863
-0.0106083
6.49991e-05
0.0468402
0.0417804
0.0366971
0.0311893
0.0247235
0.0172625
0.0084214
-0.00134589
-0.0123185
-0.0243926
-0.0369593
-0.0505414
-0.0647012
-0.0792487
-0.0937958
-0.108075
-0.121705
-0.134165
-0.145493
-0.15492
-0.162759
-0.168476
-0.172435
-0.174392
-0.174618
-0.172804
-0.168499
-0.162697
-0.155294
-0.146591
-0.136722
-0.12566
-0.113623
-0.100903
-0.0875458
-0.0739578
-0.0600144
-0.0463245
-0.032963
-0.0215415
0.0499679
0.0440748
0.0381858
0.0320138
0.0247648
0.0164877
0.00681707
-0.00464342
-0.0174935
-0.0316438
-0.0469178
-0.0627818
-0.0790073
-0.0951995
-0.111422
-0.127013
-0.141952
-0.155555
-0.167795
-0.178162
-0.186542
-0.192856
-0.196923
-0.19882
-0.198492
-0.196436
-0.192964
-0.188045
-0.181821
-0.174083
-0.164881
-0.15463
-0.143144
-0.130783
-0.117507
-0.103439
-0.0889771
-0.0743404
-0.0601908
-0.0479479
0.0523352
0.0447058
0.0368134
0.02809
0.0183438
0.00747157
-0.00443925
-0.0174723
-0.0317161
-0.0471191
-0.0639653
-0.0813571
-0.0993317
-0.117365
-0.135221
-0.152375
-0.168601
-0.183367
-0.196539
-0.2079
-0.217196
-0.224514
-0.229704
-0.232989
-0.234288
-0.233794
-0.23127
-0.227227
-0.221224
-0.214292
-0.205674
-0.196221
-0.185582
-0.173973
-0.161361
-0.147862
-0.133809
-0.119534
-0.10523
-0.0923531
0.059334
0.0512754
0.0425866
0.0329489
0.0218093
0.00895102
-0.00604244
-0.022891
-0.0413766
-0.0611002
-0.0817247
-0.102806
-0.123846
-0.144581
-0.164419
-0.183177
-0.200524
-0.216228
-0.22988
-0.241443
-0.250597
-0.257377
-0.261784
-0.264079
-0.264438
-0.263244
-0.260709
-0.257364
-0.252981
-0.248061
-0.242242
-0.235367
-0.227687
-0.218636
-0.208266
-0.197129
-0.184979
-0.172684
-0.160566
-0.149623
0.0535817
0.0397488
0.0257984
0.0115142
-0.00363847
-0.0198551
-0.0372076
-0.0557796
-0.0757925
-0.0972669
-0.119786
-0.143328
-0.166774
-0.190084
-0.212283
-0.233316
-0.252558
-0.269926
-0.284875
-0.297545
-0.307462
-0.315025
-0.320002
-0.322949
-0.323873
-0.323478
-0.321636
-0.319198
-0.315886
-0.311987
-0.307881
-0.302572
-0.296929
-0.290217
-0.282694
-0.274043
-0.264728
-0.255167
-0.245727
-0.238422
0.077074
0.065354
0.0498549
0.0313968
0.0105268
-0.0127556
-0.0381638
-0.0650363
-0.0924264
-0.12016
-0.147632
-0.174757
-0.201126
-0.226411
-0.250263
-0.272365
-0.29213
-0.309525
-0.32412
-0.335775
-0.344642
-0.350562
-0.35434
-0.355779
-0.355792
-0.354812
-0.353261
-0.351979
-0.350901
-0.350472
-0.350519
-0.350591
-0.350344
-0.34914
-0.346906
-0.34325
-0.338507
-0.333025
-0.327955
-0.324962
0.0169675
-0.00905736
-0.0349481
-0.0611052
-0.087989
-0.115142
-0.142795
-0.172108
-0.202287
-0.234432
-0.266329
-0.298748
-0.329596
-0.358632
-0.385784
-0.410511
-0.432127
-0.450097
-0.464659
-0.475202
-0.482458
-0.485576
-0.485983
-0.483237
-0.478975
-0.47337
-0.467917
-0.462994
-0.459825
-0.458672
-0.460066
-0.463912
-0.470098
-0.477751
-0.485889
-0.49303
-0.498524
-0.501925
-0.503449
-0.503481
0.0961155
0.063233
0.026428
-0.0115555
-0.0486495
-0.0874772
-0.126921
-0.16668
-0.205485
-0.243835
-0.280349
-0.315338
-0.348003
-0.377748
-0.405562
-0.429792
-0.450222
-0.466727
-0.478798
-0.485951
-0.488122
-0.485045
-0.477636
-0.466054
-0.451774
-0.435537
-0.419574
-0.404223
-0.392235
-0.383897
-0.381394
-0.385215
-0.39688
-0.4173
-0.447118
-0.4841
-0.530076
-0.583992
-0.624352
-0.627813
-0.246229
-0.290117
-0.336242
-0.390295
-0.448395
-0.507536
-0.565111
-0.620951
-0.673012
-0.720365
-0.762062
-0.799339
-0.835285
-0.868806
-0.898989
-0.923724
-0.942135
-0.953443
-0.957202
-0.953869
-0.943015
-0.925375
-0.90018
-0.86843
-0.831042
-0.789896
-0.746257
-0.702522
-0.659674
-0.61952
-0.583463
-0.553535
-0.531193
-0.517558
-0.515213
-0.523312
-0.544382
-0.577033
-0.587805
-0.584866
0.00166584
0.00445408
0.00664937
0.0079236
0.000348988
-0.0236363
-0.0418818
-0.0541791
-0.0843637
-0.132095
-0.231784
-0.223509
-0.108692
-0.0311373
-0.000119617
0.00517242
0.00646983
0.00765796
0.00629106
0.005761
0.00518833
0.00456438
0.00440692
0.00411955
0.00390976
0.00386894
0.0037886
0.00376525
0.00387532
0.00385937
0.00392083
0.00396356
0.00401961
0.00410893
0.00427921
0.00451586
0.00455015
0.00457389
0.00350506
0.00247917
0.00488313
0.00585946
0.00849754
0.0109518
0.00743612
-0.00773849
-0.0238641
-0.0384441
-0.0786198
-0.13939
-0.261799
-0.27086
-0.123368
-0.0385997
0.00240237
0.00491843
0.00685596
0.00817658
0.00663519
0.00604628
0.00534779
0.00482118
0.00454763
0.00431495
0.00405142
0.0040223
0.00388965
0.00391719
0.00395736
0.00393032
0.00397176
0.00402935
0.00410079
0.00421892
0.00441818
0.00455815
0.00465014
0.0046217
0.00451599
0.00493035
0.00664853
0.00716929
0.00972447
0.0138043
0.0139777
0.00276368
-0.0116504
-0.0274466
-0.0733524
-0.144729
-0.279643
-0.303943
-0.132314
-0.0420096
0.00328401
0.00598938
0.00736923
0.00809602
0.00686656
0.00618658
0.00550386
0.00493956
0.00457078
0.00435122
0.00413151
0.0040994
0.00393682
0.00401825
0.00399618
0.00396951
0.004018
0.00406565
0.0041676
0.00433019
0.00449653
0.00459344
0.00466546
0.00458421
0.00431998
0.0035967
0.00833154
0.00886592
0.0109344
0.0146865
0.0177872
0.00887013
-0.00509317
-0.0223424
-0.0700094
-0.147243
-0.28254
-0.318923
-0.134903
-0.0401887
-0.000950522
0.0089932
0.00792281
0.00758753
0.00707834
0.00616446
0.00551304
0.00482389
0.00439324
0.00412184
0.00397332
0.00391558
0.00376966
0.00387356
0.00381154
0.00383877
0.00389036
0.00392089
0.00404411
0.00420743
0.00437204
0.00450178
0.00454043
0.00454272
0.00501401
0.00617793
0.00959541
0.00992542
0.0122543
0.0162697
0.0204004
0.0132227
-0.000618875
-0.0207074
-0.0677989
-0.147321
-0.271365
-0.302879
-0.135184
-0.036432
-0.00369154
0.0109309
0.00913702
0.00723499
0.00751549
0.00615094
0.00535337
0.00476585
0.00426712
0.00386324
0.00376244
0.00363539
0.00354526
0.0036202
0.00357132
0.00364993
0.00367379
0.0037048
0.00382691
0.00397234
0.00416865
0.00432021
0.00437017
0.00438388
0.00437487
0.00411904
0.0102991
0.0108397
0.0139419
0.0177633
0.0207141
0.0135385
-0.00168536
-0.0211959
-0.0671145
-0.142107
-0.244686
-0.269771
-0.127443
-0.0341385
-0.00332539
0.0100778
0.0114273
0.00787572
0.00812189
0.00638289
0.00527219
0.00495625
0.00435662
0.00390549
0.00375259
0.00356599
0.00351181
0.00353843
0.00352279
0.00361684
0.00363477
0.00369283
0.00379812
0.00390948
0.00408252
0.00423077
0.00432603
0.00449075
0.00486971
0.00560483
0.0108809
0.0118626
0.0144483
0.0187955
0.0198263
0.0129649
-0.00320032
-0.0241246
-0.0666524
-0.132633
-0.211539
-0.227655
-0.11288
-0.0314389
-0.00211696
0.00925459
0.0129685
0.00934057
0.00839483
0.00691384
0.00546346
0.00517838
0.00453563
0.00410223
0.00386969
0.00364582
0.00359158
0.00360002
0.00363102
0.00373673
0.00377655
0.00386937
0.00395247
0.00403624
0.00417166
0.00429997
0.00436853
0.00443778
0.00441559
0.00419423
0.0112532
0.0125807
0.0139422
0.0181312
0.0187523
0.0143259
-0.00286207
-0.0271314
-0.067066
-0.120023
-0.177381
-0.187717
-0.0958623
-0.0270454
-0.000520654
0.00963772
0.0127256
0.0109858
0.0084398
0.0074074
0.00568635
0.00512535
0.0045065
0.00409173
0.00384291
0.00352497
0.00350102
0.0034971
0.00360414
0.00367893
0.00375272
0.00388995
0.00398436
0.00411107
0.00426002
0.00435097
0.00441048
0.00451517
0.00472945
0.00510336
0.0113519
0.0129612
0.0138463
0.0172113
0.0171296
0.0121665
-0.00390807
-0.0280075
-0.0640798
-0.108101
-0.144089
-0.149221
-0.0792808
-0.0226676
0.00228224
0.0110722
0.0120226
0.0122627
0.00878652
0.00751977
0.00573599
0.00485995
0.00426006
0.00383376
0.00360694
0.00327608
0.00322794
0.00318505
0.00326232
0.00330922
0.00342765
0.00358711
0.00373586
0.00393948
0.00411172
0.00419772
0.00430839
0.00439908
0.0043913
0.00431027
0.0111392
0.0129056
0.014068
0.0156294
0.0149197
0.009143
-0.00713268
-0.0315687
-0.0627748
-0.0957952
-0.11723
-0.117333
-0.0641649
-0.0185637
0.00568315
0.0132147
0.0123163
0.0129782
0.00938846
0.00762876
0.00604867
0.00487984
0.00411778
0.00362736
0.00342496
0.0031669
0.00302273
0.00294146
0.00293438
0.00300069
0.00309643
0.00326741
0.003434
0.00363434
0.00378705
0.00393037
0.00410284
0.00427123
0.00453801
0.00488948
0.0107974
0.0126489
0.0136795
0.0136757
0.0121564
0.0051529
-0.0113143
-0.0375847
-0.0663838
-0.0931558
-0.10226
-0.0937326
-0.0514324
-0.015016
0.00832445
0.0149852
0.0135005
0.0136365
0.0103807
0.00809249
0.00675132
0.00528507
0.00429806
0.00364667
0.00332727
0.00313445
0.00298517
0.00292252
0.00290276
0.00298033
0.00304961
0.00319738
0.00331379
0.00345474
0.00358825
0.00377298
0.00396065
0.00412751
0.00423099
0.00438149
0.0102858
0.0121928
0.0125285
0.0116351
0.00894003
0.000458338
-0.0171076
-0.0451925
-0.0735792
-0.0944345
-0.0930201
-0.0759593
-0.0406444
-0.011167
0.0099084
0.0158658
0.0148593
0.0140246
0.0114594
0.00838126
0.00717836
0.00558051
0.00455604
0.00374276
0.00329019
0.00304978
0.00291741
0.00289897
0.00293464
0.00303696
0.00315401
0.0032786
0.00338173
0.00349466
0.00363007
0.00380506
0.00397576
0.00413304
0.00433277
0.00467914
0.00951266
0.0116435
0.0110775
0.00895143
0.00502096
-0.00486139
-0.0249434
-0.0553155
-0.0836404
-0.0963045
-0.0887014
-0.0634515
-0.0312463
-0.00686559
0.0110639
0.0170391
0.0161047
0.0137653
0.0116713
0.0083934
0.00697796
0.00534553
0.004395
0.00360293
0.0031371
0.00284314
0.00268459
0.0026482
0.00273305
0.00288405
0.00307613
0.00322326
0.00338808
0.00353225
0.00373245
0.00390204
0.00405985
0.00420236
0.00434925
0.00447614
0.00866449
0.0106372
0.0093615
0.00620597
0.000426005
-0.0113712
-0.0349273
-0.0681577
-0.10104
-0.10288
-0.0880941
-0.0556035
-0.0235452
-0.00202698
0.012366
0.0189527
0.016971
0.0136629
0.0115639
0.00859619
0.00653118
0.00489687
0.00379959
0.00324964
0.00285057
0.00255614
0.00233244
0.00223771
0.0023055
0.00243303
0.00261974
0.00282551
0.00306628
0.00329362
0.00355181
0.00372365
0.0039205
0.00408998
0.00430414
0.00444363
0.00768037
0.00928977
0.00755619
0.00305522
-0.00474849
-0.0193997
-0.0485128
-0.0851504
-0.123318
-0.117218
-0.0900353
-0.0518987
-0.0183016
0.00246157
0.014155
0.0204878
0.0178868
0.0147126
0.0120773
0.00933319
0.00643967
0.00483518
0.00345293
0.00302679
0.00258015
0.00227689
0.00202721
0.00189207
0.00187105
0.0019144
0.00204369
0.00226253
0.00247178
0.00272925
0.00298922
0.00322804
0.00350443
0.00375982
0.00404226
0.00419792
0.00674273
0.00779909
0.00597857
-0.000290289
-0.0102094
-0.0294847
-0.0664579
-0.118114
-0.148831
-0.135836
-0.0947348
-0.0510225
-0.0158874
0.00537657
0.0168972
0.0205832
0.0189991
0.0160951
0.0123661
0.0100483
0.00671876
0.00524777
0.00379668
0.0030667
0.00241364
0.00201512
0.00177312
0.00162795
0.00157611
0.00160112
0.00168249
0.00180924
0.00194779
0.00218557
0.00244622
0.00276053
0.00310338
0.00345429
0.00374033
0.00387702
0.00582674
0.00601153
0.00436541
-0.00391309
-0.0157225
-0.0420575
-0.0888088
-0.155338
-0.18734
-0.158933
-0.1028
-0.0523983
-0.0162734
0.00657757
0.0198059
0.0199518
0.0190212
0.0158741
0.012166
0.00980785
0.00705766
0.00551818
0.00407991
0.00305479
0.00221456
0.0017372
0.00147784
0.00137504
0.00135874
0.00142079
0.00149743
0.00157951
0.00171022
0.00193633
0.00219129
0.00253889
0.0029189
0.00327599
0.00351913
0.00364795
0.00486393
0.00433509
0.00239181
-0.00755264
-0.0224148
-0.0591616
-0.125836
-0.198244
-0.236494
-0.187858
-0.113511
-0.0560011
-0.0185227
0.00710449
0.0203024
0.0197511
0.0179802
0.0147627
0.0115772
0.0084928
0.00667669
0.00493699
0.00378975
0.00259113
0.00179622
0.00136143
0.00104156
0.00102518
0.0010308
0.00115034
0.00125366
0.00138256
0.00157645
0.00180456
0.00207305
0.00244399
0.00279936
0.00308454
0.00330918
0.00341865
0.00392988
0.00348811
0.000122992
-0.00968129
-0.0302571
-0.0847091
-0.170475
-0.268559
-0.296395
-0.222016
-0.125788
-0.0617355
-0.0213422
0.00776886
0.0174774
0.0192224
0.0171377
0.0138405
0.0104051
0.00720927
0.00579189
0.0037629
0.00280767
0.00166728
0.00104406
0.000624231
0.000308908
0.000356573
0.000365166
0.000560068
0.000718198
0.000947666
0.00121448
0.00147941
0.0017936
0.00217034
0.00251924
0.00280433
0.00301343
0.00310503
0.00374609
0.0039894
-0.00161341
-0.0108508
-0.0370301
-0.116593
-0.223124
-0.357424
-0.358299
-0.256497
-0.134963
-0.0701909
-0.023871
0.00596651
0.0132266
0.0168401
0.0156471
0.0124894
0.00909946
0.00643244
0.0047121
0.00245818
0.00147182
0.000466968
-8.43356e-05
-0.000514709
-0.000714591
-0.000669084
-0.000634698
-0.000349553
-0.000138396
0.000163314
0.000483333
0.000831918
0.0012156
0.00163866
0.00203122
0.00238123
0.00264138
0.00275231
0.00430645
0.00507768
-0.00114262
-0.011282
-0.0430671
-0.141364
-0.283067
-0.424594
-0.397587
-0.268343
-0.15233
-0.0777656
-0.0272518
-0.000326648
0.00835453
0.0126022
0.0122309
0.0102384
0.00757485
0.00538391
0.00325312
0.00135357
0.000283845
-0.000818173
-0.00121376
-0.0016417
-0.0016949
-0.00163864
-0.00151842
-0.00120743
-0.000997334
-0.000656528
-0.000292875
0.000152992
0.000615507
0.00112752
0.00157109
0.00196612
0.00226456
0.00239857
0.00631513
0.00626755
0.0033455
-0.00433578
-0.0506907
-0.140657
-0.287604
-0.399587
-0.371973
-0.263194
-0.160487
-0.0790308
-0.0334554
-0.00990065
0.00115828
0.00666675
0.00723561
0.00712295
0.00495873
0.00332167
0.00153182
0.000377091
-0.000671114
-0.00156149
-0.00192748
-0.00234946
-0.00229592
-0.00226879
-0.00205606
-0.00181617
-0.00158846
-0.00125517
-0.000893176
-0.000387349
0.000102199
0.000647855
0.00107258
0.00148162
0.00178293
0.00189898
0.0106023
0.00972803
0.0120487
0.00970064
-0.03818
-0.127868
-0.237398
-0.312703
-0.2861
-0.224002
-0.14231
-0.0813798
-0.0454303
-0.0220227
-0.00908827
-0.00178026
0.000894681
0.00208759
0.000931263
0.000252674
-0.000771081
-0.00125066
-0.00202969
-0.00250626
-0.00287738
-0.00319978
-0.00310278
-0.0031201
-0.00289034
-0.00274649
-0.00249127
-0.00221131
-0.00181353
-0.00132732
-0.000857103
-0.000315664
9.67802e-05
0.000567792
0.000902574
0.00104006
0.0164021
0.0176597
0.0259755
0.0221762
-0.00401769
-0.0877931
-0.173784
-0.220058
-0.21381
-0.1867
-0.133944
-0.0968463
-0.0606959
-0.0380032
-0.0220763
-0.0132085
-0.00772759
-0.00555396
-0.00476036
-0.00427578
-0.00469292
-0.00466741
-0.00496013
-0.00509972
-0.00507033
-0.0053777
-0.00526892
-0.00522703
-0.00498056
-0.00475718
-0.0043903
-0.00408257
-0.00356267
-0.00311585
-0.00252229
-0.00189178
-0.0013217
-0.000693289
-0.00021698
3.58077e-05
0.0227502
0.028721
0.0398629
0.0391416
0.0185719
-0.0385256
-0.117166
-0.156121
-0.171568
-0.163427
-0.140046
-0.114245
-0.0798456
-0.0577403
-0.0387149
-0.0279868
-0.0191149
-0.015153
-0.0122551
-0.0109882
-0.0102227
-0.0097426
-0.00949058
-0.00926536
-0.00894319
-0.00894389
-0.00862271
-0.00825121
-0.00778437
-0.00724072
-0.00672332
-0.00616903
-0.00545631
-0.00489146
-0.0040395
-0.00324179
-0.00246353
-0.00175001
-0.00120519
-0.00094194
0.0301167
0.0389351
0.0484004
0.0566792
0.0399424
-0.0136314
-0.075049
-0.117373
-0.146016
-0.151454
-0.147683
-0.129938
-0.106854
-0.0809183
-0.0608072
-0.0455723
-0.0337723
-0.0268193
-0.0215794
-0.0187841
-0.0164385
-0.0152165
-0.0143148
-0.0135666
-0.0128302
-0.0121768
-0.0113121
-0.0105405
-0.00978232
-0.00897308
-0.00828341
-0.00746073
-0.00655758
-0.0057533
-0.00483061
-0.00406669
-0.00328042
-0.00258853
-0.00210661
-0.00193694
0.0371866
0.0455986
0.053473
0.0666594
0.0486477
-0.00675204
-0.0543981
-0.0969809
-0.128025
-0.14778
-0.1582
-0.151395
-0.136348
-0.110632
-0.0889726
-0.0668029
-0.052724
-0.0408236
-0.0332199
-0.0276381
-0.0239437
-0.020989
-0.0192228
-0.0174403
-0.0160499
-0.0147647
-0.0135176
-0.0126094
-0.0116105
-0.0107318
-0.00977491
-0.00885297
-0.00790891
-0.00708565
-0.00629036
-0.00556631
-0.00475815
-0.00404605
-0.00356639
-0.00342536
0.0396725
0.047549
0.0551306
0.0642446
0.0479796
-0.0116082
-0.0452906
-0.082413
-0.115877
-0.14964
-0.172808
-0.177623
-0.166484
-0.146269
-0.119892
-0.0953486
-0.0761767
-0.0597558
-0.0488178
-0.039902
-0.0343108
-0.029214
-0.0263509
-0.0233164
-0.0214586
-0.0195759
-0.0183149
-0.0169954
-0.0158692
-0.0147136
-0.0136048
-0.0125642
-0.0115309
-0.0106793
-0.00972935
-0.00878241
-0.00763293
-0.00669298
-0.00601295
-0.00577398
0.0356054
0.0426927
0.0475861
0.0506096
0.0335365
-0.00743681
-0.0366571
-0.0707628
-0.108062
-0.151469
-0.185677
-0.204282
-0.202286
-0.184359
-0.156276
-0.131126
-0.10509
-0.0860162
-0.0689106
-0.057329
-0.0488789