/*--------------------------------*- C++ -*----------------------------------*\
  =========                 |
  \\      /  F ield         | OpenFOAM: The Open Source CFD Toolbox
   \\    /   O peration     | Website:  https://openfoam.org
    \\  /    A nd           | Version:  11
     \\/     M anipulation  |
\*---------------------------------------------------------------------------*/
FoamFile
{
    format      ascii;
    class       volVectorField;
    location    "8";
    object      C;
}
// * * * * * * * * * * * * * * * * * * * * * * * * * * * * * * * * * * * * * //

dimensions      [0 1 0 0 0 0 0];

internalField   nonuniform List<vector> 
9600
(
(-9.67009 -7.45525 0.5)
(-9.42302 -7.45541 0.5)
(-9.17595 -7.45557 0.5)
(-8.92887 -7.45573 0.5)
(-8.68178 -7.45587 0.5)
(-8.43468 -7.45601 0.5)
(-8.18759 -7.45613 0.5)
(-7.94048 -7.45625 0.5)
(-7.69338 -7.45637 0.5)
(-7.44626 -7.45647 0.5)
(-7.19915 -7.45656 0.5)
(-6.95203 -7.45665 0.5)
(-6.7049 -7.45672 0.5)
(-6.45778 -7.45679 0.5)
(-6.21065 -7.45685 0.5)
(-5.96352 -7.45689 0.5)
(-5.71638 -7.45694 0.5)
(-5.46925 -7.45697 0.5)
(-5.22211 -7.45699 0.5)
(-4.97498 -7.45699 0.5)
(-4.72784 -7.45699 0.5)
(-4.48071 -7.45699 0.5)
(-4.23357 -7.45697 0.5)
(-3.98643 -7.45693 0.5)
(-3.7393 -7.4569 0.5)
(-3.49217 -7.45685 0.5)
(-3.24504 -7.45679 0.5)
(-2.99792 -7.45672 0.5)
(-2.75079 -7.45665 0.5)
(-2.50367 -7.45656 0.5)
(-2.25655 -7.45647 0.5)
(-2.00944 -7.45637 0.5)
(-1.76233 -7.45625 0.5)
(-1.51523 -7.45613 0.5)
(-1.26813 -7.45601 0.5)
(-1.02104 -7.45587 0.5)
(-0.773951 -7.45573 0.5)
(-0.52687 -7.45557 0.5)
(-0.279795 -7.45541 0.5)
(-0.0327272 -7.45525 0.5)
(-9.55688 -7.36541 0.5)
(-9.3157 -7.36591 0.5)
(-9.07451 -7.36639 0.5)
(-8.83329 -7.36685 0.5)
(-8.59205 -7.36729 0.5)
(-8.3508 -7.36769 0.5)
(-8.10953 -7.36808 0.5)
(-7.86825 -7.36843 0.5)
(-7.62695 -7.36877 0.5)
(-7.38565 -7.36908 0.5)
(-7.14433 -7.36936 0.5)
(-6.903 -7.36961 0.5)
(-6.66165 -7.36984 0.5)
(-6.42031 -7.37004 0.5)
(-6.17895 -7.37021 0.5)
(-5.93759 -7.37036 0.5)
(-5.69622 -7.37047 0.5)
(-5.45485 -7.37056 0.5)
(-5.21347 -7.37062 0.5)
(-4.9721 -7.37065 0.5)
(-4.73072 -7.37065 0.5)
(-4.48935 -7.37062 0.5)
(-4.24797 -7.37056 0.5)
(-4.0066 -7.37047 0.5)
(-3.76523 -7.37036 0.5)
(-3.52386 -7.37021 0.5)
(-3.28251 -7.37004 0.5)
(-3.04116 -7.36984 0.5)
(-2.79982 -7.36961 0.5)
(-2.55849 -7.36936 0.5)
(-2.31716 -7.36908 0.5)
(-2.07586 -7.36877 0.5)
(-1.83456 -7.36843 0.5)
(-1.59328 -7.36808 0.5)
(-1.35201 -7.36769 0.5)
(-1.11076 -7.36728 0.5)
(-0.869528 -7.36685 0.5)
(-0.628313 -7.36639 0.5)
(-0.387115 -7.36591 0.5)
(-0.145936 -7.36541 0.5)
(-9.44367 -7.27558 0.5)
(-9.20838 -7.27642 0.5)
(-8.97306 -7.27721 0.5)
(-8.73771 -7.27797 0.5)
(-8.50233 -7.27869 0.5)
(-8.26692 -7.27938 0.5)
(-8.03148 -7.28002 0.5)
(-7.79602 -7.28061 0.5)
(-7.56054 -7.28117 0.5)
(-7.32503 -7.28169 0.5)
(-7.08952 -7.28216 0.5)
(-6.85397 -7.28258 0.5)
(-6.61841 -7.28296 0.5)
(-6.38284 -7.2833 0.5)
(-6.14725 -7.28358 0.5)
(-5.91166 -7.28382 0.5)
(-5.67606 -7.28401 0.5)
(-5.44045 -7.28416 0.5)
(-5.20483 -7.28425 0.5)
(-4.96922 -7.2843 0.5)
(-4.7336 -7.2843 0.5)
(-4.49799 -7.28425 0.5)
(-4.26237 -7.28416 0.5)
(-4.02676 -7.28401 0.5)
(-3.79115 -7.28382 0.5)
(-3.55556 -7.28358 0.5)
(-3.31998 -7.2833 0.5)
(-3.0844 -7.28296 0.5)
(-2.84885 -7.28258 0.5)
(-2.6133 -7.28216 0.5)
(-2.37778 -7.28169 0.5)
(-2.14228 -7.28117 0.5)
(-1.90679 -7.28061 0.5)
(-1.67133 -7.28002 0.5)
(-1.4359 -7.27938 0.5)
(-1.20049 -7.27869 0.5)
(-0.965109 -7.27797 0.5)
(-0.729755 -7.27721 0.5)
(-0.494433 -7.27642 0.5)
(-0.259144 -7.27558 0.5)
(-9.33046 -7.18575 0.5)
(-9.10106 -7.18692 0.5)
(-8.87162 -7.18803 0.5)
(-8.64213 -7.1891 0.5)
(-8.4126 -7.1901 0.5)
(-8.18303 -7.19106 0.5)
(-7.95343 -7.19196 0.5)
(-7.72379 -7.1928 0.5)
(-7.49412 -7.19358 0.5)
(-7.26442 -7.1943 0.5)
(-7.03469 -7.19495 0.5)
(-6.80494 -7.19555 0.5)
(-6.57517 -7.19608 0.5)
(-6.34537 -7.19655 0.5)
(-6.11556 -7.19695 0.5)
(-5.88573 -7.19728 0.5)
(-5.6559 -7.19755 0.5)
(-5.42605 -7.19775 0.5)
(-5.19619 -7.19789 0.5)
(-4.96634 -7.19796 0.5)
(-4.73648 -7.19796 0.5)
(-4.50663 -7.19789 0.5)
(-4.27677 -7.19775 0.5)
(-4.04692 -7.19755 0.5)
(-3.81708 -7.19728 0.5)
(-3.58725 -7.19695 0.5)
(-3.35744 -7.19655 0.5)
(-3.12765 -7.19608 0.5)
(-2.89788 -7.19555 0.5)
(-2.66812 -7.19495 0.5)
(-2.4384 -7.1943 0.5)
(-2.20869 -7.19358 0.5)
(-1.97902 -7.1928 0.5)
(-1.74938 -7.19196 0.5)
(-1.51978 -7.19106 0.5)
(-1.29021 -7.1901 0.5)
(-1.06069 -7.1891 0.5)
(-0.831195 -7.18803 0.5)
(-0.601753 -7.18692 0.5)
(-0.372351 -7.18575 0.5)
(-9.21725 -7.09592 0.5)
(-8.99375 -7.09742 0.5)
(-8.77018 -7.09885 0.5)
(-8.54655 -7.10022 0.5)
(-8.32288 -7.10152 0.5)
(-8.09915 -7.10274 0.5)
(-7.87538 -7.1039 0.5)
(-7.65156 -7.10498 0.5)
(-7.4277 -7.10598 0.5)
(-7.20381 -7.10691 0.5)
(-6.97987 -7.10775 0.5)
(-6.75591 -7.10852 0.5)
(-6.53192 -7.1092 0.5)
(-6.3079 -7.1098 0.5)
(-6.08386 -7.11031 0.5)
(-5.85981 -7.11074 0.5)
(-5.63574 -7.11109 0.5)
(-5.41165 -7.11135 0.5)
(-5.18756 -7.11152 0.5)
(-4.96346 -7.11161 0.5)
(-4.73936 -7.11161 0.5)
(-4.51526 -7.11152 0.5)
(-4.29117 -7.11135 0.5)
(-4.06708 -7.11109 0.5)
(-3.84301 -7.11074 0.5)
(-3.61895 -7.11031 0.5)
(-3.39491 -7.1098 0.5)
(-3.17089 -7.1092 0.5)
(-2.9469 -7.10852 0.5)
(-2.72294 -7.10775 0.5)
(-2.49901 -7.10691 0.5)
(-2.27511 -7.10598 0.5)
(-2.05126 -7.10498 0.5)
(-1.82743 -7.1039 0.5)
(-1.60366 -7.10274 0.5)
(-1.37994 -7.10152 0.5)
(-1.15626 -7.10022 0.5)
(-0.932637 -7.09885 0.5)
(-0.70907 -7.09742 0.5)
(-0.485561 -7.09592 0.5)
(-9.10405 -7.00609 0.5)
(-8.88643 -7.00792 0.5)
(-8.66874 -7.00967 0.5)
(-8.45098 -7.01135 0.5)
(-8.23315 -7.01293 0.5)
(-8.01527 -7.01443 0.5)
(-7.79733 -7.01584 0.5)
(-7.57933 -7.01716 0.5)
(-7.36129 -7.01838 0.5)
(-7.14319 -7.01952 0.5)
(-6.92506 -7.02055 0.5)
(-6.70688 -7.02148 0.5)
(-6.48868 -7.02232 0.5)
(-6.27044 -7.02305 0.5)
(-6.05217 -7.02368 0.5)
(-5.83388 -7.02421 0.5)
(-5.61557 -7.02463 0.5)
(-5.39725 -7.02495 0.5)
(-5.17891 -7.02516 0.5)
(-4.96058 -7.02526 0.5)
(-4.74223 -7.02526 0.5)
(-4.5239 -7.02516 0.5)
(-4.30556 -7.02495 0.5)
(-4.08724 -7.02463 0.5)
(-3.86894 -7.02421 0.5)
(-3.65065 -7.02368 0.5)
(-3.43238 -7.02305 0.5)
(-3.21414 -7.02232 0.5)
(-2.99593 -7.02148 0.5)
(-2.77776 -7.02055 0.5)
(-2.55962 -7.01952 0.5)
(-2.34153 -7.01838 0.5)
(-2.12348 -7.01716 0.5)
(-1.90549 -7.01584 0.5)
(-1.68755 -7.01443 0.5)
(-1.46966 -7.01293 0.5)
(-1.25184 -7.01135 0.5)
(-1.03408 -7.00967 0.5)
(-0.816388 -7.00792 0.5)
(-0.598767 -7.00609 0.5)
(-8.99084 -6.91625 0.5)
(-8.77911 -6.91842 0.5)
(-8.56729 -6.92049 0.5)
(-8.3554 -6.92247 0.5)
(-8.14343 -6.92434 0.5)
(-7.93139 -6.92612 0.5)
(-7.71928 -6.92778 0.5)
(-7.5071 -6.92934 0.5)
(-7.29487 -6.93079 0.5)
(-7.08258 -6.93213 0.5)
(-6.87024 -6.93335 0.5)
(-6.65786 -6.93445 0.5)
(-6.44543 -6.93544 0.5)
(-6.23297 -6.9363 0.5)
(-6.02048 -6.93705 0.5)
(-5.80796 -6.93767 0.5)
(-5.59541 -6.93817 0.5)
(-5.38285 -6.93854 0.5)
(-5.17028 -6.93879 0.5)
(-4.9577 -6.93892 0.5)
(-4.74512 -6.93892 0.5)
(-4.53253 -6.93879 0.5)
(-4.31996 -6.93854 0.5)
(-4.1074 -6.93817 0.5)
(-3.89486 -6.93767 0.5)
(-3.68234 -6.93705 0.5)
(-3.46985 -6.9363 0.5)
(-3.25738 -6.93544 0.5)
(-3.04496 -6.93445 0.5)
(-2.83257 -6.93335 0.5)
(-2.62024 -6.93213 0.5)
(-2.40795 -6.93079 0.5)
(-2.19571 -6.92934 0.5)
(-1.98354 -6.92778 0.5)
(-1.77143 -6.92612 0.5)
(-1.55939 -6.92434 0.5)
(-1.34742 -6.92247 0.5)
(-1.13552 -6.92049 0.5)
(-0.923707 -6.91842 0.5)
(-0.711975 -6.91626 0.5)
(-8.87763 -6.82643 0.5)
(-8.67179 -6.82892 0.5)
(-8.46585 -6.83131 0.5)
(-8.25983 -6.83359 0.5)
(-8.05371 -6.83576 0.5)
(-7.84751 -6.8378 0.5)
(-7.64123 -6.83972 0.5)
(-7.43487 -6.84153 0.5)
(-7.22845 -6.8432 0.5)
(-7.02197 -6.84474 0.5)
(-6.81542 -6.84615 0.5)
(-6.60883 -6.84742 0.5)
(-6.40219 -6.84855 0.5)
(-6.1955 -6.84956 0.5)
(-5.98878 -6.85042 0.5)
(-5.78203 -6.85113 0.5)
(-5.57525 -6.85171 0.5)
(-5.36845 -6.85214 0.5)
(-5.16164 -6.85243 0.5)
(-4.95482 -6.85258 0.5)
(-4.74799 -6.85258 0.5)
(-4.54117 -6.85243 0.5)
(-4.33436 -6.85214 0.5)
(-4.12756 -6.85171 0.5)
(-3.92079 -6.85114 0.5)
(-3.71403 -6.85042 0.5)
(-3.50731 -6.84956 0.5)
(-3.30063 -6.84855 0.5)
(-3.09399 -6.84742 0.5)
(-2.88739 -6.84615 0.5)
(-2.68085 -6.84474 0.5)
(-2.47436 -6.8432 0.5)
(-2.26794 -6.84153 0.5)
(-2.06159 -6.83972 0.5)
(-1.85531 -6.8378 0.5)
(-1.64911 -6.83576 0.5)
(-1.44299 -6.83359 0.5)
(-1.23696 -6.83131 0.5)
(-1.03102 -6.82892 0.5)
(-0.825182 -6.82642 0.5)
(-8.76443 -6.73659 0.5)
(-8.56447 -6.73942 0.5)
(-8.36441 -6.74213 0.5)
(-8.16425 -6.74472 0.5)
(-7.96398 -6.74717 0.5)
(-7.76363 -6.74949 0.5)
(-7.56317 -6.75167 0.5)
(-7.36264 -6.75371 0.5)
(-7.16204 -6.7556 0.5)
(-6.96135 -6.75735 0.5)
(-6.76061 -6.75894 0.5)
(-6.55981 -6.76039 0.5)
(-6.35894 -6.76168 0.5)
(-6.15803 -6.76281 0.5)
(-5.95709 -6.76378 0.5)
(-5.75611 -6.7646 0.5)
(-5.55509 -6.76525 0.5)
(-5.35405 -6.76574 0.5)
(-5.153 -6.76607 0.5)
(-4.95194 -6.76623 0.5)
(-4.75088 -6.76623 0.5)
(-4.54981 -6.76607 0.5)
(-4.34876 -6.76574 0.5)
(-4.14773 -6.76525 0.5)
(-3.94671 -6.7646 0.5)
(-3.74573 -6.76378 0.5)
(-3.54478 -6.76281 0.5)
(-3.34387 -6.76167 0.5)
(-3.14301 -6.76039 0.5)
(-2.94221 -6.75894 0.5)
(-2.74146 -6.75735 0.5)
(-2.54078 -6.7556 0.5)
(-2.34017 -6.75371 0.5)
(-2.13965 -6.75167 0.5)
(-1.93919 -6.74949 0.5)
(-1.73884 -6.74717 0.5)
(-1.53857 -6.74472 0.5)
(-1.3384 -6.74213 0.5)
(-1.13834 -6.73942 0.5)
(-0.938387 -6.73659 0.5)
(-8.65122 -6.64676 0.5)
(-8.45716 -6.64993 0.5)
(-8.26297 -6.65295 0.5)
(-8.06867 -6.65584 0.5)
(-7.87426 -6.65858 0.5)
(-7.67974 -6.66117 0.5)
(-7.48513 -6.66361 0.5)
(-7.29042 -6.66589 0.5)
(-7.09562 -6.668 0.5)
(-6.90074 -6.66996 0.5)
(-6.70579 -6.67174 0.5)
(-6.51078 -6.67336 0.5)
(-6.3157 -6.6748 0.5)
(-6.12057 -6.67606 0.5)
(-5.92539 -6.67715 0.5)
(-5.73018 -6.67806 0.5)
(-5.53493 -6.67879 0.5)
(-5.33965 -6.67934 0.5)
(-5.14436 -6.6797 0.5)
(-4.94906 -6.67989 0.5)
(-4.75375 -6.67989 0.5)
(-4.55845 -6.6797 0.5)
(-4.36316 -6.67934 0.5)
(-4.16789 -6.67879 0.5)
(-3.97264 -6.67806 0.5)
(-3.77742 -6.67715 0.5)
(-3.58225 -6.67606 0.5)
(-3.38712 -6.6748 0.5)
(-3.19204 -6.67336 0.5)
(-2.99702 -6.67174 0.5)
(-2.80208 -6.66996 0.5)
(-2.6072 -6.668 0.5)
(-2.4124 -6.66589 0.5)
(-2.21769 -6.66361 0.5)
(-2.02308 -6.66117 0.5)
(-1.82856 -6.65858 0.5)
(-1.63415 -6.65584 0.5)
(-1.43985 -6.65295 0.5)
(-1.24566 -6.64993 0.5)
(-1.05159 -6.64676 0.5)
(-8.53802 -6.55693 0.5)
(-8.34984 -6.56043 0.5)
(-8.16153 -6.56377 0.5)
(-7.97309 -6.56697 0.5)
(-7.78454 -6.57 0.5)
(-7.59586 -6.57286 0.5)
(-7.40707 -6.57555 0.5)
(-7.21819 -6.57807 0.5)
(-7.0292 -6.58041 0.5)
(-6.84013 -6.58257 0.5)
(-6.65097 -6.58454 0.5)
(-6.46175 -6.58632 0.5)
(-6.27246 -6.58791 0.5)
(-6.0831 -6.58931 0.5)
(-5.8937 -6.59052 0.5)
(-5.70425 -6.59153 0.5)
(-5.51477 -6.59233 0.5)
(-5.32526 -6.59294 0.5)
(-5.13573 -6.59334 0.5)
(-4.94618 -6.59354 0.5)
(-4.75664 -6.59354 0.5)
(-4.56709 -6.59334 0.5)
(-4.37756 -6.59294 0.5)
(-4.18805 -6.59233 0.5)
(-3.99856 -6.59153 0.5)
(-3.80912 -6.59052 0.5)
(-3.61972 -6.58931 0.5)
(-3.43036 -6.58791 0.5)
(-3.24107 -6.58632 0.5)
(-3.05184 -6.58454 0.5)
(-2.86268 -6.58257 0.5)
(-2.67362 -6.58041 0.5)
(-2.48463 -6.57807 0.5)
(-2.29574 -6.57555 0.5)
(-2.10696 -6.57286 0.5)
(-1.91828 -6.57 0.5)
(-1.72972 -6.56697 0.5)
(-1.54128 -6.56377 0.5)
(-1.35298 -6.56043 0.5)
(-1.1648 -6.55693 0.5)
(-8.42481 -6.4671 0.5)
(-8.24253 -6.47093 0.5)
(-8.06009 -6.4746 0.5)
(-7.87752 -6.47809 0.5)
(-7.69481 -6.48141 0.5)
(-7.51198 -6.48455 0.5)
(-7.32902 -6.48749 0.5)
(-7.14596 -6.49025 0.5)
(-6.96279 -6.49282 0.5)
(-6.77952 -6.49518 0.5)
(-6.59616 -6.49734 0.5)
(-6.41272 -6.49929 0.5)
(-6.22921 -6.50104 0.5)
(-6.04563 -6.50257 0.5)
(-5.862 -6.50389 0.5)
(-5.67832 -6.50499 0.5)
(-5.49461 -6.50587 0.5)
(-5.31086 -6.50654 0.5)
(-5.12709 -6.50698 0.5)
(-4.94331 -6.5072 0.5)
(-4.75951 -6.5072 0.5)
(-4.57573 -6.50698 0.5)
(-4.39196 -6.50654 0.5)
(-4.20821 -6.50587 0.5)
(-4.02449 -6.50499 0.5)
(-3.84081 -6.50389 0.5)
(-3.65718 -6.50257 0.5)
(-3.47361 -6.50104 0.5)
(-3.2901 -6.49929 0.5)
(-3.10666 -6.49734 0.5)
(-2.9233 -6.49518 0.5)
(-2.74003 -6.49282 0.5)
(-2.55686 -6.49025 0.5)
(-2.37379 -6.48749 0.5)
(-2.19084 -6.48455 0.5)
(-2.008 -6.48141 0.5)
(-1.8253 -6.47809 0.5)
(-1.64272 -6.4746 0.5)
(-1.46029 -6.47093 0.5)
(-1.278 -6.4671 0.5)
(-8.3116 -6.37727 0.5)
(-8.13521 -6.38144 0.5)
(-7.95865 -6.38542 0.5)
(-7.78194 -6.38922 0.5)
(-7.60509 -6.39283 0.5)
(-7.4281 -6.39623 0.5)
(-7.25097 -6.39944 0.5)
(-7.07373 -6.40244 0.5)
(-6.89637 -6.40522 0.5)
(-6.71891 -6.40779 0.5)
(-6.54134 -6.41014 0.5)
(-6.3637 -6.41227 0.5)
(-6.18597 -6.41416 0.5)
(-6.00817 -6.41582 0.5)
(-5.83031 -6.41726 0.5)
(-5.6524 -6.41845 0.5)
(-5.47445 -6.41941 0.5)
(-5.29646 -6.42014 0.5)
(-5.11845 -6.42062 0.5)
(-4.94042 -6.42086 0.5)
(-4.7624 -6.42086 0.5)
(-4.58437 -6.42062 0.5)
(-4.40636 -6.42014 0.5)
(-4.22837 -6.41942 0.5)
(-4.05042 -6.41845 0.5)
(-3.87251 -6.41726 0.5)
(-3.69464 -6.41582 0.5)
(-3.51685 -6.41416 0.5)
(-3.33912 -6.41227 0.5)
(-3.16147 -6.41014 0.5)
(-2.98391 -6.40779 0.5)
(-2.80644 -6.40522 0.5)
(-2.62908 -6.40244 0.5)
(-2.45184 -6.39944 0.5)
(-2.27472 -6.39623 0.5)
(-2.09773 -6.39283 0.5)
(-1.92087 -6.38922 0.5)
(-1.74416 -6.38542 0.5)
(-1.56761 -6.38144 0.5)
(-1.39121 -6.37727 0.5)
(-8.1984 -6.28744 0.5)
(-8.02789 -6.29194 0.5)
(-7.85721 -6.29624 0.5)
(-7.68637 -6.30035 0.5)
(-7.51537 -6.30424 0.5)
(-7.34422 -6.30792 0.5)
(-7.17293 -6.31138 0.5)
(-7.0015 -6.31462 0.5)
(-6.82995 -6.31763 0.5)
(-6.6583 -6.3204 0.5)
(-6.48653 -6.32294 0.5)
(-6.31467 -6.32523 0.5)
(-6.14273 -6.32728 0.5)
(-5.9707 -6.32908 0.5)
(-5.79861 -6.33062 0.5)
(-5.62647 -6.33192 0.5)
(-5.45428 -6.33296 0.5)
(-5.28206 -6.33374 0.5)
(-5.10981 -6.33426 0.5)
(-4.93755 -6.33452 0.5)
(-4.76527 -6.33452 0.5)
(-4.59301 -6.33426 0.5)
(-4.42076 -6.33374 0.5)
(-4.24853 -6.33296 0.5)
(-4.07634 -6.33192 0.5)
(-3.9042 -6.33063 0.5)
(-3.73212 -6.32908 0.5)
(-3.56009 -6.32728 0.5)
(-3.38814 -6.32523 0.5)
(-3.21629 -6.32294 0.5)
(-3.04452 -6.3204 0.5)
(-2.87286 -6.31763 0.5)
(-2.70131 -6.31462 0.5)
(-2.52989 -6.31138 0.5)
(-2.3586 -6.30792 0.5)
(-2.18745 -6.30424 0.5)
(-2.01645 -6.30035 0.5)
(-1.8456 -6.29624 0.5)
(-1.67492 -6.29194 0.5)
(-1.50441 -6.28744 0.5)
(-8.0852 -6.19761 0.5)
(-7.92058 -6.20244 0.5)
(-7.75578 -6.20707 0.5)
(-7.5908 -6.21147 0.5)
(-7.42565 -6.21565 0.5)
(-7.26034 -6.21961 0.5)
(-7.09488 -6.22333 0.5)
(-6.92928 -6.22681 0.5)
(-6.76354 -6.23004 0.5)
(-6.59768 -6.23302 0.5)
(-6.43172 -6.23574 0.5)
(-6.26565 -6.2382 0.5)
(-6.09948 -6.2404 0.5)
(-5.93324 -6.24233 0.5)
(-5.76692 -6.244 0.5)
(-5.60055 -6.24538 0.5)
(-5.43412 -6.2465 0.5)
(-5.26766 -6.24733 0.5)
(-5.10117 -6.24789 0.5)
(-4.93466 -6.24817 0.5)
(-4.76816 -6.24817 0.5)
(-4.60165 -6.24789 0.5)
(-4.43516 -6.24733 0.5)
(-4.26869 -6.2465 0.5)
(-4.10227 -6.24538 0.5)
(-3.9359 -6.244 0.5)
(-3.76958 -6.24233 0.5)
(-3.60334 -6.24041 0.5)
(-3.43717 -6.2382 0.5)
(-3.2711 -6.23574 0.5)
(-3.10513 -6.23302 0.5)
(-2.93927 -6.23004 0.5)
(-2.77354 -6.22681 0.5)
(-2.60794 -6.22333 0.5)
(-2.44248 -6.21961 0.5)
(-2.27717 -6.21565 0.5)
(-2.11202 -6.21147 0.5)
(-1.94704 -6.20707 0.5)
(-1.78224 -6.20244 0.5)
(-1.61762 -6.19761 0.5)
(-7.97199 -6.10778 0.5)
(-7.81327 -6.11295 0.5)
(-7.65434 -6.11789 0.5)
(-7.49523 -6.1226 0.5)
(-7.33593 -6.12707 0.5)
(-7.17646 -6.1313 0.5)
(-7.01683 -6.13527 0.5)
(-6.85705 -6.13899 0.5)
(-6.69713 -6.14245 0.5)
(-6.53707 -6.14563 0.5)
(-6.3769 -6.14854 0.5)
(-6.21662 -6.15118 0.5)
(-6.05624 -6.15353 0.5)
(-5.89577 -6.15559 0.5)
(-5.73523 -6.15737 0.5)
(-5.57463 -6.15885 0.5)
(-5.41397 -6.16004 0.5)
(-5.25326 -6.16093 0.5)
(-5.09253 -6.16153 0.5)
(-4.93179 -6.16183 0.5)
(-4.77103 -6.16183 0.5)
(-4.61029 -6.16153 0.5)
(-4.44956 -6.16093 0.5)
(-4.28885 -6.16004 0.5)
(-4.12819 -6.15885 0.5)
(-3.96759 -6.15737 0.5)
(-3.80705 -6.15559 0.5)
(-3.64658 -6.15353 0.5)
(-3.4862 -6.15118 0.5)
(-3.32591 -6.14854 0.5)
(-3.16575 -6.14563 0.5)
(-3.00569 -6.14245 0.5)
(-2.84577 -6.13899 0.5)
(-2.68599 -6.13527 0.5)
(-2.52636 -6.13129 0.5)
(-2.36689 -6.12707 0.5)
(-2.20759 -6.1226 0.5)
(-2.04848 -6.11789 0.5)
(-1.88955 -6.11295 0.5)
(-1.73083 -6.10778 0.5)
(-7.85879 -6.01795 0.5)
(-7.70595 -6.02346 0.5)
(-7.55291 -6.02871 0.5)
(-7.39965 -6.03373 0.5)
(-7.24621 -6.03849 0.5)
(-7.09258 -6.04299 0.5)
(-6.93878 -6.04722 0.5)
(-6.78482 -6.05118 0.5)
(-6.63071 -6.05485 0.5)
(-6.47646 -6.05825 0.5)
(-6.32208 -6.06135 0.5)
(-6.16759 -6.06415 0.5)
(-6.013 -6.06665 0.5)
(-5.85831 -6.06885 0.5)
(-5.70354 -6.07074 0.5)
(-5.5487 -6.07232 0.5)
(-5.3938 -6.07359 0.5)
(-5.23886 -6.07454 0.5)
(-5.08389 -6.07517 0.5)
(-4.9289 -6.07549 0.5)
(-4.77392 -6.07549 0.5)
(-4.61893 -6.07517 0.5)
(-4.46395 -6.07454 0.5)
(-4.30902 -6.07359 0.5)
(-4.15412 -6.07232 0.5)
(-3.99928 -6.07074 0.5)
(-3.84451 -6.06885 0.5)
(-3.68982 -6.06665 0.5)
(-3.53522 -6.06415 0.5)
(-3.38073 -6.06135 0.5)
(-3.22635 -6.05824 0.5)
(-3.07211 -6.05485 0.5)
(-2.918 -6.05118 0.5)
(-2.76404 -6.04722 0.5)
(-2.61024 -6.04299 0.5)
(-2.45661 -6.03849 0.5)
(-2.30316 -6.03373 0.5)
(-2.14991 -6.02871 0.5)
(-1.99686 -6.02345 0.5)
(-1.84403 -6.01796 0.5)
(-7.74559 -5.92813 0.5)
(-7.59864 -5.93396 0.5)
(-7.45147 -5.93954 0.5)
(-7.30408 -5.94486 0.5)
(-7.15649 -5.94991 0.5)
(-7.0087 -5.95468 0.5)
(-6.86074 -5.95917 0.5)
(-6.7126 -5.96336 0.5)
(-6.5643 -5.96726 0.5)
(-6.41585 -5.97086 0.5)
(-6.26727 -5.97415 0.5)
(-6.11857 -5.97712 0.5)
(-5.96975 -5.97977 0.5)
(-5.82084 -5.98211 0.5)
(-5.67184 -5.98411 0.5)
(-5.52277 -5.98579 0.5)
(-5.37364 -5.98713 0.5)
(-5.22446 -5.98814 0.5)
(-5.07525 -5.98882 0.5)
(-4.92603 -5.98915 0.5)
(-4.77679 -5.98915 0.5)
(-4.62756 -5.98882 0.5)
(-4.47835 -5.98814 0.5)
(-4.32917 -5.98713 0.5)
(-4.18004 -5.98579 0.5)
(-4.03097 -5.98411 0.5)
(-3.88197 -5.98211 0.5)
(-3.73306 -5.97977 0.5)
(-3.58425 -5.97712 0.5)
(-3.43554 -5.97415 0.5)
(-3.28696 -5.97086 0.5)
(-3.13852 -5.96726 0.5)
(-2.99022 -5.96336 0.5)
(-2.84208 -5.95917 0.5)
(-2.69412 -5.95468 0.5)
(-2.54633 -5.94991 0.5)
(-2.39874 -5.94486 0.5)
(-2.25135 -5.93954 0.5)
(-2.10418 -5.93396 0.5)
(-1.95723 -5.92813 0.5)
(-7.63239 -5.8383 0.5)
(-7.49133 -5.84447 0.5)
(-7.35003 -5.85036 0.5)
(-7.20851 -5.85598 0.5)
(-7.06677 -5.86132 0.5)
(-6.92482 -5.86637 0.5)
(-6.78269 -5.87111 0.5)
(-6.64037 -5.87555 0.5)
(-6.49789 -5.87967 0.5)
(-6.35525 -5.88348 0.5)
(-6.21246 -5.88695 0.5)
(-6.06954 -5.89009 0.5)
(-5.92651 -5.8929 0.5)
(-5.78338 -5.89536 0.5)
(-5.64015 -5.89748 0.5)
(-5.49685 -5.89926 0.5)
(-5.35348 -5.90068 0.5)
(-5.21006 -5.90175 0.5)
(-5.06662 -5.90246 0.5)
(-4.92315 -5.90281 0.5)
(-4.77967 -5.90281 0.5)
(-4.63619 -5.90246 0.5)
(-4.49275 -5.90175 0.5)
(-4.34933 -5.90068 0.5)
(-4.20597 -5.89926 0.5)
(-4.06266 -5.89748 0.5)
(-3.91944 -5.89536 0.5)
(-3.77631 -5.8929 0.5)
(-3.63327 -5.89009 0.5)
(-3.49036 -5.88695 0.5)
(-3.34757 -5.88348 0.5)
(-3.20493 -5.87967 0.5)
(-3.06245 -5.87555 0.5)
(-2.92013 -5.87111 0.5)
(-2.77799 -5.86637 0.5)
(-2.63605 -5.86132 0.5)
(-2.49431 -5.85598 0.5)
(-2.35278 -5.85036 0.5)
(-2.21149 -5.84447 0.5)
(-2.07043 -5.8383 0.5)
(-7.51919 -5.74847 0.5)
(-7.38402 -5.75497 0.5)
(-7.24859 -5.76119 0.5)
(-7.11293 -5.76711 0.5)
(-6.97705 -5.77274 0.5)
(-6.84095 -5.77806 0.5)
(-6.70464 -5.78306 0.5)
(-6.56815 -5.78774 0.5)
(-6.43147 -5.79209 0.5)
(-6.29464 -5.79609 0.5)
(-6.15765 -5.79975 0.5)
(-6.02052 -5.80307 0.5)
(-5.88327 -5.80602 0.5)
(-5.74591 -5.80862 0.5)
(-5.60846 -5.81086 0.5)
(-5.47092 -5.81273 0.5)
(-5.33332 -5.81423 0.5)
(-5.19567 -5.81535 0.5)
(-5.05798 -5.8161 0.5)
(-4.92027 -5.81648 0.5)
(-4.78255 -5.81648 0.5)
(-4.64483 -5.8161 0.5)
(-4.50714 -5.81535 0.5)
(-4.36949 -5.81423 0.5)
(-4.23189 -5.81273 0.5)
(-4.09436 -5.81086 0.5)
(-3.9569 -5.80862 0.5)
(-3.81954 -5.80602 0.5)
(-3.6823 -5.80307 0.5)
(-3.54517 -5.79975 0.5)
(-3.40818 -5.79609 0.5)
(-3.27134 -5.79209 0.5)
(-3.13467 -5.78774 0.5)
(-2.99817 -5.78306 0.5)
(-2.86187 -5.77806 0.5)
(-2.72577 -5.77274 0.5)
(-2.58988 -5.76711 0.5)
(-2.45422 -5.76119 0.5)
(-2.3188 -5.75497 0.5)
(-2.18363 -5.74847 0.5)
(-7.40598 -5.65865 0.5)
(-7.27671 -5.66548 0.5)
(-7.14716 -5.67202 0.5)
(-7.01736 -5.67825 0.5)
(-6.88733 -5.68416 0.5)
(-6.75707 -5.68975 0.5)
(-6.62659 -5.69501 0.5)
(-6.49592 -5.69993 0.5)
(-6.36506 -5.7045 0.5)
(-6.23403 -5.70871 0.5)
(-6.10283 -5.71256 0.5)
(-5.9715 -5.71604 0.5)
(-5.84003 -5.71915 0.5)
(-5.70845 -5.72189 0.5)
(-5.57677 -5.72423 0.5)
(-5.445 -5.7262 0.5)
(-5.31316 -5.72777 0.5)
(-5.18127 -5.72895 0.5)
(-5.04934 -5.72974 0.5)
(-4.91739 -5.73014 0.5)
(-4.78543 -5.73014 0.5)
(-4.65347 -5.72974 0.5)
(-4.52154 -5.72895 0.5)
(-4.38965 -5.72777 0.5)
(-4.25782 -5.7262 0.5)
(-4.12605 -5.72423 0.5)
(-3.99437 -5.72189 0.5)
(-3.86279 -5.71915 0.5)
(-3.73132 -5.71604 0.5)
(-3.59998 -5.71256 0.5)
(-3.46879 -5.70871 0.5)
(-3.33775 -5.7045 0.5)
(-3.2069 -5.69993 0.5)
(-3.07622 -5.69501 0.5)
(-2.94574 -5.68975 0.5)
(-2.81548 -5.68416 0.5)
(-2.68545 -5.67825 0.5)
(-2.55566 -5.67202 0.5)
(-2.42611 -5.66548 0.5)
(-2.29683 -5.65865 0.5)
(-7.29279 -5.56882 0.5)
(-7.1694 -5.57599 0.5)
(-7.04573 -5.58285 0.5)
(-6.9218 -5.58938 0.5)
(-6.79762 -5.59558 0.5)
(-6.6732 -5.60144 0.5)
(-6.54855 -5.60696 0.5)
(-6.4237 -5.61211 0.5)
(-6.29865 -5.61691 0.5)
(-6.17342 -5.62133 0.5)
(-6.04802 -5.62537 0.5)
(-5.92248 -5.62902 0.5)
(-5.79679 -5.63228 0.5)
(-5.67099 -5.63515 0.5)
(-5.54508 -5.63761 0.5)
(-5.41908 -5.63967 0.5)
(-5.293 -5.64132 0.5)
(-5.16687 -5.64256 0.5)
(-5.0407 -5.64339 0.5)
(-4.91451 -5.6438 0.5)
(-4.78831 -5.6438 0.5)
(-4.66211 -5.64339 0.5)
(-4.53594 -5.64256 0.5)
(-4.40981 -5.64132 0.5)
(-4.28374 -5.63967 0.5)
(-4.15774 -5.63761 0.5)
(-4.03183 -5.63515 0.5)
(-3.90603 -5.63228 0.5)
(-3.78034 -5.62902 0.5)
(-3.65479 -5.62537 0.5)
(-3.5294 -5.62133 0.5)
(-3.40417 -5.61691 0.5)
(-3.27912 -5.61211 0.5)
(-3.15426 -5.60696 0.5)
(-3.02962 -5.60144 0.5)
(-2.9052 -5.59558 0.5)
(-2.78102 -5.58938 0.5)
(-2.65709 -5.58285 0.5)
(-2.53342 -5.57599 0.5)
(-2.41003 -5.56882 0.5)
(-7.17959 -5.479 0.5)
(-7.06209 -5.4865 0.5)
(-6.9443 -5.49367 0.5)
(-6.82623 -5.50051 0.5)
(-6.7079 -5.507 0.5)
(-6.58932 -5.51314 0.5)
(-6.47051 -5.51891 0.5)
(-6.35148 -5.5243 0.5)
(-6.23224 -5.52932 0.5)
(-6.11282 -5.53395 0.5)
(-5.99321 -5.53817 0.5)
(-5.87345 -5.542 0.5)
(-5.75355 -5.54541 0.5)
(-5.63352 -5.54841 0.5)
(-5.51339 -5.55099 0.5)
(-5.39315 -5.55314 0.5)
(-5.27284 -5.55487 0.5)
(-5.15248 -5.55617 0.5)
(-5.03207 -5.55703 0.5)
(-4.91163 -5.55747 0.5)
(-4.79119 -5.55747 0.5)
(-4.67075 -5.55703 0.5)
(-4.55034 -5.55617 0.5)
(-4.42997 -5.55487 0.5)
(-4.30966 -5.55314 0.5)
(-4.18943 -5.55099 0.5)
(-4.06929 -5.54841 0.5)
(-3.94927 -5.54541 0.5)
(-3.82937 -5.542 0.5)
(-3.70961 -5.53817 0.5)
(-3.59 -5.53395 0.5)
(-3.47058 -5.52932 0.5)
(-3.35134 -5.5243 0.5)
(-3.23231 -5.51891 0.5)
(-3.11349 -5.51314 0.5)
(-2.99492 -5.507 0.5)
(-2.87659 -5.50051 0.5)
(-2.75852 -5.49367 0.5)
(-2.64073 -5.4865 0.5)
(-2.52322 -5.479 0.5)
(-7.0664 -5.38918 0.5)
(-6.95478 -5.39701 0.5)
(-6.84287 -5.4045 0.5)
(-6.73067 -5.41164 0.5)
(-6.61819 -5.41843 0.5)
(-6.50545 -5.42483 0.5)
(-6.39247 -5.43086 0.5)
(-6.27926 -5.4365 0.5)
(-6.16583 -5.44174 0.5)
(-6.05221 -5.44657 0.5)
(-5.9384 -5.45098 0.5)
(-5.82443 -5.45497 0.5)
(-5.71031 -5.45854 0.5)
(-5.59606 -5.46167 0.5)
(-5.48169 -5.46437 0.5)
(-5.36723 -5.46662 0.5)
(-5.25269 -5.46842 0.5)
(-5.13808 -5.46978 0.5)
(-5.02343 -5.47068 0.5)
(-4.90876 -5.47114 0.5)
(-4.79406 -5.47114 0.5)
(-4.67939 -5.47068 0.5)
(-4.56474 -5.46978 0.5)
(-4.45013 -5.46842 0.5)
(-4.33559 -5.46662 0.5)
(-4.22112 -5.46437 0.5)
(-4.10676 -5.46167 0.5)
(-3.99251 -5.45854 0.5)
(-3.87838 -5.45497 0.5)
(-3.76441 -5.45098 0.5)
(-3.65061 -5.44657 0.5)
(-3.53699 -5.44174 0.5)
(-3.42356 -5.4365 0.5)
(-3.31035 -5.43086 0.5)
(-3.19737 -5.42484 0.5)
(-3.08463 -5.41843 0.5)
(-2.97215 -5.41164 0.5)
(-2.85995 -5.4045 0.5)
(-2.74803 -5.39701 0.5)
(-2.63642 -5.38918 0.5)
(-6.9532 -5.29936 0.5)
(-6.84748 -5.30753 0.5)
(-6.74144 -5.31533 0.5)
(-6.6351 -5.32278 0.5)
(-6.52847 -5.32985 0.5)
(-6.42158 -5.33653 0.5)
(-6.31443 -5.34282 0.5)
(-6.20704 -5.34869 0.5)
(-6.09943 -5.35415 0.5)
(-5.99161 -5.35919 0.5)
(-5.88359 -5.36379 0.5)
(-5.77541 -5.36795 0.5)
(-5.66707 -5.37167 0.5)
(-5.5586 -5.37494 0.5)
(-5.45 -5.37775 0.5)
(-5.34131 -5.38009 0.5)
(-5.23253 -5.38197 0.5)
(-5.12369 -5.38339 0.5)
(-5.0148 -5.38433 0.5)
(-4.90587 -5.38481 0.5)
(-4.79695 -5.38481 0.5)
(-4.68802 -5.38433 0.5)
(-4.57913 -5.38339 0.5)
(-4.47029 -5.38197 0.5)
(-4.36151 -5.38009 0.5)
(-4.25281 -5.37775 0.5)
(-4.14422 -5.37494 0.5)
(-4.03574 -5.37168 0.5)
(-3.9274 -5.36795 0.5)
(-3.81922 -5.36379 0.5)
(-3.71121 -5.35919 0.5)
(-3.60339 -5.35415 0.5)
(-3.49578 -5.34869 0.5)
(-3.38839 -5.34282 0.5)
(-3.28124 -5.33653 0.5)
(-3.17434 -5.32985 0.5)
(-3.06772 -5.32278 0.5)
(-2.96138 -5.31534 0.5)
(-2.85534 -5.30752 0.5)
(-2.74961 -5.29936 0.5)
(-6.84001 -5.20954 0.5)
(-6.74018 -5.21804 0.5)
(-6.64001 -5.22617 0.5)
(-6.53954 -5.23392 0.5)
(-6.43876 -5.24128 0.5)
(-6.33771 -5.24823 0.5)
(-6.23639 -5.25477 0.5)
(-6.13482 -5.26089 0.5)
(-6.03302 -5.26657 0.5)
(-5.931 -5.27181 0.5)
(-5.82879 -5.27661 0.5)
(-5.72639 -5.28094 0.5)
(-5.62384 -5.28481 0.5)
(-5.52114 -5.28821 0.5)
(-5.41831 -5.29113 0.5)
(-5.31538 -5.29357 0.5)
(-5.21237 -5.29553 0.5)
(-5.10929 -5.297 0.5)
(-5.00616 -5.29798 0.5)
(-4.903 -5.29847 0.5)
(-4.79982 -5.29847 0.5)
(-4.69666 -5.29798 0.5)
(-4.59353 -5.297 0.5)
(-4.49045 -5.29553 0.5)
(-4.38743 -5.29357 0.5)
(-4.2845 -5.29113 0.5)
(-4.18168 -5.28821 0.5)
(-4.07898 -5.28481 0.5)
(-3.97643 -5.28094 0.5)
(-3.87403 -5.27661 0.5)
(-3.77182 -5.27181 0.5)
(-3.6698 -5.26657 0.5)
(-3.568 -5.26089 0.5)
(-3.46643 -5.25477 0.5)
(-3.36511 -5.24823 0.5)
(-3.26405 -5.24127 0.5)
(-3.16328 -5.23392 0.5)
(-3.0628 -5.22617 0.5)
(-2.96264 -5.21804 0.5)
(-2.86281 -5.20954 0.5)
(-6.72682 -5.11972 0.5)
(-6.63288 -5.12855 0.5)
(-6.53859 -5.137 0.5)
(-6.44398 -5.14506 0.5)
(-6.34906 -5.1527 0.5)
(-6.25384 -5.15993 0.5)
(-6.15835 -5.16673 0.5)
(-6.0626 -5.17309 0.5)
(-5.96662 -5.17899 0.5)
(-5.8704 -5.18444 0.5)
(-5.77398 -5.18942 0.5)
(-5.67738 -5.19393 0.5)
(-5.5806 -5.19794 0.5)
(-5.48368 -5.20148 0.5)
(-5.38663 -5.20451 0.5)
(-5.28946 -5.20705 0.5)
(-5.19221 -5.20909 0.5)
(-5.09489 -5.21062 0.5)
(-4.99752 -5.21164 0.5)
(-4.90012 -5.21215 0.5)
(-4.8027 -5.21215 0.5)
(-4.7053 -5.21164 0.5)
(-4.60793 -5.21062 0.5)
(-4.5106 -5.20909 0.5)
(-4.41335 -5.20705 0.5)
(-4.31619 -5.20451 0.5)
(-4.21914 -5.20148 0.5)
(-4.12222 -5.19794 0.5)
(-4.02544 -5.19393 0.5)
(-3.92884 -5.18942 0.5)
(-3.83242 -5.18444 0.5)
(-3.7362 -5.17899 0.5)
(-3.64022 -5.17309 0.5)
(-3.54447 -5.16673 0.5)
(-3.44897 -5.15993 0.5)
(-3.35376 -5.1527 0.5)
(-3.25884 -5.14506 0.5)
(-3.16423 -5.137 0.5)
(-3.06994 -5.12855 0.5)
(-2.97599 -5.11972 0.5)
(-6.61364 -5.02991 0.5)
(-6.52558 -5.03907 0.5)
(-6.43717 -5.04784 0.5)
(-6.34842 -5.0562 0.5)
(-6.25935 -5.06413 0.5)
(-6.16997 -5.07164 0.5)
(-6.08032 -5.07869 0.5)
(-5.99039 -5.08529 0.5)
(-5.90021 -5.09142 0.5)
(-5.8098 -5.09707 0.5)
(-5.71918 -5.10224 0.5)
(-5.62836 -5.10691 0.5)
(-5.53736 -5.11108 0.5)
(-5.44622 -5.11475 0.5)
(-5.35494 -5.1179 0.5)
(-5.26354 -5.12054 0.5)
(-5.17206 -5.12265 0.5)
(-5.0805 -5.12424 0.5)
(-4.98888 -5.1253 0.5)
(-4.89724 -5.12582 0.5)
(-4.80558 -5.12582 0.5)
(-4.71394 -5.1253 0.5)
(-4.62232 -5.12424 0.5)
(-4.53076 -5.12265 0.5)
(-4.43927 -5.12054 0.5)
(-4.34788 -5.1179 0.5)
(-4.2566 -5.11475 0.5)
(-4.16545 -5.11108 0.5)
(-4.07446 -5.10691 0.5)
(-3.98364 -5.10224 0.5)
(-3.89302 -5.09707 0.5)
(-3.80261 -5.09142 0.5)
(-3.71243 -5.08529 0.5)
(-3.6225 -5.07869 0.5)
(-3.53284 -5.07164 0.5)
(-3.44347 -5.06413 0.5)
(-3.3544 -5.0562 0.5)
(-3.26565 -5.04784 0.5)
(-3.17724 -5.03907 0.5)
(-3.08918 -5.0299 0.5)
(-6.50045 -4.9401 0.5)
(-6.41828 -4.94959 0.5)
(-6.33574 -4.95868 0.5)
(-6.25286 -4.96734 0.5)
(-6.16964 -4.97557 0.5)
(-6.08611 -4.98334 0.5)
(-6.00228 -4.99065 0.5)
(-5.91818 -4.99749 0.5)
(-5.83381 -5.00384 0.5)
(-5.7492 -5.0097 0.5)
(-5.66438 -5.01506 0.5)
(-5.57935 -5.0199 0.5)
(-5.49413 -5.02423 0.5)
(-5.40876 -5.02802 0.5)
(-5.32325 -5.03129 0.5)
(-5.23763 -5.03403 0.5)
(-5.1519 -5.03622 0.5)
(-5.0661 -5.03786 0.5)
(-4.98025 -5.03896 0.5)
(-4.89436 -5.03951 0.5)
(-4.80846 -5.03951 0.5)
(-4.72257 -5.03896 0.5)
(-4.63672 -5.03786 0.5)
(-4.55092 -5.03622 0.5)
(-4.46519 -5.03403 0.5)
(-4.37956 -5.03129 0.5)
(-4.29405 -5.02803 0.5)
(-4.20868 -5.02423 0.5)
(-4.12347 -5.0199 0.5)
(-4.03844 -5.01506 0.5)
(-3.95362 -5.0097 0.5)
(-3.869 -5.00384 0.5)
(-3.78464 -4.99749 0.5)
(-3.70053 -4.99065 0.5)
(-3.6167 -4.98334 0.5)
(-3.53317 -4.97557 0.5)
(-3.44996 -4.96734 0.5)
(-3.36707 -4.95868 0.5)
(-3.28453 -4.94959 0.5)
(-3.20236 -4.9401 0.5)
(-6.38727 -4.85028 0.5)
(-6.31099 -4.86012 0.5)
(-6.23433 -4.86952 0.5)
(-6.15731 -4.87849 0.5)
(-6.07995 -4.88701 0.5)
(-6.00226 -4.89505 0.5)
(-5.92425 -4.90262 0.5)
(-5.84597 -4.9097 0.5)
(-5.76741 -4.91628 0.5)
(-5.68861 -4.92234 0.5)
(-5.60957 -4.92788 0.5)
(-5.53033 -4.9329 0.5)
(-5.45091 -4.93738 0.5)
(-5.37131 -4.94131 0.5)
(-5.29157 -4.94469 0.5)
(-5.21171 -4.94752 0.5)
(-5.13175 -4.94978 0.5)
(-5.05171 -4.95149 0.5)
(-4.97161 -4.95262 0.5)
(-4.89148 -4.95319 0.5)
(-4.81134 -4.95319 0.5)
(-4.73121 -4.95262 0.5)
(-4.65111 -4.95149 0.5)
(-4.57107 -4.94979 0.5)
(-4.49111 -4.94752 0.5)
(-4.41125 -4.94469 0.5)
(-4.33151 -4.9413 0.5)
(-4.25191 -4.93738 0.5)
(-4.17248 -4.9329 0.5)
(-4.09324 -4.92788 0.5)
(-4.01421 -4.92234 0.5)
(-3.9354 -4.91627 0.5)
(-3.85685 -4.9097 0.5)
(-3.77856 -4.90262 0.5)
(-3.70056 -4.89505 0.5)
(-3.62287 -4.88701 0.5)
(-3.54551 -4.87849 0.5)
(-3.46849 -4.86953 0.5)
(-3.39183 -4.86012 0.5)
(-3.31554 -4.85028 0.5)
(-6.27409 -4.76048 0.5)
(-6.2037 -4.77065 0.5)
(-6.13292 -4.78037 0.5)
(-6.06176 -4.78964 0.5)
(-5.99025 -4.79844 0.5)
(-5.9184 -4.80676 0.5)
(-5.84623 -4.81459 0.5)
(-5.77376 -4.82191 0.5)
(-5.70102 -4.82871 0.5)
(-5.62802 -4.83498 0.5)
(-5.55478 -4.84071 0.5)
(-5.48132 -4.8459 0.5)
(-5.40767 -4.85053 0.5)
(-5.33386 -4.85459 0.5)
(-5.25989 -4.85809 0.5)
(-5.18579 -4.86101 0.5)
(-5.11159 -4.86336 0.5)
(-5.03731 -4.86512 0.5)
(-4.96297 -4.86629 0.5)
(-4.8886 -4.86688 0.5)
(-4.81422 -4.86688 0.5)
(-4.73984 -4.8663 0.5)
(-4.66551 -4.86512 0.5)
(-4.59122 -4.86336 0.5)
(-4.51703 -4.86101 0.5)
(-4.44293 -4.85809 0.5)
(-4.36896 -4.85459 0.5)
(-4.29514 -4.85052 0.5)
(-4.22149 -4.8459 0.5)
(-4.14804 -4.84071 0.5)
(-4.0748 -4.83498 0.5)
(-4.0018 -4.82871 0.5)