/*--------------------------------*- C++ -*----------------------------------*\
  =========                 |
  \\      /  F ield         | OpenFOAM: The Open Source CFD Toolbox
   \\    /   O peration     | Website:  https://openfoam.org
    \\  /    A nd           | Version:  11
     \\/     M anipulation  |
\*---------------------------------------------------------------------------*/
FoamFile
{
    format      ascii;
    class       volScalarField;
    location    "8";
    object      mag(U);
}
// * * * * * * * * * * * * * * * * * * * * * * * * * * * * * * * * * * * * * //

dimensions      [0 1 -1 0 0 0 0];

internalField   nonuniform List<scalar> 
9600
(
0.990479
0.990052
0.989046
0.988173
0.987351
0.986467
0.986314
0.986531
0.987008
0.987818
0.989061
0.990796
0.992678
0.994827
0.997383
1.0003
1.00394
1.00817
1.01122
1.01363
1.01697
1.02088
1.02268
1.0224
1.02113
1.017
1.00375
0.984449
0.972049
0.966682
0.966495
0.974782
0.990578
1.00771
1.02544
1.04369
1.0615
1.07555
1.08398
1.07663
0.99136
0.991259
0.990936
0.990384
0.990226
0.990474
0.990959
0.991861
0.993211
0.994341
0.995829
0.998417
1.00133
1.00421
1.00723
1.01096
1.01506
1.01921
1.02341
1.02762
1.0305
1.0317
1.03309
1.0357
1.03709
1.03639
1.03437
1.03383
1.03287
1.02957
1.02733
1.02794
1.03083
1.03799
1.05001
1.0621
1.07531
1.08604
1.09638
1.09284
0.991211
0.991094
0.990804
0.990561
0.990602
0.990828
0.991265
0.99211
0.993375
0.994668
0.996084
0.998336
1.00127
1.00462
1.00777
1.01086
1.01501
1.01992
1.02459
1.02777
1.02936
1.03071
1.03355
1.03746
1.04043
1.04117
1.04011
1.03752
1.03252
1.02612
1.02167
1.02165
1.0269
1.03622
1.04824
1.06066
1.07411
1.08492
1.09743
1.10378
0.991178
0.991023
0.990702
0.99041
0.990496
0.990753
0.991626
0.992408
0.993574
0.995048
0.997332
0.998936
1.00176
1.00505
1.00894
1.01175
1.01522
1.01922
1.02449
1.0281
1.03038
1.03218
1.03418
1.03609
1.03826
1.03946
1.03911
1.03741
1.03689
1.0363
1.03807
1.039
1.04331
1.04833
1.05729
1.06618
1.07876
1.08661
1.10039
1.10358
0.990985
0.990845
0.990529
0.990303
0.990436
0.990912
0.991602
0.992858
0.993947
0.995434
0.997233
0.999408
1.00217
1.00498
1.00854
1.01235
1.0165
1.01972
1.02312
1.02701
1.03154
1.03487
1.03629
1.03605
1.03569
1.03667
1.03907
1.04046
1.04202
1.04288
1.04293
1.0406
1.04119
1.04429
1.05245
1.06109
1.07438
1.08344
1.09591
1.10331
0.99083
0.990717
0.990371
0.990218
0.990523
0.990815
0.99199
0.992685
0.994182
0.995512
0.997808
0.999522
1.0024
1.00554
1.00954
1.01271
1.01626
1.01923
1.02423
1.02834
1.03222
1.03384
1.03552
1.03612
1.03736
1.03808
1.03908
1.0393
1.03997
1.03994
1.04144
1.04156
1.04614
1.0487
1.05731
1.06349
1.07684
1.08428
1.10021
1.10519
0.990614
0.990507
0.990237
0.990125
0.990542
0.990849
0.992159
0.992866
0.994215
0.995716
0.998394
0.99981
1.00259
1.00551
1.01021
1.01308
1.01652
1.01977
1.02459
1.02855
1.03255
1.03458
1.0368
1.03745
1.0382
1.038
1.03839
1.03821
1.03908
1.0393
1.04196
1.04217
1.04461
1.04466
1.05245
1.05739
1.07093
1.07964
1.09502
1.10261
0.990357
0.990302
0.990115
0.990004
0.990449
0.990918
0.99207
0.992827
0.994356
0.995706
0.998131
1.00015
1.00311
1.00585
1.00975
1.01335
1.0177
1.02054
1.02449
1.02819
1.03259
1.03572
1.03833
1.03858
1.03838
1.03821
1.03889
1.03902
1.03901
1.03867
1.03939
1.03809
1.04084
1.04104
1.04989
1.05479
1.06892
1.07721
1.09431
1.10374
0.990126
0.990088
0.990014
0.989893
0.990295
0.991028
0.992097
0.993152
0.994315
0.995756
0.998674
1.00063
1.00344
1.00568
1.01013
1.01413
1.01831
1.02096
1.02496
1.02859
1.03349
1.03629
1.0391
1.04007
1.0402
1.03977
1.03954
1.03886
1.03812
1.0374
1.03777
1.03671
1.03952
1.03736
1.04373
1.04683
1.059
1.06801
1.08445
1.09852
0.989767
0.989769
0.989796
0.989737
0.990119
0.99082
0.992081
0.993056
0.994137
0.995638
0.998645
1.00076
1.00371
1.006
1.01029
1.01393
1.01885
1.02182
1.02587
1.02906
1.03347
1.03649
1.04005
1.04175
1.04197
1.04086
1.03978
1.0387
1.03796
1.03676
1.03667
1.03519
1.03679
1.03352
1.03805
1.03999
1.05075
1.06064
1.07504
1.0943
0.989533
0.989549
0.989658
0.989549
0.990064
0.990752
0.991976
0.993234
0.994409
0.99571
0.998654
1.00119
1.00449
1.00644
1.01021
1.01416
1.01959
1.0231
1.02677
1.0296
1.03395
1.03747
1.04104
1.04337
1.04374
1.04247
1.04138
1.03975
1.03869
1.03637
1.03552
1.03347
1.03472
1.0322
1.0343
1.03434
1.03994
1.0496
1.0605
1.08185
0.989056
0.989148
0.989281
0.989294
0.989705
0.99038
0.991694
0.99297
0.9944
0.99537
0.998446
1.00116
1.00447
1.00666
1.01058
1.01419
1.01965
1.02356
1.02766
1.0305
1.0347
1.03809
1.04126
1.04402
1.04554
1.04466
1.04325
1.04065
1.03924
1.03629
1.03501
1.03205
1.03238
1.03005
1.03035
1.02965
1.0314
1.0398
1.04719
1.06972
0.988793
0.988891
0.989095
0.989042
0.989509
0.990181
0.991528
0.992705
0.994621
0.995707
0.998641
1.00115
1.00504
1.00745
1.0113
1.01467
1.01999
1.02433
1.02867
1.03209
1.03605
1.03922
1.04248
1.04509
1.04744
1.04674
1.04584
1.04293
1.04144
1.03761
1.03553
1.03097
1.02988
1.02715
1.02637
1.02641
1.02465
1.03113
1.03299
1.05622
0.988074
0.988275
0.988564
0.988365
0.989009
0.989447
0.991179
0.992041
0.994075
0.995516
0.998252
1.00095
1.00468
1.00771
1.01152
1.01515
1.01995
1.02466
1.02961
1.03317
1.03709
1.04007
1.04361
1.04576
1.04872
1.04823
1.04819
1.04521
1.0437
1.03909
1.03651
1.03101
1.02832
1.02442
1.02152
1.0222
1.01817
1.02453
1.0212
1.0425
0.987769
0.988015
0.988321
0.988067
0.988723
0.989029
0.990757
0.991975
0.994086
0.995465
0.998674
1.00128
1.00509
1.0085
1.01214
1.01603
1.0206
1.02548
1.03097
1.03441
1.03898
1.04183
1.04561
1.04744
1.05067
1.05045
1.05116
1.04845
1.04706
1.04228
1.03925
1.03305
1.02827
1.02354
1.01751
1.0177
1.01138
1.01767
1.01104
1.03027
0.98695
0.986991
0.987463
0.987004
0.987897
0.988001
0.989641
0.991088
0.99331
0.994995
0.99802
1.00079
1.00464
1.00826
1.0123
1.01625
1.02121
1.02547
1.03133
1.03516
1.0404
1.04336
1.04718
1.04864
1.05221
1.05221
1.05319
1.05068
1.04929
1.04489
1.04135
1.03599
1.02914
1.02413
1.01482
1.01371
1.00439
1.00922
1.00117
1.01658
0.986511
0.986603
0.987103
0.98675
0.987597
0.987977
0.989454
0.990516
0.992993
0.995039
0.99801
1.00133
1.00496
1.00873
1.01357
1.01756
1.02291
1.02662
1.03259
1.03649
1.04227
1.04558
1.05001
1.05118
1.05479
1.05492
1.05638
1.05445
1.05302
1.04921
1.04514
1.04037
1.03201
1.02682
1.01566
1.01266
1.0006
1.00219
0.991298
1.00339
0.985272
0.985389
0.985857
0.985327
0.986161
0.986586
0.988154
0.98944
0.991531
0.993872
0.997102
1.00052
1.0046
1.0081
1.01338
1.0175
1.0234
1.02729
1.03351
1.0373
1.04314
1.04649
1.05155
1.05325
1.05677
1.05726
1.05875
1.05739
1.0556
1.05257
1.04756
1.04381
1.03479
1.02949
1.0175
1.01298
0.999204
0.997713
0.983792
0.991485
0.984883
0.984898
0.985472
0.98498
0.985805
0.986273
0.988045
0.98959
0.991682
0.993949
0.99741
1.00047
1.00551
1.00883
1.0144
1.01831
1.02493
1.02901
1.03597
1.03977
1.04585
1.04868
1.05411
1.05625
1.06028
1.06121
1.06261
1.06192
1.06017
1.05815
1.05252
1.0495
1.04034
1.03462
1.02209
1.01603
1.00137
0.997279
0.980859
0.983574
0.983078
0.983218
0.983838
0.983441
0.984257
0.984731
0.986304
0.987874
0.990448
0.992401
0.996494
0.999247
1.00462
1.00832
1.01434
1.01811
1.02519
1.02929
1.03646
1.04062
1.04737
1.05077
1.05593
1.05839
1.06209
1.06384
1.06525
1.06589
1.06353
1.06307
1.05696
1.05381
1.04522
1.03933
1.02675
1.01975
1.00423
0.998183
0.980531
0.978271
0.982462
0.982796
0.983326
0.983147
0.983838
0.984633
0.986317
0.987764
0.990988
0.99271
0.997101
1.00001
1.00556
1.00916
1.01585
1.01956
1.02706
1.03144
1.03871
1.04287
1.0498
1.0539
1.05931
1.06261
1.06588
1.06872
1.06914
1.07144
1.0689
1.06966
1.06418
1.06134
1.05292
1.04733
1.03508
1.02748
1.01196
1.00399
0.985226
0.978497
0.980232
0.980581
0.98098
0.980967
0.98157
0.982427
0.984682
0.985897
0.989586
0.991402
0.996004
0.998998
1.00507
1.0085
1.01562
1.01965
1.02712
1.03186
1.03963
1.04422
1.05069
1.05561
1.06042
1.06531
1.06773
1.07253
1.07239
1.07573
1.07334
1.07429
1.07
1.06803
1.05999
1.05458
1.04287
1.03474
1.01989
1.01036
0.992211
0.981315
0.979408
0.979999
0.980408
0.98045
0.981377
0.981994
0.984665
0.985989
0.989974
0.992002
0.997223
1.00021
1.0067
1.01058
1.01768
1.02208
1.02971
1.03484
1.04186
1.0481
1.05326
1.05984
1.06344
1.06994
1.07141
1.07723
1.07733
1.08181
1.08012
1.08212
1.07813
1.07723
1.07031
1.06545
1.05517
1.04659
1.03274
1.0219
1.00538
0.990365
0.976341
0.976982
0.97751
0.977386
0.97869
0.979128
0.981915
0.983224
0.987754
0.98998
0.995554
0.999025
1.00577
1.01028
1.01757
1.02316
1.02971
1.03692
1.04235
1.0502
1.05445
1.06219
1.06482
1.07256
1.07386
1.08043
1.08072
1.08569
1.08473
1.08757
1.08509
1.08469
1.07958
1.07475
1.06631
1.05746
1.04601
1.03307
1.02066
1.00067
0.975321
0.976255
0.976972
0.976666
0.978273
0.978764
0.982233
0.983637
0.98825
0.99107
0.996463
1.00091
1.00704
1.01345
1.01912
1.02734
1.03255
1.04133
1.04612
1.05518
1.05865
1.06751
1.06955
1.07759
1.07873
1.0858
1.08655
1.09204
1.09214
1.09533
1.09453
1.09449
1.09188
1.08779
1.08213
1.07292
1.06446
1.05048
1.04005
1.02034
0.971261
0.971833
0.973096
0.972568
0.974498
0.974987
0.978458
0.980882
0.984775
0.98931
0.993492
1.00011
1.00469
1.01328
1.01821
1.02758
1.03255
1.04261
1.04702
1.05698
1.0604
1.0697
1.07197
1.08032
1.08222
1.08872
1.09061
1.0956
1.09759
1.10048
1.1021
1.10216
1.1025
1.09809
1.0963
1.08648
1.08199
1.06746
1.06026
1.03905
0.970277
0.970909
0.972204
0.97244
0.973392
0.976045
0.977422
0.982618
0.984815
0.991615
0.994874
1.00307
1.00735
1.0169
1.022
1.03208
1.03739
1.04748
1.05207
1.06238
1.0656
1.07487
1.07801
1.08514
1.08828
1.09403
1.09763
1.10178
1.10588
1.10857
1.11275
1.11276
1.11648
1.11238
1.11443
1.10526
1.10419
1.08984
1.08674
1.06456
0.963651
0.966031
0.965517
0.967968
0.967419
0.971588
0.972414
0.978514
0.980646
0.98811
0.991983
1.00044
1.00603
1.01554
1.02165
1.03219
1.03775
1.04871
1.05354
1.06332
1.06835
1.07589
1.08063
1.08646
1.09125
1.09533
1.1005
1.10375
1.10994
1.11202
1.11932
1.11955
1.12706
1.12377
1.12973
1.12175
1.125
1.11141
1.11158
1.09024
0.961623
0.965317
0.964465
0.967596
0.967258
0.971898
0.973687
0.979561
0.983718
0.990333
0.995844
1.0043
1.01037
1.02047
1.02691
1.03769
1.04424
1.05398
1.06117
1.06891
1.07582
1.08156
1.08822
1.09198
1.09816
1.10066
1.10705
1.1091
1.11658
1.1183
1.12765
1.12834
1.13889
1.13727
1.14737
1.14131
1.14951
1.13874
1.14181
1.12252
0.953544
0.957499
0.95732
0.959915
0.961174
0.964708
0.968205
0.974089
0.978957
0.986658
0.992904
1.00211
1.00953
1.01989
1.02826
1.03785
1.04723
1.05535
1.06457
1.07065
1.07934
1.08335
1.09145
1.09338
1.10067
1.10156
1.10839
1.10956
1.11697
1.11908
1.1289
1.13115
1.14349
1.14431
1.15866
1.1556
1.16867
1.16119
1.16929
1.1529
0.95401
0.956824
0.958267
0.960283
0.962848
0.966647
0.971125
0.976919
0.983684
0.990888
0.999489
1.00763
1.01836
1.02649
1.03847
1.04646
1.05826
1.0648
1.07588
1.08046
1.09064
1.09309
1.10181
1.10256
1.10954
1.10983
1.11539
1.11659
1.12214
1.12479
1.13318
1.13687
1.14951
1.15306
1.16961
1.17074
1.18888
1.18811
1.20179
1.19213
0.942818
0.946265
0.948459
0.950627
0.954752
0.958488
0.965001
0.970687
0.979745
0.986093
0.998247
1.00497
1.01879
1.02598
1.04092
1.04749
1.06199
1.06695
1.08033
1.08344
1.09468
1.09634
1.105
1.10538
1.11149
1.11147
1.11575
1.11687
1.12084
1.12373
1.12955
1.13468
1.14562
1.15247
1.17002
1.17655
1.1992
1.20264
1.22804
1.22353
0.943515
0.945889
0.950353
0.951875
0.957242
0.961215
0.96985
0.975225
0.988229
0.995025
1.00906
1.01736
1.03227
1.04053
1.05613
1.06281
1.07833
1.08298
1.0965
1.09962
1.10997
1.11164
1.11867
1.11923
1.12303
1.12285
1.1245
1.12475
1.12595
1.12825
1.13056
1.13502
1.14116
1.14908
1.16312
1.17404
1.19773
1.20949
1.24169
1.24991
0.928414
0.930822
0.938617
0.940808
0.949151
0.953971
0.964456
0.971632
0.984588
0.993324
1.00877
1.01765
1.03516
1.04318
1.06082
1.06776
1.08371
1.08949
1.10242
1.10633
1.1162
1.11845
1.12416
1.12521
1.12761
1.12707
1.12706
1.12641
1.12519
1.12627
1.12656
1.12899
1.13094
1.13767
1.14342
1.15528
1.17044
1.18823
1.21415
1.23884
0.923807
0.927632
0.935996
0.939798
0.950224
0.956616
0.971205
0.980728
0.998257
1.01027
1.02805
1.04058
1.05759
1.07006
1.08559
1.09664
1.11045
1.11924
1.13008
1.13621
1.14332
1.14686
1.15023
1.15167
1.15185
1.15135
1.149
1.14663
1.14238
1.13911
1.13406
1.13114
1.12627
1.1266
1.12206
1.1287
1.12803
1.14503
1.14986
1.17873
0.906884
0.915831
0.927167
0.9361
0.947272
0.957893
0.971838
0.984399
1.00018
1.01613
1.03348
1.05013
1.06714
1.08296
1.09802
1.112
1.12402
1.13518
1.14365
1.15148
1.15623
1.16102
1.16277
1.16514
1.16429
1.1648
1.16158
1.16023
1.15271
1.14823
1.13676
1.12973
1.11724
1.11034
1.09429
1.09134
1.07435
1.07818
1.05841
1.07492
0.896021
0.907452
0.919627
0.934585
0.950967
0.970299
0.990193
1.0128
1.03268
1.05459
1.07309
1.09273
1.10909
1.12645
1.14039
1.15492
1.16508
1.17581
1.18185
1.18905
1.19068
1.19504
1.19298
1.19552
1.19139
1.1925
1.18786
1.18711
1.18123
1.1787
1.1673
1.15897
1.13955
1.12349
1.09415
1.07483
1.03896
1.01924
0.968535
0.964329
0.89727
0.917853
0.937313
0.957325
0.976246
0.997089
1.01588
1.03807
1.05897
1.08239
1.10363
1.12567
1.1447
1.16342
1.1788
1.1932
1.20409
1.21364
1.21923
1.22448
1.225
1.2269
1.22343
1.22322
1.21798
1.21751
1.2132
1.21435
1.20982
1.2125
1.20176
1.20079
1.17658
1.15676
1.11178
1.07227
1.00652
0.958981
0.868766
0.844618
0.904893
0.939294
0.974112
1.00858
1.04241
1.07646
1.11004
1.14184
1.17227
1.19967
1.22562
1.24753
1.26812
1.28367
1.29856
1.30704
1.31545
1.31596
1.31685
1.30906
1.30201
1.28866
1.27627
1.25722
1.24147
1.22144
1.20743
1.19227
1.1837
1.17753
1.17556
1.1802
1.17156
1.15541
1.10118
1.04748
0.958733
0.896515
0.777225
0.748559
1.04413
1.0804
1.11589
1.1511
1.18522
1.21729
1.24644
1.27196
1.29352
1.30914
1.32386
1.3317
1.3405
1.34422
1.34738
1.34345
1.33685
1.3218
1.30427
1.27768
1.25018
1.21189
1.17368
1.12331
1.07531
1.01507
0.960417
0.896805
0.839357
0.784019
0.725412
0.697442
0.540983
0.0906073
0.0500542
0.159262
0.262014
0.294497
0.333902
0.356882
1.10158
1.12068
1.13889
1.17048
1.29088
1.3324
1.16024
0.863035
0.694452
0.667349
0.694257
0.767532
0.903109
0.955878
0.984333
0.999859
1.00698
1.01296
1.01372
1.01657
1.01566
1.01713
1.01634
1.01732
1.01678
1.01743
1.01642
1.01652
1.01557
1.01558
1.01507
1.01496
1.01447
1.01392
1.01331
1.01282
1.01238
1.01189
1.01212
1.01244
1.10928
1.12924
1.14686
1.19526
1.34291
1.34054
1.11625
0.776098
0.631424
0.629619
0.689053
0.777127
0.903393
0.957195
0.986771
1.00255
1.00882
1.0153
1.01527
1.01833
1.01697
1.01829
1.01723
1.01791
1.01733
1.01801
1.01713
1.01716
1.01621
1.01597
1.01548
1.01537
1.01503
1.01449
1.01393
1.01342
1.01303
1.01265
1.01203
1.00938
1.11204
1.1325
1.15382
1.2199
1.3767
1.34985
1.07649
0.722638
0.59141
0.611711
0.690206
0.798503
0.920117
0.966594
0.994896
1.00823
1.01296
1.01854
1.01754
1.02022
1.01844
1.0194
1.01827
1.01876
1.01814
1.01882
1.01794
1.018
1.01706
1.0166
1.0161
1.01568
1.01547
1.01487
1.01442
1.01391
1.01349
1.01333
1.01329
1.01406
1.11521
1.13636
1.1634
1.24619
1.40587
1.34164
1.01309
0.654721
0.559404
0.615703
0.710057
0.816961
0.928653
0.975632
1.00142
1.01307
1.01647
1.02156
1.01962
1.02226
1.0201
1.02078
1.0195
1.01959
1.01899
1.01953
1.01886
1.01883
1.01815
1.01751
1.0172
1.01652
1.01648
1.01574
1.01534
1.01457
1.01394
1.0136
1.01307
1.01182
1.11912
1.13743
1.1714
1.26115
1.41069
1.34153
0.980714
0.65185
0.581684
0.644532
0.739378
0.847921
0.954079
0.991847
1.01328
1.02144
1.02195
1.02564
1.02238
1.02454
1.02187
1.02216
1.02072
1.0205
1.01969
1.02015
1.01943
1.01951
1.01903
1.01832
1.01813
1.01717
1.0171
1.01621
1.01596
1.01517
1.01469
1.01425
1.01392
1.01361
1.12228
1.1369
1.17912
1.27079
1.39315
1.33972
0.98396
0.689926
0.631932
0.691454
0.771123
0.873714
0.971722
1.01154
1.02535
1.03036
1.02742
1.0299
1.02496
1.02684
1.02366
1.02347
1.02188
1.02117
1.0202
1.02056
1.0198
1.01982
1.01947
1.01865
1.01866
1.0175
1.01752
1.01645
1.01636
1.01539
1.01502
1.01455
1.01441
1.01382
1.12188
1.13351
1.17679
1.26514
1.3556
1.33816
1.03853
0.784431
0.714438
0.740758
0.806116
0.911728
1.00424
1.03805
1.04226
1.0436
1.03511
1.03622
1.02875
1.02997
1.02606
1.02538
1.0237
1.02264
1.02119
1.02145
1.02043
1.0205
1.02006
1.01922
1.01915
1.01804
1.018
1.01707
1.0171
1.01617
1.01595
1.01522
1.01483
1.01376
1.11939
1.12906
1.16942
1.22962
1.30363
1.31193
1.0723
0.864689
0.788311
0.780978
0.833306
0.946496
1.03032
1.07079
1.06101
1.05793
1.04336
1.04314
1.03284
1.03332
1.02883
1.02754
1.02587
1.02469
1.02267
1.0229
1.02148
1.0215
1.02089
1.02024
1.02005
1.01905
1.01881
1.01795
1.01779
1.01683
1.01663
1.01596
1.01585
1.0155
1.10977
1.12028
1.15078
1.17104
1.24823
1.2651
1.07085
0.900911
0.823046
0.808547
0.866794
0.992572
1.07183
1.1078
1.08601
1.07569
1.05414
1.0514
1.03807
1.03715
1.03192
1.02984
1.02811
1.02683
1.02434
1.02463
1.02287
1.02284
1.02191
1.02147
1.02091
1.02019
1.01972
1.019
1.01862
1.0179
1.01753
1.01661
1.01608
1.01509
1.09978
1.10533
1.11759
1.10426
1.16867
1.19514
1.04093
0.908235
0.82827
0.818297
0.893152
1.01825
1.11562
1.15004
1.11635
1.09364
1.06608
1.05937
1.04371
1.04061
1.03493
1.03153
1.02976
1.02821
1.02557
1.02581
1.02362
1.02375
1.0225
1.02232
1.02143
1.02096
1.02012
1.01958
1.01882
1.01841
1.01791
1.01752
1.01706
1.0169
1.08384
1.08846
1.07508
1.04257
1.0844
1.11393
0.995969
0.891113
0.814924
0.819337
0.898039
1.03446
1.17002
1.19635
1.15477
1.11546
1.0804
1.0692
1.05069
1.04467
1.03872
1.03341
1.0317
1.02955
1.02694
1.02698
1.02459
1.02469
1.02306
1.02308
1.02192
1.02177
1.02072
1.02036
1.01929
1.01911
1.01829
1.01798
1.01731
1.01658
1.06812
1.06811
1.02731
0.975058
0.992082
1.01335
0.933756
0.843564
0.790955
0.803397
0.885746
1.03646
1.19874
1.25238
1.19839
1.14047
1.09512
1.08001
1.05812
1.04932
1.04314
1.03606
1.03412
1.03141
1.02856
1.02825
1.02581
1.02575
1.02399
1.024
1.02262
1.02251
1.02124
1.02089
1.0198
1.01965
1.01885
1.01875
1.01813
1.01798
1.04713
1.04215
0.989327
0.913208
0.908535
0.911728
0.861798
0.789538
0.758157
0.770074
0.848497
1.02028
1.21166
1.3022
1.25163
1.17132
1.11181
1.09206
1.06661
1.05511
1.04807
1.03986
1.03722
1.03401
1.03093
1.03022
1.0277
1.02742
1.02556
1.02547
1.02417
1.02391
1.02296
1.02245
1.02135
1.0208
1.01972
1.01943
1.01859
1.01801
1.03139
1.01221
0.95365
0.854565
0.822178
0.813897
0.788947
0.737049
0.707602
0.715269
0.786202
0.974998
1.20727
1.32454
1.30809
1.20505
1.12954
1.10268
1.07536
1.06029
1.05253
1.04352
1.04004
1.03656
1.03337
1.0323
1.02971
1.02928
1.02729
1.02683
1.02566
1.02475
1.02425
1.02334
1.02284
1.02182
1.02107
1.02023
1.01966
1.01922
1.01222
0.983153
0.92937
0.822724
0.760516
0.742455
0.73082
0.691935
0.656165
0.654983
0.72222
0.916331
1.18567
1.31992
1.34657
1.24289
1.14979
1.11224
1.08463
1.06533
1.05623
1.04684
1.04242
1.0385
1.03534
1.0339
1.03123
1.03041
1.02865
1.02764
1.02695
1.02559
1.02527
1.02411
1.02396
1.02263
1.02217
1.02104
1.02049
1.01965
0.996759
0.960992
0.906166
0.810589
0.730156
0.70446
0.697905
0.667507
0.631982
0.632954
0.706204
0.895645
1.17929
1.30951
1.33938
1.27918
1.17034
1.11985
1.09216
1.07063
1.05906
1.0498
1.04431
1.04013
1.03679
1.03474
1.03236
1.03093
1.02944
1.02804
1.02734
1.02598
1.02561
1.02459
1.02443
1.02333
1.023
1.02179
1.02137
1.02086
0.979053
0.94388
0.894363
0.824472
0.744046
0.715995
0.705099
0.689486
0.668129
0.691258
0.783118
0.977546
1.20792
1.27739
1.29879
1.29123
1.18754
1.12786
1.09876
1.07745
1.06296
1.05433
1.04719
1.04301
1.0394
1.03665
1.03467
1.03279
1.03133
1.03001
1.02873
1.02772
1.02672
1.02582
1.02514
1.02424
1.02367
1.02277
1.0222
1.02156
0.967907
0.934981
0.888725
0.837912
0.774387
0.751778
0.751907
0.759916
0.761232
0.815357
0.92805
1.07961
1.23009
1.24537
1.23685
1.24875
1.19804
1.13036
1.10097
1.08285
1.06591
1.05888
1.05078
1.04644
1.04286
1.03985
1.0376
1.03578
1.03379
1.03291
1.03079
1.03025
1.02842
1.02784
1.02642
1.02588
1.02466
1.02404
1.02312
1.02288
0.959235
0.929687
0.889528
0.859654
0.817093
0.799194
0.803197
0.828014
0.854111
0.917374
1.0111
1.10747
1.21497
1.21294
1.17049
1.16621
1.1902
1.12654
1.09688
1.08374
1.06615
1.05981
1.05267
1.04751
1.04492
1.04122
1.03943
1.03746
1.03568
1.03469
1.03307
1.03223
1.03078
1.03007
1.02851
1.02797
1.02634
1.02568
1.02448
1.02403
0.956556
0.932884
0.901471
0.873702
0.850919
0.843589
0.851695
0.879248
0.910152
0.962607
1.03192
1.10779
1.18003
1.17416
1.10818
1.08167
1.14394
1.1174
1.08562
1.07928
1.06285
1.05649
1.05199
1.0468
1.04503
1.04167
1.03989
1.03825
1.03649
1.03535
1.03409
1.03304
1.03214
1.03109
1.03013
1.0289
1.02802
1.02693
1.02599
1.0253
0.958811
0.93638
0.918383
0.899379
0.888304
0.887718
0.89772
0.921867
0.94824
0.987823
1.03925
1.09491
1.13415
1.12761
1.0414
1.00536
1.07165
1.101
1.07249
1.07039
1.06153
1.05296
1.05193
1.04634
1.04493
1.04213
1.04005
1.03893
1.03707
1.03588
1.0349
1.0337
1.03299
1.03187
1.03112
1.02984
1.02902
1.02783
1.0274
1.02672
0.966889
0.949291
0.94294
0.929384
0.923796
0.926156
0.940743
0.963604
0.981336
1.00268
1.04022
1.06901
1.08535
1.07141
0.981804
0.920647
0.993227
1.06331
1.05418
1.05578
1.0583
1.0497
1.05218
1.04708
1.04594
1.0442
1.0417
1.04063
1.03845
1.03754
1.03578
1.03486
1.03374
1.0326
1.03197
1.03049
1.02997
1.02858
1.02815
1.02742
0.980826
0.965912
0.960737
0.965703
0.969281
0.970643
0.985917
1.00862
1.02132
1.02886
1.04648
1.05044
1.04104
1.00667
0.923838
0.831237
0.914513
1.00928
1.02744
1.03385
1.04782
1.0438
1.04782
1.04673
1.04559
1.04573
1.04352
1.04294
1.04129
1.04045
1.03877
1.03745
1.03614
1.03476
1.03364
1.0326
1.03173
1.03068
1.02994
1.0294
0.99357
0.990051
0.990882
0.999335
1.00886
1.01418
1.03354
1.05398
1.0632
1.07208
1.05175
1.03166
0.998896
0.932943
0.848171
0.749544
0.83461
0.953422
0.996072
1.00665
1.02842
1.03092
1.0375
1.04264
1.04227
1.04476
1.04359
1.04334
1.04216
1.04164
1.04091
1.03986
1.03913
1.03771
1.03656
1.03506
1.03378
1.03239
1.03139
1.03086
1.01456
1.01823
1.01858
1.03511
1.05099
1.06244
1.08779
1.10103
1.11536
1.09167
1.05044
0.996505
0.934917
0.843232
0.750627
0.68332
0.772051
0.906444
0.95486
0.9782
1.0041
1.01604
1.02516
1.0345
1.03694
1.04097
1.04154
1.04251
1.04219
1.04187
1.04156
1.04094
1.04045
1.03965
1.03864
1.03742
1.03643
1.03496
1.03429
1.03353
1.03809
1.04542
1.05538
1.08084
1.09449
1.115
1.14247
1.15254
1.15884
1.09796
1.02844
0.937135
0.836638
0.72865
0.642232
0.623982
0.727954
0.860038
0.908215
0.952432
0.980795
1.00015
1.01088
1.02275
1.02836
1.03437
1.03732
1.04014
1.04144
1.0419
1.04209
1.04167
1.04124
1.04052
1.03964
1.03871
1.03758
1.03636
1.03563
1.03512
1.06849
1.08277
1.0937
1.1221
1.14226
1.18381
1.20401
1.22002
1.172
1.08689
0.970549
0.838637
0.704481
0.590917
0.545651
0.580922
0.693105
0.81876
0.874387
0.926187
0.957398
0.980605
0.997732
1.00978
1.02084
1.02753
1.03334
1.03697
1.03952
1.04089
1.04196
1.04241
1.04216
1.04199
1.04154
1.04083
1.03988
1.03921
1.03809
1.03782
1.10022
1.1134
1.14097
1.17373
1.20184
1.2539
1.27096
1.26067
1.17104
1.03005
0.858865
0.683041
0.542316
0.462977
0.485228
0.567002
0.681588
0.787562
0.846172
0.897487
0.933705
0.961652
0.985046
0.998763
1.01412
1.02124
1.02891
1.03331
1.03726
1.03979
1.04148
1.04257
1.04292
1.04259
1.04246
1.04171
1.04097
1.04056
1.03988
1.03969
1.13609
1.15624
1.1905
1.22102
1.2749
1.32178
1.33335
1.27024
1.11937
0.89802
0.66917
0.482615
0.397459
0.420981
0.489517
0.586291
0.695136
0.764123
0.824034
0.878704
0.915972
0.945197
0.972009
0.987325
1.004
1.01323
1.0237
1.02902
1.03477
1.03751
1.04068
1.04226
1.04374
1.04424
1.04396
1.04374
1.04272
1.04239
1.04167
1.04154
1.16852
1.19835
1.23462
1.28207
1.36158
1.39393
1.35692
1.22312
0.958422
0.667367
0.433051
0.361792
0.430199
0.492296
0.548119
0.627368
0.707193
0.764625
0.821961
0.86742
0.903313
0.931974
0.958439
0.976298
0.994042
1.00462
1.01704
1.02206
1.03032
1.03299
1.03816
1.03956
1.04223
1.04256
1.04351
1.04374
1.04383
1.04419
1.04374
1.04454
1.21103
1.25405
1.29588
1.37858
1.4421
1.42289
1.31978
1.0647
0.688921
0.439824
0.446299
0.551254
0.599564
0.607296
0.62418
0.675082
0.731572
0.788142
0.833592
0.865584
0.905602
0.927058
0.95102
0.969144
0.985975
0.99468
1.01001
1.01431
1.02542
1.02807
1.0357
1.03708
1.04178
1.04198
1.04481
1.04504
1.04533
1.04564
1.04463
1.04522
1.2584
1.30907
1.36411
1.46232
1.46803
1.38449
1.12813
0.744079
0.578546
0.673026
0.741008
0.758596
0.727797
0.700651
0.718462
0.750099
0.786545
0.828643
0.861717
0.888024
0.916519
0.935995
0.953468
0.970712
0.985751
0.995174
1.00981
1.01364
1.02581
1.02771
1.03652
1.03762
1.0441
1.04422
1.0493
1.04885
1.05007
1.0502
1.04957
1.05147
1.29167
1.3367
1.4201
1.4347
1.34216
1.03688
0.74939
0.758621
0.834547
0.865847
0.864896
0.822981
0.7879
0.794165
0.817065
0.841311
0.871615
0.893624
0.91709
0.931289
0.949625
0.963111
0.976895
0.989986
1.00081
1.01036
1.0209
1.02627
1.03352
1.03699
1.0422
1.04253
1.04793
1.04577
1.05001
1.04793
1.04921
1.04943
1.05042
1.05246
1.27301
1.31175
1.3192
1.21203
0.868758
0.691331
0.751547
0.817399
0.841067
0.846879
0.824872
0.795796
0.805418
0.826648
0.85227
0.888566
0.923403
0.955159
0.986601
0.996701
1.01261
1.01225
1.01988
1.0252
1.02764
1.03502
1.03835
1.04367
1.04608
1.05038
1.05242
1.05386
1.05643
1.05518
1.05666
1.05551
1.05528
1.05595
1.05734
1.05889
1.18706
1.17236
1.06861
0.723234
0.530141
0.561172
0.615037
0.645338
0.674125
0.699678
0.708753
0.743368
0.781647
0.811188
0.853191
0.893749
0.93642
0.975304
1.00958
1.03462
1.06126
1.06751
1.07385
1.0745
1.06544
1.06852
1.06464
1.06587
1.06665
1.06732
1.06945
1.06962
1.07203
1.07194
1.0741
1.07472
1.07424
1.07395
1.07306
1.07316
1.03185
0.934631
0.691368
0.273455
0.234761
0.283391
0.336809
0.388311
0.457006
0.488898
0.544767
0.615326
0.673977
0.739239
0.811133
0.872246
0.926643
0.975434
1.01342
1.04292
1.07525
1.09245
1.11119
1.12324
1.12681
1.12461
1.12295
1.11779
1.11606
1.11409
1.11308
1.11413
1.11278
1.11236
1.11222
1.11107
1.11027
1.10485
1.09864
1.09579
0.877355
0.749034
0.455752
0.151727
0.129673
0.0860056
0.124103
0.165708
0.204948
0.239692
0.303023
0.380247
0.453369
0.552744
0.665918
0.751979
0.833815
0.914104
0.972074
1.02336
1.06689
1.09615
1.12136
1.14193
1.15628
1.17067
1.17926
1.18198
1.18503
1.18244
1.18221
1.17643
1.18073
1.17325
1.17547
1.16915
1.17081
1.16626
1.16372
1.15763
0.711896
0.570815
0.356366
0.366138
0.424587
0.439821
0.396824
0.342648
0.265364
0.174866
0.127771
0.0508608
0.0958691
0.218323
0.337536
0.461742
0.572868
0.679169
0.79105
0.883679
0.962647
1.03377
1.08358
1.12819
1.15743
1.17689
1.19466
1.2004
1.20847
1.20793
1.21112
1.20621
1.20916
1.20321
1.20543
1.19869
1.20122
1.19878
1.20672
1.20727
0.570015
0.41933
0.281288
0.403652
0.519229
0.551805
0.554292
0.550577
0.544171
0.539779
0.533006
0.526293
0.501442
0.453624
0.451835
0.51122
0.4753
0.346229
0.337271
0.378189
0.456465
0.541695
0.639456
0.732791
0.826261
0.906814
0.970096
1.02442
1.07594
1.11477
1.15524
1.17991
1.20451
1.22496
1.24851
1.263
1.2828
1.28995
1.30225
1.30438
0.371419
0.358863
0.34563
0.374569
0.372548
0.366944
0.369837
0.39288
0.423821
0.465623
0.503783
0.548635
0.583688
0.608482
0.633016
0.645715
0.64009
0.605866
0.58051
0.556696
0.524869
0.479145
0.422544
0.359486
0.14893
0.258251
0.589235
0.624765
0.680045
0.709694
0.759586
0.793866
0.845946
0.885991
0.934935
0.977064
1.0234
1.07442
1.13054
1.19129
1.01782
1.01638
1.01437
1.01168
1.00805
1.00321
0.99752
0.990496
0.985092
0.981507
0.982313
0.986785
0.99598
1.0061
1.01442
1.0159
1.01547
1.01398
1.01281
1.01249
1.01241
1.01219
1.01191
1.01162
1.01131
1.01098
1.01064
1.01027
1.00988
1.00949
1.00909
1.00867
1.00823
1.00777
1.00731
1.00686
1.00639
1.00592
1.00549
1.00523
1.00455
1.0067
1.00867
1.01163
1.0146
1.01865
1.0221
1.02592
1.02715
1.02787
1.02759
1.0252
1.02029
1.01516
1.01301
1.0127
1.0132
1.01398
1.01446
1.01445
1.01426
1.01399
1.01362
1.01312
1.01264
1.01226
1.01184
1.01132
1.01079
1.01029
1.00985
1.0094
1.00892
1.0084
1.00788
1.00735
1.00676
1.00624
1.00588
1.00554
1.01645
1.01473
1.01272
1.01035
1.00752
1.00475
1.00317
1.0037
1.00587
1.00795
1.01038
1.01173
1.01279
1.013
1.01311
1.01352
1.01401
1.01439
1.01455
1.01452
1.01436
1.01414
1.01387
1.01345
1.01295
1.01252
1.01215
1.01172
1.01122
1.0108
1.01036
1.00994
1.00941
1.0089
1.00836
1.00795
1.00742
1.00696
1.00652
1.00624
1.01072
1.01476
1.01678
1.02078
1.02334
1.0265
1.02748
1.02812
1.02818
1.02748
1.02536
1.02235
1.01931
1.01666
1.01547
1.01526
1.01543
1.01541
1.01515
1.01479
1.01455
1.0144
1.01416
1.01378
1.01332
1.01284
1.01237
1.0119
1.01143
1.01103
1.01064
1.01013
1.00956
1.00901
1.00848
1.00806
1.00756
1.00704
1.00668
1.00634
1.0136
1.01177
1.01062
1.00927
1.00864
1.00909
1.01017
1.01146
1.01241
1.01302
1.01343
1.01393
1.01422
1.0143
1.01443
1.01472
1.01501
1.01509
1.01508
1.01491
1.01477
1.0145
1.01426
1.01395
1.01356
1.01317
1.01275
1.0123
1.01181
1.01147
1.01114
1.0107
1.01006
1.00958
1.00912
1.00869
1.00814
1.00767
1.00727
1.00694
1.01465
1.01787
1.01923
1.02189
1.02295
1.02408
1.02441
1.02454
1.02427
1.02339
1.0222
1.0209
1.01964
1.01846
1.01743
1.0168
1.01653
1.01633
1.01599
1.01555
1.01519
1.01493
1.0147
1.01428
1.01381
1.01336
1.01287
1.01246
1.01198
1.01156
1.01117
1.01058
1.01007
1.00964
1.00918
1.00871
1.00818
1.00776
1.00731
1.00697
1.01257
1.01167
1.01146
1.01136
1.01202
1.01287
1.01365
1.01431
1.01452
1.0149
1.01522
1.01572
1.01592
1.01596
1.01587
1.01584
1.0159
1.01603
1.01594
1.01571
1.01532
1.01514
1.01492
1.01467
1.01414
1.01379
1.01333
1.01296
1.01258
1.01228
1.01177
1.01126
1.01067
1.01022
1.0098
1.00938
1.00886
1.00835
1.00791
1.00766
1.01643
1.01851
1.01941
1.02066
1.02124
1.02179
1.02195
1.02193
1.0216
1.02109
1.02052
1.01997
1.0194
1.01874
1.01815
1.01775
1.01753
1.01725
1.01671
1.01625
1.016
1.01568
1.01528
1.01484
1.01445
1.01398
1.01348
1.01308
1.01268
1.01234
1.01183
1.01133
1.01076
1.01025
1.00986
1.00943
1.0089
1.00842
1.00806
1.00776
1.014
1.01425
1.0144
1.01489
1.01525
1.0157
1.01588
1.01612
1.01631
1.01667
1.01698
1.0172
1.0172
1.01714
1.01704
1.01715
1.01726
1.01722
1.01685
1.01654
1.01626
1.01614
1.01584
1.01552
1.01514
1.01473
1.01417
1.0138
1.01355
1.01311
1.01256
1.0121
1.01153
1.01108
1.01064
1.01015
1.00958
1.00916
1.00884
1.00842
1.01742
1.0188
1.01932
1.01997
1.02023
1.02056
1.02051
1.02056
1.02034
1.02038
1.02019
1.02002
1.01942
1.01899
1.01871
1.01864
1.01852
1.01806
1.01751
1.01721
1.01692
1.01642
1.01607
1.0158
1.01537
1.01487
1.01444
1.01403
1.01373
1.01332
1.01277
1.01221
1.01157