/*--------------------------------*- C++ -*----------------------------------*\
  =========                 |
  \\      /  F ield         | OpenFOAM: The Open Source CFD Toolbox
   \\    /   O peration     | Website:  https://openfoam.org
    \\  /    A nd           | Version:  11
     \\/     M anipulation  |
\*---------------------------------------------------------------------------*/
FoamFile
{
    format      ascii;
    class       surfaceScalarField;
    location    "8";
    object      phi;
}
// * * * * * * * * * * * * * * * * * * * * * * * * * * * * * * * * * * * * * //

dimensions      [0 3 -1 0 0 0 0];

internalField   nonuniform List<scalar> 
18960
(
0.0886737
0.000459416
-0.0891331
0.0882522
0.00042149
0.08787
0.000382253
0.0875163
0.000353701
0.0871858
0.000330456
0.0869192
0.000266568
0.0867052
0.000214086
0.0865264
0.000178811
0.0863881
0.000138281
0.0863069
8.11493e-05
0.0862709
3.60216e-05
0.0862819
-1.10058e-05
0.0863118
-2.98619e-05
0.0864071
-9.53558e-05
0.0865513
-0.000144225
0.0867552
-0.000203814
0.0870079
-0.000252751
0.0872625
-0.000254578
0.0874578
-0.000195351
0.0876844
-0.000226584
0.0879756
-0.000291143
0.0882487
-0.000273089
0.088378
-0.000129365
0.0884033
-2.52601e-05
0.0882749
0.000128409
0.0876973
0.000577544
0.0864964
0.00120089
0.0852668
0.00122963
0.0845296
0.000737241
0.0844159
0.000113611
0.0848297
-0.000413789
0.0859807
-0.00115092
0.0875167
-0.00153608
0.0893243
-0.00180755
0.0911
-0.0017757
0.0930725
-0.00197252
0.0947126
-0.00164009
0.0961573
-0.00144472
0.0965106
-0.000353295
-0.000688087
0.0971987
0.0887855
0.000791372
-0.0891175
0.0884779
0.000729106
0.0881699
0.000690261
0.0878794
0.000644237
0.0876429
0.000566966
0.0874135
0.000495911
0.0872154
0.000412161
0.0870854
0.000308883
0.086984
0.000239607
0.0868974
0.000167742
0.0869007
3.27858e-05
0.0869646
-7.49141e-05
0.0870938
-0.000159114
0.0872282
-0.000229731
0.0874032
-0.000319188
0.0876571
-0.000457708
0.0879422
-0.000537845
0.0882744
-0.000586835
0.088603
-0.000523915
0.0888764
-0.000499992
0.0890587
-0.000473396
0.0891916
-0.000406081
0.0894075
-0.000345212
0.0896615
-0.000279311
0.0898127
-2.27594e-05
0.0898771
0.000513133
0.0899779
0.00110017
0.0900427
0.00116475
0.089919
0.000860948
0.0897028
0.000329791
0.0896618
-0.000372743
0.0899009
-0.00139006
0.0904533
-0.00208843
0.0915221
-0.00287632
0.0927888
-0.00304247
0.094243
-0.00342666
0.0957566
-0.00315369
0.097409
-0.00309714
0.0988716
-0.00181589
-0.00147615
0.0996596
0.0888041
0.00112089
-0.0891337
0.0884695
0.00106373
0.0881489
0.00101083
0.0878695
0.00092369
0.0876059
0.000830572
0.0873688
0.000733048
0.0871861
0.000594828
0.0870687
0.00042624
0.0869877
0.000320623
0.0869519
0.00020351
0.0869675
1.72307e-05
0.0870675
-0.000174956
0.0871916
-0.000283207
0.0873599
-0.000397994
0.0875337
-0.000492952
0.0877501
-0.000674115
0.0880513
-0.000839107
0.0883806
-0.000916096
0.0886623
-0.000805596
0.0888416
-0.000679315
0.0889442
-0.000575988
0.0891421
-0.000604006
0.0894729
-0.000675955
0.0898376
-0.000644017
0.0901289
-0.000314131
0.0903068
0.000335287
0.0903666
0.00104036
0.090249
0.00128238
0.0899073
0.00120259
0.089521
0.000716061
0.0892774
-0.000129105
0.0894377
-0.00155037
0.0899059
-0.0025566
0.0908175
-0.00378795
0.0919077
-0.00413263
0.0932185
-0.00473751
0.0945292
-0.00446437
0.0959102
-0.00447807
0.0975966
-0.00350228
-0.00264087
0.0987613
0.0887287
0.00147483
-0.0890826
0.0884326
0.00135979
0.0881284
0.00131503
0.087867
0.00118513
0.0876265
0.00107102
0.0874476
0.000911936
0.0872972
0.000745227
0.0871802
0.000543298
0.0870942
0.000406645
0.0870932
0.000204504
0.087088
2.23942e-05
0.0871316
-0.000218515
0.087257
-0.000408643
0.087431
-0.000571979
0.0876044
-0.000666406
0.0877831
-0.000852755
0.0880262
-0.00108223
0.0883477
-0.00123762
0.0886851
-0.00114297
0.088897
-0.000891242
0.0890761
-0.000755085
0.0892468
-0.000774706
0.0894337
-0.000862888
0.0896716
-0.000881917
0.0899712
-0.000613672
0.090242
6.44621e-05
0.0904052
0.000877198
0.0905142
0.00117335
0.090637
0.00107975
0.0907247
0.000628407
0.0907261
-0.000130517
0.0908456
-0.00166985
0.0911193
-0.00283036
0.0917374
-0.00440596
0.0925826
-0.00497792
0.093761
-0.0059159
0.0950983
-0.00580167
0.0965314
-0.00591113
0.0984348
-0.00540566
-0.00392449
0.0997184
0.0887264
0.00180609
-0.0890577
0.0884104
0.00167577
0.0881256
0.00159984
0.0878672
0.00144351
0.0876376
0.00130068
0.0874675
0.00108199
0.0873119
0.000900818
0.0872269
0.000628309
0.0871514
0.000482202
0.0871195
0.000236397
0.0871465
-4.62228e-06
0.0872015
-0.00027354
0.0873113
-0.000518482
0.0874609
-0.000721527
0.0876723
-0.000877825
0.0879123
-0.00109273
0.0881379
-0.00130783
0.0883458
-0.0014455
0.0885763
-0.00137348
0.0889078
-0.00122272
0.089209
-0.00105627
0.0894374
-0.00100319
0.0895067
-0.000932197
0.0895375
-0.000912679
0.0896934
-0.000769553
0.0900418
-0.00028394
0.0904723
0.00044665
0.0908326
0.000813066
0.0911476
0.000764801
0.0912725
0.000503513
0.0911779
-3.59274e-05
0.0908786
-0.0013706
0.0907806
-0.00273231
0.0909971
-0.00462252
0.0915743
-0.00555506
0.0924187
-0.00676035
0.093644
-0.00702698
0.0947586
-0.00702564
0.0964109
-0.00705805
-0.00556104
0.0980475
0.0886989
0.00213543
-0.0890282
0.0884085
0.00196609
0.0881446
0.00186379
0.0879025
0.00168562
0.0876787
0.0015245
0.0875078
0.00125287
0.0873709
0.00103768
0.087277
0.000722236
0.0872176
0.000541555
0.0872219
0.000232164
0.0872307
-1.34075e-05
0.0872906
-0.00033351
0.0874068
-0.00063462
0.0875841
-0.000898885
0.0877693
-0.00106298
0.0879465
-0.00126997
0.088125
-0.00148629
0.0883728
-0.0016933
0.0886935
-0.00169421
0.0889839
-0.00151308
0.0892085
-0.00128086
0.0893598
-0.00115457
0.0894867
-0.0010591
0.0896205
-0.0010464
0.089809
-0.000958054
0.0901034
-0.000578368
0.0904066
0.000143476
0.0906901
0.000529488
0.0909264
0.000528536
0.0911382
0.000291717
0.0912486
-0.000146346
0.0912681
-0.00139008
0.0912945
-0.00275867
0.0914705
-0.00479851
0.0919411
-0.00602567
0.092647
-0.00746632
0.0938837
-0.00826368
0.0951
-0.00824194
0.0968992
-0.00885719
-0.00720131
0.0985395
0.0886905
0.00245864
-0.0890137
0.0884078
0.00224874
0.0881559
0.00211568
0.0879349
0.00190665
0.0877221
0.00173734
0.0875636
0.00141139
0.0874327
0.00116857
0.0873251
0.000829766
0.0872883
0.000578407
0.0873027
0.000217787
0.0873016
-1.23554e-05
0.0873462
-0.000378077
0.087463
-0.000751454
0.0876569
-0.00109281
0.0878628
-0.00126879
0.088004
-0.00141123
0.0881906
-0.00167285
0.0884375
-0.00194024
0.0887253
-0.00198199
0.0890079
-0.00179569
0.0892492
-0.00152216
0.0894379
-0.00134331
0.089589
-0.00121013
0.0896863
-0.00114369
0.0898191
-0.00109092
0.0900224
-0.000781686
0.0903032
-0.000137308
0.0906052
0.000227458
0.0908697
0.000264054
0.0911309
3.05777e-05
0.0913295
-0.000344958
0.0912319
-0.00129245
0.0910678
-0.00259464
0.0909531
-0.00468377
0.0911624
-0.00623503
0.0915415
-0.00784542
0.0924843
-0.00920639
0.093574
-0.00933168
0.0950322
-0.0103154
-0.00881982
0.0966507
0.0886753
0.00276562
-0.0889822
0.0884124
0.00251157
0.0881753
0.00235285
0.0879513
0.00213064
0.0877579
0.00193069
0.0876066
0.00156275
0.087476
0.0012991
0.087401
0.000904827
0.0873618
0.000617613
0.0873313
0.000248277
0.0873768
-5.78926e-05
0.0874599
-0.000461188
0.0875821
-0.000873596
0.0877177
-0.00122844
0.0878959
-0.00144702
0.0881082
-0.00162353
0.0882944
-0.00185909
0.0884731
-0.00211885
0.0887189
-0.00222787
0.0889874
-0.00206419
0.0892957
-0.00183044
0.0895388
-0.00158642
0.089699
-0.0013703
0.0897651
-0.00120975
0.0898537
-0.00117956
0.0900522
-0.000980196
0.0903618
-0.00044689
0.0906144
-2.51909e-05
0.0908195
5.89704e-05
0.0909801
-0.000130017
0.0911071
-0.000471922
0.0910529
-0.00123832
0.09092
-0.00246166
0.0908229
-0.00458671
0.0910088
-0.00642095
0.09134
-0.00817656
0.0921916
-0.0100581
0.0932354
-0.0103755
0.0949492
-0.0120292
-0.0104849
0.0966143
0.0886897
0.00306583
-0.08899
0.0884202
0.00278111
0.0881912
0.00258189
0.0879858
0.00233603
0.0878326
0.0020839
0.0876757
0.00171966
0.0875754
0.00139935
0.087497
0.000983272
0.0874455
0.00066908
0.0874658
0.000227994
0.0875129
-0.000105044
0.0875603
-0.000508558
0.0876477
-0.000960953
0.0878025
-0.00138328
0.0880079
-0.00165239
0.0882043
-0.00181999
0.0883724
-0.00202717
0.0885242
-0.00227066
0.0887523
-0.00245591
0.0890556
-0.00236752
0.0893352
-0.0021101
0.0895966
-0.00184774
0.0897915
-0.00156522
0.0899012
-0.00131944
0.0899899
-0.00126825
0.0901339
-0.00112424
0.0903536
-0.000666572
0.0905811
-0.000252717
0.0907734
-0.000133322
0.0909402
-0.000296855
0.0910606
-0.000592232
0.0910347
-0.00121242
0.0908169
-0.00224395
0.0903746
-0.00414442
0.090276
-0.00632234
0.0901985
-0.00809897
0.0907009
-0.0105604
0.0914113
-0.0110859
0.0928644
-0.0134823
-0.0121942
0.0945737
0.0886501
0.00335079
-0.0889351
0.0884231
0.00300809
0.0882076
0.00279746
0.0880098
0.00253381
0.0878381
0.00225564
0.0877182
0.0018395
0.0876109
0.00150663
0.0875283
0.00106592
0.0874927
0.000704719
0.0875084
0.000212257
0.0875539
-0.000150576
0.0876337
-0.000588297
0.0877341
-0.00106142
0.0878679
-0.00151701
0.0880332
-0.00181771
0.0882527
-0.00203948
0.0884514
-0.00222585
0.0886319
-0.0024512
0.0888384
-0.00266241
0.089067
-0.00259617
0.089345
-0.00238806
0.0896345
-0.00213726
0.0898826
-0.00181331
0.0900431
-0.00147991
0.0901087
-0.0013339
0.0901857
-0.00120125
0.0903605
-0.000841341
0.0905636
-0.00045583
0.0907222
-0.000291844
0.090847
-0.000421672
0.09095
-0.000695226
0.0909723
-0.00123474
0.0907705
-0.00204221
0.090244
-0.00361792
0.0899357
-0.00601397
0.089671
-0.00783427
0.0899542
-0.0108436
0.0904632
-0.0115949
0.0916652
-0.0146844
-0.0140123
0.0934833
0.088698
0.00362785
-0.088975
0.088448
0.00325807
0.0882414
0.00300408
0.0880763
0.00269885
0.0879202
0.00241176
0.0877971
0.00196263
0.0877021
0.0016016
0.0876426
0.00112547
0.0876161
0.000731188
0.0876142
0.000214106
0.0876725
-0.000208857
0.0877744
-0.000690201
0.0878438
-0.0011308
0.0879546
-0.00162781
0.0881152
-0.00197836
0.0883405
-0.00226473
0.0885608
-0.00244618
0.0887253
-0.00261569
0.0888905
-0.00282758
0.0891168
-0.00282255
0.0893873
-0.00265852
0.0896961
-0.0024461
0.0899843
-0.0021015
0.0901921
-0.00168772
0.090269
-0.00141071
0.0903238
-0.00125606
0.0904586
-0.000976185
0.0906478
-0.000645011
0.0907851
-0.000429123
0.0908407
-0.000477335
0.0909234
-0.000777901
0.0909407
-0.00125202
0.0908717
-0.00197326
0.0903371
-0.00308331
0.0897194
-0.00539625
0.0890355
-0.00715033
0.0886912
-0.0104994
0.0887695
-0.0116732
0.0892759
-0.0151908
-0.0154527
0.0907163
0.0886588
0.0038953
-0.0889262
0.0884524
0.00346445
0.0882444
0.00321206
0.0880796
0.00286361
0.087931
0.00256039
0.0878255
0.00206816
0.0877448
0.00168231
0.0876964
0.00117383
0.0876514
0.000776153
0.0876659
0.0001997
0.0877087
-0.000251721
0.0878159
-0.000797356
0.087898
-0.00121292
0.0880254
-0.00175524
0.088165
-0.00211789
0.0883855
-0.00248526
0.0886265
-0.00268719
0.0888152
-0.00280433
0.0889945
-0.00300688
0.0891816
-0.00300974
0.0894437
-0.00292053
0.0896993
-0.00270173
0.0899894
-0.00239166
0.0902678
-0.00196607
0.0904273
-0.00157024
0.0905103
-0.001339
0.0905979
-0.00106385
0.0907086
-0.00075571
0.0908171
-0.000537634
0.0908615
-0.000521705
0.0908689
-0.000785244
0.0908489
-0.00123209
0.0908006
-0.00192488
0.0904479
-0.0027307
0.0897429
-0.00469126
0.0889404
-0.00634777
0.0881504
-0.00970939
0.0878393
-0.0113621
0.0877795
-0.015131
-0.0166349
0.0889617
0.0887347
0.00413605
-0.0889755
0.0885007
0.00369851
0.0883114
0.00340138
0.0881563
0.00301864
0.0880254
0.00269132
0.0879128
0.00218077
0.0878239
0.00177115
0.0878048
0.001193
0.0877726
0.000808349
0.0877908
0.000181506
0.0878292
-0.00029018
0.0879356
-0.000903683
0.0880397
-0.0013171
0.0881534
-0.00186887
0.0882956
-0.00226014
0.0884727
-0.00266236
0.0887004
-0.00291489
0.0889157
-0.00301961
0.0890952
-0.00318635
0.0893126
-0.00322716
0.0895346
-0.00314259
0.0898008
-0.00296793
0.0900801
-0.00267088
0.0903774
-0.00226345
0.090614
-0.0018068
0.090726
-0.00145097
0.0908334
-0.00117133
0.0909207
-0.000843006
0.0910183
-0.000635232
0.0910141
-0.000517519
0.0909639
-0.000735044
0.0908264
-0.00109451
0.0907369
-0.00183538
0.0904878
-0.00248162
0.0899095
-0.00411301
0.0890915
-0.00552973
0.0879023
-0.00852015
0.0870315
-0.0104913
0.0861646
-0.0142641
-0.0169014
0.0864311
0.0886931
0.00436808
-0.0889251
0.0884933
0.00389826
0.0883149
0.00357977
0.0881588
0.00317478
0.0880354
0.0028147
0.0879438
0.00227242
0.0878655
0.00184941
0.0878363
0.00122219
0.0878303
0.000814367
0.0878414
0.000170449
0.0878889
-0.00033771
0.0879894
-0.00100421
0.0880999
-0.00142762
0.088235
-0.00200394
0.0883837
-0.00240884
0.0885422
-0.00282084
0.0887643
-0.003137
0.0889964
-0.00325175
0.0892163
-0.00340625
0.0894008
-0.0034116
0.089614
-0.00335586
0.0898391
-0.00319303
0.0901291
-0.00296085
0.0904139
-0.00254821
0.0907084
-0.00210134
0.0908909
-0.00163347
0.0910389
-0.00131935
0.0911408
-0.000944835
0.0912356
-0.000730018
0.0912019
-0.000483844
0.091159
-0.000692175
0.0909199
-0.000855366
0.0907137
-0.00162916
0.0904216
-0.00218958
0.089896
-0.00358741
0.0892243
-0.00485805
0.08801
-0.00730585
0.0869502
-0.00943147
0.0855803
-0.0128943
-0.0163161
0.084995
0.0887802
0.00460496
-0.0890171
0.0885738
0.00410473
0.0883979
0.00375562
0.0882578
0.00331487
0.0881286
0.00294389
0.0880424
0.0023587
0.0879553
0.00193646
0.0879449
0.00123262
0.0879471
0.000812115
0.0879801
0.000137523
0.088044
-0.000401655
0.0881145
-0.0010747
0.0882654
-0.00157849
0.08837
-0.00210859
0.0885074
-0.00254621
0.0886619
-0.00297534
0.0888625
-0.00333756
0.0891167
-0.00350597
0.0893202
-0.0036098
0.0895354
-0.00362674
0.0897531
-0.0035736
0.0899922
-0.00343209
0.0902653
-0.00323399
0.0905378
-0.00282066
0.0908481
-0.00241169
0.0910891
-0.0018745
0.0913151
-0.00154528
0.0914284
-0.00105815
0.091573
-0.000874629
0.0915539
-0.000464787
0.091517
-0.000655272
0.0912236
-0.00056197
0.0909151
-0.00132064
0.0905437
-0.00181817
0.0899552
-0.00299886
0.0893758
-0.0042787
0.0882546
-0.00618466
0.0870505
-0.00822738
0.085451
-0.0112948
-0.0148692
0.0840041
0.0887418
0.00480823
-0.0889451
0.0885598
0.00428681
0.0884002
0.00391522
0.0882521
0.00346293
0.0881288
0.00306724
0.0880375
0.00244993
0.0879893
0.00198463
0.0879788
0.00124319
0.0879959
0.000794946
0.0880299
0.000103605
0.0880936
-0.000465418
0.0881742
-0.00115531
0.0883124
-0.00171669
0.0884335
-0.00222963
0.0885965
-0.00270929
0.088748
-0.00312684
0.0889339
-0.00352341
0.0891552
-0.00372727
0.0894003
-0.00385491
0.0896289
-0.00385535
0.0898861
-0.00383081
0.0900856
-0.00363156
0.0903454
-0.00349383
0.0906178
-0.003093
0.0909609
-0.00275481
0.0912226
-0.00213617
0.0914781
-0.00180083
0.0916477
-0.00122771
0.0918283
-0.00105523
0.091873
-0.000509466
0.0918761
-0.000658425
0.0916901
-0.00037601
0.0913179
-0.000948398
0.0908823
-0.00138252
0.0901387
-0.00225528
0.0894087
-0.00354872
0.088325
-0.00510093
0.0871647
-0.00706707
0.0855763
-0.00970638
-0.0131915
0.0838986
0.0888433
0.00503606
-0.0890711
0.0886551
0.004475
0.0884938
0.00407647
0.0883641
0.00359265
0.0882573
0.00317402
0.0881765
0.00253081
0.0881225
0.00203862
0.0880976
0.00126804
0.0881534
0.000739141
0.0881623
9.47679e-05
0.088268
-0.000571136
0.0883392
-0.0012265
0.0884695
-0.00184701
0.0886099
-0.00237006
0.0887803
-0.00287968
0.0889363
-0.00328281
0.0891024
-0.00368956
0.089286
-0.00391084
0.0895116
-0.00408052
0.0897548
-0.00409853
0.0900406
-0.00411665
0.0902801
-0.00387103
0.090548
-0.00376175
0.0907829
-0.00332786
0.0911229
-0.00309478
0.0914248
-0.00243816
0.0917605
-0.00213647
0.0919755
-0.00144267
0.0922084
-0.00128814
0.0923138
-0.000614911
0.0923578
-0.000702385
0.0922696
-0.000287818
0.0918942
-0.000572989
0.0915031
-0.000991489
0.0907567
-0.00150882
0.089938
-0.00273005
0.0887669
-0.00392985
0.0874591
-0.00575922
0.0857304
-0.00797767
-0.011361
0.0838999
0.0887859
0.00522264
-0.0889725
0.0886136
0.00464728
0.0884607
0.00422943
0.0883353
0.00371797
0.0882423
0.00326709
0.0881742
0.00259894
0.0881435
0.00206923
0.0881026
0.00130903
0.0881595
0.000682163
0.0882064
4.79329e-05
0.0883153
-0.00068003
0.0883956
-0.00130687
0.0885142
-0.00196555
0.0886625
-0.00251841
0.0888488
-0.00306598
0.0890168
-0.00345077
0.0891962
-0.00386897
0.089387
-0.00410164
0.0896277
-0.00432123
0.08982
-0.00429084
0.0901172
-0.00441387
0.0903752
-0.004129
0.0906719
-0.00405849
0.0909346
-0.00359051
0.0912728
-0.00343298
0.0915853
-0.0027507
0.09195
-0.0025012
0.092231
-0.00172368
0.0924905
-0.00154758
0.0926834
-0.00080784
0.0927292
-0.000748152
0.0927942
-0.000352838
0.0925043
-0.000283049
0.0921931
-0.000680355
0.0915576
-0.000873284
0.0907172
-0.00188966
0.0895445
-0.00275713
0.0881868
-0.00440149
0.0863386
-0.00612955
-0.00941772
0.0843954
0.0889391
0.00542346
-0.0891399
0.0887588
0.0048276
0.0886098
0.00437836
0.0884994
0.00382846
0.0884018
0.00336466
0.0883392
0.00266156
0.0883435
0.00206486
0.0882874
0.00136522
0.0883514
0.000618118
0.0884035
-4.20253e-06
0.0884904
-0.000766883
0.088581
-0.00139743
0.0887257
-0.00211034
0.0888513
-0.00264397
0.0890187
-0.0032334
0.0891958
-0.00362789
0.089401
-0.00407415
0.0895848
-0.00428541
0.0898406
-0.00457703
0.090046
-0.00449622
0.0902837
-0.00465157
0.0905319
-0.00437722
0.090855
-0.00438162
0.0911646
-0.00390012
0.0915187
-0.00378703
0.091861
-0.00309306
0.0922439
-0.00288407
0.0925806
-0.00206038
0.0928933
-0.00186024
0.093209
-0.00112352
0.0932853
-0.000824464
0.0934619
-0.000529428
0.0933182
-0.000139419
0.0930477
-0.000409772
0.0925249
-0.000350519
0.0917958
-0.00116056
0.0906903
-0.00165161
0.0894076
-0.00311883
0.0875471
-0.00426906
-0.00737281
0.0855022
0.0888259
0.00561504
-0.0890175
0.088691
0.00496245
0.088554
0.00451537
0.0884619
0.00392054
0.0884122
0.00341436
0.0883251
0.00274865
0.0883458
0.00204415
0.0883252
0.00138586
0.088385
0.000558318
0.0884399
-5.91115e-05
0.0885342
-0.000861215
0.0886403
-0.00150351
0.0887733
-0.00224334
0.0889212
-0.00279188
0.0891036
-0.00341575
0.0892626
-0.00378687
0.0894863
-0.00429787
0.0896484
-0.00444747
0.0899192
-0.00484787
0.0901485
-0.00472553
0.0904365
-0.00493955
0.0906765
-0.00461718
0.0909942
-0.00469938
0.0912885
-0.00419438
0.0916567
-0.00415525
0.0920446
-0.00348098
0.0924534
-0.00329288
0.0929144
-0.00252134
0.0932273
-0.00217313
0.0936726
-0.0015688
0.0938281
-0.000979974
0.0940419
-0.000743286
0.0940921
-0.000189564
0.0939428
-0.000260507
0.0935887
3.59639e-06
0.0929839
-0.000555799
0.0920005
-0.000668179
0.0908552
-0.00197355
0.0891242
-0.00253801
-0.00537124
0.0871226
0.0890363
0.00578266
-0.0892039
0.0888828
0.00511591
0.0887664
0.0046318
0.0886634
0.00402357
0.088628
0.0034497
0.0885646
0.00281211
0.0885781
0.00203063
0.0885872
0.00137671
0.0886227
0.000522876
0.0887016
-0.000138016
0.0887769
-0.000936489
0.0888887
-0.00161529
0.089017
-0.00237172
0.0891564
-0.00293128
0.0893372
-0.00359656
0.0894959
-0.00394551
0.0897165
-0.00451853
0.0898974
-0.00462836
0.0901125
-0.00506299
0.0903571
-0.00497005
0.0906278
-0.00521033
0.0909201
-0.00490946
0.0912364
-0.00501567
0.0915714
-0.00452935
0.0919136
-0.00449751
0.0923486
-0.00391598
0.0927182
-0.00366242
0.0933019
-0.00310512
0.0936508
-0.00252202
0.0941932
-0.00211118
0.0945379
-0.00132461
0.0948248
-0.00103018
0.0949887
-0.00035354
0.0950215
-0.000293249
0.0948209
0.000204212
0.094454
-0.000188927
0.0936827
0.00010312
0.0926824
-0.000973288
0.0911573
-0.0010129
-0.0034851
0.0892712
0.088916
0.00593292
-0.0890663
0.0887857
0.00524622
0.0887044
0.00471315
0.0886117
0.00411624
0.0885986
0.00346276
0.0885733
0.0028375
0.0885941
0.0020098
0.0886365
0.00133428
0.0886789
0.000480506
0.0887684
-0.000227572
0.0888692
-0.00103725
0.0889619
-0.00170796
0.0891248
-0.00253466
0.0892352
-0.00304166
0.0894367
-0.00379809
0.0895833
-0.00409213
0.0897891
-0.00472428
0.0899884
-0.00482769
0.0902227
-0.00529729
0.090438
-0.00518538
0.090724
-0.00549633
0.0910085
-0.00519391
0.0913219
-0.00532909
0.0917299
-0.00493731
0.0920752
-0.00484286
0.092604
-0.00444479
0.0929725
-0.00403095
0.0935709
-0.00370343
0.0940589
-0.00301008
0.0946116
-0.00266383
0.0951203
-0.0018333
0.0955629
-0.0014728
0.0958735
-0.000664106
0.0960922
-0.000511963
0.0960485
0.000247841
0.0959027
-4.30424e-05
0.0954181
0.000587655
0.0947028
-0.00025796
0.0935159
0.000174024
-0.00172183
0.0917526
0.0891758
0.00608164
-0.0893246
0.0890423
0.00537979
0.0889771
0.00477832
0.0889058
0.00418748
0.0888834
0.00348517
0.0888927
0.00282828
0.088912
0.00199044
0.0889632
0.00128312
0.0890189
0.000424831
0.0890844
-0.000293134
0.089217
-0.00116987
0.0893092
-0.00180008
0.0894608
-0.00268627
0.0895774
-0.00315829
0.0897429
-0.00396362
0.0899125
-0.00426174
0.0900899
-0.00490168
0.0902824
-0.00502015
0.0904826
-0.0054975
0.0907289
-0.00543166
0.0909454
-0.00571282
0.091298
-0.00554652
0.0915373
-0.00556838
0.091999
-0.00539901
0.0922856
-0.00512951
0.0928569
-0.0050161
0.0933192
-0.00449318
0.0939219
-0.00430616
0.0945204
-0.00360854
0.0951456
-0.00328911
0.095773
-0.00246064
0.0963867
-0.00208655
0.0968668
-0.00114423
0.0973014
-0.000946487
0.0975029
4.6302e-05
0.0975728
-0.000112979
0.0973468
0.00081367
0.0969308
0.000158096
0.0961368
0.000967974
-0.000371406
0.0947864
0.0890366
0.00617869
-0.0891336
0.0889292
0.00548722
0.0888889
0.00481854
0.0888525
0.00422394
0.0888459
0.00349175
0.0888623
0.00281185
0.0888931
0.0019597
0.088952
0.0012242
0.0890582
0.000318656
0.0891455
-0.000380465
0.0893009
-0.00132524
0.0894036
-0.00190281
0.0895742
-0.00285687
0.0897119
-0.00329593
0.0898919
-0.00414362
0.0900607
-0.00443059
0.0902256
-0.00506656
0.0904364
-0.00523101
0.0905981
-0.00565911
0.0908742
-0.00570783
0.091043
-0.00588164
0.0914155
-0.005919
0.09163
-0.0057829
0.0921113
-0.00588028
0.092477
-0.00549519
0.0929865
-0.00552562
0.0935237
-0.00503039
0.0941558
-0.00493827
0.0948239
-0.00427666
0.0955757
-0.00404084
0.0963023
-0.00318723
0.0970833
-0.00286758
0.0977692
-0.00183012
0.0983931
-0.00157044
0.0988726
-0.000433151
0.0992195
-0.000459889
0.0993195
0.000713686
0.0992189
0.000258711
0.0988549
0.00133198
0.000525306
0.0979581
0.0893927
0.0062895
-0.0895035
0.0892994
0.00558051
0.0892576
0.00486035
0.0892428
0.0042387
0.0892532
0.00348137
0.0892837
0.00278131
0.0893365
0.00190696
0.0893834
0.00117727
0.0895037
0.000198382
0.0895583
-0.000435138
0.0897181
-0.00148505
0.0898212
-0.00200586
0.0899704
-0.00300608
0.0901391
-0.0034646
0.0902682
-0.00427279
0.0904965
-0.0046589
0.0906083
-0.00517834
0.0908599
-0.00548263
0.0909481
-0.00574731
0.0912778
-0.00603746
0.0913874
-0.00599124
0.091749
-0.0062806
0.0919942
-0.00602813
0.0923613
-0.00624738
0.0927568
-0.00589061
0.0932614
-0.00603023
0.0938116
-0.00558062
0.0944658
-0.00559244
0.0951894
-0.00500025
0.0960092
-0.00486067
0.096869
-0.00404709
0.0977839
-0.00378248
0.0986825
-0.00272866
0.0995619
-0.00244984
0.100335
-0.0012066
0.100949
-0.00107378
0.101424
0.00023842
0.10163
5.31375e-05
0.101674
0.00128765
0.000926927
0.101273
0.0892146
0.00634441
-0.0892696
0.0891617
0.00563343
0.0891568
0.00486524
0.0891476
0.00424794
0.0891935
0.00343546
0.0892313
0.00274352
0.0893488
0.00178944
0.0894017
0.00112442
0.0895429
5.71988e-05
0.0896462
-0.000538528
0.0897681
-0.00160694
0.0899611
-0.00219879
0.0900466
-0.00309161
0.0902838
-0.00370178
0.0903562
-0.00434523
0.0906261
-0.00492876
0.0906956
-0.00524787
0.0910023
-0.00578931
0.0910915
-0.00583655
0.0913824
-0.00632836
0.0915647
-0.00617354
0.0918524
-0.00656824
0.0921401
-0.00631591
0.0925121
-0.00661931
0.0929161
-0.00629462
0.0934033
-0.00651748
0.0939739
-0.00615121
0.0946453
-0.00626383
0.0954154
-0.00577034
0.0962857
-0.00573095
0.0972772
-0.00503864
0.098318
-0.00482327
0.0994267
-0.00383733
0.100506
-0.00352936
0.101589
-0.00228963
0.102531
-0.00201528
0.103424
-0.000654461
0.104008
-0.000530822
0.104549
0.000746399
0.00101646
0.104459
0.0897243
0.00639363
-0.0897735
0.0896672
0.00569048
0.0896744
0.00485804
0.0896858
0.00423651
0.0897603
0.00336097
0.0897867
0.00271711
0.0898839
0.00169226
0.0900006
0.00100778
0.0900565
1.28769e-06
0.0902705
-0.000752562
0.0903051
-0.00164153
0.0905613
-0.00245497
0.0905851
-0.0031155
0.0908588
-0.00397546
0.0909027
-0.00438915
0.0911466
-0.0051726
0.0912198
-0.00532112
0.091433
-0.00600244
0.0915701
-0.00597365
0.0917668
-0.00652509
0.0919669
-0.00637369
0.0922107
-0.00681204
0.0924791
-0.00658427
0.0927988
-0.00693896
0.0932047
-0.0067006
0.0936765
-0.00698925
0.0942501
-0.00672481
0.094909
-0.00692275
0.0957428
-0.00660414
0.0966301
-0.0066182
0.0977131
-0.00612167
0.0988308
-0.005941
0.100133
-0.00513984
0.101387
-0.00478303
0.102782
-0.00368502
0.104029
-0.00326203
0.105321
-0.00194651
0.106309
-0.00151863
0.107352
-0.000296362
0.000504973
0.107863
0.0894834
0.00640575
-0.0894955
0.0894882
0.00568567
0.0895194
0.00482683
0.0895882
0.00416768
0.0896473
0.00330192
0.0897961
0.0025683
0.0898354
0.00165293
0.0900392
0.000803959
0.0900745
-3.40342e-05
0.090342
-0.00102
0.0903947
-0.00169424
0.0906527
-0.002713
0.0907499
-0.0032127
0.0909551
-0.00418066
0.0910576
-0.0044916
0.091237
-0.00535205
0.0913849
-0.00546897
0.0915478
-0.00616539
0.09172
-0.00614582
0.0918994
-0.00670453
0.0920979
-0.00657211
0.0922836
-0.00699782
0.0925619
-0.00686252
0.0928318
-0.0072089
0.0932405
-0.00710926
0.0936418
-0.00739051
0.0942471
-0.00733014
0.094855
-0.00753069
0.0957205
-0.00746964
0.0966102
-0.0075079
0.0978104
-0.00732189
0.0990025
-0.00713305
0.100505
-0.00664256
0.101972
-0.00624931
0.103671
-0.00538404
0.105227
-0.00481809
0.106976
-0.00369549
0.10839
-0.00293324
0.109934
-0.00183988
-0.000619788
0.111058
0.0901915
0.00640965
-0.0901954
0.090223
0.00565422
0.0902333
0.00481653
0.0903448
0.00405609
0.0903816
0.00326519
0.0905716
0.00237827
0.0905986
0.00162598
0.0908231
0.000579404
0.0909006
-0.000111461
0.0910939
-0.00121335
0.0912125
-0.00181286
0.0913795
-0.00288003
0.0915014
-0.00333452
0.0916527
-0.00433197
0.0917795
-0.00461845
0.0918954
-0.00546794
0.0920167
-0.0055902
0.0921499
-0.00629864
0.0922995
-0.00629536
0.0923972
-0.00680233
0.0925879
-0.00676273
0.0927277
-0.0071376
0.0929873
-0.00712218
0.0931729
-0.00739445
0.0935604
-0.0074968
0.093854
-0.00768413
0.0944062
-0.00788228
0.094925
-0.00804951
0.0957508
-0.00829547
0.0965746
-0.00833165
0.0977476
-0.00849491
0.0989805
-0.00836593
0.100565
-0.00822704
0.102171
-0.00785563
0.104126
-0.00733912
0.106009
-0.0067003
0.108174
-0.00586116
0.110119
-0.00487775
0.112212
-0.00393268
-0.00227338
0.113865
0.0898775
0.00640478
-0.0898726
0.0900219
0.0055098
0.0900572
0.00478121
0.0902214
0.00389193
0.0903122
0.00317431
0.0905274
0.00216313
0.0906797
0.00147367
0.0908752
0.00038386
0.0910293
-0.000265568
0.0912474
-0.00143144
0.091401
-0.00196643
0.0915955
-0.00307455
0.0917702
-0.00350924
0.0919034
-0.00446512
0.0920574
-0.00477241
0.0921466
-0.00555718
0.09233
-0.00577362
0.0923722
-0.00634088
0.0925349
-0.00645798
0.0925832
-0.00685071
0.092764
-0.00694349
0.0928198
-0.00719337
0.0930736
-0.00737605
0.0931733
-0.00749413
0.0934974
-0.00782088
0.0937347
-0.00792144
0.0941918
-0.00833933
0.0946264
-0.00848418
0.0953108
-0.00897985
0.0960897
-0.00911056
0.0971623
-0.00956748
0.0983508
-0.00955439
0.0999615
-0.00983776
0.101662
-0.00955618
0.103818
-0.00949512
0.105987
-0.00886945
0.108521
-0.00839493
0.111006
-0.00736239
0.113671
-0.00659825
-0.00464096
0.116039
0.0910554
0.00637045
-0.091021
0.0912073
0.00535781
0.0912903
0.00469823
0.09142
0.00376221
0.0915124
0.003082
0.0916475
0.00202795
0.0917914
0.00132984
0.0920252
0.000150054
0.0922131
-0.00045351
0.092364
-0.00158234
0.0925603
-0.00216267
0.0926663
-0.00318064
0.0928996
-0.00374245
0.0929193
-0.00448491
0.0931659
-0.00501895
0.0931387
-0.00553001
0.0933424
-0.00597727
0.0932928
-0.00629135
0.0934625
-0.00662768
0.0933998
-0.00678793
0.0935829
-0.00712665
0.093569
-0.00717943
0.0937185
-0.00752553
0.0937876
-0.0075633
0.0939806
-0.00801388
0.094169
-0.00810986
0.0944523
-0.00862256
0.0947939
-0.00882581
0.0952484
-0.00943432
0.095855
-0.00971721
0.0966855
-0.010398
0.0976981
-0.010567
0.0990883
-0.011228
0.100687
-0.0111553
0.102818
-0.0116256
0.10513
-0.0111814
0.107977
-0.0112423
0.110981
-0.0103661
0.114327
-0.00994409
-0.00785425
0.11754
0.090742
0.00620858
-0.0905801
0.0909374
0.00516235
0.0911635
0.00447214
0.0914314
0.00349435
0.0916978
0.00281555
0.0919524
0.00177333
0.0922257
0.00105659
0.0923145
6.12276e-05
0.0926064
-0.000745399
0.0927206
-0.00169655
0.0930701
-0.00251212
0.0930912
-0.00320172
0.0933645
-0.00401578
0.0933563
-0.00447669
0.0935688
-0.00523149
0.0935374
-0.00549863
0.0936725
-0.00611232
0.0936208
-0.00623964
0.0937101
-0.00671704
0.0936748
-0.00675258
0.0937217
-0.00717357
0.0937132
-0.00717093
0.0937604
-0.00757274
0.0938203
-0.00762318
0.0938786
-0.00807225
0.0940124
-0.00824362
0.0941539
-0.00876405
0.0943867
-0.00905856
0.094642
-0.00968962
0.0950447
-0.01012
0.0955397
-0.010893
0.0963176
-0.0113448
0.0973449
-0.0122553
0.0987282
-0.0125386
0.100537
-0.0134342
0.102759
-0.0134039
0.105547
-0.0140305
0.108776
-0.0135946
0.112689
-0.0138575
-0.0121969
0.117032
0.0925103
0.00607683
-0.0923785
0.0926081
0.00506453
0.0927979
0.00428236
0.0928871
0.00340514
0.0931336
0.00256902
0.0932646
0.00164232
0.0936392
0.000681977
0.0938662
-0.000165693
0.0942448
-0.00112408
0.0943423
-0.00179402
0.0946278
-0.00279761
0.0947284
-0.0033023
0.0949279
-0.00421529
0.0950027
-0.00455155
0.0950817
-0.00531045
0.0950943
-0.00551128
0.0951004
-0.0061184
0.0950737
-0.0062129
0.0950473
-0.00669065
0.0950017
-0.00670698
0.0949417
-0.00711356
0.094898
-0.00712723
0.0948425
-0.00751729
0.094824
-0.00760464
0.0947943
-0.00804257
0.0948083
-0.00825756
0.0948153
-0.00877108
0.0948954
-0.00913863
0.0949179
-0.00971216
0.0950339
-0.0102359
0.095108
-0.0109672
0.0954021
-0.0116389
0.0957595
-0.0126127
0.0965176
-0.0132966
0.0975802
-0.0144968
0.0991951
-0.0150188
0.101441
-0.0162762
0.104258
-0.0164122
0.107946
-0.0175456
-0.0169875
0.112737
0.0926201
0.00557529
-0.0921186
0.0930454
0.00463927
0.0935687
0.003759
0.0939927
0.00298115
0.0944676
0.00209415
0.0947668
0.00134311
0.0950226
0.000426157
0.0951491
-0.000292179
0.0953666
-0.00134159
0.0955715
-0.00199887
0.0956838
-0.00290997
0.095815
-0.00343347
0.0957993
-0.00419963
0.0958752
-0.00462743
0.0958014
-0.00523669
0.0958068
-0.00551665
0.0956947