/*--------------------------------*- C++ -*----------------------------------*\
  =========                 |
  \\      /  F ield         | OpenFOAM: The Open Source CFD Toolbox
   \\    /   O peration     | Website:  https://openfoam.org
    \\  /    A nd           | Version:  11
     \\/     M anipulation  |
\*---------------------------------------------------------------------------*/
FoamFile
{
    format      ascii;
    class       volVectorField;
    location    "8";
    object      U;
}
// * * * * * * * * * * * * * * * * * * * * * * * * * * * * * * * * * * * * * //

dimensions      [0 1 -1 0 0 0 0];

internalField   nonuniform List<vector> 
9600
(
(0.990479 0.000604416 -5.4129e-21)
(0.990052 0.00072249 0)
(0.989046 0.000847007 -5.60505e-21)
(0.988173 0.000902678 5.53694e-21)
(0.98735 0.00116896 0)
(0.986466 0.00104813 2.88746e-21)
(0.986314 0.000712431 -5.73998e-21)
(0.986531 0.000461519 2.83005e-21)
(0.987008 0.000149271 2.83682e-21)
(0.987818 -0.000189418 -2.84356e-21)
(0.989061 -0.000475718 2.18452e-23)
(0.990796 -0.000694035 0)
(0.992678 -0.000961077 0)
(0.994826 -0.00121463 -1.28211e-21)
(0.997382 -0.00152783 5.99099e-23)
(1.0003 -0.00194489 1.22819e-21)
(1.00394 -0.00222549 0)
(1.00817 -0.00176594 0)
(1.01122 -0.0013071 1.9437e-24)
(1.01363 -0.00168334 0)
(1.01697 -0.00246836 0)
(1.02088 -0.00216998 -1.57872e-24)
(1.02268 -0.000594205 2.99203e-24)
(1.0224 0.000341828 -7.18926e-22)
(1.02113 0.000836565 7.06487e-22)
(1.017 0.00259631 6.95192e-22)
(1.00374 0.00526817 -7.05832e-22)
(0.984433 0.00557376 -1.48259e-21)
(0.972044 0.00322905 1.45708e-21)
(0.966681 0.00137473 0)
(0.966495 -0.000169864 0)
(0.974779 -0.00237688 1.54027e-21)
(0.990568 -0.0045382 -3.03728e-21)
(1.0077 -0.00480138 1.50228e-21)
(1.02543 -0.00512567 0)
(1.04368 -0.00478927 2.00898e-23)
(1.06149 -0.00435261 1.8931e-21)
(1.07554 -0.0036947 -1.8694e-21)
(1.08398 -0.00230319 -1.01993e-23)
(1.0766 -0.00814908 -1.11824e-21)
(0.99136 0.000561527 -5.55958e-21)
(0.991259 0.000266455 -1.42713e-22)
(0.990936 2.05345e-05 -2.38751e-23)
(0.990384 -0.00017417 5.80085e-21)
(0.990226 -0.000474551 2.93394e-21)
(0.990474 -0.000758626 -2.94349e-21)
(0.990959 -0.000857405 4.64619e-23)
(0.991861 -0.000794606 2.32524e-23)
(0.993211 -0.000800893 -2.95527e-21)
(0.994341 -0.000742125 3.00885e-21)
(0.995829 -0.000749871 -2.28082e-23)
(0.998417 -0.000745067 4.45546e-23)
(1.00133 -0.000585023 1.32134e-21)
(1.00421 -0.000681771 -2.68061e-21)
(1.00723 -0.000632328 1.33571e-21)
(1.01096 -0.000661287 1.1987e-21)
(1.01506 -0.000638772 -1.20825e-21)
(1.01921 -0.000922348 5.33665e-22)
(1.02341 -0.000688142 -5.2741e-22)
(1.02762 -0.000304143 0)
(1.0305 -2.35896e-05 0)
(1.0317 0.000179579 -3.98213e-22)
(1.03309 1.27638e-05 3.93716e-22)
(1.0357 8.34513e-05 5.88085e-24)
(1.03709 0.00114082 0)
(1.03639 0.00305128 7.27713e-22)
(1.03436 0.00531903 1.82836e-23)
(1.03382 0.00539434 7.65258e-22)
(1.03286 0.00390497 -1.46068e-21)
(1.02957 0.000973704 -2.37667e-23)
(1.02733 -0.00163604 1.56762e-21)
(1.02793 -0.00492769 -1.57507e-21)
(1.03081 -0.00562799 1.59074e-21)
(1.03796 -0.0072272 -3.07826e-21)
(1.04999 -0.00633929 1.46746e-21)
(1.06207 -0.00781715 -2.0544e-23)
(1.0753 -0.0053127 -1.76501e-23)
(1.08603 -0.00434929 0)
(1.09638 0.00281868 1.04242e-23)
(1.09282 0.00624215 -8.7192e-22)
(0.991211 0.00038222 0)
(0.991094 0.000343319 5.83818e-21)
(0.990804 0.00041217 -5.80747e-21)
(0.990561 0.000345506 0)
(0.990602 0.000314622 0)
(0.990828 0.000254837 -9.42541e-23)
(0.991265 3.65215e-05 -1.42563e-22)
(0.99211 -0.0005769 0)
(0.993375 -0.000841432 -3.11614e-21)
(0.994667 -0.00117336 2.98173e-21)
(0.996082 -0.00186186 0)
(0.998333 -0.0025408 -4.56309e-23)
(1.00127 -0.00295169 4.44114e-23)
(1.00461 -0.0031778 0)
(1.00776 -0.00362266 -1.30265e-21)
(1.01085 -0.00436025 1.28352e-21)
(1.015 -0.00477945 3.68842e-23)
(1.01991 -0.00449341 -8.68206e-24)
(1.02458 -0.00396835 -2.43043e-22)
(1.02776 -0.00384201 2.51167e-22)
(1.02935 -0.00358645 2.19074e-22)
(1.03071 -0.00293629 -2.28963e-22)
(1.03355 -0.00219965 6.27246e-24)
(1.03746 -0.00134431 -7.57891e-22)
(1.04043 0.000124395 7.45609e-22)
(1.04117 0.00287073 6.99242e-22)
(1.04009 0.00602275 -7.32508e-22)
(1.0375 0.00701727 1.52279e-21)
(1.0325 0.00655638 -1.5196e-21)
(1.02611 0.00494529 2.43973e-23)
(1.02167 0.00177676 0)
(1.02164 -0.0032535 1.62104e-21)
(1.02687 -0.00813364 -3.26331e-21)
(1.03614 -0.0129273 1.6175e-21)
(1.04813 -0.0151226 1.54571e-21)
(1.06053 -0.0168385 -4.22101e-21)
(1.07398 -0.0166193 3.59723e-22)
(1.08479 -0.016707 2.35085e-21)
(1.09736 -0.011989 -2.8357e-23)
(1.10371 -0.0127251 -2.94735e-24)
(0.991178 0.000515991 -1.17244e-20)
(0.991023 0.000366377 5.90298e-21)
(0.990702 0.000401161 6.05153e-21)
(0.99041 0.000150324 -6.08327e-21)
(0.990496 -0.000137314 0)
(0.990753 -0.00054171 3.20728e-21)
(0.991625 -0.00100605 -3.0231e-21)
(0.992407 -0.00156236 3.21014e-21)
(0.993572 -0.00178698 -2.7349e-23)
(0.995046 -0.00208235 -3.10244e-21)
(0.997329 -0.0026124 -2.91107e-21)
(0.998931 -0.00319217 6.03835e-21)
(1.00175 -0.00331883 -1.51721e-21)
(1.00504 -0.00359498 -2.79137e-21)
(1.00893 -0.00346599 1.36983e-21)
(1.01174 -0.00392479 1.27827e-21)
(1.01521 -0.00444429 -1.25848e-21)
(1.01921 -0.00496959 -1.76341e-23)
(1.02448 -0.00402197 -8.29536e-24)
(1.0281 -0.00241487 0)
(1.03038 -0.00141082 0)
(1.03218 -0.00164146 6.7757e-24)
(1.03418 -0.00240346 0)
(1.03609 -0.00245038 0)
(1.03826 -0.00056706 -1.17501e-23)
(1.03946 0.00300993 2.34522e-23)
(1.03909 0.006465 -7.3398e-22)
(1.03738 0.00769948 -7.41249e-22)
(1.03686 0.00764765 1.57646e-21)
(1.03628 0.00586361 -1.59668e-21)
(1.03807 0.00233147 1.60694e-21)
(1.03899 -0.00455758 5.15313e-23)
(1.04328 -0.00790286 1.62587e-21)
(1.04824 -0.0134627 -1.67285e-21)
(1.0572 -0.0136017 -1.53236e-21)
(1.06605 -0.0165795 -1.3548e-21)
(1.07867 -0.0140126 3.32227e-22)
(1.08652 -0.0137278 2.58081e-21)
(1.10035 -0.00977468 2.90206e-23)
(1.10358 -0.000879512 2.12015e-23)
(0.990985 0.000519635 0)
(0.990845 0.000313876 6.32367e-21)
(0.990529 0.00033849 -1.25713e-20)
(0.990303 4.94429e-05 6.26222e-21)
(0.990436 -0.000270135 0)
(0.990912 -0.000803239 0)
(0.991601 -0.00124327 0)
(0.992856 -0.00193179 1.00157e-22)
(0.993945 -0.00220708 -3.07023e-21)
(0.99543 -0.00298902 3.17873e-21)
(0.997227 -0.00353291 -9.73659e-23)
(0.999399 -0.0042706 2.9042e-21)
(1.00216 -0.00518631 -4.45847e-21)
(1.00496 -0.00572379 1.45538e-21)
(1.00852 -0.00599834 0)
(1.01233 -0.00641312 1.22486e-21)
(1.01647 -0.00726195 -1.26683e-21)
(1.01969 -0.00745928 1.8086e-23)
(1.0231 -0.0067558 0)
(1.027 -0.00554267 0)
(1.03153 -0.0046323 -2.28494e-22)
(1.03486 -0.00398457 2.28399e-22)
(1.03628 -0.00322611 0)
(1.03605 -0.00275318 -7.77959e-22)
(1.03569 -0.00155964 8.05491e-22)
(1.03667 0.00130613 7.59168e-22)
(1.03905 0.00562133 -7.37448e-22)
(1.04043 0.00783087 1.51865e-21)
(1.04199 0.00787085 -1.61392e-21)
(1.04286 0.00649283 -5.09557e-23)
(1.04292 0.00384749 0)
(1.0406 -0.00218178 -5.26872e-23)
(1.04116 -0.00815629 -1.68617e-21)
(1.04417 -0.0157358 1.73382e-21)
(1.05226 -0.0197978 -5.29066e-23)
(1.06081 -0.0243793 0)
(1.07409 -0.025082 0)
(1.08314 -0.0254957 2.4574e-21)
(1.09564 -0.0242539 -2.37411e-21)
(1.10314 -0.0196119 5.86417e-23)
(0.99083 0.000539107 -6.02284e-21)
(0.990717 0.00019621 -1.9608e-22)
(0.990371 0.000152208 1.98712e-22)
(0.990218 -0.000240184 2.0207e-22)
(0.990523 -0.000502785 0)
(0.990814 -0.00122488 0)
(0.991988 -0.00176272 0)
(0.992681 -0.00264744 3.0699e-21)
(0.994177 -0.00304322 -6.74335e-21)
(0.995505 -0.00372406 3.05991e-21)
(0.997798 -0.00451873 0)
(0.999506 -0.00559889 2.97099e-21)
(1.00238 -0.00603808 -3.07483e-21)
(1.00552 -0.00653735 -1.42897e-21)
(1.00952 -0.00675451 1.4313e-21)
(1.01268 -0.00755067 4.15031e-23)
(1.01623 -0.00786251 -3.91469e-23)
(1.0192 -0.00801741 0)
(1.0242 -0.00727626 1.71695e-23)
(1.02832 -0.006122 0)
(1.03221 -0.00479372 -3.73769e-24)
(1.03383 -0.00389012 -1.40181e-23)
(1.03552 -0.00303804 0)
(1.03612 -0.00243073 8.24564e-22)
(1.03736 -0.0015297 -8.2237e-22)
(1.03808 0.00094353 7.24567e-22)
(1.03907 0.00439451 -8.20329e-22)
(1.03928 0.00638906 -1.54452e-21)
(1.03995 0.00675276 1.5218e-21)
(1.03992 0.00628276 5.55722e-25)
(1.04143 0.00503842 1.05079e-22)
(1.04156 -0.000294084 -1.08742e-22)
(1.04612 -0.00601565 1.80276e-21)
(1.0486 -0.0147066 -3.60758e-21)
(1.05715 -0.01846 1.80403e-21)
(1.06322 -0.0241151 0)
(1.07655 -0.0250262 1.05522e-22)
(1.08402 -0.0238323 -9.63277e-23)
(1.09993 -0.0247107 -7.52905e-23)
(1.10509 -0.0148076 1.90977e-21)
(0.990614 0.000494548 -1.82959e-22)
(0.990507 4.8339e-05 -1.2805e-20)
(0.990237 -5.041e-05 1.38814e-22)
(0.990125 -0.000483458 6.40114e-21)
(0.990542 -0.000787246 0)
(0.990847 -0.00176717 2.11571e-22)
(0.992156 -0.00230074 2.11953e-22)
(0.99286 -0.0033771 0)
(0.994208 -0.00379765 3.55255e-21)
(0.995703 -0.00507862 -2.93563e-21)
(0.998379 -0.00555541 0)
(0.999789 -0.00644093 1.99697e-22)
(1.00256 -0.0076575 -1.52139e-21)
(1.00547 -0.00870149 1.52426e-21)
(1.01017 -0.00893819 0)
(1.01304 -0.0089878 1.2788e-21)
(1.01648 -0.00954046 -1.32269e-21)
(1.01972 -0.0102983 0)
(1.02454 -0.00988016 -3.0689e-22)
(1.02852 -0.00831437 2.71837e-22)
(1.03253 -0.00630086 7.64518e-24)
(1.03457 -0.0050024 2.8663e-23)
(1.03679 -0.0039625 -2.68942e-23)
(1.03744 -0.0033122 -8.37576e-22)
(1.0382 -0.00230257 8.34136e-22)
(1.038 -9.68808e-05 4.91249e-23)
(1.03838 0.00409329 7.89268e-22)
(1.03819 0.00655406 -8.86985e-22)
(1.03905 0.00738474 -1.58999e-21)
(1.03928 0.00678137 1.57303e-21)
(1.04195 0.00517159 -1.08177e-22)
(1.04217 0.000240322 -1.20071e-25)
(1.04459 -0.00589338 0)
(1.04455 -0.0149365 -1.1814e-22)
(1.05223 -0.0214435 -1.88284e-21)
(1.05702 -0.0280492 -1.7752e-21)
(1.07041 -0.0333177 9.39123e-23)
(1.07913 -0.0331289 3.51934e-21)
(1.09441 -0.0366037 -2.66754e-21)
(1.10219 -0.0305078 2.7285e-21)
(0.990357 0.000408557 6.64366e-21)
(0.990302 -0.000208189 2.68195e-22)
(0.990115 -0.000368843 -1.33639e-20)
(0.990004 -0.000869051 6.61835e-21)
(0.990448 -0.00121803 0)
(0.990916 -0.00221649 -2.17712e-22)
(0.992065 -0.0030141 -3.47901e-21)
(0.992819 -0.00401387 7.17567e-21)
(0.994344 -0.00490815 -6.69779e-21)
(0.995689 -0.00583698 3.23421e-21)
(0.99811 -0.00654193 0)
(1.00012 -0.0078682 3.12312e-21)
(1.00307 -0.00913959 -3.13339e-21)
(1.0058 -0.0101343 -1.40252e-21)
(1.0097 -0.0102001 1.50091e-21)
(1.0133 -0.0104172 0)
(1.01764 -0.0110999 2.40575e-25)
(1.02048 -0.0114936 0)
(1.02443 -0.0111789 3.58318e-23)
(1.02815 -0.00949727 -8.31068e-24)
(1.03256 -0.00777052 -3.91221e-24)
(1.0357 -0.0059132 -1.46604e-23)
(1.03832 -0.00443423 2.76437e-23)
(1.03858 -0.00301996 -8.48212e-22)
(1.03838 -0.00211714 8.71055e-22)
(1.03821 -0.00024813 7.91448e-22)
(1.03888 0.00323462 -7.9038e-22)
(1.039 0.00566787 -1.58012e-21)
(1.03899 0.00635044 3.2681e-21)
(1.03865 0.00603792 -3.2418e-21)
(1.03938 0.00505881 1.71138e-21)
(1.03809 0.00194627 1.14238e-22)
(1.04084 -0.0030474 0)
(1.04096 -0.012784 1.21323e-22)
(1.0497 -0.0198872 0)
(1.05443 -0.0275063 0)
(1.06838 -0.0340488 0)
(1.07666 -0.0342768 3.47139e-21)
(1.09361 -0.039083 -3.67144e-21)
(1.10333 -0.0299533 -1.65715e-22)
(0.990126 0.000241752 -6.42007e-21)
(0.990088 -0.000516808 2.89467e-24)
(0.990014 -0.000743729 -7.49393e-21)
(0.989892 -0.00126657 7.30866e-21)
(0.990293 -0.00175332 -4.49829e-22)
(0.991024 -0.00297973 -3.81633e-21)
(0.99209 -0.00360003 3.16005e-21)
(0.993139 -0.00515846 -2.23937e-22)
(0.994299 -0.00568691 -3.76384e-21)
(0.99573 -0.00714882 7.03824e-21)
(0.998641 -0.00808079 -3.71208e-21)
(1.00059 -0.00920412 0)
(1.00338 -0.010577 -3.05973e-22)
(1.00561 -0.0116561 -9.83699e-23)
(1.01006 -0.0122753 9.3793e-23)
(1.01406 -0.0123037 1.29341e-21)
(1.01823 -0.0124256 -1.34187e-21)
(1.02088 -0.0130297 0)
(1.02488 -0.0129312 -3.65231e-23)
(1.02853 -0.0115149 9.48416e-26)
(1.03345 -0.00935905 0)
(1.03627 -0.00715754 1.46821e-23)
(1.03909 -0.00509247 2.75921e-23)
(1.04006 -0.00335517 2.66343e-23)
(1.0402 -0.00235239 -5.14671e-23)
(1.03977 -0.000851766 0)
(1.03954 0.00251065 0)
(1.03884 0.00568816 1.64368e-21)
(1.03809 0.00721933 -1.53688e-21)
(1.03738 0.00717301 -1.0507e-22)
(1.03775 0.00646295 0)
(1.0367 0.00362398 -2.02388e-21)
(1.03952 -0.00178223 3.90463e-21)
(1.0373 -0.0115809 -4.0363e-21)
(1.04352 -0.0210284 2.04033e-21)
(1.04643 -0.0291085 -2.65029e-22)
(1.05827 -0.0394315 -3.80933e-21)
(1.06722 -0.0410114 4.05172e-21)
(1.08327 -0.0506417 3.76057e-21)
(1.09768 -0.0429378 -6.67608e-21)
(0.989767 4.42924e-05 -7.11007e-21)
(0.989769 -0.000903239 1.3472e-20)
(0.989795 -0.00119842 6.27175e-23)
(0.989735 -0.00179678 -7.79842e-21)
(0.990116 -0.00236228 4.63126e-22)
(0.990814 -0.00357198 2.32223e-22)
(0.99207 -0.00460474 2.31988e-22)
(0.993039 -0.00574006 3.687e-21)
(0.994113 -0.00688051 -4.70109e-23)
(0.995603 -0.00834277 -3.6647e-21)
(0.998603 -0.00918938 -3.28564e-21)
(1.0007 -0.01056 3.28084e-22)
(1.00364 -0.0120673 5.26808e-21)
(1.00591 -0.0135659 -3.22432e-21)
(1.01019 -0.0140212 1.48316e-21)
(1.01383 -0.0140254 1.82469e-22)
(1.01875 -0.0142081 0)
(1.02172 -0.0144869 -6.17527e-22)
(1.02577 -0.0145182 9.23802e-22)
(1.02898 -0.0131666 -2.7862e-22)
(1.03341 -0.011039 0)
(1.03645 -0.00884145 -4.80346e-22)
(1.04003 -0.00620028 4.36569e-22)
(1.04174 -0.00374235 -8.37441e-22)
(1.04197 -0.00232438 7.85771e-22)
(1.04086 -0.000508064 7.53776e-22)
(1.03978 0.00245887 -1.66079e-21)
(1.03869 0.00529444 -8.49708e-22)
(1.03794 0.00675002 1.54766e-21)
(1.03674 0.00674616 2.15134e-22)
(1.03665 0.0061456 0)
(1.03518 0.004319 2.35243e-22)
(1.03679 0.000739766 0)
(1.03349 -0.00750159 2.1127e-21)
(1.03789 -0.0181154 -2.38447e-21)
(1.03965 -0.0267616 -4.41994e-21)
(1.05001 -0.0395263 4.12447e-21)
(1.05983 -0.0414356 0)
(1.07365 -0.0547191 -4.02733e-21)
(1.09327 -0.0474146 4.25548e-21)
(0.989533 -0.000279128 -7.81955e-21)
(0.989548 -0.00140358 4.63078e-22)
(0.989656 -0.00177942 -7.563e-21)
(0.989546 -0.00249482 8.55205e-21)
(0.990059 -0.00306642 0)
(0.990741 -0.00463221 0)
(0.991962 -0.00532409 0)
(0.993209 -0.00705528 0)
(0.994376 -0.00804094 -3.77338e-21)
(0.995662 -0.0097308 3.78607e-21)
(0.998594 -0.0109701 0)
(1.00111 -0.0123036 -2.23079e-22)
(1.0044 -0.0137726 -1.90622e-21)
(1.00633 -0.0150793 1.69441e-21)
(1.01008 -0.0159503 0)
(1.01403 -0.0162091 1.3547e-21)
(1.01946 -0.0159816 -1.53767e-21)
(1.02297 -0.0159978 0)
(1.02664 -0.0161939 -1.88335e-23)
(1.02949 -0.0149206 0)
(1.03387 -0.012827 0)
(1.03742 -0.0103116 1.4981e-23)
(1.04101 -0.00738481 2.80385e-23)
(1.04336 -0.00435722 5.2907e-23)
(1.04374 -0.00219281 1.02962e-22)
(1.04247 -0.000485881 9.06382e-22)
(1.04138 0.00216543 -7.53342e-22)
(1.03974 0.00520254 1.76025e-21)
(1.03866 0.00748467 -1.6556e-21)
(1.03634 0.00807225 -1.10167e-22)
(1.03549 0.00759751 0)
(1.03345 0.00590299 -1.20178e-22)
(1.03472 0.00307552 0)
(1.0322 -0.00298181 0)
(1.03418 -0.0154994 2.77252e-22)
(1.03406 -0.0240667 4.94056e-21)
(1.03914 -0.0407224 -9.02542e-21)
(1.04864 -0.0448551 9.01133e-21)
(1.0587 -0.0617232 -7.63671e-23)
(1.08022 -0.0593541 -4.76609e-21)
(0.989056 -0.000600051 1.26124e-23)
(0.989146 -0.00189397 1.54493e-20)
(0.989278 -0.00233647 -1.56286e-20)
(0.989289 -0.00313109 -5.37277e-22)
(0.989698 -0.00380989 1.19488e-20)
(0.990366 -0.00523685 -4.00309e-21)
(0.991673 -0.00652159 0)
(0.992938 -0.00799323 -3.94632e-21)
(0.994358 -0.00912947 5.70286e-23)
(0.995308 -0.0111445 3.91627e-21)
(0.99837 -0.0122874 -2.37294e-22)
(1.00106 -0.0140652 2.3023e-22)
(1.00435 -0.0152033 4.4448e-22)
(1.00652 -0.0170032 0)
(1.01042 -0.0177534 0)
(1.01402 -0.0183189 0)
(1.01949 -0.0181847 7.56045e-25)
(1.0234 -0.0178531 0)
(1.02751 -0.0176634 5.77234e-23)
(1.03037 -0.0164027 -8.83464e-24)
(1.0346 -0.014474 8.14653e-24)
(1.03802 -0.0122368 -1.54494e-23)
(1.04122 -0.00925816 -2.89157e-23)
(1.04401 -0.00552354 -8.97969e-22)
(1.04554 -0.00239522 7.89963e-22)
(1.04466 -0.000119849 7.5306e-22)
(1.04325 0.00255721 -7.04162e-22)
(1.04064 0.00548529 -3.65174e-24)
(1.03921 0.00776806 -1.61211e-21)
(1.03625 0.0087601 1.603e-21)
(1.03498 0.0082791 0)
(1.03203 0.00672284 0)
(1.03237 0.00413586 1.87481e-21)
(1.03005 0.000295079 1.29045e-22)
(1.0303 -0.0105451 -4.58683e-21)
(1.02948 -0.0188539 -2.52573e-21)
(1.03075 -0.0365009 -7.28954e-22)
(1.03891 -0.042932 5.24646e-21)
(1.04537 -0.0617563 5.00478e-21)
(1.06776 -0.0647854 -4.96635e-21)
(0.988792 -0.00118541 0)
(0.988888 -0.00262517 5.03399e-22)
(0.98909 -0.00314828 -5.09589e-22)
(0.989033 -0.00410749 0)
(0.989497 -0.00482402 0)
(0.990159 -0.00659844 0)
(0.991499 -0.00755401 -5.1971e-22)
(0.992659 -0.00956466 -5.16475e-22)
(0.994565 -0.0105784 4.04476e-21)
(0.995626 -0.0126912 -4.31119e-21)
(0.99854 -0.0142357 2.44894e-22)
(1.00102 -0.0161323 3.49218e-21)
(1.00489 -0.0172171 -5.76213e-21)
(1.00727 -0.0188639 1.79733e-21)
(1.01111 -0.0197576 -1.0422e-22)
(1.01446 -0.0206269 1.42176e-21)
(1.01978 -0.0206612 -1.42971e-21)
(1.02414 -0.0196593 0)
(1.02849 -0.0194178 -3.95396e-23)
(1.03193 -0.0182514 9.12048e-24)
(1.03592 -0.0164683 -8.4101e-24)
(1.03913 -0.0138601 0)
(1.04243 -0.0106283 0)
(1.04507 -0.00690633 0)
(1.04744 -0.00298641 0)
(1.04674 8.07553e-05 7.99825e-22)
(1.04584 0.00283304 -1.70397e-21)
(1.04291 0.0058368 2.34377e-21)
(1.04141 0.00842663 -1.74643e-21)
(1.03756 0.0100754 -1.66938e-21)
(1.03548 0.0100037 1.65941e-21)
(1.03093 0.00888509 -1.99301e-21)
(1.02986 0.00614978 2.25036e-21)
(1.02714 0.0033729 2.70837e-22)
(1.02636 -0.00508528 0)
(1.02633 -0.0127098 -5.05153e-21)
(1.0242 -0.03036 1.25447e-22)
(1.03036 -0.0397253 5.52974e-21)
(1.03118 -0.0611124 5.08659e-21)
(1.05381 -0.0713126 -1.08826e-20)
(0.988073 -0.00163069 -8.83119e-21)
(0.98827 -0.00320388 7.85332e-21)
(0.988557 -0.00380815 -7.88981e-21)
(0.988353 -0.00490742 -8.56453e-21)
(0.988993 -0.00566088 8.6083e-21)
(0.989419 -0.00742006 5.4271e-22)
(0.991141 -0.00872887 5.36402e-22)
(0.991981 -0.0109375 -3.79528e-24)
(0.994004 -0.0118812 -4.19735e-21)
(0.995414 -0.0142517 4.47355e-21)
(0.998129 -0.0156915 0)
(1.00079 -0.0180866 0)
(1.0045 -0.0189971 0)
(1.00749 -0.0209248 -1.98917e-21)
(1.01129 -0.0217855 1.87451e-21)
(1.0149 -0.0226859 2.01705e-22)
(1.0197 -0.0227794 0)
(1.02443 -0.0219242 0)
(1.02939 -0.0213813 0)
(1.03298 -0.0200458 0)
(1.03693 -0.0180119 8.25159e-24)
(1.03996 -0.0154465 0)
(1.04354 -0.0123833 0)
(1.04573 -0.00848952 -8.87269e-22)
(1.04871 -0.00428097 -1.91485e-23)
(1.04823 -0.000243695 8.01863e-22)
(1.04819 0.00298722 0)
(1.04519 0.00654839 1.52402e-21)
(1.04366 0.00923044 6.53041e-23)
(1.03902 0.011751 -1.67636e-21)
(1.03644 0.0119581 1.14941e-22)
(1.03094 0.0116066 0)
(1.02829 0.00846956 2.1359e-21)
(1.0244 0.00614025 -3.73785e-22)
(1.02152 -0.00128029 -2.29055e-21)
(1.02217 -0.00775913 3.12059e-22)
(1.01792 -0.0226586 -3.29674e-22)
(1.02399 -0.0333938 5.31089e-21)
(1.01981 -0.053306 -5.25319e-21)
(1.04008 -0.0709784 0)
(0.987766 -0.00252468 -8.6661e-21)
(0.988006 -0.0042498 8.18319e-21)
(0.988309 -0.00491861 6.04583e-23)
(0.988048 -0.00609947 -1.78141e-20)
(0.988699 -0.00695521 8.96091e-21)
(0.988987 -0.00913678 -5.59609e-22)
(0.990705 -0.0101054 0)
(0.991894 -0.0127108 -4.38835e-24)
(0.99399 -0.0137798 -3.8102e-21)
(0.995332 -0.0162833 4.65178e-21)
(0.998515 -0.0178448 0)
(1.00107 -0.0204158 0)
(1.00486 -0.021544 2.15505e-21)
(1.00823 -0.0233087 -1.44837e-21)
(1.01185 -0.0241788 0)
(1.01572 -0.0250336 1.491e-21)
(1.02028 -0.0254827 -1.59739e-21)
(1.02518 -0.0246974 0)
(1.0307 -0.0236376 0)
(1.03418 -0.0219515 -9.08953e-24)
(1.03879 -0.0199724 -8.53703e-24)
(1.04168 -0.0174135 0)
(1.04551 -0.0142349 0)
(1.04739 -0.0100527 5.41119e-23)
(1.05065 -0.00562925 5.13254e-23)
(1.05045 -0.00093441 0)
(1.05116 0.00284498 7.76855e-22)
(1.04843 0.00705362 -7.69093e-22)
(1.04701 0.0100072 0)
(1.04219 0.0133233 0)
(1.03916 0.0138645 0)
(1.03294 0.015092 0)
(1.0282 0.0116433 0)
(1.02349 0.0099576 2.58262e-21)
(1.0175 0.00348883 -2.29095e-21)
(1.0177 -0.00240477 -3.22218e-22)
(1.01129 -0.0137955 6.26052e-21)
(1.01735 -0.0253742 -5.91624e-21)
(1.01005 -0.0446562 0)
(1.02824 -0.0645981 -3.85616e-22)
(0.986945 -0.00307775 5.60636e-22)
(0.986979 -0.00489476 9.68695e-21)
(0.987446 -0.00573193 -9.16544e-21)
(0.986979 -0.00700108 -8.73091e-21)
(0.987865 -0.00791744 1.40403e-20)
(0.98795 -0.0100696 -4.11875e-21)
(0.989575 -0.0114704 -4.06832e-21)
(0.990985 -0.0143221 9.8707e-21)
(0.993192 -0.0153257 -6.60882e-22)
(0.994832 -0.0180289 -4.84317e-21)
(0.997824 -0.0197892 0)
(1.00054 -0.0223394 0)
(1.00436 -0.0239089 -2.53301e-22)
(1.00794 -0.0253039 -2.11383e-21)
(1.01196 -0.0263711 1.87664e-21)
(1.01588 -0.027236 1.63359e-21)
(1.02083 -0.0278274 -1.63623e-21)
(1.02511 -0.027116 0)
(1.031 -0.0259916 0)
(1.03488 -0.0239609 9.41522e-24)
(1.04017 -0.0218712 8.24745e-24)
(1.04319 -0.0189186 0)
(1.04706 -0.016121 0)
(1.04858 -0.0115104 -8.0817e-22)
(1.05219 -0.00724551 8.06863e-22)
(1.05221 -0.00160962 7.53935e-22)
(1.05319 0.00227713 -7.52194e-22)
(1.05065 0.00738325 1.88996e-22)
(1.04924 0.0103641 -1.59944e-21)
(1.04478 0.0152524 1.59407e-21)
(1.04123 0.0157539 0)
(1.03582 0.0188131 0)
(1.02901 0.0161187 2.09234e-21)
(1.02402 0.0148609 4.58973e-22)
(1.01478 0.0094393 -5.01525e-21)
(1.01371 0.00272685 2.75813e-21)
(1.00437 -0.00692211 -6.34374e-21)
(1.00906 -0.0177258 1.19938e-20)
(1.00059 -0.0342061 3.44368e-22)
(1.0151 -0.0548374 -5.8369e-21)
(0.986502 -0.00430114 0)
(0.986583 -0.00630675 8.95573e-21)
(0.987077 -0.00716944 -1.98861e-20)
(0.986713 -0.00859135 9.12059e-21)
(0.987551 -0.00956126 -6.18518e-22)
(0.987905 -0.0119153 -5.51426e-21)
(0.989363 -0.0133834 3.70601e-21)
(0.990378 -0.0165361 0)
(0.992833 -0.0178441 -4.13801e-21)
(0.994831 -0.0203509 4.17071e-21)
(0.997756 -0.0224971 0)
(1.00102 -0.0249503 4.28956e-21)
(1.0046 -0.026872 -4.30337e-21)
(1.00834 -0.0281925 0)
(1.01314 -0.029444 -1.5739e-21)
(1.01711 -0.030093 1.81107e-21)
(1.02245 -0.0307096 9.93162e-23)
(1.02618 -0.029965 0)
(1.03219 -0.0288455 -4.06967e-23)
(1.03614 -0.0270355 0)
(1.04198 -0.0244777 -3.84651e-25)
(1.04537 -0.0210978 2.93456e-23)
(1.04986 -0.0179632 5.32187e-23)
(1.05109 -0.013389 0)
(1.05475 -0.00933 0)
(1.05492 -0.00311177 7.24927e-22)
(1.05638 0.00126694 -1.44767e-21)
(1.05442 0.00739918 -8.50087e-22)
(1.05297 0.0104751 3.09667e-21)
(1.04908 0.0164672 -1.52997e-21)
(1.04499 0.0174808 0)
(1.04014 0.0217916 0)
(1.03181 0.0205267 0)
(1.02663 0.0197161 -2.73218e-22)
(1.01552 0.0165801 5.7947e-22)
(1.01261 0.00991326 -3.22126e-22)
(1.0006 0.00238844 -4.99882e-21)
(1.00215 -0.00839883 6.00422e-21)
(0.991022 -0.0233866 -3.82175e-22)
(1.00243 -0.0438746 -6.75469e-21)
(0.98526 -0.0048504 -1.06255e-20)
(0.985364 -0.00704543 6.20935e-22)
(0.985824 -0.00803531 1.014e-20)
(0.98528 -0.00963455 -1.98208e-20)
(0.986103 -0.0107344 1.61041e-20)
(0.986495 -0.0133666 -5.17974e-21)
(0.988043 -0.0147853 1.28832e-21)
(0.989274 -0.0181277 5.04383e-21)
(0.991328 -0.0200676 -1.06476e-20)
(0.99362 -0.0223748 1.04177e-20)
(0.996789 -0.0249795 -4.84817e-21)
(1.00015 -0.0271366 -4.45749e-21)
(1.00417 -0.0293839 4.20029e-21)
(1.00763 -0.0308699 0)
(1.01287 -0.032187 -2.42235e-22)
(1.01698 -0.0325808 1.71025e-21)
(1.02287 -0.0330169 -1.81627e-21)
(1.02678 -0.0324226 7.02595e-22)
(1.03304 -0.0313092 -6.20085e-22)
(1.03689 -0.0290999 9.0663e-24)
(1.04278 -0.0274021 -2.59263e-22)
(1.04624 -0.022898 6.70904e-22)
(1.05136 -0.0200706 -4.54267e-22)
(1.05315 -0.0145591 -7.54806e-22)
(1.05671 -0.0110324 7.53426e-22)
(1.05725 -0.00420126 6.86485e-22)
(1.05875 2.41787e-05 -6.04435e-22)
(1.05736 0.00739567 -8.15705e-23)
(1.05555 0.0106633 -9.27545e-23)
(1.05242 0.0176546 -1.53331e-21)
(1.04738 0.0195648 1.71405e-21)
(1.04352 0.024508 0)
(1.03447 0.0256301 -2.20454e-22)
(1.02919 0.0246536 2.15027e-21)
(1.01721 0.0242939 -4.52691e-21)
(1.01282 0.0182328 2.35242e-21)
(0.999124 0.0126741 -5.96506e-21)
(0.99771 0.00245937 -4.93885e-22)
(0.983739 -0.0102332 1.28256e-20)
(0.990998 -0.0310853 -5.97489e-21)
(0.984861 -0.00656016 1.30696e-21)
(0.984858 -0.0088722 1.05632e-20)
(0.985422 -0.00994338 -9.29444e-21)
(0.984911 -0.0116786 -1.34921e-21)
(0.985721 -0.0128707 0)
(0.98615 -0.015549 0)
(0.98789 -0.0174798 -6.72949e-22)
(0.989379 -0.0204305 0)
(0.991413 -0.0230856 5.19032e-21)
(0.993628 -0.0252607 -9.61754e-21)
(0.997008 -0.0283008 5.07017e-21)
(1.00001 -0.0302738 2.98326e-22)
(1.00498 -0.0327869 2.74626e-25)
(1.00825 -0.034244 2.65326e-22)
(1.01377 -0.0357876 0)
(1.01767 -0.0361746 0)
(1.02428 -0.0366146 -1.02825e-22)
(1.02839 -0.0356596 9.18933e-23)
(1.03538 -0.0349564 -4.2453e-23)
(1.03928 -0.0319601 -9.43029e-24)
(1.04541 -0.0304246 0)
(1.04835 -0.0261063 0)
(1.05386 -0.0230977 -1.02192e-22)
(1.05611 -0.0171315 -6.69579e-22)
(1.0602 -0.0134152 7.52401e-22)
(1.06119 -0.00609176 0)
(1.06261 -0.00192817 -8.35034e-23)
(1.0619 0.00616509 8.47837e-23)
(1.06012 0.00990347 1.35071e-21)
(1.058 0.0178615 -1.26466e-21)
(1.05231 0.0210499 -1.9346e-22)
(1.04918 0.0260425 0)
(1.03991 0.0298826 2.28882e-22)
(1.0342 0.0295114 2.2646e-22)
(1.02163 0.0306792 -2.80197e-22)
(1.01568 0.0264803 -4.99722e-21)
(1.0011 0.0230872 -5.04568e-22)
(0.997181 0.0139795 5.06501e-21)
(0.980846 0.00507397 3.68264e-22)
(0.983444 -0.0159947 -4.15732e-22)
(0.983052 -0.00720902 -1.18322e-20)
(0.983169 -0.00981289 1.11551e-20)
(0.983777 -0.0109638 -2.32188e-20)
(0.983356 -0.0129565 2.41964e-20)
(0.984153 -0.0143003 -1.14794e-20)
(0.984581 -0.0171757 -5.71146e-21)
(0.986109 -0.0196108 5.7455e-21)
(0.987623 -0.0222591 5.56904e-21)
(0.990114 -0.0257206 -1.0353e-20)
(0.992013 -0.0277425 1.07736e-20)
(0.996011 -0.0310108 -5.31485e-21)
(0.998696 -0.0331832 -3.1052e-22)
(1.00398 -0.0358744 -1.68634e-21)
(1.00763 -0.0371944 -1.15775e-22)
(1.01359 -0.0389269 2.38074e-21)
(1.01736 -0.0390497 1.89703e-21)
(1.02442 -0.0398468 -1.67737e-21)
(1.02857 -0.0384387 -3.52175e-24)
(1.03576 -0.0381134 4.0311e-23)
(1.04005 -0.0345649 0)
(1.04685 -0.0330161 -7.54887e-24)
(1.0504 -0.0279424 0)
(1.05562 -0.0254512 5.08173e-23)
(1.05822 -0.0190889 -5.4422e-24)
(1.06198 -0.0156129 5.32384e-22)
(1.06381 -0.00773441 -6.0904e-22)
(1.06524 -0.00345928 5.75188e-22)
(1.06588 0.00554313 6.66068e-22)
(1.06348 0.0098709 -1.23747e-21)
(1.06292 0.0177379 -8.40101e-23)
(1.0567 0.0236467 0)
(1.05345 0.0276268 -1.5123e-21)
(1.04467 0.0338399 1.5044e-21)
(1.03874 0.0349224 -2.35571e-22)
(1.02604 0.0382471 0)
(1.01914 0.0352138 0)
(1.00363 0.0346213 0)
(0.997837 0.0262653 0)
(0.980302 0.0211893 -6.85021e-21)
(0.97827 0.00100718 1.21898e-20)
(0.982417 -0.00938193 1.16922e-20)
(0.98272 -0.012244 -7.35598e-22)
(0.983234 -0.0134593 -2.38607e-20)
(0.983023 -0.0156177 -7.83749e-22)
(0.983687 -0.0172455 1.21606e-20)
(0.984432 -0.0198761 0)
(0.986049 -0.0229798 0)
(0.987438 -0.0253815 0)
(0.990555 -0.0292976 5.00768e-21)
(0.992212 -0.031439 -6.46285e-21)
(0.996496 -0.034734 3.4205e-22)
(0.999328 -0.03701 -5.03637e-21)
(1.00477 -0.0398988 4.74914e-21)
(1.00831 -0.0412951 -2.83641e-22)
(1.01493 -0.0432328 -4.30731e-24)
(1.01865 -0.043098 -2.89814e-24)
(1.02611 -0.0440713 0)
(1.03058 -0.0421996 -1.88212e-22)
(1.03785 -0.0423783 -4.20693e-23)
(1.04216 -0.0384326 -8.45436e-24)
(1.04915 -0.0370765 2.38791e-22)
(1.05342 -0.0316923 -2.4784e-22)
(1.05891 -0.0290194 4.08511e-23)
(1.06238 -0.0220966 -4.20981e-23)
(1.06571 -0.0188128 6.92656e-23)
(1.06867 -0.0106499 4.5165e-22)
(1.06912 -0.00627622 -5.08528e-22)
(1.07144 0.00237681 -1.03693e-21)
(1.06886 0.00871307 8.95143e-23)
(1.06955 0.0152638 1.05497e-21)
(1.06391 0.0240008 0)
(1.06095 0.0288971 1.42099e-22)
(1.05231 0.035928 0)
(1.04662 0.0385196 1.51373e-21)
(1.03416 0.0437004 -3.60371e-21)
(1.0266 0.0425846 6.24804e-21)
(1.01095 0.0451144 -9.42601e-21)
(1.00327 0.0380936 5.10666e-21)
(0.984527 0.0371103 -5.398e-21)
(0.978333 0.0179005 5.73859e-21)
(0.980178 -0.0103023 -7.8895e-22)
(0.980489 -0.0134677 1.41311e-20)
(0.980867 -0.0148906 -1.26582e-20)
(0.980817 -0.0171577 8.10617e-22)
(0.981379 -0.0193555 0)
(0.982188 -0.0216727 -8.1548e-22)
(0.984352 -0.0254921 0)
(0.985503 -0.0278653 6.99912e-21)
(0.989068 -0.0320021 -9.77291e-22)
(0.9908 -0.034546 -5.32889e-21)
(0.995279 -0.038004 -3.57429e-22)
(0.998183 -0.0403422 -3.3982e-22)
(1.00413 -0.0435563 0)
(1.00751 -0.0447225 -1.95791e-21)
(1.01453 -0.0471462 1.98902e-21)
(1.01859 -0.0464258 1.71026e-21)
(1.02599 -0.0481204 -1.94277e-21)
(1.03086 -0.0454079 9.61905e-23)
(1.03862 -0.0457594 -2.56796e-22)
(1.04339 -0.0416603 3.04199e-22)
(1.04992 -0.0401496 -7.46823e-24)
(1.05505 -0.0343684 4.69745e-23)
(1.05993 -0.032203 -4.27156e-23)
(1.06502 -0.0247822 2.97009e-23)
(1.06752 -0.0210788 -3.28427e-23)
(1.07245 -0.0132045 5.28714e-22)
(1.07236 -0.00741125 -4.64664e-22)
(1.07573 -0.000680643 -8.51391e-22)
(1.07331 0.00851769 8.17742e-22)
(1.07419 0.0145986 4.78854e-23)
(1.06973 0.023916 0)
(1.06761 0.029882 -1.26922e-21)
(1.05928 0.0388076 9.86222e-22)
(1.05372 0.0426393 1.49425e-21)
(1.04166 0.0501186 -1.27394e-21)
(1.03354 0.0498409 0)
(1.01836 0.0558623 -4.06349e-21)
(1.0091 0.0504465 3.99679e-21)
(0.990754 0.0537579 0)
(0.980581 0.0379604 3.63613e-22)
(0.979319 -0.013221 6.41251e-22)
(0.979859 -0.0165392 -1.42428e-20)
(0.980235 -0.0184022 1.35614e-20)
(0.980237 -0.0204429 -2.81892e-20)
(0.981102 -0.0232391 2.15089e-20)
(0.981663 -0.0255024 -6.04529e-21)
(0.984216 -0.0297283 0)
(0.985456 -0.0324025 -8.30171e-22)
(0.989304 -0.0364103 -5.58049e-21)
(0.991231 -0.0390908 5.64348e-21)
(0.996302 -0.0428457 3.77354e-22)
(0.9992 -0.0449589 -5.48306e-21)
(1.00552 -0.0487251 7.71606e-21)
(1.00938 -0.0492787 -2.54963e-21)
(1.01633 -0.0523786 0)
(1.0208 -0.0511797 0)
(1.02835 -0.0529731 1.10311e-22)
(1.03361 -0.0503506 -5.88804e-22)
(1.04064 -0.0505009 8.82908e-22)
(1.04709 -0.0460012 -2.81428e-22)
(1.05229 -0.0451013 1.90998e-22)
(1.05913 -0.0388809 -1.89491e-22)
(1.06283 -0.0360547 -2.80003e-23)
(1.06953 -0.0294754 -4.28577e-22)
(1.07113 -0.0246581 3.96772e-22)
(1.07707 -0.018718 2.94265e-22)
(1.07728 -0.0104306 3.64165e-23)
(1.0818 -0.00486748 2.66591e-22)
(1.08011 0.00451293 -6.86908e-22)
(1.08206 0.0113539 -8.30067e-23)
(1.07791 0.0217495 7.2168e-23)
(1.07685 0.0285969 -8.05056e-23)
(1.0696 0.039009 1.34252e-22)
(1.06455 0.0437926 1.31033e-21)
(1.05378 0.0540717 -2.68599e-21)
(1.04514 0.0550778 1.34864e-21)
(1.03076 0.0639896 0)
(1.02012 0.0602617 0)
(1.00309 0.0678059 0)
(0.988816 0.0553619 4.91694e-21)
(0.976231 -0.0146477 0)
(0.976817 -0.0179653 1.43647e-20)
(0.977295 -0.0204853 -1.54065e-20)