/*--------------------------------*- C++ -*----------------------------------*\
  =========                 |
  \\      /  F ield         | OpenFOAM: The Open Source CFD Toolbox
   \\    /   O peration     | Website:  https://openfoam.org
    \\  /    A nd           | Version:  10
     \\/     M anipulation  |
\*---------------------------------------------------------------------------*/
FoamFile
{
    format      ascii;
    class       volScalarField;
    location    "0.19956";
    object      p;
}
// * * * * * * * * * * * * * * * * * * * * * * * * * * * * * * * * * * * * * //

dimensions      [1 -1 -2 0 0 0 0];

internalField   nonuniform List<scalar> 
15984
(
2.28069
2.28081
2.28275
2.2873
2.29456
2.30449
2.31715
2.33259
2.35077
2.37159
2.3948
2.42001
2.44662
2.47387
2.50084
2.52654
2.55001
2.57036
2.5869
2.59916
2.60696
2.61033
2.60975
2.6058
2.59868
2.58897
2.57748
2.56483
2.55166
2.53855
2.52605
2.51464
2.50481
2.49697
2.49147
2.48859
2.48851
2.49089
2.49631
2.50438
2.51451
2.52605
2.53823
2.55021
2.56117
2.57035
2.5772
2.5813
2.58242
2.58087
2.57655
2.56964
2.56035
2.54916
2.26679
2.26717
2.26947
2.2744
2.28207
2.29255
2.30599
2.32254
2.34226
2.36509
2.39081
2.41894
2.44876
2.47928
2.50937
2.53782
2.56349
2.5854
2.60284
2.6154
2.62299
2.62578
2.62452
2.61956
2.61143
2.60072
2.58827
2.57471
2.56067
2.5467
2.53332
2.521
2.51014
2.50114
2.4943
2.4899
2.4881
2.48881
2.49205
2.49796
2.5061
2.51593
2.52676
2.53785
2.54843
2.55775
2.56519
2.57026
2.57262
2.57222
2.56941
2.56388
2.55587
2.54581
2.25432
2.25505
2.2579
2.26342
2.27168
2.2829
2.29731
2.31513
2.33651
2.36142
2.3896
2.42049
2.45321
2.48657
2.51923
2.54979
2.57697
2.59978
2.61753
2.62993
2.637
2.63903
2.63707
2.63118
2.62217
2.61071
2.59758
2.58342
2.56884
2.55437
2.54047
2.52759
2.51609
2.5063
2.49848
2.49288
2.48966
2.48891
2.49037
2.49428
2.50041
2.50838
2.51762
2.52749
2.53727
2.54627
2.55388
2.55952
2.5628
2.56346
2.56181
2.55754
2.55084
2.54193
2.24347
2.24469
2.24827
2.25452
2.26362
2.2758
2.2914
2.31071
2.3339
2.36092
2.39149
2.42492
2.46014
2.49579
2.53032
2.56221
2.59014
2.61313
2.63062
2.64242
2.6487
2.64985
2.64715
2.64049
2.63079
2.61882
2.6053
2.59085
2.57606
2.56142
2.54735
2.53425
2.52244
2.51218
2.50373
2.49726
2.49294
2.49084
2.49096
2.49302
2.49728
2.50335
2.51084
2.51921
2.52787
2.53616
2.5435
2.54931
2.55313
2.55464
2.55387
2.5508
2.54526
2.53748
2.23442
2.2363
2.24079
2.24797
2.2581
2.27152
2.28856
2.30955
2.33466
2.36385
2.39668
2.43234
2.46957
2.50682
2.54242
2.57479
2.60265
2.62513
2.64179
2.65261
2.65788
2.65814
2.65466
2.6474
2.63722
2.625
2.61136
2.59693
2.58223
2.56773
2.5538
2.54079
2.52896
2.51855
2.50975
2.50272
2.49757
2.4944
2.49323
2.49389
2.49638
2.50064
2.50631
2.51302
2.52029
2.52755
2.53424
2.53982
2.54383
2.54587
2.54573
2.54366
2.53921
2.53248
2.22736
2.23013
2.23567
2.244
2.2554
2.27027
2.28897
2.31185
2.33902
2.37033
2.40523
2.4427
2.48132
2.51939
2.55519
2.58718
2.61419
2.6355
2.65084
2.66035
2.66443
2.6639
2.65957
2.65187
2.64145
2.6292
2.61572
2.60158
2.58727
2.57318
2.55967
2.54701
2.53544
2.52513
2.51625
2.50891
2.50321
2.49921
2.49694
2.4964
2.49736
2.49991
2.50382
2.50881
2.51451
2.52047
2.5262
2.5312
2.53502
2.53726
2.5376
2.5362
2.53264
2.52691
2.22251
2.22637
2.23311
2.24277
2.25567
2.27224
2.29284
2.31775
2.34703
2.38035
2.417
2.45576
2.49505
2.53311
2.56824
2.59901
2.62444
2.644
2.65763
2.66559
2.66836
2.66701
2.66197
2.65393
2.64348
2.63144
2.61837
2.60479
2.59111
2.57769
2.56483
2.55275
2.54165
2.53167
2.52293
2.51551
2.50948
2.50489
2.50176
2.50009
2.49985
2.50081
2.50308
2.50636
2.51042
2.5149
2.51942
2.52354
2.52685
2.52894
2.5295
2.52852
2.52567
2.52076
2.22008
2.22519
2.23329
2.24447
2.25912
2.2776
2.30028
2.3273
2.35862
2.39373
2.43167
2.47108
2.51027
2.54748
2.5811
2.60991
2.63314
2.6505
2.66211
2.66832
2.66978
2.66765
2.66204
2.65376
2.64348
2.63183
2.61938
2.60655
2.59372
2.58117
2.56914
2.55784
2.5474
2.53793
2.52951
2.5222
2.51604
2.51106
2.50728
2.5047
2.5033
2.50302
2.50373
2.50541
2.50781
2.51075
2.5139
2.51689
2.5194
2.52105
2.5215
2.52071
2.51835
2.51406
2.22014
2.2267
2.23637
2.2493
2.26587
2.28645
2.31126
2.34039
2.37355
2.41004
2.44873
2.48808
2.52638
2.56192
2.59329
2.61952
2.64008
2.65492
2.66428
2.66873
2.66892
2.66592
2.6599
2.65154
2.64154
2.63049
2.61882
2.60691
2.59507
2.58355
2.57253
2.56214
2.5525
2.54368
2.53573
2.52868
2.52256
2.51737
2.51313
2.50983
2.50747
2.50602
2.50544
2.50562
2.50646
2.50785
2.50955
2.51126
2.51276
2.51368
2.51377
2.51289
2.51069
2.50692
2.22284
2.23105
2.24247
2.25734
2.27601
2.29875
2.32569
2.35672
2.39138
2.42875
2.46752
2.50606
2.54268
2.57584
2.60436
2.62753
2.6451
2.65719
2.66426
2.66689
2.66599
2.66209
2.65571
2.64743
2.63786
2.62752
2.61677
2.60592
2.59521
2.58483
2.57491
2.56555
2.55682
2.54875
2.54138
2.53472
2.52876
2.52351
2.51897
2.51513
2.512
2.50956
2.5078
2.50667
2.5061
2.50601
2.50623
2.50662
2.50694
2.50693
2.50643
2.50515
2.50284
2.49936
2.22831
2.23831
2.25168
2.26864
2.28947
2.31435
2.34324
2.37587
2.41154
2.44915
2.48726
2.52424
2.55848
2.58866
2.61388
2.63369
2.64807
2.65738
2.66214
2.66307
2.66104
2.6564
2.64973
2.64163
2.63264
2.62313
2.6134
2.6037
2.59419
2.58502
2.57628
2.56801
2.56024
2.55301
2.54629
2.5401
2.53441
2.52921
2.52451
2.52029
2.51656
2.51332
2.51057
2.50829
2.50644
2.50499
2.50384
2.50288
2.50196
2.50089
2.49954
2.49762
2.49499
2.49149
2.23656
2.24854
2.26398
2.28311
2.30608
2.33293
2.36348
2.39723
2.43329
2.47043
2.50714
2.54185
2.57312
2.59988
2.6215
2.63779
2.64895
2.6555
2.65804
2.65746
2.6543
2.64901
2.64221
2.63442
2.62608
2.61748
2.60888
2.60037
2.59212
2.5842
2.57665
2.5695
2.56273
2.55635
2.55034
2.54467
2.53932
2.53427
2.52952
2.52506
2.52089
2.51702
2.51346
2.51021
2.50727
2.50461
2.50219
2.49995
2.49779
2.49559
2.49321
2.49049
2.48729
2.48348
2.24756
2.26165
2.27928
2.30055
2.32552
2.35406
2.3858
2.42006
2.45582
2.49175
2.52635
2.55819
2.58603
2.60907
2.62694
2.63968
2.64772
2.65163
2.65215
2.65014
2.64595
2.64016
2.63336
2.62601
2.61844
2.61084
2.60336
2.59613
2.58917
2.5825
2.57614
2.57006
2.56429
2.55876
2.55345
2.54833
2.54337
2.53854
2.53383
2.52923
2.52476
2.52043
2.51624
2.51221
2.50836
2.50467
2.50114
2.49773
2.49439
2.49103
2.48756
2.48388
2.47989
2.47549
2.26125
2.27756
2.29736
2.32065
2.34734
2.37713
2.40949
2.44358
2.4783
2.51229
2.54417
2.57264
2.59674
2.61592
2.63
2.6393
2.64434
2.64582
2.64462
2.64119
2.63614
2.63003
2.62343
2.61669
2.60999
2.60346
2.59717
2.59117
2.58546
2.58002
2.57482
2.56982
2.56498
2.56025
2.55562
2.55105
2.54649
2.54191
2.53731
2.53268
2.52802
2.52336
2.51872
2.5141
2.50953
2.50502
2.50056
2.49614
2.49171
2.48724
2.48266
2.47791
2.47293
2.4677
2.27747
2.29601
2.31789
2.34296
2.37095
2.40145
2.43376
2.46697
2.49993
2.53136
2.55999
2.58474
2.60491
2.62014
2.63056
2.63658
2.63884
2.63824
2.63532
2.63069
2.625
2.61888
2.6127
2.60667
2.60091
2.59548
2.59039
2.58563
2.58114
2.57688
2.57278
2.56878
2.56483
2.56088
2.55688
2.55282
2.54865
2.54435
2.53989
2.53529
2.53056
2.52571
2.52076
2.51573
2.51064
2.50551
2.50033
2.49508
2.48973
2.48425
2.47858
2.47269
2.46657
2.46024
2.29597
2.31668
2.34042
2.36689
2.3957
2.42628
2.45786
2.48949
2.52005
2.54837
2.57336
2.59415
2.61027
2.62165
2.62855
2.63149
2.63131
2.62875
2.62426
2.61869
2.61276
2.60688
2.60127
2.59608
2.59135
2.58707
2.58319
2.57965
2.57635
2.57321
2.57014
2.56708
2.56395
2.56069
2.55728
2.55369
2.54988
2.54585
2.54157
2.53705
2.53231
2.52738
2.52226
2.51699
2.51158
2.50604
2.50035
2.49449
2.48839
2.48203
2.47534
2.46829
2.4609
2.45324
2.31645
2.33914
2.36443
2.39185
2.4209
2.45091
2.48109
2.5105
2.53811
2.56291
2.58394
2.60065
2.61271
2.62034
2.62389
2.62402
2.62164
2.61713
2.6114
2.60536
2.59946
2.59404
2.58918
2.58498
2.5814
2.57835
2.57572
2.57338
2.57123
2.56914
2.56703
2.56481
2.56241
2.55979
2.55689
2.5537
2.55023
2.54645
2.54236
2.53795
2.53327
2.52834
2.52319
2.51783
2.51229
2.50654
2.50057
2.49431
2.48769
2.4806
2.47298
2.46476
2.45599
2.44676
2.33851
2.36291
2.38933
2.41719
2.44587
2.4747
2.50288
2.52953
2.55377
2.57468
2.59165
2.60407
2.61213
2.61622
2.61646
2.61413
2.60938
2.60323
2.59671
2.5905
2.58501
2.58026
2.57644
2.57343
2.57115
2.56943
2.56808
2.56695
2.5659
2.56481
2.56357
2.56211
2.56035
2.55826
2.55581
2.55297
2.54978
2.54623
2.54231
2.53804
2.53346
2.52861
2.52352
2.51821
2.5127
2.50695
2.50093
2.49449
2.4876
2.47997
2.4716
2.46222
2.45192
2.44085
2.36171
2.38745
2.41454
2.44229
2.47004
2.49713
2.52281
2.54629
2.56678
2.58374
2.59625
2.6046
2.60868
2.60887
2.60635
2.60111
2.59416
2.58679
2.57988
2.5739
2.56911
2.56545
2.56298
2.56143
2.56063
2.56036
2.56035
2.56044
2.56046
2.5603
2.55985
2.55905
2.55784
2.5562
2.55411
2.55157
2.54861
2.54524
2.54149
2.53737
2.53292
2.52821
2.52328
2.51814
2.5128
2.50723
2.50141
2.49506
2.48805
2.48013
2.47124
2.46079
2.44912
2.43586
2.38554
2.41222
2.43949
2.46662
2.49296
2.51786
2.54066
2.56063
2.57717
2.58979
2.59815
2.60201
2.60189
2.5987
2.5925
2.58437
2.57548
2.56728
2.5604
2.55508
2.55145
2.54936
2.54864
2.54889
2.54982
2.55116
2.55258
2.5539
2.55495
2.55566
2.55592
2.55569
2.55496
2.55369
2.55188
2.54957
2.54679
2.54358
2.53996
2.53598
2.53169
2.52716
2.52245
2.51759
2.51258
2.50739
2.50194
2.49592
2.48913
2.48116
2.47208
2.46072
2.44815
2.43372
2.40952
2.4367
2.46368
2.48976
2.5143
2.53668
2.5563
2.57266
2.58501
2.5932
2.59701
2.59641
2.59211
2.58439
2.57421
2.56309
2.55257
2.54388
2.53749
2.53345
2.53159
2.53168
2.53319
2.53567
2.53867
2.54181
2.54472
2.54732
2.5494
2.55092
2.55182
2.55209
2.55174
2.55077
2.54918
2.54703
2.54438
2.5413
2.5378
2.53395
2.52981
2.52549
2.52106
2.51656
2.51202
2.50737
2.50252
2.49709
2.49082
2.4831
2.47445
2.46234
2.4495
2.4348
2.43317
2.46042
2.48673
2.51142
2.53388
2.55355
2.56987
2.58241
2.59056
2.5942
2.59334
2.58804
2.57829
2.56535
2.5507
2.53626
2.52413
2.51532
2.51015
2.50806
2.5088
2.51177
2.51641
2.52166
2.52706
2.5322
2.53675
2.54066
2.54376
2.54605
2.54754
2.54823
2.54819
2.54747
2.54604
2.54402
2.54146
2.53846
2.53505
2.53131
2.52733
2.52324
2.51911
2.51505
2.51107
2.50711
2.50305
2.49849
2.49328
2.48617
2.47862
2.46708
2.45142
2.43385
2.45605
2.48302
2.50834
2.53142
2.55166
2.56857
2.58152
2.59027
2.59433
2.59337
2.58786
2.57682
2.56122
2.54265
2.52202
2.50294
2.48811
2.48019
2.47703
2.47778
2.48213
2.48942
2.49793
2.5066
2.51486
2.52226
2.52863
2.53386
2.53797
2.541
2.54302
2.54409
2.5443
2.54376
2.54248
2.54054
2.53805
2.53511
2.53177
2.52811
2.52426
2.52038
2.51658
2.513
2.5097
2.50655
2.50352
2.50013
2.49611
2.49057
2.48333
2.47334
2.46164
2.44607
2.4778
2.50418
2.52832
2.54966
2.56764
2.58179
2.5915
2.59685
2.59699
2.59223
2.58188
2.56515
2.54389
2.51796
2.48976
2.46423
2.44443
2.43817
2.43706
2.44126
2.45108
2.46384
2.47727
2.49021
2.50184
2.51186
2.52016
2.52681
2.53193
2.53567
2.53817
2.53958
2.54002
2.53964
2.53848
2.53662
2.53418
2.53128
2.52797
2.52437
2.52061
2.51691
2.51344
2.51034
2.50776
2.50561
2.50373
2.50186
2.49902
2.49554
2.48863
2.48089
2.46922
2.45271
2.49809
2.52366
2.54651
2.56612
2.58193
2.59345
2.60035
2.60268
2.59966
2.59165
2.57832
2.55286
2.52477
2.49081
2.45477
2.41779
2.39321
2.39088
2.38941
2.39904
2.41582
2.43527
2.45465
2.47251
2.48801
2.5009
2.51127
2.51938
2.5255
2.52992
2.53289
2.53462
2.53529
2.53505
2.53402
2.53224
2.52985
2.52698
2.52368
2.52008
2.51638
2.5128
2.5096
2.50698
2.50521
2.50416
2.50352
2.50293
2.50181
2.49857
2.49376
2.48405
2.47015
2.45153
2.51666
2.54131
2.56288
2.58084
2.5946
2.60409
2.60861
2.60858
2.60317
2.58922
2.5716
2.54999
2.51833
2.4779
2.43121
2.38189
2.3462
2.334
2.32828
2.35256
2.37761
2.40453
2.43046
2.45375
2.47342
2.48935
2.50186
2.51142
2.51853
2.52361
2.52704
2.5291
2.53
2.52993
2.52906
2.52738
2.52507
2.52221
2.5189
2.51526
2.51153
2.508
2.50497
2.50288
2.50188
2.50184
2.50238
2.50316
2.50378
2.50021
2.49111
2.47779
2.46163
2.4421
2.5333
2.55704
2.57748
2.59397
2.60588
2.61365
2.61628
2.61337
2.60466
2.5919
2.57239
2.5443
2.50683
2.46077
2.40694
2.35011
2.30207
2.27973
2.28573
2.30441
2.34109
2.37448
2.40649
2.43495
2.45857
2.47736
2.49189
2.50284
2.51088
2.51661
2.52049
2.52289
2.52407
2.52423
2.52355
2.52203
2.51981
2.51698
2.51364
2.50991
2.50605
2.50244
2.49957
2.49785
2.49749
2.49789
2.49942
2.50208
2.4992
2.4907
2.47885
2.46396
2.44639
2.42597
2.54784
2.57072
2.59019
2.60575
2.61617
2.62176
2.6216
2.61901
2.6111
2.59285
2.56909
2.53646
2.49529
2.4453
2.38734
2.32691
2.27399
2.24425
2.24907
2.27129
2.31097
2.34949
2.38574
2.41775
2.44424
2.4653
2.48148
2.4936
2.50247
2.50879
2.51313
2.51591
2.51743
2.51789
2.51745
2.51616
2.51408
2.5113
2.5079
2.50401
2.4999
2.49614
2.49335
2.49157
2.49177
2.49123
2.49448
2.49223
2.48483
2.47483
2.46153
2.44534
2.42651
2.40542
2.56037
2.58267
2.60056
2.61519
2.62494
2.62774
2.6297
2.62615
2.61201
2.5921
2.56583
2.5304
2.48626
2.4335
2.3735
2.31391
2.26039
2.22853
2.23088
2.25216
2.29181
2.33183
2.36963
2.40317
2.43119
2.45356
2.47081
2.48376
2.49327
2.50011
2.5049
2.5081
2.51
2.51085
2.51074
2.50975
2.50788
2.50518
2.5017
2.49756
2.49311
2.489
2.48603
2.48351
2.48481
2.48976
2.48386
2.47571
2.46696
2.45538
2.44072
2.42314
2.40327
2.38203
2.57051
2.59332
2.60936
2.62187
2.62792
2.63995
2.63543
2.62791
2.61295
2.5915
2.56311
2.52613
2.48048
2.42683
2.36798
2.31036
2.25731
2.2287
2.22949
2.24999
2.2845
2.32213
2.35888
2.39188
2.41984
2.44245
2.46006
2.47341
2.48333
2.49059
2.4958
2.49942
2.50178
2.50307
2.50339
2.50278
2.50118
2.49859
2.49502
2.49064
2.48571
2.48105
2.47642
2.48084
2.47682
2.47007
2.4657
2.45775
2.4471
2.43355
2.41715
2.39823
2.37779
2.35723
2.57522
2.5991
2.6151
2.6348
2.63737
2.64204
2.63908
2.62968
2.61368
2.59125
2.5617
2.5241
2.47827
2.42521
2.36782
2.31196
2.26591
2.24086
2.2383
2.25713
2.28649
2.31976
2.3531
2.38373
2.41021
2.43207
2.44937
2.4627
2.47278
2.48031
2.48588
2.48992
2.49275
2.49455
2.49538
2.49523
2.49398
2.49147
2.48782
2.48339
2.47707
2.47627
2.47189
2.46253
2.45871
2.45311
2.4464
2.43703
2.42466
2.40926
2.39125
2.37137
2.35104
2.33225
2.58432
2.59994
2.61743
2.63461
2.64266
2.64477
2.64106
2.63097
2.61451
2.59162
2.5616
2.52402
2.47893
2.42756
2.37299
2.32125
2.28033
2.2567
2.25455
2.26881
2.29282
2.32139
2.35066
2.37801
2.40209
2.42237
2.43878
2.45173
2.46174
2.4694
2.47522
2.47963
2.48292
2.48526
2.48669
2.48713
2.48633
2.48376
2.47965
2.47706
2.47155
2.46047
2.45391
2.44803
2.4418
2.43478
2.42608
2.41476
2.40033
2.38305
2.36364
2.34332
2.32404
2.3084
2.58811
2.61166
2.62823
2.63927
2.64555
2.64674
2.64257
2.63221
2.61559
2.59268
2.56273
2.52573
2.48189
2.43273
2.3816
2.33402
2.29711
2.27409
2.2717
2.2819
2.30113
2.32491
2.3499
2.37379
2.39516
2.41341
2.4285
2.44069
2.45039
2.458
2.46397
2.46865
2.47233
2.47519
2.47728
2.47849
2.47854
2.4779
2.47492
2.46779
2.45575
2.44685
2.43956
2.43232
2.42444
2.41559
2.40466
2.39102
2.37439
2.35527
2.33488
2.3149
2.29794
2.28653
2.59408
2.61544
2.63177
2.64283
2.6481
2.64852
2.64397
2.63347
2.61688
2.59418
2.56457
2.52834
2.48591
2.43889
2.39072
2.3464
2.31156
2.2919
2.28748
2.2944
2.30927
2.32865
2.34961
2.37012
2.38882
2.40505
2.41869
2.42989
2.43902
2.44639
2.45231
2.4571
2.46101
2.46427
2.46698
2.46901
2.46965
2.46771
2.46233
2.4525
2.44212
2.43299
2.42455
2.41579
2.4063
2.39529
2.38199
2.3659
2.34708
2.32639
2.30558
2.28706
2.2736
2.26718
2.60011
2.61998
2.63523
2.64539
2.65005
2.65017
2.6453
2.63466
2.61807
2.59555
2.56638
2.53106
2.4901
2.44512
2.39948
2.35778
2.32496
2.30683
2.3009
2.3047
2.31613
2.33174
2.34909
2.36648
2.38267
2.39698
2.40921
2.41942
2.42786
2.43478
2.44044
2.44511
2.44904
2.45246
2.45553
2.45783
2.45835
2.455
2.44922
2.43812
2.4277
2.41809
2.40846
2.39829
2.38708
2.37378
2.35798
2.33943
2.3186
2.29685
2.27654
2.26075
2.25162
2.24934
2.60556
2.62427
2.63853
2.64778
2.65176
2.65159
2.64633
2.63545
2.61881
2.5964
2.56767
2.53314
2.49354
2.4505
2.40713
2.36735
2.33623
2.31909
2.3105
2.31228
2.32121
2.3337
2.34801
2.36265
2.37657
2.38912
2.40001
2.40924
2.41695
2.4233
2.42852
2.43284
2.4365
2.43973
2.44264
2.44468
2.44424
2.44346
2.43541
2.42346
2.41263
2.40221
2.39145
2.37974
2.36661
2.35093
2.33261
2.31175
2.28931
2.26722
2.24855
2.23639
2.23157
2.23377
2.6106
2.62824
2.64153
2.64986
2.65324
2.65259
2.6468
2.63558
2.61874
2.59624
2.56776
2.53367
2.49503
2.45347
2.41218
2.37453
2.34495
2.32776
2.31567
2.31834
2.32478
2.33431
2.3462
2.35854
2.37055
2.38153
2.39119
2.39946
2.40639
2.41209
2.41675
2.42056
2.42377
2.42659
2.42911
2.43071
2.42926
2.42903
2.41974
2.4076
2.39661
2.38542
2.37345
2.36015
2.34473
2.3267
2.30594
2.2831
2.25969
2.23827
2.22231
2.21418
2.21309
2.22065
2.61542
2.63191
2.64418
2.65155
2.65422
2.65293
2.64643
2.63469
2.61744
2.5946
2.56622
2.53239
2.49455
2.45433
2.41464
2.37861
2.34951
2.33058
2.32287
2.3204
2.325
2.33333
2.34344
2.35418
2.36465
2.37431
2.38286
2.3902
2.39633
2.40133
2.40533
2.40852
2.4112
2.41355
2.41541
2.41595
2.41309
2.4123
2.40169
2.3907
2.37952
2.36761
2.35425
2.33931
2.32154
2.30125
2.27823
2.25389
2.23029
2.2107
2.19823
2.19375
2.19689
2.20972
2.62
2.63527
2.64643
2.65264
2.65448
2.65228
2.64491
2.63242
2.61455
2.59116
2.56275
2.52903
2.49191
2.45288
2.41477
2.38025
2.35208
2.33282
2.32439
2.32191
2.32576
2.33134
2.34031
2.34963
2.35902
2.36757
2.3751
2.38155
2.38685
2.39113
2.39443
2.39692
2.39893
2.40065
2.40149
2.40129
2.39916
2.39316
2.38388
2.3731
2.36163
2.34878
2.33415
2.31714
2.29727
2.27465
2.2499
2.22471
2.20186
2.18505
2.17665
2.17515
2.18297
2.20068
2.62425
2.63815
2.64804
2.6529
2.65382
2.65041
2.64198
2.62855
2.60986
2.58585
2.55742
2.5239
2.48767
2.45007
2.41365
2.38079
2.35358
2.33376
2.32427
2.32266
2.32398
2.32973
2.33716
2.34559
2.35381
2.36139
2.36799
2.37354
2.37801
2.38149
2.38415
2.38561
2.38678
2.38781
2.39012
2.38519
2.38213
2.37475
2.36574
2.35513
2.3431
2.32926
2.31287
2.29425
2.27216
2.24753
2.22156
2.19629
2.17522
2.16193
2.15689
2.15913
2.1714
2.19329
2.62792
2.64046
2.64867
2.65214
2.65197
2.64714
2.6375
2.62299
2.60345
2.57894
2.55049
2.51765
2.48271
2.44703
2.41267
2.38156
2.35548
2.33566
2.32495
2.32208
2.32311
2.32704
2.33354
2.34158
2.34919
2.35582
2.36154
2.36623
2.36994
2.37255
2.3743
2.37442
2.37855
2.37859
2.3735
2.36908
2.36379
2.35703
2.34797
2.33707
2.3243
2.30913
2.29142
2.27051
2.24659
2.22052
2.19394
2.16951
2.15116
2.14146
2.13927
2.14577
2.1622
2.18771
2.63074
2.6417
2.64813
2.65024
2.64865
2.64237
2.63145
2.61587
2.5956
2.57086
2.54267
2.51125
2.4782
2.44507
2.41308
2.38411
2.3594
2.33987
2.32733
2.32365
2.32462
2.32326
2.33152
2.33803
2.34499
2.35097
2.35576
2.35954
2.36216
2.36376
2.3659
2.3671
2.36518
2.36212
2.35762
2.35333
2.34777
2.34026
2.33096
2.31936
2.3057
2.28899
2.26978
2.24692
2.22142
2.19437
2.16792
2.14524
2.13006
2.12367
2.12449
2.13502
2.1552
2.18392
2.63231
2.64156
2.64617
2.64698
2.64381
2.63611
2.62399
2.6075
2.58681
2.56233
2.53486
2.50561
2.47519
2.44503
2.41626
2.38958
2.3664
2.34708
2.33278
2.32544
2.32454
2.32516
2.32961
2.33567
2.34148
2.34597
2.34997
2.35281
2.35538
2.35867
2.35454
2.35437
2.35071
2.34878
2.34405
2.33961
2.33317
2.32527
2.31516
2.30282
2.28763
2.26987
2.24856
2.22419
2.19748
2.17005
2.1444
2.12427
2.11244
2.10872
2.11291
2.12705
2.15039
2.18166
2.6323
2.63967
2.64262
2.64212
2.63746
2.62852
2.61543
2.59838
2.57772
2.55408
2.52831
2.50142
2.47439
2.4479
2.42254
2.39893
2.37719
2.35778
2.34121
2.33113
2.32434
2.3289
2.33216
2.33443
2.33848
2.34198
2.34465
2.34722
2.35211
2.34927
2.34517
2.34201
2.33946
2.33674
2.33265
2.3276
2.32078
2.31219
2.30123
2.28775
2.27135
2.25179
2.22897
2.20323
2.17575
2.14851
2.12438
2.10702
2.09849
2.09719
2.10476
2.12204
2.14795
2.18131
2.63028
2.63577
2.6374
2.63555
2.62967
2.61981
2.60618
2.58908
2.56907
2.5469
2.52343
2.49955
2.47614
2.45354
2.43209
2.41172
2.39208
2.37323
2.3557
2.34324
2.33989
2.32835
2.3274
2.33376
2.33491
2.33969
2.345
2.34508
2.34332
2.33926
2.33677
2.33388
2.33128
2.32823
2.3239
2.31822
2.31083
2.30134
2.28942
2.27484
2.25702
2.23594
2.2117
2.18497
2.1572
2.13065
2.10849
2.09406
2.08835
2.08944
2.10016
2.1201
2.14826
2.18316
2.62588
2.62975
2.63033
2.62734
2.62063
2.61031
2.59667
2.58016
2.56146
2.54137
2.5207
2.50005
2.48005
2.46139
2.44344
2.4262
2.40907
2.39182
2.37495
2.35919
2.34927
2.34406
2.33627
2.34268
2.34526
2.34261
2.33956
2.33834
2.3347
2.33348
2.33059
2.32881
2.32595
2.32272
2.31798
2.3118
2.30366
2.29342
2.28035
2.26463
2.24543
2.22304
2.19767
2.17034
2.1427
2.11721
2.09731
2.08565
2.08192
2.08563
2.09901
2.12126
2.15138
2.18769
2.6189
2.62161
2.62133
2.61763
2.61057
2.60035
2.58733
2.57206
2.55527
2.5377
2.51999
2.50261
2.48593
2.4703
2.45539
2.44061
2.42577
2.41059
2.39475
2.37889
2.36476
2.35366
2.34969
2.34587
2.34379
2.33938
2.33672
2.33598
2.33227
2.33081
2.32805
2.32635
2.32346
2.32005
2.31501
2.30841
2.29952
2.28853
2.2745
2.25755
2.23719
2.21372
2.18762
2.16012
2.133
2.10877
2.09103
2.08155
2.07937
2.08537
2.10077
2.12535
2.15751
2.19523
2.6094
2.61135
2.61053
2.60662
2.59977
2.59026
2.57846
2.56501
2.55058
2.53579
2.52102
2.50663
2.49283
2.47963
2.46673
2.4539
2.44052
2.42618
2.41083
2.39524
2.38053
2.36773
2.35921
2.35145
2.34592
2.3403
2.3384
2.33584
2.33271
2.33111
2.32866
2.32674
2.32393
2.32034
2.31509
2.30805
2.29856
2.28678
2.2719
2.25391
2.23271
2.20859
2.18224
2.15498
2.12867
2.1057
2.08944
2.08139
2.08011
2.08769
2.10499
2.13177
2.16597
2.20545
2.59757
2.59911
2.59817
2.59459
2.58855
2.58028
2.57026
2.55905
2.54719
2.53516
2.52313
2.51131
2.49986
2.48856
2.4771
2.46505
2.45198
2.43768
2.42228
2.40667
2.39149
2.37792
2.36679
2.35753
2.35036
2.34449
2.34127
2.3381
2.33555
2.33362
2.33161
2.32965
2.32686
2.32312
2.31766
2.31018
2.30032
2.28792
2.27248
2.25393
2.23236
2.20811
2.18197
2.15525
2.12958
2.10725
2.09179
2.08426
2.0835
2.092
2.11046
2.13903
2.17562
2.21762
2.5838
2.5852
2.58466
2.5819
2.57714
2.57056
2.56267
2.55391
2.54467
2.53519
2.52554
2.51586
2.50602
2.49579
2.4848
2.47272
2.45933
2.44461
2.42891
2.41294
2.39754
2.38361
2.37167
2.36194
2.3543
2.34854
2.34489
2.34195
2.33977
2.33811
2.33649
2.33465
2.33199
2.32805
2.32242
2.31467
2.3045
2.29164
2.27583
2.25708
2.23548
2.21147
2.18587
2.15989
2.1351
2.11348
2.09793
2.0901
2.08891
2.09686
2.11517
2.14491
2.18422
2.2298
2.56843
2.57008
2.57034
2.56881
2.56568
2.5611
2.55551
2.54921
2.54237
2.53499
2.52718
2.5189
2.50992
2.49999
2.48882
2.47622
2.46217
2.44688
2.43081
2.4147
2.39942
2.38572
2.374
2.3646
2.35743
2.35229
2.34892
2.34674
2.34523
2.34416
2.34304
2.34148
2.33902
2.33521
2.32953
2.32165
2.3114
2.29837
2.28256
2.26391
2.24267
2.21931
2.19465
2.16979
2.14591
2.12443
2.10766
2.0978
2.09511
2.10067
2.11705
2.14667
2.18884
2.2397
2.55192
2.55438
2.5555
2.55552
2.55418
2.55166
2.54829
2.54415
2.53921
2.5334
2.52677
2.51918
2.51039
2.5002
2.48844
2.4751
2.46034
2.44454
2.42832
2.41246
2.39775
2.38487
2.37409
2.36579
2.35975
2.35572
2.35331
2.35212
2.35152
2.35124
2.35079
2.34976
2.3476
2.34389
2.33825
2.33043
2.32011
2.30717
2.29158
2.27344
2.25302
2.23084
2.20754
2.18393
2.16082
2.13915
2.12033
2.10659
2.10095
2.10178
2.11402
2.14098
2.18512
2.24355
2.535
2.53825
2.5407
2.5421
2.54246
2.54189
2.54031
2.53785
2.53424
2.52939
2.5233
2.51578
2.50666
2.4958
2.48323
2.46908
2.45372
2.43773
2.4218
2.40671
2.39318
2.38172
2.37255
2.36582
2.36139
2.35894
2.35802
2.35804
2.35861
2.35927
2.35951
2.35899
2.35716
2.35364
2.34808
2.34035
2.33017
2.31756
2.30257
2.28537
2.26626
2.24566
2.22397
2.20171
2.17927
2.15703
2.13574
2.11677
2.1037
2.09835
2.10253
2.12226
2.1659
2.23668
2.51814
2.52216
2.52569
2.52848
2.5304
2.5312
2.53093
2.52946
2.52653
2.52203
2.51586
2.50789
2.49803
2.4863
2.47288
2.45813
2.44258
2.4269
2.41183
2.39808
2.38626
2.37671
2.36963
2.36498
2.36263
2.36207
2.36273
2.36426
2.36612
2.36791
2.36889
2.36894
2.36752
2.36425
2.35892
2.35146
2.34171
2.32977
2.31576
2.2999
2.28244
2.26367
2.24378
2.2228
2.20068
2.17751
2.15335
2.12892
2.10543
2.08898
2.08239
2.091
2.12842
2.2103
2.5365
2.52276
2.50838
2.49373
2.47919
2.46509
2.45174
2.43944
2.42847
2.41912
2.41166
2.40637
2.40358
2.40357
2.40587
2.41149
2.42033
2.43244
2.44768
2.46576
2.53407
2.52105
2.50717
2.49284
2.47842
2.46428
2.45076
2.43815
2.42677
2.41691
2.40886
2.40293
2.39943
2.39873
2.40042
2.40539
2.4136
2.42526
2.44024
2.45832
2.53118
2.51898
2.50575
2.49188
2.47775
2.46376
2.45024
2.43753
2.42596
2.41584
2.40747
2.40118
2.3973
2.39619
2.39756
2.40213
2.41001
2.42142
2.43624
2.45429
2.52778
2.51649
2.50402
2.49075
2.47708
2.4634
2.45008
2.43748
2.42594
2.4158
2.40739
2.40104
2.39708
2.39589
2.3972
2.40167
2.40952
2.42091
2.4357
2.4537
2.52381
2.51349
2.50187
2.48934
2.47627
2.46307
2.45014
2.43785
2.42657
2.41666
2.40846
2.40232
2.3986
2.39764
2.39912
2.40383
2.41194
2.4235
2.43838
2.4563
2.51923
2.5099
2.49921
2.48751
2.47518
2.46264
2.45028
2.43851
2.42773
2.41831
2.41061
2.405
2.40183
2.40142
2.40335
2.40863
2.41729
2.42922
2.44424
2.46199
2.514
2.50564
2.49591
2.48513
2.47367
2.46193
2.45032
2.43929
2.42924
2.42057
2.41366
2.40889
2.4066
2.40692
2.40969
2.41586
2.42526
2.43766
2.45282
2.47035
2.50813
2.50067
2.4919
2.48209
2.47158
2.46078
2.4501
2.44001
2.43093
2.42327
2.41745
2.4138
2.41268
2.41391
2.418
2.42527
2.43553
2.44844
2.4637
2.48089
2.50165
2.49498
2.4871
2.47825
2.46875
2.459
2.44942
2.44046
2.43259
2.42622
2.42176
2.41955
2.41982
2.42234
2.42798
2.43656
2.44769
2.4611
2.47639
2.49309
2.4946
2.48858
2.48147
2.47353
2.46506
2.45643
2.44807
2.44045
2.43401
2.4292
2.42639
2.4259
2.42762
2.43206
2.43943
2.44926
2.46129
2.47515
2.49036
2.50639
2.48702
2.4815
2.47503
2.46789
2.4604
2.45292
2.44588
2.43975
2.43497
2.43197
2.4311
2.43241
2.43618
2.4428
2.45179
2.46293
2.47585
2.49007
2.50505
2.52024
2.47897
2.47374
2.46779
2.46131
2.45468
2.44831
2.44265
2.43814
2.43521
2.43427
2.43545
2.43904
2.44531
2.45393
2.46466
2.47713
2.49087
2.50531
2.51988
2.53407
2.47065
2.46536
2.45968
2.45373
2.44782
2.44247
2.43817
2.43536
2.43446
2.43567
2.43933
2.44568
2.45433
2.46509
2.47761
2.49138
2.50582
2.52032
2.53432
2.54737
2.4622
2.4565
2.45072
2.44503
2.43969
2.43521
2.4322
2.43114
2.43222
2.43599
2.44265
2.45169
2.46288
2.4759
2.4902
2.50517
2.52016
2.53455
2.54785
2.55969
2.45376
2.44726
2.44093
2.43509
2.43004
2.42625
2.42442
2.42496
2.42824
2.43511
2.44476
2.45671
2.4706
2.4859
2.50193
2.51799
2.53338
2.54754
2.56004
2.57065
2.44542
2.43766
2.43027
2.4237
2.41847
2.41511
2.41436
2.41631
2.42226
2.43237
2.44525
2.46036
2.47706
2.49466
2.51236
2.52938
2.54506
2.55889
2.57057
2.57998
2.43721
2.42766
2.41858
2.41061
2.4045
2.40107
2.40116
2.40483
2.41368
2.42722
2.44377
2.46223
2.48188
2.5018
2.5211
2.53899
2.55487
2.56833
2.5792
2.58752
2.42921
2.41722
2.40566
2.3954
2.38751
2.38325
2.38405
2.38968
2.40165
2.41924
2.43975
2.46192
2.4847
2.50702
2.5279
2.54661
2.56264
2.57575
2.58589
2.59324
2.42187
2.40679
2.3919
2.37826
2.36699
2.36074
2.36216
2.36956
2.3858
2.40782
2.43291
2.45924
2.48536
2.51018
2.53267
2.5522
2.56841
2.58121
2.59073
2.59725
2.41674
2.39775
2.37856
2.36053
2.34359
2.3327
2.33559
2.3448
2.3652
2.39258
2.42302
2.45404
2.48397
2.51144
2.53561
2.55599
2.57243
2.585
2.59398
2.59979
2.41488
2.39021
2.36584
2.34146
2.31839
2.29972
2.30255
2.31585
2.34025
2.37402
2.41083
2.44708
2.48102
2.51133
2.53726
2.55853
2.57522
2.58761
2.5961
2.60124
2.4134
2.39623
2.37166
2.34163
2.3119
2.28372
2.27372
2.2853
2.31147
2.35383
2.3979
2.43972
2.47784
2.51094
2.53853
2.56065
2.57756
2.58972
2.59765
2.60206
2.42591
2.40216
2.37319
2.34049
2.30307
2.26911
2.25328
2.25772
2.28669
2.33498
2.38671
2.43438
2.47637
2.51181
2.54074
2.56341
2.58034
2.59209
2.5993
2.60277
2.43087
2.40418
2.37246
2.33648
2.29879
2.26514
2.24785
2.25141
2.27572
2.32349
2.38148
2.43386
2.47838
2.51535
2.54501
2.56783
2.58447
2.59557
2.60176
2.6039
2.42858
2.40098
2.36935
2.33452
2.29826
2.26747
2.25023
2.25218
2.28194
2.33009
2.38565
2.43934
2.48491
2.52203
2.55151
2.57391
2.59006
2.60031
2.60519
2.60555
2.41872
2.3919
2.36235
2.33118
2.30086
2.27555
2.26382
2.27251
2.30231
2.34618
2.3964
2.44663
2.49326
2.5311
2.5611
2.58261
2.59805
2.60724
2.61042
2.60841
2.40282
2.37749
2.35174
2.3268
2.30522
2.29107
2.28646
2.29327
2.32039
2.36293
2.41145
2.458
2.49731
2.53061
2.55999
2.58523
2.60198
2.61131
2.61401
2.61052
2.38281
2.35988
2.3382
2.31996
2.30677
2.30136
2.30409
2.31919
2.34904
2.38859
2.43275
2.47541
2.51301
2.54503
2.57146
2.59178
2.60587
2.61328
2.61456
2.60646
2.36081
2.34126
2.32529
2.31483
2.31085
2.3135
2.32452
2.34495
2.37494
2.41128
2.45037
2.48864
2.52385
2.55489
2.58136
2.60292
2.61888
2.6277
2.62948
2.62218
2.33846
2.32352
2.31419
2.31117
2.31468
2.32578
2.34422
2.36978
2.40131
2.43656
2.47288
2.50786
2.53975
2.56753
2.59073
2.60932
2.62257
2.62879
2.62911
2.62166
2.3173
2.30799
2.3051
2.30883
2.31972
2.33763
2.36187
2.39135
2.42483
2.46009
2.49516
2.5282
2.55775
2.58288
2.60333
2.61902
2.62901
2.63282
2.63128
2.62286
2.29833
2.29483
2.29799
2.30875
2.32651
2.35046
2.37944
2.41204
2.44702
2.48247
2.51672
2.54822
2.5758
2.5988
2.61706
2.63026
2.63717
2.63917
2.63595
2.62672
2.28179
2.28354
2.29336
2.31073
2.33456
2.36365
2.39659
2.43187
2.46824
2.50396
2.53759
2.56785
2.59382
2.61499
2.63111
2.64139
2.6458
2.64608
2.64126
2.6314
2.26698
2.27505
2.29127
2.31451
2.34361
2.37706
2.41332
2.45087
2.48845
2.5245
2.55774
2.58709
2.61176
2.63118
2.64485
2.65215
2.65459
2.65288
2.64654
2.6362
2.25481
2.269
2.29104
2.31964
2.35329
2.39042
2.42944
2.46888
2.50747
2.5438
2.57672
2.60528
2.62866
2.64612
2.65685
2.66152
2.66209
2.65815
2.6504
2.63986
2.24507
2.26499
2.29234
2.32558
2.36311
2.4033
2.44461
2.48559
2.52498
2.56149
2.59405
2.62169
2.64349
2.65842
2.66584
2.66817
2.66625
2.66037
2.65181
2.64124
2.23749
2.26263
2.29461
2.33183
2.37259
2.41529
2.45841
2.50058
2.54052
2.57701
2.60897
2.63537
2.65496
2.66609
2.67063
2.67096
2.66686
2.65935
2.64988
2.63987
2.23163
2.26137
2.29735
2.33787
2.38126
2.42593
2.47043
2.51342
2.55359
2.58971
2.62067
2.64514
2.66085
2.66913
2.67153
2.66937
2.66291
2.65389
2.64388
2.63442
2.22711
2.2608
2.3001
2.34328
2.38872
2.43487
2.48032
2.52369
2.5637
2.59895
2.62809
2.64955
2.66213
2.66712
2.66735
2.66225
2.6536
2.64339
2.63332
2.62475
2.22358
2.26058
2.30254
2.34776
2.39469
2.44182
2.48771
2.53094
2.57014
2.60387
2.63074
2.64855
2.65751
2.6599
2.65682
2.64883
2.63828
2.62733
2.61779
2.61138
2.22103
2.26049
2.3044
2.35111
2.39897
2.44654