/*--------------------------------*- C++ -*----------------------------------*\
  =========                 |
  \\      /  F ield         | OpenFOAM: The Open Source CFD Toolbox
   \\    /   O peration     | Website:  https://openfoam.org
    \\  /    A nd           | Version:  10
     \\/     M anipulation  |
\*---------------------------------------------------------------------------*/
FoamFile
{
    format      ascii;
    class       volScalarField;
    location    "0.19956";
    object      rho;
}
// * * * * * * * * * * * * * * * * * * * * * * * * * * * * * * * * * * * * * //

dimensions      [1 -3 0 0 0 0 0];

internalField   nonuniform List<scalar> 
15984
(
0.936263
0.936375
0.937005
0.938404
0.940491
0.94346
0.947109
0.951612
0.956939
0.962848
0.96969
0.976872
0.984539
0.992305
1.00003
1.00729
1.01394
1.01969
1.02434
1.02782
1.03005
1.03102
1.03089
1.02978
1.02789
1.02505
1.02194
1.01827
1.01467
1.01085
1.00741
1.00411
1.00137
0.999112
0.997608
0.996716
0.996684
0.997406
0.999004
1.00122
1.00423
1.00739
1.01084
1.0143
1.01731
1.01994
1.02189
1.02297
1.02341
1.02288
1.02171
1.01965
1.01711
1.01383
0.93216
0.932352
0.933088
0.934624
0.936812
0.939989
0.943772
0.948712
0.954468
0.960941
0.968533
0.976544
0.985132
0.993838
1.0024
1.01049
1.0177
1.02386
1.02884
1.03234
1.03449
1.03538
1.03503
1.0336
1.03151
1.02836
1.02495
1.0211
1.01715
1.0132
1.00941
1.00592
1.00289
1.00024
0.998379
0.997092
0.996635
0.996787
0.997685
0.999491
1.00166
1.00459
1.00761
1.01079
1.01375
1.0164
1.01848
1.0199
1.02058
1.02044
1.01969
1.01803
1.01577
1.01287
0.928486
0.92878
0.929711
0.931396
0.933793
0.937158
0.941241
0.946575
0.952767
0.959946
0.968101
0.977032
0.986411
0.995878
1.00519
1.01384
1.02142
1.02793
1.03287
1.03639
1.03842
1.03906
1.03854
1.03686
1.03447
1.03118
1.0275
1.02361
1.01935
1.01542
1.01141
1.0078
1.00456
1.00175
0.999571
0.997936
0.997028
0.996827
0.997245
0.998348
1.00016
1.00238
1.00505
1.00784
1.01059
1.01316
1.01521
1.01694
1.01767
1.01802
1.01746
1.01627
1.01429
1.01183
0.925302
0.925722
0.926924
0.928725
0.931445
0.93507
0.93954
0.945277
0.951975
0.959829
0.968614
0.978329
0.988342
0.99849
1.00831
1.01724
1.0251
1.03165
1.03648
1.03986
1.04166
1.04208
1.04135
1.03947
1.03683
1.0335
1.02958
1.02572
1.02146
1.01736
1.01339
1.00966
1.00634
1.0034
1.00105
0.999206
0.998014
0.997354
0.997386
0.998046
0.999202
1.00102
1.00308
1.00547
1.00795
1.01024
1.01236
1.01387
1.01509
1.0154
1.01523
1.01433
1.01275
1.01049
0.922655
0.923269
0.924716
0.92677
0.929886
0.933778
0.938713
0.944977
0.952074
0.960785
0.970109
0.980353
0.991033
1.00161
1.01163
1.0208
1.02856
1.03497
1.03958
1.04266
1.04423
1.04434
1.04346
1.04142
1.03855
1.03524
1.03135
1.02735
1.02322
1.01912
1.01515
1.01154
1.00819
1.00528
1.00271
1.00082
0.999245
0.998423
0.998063
0.998276
0.998955
1.00018
1.00187
1.00364
1.00582
1.00775
1.00972
1.01124
1.01232
1.01297
1.01287
1.01229
1.01099
1.00899
0.920569
0.921473
0.923128
0.925699
0.929076
0.933307
0.939005
0.945409
0.953568
0.96247
0.972619
0.983305
0.994287
1.00513
1.01519
1.02424
1.03181
1.03772
1.04217
1.04477
1.04602
1.04593
1.04477
1.04267
1.0398
1.03626
1.03264
1.02859
1.02465
1.02066
1.01685
1.01327
1.01003
1.00709
1.00467
1.00248
1.00093
0.999787
0.999129
0.998971
0.99926
0.999945
1.00112
1.00248
1.00412
1.00579
1.00737
1.0088
1.0099
1.0104
1.01061
1.01011
1.0091
1.00743
0.919198
0.920375
0.922362
0.925309
0.929143
0.933935
0.940084
0.947161
0.955824
0.965399
0.975866
0.987081
0.998178
1.00892
1.01888
1.02742
1.03467
1.04014
1.04393
1.04633
1.04711
1.04677
1.0454
1.04325
1.04031
1.03693
1.03334
1.02952
1.02568
1.02189
1.01828
1.01493
1.01178
1.00902
1.00653
1.00435
1.00277
1.00136
1.00053
0.999994
0.999964
1.00024
1.00085
1.00183
1.00292
1.00419
1.00546
1.00656
1.00753
1.00807
1.00826
1.00792
1.0071
1.0056
0.918387
0.920001
0.922475
0.925806
0.930028
0.935693
0.942007
0.950263
0.958924
0.969348
0.9801
0.991294
1.00245
1.01296
1.02244
1.03051
1.03703
1.04191
1.04521
1.04695
1.04753
1.04695
1.04542
1.04309
1.04032
1.03706
1.03355
1.03001
1.02644
1.02285
1.01957
1.01629
1.01346
1.01077
1.00834
1.00636
1.00455
1.00316
1.00206
1.00133
1.00095
1.00081
1.00107
1.00148
1.00217
1.00299
1.00386
1.00467
1.00536
1.00583
1.00591
1.00572
1.00493
1.00373
0.918463
0.920411
0.923456
0.927059
0.932339
0.937889
0.945652
0.953615
0.963547
0.973839
0.984948
0.996125
1.00695
1.01702
1.02575
1.03318
1.03894
1.04311
1.04575
1.04713
1.0472
1.04638
1.04484
1.04249
1.03971
1.03657
1.03345
1.0301
1.0268
1.02352
1.02051
1.01752
1.0149
1.01242
1.01011
1.00819
1.00642
1.00494
1.00373
1.00276
1.00215
1.00164
1.00153
1.00154
1.00174
1.00216
1.00256
1.00305
1.00346
1.00368
1.00371
1.00343
1.00275
1.00162
0.919243
0.921787
0.925068
0.92972
0.934989
0.94179
0.949588
0.958569
0.968453
0.979284
0.990286
1.00115
1.01154
1.02081
1.02895
1.03532
1.04029
1.04372
1.04573
1.04654
1.04634
1.04535
1.04351
1.04132
1.03861
1.0358
1.03282
1.02979
1.02677
1.02392
1.02109
1.01857
1.01611
1.01381
1.01178
1.00987
1.00819
1.00665
1.00542
1.00425
1.0034
1.00265
1.00218
1.00179
1.00162
1.00157
1.00161
1.00169
1.00175
1.00171
1.00156
1.00117
1.00047
0.999486
0.920787
0.924029
0.927732
0.932964
0.938937
0.94638
0.954577
0.964172
0.974274
0.985005
0.995819
1.00638
1.01588
1.02448
1.0314
1.03705
1.04108
1.0437
1.04505
1.04541
1.04499
1.04362
1.04185
1.03967
1.03711
1.03451
1.03184
1.02917
1.02646
1.02393
1.02147
1.01924
1.01709
1.01499
1.01318
1.01139
1.00976
1.00827
1.00695
1.00571
1.00467
1.00371
1.00292
1.00222
1.00167
1.00124
1.00087
1.00059
1.00031
0.999952
0.99956
0.998963
0.998209
0.99717
0.923374
0.926859
0.931631
0.936974
0.943984
0.951617
0.960543
0.970277
0.980393
0.991171
1.00147
1.01117
1.02004
1.02744
1.03364
1.03807
1.0413
1.04311
1.0439
1.04379
1.04289
1.0416
1.0396
1.03755
1.03526
1.03289
1.0305
1.02817
1.02591
1.02368
1.02159
1.01966
1.01774
1.01602
1.01429
1.01267
1.01113
1.00972
1.00833
1.00703
1.0059
1.00469
1.00371
1.00275
1.00185
1.00108
1.00035
0.999682
0.99905
0.998397
0.99772
0.996868
0.995968
0.994824
0.926561
0.930945
0.935808
0.942396
0.949397
0.957954
0.966865
0.976846
0.986906
0.997166
1.0067
1.01601
1.0235
1.0301
1.03495
1.03863
1.04081
1.04195
1.04214
1.04163
1.04063
1.03886
1.03717
1.03504
1.03309
1.0309
1.02893
1.02698
1.02503
1.02319
1.02145
1.01976
1.01819
1.01667
1.01514
1.0137
1.0123
1.01088
1.00954
1.00822
1.00691
1.00566
1.00444
1.00324
1.00212
1.00105
0.999946
0.999016
0.997976
0.997055
0.996013
0.994952
0.993809
0.992472
0.930685
0.935334
0.941396
0.94796
0.95595
0.964417
0.973803
0.983538
0.993219
1.00297
1.01194
1.01976
1.02656
1.0319
1.03584
1.0383
1.03993
1.04018
1.03985
1.03915
1.03746
1.03612
1.03421
1.03241
1.03051
1.02888
1.02716
1.02551
1.02396
1.02248
1.0211
1.01967
1.01841
1.01705
1.01575
1.01446
1.01314
1.01181
1.01048
1.00914
1.00782
1.0064
1.00514
1.00367
1.00239
1.00108
0.999717
0.99846
0.997125
0.99595
0.994518
0.99317
0.991731
0.990132
0.935386
0.940934
0.947178
0.954692
0.962578
0.971615
0.980632
0.990236
0.999495
1.0083
1.01618
1.02335
1.02875
1.03296
1.03586
1.03759
1.03805
1.03795
1.03724
1.03572
1.03451
1.03265
1.03109
1.0295
1.02792
1.02645
1.02529
1.02393
1.02272
1.02157
1.02044
1.01943
1.0183
1.01719
1.01608
1.01495
1.0137
1.0125
1.01113
1.00989
1.00844
1.00703
1.00564
1.00404
1.00262
1.00112
0.999588
0.998
0.996501
0.994949
0.993237
0.991576
0.989783
0.987847
0.940758
0.946941
0.953784
0.961493
0.969936
0.978532
0.987747
0.996489
1.00519
1.01311
1.02004
1.02574
1.03008
1.03348
1.03508
1.03579
1.03593
1.0351
1.03372
1.0325
1.03046
1.02932
1.02769
1.02639
1.02513
1.02413
1.02313
1.02216
1.02139
1.02046
1.01976
1.01894
1.01803
1.01714
1.01616
1.01514
1.01402
1.01289
1.01155
1.01038
1.00881
1.0075
1.00591
1.00433
1.00277
1.00109
0.999471
0.997627
0.995976
0.994074
0.992038
0.990019
0.987809
0.985444
0.946881
0.95331
0.960915
0.968731
0.977032
0.985856
0.994118
1.00271
1.01017
1.01724
1.02295
1.02738
1.03081
1.03269
1.03346
1.03366
1.03278
1.03142
1.03018
1.02789
1.02719
1.02509
1.02427
1.02309
1.02223
1.02157
1.021
1.02043
1.0199
1.01936
1.01883
1.01823
1.0176
1.01685
1.01602
1.01508
1.0141
1.013
1.01174
1.01055
1.00901
1.00767
1.00604
1.00446
1.0028
1.00101
0.999326
0.997305
0.995529
0.993285
0.990978
0.988561
0.985782
0.982783
0.953125
0.960422
0.968021
0.975949
0.984377
0.992356
1.00073
1.00777
1.01486
1.02018
1.02566
1.02748
1.03084
1.0313
1.03149
1.03065
1.02924
1.02763
1.02527
1.02423
1.02181
1.02146
1.02031
1.01981
1.0192
1.01904
1.01878
1.0186
1.01833
1.01818
1.01783
1.01752
1.01699
1.01636
1.0157
1.0148
1.01394
1.01285
1.01173
1.01037
1.00912
1.00751
1.00602
1.00441
1.00273
1.00084
0.999231
0.99704
0.995094
0.992497
0.989997
0.987124
0.983709
0.980241
0.960019
0.967515
0.975293
0.983306
0.991091
0.999144
1.00581
1.01321
1.01768
1.02377
1.02547
1.02904
1.02906
1.0292
1.02822
1.02653
1.02452
1.02217
1.02087
1.01831
1.01806
1.01618
1.01646
1.0161
1.01613
1.01639
1.01665
1.01678
1.01685
1.01689
1.01682
1.0166
1.01623
1.01577
1.0152
1.01435
1.01349
1.01254
1.0114
1.0101
1.00884
1.00723
1.00582
1.00414
1.00252
1.00059
0.998887
0.996748
0.994559
0.991903
0.989296
0.985729
0.981997
0.97905
0.966782
0.974714
0.982462
0.990244
0.997963
1.00451
1.01153
1.01678
1.02092
1.02449
1.02704
1.02691
1.02732
1.02607
1.02409
1.02159
1.0187
1.01645
1.01395
1.01314
1.01212
1.01209
1.01198
1.01236
1.01287
1.01355
1.01427
1.01486
1.01525
1.01554
1.01569
1.01563
1.01539
1.01502
1.01448
1.01376
1.0129
1.01201
1.01086
1.00967
1.0083
1.00676
1.00535
1.00363
1.00201
1.00013
0.998395
0.996164
0.993988
0.991054
0.989612
0.985084
0.986265
0.990157
0.973789
0.981808
0.98933
0.996981
1.00386
1.01034
1.0153
1.02057
1.02268
1.02588
1.02603
1.026
1.02413
1.02158
1.01842
1.01481
1.01184
1.00904
1.00773
1.00606
1.00629
1.00614
1.0074
1.00871
1.00991
1.01131
1.0124
1.01317
1.01384
1.0143
1.01456
1.01465
1.0145
1.01416
1.01365
1.01298
1.0121
1.01126
1.01012
1.00895
1.00753
1.00609
1.00459
1.00292
1.00119
0.999346
0.997664
0.995288
0.993758
0.991077
0.994266
0.990034
1.01975
1.0699
0.98084
0.988517
0.995999
1.00323
1.00929
1.01493
1.01969
1.02217
1.02471
1.02497
1.02532
1.02377
1.02075
1.01799
1.01332
1.00736
1.0036
0.999368
0.998622
0.998241
0.999108
1.00018
1.00185
1.00391
1.00599
1.00803
1.00978
1.01111
1.01209
1.01283
1.01324
1.01341
1.01339
1.01316
1.01275
1.01205
1.01121
1.01035
1.00921
1.00804
1.00656
1.00516
1.00349
1.00184
1.00008
0.998311
0.996714
0.995056
0.995221
0.993205
1.01552
1.03429
1.19107
1.37143
0.987358
0.994984
1.00225
1.00898
1.01412
1.01968
1.02204
1.0242
1.02538
1.02508
1.02477
1.02324
1.02415
1.02683
1.01974
1.01
0.999766
0.993004
0.988916
0.988574
0.990634
0.993799
0.997204
1.00031
1.00302
1.00559
1.00774
1.00931
1.01054
1.01151
1.01204
1.01223
1.01224
1.01208
1.01164
1.01097
1.01011
1.00927
1.00807
1.00687
1.00533
1.00379
1.00211
1.00031
0.998766
0.997542
0.996665
0.995827
1.00204
1.01232
1.10221
1.34099
1.61771
1.76511
0.993696
1.00087
1.00799
1.01401
1.01848
1.02266
1.02408
1.02645
1.02688
1.02978
1.03591
1.05245
1.07462
1.11694
1.10338
1.09227
1.03639
1.00167
0.985447
0.978809
0.980113
0.984335
0.989455
0.994357
0.998745
1.00246
1.0054
1.00749
1.00882
1.00984
1.01052
1.01089
1.01099
1.01084
1.01044
1.00975
1.00889
1.00803
1.00677
1.00541
1.00381
1.00202
1.00021
0.998753
0.997665
0.997152
0.997252
1.0058
1.02141
1.13251
1.44695
1.79219
1.90856
1.93701
0.999047
1.00659
1.01264
1.01861
1.02189
1.025
1.02697
1.03224
1.03349
1.06675
1.10204
1.24591
1.3582
1.48143
1.48074
1.40331
1.31418
1.12251
1.01826
0.984591
0.975731
0.978364
0.98347
0.988731
0.994126
0.998861
1.00246
1.00509
1.00704
1.00835
1.00905
1.0094
1.00953
1.00945
1.00911
1.00845
1.00754
1.00656
1.00521
1.00365
1.00186
0.999893
0.998286
0.997285
0.996989
0.999006
1.00483
1.03253
1.13966
1.53663
1.87525
1.96043
1.97146
1.96555
1.00438
1.01165
1.01679
1.02258
1.02451
1.02905
1.03301
1.05632
1.08749
1.23358
1.52105
1.72763
1.82982
1.86864
1.83845
1.76959
1.72597
1.47701
1.17906
1.01134
0.971093
0.96637
0.973583
0.982858
0.990087
0.995846
1.00022
1.00284
1.00483
1.00623
1.00716
1.00769
1.00793
1.0079
1.00754
1.00688
1.00597
1.00484
1.00338
1.0015
0.999518
0.997724
0.996618
0.996735
0.999422
1.00769
1.03638
1.14063
1.58443
1.90489
1.98513
1.98597
1.97758
1.96504
1.00868
1.0158
1.0212
1.02496
1.02924
1.04245
1.06364
1.16124
1.40715
1.74532
1.93664
1.9849
1.97769
1.94203
1.88865
1.83123
1.75478
1.69314
1.47048
1.1602
1.0062
0.970244
0.968877
0.976425
0.985005
0.991856
0.997155
1.00046
1.00278
1.00425
1.00515
1.0058
1.00618
1.0062
1.0059
1.00522
1.00419
1.00287
1.00108
0.999073
0.997178
0.995883
0.996434
1.00067
1.01148
1.042
1.14736
1.57475
1.93452
1.98873
1.98764
1.97977
1.96783
1.95569
1.0133
1.01879
1.02437
1.03062
1.04429
1.09768
1.25585
1.63502
1.92197
2.01926
2.03075
2.01104
1.9804
1.93159
1.85724
1.73516
1.66968
1.61339
1.48279
1.21858
1.05119
0.982732
0.966837
0.971575
0.980537
0.988199
0.993581
0.99736
0.999945
1.00179
1.00291
1.0037
1.00421
1.00431
1.00397
1.00327
1.00211
1.0005
0.998563
0.996656
0.995277
0.996029
1.00408
1.0192
1.05578
1.16622
1.58903
1.93475
1.98542
1.98447
1.97636
1.96835
1.95635
1.94422
1.01602
1.02194
1.03041
1.05279
1.12721
1.40171
1.82606
2.02822
2.05519
2.0471
2.03158
2.00623
1.96781
1.90147
1.78957
1.6176
1.43856
1.43964
1.38091
1.18652
1.03794
0.978216
0.965128
0.968477
0.97695
0.984815
0.990398
0.994288
0.997152
0.998986
1.00033
1.00129
1.00198
1.00215
1.0018
1.00104
0.999666
0.997905
0.996102
0.994762
0.995944
1.00683
1.03842
1.08209
1.2062
1.67455
1.9418
1.97965
1.97931
1.97188
1.96529
1.95408
1.94309
1.93002
1.01921
1.02879
1.06182
1.21657
1.56537
2.00831
2.06056
2.06594
2.0591
2.04588
2.02726
1.99854
1.95456
1.88057
1.74999
1.53513
1.26142
1.15103
1.19232
1.11147
1.01522
0.97021
0.960465
0.965073
0.973966
0.981816
0.987194
0.991105
0.993844
0.996095
0.997615
0.998754
0.999527
0.999718
0.999389
0.998459
0.996905
0.99527
0.994107
0.99596
1.01109
1.06756
1.13649
1.31494
1.77149
1.9393
1.97283
1.97352
1.96632
1.9609
1.95213
1.94066
1.92893
1.91675
1.03608
1.05965
1.32604
1.96306
2.04299
2.06955
2.0732
2.0692
2.05983
2.04633
2.02529
1.99502
1.94774
1.86946
1.73336
1.50284
1.19121
1.03581
1.0334
1.01944
0.976827
0.957497
0.955833
0.962211
0.971031
0.978503
0.983544
0.987348
0.990544
0.992782
0.994503
0.995951
0.996687
0.996956
0.996495
0.995563
0.994062
0.992963
0.994578
1.01533
1.09138
1.27208
1.53326
1.83082
1.9394
1.9647
1.96606
1.95914
1.95468
1.94687
1.93604
1.92475
1.91257
1.90161
1.36216
1.77875
1.98144
2.05218
2.07273
2.07737
2.0758
2.0705
2.06078
2.04631
2.02391
1.9925
1.94453
1.86652
1.73439
1.51394
1.19412
0.994222
0.965014
0.967326
0.951431
0.948029
0.952702
0.960253
0.968626
0.975228
0.979962
0.984048
0.987081
0.989543
0.991378
0.992688
0.993602
0.993776
0.993406
0.992337
0.991363
0.992146
1.01135
1.12973
1.46995
1.74893
1.87298
1.94104
1.95809
1.95808
1.95183
1.94843
1.94071
1.93141
1.92007
1.90823
1.89696
1.88748
1.87538
2.00062
2.05314
2.07101
2.07826
2.07983
2.07765
2.07174
2.06151
2.04619
2.02329
1.99095
1.94177
1.86321
1.7369
1.53993
1.26905
1.00831
0.946335
0.94179
0.940038
0.944013
0.950961
0.958954
0.966513
0.972185
0.976459
0.980426
0.983344
0.985803
0.987834
0.989473
0.990121
0.990254
0.989891
0.989208
0.98951
1.00716
1.16731
1.6172
1.83733
1.90915
1.94118
1.95173
1.95033
1.947
1.93959
1.93533
1.92581
1.91515
1.90337
1.89138
1.88148
1.87453
2.01167
2.04939
2.06744
2.07717
2.08075
2.0816
2.07891
2.0726
2.06216
2.04657
2.0236
1.99147
1.94281
1.86514
1.74101
1.55402
1.31388
1.05672
0.950834
0.936012
0.937939
0.942963
0.950429
0.957671
0.964377
0.968913
0.973125
0.977144
0.979892
0.98232
0.984333
0.985809
0.98652
0.986501
0.986276
0.987195
1.00532
1.14924
1.61073
1.85933
1.92548
1.9427
1.94677
1.94448
1.94014
1.93431
1.92925
1.91977
1.91015
1.89799
1.88618
1.87492
1.86705
1.86312
2.04561
2.06329
2.07237
2.07912
2.0826
2.08287
2.07999
2.07332
2.06281
2.04744
2.02477
1.99369
1.94846
1.87636
1.75806
1.57317
1.33295
1.0814
0.961542
0.938554
0.938597
0.943321
0.949982
0.956412
0.961923
0.966051
0.970053
0.973704
0.976351
0.978914
0.980746
0.981985
0.982347
0.982588
0.983495
0.995889
1.08962
1.46521
1.81993
1.92397
1.94141
1.94281
1.93915
1.9328
1.93026
1.9225
1.91544
1.90487
1.89344
1.88074
1.86887
1.85932
1.85408
1.85266
2.05495
2.06734
2.07595
2.08143
2.08406
2.084
2.08077
2.07378
2.06325
2.04873
2.02685
1.99777
1.95749
1.8967
1.80022
1.64766
1.42242
1.14758
0.985002
0.939863
0.941653
0.944193
0.949218
0.954845
0.959453
0.963386
0.96722
0.970589
0.972963
0.975256
0.976888
0.977936
0.978272
0.978638
0.981177
1.00484
1.14076
1.57046
1.86327
1.93205
1.93852
1.93468
1.9299
1.92235
1.91929
1.90892
1.90101
1.88899
1.87596
1.86347
1.85213
1.84511
1.84221
1.84346
2.05987
2.07068
2.07818
2.08307
2.08525
2.08476
2.08119
2.07386
2.06334
2.0486
2.02713
1.99876
1.96055
1.90456
1.8186
1.68751
1.49842
1.25198
1.01941
0.95252
0.943327
0.945239
0.948804
0.952936
0.95721
0.960848
0.964415
0.967309
0.969647
0.97185
0.973255
0.973795
0.974222
0.97528
0.982186
1.02199
1.19838
1.62674
1.88773
1.93046
1.93155
1.92577
1.91902
1.91262
1.90608
1.89605
1.88547
1.87213
1.85856
1.84639
1.83656
1.83187
1.83142
1.83601
2.06378
2.07304
2.07999
2.08453
2.08612
2.08509
2.08099
2.07355
2.06318
2.04856
2.02766
2.00002
1.96427
1.9133
1.8381
1.7271
1.56861
1.35571
1.10971
0.974379
0.94249
0.94676
0.947435
0.951412
0.954878
0.958674
0.961789
0.964518
0.966629
0.968352
0.969356
0.970228
0.971484
0.976501
0.996277
1.07463
1.35793
1.78432
1.89444
1.92694
1.92113
1.91662
1.9067
1.9039
1.89071
1.88358
1.86763
1.8558
1.8411
1.82993
1.82255
1.81946
1.82244
1.82912
2.06703
2.07506
2.08163
2.08546
2.08649
2.08498
2.08023
2.07263
2.06189
2.04709
2.02654
1.99925
1.96446
1.91547
1.84559
1.74498
1.60547
1.42351
1.20959
1.01275
0.959423
0.944433
0.949155
0.949328
0.953371
0.956258
0.959336
0.961452
0.963339
0.965334
0.966729
0.96872
0.976184
0.997975
1.0658
1.2988
1.68826
1.8481
1.91761
1.91789
1.9133
1.90351
1.89976
1.88885
1.87909
1.86689
1.85177
1.83832
1.82443
1.81478
1.80979
1.80869
1.81414
1.82406
2.06957
2.07694
2.08291
2.08586
2.08631
2.08406
2.07878
2.07092
2.05989
2.0452
2.02538
1.99873
1.96569
1.91921
1.85399
1.7612
1.6336
1.46917
1.27631
1.08192
0.963482
0.951067
0.947168
0.949419
0.951177
0.954486
0.956773
0.959231
0.96103
0.963227
0.96829
0.982227
1.01489
1.10783
1.37419
1.67083
1.82181
1.90009
1.91208
1.90917
1.89869
1.89715
1.88392
1.87969
1.86203
1.85258
1.83466
1.82177
1.8085
1.80098
1.79842
1.7994
1.80744
1.81994
2.07177
2.07855
2.08357
2.08564
2.08543
2.08233
2.07657
2.06835
2.05678
2.04229
2.02332
1.99749
1.96622
1.92171
1.85926
1.76943
1.64743
1.49285
1.31409
1.13026
0.987055
0.959512
0.946541
0.949324
0.950593
0.952339
0.955103
0.957292
0.962413
0.97332
0.994539
1.04228
1.24426
1.48739
1.69857
1.81645
1.88525
1.90095
1.90365
1.89496
1.89257
1.88161
1.8776
1.86167
1.85025
1.83511
1.81899
1.80567
1.79422
1.78907
1.78833
1.7916
1.80207
1.81698
2.07353
2.07954
2.08349
2.08475
2.0837
2.07982
2.07368
2.06468
2.05299
2.03872
2.02178
1.9975
1.97016
1.93266
1.87732
1.79715
1.68099
1.52976
1.35468
1.17765
1.02987
0.948961
0.956609
0.950694
0.949225
0.952775
0.954755
0.963143
0.971891
1.00198
1.09377
1.40672
1.58811
1.75028
1.83058
1.8756
1.89758
1.89799
1.89456
1.88646
1.88299
1.87136
1.86426
1.84768
1.8366
1.81885
1.8043
1.79084
1.78169
1.77822
1.77927
1.78539
1.79802
1.81481
2.07461
2.07972
2.08262
2.08305
2.08104
2.07649
2.06988
2.06032
2.04871
2.03484
2.01924
1.99744
1.9728
1.94039
1.89112
1.81871
1.71293
1.56862
1.39382
1.21209
1.05287
0.979406
0.951151
0.955009
0.955858
0.953144
0.962521
0.977727
1.04561
1.22025
1.48932
1.70707
1.75776
1.85181
1.86789
1.89116
1.8918
1.89174
1.88359
1.88177
1.86969
1.86488
1.84882
1.83693
1.82131
1.80508
1.79037
1.77812
1.77154
1.76944
1.77251
1.78093
1.79507
1.81393
2.07465
2.07889
2.08078
2.08036
2.07755
2.07247
2.06509
2.05533
2.04385
2.03106
2.01656
2.00062
1.97975
1.95768
1.92604
1.8742
1.78912
1.66033
1.48686
1.29376
1.11993
0.97037
0.982407
0.965408
0.96466
0.974966
1.00278
1.09946
1.3433
1.58112
1.74721
1.80494
1.85256
1.87443
1.88623
1.88881
1.88842
1.88282
1.88002
1.87074
1.86342
1.85282
1.83849
1.82475
1.80811
1.79264
1.778
1.76818
1.76306
1.76289
1.76745
1.7781
1.79376
1.8138
2.07361
2.07689
2.07786
2.07667
2.0733
2.06775
2.05997
2.05019
2.0391
2.02713
2.0139
2.00022
1.98475
1.96733
1.94796
1.91915
1.87276
1.79565
1.67441
1.50789
1.31552
1.1682
1.00616
1.04485
1.04144
1.07276
1.22002
1.46445
1.66611
1.79269
1.82955
1.86364
1.87717
1.88593
1.88793
1.88665
1.88238
1.87831
1.87385
1.86627
1.85381
1.84451
1.82845
1.81406
1.79749
1.78208
1.76888
1.7604
1.75712
1.75828
1.76473
1.77719
1.79394
1.81491
2.07132
2.07355
2.07383
2.0721
2.06831
2.06247
2.05457
2.04526
2.03507
2.02389
2.01242
2.0001
1.98868
1.9758
1.96189
1.94544
1.92176
1.88501
1.82616
1.73593
1.61831
1.48805
1.39133
1.36846
1.35695
1.43989
1.58123
1.78386
1.80311
1.86374
1.86368
1.88328
1.88443
1.88869
1.88599
1.88523
1.87883
1.87721
1.86687
1.86164
1.84633
1.83773
1.82006
1.80587
1.7888
1.77425
1.76204
1.75549
1.75312
1.75601
1.7641
1.77794
1.79598
1.81779
2.06753
2.069
2.06876
2.06663
2.06269
2.05677
2.04934
2.0406
2.03137
2.02184
2.01171
2.00155
1.99118
1.98215
1.9714
1.95977
1.94582
1.92721
1.90027
1.86165
1.81038
1.75177
1.69767
1.69071
1.68339
1.72776
1.8079
1.86747
1.86428
1.88388
1.8823
1.88995
1.88861
1.88956
1.8858
1.88453
1.87803
1.87455
1.86404
1.85721
1.84319
1.83159
1.81484
1.79965
1.7832
1.76903
1.75821
1.75267
1.75167
1.75576
1.76517
1.78033
1.79984
1.82243
2.0622
2.06319
2.0627
2.06053
2.05654
2.05116
2.04425
2.03667
2.02889
2.0206
2.01198
2.00366
1.99502
1.98732
1.97861
1.96974
1.95953
1.94751
1.93273
1.91468
1.89301
1.86976
1.84851
1.84208
1.83731
1.85685
1.8787
1.89153
1.88851
1.89205
1.89127
1.89306
1.89213
1.89156
1.88811
1.8853
1.87842
1.87403
1.8636
1.85511
1.84131
1.82788
1.8121
1.79642
1.78065
1.76687
1.7573
1.7524
1.75215
1.75713
1.76767
1.78414
1.80493
1.82922
2.05553
2.05626
2.05575
2.05371
2.05032
2.04556
2.03957
2.03333
2.0267
2.02025
2.01318
2.00574
1.99924
1.99226
1.98483
1.97692
1.96794
1.95785
1.94684
1.93488
1.9228
1.91123
1.90143
1.89334
1.89162
1.89409
1.89836
1.89877
1.89727
1.89685
1.89637
1.89677
1.89557
1.89422
1.89055
1.8869
1.88082
1.8751
1.86411
1.85478
1.84121
1.82741
1.8122
1.79682
1.78107
1.7684
1.75842
1.7543
1.75401
1.75899
1.7711
1.78846
1.81072
1.83635
2.04776
2.04839
2.04815
2.0466
2.04385
2.03992
2.03531
2.03052
2.02539
2.01977
2.01446
2.00816
2.00281
1.99625
1.98962
1.98166
1.9731
1.96355
1.95343
1.94326
1.93334
1.92427
1.91686
1.9107
1.90777
1.90601
1.90577
1.9047
1.90332
1.9023
1.90177
1.90144
1.90002
1.89785
1.89412
1.88975
1.88405
1.87722
1.86661
1.8568
1.84362
1.82985
1.81522
1.79983
1.78489
1.77189
1.76189
1.75718
1.75655
1.76266
1.77351
1.79179
1.8162
1.84408
2.03905
2.03989
2.04007
2.03922
2.0373
2.03457
2.03128
2.02777
2.02397
2.01978
2.01487
2.01022
2.0048
1.99869
1.99198
1.98401
1.97544
1.96588
1.95609
1.94631
1.93701
1.92859
1.92208
1.91673
1.91318
1.91103
1.90996
1.90893
1.90805
1.90736
1.90701
1.90657
1.90505
1.90232
1.89869
1.89422
1.88847
1.88076
1.87173
1.86143
1.84881
1.83504
1.8204
1.80566
1.79114
1.77802
1.7676
1.76196
1.76041
1.76369
1.77381
1.79272
1.81852
1.84985
2.02973
2.03094
2.03167
2.03168
2.03071
2.02921
2.02726
2.02503
2.02204
2.01864
2.01459
2.01041
2.00489
1.99891
1.9918
1.98369
1.97479
1.96529
1.95568
1.94625
1.93722
1.92975
1.92372
1.91892
1.91586
1.91407
1.91329
1.9129
1.91269
1.91259
1.91239
1.91186
1.91037
1.90774
1.90429
1.90007
1.89433
1.88684
1.87754
1.86681
1.85499
1.8422
1.82817
1.81357
1.79893
1.78636
1.77429
1.7657
1.76212
1.76324
1.77406
1.78742
1.81769
1.85364
2.02014
2.02179
2.02324
2.02403
2.02411
2.02369
2.02281
2.02132
2.01908
2.01618
2.01275
2.00819
2.00283
1.99636
1.98889
1.98044
1.97147
1.96202
1.95258
1.94348
1.93556
1.929
1.92365
1.91988
1.91759
1.91666
1.9166
1.91676
1.91731
1.91765
1.91787
1.91753
1.9162
1.91386
1.91088
1.90652
1.9001
1.89264
1.88389
1.87375
1.86274
1.85117
1.83826
1.8256
1.81207
1.79822
1.78591
1.77279
1.76407
1.76182
1.76562
1.77653
1.80429
1.85194
2.01051
2.01264
2.01471
2.01625
2.01719
2.01767
2.01748
2.01646
2.01464
2.01187
2.00853
2.00362
1.9979
1.99094
1.98309
1.97444
1.96544
1.95626
1.94708
1.93925
1.93219
1.9267
1.92257
1.91999
1.91888
1.91888
1.91951
1.9207
1.92196
1.92303
1.92359
1.92352
1.92243
1.92045
1.9174
1.91287
1.90685
1.89977
1.89162
1.88232
1.87242
1.86159
1.84957
1.83703
1.82287
1.80743
1.78986
1.77611
1.76102
1.74835
1.74689
1.75429
1.77971
1.84152
1.01024
1.00634
1.00232
0.997939
0.994088
0.98969
0.986093
0.982478
0.979324
0.976667
0.97449
0.97297
0.972195
0.972123
0.97282
0.974661
0.976838
0.980736
0.984817
0.990154
1.00962
1.00583
1.00189
0.997747
0.993746
0.989527
0.985763
0.982115
0.978862
0.976005
0.973695
0.971988
0.971021
0.970728
0.971243
0.972771
0.975011
0.978613
0.982661
0.988077
1.00869
1.00521
1.00145
0.997499
0.993487
0.989373
0.985618
0.981902
0.978588
0.975675
0.973299
0.971469
0.970384
0.970004
0.970411
0.971789
0.973981
0.977475
0.981566
0.986741
1.00765
1.00454
1.00096
0.997097
0.993249
0.989283
0.985531
0.981879
0.978533
0.975669
0.973257
0.971406
0.970265
0.969885
0.970278
0.971644
0.973808
0.977187
0.981571
0.986499
1.00662
1.00363
1.00025
0.996706
0.992993
0.989168
0.985463
0.981961
0.978663
0.975884
0.973546
0.971768
0.970691
0.970373
0.970841
0.972246
0.974627
0.97788
0.982346
0.98735
1.00524
1.00251
0.999501
0.996203
0.992526
0.989062
0.98543
0.982146
0.978922
0.976337
0.974127
0.972495
0.971594
0.971452
0.972024
0.973605
0.976116
0.979632
0.983814
0.989057
1.00373
1.00123
0.998548
0.995364
0.992146
0.988752
0.985411
0.98231
0.979339
0.976903
0.974951
0.973596
0.972926
0.97299
0.97385
0.975644
0.978379
0.982038
0.986221
0.991566
1.00197
0.99981
0.997352
0.994476
0.99145
0.988374
0.985292
0.982391
0.979817
0.97757
0.975976
0.974966
0.974606
0.975016
0.976111
0.97833
0.98136
0.984987
0.989546
0.994271
1.00011
0.998147
0.995893
0.993325
0.990573
0.987767
0.985059
0.982426
0.980203
0.978369
0.977109
0.976544
0.976604
0.977328
0.979094
0.981485
0.984864
0.988499
0.993166
0.99771
0.998034
0.996313
0.994205
0.991914
0.989436
0.986947
0.984531
0.982338
0.980497
0.979124
0.978356
0.978257
0.9787
0.980125
0.982286
0.985157
0.988628
0.992616
0.997017
1.00152
0.995849
0.99424
0.992337
0.990193
0.988047
0.985821
0.983771
0.981998
0.980625
0.979808
0.979575
0.979901
0.981229
0.983069
0.985764
0.988996
0.992728
0.996828
1.00113
1.00547
0.993489
0.991963
0.990187
0.988234
0.986255
0.984407
0.982692
0.981371
0.980539
0.980271
0.980606
0.981801
0.983659
0.986221
0.989297
0.992991
0.9969
1.00115
1.00529
1.00942
0.991046
0.98948
0.987777
0.985929
0.984164
0.982487
0.981256
0.980329
0.980061
0.980398
0.98163
0.983511
0.986071
0.989226
0.992928
0.996886
1.00115
1.00531
1.00935
1.01317
0.988528
0.986809
0.985037
0.983283
0.98158
0.980227
0.979202
0.978848
0.979074
0.98025
0.98229
0.984967
0.988308
0.992151
0.996361
1.00078
1.00507
1.00937
1.01314
1.01658
0.985942
0.983949
0.981982
0.980133
0.97849
0.977282
0.976491
0.976541
0.977793
0.979525
0.98243
0.986106
0.99024
0.994785
0.999523
1.00424
1.00887
1.01284
1.0167
1.0196
0.983136
0.980771
0.978409
0.976356
0.974644
0.973446
0.973155
0.97325
0.975685
0.978036
0.982123
0.986735
0.99176
0.996987
1.0023
1.00736
1.01203
1.01607
1.0196
1.02226
0.980008
0.977004
0.974226
0.971718
0.96977
0.968512
0.968281
0.969994
0.971288
0.976406
0.981001
0.986641
0.992644
0.99873
1.00445
1.00995
1.01466
1.01876
1.02192
1.02454
0.97735
0.973955
0.971173
0.967975
0.965115
0.962852
0.963397
0.963182
0.967776
0.972558
0.979051
0.985921
0.992949
0.999729
1.00622
1.01181
1.01687
1.02069
1.02393
1.02606
0.97828
0.976785
0.97669
0.974312
0.969163
0.963937
0.960231
0.95969
0.962119
0.968337
0.975963
0.98413
0.992319
1.00015
1.00711
1.01332
1.01819
1.02239
1.0252
1.02727
1.0048
1.01337
1.03035
1.02956
1.0163
1.00787
0.982141
0.969041
0.963836
0.966255
0.973214
0.981951
0.991009
0.999687
1.00754
1.01393
1.01941
1.02326
1.02623
1.02806
1.12526
1.18039
1.24515
1.25287
1.23072
1.19609
1.12123
1.04291
0.996335
0.977568
0.975579
0.981377
0.989943
0.998933
1.00717
1.01431
1.01975
1.02394
1.02681
1.02845
1.49918
1.59953
1.6574
1.63839
1.62163
1.52028
1.46179
1.28219
1.12254
1.03265
0.995826
0.987747
0.991529
0.999092
1.00722
1.01441
1.02022
1.02444
1.02714
1.0288
1.8326
1.86082
1.84305
1.81138
1.7155
1.66225
1.5517
1.46434
1.29869
1.14289
1.04934
1.00939
0.999819
1.00222
1.00834
1.01476
1.02033
1.02458
1.02733
1.02877
1.93501
1.91659
1.8817
1.81194
1.72076
1.55235
1.42188
1.37965
1.32107
1.21007
1.10957
1.04846
1.01975
1.01157
1.01266
1.01709
1.02169
1.02524
1.02764
1.02866
1.94981
1.92631
1.88257
1.81589
1.68806
1.50274
1.29911
1.17779
1.14535
1.12268
1.08328
1.04868
1.02957
1.0214
1.02033
1.02183
1.02472
1.02716
1.0288
1.0291
1.94633
1.92268
1.89062
1.83223
1.74105
1.56687
1.35007
1.17065
1.10018
1.06242
1.03839
1.02675
1.02138
1.0201
1.02176
1.02423
1.02617
1.02792
1.02829
1.02767
1.94245
1.92611
1.90596
1.88216
1.84744
1.79217
1.69214
1.54453
1.40766
1.33285
1.26452
1.21661
1.17102
1.1254
1.08686
1.06895
1.05855
1.05216
1.04611
1.03878
1.93085
1.91757
1.90514
1.89237
1.88089
1.86745
1.85469
1.8333
1.81761
1.80709
1.79168
1.76768
1.72241
1.65489
1.56467
1.49374
1.42249
1.3683
1.32298
1.28378
1.91803
1.90698
1.89768
1.89166
1.88891
1.8888
1.89528
1.90515
1.91877
1.93644
1.95072
1.96023
1.96041
1.94894
1.92746
1.90391
1.89069
1.88129
1.86542
1.83544
1.90523
1.89562
1.89008
1.88828
1.89072
1.89906
1.9108
1.92784
1.94333
1.96303
1.98257
2.00087
2.01676
2.03021
2.03997
2.04562
2.04649
2.04026
2.02625
1.99872
1.89273
1.88776
1.88593
1.88799
1.89377
1.90375
1.91792
1.93579
1.95481
1.97551
1.99628
2.01493
2.03179
2.04468
2.0537
2.05961
2.06166
2.05837
2.04882
2.02971
1.8816
1.87937
1.88161
1.88819
1.89906
1.91283
1.92962
1.94897
1.96852
1.98856
2.00773
2.0258
2.04101
2.05392
2.06395
2.06973
2.0705
2.06805
2.0609
2.04655
1.87177
1.87299
1.8788
1.88899
1.90291
1.92015
1.9394
1.96032
1.98104
2.0014
2.02053
2.03764
2.05229
2.06354
2.07205
2.07711
2.07817
2.07562
2.06882
2.05661
1.86319
1.86792
1.87771
1.89128
1.90862
1.92793
1.94908
1.9709
1.99229
2.01263
2.03163
2.0484