/*--------------------------------*- C++ -*----------------------------------*\
  =========                 |
  \\      /  F ield         | OpenFOAM: The Open Source CFD Toolbox
   \\    /   O peration     | Website:  https://openfoam.org
    \\  /    A nd           | Version:  10
     \\/     M anipulation  |
\*---------------------------------------------------------------------------*/
FoamFile
{
    format      ascii;
    class       volVectorField;
    location    "0.19956";
    object      U;
}
// * * * * * * * * * * * * * * * * * * * * * * * * * * * * * * * * * * * * * //

dimensions      [0 1 -1 0 0 0 0];

internalField   nonuniform List<vector> 
15984
(
(0.548261 -0.0511539 0)
(0.54859 -0.0490417 0)
(0.54822 -0.0465146 0)
(0.5469 -0.0435176 0)
(0.544639 -0.0400868 0)
(0.541363 -0.0362914 0)
(0.53701 -0.0322886 0)
(0.531517 -0.0282502 0)
(0.524834 -0.024416 0)
(0.517006 -0.0210421 0)
(0.508091 -0.0183808 0)
(0.498246 -0.0166815 0)
(0.487726 -0.0161191 0)
(0.476829 -0.0167951 0)
(0.46593 -0.0187042 0)
(0.455404 -0.0217439 0)
(0.445602 -0.0257307 0)
(0.436821 -0.0304258 0)
(0.429282 -0.0355718 0)
(0.423121 -0.0409176 0)
(0.418381 -0.0462559 0)
(0.414981 -0.0514099 0)
(0.412756 -0.0563312 0)
(0.411594 -0.0608184 0)
(0.411418 -0.0648847 0)
(0.41212 -0.0685434 0)
(0.413435 -0.071743 0)
(0.415187 -0.0744784 0)
(0.41727 -0.0767787 0)
(0.419532 -0.0786161 0)
(0.421854 -0.0799811 0)
(0.424096 -0.0808389 0)
(0.42614 -0.0811401 0)
(0.427856 -0.0808193 0)
(0.429133 -0.079801 0)
(0.429884 -0.0780063 0)
(0.430154 -0.0754326 0)
(0.429837 -0.0719514 0)
(0.428859 -0.067484 0)
(0.427407 -0.0620335 0)
(0.42568 -0.0557127 0)
(0.423958 -0.0486398 0)
(0.422527 -0.0410339 0)
(0.421673 -0.0330773 0)
(0.421685 -0.0250053 0)
(0.42278 -0.0170286 0)
(0.42511 -0.00933667 0)
(0.428763 -0.00207534 0)
(0.433666 0.00468139 0)
(0.439783 0.0109429 0)
(0.447044 0.0165701 0)
(0.45533 0.0216544 0)
(0.4645 0.0262146 0)
(0.474361 0.0303419 0)
(0.550062 -0.0459166 0)
(0.550777 -0.0439963 0)
(0.550771 -0.041791 0)
(0.549814 -0.039257 0)
(0.547864 -0.0364009 0)
(0.544797 -0.0333236 0)
(0.54051 -0.0301344 0)
(0.534891 -0.0270003 0)
(0.527852 -0.0241357 0)
(0.519424 -0.0217604 0)
(0.509675 -0.020107 0)
(0.498806 -0.0193629 0)
(0.487149 -0.0196662 0)
(0.475094 -0.0210504 0)
(0.463113 -0.0234654 0)
(0.451668 -0.0267686 0)
(0.44117 -0.0307499 0)
(0.43194 -0.0351695 0)
(0.424196 -0.0397908 0)
(0.418036 -0.0444064 0)
(0.413461 -0.0488532 0)
(0.4103 -0.0530131 0)
(0.408406 -0.0569055 0)
(0.407665 -0.0603722 0)
(0.407875 -0.0634369 0)
(0.408951 -0.0661684 0)
(0.410664 -0.0685664 0)
(0.412796 -0.0706111 0)
(0.415258 -0.072369 0)
(0.417911 -0.0738003 0)
(0.420647 -0.0749278 0)
(0.423347 -0.0757001 0)
(0.425904 -0.0760854 0)
(0.428211 -0.0760173 0)
(0.430158 -0.0754136 0)
(0.431658 -0.074188 0)
(0.432699 -0.0722512 0)
(0.433264 -0.0696237 0)
(0.433278 -0.0660868 0)
(0.432769 -0.0616285 0)
(0.431915 -0.0562567 0)
(0.430911 -0.0500575 0)
(0.430009 -0.0431746 0)
(0.429497 -0.0357704 0)
(0.42963 -0.028041 0)
(0.430648 -0.0201849 0)
(0.432725 -0.0123895 0)
(0.43599 -0.004822 0)
(0.440469 0.00239158 0)
(0.446073 0.00923722 0)
(0.452781 0.0155701 0)
(0.460572 0.0214468 0)
(0.469277 0.0268291 0)
(0.478712 0.0317695 0)
(0.551702 -0.0409145 0)
(0.552686 -0.0392158 0)
(0.5529 -0.0373806 0)
(0.55218 -0.0353569 0)
(0.550412 -0.0331338 0)
(0.54743 -0.0308317 0)
(0.543108 -0.028527 0)
(0.537278 -0.0263932 0)
(0.529826 -0.0246022 0)
(0.520781 -0.0233345 0)
(0.51023 -0.0227808 0)
(0.498429 -0.0230629 0)
(0.485782 -0.0242591 0)
(0.472778 -0.0263307 0)
(0.459968 -0.0291702 0)
(0.447887 -0.0325992 0)
(0.43698 -0.0363979 0)
(0.427571 -0.0403417 0)
(0.419845 -0.0442349 0)
(0.41386 -0.0479249 0)
(0.409564 -0.051311 0)
(0.406701 -0.0543407 0)
(0.405147 -0.057071 0)
(0.404789 -0.0594322 0)
(0.405325 -0.0614593 0)
(0.406675 -0.0632138 0)
(0.408662 -0.0647788 0)
(0.411044 -0.066123 0)
(0.413741 -0.0673258 0)
(0.416635 -0.068362 0)
(0.419627 -0.0692409 0)
(0.422627 -0.0699334 0)
(0.425533 -0.0703924 0)
(0.428263 -0.0705595 0)
(0.430725 -0.0703531 0)
(0.432842 -0.0696755 0)
(0.434546 -0.0684198 0)
(0.435861 -0.0665358 0)
(0.436743 -0.0639397 0)
(0.437153 -0.0604733 0)
(0.437189 -0.056121 0)
(0.436996 -0.0509064 0)
(0.436783 -0.0449037 0)
(0.436782 -0.0382216 0)
(0.437252 -0.0310242 0)
(0.438413 -0.0234966 0)
(0.440453 -0.0158054 0)
(0.443522 -0.00812762 0)
(0.44771 -0.000605911 0)
(0.452948 0.00666278 0)
(0.459245 0.0136318 0)
(0.466585 0.0202132 0)
(0.474826 0.0263713 0)
(0.483854 0.0321089 0)
(0.553133 -0.0361641 0)
(0.554258 -0.0347585 0)
(0.554552 -0.0333613 0)
(0.553939 -0.0318946 0)
(0.552224 -0.0303777 0)
(0.549203 -0.0289162 0)
(0.544726 -0.0275682 0)
(0.538583 -0.0265114 0)
(0.530669 -0.025867 0)
(0.521005 -0.0257733 0)
(0.509704 -0.0263762 0)
(0.497093 -0.0277014 0)
(0.483651 -0.0297542 0)
(0.469962 -0.0324339 0)
(0.456633 -0.0355672 0)
(0.444239 -0.0389513 0)
(0.433237 -0.0423725 0)
(0.423922 -0.0456398 0)
(0.416427 -0.0486179 0)
(0.410763 -0.0512192 0)
(0.406834 -0.0534139 0)
(0.404308 -0.0552188 0)
(0.40306 -0.0566985 0)
(0.403 -0.0579155 0)
(0.403799 -0.0588982 0)
(0.405323 -0.0596647 0)
(0.407439 -0.0603941 0)
(0.409931 -0.0610671 0)
(0.412707 -0.0617232 0)
(0.415694 -0.0623869 0)
(0.418789 -0.0630329 0)
(0.421929 -0.0636554 0)
(0.425035 -0.0642014 0)
(0.428033 -0.0646035 0)
(0.430853 -0.0647789 0)
(0.433433 -0.0646285 0)
(0.43571 -0.0640436 0)
(0.437645 -0.0629118 0)
(0.439267 -0.0611906 0)
(0.440538 -0.0587155 0)
(0.441455 -0.0554198 0)
(0.442119 -0.0512371 0)
(0.442696 -0.0462121 0)
(0.443383 -0.040402 0)
(0.444362 -0.0339088 0)
(0.445867 -0.0269044 0)
(0.448088 -0.0195207 0)
(0.451172 -0.0119361 0)
(0.455241 -0.00429767 0)
(0.460283 0.00326712 0)
(0.466302 0.0107253 0)
(0.473284 0.0178819 0)
(0.481147 0.0247506 0)
(0.489825 0.0313088 0)
(0.554283 -0.0316793 0)
(0.555417 -0.0306767 0)
(0.55567 -0.0297818 0)
(0.555033 -0.0289376 0)
(0.553224 -0.0282164 0)
(0.550043 -0.0276505 0)
(0.545298 -0.0273343 0)
(0.538756 -0.0274198 0)
(0.530335 -0.0279558 0)
(0.520052 -0.0290859 0)
(0.508086 -0.0308268 0)
(0.494842 -0.0331611 0)
(0.480854 -0.0359753 0)
(0.466782 -0.0391148 0)
(0.453281 -0.0423627 0)
(0.440928 -0.0454974 0)
(0.430142 -0.048338 0)
(0.421174 -0.0507457 0)
(0.414102 -0.0526527 0)
(0.408881 -0.0540401 0)
(0.405363 -0.0549472 0)
(0.403192 -0.0555044 0)
(0.402203 -0.0556952 0)
(0.402321 -0.0557314 0)
(0.403292 -0.0556655 0)
(0.404886 -0.0555148 0)
(0.406965 -0.0554242 0)
(0.409426 -0.0554646 0)
(0.412143 -0.0556158 0)
(0.415065 -0.0559348 0)
(0.418118 -0.0563969 0)
(0.421238 -0.0569729 0)
(0.424389 -0.0576198 0)
(0.427513 -0.058266 0)
(0.430555 -0.0588238 0)
(0.433457 -0.0591913 0)
(0.43617 -0.0592584 0)
(0.438648 -0.0589013 0)
(0.440897 -0.0580057 0)
(0.442906 -0.0565077 0)
(0.444671 -0.0542301 0)
(0.446225 -0.0511457 0)
(0.44765 -0.0471547 0)
(0.449121 -0.0423328 0)
(0.450782 -0.0367074 0)
(0.452825 -0.0303937 0)
(0.455433 -0.0235186 0)
(0.458742 -0.0162275 0)
(0.462891 -0.0086656 0)
(0.467946 -0.000973304 0)
(0.473822 0.00679309 0)
(0.480566 0.0144481 0)
(0.488205 0.0219565 0)
(0.49662 0.0292768 0)
(0.555062 -0.027496 0)
(0.55607 -0.027007 0)
(0.556186 -0.026704 0)
(0.555371 -0.0265843 0)
(0.553348 -0.026722 0)
(0.549895 -0.0271253 0)
(0.544755 -0.0279147 0)
(0.53775 -0.0291731 0)
(0.528798 -0.0309314 0)
(0.517934 -0.0332598 0)
(0.505445 -0.036075 0)
(0.49177 -0.0392932 0)
(0.47754 -0.0427151 0)
(0.463437 -0.046109 0)
(0.450126 -0.0492439 0)
(0.438151 -0.0519121 0)
(0.427873 -0.0539752 0)
(0.419482 -0.0553597 0)
(0.412999 -0.0560619 0)
(0.40831 -0.0561506 0)
(0.405185 -0.0557152 0)
(0.40335 -0.0549875 0)
(0.402595 -0.0539446 0)
(0.402771 -0.0528057 0)
(0.403744 -0.0516989 0)
(0.40529 -0.0507032 0)
(0.407218 -0.0498716 0)
(0.409483 -0.0493188 0)
(0.411997 -0.0490489 0)
(0.414693 -0.0490762 0)
(0.417552 -0.0494012 0)
(0.420528 -0.0499786 0)
(0.423586 -0.0507553 0)
(0.426694 -0.0516639 0)
(0.429813 -0.0526144 0)
(0.432907 -0.053503 0)
(0.435932 -0.0542083 0)
(0.438852 -0.054605 0)
(0.44164 -0.0545583 0)
(0.444317 -0.053977 0)
(0.44684 -0.0527338 0)
(0.449235 -0.0507053 0)
(0.451562 -0.0478481 0)
(0.453888 -0.0440709 0)
(0.456356 -0.039446 0)
(0.459102 -0.0339797 0)
(0.462286 -0.0277939 0)
(0.466038 -0.0209937 0)
(0.470486 -0.0136992 0)
(0.47572 -0.00605688 0)
(0.481684 0.00182703 0)
(0.488397 0.00986314 0)
(0.495916 0.0179018 0)
(0.504166 0.0258959 0)
(0.555357 -0.0236867 0)
(0.556114 -0.0237939 0)
(0.555981 -0.0241972 0)
(0.554882 -0.024917 0)
(0.552526 -0.0259848 0)
(0.548672 -0.0274535 0)
(0.543063 -0.0294111 0)
(0.535544 -0.0318465 0)
(0.526065 -0.0348335 0)
(0.514732 -0.038253 0)
(0.501895 -0.042031 0)
(0.488071 -0.0459276 0)
(0.473924 -0.0497128 0)
(0.460157 -0.0531097 0)
(0.447394 -0.0558828 0)
(0.436115 -0.0578639 0)
(0.426616 -0.0589585 0)
(0.418993 -0.059174 0)
(0.413199 -0.0585849 0)
(0.40909 -0.0573162 0)
(0.40635 -0.0555505 0)
(0.404756 -0.0535262 0)
(0.404152 -0.0513143 0)
(0.404315 -0.0490891 0)
(0.405134 -0.0469918 0)
(0.406456 -0.0451836 0)
(0.408101 -0.0437162 0)
(0.410018 -0.0426418 0)
(0.412177 -0.0420257 0)
(0.414527 -0.0418456 0)
(0.417048 -0.0420912 0)
(0.419735 -0.0427261 0)
(0.422572 -0.0436866 0)
(0.425539 -0.0448964 0)
(0.428617 -0.0462617 0)
(0.431784 -0.0476743 0)
(0.435006 -0.0490142 0)
(0.438258 -0.0501529 0)
(0.441509 -0.0509562 0)
(0.444738 -0.0512907 0)
(0.447972 -0.0510645 0)
(0.451159 -0.0501129 0)
(0.454347 -0.0483645 0)
(0.457594 -0.0457316 0)
(0.460944 -0.0421805 0)
(0.46454 -0.0377061 0)
(0.468468 -0.0323753 0)
(0.472867 -0.026253 0)
(0.477836 -0.0194263 0)
(0.483448 -0.0120298 0)
(0.489715 -0.00418433 0)
(0.496592 0.00404754 0)
(0.504179 0.0124721 0)
(0.512432 0.0210919 0)
(0.555035 -0.0202828 0)
(0.555461 -0.0211222 0)
(0.554948 -0.0223478 0)
(0.553451 -0.0240223 0)
(0.550659 -0.0261284 0)
(0.546305 -0.0287592 0)
(0.540185 -0.0318804 0)
(0.532159 -0.0355316 0)
(0.52222 -0.0396207 0)
(0.510593 -0.0440246 0)
(0.497641 -0.0485338 0)
(0.483984 -0.0528716 0)
(0.470281 -0.0567327 0)
(0.457208 -0.0598462 0)
(0.445329 -0.0619941 0)
(0.435033 -0.0630579 0)
(0.426515 -0.0630173 0)
(0.419791 -0.061949 0)
(0.414757 -0.0599957 0)
(0.41121 -0.0573688 0)
(0.408804 -0.0542951 0)
(0.407376 -0.0510087 0)
(0.406795 -0.0476731 0)
(0.406841 -0.0444694 0)
(0.407391 -0.0415043 0)
(0.408313 -0.0389653 0)
(0.409526 -0.0369435 0)
(0.410962 -0.0354725 0)
(0.412606 -0.0345876 0)
(0.414464 -0.0342878 0)
(0.416526 -0.0345396 0)
(0.418802 -0.0352994 0)
(0.421295 -0.0364959 0)
(0.424009 -0.0380473 0)
(0.426938 -0.0398548 0)
(0.430066 -0.0418097 0)
(0.433381 -0.0437933 0)
(0.436858 -0.0456744 0)
(0.440473 -0.0473203 0)
(0.444203 -0.0485909 0)
(0.448038 -0.0493497 0)
(0.451979 -0.0495015 0)
(0.456005 -0.0488729 0)
(0.460148 -0.0474139 0)
(0.464462 -0.0450096 0)
(0.468985 -0.0416513 0)
(0.473804 -0.0373267 0)
(0.479033 -0.0320493 0)
(0.484732 -0.0259007 0)
(0.49096 -0.0189568 0)
(0.497725 -0.0113299 0)
(0.505014 -0.00311639 0)
(0.512895 0.00564696 0)
(0.521347 0.0147619 0)
(0.553961 -0.0173488 0)
(0.553948 -0.0190782 0)
(0.552963 -0.0212893 0)
(0.550969 -0.0240144 0)
(0.547645 -0.0272905 0)
(0.542762 -0.0311009 0)
(0.536132 -0.0354195 0)
(0.527645 -0.0402087 0)
(0.517428 -0.0452753 0)
(0.50569 -0.0504618 0)
(0.492949 -0.0554406 0)
(0.479791 -0.0599047 0)
(0.466894 -0.0635308 0)
(0.454864 -0.0660571 0)
(0.444162 -0.0673151 0)
(0.435076 -0.0672455 0)
(0.427691 -0.0659126 0)
(0.421952 -0.06346 0)
(0.417677 -0.0601156 0)
(0.414643 -0.0561272 0)
(0.41252 -0.0518145 0)
(0.411153 -0.0473254 0)
(0.41044 -0.0429442 0)
(0.410217 -0.0388183 0)
(0.410372 -0.0351306 0)
(0.410763 -0.0320002 0)
(0.411359 -0.0295351 0)
(0.412164 -0.0277782 0)
(0.413178 -0.0267373 0)
(0.414412 -0.0264109 0)
(0.415891 -0.0267622 0)
(0.417647 -0.0277263 0)
(0.419698 -0.0292267 0)
(0.422059 -0.0311722 0)
(0.424739 -0.0334664 0)
(0.427735 -0.0359969 0)
(0.431046 -0.0386432 0)
(0.434653 -0.0412788 0)
(0.438538 -0.0437683 0)
(0.442681 -0.0459732 0)
(0.447064 -0.0477531 0)
(0.451668 -0.0489771 0)
(0.456492 -0.0495227 0)
(0.461534 -0.0492513 0)
(0.466794 -0.048079 0)
(0.472312 -0.0459241 0)
(0.478149 -0.0427215 0)
(0.484355 -0.0384689 0)
(0.490966 -0.0331879 0)
(0.498029 -0.0269017 0)
(0.505535 -0.0197062 0)
(0.513517 -0.0116292 0)
(0.521997 -0.00274557 0)
(0.530794 0.00675974 0)
(0.55198 -0.015008 0)
(0.551419 -0.0177606 0)
(0.54989 -0.0211164 0)
(0.547318 -0.0250148 0)
(0.543431 -0.0295357 0)
(0.538025 -0.0345514 0)
(0.530929 -0.0400646 0)
(0.522153 -0.0458485 0)
(0.511835 -0.0517532 0)
(0.500317 -0.0574326 0)
(0.488113 -0.062583 0)
(0.475835 -0.0668408 0)
(0.464095 -0.069895 0)
(0.453408 -0.0715257 0)
(0.444133 -0.0716278 0)
(0.436414 -0.0702327 0)
(0.430258 -0.0674656 0)
(0.425509 -0.0635584 0)
(0.421964 -0.0587884 0)
(0.419338 -0.0534588 0)
(0.417388 -0.0479215 0)
(0.415993 -0.0423384 0)
(0.415024 -0.0369938 0)
(0.414364 -0.03206 0)
(0.413923 -0.0277485 0)
(0.413637 -0.0241696 0)
(0.413502 -0.0214006 0)
(0.413544 -0.019479 0)
(0.413785 -0.0184162 0)
(0.414271 -0.0181893 0)
(0.415056 -0.0187461 0)
(0.416187 -0.0200099 0)
(0.417701 -0.0218977 0)
(0.41962 -0.0243138 0)
(0.421963 -0.0271536 0)
(0.424744 -0.0303052 0)
(0.427964 -0.0336488 0)
(0.431618 -0.037061 0)
(0.435689 -0.0404097 0)
(0.440163 -0.0435598 0)
(0.445016 -0.0463721 0)
(0.450227 -0.0487082 0)
(0.455783 -0.0504274 0)
(0.46167 -0.0514064 0)
(0.467884 -0.0515159 0)
(0.474442 -0.0506413 0)
(0.481353 -0.0486933 0)
(0.488643 -0.0456212 0)
(0.496351 -0.0413819 0)
(0.504462 -0.0359567 0)
(0.512986 -0.0293766 0)
(0.521925 -0.0216314 0)
(0.531202 -0.0128395 0)
(0.540719 -0.00312621 0)
(0.548959 -0.0133795 0)
(0.547738 -0.0173234 0)
(0.545581 -0.0219053 0)
(0.542415 -0.0271315 0)
(0.537963 -0.0329084 0)
(0.53209 -0.0391853 0)
(0.524682 -0.0457648 0)
(0.515825 -0.0524359 0)
(0.505714 -0.0589079 0)
(0.494757 -0.06482 0)
(0.483469 -0.0698012 0)
(0.472437 -0.0735041 0)
(0.462183 -0.0756598 0)
(0.453117 -0.0761 0)
(0.445438 -0.0748133 0)
(0.439205 -0.0718958 0)
(0.434297 -0.0675701 0)
(0.430518 -0.0621308 0)
(0.427616 -0.0558977 0)
(0.425297 -0.0492652 0)
(0.423384 -0.0425107 0)
(0.421789 -0.0359007 0)
(0.420403 -0.0296942 0)
(0.419138 -0.0240868 0)
(0.417947 -0.019281 0)
(0.416815 -0.0153872 0)
(0.415783 -0.01247 0)
(0.414913 -0.0105544 0)
(0.414262 -0.00962097 0)
(0.413898 -0.00962699 0)
(0.413897 -0.0105036 0)
(0.41432 -0.0121722 0)
(0.415214 -0.0145375 0)
(0.416615 -0.0175031 0)
(0.418552 -0.020957 0)
(0.421046 -0.0247845 0)
(0.424106 -0.0288702 0)
(0.42773 -0.0330936 0)
(0.431909 -0.0373293 0)
(0.43663 -0.041447 0)
(0.441873 -0.0453126 0)
(0.447617 -0.048787 0)
(0.453841 -0.0517273 0)
(0.460528 -0.0539939 0)
(0.467664 -0.0554449 0)
(0.475248 -0.0559467 0)
(0.483278 -0.0553805 0)
(0.491757 -0.0536283 0)
(0.500693 -0.0506074 0)
(0.510062 -0.0462488 0)
(0.51985 -0.0404904 0)
(0.530005 -0.0333262 0)
(0.540413 -0.0247949 0)
(0.550941 -0.0149641 0)
(0.544698 -0.0125205 0)
(0.542781 -0.0178203 0)
(0.539948 -0.0237835 0)
(0.536167 -0.0303873 0)
(0.531231 -0.0374977 0)
(0.525016 -0.0449528 0)
(0.51753 -0.052509 0)
(0.508873 -0.0598628 0)
(0.499332 -0.0666552 0)
(0.48933 -0.0724813 0)
(0.479357 -0.0769695 0)
(0.469931 -0.0797905 0)
(0.461469 -0.0807269 0)
(0.454227 -0.0797056 0)
(0.448298 -0.0767895 0)
(0.443591 -0.0721756 0)
(0.43992 -0.0661584 0)
(0.437027 -0.0590926 0)
(0.434619 -0.0513753 0)
(0.432463 -0.0434219 0)
(0.430448 -0.0354946 0)
(0.42847 -0.0279215 0)
(0.426478 -0.0209389 0)
(0.424413 -0.0147965 0)
(0.42227 -0.00965251 0)
(0.42012 -0.00561176 0)
(0.418042 -0.00268756 0)
(0.416135 -0.000907461 0)
(0.41448 -0.000241763 0)
(0.41317 -0.000621732 0)
(0.412296 -0.00196604 0)
(0.411939 -0.00417807 0)
(0.412146 -0.0071372 0)
(0.412963 -0.0107424 0)
(0.414436 -0.0148878 0)
(0.416585 -0.0194604 0)
(0.419422 -0.0243464 0)
(0.42295 -0.0294295 0)
(0.427168 -0.0345922 0)
(0.432062 -0.0397132 0)
(0.437615 -0.0446649 0)
(0.44381 -0.0493127 0)
(0.450626 -0.0535159 0)
(0.458045 -0.0571273 0)
(0.466052 -0.0599971 0)
(0.474639 -0.0619715 0)
(0.483798 -0.0628994 0)
(0.493522 -0.0626283 0)
(0.503802 -0.0610163 0)
(0.514609 -0.0579302 0)
(0.525891 -0.0532416 0)
(0.537557 -0.0468789 0)
(0.549458 -0.0387944 0)
(0.561393 -0.0290058 0)
(0.53908 -0.0125675 0)
(0.536366 -0.0193284 0)
(0.532871 -0.026785 0)
(0.528547 -0.0348212 0)
(0.523236 -0.0432594 0)
(0.516921 -0.0518233 0)
(0.509616 -0.0602188 0)
(0.50154 -0.068042 0)
(0.492973 -0.0748926 0)
(0.484344 -0.080343 0)
(0.476086 -0.0840275 0)
(0.468629 -0.0856533 0)
(0.462221 -0.0850999 0)
(0.457001 -0.08236 0)
(0.452897 -0.0775915 0)
(0.449732 -0.0710874 0)
(0.447228 -0.0632269 0)
(0.445096 -0.0544331 0)
(0.443025 -0.0451857 0)
(0.440863 -0.0358273 0)
(0.438524 -0.0267479 0)
(0.435952 -0.0182303 0)
(0.433117 -0.0106035 0)
(0.430022 -0.00407566 0)
(0.426762 0.00126828 0)
(0.423441 0.00533994 0)
(0.420164 0.00809837 0)
(0.417059 0.00956496 0)
(0.414274 0.00979737 0)
(0.41192 0.00888803 0)
(0.410095 0.00694026 0)
(0.408877 0.00406715 0)
(0.40835 0.000364942 0)
(0.408565 -0.00401988 0)
(0.409529 -0.00895094 0)
(0.411283 -0.0143449 0)
(0.413848 -0.0200965 0)
(0.417228 -0.026097 0)
(0.42142 -0.0322387 0)
(0.426416 -0.0384105 0)
(0.432203 -0.0444939 0)
(0.438767 -0.0503621 0)
(0.44609 -0.0558802 0)
(0.45416 -0.0609018 0)
(0.462966 -0.0652717 0)
(0.472503 -0.0688244 0)
(0.482769 -0.0713841 0)
(0.493761 -0.0727634 0)
(0.505469 -0.0727633 0)
(0.517861 -0.0711843 0)
(0.530867 -0.067824 0)
(0.54436 -0.0625043 0)
(0.558138 -0.055088 0)
(0.571927 -0.0455104 0)
(0.531902 -0.0135826 0)
(0.528445 -0.0219204 0)
(0.524302 -0.0309259 0)
(0.519526 -0.0404416 0)
(0.514058 -0.0501471 0)
(0.507887 -0.0597441 0)
(0.501149 -0.0688027 0)
(0.494049 -0.0768958 0)
(0.486903 -0.0835634 0)
(0.48009 -0.0883699 0)
(0.473959 -0.0909778 0)
(0.468786 -0.0911604 0)
(0.464697 -0.088848 0)
(0.461656 -0.0841349 0)
(0.459459 -0.0772906 0)
(0.457802 -0.0686973 0)
(0.456371 -0.058804 0)
(0.454803 -0.0481568 0)
(0.4529 -0.0372221 0)
(0.450525 -0.0264176 0)
(0.447629 -0.0161453 0)
(0.444165 -0.0068028 0)
(0.440201 0.00140165 0)
(0.435859 0.00827917 0)
(0.431241 0.0136871 0)
(0.426522 0.0175786 0)
(0.421883 0.0199629 0)
(0.41749 0.0209113 0)
(0.413488 0.0205155 0)
(0.410011 0.0188888 0)
(0.407173 0.0161646 0)
(0.405067 0.0124761 0)
(0.403758 0.00796034 0)
(0.403301 0.00273039 0)
(0.403748 -0.00311337 0)
(0.405076 -0.00941927 0)
(0.407327 -0.0161137 0)
(0.41051 -0.0231004 0)
(0.41462 -0.0302825 0)
(0.419652 -0.0375602 0)
(0.425595 -0.0448286 0)
(0.43244 -0.051974 0)
(0.440177 -0.0588689 0)
(0.448801 -0.0653758 0)
(0.45831 -0.0713401 0)
(0.468714 -0.0765902 0)
(0.480031 -0.080935 0)
(0.492276 -0.0841545 0)
(0.505457 -0.0860035 0)
(0.519554 -0.0862067 0)
(0.534499 -0.0844638 0)
(0.55014 -0.0804783 0)
(0.566218 -0.0739878 0)
(0.582362 -0.0648097 0)
(0.523107 -0.0155398 0)
(0.518889 -0.0255559 0)
(0.514178 -0.0362022 0)
(0.509137 -0.0471608 0)
(0.50374 -0.0581145 0)
(0.498078 -0.0686118 0)
(0.492285 -0.0782074 0)
(0.486622 -0.0863845 0)
(0.481359 -0.0926746 0)
(0.476805 -0.0966498 0)
(0.4732 -0.0979796 0)
(0.470667 -0.0964814 0)
(0.46915 -0.0921812 0)
(0.46844 -0.0852468 0)
(0.468188 -0.0760614 0)
(0.468018 -0.0651055 0)
(0.467509 -0.0529684 0)
(0.466358 -0.0402299 0)
(0.464382 -0.0274204 0)
(0.461504 -0.0150686 0)
(0.457679 -0.00361997 0)
(0.453052 0.00665277 0)
(0.447693 0.0153997 0)
(0.441777 0.0224515 0)
(0.435553 0.0277344 0)
(0.429244 0.0312552 0)
(0.423076 0.0330818 0)
(0.417248 0.033322 0)
(0.411926 0.0321043 0)
(0.407256 0.0295768 0)
(0.403358 0.0258996 0)
(0.400323 0.0212303 0)
(0.398219 0.0157161 0)
(0.397086 0.00949019 0)
(0.396959 0.00266791 0)
(0.397865 -0.00466041 0)
(0.399776 -0.0123794 0)
(0.402723 -0.0204254 0)
(0.406704 -0.0287135 0)
(0.41171 -0.0371592 0)
(0.417735 -0.0456723 0)
(0.424774 -0.0541585 0)
(0.432821 -0.0624983 0)
(0.441885 -0.07057 0)
(0.45198 -0.0782306 0)
(0.463136 -0.0853103 0)
(0.475404 -0.0916115 0)
(0.488835 -0.0968932 0)
(0.50348 -0.100865 0)
(0.519361 -0.103173 0)
(0.536432 -0.103412 0)
(0.554528 -0.101127 0)
(0.573336 -0.0958884 0)
(0.592381 -0.0873467 0)
(0.512553 -0.0184315 0)
(0.507634 -0.0302214 0)
(0.502498 -0.0424976 0)
(0.497404 -0.0549155 0)
(0.492392 -0.0670308 0)
(0.487584 -0.0783699 0)
(0.483183 -0.0883829 0)
(0.479398 -0.0965496 0)
(0.476492 -0.102347 0)
(0.474655 -0.105359 0)
(0.474007 -0.10526 0)
(0.474474 -0.101923 0)
(0.475817 -0.0953931 0)
(0.477631 -0.0859435 0)
(0.479405 -0.0740986 0)
(0.480646 -0.0604727 0)
(0.480929 -0.0457606 0)
(0.47997 -0.0306156 0)
(0.477616 -0.0157087 0)
(0.473855 -0.00165855 0)
(0.46886 0.0112227 0)
(0.462597 0.0223216 0)
(0.455396 0.0314803 0)
(0.447609 0.0385291 0)
(0.43951 0.0435135 0)
(0.431396 0.0464789 0)
(0.423533 0.0475435 0)
(0.41614 0.0468617 0)
(0.409404 0.0446125 0)
(0.403481 0.0409894 0)
(0.398487 0.0361806 0)
(0.394507 0.0303704 0)
(0.391596 0.0237205 0)
(0.389787 0.0163697 0)
(0.389097 0.0084361 0)
(0.389556 3.98121e-06 0)
(0.391119 -0.00883331 0)
(0.393801 -0.0180194 0)
(0.397613 -0.0274873 0)
(0.40254 -0.0371705 0)
(0.408572 -0.0469939 0)
(0.41571 -0.056882 0)
(0.42396 -0.0667392 0)
(0.43333 -0.0764608 0)
(0.44386 -0.0859231 0)
(0.455612 -0.0949736 0)
(0.468677 -0.103422 0)
(0.483165 -0.111018 0)
(0.499194 -0.117439 0)
(0.516845 -0.122238 0)
(0.536133 -0.124896 0)
(0.556902 -0.124757 0)
(0.578781 -0.121171 0)
(0.601204 -0.113579 0)
(0.500192 -0.0222102 0)
(0.494639 -0.035803 0)
(0.489266 -0.0497281 0)
(0.48436 -0.063576 0)
(0.480051 -0.0768378 0)
(0.476499 -0.0889554 0)
(0.473893 -0.0993744 0)
(0.472471 -0.107494 0)
(0.472375 -0.112802 0)
(0.473752 -0.114809 0)
(0.476508 -0.113238 0)
(0.480399 -0.107882 0)
(0.484985 -0.0989284 0)
(0.489558 -0.0866538 0)
(0.49343 -0.0717341 0)
(0.496055 -0.0550206 0)
(0.496998 -0.0372331 0)
(0.495967 -0.0192601 0)
(0.492838 -0.00193717 0)
(0.487901 0.0142545 0)
(0.481014 0.0284281 0)
(0.472666 0.0403709 0)
(0.463276 0.0498323 0)
(0.45322 0.0568022 0)
(0.442954 0.0613168 0)
(0.43278 0.0635038 0)
(0.423024 0.0635581 0)
(0.413936 0.0617065 0)
(0.405707 0.0581893 0)
(0.398487 0.053246 0)
(0.392382 0.0471031 0)
(0.387459 0.039967 0)
(0.383755 0.0320208 0)
(0.381286 0.0234084 0)
(0.380052 0.0142433 0)
(0.380048 0.00461017 0)
(0.381269 -0.00543938 0)
(0.383673 -0.0158414 0)
(0.387284 -0.0265579 0)
(0.392083 -0.0375402 0)
(0.398058 -0.0487342 0)
(0.405201 -0.060081 0)
(0.413523 -0.0715176 0)
(0.423048 -0.0829647 0)
(0.433832 -0.0943295 0)
(0.445971 -0.105492 0)
(0.459608 -0.116292 0)
(0.474923 -0.126472 0)
(0.492129 -0.135724 0)
(0.511386 -0.143458 0)
(0.532765 -0.149066 0)
(0.556118 -0.151563 0)
(0.581002 -0.150072 0)
(0.606822 -0.143814 0)
(0.48593 -0.0267416 0)
(0.479905 -0.0421605 0)
(0.474475 -0.0577541 0)
(0.470033 -0.073028 0)
(0.466751 -0.0874286 0)
(0.464804 -0.100382 0)
(0.464426 -0.111254 0)
(0.465769 -0.11946 0)
(0.469004 -0.124362 0)
(0.474057 -0.12551 0)
(0.480796 -0.122407 0)
(0.488604 -0.115053 0)
(0.496892 -0.103307 0)
(0.504597 -0.087839 0)
(0.510765 -0.0694043 0)
(0.514804 -0.0488765 0)
(0.516259 -0.027351 0)
(0.514714 -0.00604567 0)
(0.510598 0.0143549 0)
(0.503579 0.0326648 0)
(0.494321 0.0483767 0)
(0.483331 0.0611673 0)
(0.471164 0.0709107 0)
(0.458461 0.0775882 0)
(0.445631 0.0813801 0)
(0.433121 0.0825054 0)
(0.421287 0.0812635 0)
(0.410383 0.0779645 0)
(0.400595 0.0729185 0)
(0.392053 0.0664142 0)
(0.384838 0.0587254 0)
(0.378992 0.0500868 0)
(0.374528 0.0406888 0)
(0.371432 0.0306797 0)
(0.369683 0.020167 0)
(0.369257 0.00922084 0)
(0.370145 -0.00212195 0)
(0.372269 -0.0138124 0)
(0.375659 -0.0258438 0)
(0.380292 -0.0381815 0)
(0.386142 -0.0507964 0)
(0.3932 -0.0636497 0)
(0.401465 -0.0767131 0)
(0.410967 -0.0899405 0)
(0.42178 -0.103286 0)
(0.434027 -0.11668 0)
(0.447918 -0.130032 0)
(0.463672 -0.143069 0)
(0.481625 -0.155499 0)
(0.501959 -0.16658 0)
(0.524796 -0.17567 0)
(0.549942 -0.181196 0)
(0.576754 -0.182355 0)
(0.604771 -0.177908 0)
(0.46976 -0.0318619 0)
(0.463383 -0.0491474 0)
(0.45812 -0.0664138 0)
(0.454401 -0.0831443 0)
(0.45242 -0.0987719 0)
(0.452417 -0.112677 0)
(0.454587 -0.124228 0)
(0.459171 -0.132723 0)
(0.466122 -0.137535 0)
(0.475509 -0.137983 0)
(0.486701 -0.133614 0)
(0.499191 -0.124012 0)
(0.511792 -0.109418 0)
(0.52306 -0.0902573 0)
(0.531941 -0.0674314 0)
(0.53763 -0.0421476 0)
(0.539279 -0.0160439 0)
(0.537138 0.00957974 0)
(0.530916 0.0332673 0)
(0.521255 0.0541316 0)
(0.50881 0.0715814 0)
(0.494479 0.0852209 0)
(0.478981 0.0950825 0)
(0.463011 0.101233 0)
(0.447252 0.103986 0)
(0.432121 0.103706 0)
(0.418022 0.100828 0)
(0.405202 0.0957595 0)
(0.393814 0.0888902 0)
(0.383956 0.0805665 0)
(0.375676 0.0711103 0)
(0.368967 0.0607756 0)
(0.363798 0.0497606 0)
(0.36013 0.0382183 0)
(0.357915 0.0262532 0)
(0.357103 0.0139069 0)
(0.357665 0.00119579 0)
(0.359535 -0.0118617 0)
(0.362698 -0.0252659 0)
(0.367138 -0.0390074 0)
(0.372811 -0.0530746 0)
(0.379686 -0.0674587 0)
(0.387753 -0.0821633 0)
(0.397038 -0.0971913 0)
(0.407612 -0.112557 0)
(0.419595 -0.128257 0)
(0.433265 -0.144272 0)
(0.448866 -0.16035 0)
(0.466765 -0.176182 0)
(0.48695 -0.190809 0)
(0.509656 -0.20356 0)
(0.534255 -0.212019 0)
(0.559899 -0.216027 0)
(0.586715 -0.214229 0)
(0.451629 -0.0374247 0)
(0.44508 -0.0565774 0)
(0.440179 -0.0755534 0)
(0.437387 -0.0938165 0)
(0.436942 -0.110821 0)
(0.439099 -0.125935 0)
(0.444159 -0.138454 0)
(0.452236 -0.147713 0)
(0.463411 -0.152825 0)
(0.47748 -0.153099 0)
(0.49391 -0.147693 0)
(0.511597 -0.136064 0)
(0.529162 -0.118225 0)
(0.545029 -0.0946276 0)
(0.557483 -0.0661768 0)
(0.565022 -0.0348904 0)
(0.566716 -0.00310063 0)
(0.563118 0.0275845 0)
(0.554262 0.055431 0)
(0.541014 0.079339 0)
(0.524538 0.0986707 0)
(0.505989 0.113163 0)
(0.486367 0.122856 0)
(0.466617 0.128126 0)
(0.447439 0.129425 0)
(0.429396 0.127311 0)
(0.412871 0.122392 0)
(0.398061 0.115172 0)
(0.385072 0.106143 0)
(0.373947 0.0957229 0)
(0.364672 0.084263 0)
(0.357173 0.0720329 0)
(0.351381 0.0592475 0)
(0.347227 0.0460457 0)
(0.344622 0.0325218 0)
(0.343484 0.0186868 0)
(0.343774 0.00453596 0)
(0.345419 -0.00994713 0)
(0.348372 -0.0247662 0)
(0.352611 -0.0399368 0)
(0.358066 -0.0554627 0)
(0.364678 -0.0713649 0)
(0.372406 -0.0876761 0)
(0.381249 -0.104461 0)
(0.391254 -0.121801 0)
(0.402509 -0.139776 0)
(0.415285 -0.158389 0)
(0.429714 -0.177448 0)
(0.446121 -0.196498 0)
(0.46393 -0.214275 0)
(0.483456 -0.230131 0)
(0.502991 -0.240538 0)
(0.520947 -0.24569 0)
(0.540033 -0.24628 0)
(0.431521 -0.0431968 0)
(0.424947 -0.0642551 0)
(0.420562 -0.084998 0)
(0.418838 -0.104941 0)
(0.420053 -0.123551 0)
(0.424547 -0.140202 0)
(0.432549 -0.15419 0)
(0.444365 -0.164718 0)
(0.459787 -0.170822 0)
(0.478756 -0.171347 0)
(0.500438 -0.16554 0)
(0.523725 -0.152237 0)
(0.547078 -0.130913 0)
(0.568659 -0.101886 0)
(0.585983 -0.0665489 0)
(0.596368 -0.0275493 0)
(0.598935 0.011799 0)
(0.593452 0.0488461 0)
(0.580979 0.0817599 0)
(0.563117 0.109179 0)
(0.541445 0.130612 0)
(0.517586 0.145766 0)
(0.492963 0.154926 0)
(0.468704 0.158775 0)
(0.445689 0.158047 0)
(0.424477 0.153571 0)
(0.405408 0.146097 0)
(0.388586 0.136282 0)
(0.37406 0.124713 0)
(0.361773 0.111883 0)
(0.351618 0.0981639 0)
(0.343461 0.0838563 0)
(0.337171 0.0691602 0)
(0.332637 0.0541874 0)
(0.329733 0.0390106 0)
(0.328352 0.0236075 0)
(0.328432 0.00794787 0)
(0.329902 -0.00800982 0)
(0.332684 -0.0242808 0)
(0.336733 -0.0408907 0)
(0.34195 -0.0578535 0)
(0.348231 -0.0752172 0)
(0.355486 -0.0930379 0)
(0.363646 -0.111438 0)
(0.372677 -0.130556 0)
(0.382575 -0.150552 0)
(0.393455 -0.17138 0)
(0.405191 -0.192865 0)
(0.417818 -0.214227 0)
(0.429489 -0.23372 0)
(0.440683 -0.250253 0)
(0.44876 -0.261127 0)
(0.450354 -0.262188 0)
(0.452884 -0.261979 0)
(0.409425 -0.0489806 0)
(0.40295 -0.0719777 0)
(0.399173 -0.0945769 0)
(0.398552 -0.116381 0)
(0.401434 -0.136889 0)
(0.408201 -0.155504 0)
(0.419059 -0.171433 0)
(0.434144 -0.183815 0)
(0.453385 -0.191451 0)
(0.475996 -0.193084 0)
(0.501611 -0.187514 0)
(0.529439 -0.173003 0)
(0.558187 -0.148561 0)
(0.586168 -0.11442 0)
(0.610474 -0.070858 0)
(0.62657 -0.0217216 0)
(0.631477 0.0277168 0)
(0.625075 0.0733197 0)
(0.609117 0.112698 0)
(0.586074 0.144594 0)
(0.558392 0.168292 0)
(0.528251 0.183803 0)
(0.497769 0.191829 0)
(0.468465 0.193565 0)
(0.441232 0.190103 0)
(0.416686 0.182584 0)
(0.395031 0.171941 0)
(0.376292 0.15903 0)
(0.360384 0.144515 0)
(0.347119 0.128945 0)
(0.336288 0.112726 0)
(0.327662 0.0961587 0)
(0.321031 0.0794167 0)
(0.316255 0.0625761 0)
(0.313172 0.0456642 0)
(0.311641 0.0286343 0)
(0.311601 0.0114162 0)
(0.312972 -0.00605341 0)
(0.315641 -0.0237933 0)
(0.31955 -0.0418288 0)
(0.324543 -0.060172 0)
(0.330461 -0.0788785 0)
(0.337124 -0.0980187 0)
(0.344335 -0.117738 0)
(0.351873 -0.138208 0)
(0.359548 -0.159585 0)
(0.367095 -0.181729 0)
(0.373837 -0.204352 0)
(0.379258 -0.225612 0)
(0.379869 -0.244321 0)
(0.374618 -0.255421 0)
(0.364473 -0.26286 0)
(0.346557 -0.263975 0)
(0.328088 -0.263441 0)
(0.385309 -0.0545851 0)
(0.379031 -0.0795417 0)
(0.375866 -0.104097 0)
(0.376283 -0.127943 0)
(0.380645 -0.150636 0)
(0.389348 -0.171535 0)
(0.402275 -0.189644 0)
(0.419328 -0.204213 0)
(0.43974 -0.213345 0)
(0.46263 -0.216536 0)
(0.488255 -0.211344 0)
(0.516249 -0.196525 0)
(0.546259 -0.170955 0)
(0.578707 -0.133432 0)
(0.612212 -0.0825571 0)
(0.639936 -0.0212468 0)
(0.652544 0.0412378 0)
(0.648879 0.0992777 0)
(0.631984 0.148175 0)
(0.605183 0.186368 0)
(0.571701 0.212777 0)
(0.535198 0.228247 0)
(0.498778 0.234469 0)
(0.464316 0.233134 0)
(0.432909 0.225996 0)
(0.405122 0.214534 0)
(0.381093 0.199981 0)
(0.360699 0.183356 0)
(0.343683 0.165424 0)
(0.329726 0.146771 0)
(0.318484 0.127818 0)
(0.309625 0.108825 0)
(0.302855 0.0899295 0)
(0.297992 0.0711596 0)
(0.294863 0.0524597 0)
(0.29331 0.0337528 0)
(0.293256 0.0149264 0)
(0.294631 -0.00409503 0)
(0.29729 -0.0233151 0)
(0.30114 -0.0427452 0)
(0.305974 -0.0623728 0)
(0.31154 -0.0822363 0)
(0.31751 -0.102387 0)
(0.323435 -0.122891 0)
(0.328781 -0.143915 0)
(0.332995 -0.165515 0)
(0.335115 -0.187296 0)
(0.334161 -0.20855 0)
(0.327296 -0.22624 0)
(0.311561 -0.23785 0)
(0.282981 -0.24138 0)
(0.248147 -0.241106 0)
(0.218232 -0.245284 0)
(0.190214 -0.250343 0)
(0.359158 -0.0598132 0)
(0.353107 -0.0867445 0)
(0.350487 -0.113324 0)
(0.351718 -0.139346 0)
(0.357104 -0.164355 0)