/*--------------------------------*- C++ -*----------------------------------*\
  =========                 |
  \\      /  F ield         | OpenFOAM: The Open Source CFD Toolbox
   \\    /   O peration     | Website:  https://openfoam.org
    \\  /    A nd           | Version:  11
     \\/     M anipulation  |
\*---------------------------------------------------------------------------*/
FoamFile
{
    format      ascii;
    class       surfaceScalarField;
    location    "9";
    object      phi;
}
// * * * * * * * * * * * * * * * * * * * * * * * * * * * * * * * * * * * * * //

dimensions      [0 3 -1 0 0 0 0];

internalField   nonuniform List<scalar> 
18960
(
0.0475632
0.000496459
-0.0480597
0.0470317
0.000531505
0.0465417
0.000490044
0.0460571
0.000484539
0.0455366
0.000520511
0.0450826
0.000453974
0.044729
0.000353684
0.0443523
0.00037669
0.0439401
0.000412171
0.0436775
0.000262586
0.0435273
0.000150211
0.0434904
3.68537e-05
0.0434964
-5.96476e-06
0.043579
-8.26217e-05
0.0437598
-0.000180722
0.0440592
-0.00029942
0.0444412
-0.000382041
0.0449565
-0.000515306
0.0453793
-0.000422775
0.0455064
-0.000127156
0.0454259
8.04997e-05
0.0453139
0.000112055
0.0451657
0.00014819
0.0448937
0.000272006
0.044526
0.000367738
0.0442565
0.000269416
0.044132
0.000124588
0.044057
7.49335e-05
0.0437713
0.000285768
0.0429963
0.000774996
0.0416676
0.00132868
0.040223
0.00144454
0.0388315
0.00139158
0.0377435
0.00108794
0.0368758
0.000867704
0.0360284
0.000847403
0.0363619
-0.000333454
0.036321
4.09122e-05
0.0388339
-0.00251291
-0.00211986
0.0409537
0.0477209
0.000774011
-0.0479985
0.0474438
0.000808603
0.0470827
0.000851209
0.046735
0.000832205
0.0463965
0.000858976
0.046099
0.000751467
0.0458087
0.000644034
0.0455303
0.000655054
0.0453279
0.000614641
0.0451485
0.000441982
0.0450188
0.000279861
0.044948
0.000107701
0.0449369
5.07149e-06
0.04515
-0.000295653
0.0454295
-0.000460225
0.0458174
-0.000687312
0.0462374
-0.000802064
0.0467279
-0.00100586
0.0471444
-0.000839197
0.0475043
-0.000487104
0.0475829
1.88585e-06
0.0474112
0.000283784
0.047163
0.000396416
0.0470183
0.000416642
0.0470338
0.00035227
0.0471778
0.000125456
0.0474111
-0.000108767
0.0478605
-0.00037445
0.0483132
-0.000166939
0.0487443
0.000343893
0.0488243
0.00124867
0.0482222
0.00204671
0.0470068
0.00260692
0.0457315
0.00236328
0.0449929
0.00160624
0.0442522
0.0015881
0.0435874
0.000331373
0.0433047
0.000323626
0.0422892
-0.0014974
-0.0013448
0.0415141
0.047659
0.00115012
-0.0480351
0.0473053
0.00116229
0.0469099
0.00124667
0.0465039
0.00123819
0.0461604
0.00120244
0.0458184
0.00109351
0.0454903
0.000972092
0.0452349
0.000910454
0.045059
0.000790531
0.0449266
0.000574412
0.0448463
0.000360196
0.0448402
0.000113772
0.044922
-7.67594e-05
0.0451926
-0.000566252
0.0455307
-0.000798277
0.0459389
-0.00109554
0.046351
-0.00121419
0.0468077
-0.00146249
0.047149
-0.00118055
0.0475008
-0.000838928
0.0476757
-0.000173004
0.0475752
0.000384296
0.0473015
0.000670121
0.0469154
0.000802752
0.046701
0.000566712
0.046779
4.74247e-05
0.0470481
-0.000377895
0.0476819
-0.00100825
0.0484728
-0.000957788
0.0493453
-0.000528628
0.0499086
0.000685379
0.049908
0.00204726
0.048835
0.00367996
0.0466295
0.00456872
0.0447875
0.00344827
0.0427045
0.00367115
0.04162
0.00141587
0.0411057
0.000837889
0.0413322
-0.0017239
-0.0011263
0.0411137
0.0475869
0.00153407
-0.0479709
0.0472351
0.00151408
0.0468501
0.00163169
0.0465026
0.00158571
0.046183
0.001522
0.045899
0.00137756
0.045627
0.00124409
0.0454205
0.00111692
0.045242
0.000969026
0.0451178
0.000698607
0.0450546
0.000423468
0.0450986
6.97222e-05
0.0451688
-0.000146959
0.0453963
-0.000793768
0.0456999
-0.00110183
0.0460732
-0.00146887
0.0464337
-0.00157469
0.046895
-0.00192376
0.0472084
-0.00149392
0.047503
-0.00113357
0.047628
-0.000297972
0.0476327
0.000379576
0.0474855
0.000817342
0.0471659
0.00112237
0.0468791
0.000853487
0.0468142
0.000112335
0.0469969
-0.000560654
0.0475923
-0.00160367
0.0485063
-0.00187178
0.0495912
-0.00161351
0.0505991
-0.000322469
0.0511586
0.00148773
0.0512914
0.00354718
0.0501616
0.00569851
0.0490468
0.00456308
0.0476186
0.00509928
0.045956
0.00307857
0.0442819
0.00251189
0.0428602
-0.000302118
2.41687e-05
0.0417097
0.0475699
0.00192852
-0.0479643
0.0471922
0.00189174
0.0468209
0.00200296
0.0464708
0.00193581
0.0461391
0.00185377
0.045822
0.00169467
0.0455312
0.00153483
0.0453196
0.00132851
0.0451516
0.00113708
0.0450463
0.000803926
0.0449865
0.000483251
0.0450085
4.77374e-05
0.0451412
-0.000279697
0.0454131
-0.00106564
0.0456995
-0.00138831
0.0461148
-0.00188416
0.0465149
-0.00197478
0.0469428
-0.00235166
0.0472658
-0.00181687
0.0474889
-0.00135665
0.0475771
-0.000386223
0.0476552
0.000301462
0.0475462
0.000926408
0.047274
0.00139457
0.0468675
0.0012599
0.0466416
0.000338306
0.0466313
-0.000550369
0.0469787
-0.00195108
0.0478147
-0.0027078
0.0491708
-0.00296961
0.0507042
-0.00185584
0.0517893
0.000402667
0.0525039
0.00283258
0.0517314
0.006471
0.049987
0.00630741
0.0479457
0.00714067
0.0459203
0.00510394
0.0443684
0.00406373
0.043309
0.000757334
0.000670466
0.0426627
0.0474627
0.00232481
-0.047859
0.0470875
0.00226691
0.0467294
0.00236108
0.046394
0.00227125
0.0460458
0.00220196
0.0457636
0.00197686
0.0455089
0.00178956
0.0453145
0.00152284
0.0451679
0.00128371
0.045127
0.000844833
0.0450852
0.00052504
0.0452356
-0.000102625
0.045395
-0.000439117
0.0456394
-0.0013101
0.0458861
-0.00163496
0.0462928
-0.00229082
0.0466497
-0.0023317
0.0470182
-0.00272014
0.0473084
-0.00210714
0.0475645
-0.0016127
0.0476551
-0.000476838
0.0476847
0.00027186
0.0475439
0.00106718
0.0473635
0.00157501
0.0470268
0.00159657
0.0467526
0.000612544
0.0466123
-0.000410125
0.0467871
-0.00212583
0.047404
-0.00332476
0.048607
-0.00417262
0.0503344
-0.00358326
0.0517693
-0.00103223
0.0532858
0.00131606
0.0539028
0.00585402
0.0531438
0.00706641
0.0517208
0.00856368
0.0496533
0.00717148
0.047169
0.006548
0.0447848
0.00314151
0.00190314
0.0435522
0.0474184
0.00273077
-0.0478244
0.0470538
0.00263152
0.0467094
0.00270544
0.0463607
0.00262
0.0460364
0.00252621
0.0457502
0.00226307
0.0455021
0.00203764
0.0453297
0.00169528
0.0452112
0.00140224
0.0451653
0.000890684
0.0451355
0.000554821
0.0452246
-0.000191673
0.0453844
-0.000598976
0.0456648
-0.0015904
0.0459412
-0.00191141
0.0463356
-0.00268523
0.0467143
-0.00271036
0.047068
-0.00307384
0.0473505
-0.0023897
0.0476208
-0.001883
0.0477245
-0.000580557
0.0477338
0.000262622
0.0475975
0.00120344
0.0473792
0.00179336
0.0470723
0.00190338
0.0467656
0.000919277
0.0465526
-0.000197157
0.0465553
-0.00212848
0.046967
-0.00373642
0.0478478
-0.00505343
0.0497245
-0.00546
0.0515315
-0.00283921
0.0534605
-0.000612943
0.0547182
0.00459635
0.054529
0.0072556
0.0533021
0.00979053
0.0512941
0.00917948
0.0492457
0.00859643
0.0465414
0.00584578
0.00306518
0.0453794
0.0472946
0.00313021
-0.047694
0.0469294
0.00299669
0.0465896
0.0030452
0.0462686
0.00294105
0.0459441
0.00285066
0.0456875
0.00251969
0.0454706
0.00225454
0.0453268
0.00183914
0.0452204
0.00150855
0.0451952
0.000915896
0.0451921
0.00055791
0.0453837
-0.000383232
0.0455643
-0.00077953
0.0458343
-0.00186045
0.0461348
-0.0022119
0.0464882
-0.00303866
0.0468334
-0.00305552
0.0471777
-0.0034181
0.047439
-0.00265107
0.0476752
-0.00211921
0.04779
-0.000695352
0.0477963
0.000256364
0.0476403
0.00135941
0.0474228
0.00201092
0.0471498
0.00217638
0.046817
0.00125203
0.0465457
7.41092e-05
0.0463539
-0.00193663
0.0466804
-0.00406298
0.0472179
-0.00559088
0.0488125
-0.00705459
0.05081
-0.00483669
0.0529903
-0.0027933
0.0550748
0.00251184
0.055967
0.00636342
0.0558744
0.00988313
0.0543917
0.0106622
0.0527446
0.0102436
0.0492605
0.00932988
0.00521367
0.047112
0.04725
0.00352696
-0.0476468
0.0468884
0.00335831
0.0465508
0.00338279
0.0462456
0.00324628
0.0459512
0.0031451
0.0456978
0.00277307
0.0454939
0.00245845
0.0453663
0.00196672
0.0452683
0.00160655
0.0452672
0.00091701
0.0453135
0.0005116
0.0454626
-0.000532311
0.0456331
-0.000950078
0.0459295
-0.00215684
0.0462273
-0.00250969
0.0465852
-0.00339652
0.0469309
-0.00340128
0.0472563
-0.00374345
0.0475253
-0.00292014
0.0477337
-0.00232751
0.0478797
-0.000841436
0.0478984
0.000237728
0.047775
0.00148277
0.0475348
0.00225115
0.0472225
0.00248865
0.0468533
0.00162125
0.046582
0.000345416
0.0462407
-0.00159538
0.0464563
-0.00427851
0.0468129
-0.00594749
0.0479122
-0.00815396
0.0500163
-0.00694073
0.0523966
-0.0051736
0.0551026
-0.000194141
0.056704
0.004762
0.057427
0.00916011
0.0563132
0.011776
0.0552697
0.0112871
0.0523388
0.0122607
0.00759725
0.0499553
0.0471117
0.00391014
-0.0474948
0.0467718
0.00369816
0.0464413
0.00371328
0.0461391
0.0035485
0.0458778
0.00340643
0.0456497
0.0030012
0.0454777
0.00263041
0.0453617
0.00208275
0.0453038
0.00166444
0.045329
0.000891802
0.0454001
0.000440454
0.0455513
-0.000683466
0.045766
-0.00116484
0.0460467
-0.00243746
0.0463678
-0.00283087
0.0467133
-0.00374202
0.0470634
-0.0037513
0.0473401
-0.00402022
0.0476341
-0.00321415
0.0478227
-0.00251604
0.0479601
-0.000978906
0.0479561
0.000241765
0.0478731
0.00156577
0.0476343
0.00248999
0.0473211
0.00280183
0.0468538
0.00208855
0.0465842
0.000614972
0.0461143
-0.00112549
0.0460749
-0.00423909
0.0463452
-0.00621782
0.0470658
-0.00887448
0.048988
-0.00886293
0.0512954
-0.007481
0.0544025
-0.00330124
0.0567701
0.00239433
0.0586127
0.00731753
0.0582171
0.0121716
0.0578068
0.0116974
0.0556161
0.0144514
0.0103037
0.0529097
0.0470771
0.00428499
-0.047452
0.0467363
0.00403893
0.0464338
0.00401581
0.0461413
0.00384105
0.0458806
0.00366705
0.0456736
0.0032082
0.0455143
0.00278971
0.0454257
0.00217143
0.045391
0.00169911
0.0454373
0.000845528
0.0455185
0.000359262
0.0456933
-0.000858274
0.0459111
-0.00138265
0.0461846
-0.002711
0.0465019
-0.00314813
0.0468204
-0.00406054
0.0471643
-0.00409519
0.0474493
-0.00430523
0.0477369
-0.0035017
0.0479213
-0.00270047
0.0480672
-0.00112477
0.0480677
0.000241174
0.0479879
0.00164561
0.0477809
0.00269699
0.047495
0.00308773
0.0469617
0.00262191
0.0465945
0.00098211
0.0461122
-0.000643175
0.0457948
-0.00392171
0.0459727
-0.00639571
0.0463236
-0.0092254
0.0479611
-0.0105004
0.0501054
-0.00962533
0.0534573
-0.00665314
0.0564024
-0.000550729
0.0593776
0.00434229
0.0600483
0.0115009
0.0599467
0.011799
0.0586485
0.0157496
0.0127424
0.0562098
0.0469378
0.00464063
-0.0472935
0.0466165
0.00436025
0.046314
0.00431832
0.0460429
0.00411209
0.0458269
0.00388308
0.0456333
0.00340181
0.0455018
0.00292124
0.0454471
0.00222611
0.0454284
0.00171784
0.0455064
0.00076745
0.0456083
0.000257411
0.0457912
-0.00104122
0.0460278
-0.0016192
0.0462939
-0.00297712
0.046631
-0.00348523
0.0469341
-0.00436362
0.0473032
-0.00446429
0.0475694
-0.0045714
0.0478621
-0.00379447
0.0480012
-0.00283958
0.0481861
-0.00130962
0.0482163
0.000211005
0.0481554
0.00170644
0.0479203
0.00293206
0.0476357
0.00337235
0.0470846
0.00317306
0.0465769
0.00148976
0.0461081
-0.000174382
0.0455414
-0.00335501
0.0455507
-0.00640499
0.0456044
-0.0092791
0.0468709
-0.0117668
0.0486364
-0.0113909
0.0521303
-0.0101471
0.055451
-0.00387137
0.059162
0.000631232
0.0612065
0.00945639
0.0617416
0.0112639
0.061391
0.0161002
0.0145996
0.0595338
0.0469208
0.00498567
-0.0472659
0.0465949
0.00468619
0.0463117
0.00460152
0.0460631
0.00436069
0.0458496
0.00409663
0.045686
0.00356535
0.0455803
0.00302695
0.0455358
0.00227067
0.0455343
0.00171927
0.0456208
0.000681001
0.0457426
0.000135554
0.0459355
-0.00123411
0.046197
-0.00188071
0.0464574
-0.00323748
0.0467948
-0.00382268
0.0470882
-0.00465696
0.0474365
-0.00481259
0.0476888
-0.00482371
0.0479967
-0.00410234
0.0481294
-0.00297232
0.0483057
-0.00148588
0.0483485
0.000168196
0.0483096
0.00174527
0.0481248
0.00311689
0.0478013
0.00369583
0.0473039
0.00367046
0.0466519
0.00214175
0.0461186
0.000358948
0.0453047
-0.00254106
0.0451663
-0.00626661
0.0449611
-0.00907389
0.0459261
-0.0127319
0.0472445
-0.0127092
0.05039
-0.0132927
0.0540564
-0.00753778
0.0583237
-0.00363603
0.0618413
0.00593878
0.0634266
0.00967866
0.0638792
0.0156476
0.0158209
0.0626579
0.0467702
0.00530977
-0.0470943
0.0464695
0.00498687
0.0462116
0.0048595
0.04598
0.00459225
0.0458036
0.004273
0.0456651
0.00370393
0.0455716
0.00312042
0.0455585
0.00228378
0.0455949
0.00168285
0.0456998
0.000576155
0.0458516
-1.62829e-05
0.0460507
-0.00143321
0.0463327
-0.00216272
0.0465736
-0.00347833
0.046936
-0.00418508
0.0472062
-0.00492726
0.0475864
-0.00519273
0.0477935
-0.00503087
0.0481147
-0.00442344
0.0482709
-0.00312854
0.0484501
-0.00166512
0.0484901
0.000128245
0.0484755
0.00175987
0.0483358
0.00325654
0.0480269
0.0040048
0.0475557
0.00414156
0.0467906
0.0029069
0.046232
0.000917517
0.0452211
-0.00153014
0.0447405
-0.00578596
0.0443387
-0.00867214
0.0447942
-0.0131874
0.0459225
-0.0138375
0.0485683
-0.0159384
0.0522738
-0.0112433
0.056754
-0.0081162
0.0615875
0.00110528
0.0644445
0.00682166
0.0659338
0.0141582
0.0162501
0.0655046
0.0467888
0.00562701
-0.047106
0.0464953
0.00528038
0.0462468
0.00510795
0.0460139
0.00482519
0.0458535
0.00443336
0.0457496
0.00380779
0.0456768
0.00319327
0.0456784
0.00228219
0.0457353
0.0016259
0.0458489
0.000462591
0.04602
-0.000187411
0.0462098
-0.00162295
0.0465199
-0.00247288
0.0467405
-0.00369891
0.0471298
-0.00457439
0.0473658
-0.00516327
0.0477321
-0.00555905
0.0479763
-0.00527503
0.0482462
-0.00469336
0.0484332
-0.00331556
0.048598
-0.00182989
0.0486729
5.33171e-05
0.0486509
0.00178184
0.0485767
0.00333081
0.0482397
0.00434181
0.0478878
0.00449341
0.0469901
0.00380462
0.0463139
0.00159369
0.0453371
-0.000553321
0.0444055
-0.00485431
0.0438001
-0.00806682
0.0438029
-0.0131902
0.0445123
-0.0145469
0.046549
-0.0179751
0.0501073
-0.0148017
0.0544531
-0.012462
0.0600697
-0.00451126
0.064567
0.00232432
0.0675071
0.0112181
0.0157
0.0680573
0.0466263
0.00591696
-0.0469162
0.0463541
0.00555258
0.0461344
0.00532764
0.0459527
0.00500686
0.0458245
0.00456155
0.045737
0.00389533
0.0456966
0.00323367
0.0457305
0.00224825
0.0458023
0.00155412
0.045931
0.000333872
0.0461475
-0.000403868
0.0463116
-0.00178705
0.0466964
-0.00285767
0.046887
-0.00388958
0.0472753
-0.00496269
0.0475517
-0.00543959
0.0478626
-0.00586994
0.0481429
-0.00555535
0.0483824
-0.00493286
0.0485885
-0.00352171
0.0487645
-0.00200587
0.0488724
-5.45374e-05
0.0488473
0.00180687
0.0488601
0.00331806
0.0485256
0.00467624
0.0482043
0.00481474
0.0474082
0.00460074
0.0465312
0.0024707
0.0454737
0.000504185
0.0443893
-0.00376992
0.0432622
-0.00693974
0.0427837
-0.0127117
0.0430925
-0.0148557
0.0443725
-0.0192551
0.0475935
-0.0180226
0.0518573
-0.0167259
0.057685
-0.0103389
0.0633964
-0.00338708
0.068129
0.00648548
0.0138421
0.0699869
0.0466666
0.00619635
-0.046946
0.0464046
0.00581457
0.0461939
0.00553835
0.046035
0.00516571
0.0459154
0.00468115
0.0458655
0.00394523
0.0458344
0.00326479
0.0458714
0.00221126
0.0459867
0.00143883
0.0460644
0.000256202
0.0463862
-0.000725735
0.0465211
-0.00192188
0.0468888
-0.00322542
0.0471168
-0.0041176
0.0474543
-0.00530012
0.0477529
-0.00573823
0.0480384
-0.00615542
0.0483273
-0.00584424
0.0485674
-0.005173
0.0487709
-0.00372519
0.0489309
-0.00216591
0.0491145
-0.00023812
0.0490608
0.00186055
0.0490789
0.00330005
0.0488387
0.00491638
0.0484754
0.00517803
0.0478359
0.00524029
0.0469124
0.00339411
0.0456854
0.00173127
0.0444743
-0.0025589
0.043077
-0.00554239
0.0418948
-0.0115295
0.0416864
-0.0146472
0.0421826
-0.0197514
0.0447087
-0.0205487
0.0486179
-0.020635
0.0545037
-0.0162247
0.0609937
-0.00987708
0.0674579
2.13267e-05
0.0103168
0.0709832
0.0465088
0.00644525
-0.0467577
0.046278
0.0060453
0.0461023
0.0057141
0.045972
0.00529601
0.0459009
0.00475224
0.0458598
0.00398632
0.0458831
0.00324144
0.0458912
0.00220323
0.0460941
0.00123591
0.0461936
0.000156692
0.0465068
-0.00103892
0.0466711
-0.00208617
0.0470371
-0.00359147
0.0473091
-0.00438959
0.0476236
-0.00561466
0.0479338
-0.00604835
0.0482281
-0.00644972
0.0484894
-0.0061056
0.0487153
-0.00539888
0.0489701
-0.00398
0.0491051
-0.00230086
0.0493223
-0.00045537
0.0493517
0.00183112
0.0493577
0.00329409
0.0492334
0.00504067
0.0488789
0.00553259
0.0482445
0.00587466
0.0474112
0.00422742
0.046139
0.00300346
0.0446719
-0.00109183
0.0431863
-0.00405673
0.0414134
-0.00975662
0.0404843
-0.0137182
0.0400594
-0.0193265
0.0416886
-0.0221779
0.0447809
-0.0237274
0.050397
-0.0218408
0.0572528
-0.0167329
0.0652746
-0.00800048
0.00483966
0.0707517
0.0465763
0.00668317
-0.0468142
0.0463667
0.00625485
0.046216
0.00586482
0.0461083
0.00540378
0.0460425
0.00481795
0.0459789
0.00404992
0.0460786
0.00314183
0.0461297
0.00215211
0.046321
0.00104459
0.0464187
5.89586e-05
0.0467269
-0.00134709
0.0469618
-0.00232108
0.0472575
-0.00388713
0.0475691
-0.00470118
0.0478579
-0.00590355
0.0481765
-0.00636686
0.0484625
-0.00673573
0.0487304
-0.00637349
0.0489376
-0.00560612
0.0491851
-0.00422753
0.0493381
-0.00245379
0.0495444
-0.000661745
0.049665
0.00171059
0.0496746
0.00328442
0.0495803
0.00513496
0.0493605
0.00575238
0.0487466
0.00648864
0.0478933
0.00508073
0.0467312
0.00416551
0.0450695
0.000569919
0.0434601
-0.00244737
0.041335
-0.00763151
0.0397241
-0.0121073
0.0382765
-0.0178789
0.038676
-0.0225774
0.0405191
-0.0255704
0.0452781
-0.0265998
0.0519629
-0.0234177
0.0612653
-0.0173029
-0.00288005
0.068985
0.0464352
0.00688981
-0.0466418
0.046268
0.00642199
0.0461308
0.00600205
0.0460308
0.00550376
0.0460306
0.0048182
0.0460339
0.00404654
0.0461407
0.00303512
0.0462048
0.002088
0.0464041
0.000845241
0.0466156
-0.000152502
0.046847
-0.00157856
0.0471785
-0.00265253
0.0474085
-0.00411712
0.0478125
-0.00510517
0.0480672
-0.00615823
0.0483868
-0.00668649
0.0486494
-0.00699834
0.0489308
-0.00665493
0.049152
-0.00582734
0.0494131
-0.00448856
0.0495888
-0.00262949
0.0497809
-0.000853887
0.0499507
0.00154081
0.0500524
0.00318274
0.0499602
0.00522715
0.0498279
0.00588466
0.0493582
0.0069583
0.0485411
0.00589788
0.0474806
0.00522597
0.0457288
0.00232175
0.0439856
-0.000704196
0.0416321
-0.00527801
0.0395143
-0.00998941
0.0371396
-0.0155043
0.036198
-0.0216358
0.0364533
-0.0258257
0.039544
-0.0296905
0.0449693
-0.028843
0.0549093
-0.0272429
-0.0129195
0.0649488
0.0465439
0.00709365
-0.0467477
0.0463811
0.0065848
0.0462723
0.00611081
0.0462093
0.00556676
0.0462277
0.00479977
0.0462567
0.00401758
0.0463768
0.00291497
0.0464931
0.00197173
0.0466557
0.000682635
0.0469317
-0.000428437
0.0471124
-0.00175933
0.0475213
-0.00306144
0.0477262
-0.00432198
0.0480873
-0.0054663
0.0483605
-0.00643136
0.0486775
-0.00700352
0.0489277
-0.00724856
0.0492015
-0.00692869
0.0494034
-0.00602931
0.0496544
-0.00473952
0.0498676
-0.00284271
0.0500742
-0.00106044
0.0502623
0.00135267
0.0504269
0.00301818
0.0504363
0.00521768
0.0503026
0.00601845
0.049995
0.00726584
0.0492302
0.00666268
0.0483218
0.00613437
0.0465976
0.00404595
0.0447287
0.00116476
0.0422046
-0.00275392
0.0397987
-0.00758357
0.036725
-0.0124306
0.0343892
-0.0193
0.0329701
-0.0244066
0.0340698
-0.0307901
0.0370254
-0.0317986
0.0457091
-0.0359266
-0.0243907
0.0571802
0.0463893
0.00724029
-0.0465359
0.0462793
0.0066948
0.0462029
0.00618712
0.0462017
0.00556805
0.046237
0.00476444
0.0463216
0.003933
0.0464225
0.00281406
0.0466451
0.00174914
0.0467867
0.000541048
0.047146
-0.000787761
0.0473255
-0.00193885
0.0477259
-0.00346183
0.0479852
-0.00458132
0.0483353
-0.00581632
0.0486251
-0.00672118
0.0489264
-0.00730481
0.0491711
-0.00749325
0.0494366
-0.00719417
0.0496707
-0.00626349
0.0499064
-0.0049752
0.0501291
-0.0030654
0.0503725
-0.00130381
0.0505959
0.00112923
0.0508059
0.0028082
0.0509506
0.00507296
0.0508693
0.0060998
0.050727
0.0074081
0.0500184
0.00737126
0.0492521
0.00690073
0.0476989
0.00559912
0.04589
0.00297365
0.0431834
-4.72929e-05
0.0405503
-0.00495044
0.0372193
-0.00909964
0.0338011
-0.0158817
0.0305103
-0.0211158
0.0293956
-0.0296754
0.029495
-0.031898
0.0344331
-0.0408647
-0.0342215
0.044264
0.0465834
0.00737454
-0.0467176
0.0465013
0.00677683
0.0464672
0.00622125
0.0464707
0.00556452
0.0465314
0.00470376
0.0466509
0.0038135
0.046727
0.00273791
0.0470214
0.00145476
0.0471361
0.000426321
0.0475055
-0.00115707
0.0477446
-0.00217803
0.0480845
-0.00380168
0.0484009
-0.00489774
0.0487145
-0.00612997
0.0490097
-0.00701638
0.0492952
-0.00759024
0.049542
-0.0077401
0.049787
-0.00743911
0.0499953
-0.00647181
0.050238
-0.00521795
0.0504701
-0.00329751
0.0507329
-0.00156658
0.0510286
0.000833511
0.0512327
0.00260412
0.0515061
0.00479962
0.0514845
0.0061214
0.0515059
0.00738662
0.0509124
0.00796483
0.0502717
0.00754144
0.0488499
0.00702084
0.0472573
0.00456632
0.044721
0.00248898
0.0418162
-0.0020456
0.0382356
-0.0055191
0.0343978
-0.0120439
0.029879
-0.0165971
0.0261728
-0.0259692
0.0237774
-0.0295026
0.0236626
-0.0407499
-0.0401036
0.0295446
0.0464264
0.00745353
-0.0465054
0.0463982
0.00680507
0.0464087
0.00621072
0.0464686
0.00550466
0.0465287
0.00464368
0.0467473
0.00359491
0.0468653
0.00261986
0.0471549
0.00116516
0.0473862
0.000195037
0.0476843
-0.00145518
0.048032
-0.00252569
0.0483482
-0.00411796
0.0486948
-0.00524434
0.0489906
-0.00642571
0.0493379
-0.00736374
0.0496128
-0.00786506
0.0498383
-0.00796564
0.0501073
-0.0077081
0.0503248
-0.00668934
0.0505287
-0.00542187
0.0508317
-0.00360052
0.0510828
-0.00181768
0.0514584
0.000457933
0.0517165
0.00234599
0.0521246
0.00439151
0.0521577
0.00608837
0.0523525
0.00719174
0.0519374
0.00837992
0.0514656
0.00801325
0.0503142
0.00817231
0.0487501
0.00613034
0.0465681
0.00467105
0.0438385
0.000683989
0.0402995
-0.00198012
0.0360204
-0.00776479
0.0312872
-0.0118639
0.0254822
-0.0201641
0.0209249
-0.0249453
0.0162779
-0.0361029
-0.0403611
0.0165354
0.0467081
0.00753315
-0.0467877
0.0467081
0.00680501
0.046717
0.00620181
0.0468224
0.00539933
0.0468972
0.00456881
0.0471426
0.00334957
0.0473297
0.00243278
0.0475944
0.000900443
0.0479038
-0.000114404
0.0481632
-0.00171454
0.0485511
-0.00291361
0.0488395
-0.00440637
0.0492235
-0.00562834
0.0495226
-0.00672484
0.0497808
-0.00762194
0.0500525
-0.0081367
0.0503091
-0.0082223
0.0505004
-0.00789932
0.0507493
-0.00693826
0.0509171
-0.00558965
0.0512549
-0.00393838
0.0515071
-0.00206987
0.0519615
3.51645e-06
0.0522049
0.00210259
0.0527594
0.00383703
0.0529286
0.00591917
0.0532469
0.00687344
0.0530775
0.00854929
0.0526962
0.00839461
0.0518921
0.00897635
0.0505944
0.00742804
0.048609
0.00665647
0.0459686
0.00332442
0.042946
0.00104245
0.0386832
-0.00350193
0.0340969
-0.0072776
0.0275921
-0.0136593
0.0215135
-0.0188667
0.0136364
-0.0282258
-0.0348776
0.00815291
0.0466322
0.0075352
-0.0466342
0.0466799
0.0067573
0.0467312
0.00615045
0.0468885
0.00524209
0.047027
0.00443033
0.047255
0.00312153
0.04753
0.00215784
0.0477811
0.000649333
0.0481507
-0.000484091
0.0484611
-0.00202489
0.0488635
-0.00331597
0.0492005
-0.0047434
0.0495284
-0.00595624
0.049877
-0.00707341
0.0502014
-0.00794634
0.0503992
-0.00833452
0.0506928
-0.0085159
0.0508297
-0.00803622
0.051141
-0.00724954
0.0512591
-0.00570781
0.0516455
-0.00432476
0.0518636
-0.00228795
0.0524281
-0.000560986
0.0527316
0.00179906
0.0533683
0.00320039
0.0537294
0.00555798
0.054143
0.00645984
0.0543048
0.00838751
0.0541695
0.00852995
0.0535911
0.00955475
0.0525669
0.00845225
0.0511176
0.00810571
0.0486822
0.0057598
0.046058
0.00366673
0.0421742
0.000381852
0.0380372
-0.0031406
0.0318292
-0.00745137
0.0252236
-0.0122611
0.0163321
-0.0193342
-0.0254368
0.00689123
0.0470982
0.00752122
-0.0470842
0.047179
0.00667654
0.0473137
0.00601568
0.0474687
0.00508717
0.0476887
0.00421029
0.0478715
0.00293873
0.0481916
0.00183774
0.048454
0.000386968
0.0488188
-0.000848966
0.0491311
-0.0023372
0.0495445
-0.00372937
0.0498588
-0.00505762
0.0502548
-0.00635229
0.0504894
-0.00730805
0.0508369
-0.00829381
0.0509993
-0.00849687
0.0512786
-0.00879526
0.0513426
-0.00810021
0.0516475
-0.00755442
0.0517717
-0.00583197
0.052135
-0.00468814
0.0523601
-0.00251301
0.0529396
-0.00114049
0.0533533
0.00138535
0.0539768
0.00257692
0.054555
0.00497975
0.0550978
0.00591709
0.0554958
0.00798951
0.0556402
0.0083855
0.0554933
0.00970167
0.0546542
0.00929139
0.0536242
0.00913567
0.051622
0.00776199
0.0494589
0.0058299
0.0460442
0.00379654
0.0424108
0.00049274
0.0374665
-0.00250702
0.0309681
-0.00576269
0.0230767
-0.0114428
-0.016828
0.0144679
0.0469648
0.00745284
-0.0468964
0.0470918
0.00654957
0.0472726
0.0058348
0.0474976
0.00486222
0.04785
0.00385789
0.0480765
0.00271223
0.0485592
0.001355
0.048768
0.000178215
0.0492828
-0.00136379
0.0495963
-0.0026507
0.0500488
-0.00418182
0.0503766
-0.00538541
0.0508049
-0.00678063
0.0510265
-0.00752963
0.0513425
-0.00860981
0.051507
-0.00866134
0.051756
-0.00904434
0.0518668
-0.008211
0.0520908
-0.00777842
0.0522496
-0.00599072
0.0525947
-0.00503326
0.0528922
-0.00281051
0.0534238
-0.00167215
0.0539988
0.000810443
0.0546436
0.00193204
0.0553811
0.00424232
0.0561292
0.00516892
0.056811
0.00730773
0.0571499
0.00804661
0.057466
0.00938555
0.0570099
0.00974756
0.0564589
0.00968659
0.0547755
0.00944546
0.0530495
0.00755589
0.0504492
0.00639682
0.0469917
0.00395027
0.0434248
0.00105982
0.0387018
-0.0010397
0.0316411
-0.00438211
-0.00991077
0.0247238
0.0477848
0.00736457
-0.0476965
0.0479144
0.00641992
0.0481704
0.00557883
0.0483652
0.00466741
0.0487201
0.00350295
0.0489522
0.00248018
0.0493984
0.000908745
0.0497467
-0.000170032
0.0501775
-0.00179463
0.0505521
-0.0030253
0.0509897
-0.00461946
0.0513631
-0.00575876
0.0516507
-0.00706824
0.051972
-0.00785096
0.0521775
-0.00881523
0.0523413
-0.00882517
0.0524794
-0.00918241
0.0525926
-0.00832421
0.0527461
-0.00793197
0.0529243
-0.0061689
0.0532146
-0.00532358
0.0535752
-0.00317107
0.0540218
-0.00211877
0.0546868
0.000145432
0.0554027
0.00121613
0.0563381
0.00330696
0.0571242
0.00438283
0.0582517
0.00618015
0.0587492
0.0075492
0.0595735
0.00856124
0.0594808
0.00984026
0.0593998
0.00976754
0.058526
0.0103192
0.0568135
0.00926842
0.0550389
0.00817139
0.0521469
0.00684232
0.0487323
0.0044744
0.045573
0.00211959
0.0404791
0.000711789
-0.00394559
0.0345139
0.0477826
0.00712123
-0.0475393
0.0479941
0.00620843
0.0483362
0.00523674
0.0486172
0.00438638
0.0490309
0.00308923
0.0494493
0.00206183
0.0497855
0.000572555
0.0503145
-0.00069907
0.0506437
-0.00212378
0.0512408
-0.0036224
0.0515768
-0.0049555
0.0520112
-0.00619311
0.0523068
-0.0073639
0.0526389
-0.00818306
0.0527844
-0.00896068
0.0529824
-0.00902321
0.0530648
-0.00926483
0.0531901
-0.0084495
0.0532436
-0.00798546
0.0535138
-0.00643911
0.0536843
-0.00549409
0.0541915
-0.00367829
0.0545498
-0.00247698
0.0554352
-0.00073997
0.0560429
0.000608409
0.0573284
0.00202139
0.0581009
0.00361038
0.0595598
0.00472122
0.0604731
0.00663593
0.0615716
0.0074628
0.0622454
0.00916645
0.0623899
0.00962301
0.0624442
0.010265
0.0614168
0.0102957
0.0599835
0.00960472
0.0581994
0.00862639
0.0550171
0.00765675
0.0521576
0.00497903
0.048673
0.00419646
0.00106374
0.0436636
0.048998
0.00680921
-0.048686
0.0492722
0.00593417
0.0495986
0.0049104
0.0499906
0.00399438
0.0502833
0.00279654
0.050805
0.00154015
0.0511271
0.000250401
0.051705
-0.001277
0.0520829
-0.0025016
0.0526029
-0.00414247
0.05292
-0.00527261
0.0533714
-0.00664453
0.0535656
-0.00755807
0.0538738
-0.0084912
0.0538599
-0.00894684
0.0541373
-0.0093006
0.0539474
-0.00907496
0.0541896
-0.00869165
0.0539889
-0.00778475
0.0543688
-0.00681907
0.0543293
-0.00545456
0.0549629
-0.00431183
0.0551889
-0.00270308
0.0562163
-0.00176732
0.056814
1.07589e-05
0.0581399
0.000695466
0.0592262
0.00252408
0.0606547
0.00329269
0.0621879
0.00510269
0.0634231
0.00622761
0.0648556
0.00773399
0.0656798
0.00879882
0.0661396
0.00980519
0.0662905
0.0101448
0.0653146
0.0105806
0.0643593
0.00958166
0.0623376
0.00967852
0.0596229
0.00769367
0.0567135
0.00710593
0.00486382
0.0529134
0.049012
0.00646524
-0.048668
0.0494869
0.00545921
0.0499521
0.00444528
0.0506138
0.00333267
0.0510923
0.00231798
0.0517513
0.000881239
0.0521744
-0.000172743
0.0527558
-0.0018584
0.0532211
-0.00296694
0.0537505
-0.00467187
0.0540417
-0.00556377
0.0545139
-0.00711677
0.0545793
-0.00762344
0.0549483
-0.00886015
0.0548384
-0.00883702
0.0550343
-0.00949652
0.0548041
-0.00884468
0.0549698
-0.00885741
0.0547499
-0.00756487
0.0550568
-0.00712597
0.0550463
-0.005444
0.0555757
-0.00484123
0.0559847
-0.00311209
0.0567312
-0.00251384
0.057746
-0.00100405
0.058808
-0.000366544
0.0603449
0.000987252
0.0618411
0.00179639
0.0635799
0.00336392
0.0654301
0.00437745
0.0671714
0.00599269
0.0689104
0.00705977
0.0700544
0.00866117
0.0710883
0.00911096
0.0712542
0.0104147
0.0709176
0.0099183
0.0700473
0.0105488
0.0682696
0.00947141
0.0659556
0.0094199
0.00787818
0.0629413
0.0507939
0.00614041
-0.050469
0.0512453
0.00500776
0.051636
0.0040546
0.0521126
0.00285608
0.0526571
0.00177349
0.053236
0.000302301
0.0539121
-0.000848794
0.0544142
-0.00236049
0.0549818
-0.00353454
0.0554401
-0.00513017
0.0558342
-0.00595786
0.0561484
-0.00743102
0.0563418
-0.0078168
0.0564288
-0.00894714
0.056417
-0.00882526
0.056343
-0.00942248
0.0561948
-0.00869648
0.0560645
-0.00872713
0.056002
-0.0075024
0.0558869
-0.00701081
0.0561256
-0.00568278
0.0562944
-0.00500996
0.0568609
-0.00367865
0.0575903
-0.00324317
0.058571
-0.00198481
0.0597305
-0.00152606
0.0612931
-0.00057531
0.0630106
7.89399e-05
0.0649118
0.00146265
0.0672304
0.00205884
0.069388
0.00383516
0.071854
0.00459373
0.0740174
0.00649781
0.0758945
0.00723383
0.0774485
0.0088607
0.0781671
0.00919967
0.0784733
0.0102426
0.0778453
0.0100995
0.0769316
0.0103336
0.0102569
0.0745529
0.0520078
0.00538618
-0.0512536
0.0527037
0.00431188
0.0535461
0.00321217
0.0541481
0.00225407
0.0549169
0.00100475
0.0553311
-0.000111951
0.0560037
-0.00152143
0.0565573
-0.002914
0.0571011
-0.00407842
0.0574273
-0.00545634
0.0578109
-0.00634148
0.0578725
-0.00749259
0.0580852
-0.00802948
0.0578808
-0.00874273
0.0578697
-0.00881414
0.0575377
-0.00909053
0.0573552
-0.00851397
0.0570743
-0.00844626
0.0568837
-0.00731174
0.0567509
-0.00687809
0.056845
-0.00577683
0.056946
-0.00511094
0.0575349
-0.00426762
0.0581693
-0.00387755
0.0591135
-0.00292902
0.0604236
-0.00283611
0.0618327
-0.00198439
0.0636034
-0.00169182
0.0658642
-0.000798144
0.0682009
-0.000277832
0.0710674
0.000968691
0.0739311
0.00172998
0.077237
0.00319187
0.0801508
0.00432012
0.0832163
0.00579518
0.0853025
0.00711341
0.0874102
0.00813489
0.0881542
0.00935545
0.0888484
0.00963942