/*--------------------------------*- C++ -*----------------------------------*\
  =========                 |
  \\      /  F ield         | OpenFOAM: The Open Source CFD Toolbox
   \\    /   O peration     | Website:  https://openfoam.org
    \\  /    A nd           | Version:  10
     \\/     M anipulation  |
\*---------------------------------------------------------------------------*/
FoamFile
{
    format      ascii;
    class       volScalarField;
    location    "0.748834";
    object      p;
}
// * * * * * * * * * * * * * * * * * * * * * * * * * * * * * * * * * * * * * //

dimensions      [1 -1 -2 0 0 0 0];

internalField   nonuniform List<scalar> 
15708
(
2.46959
2.47355
2.47739
2.48113
2.48468
2.48807
2.49127
2.49428
2.49708
2.49968
2.50206
2.50422
2.50616
2.50787
2.50935
2.51059
2.5116
2.51238
2.51294
2.51327
2.51339
2.51331
2.51305
2.51261
2.51202
2.51129
2.51044
2.50948
2.50843
2.50733
2.50619
2.50504
2.5039
2.5028
2.50177
2.50082
2.49998
2.49929
2.49876
2.49841
2.49828
2.49837
2.4987
2.4993
2.5002
2.5014
2.50293
2.50481
2.50705
2.50965
2.51263
2.46828
2.47211
2.47588
2.47952
2.48305
2.48641
2.48962
2.49265
2.49549
2.49814
2.5006
2.50285
2.50489
2.50671
2.50832
2.5097
2.51086
2.5118
2.51252
2.51303
2.51333
2.51344
2.51337
2.51314
2.51276
2.51224
2.51159
2.51083
2.51
2.5091
2.50817
2.50722
2.50628
2.50537
2.50451
2.50374
2.50307
2.50253
2.50213
2.50191
2.50189
2.50206
2.50246
2.50311
2.50403
2.50523
2.50674
2.50857
2.51073
2.51323
2.51609
2.46647
2.47018
2.47389
2.47748
2.48097
2.48436
2.48758
2.49065
2.49355
2.49628
2.49882
2.50118
2.50333
2.50529
2.50703
2.50857
2.50989
2.51101
2.51191
2.51261
2.51311
2.51343
2.51358
2.51357
2.51342
2.51312
2.5127
2.51217
2.51157
2.5109
2.51019
2.50947
2.50874
2.50805
2.5074
2.50683
2.50634
2.50597
2.50574
2.50566
2.50575
2.50602
2.5065
2.50721
2.50816
2.50936
2.51085
2.51262
2.51471
2.51711
2.51983
2.46413
2.46779
2.47142
2.47501
2.47849
2.48189
2.48516
2.48829
2.49126
2.49408
2.49673
2.4992
2.50149
2.50359
2.50549
2.50719
2.5087
2.51
2.5111
2.51201
2.51274
2.5133
2.51369
2.51391
2.51398
2.51393
2.51376
2.51349
2.51313
2.51272
2.51226
2.51178
2.51131
2.51085
2.51043
2.51008
2.5098
2.50962
2.50956
2.50964
2.50986
2.51025
2.51082
2.51159
2.51258
2.5138
2.51526
2.51698
2.51899
2.52127
2.52386
2.46127
2.46488
2.46849
2.47207
2.47558
2.47901
2.48234
2.48555
2.48862
2.49155
2.49432
2.49693
2.49936
2.50162
2.50369
2.50558
2.50728
2.50879
2.51012
2.51127
2.51225
2.51304
2.51367
2.51414
2.51447
2.51468
2.51477
2.51477
2.5147
2.51456
2.51437
2.51417
2.51396
2.51376
2.51359
2.51348
2.51343
2.51346
2.51359
2.51384
2.51421
2.51473
2.51541
2.51626
2.51729
2.51852
2.51997
2.52164
2.52356
2.52574
2.52818
2.45785
2.46144
2.46506
2.46866
2.47222
2.47572
2.47914
2.48244
2.48563
2.48868
2.49159
2.49435
2.49695
2.49939
2.50166
2.50376
2.50568
2.50743
2.50899
2.51038
2.51159
2.51264
2.51352
2.51427
2.51487
2.51536
2.51574
2.51603
2.51625
2.51641
2.51652
2.51661
2.51669
2.51677
2.51688
2.51702
2.51722
2.51749
2.51783
2.51827
2.51881
2.51947
2.52026
2.5212
2.52228
2.52354
2.52497
2.5266
2.52844
2.5305
2.5328
2.45386
2.45746
2.46113
2.46478
2.46842
2.472
2.47553
2.47896
2.48228
2.48549
2.48857
2.49151
2.49431
2.49695
2.49944
2.50176
2.50391
2.50588
2.50769
2.50932
2.51079
2.5121
2.51327
2.51429
2.51519
2.51598
2.51667
2.51727
2.5178
2.51827
2.5187
2.5191
2.51949
2.51988
2.52028
2.52071
2.52117
2.52169
2.52226
2.52291
2.52363
2.52445
2.52537
2.5264
2.52755
2.52883
2.53026
2.53185
2.53361
2.53556
2.53771
2.44929
2.45295
2.45665
2.4604
2.46415
2.46787
2.47154
2.47514
2.47864
2.48203
2.48531
2.48846
2.49146
2.49432
2.49702
2.49956
2.50194
2.50415
2.5062
2.5081
2.50984
2.51144
2.51289
2.51422
2.51543
2.51654
2.51755
2.51848
2.51934
2.52015
2.52091
2.52165
2.52236
2.52308
2.52379
2.52452
2.52527
2.52605
2.52688
2.52775
2.52867
2.52966
2.53072
2.53186
2.53308
2.5344
2.53584
2.53739
2.53908
2.54092
2.54293
2.44412
2.44788
2.45165
2.45556
2.45951
2.46341
2.46727
2.47106
2.47476
2.47835
2.48182
2.48517
2.48838
2.49145
2.49437
2.49715
2.49977
2.50224
2.50456
2.50673
2.50876
2.51065
2.51241
2.51406
2.51559
2.51703
2.51838
2.51965
2.52086
2.52202
2.52314
2.52423
2.5253
2.52635
2.5274
2.52845
2.5295
2.53057
2.53166
2.53278
2.53392
2.53509
2.5363
2.53756
2.53887
2.54024
2.54169
2.54322
2.54484
2.54658
2.54845
2.43846
2.4423
2.44635
2.4504
2.45453
2.45863
2.46267
2.46667
2.47055
2.47436
2.47804
2.48161
2.48504
2.48834
2.49151
2.49453
2.49742
2.50016
2.50276
2.50522
2.50755
2.50975
2.51183
2.5138
2.51567
2.51746
2.51916
2.5208
2.52237
2.5239
2.52539
2.52685
2.52828
2.5297
2.5311
2.53249
2.53387
2.53524
2.53661
2.53798
2.53936
2.54073
2.54211
2.5435
2.54491
2.54635
2.54782
2.54933
2.5509
2.55254
2.55427
2.43228
2.43637
2.44055
2.44483
2.44911
2.45342
2.45767
2.46188
2.46601
2.47004
2.47396
2.47777
2.48146
2.48501
2.48844
2.49174
2.4949
2.49792
2.50081
2.50357
2.50621
2.50873
2.51115
2.51346
2.51568
2.51782
2.51989
2.5219
2.52386
2.52577
2.52765
2.5295
2.53131
2.53311
2.53487
2.53662
2.53834
2.54004
2.54171
2.54336
2.54498
2.54657
2.54814
2.54968
2.5512
2.55271
2.55421
2.55572
2.55724
2.5588
2.5604
2.42551
2.42978
2.4342
2.43868
2.44323
2.44776
2.45228
2.45674
2.46112
2.46542
2.46961
2.47369
2.47765
2.48148
2.48519
2.48877
2.49222
2.49554
2.49874
2.50181
2.50477
2.50762
2.51037
2.51303
2.51561
2.51812
2.52057
2.52297
2.52532
2.52763
2.52991
2.53216
2.53438
2.53656
2.53872
2.54084
2.54292
2.54496
2.54695
2.54889
2.55078
2.5526
2.55437
2.55607
2.55772
2.55932
2.56087
2.56239
2.56388
2.56535
2.56683
2.41802
2.4226
2.42726
2.43204
2.43687
2.44167
2.44648
2.45123
2.45591
2.46052
2.46501
2.46938
2.47363
2.47776
2.48177
2.48565
2.4894
2.49303
2.49654
2.49993
2.50322
2.50641
2.50951
2.51252
2.51547
2.51836
2.5212
2.52399
2.52675
2.52947
2.53217
2.53483
2.53746
2.54006
2.54262
2.54514
2.5476
2.54999
2.55232
2.55457
2.55674
2.55881
2.5608
2.56269
2.56448
2.56618
2.56779
2.56933
2.5708
2.57221
2.57358
2.40997
2.41479
2.41977
2.42486
2.43002
2.43517
2.4403
2.44539
2.45041
2.45534
2.46015
2.46485
2.46942
2.47387
2.47819
2.48238
2.48645
2.4904
2.49423
2.49795
2.50157
2.50511
2.50856
2.51194
2.51526
2.51853
2.52177
2.52497
2.52814
2.53128
2.5344
2.5375
2.54056
2.54359
2.54657
2.54949
2.55235
2.55512
2.55781
2.56039
2.56285
2.5652
2.56742
2.5695
2.57146
2.57328
2.57497
2.57654
2.578
2.57936
2.58064
2.40129
2.40639
2.41176
2.41718
2.42274
2.42825
2.43376
2.43923
2.44462
2.44991
2.45508
2.46012
2.46503
2.46981
2.47447
2.47899
2.48339
2.48767
2.49183
2.49588
2.49984
2.50372
2.50753
2.51128
2.51498
2.51864
2.52227
2.52588
2.52948
2.53306
2.53662
2.54015
2.54366
2.54713
2.55055
2.5539
2.55717
2.56034
2.56339
2.56632
2.56911
2.57174
2.57422
2.57652
2.57865
2.58061
2.5824
2.58403
2.5855
2.58682
2.58801
2.39219
2.3976
2.40326
2.40908
2.41496
2.42095
2.42684
2.43276
2.43854
2.44424
2.44979
2.45521
2.46049
2.46563
2.47063
2.4755
2.48023
2.48484
2.48934
2.49373
2.49804
2.50226
2.50642
2.51054
2.51462
2.51867
2.52271
2.52674
2.53076
2.53478
2.53879
2.54278
2.54675
2.55067
2.55454
2.55834
2.56204
2.56562
2.56907
2.57237
2.5755
2.57844
2.58119
2.58373
2.58607
2.58818
2.59009
2.59179
2.59328
2.59459
2.59571
2.38268
2.38842
2.39443
2.40061
2.40691
2.41328
2.41965
2.42598
2.43221
2.43832
2.4443
2.45013
2.4558
2.46132
2.46669
2.47192
2.477
2.48195
2.48678
2.49151
2.49616
2.50073
2.50525
2.50973
2.51418
2.51863
2.52307
2.52752
2.53198
2.53644
2.54091
2.54536
2.5498
2.5542
2.55854
2.56279
2.56694
2.57096
2.57483
2.57852
2.58201
2.58529
2.58834
2.59114
2.59369
2.59599
2.59803
2.59982
2.60136
2.60266
2.60373
2.37299
2.37906
2.38536
2.39189
2.3986
2.4054
2.41222
2.41901
2.42569
2.43225
2.43867
2.44493
2.45101
2.45693
2.46268
2.46827
2.4737
2.479
2.48418
2.48924
2.49423
2.49914
2.50401
2.50885
2.51367
2.51851
2.52335
2.52822
2.53311
2.53803
2.54296
2.54789
2.5528
2.55769
2.56251
2.56726
2.57187
2.57635
2.58066
2.58476
2.58864
2.59228
2.59564
2.59873
2.60152
2.60402
2.60622
2.60813
2.60973
2.61105
2.61208
2.36308
2.36954
2.37617
2.38302
2.39013
2.39735
2.40462
2.41188
2.41904
2.42607
2.43294
2.43964
2.44615
2.45248
2.45862
2.46458
2.47038
2.47602
2.48153
2.48693
2.49225
2.4975
2.5027
2.50789
2.51308
2.5183
2.52354
2.52883
2.53416
2.53952
2.54492
2.55033
2.55576
2.56112
2.56647
2.5717
2.57681
2.58177
2.58654
2.59109
2.59538
2.5994
2.60311
2.6065
2.60957
2.61229
2.61468
2.61671
2.61841
2.61976
2.62078
2.35309
2.35986
2.36683
2.3741
2.38158
2.38921
2.3969
2.40466
2.41232
2.41983
2.42717
2.43431
2.44126
2.448
2.45453
2.46088
2.46704
2.47303
2.47888
2.4846
2.49024
2.49581
2.50134
2.50687
2.51241
2.518
2.52363
2.52933
2.53509
2.54091
2.54678
2.55269
2.55861
2.5645
2.57038
2.5761
2.58175
2.58719
2.59246
2.59748
2.60222
2.60664
2.61073
2.61447
2.61783
2.62081
2.62339
2.62559
2.6274
2.62881
2.62983
2.34309
2.35013
2.35739
2.36504
2.37292
2.38101
2.3891
2.39747
2.4055
2.41357
2.42138
2.42899
2.43636
2.44352
2.45046
2.45719
2.46371
2.47005
2.47622
2.48227
2.48821
2.49409
2.49993
2.50578
2.51166
2.51759
2.5236
2.5297
2.53589
2.54216
2.54852
2.55491
2.56134
2.56779
2.57417
2.58047
2.58665
2.59264
2.59842
2.60393
2.60914
2.61402
2.61851
2.62262
2.62631
2.62956
2.63238
2.63476
2.6367
2.6382
2.63926
2.33309
2.34034
2.34795
2.35596
2.3643
2.37277
2.38127
2.38985
2.39878
2.40724
2.41564
2.42369
2.43151
2.43909
2.44644
2.45355
2.46043
2.46711
2.47361
2.47995
2.48618
2.49234
2.49847
2.50462
2.51081
2.51708
2.52345
2.52994
2.53654
2.54327
2.55009
2.557
2.56396
2.57094
2.57788
2.58477
2.59149
2.59806
2.6044
2.61045
2.61617
2.62152
2.62646
2.63097
2.63501
2.63858
2.64166
2.64424
2.64634
2.64795
2.64907
2.32334
2.3307
2.33856
2.34692
2.35563
2.36458
2.37352
2.38257
2.39179
2.40102
2.40982
2.41842
2.4267
2.43473
2.44249
2.44999
2.45724
2.46425
2.47105
2.47768
2.48418
2.49059
2.49698
2.50339
2.50987
2.51645
2.52315
2.53002
2.53702
2.5442
2.55148
2.5589
2.56642
2.57397
2.58147
2.58896
2.59627
2.60346
2.61039
2.61702
2.62329
2.62916
2.63458
2.63953
2.64396
2.64787
2.65123
2.65404
2.65632
2.65806
2.65927
2.31385
2.32131
2.3294
2.33807
2.34702
2.35638
2.36582
2.37542
2.38506
2.39458
2.40409
2.41317
2.42197
2.43045
2.43864
2.44653
2.45414
2.46149
2.4686
2.47549
2.48222
2.48885
2.49545
2.50209
2.50882
2.51568
2.52269
2.52991
2.53729
2.54493
2.55265
2.56061
2.56866
2.57679
2.58493
2.59301
2.60099
2.60882
2.61639
2.62364
2.63051
2.63694
2.64289
2.64831
2.65317
2.65744
2.66111
2.66418
2.66665
2.66854
2.66985
2.30536
2.31259
2.3206
2.32932
2.33857
2.34826
2.35816
2.3682
2.37839
2.3884
2.3983
2.40801
2.41731
2.42627
2.43488
2.44317
2.45116
2.45885
2.46625
2.47339
2.48032
2.48712
2.49389
2.50072
2.50765
2.51475
2.52205
2.52959
2.53735
2.54537
2.55361
2.56204
2.57067
2.57939
2.58818
2.59693
2.60562
2.61412
2.62239
2.63032
2.63784
2.64487
2.65139
2.65734
2.66266
2.66733
2.67133
2.67465
2.67731
2.67934
2.68076
2.29754
2.30422
2.31199
2.32067
2.33017
2.34015
2.35056
2.36112
2.37181
2.38244
2.39285
2.40303
2.41288
2.4223
2.43132
2.44002
2.44841
2.45645
2.46413
2.47146
2.47852
2.48543
2.4923
2.49924
2.50634
2.51364
2.52119
2.52901
2.53713
2.54554
2.55424
2.56319
2.57238
2.58173
2.5912
2.60068
2.6101
2.61936
2.62837
2.63704
2.64525
2.65297
2.6601
2.6666
2.67243
2.67752
2.68186
2.68544
2.68828
2.69042
2.69192
2.29006
2.29597
2.30327
2.31176
2.32134
2.33166
2.34249
2.3537
2.36484
2.37613
2.38709
2.39791
2.40823
2.41815
2.42755
2.43672
2.44561
2.4541
2.46212
2.46966
2.47681
2.48375
2.49066
2.49766
2.50485
2.5123
2.52005
2.52814
2.53657
2.54536
2.5545
2.56397
2.57375
2.58376
2.59395
2.60419
2.61441
2.6245
2.63433
2.64379
2.65277
2.66121
2.66902
2.67612
2.68248
2.68802
2.69272
2.69654
2.69953
2.70171
2.70321
2.2853
2.29028
2.29679
2.3048
2.31417
2.32449
2.3355
2.3468
2.35842
2.36999
2.38155
2.39268
2.40359
2.4139
2.42348
2.43333
2.44278
2.45168
2.46004
2.46777
2.47499
2.48194
2.48884
2.49586
2.50312
2.51068
2.51859
2.5269
2.53562
2.54476
2.55433
2.56432
2.57469
2.58539
2.59635
2.60742
2.6185
2.62951
2.64025
2.65057
2.66037
2.66957
2.67806
2.68578
2.69267
2.69867
2.70374
2.70779
2.7109
2.71307
2.71447
2.27078
2.27456
2.28036
2.28829
2.29846
2.30968
2.32188
2.33443
2.34732
2.3604
2.3731
2.38553
2.39771
2.40981
2.42196
2.43239
2.44194
2.45092
2.45899
2.46639
2.47336
2.48009
2.48687
2.49385
2.5011
2.50872
2.51676
2.52524
2.5342
2.54366
2.55363
2.56412
2.57512
2.58656
2.5984
2.61036
2.6223
2.63432
2.64599
2.65714
2.66775
2.67775
2.68699
2.69539
2.70292
2.70951
2.71492
2.71922
2.72236
2.72448
2.72571
2.2563
2.25924
2.26469
2.27291
2.28428
2.29652
2.30943
2.322
2.33569
2.34963
2.3634
2.37694
2.39019
2.40307
2.41551
2.42695
2.43745
2.44717
2.45612
2.46402
2.47117
2.47795
2.48464
2.4915
2.49871
2.50634
2.51445
2.52306
2.53222
2.54198
2.55237
2.56337
2.57498
2.58709
2.59979
2.61264
2.62551
2.63835
2.65144
2.66383
2.67567
2.68679
2.69706
2.70629
2.71469
2.72162
2.72731
2.73152
2.73446
2.73619
2.73708
2.24656
2.24818
2.25337
2.26103
2.27041
2.28234
2.29582
2.31068
2.32632
2.341
2.35549
2.36973
2.38337
2.39658
2.4094
2.42154
2.43285
2.44334
2.45278
2.4612
2.46855
2.47526
2.48188
2.48867
2.49581
2.50345
2.51162
2.52032
2.5296
2.53951
2.55016
2.56142
2.57377
2.5864
2.60076
2.61516
2.62983
2.64464
2.65854
2.67252
2.6859
2.69836
2.70984
2.71988
2.72885
2.73639
2.74171
2.74522
2.74711
2.74796
2.74816
2.23694
2.23938
2.24452
2.25203
2.26245
2.27515
2.28882
2.30277
2.31613
2.33055
2.34579
2.36094
2.37583
2.39017
2.40362
2.41639
2.42852
2.43959
2.44919
2.45751
2.4649
2.47171
2.47838
2.48513
2.49215
2.49972
2.5078
2.51646
2.52579
2.53599
2.54781
2.56025
2.57366
2.58814
2.60226
2.61808
2.63464
2.65149
2.66793
2.68373
2.69861
2.71226
2.7246
2.73548
2.74479
2.75207
2.75663
2.75846
2.75898
2.75883
2.75832
2.23006
2.2315
2.23709
2.24434
2.25567
2.26905
2.28294
2.29683
2.31061
2.32468
2.33989
2.35503
2.36985
2.38434
2.39826
2.4115
2.42397
2.43494
2.44473
2.4527
2.46058
2.46759
2.47404
2.48054
2.48747
2.49557
2.50446
2.51371
2.52331
2.53333
2.54393
2.55684
2.5712
2.58718
2.6041
2.62205
2.6406
2.65941
2.67792
2.6954
2.71176
2.72662
2.73994
2.75148
2.76099
2.76752
2.76977
2.77003
2.76954
2.76854
2.76841
2.22679
2.22798
2.233
2.2405
2.25148
2.26488
2.27915
2.29373
2.3081
2.32186
2.33536
2.3496
2.36458
2.37921
2.39303
2.40566
2.41807
2.42961
2.43981
2.44818
2.45597
2.4634
2.47053
2.47745
2.48363
2.49056
2.4983
2.50727
2.5171
2.52787
2.53992
2.55367
2.56948
2.58711
2.60621
2.62634
2.64674
2.6674
2.68788
2.70699
2.72452
2.74084
2.75526
2.76723
2.77553
2.77948
2.78047
2.78033
2.77994
2.78034
2.78075
2.22499
2.22683
2.23028
2.23762
2.24769
2.26001
2.27328
2.2873
2.30207
2.31645
2.32984
2.34333
2.35775
2.37251
2.38734
2.40051
2.41259
2.42454
2.43627
2.44566
2.45311
2.45885
2.46392
2.46878
2.47322
2.48034
2.48833
2.49702
2.5065
2.51784
2.53162
2.54737
2.56535
2.58507
2.60613
2.6282
2.65113
2.67419
2.69671
2.71813
2.73781
2.75546
2.76986
2.78037
2.7866
2.79006
2.79119
2.79144
2.79225
2.79275
2.79235
2.22727
2.22656
2.22945
2.2357
2.24452
2.25589
2.26834
2.28144
2.29509
2.30935
2.32445
2.33873
2.35296
2.36726
2.38319
2.39815
2.41107
2.42104
2.42913
2.43655
2.44239
2.44796
2.45429
2.46117
2.46786
2.47446
2.48175
2.49092
2.50142
2.51359
2.52789
2.54452
2.56387
2.58499
2.60746
2.63106
2.65546
2.6809
2.70648
2.73058
2.75139
2.76852
2.78152
2.79002
2.7969
2.80144
2.80353
2.80434
2.80441
2.80471
2.80128
2.23086
2.23004
2.23269
2.23796
2.24525
2.25505
2.2665
2.27865
2.29171
2.30678
2.32209
2.33752
2.35265
2.36621
2.3781
2.38944
2.40027
2.41015
2.4174
2.42591
2.43516
2.44206
2.44809
2.45438
2.46095
2.46807
2.47574
2.48516
2.49651
2.5108
2.52754
2.54434
2.56491
2.58704
2.61072
2.63648
2.66374
2.69099
2.71925
2.74398
2.76184
2.77922
2.79087
2.80033
2.80843
2.81275
2.81555
2.81598
2.81606
2.81336
2.80829
2.23104
2.23055
2.23293
2.23771
2.24593
2.2562
2.26765
2.27912
2.29063
2.30481
2.3159
2.32934
2.34281
2.35589
2.36772
2.37826
2.38849
2.40073
2.40965
2.41922
2.42759
2.43484
2.44137
2.44772
2.45422
2.462
2.47162
2.4821
2.4949
2.51045
2.52859
2.54751
2.56971
2.59351
2.61887
2.64608
2.67502
2.70321
2.72947
2.75374
2.7722
2.79027
2.80296
2.8111
2.81974
2.82456
2.82722
2.82782
2.8245
2.82405
2.82057
2.2297
2.22895
2.23061
2.23409
2.24063
2.2487
2.25846
2.26993
2.28206
2.29511
2.30772
2.32056
2.33343
2.34632
2.35908
2.37091
2.38223
2.39324
2.4028
2.41183
2.4202
2.42779
2.43495
2.44187
2.44876
2.45869
2.46941
2.48161
2.49567
2.51266
2.53167
2.55294
2.57636
2.60149
2.62921
2.65769
2.68635
2.71425
2.73985
2.76262
2.78474
2.79938
2.81353
2.82523
2.83226
2.83626
2.83981
2.84079
2.83831
2.8357
2.83282
2.22661
2.2257
2.22685
2.2302
2.2359
2.24352
2.25273
2.26337
2.27508
2.28744
2.30019
2.3132
2.32627
2.33964
2.35392
2.36459
2.37291
2.38533
2.39551
2.40487
2.41362
2.42185
2.42985
2.4378
2.44572
2.457
2.46998
2.48317
2.49871
2.51699
2.53763
2.56048
2.58536
2.61178
2.63951
2.66815
2.6963
2.72349
2.75251
2.77478
2.79504
2.81299
2.8268
2.8385
2.84658
2.85167
2.85386
2.85416
2.8531
2.85081
2.84763
2.22389
2.22281
2.22343
2.22627
2.23132
2.23833
2.24707
2.2573
2.26871
2.28093
2.2937
2.30673
2.31988
2.33349
2.34626
2.35704
2.36792
2.37865
2.38921
2.39889
2.4082
2.41728
2.42631
2.43553
2.44542
2.45714
2.47073
2.48582
2.50308
2.5227
2.54457
2.5684
2.59375
2.62044
2.64819
2.67715
2.70893
2.73471
2.7614
2.78753
2.80717
2.82632
2.84104
2.85266
2.8607
2.86645
2.86926
2.87004
2.86932
2.86715
2.86366
2.22124
2.21988
2.22004
2.22242
2.22697
2.23352
2.24186
2.25175
2.26287
2.27498
2.28771
2.30083
2.31445
2.32975
2.3412
2.34779
2.36178
2.37315
2.38375
2.39415
2.40412
2.41416
2.42437
2.435
2.44647
2.4594
2.4739
2.49017
2.50832
2.52852
2.55097
2.57516
2.60111
2.6293
2.65913
2.68816
2.71913
2.74828
2.7722
2.79957
2.82083
2.83966
2.85474
2.86669
2.87555
2.88189
2.88535
2.88656
2.88615
2.88397
2.88018
2.21894
2.21728
2.21707
2.21897
2.22306
2.22919
2.23714
2.24669
2.25751
2.26943
2.28207
2.29518
2.30865
2.32239
2.33559
2.34355
2.35735
2.36902
2.37915
2.39064
2.40157
2.4123
2.42355
2.43544
2.44819
2.46202
2.47742
2.49444
2.51332
2.53433
2.55792
2.58378
2.61132
2.63981
2.66781
2.69631
2.73109
2.75799
2.78519
2.81041
2.83237
2.85145
2.86723
2.87995
2.88965
2.89682
2.90121
2.90297
2.90301
2.90098
2.89702
2.21708
2.21504
2.21456
2.21598
2.2196
2.22535
2.23291
2.24209
2.25255
2.26422
2.27654
2.28948
2.30278
2.31599
2.32888
2.34102
2.35415
2.36351
2.37612
2.38811
2.39981
2.41159
2.42385
2.43693
2.45077
2.46573
2.48224
2.5005
2.52056
2.54241
2.56576
2.59118
2.61882
2.64846
2.67702
2.70694
2.73955
2.76704
2.79437
2.81934
2.84172
2.8613
2.87792
2.8916
2.90243
2.91065
2.91628
2.91903
2.91962
2.91796
2.91402
2.21578
2.2134
2.21267
2.21369
2.21685
2.22219
2.22928
2.2381
2.24779
2.25976
2.2714
2.284
2.2972
2.31051
2.32453
2.33449
2.34933
2.3612
2.373
2.38594
2.3988
2.41173
2.42514
2.43924
2.45405
2.46994
2.48733
2.50626
2.52697
2.54949
2.57371
2.5995
2.62667
2.65629
2.68511
2.71497
2.74491
2.77324
2.8003
2.8256
2.8484
2.86859
2.8863
2.90108
2.91334
2.92295
2.93012
2.93426
2.93563
2.93464
2.93097
2.21515
2.21247
2.21157
2.21225
2.21508
2.2199
2.22654
2.23481
2.24444
2.25529
2.26696
2.2794
2.29233
2.30556
2.31892
2.3321
2.34575
2.35793
2.37114
2.38493
2.39878
2.41288
2.42747
2.44266
2.45858
2.47558
2.49385
2.51335
2.53445
2.55699
2.58123
2.60654
2.63357
2.66186
2.69043
2.71952
2.74837
2.77636
2.80322
2.8285
2.85183
2.87293
2.89174
2.90804
2.92184
2.93321
2.94222
2.94828
2.95094
2.95097
2.9478
2.21522
2.21229
2.21126
2.21169
2.2142
2.21862
2.22479
2.23263
2.24184
2.25232
2.26377
2.276
2.28881
2.30206
2.31565
2.32958
2.3433
2.35645
2.37069
2.38528
2.40003
2.41511
2.43068
2.44682
2.4638
2.4816
2.50055
2.52042
2.54173
2.56411
2.58789
2.61279
2.6389
2.66595
2.69352
2.72145
2.74923
2.77649
2.80292
2.82818
2.85187
2.87381
2.89385
2.91184
2.92761
2.94107
2.95217
2.96067
2.96533
2.96657
2.96427
2.21593
2.21289
2.21176
2.21197
2.21419
2.21832
2.22418
2.23164
2.24055
2.25073
2.26196
2.27406
2.28686
2.30025
2.31416
2.32848
2.34201
2.35678
2.37181
2.38714
2.40276
2.41875
2.43511
2.45201
2.47022
2.48845
2.50782
2.52791
2.54905
2.57115
2.59423
2.61823
2.64313
2.66877
2.6949
2.72127
2.7477
2.77384
2.7995
2.82444
2.84846
2.87127
2.89265
2.91245
2.93043
2.94628
2.95988
2.97099
2.97847
2.98135
2.98014
2.21736
2.21429
2.2131
2.21315
2.21515
2.21902
2.22463
2.23181
2.24049
2.25046
2.26154
2.27358
2.28644
2.3
2.3141
2.32859
2.34328
2.35865
2.37438
2.39042
2.40688
2.42368
2.44103
2.45883
2.47732
2.49621
2.51583
2.53604
2.55691
2.57846
2.60066
2.62348
2.64684
2.67068
2.69485
2.71929
2.74377
2.76829
2.79277
2.81717
2.84139
2.86518
2.88821
2.91011
2.9305
2.94906
2.96546
2.97952
2.99029
2.99549
2.99552
2.21944
2.21646
2.21522
2.21519
2.21704
2.22072
2.22614
2.23312
2.24162
2.25146
2.26248
2.27452
2.28753
2.30126
2.31572
2.33066
2.34591
2.36198
2.37837
2.39514
2.41246
2.43003
2.44816
2.46671
2.48577
2.50512
2.52489
2.54508
2.5656
2.58642
2.60754
2.6289
2.65046
2.67215
2.69396
2.71588
2.73788
2.76017
2.78291
2.80631
2.83038
2.85494
2.87958
2.90384
2.92715
2.94875
2.96827
2.98527
2.9991
3.00734
3.00899
2.22218
2.21926
2.21808
2.21803
2.2198
2.22336
2.22865
2.23551
2.24391
2.2537
2.26472
2.27686
2.28999
2.30398
2.31872
2.33411
2.35009
2.36671
2.38379
2.40132
2.41932
2.43778
2.45666
2.47597
2.49545
2.51519
2.53519
2.55521
2.57531
2.59535
2.61526
2.63498
2.65447
2.6737
2.69273
2.7116
2.73063
2.75009
2.77052
2.79246
2.81623
2.84172
2.86834
2.89525
2.9217
2.94616
2.96799
2.98768
3.00465
3.01854
3.02508
2.51599
2.51972
2.52382
2.52828
2.5331
2.53824
2.5437
2.54946
2.55547
2.56173
2.5682
2.57485
2.58167
2.58862
2.59569
2.60285
2.61008
2.61737
2.62471
2.63207
2.63944
2.6468
2.65413
2.6614
2.66858
2.67562
2.5193
2.52287
2.52679
2.53106
2.53567
2.5406
2.54585
2.55138
2.55719
2.56324
2.56953
2.57601
2.58267
2.58948
2.59644
2.60351
2.61068
2.61793
2.62524
2.63261
2.64
2.64739
2.65477
2.6621
2.66934
2.67645
2.52289
2.52628
2.53
2.53406
2.53844
2.54314
2.54815
2.55345
2.55903
2.56486
2.57093
2.57722
2.5837
2.59037
2.5972
2.60417
2.61126
2.61846
2.62575
2.63311
2.64052
2.64795
2.65537
2.66276
2.67007
2.67724
2.52675
2.52995
2.53346
2.53729
2.54144
2.54589
2.55064
2.55568
2.561
2.56659
2.57242
2.5785
2.58479
2.59129
2.59797
2.60482
2.61182
2.61895
2.62621
2.63355
2.64097
2.64843
2.6559
2.66335
2.67072
2.67796
2.5309
2.5339
2.53719
2.54078
2.54467
2.54885
2.55332
2.55809
2.56313
2.56845
2.57403
2.57986
2.58594
2.59223
2.59875
2.60546
2.61235
2.6194
2.6266
2.63392
2.64133
2.64881
2.65632
2.66382
2.67125
2.67857
2.53534
2.53814
2.5412
2.54453
2.54815
2.55204
2.55622
2.56069
2.56543
2.57045
2.57575
2.58132
2.58715
2.59322
2.59954
2.60608
2.61284
2.61979
2.62691
2.63418
2.64158
2.64907
2.6566
2.66415
2.67164
2.67902
2.54007
2.54266
2.54549
2.54856
2.55189
2.55549
2.55935
2.56349
2.56792
2.57262
2.57761
2.58288
2.58843
2.59426
2.60035
2.60669
2.61328
2.6201
2.62713
2.63433
2.64169
2.64917
2.65673
2.6643
2.67185
2.6793
2.54511
2.54749
2.55007
2.55287
2.55591
2.55919
2.56273
2.56653
2.57061
2.57497
2.57962
2.58457
2.58981
2.59534
2.60117
2.60729
2.61368
2.62034
2.62723
2.63435
2.64165
2.6491
2.65666
2.66427
2.67186
2.67938
2.55045
2.55261
2.55495
2.55748
2.56021
2.56317
2.56636
2.5698
2.57351
2.5775
2.58178
2.58637
2.59127
2.59648
2.60202
2.60787
2.61403
2.62049
2.62723
2.63422
2.64144
2.64884
2.65639
2.66401
2.67165
2.67924
2.5561
2.55805
2.56014
2.56239
2.56481
2.56743
2.57025
2.57331
2.57663
2.58021
2.58409
2.58828
2.5928
2.59766
2.60286
2.6084
2.6143
2.62053
2.62707
2.63392
2.64104
2.64838
2.65589
2.66352
2.6712
2.67885
2.56206
2.5638
2.56565
2.56761
2.56971
2.57197
2.57441
2.57706
2.57996
2.58312
2.58657
2.59034
2.59444
2.59889
2.60371
2.6089
2.61448
2.62043
2.62676
2.63342
2.64041
2.64767
2.65514
2.66278
2.67049
2.6782
2.56833
2.56987
2.57147
2.57314
2.57491
2.5768
2.57885
2.58109
2.58355
2.58625
2.58924
2.59255
2.59619
2.60019
2.60459
2.60938
2.6146
2.62023
2.62628
2.63273
2.63955
2.6467
2.65412
2.66175
2.66951
2.67729
2.57493
2.57627
2.57762
2.57899
2.58042
2.58195
2.5836
2.5854
2.5874
2.58963
2.59213
2.59492
2.59806
2.60157
2.60548
2.60983
2.61463
2.6199
2.62564
2.63183
2.63845
2.64547
2.65282
2.66044
2.66823
2.6761
2.58184
2.58299
2.58409
2.58517
2.58628
2.58743
2.58866
2.59002
2.59154
2.59326
2.59522
2.59748
2.60006
2.60302
2.6064
2.61023
2.61457
2.61941
2.62479
2.63069
2.63709
2.64396
2.65123
2.65883
2.66666
2.67462
2.58908
2.59004
2.5909
2.59171
2.59248
2.59326
2.59407
2.59497
2.59598
2.59716
2.59855
2.60021
2.60218
2.60453
2.60731
2.61057
2.61438
2.61874
2.62372
2.62929
2.63544
2.64213
2.64931
2.6569
2.66479
2.67287
2.59665
2.59743
2.59808
2.59861
2.59905
2.59945
2.59983
2.60025
2.60073
2.60134
2.60212
2.60313
2.60443
2.6061
2.60821
2.61083
2.61403
2.61786
2.62237
2.62756
2.63344
2.63995
2.64702
2.65464
2.66261
2.67084
2.60456
2.60519
2.60562
2.60589
2.60601
2.60603
2.60597
2.60589
2.60582
2.60581
2.60593
2.60624
2.6068
2.60772
2.60907
2.61096
2.61348
2.61671
2.6207
2.62545
2.63104
2.63738
2.64436
2.65198
2.66009
2.66852
2.61283
2.61331
2.61355
2.61356
2.61337
2.613
2.6125
2.6119
2.61125
2.6106
2.61
2.60955
2.60929
2.60937
2.60987
2.61092
2.61267
2.61523
2.61866
2.62292
2.62819
2.63435
2.64129
2.64895
2.6572
2.66587
2.62146
2.62183
2.62188
2.62166
2.62114
2.6204
2.61944
2.61831
2.61705
2.61571
2.61435
2.61304
2.61189
2.61101
2.61058
2.61071
2.61154
2.61334
2.61609
2.61991
2.62485
2.63083
2.63776
2.64551
2.65397
2.66297
2.63047
2.63074
2.63064
2.63019
2.62937
2.62825
2.62683
2.62515
2.62323
2.62117
2.61896
2.61674
2.61459
2.61267
2.61117
2.61025
2.61006
2.61106
2.61302
2.61638
2.62103
2.62685
2.63376
2.64167
2.65044
2.65978
2.63988
2.64007
2.63984
2.63917
2.63806
2.63657
2.63468
2.63244
2.62984
2.62698
2.62388
2.62067
2.61746
2.61435
2.61178
2.60971
2.60836
2.6083
2.60947
2.61241
2.61693
2.6227
2.6296
2.63766
2.64676
2.65656
2.6497
2.64984
2.6495
2.64864
2.64726
2.64539
2.64303
2.6402
2.63689
2.63319
2.62912
2.62486
2.62065
2.6161
2.61225
2.60894
2.60643
2.60486
2.60507
2.60724
2.61156
2.61745
2.62469
2.63305
2.64246
2.65286
2.65993
2.66005
2.65964
2.6586
2.65697
2.65474
2.65191
2.64847
2.64442
2.63984
2.63467
2.62944
2.62381
2.61828
2.61168
2.60641
2.6033
2.60222
2.6024
2.60396
2.60749
2.61292
2.61991
2.62832
2.63794
2.64843
2.67057
2.67069
2.67022
2.66905
2.66718
2.6646
2.66128
2.65721
2.6524
2.6469
2.64059
2.63442
2.62572
2.61967
2.6141
2.60833
2.60335
2.59969
2.59812
2.59899
2.60229
2.60803
2.61542
2.62425
2.63404
2.64491
2.68156
2.68169
2.68118
2.67989
2.67779
2.67485
2.67104
2.66636
2.66079
2.65411
2.64661
2.63934
2.63233
2.62549
2.61697
2.60896
2.60278
2.59821
2.59564
2.596
2.59914
2.6049
2.61231
2.62092
2.63088
2.64192
2.69277
2.69293
2.69238
2.69098
2.68865
2.68533
2.68098
2.67567
2.66945
2.66183
2.65507
2.64868
2.64004
2.63068
2.62122
2.61044
2.60051
2.59462
2.59198
2.59274
2.59638
2.60239
2.61014
2.61928
2.62903
2.64031
2.70405
2.7042
2.70361
2.7021
2.69955
2.69578
2.69076
2.68471
2.6786
2.67336
2.66612
2.65778
2.64814
2.63534
2.62271
2.61208
2.6019
2.59432
2.58994
2.59037
2.59481
2.60109
2.60901
2.61825
2.62813
2.63946
2.71521
2.71529
2.71461
2.71296
2.71015
2.70625
2.70074
2.69634
2.69133
2.68506
2.67708
2.66564
2.65379
2.64198
2.62853
2.61543
2.60433
2.59719
2.59374
2.59285
2.59554
2.60177
2.60993
2.61926
2.62941
2.64099
2.72623
2.72604
2.72517
2.72342
2.72005
2.71657
2.71425
2.71005
2.70387
2.69457
2.6842
2.67379
2.66224
2.64931
2.63584
2.62281
2.61166
2.60418
2.60098
2.60006
2.60222
2.60719
2.61444
2.62356
2.63402
2.64474
2.73713
2.73609
2.73494
2.73392
2.73294
2.73058
2.72737
2.7206
2.71167
2.70345
2.69306
2.68198
2.67
2.65725
2.64477
2.63274
2.62238
2.61484
2.61052
2.60933
2.6113
2.61587
2.62203
2.62949
2.63815
2.6472
2.74781
2.74724
2.74634
2.74623
2.74481
2.7424
2.73603
2.7295
2.72058
2.71095
2.70036
2.68916
2.67756
2.66585
2.65427
2.64352
2.6337
2.62642
2.62178
2.62006
2.62073
2.62379
2.62838
2.63409
2.6406
2.64921
2.75734
2.75881
2.75985
2.76012
2.75477
2.75022
2.74387
2.7363
2.72749
2.71777
2.70718
2.69597
2.68448
2.67306
2.66191
2.65148
2.64257
2.63548
2.63056
2.62819
2.62786
2.6298
2.63411
2.64001
2.64684
2.65299
2.76951
2.77082
2.77164
2.76716
2.76293
2.75771
2.75102
2.743
2.73388
2.72388
2.71306
2.70171
2.69024
2.67892
2.66793
2.65789
2.64925
2.64242
2.6377
2.63585
2.63628
2.63808
2.64083
2.64473
2.64963
2.65589
2.78121
2.78161
2.77866
2.77505
2.77008
2.76417
2.75717
2.74893
2.73971
2.72956
2.71847
2.70684
2.6954
2.68441
2.67362
2.66413
2.65607
2.64978
2.6455
2.64371
2.64369
2.6452
2.64764
2.65088
2.6545
2.65839
2.79071
2.78918
2.78575
2.78149
2.77608
2.76991
2.76291
2.75463
2.74516
2.73406
2.72419
2.71247
2.70102
2.69217
2.68081
2.67189
2.66471
2.65888
2.65478
2.65243
2.65178
2.65215
2.65365
2.65561
2.65785
2.66003
2.79835
2.79557
2.79184
2.78804
2.78277
2.77585
2.76815
2.76002
2.7511
2.74071
2.73068
2.71892
2.70807
2.69804
2.68799
2.67903
2.67167
2.66593
2.66161
2.65902
2.65776
2.65751
2.65799
2.65886
2.65985
2.66067
2.80656
2.80382
2.80009
2.79431
2.78896
2.78241
2.77523
2.76668
2.75734
2.74702
2.73629
2.72502
2.71397
2.70343
2.6935
2.6848
2.67722
2.67127
2.66682
2.66377
2.66196
2.66105
2.66075
2.66078
2.66086
2.66073
2.81717
2.81275
2.8086
2.80339
2.79793
2.79068
2.78265
2.77352
2.76351
2.75279
2.74156
2.72994
2.71862
2.70766
2.69757
2.6885
2.6808
2.67462
2.66985
2.6665
2.66425
2.66289
2.66211
2.66159
2.66104
2.66022
2.82928
2.8249
2.82031
2.81433
2.80757
2.7995
2.79044
2.78043
2.76959
2.7581
2.74614
2.73395
2.72196
2.71049
2.69973
2.6903
2.68226
2.67565
2.67066
2.667
2.66458
2.66299
2.66195
2.66115
2.66027
2.65907
2.84364
2.83868
2.83293
2.82593
2.81786
2.8087
2.79854
2.78744
2.77554
2.76298
2.74999
2.73684
2.72389
2.71151
2.70002
2.68986
2.68126
2.6742
2.6688
2.66508
2.66254
2.66102
2.66001
2.65926
2.6584
2.65717
2.85899
2.85316
2.84623
2.83807
2.82878
2.81837
2.80692
2.79452
2.78128
2.76737
2.75301
2.7385
2.72421
2.71058
2.69797
2.68677
2.67729
2.66962
2.66392
2.66016
2.65778
2.65657
2.65597
2.65567
2.65523
2.65436
2.8749
2.86822
2.86018
2.85084
2.84025
2.82846
2.81558
2.80166
2.78683
2.77124
2.75513
2.73883
2.72278
2.70742
2.6932
2.68053
2.66985
2.66143
2.65536
2.6516
2.64974
2.64918
2.64942
2.65005
2.65054
2.65054
2.89126
2.88378
2.87472
2.8642
2.85228
2.83905
2.82457
2.80891
2.7922
2.77458
2.75632
2.73779
2.71943
2.70175
2.68533
2.67073
2.65836
2.64892
2.6423
2.63898
2.63785
2.63825
2.63985
2.64199
2.64413