/*--------------------------------*- C++ -*----------------------------------*\
  =========                 |
  \\      /  F ield         | OpenFOAM: The Open Source CFD Toolbox
   \\    /   O peration     | Website:  https://openfoam.org
    \\  /    A nd           | Version:  10
     \\/     M anipulation  |
\*---------------------------------------------------------------------------*/
FoamFile
{
    format      ascii;
    class       surfaceScalarField;
    location    "0.748834";
    object      phi;
}
// * * * * * * * * * * * * * * * * * * * * * * * * * * * * * * * * * * * * * //

dimensions      [1 0 -1 0 0 0 0];

internalField   nonuniform List<scalar> 
31108
(
0.000444674
-9.72352e-05
0.000432962
-9.25523e-05
0.000421473
-8.77625e-05
0.000410252
-8.28818e-05
0.000399382
-7.80125e-05
0.000388877
-7.31357e-05
0.000378767
-6.82962e-05
0.000369065
-6.35143e-05
0.000359786
-5.8797e-05
0.000350948
-5.41629e-05
0.000342546
-4.96187e-05
0.000334594
-4.51695e-05
0.000327092
-4.08204e-05
0.000320042
-3.65735e-05
0.000313452
-3.24309e-05
0.000307319
-2.8393e-05
0.000301638
-2.44595e-05
0.000296407
-2.06295e-05
0.000291619
-1.69015e-05
0.000287262
-1.32744e-05
0.000283334
-9.74602e-06
0.000279826
-6.31288e-06
0.00027672
-2.97862e-06
0.000274013
2.60908e-07
0.000271698
3.39778e-06
0.000269756
6.43953e-06
0.000268175
9.37766e-06
0.000266945
1.22105e-05
0.000266052
1.49391e-05
0.000265484
1.75552e-05
0.000265233
2.00561e-05
0.000265279
2.24399e-05
0.00026561
2.46992e-05
0.000266218
2.68315e-05
0.000267086
2.8832e-05
0.000268203
3.06962e-05
0.000269553
3.24207e-05
0.000271126
3.40021e-05
0.000272906
3.54364e-05
0.000274882
3.67215e-05
0.000277043
3.78553e-05
0.000279374
3.88397e-05
0.000281867
3.96601e-05
0.000284498
4.03335e-05
0.000287255
4.08429e-05
0.000290116
4.12005e-05
0.000293067
4.14021e-05
0.000296082
4.14554e-05
0.000299148
4.13606e-05
0.000302239
4.11279e-05
4.07627e-05
0.000305331
0.000449416
-8.52229e-05
0.000437684
-8.07241e-05
0.000426195
-7.61994e-05
0.000415035
-7.16502e-05
0.000404136
-6.71095e-05
0.000393583
-6.25949e-05
0.000383418
-5.81265e-05
0.000373646
-5.37266e-05
0.000364289
-4.93966e-05
0.000355356
-4.51558e-05
0.000346863
-4.10049e-05
0.000338813
-3.69487e-05
0.000331214
-3.2989e-05
0.000324072
-2.91269e-05
0.000317389
-2.53626e-05
0.000311163
-2.16957e-05
0.000305395
-1.81258e-05
0.000300077
-1.46516e-05
0.000295202
-1.1272e-05
0.000290763
-7.98579e-06
0.000286754
-4.79194e-06
0.000283163
-1.68869e-06
0.000279984
1.32352e-06
0.000277198
4.24574e-06
0.000274797
7.07409e-06
0.000272774
9.80531e-06
0.00027111
1.24411e-05
0.000269794
1.49727e-05
0.000268818
1.73997e-05
0.000268158
1.97187e-05
0.00026781
2.19239e-05
0.000267759
2.40094e-05
0.000267986
2.59734e-05
0.000268483
2.78104e-05
0.000269239
2.95147e-05
0.000270238
3.10839e-05
0.000271467
3.25134e-05
0.000272913
3.38003e-05
0.000274561
3.49419e-05
0.000276401
3.59358e-05
0.000278418
3.67849e-05
0.000280606
3.74784e-05
0.000282947
3.80293e-05
0.000285423
3.84245e-05
0.000288027
3.86738e-05
0.000290729
3.8777e-05
0.000293522
3.87405e-05
0.000296383
3.85674e-05
0.000299295
3.82643e-05
0.000302244
3.78414e-05
3.73072e-05
0.000305205
0.000453723
-7.3237e-05
0.000442046
-6.89948e-05
0.000430587
-6.47003e-05
0.000419392
-6.04282e-05
0.00040848
-5.621e-05
0.000397886
-5.20021e-05
0.000387677
-4.79152e-05
0.000377821
-4.38703e-05
0.00036838
-3.99304e-05
0.000359364
-3.60789e-05
0.000350781
-3.23223e-05
0.000342643
-2.86603e-05
0.000334957
-2.5093e-05
0.000327725
-2.1619e-05
0.000320954
-1.8237e-05
0.000314642
-1.4946e-05
0.000308789
-1.17444e-05
0.000303389
-8.63059e-06
0.000298436
-5.6049e-06
0.000293919
-2.66229e-06
0.000289835
1.92008e-07
0.000286171
2.96387e-06
0.000282915
5.65234e-06
0.00028006
8.25367e-06
0.000277582
1.07705e-05
0.00027548
1.31945e-05
0.000273735
1.55244e-05
0.000272339
1.77569e-05
0.000271273
1.98866e-05
0.000270527
2.19096e-05
0.000270087
2.38207e-05
0.000269938
2.56149e-05
0.000270064
2.7287e-05
0.000270454
2.88326e-05
0.000271097
3.02476e-05
0.000271979
3.1527e-05
0.000273087
3.26672e-05
0.000274406
3.36667e-05
0.000275926
3.45217e-05
0.000277631
3.52338e-05
0.000279513
3.57979e-05
0.000281565
3.62178e-05
0.000283761
3.6493e-05
0.000286094
3.66213e-05
0.000288552
3.66132e-05
0.000291115
3.64668e-05
0.00029377
3.61923e-05
0.000296495
3.57935e-05
0.000299279
3.528e-05
0.000302103
3.46623e-05
3.39507e-05
0.00030495
0.000457706
-6.1309e-05
0.000446081
-5.72463e-05
0.000434616
-5.31802e-05
0.000423419
-4.91852e-05
0.000412425
-4.52431e-05
0.000401784
-4.13916e-05
0.000391464
-3.76217e-05
0.000381539
-3.39565e-05
0.000372018
-3.03947e-05
0.000362921
-2.69336e-05
0.000354258
-2.3572e-05
0.000346039
-2.03069e-05
0.000338273
-1.7136e-05
0.000330964
-1.40551e-05
0.000324115
-1.10605e-05
0.000317729
-8.15145e-06
0.000311804
-5.32459e-06
0.000306333
-2.57485e-06
0.000301311
9.1373e-08
0.000296734
2.68091e-06
0.000292582
5.19851e-06
0.000288849
7.63707e-06
0.000285526
9.99753e-06
0.000282599
1.22788e-05
0.000280055
1.44789e-05
0.00027788
1.65956e-05
0.000276059
1.86233e-05
0.00027458
2.0559e-05
0.00027343
2.23933e-05
0.000272596
2.41234e-05
0.000272061
2.57445e-05
0.000271814
2.72511e-05
0.000271839
2.86367e-05
0.00027212
2.98966e-05
0.000272652
3.10263e-05
0.000273419
3.20221e-05
0.000274406
3.28799e-05
0.000275603
3.35976e-05
0.000276993
3.41752e-05
0.000278567
3.46059e-05
0.000280324
3.48967e-05
0.000282234
3.50437e-05
0.000284302
3.50484e-05
0.000286498
3.49195e-05
0.000288824
3.46533e-05
0.000291257
3.42618e-05
0.000293787
3.37487e-05
0.000296394
3.31235e-05
0.000299067
3.23958e-05
0.000301789
3.15775e-05
3.06808e-05
0.000304544
0.000461459
-4.94301e-05
0.000449814
-4.54865e-05
0.000438316
-4.16362e-05
0.000427025
-3.78763e-05
0.000415999
-3.42262e-05
0.000405258
-3.0686e-05
0.000394874
-2.72698e-05
0.000384866
-2.3968e-05
0.00037526
-2.07861e-05
0.000366079
-1.77172e-05
0.00035733
-1.47537e-05
0.000349027
-1.18903e-05
0.000341181
-9.12198e-06
0.000333796
-6.44142e-06
0.000326875
-3.84001e-06
0.000320421
-1.31821e-06
0.000314434
1.12495e-06
0.000308909
3.49746e-06
0.000303828
5.80608e-06
0.000299186
8.0443e-06
0.000294976
1.02143e-05
0.000291187
1.23153e-05
0.000287805
1.43475e-05
0.000284817
1.63083e-05
0.000282207
1.8195e-05
0.000279964
2.00037e-05
0.000278073
2.17297e-05
0.000276522
2.33672e-05
0.000275291
2.49113e-05
0.00027437
2.63547e-05
0.000273744
2.76909e-05
0.000273398
2.89141e-05
0.00027332
3.00193e-05
0.000273494
3.09985e-05
0.000273911
3.18497e-05
0.000274561
3.25685e-05
0.000275427
3.31503e-05
0.000276498
3.35931e-05
0.000277767
3.38953e-05
0.000279219
3.40555e-05
0.000280839
3.40734e-05
0.000282625
3.39542e-05
0.00028456
3.36987e-05
0.000286635
3.33084e-05
0.000288837
3.27919e-05
0.00029115
3.21554e-05
0.000293567
3.14034e-05
0.000296068
3.05503e-05
0.000298643
2.96047e-05
0.00030128
2.85786e-05
2.74888e-05
0.000303962
0.000464983
-3.74889e-05
0.000453279
-3.367e-05
0.000441717
-3.00129e-05
0.000430351
-2.64863e-05
0.000419218
-2.31142e-05
0.000408387
-1.98863e-05
0.000397909
-1.68247e-05
0.000387803
-1.38866e-05
0.000378104
-1.10915e-05
0.000368836
-8.42168e-06
0.000360003
-5.86354e-06
0.000351615
-3.4101e-06
0.000343685
-1.05206e-06
0.000336223
1.21763e-06
0.000329238
3.41087e-06
0.000322729
5.53441e-06
0.000316685
7.59502e-06
0.000311099
9.59184e-06
0.000305967
1.15289e-05
0.00030128
1.34066e-05
0.000297023
1.52268e-05
0.000293183
1.69893e-05
0.000289747
1.86919e-05
0.000286704
2.03322e-05
0.000284037
2.19065e-05
0.000281734
2.34097e-05
0.000279778
2.4837e-05
0.000278154
2.61817e-05
0.000276847
2.74372e-05
0.000275845
2.85964e-05
0.000275131
2.96531e-05
0.000274692
3.05992e-05
0.000274512
3.14281e-05
0.000274582
3.21355e-05
0.000274887
3.27149e-05
0.00027542
3.3163e-05
0.000276165
3.34755e-05
0.000277118
3.36491e-05
0.000278257
3.36816e-05
0.000279582
3.35772e-05
0.000281078
3.33328e-05
0.000282736
3.29509e-05
0.000284548
3.24355e-05
0.000286499
3.17926e-05
0.000288582
3.10259e-05
0.000290788
3.01428e-05
0.000293099
2.91545e-05
0.000295509
2.80697e-05
0.000298
2.69009e-05
0.000300564
2.56615e-05
2.43679e-05
0.00030319
0.000468384
-2.54368e-05
0.000456524
-2.17583e-05
0.000444885
-1.82398e-05
0.000433385
-1.49638e-05
0.000422102
-1.18736e-05
0.000411152
-8.97823e-06
0.000400511
-6.24356e-06
0.000390271
-3.69512e-06
0.000380458
-1.29504e-06
0.000371089
9.59551e-07
0.000362172
3.09571e-06
0.000353718
5.12213e-06
0.000345732
7.05658e-06
0.000338211
8.91122e-06
0.000331165
1.06932e-05
0.000324601
1.24117e-05
0.000318515
1.40738e-05
0.000312889
1.56831e-05
0.000307714
1.72434e-05
0.000302985
1.87567e-05
0.000298694
2.02241e-05
0.000294828
2.16452e-05
0.000291368
2.30182e-05
0.000288295
2.43394e-05
0.000285592
2.56027e-05
0.000283239
2.68041e-05
0.000281221
2.79364e-05
0.000279523
2.89919e-05
0.000278133
2.99644e-05
0.000277041
3.08454e-05
0.000276234
3.16272e-05
0.000275696
3.23022e-05
0.000275413
3.28632e-05
0.000275377
3.33038e-05
0.000275573
3.36185e-05
0.000275991
3.38025e-05
0.000276621
3.3852e-05
0.00027745
3.37645e-05
0.000278468
3.35378e-05
0.000279668
3.31728e-05
0.00028104
3.26704e-05
0.000282575
3.20323e-05
0.000284266
3.12627e-05
0.000286103
3.03677e-05
0.000288075
2.93536e-05
0.000290172
2.82272e-05
0.000292385
2.69991e-05
0.000294707
2.56798e-05
0.000297123
2.42834e-05
0.000299623
2.28239e-05
2.1316e-05
0.000302199
0.00047147
-1.32251e-05
0.000459483
-9.64651e-06
0.000447598
-6.31036e-06
0.000435909
-3.26374e-06
0.000424491
-4.76877e-07
0.000413377
2.0917e-06
0.000402637
4.44433e-06
0.0003923
6.60048e-06
0.000382383
8.58882e-06
0.000372913
1.04185e-05
0.000363905
1.21244e-05
0.000355372
1.37132e-05
0.000347324
1.52106e-05
0.000339758
1.66324e-05
0.000332672
1.79889e-05
0.00032607
1.92909e-05
0.000319949
2.05468e-05
0.000314295
2.17625e-05
0.000309096
2.29411e-05
0.000304347
2.40855e-05
0.000300039
2.51974e-05
0.000296157
2.62755e-05
0.000292674
2.73174e-05
0.000289565
2.83177e-05
0.000286815
2.92722e-05
0.000284413
3.01727e-05
0.000282344
3.10139e-05
0.000280589
3.17868e-05
0.000279133
3.24827e-05
0.000277962
3.30926e-05
0.000277064
3.36074e-05
0.000276429
3.4019e-05
0.000276044
3.43193e-05
0.000275901
3.45013e-05
0.000275989
3.45592e-05
0.000276292
3.4487e-05
0.000276804
3.42819e-05
0.000277513
3.394e-05
0.000278409
3.34601e-05
0.000279485
3.28419e-05
0.000280735
3.20869e-05
0.000282149
3.11985e-05
0.00028372
3.01796e-05
0.000285441
2.90365e-05
0.000287304
2.77764e-05
0.000289301
2.64068e-05
0.000291424
2.49383e-05
0.00029366
2.33825e-05
0.000296008
2.17526e-05
0.000298452
2.00644e-05
1.83344e-05
0.000300986
0.000474301
-8.1121e-07
0.000462064
2.69975e-06
0.000449977
5.80018e-06
0.000438087
8.6009e-06
0.000426485
1.112e-05
0.000415232
1.3322e-05
0.00040436
1.52939e-05
0.000393897
1.70357e-05
0.000383869
1.85881e-05
0.000374286
1.99672e-05
0.000365165
2.12193e-05
0.000356533
2.23533e-05
0.000348409
2.33984e-05
0.0003408
2.43716e-05
0.000333703
2.52889e-05
0.000327107
2.61636e-05
0.000320997
2.70043e-05
0.000315355
2.78174e-05
0.000310163
2.86084e-05
0.000305411
2.93802e-05
0.000301083
3.01333e-05
0.000297166
3.08657e-05
0.000293644
3.15749e-05
0.000290499
3.2256e-05
0.000287715
3.29029e-05
0.000285273
3.3508e-05
0.000283156
3.40628e-05
0.000281347
3.45582e-05
0.000279832
3.49837e-05
0.000278595
3.53297e-05
0.000277622
3.55857e-05
0.000276902
3.57424e-05
0.000276424
3.57912e-05
0.000276176
3.57239e-05
0.000276152
3.55337e-05
0.000276343
3.52148e-05
0.000276733
3.47628e-05
0.000277319
3.4175e-05
0.000278091
3.34494e-05
0.000279043
3.25851e-05
0.00028017
3.15852e-05
0.000281463
3.04511e-05
0.000282917
2.91878e-05
0.000284526
2.78004e-05
0.000286282
2.62966e-05
0.000288179
2.46846e-05
0.000290211
2.29748e-05
0.00029237
2.11791e-05
0.00029465
1.93112e-05
0.000297043
1.73871e-05
1.54241e-05
0.000299545
0.000476868
1.18967e-05
0.000464366
1.52599e-05
0.00045203
1.81949e-05
0.000439886
2.07249e-05
0.00042808
2.29116e-05
0.000416607
2.47547e-05
0.000405556
2.63021e-05
0.000394936
2.76089e-05
0.000384792
2.86916e-05
0.000375063
2.96125e-05
0.00036588
3.03837e-05
0.000357219
3.10439e-05
0.00034909
3.16154e-05
0.000341489
3.21234e-05
0.000334395
3.25864e-05
0.000327787
3.30179e-05
0.000321653
3.34302e-05
0.000315985
3.38311e-05
0.000310781
3.42271e-05
0.000306028
3.462e-05
0.000301707
3.50101e-05
0.000297792
3.53962e-05
0.000294264
3.57747e-05
0.000291105
3.61393e-05
0.000288299
3.64841e-05
0.000285828
3.67989e-05
0.000283675
3.70741e-05
0.000281821
3.72991e-05
0.000280251
3.74618e-05
0.00027895
3.75518e-05
0.000277904
3.75576e-05
0.000277103
3.74684e-05
0.000276536
3.72747e-05
0.000276193
3.69672e-05
0.000276063
3.65389e-05
0.000276139
3.59822e-05
0.000276415
3.52934e-05
0.00027688
3.44674e-05
0.000277528
3.35054e-05
0.000278356
3.24034e-05
0.00027936
3.11652e-05
0.000280532
2.97923e-05
0.00028187
2.82895e-05
0.000283365
2.6662e-05
0.000285015
2.49174e-05
0.000286814
2.30638e-05
0.000288757
2.1112e-05
0.000290839
1.90735e-05
0.000293054
1.69626e-05
0.000295398
1.47948e-05
1.25888e-05
0.000297868
0.000478949
2.4893e-05
0.000466187
2.81612e-05
0.000453609
3.08725e-05
0.000441254
3.31501e-05
0.000429174
3.49334e-05
0.000417507
3.63947e-05
0.000406188
3.74973e-05
0.000395395
3.83266e-05
0.000385089
3.8936e-05
0.000375339
3.93417e-05
0.000366115
3.96115e-05
0.000357419
3.97681e-05
0.000349252
3.98446e-05
0.000341612
3.98674e-05
0.000334494
3.98571e-05
0.000327884
3.98318e-05
0.000321775
3.98042e-05
0.000316156
3.97848e-05
0.000310998
3.97792e-05
0.000306275
3.97891e-05
0.000301968
3.98146e-05
0.000298069
3.98535e-05
0.000294558
3.99023e-05
0.000291415
3.99552e-05
0.000288614
4.00026e-05
0.000286134
4.00331e-05
0.000283957
4.00358e-05
0.000282066
3.9998e-05
0.000280444
3.99075e-05
0.000279081
3.97515e-05
0.000277962
3.95172e-05
0.000277076
3.91924e-05
0.000276414
3.87664e-05
0.000275968
3.82292e-05
0.00027573
3.75724e-05
0.000275691
3.67885e-05
0.000275846
3.58723e-05
0.000276193
3.48192e-05
0.000276722
3.36274e-05
0.000277429
3.22969e-05
0.000278312
3.08281e-05
0.000279365
2.92232e-05
0.000280583
2.7487e-05
0.000281966
2.56242e-05
0.000283508
2.36421e-05
0.000285209
2.15487e-05
0.000287063
1.93544e-05
0.000289067
1.70707e-05
0.00029122
1.47116e-05
0.000293517
1.22929e-05
9.833e-06
0.000295955
0.000480227
3.81944e-05
0.000467263
4.12952e-05
0.000454492
4.38338e-05
0.00044189
4.57671e-05
0.000429618
4.72334e-05
0.000417731
4.82204e-05
0.000406283
4.88801e-05
0.000395335
4.9184e-05
0.000384901
4.92902e-05
0.00037505
4.91435e-05
0.000365746
4.88894e-05
0.000357009
4.85175e-05
0.000348832
4.80755e-05
0.000341203
4.75924e-05
0.000334112
4.70932e-05
0.000327548
4.65964e-05
0.00032149
4.61172e-05
0.000315918
4.56649e-05
0.000310811
4.52483e-05
0.000306143
4.48693e-05
0.000301888
4.45283e-05
0.000298029
4.42217e-05
0.000294546
4.39443e-05
0.000291416
4.36876e-05
0.000288618
4.34417e-05
0.000286132
4.31943e-05
0.000283938
4.2933e-05
0.000282019
4.26431e-05
0.000280358
4.23097e-05
0.000278942
4.19184e-05
0.000277758
4.14553e-05
0.000276797
4.09071e-05
0.000276049
4.02608e-05
0.000275508
3.95055e-05
0.000275167
3.86316e-05
0.000275021
3.76314e-05
0.000275062
3.64987e-05
0.000275286
3.52283e-05
0.00027569
3.38182e-05
0.000276272
3.22664e-05
0.000277031
3.0576e-05
0.000277964
2.87466e-05
0.00027907
2.6783e-05
0.000280341
2.469e-05
0.000281779
2.2474e-05
0.000283379
2.01431e-05
0.000285141
1.77067e-05
0.000287065
1.51759e-05
0.000289151
1.25642e-05
0.000291398
9.88713e-06
7.16301e-06
0.000293806
0.000480404
5.15586e-05
0.000467288
5.46142e-05
0.00045428
5.6942e-05
0.00044152
5.85962e-05
0.000429091
5.96593e-05
0.000417059
6.02179e-05
0.000405517
6.03631e-05
0.000394511
6.01578e-05
0.000384055
5.96898e-05
0.00037413
5.90293e-05
0.000364824
5.82002e-05
0.00035608
5.72754e-05
0.000347921
5.629e-05
0.000340339
5.52796e-05
0.000333309
5.42726e-05
0.000326803
5.32874e-05
0.000320799
5.23426e-05
0.00031528
5.14481e-05
0.000310227
5.06138e-05
0.000305616
4.98417e-05
0.000301425
4.91318e-05
0.000297627
4.84798e-05
0.000294194
4.78788e-05
0.000291102
4.73185e-05
0.000288328
4.67878e-05
0.000285853
4.62725e-05
0.000283655
4.57568e-05
0.000281716
4.52256e-05
0.000280021
4.4661e-05
0.000278559
4.40471e-05
0.000277318
4.33677e-05
0.000276289
4.26082e-05
0.00027546
4.17541e-05
0.000274826
4.07933e-05
0.000274383
3.97148e-05
0.000274127
3.85097e-05
0.000274054
3.71711e-05
0.00027416
3.56946e-05
0.000274445
3.40764e-05
0.000274908
3.23151e-05
0.000275545
3.04097e-05
0.000276356
2.83642e-05
0.000277338
2.61801e-05
0.000278492
2.38628e-05
0.000279817
2.14176e-05
0.000281316
1.88521e-05
0.000282986
1.61745e-05
0.000284829
1.33954e-05
0.000286848
1.05271e-05
0.000289044
7.58482e-06
4.58605e-06
0.00029142
0.000478426
6.47511e-05
0.000465352
6.7861e-05
0.000452484
6.99399e-05
0.000439722
7.14352e-05
0.000427346
7.20543e-05
0.000415378
7.22358e-05
0.000403792
7.18727e-05
0.000392765
7.11639e-05
0.000382339
7.00975e-05
0.000372484
6.88669e-05
0.000363215
6.74735e-05
0.00035453
6.59837e-05
0.000346426
6.44411e-05
0.000338899
6.28873e-05
0.000331927
6.13543e-05
0.000325492
5.98675e-05
0.000319575
5.84465e-05
0.000314153
5.7103e-05
0.000309204
5.58458e-05
0.000304695
5.46787e-05
0.000300598
5.36005e-05
0.000296883
5.26061e-05
0.000293519
5.16874e-05
0.000290482
5.08321e-05
0.000287751
5.0025e-05
0.000285303
4.92524e-05
0.000283118
4.84957e-05
0.000281176
4.77357e-05
0.000279459
4.69533e-05
0.000277959
4.61301e-05
0.000276664
4.52485e-05
0.000275567
4.42912e-05
0.000274661
4.32427e-05
0.000273941
4.20898e-05
0.000273398
4.08196e-05
0.000273031
3.94222e-05
0.000272842
3.78904e-05
0.000272833
3.62184e-05
0.000273
3.44028e-05
0.000273337
3.24412e-05
0.000273847
3.03327e-05
0.00027453
2.80779e-05
0.000275391
2.56817e-05
0.000276429
2.31465e-05
0.000277644
2.04775e-05
0.000279038
1.76811e-05
0.000280612
1.47643e-05
0.000282369
1.17367e-05
0.000284313
8.6089e-06
0.00028645
5.39507e-06
2.11196e-06
0.000288786
0.000473572
7.71938e-05
0.000460921
8.04397e-05
0.000448467
8.25945e-05
0.000436063
8.38326e-05
0.000423937
8.43212e-05
0.0004122
8.4012e-05
0.000400844
8.32559e-05
0.000389986
8.19626e-05
0.00037958
8.04479e-05
0.000369861
7.85956e-05
0.000360711
7.66374e-05
0.000352144
7.45697e-05
0.000344156
7.2464e-05
0.00033674
7.03607e-05
0.000329891
6.82989e-05
0.000323594
6.63058e-05
0.000317823
6.44022e-05
0.000312543
6.26045e-05
0.000307728
6.09218e-05
0.00030335
5.93575e-05
0.00029938
5.7912e-05
0.000295785
5.65801e-05
0.000292531
5.53497e-05
0.000289584
5.4209e-05
0.000286918
5.31396e-05
0.000284513
5.21227e-05
0.000282346
5.11371e-05
0.000280405
5.01624e-05
0.000278674
4.9178e-05
0.000277141
4.8161e-05
0.0002758
4.70928e-05
0.000274639
4.5953e-05
0.000273657
4.47249e-05
0.000272848
4.33934e-05
0.000272207
4.19453e-05
0.000271737
4.03683e-05
0.000271436
3.86564e-05
0.000271306
3.68009e-05
0.00027135
3.47985e-05
0.000271567
3.26467e-05
0.000271954
3.03447e-05
0.000272513
2.7892e-05
0.000273248
2.52908e-05
0.000274161
2.25458e-05
0.000275259
1.96593e-05
0.000276541
1.66369e-05
0.000278013
1.34842e-05
0.000279679
1.02087e-05
0.000281544
6.81965e-06
0.000283616
3.3289e-06
-2.4788e-07
0.000285905
0.000464622
8.85607e-05
0.00045287
9.19845e-05
0.000441089
9.42671e-05
0.000429618
9.54318e-05
0.000418087
9.57778e-05
0.000406957
9.526e-05
0.000396012
9.4137e-05
0.000385566
9.24534e-05
0.000375621
9.04292e-05
0.000366104
8.80985e-05
0.000357171
8.5573e-05
0.000348819
8.29515e-05
0.000341053
8.02881e-05
0.000333869
7.76385e-05
0.000327251
7.50473e-05
0.000321164
7.25467e-05
0.000315586
7.01604e-05
0.000310501
6.79088e-05
0.000305874
6.58034e-05
0.000301668
6.38489e-05
0.000297845
6.20431e-05
0.000294374
6.03791e-05
0.000291227
5.88461e-05
0.000288377
5.74281e-05
0.000285794
5.61068e-05
0.000283452
5.4862e-05
0.00028133
5.36655e-05
0.000279412
5.24959e-05
0.000277682
5.13253e-05
0.000276131
5.01342e-05
0.00027475
4.88945e-05
0.00027353
4.75918e-05
0.000272474
4.61979e-05
0.000271578
4.47043e-05
0.000270839
4.30918e-05
0.000270261
4.13492e-05
0.000269846
3.94695e-05
0.000269596
3.74433e-05
0.000269515
3.52653e-05
0.000269604
3.29349e-05
0.000269866
3.04488e-05
0.000270301
2.78073e-05
0.000270912
2.50115e-05
0.000271703
2.20645e-05
0.000272678
1.89686e-05
0.000273844
1.57269e-05
0.000275203
1.23431e-05
0.000276763
8.82239e-06
0.000278533
5.1721e-06
0.000280525
1.40169e-06
-2.47665e-06
0.000282754
0.000451903
9.82627e-05
0.000440876
0.000101919
0.000430144
0.000104435
0.000419597
0.000105765
0.00040924
0.000106096
0.000399001
0.000105512
0.000388987
0.000104166
0.000379256
0.000102226
0.000369883
9.9805e-05
0.000360932
9.70594e-05
0.000352455
9.40719e-05
0.00034449
9.09548e-05
0.000337065
8.77809e-05
0.000330184
8.46167e-05
0.000323846
8.15126e-05
0.000318038
7.85151e-05
0.000312734
7.56555e-05
0.000307905
7.29568e-05
0.000303518
7.04339e-05
0.000299536
6.80949e-05
0.000295922
6.59397e-05
0.000292637
6.39612e-05
0.000289647
6.21452e-05
0.000286923
6.04727e-05
0.000284442
5.89207e-05
0.000282176
5.7464e-05
0.000280108
5.60744e-05
0.000278217
5.47269e-05
0.000276496
5.33917e-05
0.000274928
5.20414e-05
0.000273512
5.06535e-05
0.000272238
4.92008e-05
0.000271109
4.76662e-05
0.000270127
4.60172e-05
0.000269289
4.42669e-05
0.000268609
4.23608e-05
0.000268075
4.03328e-05
0.000267705
3.81484e-05
0.000267503
3.58041e-05
0.000267464
3.33073e-05
0.000267595
3.06485e-05
0.000267899
2.78286e-05
0.000268382
2.4848e-05
0.000269046
2.1709e-05
0.000269894
1.84118e-05
0.000270936
1.49591e-05
0.000272174
1.1351e-05
0.000273619
7.59057e-06
0.000275283
3.68128e-06
0.000277179
-3.70469e-07
-4.55475e-06
0.000279326
0.000436428
0.000106918
0.000425218
0.000110341
0.00041525
0.000112876
0.000405837
0.000114389
0.000396727
0.000114846
0.000387761
0.000114332
0.000378925
0.000112963
0.000370282
0.00011088
0.000361856
0.000108258
0.000353748
0.000105207
0.000346006
0.000101867
0.000338697
9.8343e-05
0.000331853
9.47328e-05
0.000325479
9.11158e-05
0.000319583
8.75519e-05
0.000314171
8.40966e-05
0.000309226
8.07917e-05
0.000304721
7.76696e-05
0.000300629
7.47512e-05
0.00029692
7.20472e-05
0.000293562
6.95608e-05
0.000290515
6.72854e-05
0.000287738
6.52062e-05
0.000285195
6.33015e-05
0.000282853
6.15442e-05
0.000280691
5.99036e-05
0.00027869
5.83491e-05
0.000276845
5.68493e-05
0.000275129
5.5368e-05
0.000273559
5.38878e-05
0.000272098
5.23646e-05
0.000270785
5.07935e-05
0.000269571
4.91059e-05
0.000268524
4.73524e-05
0.000267576
4.54417e-05
0.000266789
4.34247e-05
0.000266153
4.12501e-05
0.000265648
3.89233e-05
0.000265314
3.64199e-05
0.000265154
3.37641e-05
0.000265161
3.09439e-05
0.000265337
2.79573e-05
0.000265687
2.48024e-05
0.000266215
2.14834e-05
0.00026693
1.79962e-05
0.000267834
1.43421e-05
0.000268934
1.05203e-05
0.000270244
6.52828e-06
0.000271777
2.36697e-06
0.000273558
-1.96428e-06
-6.45849e-06
0.000275603
0.000421852
0.000115308
0.000407679
0.000118031
0.000397089
0.000120039
0.000388344
0.000121392
0.000380484
0.000121822
0.000372941
0.000121481
0.000365563
0.000120163
0.000358332
0.000118088
0.000351194
0.000115417
0.000344227
0.000112228
0.000337503
0.000108681
0.000331095
0.000104866
0.000325059
0.000100917
0.000319415
9.69294e-05
0.000314171
9.29803e-05
0.000309333
8.91316e-05
0.0003049
8.54361e-05
0.00030086
8.19347e-05
0.000297186
7.86596e-05
0.000293845
7.56266e-05
0.000290805
7.28434e-05
0.000288033
7.03037e-05
0.000285498
6.79917e-05
0.000283162
6.58854e-05
0.000280998
6.39505e-05
0.000278971
6.21593e-05
0.000277082
6.04648e-05
0.000275279
5.88506e-05
0.000273614
5.72468e-05
0.000272032
5.56713e-05
0.000270556
5.40306e-05
0.00026917
5.23462e-05
0.000267904
5.05806e-05
0.000266743
4.86832e-05
0.000265704
4.66816e-05
0.00026483
4.4524e-05
0.000264048
4.22138e-05
0.000263459
3.97452e-05
0.000262976
3.71276e-05
0.000262666
3.43136e-05
0.000262528
3.13429e-05
0.000262567
2.8199e-05
0.000262785
2.48771e-05
0.000263179
2.13911e-05
0.000263754
1.77273e-05
0.000264521
1.38843e-05
0.000265477
9.8626e-06
0.000266641
5.65177e-06
0.000268025
1.24855e-06
0.000269653
-3.35427e-06
-8.15627e-06
0.000271558
0.000409565
0.000122811
0.000391476
0.00012454
0.000378421
0.000126128
0.000368792
0.000126929
0.000361288
0.000127414
0.000354926
0.000126746
0.000348853
0.000125871
0.000343256
0.000123434
0.000337669
0.000121035
0.000332214
0.000117753
0.00032682
0.000114172
0.000321591
0.000110229
0.000316594
0.000106075
0.000311889
0.000101829
0.000307501
9.75882e-05
0.000303429
9.34319e-05
0.00029967
8.94236e-05
0.000296222
8.56126e-05
0.000293074
8.20405e-05
0.000290207
7.87322e-05
0.000287591
7.57028e-05
0.000285187
7.29476e-05
0.000282965
7.04513e-05
0.000280885
6.81874e-05
0.000278929
6.61176e-05
0.000277067
6.421e-05
0.000275296
6.24215e-05
0.00027359
6.07015e-05
0.00027195
5.9033e-05
0.000270396
5.73495e-05
0.000268871
5.56711e-05
0.000267463
5.38654e-05
0.00026611
5.20417e-05
0.000264865
5.00322e-05
0.000263739
4.796e-05
0.000262708
4.56643e-05
0.000261824
4.3251e-05
0.000261052
4.06605e-05
0.000260493
3.78921e-05
0.000260047
3.49701e-05
0.00025977
3.18466e-05
0.000259649
2.85632e-05
0.000259715
2.50824e-05
0.000259966
2.14386e-05
0.000260392
1.76114e-05
0.000261004
1.35972e-05
0.000261803
9.39099e-06
0.000262798
4.97969e-06
0.000264006
3.51378e-07
0.000265455
-4.50785e-06
-9.60921e-06
0.000267187
0.000391262
0.000128205
0.000371163
0.000129397
0.000356928
0.000130218
0.000347181
0.000130833
0.000339867
0.000130879
0.00033456
0.000130411
0.000329698
0.000129356
0.000325289
0.000127745
0.000321404
0.000124704
0.000317435
0.000121824
0.00031366
0.000118078
0.000309895
0.000114169
0.000306219
0.000109949
0.000302694
0.000105575
0.000299364
0.00010116
0.000296257
9.68017e-05
0.000293376
9.25747e-05
0.000290715
8.85427e-05
0.00028826
8.47554e-05
0.000285999
8.1247e-05
0.000283909
7.80409e-05
0.000281963
7.51348e-05
0.000280126
7.2519e-05
0.000278367
7.01552e-05
0.000276651
6.80136e-05
0.000274999
6.60309e-05
0.000273337
6.41993e-05
0.000271735
6.24215e-05
0.000270145
6.07165e-05
0.000268599
5.89844e-05
0.000267079
5.72272e-05
0.000265589
5.54057e-05
0.000264184
5.34607e-05
0.000262838
5.14355e-05
0.000261643
4.92178e-05
0.000260444
4.69057e-05
0.000259441
4.43402e-05
0.000258553
4.16756e-05
0.000257826
3.87428e-05
0.000257276
3.57042e-05
0.00025685
3.24414e-05
0.00025664
2.90208e-05
0.000256536
2.54238e-05
0.000256615
2.1632e-05
0.000256868
1.76608e-05
0.0002573
1.34929e-05
0.00025792
9.12292e-06
0.000258717
4.53424e-06
0.000259716
-2.93792e-07
0.000260938
-5.38645e-06
-1.07681e-05
0.00026243
0.00036808
0.000129805
0.000346911
0.000131201
0.000332345
0.00013193
0.00032235
0.000132479
0.000315837
0.000132636
0.000311407
0.000131872
0.000308344
0.000131157
0.00030554
0.000129177
0.000303004
0.000127151
0.00030081
0.000123845
0.000298474
0.00012054
0.000296259
0.000116579
0.000294041
0.000112406
0.000291879
0.000108009
0.000289801
0.000103532
0.000287832
9.90774e-05
0.000285984
9.47309e-05
0.00028426
9.05711e-05
0.00028265
8.66582e-05
0.000281139
8.30396e-05
0.000279701
7.97438e-05
0.000278315
7.67739e-05
0.000276944
7.41176e-05
0.000275573
7.17358e-05
0.000274163
6.95835e-05
0.000272728
6.76091e-05
0.00027125
6.57624e-05
0.000269729
6.40077e-05
0.000268227
6.22567e-05
0.000266657
6.05686e-05
0.000265142
5.87379e-05
0.000263588
5.69499e-05
0.000262121
5.49095e-05
0.000260675
5.28546e-05
0.000259308
5.05641e-05
0.000258078
4.81587e-05
0.000256912
4.55205e-05
0.000255879
4.27294e-05
0.000254981
3.97288e-05
0.000254286
3.65316e-05
0.00025371
3.31663e-05
0.000253317
2.96101e-05
0.000253105
2.58834e-05
0.000253054
2.1971e-05
0.000253153
1.78749e-05
0.000253397
1.35816e-05
0.000253802
9.07891e-06
0.000254369
4.3469e-06
0.000255099
-6.43632e-07
0.00025603
-5.93084e-06
-1.15566e-05
0.000257203
0.000331365
0.000126244
0.000314761
0.000128214
0.000302899
0.000129768
0.000295417
0.000130544
0.000289905
0.000131577
0.000286988
0.000131115
0.000285075
0.000130735
0.00028375
0.000129369
0.000282914
0.000127086
0.000282128
0.000124631
0.000281674
0.000121066
0.00028101
0.000117423
0.000280305
0.000113362
0.000279564
0.000109048
0.000278824
0.000104603
0.000278104
0.000100145
0.000277417
9.57713e-05
0.000276766
9.15722e-05
0.00027614
8.76212e-05
0.000275517
8.39847e-05
0.00027486
8.06977e-05
0.000274136
7.77678e-05
0.000273327
7.51701e-05
0.00027239
7.28714e-05
0.00027135
7.07867e-05
0.000270163
6.89141e-05
0.000268896
6.71028e-05
0.000267508
6.54528e-05
0.00026606
6.36996e-05
0.000264537
6.20522e-05
0.000262981
6.0241e-05
0.000261379
5.84358e-05
0.000259825
5.64012e-05
0.000258325
5.43003e-05
0.000256812
5.19648e-05
0.000255462
4.94726e-05
0.000254151
4.67634e-05
0.000253046
4.38589e-05
0.000251979
4.07854e-05
0.000251103
3.74686e-05
0.000250394
3.39946e-05
0.000249808
3.03427e-05
0.000249397
2.65065e-05
0.000249138
2.24926e-05
0.000249026
1.82969e-05
0.000249044
1.39095e-05
0.000249184
9.31378e-06
0.000249452
4.48645e-06
0.000249845
-6.10646e-07
0.000250373
-6.02938e-06
-1.18344e-05
0.00025108
0.000282138
0.000115804
0.00027202
0.000119819
0.000265337
0.000122883
0.000261709
0.000125355
0.00026001
0.000126879
0.000259424
0.000127936
0.000260074
0.000127702
0.000260677
0.000127368
0.000261553
0.000125552
0.000262429
0.000123205
0.000263215
0.000120336
0.000264243
0.000116595
0.000265078
0.000112799
0.000265792
0.000108662
0.000266414
0.00010435
0.000266977
9.99766e-05
0.000267501
9.56526e-05
0.000267988
9.14848e-05
0.000268428
8.75659e-05
0.000268793
8.39928e-05
0.000269024
8.08101e-05
0.00026906
7.80311e-05
0.000268892
7.56109e-05
0.000268458
7.35037e-05
0.000267844
7.15935e-05
0.000266967
6.98978e-05
0.000265922
6.82122e-05
0.000264702
6.66647e-05
0.000263344
6.50236e-05
0.000261909
6.34363e-05
0.000260347
6.16636e-05
0.000258765
5.98848e-05
0.000257077
5.78926e-05
0.000255519
5.57534e-05
0.000253927
5.33939e-05
0.000252436
5.08404e-05
0.000251041
4.80682e-05
0.000249733
4.50987e-05
0.000248617
4.19019e-05
0.000247543
3.85501e-05
0.00024661
3.49692e-05
0.000245856
3.12564e-05
0.00024518
2.73645e-05
0.000244598
2.3294e-05
0.000244118
1.90465e-05
0.000243738
1.46122e-05
0.000243446
9.97586e-06
0.000243221
5.11424e-06
0.000243053
-1.28903e-08
0.000242956
-5.46862e-06
-1.13514e-05
0.000242957
0.000226559
9.77046e-05
0.00022536