/*--------------------------------*- C++ -*----------------------------------*\
  =========                 |
  \\      /  F ield         | OpenFOAM: The Open Source CFD Toolbox
   \\    /   O peration     | Website:  https://openfoam.org
    \\  /    A nd           | Version:  10
     \\/     M anipulation  |
\*---------------------------------------------------------------------------*/
FoamFile
{
    format      ascii;
    class       volVectorField;
    location    "0.748834";
    object      U;
}
// * * * * * * * * * * * * * * * * * * * * * * * * * * * * * * * * * * * * * //

dimensions      [0 1 -1 0 0 0 0];

internalField   nonuniform List<vector> 
15708
(
(0.582582 -0.133574 0)
(0.566568 -0.127128 0)
(0.550884 -0.120646 0)
(0.535668 -0.11403 0)
(0.520929 -0.107423 0)
(0.506658 -0.100811 0)
(0.492932 -0.094258 0)
(0.479768 -0.0877851 0)
(0.467182 -0.0814107 0)
(0.455189 -0.0751534 0)
(0.443802 -0.0690248 0)
(0.433031 -0.0630333 0)
(0.422879 -0.0571843 0)
(0.41335 -0.051481 0)
(0.404444 -0.0459242 0)
(0.396156 -0.0405139 0)
(0.388483 -0.0352485 0)
(0.381416 -0.0301256 0)
(0.374949 -0.0251419 0)
(0.369069 -0.0202946 0)
(0.363762 -0.0155793 0)
(0.359017 -0.0109943 0)
(0.354819 -0.00653924 0)
(0.351161 -0.00220327 0)
(0.348023 0.00200887 0)
(0.345373 0.00608145 0)
(0.343211 0.0100281 0)
(0.341516 0.0138433 0)
(0.340267 0.0175239 0)
(0.339447 0.0210641 0)
(0.339038 0.0244597 0)
(0.33902 0.0277048 0)
(0.339374 0.0307948 0)
(0.340082 0.0337231 0)
(0.341127 0.0364833 0)
(0.34249 0.0390703 0)
(0.344152 0.0414777 0)
(0.346093 0.0437007 0)
(0.348296 0.0457338 0)
(0.35074 0.0475723 0)
(0.353411 0.0492123 0)
(0.356289 0.0506551 0)
(0.359352 0.0518818 0)
(0.362577 0.0529095 0)
(0.365944 0.0537188 0)
(0.369421 0.0543192 0)
(0.372986 0.0547083 0)
(0.376612 0.0548894 0)
(0.380268 0.0548661 0)
(0.383927 0.0546463 0)
(0.387561 0.0542381 0)
(0.588743 -0.117936 0)
(0.572846 -0.111899 0)
(0.557287 -0.105768 0)
(0.542096 -0.0995995 0)
(0.527306 -0.0934307 0)
(0.513014 -0.0873302 0)
(0.499203 -0.081255 0)
(0.48594 -0.0752955 0)
(0.473239 -0.0694265 0)
(0.461119 -0.0636819 0)
(0.449597 -0.0580648 0)
(0.438686 -0.0525803 0)
(0.428391 -0.0472316 0)
(0.418719 -0.04202 0)
(0.40967 -0.0369456 0)
(0.401242 -0.0320075 0)
(0.393431 -0.0272037 0)
(0.38623 -0.0225321 0)
(0.379631 -0.0179903 0)
(0.373622 -0.0135755 0)
(0.368189 -0.00928898 0)
(0.36332 -0.00512575 0)
(0.359011 -0.00106591 0)
(0.35523 0.00287164 0)
(0.351957 0.00667193 0)
(0.34919 0.0103552 0)
(0.346905 0.0139142 0)
(0.345084 0.0173412 0)
(0.343707 0.0206363 0)
(0.342754 0.0237924 0)
(0.342208 0.0268046 0)
(0.342049 0.0296655 0)
(0.342256 0.0323713 0)
(0.342811 0.0349154 0)
(0.343698 0.0372908 0)
(0.344896 0.0394921 0)
(0.346386 0.0415143 0)
(0.348151 0.0433528 0)
(0.35017 0.0450026 0)
(0.352426 0.0464605 0)
(0.354906 0.0477266 0)
(0.357583 0.0487945 0)
(0.360444 0.0496635 0)
(0.363466 0.050335 0)
(0.366623 0.0508053 0)
(0.369895 0.0510795 0)
(0.373256 0.0511621 0)
(0.376684 0.0510575 0)
(0.380147 0.0507729 0)
(0.383625 0.0503188 0)
(0.387088 0.0497064 0)
(0.594602 -0.10249 0)
(0.578817 -0.0967381 0)
(0.563266 -0.090959 0)
(0.548077 -0.0851932 0)
(0.533254 -0.0794588 0)
(0.518879 -0.0737808 0)
(0.504998 -0.0682092 0)
(0.491618 -0.0627231 0)
(0.478806 -0.0573604 0)
(0.466552 -0.0521226 0)
(0.454896 -0.0470138 0)
(0.443848 -0.0420361 0)
(0.433416 -0.03719 0)
(0.423608 -0.0324744 0)
(0.414424 -0.0278875 0)
(0.405864 -0.0234275 0)
(0.397925 -0.0190919 0)
(0.390598 -0.0148779 0)
(0.383875 -0.0107848 0)
(0.377742 -0.00681866 0)
(0.372193 -0.00295987 0)
(0.367221 0.000809059 0)
(0.362786 0.00444754 0)
(0.358879 0.00796335 0)
(0.355493 0.0113715 0)
(0.352609 0.0146619 0)
(0.350201 0.0178317 0)
(0.348254 0.0208744 0)
(0.346749 0.0237852 0)
(0.345664 0.0265603 0)
(0.344978 0.0291925 0)
(0.344675 0.0316744 0)
(0.344735 0.0340014 0)
(0.345135 0.036167 0)
(0.34586 0.0381647 0)
(0.346892 0.0399882 0)
(0.34821 0.0416333 0)
(0.349797 0.0430958 0)
(0.351635 0.0443717 0)
(0.353708 0.0454602 0)
(0.355997 0.0463595 0)
(0.358484 0.0470641 0)
(0.361153 0.0475835 0)
(0.363979 0.0479062 0)
(0.366945 0.048045 0)
(0.37003 0.0479988 0)
(0.373209 0.0477793 0)
(0.376461 0.0473893 0)
(0.379759 0.0468416 0)
(0.383084 0.0461474 0)
(0.386408 0.0453206 0)
(0.600201 -0.0871112 0)
(0.584458 -0.0816302 0)
(0.568916 -0.0761805 0)
(0.55367 -0.0707515 0)
(0.538787 -0.0654382 0)
(0.524319 -0.0601769 0)
(0.510309 -0.0550726 0)
(0.496827 -0.0500627 0)
(0.483869 -0.0452009 0)
(0.471486 -0.0404672 0)
(0.459696 -0.0358669 0)
(0.448513 -0.0313988 0)
(0.437948 -0.02706 0)
(0.428009 -0.0228464 0)
(0.418698 -0.0187535 0)
(0.410015 -0.0147786 0)
(0.401956 -0.0109204 0)
(0.394512 -0.00718096 0)
(0.38767 -0.00355628 0)
(0.381439 -2.85072e-06 0)
(0.375787 0.0034448 0)
(0.370687 0.0067611 0)
(0.36614 0.00997333 0)
(0.36213 0.0130859 0)
(0.358634 0.0160946 0)
(0.355632 0.0189906 0)
(0.353106 0.0217706 0)
(0.351035 0.0244307 0)
(0.349401 0.0269613 0)
(0.348181 0.0293581 0)
(0.347357 0.031614 0)
(0.346908 0.0337235 0)
(0.346816 0.0356775 0)
(0.34706 0.0374711 0)
(0.347622 0.0390978 0)
(0.348484 0.0405517 0)
(0.349629 0.0418276 0)
(0.351039 0.0429228 0)
(0.352697 0.0438351 0)
(0.354586 0.044561 0)
(0.356689 0.045101 0)
(0.358992 0.0454554 0)
(0.361474 0.0456248 0)
(0.364116 0.0456106 0)
(0.366904 0.0454221 0)
(0.369816 0.0450612 0)
(0.372831 0.04454 0)
(0.375927 0.0438651 0)
(0.379084 0.0430508 0)
(0.382279 0.0421101 0)
(0.385491 0.0410589 0)
(0.605605 -0.0717583 0)
(0.589829 -0.0665171 0)
(0.574233 -0.0613259 0)
(0.5589 -0.0562681 0)
(0.543906 -0.0513024 0)
(0.529313 -0.0465005 0)
(0.515175 -0.0418207 0)
(0.501544 -0.0373035 0)
(0.48845 -0.0329316 0)
(0.475927 -0.0287052 0)
(0.463997 -0.0246194 0)
(0.452678 -0.0206682 0)
(0.441981 -0.0168447 0)
(0.431917 -0.0131435 0)
(0.422487 -0.00956054 0)
(0.413686 -0.00609386 0)
(0.405512 -0.00272842 0)
(0.397968 0.000564264 0)
(0.391038 0.00377169 0)
(0.38469 0.0068523 0)
(0.378924 0.00982985 0)
(0.37373 0.0127191 0)
(0.369087 0.0155187 0)
(0.364975 0.0182232 0)
(0.361373 0.0208281 0)
(0.358262 0.02333 0)
(0.355621 0.0257224 0)
(0.35343 0.0280001 0)
(0.351668 0.0301545 0)
(0.350315 0.0321781 0)
(0.349352 0.0340643 0)
(0.348757 0.0358056 0)
(0.348511 0.0373944 0)
(0.348596 0.0388225 0)
(0.348992 0.0400858 0)
(0.349684 0.041178 0)
(0.350654 0.0420934 0)
(0.351887 0.0428301 0)
(0.353363 0.0433865 0)
(0.355069 0.0437574 0)
(0.356992 0.0439469 0)
(0.359111 0.0439556 0)
(0.361413 0.0437849 0)
(0.363881 0.0434407 0)
(0.3665 0.0429285 0)
(0.369251 0.0422565 0)
(0.372115 0.0414343 0)
(0.375072 0.0404728 0)
(0.378104 0.0393878 0)
(0.381192 0.0381927 0)
(0.384314 0.036907 0)
(0.610859 -0.0564208 0)
(0.594972 -0.0513206 0)
(0.579254 -0.0464245 0)
(0.563786 -0.041649 0)
(0.54864 -0.0370864 0)
(0.533885 -0.0326668 0)
(0.519585 -0.0284648 0)
(0.505793 -0.0244108 0)
(0.49254 -0.0205385 0)
(0.479865 -0.0168292 0)
(0.467791 -0.0132719 0)
(0.456335 -0.00985701 0)
(0.445509 -0.00657436 0)
(0.43532 -0.00340434 0)
(0.425777 -0.000321062 0)
(0.416878 0.00267835 0)
(0.408612 0.00558417 0)
(0.40096 0.00837579 0)
(0.39392 0.0110716 0)
(0.387484 0.0136876 0)
(0.381635 0.0162283 0)
(0.376354 0.0186902 0)
(0.37162 0.021069 0)
(0.367413 0.0233614 0)
(0.363713 0.0255638 0)
(0.360499 0.0276713 0)
(0.357749 0.0296774 0)
(0.355442 0.0315751 0)
(0.353556 0.0333566 0)
(0.352072 0.0350127 0)
(0.350969 0.0365353 0)
(0.350228 0.0379153 0)
(0.349828 0.0391453 0)
(0.349751 0.0402172 0)
(0.349982 0.0411254 0)
(0.350501 0.0418645 0)
(0.351295 0.0424292 0)
(0.352349 0.0428155 0)
(0.353644 0.0430214 0)
(0.355168 0.0430486 0)
(0.356909 0.0428951 0)
(0.358851 0.0425648 0)
(0.360978 0.0420622 0)
(0.363276 0.0413919 0)
(0.365734 0.0405609 0)
(0.368333 0.0395788 0)
(0.371056 0.0384559 0)
(0.373887 0.0372068 0)
(0.376809 0.0358457 0)
(0.379804 0.0343882 0)
(0.382854 0.0328564 0)
(0.615948 -0.0409163 0)
(0.5999 -0.0360021 0)
(0.583998 -0.0313226 0)
(0.568331 -0.0268809 0)
(0.552987 -0.0226753 0)
(0.53803 -0.0186966 0)
(0.523528 -0.0149437 0)
(0.509566 -0.0114015 0)
(0.496123 -0.00805767 0)
(0.483279 -0.00488937 0)
(0.471053 -0.00186142 0)
(0.459461 0.00103729 0)
(0.448515 0.00382073 0)
(0.438216 0.00649183 0)
(0.428562 0.00904375 0)
(0.419553 0.0114939 0)
(0.411186 0.0138576 0)
(0.403453 0.0161482 0)
(0.396341 0.0183732 0)
(0.389832 0.0205329 0)
(0.383909 0.022626 0)
(0.378551 0.0246505 0)
(0.373738 0.0266041 0)
(0.36945 0.0284838 0)
(0.365662 0.0302848 0)
(0.362354 0.0320012 0)
(0.359501 0.0336252 0)
(0.357083 0.0351482 0)
(0.355076 0.0365616 0)
(0.353462 0.0378558 0)
(0.352221 0.0390211 0)
(0.351332 0.0400479 0)
(0.350777 0.040927 0)
(0.350539 0.0416516 0)
(0.350602 0.0422135 0)
(0.350949 0.0426079 0)
(0.351566 0.0428299 0)
(0.352438 0.0428749 0)
(0.353552 0.0427411 0)
(0.354896 0.0424318 0)
(0.356456 0.041945 0)
(0.358221 0.0412843 0)
(0.360176 0.0404545 0)
(0.36231 0.0394628 0)
(0.36461 0.0383175 0)
(0.367063 0.0370263 0)
(0.369654 0.0356038 0)
(0.372368 0.0340629 0)
(0.37519 0.0324197 0)
(0.378104 0.0306934 0)
(0.381096 0.0289025 0)
(0.620923 -0.0252039 0)
(0.604609 -0.0204654 0)
(0.588446 -0.0160233 0)
(0.572514 -0.0119137 0)
(0.556909 -0.00812155 0)
(0.54171 -0.00457987 0)
(0.526985 -0.00127578 0)
(0.512799 0.00178626 0)
(0.499182 0.00464599 0)
(0.486171 0.00730989 0)
(0.473787 0.0097897 0)
(0.462048 0.0121104 0)
(0.450969 0.0143003 0)
(0.440555 0.0163823 0)
(0.430807 0.0183757 0)
(0.421719 0.020294 0)
(0.413282 0.0221474 0)
(0.405484 0.0239424 0)
(0.398309 0.0256822 0)
(0.391738 0.0273686 0)
(0.385751 0.0290026 0)
(0.380329 0.0305839 0)
(0.375449 0.0321102 0)
(0.371088 0.0335771 0)
(0.367221 0.0349786 0)
(0.363824 0.0363069 0)
(0.360875 0.0375531 0)
(0.358351 0.0387075 0)
(0.356229 0.03976 0)
(0.35449 0.0406996 0)
(0.353113 0.0415155 0)
(0.352079 0.0421973 0)
(0.351371 0.0427354 0)
(0.350972 0.0431212 0)
(0.350867 0.0433467 0)
(0.351041 0.0434058 0)
(0.351479 0.0432942 0)
(0.352171 0.0430081 0)
(0.353103 0.0425459 0)
(0.354265 0.0419078 0)
(0.355646 0.0410953 0)
(0.357234 0.0401119 0)
(0.359019 0.0389623 0)
(0.36099 0.0376544 0)
(0.363137 0.0361972 0)
(0.365448 0.0346001 0)
(0.367911 0.032877 0)
(0.370513 0.0310412 0)
(0.373242 0.029111 0)
(0.376084 0.0271059 0)
(0.379026 0.0250451 0)
(0.6257 -0.00929535 0)
(0.609043 -0.00470206 0)
(0.592577 -0.000485411 0)
(0.576307 0.00333161 0)
(0.560412 0.00683107 0)
(0.544947 0.00993837 0)
(0.52994 0.0127538 0)
(0.515515 0.0152535 0)
(0.501667 0.0175256 0)
(0.488464 0.0195614 0)
(0.475918 0.0214495 0)
(0.464043 0.0231779 0)
(0.452852 0.0247889 0)
(0.442343 0.0263053 0)
(0.432515 0.0277438 0)
(0.42336 0.0291191 0)
(0.414867 0.0304422 0)
(0.407019 0.0317211 0)
(0.399798 0.0329616 0)
(0.393183 0.0341674 0)
(0.387152 0.0353396 0)
(0.381681 0.036477 0)
(0.376747 0.0375759 0)
(0.372324 0.0386308 0)
(0.368387 0.0396344 0)
(0.364913 0.0405777 0)
(0.361876 0.0414508 0)
(0.359255 0.0422428 0)
(0.357025 0.0429413 0)
(0.355166 0.0435345 0)
(0.353658 0.0440101 0)
(0.352482 0.0443567 0)
(0.351623 0.0445637 0)
(0.351064 0.0446213 0)
(0.350791 0.0445212 0)
(0.350791 0.0442563 0)
(0.351052 0.043822 0)
(0.351562 0.0432152 0)
(0.352312 0.0424336 0)
(0.353291 0.0414769 0)
(0.354492 0.0403473 0)
(0.355904 0.0390489 0)
(0.35752 0.0375868 0)
(0.359329 0.0359684 0)
(0.361324 0.034203 0)
(0.363495 0.0323014 0)
(0.365833 0.0302766 0)
(0.368327 0.0281441 0)
(0.370967 0.0259214 0)
(0.373741 0.0236277 0)
(0.376639 0.0212861 0)
(0.630233 0.00712211 0)
(0.613213 0.011641 0)
(0.596301 0.015577 0)
(0.579678 0.0190287 0)
(0.563402 0.0220471 0)
(0.547589 0.0246412 0)
(0.532308 0.0268758 0)
(0.517616 0.0288295 0)
(0.503551 0.03049 0)
(0.490164 0.0319531 0)
(0.47747 0.0332278 0)
(0.46545 0.034354 0)
(0.454153 0.0353642 0)
(0.443562 0.0362852 0)
(0.433669 0.0371397 0)
(0.424462 0.0379469 0)
(0.415926 0.0387206 0)
(0.408042 0.0394702 0)
(0.40079 0.0402024 0)
(0.394147 0.0409204 0)
(0.388088 0.0416249 0)
(0.382586 0.0423141 0)
(0.377616 0.0429838 0)
(0.373149 0.0436272 0)
(0.36916 0.0442359 0)
(0.365623 0.0447991 0)
(0.362511 0.0453055 0)
(0.359802 0.0457419 0)
(0.357471 0.0460948 0)
(0.355499 0.0463507 0)
(0.353866 0.0464962 0)
(0.352553 0.0465184 0)
(0.351545 0.0464055 0)
(0.350828 0.0461466 0)
(0.350388 0.0457327 0)
(0.350215 0.0451563 0)
(0.350298 0.0444115 0)
(0.350627 0.0434947 0)
(0.351193 0.0424045 0)
(0.35199 0.0411398 0)
(0.35301 0.0397031 0)
(0.354246 0.0380981 0)
(0.355692 0.0363304 0)
(0.35734 0.0344073 0)
(0.359183 0.0323382 0)
(0.361215 0.030134 0)
(0.363428 0.027808 0)
(0.365814 0.0253755 0)
(0.368366 0.0228542 0)
(0.371075 0.0202642 0)
(0.373933 0.0176286 0)
(0.63427 0.0239727 0)
(0.616798 0.0282651 0)
(0.599472 0.0318856 0)
(0.582441 0.0349806 0)
(0.565802 0.0375049 0)
(0.549636 0.0396174 0)
(0.534054 0.0412891 0)
(0.519097 0.042641 0)
(0.50479 0.0436839 0)
(0.49122 0.0445089 0)
(0.478351 0.0451251 0)
(0.466222 0.0456087 0)
(0.454831 0.0459851 0)
(0.444168 0.0462845 0)
(0.434222 0.046534 0)
(0.42498 0.0467543 0)
(0.416422 0.0469616 0)
(0.408527 0.0471676 0)
(0.40127 0.0473793 0)
(0.394624 0.0476007 0)
(0.388561 0.0478321 0)
(0.383051 0.0480708 0)
(0.378066 0.0483113 0)
(0.373575 0.0485458 0)
(0.369552 0.0487641 0)
(0.365967 0.0489539 0)
(0.362794 0.0491012 0)
(0.360008 0.0491913 0)
(0.357586 0.0492092 0)
(0.355508 0.0491394 0)
(0.353754 0.0489668 0)
(0.352308 0.0486769 0)
(0.351154 0.0482565 0)
(0.35028 0.0476938 0)
(0.349675 0.0469788 0)
(0.349328 0.046103 0)
(0.349232 0.0450602 0)
(0.349379 0.0438456 0)
(0.349763 0.042458 0)
(0.350377 0.0408967 0)
(0.351216 0.0391632 0)
(0.352275 0.037261 0)
(0.35355 0.0351955 0)
(0.355035 0.0329741 0)
(0.356726 0.030606 0)
(0.358618 0.028102 0)
(0.360705 0.0254751 0)
(0.362983 0.0227403 0)
(0.365447 0.0199154 0)
(0.36809 0.0170203 0)
(0.370909 0.0140784 0)
(0.63744 0.0412275 0)
(0.619592 0.0452998 0)
(0.601869 0.0486922 0)
(0.584441 0.0513381 0)
(0.567427 0.0534346 0)
(0.550941 0.0549311 0)
(0.535043 0.0560488 0)
(0.519824 0.0566956 0)
(0.50531 0.0571123 0)
(0.491547 0.0572073 0)
(0.478548 0.0571654 0)
(0.466311 0.056964 0)
(0.454842 0.056666 0)
(0.444129 0.0563086 0)
(0.434156 0.0559215 0)
(0.424905 0.0555286 0)
(0.416354 0.0551481 0)
(0.408474 0.0547932 0)
(0.401238 0.0544719 0)
(0.394615 0.0541881 0)
(0.388572 0.0539412 0)
(0.383077 0.0537275 0)
(0.378098 0.05354 0)
(0.373604 0.0533694 0)
(0.369562 0.0532032 0)
(0.365945 0.0530273 0)
(0.362723 0.0528251 0)
(0.359873 0.05258 0)
(0.357371 0.0522748 0)
(0.355195 0.0518919 0)
(0.353328 0.0514141 0)
(0.351754 0.0508256 0)
(0.350459 0.0501116 0)
(0.349432 0.0492588 0)
(0.348663 0.0482563 0)
(0.348146 0.0470947 0)
(0.347872 0.045767 0)
(0.347837 0.0442681 0)
(0.348037 0.0425953 0)
(0.348467 0.0407482 0)
(0.349125 0.0387286 0)
(0.350006 0.0365389 0)
(0.351109 0.0341847 0)
(0.35243 0.0316726 0)
(0.353967 0.0290113 0)
(0.355716 0.0262111 0)
(0.357676 0.0232843 0)
(0.359843 0.0202455 0)
(0.362215 0.0171119 0)
(0.36479 0.0139033 0)
(0.367566 0.0106429 0)
(0.638995 0.0588311 0)
(0.620928 0.0627961 0)
(0.602958 0.0658768 0)
(0.58527 0.0681344 0)
(0.567969 0.0696735 0)
(0.551221 0.0706062 0)
(0.535079 0.0710053 0)
(0.519653 0.0710107 0)
(0.504962 0.0706611 0)
(0.491061 0.0700614 0)
(0.477982 0.0692699 0)
(0.465654 0.0683482 0)
(0.454145 0.0673456 0)
(0.443416 0.0663033 0)
(0.433448 0.0652554 0)
(0.42422 0.0642294 0)
(0.415704 0.0632454 0)
(0.407868 0.0623175 0)
(0.400681 0.061454 0)
(0.394107 0.0606584 0)
(0.388111 0.0599298 0)
(0.382657 0.0592631 0)
(0.37771 0.0586502 0)
(0.373234 0.058079 0)
(0.369196 0.0575355 0)
(0.365565 0.0570021 0)
(0.362312 0.0564613 0)
(0.359412 0.0558935 0)
(0.35684 0.0552785 0)
(0.354577 0.0545965 0)
(0.352605 0.0538286 0)
(0.350909 0.0529566 0)
(0.349477 0.051964 0)
(0.3483 0.0508364 0)
(0.347371 0.0495611 0)
(0.346683 0.0481281 0)
(0.346232 0.0465296 0)
(0.346016 0.04476 0)
(0.346031 0.0428158 0)
(0.346278 0.0406958 0)
(0.346752 0.0384012 0)
(0.347455 0.0359351 0)
(0.348383 0.0333013 0)
(0.349538 0.0305063 0)
(0.350918 0.0275578 0)
(0.352521 0.0244655 0)
(0.354349 0.0212409 0)
(0.3564 0.0178973 0)
(0.358676 0.014451 0)
(0.361178 0.0109213 0)
(0.363906 0.00733056 0)
(0.637696 0.0765498 0)
(0.619811 0.0804775 0)
(0.601928 0.083233 0)
(0.584222 0.0851757 0)
(0.56689 0.0861283 0)
(0.550055 0.0864867 0)
(0.533843 0.0861799 0)
(0.518341 0.0854867 0)
(0.50357 0.0843292 0)
(0.489619 0.0830056 0)
(0.476483 0.0814257 0)
(0.464164 0.0797461 0)
(0.452663 0.0780057 0)
(0.441961 0.0762499 0)
(0.432039 0.0745171 0)
(0.422871 0.0728371 0)
(0.414428 0.0712316 0)
(0.406674 0.0697158 0)
(0.399572 0.0682987 0)
(0.393085 0.0669844 0)
(0.387171 0.0657708 0)
(0.38179 0.0646515 0)
(0.376904 0.0636167 0)
(0.372474 0.0626522 0)
(0.368464 0.0617402 0)
(0.364841 0.0608619 0)
(0.361575 0.0599962 0)
(0.35864 0.0591201 0)
(0.356012 0.058211 0)
(0.353672 0.0572462 0)
(0.351602 0.0562042 0)
(0.34979 0.055065 0)
(0.348226 0.0538102 0)
(0.346903 0.0524236 0)
(0.345814 0.0508915 0)
(0.344957 0.0492025 0)
(0.34433 0.047348 0)
(0.343932 0.0453217 0)
(0.343763 0.0431197 0)
(0.343823 0.0407402 0)
(0.344114 0.038183 0)
(0.344635 0.0354508 0)
(0.345387 0.032548 0)
(0.346372 0.0294791 0)
(0.34759 0.0262512 0)
(0.349043 0.0228725 0)
(0.350733 0.0193529 0)
(0.352662 0.0157047 0)
(0.354834 0.0119425 0)
(0.357253 0.00808414 0)
(0.359926 0.00415159 0)
(0.631722 0.0937339 0)
(0.614696 0.0977302 0)
(0.597587 0.100457 0)
(0.580414 0.102002 0)
(0.563426 0.102604 0)
(0.546901 0.102274 0)
(0.530875 0.101406 0)
(0.515477 0.0998823 0)
(0.500828 0.0980618 0)
(0.486988 0.0958838 0)
(0.473908 0.0935582 0)
(0.461673 0.0911026 0)
(0.450263 0.0886014 0)
(0.439662 0.0861098 0)
(0.42985 0.0836704 0)
(0.420802 0.0813158 0)
(0.412485 0.079071 0)
(0.404864 0.0769535 0)
(0.397896 0.0749734 0)
(0.391538 0.0731338 0)
(0.385747 0.0714332 0)
(0.380477 0.0698642 0)
(0.375687 0.0684139 0)
(0.371333 0.0670657 0)
(0.367378 0.0657985 0)
(0.363787 0.06459 0)
(0.360528 0.0634148 0)
(0.357574 0.0622472 0)
(0.354903 0.0610612 0)
(0.352495 0.0598314 0)
(0.350337 0.0585335 0)
(0.348415 0.0571452 0)
(0.346723 0.0556456 0)
(0.345256 0.0540174 0)
(0.344009 0.0522453 0)
(0.342984 0.0503164 0)
(0.34218 0.0482218 0)
(0.341599 0.0459537 0)
(0.341244 0.0435078 0)
(0.341118 0.0408822 0)
(0.341222 0.0380761 0)
(0.34156 0.0350902 0)
(0.342133 0.0319286 0)
(0.342943 0.0285956 0)
(0.343995 0.0250963 0)
(0.345291 0.0214376 0)
(0.346835 0.0176276 0)
(0.348632 0.0136767 0)
(0.35069 0.00959709 0)
(0.353015 0.00540485 0)
(0.355621 0.00112065 0)
(0.619093 0.109515 0)
(0.604103 0.11391 0)
(0.588476 0.116793 0)
(0.572567 0.118182 0)
(0.556561 0.118495 0)
(0.540834 0.117753 0)
(0.525445 0.11625 0)
(0.510562 0.114105 0)
(0.496325 0.111548 0)
(0.482768 0.108625 0)
(0.470012 0.105516 0)
(0.457994 0.102291 0)
(0.446801 0.0990284 0)
(0.436408 0.0957927 0)
(0.4268 0.092635 0)
(0.417954 0.089595 0)
(0.409838 0.0867023 0)
(0.402413 0.0839766 0)
(0.395637 0.0814297 0)
(0.389462 0.0790657 0)
(0.383841 0.0768824 0)
(0.378725 0.074871 0)
(0.374067 0.0730155 0)
(0.369822 0.0712957 0)
(0.36595 0.0696886 0)
(0.362414 0.0681671 0)
(0.359183 0.0667014 0)
(0.356229 0.0652621 0)
(0.35353 0.0638193 0)
(0.351068 0.0623451 0)
(0.348829 0.0608113 0)
(0.346804 0.0591941 0)
(0.344987 0.0574688 0)
(0.343378 0.055617 0)
(0.341975 0.0536229 0)
(0.340781 0.0514701 0)
(0.3398 0.0491515 0)
(0.339035 0.0466572 0)
(0.338492 0.0439818 0)
(0.338176 0.0411237 0)
(0.338091 0.0380815 0)
(0.338242 0.0348556 0)
(0.338632 0.0314475 0)
(0.339264 0.0278614 0)
(0.340143 0.0241008 0)
(0.341274 0.0201704 0)
(0.342662 0.0160761 0)
(0.344316 0.0118254 0)
(0.346244 0.00742843 0)
(0.34846 0.00289818 0)
(0.350975 -0.00174932 0)
(0.598262 0.122701 0)
(0.586282 0.127933 0)
(0.573196 0.131269 0)
(0.559425 0.132957 0)
(0.545246 0.133184 0)
(0.530949 0.132294 0)
(0.516752 0.130343 0)
(0.502862 0.127743 0)
(0.489423 0.124514 0)
(0.476554 0.120966 0)
(0.464329 0.117121 0)
(0.452807 0.113161 0)
(0.44203 0.109159 0)
(0.432008 0.105193 0)
(0.42274 0.101325 0)
(0.41421 0.0976022 0)
(0.406394 0.0940617 0)
(0.399253 0.0907281 0)
(0.392745 0.087617 0)
(0.386821 0.0847345 0)
(0.38143 0.0820775 0)
(0.376521 0.0796347 0)
(0.372043 0.0773888 0)
(0.367949 0.0753157 0)
(0.364196 0.0733877 0)
(0.360747 0.0715736 0)
(0.357567 0.0698394 0)
(0.35463 0.0681515 0)
(0.351917 0.0664753 0)
(0.34941 0.0647799 0)
(0.347098 0.0630334 0)
(0.344975 0.0612091 0)
(0.343036 0.0592802 0)
(0.341287 0.0572208 0)
(0.339726 0.0550277 0)
(0.338363 0.0526607 0)
(0.337204 0.0501411 0)
(0.336252 0.0474351 0)
(0.335519 0.0445435 0)
(0.335011 0.0414668 0)
(0.334734 0.0382011 0)
(0.334693 0.0347473 0)
(0.334895 0.031106 0)
(0.335343 0.0272793 0)
(0.336042 0.023269 0)
(0.336998 0.0190778 0)
(0.338219 0.0147083 0)
(0.339713 0.0101649 0)
(0.341495 0.00545393 0)
(0.34358 0.000584754 0)
(0.345985 -0.00442988 0)
(0.569017 0.132197 0)
(0.560802 0.138772 0)
(0.551048 0.143113 0)
(0.540162 0.145447 0)
(0.528471 0.14604 0)
(0.516297 0.14518 0)
(0.503912 0.143159 0)
(0.491555 0.140211 0)
(0.479418 0.136595 0)
(0.467645 0.132491 0)
(0.456357 0.128067 0)
(0.44564 0.123461 0)
(0.435559 0.118786 0)
(0.426149 0.114137 0)
(0.417425 0.109594 0)
(0.409386 0.105215 0)
(0.402014 0.101047 0)
(0.395281 0.0971223 0)
(0.389147 0.0934627 0)
(0.383565 0.0900766 0)
(0.378483 0.0869623 0)
(0.373849 0.0841083 0)
(0.36961 0.0814946 0)
(0.365716 0.079094 0)
(0.362123 0.0768726 0)
(0.358793 0.0747932 0)
(0.355692 0.0728188 0)
(0.352795 0.070908 0)
(0.350084 0.0690258 0)
(0.347544 0.067132 0)
(0.345169 0.0651931 0)
(0.342951 0.0631932 0)
(0.340889 0.0610623 0)
(0.339003 0.0588412 0)
(0.337281 0.0564428 0)
(0.335747 0.0539082 0)
(0.334415 0.0511879 0)
(0.333264 0.0482954 0)
(0.332337 0.0451928 0)
(0.331635 0.0419199 0)
(0.331161 0.0384451 0)
(0.330927 0.0347758 0)
(0.330935 0.0309131 0)
(0.331193 0.0268588 0)
(0.331703 0.0226113 0)
(0.332473 0.0181715 0)
(0.333511 0.013538 0)
(0.334829 0.00871134 0)
(0.336441 0.0036927 0)
(0.338364 -0.0015143 0)
(0.34063 -0.00689942 0)
(0.532494 0.137686 0)
(0.528161 0.145963 0)
(0.52204 0.151658 0)
(0.514476 0.154994 0)
(0.505769 0.156294 0)
(0.496267 0.155876 0)
(0.486227 0.154047 0)
(0.475941 0.151061 0)
(0.465624 0.147243 0)
(0.455433 0.142804 0)
(0.44552 0.137952 0)
(0.435998 0.132838 0)
(0.426962 0.127606 0)
(0.418472 0.122371 0)
(0.41056 0.117228 0)
(0.403243 0.112253 0)
(0.396516 0.107507 0)
(0.390362 0.103032 0)
(0.384747 0.0988595 0)
(0.379629 0.0950033 0)
(0.374961 0.0914645 0)
(0.370688 0.0882319 0)
(0.36676 0.0852833 0)
(0.363126 0.0825872 0)
(0.359741 0.0801062 0)
(0.35657 0.0777963 0)
(0.353577 0.075616 0)
(0.350744 0.0735169 0)
(0.34805 0.0714608 0)
(0.345488 0.0694025 0)
(0.343063 0.0673073 0)
(0.340743 0.0651366 0)
(0.338571 0.0628628 0)
(0.336546 0.0604583 0)
(0.334658 0.0579084 0)
(0.332963 0.0551917 0)
(0.33143 0.0523015 0)
(0.330087 0.0492135 0)
(0.32896 0.0459527 0)
(0.328067 0.0424703 0)
(0.327382 0.0388104 0)
(0.326945 0.0349416 0)
(0.326756 0.0308706 0)
(0.326817 0.0266035 0)
(0.32713 0.0221336 0)
(0.327704 0.0174597 0)
(0.328545 0.0125788 0)
(0.329665 0.00748331 0)
(0.331082 0.00217007 0)
(0.332815 -0.00336675 0)
(0.334901 -0.00912274 0)
(0.490773 0.13967 0)
(0.489819 0.149484 0)
(0.487104 0.1567 0)
(0.482918 0.161313 0)
(0.47745 0.163621 0)
(0.470932 0.163883 0)
(0.463594 0.162562 0)
(0.455769 0.159636 0)
(0.447703 0.156035 0)
(0.439538 0.151429 0)
(0.431435 0.146387 0)
(0.423517 0.14093 0)
(0.415907 0.135288 0)
(0.408677 0.129595 0)
(0.401883 0.123965 0)
(0.395558 0.11849 0)
(0.389714 0.113248 0)
(0.384346 0.108295 0)
(0.37943 0.103672 0)
(0.374933 0.099402 0)
(0.370809 0.0954909 0)
(0.36701 0.0919296 0)
(0.363485 0.0886945 0)
(0.360185 0.0857503 0)
(0.357068 0.0830537 0)
(0.354099 0.0805585 0)
(0.351251 0.0782106 0)
(0.348507 0.075963 0)
(0.345851 0.073767 0)
(0.343282 0.0715704 0)
(0.340794 0.0693616 0)
(0.338394 0.0670347 0)
(0.336093 0.0646647 0)
(0.33392 0.062095 0)
(0.331877 0.0594306 0)
(0.329988 0.0565326 0)
(0.328274 0.0534939 0)
(0.326734 0.050235 0)
(0.325407 0.0467882 0)
(0.324295 0.0431406 0)
(0.323425 0.0392843 0)
(0.322768 0.0352408 0)
(0.322372 0.0309699 0)
(0.322228 0.0265163 0)
(0.322334 0.0218443 0)
(0.322698 0.0169559 0)
(0.323326 0.0118461 0)
(0.324226 0.00650177 0)
(0.325417 0.000911414 0)
(0.326921 -0.00493943 0)
(0.328777 -0.0110577 0)
(0.445792 0.1394 0)
(0.447502 0.150329 0)
(0.447808 0.158774 0)
(0.446714 0.164632 0)
(0.44435 0.167904 0)
(0.440911 0.169052 0)
(0.436321 0.168265 0)
(0.431356 0.166099 0)
(0.425953 0.162327 0)
(0.420004 0.158079 0)
(0.414087 0.152879 0)
(0.408063 0.147344 0)
(0.402222 0.141477 0)
(0.396581 0.135487 0)
(0.39121 0.129513 0)
(0.386158 0.123666 0)
(0.381453 0.118041 0)
(0.377101 0.11271 0)
(0.373091 0.107726 0)
(0.369394 0.103125 0)
(0.365973 0.0989186 0)
(0.36278 0.0951021 0)
(0.359766 0.0916507 0)
(0.356888 0.0885253 0)
(0.354107 0.085676 0)
(0.351393 0.0830507 0)
(0.348725 0.0805875 0)
(0.346091 0.0782423 0)
(0.343486 0.0759469 0)
(0.340924 0.0736648 0)
(0.338387 0.071336 0)
(0.3359 0.0689405 0)
(0.333491 0.0664104 0)
(0.331157 0.0637843 0)
(0.328941 0.0609402 0)
(0.326858 0.0579661 0)
(0.324953 0.054741 0)
(0.323189 0.0513698 0)
(0.321655 0.047725 0)
(0.320349 0.0439353 0)
(0.319257 0.0399008 0)
(0.318402 0.035677 0)
(0.317796 0.0312466 0)
(0.31745 0.0266035 0)
(0.317327 0.0217465 0)
(0.317465 0.0166664 0)
(0.317859 0.0113526 0)
(0.318512 0.00578697 0)
(0.31944 -5.32822e-05 0)
(0.320666 -0.00619237 0)
(0.322234 -0.0126551 0)
(0.399113 0.136885 0)
(0.402954 0.148672 0)
(0.405733 0.158142 0)
(0.407368 0.165 0)
(0.407882 0.169321 0)
(0.407372 0.171245 0)
(0.405905 0.17126 0)
(0.403324 0.169441 0)
(0.400543 0.16647 0)
(0.397397 0.162226 0)
(0.393651 0.157352 0)
(0.389932 0.151771 0)
(0.38603 0.145881 0)
(0.382217 0.139765 0)
(0.378517 0.133605 0)
(0.374984 0.127531 0)
(0.371652 0.121655 0)
(0.36854 0.116065 0)
(0.365642 0.110833 0)
(0.362936 0.106005 0)
(0.360386 0.101605 0)
(0.357945 0.0976318 0)
(0.355566 0.0940586 0)
(0.353206 0.0908408 0)
(0.350836 0.0879218 0)
(0.34843 0.0852372 0)
(0.345989 0.08273 0)
(0.343496 0.0803379 0)
(0.340965 0.0779862 0)
(0.338401 0.0756764 0)
(0.335824 0.07326 0)
(0.333242 0.0708363 0)
(0.330712 0.0681943 0)
(0.328234 0.065479 0)
(0.32583 0.0625303 0)
(0.323569 0.0594375 0)
(0.321441 0.0560925 0)
(0.319479 0.0525629 0)
(0.317715 0.0487967 0)
(0.316203 0.0448274 0)
(0.314884 0.0406511 0)
(0.313815 0.0362524 0)
(0.312994 0.0316731 0)
(0.312413 0.0268641 0)
(0.31207 0.0218492 0)
(0.311966 0.0166074 0)
(0.312097 0.0111231 0)
(0.312467 0.00537205 0)
(0.313081 -0.000678221 0)
(0.313962 -0.00706883 0)
(0.315152 -0.0138403 0)
(0.351671 0.133619 0)
(0.35733 0.145636 0)
(0.362272 0.15548 0)
(0.366333 0.162938 0)
(0.369433 0.16801 0)
(0.371635 0.170811 0)
(0.372633 0.171358 0)
(0.373173 0.170307 0)
(0.373002 0.167865 0)
(0.372047 0.164187 0)
(0.370908 0.159449 0)
(0.369271 0.154142 0)
(0.367593 0.148335 0)
(0.365734 0.142246 0)
(0.363865 0.136052 0)
(0.362022 0.129898 0)
(0.360245 0.123908 0)
(0.358558 0.118188 0)
(0.35696 0.112827 0)
(0.355427 0.107891 0)
(0.353918 0.103416 0)
(0.35238 0.0994042 0)
(0.35076 0.0958261 0)
(0.34902 0.0926262 0)
(0.347134 0.0897381 0)
(0.345101 0.0870861 0)
(0.342916 0.0846064 0)
(0.340586 0.0822413 0)
(0.338157 0.0798931 0)
(0.335614 0.0775712 0)
(0.333008 0.0751666 0)
(0.330349 0.072688 0)
(0.327671 0.0700282 0)
(0.325069 0.0672237 0)
(0.322482 0.0642219 0)
(0.320025 0.060976 0)
(0.317689 0.0575463 0)
(0.315511 0.0538409 0)
(0.313536 0.04998 0)
(0.311795 0.0458353 0)
(0.31025 0.0415172 0)
(0.308947 0.0369877 0)
(0.307876 0.0322477 0)
(0.307034 0.0273146 0)
(0.306411 0.0221693 0)
(0.306005 0.0167993 0)
(0.305807 0.0111861 0)
(0.305811 0.00530155 0)
(0.306014 -0.000898845 0)
(0.306425 -0.00747378 0)
(0.30708 -0.0144915 0)
(0.302573 0.129354 0)
(0.310416 0.141269 0)
(0.317748 0.15124 0)
(0.324382 0.15903 0)
(0.330116 0.164625 0)
(0.334704 0.168012 0)
(0.338506 0.169249 0)
(0.341294 0.169013 0)
(0.343543 0.166815 0)
(0.345041 0.163666 0)
(0.345957 0.159341 0)
(0.346771 0.154258 0)
(0.347052 0.148736 0)
(0.347202 0.142813 0)
(0.347213 0.13672 0)
(0.347127 0.130617 0)
(0.346992 0.124641 0)
(0.346838 0.118916 0)
(0.346667 0.113553 0)
(0.34645 0.10864 0)
(0.346131 0.104228 0)
(0.345637 0.100322 0)
(0.344901 0.0968815 0)
(0.343882 0.0938348 0)
(0.342562 0.0910984 0)
(0.340958 0.088585 0)
(0.339096 0.0862231 0)
(0.336977 0.0839402 0)
(0.334669 0.0816822 0)
(0.332211 0.079388 0)
(0.329602 0.077024 0)
(0.326888 0.0745229 0)
(0.324136 0.0718749 0)
(0.321407 0.0690222 0)
(0.318655 0.0659229 0)
(0.316026 0.0626178 0)
(0.3135 0.0590492 0)
(0.311126 0.0552578 0)
(0.308937 0.0512338 0)
(0.30693 0.0469961 0)
(0.305138 0.042532 0)
(0.303525 0.0378997 0)
(0.302124 0.0330636 0)
(0.300915 0.0280249 0)
(0.299871 0.0227933 0)
(0.299003 0.0173427 0)
(0.298303 0.0116563 0)
(0.297749 0.00570364 0)
(0.29733 -0.000568056 0)
(0.297027 -0.00723473 0)
(0.296865 -0.0143939 0)
(0.252398 0.122095 0)
(0.263121 0.134125 0)
(0.273196 0.144436 0)
(0.282421 0.152779 0)
(0.290503 0.158896 0)
(0.297491 0.162937 0)
(0.30345 0.165018 0)
(0.308521 0.165146 0)
(0.31271 0.163822 0)
(0.316315 0.160881 0)
(0.319299 0.157165 0)
(0.321943 0.152453 0)
(0.324305 0.147149 0)
(0.326186 0.141462 0)
(0.327917 0.135566 0)
(0.329477 0.1296 0)
(0.330917 0.123714 0)
(0.332277 0.118052 0)
(0.333568 0.11277 0)
(0.334752 0.107996 0)
(0.33574 0.103802 0)
(0.336424 0.100183 0)
(0.336706 0.0970681 0)
(0.336536 0.0943503 0)
(0.335904 0.0919157 0)
(0.334852 0.089665 0)
(0.333409 0.0875231 0)
(0.331631 0.0853943 0)
(0.329584 0.0832807 0)
(0.3273 0.0810696 0)
(0.32482 0.0787656 0)
(0.322198 0.0762996 0)
(0.319467 0.073672 0)
(0.31669 0.0707987 0)
(0.313898 0.0676591 0)
(0.311172 0.0643019 0)
(0.30849 0.0606405 0)
(0.305919 0.0567679 0)
(0.303454 0.0526266 0)
(0.301144 0.0483134 0)
(0.298937 0.0437963 0)
(0.296849 0.0390954 0)
(0.294854 0.0342235 0)
(0.292979 0.0291668 0)
(0.291205 0.0239039 0)
(0.289526 0.0184489 0)
(0.287958 0.0127648 0)
(0.286479 0.00683081 0)
(0.285051 0.000596679 0)
(0.283645 -0.00602886 0)
(0.282239 -0.0131843 0)
(0.203264 0.11122 0)
(0.217274 0.123577 0)
(0.230088 0.134519 0)
(0.24154 0.143698 0)
(0.251573 0.15078 0)
(0.260349 0.155792 0)
(0.267903 0.158782 0)
(0.274408 0.159783 0)
(0.28011 0.159154 0)
(0.285115 0.157013 0)