/*--------------------------------*- C++ -*----------------------------------*\
  =========                 |
  \\      /  F ield         | OpenFOAM: The Open Source CFD Toolbox
   \\    /   O peration     | Website:  https://openfoam.org
    \\  /    A nd           | Version:  10
     \\/     M anipulation  |
\*---------------------------------------------------------------------------*/
FoamFile
{
    format      ascii;
    class       volScalarField;
    location    "0.250001";
    object      rho;
}
// * * * * * * * * * * * * * * * * * * * * * * * * * * * * * * * * * * * * * //

dimensions      [1 -3 0 0 0 0 0];

internalField   nonuniform List<scalar> 
15984
(
0.980894
0.987505
0.993824
1.00003
1.00564
1.01043
1.01437
1.01701
1.01879
1.01935
1.01905
1.01791
1.01605
1.01379
1.01105
1.00809
1.00527
1.0024
0.999788
0.99751
0.995787
0.994497
0.994078
0.994086
0.994941
0.996503
0.998831
1.0015
1.00496
1.0082
1.01193
1.01508
1.01809
1.02034
1.02199
1.0227
1.02265
1.02172
1.01992
1.01737
1.01418
1.01045
1.00611
1.00171
0.99704
0.992053
0.98748
0.982663
0.978351
0.974075
0.970437
0.967108
0.96447
0.962372
0.983133
0.99038
0.997022
1.00366
1.00938
1.01431
1.01816
1.02059
1.0221
1.02236
1.02165
1.0202
1.01793
1.01524
1.01217
1.00894
1.00564
1.00248
0.999513
0.996936
0.994833
0.993118
0.992334
0.991898
0.992308
0.993415
0.99511
0.997671
1.0003
1.00369
1.00693
1.01025
1.01332
1.0158
1.0178
1.01902
1.01934
1.01909
1.01787
1.01594
1.01323
1.01001
1.00634
1.00217
0.997986
0.993507
0.989052
0.984529
0.980381
0.97623
0.972627
0.969306
0.966636
0.964391
0.985757
0.993184
1.00025
1.00703
1.01279
1.0177
1.02127
1.02357
1.02465
1.02465
1.02362
1.02162
1.01929
1.01614
1.01281
1.00934
1.00573
1.00229
0.999144
0.99619
0.993872
0.991887
0.990646
0.989965
0.989883
0.990604
0.991832
0.993794
0.996336
0.999049
1.00233
1.00535
1.00844
1.01119
1.01335
1.01494
1.01583
1.01594
1.0154
1.01392
1.01197
1.00926
1.00604
1.00266
0.998608
0.994833
0.990453
0.986558
0.98234
0.978652
0.974994
0.971864
0.969093
0.966859
0.988545
0.995905
1.00328
1.01007
1.01572
1.02043
1.0237
1.02577
1.02648
1.02616
1.02481
1.0226
1.01985
1.01657
1.01289
1.00934
1.00551
1.00192
0.998552
0.995456
0.992874
0.990688
0.989102
0.988195
0.987728
0.988046
0.988899
0.990464
0.992384
0.995045
0.997712
1.00073
1.0037
1.00637
1.0088
1.01066
1.01192
1.01257
1.01243
1.01166
1.01024
1.00819
1.00561
1.00254
0.999338
0.995697
0.992015
0.988327
0.984577
0.981027
0.977679
0.974647
0.971926
0.969783
0.991238
0.998696
1.00608
1.01262
1.01807
1.02252
1.02539
1.02718
1.02754
1.02685
1.02533
1.0229
1.01977
1.01648
1.01274
1.00877
1.00512
1.00123
0.997877
0.994616
0.991851
0.989525
0.987722
0.986524
0.985877
0.985774
0.986318
0.987359
0.989057
0.991094
0.993628
0.996253
0.999
1.00179
1.00418
1.00626
1.00792
1.00885
1.00925
1.00901
1.00823
1.00672
1.00481
1.00234
0.999674
0.996625
0.99337
0.990206
0.986716
0.983633
0.980523
0.977615
0.975183
0.973059
0.993816
1.00133
1.0085
1.0145
1.01999
1.02365
1.0265
1.02768
1.02783
1.0269
1.02508
1.0225
1.01925
1.01584
1.01199
1.00807
1.00415
1.00049
0.996851
0.993678
0.990808
0.988371
0.986485
0.984941
0.984201
0.983799
0.983993
0.984733
0.985949
0.987677
0.989863
0.992107
0.99476
0.99721
0.999726
1.00194
1.00373
1.00509
1.00591
1.00613
1.00592
1.00506
1.00369
1.002
0.999809
0.997358
0.994738
0.991938
0.989101
0.986204
0.983598
0.980943
0.978635
0.976654
0.996376
1.00363
1.01034
1.01615
1.02087
1.02438
1.02657
1.02757
1.02736
1.02623
1.02409
1.02153
1.01827
1.01456
1.01089
1.00693
1.00303
0.999348
0.995767
0.992586
0.989706
0.987271
0.98521
0.983629
0.982603
0.982051
0.981977
0.982413
0.983268
0.984709
0.986323
0.988494
0.990653
0.993094
0.995492
0.99767
0.99969
1.00128
1.00248
1.00318
1.00338
1.0032
1.00249
1.00134
0.999888
0.998041
0.995963
0.993774
0.991404
0.988995
0.986743
0.984391
0.982472
0.980556
0.998767
1.00556
1.0117
1.01716
1.0212
1.02442
1.02596
1.02673
1.02626
1.02485
1.02268
1.01994
1.01664
1.01296
1.0093
1.00543
1.00166
0.9979
0.994596
0.991293
0.988519
0.986018
0.984027
0.982379
0.98117
0.980474
0.980241
0.980353
0.981013
0.981989
0.983452
0.985165
0.9871
0.989336
0.991504
0.993703
0.995795
0.997551
0.999098
1.00013
1.00093
1.00117
1.0011
1.00063
0.999791
0.998617
0.997167
0.995613
0.993649
0.992152
0.989665
0.988344
0.986414
0.984762
1.00097
1.00685
1.01303
1.0172
1.02136
1.02344
1.02502
1.02519
1.02444
1.02295
1.02062
1.01781
1.01452
1.01104
1.00724
1.00364
0.999849
0.996381
0.993054
0.989885
0.98723
0.984782
0.982773
0.981104
0.979973
0.979077
0.97865
0.978608
0.979015
0.979762
0.980849
0.98232
0.983976
0.985909
0.988007
0.990049
0.992154
0.994053
0.99584
0.997229
0.998393
0.999224
0.999689
0.999866
0.999649
0.999153
0.998409
0.997384
0.996231
0.994786
0.993554
0.991982
0.990594
0.98923
1.00241
1.00849
1.01314
1.01746
1.0203
1.02238
1.02316
1.02314
1.02222
1.02037
1.01818
1.01519
1.01209
1.00855
1.00503
1.0014
0.997895
0.994472
0.991281
0.988433
0.985676
0.983509
0.981484
0.979913
0.978655
0.977787
0.977247
0.977152
0.977288
0.97785
0.978679
0.979813
0.981321
0.982982
0.98486
0.986837
0.988904
0.99086
0.992805
0.994511
0.996042
0.997344
0.998364
0.999076
0.999543
0.999696
0.999596
0.99926
0.998677
0.997965
0.996908
0.996142
0.994802
0.993838
1.00396
1.00908
1.01335
1.01682
1.01907
1.02062
1.021
1.02058
1.01949
1.01759
1.01514
1.01232
1.00906
1.00583
1.00238
0.998886
0.995575
0.992281
0.989443
0.986484
0.98411
0.982022
0.980126
0.978675
0.977477
0.976617
0.97601
0.975816
0.975873
0.976202
0.976896
0.977767
0.979057
0.980493
0.982204
0.984062
0.986061
0.988053
0.990112
0.99207
0.993899
0.995639
0.997136
0.998433
0.999488
1.0003
1.00086
1.00114
1.00122
1.00105
1.00064
1.00013
0.999301
0.998491
1.00531
1.00945
1.01318
1.01584
1.01758
1.01854
1.01843
1.01783
1.01639
1.01431
1.01184
1.009
1.00594
1.00263
0.999355
0.996102
0.992886
0.990013
0.986985
0.984687
0.982252
0.980353
0.978737
0.977327
0.976237
0.975451
0.974936
0.974646
0.974638
0.974891
0.975376
0.976164
0.977176
0.978487
0.980042
0.981767
0.983684
0.985698
0.987866
0.989945
0.992095
0.994195
0.996124
0.997965
0.999566
1.001
1.00218
1.00312
1.00377
1.0042
1.00429
1.00416
1.00386
1.00315
1.00592
1.00985
1.01249
1.0147
1.0157
1.01617
1.01569
1.01476
1.01295
1.01099
1.00823
1.00546
1.00238
0.999291
0.996069
0.992992
0.989998
0.987117
0.984784
0.982071
0.980414
0.978525
0.977124
0.975873
0.97498
0.974323
0.973814
0.973575
0.973599
0.97377
0.974182
0.974859
0.975711
0.976905
0.9783
0.979923
0.981783
0.983845
0.98598
0.988323
0.990637
0.993061
0.995396
0.997704
0.999829
1.00185
1.0036
1.00517
1.00641
1.00734
1.00799
1.0082
1.00816
1.00782
1.00691
1.00962
1.01189
1.01318
1.01377
1.01364
1.01282
1.01147
1.00957
1.00712
1.00453
1.00168
0.998672
0.995499
0.992523
0.989664
0.98646
0.984604
0.981402
0.980097
0.977625
0.976505
0.975263
0.974403
0.97362
0.973059
0.972747
0.972592
0.972658
0.972801
0.973217
0.973846
0.974614
0.975742
0.976997
0.978561
0.980389
0.982393
0.984692
0.987035
0.989655
0.992276
0.995
0.997723
1.00033
1.00286
1.00518
1.0073
1.00909
1.01052
1.0116
1.01222
1.01235
1.01212
1.00714
1.0096
1.0109
1.01175
1.0117
1.0111
1.0099
1.00818
1.00586
1.00357
1.00058
0.997731
0.994616
0.991677
0.988667
0.985618
0.983529
0.980366
0.978917
0.976687
0.975313
0.974135
0.973214
0.97247
0.972109
0.971727
0.97154
0.971607
0.971753
0.972032
0.972435
0.973044
0.973811
0.974901
0.976095
0.977653
0.979371
0.981519
0.983758
0.986291
0.989085
0.99189
0.99501
0.998024
1.0011
1.00403
1.0069
1.00951
1.01175
1.01362
1.01511
1.01597
1.01625
1.01604
1.00769
1.00916
1.0101
1.01013
1.00972
1.00855
1.00699
1.00486
1.00243
0.999614
0.996624
0.993697
0.99049
0.987331
0.984505
0.981857
0.978756
0.977236
0.97495
0.973684
0.972172
0.971372
0.970796
0.970476
0.97033
0.970222
0.970407
0.970558
0.970893
0.971283
0.971777
0.972466
0.973289
0.974362
0.975601
0.977121
0.978839
0.981017
0.983333
0.986021
0.988909
0.991968
0.995329
0.998647
1.00209
1.00541
1.00872
1.01172
1.01436
1.01661
1.01834
1.01942
1.0196
1.01935
1.00802
1.00889
1.0091
1.00884
1.00772
1.00622
1.0041
1.00163
0.998981
0.995726
0.992705
0.989504
0.986001
0.983125
0.980013
0.976911
0.974975
0.972507
0.971099
0.969609
0.968818
0.968305
0.968038
0.968117
0.968326
0.968591
0.969015
0.969472
0.970031
0.970624
0.971257
0.972028
0.972971
0.974034
0.975374
0.97694
0.978694
0.980905
0.983306
0.986131
0.989141
0.992435
0.99598
0.999562
1.00333
1.00698
1.01062
1.01391
1.01693
1.01941
1.02119
1.02223
1.02217
1.02158
1.00827
1.00864
1.00845
1.00749
1.00598
1.00397
1.00136
0.99866
0.995554
0.99211
0.988639
0.985168
0.981644
0.978309
0.974954
0.972654
0.969715
0.968066
0.966564
0.965563
0.965024
0.96477
0.96493
0.965378
0.966085
0.966799
0.967544
0.96832
0.969121
0.96993
0.970787
0.971705
0.97279
0.973984
0.975396
0.977007
0.978909
0.981092
0.983724
0.986563
0.989772
0.993224
0.996961
1.0007
1.00479
1.0087
1.01255
1.01606
1.01941
1.02167
1.02359
1.02414
1.02515
1.02526
1.0086
1.00854
1.00776
1.00642
1.00438
1.00201
0.999007
0.995758
0.992224
0.988491
0.984582
0.980653
0.977091
0.97309
0.970242
0.966571
0.964443
0.962429
0.961121
0.960495
0.960403
0.960812
0.961444
0.962319
0.963424
0.964623
0.96587
0.967114
0.968263
0.969341
0.970407
0.971534
0.972744
0.974069
0.975587
0.977366
0.979337
0.981615
0.984337
0.987316
0.99068
0.99427
0.998157
1.00212
1.00635
1.01043
1.01443
1.01801
1.02149
1.02291
1.02559
1.02739
1.03156
1.03068
1.00907
1.00851
1.00735
1.00543
1.00307
1.00029
0.996665
0.993203
0.989304
0.984694
0.980312
0.976109
0.971698
0.967659
0.963616
0.960893
0.957752
0.956345
0.955114
0.954702
0.954921
0.955822
0.957292
0.958941
0.960596
0.962197
0.963815
0.965497
0.967067
0.968503
0.969901
0.971295
0.972734
0.974258
0.975916
0.977824
0.97996
0.982371
0.985213
0.98829
0.991852
0.995506
0.999505
1.00361
1.00799
1.01196
1.01623
1.01954
1.02245
1.02503
1.02981
1.03242
1.05499
1.07219
1.00955
1.00879
1.00698
1.00488
1.00195
0.998642
0.994824
0.990991
0.985527
0.981805
0.97552
0.971665
0.966818
0.961673
0.958356
0.954235
0.950837
0.948764
0.947669
0.947621
0.948886
0.950542
0.952675
0.955079
0.95757
0.959934
0.962179
0.964274
0.966179
0.967926
0.969572
0.971205
0.972843
0.974565
0.976395
0.978445
0.980697
0.983277
0.986133
0.989451
0.993028
0.996823
1.00092
1.00508
1.00951
1.01321
1.01793
1.01989
1.0248
1.02862
1.04198
1.05756
1.14885
1.34751
1.01021
1.00915
1.00692
1.00444
1.00119
0.99735
0.992843
0.988754
0.982169
0.979081
0.971252
0.969481
0.961572
0.960455
0.959842
0.953763
0.94895
0.943706
0.940923
0.939804
0.940385
0.943705
0.946428
0.949854
0.953312
0.956555
0.959586
0.962349
0.964824
0.967022
0.969006
0.970933
0.972834
0.974763
0.976833
0.97909
0.981514
0.984217
0.987221
0.990618
0.994264
0.998145
1.00222
1.00641
1.01046
1.0146
1.01794
1.02242
1.02938
1.03719
1.08852
1.20267
1.55601
1.82598
1.01104
1.00958
1.00696
1.00432
1.00037
0.996508
0.990461
0.987069
0.979435
0.978646
0.970606
0.979123
0.971067
0.991685
1.00402
0.992902
0.983102
0.958985
0.944029
0.935482
0.934318
0.936193
0.940967
0.945234
0.949591
0.953557
0.95721
0.960481
0.963377
0.966037
0.968527
0.970746
0.97284
0.974996
0.977273
0.979721
0.982285
0.98515
0.988236
0.9917
0.995394
0.99925
1.00325
1.00727
1.01103
1.01512
1.01979
1.02693
1.0401
1.0849
1.27208
1.72729
1.94609
2.03484
1.01191
1.01009
1.00725
1.0042
0.999641
0.995475
0.989034
0.986924
0.980124
0.99253
0.98992
1.04542
1.07643
1.1721
1.239
1.22852
1.1744
1.10257
1.0038
0.954708
0.931671
0.927543
0.931702
0.938106
0.94416
0.949508
0.954451
0.958852
0.962323
0.965215
0.967848
0.970367
0.972769
0.975174
0.977671
0.980288
0.982991
0.985954
0.9892
0.992633
0.996294
1.00009
1.00375
1.00729
1.01163
1.01658
1.02371
1.03772
1.08255
1.29815
1.78027
2.01865
2.07744
2.08014
1.01272
1.01067
1.00759
1.00388
0.999157
0.995405
0.989969
0.994306
1.00289
1.05153
1.14431
1.33402
1.5164
1.62082
1.66297
1.63171
1.6131
1.46074
1.29672
1.06187
0.966906
0.939306
0.93238
0.934758
0.940162
0.945911
0.951432
0.956305
0.960569
0.964194
0.967306
0.970038
0.972654
0.975252
0.977957
0.980771
0.983614
0.986667
0.989911
0.993286
0.996885
1.00023
1.00352
1.00782
1.01273
1.02036
1.03293
1.07549
1.28157
1.80517
2.04919
2.08804
2.09111
2.08509
1.01348
1.01122
1.00778
1.0042
0.999474
1.0001
1.00363
1.04279
1.13965
1.34409
1.62264
1.75887
1.81207
1.81914
1.79377
1.75589
1.72297
1.64796
1.6087
1.34754
1.03548
0.938488
0.921716
0.925767
0.933141
0.941241
0.947965
0.953923
0.958676
0.962759
0.966292
0.969432
0.972311
0.975183
0.978082
0.981022
0.984001
0.987069
0.990324
0.993583
0.996689
0.999765
1.00351
1.00867
1.01649
1.02954
1.06792
1.2359
1.80001
2.05287
2.08887
2.09262
2.09007
2.08254
1.01411
1.01132
1.00812
1.0055
1.0061
1.026
1.08478
1.2787
1.61277
1.79504
1.86753
1.87746
1.85738
1.82514
1.78548
1.73077
1.66918
1.65269
1.62624
1.49581
1.24133
1.00447
0.933385
0.922486
0.928142
0.936581
0.944946
0.951583
0.957138
0.961543
0.96531
0.96866
0.971834
0.974949
0.978064
0.981157
0.984187
0.987286
0.990289
0.993163
0.995994
0.999177
1.00462
1.01262
1.02732
1.06358
1.20103
1.74769
2.05168
2.08183
2.08721
2.08693
2.08395
2.07959
1.01432
1.01178
1.00969
1.01576
1.0473
1.15655
1.4838
1.77369
1.89712
1.91518
1.90079
1.87639
1.84417
1.80069
1.73561
1.62032
1.50173
1.51557
1.54216
1.49058
1.30269
1.05949
0.952301
0.922928
0.924231
0.932879
0.941964
0.949499
0.9553
0.960162
0.964234
0.967817
0.971246
0.974596
0.97787
0.981038
0.984094
0.986991
0.989668
0.992188
0.995102
1.00045
1.00939
1.02747
1.06882
1.17926
1.71927
2.0384
2.07014
2.07738
2.07991
2.08011
2.07623
2.06966
1.01441
1.01338
1.02152
1.07938
1.27341
1.66869
1.89851
1.9477
1.9365
1.91599
1.89219
1.86237
1.82141
1.75869
1.6585
1.50819
1.27221
1.29599
1.41611
1.42053
1.26392
1.04059
0.947013
0.921334
0.921561
0.929996
0.939353
0.947028
0.953414
0.958526
0.962818
0.966707
0.970429
0.974056
0.977414
0.980637
0.983569
0.986145
0.988406
0.991182
0.99627
1.00663
1.03456
1.07943
1.22618
1.81658
2.02108
2.05608
2.06597
2.07002
2.07153
2.06972
2.06633
2.05782
1.01731
1.02856
1.10809
1.45327
1.83508
1.96743
1.96584
1.95068
1.93127
1.90863
1.88067
1.84612
1.79639
1.71916
1.59161
1.38967
1.11025
1.08807
1.22818
1.29311
1.21458
1.02646
0.938925
0.916982
0.919063
0.92795
0.9374
0.945364
0.951661
0.956951
0.961502
0.965493
0.969544
0.973297
0.976773
0.979886
0.982522
0.984643
0.987218
0.99219
1.00389
1.04833
1.11767
1.36248
1.8436
2.00013
2.04167
2.05297
2.05894
2.06225
2.06215
2.05945
2.05404
2.045
1.05743
1.15324
1.68618
1.97303
1.98659
1.97783
1.96259
1.94553
1.92589
1.90105
1.87118
1.83185
1.77248
1.67815
1.52612
1.29424
1.02604
0.970395
1.08478
1.14342
1.07066
0.96773
0.923211
0.912672
0.917389
0.926999
0.93609
0.943556
0.949764
0.955112
0.959842
0.964347
0.968459
0.972356
0.9757
0.978682
0.980876
0.983138
0.987419
1.00138
1.05378
1.22869
1.57048
1.85802
1.98761
2.02564
2.03855
2.0456
2.05031
2.05099
2.04964
2.0464
2.03959
2.03045
1.73995
1.94638
1.99087
1.99616
1.98745
1.97301
1.95755
1.94061
1.91928
1.89255
1.86083
1.81539
1.74713
1.63881
1.47221
1.23086
0.986212
0.927775
0.980605
1.01976
0.977194
0.929118
0.910315
0.909488
0.916852
0.926464
0.934975
0.942017
0.948139
0.95354
0.958376
0.962921
0.967285
0.97109
0.974309
0.976885
0.979027
0.982634
0.996226
1.09917
1.4648
1.7344
1.88765
1.97859
2.01092
2.02378
2.03164
2.03755
2.03992
2.04
2.03729
2.03252
2.02437
2.01282
1.96662
1.99886
2.00255
1.99403
1.98197
1.96845
1.95275
1.93526
1.91272
1.88567
1.85199
1.80321
1.72823
1.60764
1.42859
1.19739
0.96978
0.908804
0.922048
0.943644
0.923428
0.907661
0.903754
0.908523
0.91726
0.926536
0.933979
0.940539
0.946527
0.951986
0.956888
0.961527
0.965702
0.96941
0.972449
0.974742
0.97768
0.998393
1.17594
1.60708
1.81852
1.91951
1.97246
1.99805
2.01001
2.01741
2.02389
2.02817
2.02913
2.02813
2.02391
2.01759
2.00819
1.99498
2.00063
2.00605
1.99747
1.98902
1.97677
1.96365
1.94755
1.93013
1.90723
1.88057
1.84635
1.7968
1.71974
1.59457
1.40735
1.17102
0.96161
0.899386
0.896112
0.905723
0.900512
0.898473
0.902105
0.909514
0.918314
0.926447
0.933245
0.939614
0.945227
0.950426
0.955356
0.960157
0.964219
0.967459
0.970248
0.974192
1.00026
1.1872
1.655
1.85853
1.93389
1.9678
1.98626
1.99666
2.0045
2.01071
2.01555
2.01787
2.01827
2.01531
2.01057
2.00209
1.99121
1.97609
2.00709
2.00002
1.99287
1.9836
1.97218
1.95854
1.94317
1.92586
1.90333
1.87721
1.84325
1.79426
1.71831
1.59379
1.40403
1.16227
0.956486
0.895949
0.888023
0.891321
0.893617
0.897
0.904184
0.911148
0.919565
0.926568
0.93272
0.93885
0.944187
0.949344
0.954253
0.958629
0.962308
0.965406
0.969801
0.992247
1.15153
1.6086
1.85912
1.93501
1.96121
1.97505
1.98436
1.99207
1.99846
2.0035
2.00679
2.00769
2.00689
2.00268
1.99643
1.98639
1.97348
1.95671
2.00119
1.99611
1.98805
1.97867
1.96746
1.95445
1.93935
1.92249
1.90069
1.87546
1.842
1.79446
1.72195
1.60825
1.43826
1.2059
0.972841
0.901545
0.88799
0.890018
0.893327
0.899432
0.906242
0.913767
0.920712
0.926664
0.932597
0.938482
0.943422
0.948373
0.952934
0.957072
0.960127
0.963936
0.97464
1.05005
1.38306
1.78516
1.91954
1.95286
1.96519
1.97328
1.98026
1.98649
1.99192
1.99597
1.99793
1.99757
1.99557
1.99031
1.98203
1.97065
1.95537
1.93733
1.99681
1.99115
1.98343
1.9743
1.96354
1.95105
1.93684
1.92032
1.89929
1.87442
1.84111
1.79421
1.72365
1.61563
1.45691
1.24479
1.01313
0.907477
0.894589
0.892631
0.897008
0.902562
0.910125
0.915047
0.922096
0.927069
0.932969
0.938298
0.942905
0.947768
0.951846
0.955239
0.95859
0.963732
0.986603
1.10445
1.51542
1.8482
1.93768
1.95546
1.96324
1.96969
1.9759
1.98176
1.98605
1.98867
1.98934
1.98748
1.98497
1.97758
1.96802
1.95479
1.93734
1.91805
1.99224
1.98677
1.97952
1.9708
1.96047
1.94879
1.93562
1.91961
1.89964
1.87531
1.84229
1.79585
1.72721
1.62563
1.48357
1.29529
1.07041
0.931728
0.897927
0.898958
0.900799
0.906521
0.911493
0.918218
0.922807
0.928253
0.933511
0.938434
0.942791
0.947188
0.950842
0.954031
0.958017
0.967016
1.00589
1.18724
1.6432
1.88858
1.9417
1.95439
1.961
1.96672
1.97215
1.97678
1.98
1.9814
1.98093
1.97919
1.9731
1.96628
1.95372
1.93904
1.92023
1.89915
1.98828
1.98318
1.97645
1.96823
1.9586
1.94767
1.93563
1.92005
1.90106
1.87699
1.84365
1.79637
1.72737
1.62871
1.49548
1.3269
1.1283
0.960825
0.909168
0.904002
0.905943
0.909313
0.914841
0.919454
0.92473
0.929555
0.93453
0.938918
0.942966
0.946856
0.950375
0.953995
0.960868
0.980315
1.06476
1.36877
1.77964
1.91412
1.94531
1.95365
1.95899
1.96406
1.96901
1.97278
1.97465
1.97471
1.97385
1.9701
1.96317
1.95411
1.94018
1.92389
1.90377
1.88166
1.98529
1.9806
1.9743
1.96668
1.95788
1.94782
1.93693
1.92225
1.90436
1.88083
1.84739
1.79914
1.72856
1.6294
1.50087
1.34481
1.17162
1.0012
0.920077
0.911093
0.90956
0.913115
0.916658
0.92189
0.926714
0.931299
0.935605
0.939285
0.943231
0.947284
0.951583
0.960146
0.976702
1.03851
1.24085
1.66473
1.86092
1.93352
1.9466
1.95276
1.95757
1.96266
1.96659
1.96875
1.96941
1.96918
1.96603
1.96226
1.95259
1.94318
1.92695
1.90921
1.88807
1.86612
1.98333
1.97898
1.97326
1.96621
1.9582
1.94912
1.93921
1.92561
1.90887
1.88627
1.85328
1.80431
1.73203
1.62999
1.49983
1.34737
1.18526
1.02548
0.943742
0.911728
0.915088
0.91678
0.919698
0.924063
0.92874
0.932685
0.936815
0.941228
0.946627
0.954093
0.963117
0.985214
1.05482
1.24727
1.61291
1.81175
1.91223
1.93852
1.94663
1.95212
1.95746
1.96142
1.96383
1.96512
1.96587
1.9636
1.95955
1.95448
1.94313
1.93185
1.91395
1.89552
1.87399
1.85275
1.9824
1.97846
1.97315
1.96682
1.95932
1.9515
1.94253
1.93058
1.91545
1.89474
1.864
1.81703
1.74566
1.64281
1.51036
1.35657
1.19998
1.05827
0.944719
0.93156
0.918066
0.922333
0.922613
0.927105
0.93119
0.935765
0.940471
0.946064
0.950945
0.966845
1.01456
1.13165
1.34712
1.60297
1.81211
1.88605
1.93138
1.94086
1.94746
1.95256
1.95743
1.9605
1.96181
1.96212
1.96157
1.95788
1.95406
1.94499
1.93424
1.92007
1.90199
1.88206
1.86145
1.84142
1.98249
1.97885
1.97399
1.96816
1.9613
1.95446
1.94642
1.93596
1.92243
1.9036
1.87482
1.82998
1.75974
1.65635
1.52102
1.3631
1.20221
1.05818
0.967856
0.9265
0.926564
0.926875
0.927417
0.930433
0.934796
0.938888
0.944727
0.957195
0.997899
1.07266
1.26179
1.49751
1.64241
1.80381
1.89066
1.91996
1.93833
1.94436
1.94983
1.95432
1.95777
1.9596
1.96015
1.96039
1.95758
1.95317
1.94729
1.93678
1.92506
1.9081
1.89005
1.86992
1.85003
1.83243
1.98342
1.98003
1.97556
1.97012
1.96379
1.95739
1.95009
1.94228
1.93127
1.91681
1.89621
1.86256
1.80654
1.71399
1.5786
1.41077
1.23231
1.07867
0.96297
0.946597
0.930125
0.935034
0.931734
0.937985
0.942689
0.957071
0.977685
1.03846
1.15078
1.39191
1.61789
1.71529
1.81868
1.89191
1.91785
1.93533
1.94278
1.94824
1.95268
1.95594
1.95821
1.95889
1.95886
1.95768
1.9533
1.94854
1.93994
1.92885
1.91399
1.89731
1.87746
1.85825
1.84037
1.82539
1.98501
1.98191
1.97768
1.97248
1.96669
1.9604
1.95359
1.94658
1.93779
1.92584
1.91061
1.88787
1.85124
1.78879
1.68558
1.5356
1.35014
1.15772
1.01421
0.957903
0.941392
0.947208
0.94995
0.947288
0.965968
0.997639
1.09424
1.30199
1.55106
1.69325
1.78715
1.84575
1.89731
1.91979
1.93476
1.94242
1.94821
1.95255
1.9555
1.95737
1.95901
1.95856
1.95708
1.95517
1.94928
1.94298
1.93257
1.91961
1.90333
1.8852
1.86568
1.84686
1.83183
1.82027
1.98713
1.98418
1.98015
1.97505
1.9695
1.96346
1.95703
1.95017
1.94263
1.93314
1.92089
1.90553
1.88289
1.84708
1.78648
1.68833
1.54775
1.37405
1.19017
1.04841
1.00817
1.00161
0.997293
1.02182
1.08079
1.25442
1.47427
1.67865
1.74942
1.84025
1.86919
1.90766
1.92565
1.93671
1.94449
1.94971
1.95397
1.95687
1.95838
1.95905
1.9595
1.9582
1.95524
1.95213
1.94452
1.93706
1.92422
1.90991
1.89171
1.87324
1.85309
1.83688
1.82399
1.8169
1.98956
1.98667
1.98268
1.97751
1.97218
1.96614
1.95994
1.95323
1.94601
1.93798
1.92824
1.91642
1.90194
1.88178
1.85078
1.80037
1.72309
1.61685
1.49047
1.36804
1.26045
1.26315
1.25591
1.29487
1.45784
1.63297
1.74683
1.83692
1.85315
1.90164
1.91419
1.93355
1.94182
1.94862
1.95365
1.95718
1.95977
1.96096
1.96099
1.96128
1.95971
1.95774
1.9532
1.9488
1.93929
1.93015
1.91516
1.89941
1.87937
1.86017
1.84133
1.82647
1.81758
1.81392
1.99213
1.98917
1.98508
1.97988
1.97455
1.96863
1.96242
1.95596
1.94871
1.94125
1.93345
1.92391
1.91361
1.90155
1.88645
1.86385
1.83021
1.78237
1.72146
1.65716
1.60042
1.60196
1.60019
1.6439
1.75019
1.84676
1.86335
1.9032
1.91117
1.93341
1.94132
1.94999
1.95531
1.9599
1.96257
1.96461
1.96538
1.9654
1.96457
1.96338
1.96028
1.95724
1.95079
1.94502
1.93381
1.92261
1.90613
1.88744
1.86766
1.84654
1.82932
1.81757
1.81144
1.81098
1.99447
1.99135
1.98717
1.98189
1.97647
1.97039
1.96433
1.95791
1.95098
1.9439
1.93672
1.92975
1.92132
1.91363
1.90539
1.89589
1.88381
1.86712
1.8452
1.82123
1.8087
1.80578
1.81403
1.84412
1.88589
1.9149
1.92222
1.93746
1.94455
1.95361
1.9597
1.96469
1.96817
1.97005
1.97138
1.97225
1.97185
1.97084
1.96821
1.96593
1.96108
1.95714
1.94908
1.94115
1.9287
1.91485
1.89603
1.8761
1.85401
1.83307
1.81748
1.80863
1.80569
1.80784
1.99629
1.99298
1.98864
1.98321
1.97777
1.97174
1.96566
1.95921
1.95261
1.94624
1.93998
1.93396
1.92775
1.92246
1.91787
1.91434
1.91055
1.90676
1.90239
1.89806
1.89753
1.90113
1.90898
1.92363
1.93695
1.94685
1.95327
1.96012
1.96569
1.97168
1.97575
1.9785
1.98026
1.98114
1.9814
1.98101
1.97893
1.97637
1.97307
1.9696
1.96315
1.95803
1.94806
1.93774
1.92364
1.90706
1.88679
1.86474
1.83978
1.82193
1.80545
1.80099
1.80014
1.80487
1.99735
1.99381
1.98926
1.98378
1.97823
1.9723
1.96625
1.96013
1.95396
1.94817
1.94295
1.93803
1.93366
1.93031
1.92865
1.9277
1.92747
1.92827
1.92995
1.9326
1.93666
1.94192
1.94882
1.95628
1.96365
1.9694
1.97461
1.97969
1.9841
1.9877
1.99025
1.99171
1.9923
1.99218
1.99159
1.99017
1.98702
1.9843
1.97981
1.97502
1.96718
1.95995
1.94867
1.93605
1.9199
1.90095
1.87819
1.85277
1.82828
1.80545
1.79608
1.79201
1.79404
1.80333
1.99739
1.99367
1.98892
1.98338
1.97793
1.97206
1.96616
1.96039
1.95488
1.95011
1.94584
1.94202
1.93932
1.93817
1.93812
1.93911
1.94142
1.94466
1.94848
1.95299
1.95855
1.96459
1.97084
1.97732
1.98362
1.98839
1.99263
1.99635
1.99952
2.00215
2.00388
2.0046
2.00465
2.00423
2.00346
2.00146
1.9978
1.99405
1.98868
1.98217
1.97321
1.96357
1.9501
1.93508
1.91666
1.89482
1.86954
1.84227
1.81418
1.79338
1.78577
1.78379
1.79068
1.80311
1.99629
1.99234
1.9875
1.98196
1.97653
1.9709
1.96535
1.96014
1.95558
1.95175
1.94844
1.94617
1.94533
1.94572
1.94713
1.94981
1.95349
1.95793
1.96324
1.96907
1.97547
1.98166
1.98762
1.99335
1.99851
2.00297
2.00686
2.01027
2.01326
2.0156
2.01709
2.01773
2.01774
2.01744
2.01626
2.0134
2.00978
2.00543
1.99913
1.99141
1.98161
1.96953
1.95452
1.93731
1.91683
1.89325
1.86589
1.83543
1.80267
1.7789
1.7663
1.76777
1.78321
1.80724
1.99381
1.98968
1.98477
1.97943
1.97409
1.96885
1.96381
1.95946
1.95595
1.953
1.95105
1.95048
1.95116
1.95295
1.95586
1.95988
1.96457
1.96999
1.97602
1.98224
1.98856
1.99494
2.00059
2.00613
2.01115
2.01563
2.01955
2.02299
2.0259
2.02819
2.02985
2.03067
2.03087
2.03061
2.02908
2.02608
2.02252
2.01772
2.01116
2.00304
1.99268
1.97901
1.96257
1.94293
1.91936
1.89178
1.85741
1.82311
1.78653
1.75455
1.75014
1.75419
1.79459
1.83313
0.96126
0.960588
0.96101
0.962197
0.964448
0.967486
0.971664
0.976598
0.982116
0.988315
0.994561
1.00124
1.00711
1.01353
1.01802
1.02301
1.02642
1.02894
1.0307
1.03141
0.962993
0.962224
0.962408
0.963243
0.965143
0.968025
0.971874
0.976539
0.982074
0.987962
0.994681
1.00103
1.00746
1.01384
1.01875
1.02382
1.02727
1.03019
1.0319
1.03273
0.96533
0.964446
0.964402
0.96493
0.966635
0.969182
0.972792
0.977059
0.982658
0.988327
0.994875
1.00138
1.00779
1.01408
1.01935
1.02438
1.02806
1.03089
1.03297
1.03365
0.968182
0.967128
0.966912
0.967377
0.968733
0.971092
0.974177
0.978489
0.983451
0.98923
0.995445
1.00194
1.00824
1.01444
1.01981
1.02457
1.02861
1.03121
1.03347
1.03428
0.971383
0.970369
0.970037
0.970348
0.971475
0.973467
0.976388
0.980318
0.984965
0.990451
0.996311
1.00251
1.00877
1.01462
1.02007
1.02465
1.02867
1.03148
1.03341
1.03474
0.975052
0.974135
0.973558
0.973834
0.974689
0.976528
0.979047
0.982633
0.986921
0.992017
0.997375
1.00339
1.00911
1.01482
1.01999
1.02448
1.02827
1.03121
1.03328
1.03446
0.97917
0.978111
0.977608
0.977753
0.978355
0.979934
0.982152
0.985325
0.989222
0.993805
0.99877
1.00414
1.00962
1.01485
1.01957
1.02411
1.02746
1.03062
1.03252
1.03394
0.983508
0.982523
0.981961
0.981986
0.98249
0.98362
0.985583
0.98839
0.991594
0.995966
0.99995
1.00546
1.00964
1.01475
1.01924
1.02317
1.02658
1.02943
1.03149
1.0331
0.988064
0.987148
0.986577
0.986452
0.986747
0.98757
0.989183
0.991462
0.994342
0.997745
1.00185
1.00567
1.01038
1.01431
1.01861
1.02204
1.02548
1.028
1.03025
1.03177
0.992805
0.991956
0.991332
0.991028
0.991113
0.991632
0.992764
0.994545
0.996858
0.999851
1.00287
1.00675
1.0103
1.01397
1.01765
1.02088
1.02398
1.02643
1.02869
1.03033
0.997635
0.996752
0.996084
0.995583
0.995396
0.99557
0.996229
0.997299
0.999656
1.00087
1.0049
1.00667
1.01048
1.0134
1.01654
1.01948
1.02228
1.02468
1.02692
1.02869
1.00241
1.00154
1.00067
0.99996
0.999386
0.999211
0.999205
1.00022
1.00084
1.00326
1.00476
1.00737
1.00991
1.0127
1.01536
1.01804
1.02053
1.02286
1.02505
1.02696
1.00707
1.00608
1.00503
1.0039
1.00298
1.00219
1.0019
1.00177
1.00283
1.00357
1.0052
1.00714
1.00937
1.01164
1.01404
1.01642
1.0187
1.02102
1.02315
1.02523
1.01148
1.01029
1.00881
1.00728
1.00573
1.00444
1.00342
1.00297
1.00322
1.00363
1.0048
1.00645
1.00828
1.01042
1.01246
1.01476
1.01695
1.01916
1.0214
1.02359
1.01524
1.0137
1.01171
1.00945
1.00727
1.00521
1.00368
1.00277
1.00236
1.00267
1.00359
1.00503
1.0068
1.0087
1.01086
1.01299
1.01517
1.01744
1.0197
1.02207
1.01787
1.01597
1.01304
1.0106
1.00774
1.00484
1.00228
1.00097
1.00006
1.00026
1.0012
1.0028
1.00469
1.00674
1.00899
1.01123
1.01352
1.01589
1.01824
1.02075
1.02049
1.01842
1.01558
1.01294
1.00981
1.00521
1.00071
0.997994
0.996314
0.996221
0.99748
0.9995
1.00183
1.00434
1.00686
1.00946
1.01191
1.0145
1.01699
1.01962
1.023
1.02681
1.02683
1.03117
1.02961
1.02016
1.01343
1.00229
0.995695
0.992441
0.992934
0.995102
0.998104
1.00127
1.00459
1.00765
1.0106
1.01335
1.01608
1.01875
1.04916
1.07286
1.09716
1.12949
1.13259
1.11151
1.09599
1.05359
1.02147
1.00169
0.993216
0.99239
0.994742
0.998429
1.00227
1.006
1.00936
1.01248
1.01531
1.01828
1.17484
1.27793
1.38436
1.47276
1.47618
1.43367
1.41312
1.27348
1.15305
1.06043
1.01523
0.997923
0.994419
0.996481
1.00023
1.00436
1.00828
1.01175
1.01495
1.01784
1.58114
1.73823
1.81796
1.83141
1.78542
1.74534
1.6217
1.59221
1.41676
1.23486
1.09582
1.02834
1.00421
0.998754
1.00026
1.00392
1.00774
1.01146
1.01473
1.01772
1.94601
1.98547
1.97211
1.92076
1.84862
1.72516
1.66372
1.59906
1.55143
1.41666
1.22507
1.09946
1.03582
1.01099
1.00475
1.00568
1.00885
1.01217
1.01526
1.01805
2.05043
2.03232
1.98673
1.90622
1.76634
1.59864
1.42752
1.42907
1.45021
1.42607
1.30098
1.15472
1.07098
1.03024
1.01433
1.01056
1.01167
1.01405
1.01643
1.01852
2.06656
2.03573
1.97386
1.86591
1.69416
1.47798
1.29938
1.22559
1.22758
1.26057
1.24102
1.14885
1.08212
1.04607
1.02752
1.01926
1.01685
1.01753
1.01878
1.01993
2.06805
2.0341
1.97154
1.86394
1.69034
1.47559
1.29579
1.19525
1.14844
1.11445
1.10412
1.0839
1.05889
1.04039
1.03036
1.0256
1.02362
1.02253
1.02229
1.02202
2.0699
2.04996
2.01821
1.9612
1.87615
1.73055
1.55464
1.38574
1.26977
1.16992
1.10741
1.07673
1.05366
1.04057
1.03356
1.03096
1.02938
1.02847
1.02687
1.0243
2.06888
2.05683
2.03122
2.00233
1.95707
1.91363
1.8525
1.78853
1.72001
1.64268
1.55736
1.47338
1.39176
1.32543
1.2718
1.23937
1.21203
1.19345
1.17591
1.15502
2.05944
2.04466
2.02906
2.00144
1.98093
1.94754
1.92801
1.90931
1.89465
1.88391
1.8694
1.85487
1.83321
1.8095
1.78678
1.77069
1.75294
1.73621
1.71283
1.67779
2.04705
2.03087
2.01198
1.99321
1.96788
1.95183
1.93061
1.92411
1.91894
1.92231
1.92717
1.9374
1.94656
1.95577
1.96382
1.97036
1.97324
1.96829
1.95268
1.92269
2.03235
2.01697
1.99772
1.97569
1.9548
1.93381
1.92211
1.91535
1.9148
1.92029
1.9289
1.94239
1.95632
1.97017
1.9821
1.991
1.99541
1.99247
1.97871
1.9511
2.01717
1.99988
1.97884
1.9571
1.93543
1.91779
1.90664
1.90225
1.9026
1.90882
1.91879
1.93271
1.94749
1.96227
1.97524
1.98523
1.99105
1.98991
1.9781
1.95325
1.99819
1.98007
1.96016
1.93769
1.91768
1.90095
1.89199
1.88847
1.88995
1.897
1.90824
1.92265
1.93802
1.95333
1.9667
1.97743
1.98426
1.98493