/*--------------------------------*- C++ -*----------------------------------*\
  =========                 |
  \\      /  F ield         | OpenFOAM: The Open Source CFD Toolbox
   \\    /   O peration     | Website:  https://openfoam.org
    \\  /    A nd           | Version:  11
     \\/     M anipulation  |
\*---------------------------------------------------------------------------*/
FoamFile
{
    format      ascii;
    class       volScalarField;
    location    "9";
    object      mag(U);
}
// * * * * * * * * * * * * * * * * * * * * * * * * * * * * * * * * * * * * * //

dimensions      [0 1 -1 0 0 0 0];

internalField   nonuniform List<scalar> 
9600
(
0.967094
0.963216
0.95939
0.957059
0.951947
0.946506
0.943046
0.941247
0.936148
0.930959
0.93008
0.92958
0.931018
0.933892
0.938055
0.944093
0.952368
0.961986
0.975164
0.983625
0.983204
0.982035
0.979073
0.974127
0.967064
0.958161
0.952434
0.947672
0.941098
0.925436
0.894042
0.861676
0.829965
0.803356
0.78569
0.773708
0.775097
0.789032
0.807882
0.870767
0.969279
0.968277
0.96614
0.964208
0.962851
0.960428
0.95834
0.956185
0.955824
0.955075
0.955421
0.956716
0.959468
0.964544
0.972744
0.980813
0.990578
1.00257
1.01239
1.02292
1.02967
1.02833
1.02247
1.01587
1.01311
1.01155
1.01179
1.01456
1.0198
1.02227
1.02097
1.01073
0.980732
0.945607
0.914728
0.887948
0.864097
0.851345
0.845423
0.870361
0.968417
0.967216
0.964949
0.962736
0.961613
0.959959
0.957863
0.95616
0.955864
0.955683
0.956142
0.957622
0.960571
0.96541
0.972914
0.982008
0.991974
1.00272
1.01307
1.0212
1.03095
1.03058
1.02679
1.01735
1.00909
1.007
1.00924
1.01756
1.02887
1.03957
1.04418
1.04081
1.02201
0.97737
0.93491
0.901079
0.874788
0.86311
0.857913
0.875754
0.968327
0.967165
0.964965
0.962474
0.961268
0.959467
0.957184
0.955534
0.955585
0.955342
0.956009
0.957917
0.961498
0.966583
0.974439
0.983765
0.99318
1.00366
1.01498
1.02226
1.02897
1.03063
1.0282
1.02165
1.01116
1.00543
1.00534
1.01076
1.02524
1.04054
1.05258
1.05493
1.0473
1.01792
0.977807
0.942862
0.904919
0.877815
0.859056
0.867405
0.967842
0.966544
0.964192
0.961912
0.960405
0.958615
0.956539
0.955682
0.95548
0.955734
0.956794
0.958761
0.962963
0.968243
0.974935
0.984084
0.994815
1.00487
1.01548
1.02372
1.0273
1.03022
1.02848
1.02354
1.01384
1.00528
1.00312
1.00606
1.01679
1.0366
1.05663
1.0679
1.06608
1.04897
1.01037
0.969793
0.927351
0.898024
0.871198
0.871606
0.967524
0.966098
0.964013
0.961514
0.959598
0.958101
0.956292
0.955376
0.95522
0.95535
0.956754
0.958596
0.963265
0.969422
0.976369
0.98471
0.996289
1.00612
1.01609
1.02425
1.02948
1.03114
1.0286
1.02335
1.01503
1.006
1.00177
1.00309
1.01179
1.02985
1.05258
1.07028
1.07665
1.06991
1.04412
1.0033
0.954043
0.9196
0.88022
0.87033
0.966645
0.965237
0.963098
0.960641
0.958501
0.957146
0.955734
0.954766
0.95481
0.955264
0.957184
0.959328
0.964442
0.969834
0.977854
0.985417
0.997972
1.00668
1.01716
1.02487
1.03131
1.03199
1.02912
1.02329
1.01541
1.00677
1.00188
1.00128
1.00797
1.02212
1.04564
1.06936
1.08281
1.08274
1.06451
1.03301
0.982427
0.947076
0.901772
0.879749
0.966277
0.964811
0.962548
0.960163
0.95783
0.956525
0.955359
0.954559
0.954954
0.955214
0.957583
0.959439
0.965177
0.96998
0.979549
0.986419
0.998857
1.00777
1.01882
1.02597
1.03273
1.03332
1.03062
1.02395
1.01559
1.00652
1.00109
0.9989
1.00448
1.01801
1.03741
1.06491
1.0817
1.0921
1.07908
1.05984
1.01189
0.980784
0.92949
0.890014
0.965335
0.963806
0.961472
0.959079
0.956747
0.955552
0.95466
0.954048
0.954744
0.955009
0.957615
0.959846
0.966025
0.970616
0.980708
0.987521
1.00032
1.00894
1.02064
1.02731
1.03393
1.03526
1.03272
1.02522
1.01627
1.00603
1.00009
0.997012
1.00055
1.01407
1.03128
1.05728
1.07874
1.09902
1.08972
1.07696
1.03924
1.0059
0.959005
0.910073
0.964726
0.963157
0.960833
0.958534
0.956095
0.954976
0.95445
0.953623
0.954704
0.955008
0.958036
0.960135
0.966601
0.971247
0.981525
0.988665
1.00204
1.01018
1.02228
1.02952
1.03587
1.03681
1.03439
1.02684
1.01764
1.00624
0.997865
0.995369
0.995544
1.00814
1.02436
1.05118
1.07179
1.10014
1.09864
1.09372
1.06298
1.02854
0.991465
0.931488
0.963664
0.962071
0.959661
0.957496
0.95524
0.953835
0.953899
0.95308
0.954434
0.954827
0.958293
0.960404
0.967221
0.971945
0.982512
0.989711
1.00327
1.01188
1.02419
1.03171
1.03825
1.03902
1.03631
1.02884
1.01942
1.00764
0.996073
0.992793
0.990862
1.0025
1.01601
1.04523
1.06414
1.0982
1.10479
1.10881
1.08536
1.05307
1.02014
0.957535
0.962888
0.96132
0.958821
0.956782
0.95493
0.952975
0.953511
0.952648
0.954276
0.954602
0.958424
0.960656
0.967775
0.972544
0.983532
0.990798
1.00477
1.01373
1.0266
1.03358
1.04008
1.04194
1.03946
1.03145
1.02039
1.00895
0.994773
0.990086
0.986131
0.996716
1.00753
1.03694
1.05612
1.0927
1.10706
1.11769
1.10732
1.07553
1.04801
0.984852
0.961691
0.960106
0.957814
0.955395
0.954154
0.952233
0.952918
0.952075
0.954062
0.954366
0.95848
0.960666
0.968296
0.973277
0.984679
0.992139
1.00646
1.01562
1.0287
1.0366
1.04262
1.04472
1.04184
1.03542
1.02211
1.01122
0.994621
0.988074
0.980323
0.989093
0.998181
1.02754
1.04755
1.08523
1.10741
1.124
1.12555
1.09996
1.07607
1.01581
0.960779
0.95904
0.957095
0.954481
0.953379
0.951486
0.952417
0.951405
0.953697
0.953986
0.958534
0.960794
0.968868
0.973822
0.985715
0.993318
1.00811
1.01791
1.03027
1.03965
1.04589
1.04801
1.04438
1.03874
1.02509
1.01357
0.995393
0.985889
0.976595
0.980051
0.988144
1.01425
1.03715
1.07698
1.10455
1.12591
1.14194
1.12255
1.10554
1.04497
0.959536
0.957568
0.956049
0.953493
0.952473
0.9506
0.951795
0.950822
0.953416
0.953639
0.958573
0.960889
0.969382
0.974801
0.986388
0.995946
1.00856
1.0215
1.03247
1.04259
1.04929
1.05145
1.04804
1.04239
1.02941
1.01498
1.0004
0.980865
0.975891
0.97157
0.976157
1.00049
1.02358
1.06331
1.10114
1.12322
1.15035
1.14227
1.13541
1.07853
0.958418
0.956428
0.954939
0.952256
0.951521
0.949606
0.951017
0.949951
0.952911
0.953084
0.958314
0.961157
0.968605
0.977293
0.98512
0.999611
1.00891
1.02423
1.03537
1.04531
1.05284
1.05552
1.05178
1.04589
1.03467
1.01749
1.00292
0.98328
0.969848
0.967278
0.966263
0.982537
1.00809
1.04319
1.09037
1.11889
1.15701
1.15678
1.16442
1.10931
0.957044
0.955024
0.953748
0.951202
0.950689
0.948732
0.950319
0.949077
0.952403
0.952907
0.956912
0.963505
0.967546
0.978999
0.986962
1.00062
1.01248
1.02615
1.0393
1.04912
1.05636
1.05992
1.05743
1.04936
1.03957
1.02191
1.00469
0.987329
0.967879
0.960137
0.959058
0.964669
0.990192
1.02055
1.07294
1.1062
1.15904
1.16661
1.19157
1.14156
0.955566
0.953475
0.952269
0.949657
0.949486
0.947374
0.94916
0.94841
0.950072
0.953931
0.955589
0.963294
0.967956
0.979285
0.988439
1.00184
1.01506
1.02899
1.04202
1.0531
1.06064
1.0637
1.06312
1.05418
1.04437
1.02817
1.00715
0.98974
0.969794
0.953064
0.95244
0.948667
0.970362
0.993955
1.04899
1.08554
1.15119
1.1688
1.21524
1.17321
0.954152
0.952084
0.950931
0.948293
0.948397
0.946817
0.947203
0.949542
0.948873
0.953754
0.955301
0.963841
0.96919
0.979849
0.991138
1.00315
1.01875
1.03252
1.04601
1.05773
1.06541
1.06852
1.06844
1.06131
1.04882
1.03482
1.01384
0.991589
0.972663
0.949745
0.945864
0.934607
0.952196
0.966967
1.0192
1.05651
1.13229
1.15884
1.23021
1.20111
0.952344
0.950178
0.949074
0.946692
0.945624
0.946754
0.944663
0.948176
0.947667
0.953257
0.955184
0.962707
0.971155
0.978813
0.994726
1.00414
1.02131
1.03618
1.04935
1.06274
1.07073
1.07378
1.07357
1.06806
1.0554
1.03952
1.02111
0.996119
0.976809
0.948093
0.941673
0.921768
0.933445
0.939178
0.986307
1.02058
1.10021
1.13696
1.23037
1.22375
0.950853
0.948725
0.947008
0.946141
0.943527
0.945376
0.94353
0.947567
0.946871
0.952567
0.956162
0.962105
0.973446
0.98038
0.995744
1.00875
1.02402
1.04079
1.05471
1.06694
1.07726
1.07998
1.08036
1.07452
1.06446
1.04636
1.02875
1.00182
0.982776
0.950158
0.939639
0.913317
0.91654
0.912662
0.949684
0.978834
1.05451
1.09962
1.20773
1.23586
0.948061
0.947106
0.943987
0.943668
0.941108
0.943207
0.941133
0.945585
0.945572
0.950844
0.956036
0.962063
0.9728
0.983415
0.996613
1.01182
1.02788
1.04401
1.06044
1.07218
1.0827
1.08629
1.08759
1.08089
1.07298
1.05404
1.03823
1.00836
0.989979
0.954861
0.938907
0.909129
0.903456
0.891529
0.913025
0.932531
0.997222
1.04723
1.15542
1.22287
0.945609
0.945148
0.942381
0.942445
0.939509
0.941887
0.939804
0.943986
0.945685
0.950404
0.955803
0.964293
0.973529
0.986371
1.00032
1.01545
1.03356
1.04958
1.0668
1.07905
1.09058
1.09351
1.09718
1.08863
1.0837
1.06299
1.04983
1.01795
0.998967
0.962762
0.942424
0.910558
0.894806
0.876157
0.881393
0.892526
0.931054
0.986253
1.07413
1.17696
0.941862
0.941458
0.9383
0.93875
0.935994
0.938714
0.938029
0.9406
0.943964
0.948795
0.955158
0.963841
0.975095
0.986455
1.0038
1.0189
1.03758
1.05518
1.07347
1.08513
1.09874
1.10058
1.1068
1.09683
1.09444
1.07341
1.06152
1.02987
1.00978
0.973677
0.948172
0.915358
0.892341
0.869112
0.853834
0.863085
0.866622
0.919863
0.975959
1.09537
0.939599
0.939291
0.935569
0.936165
0.933819
0.935042
0.937726
0.93896
0.943794
0.94886
0.956375
0.964915
0.978126
0.990939
1.00791
1.024
1.04483
1.06143
1.08258
1.09279
1.10881
1.10992
1.11783
1.1079
1.10601
1.08677
1.0752
1.04665
1.0231
0.989012
0.959766
0.926807
0.893474
0.872782
0.838739
0.841488
0.820842
0.850789
0.885777
0.956816
0.935277
0.935488
0.932065
0.931691
0.931428
0.930825
0.932726
0.936425
0.940088
0.947092
0.95503
0.965393
0.977873
0.992583
1.01182
1.0281
1.05098
1.06701
1.09028
1.10051
1.11667
1.11883
1.12677
1.11933
1.11688
1.10091
1.0878
1.06347
1.03934
1.00751
0.971658
0.943956
0.900306
0.879884
0.836344
0.828349
0.800603
0.789001
0.829232
0.793824
0.932666
0.932987
0.930706
0.929634
0.929862
0.930967
0.932231
0.936603
0.939997
0.948779
0.956725
0.968211
0.983307
0.997571
1.01768
1.03614
1.06014
1.07689
1.09883
1.11289
1.1273
1.13122
1.1377
1.13325
1.12953
1.117
1.103
1.08317
1.05682
1.03243
0.990434
0.964444
0.91645
0.89419
0.847893
0.823138
0.802262
0.756377
0.782008
0.7253
0.9263
0.92477
0.924066
0.921869
0.924796
0.923781
0.929101
0.932411
0.938456
0.947706
0.956508
0.970058
0.985549
1.00286
1.02298
1.04346
1.06647
1.08756
1.1079
1.12276
1.1379
1.14305
1.14879
1.14704
1.14241
1.13369
1.11825
1.10507
1.075
1.0566
1.01333
0.988069
0.937674
0.907922
0.8691
0.826276
0.810293
0.757511
0.757444
0.716044
0.925833
0.922311
0.922476
0.918548
0.92222
0.922951
0.926345
0.933774
0.939202
0.949979
0.961437
0.976671
0.99181
1.01255
1.03265
1.05572
1.07918
1.10058
1.12166
1.13777
1.15154
1.16037
1.16299
1.16539
1.15725
1.15583
1.13685
1.13085
1.10022
1.0865
1.04616
1.01687
0.976663
0.929774
0.899718
0.845574
0.826447
0.775632
0.755807
0.728119
0.917513
0.913913
0.913926
0.913809
0.912463
0.917472
0.920119
0.927859
0.934994
0.948407
0.958648
0.9781
0.993867
1.01764
1.03862
1.06464
1.08782
1.11307
1.13108
1.15188
1.16135
1.17579
1.1744
1.1822
1.1714
1.17459
1.15583
1.15145
1.12979
1.10988
1.08773
1.0458
1.01813
0.966561
0.933419
0.877041
0.851572
0.804712
0.766396
0.739481
0.912328
0.913068
0.911848
0.912834
0.913306
0.919253
0.921687
0.933921
0.939188
0.956428
0.967368
0.989265
1.00639
1.033
1.05248
1.08262
1.10394
1.1321
1.14781
1.17092
1.17858
1.19391
1.19242
1.19979
1.19412
1.19022
1.18635
1.16949
1.16611
1.14119
1.12516
1.0927
1.06528
1.01271
0.984329
0.927354
0.884772
0.848825
0.804979
0.762734
0.896446
0.900371
0.896565
0.902975
0.902531
0.911262
0.916225
0.929578
0.938898
0.957128
0.971628
0.99421
1.01545
1.04175
1.06683
1.09529
1.12022
1.14586
1.16625
1.18471
1.19934
1.20532
1.21631
1.2105
1.21694
1.2086
1.20553
1.1985
1.19187
1.1724
1.16833
1.13447
1.11458
1.07504
1.03328
0.990948
0.944121
0.890912
0.853069
0.807354
0.89361
0.897631
0.895118
0.898616
0.902782
0.909481
0.919924
0.93301
0.94763
0.966463
0.986636
1.00915
1.03507
1.06085
1.09092
1.1166
1.14708
1.16694
1.19343
1.20648
1.22151
1.23138
1.23446
1.23722
1.2407
1.22956
1.23729
1.22461
1.22354
1.21666
1.20642
1.19076
1.17355
1.14322
1.11125
1.07123
1.02422
0.974224
0.931626
0.876886
0.878285
0.879109
0.884882
0.886766
0.893497
0.906349
0.913767
0.934366
0.947454
0.973612
0.992912
1.02222
1.04755
1.07929
1.10608
1.13917
1.16236
1.19161
1.21125
1.22545
1.24562
1.24539
1.25715
1.25684
1.25471
1.2557
1.2548
1.25005
1.25087
1.24969
1.24117
1.2403
1.22492
1.20942
1.19218
1.15207
1.12661
1.06811
1.03845
0.974848
0.873682
0.878841
0.880348
0.893715
0.896843
0.918194
0.927596
0.954887
0.969682
1.00269
1.02167
1.05726
1.08213
1.11573
1.14623
1.17457
1.20379
1.22774
1.24662
1.26536
1.27718
1.28094
1.29362
1.28527
1.29189
1.28796
1.29107
1.28246
1.29742
1.2836
1.30302
1.28688
1.30061
1.28131
1.28536
1.25582
1.24525
1.20147
1.17736
1.12815
0.848585
0.864887
0.867015
0.883937
0.893775
0.914061
0.935261
0.958403
0.987487
1.0175
1.04393
1.08543
1.10682
1.15247
1.17415
1.21319
1.23561
1.26377
1.2805
1.29983
1.30772
1.31548
1.32342
1.31715
1.32797
1.31802
1.32769
1.31707
1.32943
1.32038
1.33831
1.33239
1.35578
1.35298
1.36856
1.35925
1.35935
1.33857
1.32675
1.29929
0.849389
0.864956
0.882825
0.907077
0.928283
0.959024
0.986165
1.01561
1.05061
1.07999
1.11965
1.15052
1.19018
1.22153
1.25659
1.2857
1.31104
1.33449
1.34638
1.36194
1.36083
1.36857
1.35963
1.36432
1.35398
1.358
1.34769
1.35126
1.33865
1.34082
1.32743
1.33303
1.33523
1.35913
1.36563
1.40496
1.39569
1.42403
1.39502
1.41729
0.82926
0.847418
0.873589
0.894803
0.925794
0.957436
0.995331
1.03523
1.0761
1.11839
1.15991
1.19881
1.23811
1.27168
1.30479
1.33155
1.35391
1.37203
1.37903
1.38762
1.38107
1.38105
1.36735
1.36453
1.35266
1.35078
1.34308
1.34131
1.3342
1.31833
1.29373
1.25356
1.21998
1.19931
1.19558
1.20188
1.19457
1.16841
1.11626
1.13191
0.907268
0.949434
0.99957
1.04141
1.08851
1.12603
1.16945
1.20811
1.24678
1.28145
1.31553
1.34179
1.36822
1.38538
1.40581
1.41582
1.43017
1.4335
1.43263
1.42816
1.41149
1.39907
1.37116
1.35302
1.32181
1.304
1.27784
1.26672
1.24059
1.20441
1.15363
1.09885
1.02377
0.871513
0.696623
0.516923
0.391416
0.323647
0.304356
0.314618
1.02957
1.06827
1.10509
1.14336
1.18071
1.21487
1.2456
1.27204
1.29447
1.31207
1.32251
1.3339
1.33487
1.34231
1.33664
1.33684
1.31803
1.30688
1.27212
1.2474
1.19438
1.15772
1.08325
1.03354
0.938166
0.879785
0.776063
0.710041
0.570562
0.201459
0.150325
0.311914
0.328476
0.203702
0.0640606
0.140298
0.211379
0.247337
0.269118
0.277046
0.881651
0.938858
1.00954
0.91641
0.824386
0.821062
0.921069
1.08579
1.18896
1.16098
1.10879
1.07041
1.0583
1.04645
1.03932
1.0364
1.03246
1.03127
1.02851
1.0277
1.02632
1.02536
1.02457
1.02379
1.02293
1.02244
1.02154
1.02128
1.02049
1.02032
1.01965
1.01921
1.01855
1.01799
1.01739
1.01691
1.01667
1.01657
1.01669
1.0142
0.845282
0.878156
0.931817
0.861342
0.803776
0.799985
0.901626
1.08263
1.20994
1.19674
1.12874
1.08031
1.06507
1.05101
1.04195
1.03857
1.03418
1.03255
1.02997
1.02861
1.02755
1.02621
1.0256
1.02461
1.02387
1.0232
1.02232
1.0219
1.02114
1.02087
1.02041
1.01992
1.01941
1.01864
1.01812
1.01748
1.01722
1.01709
1.01715
1.01595
0.818342
0.814817
0.884716
0.834223
0.782591
0.773848
0.871399
1.08007
1.22872
1.23114
1.14854
1.08801
1.06963
1.05347
1.04365
1.03965
1.03535
1.03341
1.03087
1.02936
1.02832
1.0267
1.0262
1.02495
1.02439
1.0235
1.02282
1.02221
1.02149
1.02106
1.02073
1.02017
1.01984
1.01896
1.01854
1.01779
1.01769
1.01754
1.01733
1.01568
0.805321
0.781558
0.823994
0.796371
0.753869
0.735511
0.830224
1.05927
1.22506
1.25912
1.17361
1.09873
1.07563
1.05812
1.04655
1.04162
1.03678
1.03442
1.03203
1.02995
1.02917
1.02717
1.02677
1.0253
1.02483
1.02373
1.02319
1.02241
1.02177
1.02122
1.02105
1.02048
1.02031
1.01957
1.01923
1.01833
1.01822
1.01804
1.01829
1.01944
0.805728
0.791062
0.816347
0.772099
0.731882
0.71292
0.800836
1.04585
1.22033
1.26569
1.19628
1.10982
1.07924
1.0616
1.04926
1.04322
1.03847
1.0357
1.03336
1.03119
1.03029
1.0283
1.02784
1.02623
1.02596
1.02463
1.02428
1.02334
1.02266
1.02195
1.02162
1.02108
1.02089
1.02021
1.01995
1.01915
1.01881
1.01818
1.01768
1.01603
0.81588
0.798686
0.804389
0.777437
0.736388
0.71198
0.805573
1.04286
1.20748
1.25282
1.21044
1.12159
1.08279
1.06521
1.05224
1.04473
1.04023
1.03714
1.03479
1.03264
1.03146
1.02973
1.02906
1.02757
1.02712
1.02598
1.02533
1.02465
1.02378
1.02309
1.02241
1.02194
1.02152
1.02102
1.02056
1.01994
1.01959
1.01937
1.01928
1.02011
0.83947
0.835962
0.840748
0.80967
0.763974
0.760481
0.863446
1.07878
1.1915
1.2231
1.20959
1.12936
1.08447
1.06659
1.0539
1.04501
1.04149
1.03772
1.03549
1.03364
1.03209
1.03058
1.02971
1.02835
1.02771
1.02674
1.02587
1.02536
1.02433
1.02367
1.02284
1.02235
1.02193
1.02148
1.02104
1.02056
1.01996
1.01953
1.01884
1.01753
0.861234
0.859045
0.858387
0.84749
0.822409
0.848735
0.938454
1.09642
1.16176
1.17402
1.19092
1.13207
1.08585
1.06701
1.05527
1.04537
1.04248
1.0382
1.03583
1.03417
1.03262
1.03114
1.03011
1.02882
1.02797
1.02713
1.02605
1.02563
1.02455
1.02399
1.02315
1.02253
1.02204
1.02165
1.02116
1.02088
1.02047
1.02037
1.02024
1.0205
0.889614
0.897805
0.903921
0.887639
0.86768
0.901513
0.966844
1.09053
1.12876
1.12791
1.15224
1.13056
1.08434
1.06568
1.056
1.04618
1.04316
1.03888
1.03647
1.03519
1.03352
1.03235
1.03089
1.02991
1.02863
1.02799
1.02672
1.02633
1.02527
1.02457
1.02375
1.02291
1.02236
1.02188
1.02143
1.02107
1.02055
1.02035
1.01994
1.01908
0.914126
0.919806
0.926024
0.919708
0.902673
0.924185
0.968234
1.06198
1.08268
1.07913
1.099
1.11878
1.07988
1.06352
1.05655
1.04674
1.04386
1.04062
1.03779
1.03656
1.03479
1.03383
1.03243
1.03147
1.03022
1.02938
1.02835
1.02761
1.02686
1.02587
1.02524
1.02407
1.02319
1.02248
1.02212
1.02174
1.02142
1.02109
1.02093
1.02081
0.944529
0.960828
0.972665
0.961784
0.93421
0.937253
0.961243
1.02469
1.0435
1.03057
1.04486
1.09527
1.07125
1.05772
1.05476
1.04591
1.04331
1.0413
1.0382
1.03707
1.0353
1.03452
1.03332
1.0323
1.03131
1.03032
1.02949
1.02854
1.028
1.02699
1.02649
1.02558
1.02485
1.02383
1.02315
1.02245
1.02189
1.02141
1.02097
1.02038
0.977697
0.991424
0.999314
0.997199
0.962393
0.940581
0.9471
0.97626
0.998591
0.974961
0.99447
1.06155
1.05862
1.04864
1.05078
1.04398
1.04131
1.04073
1.038
1.03732
1.0356
1.03488
1.03383
1.03279
1.03187
1.03082
1.03006
1.029
1.02855
1.02754
1.02707
1.02623
1.02566
1.02491
1.02412
1.02352
1.0228
1.02229
1.0218
1.02162
1.00854
1.03346
1.05263
1.05128
1.00098
0.942125
0.927196
0.931406
0.954668
0.928054
0.948644
1.02387
1.04506
1.03834
1.04502
1.04125
1.03935
1.03997
1.0379
1.03774
1.03631
1.03559
1.03473
1.03346
1.03271
1.03126
1.03063
1.02938
1.02889
1.02795
1.0274
1.02673
1.02612
1.02552
1.02461
1.02401
1.02324
1.02283
1.0221
1.02173
1.04577
1.07651
1.09303
1.09714
1.03814
0.943374
0.90312
0.887013
0.904866
0.882151
0.901029
0.986702
1.02763
1.02607
1.03784
1.03826
1.0377
1.0397
1.03811
1.03824
1.0373
1.03665
1.03597
1.03482
1.03407
1.03253
1.03171
1.03041
1.02949
1.02863
1.02777
1.02721
1.02646
1.02605
1.02527
1.02472
1.02388
1.02344
1.02281
1.02261
1.07905
1.12133
1.15924
1.16754
1.06654
0.94026
0.869762
0.843333
0.852858
0.841547
0.856035
0.954659
1.00386
1.0119
1.02786
1.03455
1.03513
1.0384
1.03757
1.038
1.03763
1.03714
1.03667
1.03584
1.0354
1.03434
1.03347
1.03242
1.03118
1.03024
1.02912
1.02834
1.02744
1.02685
1.02598
1.02544
1.02469
1.02409
1.02326
1.02284
1.12212
1.18312
1.22435
1.23317
1.07207
0.915789
0.820615
0.787424
0.791946
0.796143
0.811268
0.924831
0.979188
0.998794
1.01592
1.02806
1.03073
1.0354
1.03585
1.03698
1.03743
1.0373
1.03708
1.03641
1.03607
1.03524
1.03454
1.03379
1.0328
1.03192
1.03097
1.02996
1.02912
1.02824
1.02747
1.02658
1.02589
1.0252
1.02452
1.02398
1.16149
1.24482
1.31148
1.26369
1.05904
0.860968
0.750599
0.717031
0.722776
0.747131
0.77652
0.89835
0.957829
0.9868
1.00463
1.01958
1.02567
1.03167
1.03391
1.03573
1.03695
1.03727
1.03732
1.03697
1.03645
1.03589
1.03511
1.03448
1.03354
1.0327
1.03205
1.03115
1.03035
1.02944
1.02862
1.02778
1.02685
1.02598
1.02529
1.02481
1.21169
1.33044
1.3912
1.27397
0.999463
0.765788
0.652425
0.630689
0.648308
0.695408
0.753192
0.874486
0.93747
0.971616
0.996387
1.0105
1.02109
1.02816
1.03253
1.03442
1.03633
1.03706
1.0374
1.03725
1.03679
1.03626
1.03555
1.03497
1.03412
1.0333
1.03268
1.03189
1.03128
1.03033
1.02951
1.02872
1.02782
1.02716
1.02621
1.0257
1.2729
1.41187
1.42441
1.2446
0.877358
0.630753
0.539086
0.547263
0.584054
0.65582
0.744998
0.856966
0.918854
0.957348
0.989062
1.00205
1.01749
1.02454
1.03026
1.03333
1.03564
1.03686
1.03739
1.03757
1.03741
1.03674
1.03622
1.03551
1.03498
1.03412
1.03362
1.03263
1.03209
1.03121
1.03043
1.02956
1.02857
1.02802
1.02735
1.027
1.33695
1.46876
1.42074
1.18561
0.728829
0.500992
0.46204
0.504643
0.55892
0.645084
0.748618
0.846061
0.905217
0.945829
0.979482
0.996263
1.01255
1.02081
1.02787
1.03222
1.03481
1.0368
1.03751
1.03814
1.03845
1.0381
1.0378
1.03701
1.03655
1.03561
1.03505
1.03396
1.03333
1.0324
1.03168
1.03089
1.02977
1.02912
1.02828
1.02786
1.37283
1.45897
1.39986
1.1849
0.720477
0.539411
0.515187
0.554654
0.597053
0.671328
0.766709
0.842994
0.90036
0.937774
0.972528
0.991333
1.00788
1.01781
1.02561
1.03095
1.03389
1.03682
1.03797
1.03854
1.03929
1.03913
1.03912
1.03848
1.03804
1.03711
1.03659
1.03534
1.03473
1.03361
1.03296
1.03206
1.03113
1.03051
1.02959
1.02916
1.34299
1.39401
1.37096
1.27398
0.923979
0.768492
0.6929
0.685148
0.681836
0.72746
0.796083
0.848085
0.90103
0.937434
0.969492
0.986947
1.00536
1.01414
1.0228
1.02954
1.03295
1.03619
1.03837
1.03859
1.03965
1.03938
1.0396
1.03915
1.03889
1.03808
1.03774
1.03654
1.03617
1.03471
1.03403
1.03289
1.03195
1.03128
1.03036
1.02994
1.23273
1.30794
1.34354
1.30485
1.08605
0.974655
0.852145
0.807511
0.76901
0.795882
0.833022
0.866626
0.910587
0.943057
0.971169
0.985334
1.00482
1.01165
1.02168
1.02769
1.03206
1.03406
1.03786
1.03795
1.03955
1.03937
1.03971
1.03955
1.03961
1.03886
1.03883
1.03775
1.03748
1.03642
1.0357
1.03486
1.03382
1.03311
1.03225
1.03182
1.0911
1.20305
1.2765
1.27223
1.11562
1.03808
0.927242
0.88372
0.843943
0.863193
0.874645
0.902512
0.928317
0.953439
0.979857
0.990143
1.00775
1.01473
1.02254
1.02744
1.03307
1.03364
1.03853
1.03857
1.04032
1.04082
1.04104
1.04122
1.04156
1.04078
1.04125
1.04002
1.03993
1.03875
1.03799
1.03698
1.03575
1.03475
1.03384
1.03328
0.953669
1.07109
1.17524
1.17968
1.09621
1.03716
0.954189
0.937637
0.908556
0.926783
0.922409
0.948797
0.953952
0.972853
0.993419
1.00203
1.01379
1.022
1.02706
1.03133
1.03764
1.03742
1.04205
1.04216
1.04329
1.04391
1.04408
1.04355
1.04426
1.04312
1.04366
1.04234
1.04225
1.04085
1.04023
1.03903
1.03817
1.03698
1.03638
1.03572
0.820875
0.920451
1.02521
1.04462
1.02369
0.987725
0.961949
0.968065
0.960436
0.982164
0.975004
0.9931
0.987464
0.999931
1.00893
1.01787
1.02339
1.03186
1.03476
1.03818
1.04193
1.0425
1.04466
1.04568
1.04584
1.0458
1.04631
1.04464
1.04569
1.04398
1.04472
1.04308
1.04328
1.04177
1.0413
1.04003
1.0394
1.0382
1.03775
1.03694
0.696177
0.760542
0.857615
0.906055
0.918619
0.921618
0.945373
0.970792
0.993013
1.02139
1.02216
1.03276
1.0294
1.02882
1.03065
1.03681
1.03702
1.04317
1.04181
1.04518
1.04465
1.04698
1.04592
1.04771
1.04745
1.04676
1.04785
1.04559
1.04669
1.04488
1.04572
1.044
1.04429
1.04292
1.04283
1.04161
1.0416
1.04041
1.04026
1.03958
0.624481
0.625822
0.708718
0.773728
0.790264
0.825014
0.889821
0.946416
1.00219
1.03493
1.06061
1.07292
1.074
1.06378
1.06271
1.05863
1.05835
1.0586
1.05537
1.05749
1.05317
1.05467
1.05237
1.05283
1.05262
1.05135
1.05217
1.04981
1.05063
1.04849
1.0489
1.047
1.04701
1.04568
1.04529
1.044
1.04357
1.04218
1.0418
1.04088
0.637009
0.595415
0.606173
0.634922
0.644213
0.698156
0.799346
0.889424
0.97233
1.03297
1.07914
1.09862
1.11026
1.10807
1.09846
1.09005
1.08869
1.08228
1.07873
1.07474
1.07154
1.06813
1.06554
1.06352
1.06258
1.06093
1.06087
1.05925
1.05812
1.05668
1.05529
1.05364
1.05264
1.0512
1.05039
1.04912
1.04823
1.047
1.04611
1.04541
0.686271
0.625586
0.589557
0.552416
0.518884
0.563737
0.667048
0.776698
0.904588
1.00988
1.06877
1.10902
1.12989
1.13797
1.13207
1.12586
1.11588
1.11212
1.10371
1.09706
1.09318
1.08603
1.0823
1.07713
1.07381
1.07111
1.06855
1.0676
1.06475
1.06411
1.06159
1.06028
1.05824
1.05648
1.05475
1.05289
1.05141
1.04975
1.0482
1.04771
0.71852
0.680359
0.632883
0.573344
0.508735
0.476505
0.506678
0.611409
0.785908
0.932637
1.03578
1.10355
1.13242
1.15074
1.15512
1.15067
1.14031
1.1373
1.12693
1.1201
1.11301
1.10623
1.09911
1.09363
1.08694
1.08379
1.07804
1.07684
1.07229
1.072
1.0687
1.06819
1.06543
1.06435
1.06182
1.0606
1.05825
1.05673
1.05488
1.05439
0.755108
0.72456
0.707016
0.663449
0.599391
0.538244
0.46238
0.433398
0.581924
0.776523
0.949258
1.05413
1.11577
1.14778
1.16076
1.16522
1.16356
1.15513
1.15235
1.14143
1.13528
1.12785
1.12
1.11313
1.10599
1.09988
1.09398
1.0892
1.08452
1.08065
1.07742
1.07434
1.07171
1.06962
1.06678
1.06567
1.06217
1.06158
1.05934
1.05924
0.840761
0.795292
0.796656
0.789066
0.748054
0.686842
0.610014
0.50395
0.393002
0.536304
0.767021
0.949326
1.06279
1.12042
1.15286
1.16722
1.17416
1.17495
1.17117
1.16616
1.16025
1.152
1.14671
1.1373
1.1315
1.1229
1.1173
1.11025
1.10508
1.09814
1.09489
1.08814
1.08618
1.08081
1.07899
1.07518
1.07246
1.07045
1.06851
1.06769
0.942524
0.93237
0.968797
0.964346
0.923404
0.844675
0.764848
0.69441
0.592524
0.406986
0.491338
0.754084
0.939184
1.05708
1.12303
1.15741
1.1759
1.18484
1.1887
1.18829
1.18463
1.18053
1.17524
1.16905
1.16086
1.15482
1.14606
1.14025
1.1311
1.12492
1.11759
1.11079
1.10557
1.0994
1.09679
1.09163
1.08944
1.08581
1.08502
1.08205
1.10161
1.13886
1.13408
1.0812
0.994134
0.899515
0.818072
0.7796
0.754881
0.660607
0.524595
0.404886
0.669388
0.894622
1.01766
1.10486
1.15052
1.17975
1.19124
1.19899
1.20066
1.2006
1.19763
1.19533
1.19153
1.18784
1.18391
1.17999
1.1725
1.16781
1.15987
1.15394
1.1443
1.13798
1.12895
1.1231
1.11412
1.10936
1.1033
1.1009
1.30039
1.26483
1.19318
1.09275
0.993902
0.887861
0.801921
0.724615
0.683412
0.705683
0.704707
0.616618
0.44435
0.459795
0.696758
0.916524
1.01619
1.0965
1.13455
1.16919
1.18482
1.19526
1.19919
1.20079
1.20114
1.19929
1.19778
1.19722
1.19573
1.19416
1.19258
1.19091
1.18879
1.18583
1.18115
1.17503
1.16843
1.1589
1.15123
1.14297
1.36604
1.25438
1.14103
0.991112
0.821366
0.676503
0.558562
0.506902
0.517927
0.572514
0.597249
0.58222
0.561537
0.516995
0.341629
0.308212
0.581819
0.797843
0.916701
1.01969
1.08356
1.12743
1.15563
1.17646
1.18728
1.19597
1.19931
1.20179
1.2034
1.20362
1.20371
1.20411
1.20457
1.20516
1.20433
1.2023
1.20095
1.19635
1.19313
1.18685
1.0144
0.811894
0.640024
0.491681
0.344242
0.218592
0.102309
0.0288255
0.133729
0.25995
0.368162
0.411924
0.406992
0.403875
0.384372
0.372978
0.296225
0.0619614
0.336775
0.524286
0.724569
0.870967
0.963133
1.03758
1.08619
1.1259
1.15207
1.1735
1.18496
1.19374
1.1962
1.19612
1.19405
1.1931
1.20158
1.19983
1.20457
1.20555
1.21141
1.2178
0.222385
0.267097
0.328756
0.365112
0.36818
0.404107
0.434773
0.476581
0.515656
0.542254
0.561116
0.552239
0.520262
0.468923
0.421234
0.43727
0.436975
0.425969
0.439649
0.36321
0.182945
0.119985
0.325273
0.476306
0.618382
0.710342
0.783955
0.850369
0.907904
0.961254
1.00896
1.04907
1.08135
1.11337
1.13026
1.15849
1.17237
1.19156
1.19649
1.20595
0.290763
0.32028
0.361048
0.411732
0.460562
0.504931
0.540852
0.566255
0.582546
0.589739
0.589464
0.569855
0.541878
0.528156
0.488976
0.464012
0.416191
0.389117
0.35365
0.29524
0.25153
0.234809
0.178615
0.0910602
0.0311927
0.397848
0.532881
0.58674
0.642761
0.68029
0.714718
0.74665
0.78546
0.821189
0.862088
0.89709
0.940651
0.982435
1.03628
1.08423
1.01385
1.00878
1.00389
0.997806
0.992918
0.990208
0.990283
0.993751
1.00081
1.00878
1.0162
1.01802
1.01835
1.01762
1.01708
1.01664
1.01674
1.01665
1.01666
1.01654
1.01646
1.01629
1.01615
1.01598
1.01578
1.01557
1.01532
1.01507
1.0148
1.01452
1.01422
1.0139
1.01357
1.01321
1.01282
1.01241
1.01199
1.01156
1.01106
1.01064
1.01746
1.02366
1.02662
1.03035
1.03103
1.0313
1.03053
1.02807
1.02359
1.01894
1.01734
1.01709
1.01737
1.01781
1.01826
1.01846
1.01848
1.01843
1.01828
1.01811
1.01792
1.01772
1.01752
1.01729
1.01703
1.01673
1.0164
1.01608
1.01577
1.01546
1.01509
1.01471
1.01436
1.01394
1.01346
1.01295
1.01241
1.01194
1.01156
1.01128
1.01225
1.00947
1.00863
1.00852
1.01037
1.01166
1.01327
1.01449
1.01533
1.01586
1.01625
1.01704
1.01764
1.01804
1.01832
1.01843
1.01846
1.01843
1.01835
1.01825
1.01809
1.01789
1.01771
1.0175
1.01723
1.01689
1.01659
1.01631
1.01606
1.01577
1.01542
1.01507
1.0147
1.01435
1.01388
1.01339
1.0129
1.01256
1.01228
1.0121
1.02298
1.02626
1.02792
1.02868
1.02882
1.02853
1.02729
1.02528
1.02305
1.02077
1.0195
1.01913
1.01915
1.01922
1.01922
1.01919
1.01909
1.01888
1.01869
1.01854
1.01841
1.01827
1.01805
1.01778
1.01751
1.0172
1.0169
1.01662
1.01632
1.016
1.01564
1.01528
1.01493
1.01453
1.01409
1.01352
1.01301
1.01274
1.0125
1.01226
1.01329
1.01365
1.01398
1.01452
1.01526
1.01552
1.01612
1.01661
1.01717
1.01759
1.01793
1.0183
1.0185
1.01859
1.01872
1.01881
1.01896
1.01879
1.01862
1.01844
1.01841
1.01831
1.01819
1.01783
1.01761
1.01731
1.01706
1.01679
1.01657
1.01634
1.01597
1.01565
1.01527
1.01492
1.01446
1.01398
1.01353
1.01331
1.01305
1.0128
1.02242
1.02424
1.02519
1.02558
1.0256
1.02525
1.02443
1.02341
1.02241
1.02149
1.02088
1.02048
1.02027
1.02003
1.01993
1.01978
1.01964
1.01935
1.01908
1.0189
1.01878
1.01864
1.01838
1.01809
1.01786
1.0175
1.01724
1.0169
1.01665
1.01642
1.01602
1.01562
1.01522
1.01486
1.01445
1.01394
1.01361
1.01337
1.01308
1.01277
1.01585
1.01673
1.01694
1.01731
1.01753
1.01759
1.01804
1.01833
1.01866
1.01895
1.01912
1.0193
1.01933
1.01938
1.01946
1.01957
1.01946
1.01921
1.01905
1.01901
1.01893
1.01879
1.01859
1.01833
1.01801
1.01776
1.01747
1.01732
1.0171
1.01686
1.01654
1.01606
1.01561
1.01528
1.01482
1.01442
1.01413
1.01393
1.01355
1.01321
1.02169
1.02272
1.0231
1.02344
1.02327
1.0231
1.02268
1.02242
1.02199
1.02185
1.02148
1.02122
1.02075
1.02061
1.02052
1.02052
1.0202
1.0198
1.01959
1.01948
1.01934
1.01906
1.01882
1.01856
1.01822
1.01786
1.0176
1.01733
1.01714
1.01686
1.01652
1.01606
1.01561
1.01532
1.01485
1.01447
1.01417
1.01387
1.01352
1.01314
1.01829
1.01854
1.01859
1.01889
1.0191
1.01939
1.01956
1.0198
1.01993
1.02016
1.02025
1.02031
1.02023
1.02028
1.02037
1.02032
1.02015
1.02
1.01986
1.01979
1.01961
1.01943
1.01914
1.01894
1.01865
1.01835
1.01808
1.01793
1.01774
1.01745
1.01702
1.01654
1.01616
1.01577
1.01535
1.01503
1.01469
1.01436
1.01396