/*--------------------------------*- C++ -*----------------------------------*\
  =========                 |
  \\      /  F ield         | OpenFOAM: The Open Source CFD Toolbox
   \\    /   O peration     | Website:  https://openfoam.org
    \\  /    A nd           | Version:  11
     \\/     M anipulation  |
\*---------------------------------------------------------------------------*/
FoamFile
{
    format      ascii;
    class       volScalarField;
    location    "9";
    object      p;
}
// * * * * * * * * * * * * * * * * * * * * * * * * * * * * * * * * * * * * * //

dimensions      [0 2 -2 0 0 0 0];

internalField   nonuniform List<scalar> 
9600
(
0.0509717
0.0515123
0.0523128
0.0533458
0.0544706
0.0555264
0.0563978
0.0568989
0.0567536
0.0557352
0.0535817
0.0501727
0.044697
0.0368479
0.0266404
0.0141266
-0.000587424
-0.0164857
-0.0325337
-0.0471198
-0.058079
-0.0635898
-0.0615866
-0.0534264
-0.0408523
-0.0249844
-0.0084255
0.00607957
0.0169335
0.0240382
0.0276969
0.0285826
0.0295435
0.031195
0.0334866
0.0363045
0.0407721
0.0459494
0.0546954
0.0625762
0.0512862
0.0519842
0.0529775
0.054095
0.0552054
0.0561869
0.0569144
0.0571601
0.0567167
0.0553006
0.052756
0.0487247
0.0427152
0.0346224
0.0243021
0.0118279
-0.00271639
-0.0182312
-0.0337796
-0.0476821
-0.0583878
-0.0638272
-0.0622779
-0.0550069
-0.0434867
-0.0288043
-0.0128488
0.00212217
0.0139956
0.022087
0.0263388
0.0276007
0.028608
0.0297803
0.031455
0.0334013
0.0364406
0.0412805
0.0478023
0.0582932
0.0515251
0.052247
0.0532746
0.0543479
0.0553635
0.0562227
0.056787
0.0568527
0.0562114
0.0547147
0.0520632
0.0480076
0.0419891
0.0338357
0.0235483
0.0111243
-0.00328586
-0.0186544
-0.0340351
-0.0478537
-0.0582783
-0.064104
-0.0629384
-0.0559042
-0.0444705
-0.0294482
-0.0133723
0.000952851
0.0127959
0.0215808
0.0263979
0.0274483
0.0283598
0.0300959
0.0320966
0.0346528
0.0373419
0.0406209
0.045849
0.052957
0.051792
0.0525717
0.0536969
0.0548407
0.0558666
0.0566904
0.0571826
0.0571255
0.0563237
0.0545786
0.0516586
0.0472923
0.0408562
0.0324412
0.0219742
0.00950907
-0.00485547
-0.0200657
-0.0352768
-0.0488605
-0.0592503
-0.0647536
-0.0639402
-0.0574339
-0.0466223
-0.0327729
-0.0168651
-0.00180478
0.0104085
0.0196873
0.0255989
0.0272775
0.0272403
0.0281195
0.0296418
0.0315833
0.034034
0.0377916
0.0422962
0.0480457
0.0521127
0.0529484
0.0541431
0.0552957
0.0562525
0.0569349
0.0572061
0.0568743
0.0558097
0.0538741
0.0506895
0.0460857
0.0396711
0.0312162
0.020762
0.00832744
-0.00593641
-0.0210395
-0.0360807
-0.0494515
-0.0596236
-0.0652685
-0.0650044
-0.0589464
-0.0482874
-0.0343273
-0.0189196
-0.00360885
0.00893853
0.0184229
0.0247849
0.027323
0.0273848
0.0278367
0.0293473
0.0318749
0.0345045
0.0372522
0.0401125
0.0438013
0.0524943
0.0533656
0.0545918
0.0557375
0.0566394
0.0572014
0.0573263
0.0568844
0.0557121
0.0536949
0.05036
0.0455791
0.0388562
0.0301343
0.019544
0.00706951
-0.00716744
-0.0222205
-0.0372202
-0.0505648
-0.0608464
-0.0663643
-0.0663361
-0.0607342
-0.0504747
-0.0370608
-0.021994
-0.00632542
0.00688357
0.0169122
0.0238691
0.0268375
0.0273693
0.0267723
0.027187
0.0290021
0.031747
0.0350921
0.038274
0.0408311
0.0529253
0.053807
0.0550457
0.0561816
0.0570258
0.0574757
0.0574462
0.0568282
0.0554477
0.0531383
0.0494946
0.0445005
0.0376794
0.0289378
0.0182937
0.0057705
-0.00845843
-0.0234953
-0.0384481
-0.0517704
-0.0619895
-0.0676221
-0.0678231
-0.0626337
-0.0526569
-0.0392895
-0.0241858
-0.00892036
0.0048743
0.0154683
0.0229469
0.0265642
0.0272288
0.0264944
0.026479
0.0277931
0.0303352
0.0334641
0.0363901
0.0383266
0.0533919
0.0542755
0.0555155
0.0566263
0.0574211
0.0577495
0.0575469
0.0567384
0.0551689
0.0527216
0.0489984
0.0438402
0.0368884
0.0279024
0.0171248
0.00451775
-0.00975314
-0.0248425
-0.0397939
-0.0531296
-0.0633537
-0.0691171
-0.0695916
-0.0647793
-0.0551147
-0.0420602
-0.0270614
-0.0116784
0.00255497
0.0139433
0.0218645
0.0263552
0.0271729
0.0263475
0.0256001
0.0257398
0.0275046
0.0308919
0.0342887
0.0364767
0.0538879
0.0547645
0.0559969
0.0570813
0.0578142
0.0580146
0.0576342
0.0566435
0.0549125
0.0523315
0.0484366
0.0430379
0.0358771
0.0267765
0.0158938
0.00318053
-0.0111479
-0.0263275
-0.0413164
-0.0547433
-0.0650596
-0.0709403
-0.0716552
-0.0671659
-0.0577848
-0.0449116
-0.0298235
-0.0144837
6.48729e-05
0.0123564
0.0208358
0.0261239
0.0271864
0.0261295
0.0249404
0.0244829
0.0252364
0.028198
0.0318045
0.0338683
0.0544145
0.05528
0.0565013
0.0575468
0.0582026
0.0582729
0.0577242
0.0565605
0.0546743
0.0519473
0.0478916
0.0422967
0.0350055
0.0257368
0.0147134
0.00185182
-0.0125782
-0.0279065
-0.0429729
-0.0565166
-0.0669108
-0.0729726
-0.0739721
-0.0697727
-0.0606731
-0.0480249
-0.0329399
-0.0173457
-0.00263747
0.0105737
0.019751
0.0257244
0.0274646
0.0266684
0.0246884
0.0235747
0.023193
0.0249301
0.0283495
0.0307144
0.0549749
0.0558213
0.0570265
0.058021
0.0585917
0.0585291
0.0578174
0.0565134
0.0544714
0.0515742
0.0473797
0.0416082
0.0341351
0.0246773
0.0134927
0.000449877
-0.0141337
-0.0296396
-0.044836
-0.0585667
-0.069131
-0.07535
-0.076624
-0.0727032
-0.06386
-0.0513946
-0.0363739
-0.0204587
-0.00549211
0.00844656
0.0186253
0.0253178
0.0277652
0.0272406
0.0245833
0.0226147
0.0213799
0.0218246
0.0245921
0.0270057
0.0555704
0.0563968
0.0575738
0.0585041
0.0589903
0.0587988
0.0579206
0.0564848
0.0543104
0.0512431
0.0468926
0.04094
0.0332866
0.0236289
0.0122445
-0.0010078
-0.0157829
-0.0315016
-0.0468765
-0.0608056
-0.0715692
-0.0779742
-0.079559
-0.0759306
-0.0673711
-0.0550165
-0.0401181
-0.0238759
-0.00850619
0.00601636
0.0173219
0.0248816
0.0281509
0.0280008
0.0252467
0.0220934
0.0199953
0.0190949
0.0205337
0.0227902
0.0562031
0.0569985
0.0581444
0.0590093
0.0593913
0.0590924
0.0580784
0.0564839
0.0541766
0.0509618
0.0464519
0.0402945
0.0324627
0.0225716
0.0109507
-0.00254014
-0.0175532
-0.0335341
-0.0491574
-0.0633127
-0.0743563
-0.0809579
-0.0828619
-0.0795032
-0.0712578
-0.0589795
-0.0441983
-0.0276205
-0.011913
0.00318987
0.0156491
0.024244
0.0286916
0.0289787
0.0264736
0.0222055
0.0190337
0.0165072
0.016431
0.0183035
0.0568785
0.057641
0.0587442
0.0595364
0.0598084
0.059413
0.0582852
0.0565409
0.0540916
0.0507249
0.0460512
0.0396714
0.0316404
0.021508
0.0095993
-0.00415723
-0.019482
-0.0357535
-0.0516845
-0.0660867
-0.0774379
-0.0842532
-0.0864961
-0.0834525
-0.0755228
-0.0633321
-0.048627
-0.0318484
-0.0155984
-7.28795e-05
0.0135258
0.0233764
0.0292267
0.0301835
0.0281994
0.0234006
0.0185771
0.0143739
0.0127318
0.0135669
0.0575926
0.0583363
0.0593826
0.0600919
0.0602699
0.0597755
0.0585396
0.0566522
0.0540664
0.0505441
0.0456967
0.0390446
0.0308114
0.020421
0.00816115
-0.00589791
-0.0215724
-0.0381785
-0.0544889
-0.0691629
-0.0808672
-0.0879427
-0.090526
-0.0877971
-0.0802205
-0.0681487
-0.0534556
-0.0365863
-0.0197269
-0.00374921
0.0108002
0.0220693
0.0295451
0.0316158
0.030304
0.0255829
0.0191177
0.0129671
0.00936367
0.00870153
0.0583626
0.0590764
0.0600638
0.0606942
0.0607795
0.0601929
0.05886
0.0568431
0.0541104
0.0504086
0.0453827
0.0384462
0.0299642
0.0192894
0.00661941
-0.00775441
-0.0238792
-0.0408453
-0.0575683
-0.0725869
-0.0846584
-0.0920056
-0.0949551
-0.0925849
-0.0853683
-0.0734859
-0.0587714
-0.0418262
-0.0244631
-0.0078977
0.00754136
0.0200531
0.029401
0.033098
0.0327939
0.0284558
0.0211038
0.0125723
0.0067035
0.0041208
0.0592002
0.0598761
0.0608013
0.0613581
0.0613557
0.060675
0.0592486
0.0571349
0.0542481
0.0502846
0.0451116
0.0378696
0.0290437
0.0181237
0.00495378
-0.00978533
-0.0263853
-0.0438105
-0.0609887
-0.0763573
-0.0888358
-0.0966031
-0.0998221
-0.0978803
-0.0909641
-0.0793898
-0.064678
-0.047653
-0.0298192
-0.0127499
0.00358819
0.0172874
0.0283949
0.0341294
0.0354075
0.0320635
0.0246339
0.0137946
0.00529198
0.000123115
0.060113
0.0607445
0.0616052
0.0621021
0.0620231
0.0612637
0.0597382
0.0574682
0.0544884
0.0501953
0.0447879
0.0373898
0.0280519
0.0168104
0.00321004
-0.0120525
-0.0291405
-0.047054
-0.0647736
-0.0805637
-0.0933978
-0.101598
-0.105178
-0.103661
-0.0971328
-0.0858713
-0.0711799
-0.0542136
-0.035872
-0.0183257
-0.00122736
0.0138943
0.0264045
0.0342947
0.037699
0.0361235
0.0295659
0.0172479
0.00471729
-0.00336968
0.061115
0.0616982
0.0624942
0.0629469
0.0627958
0.0619448
0.0603722
0.0579014
0.0547181
0.0503408
0.0444842
0.0368124
0.0270534
0.0153445
0.00128101
-0.0145268
-0.0322354
-0.0506698
-0.0689093
-0.085255
-0.0984176
-0.107102
-0.111111
-0.109966
-0.103884
-0.0930308
-0.0783987
-0.0615209
-0.0427867
-0.0247057
-0.00691038
0.0095421
0.0233608
0.0332844
0.0390621
0.0400196
0.0354092
0.0236841
0.00944714
-0.00476195
0.0622152
0.0627473
0.0635029
0.0639232
0.0637107
0.0627423
0.0610685
0.0585169
0.0550409
0.0503884
0.0442223
0.0361979
0.0259402
0.0137357
-0.000864151
-0.0172768
-0.0356365
-0.0547562
-0.073446
-0.0904249
-0.104004
-0.113101
-0.117582
-0.116923
-0.111258
-0.100886
-0.0864138
-0.0696718
-0.0506805
-0.0319487
-0.013507
0.0039576
0.0192066
0.031067
0.0389947
0.0428612
0.0411702
0.0323003
0.0177972
-0.000742944
0.063441
0.0639141
0.064635
0.0650238
0.064807
0.0637717
0.061891
0.0591848
0.0554424
0.0505768
0.043928
0.0354902
0.0247544
0.0118969
-0.00323701
-0.0204103
-0.0394014
-0.0593305
-0.0785778
-0.09604
-0.11018
-0.119728
-0.124632
-0.124566
-0.119354
-0.109541
-0.0952676
-0.0787134
-0.0596417
-0.0402459
-0.0212587
-0.00310501
0.0135197
0.0273276
0.0374289
0.04393
0.0456291
0.041359
0.0291297
0.0111634
0.0647973
0.0652534
0.0659807
0.0663188
0.0660516
0.0649467
0.0628918
0.0600221
0.0559263
0.0506856
0.0436877
0.0346389
0.023415
0.00981873
-0.00594341
-0.0239581
-0.0436428
-0.0643088
-0.0843588
-0.102316
-0.116893
-0.127034
-0.132337
-0.132891
-0.128202
-0.119067
-0.105123
-0.0887023
-0.0697321
-0.0498871
-0.030164
-0.0115321
0.00603859
0.0215505
0.0338718
0.0429972
0.0473271
0.0483414
0.0404741
0.028255
0.0663682
0.0668136
0.0675769
0.0678661
0.0674767
0.0662893
0.0640349
0.0609112
0.0565408
0.050787
0.0433457
0.0336585
0.0218637
0.0074408
-0.00911694
-0.0278722
-0.0485667
-0.0699148
-0.0906447
-0.109382
-0.124313
-0.135067
-0.140796
-0.141949
-0.137855
-0.129488
-0.116144
-0.0998895
-0.0810144
-0.060925
-0.0406282
-0.0207519
-0.00271665
0.0138641
0.0276459
0.0393355
0.0459023
0.0512277
0.0475628
0.0422459
0.0682113
0.0686223
0.0694278
0.069713
0.0691652
0.0678173
0.0653739
0.0618486
0.0572201
0.0509031
0.0429249
0.0325025
0.019966
0.00484085
-0.0128459
-0.0324071
-0.0540158
-0.0764106
-0.0976272
-0.117156
-0.132567
-0.143846
-0.150146
-0.151862
-0.148357
-0.140826
-0.128359
-0.112434
-0.0938481
-0.0735372
-0.0528036
-0.0322753
-0.0132546
0.00447205
0.0193006
0.0323585
0.0415852
0.049785
0.0507905
0.0494752
0.0703826
0.0707808
0.0715687
0.0718145
0.0711394
0.0694851
0.0668704
0.0629662
0.0578436
0.0509232
0.0422977
0.0312142
0.0175972
0.00166465
-0.0169739
-0.0378434
-0.0601798
-0.0836739
-0.105601
-0.12573
-0.141743
-0.153558
-0.160339
-0.162752
-0.159946
-0.153071
-0.141788
-0.126542
-0.108358
-0.0879573
-0.0668833
-0.0455648
-0.0256975
-0.00706143
0.00891973
0.0226075
0.0345289
0.0436373
0.0501092
0.0505659
0.0729353
0.0732966
0.0740604
0.0741681
0.0733457
0.0714723
0.068473
0.0641587
0.058502
0.0509241
0.0413471
0.0294888
0.0149531
-0.00230773
-0.0217841
-0.0440219
-0.067416
-0.091791
-0.114623
-0.135345
-0.151831
-0.164257
-0.171526
-0.174526
-0.172735
-0.166504
-0.156374
-0.142209
-0.124806
-0.104472
-0.0831285
-0.0610968
-0.0402511
-0.0207088
-0.00332955
0.0110964
0.0245717
0.0339492
0.0424307
0.045757
0.0759531
0.0762261
0.0769774
0.0769513
0.0758423
0.0736654
0.0702663
0.065424
0.0590081
0.0506473
0.0402619
0.0271362
0.011581
-0.00687809
-0.0277424
-0.0511411
-0.0758584
-0.101079
-0.124703
-0.14613
-0.16316
-0.175988
-0.183978
-0.187286
-0.186623
-0.181313
-0.172311
-0.159395
-0.143238
-0.123539
-0.102024
-0.0793058
-0.0573747
-0.0366577
-0.0175622
-0.00222065
0.0115764
0.0221974
0.0296364
0.0349255
0.0795712
0.0797147
0.0803492
0.0801273
0.0787813
0.0760894
0.0721584
0.066673
0.0594912
0.0500647
0.0385035
0.0242965
0.00724723
-0.0124627
-0.0348691
-0.0595219
-0.0855898
-0.111819
-0.136217
-0.158089
-0.1759
-0.188918
-0.197617
-0.201421
-0.20148
-0.197392
-0.189734
-0.178251
-0.163739
-0.145145
-0.124123
-0.100939
-0.0775551
-0.0557952
-0.0350695
-0.017485
-0.00349523
0.00827666
0.0175355
0.0233422
0.083791
0.0837117
0.0842183
0.0837113
0.0819774
0.0788334
0.0740907
0.0677823
0.0595164
0.0491111
0.0360221
0.0204725
0.00191591
-0.0194259
-0.0433435
-0.0695924
-0.096999
-0.124052
-0.149446
-0.171671
-0.19004
-0.203395
-0.212652
-0.216901
-0.21782
-0.214614
-0.208723
-0.198874
-0.186228
-0.169802
-0.149494
-0.12691
-0.102386
-0.0787457
-0.056528
-0.0366716
-0.0204149
-0.00660207
0.00338134
0.0101615
0.0887931
0.0883823
0.0885109
0.0877337
0.0854816
0.0816462
0.0758692
0.0687207
0.059073
0.0471501
0.0327306
0.0152484
-0.00493823
-0.0280544
-0.0538938
-0.0815286
-0.110484
-0.138282
-0.164672
-0.18698
-0.206024
-0.219446
-0.229244
-0.233794
-0.235615
-0.233497
-0.228729
-0.221373
-0.210757
-0.197044
-0.178992
-0.157429
-0.132787
-0.107714
-0.0833973
-0.0606651
-0.0419547
-0.025697
-0.0125823
-0.0040618
0.0946636
0.0937738
0.0934143
0.0922216
0.0892213
0.0846077
0.0778239
0.0690011
0.0580915
0.0443346
0.027838
0.00855329
-0.0139968
-0.0388369
-0.0668263
-0.0958308
-0.126541
-0.154924
-0.18209
-0.204731
-0.223772
-0.237696
-0.247151
-0.252722
-0.254559
-0.253847
-0.250305
-0.24527
-0.237324
-0.226816
-0.212048
-0.192871
-0.170077
-0.143935
-0.118084
-0.09245
-0.069461
-0.050521
-0.0342804
-0.022335
0.101508
0.100197
0.0990926
0.0969629
0.0930447
0.0870859
0.0789413
0.0683681
0.055263
0.0395216
0.0205948
-0.000772269
-0.0256551
-0.0528935
-0.0828088
-0.113831
-0.145394
-0.17509
-0.202175
-0.225506
-0.243866
-0.258209
-0.267301
-0.273105
-0.275267
-0.275579
-0.273488
-0.270367
-0.265849
-0.258436
-0.248205
-0.233121
-0.213655
-0.189642
-0.163031
-0.135265
-0.108241
-0.0843261
-0.0640596
-0.0488718
0.109524
0.107471
0.105763
0.10263
0.0974648
0.0898025
0.079397
0.0665849
0.0508764
0.0322948
0.0107889
-0.0136897
-0.0407758
-0.0708672
-0.102715
-0.135826
-0.168158
-0.198904
-0.225905
-0.24934
-0.267268
-0.281128
-0.290054
-0.295259
-0.297827
-0.298395
-0.298113
-0.296793
-0.295359
-0.29212
-0.286241
-0.276963
-0.262962
-0.244023
-0.219964
-0.192953
-0.16341
-0.134915
-0.109276
-0.0889902
0.118371
0.114728
0.111487
0.106556
0.0991192
0.0891658
0.0765756
0.0609953
0.0422687
0.0204531
-0.00407664
-0.0318106
-0.0619003
-0.0945592
-0.128627
-0.163047
-0.196517
-0.227517
-0.254325
-0.277214
-0.294849
-0.30742
-0.315838
-0.320001
-0.322472
-0.3234
-0.323715
-0.324935
-0.325889
-0.326908
-0.325641
-0.323223
-0.315824
-0.304764
-0.288265
-0.265956
-0.238947
-0.209532
-0.179972
-0.15469
0.130043
0.124935
0.119724
0.112529
0.10238
0.0887321
0.0719193
0.0522069
0.0294315
0.00355695
-0.0248956
-0.056058
-0.0894945
-0.124818
-0.160977
-0.196687
-0.230882
-0.26156
-0.287884
-0.309778
-0.32576
-0.337298
-0.344
-0.347316
-0.348987
-0.350094
-0.350364
-0.352445
-0.355796
-0.360604
-0.366143
-0.369964
-0.37162
-0.370603
-0.364849
-0.353322
-0.335267
-0.311327
-0.285192
-0.260121
0.136152
0.127333
0.118735
0.108227
0.0948583
0.0779829
0.0572415
0.0334061
0.00587367
-0.0237424
-0.0563673
-0.0912838
-0.127287
-0.165271
-0.202488
-0.239054
-0.27268
-0.302538
-0.327459
-0.347163
-0.360866
-0.369739
-0.374656
-0.37658
-0.377684
-0.378279
-0.378888
-0.379831
-0.382604
-0.387456
-0.395774
-0.407897
-0.423608
-0.438805
-0.449985
-0.454711
-0.451818
-0.442162
-0.428429
-0.412974
0.160018
0.147331
0.130927
0.111374
0.0877939
0.0607659
0.0316301
-1.25109e-05
-0.0341016
-0.0702688
-0.10821
-0.147783
-0.187811
-0.227892
-0.266891
-0.303027
-0.33551
-0.362553
-0.383316
-0.397741
-0.405659
-0.408959
-0.409705
-0.409576
-0.409678
-0.410667
-0.41203
-0.412255
-0.411147
-0.409447
-0.408735
-0.414329
-0.429644
-0.457189
-0.496061
-0.535084
-0.567952
-0.589494
-0.601652
-0.610165
0.119743
0.0990776
0.077706
0.0550707
0.0292357
-0.000172745
-0.0339232
-0.0708662
-0.110406
-0.152187
-0.195095
-0.238555
-0.282067
-0.324097
-0.364314
-0.400472
-0.432232
-0.457041
-0.473518
-0.482568
-0.483515
-0.479612
-0.472188
-0.465882
-0.461878
-0.462825
-0.468153
-0.47494
-0.478659
-0.474464
-0.45788
-0.43093
-0.410442
-0.416617
-0.456217
-0.51079
-0.560879
-0.599848
-0.634051
-0.663913
0.185387
0.149455
0.109359
0.0690672
0.0281617
-0.013145
-0.056293
-0.101862
-0.147861
-0.194477
-0.240386
-0.284333
-0.325787
-0.363432
-0.397739
-0.427872
-0.452737
-0.469788
-0.479027
-0.480586
-0.474657
-0.463667
-0.448748
-0.434017
-0.422999
-0.421654
-0.4337
-0.46125
-0.497893
-0.535395
-0.545059
-0.510502
-0.439155
-0.378083
-0.357198
-0.375796
-0.399575
-0.424021
-0.450809
-0.483401
-0.126472
-0.164069
-0.206879
-0.25974
-0.316581
-0.373623
-0.428937
-0.484533
-0.537669
-0.585721
-0.626349
-0.659171
-0.687471
-0.71369
-0.735375
-0.750747
-0.75798
-0.757024
-0.747478
-0.728933
-0.703551
-0.67069
-0.632174
-0.589594
-0.549814
-0.517166
-0.498619
-0.497122
-0.517238
-0.546159
-0.544182
-0.539776
-0.530787
-0.519032
-0.506459
-0.498806
-0.492959
-0.490527
-0.491468
-0.494734
0.0731572
0.0392987
-0.00342311
-0.0214134
-0.0585469
-0.0938305
-0.126325
-0.10163
-0.0602997
-0.0217379
-0.00713025
-0.00153394
-0.00032847
0.000679449
0.000508065
0.000450957
0.000439188
0.00015196
0.000134556
4.00945e-05
0.000233195
0.00023907
0.000458233
0.000528492
0.000802989
0.000910368
0.00119613
0.00138846
0.00163335
0.00180175
0.0019817
0.00210112
0.0022684
0.00242293
0.00269219
0.0029163
0.00302711
0.00293047
0.0023042
0.00303078
0.0702354
0.0380237
0.00402122
-0.0131411
-0.0573402
-0.101816
-0.14904
-0.128889
-0.0738089
-0.0275246
-0.00780498
-0.000973217
-0.0001113
0.00112375
0.000936826
0.000722351
0.000550751
0.00032744
0.000117014
5.12326e-05
0.000113846
0.000167901
0.000292311
0.000447715
0.000662503
0.000801027
0.00106799
0.00126266
0.00148683
0.00168861
0.00186598
0.00203336
0.00220394
0.00242832
0.00266431
0.00289227
0.0030383
0.00294121
0.00285687
0.00342912
0.0637831
0.0341706
0.00593396
-0.00879243
-0.0571895
-0.10991
-0.171382
-0.160579
-0.087347
-0.0357708
-0.00815244
-0.000893438
0.000239312
0.00165563
0.00136348
0.00105889
0.00073917
0.000558827
0.000259727
0.000207019
0.000184607
0.000306758
0.000384879
0.000612757
0.000787877
0.000964194
0.00118374
0.00137642
0.00156333
0.00176694
0.00190316
0.00209573
0.00226002
0.00249948
0.00269751
0.00293004
0.00303652
0.00294133
0.00262954
0.00232072
0.0560551
0.0296896
0.00556845
-0.00798075
-0.0572709
-0.116773
-0.191564
-0.191507
-0.100957
-0.0431517
-0.00746633
-0.00119741
0.000657639
0.00215747
0.00160145
0.00131996
0.000895432
0.000669131
0.000378296
0.000325314
0.000226586
0.000427392
0.000455713
0.000753186
0.00087862
0.00110133
0.0012632
0.00147664
0.00162707
0.00180285
0.00189749
0.00209409
0.00223952
0.00246325
0.00264955
0.00287234
0.00294957
0.00300655
0.0033457
0.00415567
0.0504863
0.025577
0.00561493
-0.00839053
-0.0571329
-0.121403
-0.205054
-0.212449
-0.114685
-0.0465864
-0.00598587
-0.00135005
0.00125513
0.00272319
0.00174042
0.00141845
0.000994259
0.000521206
0.000248719
0.000170556
3.11692e-05
0.000218426
0.000207617
0.00052334
0.000596216
0.000851346
0.000980723
0.00123216
0.00136239
0.00153245
0.0016555
0.00184782
0.00200833
0.00222962
0.00244541
0.00268589
0.00282671
0.00289524
0.00266212
0.00221922
0.0468877
0.0257774
0.00468016
-0.0134415
-0.0587811
-0.123641
-0.206152
-0.21656
-0.120362
-0.0449783
-0.00593854
0.000781521
0.00245478
0.00346298
0.00214036
0.00172766
0.00123483
0.000386662
0.000141792
-4.62695e-05
-0.000166276
-0.000109583
-0.000109593
0.000124425
0.000211698
0.00043234
0.000608519
0.000841975
0.00100666
0.00119721
0.00138032
0.00156804
0.00176933
0.00197665
0.00222669
0.00246754
0.00266896
0.00290641
0.00329121
0.00390189
0.0436457
0.0259616
0.00388041
-0.0185207
-0.0627232
-0.123166
-0.191979
-0.197652
-0.109166
-0.0390802
-0.00710226
0.00592691
0.00441787
0.00426637
0.00320977
0.00247445
0.00176045
0.000749241
0.00039218
9.54573e-05
-1.79423e-05
-8.85211e-05
-8.74321e-05
7.13359e-05
0.00017355
0.000351518
0.00059339
0.000779201
0.00102113
0.00120316
0.00140058
0.00155152
0.00174174
0.00191132
0.00215395
0.00236992
0.00257262
0.00268621
0.00264305
0.00249087
0.0410101
0.0245073
0.00225953
-0.0213837
-0.0651084
-0.117925
-0.164369
-0.169349
-0.0935874
-0.0330517
-0.00550911
0.0101348
0.00714298
0.00525148
0.0047777
0.00326874
0.00220514
0.00143506
0.000836199
0.000443791
0.000237424
0.000100584
0.000101817
0.00021456
0.000334152
0.000503071
0.000775065
0.000958039
0.00123827
0.00140856
0.00160912
0.00174313
0.00190557
0.00205496
0.00227073
0.00243008
0.00261123
0.00279255
0.00313324
0.00359883
0.0379522
0.0218236
-0.00127234
-0.0259328
-0.0646371
-0.1095
-0.140572
-0.141815
-0.0779622
-0.0243046
0.000269586
0.0112146
0.010507
0.00671941
0.00602359
0.00381103
0.00235507
0.00179327
0.00097516
0.000430538
0.000151742
-3.27471e-05
-1.53274e-06
3.97611e-05
0.000205233
0.000354344
0.000629225
0.000808558
0.00111016
0.00132807
0.00158001
0.00177029
0.00197285
0.00215991
0.00234313
0.00247754
0.00262847
0.00271748
0.00272022
0.00268304
0.035158
0.0190762
-0.00569522
-0.0336089
-0.0688245
-0.104592
-0.119507
-0.113237
-0.0610035
-0.0148771
0.00776393
0.0122006
0.0134804
0.0089468
0.00666349
0.00439296
0.00250155
0.00175545
0.000835783
0.000223167
-8.50651e-05
-0.000316147
-0.000359879
-0.000384481
-0.000259997
-0.000130242
6.74487e-05
0.000273582
0.000545668
0.000820764
0.00110218
0.00138591
0.00166153
0.0019066
0.00209121
0.00227572
0.00243479
0.00262265
0.00290339
0.00324561
0.0315162
0.0149696
-0.0123906
-0.0433904
-0.0773278
-0.107997
-0.106457
-0.08904
-0.0463126
-0.00613891
0.0141005
0.0154704
0.0160236
0.0119851
0.00782215
0.00545826
0.00320879
0.00199344
0.00106549
0.000418315
1.33036e-05
-0.000316903
-0.00047789
-0.000549285
-0.000511834
-0.000429128
-0.000301772
-0.000114192
8.15007e-05
0.000349508
0.00060527
0.000918693
0.00118103
0.00143195
0.00164573
0.00189627
0.0021233
0.0023745
0.00254085
0.00270646
0.0270945
0.010169
-0.02126
-0.0557326
-0.0903009
-0.11216
-0.100668
-0.0709307
-0.0340587
0.0016902
0.0181509
0.0204102
0.0182649
0.0148016
0.0098167
0.00703705
0.00457955
0.00275077
0.00161595
0.00076599
0.000271366
-0.000152423
-0.000378775
-0.000451518
-0.000440382
-0.000353872
-0.000230022
-7.487e-05
8.15632e-05
0.000301815
0.000503134
0.000740235
0.000932139
0.00115105
0.00138035
0.00165344
0.00192526
0.00220906
0.00254362
0.00297753
0.0213139
0.0037847
-0.0324014
-0.0723917
-0.108651
-0.117342
-0.0995699
-0.0592932
-0.0241177
0.00812303
0.0212218
0.0259283
0.0196805
0.0168372
0.0117233
0.00842423
0.00573779
0.00339641
0.00188941
0.000813986
0.000212259
-0.000261552
-0.000513052
-0.000540109
-0.000507149
-0.000317907
-0.000162076
4.34942e-05
0.000229421
0.000443716
0.000635569
0.000819222
0.000985276
0.00117795
0.00140181
0.00162958
0.00187907
0.00210653
0.00236674
0.00260273
0.0145285
-0.00473602
-0.0476505
-0.0962169
-0.136306
-0.131702
-0.100907
-0.0530393
-0.0160746
0.0134936
0.0246366
0.030454
0.0219252
0.018923
0.0131422
0.00914989
0.00618371
0.00354932
0.00181943
0.00061408
-5.44872e-05
-0.000530849
-0.000827261
-0.000926488
-0.000928151
-0.000735616
-0.000532108
-0.000261869
3.16646e-05
0.000311324
0.000570943
0.000780389
0.0010025
0.00119144
0.00141533
0.0016383
0.00186307
0.00206979
0.00235023
0.00267227
0.00670543
-0.0158101
-0.0689532
-0.135098
-0.174648
-0.157187
-0.107208
-0.0500705
-0.0090861
0.0179788
0.0287791
0.0331935
0.02616
0.0210513
0.0149383
0.0098247
0.00663861
0.00381844
0.00201703
0.000684314
-0.000186912
-0.000741045
-0.00107532
-0.00129993
-0.00143986
-0.00137782
-0.00121725
-0.000979515
-0.000651757
-0.000318824
2.20371e-05
0.000324764
0.000612425
0.000868507
0.00115352
0.00141778
0.00167201
0.00193097
0.00219943
0.00242049
-0.00188241
-0.0308314
-0.0959997
-0.186252
-0.234429
-0.191902
-0.119238
-0.0503733
-0.0034221
0.0219228
0.0335842
0.0346763
0.0297156
0.022401
0.0172893
0.0111723
0.00778307
0.0047627
0.00275406
0.00106157
-0.000117606
-0.000806662
-0.00120134
-0.00145654
-0.00167337
-0.00174478
-0.00172168
-0.00158931
-0.00133961
-0.0010071
-0.000678381
-0.000348118
-3.3515e-05
0.000296277
0.000627774
0.000971008
0.00129587
0.00163857
0.00192758
0.00210635
-0.0109836
-0.0509945
-0.140428
-0.248801
-0.313202
-0.235862
-0.136809
-0.0544039
-0.000268577
0.0256958
0.0379808
0.0356056
0.0316607
0.0234395
0.0187783
0.0128845
0.00934194
0.00589269
0.00334781
0.00140256
3.31348e-06
-0.000811217
-0.00127622
-0.00152467
-0.00167001
-0.00177934
-0.00179049
-0.00172347
-0.00153941
-0.00131278
-0.00108074
-0.000810011
-0.000518646
-0.00018307
0.000184217
0.000559209
0.000962891
0.00136605
0.00166509
0.00185864
-0.0218932
-0.0788814
-0.202417
-0.346652
-0.40904
-0.286717
-0.158811
-0.0621342
-0.000525384
0.0285228
0.040834
0.0373549
0.0326679
0.0247612
0.0189406
0.0141599
0.0101636
0.00638322
0.00342064
0.00152449
2.50801e-05
-0.000858361
-0.00140825
-0.00162276
-0.0017127
-0.00174034
-0.00169455
-0.00161828
-0.00146998
-0.00134329
-0.00119519
-0.001003
-0.000742167
-0.000416511
-5.04249e-05
0.000326678
0.00075599
0.00113756
0.00144821
0.00160886
-0.0347613
-0.113857
-0.266701
-0.476554
-0.516582
-0.337531
-0.18264
-0.0722159
-0.00406248
0.0293297
0.0414641
0.0394121
0.0331416
0.0258422
0.0193907
0.014713
0.00994875
0.00633927
0.00348979
0.0014601
-0.000120536
-0.0010771
-0.00169061
-0.00194493
-0.00206635
-0.00202882
-0.00195449
-0.0018337
-0.00171418
-0.00159856
-0.00145646
-0.00124332
-0.000967448
-0.000655387
-0.000304289
7.71038e-05
0.000516086
0.000881394
0.00113852
0.00124248
-0.0407819
-0.146525
-0.328672
-0.594329
-0.605454
-0.372552
-0.202624
-0.0823462
-0.00933207
0.0280891
0.039451
0.039505
0.0331331
0.0267744
0.0202142
0.0143732
0.0098335
0.00601968
0.00351881
0.00112012
-0.000416794
-0.00152417
-0.00222864
-0.0026632
-0.00286104
-0.00290139
-0.00281231
-0.00266112
-0.00247764
-0.00226428
-0.00203929
-0.0017453
-0.00142479
-0.00108605
-0.00072297
-0.000325474
0.000133008
0.000483682
0.000759763
0.000928815
-0.0375571
-0.153878
-0.35445
-0.613353
-0.612497
-0.38285
-0.210867
-0.0894156
-0.0149754
0.0248181
0.0351287
0.0367682
0.0319311
0.0271397
0.0197113
0.0141938
0.00998974
0.00558593
0.0033616
0.00072437
-0.000801651
-0.00220186
-0.00296531
-0.00352876
-0.00376786
-0.00388871
-0.00376687
-0.00356909
-0.00329353
-0.00300994
-0.00271244
-0.00233703
-0.001995
-0.00161624
-0.00120683
-0.000739576
-0.000258536
0.000129248
0.00048924
0.000704583
-0.0219385
-0.11813
-0.311143
-0.509222
-0.504859
-0.34904
-0.203879
-0.0924302
-0.020729
0.0181078
0.0289134
0.0323299
0.0288224
0.025148
0.0182982
0.0141432
0.00959504
0.00572608
0.00315057
0.000470482
-0.00119527
-0.00265455
-0.00339495
-0.00401414
-0.00425266
-0.00438753
-0.0042704
-0.00409454
-0.00385269
-0.0035573
-0.00324323
-0.00289666
-0.00255905
-0.00212009
-0.00165742
-0.0011685
-0.000697875
-0.000269216
0.000108339
0.000247476
0.000950208
-0.0745611
-0.230932
-0.369924
-0.366235
-0.277881
-0.171817
-0.0849181
-0.0261501
0.00717547
0.0199068
0.0259927
0.0236397
0.0211982
0.0160046
0.0127522
0.00829181
0.00543915
0.00226671
0.00021714
-0.00155679
-0.00282632
-0.00364246
-0.00427232
-0.00459625
-0.00480567
-0.00480874
-0.00474347
-0.00459756
-0.0043454
-0.0040591
-0.00376643
-0.00346472
-0.00306567
-0.00260228
-0.00213033
-0.0016057
-0.00108709
-0.000664093
-0.000581253
0.0244544
-0.0395408
-0.158633
-0.246898
-0.247551
-0.202666
-0.139287
-0.0829178
-0.0372423
-0.00749661
0.00758191
0.0160949
0.0160219
0.0153901
0.0116403
0.00901797
0.00544266
0.00315432
0.000321692
-0.0010569
-0.00299368
-0.00404767
-0.00508007
-0.00558204
-0.0059981
-0.00629504
-0.00638775
-0.00638642
-0.00624089
-0.0060227
-0.0057471
-0.00543315
-0.00511474
-0.00465769
-0.00410434
-0.00352432
-0.00284667
-0.00220369
-0.001728
-0.00165125
0.0393016
-0.0150748
-0.102694
-0.154886
-0.164077
-0.155023
-0.123791
-0.0877965
-0.0519756
-0.0255044
-0.00761836
0.00235903
0.00598429
0.00681139
0.00525648
0.0035173
0.00137491
-0.00081816
-0.00294426
-0.00450892
-0.00643123
-0.0071768
-0.00813004
-0.00837059
-0.00869499
-0.0087928
-0.00874398
-0.00856273
-0.00828119
-0.00797608
-0.00758655
-0.00711878
-0.00663675
-0.00603487
-0.00536034
-0.00466067
-0.00392564
-0.00328548
-0.00276694
-0.00256792
0.0429686
-0.009526
-0.0689902
-0.100749
-0.121039
-0.127422
-0.116755
-0.0969391
-0.0697734
-0.0469692
-0.02591
-0.014556
-0.00636595
-0.00345317
-0.00215714
-0.00274908
-0.00341447
-0.00547995
-0.00674765
-0.00832184
-0.00954971
-0.010248
-0.010845
-0.0108019
-0.0108428
-0.010587
-0.0103285
-0.00992061
-0.00951427
-0.00910441
-0.00861699
-0.00802821
-0.00743321
-0.00675345
-0.0060717
-0.00540041
-0.00476764
-0.00422067
-0.00375667
-0.00355816
0.0394687
-0.0173317
-0.0523951
-0.0726838
-0.095542
-0.111022
-0.115811
-0.108568
-0.0907574
-0.070196
-0.0486876
-0.0345908
-0.0223355
-0.0160124
-0.0119929
-0.0102698
-0.00926627
-0.0100304
-0.0100878
-0.0111786
-0.011623
-0.0122601
-0.0124367
-0.0124978
-0.0122804
-0.0119089
-0.0115469
-0.0110174
-0.010583
-0.0101246
-0.00966249
-0.00903629
-0.0084011
-0.00775389
-0.00713273
-0.00654637
-0.00601854
-0.00547291
-0.0049642
-0.0047175
0.0244256
-0.0157269
-0.0405431
-0.0531692
-0.0741762
-0.102057
-0.119998
-0.122995
-0.113639
-0.0955945
-0.0771849
-0.0590993
-0.0443758
-0.0337194
-0.0266594
-0.0211666
-0.0184854
-0.0167922
-0.0158391
-0.015836
-0.0154224
-0.0157027
-0.0156472
-0.0157201
-0.0155152
-0.0151745
-0.0146752
-0.0141746
-0.0137703
-0.0131617
-0.0125554
-0.011738
-0.0110151
-0.0102863
-0.00956311
-0.00888078
-0.00820219
-0.00751751
-0.00687414
-0.00647892
0.0181643
-0.0136978
-0.0319515
-0.0378607
-0.0576843
-0.09683
-0.121894
-0.134985
-0.134942
-0.123036
-0.10662
-0.0875316
-0.0712277
-0.0571027
-0.0465222
-0.0381165
-0.0329138
-0.0285121
-0.0260355
-0.024001
-0.0230163
-0.0223317
-0.0218417
-0.021617
-0.0211752
-0.0208066
-0.0202021
-0.0195366
-0.0188356
-0.01796
-0.0170499
-0.0160071
-0.0150939
-0.0140765
-0.0131402
-0.0121585
-0.0111798
-0.0102379
-0.00938173
-0.00894708
0.00253656
-0.0112755
-0.0258458
-0.0329231
-0.0418896
-0.093598
-0.117658
-0.140216
-0.151943
-0.148198