/*--------------------------------*- C++ -*----------------------------------*\
  =========                 |
  \\      /  F ield         | OpenFOAM: The Open Source CFD Toolbox
   \\    /   O peration     | Website:  https://openfoam.org
    \\  /    A nd           | Version:  11
     \\/     M anipulation  |
\*---------------------------------------------------------------------------*/
FoamFile
{
    format      ascii;
    class       volVectorField;
    location    "9";
    object      U;
}
// * * * * * * * * * * * * * * * * * * * * * * * * * * * * * * * * * * * * * //

dimensions      [0 1 -1 0 0 0 0];

internalField   nonuniform List<vector> 
9600
(
(0.967093 0.00125748 4.41872e-21)
(0.963215 0.0016553 0)
(0.959388 0.00171094 0)
(0.957056 0.00232104 7.54914e-23)
(0.951943 0.00273799 0)
(0.946502 0.00278748 -7.94165e-23)
(0.943042 0.002863 -2.59161e-21)
(0.941241 0.00325565 2.60491e-21)
(0.936141 0.00370509 -2.5985e-21)
(0.930955 0.00260906 2.60996e-21)
(0.930078 0.00202461 0)
(0.929579 0.00137244 -2.1977e-21)
(0.931018 0.000895406 2.2159e-21)
(0.933892 3.06495e-06 -2.58709e-23)
(0.938054 -0.00102526 4.86187e-22)
(0.94409 -0.00219348 -4.80748e-22)
(0.952364 -0.0028467 0)
(0.961979 -0.0035857 2.90486e-22)
(0.975158 -0.00333356 -2.90751e-22)
(0.983624 -0.00134901 2.17587e-24)
(0.983204 -0.000530533 -2.64709e-24)
(0.982035 -0.000696936 -7.23282e-22)
(0.979073 -0.000842166 7.33547e-22)
(0.974127 -0.00085452 0)
(0.967063 -0.00136115 0)
(0.958158 -0.00229674 -3.84211e-22)
(0.952428 -0.00340225 3.65448e-22)
(0.947665 -0.00365622 2.449e-23)
(0.941093 -0.00291833 1.11854e-23)
(0.925436 -0.000751421 -1.66659e-23)
(0.894041 0.0012641 0)
(0.861676 0.00055908 1.36296e-21)
(0.829965 -0.000238013 -1.33634e-21)
(0.803346 -0.0039601 -1.47946e-21)
(0.78567 -0.00567487 1.47132e-21)
(0.773616 -0.0119174 4.92581e-23)
(0.774848 -0.0196605 0)
(0.788857 -0.0166384 4.48249e-21)
(0.807307 -0.0304735 -4.52215e-21)
(0.870631 -0.015411 8.25824e-23)
(0.969279 0.000404476 2.17746e-22)
(0.968277 0.000477128 0)
(0.96614 0.000321552 0)
(0.964208 -0.00012042 -2.3284e-22)
(0.962851 -0.000122277 -5.15007e-21)
(0.960428 -0.000667882 8.05482e-21)
(0.958339 -0.0014758 -2.64466e-21)
(0.956184 -0.00156755 -8.37475e-23)
(0.955823 -0.00165749 -8.32368e-23)
(0.955073 -0.00214652 0)
(0.955418 -0.00240913 -7.69125e-23)
(0.956713 -0.002477 -2.24632e-21)
(0.959466 -0.00218442 3.08774e-21)
(0.964542 -0.00204086 -9.29944e-22)
(0.972742 -0.00178528 -9.60675e-24)
(0.980812 -0.00167965 0)
(0.990577 -0.00155199 1.2468e-22)
(1.00257 -0.00188055 -1.27135e-22)
(1.01239 -0.0010306 2.47343e-22)
(1.02292 -1.68182e-05 -2.497e-22)
(1.02967 0.00109886 -3.64631e-22)
(1.02833 0.00173507 3.47286e-22)
(1.02247 0.00222774 0)
(1.01587 0.00302988 1.19379e-21)
(1.0131 0.00424846 -1.19147e-21)
(1.01154 0.00438281 -1.00427e-23)
(1.01178 0.00477 1.17236e-22)
(1.01455 0.00489018 -1.27103e-22)
(1.01978 0.0057402 -3.15876e-23)
(1.02224 0.00744109 -1.09477e-21)
(1.02092 0.0099214 1.16947e-21)
(1.01066 0.011828 -1.33448e-21)
(0.980655 0.0122849 1.31696e-21)
(0.945512 0.0133796 -4.37572e-23)
(0.914632 0.0132739 3.10887e-21)
(0.887743 0.0190697 -3.04921e-21)
(0.863919 0.0175606 0)
(0.851144 0.0184875 4.06144e-21)
(0.84538 0.00848302 -4.05492e-21)
(0.870361 -0.00077153 -2.37197e-22)
(0.968417 0.000351745 4.61164e-21)
(0.967216 0.000724286 -1.51738e-22)
(0.964948 0.00129241 0)
(0.962734 0.00181483 1.59136e-22)
(0.96161 0.00221876 0)
(0.959957 0.00210987 -2.85362e-21)
(0.95786 0.00235457 -1.50545e-23)
(0.956156 0.00270343 2.81828e-21)
(0.95586 0.00282389 8.45509e-23)
(0.95568 0.00239442 0)
(0.95614 0.00172701 2.36896e-22)
(0.957621 0.000989629 -2.20032e-21)
(0.960571 5.512e-05 2.27626e-21)
(0.965408 -0.00193614 7.74527e-23)
(0.972909 -0.00307255 -3.51687e-23)
(0.981997 -0.00458504 7.98618e-24)
(0.99196 -0.00535501 1.3537e-22)
(1.0027 -0.00635338 1.91114e-22)
(1.01305 -0.00556156 -3.41244e-22)
(1.02119 -0.00372147 4.70283e-24)
(1.03095 -0.00082812 -5.71545e-24)
(1.03058 0.00120273 -7.73102e-22)
(1.02679 0.00215813 7.83111e-22)
(1.01735 0.00212538 1.24336e-21)
(1.00909 0.000805494 -1.24368e-21)
(1.007 -0.000972234 0)
(1.00924 -0.00295109 9.95993e-24)
(1.01755 -0.0047592 1.68909e-24)
(1.02886 -0.00390877 2.05048e-23)
(1.03957 -0.000708793 -9.62058e-23)
(1.04417 0.00506458 -1.18498e-22)
(1.04076 0.00983993 1.41783e-21)
(1.0219 0.0149479 6.3191e-23)
(0.977291 0.0124619 -1.3515e-21)
(0.934888 0.00634186 -9.44371e-23)
(0.901079 0.000919439 0)
(0.874739 -0.00925289 -1.04697e-22)
(0.863049 -0.0102503 4.03274e-21)
(0.857794 -0.0143091 -3.96003e-21)
(0.87573 -0.00648873 1.57036e-22)
(0.968327 0.000883201 3.06922e-22)
(0.967164 0.00120598 -1.5716e-22)
(0.964963 0.00196194 0)
(0.962472 0.00186872 0)
(0.961267 0.00168405 -5.10334e-21)
(0.959466 0.00126951 5.30406e-21)
(0.957184 0.000554255 2.62258e-21)
(0.955534 6.64351e-05 -2.63795e-21)
(0.955585 -0.000607731 2.74397e-21)
(0.95534 -0.00177537 -2.58954e-21)
(0.956005 -0.00267087 -1.61833e-22)
(0.95791 -0.00377362 -7.16464e-23)
(0.961488 -0.00435291 -6.52008e-23)
(0.966562 -0.00641994 -5.23135e-23)
(0.974414 -0.00700716 4.68492e-22)
(0.983734 -0.00781842 -3.34585e-22)
(0.99315 -0.0076839 1.02673e-22)
(1.00362 -0.0084805 -1.58812e-22)
(1.01496 -0.00617022 1.38148e-23)
(1.02225 -0.00447058 -9.72268e-24)
(1.02897 -0.000774808 4.01472e-22)
(1.03063 0.00246843 -1.20947e-21)
(1.02819 0.0045755 8.65073e-22)
(1.02163 0.00600955 9.23857e-23)
(1.01114 0.00566822 0)
(1.00542 0.00376695 0)
(1.00534 0.00202715 2.34048e-22)
(1.01076 -0.00120352 -2.40414e-22)
(1.02524 -0.00102893 -7.52881e-22)
(1.04054 0.000371867 8.16219e-22)
(1.05256 0.00564753 8.08362e-23)
(1.05485 0.0128326 -8.431e-23)
(1.04709 0.0209947 8.33691e-23)
(1.01747 0.0302653 -1.40842e-21)
(0.977434 0.0270041 4.38437e-21)
(0.94226 0.0336927 -6.13011e-21)
(0.904547 0.0259352 3.05227e-21)
(0.877512 0.023081 -2.23574e-22)
(0.859041 0.00515364 3.70716e-22)
(0.867395 0.00409429 -2.64878e-22)
(0.967842 0.000892352 4.71759e-21)
(0.966543 0.00110668 -2.4025e-24)
(0.96419 0.00180424 0)
(0.96191 0.00185622 0)
(0.960403 0.00196018 -3.46819e-22)
(0.958614 0.0015199 5.32328e-22)
(0.956538 0.00154221 -2.68043e-21)
(0.955681 0.00139122 5.53702e-21)
(0.955479 0.00123197 -2.83217e-21)
(0.955734 0.00069556 -1.70889e-22)
(0.956794 -7.43084e-05 0)
(0.95876 -0.00131243 -4.40854e-21)
(0.962961 -0.00195045 4.42797e-21)
(0.968231 -0.00475591 -7.72299e-22)
(0.974917 -0.00587139 6.40199e-22)
(0.984055 -0.00756027 -2.70228e-23)
(0.994784 -0.00786663 1.86655e-22)
(1.00483 -0.00940178 1.96853e-22)
(1.01545 -0.00736037 -3.73474e-22)
(1.02371 -0.00511515 5.02534e-24)
(1.0273 -0.00113929 4.08682e-22)
(1.03022 0.00228092 -1.25472e-21)
(1.02847 0.00450834 7.94091e-22)
(1.02352 0.00662683 -9.47693e-23)
(1.01382 0.00556045 -8.03463e-23)
(1.00528 0.00131737 -6.9186e-22)
(1.00312 -0.00180162 6.20342e-22)
(1.00604 -0.00670365 -7.23659e-24)
(1.01675 -0.00847083 -2.53272e-23)
(1.03657 -0.00734715 0)
(1.05663 -0.00103442 -7.75025e-23)
(1.06786 0.00921345 0)
(1.06589 0.0203596 -2.57937e-22)
(1.04849 0.0316353 0)
(1.01005 0.0254665 0)
(0.969479 0.0246617 -3.28459e-21)
(0.927246 0.0139464 3.4704e-21)
(0.897958 0.0109129 4.21989e-21)
(0.871195 0.00237695 -3.95857e-21)
(0.871582 0.00652983 2.70709e-22)
(0.967523 0.0015761 0)
(0.966096 0.00172529 -2.65846e-24)
(0.964009 0.00263434 0)
(0.96151 0.00269189 0)
(0.959594 0.00273266 -5.77189e-21)
(0.958098 0.00244647 2.52302e-21)
(0.95629 0.00192589 5.87298e-21)
(0.955375 0.00116945 -2.95091e-21)
(0.95522 0.000374044 0)
(0.955349 -0.00138727 0)
(0.95675 -0.00271547 0)
(0.958583 -0.00508517 -1.92752e-21)
(0.963244 -0.00642047 2.10911e-21)
(0.969372 -0.0098921 7.61586e-22)
(0.976307 -0.0109921 -7.2471e-22)
(0.984622 -0.0131863 1.42267e-23)
(0.996204 -0.0129866 1.84273e-22)
(1.00602 -0.0141978 -1.96911e-22)
(1.01603 -0.0108944 2.94491e-22)
(1.02422 -0.00816714 -2.94602e-22)
(1.02948 -0.0023349 -1.28914e-23)
(1.03114 0.00157546 -5.62191e-23)
(1.02858 0.00576964 1.12467e-22)
(1.02331 0.00859527 0)
(1.01499 0.00927428 8.24885e-23)
(1.00598 0.00594751 7.8732e-22)
(1.00177 0.0017009 -6.39617e-22)
(1.00308 -0.00535245 3.08921e-23)
(1.01175 -0.00931478 -6.14897e-22)
(1.02978 -0.0116492 5.71614e-22)
(1.05256 -0.00653527 1.55764e-21)
(1.07027 0.00441915 -1.14465e-21)
(1.07653 0.0157893 1.76426e-22)
(1.06929 0.0364861 1.3787e-21)
(1.04332 0.0408136 1.48706e-21)
(1.00213 0.0484933 -2.66781e-21)
(0.953134 0.0416283 0)
(0.918858 0.0369346 3.65062e-21)
(0.880042 0.0176799 5.15816e-22)
(0.870228 0.0133037 -4.0918e-21)
(0.966644 0.00154043 6.01601e-21)
(0.965236 0.00165257 -2.88424e-24)
(0.963095 0.00248911 0)
(0.960638 0.00258227 0)
(0.958497 0.00274811 5.57733e-21)
(0.957144 0.00203122 -5.61176e-21)
(0.955733 0.00152295 3.00733e-21)
(0.954766 0.000512469 3.23152e-22)
(0.95481 -0.000191376 -2.98852e-21)
(0.955263 -0.00169283 2.7455e-21)
(0.957181 -0.0024004 -2.43147e-21)
(0.959316 -0.00472439 -2.37627e-21)
(0.964425 -0.00566127 2.48948e-21)
(0.969789 -0.00932962 0)
(0.9778 -0.0102622 3.93816e-22)
(0.985331 -0.0130036 -3.10588e-22)
(0.997892 -0.0126526 1.82555e-22)
(1.00658 -0.0139586 2.06324e-22)
(1.01711 -0.0105083 -8.23297e-23)
(1.02484 -0.00759493 -3.10973e-22)
(1.03131 -0.00138858 -4.33763e-22)
(1.03199 0.00255865 -4.88198e-22)
(1.0291 0.00706914 8.17354e-22)
(1.02324 0.0101462 1.58564e-21)
(1.01535 0.0107687 -1.58238e-21)
(1.00675 0.00625299 -8.68799e-22)
(1.00188 0.00195492 8.74852e-22)
(1.00126 -0.00592189 3.50199e-23)
(1.0079 -0.0117072 0)
(1.02199 -0.016529 -1.07963e-21)
(1.04553 -0.0148882 8.72864e-22)
(1.06936 -0.00118858 1.25631e-21)
(1.08276 0.0106481 -1.42515e-21)
(1.08219 0.0344088 -1.56836e-21)
(1.06365 0.0428679 1.21558e-21)
(1.03178 0.0503802 -1.06048e-23)
(0.981443 0.0439513 0)
(0.94615 0.0418759 3.14867e-21)
(0.90136 0.0272718 -2.14136e-22)
(0.879508 0.0205706 -3.01174e-21)
(0.966274 0.00238537 4.84e-21)
(0.964808 0.00239851 -3.5706e-22)
(0.962542 0.00328163 5.87942e-21)
(0.960157 0.00342684 -5.92466e-21)
(0.957823 0.00357832 3.81002e-22)
(0.956521 0.00268569 -3.86361e-22)
(0.955357 0.00198807 0)
(0.954559 0.000767573 2.27036e-21)
(0.954954 -6.06169e-05 -3.05506e-21)
(0.955212 -0.00211452 0)
(0.957577 -0.00335362 1.8886e-21)
(0.959413 -0.0071156 -2.27818e-21)
(0.965137 -0.0088028 -3.14565e-24)
(0.969888 -0.0133876 0)
(0.979443 -0.0144205 3.04253e-22)
(0.986259 -0.0177502 -2.8693e-22)
(0.998708 -0.0172758 2.4448e-22)
(1.0076 -0.0183133 2.1258e-22)
(1.01872 -0.0140776 -1.63441e-22)
(1.02591 -0.0109269 -3.53246e-22)
(1.03272 -0.00344449 0)
(1.03332 0.00187916 -8.60354e-22)
(1.03059 0.00747938 8.56951e-22)
(1.02389 0.0112059 0)
(1.01551 0.0127953 1.99054e-22)
(1.00648 0.00917221 0)
(1.00108 0.00415667 3.5368e-22)
(0.998887 -0.00517179 -8.3219e-22)
(1.00439 -0.0131982 2.44968e-22)
(1.01782 -0.0194593 1.92664e-22)
(1.03714 -0.0236811 1.1802e-21)
(1.06486 -0.0101304 -2.96394e-21)
(1.0817 0.000427001 1.6408e-21)
(1.09177 0.0269287 -1.40242e-21)
(1.07819 0.0436958 4.15467e-21)
(1.05814 0.0600297 -2.90713e-21)
(1.01005 0.0609931 0)
(0.978955 0.0598617 3.62882e-21)
(0.928162 0.0496685 5.20221e-22)
(0.889501 0.0302065 -4.09639e-21)
(0.965332 0.0023382 0)
(0.963804 0.00219178 7.25957e-22)
(0.961467 0.00311005 0)
(0.959074 0.00317005 7.76654e-22)
(0.956741 0.00327543 5.53628e-21)
(0.955549 0.00220871 -3.1934e-21)
(0.954659 0.00141286 -3.20429e-21)
(0.954048 -3.83393e-05 3.957e-22)
(0.954743 -0.00102033 0)
(0.955002 -0.00355968 0)
(0.957603 -0.00473523 2.94257e-21)
(0.959805 -0.00887728 -2.92088e-21)
(0.965973 -0.0100021 -3.84611e-22)
(0.970504 -0.0147374 -9.45689e-23)
(0.980583 -0.0156616 2.75638e-22)
(0.987338 -0.0190345 -2.67405e-22)
(1.00015 -0.0182637 2.72408e-22)
(1.00876 -0.0192901 2.19641e-22)
(1.02054 -0.0145923 -1.43003e-22)
(1.02725 -0.0111374 -3.51105e-22)
(1.03393 -0.00292563 -3.00843e-23)
(1.03526 0.00280211 -1.10327e-21)
(1.03268 0.00935925 1.16674e-21)
(1.02513 0.0136443 1.24405e-22)
(1.01615 0.0154374 -4.19446e-22)
(1.00596 0.0116489 0)
(1.00007 0.00646703 7.41242e-22)
(0.997009 -0.00249241 -5.21938e-22)
(1.00046 -0.0136346 9.3188e-24)
(1.01386 -0.0205308 -1.74933e-22)
(1.03086 -0.0295772 1.50748e-22)
(1.0571 -0.0196359 1.681e-21)
(1.0787 -0.0087674 -1.86957e-21)
(1.09886 0.018694 3.65024e-22)
(1.0889 0.0422185 1.73965e-22)
(1.07516 0.0622037 -3.04004e-21)
(1.03693 0.06919 2.69112e-21)
(1.00367 0.0669031 3.22636e-21)
(0.956666 0.0669384 -3.19824e-21)
(0.908982 0.044549 0)
(0.964721 0.00321768 0)
(0.963152 0.00302767 0)
(0.960825 0.00393855 7.07249e-21)
(0.958526 0.00390467 -1.35822e-20)
(0.956086 0.00403448 6.48648e-21)
(0.954972 0.00279353 0)
(0.954448 0.00179396 3.25228e-21)
(0.953623 -0.00012865 -8.75315e-23)
(0.954703 -0.00130068 -2.81467e-21)
(0.954999 -0.00422145 0)
(0.95802 -0.00558507 -3.47541e-22)
(0.96008 -0.0103209 3.07856e-22)
(0.966528 -0.011862 1.1576e-21)
(0.971089 -0.0174963 -8.03313e-22)
(0.981348 -0.0186285 0)
(0.98841 -0.0224352 -1.65327e-22)
(1.0018 -0.0217599 5.13531e-22)
(1.00993 -0.0225315 -8.88769e-22)
(1.02213 -0.0173534 5.32e-22)
(1.02943 -0.0132619 -8.97588e-25)
(1.03586 -0.00450737 5.88104e-22)
(1.03681 0.00236199 -5.2493e-22)
(1.03434 0.0100167 1.41117e-22)
(1.02673 0.015306 -1.28078e-22)
(1.01749 0.017504 2.21067e-22)
(1.00614 0.0142805 0)
(0.997831 0.00821577 0)
(0.995369 -0.000237014 -1.17553e-22)
(0.995433 -0.0148787 -2.32853e-22)
(1.00789 -0.0225291 3.15425e-22)
(1.02378 -0.0344802 0)
(1.05075 -0.0299377 -1.72103e-21)
(1.07159 -0.0204511 1.72237e-21)
(1.10013 0.00451912 -1.65151e-21)
(1.09815 0.0328687 1.45249e-21)
(1.09217 0.0582212 -2.28636e-21)
(1.06017 0.0771966 2.60182e-21)
(1.02582 0.0747452 0)
(0.987692 0.0864189 0)
(0.929409 0.0622036 3.87946e-22)
(0.963659 0.0030926 -3.09776e-23)
(0.962067 0.00269271 7.00391e-21)
(0.959654 0.00355696 -8.03653e-22)
(0.957489 0.00353156 -8.32088e-22)
(0.955233 0.00355354 -6.74877e-21)
(0.953833 0.00210011 1.01859e-20)
(0.953899 0.000971878 -3.40162e-21)
(0.953079 -0.00120545 3.27002e-21)
(0.95443 -0.00263456 -4.10365e-21)
(0.954808 -0.00600514 -3.33629e-21)
(0.958264 -0.00746689 6.00072e-21)
(0.96032 -0.0127156 -5.29401e-21)
(0.967112 -0.014548 2.30166e-21)
(0.971734 -0.0202615 0)
(0.982278 -0.0214411 0)
(0.989386 -0.025354 2.072e-22)
(1.00298 -0.0242864 1.72283e-23)
(1.01158 -0.0245682 -3.41585e-22)
(1.02401 -0.0193907 -4.4415e-22)
(1.03161 -0.0144862 4.27906e-22)
(1.03824 -0.00499391 -3.28996e-23)
(1.03902 0.00301225 -1.17523e-21)
(1.03625 0.0111474 1.0283e-21)
(1.02869 0.0173281 2.10551e-21)
(1.01921 0.0204858 -2.10006e-21)
(1.00748 0.0181977 0)
(0.996013 0.010969 0)
(0.992786 0.00359653 -1.68435e-22)
(0.990779 -0.0128128 -8.88495e-23)
(1.00224 -0.0230078 8.84473e-23)
(1.01536 -0.0363414 1.44831e-21)
(1.0445 -0.0391904 4.61332e-22)
(1.06368 -0.0313941 -1.5666e-21)
(1.09815 -0.0104877 -1.51844e-21)
(1.10458 0.0214254 4.25073e-21)
(1.1077 0.0496971 -2.39848e-21)
(1.08217 0.0831537 -2.95458e-22)
(1.0499 0.0816598 2.62904e-21)
(1.01522 0.100027 -2.28269e-21)
(0.9543 0.0786394 -5.45245e-23)
(0.96288 0.0039632 -6.41026e-21)
(0.961314 0.00349285 1.22115e-20)
(0.958811 0.0043441 1.22598e-22)
(0.956773 0.00425259 -1.37225e-20)
(0.954921 0.00414779 8.69731e-21)
(0.952972 0.00246501 0)
(0.953511 0.000945402 0)
(0.952647 -0.0015046 8.57081e-22)
(0.954271 -0.00313815 4.15293e-22)
(0.954576 -0.00708254 -2.22716e-21)
(0.958384 -0.00875537 3.03507e-21)
(0.960545 -0.0145926 -2.31068e-21)
(0.967637 -0.0163636 3.21579e-21)
(0.97228 -0.0226722 -7.13844e-22)
(0.983234 -0.0241919 1.77392e-22)
(0.990406 -0.0278625 8.72128e-23)
(1.0044 -0.0271665 1.68283e-22)
(1.01337 -0.0270144 3.08465e-22)
(1.02637 -0.0216568 -2.45715e-22)
(1.03346 -0.0158154 -4.29644e-22)
(1.04006 -0.0060951 0)
(1.04194 0.00317955 -1.09777e-21)
(1.03939 0.0121966 1.25451e-21)
(1.03127 0.0194866 0)
(1.02013 0.0229334 0)
(1.0087 0.022583 1.50354e-21)
(0.994673 0.0141037 -2.50521e-21)
(0.990065 0.00648198 1.37843e-21)
(0.986082 -0.00981095 -7.9644e-23)
(0.996429 -0.0239136 0)
(1.0068 -0.0384088 -1.43667e-21)
(1.03587 -0.0470636 1.28971e-21)
(1.05523 -0.0433332 -4.3149e-22)
(1.09233 -0.0284324 0)
(1.10704 0.00732308 0)
(1.11717 0.0340431 -2.82541e-21)
(1.10444 0.079797 2.77591e-21)
(1.07218 0.0848137 2.04755e-21)
(1.04233 0.108928 -2.86606e-21)
(0.979991 0.0977315 -3.51091e-22)
(0.961684 0.00363498 -6.65618e-21)
(0.960101 0.00303935 7.5557e-21)
(0.957806 0.00383718 0)
(0.955388 0.00362245 1.78243e-21)
(0.954148 0.00335678 -1.80655e-21)
(0.952232 0.00163695 4.50489e-21)
(0.952918 -0.000132897 -4.53364e-21)
(0.95207 -0.00310499 4.41255e-25)
(0.954049 -0.00492855 -3.31014e-21)
(0.954321 -0.00924241 5.60827e-21)
(0.958415 -0.0111202 -2.36951e-21)
(0.96051 -0.0173062 2.65706e-21)
(0.968097 -0.0196163 -1.46144e-21)
(0.972929 -0.0260305 -1.08091e-21)
(0.98429 -0.0276916 0)
(0.991641 -0.0314263 0)
(1.00599 -0.0307281 0)
(1.01518 -0.0299816 6.79859e-22)
(1.02841 -0.0244603 -4.78138e-22)
(1.03646 -0.0172903 0)
(1.04259 -0.00752762 -6.39724e-22)
(1.04472 0.00306112 -7.02823e-22)
(1.04176 0.0129602 -1.62119e-22)
(1.03519 0.0217049 1.332e-21)
(1.02179 0.0257381 0)
(1.01087 0.0265564 -1.93183e-21)
(0.994446 0.0186819 5.09128e-22)
(0.988019 0.0104266 1.19323e-21)
(0.980303 -0.00619536 -2.85109e-23)
(0.988829 -0.0228671 0)
(0.997457 -0.0380044 -1.26483e-21)
(1.02616 -0.0533227 1.2559e-21)
(1.04633 -0.0505953 8.97725e-22)
(1.08415 -0.0485129 -1.26201e-21)
(1.10735 -0.0112263 4.28246e-21)
(1.12391 0.0144144 -2.96714e-21)
(1.12343 0.0690522 0)
(1.09667 0.0850737 2.23795e-21)
(1.06971 0.116787 -1.88738e-21)
(1.00972 0.111033 -2.30604e-22)
(0.960769 0.00449013 0)
(0.959032 0.0038468 7.10466e-21)
(0.957085 0.00444896 1.16607e-22)
(0.954472 0.00421945 -9.20716e-21)
(0.953372 0.00365028 7.46477e-21)
(0.951485 0.00168414 -7.52643e-21)
(0.952417 -0.000348559 9.28443e-22)
(0.951398 -0.00375872 2.65543e-21)
(0.953679 -0.00583148 -4.47028e-21)
(0.953926 -0.0107004 3.99128e-21)
(0.958448 -0.0128225 -6.01534e-21)
(0.960595 -0.0195444 2.51085e-21)
(0.968616 -0.0221064 8.86402e-22)
(0.973405 -0.0285125 -8.91082e-22)
(0.985228 -0.0309776 -1.66212e-22)
(0.992734 -0.0340469 -3.07955e-22)
(1.00754 -0.0340146 8.6915e-22)
(1.0174 -0.0321134 -3.90778e-22)
(1.02992 -0.0270063 -1.07258e-22)
(1.03949 -0.0184561 3.59903e-23)
(1.04586 -0.00833002 -6.88329e-22)
(1.048 0.00339895 5.12096e-22)
(1.04429 0.0140692 -8.1415e-24)
(1.03846 0.0239363 3.05806e-21)
(1.02467 0.0293637 -2.68733e-21)
(1.01309 0.0311901 8.11325e-22)
(0.995099 0.0241907 4.28102e-22)
(0.98578 0.0146406 -2.48192e-22)
(0.976594 0.00111231 6.35051e-22)
(0.9798 -0.022172 -9.60617e-22)
(0.987491 -0.0359154 4.39313e-22)
(1.01251 -0.0594532 1.70725e-21)
(1.03547 -0.0589253 -2.16387e-21)
(1.07504 -0.064671 -1.8466e-21)
(1.1041 -0.0315881 2.74804e-21)
(1.12587 -0.00918685 0)
(1.14088 0.0491505 0)
(1.11979 0.0786832 1.88048e-21)
(1.0993 0.117257 -1.42487e-21)
(1.03765 0.123482 4.0237e-22)
(0.959528 0.00393049 -1.93813e-23)
(0.957563 0.00323993 6.35244e-21)
(0.956042 0.00368703 9.46433e-22)
(0.953487 0.00336891 9.58169e-22)
(0.952469 0.00259095 9.70179e-21)
(0.9506 0.000323892 -4.93482e-21)
(0.951793 -0.00189662 -4.85956e-21)
(0.950805 -0.00567921 0)
(0.953382 -0.00802797 9.06439e-22)
(0.953544 -0.0134264 2.39444e-21)
(0.958442 -0.0158256 -4.05605e-21)
(0.960618 -0.0228062 -2.39532e-21)
(0.969035 -0.0259266 2.67159e-21)
(0.974266 -0.0322801 0)
(0.985761 -0.0351619 1.16516e-22)
(0.995222 -0.037962 -3.93612e-23)
(1.00784 -0.0380034 5.23995e-22)
(1.02089 -0.035349 1.2119e-22)
(1.03203 -0.030265 -1.35973e-21)
(1.04239 -0.0206153 5.07326e-22)
(1.04924 -0.0100318 4.55656e-23)
(1.05145 0.00299199 0)
(1.04794 0.0147468 1.9448e-22)
(1.04207 0.025691 -3.75461e-22)
(1.02891 0.0322005 3.6191e-22)
(1.01436 0.0353291 -2.69089e-21)
(0.999926 0.0306932 3.22792e-21)
(0.980676 0.0192691 -1.55335e-21)
(0.975863 0.00735662 0)
(0.971425 -0.0167625 0)
(0.975564 -0.0340304 -1.10974e-21)
(0.998657 -0.0606163 1.10121e-21)
(1.02151 -0.0650679 0)
(1.06026 -0.0805257 -1.0435e-21)
(1.09984 -0.0534325 -3.61648e-21)
(1.1227 -0.0342396 7.23127e-22)
(1.15018 0.0200402 2.86233e-21)
(1.14064 0.0610688 1.20039e-21)
(1.12985 0.11225 -1.39708e-21)
(1.0706 0.130584 -7.22939e-23)
(0.958406 0.00475166 -7.51168e-21)
(0.95642 0.00392413 7.58175e-21)
(0.95493 0.00416264 -9.76278e-22)
(0.952249 0.00371939 0)
(0.951517 0.00258686 -9.07044e-21)
(0.949606 4.69819e-05 1.21345e-20)
(0.951014 -0.00243651 -3.04841e-21)
(0.949927 -0.00681273 0)
(0.952864 -0.00947011 8.18632e-21)
(0.952962 -0.0152298 -4.39356e-21)
(0.958145 -0.0179982 -3.37278e-21)
(0.960826 -0.0252045 -2.42644e-21)
(0.968161 -0.0293375 3.04931e-21)
(0.976673 -0.0348006 -7.15787e-22)
(0.984339 -0.0392187 3.14251e-23)
(0.99879 -0.0405103 6.0486e-23)
(1.00803 -0.0420537 5.87691e-22)
(1.02353 -0.0377402 3.00155e-22)
(1.03485 -0.0327779 -4.39045e-22)
(1.04507 -0.0223228 -5.51264e-22)
(1.05278 -0.0108264 -9.66691e-23)
(1.05552 0.00318633 -1.70428e-21)
(1.05166 0.0159182 1.92305e-21)
(1.04553 0.0275457 3.23129e-21)
(1.03401 0.0368341 -3.59558e-21)
(1.01674 0.0391693 2.38478e-21)
(1.00217 0.0387209 -1.81956e-21)
(0.982935 0.0260581 0)
(0.969734 0.0148415 1.38994e-21)
(0.967228 -0.00978993 -1.21875e-21)
(0.965826 -0.0290585 -1.07424e-21)
(0.980646 -0.0609363 9.56083e-22)
(1.00572 -0.0691183 0)
(1.03913 -0.0919254 -1.69292e-21)
(1.08776 -0.075428 1.69012e-21)
(1.11722 -0.0611755 5.05209e-22)
(1.15694 -0.0125385 -3.7785e-22)
(1.15631 0.0331125 0)
(1.16047 0.0958362 0)
(1.1014 0.132225 -1.34183e-22)
(0.957036 0.00390488 -7.83965e-21)
(0.955019 0.00307007 7.92231e-21)
(0.953743 0.00307962 0)
(0.951199 0.00247382 0)
(0.950688 0.00103272 0)
(0.94873 -0.00176538 0)
(0.950308 -0.00448594 0)
(0.949033 -0.00918244 0)
(0.952323 -0.0123182 -5.70067e-21)
(0.952728 -0.0184689 6.51442e-21)
(0.956662 -0.0218587 3.02692e-21)
(0.963072 -0.0288703 -9.35921e-22)
(0.966931 -0.0345035 -1.60018e-21)
(0.978238 -0.0385832 -1.04949e-21)
(0.985968 -0.0442899 3.65441e-23)
(0.999596 -0.0452532 5.47004e-22)
(1.01144 -0.0457851 -2.03513e-23)
(1.02527 -0.0423996 4.26478e-22)
(1.03868 -0.0359047 -5.28094e-23)
(1.04883 -0.0248189 -6.47461e-22)
(1.05628 -0.0129803 -2.58529e-24)
(1.05992 0.00216973 -2.09127e-21)
(1.05729 0.0169291 3.9741e-21)
(1.04898 0.0283141 -1.387e-21)
(1.03879 0.0402872 0)
(1.021 0.0432033 -7.72425e-22)
(1.00368 0.0449402 -5.74097e-22)
(0.986743 0.0340207 0)
(0.9676 0.0232366 1.31558e-21)
(0.960134 -0.00243346 -1.45961e-21)
(0.958848 -0.0200832 1.00406e-22)
(0.962946 -0.0576384 0)
(0.987582 -0.0718445 0)
(1.01561 -0.100332 -2.44767e-21)
(1.06867 -0.0955868 2.42349e-21)
(1.10262 -0.0889001 6.61058e-23)
(1.15798 -0.0494564 -7.22011e-23)
(1.16661 -0.00277904 1.02756e-21)
(1.18975 0.0657818 -1.27067e-21)
(1.13482 0.123908 3.43064e-23)
(0.955555 0.00452424 0)
(0.953468 0.00365355 0)
(0.952263 0.00325531 0)
(0.949654 0.00254241 0)
(0.949486 0.000713701 0)
(0.947371 -0.00246241 5.46051e-21)
(0.949144 -0.00548833 -4.40938e-21)
(0.948348 -0.0108539 -4.1234e-21)
(0.949967 -0.014097 9.06595e-21)
(0.953714 -0.0203635 -2.24868e-21)
(0.955238 -0.025909 -4.01133e-21)
(0.962801 -0.0308044 7.11354e-22)
(0.967185 -0.0386146 2.64242e-22)
(0.978375 -0.0422008 -1.55071e-22)
(0.987266 -0.0481424 -1.71825e-22)
(1.00064 -0.0489868 2.3736e-22)
(1.01384 -0.0497597 7.4495e-22)
(1.028 -0.0452043 -7.46947e-22)
(1.04129 -0.0391072 3.95111e-22)
(1.05276 -0.0268969 -7.62424e-22)
(1.06055 -0.0135827 -2.94411e-24)
(1.0637 0.00139824 2.43345e-22)
(1.06296 0.0185075 -5.02435e-22)
(1.05374 0.0305021 3.95507e-21)
(1.04345 0.0439283 -3.91232e-21)
(1.027 0.0490195 1.66923e-21)
(1.00581 0.0518614 -2.4199e-21)
(0.988837 0.0422665 2.40572e-21)
(0.96917 0.0347919 -3.74862e-22)
(0.953033 0.00764429 0)
(0.952387 -0.0100221 -4.73409e-22)
(0.947449 -0.0480656 1.96475e-21)
(0.967859 -0.0696571 -1.48316e-21)
(0.988528 -0.103721 0)
(1.04293 -0.112549 0)
(1.07944 -0.114912 -5.29005e-21)
(1.1478 -0.0882585 5.67986e-21)
(1.16787 -0.0465856 -1.61994e-21)
(1.21503 0.0224197 1.50837e-21)
(1.16874 0.102331 -6.81116e-23)
(0.954146 0.00335499 0)
(0.952081 0.00233698 0)
(0.950929 0.00170202 9.0308e-21)
(0.948293 0.000608121 -1.02887e-20)
(0.948396 -0.00137692 9.19681e-21)
(0.946805 -0.00473045 -1.16265e-20)
(0.947168 -0.0081266 -5.61645e-21)
(0.949446 -0.0135156 -8.95412e-22)
(0.948684 -0.0189539 5.39853e-21)
(0.953461 -0.0236214 0)
(0.954809 -0.0306521 8.73202e-22)
(0.963179 -0.0357033 -3.25368e-21)
(0.968192 -0.0439705 2.27028e-21)
(0.978706 -0.0473243 1.61157e-22)
(0.989683 -0.0536879 2.02947e-24)
(1.00168 -0.0543537 1.32335e-23)
(1.01728 -0.0547913 6.70317e-22)
(1.03131 -0.0499232 3.73766e-22)
(1.04514 -0.0425584 -2.63366e-22)
(1.05729 -0.0304753 -7.87901e-22)
(1.06529 -0.015802 6.12838e-23)
(1.06852 -0.000319634 -2.22838e-21)
(1.06828 0.0187241 2.22416e-21)
(1.06084 0.0317156 -5.4296e-22)
(1.04779 0.0465468 0)
(1.03345 0.0532251 -9.02002e-22)
(1.0121 0.0593714 2.80627e-21)
(0.990307 0.0504001 -6.94667e-21)
(0.971615 0.0451365 1.84489e-21)
(0.94954 0.0197202 3.61325e-21)
(0.945863 0.00125289 -1.13054e-21)
(0.933947 -0.0351194 -1.3671e-21)
(0.950113 -0.0629541 1.66104e-21)
(0.961681 -0.100973 0)
(1.01162 -0.124073 0)
(1.04757 -0.137131 0)
(1.12496 -0.128671 1.05716e-22)
(1.15491 -0.0953186 2.75697e-21)
(1.22974 -0.0340291 -2.34457e-21)
(1.19939 0.0642275 1.17597e-22)
(0.952337 0.00374226 -9.07303e-21)
(0.950175 0.00252649 9.18713e-21)
(0.949072 0.00173377 0)
(0.946692 0.00020164 1.19815e-21)
(0.945622 -0.0020463 0)
(0.946737 -0.00561446 2.4323e-21)
(0.944603 -0.0106597 -9.38412e-21)
(0.948056 -0.0150681 7.29393e-21)
(0.947426 -0.0213806 -1.88019e-21)
(0.952886 -0.0265763 3.24364e-21)
(0.954559 -0.0345594 -2.83941e-24)
(0.961909 -0.0391803 3.30102e-21)
(0.969952 -0.0483323 -2.57608e-21)
(0.977439 -0.0518543 -1.3366e-22)
(0.99303 -0.0580662 -2.11221e-24)
(1.00242 -0.0587124 1.55205e-23)
(1.0196 -0.0591381 1.79698e-22)
(1.03479 -0.0536941 1.36139e-21)
(1.04836 -0.0455142 -2.23566e-21)
(1.06222 -0.0331665 8.72534e-22)
(1.0706 -0.016875 1.22732e-21)
(1.07378 -0.000935343 -3.60891e-21)
(1.0734 0.0192065 -4.06124e-23)
(1.06753 0.0337927 2.48256e-21)
(1.05418 0.0506953 -6.081e-22)
(1.03791 0.0578659 -5.03571e-21)
(1.01889 0.0672367 3.90935e-21)
(0.994287 0.0603815 7.69444e-22)
(0.97514 0.0570707 5.67315e-22)
(0.947461 0.0346188 2.89019e-22)
(0.941551 0.0151532 3.52091e-22)
(0.921583 -0.0184618 0)
(0.932117 -0.0497824 -4.21608e-22)
(0.934848 -0.0900805 0)
(0.978154 -0.126558 7.40179e-22)
(1.00951 -0.149895 0)
(1.08807 -0.162968 -1.54223e-21)
(1.1277 -0.144834 3.73214e-21)
(1.22581 -0.105816 -2.83951e-21)
(1.22373 0.00666222 -1.35894e-21)
(0.950851 0.00206598 8.40981e-21)
(0.948725 0.000577982 0)
(0.947008 -0.000585452 1.26304e-21)
(0.946139 -0.00194649 -1.14219e-20)
(0.943513 -0.0051775 1.02508e-20)
(0.945335 -0.0087801 -2.55736e-21)
(0.943421 -0.0143113 1.1105e-20)
(0.947374 -0.0191297 -1.24151e-20)
(0.946502 -0.0264182 1.15095e-21)
(0.95205 -0.0313826 1.06267e-21)
(0.95533 -0.0398764 -4.683e-22)
(0.961015 -0.0457887 -3.84129e-22)
(0.971971 -0.0535652 7.91254e-22)
(0.978591 -0.0591955 -6.57597e-22)
(0.993702 -0.0637296 0)
(1.00662 -0.0654917 1.83855e-23)
(1.02199 -0.0644977 2.29397e-22)
(1.03907 -0.0598005 0)
(1.05354 -0.0497115 9.69336e-22)
(1.0663 -0.0369331 -9.70335e-22)
(1.07708 -0.0198538 -7.44069e-23)
(1.07998 -0.00276981 0)
(1.0802 0.0186372 0)
(1.07397 0.0342275 0)
(1.06312 0.0534104 1.31532e-21)
(1.04452 0.061971 1.15176e-21)
(1.02609 0.073901 -3.78587e-21)
(0.999406 0.0695185 2.95713e-21)
(0.980431 0.0678519 -1.28436e-21)
(0.948798 0.0508226 4.78901e-22)
(0.939167 0.0297729 6.61061e-22)
(0.913317 -0.000548595 -7.37844e-22)
(0.915918 -0.033757 -4.27408e-22)
(0.909877 -0.0712505 2.63474e-21)
(0.942107 -0.119726 -9.91305e-21)
(0.966858 -0.152646 6.45715e-21)
(1.03802 -0.185735 8.5029e-22)
(1.08419 -0.18358 6.31109e-21)
(1.19361 -0.184161 -1.83949e-21)
(1.23359 -0.0748629 -3.23901e-21)
(0.948058 0.00225139 1.25173e-21)
(0.947106 0.000373949 -1.30509e-21)
(0.943986 -0.00100982 2.95453e-23)
(0.943663 -0.00311532 1.33489e-21)
(0.941085 -0.00662416 0)
(0.943149 -0.0104758 -2.61961e-21)
(0.940985 -0.0166916 5.40942e-21)
(0.945336 -0.0216979 6.25328e-21)
(0.945114 -0.0294139 -5.03347e-21)
(0.950146 -0.0364143 1.1133e-21)
(0.955069 -0.0429838 0)
(0.960664 -0.0518616 -2.21445e-21)
(0.971062 -0.0581213 3.62178e-21)
(0.981292 -0.0645774 -6.56616e-22)
(0.994209 -0.069178 8.62347e-23)
(1.00934 -0.0707748 -1.68231e-21)
(1.02556 -0.0690681 1.32174e-21)
(1.04205 -0.063886 0)
(1.05906 -0.0539969 0)
(1.07144 -0.0398627 0)
(1.08249 -0.0214522 8.76213e-23)
(1.08628 -0.0038505 0)
(1.08742 0.0190124 -3.0725e-21)
(1.08031 0.0355327 9.09153e-21)
(1.07147 0.0568323 -6.71423e-21)
(1.0519 0.0670621 -1.42134e-21)
(1.03506 0.0810572 0)
(1.00511 0.0809055 0)
(0.986798 0.0792976 -1.19556e-22)
(0.952424 0.0681767 -4.04911e-21)
(0.937625 0.0490496 9.0551e-22)
(0.908865 0.0219 1.62042e-21)
(0.903338 -0.0145887 -3.49772e-23)
(0.890249 -0.0477547 -2.72258e-21)
(0.907627 -0.0991345 2.31782e-21)
(0.921889 -0.14048 8.49636e-22)
(0.977723 -0.196236 0)
(1.02714 -0.204129 -8.99484e-22)
(1.12756 -0.252207 5.40673e-21)
(1.21142 -0.166936 -5.58131e-21)
(0.945609 -0.000366292 -1.2208e-20)
(0.945145 -0.00244526 1.35332e-21)
(0.942373 -0.00386354 -1.39082e-21)
(0.942422 -0.00664705 1.45434e-21)
(0.939448 -0.01074 -1.46265e-21)
(0.941767 -0.0150111 9.90718e-21)
(0.939561 -0.0213636 -1.15134e-20)
(0.94357 -0.0280338 0)
(0.945061 -0.0343601 1.2889e-21)
(0.949403 -0.04361 3.15102e-21)
(0.954515 -0.0496071 -4.35893e-21)
(0.962473 -0.0592159 -2.99471e-21)
(0.971337 -0.0652947 3.042e-21)
(0.983666 -0.0730038 -7.25609e-22)
(0.997415 -0.0762172 4.13383e-23)
(1.01245 -0.07805 0)
(1.03071 -0.076673 1.74312e-21)
(1.04725 -0.0698299 6.64457e-23)
(1.06516 -0.0591378 -1.95293e-21)
(1.07811 -0.0450575 0)
(1.09029 -0.0249773 -9.18114e-23)
(1.09349 -0.00667213 -3.35509e-21)
(1.09703 0.0178445 4.22974e-21)
(1.08805 0.0355687 -8.88436e-22)
(1.08215 0.0580331 0)
(1.06062 0.0709934 3.10576e-21)
(1.04631 0.0859192 0)
(1.01386 0.0912016 0)
(0.994842 0.0906938 1.90434e-21)
(0.959059 0.0843555 0)
(0.94012 0.0658533 8.11955e-22)
(0.909301 0.0478372 -6.99286e-22)
(0.894755 0.00957021 9.09719e-22)
(0.875895 -0.0214291 3.90622e-22)
(0.878271 -0.0741229 -5.83598e-21)
(0.88549 -0.11185 4.86696e-21)
(0.911779 -0.188468 0)