/*--------------------------------*- C++ -*----------------------------------*\
  =========                 |
  \\      /  F ield         | OpenFOAM: The Open Source CFD Toolbox
   \\    /   O peration     | Website:  https://openfoam.org
    \\  /    A nd           | Version:  10
     \\/     M anipulation  |
\*---------------------------------------------------------------------------*/
FoamFile
{
    format      ascii;
    class       volScalarField;
    location    "0.451496";
    object      p;
}
// * * * * * * * * * * * * * * * * * * * * * * * * * * * * * * * * * * * * * //

dimensions      [1 -1 -2 0 0 0 0];

internalField   nonuniform List<scalar> 
16320
(
0.580202
0.578972
0.584093
0.592045
0.60606
0.623611
0.64336
0.664949
0.686575
0.705737
0.71999
0.72886
0.731472
0.729897
0.725864
0.721948
0.721067
0.725537
0.737109
0.75674
0.78298
0.812269
0.839554
0.861522
0.877141
0.885458
0.887966
0.88793
0.889008
0.893173
0.901565
0.914515
0.932828
0.598944
0.601508
0.610249
0.620809
0.636588
0.653303
0.670736
0.688711
0.705928
0.720614
0.731641
0.739032
0.742692
0.743735
0.743865
0.745753
0.75033
0.759245
0.772255
0.787781
0.802861
0.816532
0.830586
0.844615
0.856632
0.866534
0.873625
0.878618
0.883858
0.890946
0.900416
0.913669
0.931697
0.627567
0.633177
0.646548
0.659102
0.674716
0.689613
0.703934
0.717866
0.730833
0.741873
0.750783
0.757778
0.762828
0.765894
0.768557
0.771941
0.776687
0.782279
0.787085
0.790961
0.795338
0.801554
0.809455
0.819899
0.833135
0.847201
0.860264
0.870419
0.880047
0.889261
0.89975
0.912825
0.930234
0.665099
0.674535
0.688725
0.701752
0.715921
0.728226
0.738948
0.748516
0.757065
0.764313
0.770685
0.775828
0.779132
0.781338
0.782176
0.781958
0.780403
0.77808
0.775877
0.773834
0.772653
0.773761
0.779649
0.791813
0.808781
0.827965
0.846586
0.862969
0.876401
0.88802
0.899682
0.912713
0.928438
0.703973
0.716224
0.729966
0.742358
0.752534
0.762174
0.768821
0.773363
0.776658
0.779072
0.780751
0.78138
0.780304
0.777578
0.773073
0.766862
0.759956
0.752512
0.745298
0.739965
0.737858
0.739795
0.747195
0.761837
0.782682
0.807482
0.832251
0.854146
0.872089
0.887172
0.900371
0.913268
0.927423
0.735636
0.749372
0.763216
0.775737
0.784059
0.787443
0.788267
0.786588
0.783272
0.779258
0.775097
0.770003
0.763339
0.75495
0.745012
0.734315
0.724064
0.715248
0.70848
0.704489
0.704088
0.707912
0.717629
0.734369
0.757597
0.785558
0.814582
0.842301
0.865641
0.8853
0.900243
0.913281
0.925308
0.752761
0.765301
0.778485
0.789396
0.796554
0.798246
0.792548
0.783227
0.772879
0.762414
0.75156
0.74006
0.727878
0.715453
0.703517
0.692765
0.683779
0.677129
0.673012
0.671747
0.673583
0.67941
0.690645
0.70782
0.731229
0.760545
0.792678
0.82582
0.854781
0.878636
0.896736
0.910155
0.920383
0.760763
0.770929
0.780827
0.787675
0.790603
0.78685
0.775193
0.759746
0.742855
0.72612
0.710594
0.695836
0.681941
0.669486
0.658991
0.650868
0.645235
0.641936
0.641015
0.64243
0.646686
0.654466
0.666448
0.683236
0.705515
0.733708
0.765422
0.799533
0.832515
0.861246
0.88364
0.899491
0.909828
0.759495
0.764557
0.768454
0.769676
0.766532
0.75672
0.739452
0.718669
0.697292
0.678169
0.661452
0.646728
0.634489
0.624822
0.617864
0.613495
0.611569
0.611817
0.614071
0.618514
0.625092
0.634101
0.64603
0.66135
0.680943
0.704975
0.733475
0.765644
0.799085
0.830494
0.85714
0.877617
0.891135
0.747002
0.744935
0.742097
0.736448
0.725714
0.709343
0.689289
0.667389
0.646416
0.627605
0.612357
0.600471
0.592014
0.586474
0.58362
0.583227
0.584789
0.588264
0.593378
0.600086
0.608498
0.618614
0.630476
0.644359
0.660701
0.679986
0.702955
0.729676
0.759553
0.791203
0.822556
0.847304
0.865629
0.726214
0.716232
0.705389
0.691836
0.674366
0.653625
0.631899
0.611474
0.593828
0.579932
0.569801
0.562375
0.557992
0.556377
0.557385
0.560454
0.565227
0.571419
0.578903
0.587611
0.59743
0.608198
0.619883
0.632525
0.646416
0.662191
0.680578
0.701619
0.726247
0.756044
0.786145
0.813799
0.836564
0.701322
0.682491
0.662898
0.641841
0.618622
0.595506
0.574724
0.55762
0.545066
0.537442
0.533241
0.531674
0.532497
0.53544
0.540075
0.54616
0.553516
0.561977
0.571362
0.581552
0.592304
0.60338
0.614633
0.626018
0.637697
0.650306
0.664542
0.681162
0.701362
0.72531
0.752935
0.781545
0.808775
0.673898
0.646868
0.619438
0.5918
0.56485
0.540787
0.52231
0.509526
0.502853
0.501278
0.502963
0.507568
0.513521
0.520532
0.528617
0.537613
0.547386
0.557792
0.568669
0.579816
0.590983
0.60191
0.612445
0.62255
0.632397
0.642524
0.653417
0.665494
0.68209
0.702073
0.727244
0.756018
0.785233
0.647663
0.612783
0.578646
0.546033
0.517109
0.493571
0.477776
0.469496
0.468452
0.471873
0.479966
0.48959
0.499834
0.510626
0.521894
0.533519
0.545381
0.55734
0.569216
0.580872
0.592058
0.60257
0.612324
0.621337
0.629798
0.638052
0.646642
0.657453
0.670867
0.688393
0.71117
0.737707
0.767507
0.623507
0.582268
0.542856
0.507081
0.477564
0.455911
0.443096
0.438931
0.441307
0.44985
0.462739
0.476589
0.490679
0.50479
0.518786
0.532581
0.546031
0.559115
0.571706
0.583557
0.594511
0.604501
0.613516
0.621707
0.629216
0.636275
0.643952
0.653129
0.665356
0.681369
0.701229
0.725435
0.754277
0.602031
0.554971
0.511544
0.474074
0.445449
0.426665
0.417366
0.416864
0.422197
0.434584
0.450438
0.467515
0.484787
0.501677
0.517927
0.533379
0.548133
0.561995
0.574858
0.586655
0.597354
0.606954
0.615508
0.623255
0.630249
0.636932
0.64423
0.653522
0.665396
0.678679
0.69579
0.716986
0.743112
0.582388
0.530557
0.484376
0.447137
0.420693
0.405265
0.399574
0.401522
0.409711
0.424214
0.442096
0.461501
0.481077
0.499995
0.5179
0.534684
0.550268
0.564551
0.577565
0.589396
0.600052
0.609574
0.617937
0.625562
0.632534
0.639823
0.647973
0.657389
0.66779
0.679559
0.693918
0.712328
0.735123
0.562143
0.505842
0.459569
0.425646
0.403948
0.392915
0.390051
0.393645
0.403063
0.418095
0.436882
0.457482
0.478385
0.498585
0.517587
0.53522
0.551405
0.566007
0.579308
0.591494
0.602421
0.61213
0.620748
0.628734
0.636724
0.645116
0.653882
0.662808
0.672198
0.682772
0.695057
0.710979
0.730333
0.540846
0.483339
0.440456
0.411789
0.395202
0.387826
0.386672
0.391217
0.400928
0.415612
0.434204
0.454831
0.476076
0.496769
0.51629
0.534383
0.55104
0.566306
0.580281
0.593043
0.604509
0.614715
0.62409
0.633362
0.642572
0.651622
0.660355
0.669039
0.677901
0.687133
0.698834
0.71154
0.728291
0.51911
0.465459
0.428784
0.404933
0.392011
0.387192
0.387249
0.392423
0.401906
0.41586
0.433424
0.453292
0.47409
0.494681
0.514307
0.532697
0.549868
0.565836
0.580562
0.594103
0.606434
0.617677
0.628626
0.639072
0.648894
0.658026
0.666935
0.675686
0.684019
0.692465
0.702301
0.714362
0.728641
0.502119
0.454233
0.4227
0.402614
0.392609
0.389435
0.390323
0.395773
0.404859
0.417862
0.434157
0.452803
0.472577
0.492546
0.512026
0.530669
0.548357
0.564962
0.580372
0.595047
0.60875
0.621604
0.633646
0.644613
0.654597
0.66416
0.673395
0.681974
0.689526
0.696942
0.705865
0.716605
0.729754
0.491055
0.447584
0.419735
0.403067
0.395424
0.393227
0.39456
0.399979
0.408845
0.420985
0.436059
0.453372
0.471988
0.491175
0.510238
0.52885
0.546772
0.564133
0.580579
0.59625
0.611536
0.625398
0.637877
0.649133
0.659672
0.669572
0.678778
0.687047
0.6938
0.701172
0.709508
0.719518
0.731685
0.484787
0.444196
0.418916
0.405146
0.39935
0.397902
0.399714
0.405098
0.413654
0.425061
0.439065
0.455132
0.47256
0.49083
0.50919
0.527876
0.546488
0.564272
0.581455
0.598324
0.613989
0.628106
0.640929
0.652787
0.663787
0.674047
0.683438
0.69059
0.6976
0.70471
0.71293
0.721754
0.733161
0.481209
0.441734
0.419128
0.408207
0.404297
0.403469
0.405696
0.411034
0.419286
0.43021
0.443254
0.458039
0.474368
0.49214
0.51041
0.528459
0.546817
0.565335
0.583022
0.599763
0.61528
0.629768
0.643012
0.655251
0.666697
0.677171
0.68579
0.693743
0.700866
0.707844
0.715455
0.723432
0.734455
0.478413
0.439768
0.419859
0.411497
0.409233
0.409135
0.412329
0.417902
0.426477
0.436807
0.449418
0.463579
0.478928
0.495054
0.512615
0.530617
0.548719
0.566923
0.583986
0.600404
0.616193
0.630627
0.644024
0.656638
0.668391
0.679121
0.688181
0.696388
0.703229
0.710426
0.717423
0.726902
0.737335
0.482886
0.43591
0.423116
0.416629
0.415156
0.416033
0.420079
0.426498
0.434998
0.445243
0.45715
0.470558
0.485192
0.500796
0.517319
0.534508
0.551446
0.568212
0.585025
0.601143
0.61636
0.630636
0.644158
0.656974
0.668983
0.679986
0.689779
0.697943
0.705391
0.712094
0.720819
0.728475
0.738363
0.487938
0.437086
0.426162
0.421067
0.420539
0.423638
0.428967
0.436242
0.445093
0.455385
0.466992
0.479809
0.493611
0.508027
0.522791
0.538106
0.554193
0.570364
0.586025
0.601257
0.615796
0.629707
0.6431
0.656043
0.668545
0.680249
0.68999
0.698936
0.70593
0.714882
0.721337
0.728726
0.738283
0.495207
0.442553
0.430266
0.425466
0.425894
0.431639
0.438174
0.446313
0.455698
0.46598
0.477188
0.488877
0.501265
0.514529
0.528548
0.542947
0.557468
0.572067
0.586465
0.600562
0.61422
0.627593
0.640811
0.653962
0.666922
0.678288
0.689119
0.697763
0.706097
0.713123
0.719507
0.726171
0.734537
0.505326
0.458849
0.432453
0.430069
0.432452
0.438684
0.446462
0.455164
0.464745
0.475029
0.485857
0.497291
0.509094
0.521237
0.533843
0.546721
0.559729
0.572748
0.585771
0.598592
0.611324
0.624135
0.637113
0.650318
0.663333
0.674422
0.685027
0.693526
0.702149
0.708062
0.713619
0.719267
0.727079
0.546714
0.465739
0.443673
0.436531
0.437531
0.444435
0.452972
0.46224
0.472126
0.482392
0.492943
0.503742
0.514713
0.525837
0.537166
0.548606
0.560286
0.572002
0.583627
0.595155
0.606836
0.618824
0.631304
0.644146
0.655827
0.66727
0.676429
0.686165
0.692781
0.698358
0.702893
0.708359
0.716389
0.582724
0.49495
0.455401
0.443626
0.44239
0.448527
0.457442
0.467133
0.477036
0.487133
0.49727
0.507391
0.517485
0.527646
0.537933
0.548374
0.558869
0.568986
0.57905
0.589291
0.599829
0.610832
0.622351
0.634265
0.644664
0.655201
0.663869
0.672585
0.678409
0.683736
0.688201
0.695637
0.703282
0.650968
0.528832
0.475731
0.452488
0.447362
0.450715
0.459256
0.46909
0.479086
0.488913
0.498581
0.508104
0.517549
0.526899
0.536173
0.545279
0.554066
0.562728
0.571464
0.580399
0.589627
0.599262
0.609414
0.619069
0.629206
0.638266
0.646998
0.654086
0.660746
0.666228
0.673692
0.681231
0.691938
0.71908
0.585374
0.500845
0.465236
0.452031
0.450995
0.457522
0.466911
0.476919
0.486773
0.496202
0.505154
0.513729
0.522031
0.530019
0.537736
0.545302
0.552744
0.560163
0.567686
0.575412
0.583489
0.592241
0.600337
0.609396
0.617648
0.626574
0.634392
0.641714
0.64996
0.660028
0.670148
0.682695
0.762733
0.645713
0.540136
0.481337
0.456021
0.448892
0.451413
0.459304
0.468579
0.478135
0.487341
0.496024
0.504147
0.511929
0.518845
0.525519
0.532157
0.538275
0.544401
0.550506
0.556813
0.563742
0.571152
0.579143
0.587516
0.596267
0.605581
0.615226
0.624697
0.638011
0.648615
0.662419
0.676743
0.777325
0.695763
0.588245
0.503313
0.459997
0.443335
0.44021
0.444841
0.452457
0.461056
0.46961
0.47779
0.485463
0.492496
0.499598
0.506221
0.512211
0.51815
0.523669
0.529125
0.535056
0.54184
0.548524
0.557296
0.566219
0.576335
0.587488
0.598912
0.613465
0.627388
0.641819
0.657499
0.671652
0.773606
0.725645
0.637244
0.536293
0.469693
0.438343
0.427159
0.425912
0.430242
0.436667
0.443839
0.451092
0.458333
0.465465
0.47258
0.479554
0.486286
0.492828
0.499156
0.505553
0.512722
0.519289
0.527675
0.537491
0.547881
0.559949
0.573089
0.587032
0.605351
0.620149
0.637754
0.65471
0.668073
0.764434
0.738866
0.677175
0.579544
0.488509
0.438115
0.415951
0.408544
0.408049
0.411684
0.416992
0.423004
0.429536
0.436336
0.443564
0.450974
0.458668
0.466519
0.474391
0.482828
0.491947
0.499783
0.510284
0.521279
0.533526
0.547364
0.561868
0.580331
0.59823
0.61605
0.634878
0.652556
0.666806
0.755743
0.743216
0.705921
0.625981
0.52321
0.450227
0.413702
0.399036
0.393762
0.393219
0.395594
0.400187
0.405919
0.412136
0.419542
0.42733
0.435846
0.444876
0.454511
0.464995
0.474396
0.485215
0.49679
0.509085
0.52291
0.538046
0.554451
0.575625
0.593558
0.613728
0.633292
0.651561
0.667196
0.74896
0.745708
0.725941
0.668198
0.569788
0.475409
0.422146
0.397794
0.387604
0.383863
0.383251
0.386102
0.390277
0.395636
0.403071
0.410806
0.419974
0.430167
0.441123
0.451022
0.462834
0.474501
0.48683
0.50042
0.515322
0.531021
0.551464
0.571558
0.591492
0.612474
0.632956
0.652276
0.668774
0.745731
0.747609
0.738492
0.702619
0.619431
0.51488
0.441655
0.404488
0.387478
0.380915
0.378729
0.379812
0.382434
0.386961
0.39389
0.40136
0.410773
0.421119
0.431395
0.442951
0.454702
0.466932
0.480207
0.494842
0.51048
0.527799
0.550083
0.569761
0.591399
0.612976
0.634319
0.654758
0.672607
0.744113
0.749552
0.748844
0.729295
0.666361
0.563144
0.47191
0.419202
0.393343
0.382254
0.378505
0.378236
0.379555
0.38345
0.389269
0.396443
0.405475
0.415092
0.426007
0.437346
0.449322
0.462248
0.476316
0.491615
0.507642
0.528714
0.550049
0.570792
0.593263
0.615492
0.6378
0.65969
0.679149
0.744315
0.75313
0.758024
0.749018
0.706805
0.614837
0.511296
0.44118
0.40447
0.387913
0.381593
0.379756
0.379603
0.382348
0.387484
0.394171
0.402496
0.411855
0.422411
0.433816
0.446184
0.459716
0.474542
0.490532
0.508333
0.531442
0.552442
0.574804
0.597765
0.620651
0.643776
0.667101
0.688119
0.749229
0.75542
0.765544
0.764902
0.739569
0.665001
0.557366
0.470508
0.42063
0.397134
0.387457
0.383356
0.382195
0.383516
0.387443
0.393287
0.401002
0.410001
0.42031
0.431838
0.444558
0.458693
0.474299
0.490964
0.512743
0.536133
0.558384
0.581853
0.605365
0.628746
0.652191
0.675811
0.699411
0.755248
0.76236
0.773144
0.779418
0.765987
0.710188
0.607177
0.506877
0.442031
0.409699
0.395356
0.388692
0.386337
0.385904
0.389086
0.393693
0.400675
0.409287
0.419423
0.430918
0.443956
0.458818
0.475782
0.494754
0.517941
0.543054
0.567376
0.59181
0.615865
0.639416
0.662663
0.685841
0.709298
0.762927
0.769552
0.778133
0.791042
0.78606
0.748194
0.657358
0.549099
0.468855
0.426069
0.405358
0.395524
0.391432
0.390054
0.391414
0.395174
0.401462
0.409571
0.419516
0.430941
0.444376
0.460113
0.478545
0.499993
0.524488
0.550618
0.578478
0.604038
0.628353
0.652005
0.67404
0.695678
0.717597
0.774065
0.778306
0.787911
0.799937
0.804774
0.779961
0.704918
0.594951
0.501241
0.446092
0.417987
0.404017
0.397683
0.395751
0.395063
0.39767
0.403048
0.410571
0.420229
0.431744
0.445599
0.462271
0.482152
0.505303
0.531568
0.559879
0.588737
0.615644
0.641159
0.664272
0.684119
0.703178
0.721977
0.783921
0.788073
0.796914
0.806803
0.820013
0.804721
0.747167
0.641719
0.538094
0.469749
0.433505
0.414589
0.40563
0.401564
0.400233
0.401253
0.405258
0.412266
0.421398
0.432951
0.446986
0.46481
0.485825
0.509801
0.536915
0.56629
0.596089
0.624318
0.649246
0.671531
0.689448
0.704757
0.719651
0.796727
0.799458
0.806565
0.816831
0.830159
0.826598
0.783349
0.688649
0.578718
0.497317
0.452371
0.427938
0.414943
0.408773
0.406331
0.405996
0.408195
0.414459
0.423057
0.434488
0.448871
0.46699
0.488167
0.512555
0.539943
0.568986
0.598632
0.626379
0.650531
0.670793
0.686639
0.69936
0.711149
0.809704
0.811828
0.817299
0.826767
0.837377
0.844664
0.812847
0.731805
0.620607
0.528955
0.47429
0.443943
0.426935
0.417314
0.413046
0.411782
0.412312
0.417244
0.425161
0.436311
0.450806
0.468535
0.489639
0.513755
0.540525
0.568853
0.596937
0.623458
0.646316
0.664749
0.678529
0.689423
0.698707
0.823035
0.824671
0.828483
0.836327
0.845681
0.857954
0.837348
0.77062
0.663009
0.563552
0.498884
0.462544
0.44138
0.428113
0.421065
0.418338
0.417729
0.42096
0.42794
0.438529
0.452614
0.470062
0.490711
0.514167
0.539865
0.566615
0.592815
0.617229
0.638581
0.655158
0.667473
0.676758
0.684122
0.83692
0.838679
0.841165
0.847009
0.856304
0.865886
0.858258
0.804495
0.704911
0.599992
0.525391
0.48338
0.457957
0.441555
0.430805
0.425807
0.424412
0.425829
0.431413
0.441127
0.454595
0.471516
0.491493
0.513996
0.538287
0.563271
0.587555
0.60992
0.629222
0.644574
0.655468
0.663218
0.669291
0.851148
0.853178
0.855172
0.859357
0.866441
0.872173
0.876539
0.833886
0.745358
0.637611
0.555254
0.504978
0.476358
0.457227
0.443078
0.435104
0.432216
0.432059
0.435964
0.444404
0.456913
0.473014
0.492105
0.513477
0.536259
0.559469
0.58185
0.602214
0.619727
0.63378
0.643826
0.65065
0.65591
0.866375
0.868523
0.870178
0.873271
0.878058
0.883268
0.887474
0.858711
0.783212
0.676882
0.586468
0.528971
0.495502
0.474399
0.458134
0.446689
0.441394
0.44001
0.442056
0.448819
0.459978
0.47494
0.493009
0.513218
0.5345
0.555934
0.576434
0.594902
0.610798
0.623426
0.632481
0.638676
0.64312
0.881085
0.884405
0.886569
0.889249
0.892112
0.895685
0.895816
0.88298
0.818917
0.717701
0.619802
0.554164
0.515435
0.492276
0.474899
0.460965
0.452593
0.449694
0.449834
0.454798
0.464476
0.47819
0.495009
0.513926
0.533765
0.553417
0.572037
0.5887
0.602911
0.614273
0.622482
0.627866
0.631663
0.895815
0.900811
0.903915
0.907208
0.909901
0.911702
0.910414
0.902646
0.852877
0.759975
0.65549
0.580415
0.536399
0.510493
0.492442
0.477731
0.466571
0.461326
0.460185
0.463303
0.471192
0.483125
0.498425
0.515943
0.53435
0.552319
0.569025
0.583853
0.596391
0.60641
0.61354
0.618207
0.621356
0.909977
0.916544
0.921134
0.925495
0.928981
0.929698
0.929893
0.921931
0.885853
0.803307
0.695224
0.609474
0.55786
0.528772
0.510792
0.496341
0.484229
0.476785
0.474234
0.475208
0.480999
0.491075
0.504598
0.520366
0.536998
0.553245
0.568088
0.580994
0.591725
0.600109
0.605963
0.609674
0.611921
0.923347
0.931868
0.938592
0.943952
0.948448
0.949436
0.948475
0.939338
0.915489
0.845906
0.739863
0.642533
0.581238
0.547565
0.528167
0.514776
0.503233
0.494601
0.490802
0.490484
0.494576
0.502851
0.514536
0.528423
0.543047
0.557215
0.569978
0.580834
0.589438
0.595856
0.599881
0.602174
0.603206
0.93557
0.94597
0.95451
0.961635
0.96799
0.969784
0.96774
0.960785
0.939764
0.88548
0.789047
0.682127
0.608375
0.567374
0.545662
0.532542
0.522693
0.51494
0.510517
0.509488
0.512255
0.519086
0.529187
0.541341
0.554065
0.565995
0.576232
0.584528
0.590641
0.5943
0.59596
0.596259
0.595633
0.946262
0.958437
0.969008
0.97821
0.985579
0.988405
0.987526
0.98144
0.961124
0.921439
0.838636
0.729071
0.640994
0.590221
0.564039
0.55033
0.542167
0.535836
0.531971
0.531186
0.533704
0.539918
0.548946
0.559657
0.570642
0.58056
0.588349
0.593693
0.596395
0.596446
0.595401
0.593121
0.589665
0.955094
0.968237
0.980974
0.992065
1.00112
1.00723
1.0064
1.00006
0.983134
0.948297
0.882821
0.781179
0.680804
0.616928
0.584421
0.568603
0.561129
0.557553
0.556792
0.557878
0.561131
0.567093
0.57524
0.584732
0.594283
0.602451
0.607761
0.609363
0.608204
0.605317
0.599385
0.593079
0.586285
0.961906
0.975722
0.989568
1.00256
1.01288
1.02003
1.02081
1.01624
1.00288
0.971039
0.917918
0.831312
0.727062
0.648798
0.606776
0.587867
0.580772
0.579379
0.581142
0.584817
0.58998
0.596924
0.605203
0.614312
0.623186
0.630278
0.634001
0.632714
0.626818
0.618229
0.60698
0.595595
0.58509
0.966559
0.979968
0.994117
1.00793
1.01959
1.02821
1.03143
1.02875
1.01705
0.989313
0.942605
0.872066
0.774643
0.685353
0.632253
0.608995
0.601367
0.600617
0.604672
0.610921
0.618206
0.62629
0.634824
0.64345
0.651354
0.657235
0.661311
0.659752
0.651005
0.636093
0.6193
0.601082
0.584747
0.968807
0.981182
0.995109
1.0091
1.02182
1.03157
1.03723
1.03517
1.02644
1.0047
0.961021
0.900106
0.817811
0.72545
0.660375
0.629118
0.618628
0.617372
0.622552
0.63031
0.638492
0.646519
0.654352
0.662184
0.669723
0.674476
0.674333
0.670286
0.661064
0.646025
0.627251
0.60604
0.586128
0.969294
0.980545
0.99366
1.00711
1.0196
1.03
1.03666
1.03695
1.03053
1.0116
0.972995
0.918658
0.848179
0.764823
0.691199
0.6512
0.636053
0.632901
0.63653
0.642901
0.649432
0.655487
0.661426
0.667432
0.673048
0.678024
0.678925
0.675098
0.665397
0.649895
0.630007
0.608185
0.585295
0.968579
0.978239
0.98978
1.00192
1.01377
1.02411
1.03134
1.03333
1.02788
1.01279
0.981467
0.929023
0.867066
0.794993
0.722911
0.673584
0.651385
0.644425
0.64448
0.647681
0.651251
0.654569
0.65775
0.662807
0.670777
0.677265
0.679194
0.675826
0.665809
0.64958
0.629232
0.605715
0.583388
0.966971
0.974777
0.98445
0.994481
1.00483
1.01432
1.02157
1.02467
1.02166
1.00884
0.982762
0.938739
0.877846
0.814378
0.750303
0.697416
0.66782
0.654835
0.649459
0.647181
0.646334
0.645785
0.645919
0.650291
0.658972
0.66895
0.674856
0.673352
0.661965
0.645334
0.625106
0.602521
0.580477
0.965185
0.970691
0.978014
0.985515
0.993821
1.00174
1.00812
1.0116
1.01022
1.00056
0.978617
0.94114
0.88721
0.826402
0.770971
0.721731
0.687104
0.667223
0.655023
0.645927
0.639197
0.633744
0.630818
0.633104
0.641307
0.653551
0.664004
0.665994
0.656468
0.638701
0.619022
0.597662
0.574818
0.963914
0.966561
0.971046
0.97578
0.981372
0.987019
0.991933
0.995013
0.994132
0.986672
0.967039
0.938552
0.8942
0.836998
0.786393
0.744304
0.70857
0.681688
0.660831
0.643898
0.630815
0.621547
0.617101
0.616715
0.622625
0.634951
0.648798
0.655443
0.649769
0.632654
0.612874
0.59292
0.571489
0.963655
0.962858
0.96397
0.9655
0.967967
0.970776
0.97361
0.975458
0.974732
0.969275
0.954725
0.928314
0.896568
0.850405
0.804474
0.766202
0.732952
0.70094
0.669858
0.64527
0.627071
0.614195
0.606707
0.603788
0.606837
0.616966
0.63167
0.642943
0.643116
0.628464
0.608386
0.589567
0.569178
0.964656
0.959631
0.956871
0.954919
0.953987
0.953778
0.953977
0.95408
0.953077
0.94882
0.938559
0.918279
0.895267
0.862705
0.827889
0.794372
0.760755
0.721746
0.68195
0.649274
0.626961
0.610994
0.600243
0.594426
0.594756
0.602567
0.617014
0.63162
0.636085
0.62504
0.605683
0.587628
0.567881
0.965929
0.956583
0.949689
0.944233
0.939755
0.936244
0.93367
0.931789
0.929994
0.9264
0.920083
0.907131
0.887783
0.874695
0.852176
0.826419
0.790942
0.742838
0.694132
0.656469
0.629789
0.611277
0.597627
0.589519
0.587277
0.593559
0.607146
0.622924
0.629875
0.6228
0.605248
0.586407
0.567646
0.966172
0.953255
0.942432
0.933566
0.925625
0.918654
0.913283
0.909384
0.906611
0.903432
0.900286
0.893098
0.8832
0.874128
0.871912
0.853395
0.816452
0.75996
0.705605
0.664892
0.635845
0.614767
0.599273
0.588217
0.584409
0.590103
0.603204
0.618653
0.625862
0.620636
0.605957
0.587582
0.567499
0.964211
0.949166
0.934949
0.922794
0.911049
0.901148
0.893333
0.887671
0.88404
0.881487
0.879657
0.876873
0.872908
0.868722
0.875985
0.863807
0.824845
0.767142
0.713277
0.671911
0.642331
0.619817
0.602119
0.589866
0.585884
0.591319
0.6037
0.617872
0.624436
0.620103
0.607381
0.58875
0.56828
0.957644
0.94302
0.926594
0.911323
0.896869
0.884384
0.874506
0.867424
0.863332
0.860953
0.859849
0.858959
0.856898
0.857003
0.861222
0.854118
0.817491
0.7629
0.712771
0.674572
0.646307
0.624153
0.606529
0.594708
0.591585
0.596958
0.608312
0.620262
0.625268
0.621461
0.609726
0.590967
0.569744
0.946301
0.933676
0.917084
0.899636
0.883037
0.868561
0.857213
0.849487
0.8453
0.843323
0.842588
0.840965
0.837237
0.834388
0.83168
0.826619
0.794494
0.747872
0.706033
0.673073
0.647468
0.627387
0.611434
0.601504
0.599933
0.605188
0.615179
0.624531
0.628524
0.624759
0.613138
0.594103
0.571372
0.931699
0.921316
0.905408
0.887474
0.869629
0.853843
0.842037
0.834615
0.831116
0.829958
0.828887
0.825061
0.816237
0.80763
0.798912
0.788514
0.757397
0.720718
0.690447
0.666207
0.645401
0.62825
0.61539
0.608319
0.607882
0.61355
0.622215
0.63046
0.633797
0.630151
0.618615
0.598761
0.57385
0.916093
0.907568
0.89297
0.875136
0.857044
0.840914
0.829851
0.824091
0.822277
0.821607
0.819993
0.81287
0.799302
0.783326
0.767816
0.748911
0.719053
0.691965
0.670718
0.65366
0.638617
0.626535
0.617295
0.612647
0.615361
0.620988
0.629415
0.637368
0.64086
0.637587
0.626373
0.606232
0.578596
0.901535
0.894306
0.880909
0.863785
0.845645
0.831363
0.822908
0.819527
0.81964
0.820107
0.817594
0.807317
0.787667
0.76315
0.739847
0.712941
0.685235
0.665223
0.650611
0.638942
0.629296
0.621874
0.615941
0.616761
0.620069
0.626955
0.636394
0.645339
0.650107
0.648047
0.638008
0.618102
0.586909
0.889392
0.882584
0.869793
0.853831
0.838467
0.827247
0.82134
0.821003
0.824066
0.825591
0.821918
0.808158
0.780271
0.747581
0.716359
0.680428
0.655434
0.641169
0.633011
0.625938
0.619739
0.614266
0.614641
0.617051
0.622452
0.63137
0.642624
0.653444
0.660833
0.661209
0.653622
0.635256
0.600527
0.880324
0.873936
0.862414
0.84865
0.836019
0.827791
0.8261
0.829389
0.834694
0.83777
0.83315
0.813373
0.77809
0.735599
0.687796
0.651311
0.631478
0.621548
0.616265
0.610795
0.60972
0.610185
0.611924
0.615988
0.623376
0.634538
0.648199
0.661633
0.672323
0.676515
0.672229
0.657
0.619998
0.875894
0.870018
0.859533
0.847514
0.8382
0.835001
0.837854
0.844892
0.853122
0.857509
0.850084
0.825122
0.779139
0.716237
0.662051
0.630017
0.613
0.60422
0.601029
0.603822
0.605109
0.606257
0.609336
0.614986
0.62428
0.637222
0.654017
0.670353
0.684472
0.692745
0.69224
0.680199
0.64441
0.874438
0.869028
0.859514
0.850601
0.846605
0.848484
0.855425
0.865417
0.875464
0.879577
0.87086
0.839467
0.776733
0.700942
0.643943
0.612267
0.599163
0.596047
0.597651
0.59939
0.601732
0.604478
0.608852
0.616368
0.627682
0.642836
0.661154
0.6806
0.697877
0.709275
0.712006
0.70296
0.671788
0.874656
0.870537
0.863658
0.858975
0.859715
0.865851
0.876092
0.887842
0.897983
0.902483
0.893107
0.8546
0.77738
0.69269
0.639002
0.61293
0.601272
0.597537
0.597544
0.599611
0.602747
0.606789
0.612775
0.622194
0.635945
0.65308
0.672931
0.693206
0.712775
0.725302
0.730791
0.724183
0.698172
0.877536
0.875043
0.871485
0.870802
0.875679
0.884916
0.897067
0.908923
0.9191
0.923474
0.91298
0.86922
0.783647
0.699053
0.644791
0.618408
0.606689
0.602506
0.60246
0.605225
0.609239
0.614912
0.623275
0.635055
0.651268
0.670282
0.690345
0.710028
0.728926
0.741261
0.747921
0.742906
0.719716
0.882431
0.88215
0.882154
0.884933
0.892853
0.903799
0.916279
0.927274
0.936864
0.940403
0.928987
0.884234
0.802328
0.716064
0.659838
0.63182
0.619356
0.614956
0.614558
0.617679
0.622996
0.630486
0.640567
0.654675
0.672423
0.69234
0.71251
0.730968
0.747202
0.758894
0.763147
0.757817
0.734976
0.888516
0.89094
0.89418
0.899744
0.909606
0.920895
0.932615
0.94192
0.94974
0.951517
0.939176
0.897558
0.823228
0.742582
0.684679
0.653213
0.638589
0.633348
0.632522
0.636124
0.642531
0.651259
0.662743
0.678061
0.696257
0.716191
0.73583
0.75254
0.765463
0.774709
0.776211
0.768391
0.744872
0.895
0.900372
0.906304
0.913965
0.924699
0.93512
0.945106
0.952032
0.956935
0.955252
0.942129
0.903582
0.840734
0.77046
0.713349
0.678626
0.661222
0.654876
0.654219
0.657749
0.664889
0.674553
0.687066
0.701882
0.718694
0.736679
0.754596
0.769518
0.780386
0.78728
0.78657
0.775458
0.749943
0.90139
0.909238
0.917704
0.926575
0.937371
0.946239
0.953607
0.95749
0.95897
0.953279
0.937569
0.901948
0.85022
0.792145
0.741312
0.704979
0.685415
0.677313
0.675856
0.680543
0.687958
0.698513
0.710575
0.721847
0.734254
0.747603
0.762793
0.777224
0.788347
0.794864
0.793319
0.77996
0.751381
0.907138
0.916997
0.927562
0.936996
0.947207
0.953976
0.958226
0.958945
0.956741
0.947024
0.927913
0.895049
0.852189
0.805344
0.7625
0.728948
0.708418
0.700275
0.698905
0.702962
0.71074
0.720003
0.727981
0.732815
0.738128
0.748077
0.761736
0.776298
0.788555
0.796791
0.797495
0.783624
0.752624
0.911548
0.923563
0.935416
0.944877
0.953633
0.957945
0.959467
0.957063
0.950665
0.936975
0.915512
0.885044
0.849011
0.811125
0.776448
0.748059
0.729328
0.721768
0.720489
0.724594
0.732205
0.735212
0.733616
0.734553
0.737664
0.743867
0.755864
0.77087
0.785274
0.795676
0.801356
0.786951
0.757124
0.91512
0.928708
0.941017
0.949889
0.956642
0.958955
0.958074
0.952329
0.942099
0.925603
0.902758
0.874175
0.843085
0.812195
0.784702
0.762347
0.747783
0.741161
0.740656
0.743526
0.744195
0.745665
0.743623
0.740337
0.738402
0.740467
0.748825
0.764284
0.780908
0.79433
0.804059
0.794378
0.767241
0.917758
0.932474
0.944096
0.952262
0.956856
0.958099
0.954443
0.945728
0.932564
0.914129
0.890595
0.863565
0.836024
0.810161
0.78838
0.771876
0.761875
0.757403
0.757414
0.75978
0.759338
0.758697
0.754575
0.749181
0.743259
0.741978
0.747315
0.762027
0.780358
0.797447
0.809353
0.806671
0.783462
0.919326
0.934538
0.945036
0.952763
0.955189
0.954508
0.948933
0.9381
0.922843
0.903209
0.879584
0.853594
0.828626
0.806477
0.789049
0.77763
0.771882
0.770759
0.772732
0.775441
0.773851
0.77313
0.769231
0.762118
0.754132
0.750384
0.753528
0.767889
0.784696
0.806458
0.818719
0.81992
0.801197
0.919971
0.934813
0.944613
0.95086
0.951952
0.949059
0.941992
0.929839
0.913214
0.893247
0.870149
0.844986
0.821386
0.801364
0.787044
0.779009
0.776784
0.778895
0.783156
0.786856
0.789351
0.788366
0.785169
0.77865
0.770206
0.765303
0.764527
0.771497
0.789435
0.812557
0.824963
0.82761
0.812597
0.919244
0.933155
0.942273
0.946921
0.947148
0.942617
0.933973
0.921131
0.904115
0.884301
0.861792
0.837714
0.815004
0.795882
0.782675
0.776618
0.777083
0.782193
0.789827
0.797147
0.801535
0.802556
0.800489
0.794707
0.788204
0.781535
0.778269
0.780923
0.791624
0.808796
0.822199
0.826327
0.815777
0.916961
0.929772
0.937879
0.94119
0.941041
0.935633
0.92721
0.912338
0.896165
0.87684
0.855088
0.831688
0.809461
0.790701
0.77743
0.771411
0.772879
0.779622
0.790066
0.801054
0.808804
0.81162
0.811026
0.805784
0.799555
0.792909
0.789428
0.78867
0.792267
0.799783
0.808588
0.814483
0.811906
0.912767
0.924895
0.932038
0.934681
0.934116
0.928746
0.919587
0.903739
0.889604
0.870989
0.849859
0.827261
0.805331
0.786558
0.773044
0.766315
0.766917
0.77319
0.784694
0.797405
0.806894
0.812275
0.8136
0.809498
0.801568
0.795782
0.792511
0.789453
0.787386
0.787273
0.790765
0.798911
0.811301
0.955886
0.98091
1.00434
1.02142
1.03148
1.03703
1.03956
1.03948
0.953837
0.977668
0.999654
1.01709
1.02854
1.0329
1.03342
1.03113
0.950815
0.972692
0.993421
1.01138
1.02223
1.02586
1.02517
1.02005
0.94673
0.966114
0.984822
1.00117
1.01062
1.01412
1.01293
1.0062
0.942704
0.958439
0.973658
0.987248
0.995535
0.998721
0.996983
0.990565
0.937019
0.948637
0.960016
0.970612
0.978809
0.982527
0.982081
0.977482
0.928787
0.936791
0.945039
0.953664
0.962048
0.967578
0.971769
0.971759
0.916711
0.922766
0.929698
0.937829
0.947536
0.957047
0.967685
0.974715
0.89956
0.906324
0.914613
0.924847
0.938022
0.953477
0.970292
0.98348
0.878086
0.888945
0.901143
0.915173
0.933506
0.955079
0.977191
0.995766
0.855296
0.871698
0.889939
0.911414
0.93543
0.961118
0.986147
1.00505
0.833089
0.857556
0.882696
0.909728
0.938301
0.966668
0.991482
1.00819
0.815023
0.845057
0.875808
0.907551
0.93907
0.968099
0.991298
1.00562
0.799589