/*--------------------------------*- C++ -*----------------------------------*\
  =========                 |
  \\      /  F ield         | OpenFOAM: The Open Source CFD Toolbox
   \\    /   O peration     | Website:  https://openfoam.org
    \\  /    A nd           | Version:  10
     \\/     M anipulation  |
\*---------------------------------------------------------------------------*/
FoamFile
{
    format      ascii;
    class       surfaceScalarField;
    location    "0.451496";
    object      phi;
}
// * * * * * * * * * * * * * * * * * * * * * * * * * * * * * * * * * * * * * //

dimensions      [1 0 -1 0 0 0 0];

internalField   nonuniform List<scalar> 
32368
(
0.000238008
-2.8869e-05
0.000230326
-1.26135e-05
0.000214464
1.02449e-06
0.000186041
1.35182e-05
0.000161266
2.80556e-05
0.000138517
4.81926e-05
0.000115895
7.13763e-05
9.50144e-05
9.53208e-05
7.81739e-05
0.000118994
6.6284e-05
0.000142092
6.25453e-05
0.000164342
6.21075e-05
0.000188666
6.22832e-05
0.000206142
6.31234e-05
0.000217347
6.54644e-05
0.000223939
6.9651e-05
0.000226919
7.45446e-05
0.000226113
8.00249e-05
0.000222128
8.41601e-05
0.000213602
8.48175e-05
0.000200528
8.15155e-05
0.000185546
7.49186e-05
0.000170306
6.63153e-05
0.000154919
5.77918e-05
0.000137761
5.16869e-05
0.000117245
4.86357e-05
9.38239e-05
4.8245e-05
6.71634e-05
4.90735e-05
3.97267e-05
4.72914e-05
1.25327e-05
4.42668e-05
-1.28129e-05
4.22516e-05
-3.58754e-05
3.89558e-05
-5.81221e-05
-7.84812e-05
3.56246e-05
0.000207061
-3.55663e-05
0.000204851
-1.71201e-05
0.000192701
-4.01163e-06
0.000167201
8.30671e-06
0.000145881
2.39552e-05
0.000126999
4.429e-05
0.000108995
6.67816e-05
9.27134e-05
8.89975e-05
7.94275e-05
0.000109673
7.03929e-05
0.000127996
6.72075e-05
0.000146522
6.53845e-05
0.000166248
6.26644e-05
0.000180518
5.99684e-05
0.000188718
5.79792e-05
0.000193272
5.79574e-05
0.000194326
5.97073e-05
0.000191424
6.27379e-05
0.000186644
6.54279e-05
0.000180533
6.76572e-05
0.000172893
6.93663e-05
0.000165075
6.94872e-05
0.000157018
6.82583e-05
0.00014632
6.70181e-05
0.000134014
6.62582e-05
0.000119152
6.71276e-05
0.000100444
6.95832e-05
7.84679e-05
7.13517e-05
5.42623e-05
6.85055e-05
2.99107e-05
6.82469e-05
7.37928e-06
6.9099e-05
-1.40068e-05
7.07795e-05
-3.50084e-05
-5.16594e-05
7.33309e-05
0.000170488
-5.85068e-05
0.000178871
-3.86655e-05
0.000173799
-2.26675e-05
0.000153611
-6.96554e-06
0.000137439
1.22513e-05
0.000123326
3.41002e-05
0.000109719
5.67215e-05
9.6999e-05
7.78205e-05
8.59763e-05
9.59488e-05
7.75365e-05
0.000110412
7.31832e-05
0.000122554
6.88093e-05
0.000134666
6.39524e-05
0.000144911
5.83181e-05
0.000151857
5.35106e-05
0.00015555
5.07205e-05
0.000156488
5.02724e-05
0.000155861
5.27535e-05
0.000155034
5.75458e-05
0.000154166
6.35219e-05
0.000152374
6.97657e-05
0.000148472
7.56264e-05
0.000143505
8.01765e-05
0.000137517
8.30747e-05
0.00012939
8.53259e-05
0.000118618
8.74265e-05
0.000104087
8.83418e-05
8.51491e-05
8.54466e-05
6.39632e-05
8.65468e-05
4.37176e-05
9.03139e-05
2.42204e-05
9.54283e-05
4.68631e-06
0.00010495
-1.47337e-05
-2.66779e-05
0.000112431
0.000129603
-9.37068e-05
0.000152946
-7.32501e-05
0.00016167
-5.24026e-05
0.000148453
-3.07593e-05
0.000137194
-4.70227e-06
0.000127249
2.01551e-05
0.000117053
4.36971e-05
0.000106615
6.43258e-05
9.64041e-05
8.07839e-05
8.69357e-05
9.29037e-05
7.93186e-05
0.000101177
7.2007e-05
0.000107087
6.41049e-05
0.000110831
5.68205e-05
0.00011433
5.10884e-05
0.000117438
4.83671e-05
0.000121693
4.91486e-05
0.000126152
5.3148e-05
0.000129677
6.03399e-05
0.000132175
6.96651e-05
0.000133413
7.96747e-05
0.0001331
8.8448e-05
0.000131172
9.55053e-05
0.000127296
0.000100285
0.000120852
0.000102204
0.000111447
9.95156e-05
9.89823e-05
9.66696e-05
8.52848e-05
9.79144e-05
7.07689e-05
0.000103363
5.46761e-05
0.000111583
3.73967e-05
0.000124517
1.91235e-05
0.000140509
4.59872e-06
-2.98996e-06
0.000150274
8.13288e-05
-0.000121837
0.000118569
-0.000105341
0.000147645
-8.45564e-05
0.00015307
-5.83341e-05
0.00014654
-2.51444e-05
0.000138866
4.734e-06
0.00013002
3.04898e-05
0.000119998
5.12395e-05
0.000109114
6.68613e-05
9.78784e-05
7.7356e-05
8.7308e-05
8.39641e-05
7.69037e-05
8.74204e-05
6.66986e-05
8.92265e-05
5.80937e-05
9.02169e-05
5.23973e-05
9.18661e-05
5.02864e-05
9.4656e-05
5.23566e-05
9.87804e-05
5.83978e-05
0.000103397
6.73504e-05
0.000107306
7.7906e-05
0.000109936
8.87002e-05
0.000110725
9.79801e-05
0.000109682
0.000104988
0.000106447
0.000108455
0.000101794
0.000108236
9.66361e-05
0.000107475
9.09776e-05
0.000108805
8.37859e-05
0.000113196
7.45993e-05
0.000121125
6.23923e-05
0.000134747
4.7384e-05
0.000155255
3.27778e-05
0.000173303
2.15233e-05
1.87169e-05
0.000183258
4.66609e-05
-0.000123557
8.5021e-05
-0.000112318
0.00012248
-9.6904e-05
0.000149216
-7.4913e-05
0.000158657
-4.3404e-05
0.000156018
-1.03912e-05
0.000147823
1.75548e-05
0.000135772
4.04463e-05
0.000122395
5.66228e-05
0.000108437
6.69984e-05
9.52423e-05
7.19594e-05
8.33935e-05
7.35039e-05
7.29159e-05
7.38095e-05
6.48777e-05
7.46131e-05
6.00724e-05
7.66347e-05
5.89068e-05
7.96106e-05
6.13895e-05
8.33697e-05
6.7204e-05
8.70812e-05
7.55068e-05
9.0125e-05
8.52759e-05
9.20179e-05
9.53375e-05
9.24514e-05
0.000105257
9.09988e-05
0.000112796
8.85552e-05
0.000117595
8.59762e-05
0.000120193
8.34478e-05
0.000122051
8.12433e-05
0.000125112
7.82074e-05
0.000131606
7.32448e-05
0.000144997
6.57399e-05
0.000164683
5.56661e-05
0.00018404
4.45788e-05
0.000198525
3.74152e-05
3.79303e-05
0.000207282
6.22339e-05
-0.000125639
8.72038e-05
-0.000110842
0.000113493
-9.31763e-05
0.000136835
-7.36849e-05
0.000153872
-4.94459e-05
0.000159818
-2.17323e-05
0.000153458
4.64529e-06
0.000141621
2.71363e-05
0.000127512
4.32595e-05
0.000112916
5.39397e-05
9.91139e-05
5.95417e-05
8.73178e-05
6.20226e-05
7.81494e-05
6.31823e-05
7.21177e-05
6.44767e-05
6.9452e-05
6.64347e-05
6.99573e-05
6.90874e-05
7.33988e-05
7.20273e-05
7.93195e-05
7.47924e-05
8.73233e-05
7.68455e-05
9.66227e-05
7.78618e-05
0.00010673
7.73006e-05
0.000116365
7.52417e-05
0.000124386
7.28467e-05
0.00013058
7.03025e-05
0.000135382
6.82913e-05
0.000140124
6.75528e-05
0.000147592
6.72518e-05
0.000160537
6.63004e-05
0.000173589
6.30808e-05
0.000186773
5.80164e-05
0.000199276
5.2534e-05
0.000209366
4.93054e-05
5.25119e-05
0.000216728
0.000108514
-0.000132876
0.000131872
-0.000116823
0.000151234
-9.59889e-05
0.000164444
-7.27031e-05
0.000172774
-4.80122e-05
0.000172449
-2.41593e-05
0.000162551
-2.79111e-06
0.000146824
1.51646e-05
0.000128898
2.91276e-05
0.000112288
3.90545e-05
9.86459e-05
4.53207e-05
8.82528e-05
4.92401e-05
8.12252e-05
5.19326e-05
7.77277e-05
5.44788e-05
7.72885e-05
5.71124e-05
7.96331e-05
6.00544e-05
8.42537e-05
6.27857e-05
9.07787e-05
6.49163e-05
9.87512e-05
6.6003e-05
0.000107954
6.57521e-05
0.000117788
6.42381e-05
0.000127367
6.1533e-05
0.000136735
5.8178e-05
0.000145634
5.45877e-05
0.000154848
5.14932e-05
0.000164535
4.98693e-05
0.000172335
4.93142e-05
0.000179061
4.99821e-05
0.000183853
5.1282e-05
0.000188991
5.23149e-05
0.000196123
5.22869e-05
0.000203019
5.39935e-05
5.98522e-05
0.000209485
0.000158179
-0.00014624
0.000181341
-0.000127288
0.000198599
-0.000103137
0.000207541
-7.6528e-05
0.000206906
-5.01082e-05
0.000196313
-2.63963e-05
0.000178539
-7.17998e-06
0.000157138
7.59615e-06
0.000135269
1.85975e-05
0.00011639
2.66227e-05
0.000101642
3.28774e-05
9.15076e-05
3.75492e-05
8.57835e-05
4.154e-05
8.39169e-05
4.50479e-05
8.49257e-05
4.84257e-05
8.84027e-05
5.14025e-05
9.3814e-05
5.36681e-05
0.000100757
5.49779e-05
0.000109131
5.5125e-05
0.000118307
5.38788e-05
0.000128023
5.12111e-05
0.000137861
4.72539e-05
0.000147653
4.24013e-05
0.000156859
3.72147e-05
0.000165466
3.2742e-05
0.000172145
2.96379e-05
0.000176067
2.89752e-05
0.000176859
3.09455e-05
0.000174302
3.54985e-05
0.000172445
3.98436e-05
0.000176897
4.42086e-05
0.000183057
5.01025e-05
5.89688e-05
0.000188985
0.00020007
-0.000159782
0.00022071
-0.000138837
0.000234941
-0.000112873
0.000239393
-8.4345e-05
0.000232928
-5.62882e-05
0.000216178
-3.1674e-05
0.000192514
-1.19518e-05
0.000165724
2.33046e-06
0.000140151
1.24183e-05
0.000119171
1.9616e-05
0.000104099
2.48542e-05
9.48244e-05
2.91351e-05
9.04471e-05
3.38253e-05
8.97716e-05
3.81515e-05
9.15807e-05
4.16511e-05
9.51526e-05
4.4328e-05
0.000100482
4.57745e-05
0.000106928
4.61491e-05
0.000114293
4.51838e-05
0.000122081
4.28458e-05
0.000130029
3.91024e-05
0.000137903
3.41508e-05
0.000145036
2.8422e-05
0.000150604
2.25828e-05
0.000153475
1.76688e-05
0.000152974
1.43607e-05
0.000149603
1.36469e-05
0.000144618
1.56949e-05
0.000139839
1.97255e-05
0.000143361
2.45736e-05
0.000151013
3.15274e-05
0.000155436
4.02694e-05
5.22577e-05
0.000158212
0.000236282
-0.000174849
0.000255747
-0.000152253
0.000265099
-0.00012388
0.000263352
-9.34067e-05
0.000250224
-6.38076e-05
0.000227891
-3.79744e-05
0.000200244
-1.76305e-05
0.000171302
-2.25648e-06
0.000144704
8.77725e-06
0.000122612
1.68814e-05
0.000106434
2.2631e-05
9.59041e-05
2.6902e-05
9.04426e-05
3.05725e-05
8.88929e-05
3.33745e-05
9.02027e-05
3.56881e-05
9.34903e-05
3.72881e-05
9.78018e-05
3.78485e-05
0.000102792
3.7239e-05
0.00010804
3.54195e-05
0.000113168
3.24017e-05
0.000117512
2.83178e-05
0.000120846
2.35239e-05
0.000122536
1.84069e-05
0.000122574
1.34541e-05
0.000121477
9.48647e-06
0.000119578
6.93127e-06
0.000116975
6.35638e-06
0.000114104
7.55031e-06
0.000116417
9.44375e-06
0.000124621
1.3198e-05
0.000127121
1.9915e-05
0.000123764
3.04778e-05
4.5408e-05
0.000118665
0.000267646
-0.000189334
0.00028185
-0.000162957
0.000284666
-0.000132034
0.000275573
-0.00010019
0.000256116
-6.98245e-05
0.000230098
-4.37923e-05
0.000201481
-2.26815e-05
0.000172692
-5.91095e-06
0.000147017
6.96283e-06
0.000126177
1.68061e-05
0.000110836
2.31692e-05
0.000100369
2.77591e-05
9.39184e-05
3.10441e-05
9.05405e-05
3.33827e-05
8.95072e-05
3.47402e-05
9.02018e-05
3.51025e-05
9.21003e-05
3.44787e-05
9.46767e-05
3.28775e-05
9.74425e-05
3.02995e-05
0.000100033
2.69932e-05
0.00010216
2.30077e-05
0.000103734
1.87092e-05
0.000104329
1.43766e-05
0.000103827
1.0343e-05
0.000102638
7.09977e-06
0.000100591
5.12986e-06
9.77877e-05
4.18487e-06
9.6996e-05
3.61724e-06
0.000104311
3.68718e-06
0.000107164
6.3754e-06
9.95845e-05
1.36066e-05
8.67077e-05
2.62705e-05
4.02975e-05
7.10192e-05
0.000288167
-0.000196863
0.000293327
-0.000165363
0.000287931
-0.000132508
0.000272301
-0.000100702
0.000249472
-7.15217e-05
0.000223377
-4.65837e-05
0.000196725
-2.58467e-05
0.000169714
-8.7611e-06
0.000145799
6.31894e-06
0.000126634
1.75234e-05
0.000112728
2.45697e-05
0.000102955
2.98821e-05
9.63329e-05
3.33893e-05
9.21931e-05
3.52693e-05
8.9917e-05
3.59138e-05
8.89644e-05
3.54545e-05
8.89661e-05
3.40371e-05
8.94454e-05
3.1822e-05
9.01487e-05
2.88906e-05
9.07457e-05
2.55245e-05
9.09973e-05
2.18743e-05
9.08373e-05
1.82755e-05
8.97343e-05
1.48889e-05
8.76908e-05
1.18069e-05
8.5152e-05
9.33395e-06
8.21818e-05
7.50177e-06
7.99395e-05
5.75151e-06
8.3302e-05
3.94923e-06
8.85344e-05
4.27242e-06
8.09006e-05
7.63631e-06
6.47203e-05
1.60177e-05
4.49576e-05
2.55246e-05
2.92327e-05
3.29633e-05
0.00028452
-0.000191384
0.000280344
-0.000158296
0.000267473
-0.000126172
0.000247407
-9.61415e-05
0.000224067
-6.93314e-05
0.000201074
-4.64202e-05
0.000179713
-2.67033e-05
0.000159427
-9.38785e-06
0.000139645
6.0698e-06
0.000123434
1.80455e-05
0.000110635
2.67553e-05
0.000101095
3.27948e-05
9.43092e-05
3.63405e-05
8.95927e-05
3.79771e-05
8.63651e-05
3.82038e-05
8.4175e-05
3.7315e-05
8.26214e-05
3.55711e-05
8.14263e-05
3.31135e-05
8.01775e-05
3.03897e-05
7.86313e-05
2.74504e-05
7.68855e-05
2.44973e-05
7.46632e-05
2.18617e-05
7.14743e-05
1.95171e-05
6.7561e-05
1.75021e-05
6.32451e-05
1.58171e-05
5.95337e-05
1.35333e-05
5.93691e-05
1.06965e-05
6.27233e-05
1.04141e-05
5.51369e-05
1.24651e-05
3.84963e-05
1.76916e-05
2.18667e-05
1.80362e-05
1.54222e-05
1.47261e-05
1.04507e-05
1.85087e-05
0.00025978
-0.000180603
0.000247837
-0.000148631
0.000229353
-0.000118553
0.000207137
-9.08049e-05
0.000185492
-6.67386e-05
0.000166746
-4.58782e-05
0.000150695
-2.75136e-05
0.000136909
-9.88539e-06
0.000125144
5.48488e-06
0.00011457
1.81948e-05
0.000103807
2.89388e-05
9.4439e-05
3.61345e-05
8.71032e-05
4.00796e-05
8.15695e-05
4.16735e-05
7.72869e-05
4.16889e-05
7.38567e-05
4.06198e-05
7.08385e-05
3.8908e-05
6.79185e-05
3.68248e-05
6.48957e-05
3.46443e-05
6.15784e-05
3.24366e-05
5.79485e-05
3.04943e-05
5.37238e-05
2.89326e-05
4.88686e-05
2.75238e-05
4.36295e-05
2.64302e-05
3.89717e-05
2.45897e-05
3.66684e-05
2.17419e-05
3.76232e-05
2.17095e-05
3.03726e-05
2.3406e-05
1.62112e-05
2.63306e-05
5.23324e-06
2.15915e-05
4.84795e-06
9.06217e-06
1.25404e-05
-4.0233e-06
-1.38188e-05
2.28723e-05
0.000219681
-0.00016901
0.000200772
-0.000140044
0.000177568
-0.000112905
0.000154931
-8.82994e-05
0.000135998
-6.65422e-05
0.000121758
-4.71369e-05
0.000111865
-2.95035e-05
0.000104524
-1.21612e-05
9.95134e-05
2.92208e-06
9.36246e-05
1.79479e-05
8.6853e-05
3.03546e-05
7.96643e-05
3.90425e-05
7.27063e-05
4.40307e-05
6.65078e-05
4.62025e-05
6.13375e-05
4.63927e-05
5.66821e-05
4.55215e-05
5.23633e-05
4.42448e-05
4.81085e-05
4.26882e-05
4.36526e-05
4.12311e-05
3.90034e-05
3.9919e-05
3.40562e-05
3.90617e-05
2.85894e-05
3.8503e-05
2.26879e-05
3.80451e-05
1.68505e-05
3.72967e-05
1.29769e-05
3.47637e-05
1.14216e-05
3.5151e-05
4.76955e-06
3.62752e-05
-6.28249e-06
3.83057e-05
-1.2943e-05
3.25338e-05
-8.89156e-06
1.40108e-05
4.59321e-06
-9.78198e-06
1.75316e-05
-2.593e-05
-3.44775e-05
2.54441e-05
0.000160481
-0.000155124
0.000135409
-0.000129136
0.000110792
-0.000106647
9.10082e-05
-8.65713e-05
7.69259e-05
-6.74487e-05
6.88375e-05
-4.93135e-05
6.47059e-05
-3.22924e-05
6.35833e-05
-1.59038e-05
6.29418e-05
9.55427e-08
6.03094e-05
1.73997e-05
5.63165e-05
3.15167e-05
5.14035e-05
4.15769e-05
4.62545e-05
4.75924e-05
4.14275e-05
5.05271e-05
3.66336e-05
5.15155e-05
3.20089e-05
5.13904e-05
2.73309e-05
5.07499e-05
2.2539e-05
4.98797e-05
1.76987e-05
4.92554e-05
1.25719e-05
4.91321e-05
6.81235e-06
4.9583e-05
3.68415e-07
5.01383e-05
-6.30687e-06
5.02356e-05
-1.15807e-05
4.85988e-05
-1.6298e-05
4.9426e-05
-2.38688e-05
5.19414e-05
-3.2433e-05
5.18859e-05
-3.44001e-05
4.38623e-05
-2.6248e-05
2.51572e-05
-9.92653e-06
-3.53096e-06
7.22875e-06
-3.07011e-05
1.70859e-05
-4.25196e-05
-4.71743e-05
2.03013e-05
8.1929e-05
-0.000136447
5.50612e-05
-0.000115933
3.44831e-05
-9.8978e-05
2.11385e-05
-8.26525e-05
1.38654e-05
-6.62958e-05
1.20461e-05
-5.05405e-05
1.27867e-05
-3.41028e-05
1.49981e-05
-1.85481e-05
1.58678e-05
-1.00724e-06
1.55784e-05
1.6895e-05
1.46436e-05
3.16357e-05
1.28855e-05
4.28482e-05
1.06706e-05
5.00746e-05
7.91246e-06
5.4359e-05
4.7197e-06
5.65026e-05
1.16977e-06
5.7216e-05
-2.83837e-06
5.75325e-05
-6.84176e-06
5.77996e-05
-1.14635e-05
5.84764e-05
-1.69552e-05
5.96935e-05
-2.30123e-05
6.10484e-05
-2.91681e-05
6.1995e-05
-3.56005e-05
6.2528e-05
-4.38803e-05
6.52706e-05
-5.24674e-05
6.78453e-05
-5.8386e-05
6.62126e-05
-5.67136e-05
5.64061e-05
-4.70963e-05
3.75582e-05
-3.22016e-05
1.13604e-05
-9.27255e-06
-2.65758e-05
3.93788e-06
-4.58332e-05
1.00691e-05
-5.16059e-05
-5.27436e-05
1.03006e-05
-2.90781e-06
-0.000118773
-2.39862e-05
-0.000104046
-3.70131e-05
-9.06889e-05
-4.38204e-05
-7.62447e-05
-4.54272e-05
-6.21097e-05
-4.41103e-05
-4.77645e-05
-4.13429e-05
-3.22484e-05
-3.86968e-05
-1.71565e-05
-3.63488e-05
-6.69915e-07
-3.34487e-05
1.55041e-05
-3.15899e-05
3.05876e-05
-3.03767e-05
4.247e-05
-2.97098e-05
5.11641e-05
-2.97491e-05
5.67247e-05
-3.04974e-05
6.02448e-05
-3.20373e-05
6.25343e-05
-3.4575e-05
6.43423e-05
-3.80477e-05
6.62047e-05
-4.25617e-05
6.84437e-05
-4.76475e-05
7.06515e-05
-5.3168e-05
7.2396e-05
-6.10914e-05
7.54818e-05
-7.20498e-05
8.03231e-05
-8.07177e-05
8.33061e-05
-8.39426e-05
8.03916e-05
-7.97243e-05
6.90901e-05
-6.97155e-05
5.06596e-05
-5.59315e-05
2.62932e-05
-3.11669e-05
-1.14266e-05
-1.40243e-05
-4.18496e-05
-4.88952e-06
-5.31681e-05
-2.97318e-07
-5.5387e-05
-5.59275e-05
2.95548e-07
-8.13191e-05
-0.000103888
-9.33585e-05
-9.13462e-05
-9.92661e-05
-7.92736e-05
-0.000100306
-6.6772e-05
-9.81701e-05
-5.46699e-05
-9.44942e-05
-4.11527e-05
-8.95836e-05
-2.6848e-05
-8.51215e-05
-1.28363e-05
-8.23294e-05
1.59603e-06
-7.91965e-05
1.59843e-05
-7.5452e-05
3.00467e-05
-7.1846e-05
4.19529e-05
-6.86581e-05
5.15574e-05
-6.6228e-05
5.86518e-05
-6.53382e-05
6.40119e-05
-6.58466e-05
6.81645e-05
-6.75871e-05
7.16149e-05
-7.04115e-05
7.50179e-05
-7.43317e-05
7.84978e-05
-7.91061e-05
8.14872e-05
-8.82563e-05
8.71398e-05
-0.000100616
9.39318e-05
-0.000108213
9.68841e-05
-0.000109348
9.36415e-05
-0.000102541
8.1847e-05
-9.20263e-05
6.32267e-05
-7.8802e-05
4.06523e-05
-5.82165e-05
8.15034e-06
-3.41786e-05
-3.15373e-05
-2.0936e-05
-4.84613e-05
-1.38385e-05
-5.56898e-05
-1.04392e-05
-5.67529e-05
-5.63364e-05
-1.00637e-05
-0.00014521
-9.01732e-05
-0.000149102
-7.84165e-05
-0.000148618
-6.63705e-05
-0.000146033
-5.56401e-05
-0.000142527
-4.52251e-05
-0.000137285
-3.32716e-05
-0.000130681
-2.02798e-05
-0.000124347
-7.36181e-06
-0.000119817
5.46632e-06
-0.000116508
1.84316e-05
-0.000112568
3.13863e-05
-0.000108157
4.30357e-05
-0.000104351
5.30826e-05
-0.000101469
6.14064e-05
-9.97421e-05
6.82729e-05
-9.92192e-05
7.39174e-05
-0.000100053
7.90141e-05
-0.000102356
8.3936e-05
-0.000107365
8.98984e-05
-0.000117875
9.75642e-05
-0.000129569
0.000105724
-0.000134793
0.000108262
-0.000133961
0.00010503
-0.000125559
9.32376e-05
-0.000114156
7.54159e-05
-0.00010195
5.45261e-05
-8.29081e-05
2.47172e-05
-5.62094e-05
-1.3641e-05
-3.86002e-05
-4.03871e-05
-2.88972e-05
-5.34716e-05
-2.29469e-05
-5.92333e-05
-2.03798e-05
-5.88449e-05
-5.89437e-05
-2.10628e-05
-0.000202303
-7.9487e-05
-0.000196721
-6.83191e-05
-0.000188119
-5.69606e-05
-0.000182441
-4.71994e-05
-0.000178446
-3.73818e-05
-0.0001733
-2.61839e-05
-0.00016672
-1.4252e-05
-0.000159882
-2.13606e-06
-0.000154025
9.88589e-06
-0.000149813
2.18525e-05
-0.000145797
3.39703e-05
-0.000141279
4.53145e-05
-0.00013722
5.55657e-05
-0.000133914
6.48524e-05
-0.000131751
7.30809e-05
-0.000130997
8.03378e-05
-0.000132687
8.79397e-05
-0.000139283
9.7427e-05
-0.000149955
0.00010704
-0.000158613
0.000114461
-0.00016042
0.000116976
-0.000157278
0.000113853
-0.000147162
0.000102566
-0.000135326
8.62135e-05
-0.000123566
6.72392e-05
-0.000106267
4.04262e-05
-8.14676e-05
4.84225e-06
-5.75902e-05
-2.83526e-05
-4.58387e-05
-4.78602e-05
-3.78371e-05
-5.90964e-05
-3.35111e-05
-6.23782e-05
-3.22408e-05
-6.13615e-05
-6.27799e-05
-3.32569e-05
-0.000255716
-7.10047e-05
-0.000243551
-6.12732e-05
-0.000229262
-5.14106e-05
-0.00022018
-4.19369e-05
-0.000213408
-3.25775e-05
-0.000206397
-2.17118e-05
-0.000199191
-1.01037e-05
-0.000192153
1.7952e-06
-0.000185431
1.36422e-05
-0.000179888
2.52837e-05
-0.000175326
3.71334e-05
-0.000171012
4.87992e-05
-0.000167322
5.95616e-05
-0.000164247
6.9585e-05
-0.000163672
8.00957e-05
-0.000167707
9.18056e-05
-0.000176341
0.000103413
-0.000183649
0.000113801
-0.000186632
0.00012008
-0.000185067
0.000122639
-0.000178601
0.000119382
-0.000166827
0.000109247
-0.000154763
9.51544e-05
-0.000143163
7.82189e-05
-0.000127012
5.42284e-05
-0.000103733
2.18727e-05
-7.82849e-05
-1.19844e-05
-6.3792e-05
-3.89198e-05
-5.40818e-05
-5.56543e-05
-4.8506e-05
-6.32218e-05
-4.58175e-05
-6.47916e-05
-4.61677e-05
-6.64299e-05
-7.17245e-05
-4.85479e-05
-0.000309215
-6.66755e-05
-0.000292228
-5.79313e-05
-0.000271698
-5.05252e-05
-0.000256591
-4.06623e-05
-0.00024801
-2.98592e-05
-0.000239839
-1.87029e-05
-0.00023148
-7.43684e-06
-0.000223967
4.47087e-06
-0.000216149
1.64232e-05
-0.000209926
2.89814e-05
-0.000205417
4.14045e-05
-0.000201743
5.39457e-05
-0.000200498
6.67016e-05
-0.000203851
8.04539e-05
-0.000209997
9.38369e-05
-0.000214555
0.000105766
-0.000215539
0.000114942
-0.000212886
0.000121716
-0.000207737
0.00012521
-0.000197518
0.000121239
-0.000184422
0.000112904
-0.000172415
0.000101861
-0.000160769
8.71255e-05
-0.000145482
6.58777e-05
-0.000124158
3.69526e-05
-9.88925e-05
3.60378e-06
-8.04146e-05
-2.61045e-05
-7.00312e-05
-4.77699e-05
-6.36971e-05
-6.07862e-05
-6.12492e-05
-6.62486e-05
-6.25154e-05
-7.05746e-05
-6.68721e-05
-7.81923e-05
-8.78839e-05
-7.37098e-05
-0.000363367
-6.7971e-05
-0.000352073
-5.60513e-05
-0.00033634
-5.12145e-05
-0.000316572
-4.16401e-05
-0.000298957
-3.02599e-05
-0.00028507
-1.84613e-05
-0.000273969
-6.26666e-06
-0.00026541
6.56188e-06
-0.000258512
2.00919e-05
-0.000253669
3.39156e-05
-0.000250659
4.80859e-05
-0.000250645
6.25065e-05
-0.000251411
7.68035e-05
-0.00025115
8.99798e-05
-0.000248152
0.000101414
-0.000243312
0.000111721
-0.00023658
0.000119244
-0.000227377
0.000122163
-0.000213747
0.000120135
-0.000199456
0.000113433
-0.000187864
0.000105943
-0.00017572
9.34591e-05
-0.000160717
7.49296e-05
-0.000140711
4.92058e-05
-0.000116984
1.81111e-05
-9.72359e-05
-1.20157e-05
-8.49291e-05
-3.69705e-05
-7.77464e-05
-5.38213e-05
-7.65781e-05
-6.4351e-05
-7.96421e-05
-7.09221e-05
-8.69672e-05
-8.09563e-05
-9.3891e-05
-8.83449e-05
-9.29657e-05
-9.85136e-05
-0.000395641
-6.95335e-05
-0.000385928
-5.67808e-05
-0.000377939
-4.91232e-05
-0.000368232
-3.95499e-05
-0.000356611
-2.88663e-05
-0.000343962
-1.7834e-05
-0.000331405
-5.18529e-06
-0.000320474
8.44361e-06
-0.000311941
2.26961e-05
-0.000304621
3.74172e-05
-0.000297922
5.21612e-05
-0.000291315
6.66777e-05
-0.000283535
8.0372e-05
-0.000274695
9.26881e-05
-0.000266035
0.000103219
-0.000256074
0.000111358
-0.000242219
0.00011478
-0.000226588
0.000114115
-0.000212638
0.000111561
-0.000200787
0.000106367
-0.000188074
9.65379e-05
-0.000172838
8.0858e-05
-0.000153797
5.84609e-05
-0.000131716
3.04323e-05
-0.000111985
9.78613e-07
-9.78083e-05
-2.51889e-05
-8.95368e-05
-4.38994e-05
-8.8569e-05
-5.77304e-05
-9.32568e-05
-6.70037e-05
-0.00010389
-7.82943e-05
-0.000111174
-8.49621e-05
-0.000116894
-8.8215e-05
-8.98885e-05
-0.000125081
-0.000405312
-7.03492e-05
-0.000404005
-5.78983e-05
-0.000401028
-4.76135e-05
-0.000394006
-3.75309e-05
-0.000385806
-2.73917e-05
-0.00037599
-1.67304e-05
-0.000365062
-4.05916e-06
-0.000353166
9.54673e-06
-0.000341433
2.36761e-05
-0.000330227
3.8247e-05
-0.000318955
5.26855e-05
-0.000307995
6.67384e-05
-0.000296396
7.93194e-05
-0.00028309
8.9747e-05
-0.000268132
9.7261e-05
-0.00025182
0.00010223
-0.000236476
0.000105233
-0.000223209
0.000105844
-0.000210677
0.000103194
-0.000197158
9.60573e-05
-0.000181569
8.32313e-05
-0.000163244
6.42189e-05
-0.00014282
3.962e-05
-0.000123639
1.21183e-05
-0.000108996
-1.38426e-05
-9.89539e-05
-3.38188e-05
-9.74291e-05
-4.84244e-05
-0.000102481
-5.94669e-05
-0.000115218
-7.07601e-05
-0.000126372
-7.97099e-05
-0.000134404
-8.24882e-05
-0.000144298
-8.29158e-05
-8.10635e-05
-0.000156082
-0.000384137
-7.25822e-05
-0.000392537
-5.95661e-05
-0.000397924
-4.35043e-05
-0.000394697
-3.49042e-05
-0.000388457
-2.54372e-05
-0.000381433
-1.47187e-05
-0.000372402
-3.25359e-06
-0.00036197
9.36778e-06
-0.000349865
2.25368e-05
-0.000336495
3.57152e-05
-0.000322438
4.85943e-05
-0.000306315
6.05202e-05
-0.000289277
7.10096e-05
-0.000272879
8.02812e-05
-0.000257326
8.77627e-05
-0.000243662
9.35124e-05
-0.000230776
9.67199e-05
-0.000217319
9.63867e-05
-0.000203114
9.18357e-05
-0.000187101
8.188e-05
-0.000169258
6.62407e-05
-0.000150139
4.52593e-05
-0.000131863
2.07225e-05
-0.000117128
-4.08096e-06
-0.00010684
-2.46685e-05
-0.000103034
-3.85761e-05
-0.000108146
-5.03296e-05
-0.000120548
-6.07087e-05
-0.000137319
-7.30037e-05
-0.000148692
-7.62592e-05
-0.000160705
-7.6358e-05
-0.000174222
-7.35593e-05
-7.069e-05
-0.000192883
-0.000352048
-9.41677e-05
-0.000369863
-5.80432e-05
-0.000370279
-4.53662e-05
-0.000368199
-3.34074e-05
-0.000364955
-2.31929e-05
-0.000358797
-1.3434e-05
-0.0003508
-3.28491e-06
-0.000340886
7.63322e-06
-0.000329838
1.89584e-05
-0.000316358
3.05369e-05
-0.000302217
4.19161e-05
-0.000288609
5.30236e-05
-0.000275039
6.33451e-05
-0.000261354
7.23145e-05
-0.000248061
7.94548e-05
-0.000234862
8.44452e-05
-0.000220852
8.61196e-05
-0.000205747
8.39413e-05
-0.000189213
7.69339e-05
-0.000171523
6.47487e-05
-0.00015336
4.75052e-05
-0.000136164
2.63142e-05
-0.000121814
3.74043e-06
-0.000112015
-1.62971e-05
-0.00010679
-3.06202e-05
-0.000110804
-4.16461e-05
-0.000121992
-5.12252e-05
-0.000141586
-6.29666e-05
-0.000158006
-6.95971e-05
-0.000173312
-7.04761e-05
-0.000189655
-6.75822e-05
-0.000210333
-6.3842e-05
-5.91795e-05
-0.000236863
-0.000349305
-0.000109545
-0.000353011
-7.38907e-05
-0.000353168
-4.8925e-05
-0.000353139
-3.48221e-05
-0.000347435
-2.39304e-05
-0.000340181
-1.42603e-05
-0.000331691
-4.80999e-06
-0.000322128
5.03576e-06
-0.000311696
1.51697e-05
-0.000300333
2.56354e-05
-0.000288484
3.61131e-05
-0.000276273
4.63076e-05
-0.000263351
5.56373e-05
-0.000249643
6.35403e-05
-0.000235349
6.94101e-05
-0.000220525
7.28148e-05
-0.000204782
7.29129e-05
-0.000188045
6.87774e-05
-0.000170631
5.99275e-05
-0.000153113
4.63582e-05
-0.000136755
2.88265e-05
-0.000123141
9.19072e-06
-0.000113859
-9.37243e-06
-0.000109413
-2.40221e-05
-0.000110734
-3.37312e-05
-0.000120975
-4.31951e-05
-0.000139421
-5.24978e-05
-0.000161735
-6.29318e-05
-0.000180428
-6.49208e-05
-0.000200235
-6.33343e-05
-0.000224452
-5.93162e-05
-0.00025427
-5.39974e-05
-4.57134e-05
-0.000288088
-0.00032228
-0.000155482
-0.000338733
-9.13256e-05
-0.000342508
-6.02266e-05
-0.000341524
-4.08867e-05
-0.000336547
-2.80131e-05
-0.0003291
-1.76831e-05
-0.000320442
-8.46285e-06
-0.000310564
6.28917e-07
-0.000299751
9.84745e-06
-0.000287991
1.92177e-05
-0.000275403
2.85961e-05
-0.000261922
3.75734e-05
-0.00024753
4.57316e-05
-0.000232382
5.25087e-05
-0.000216687
5.72807e-05
-0.00020059
5.92866e-05
-0.000183847
5.76236e-05
-0.000166853
5.18273e-05
-0.000150082
4.18738e-05
-0.000134549
2.82017e-05
-0.000121688
1.21034e-05
-0.000113232
-4.02448e-06
-0.000109867
-1.78897e-05
-0.000109856
-2.80281e-05
-0.000118194
-3.65193e-05
-0.000133804
-4.46184e-05
-0.000158084
-5.44869e-05
-0.00018102
-5.99424e-05
-0.000204507
-6.00533e-05
-0.000231057
-5.64187e-05
-0.000264001
-5.08815e-05
-0.000299062
-4.19073e-05
-2.84492e-05
-0.000331943
-0.000303536
-0.000203791
-0.000317611
-0.000129085
-0.000326381
-7.85255e-05
-0.000328241
-5.28793e-05
-0.000324784
-3.66644e-05
-0.000317788
-2.4997e-05
-0.00030861
-1.55472e-05
-0.000297917
-6.84447e-06
-0.000285747
1.74287e-06
-0.000272401
1.0333e-05
-0.00025822
1.88144e-05
-0.000243333
2.67902e-05
-0.00022779
3.39574e-05
-0.000211626
3.95337e-05
-0.000195133
4.29756e-05
-0.000178318
4.34488e-05
-0.000161656
4.06165e-05
-0.000145553
3.42268e-05
-0.000130995
2.45277e-05
-0.000119091
1.22972e-05
-0.000111396
-7.96142e-07
-0.00010841
-1.31536e-05
-0.000109064
-2.35267e-05
-0.000114538
-3.07863e-05
-0.000128006
-3.85007e-05
-0.000148712
-4.60598e-05
-0.000175646
-5.47779e-05
-0.000201366
-5.69422e-05
-0.000229694
-5.44557e-05
-0.000263625
-4.91279e-05
-0.000300263
-4.0659e-05
-0.000332652
-2.53814e-05
-8.0845e-06
-0.000361281
-0.000258976
-0.000254549
-0.000290735
-0.000174331
-0.000302082
-0.000111436
-0.000307113
-7.26817e-05
-0.000308635
-5.13939e-05
-0.000302639
-3.75959e-05
-0.00029378
-2.7525e-05
-0.000282563
-1.89434e-05
-0.000269668
-1.06921e-05
-0.000255402
-2.5486e-06
-0.000239901
5.26149e-06
-0.000223573
1.25998e-05
-0.000206841
1.88944e-05
-0.000189883
2.35294e-05
-0.000173084
2.61884e-05
-0.000156811
2.61907e-05
-0.000141624
2.33181e-05
-0.000128299
1.75524e-05
-0.000117581
9.30486e-06
-0.000110445
-4.4853e-07
-0.000107429
-1.0526e-05
-0.000108396
-1.98637e-05
-0.000112206
-2.71969e-05
-0.000122753
-3.35467e-05
-0.000139599
-4.01275e-05
-0.000164569
-4.74131e-05
-0.000192249
-5.29176e-05
-0.000221088
-5.25657e-05
-0.000254264
-4.78928e-05
-0.00029211
-4.04894e-05
-0.000324489
-2.51607e-05
-0.000352934
-6.85568e-06
1.23917e-05
-0.000373178
-0.000207148
-0.000287479
-0.000246958
-0.000225915
-0.000269541
-0.000155482
-0.000282217
-0.000103111
-0.000286692
-7.37593e-05
-0.000285335
-5.72453e-05
-0.000277724
-4.57776e-05
-0.000267131
-3.69658e-05
-0.000253878
-2.88191e-05
-0.000238951
-2.07999e-05
-0.000222936
-1.3019e-05
-0.000206236
-5.75658e-06
-0.00018926
4.23512e-07
-0.000172325
4.47648e-06
-0.000156428
7.71246e-06
-0.000142061
8.44364e-06
-0.00012946
6.1447e-06
-0.00011969
2.32329e-06
-0.000112977
-3.84058e-06
-0.00010975
-1.10819e-05
-0.000110034
-1.85559e-05
-0.00011312
-2.50676e-05
-0.000119465
-2.95676e-05
-0.000133159
-3.53908e-05
-0.000152643
-4.09438e-05
-0.000179517
-4.69999e-05
-0.000208005
-4.92792e-05
-0.00023904
-4.61958e-05
-0.000276408
-3.98717e-05
-0.000310083
-2.71445e-05
-0.000338758
-8.41814e-06
-0.000358971
1.23905e-05
3.11943e-05
-0.000372196
-0.000156397
-0.000303295
-0.000198548
-0.0002679
-0.000235125
-0.000207533
-0.000254746
-0.000145871
-0.000268407
-0.000105924
-0.000273128
-8.44108e-05
-0.000269495
-7.17277e-05
-0.000260285
-6.16131e-05
-0.000248238
-5.31785e-05
-0.000234131
-4.50655e-05
-0.000218383
-3.70083e-05
-0.000201812
-2.9246e-05
-0.00018506
-2.22386e-05
-0.00016907
-1.64856e-05
-0.000154134
-1.23235e-05
-0.000141043
-1.02248e-05
-0.000130729
-1.03638e-05
-0.000123306
-1.25318e-05
-0.000118961
-1.6354e-05
-0.000117461
-2.09771e-05
-0.000118314
-2.53174e-05
-0.00012101
-2.78152e-05
-0.000130046
-3.10283e-05
-0.000144967
-3.55287e-05
-0.000166326
-4.00199e-05
-0.000193379
-4.40425e-05
-0.000222231
-4.33679e-05
-0.000255902
-3.8146e-05
-0.000291895
-2.93775e-05
-0.000320484
-1.17857e-05
-0.000343409
8.66462e-06
-0.000355545
2.94692e-05
4.68498e-05
-0.000366749
-0.000116374
-0.000306657
-0.000152115
-0.000294374
-0.000194098
-0.000253549
-0.000227376
-0.000193969
-0.00024546
-0.000142738
-0.00025306
-0.000112481
-0.000253269
-9.50303e-05
-0.000245838
-8.48091e-05
-0.000235297
-7.56901e-05
-0.000223504
-6.75559e-05
-0.00021073
-5.9439e-05
-0.000197848
-5.15011e-05
-0.000185309
-4.40969e-05
-0.000173514
-3.75461e-05
-0.000162756
-3.2257e-05
-0.0001533
-2.84757e-05
-0.000145536
-2.64241e-05
-0.000139491
-2.60219e-05
-0.000134908
-2.66773e-05
-0.000131625
-2.77047e-05
-0.000129223
-2.81667e-05
-0.000131765
-2.78207e-05
-0.000142648
-3.05445e-05
-0.000158128
-3.3714e-05
-0.000180249
-3.70729e-05
-0.000206468
-3.87071e-05
-0.000235312
-3.55678e-05
-0.00027068
-2.9287e-05
-0.000300782
-1.60914e-05
-0.000325356
3.20594e-06
-0.00034051
2.43779e-05