/*--------------------------------*- C++ -*----------------------------------*\
  =========                 |
  \\      /  F ield         | OpenFOAM: The Open Source CFD Toolbox
   \\    /   O peration     | Website:  https://openfoam.org
    \\  /    A nd           | Version:  10
     \\/     M anipulation  |
\*---------------------------------------------------------------------------*/
FoamFile
{
    format      ascii;
    class       volScalarField;
    location    "0.449345";
    object      p;
}
// * * * * * * * * * * * * * * * * * * * * * * * * * * * * * * * * * * * * * //

dimensions      [1 -1 -2 0 0 0 0];

internalField   nonuniform List<scalar> 
15984
(
2.39535
2.39397
2.39271
2.39176
2.39138
2.39173
2.39299
2.39551
2.39944
2.40509
2.41254
2.42194
2.43332
2.44666
2.46182
2.47858
2.49664
2.5156
2.53503
2.55444
2.57335
2.59133
2.608
2.62306
2.63629
2.64756
2.65684
2.66414
2.66956
2.67322
2.67529
2.67595
2.67548
2.67396
2.67152
2.66835
2.66462
2.66048
2.65605
2.65144
2.64672
2.64196
2.63723
2.63255
2.62796
2.62346
2.61906
2.61476
2.61052
2.60634
2.60218
2.59799
2.59374
2.58939
2.39461
2.39386
2.39316
2.39271
2.39272
2.39333
2.39486
2.39743
2.40139
2.40691
2.41414
2.42321
2.4342
2.44708
2.46177
2.47808
2.49572
2.51434
2.53352
2.55281
2.57174
2.58987
2.60681
2.62224
2.63593
2.64772
2.65756
2.66544
2.67144
2.67567
2.67828
2.67944
2.67937
2.67829
2.6762
2.67332
2.66982
2.66583
2.66149
2.65688
2.65209
2.64719
2.64222
2.63723
2.63224
2.62727
2.62232
2.61738
2.61246
2.60752
2.60255
2.59752
2.59239
2.58714
2.39433
2.39428
2.3942
2.39431
2.39474
2.39573
2.39753
2.40028
2.40429
2.40971
2.41674
2.42549
2.43607
2.44846
2.46261
2.47837
2.49549
2.51365
2.53246
2.55149
2.57031
2.58847
2.60558
2.62132
2.63542
2.64772
2.65812
2.6666
2.67322
2.67806
2.68126
2.68298
2.68339
2.68276
2.68112
2.67858
2.67535
2.67157
2.66735
2.66278
2.65795
2.65292
2.64773
2.64243
2.63705
2.63159
2.62608
2.6205
2.61485
2.60913
2.60332
2.5974
2.59135
2.58515
2.39455
2.39522
2.39582
2.39652
2.3975
2.39892
2.40103
2.40402
2.4081
2.41347
2.42031
2.42875
2.43889
2.45076
2.46432
2.47945
2.49594
2.51352
2.53184
2.5505
2.56909
2.58718
2.60438
2.62035
2.63481
2.64758
2.65853
2.66763
2.67489
2.68038
2.68423
2.68656
2.68755
2.68739
2.68624
2.68413
2.68123
2.67769
2.67363
2.66914
2.66429
2.65915
2.65376
2.64816
2.64238
2.63644
2.63035
2.62411
2.61772
2.61118
2.60449
2.59764
2.59062
2.58343
2.39522
2.39667
2.39801
2.39937
2.40094
2.40284
2.40535
2.40857
2.41279
2.41812
2.42479
2.43291
2.44261
2.45392
2.46683
2.48126
2.49705
2.51395
2.53168
2.54986
2.5681
2.58601
2.60321
2.61934
2.63412
2.64733
2.65883
2.66854
2.67647
2.68266
2.68719
2.69019
2.69181
2.6922
2.69156
2.68993
2.68742
2.68418
2.68032
2.67593
2.6711
2.66587
2.66029
2.65441
2.64824
2.64181
2.63513
2.62821
2.62106
2.61368
2.60607
2.59825
2.59021
2.58196
2.39636
2.39862
2.40075
2.40284
2.40503
2.40749
2.4104
2.41393
2.41827
2.4236
2.43011
2.43792
2.44715
2.45788
2.4701
2.48377
2.49878
2.51492
2.53195
2.54955
2.56736
2.585
2.60211
2.61833
2.63337
2.64699
2.65902
2.66936
2.67797
2.68488
2.69014
2.69386
2.69616
2.69717
2.69707
2.69597
2.69391
2.691
2.68738
2.68314
2.67835
2.67306
2.66731
2.66115
2.6546
2.64769
2.64042
2.63281
2.62487
2.61662
2.60806
2.59922
2.5901
2.58074
2.39796
2.40108
2.40403
2.40689
2.40976
2.4128
2.41616
2.42
2.42451
2.42985
2.43619
2.44368
2.45243
2.46254
2.47404
2.48691
2.50107
2.51638
2.53264
2.54957
2.56685
2.58414
2.60108
2.61733
2.63258
2.64657
2.65912
2.67008
2.67939
2.68705
2.69307
2.69755
2.70058
2.70227
2.70275
2.7022
2.70064
2.69812
2.69479
2.69072
2.686
2.68067
2.67478
2.66837
2.66145
2.65405
2.64619
2.63789
2.62915
2.62
2.61045
2.60054
2.59028
2.57973
2.40003
2.40404
2.40785
2.41149
2.41508
2.41872
2.42255
2.42674
2.43142
2.43677
2.44295
2.4501
2.45836
2.46783
2.47856
2.49058
2.50385
2.51827
2.53369
2.54988
2.56657
2.58343
2.60014
2.61636
2.63177
2.64611
2.65914
2.67072
2.68074
2.68916
2.69598
2.70125
2.70504
2.70746
2.7086
2.7086
2.70757
2.7055
2.70248
2.69863
2.69401
2.68868
2.68267
2.67602
2.66875
2.66088
2.65244
2.64344
2.63389
2.62382
2.61324
2.6022
2.59073
2.57889
2.40255
2.40747
2.41216
2.41663
2.42094
2.4252
2.42953
2.43405
2.43891
2.44427
2.45028
2.45708
2.46482
2.47362
2.48356
2.4947
2.50704
2.52053
2.53506
2.55046
2.56649
2.58287
2.59929
2.61542
2.63096
2.6456
2.6591
2.67129
2.68201
2.69121
2.69884
2.70493
2.70952
2.71269
2.71453
2.71514
2.71463
2.71306
2.71041
2.7068
2.70232
2.69701
2.69091
2.68405
2.67646
2.66815
2.65914
2.64944
2.63907
2.62805
2.6164
2.60417
2.59141
2.57817
2.4055
2.41136
2.41695
2.42225
2.4273
2.43218
2.437
2.44186
2.44691
2.45226
2.45808
2.46451
2.47171
2.47981
2.48894
2.49917
2.51054
2.52307
2.53667
2.55124
2.56657
2.58242
2.59851
2.61452
2.63014
2.64506
2.65901
2.67179
2.68322
2.69319
2.70164
2.70857
2.71398
2.71794
2.72051
2.72176
2.7218
2.72073
2.7185
2.71519
2.71087
2.70562
2.69947
2.69243
2.68455
2.67582
2.66625
2.65587
2.64467
2.63268
2.61993
2.60644
2.59228
2.57753
2.40887
2.41567
2.42217
2.42831
2.43408
2.43962
2.4449
2.45012
2.45528
2.46063
2.46623
2.47227
2.47891
2.48628
2.49456
2.50386
2.51426
2.5258
2.53845
2.55216
2.56676
2.58206
2.59779
2.61364
2.62932
2.64449
2.65888
2.67223
2.68436
2.6951
2.70438
2.71215
2.7184
2.72316
2.72648
2.72841
2.72904
2.72846
2.72668
2.7237
2.71959
2.71444
2.70826
2.7011
2.69295
2.68383
2.67375
2.66269
2.65068
2.6377
2.62379
2.60898
2.59332
2.57691
2.41266
2.4204
2.42781
2.43475
2.44132
2.44743
2.45318
2.45867
2.46399
2.46925
2.47464
2.48021
2.4863
2.49287
2.50029
2.50869
2.51808
2.52862
2.54031
2.55314
2.567
2.58172
2.59708
2.61277
2.62848
2.64389
2.6587
2.67262
2.68543
2.69694
2.70704
2.71565
2.72274
2.72831
2.73239
2.73502
2.73625
2.73618
2.73488
2.73226
2.7284
2.72338
2.71723
2.70998
2.70162
2.69215
2.68158
2.66988
2.65705
2.64307
2.62797
2.61176
2.59451
2.57627
2.41687
2.42554
2.43383
2.44161
2.44886
2.45556
2.46174
2.46749
2.47287
2.47802
2.48314
2.48829
2.49372
2.49958
2.50609
2.51348
2.52189
2.5314
2.54212
2.55407
2.5672
2.58136
2.59634
2.61185
2.62762
2.64329
2.65851
2.67299
2.68647
2.69874
2.70963
2.71906
2.72698
2.73335
2.73819
2.74152
2.74339
2.74385
2.743
2.74079
2.73722
2.73238
2.7263
2.719
2.71047
2.70071
2.68969
2.67738
2.66375
2.64877
2.63244
2.61476
2.5958
2.57568
2.42149
2.43107
2.44021
2.44878
2.45669
2.46392
2.47048
2.47647
2.48183
2.48693
2.49168
2.49634
2.5011
2.50618
2.51176
2.51815
2.5255
2.534
2.54376
2.55486
2.56726
2.58088
2.5955
2.6109
2.62673
2.64265
2.65829
2.67333
2.68748
2.70048
2.71216
2.72238
2.73109
2.73825
2.74384
2.74787
2.75036
2.75137
2.75098
2.7492
2.74596
2.74133
2.73537
2.72808
2.71944
2.70944
2.69802
2.68513
2.67074
2.65478
2.63724
2.61804
2.59733
2.57521
2.42653
2.43698
2.44694
2.45623
2.46477
2.47247
2.4794
2.48551
2.49089
2.49576
2.50015
2.50428
2.50832
2.51253
2.51718
2.52251
2.52885
2.53631
2.54512
2.55537
2.56709
2.58019
2.59452
2.60982
2.62575
2.64195
2.65803
2.67363
2.68843
2.70216
2.7146
2.7256
2.73507
2.74296
2.74927
2.75398
2.75711
2.75867
2.75874
2.75739
2.75451
2.75015
2.74435
2.73712
2.72843
2.71824
2.70648
2.69308
2.67797
2.66106
2.64233
2.62171
2.59946
2.57541
2.432
2.44328
2.454
2.46396
2.47305
2.48119
2.48834
2.49459
2.49988
2.50452
2.50843
2.51197
2.51525
2.51854
2.5222
2.52647
2.5317
2.53817
2.54603
2.55546
2.56652
2.57917
2.59326
2.60853
2.62462
2.64114
2.65768
2.67386
2.68932
2.70376
2.71694
2.72869
2.7389
2.74748
2.75445
2.75981
2.76354
2.76565
2.76621
2.76526
2.76278
2.75871
2.75312
2.74601
2.73734
2.72703
2.71501
2.70117
2.68542
2.66758
2.64779
2.62592
2.60242
2.57631
2.43792
2.44998
2.4614
2.47196
2.48152
2.49001
2.49738
2.50363
2.50877
2.51301
2.51645
2.51928
2.52172
2.52408
2.52667
2.52985
2.53398
2.53937
2.54629
2.55493
2.56539
2.57766
2.5916
2.60691
2.62322
2.64013
2.65719
2.67398
2.69011
2.70526
2.71916
2.73163
2.74252
2.75177
2.75934
2.76527
2.76957
2.77222
2.77325
2.77271
2.77063
2.7669
2.76157
2.75463
2.74604
2.7357
2.7235
2.70933
2.69299
2.67445
2.65384
2.63097
2.60477
2.57225
2.44432
2.45711
2.46915
2.48022
2.49017
2.49892
2.50639
2.51257
2.51744
2.52125
2.52408
2.52615
2.52767
2.52899
2.53046
2.53244
2.5354
2.53975
2.54571
2.55357
2.56349
2.57547
2.58933
2.60478
2.62143
2.63882
2.65648
2.67393
2.69077
2.70663
2.72123
2.73437
2.74591
2.75576
2.76389
2.77033
2.77514
2.77828
2.77977
2.77964
2.77795
2.77459
2.76956
2.76286
2.75442
2.74413
2.73185
2.71738
2.70069
2.68177
2.66003
2.63364
2.60451
2.57611
2.45125
2.46471
2.47729
2.48877
2.49901
2.50789
2.51536
2.5214
2.52581
2.52913
2.53126
2.53244
2.53297
2.53311
2.53337
2.5341
2.53581
2.53901
2.54398
2.55109
2.56056
2.57232
2.58622
2.60194
2.61906
2.63706
2.65541
2.67361
2.6912
2.7078
2.72309
2.73687
2.74899
2.75939
2.76802
2.77491
2.78013
2.78372
2.78564
2.78591
2.78462
2.78165
2.77695
2.77055
2.76235
2.75221
2.73994
2.72542
2.70869
2.6893
2.66469
2.64095
2.61026
2.57616
2.45877
2.47283
2.48585
2.49763
2.50803
2.51694
2.52426
2.52993
2.53398
2.5366
2.53787
2.53805
2.53745
2.53633
2.53517
2.53458
2.535
2.53684
2.54079
2.54726
2.55625
2.5679
2.58197
2.59813
2.61589
2.63466
2.65384
2.67289
2.6913
2.70867
2.72466
2.73905
2.75171
2.76257
2.77163
2.77892
2.78447
2.78842
2.79073
2.79139
2.79047
2.7879
2.78359
2.77756
2.76967
2.75975
2.74767
2.73332
2.71658
2.69577
2.67441
2.64482
2.61172
2.57551
2.46693
2.48151
2.49488
2.50683
2.51725
2.52604
2.53309
2.5383
2.54173
2.54354
2.54382
2.54296
2.54098
2.53838
2.53569
2.53358
2.53258
2.53316
2.536
2.54153
2.55014
2.56182
2.57615
2.59297
2.61159
2.63133
2.65152
2.67156
2.69091
2.70911
2.72582
2.7408
2.75395
2.76521
2.77462
2.78221
2.78805
2.79226
2.79491
2.79593
2.79536
2.7932
2.78933
2.78374
2.77626
2.76669
2.75492
2.74094
2.72337
2.70443
2.67789
2.64666
2.61249
2.57536
2.47579
2.49081
2.5044
2.5164
2.5267
2.53521
2.54182
2.54641
2.54906
2.5499
2.54912
2.54689
2.54342
2.53921
2.53479
2.53099
2.52835
2.52752
2.52918
2.53393
2.542
2.55376
2.56848
2.58623
2.6059
2.62677
2.64815
2.66937
2.6898
2.70893
2.7264
2.74198
2.75557
2.76716
2.77683
2.78466
2.79072
2.79513
2.79803
2.79938
2.79915
2.7974
2.794
2.78892
2.78198
2.773
2.76189
2.74737
2.73108
2.70698
2.6788
2.64724
2.61264
2.57508
2.48538
2.50075
2.51444
2.52633
2.53635
2.54441
2.5504
2.5542
2.55587
2.55563
2.55362
2.54985
2.54476
2.53882
2.53238
2.52694
2.52243
2.51985
2.52024
2.52373
2.53133
2.54314
2.55803
2.5777
2.5988
2.62095
2.64365
2.66614
2.68778
2.70795
2.72622
2.74239
2.75639
2.76826
2.77812
2.7861
2.79232
2.79688
2.79995
2.80158
2.80169
2.80033
2.79741
2.7929
2.78673
2.77879
2.76788
2.75257
2.73207
2.70677
2.6782
2.64637
2.61157
2.57399
2.49572
2.51133
2.52498
2.5366
2.54616
2.55359
2.55874
2.56156
2.56214
2.56075
2.55715
2.55187
2.54528
2.5375
2.52904
2.5217
2.5157
2.51096
2.50981
2.51237
2.51988
2.53045
2.54362
2.56666
2.58982
2.61389
2.63804
2.66185
2.68471
2.70594
2.72509
2.74185
2.75622
2.76832
2.77832
2.78638
2.79269
2.79736
2.80056
2.8024
2.80281
2.80182
2.7994
2.7956
2.79034
2.78303
2.77054
2.75257
2.73022
2.70466
2.67581
2.64398
2.60935
2.57207
2.50676
2.52247
2.5359
2.54707
2.556
2.56261
2.56673
2.5684
2.56774
2.56505
2.56001
2.55329
2.54502
2.53576
2.52459
2.51538
2.5062
2.49998
2.49737
2.49898
2.50773
2.5134
2.53161
2.5578
2.57962
2.60575
2.63129
2.6564
2.68049
2.70285
2.72285
2.7402
2.75492
2.76719
2.77725
2.78535
2.79171
2.79646
2.79975
2.80174
2.80244
2.80181
2.79992
2.79678
2.79173
2.78102
2.76844
2.74901
2.72648
2.70068
2.67183
2.64017
2.60588
2.56915
2.51843
2.53402
2.54703
2.55755
2.56566
2.57125
2.57419
2.57448
2.57244
2.56906
2.56175
2.55493
2.5428
2.53079
2.5192
2.5075
2.49628
2.48714
2.48165
2.48157
2.4868
2.49719
2.51696
2.53973
2.56552
2.59691
2.62417
2.65021
2.67534
2.69869
2.71942
2.73725
2.75223
2.76462
2.77473
2.78285
2.78923
2.79404
2.79742
2.79956
2.8005
2.80024
2.7988
2.79579
2.78889
2.77979
2.76333
2.74363
2.72085
2.695
2.66638
2.63515
2.60151
2.56568
2.53052
2.5457
2.55806
2.56774
2.57485
2.57926
2.5809
2.57979
2.57553
2.57347
2.56223
2.55206
2.54024
2.52678
2.51202
2.49742
2.484
2.47317
2.46639
2.46507
2.46926
2.47978
2.4992
2.52392
2.55452
2.58456
2.61557
2.64345
2.66946
2.69351
2.71475
2.7329
2.74805
2.76051
2.77064
2.77877
2.78517
2.79006
2.79354
2.79585
2.79695
2.79685
2.79537
2.79159
2.78614
2.77299
2.75591
2.73601
2.7132
2.68765
2.65954
2.62904
2.59635
2.56174
2.54284
2.55727
2.5687
2.57733
2.58314
2.58616
2.58677
2.5843
2.57618
2.57657
2.56312
2.5501
2.53573
2.51945
2.50217
2.48542
2.47025
2.45772
2.44986
2.44774
2.45135
2.4629
2.48219
2.50906
2.54217
2.57307
2.6072
2.63612
2.66286
2.68736
2.70886
2.72712
2.74231
2.7548
2.76494
2.77308
2.77953
2.78452
2.78798
2.79069
2.79166
2.79124
2.78838
2.78525
2.77699
2.76272
2.74576
2.726
2.70359
2.67867
2.65138
2.62192
2.5905
2.55742
2.55506
2.56841
2.57867
2.58618
2.59079
2.5922
2.59218
2.58832
2.58063
2.57325
2.56107
2.54596
2.52871
2.51004
2.4904
2.47139
2.4542
2.44077
2.43136
2.42919
2.4333
2.44604
2.46599
2.49387
2.52896
2.56287
2.59778
2.62787
2.65542
2.68018
2.70169
2.71987
2.73497
2.74737
2.75751
2.7657
2.77222
2.77724
2.78079
2.78309
2.78486
2.78455
2.78486
2.77564
2.76342
2.74951
2.73301
2.71384
2.69218
2.66819
2.64203
2.61391
2.58407
2.55278
2.56697
2.57892
2.58767
2.59342
2.59653
2.59503
2.59732
2.59186
2.58268
2.57146
2.55692
2.53964
2.52001
2.49879
2.47707
2.45568
2.43698
2.42317
2.41484
2.41359
2.4187
2.43125
2.45108
2.47991
2.51706
2.55223
2.58742
2.61899
2.64712
2.67187
2.69315
2.71108
2.72599
2.73828
2.74842
2.75672
2.76341
2.76871
2.77265
2.77461
2.77402
2.7738
2.76852
2.75999
2.74844
2.73458
2.71844
2.69996
2.67924
2.6564
2.63161
2.60509
2.57708
2.54782
2.57827
2.58871
2.59604
2.59984
2.60426
2.60273
2.5996
2.59295
2.58223
2.5684
2.55149
2.53185
2.50995
2.48667
2.46326
2.44146
2.42254
2.40878
2.40078
2.39905
2.40493
2.41651
2.43833
2.46893
2.50724
2.54581
2.58075
2.61093
2.63834
2.66247
2.68324
2.70079
2.71547
2.72768
2.73784
2.74624
2.75316
2.75849
2.76168
2.76216
2.7627
2.7583
2.75151
2.74258
2.73127
2.71774
2.70219
2.68457
2.66495
2.64344
2.62022
2.5955
2.56951
2.54244
2.58908
2.59829
2.60411
2.60764
2.61014
2.60905
2.60338
2.59378
2.58061
2.56433
2.54519
2.52353
2.49995
2.47578
2.45215
2.42954
2.41038
2.39515
2.3873
2.38502
2.39306
2.4072
2.43162
2.46448
2.50237
2.54017
2.57289
2.60219
2.6287
2.65208
2.67218
2.68924
2.7036
2.71564
2.72574
2.73421
2.74105
2.74587
2.74769
2.74815
2.74507
2.73969
2.7327
2.72368
2.71254
2.6994
2.68451
2.66789
2.6495
2.62948
2.60798
2.5852
2.56134
2.53656
2.60094
2.61081
2.61837
2.62198
2.62072
2.61514
2.60629
2.59398
2.57846
2.56008
2.53913
2.51617
2.49236
2.46915
2.44552
2.42296
2.4043
2.38784
2.37776
2.37799
2.38668
2.40512
2.42944
2.46095
2.50102
2.53471
2.5652
2.59322
2.61858
2.64083
2.66009
2.67654
2.69047
2.70218
2.712
2.72018
2.72672
2.73001
2.73059
2.72876
2.72463
2.71919
2.71208
2.70316
2.69238
2.67981
2.66569
2.65015
2.6331
2.61465
2.59495
2.57419
2.55251
2.53006
2.62167
2.63132
2.63612
2.63586
2.63084
2.6218
2.60969
2.59459
2.57694
2.5569
2.53502
2.51225
2.48978
2.46811
2.44523
2.42262
2.40201
2.38747
2.37986
2.38109
2.39157
2.40913
2.43139
2.46485
2.49838
2.52873
2.5576
2.58406
2.60783
2.62878
2.64704
2.66273
2.67615
2.68715
2.69622
2.70407
2.70853
2.71051
2.70972
2.70675
2.70261
2.6971
2.69005
2.68141
2.67111
2.65925
2.64598
2.63153
2.61589
2.59907
2.58121
2.56248
2.54299
2.52285
2.64633
2.65266
2.65365
2.64964
2.6412
2.62903
2.61388
2.59627
2.57674
2.55578
2.53421
2.51322
2.49236
2.47131
2.44951
2.42848
2.40991
2.39595
2.39043
2.3921
2.39827
2.41391
2.44062
2.46836
2.49626
2.52396
2.55034
2.57469
2.59655
2.61596
2.63299
2.64776
2.66051
2.67058
2.67967
2.68478
2.68686
2.68807
2.68639
2.68349
2.67936
2.67388
2.66703
2.65876
2.64907
2.63799
2.62565
2.61229
2.59806
2.58287
2.56684
2.5501
2.53276
2.51487
2.67065
2.6737
2.67134
2.66391
2.65216
2.63691
2.61904
2.59936
2.57861
2.55765
2.53765
2.51731
2.49799
2.4779
2.45779
2.43833
2.42048
2.40789
2.40266
2.40417
2.41411
2.42844
2.44873
2.47116
2.4958
2.51979
2.54342
2.56515
2.58483
2.60267
2.61818
2.63175
2.64361
2.6528
2.6605
2.66431
2.66371
2.66416
2.66226
2.65945
2.65532
2.64998
2.64341
2.6356
2.62656
2.61634
2.605
2.59271
2.57975
2.56616
2.55191
2.53709
2.5218
2.50607
2.69448
2.69488
2.68942
2.67877
2.66383
2.64569
2.62545
2.60417
2.58287
2.56272
2.54313
2.52408
2.5057
2.48684
2.46812
2.45042
2.43496
2.4243
2.41974
2.42058
2.4276
2.44024
2.45626
2.47512
2.4956
2.51628
2.53635
2.55539
2.57284
2.58885
2.60312
2.6148
2.62589
2.63363
2.63741
2.63994
2.63998
2.6398
2.63789
2.63502
2.63094
2.6258
2.61956
2.61225
2.60389
2.59452
2.5842
2.57304
2.56126
2.54909
2.5365
2.5235
2.51014
2.49644
2.71816
2.71612
2.70781
2.69412
2.6762
2.65543
2.6332
2.61076
2.58942
2.57018
2.55016
2.53214
2.51454
2.49668
2.47946
2.46344
2.44978
2.44016
2.43581
2.43584
2.44095
2.45062
2.4635
2.4788
2.49555
2.51256
2.52942
2.54577
2.56105
2.57487
2.5867
2.5956
2.6065
2.61039
2.61429
2.61611
2.61622
2.61553
2.6136
2.61064
2.60667
2.60174
2.59586
2.58905
2.58135
2.57281
2.56347
2.55342
2.5428
2.53185
2.52074
2.50939
2.4978
2.48598
2.74149
2.73723
2.7263
2.70977
2.68911
2.66604
2.6422
2.61899
2.59764
2.57785
2.55921
2.5412
2.52382
2.5071
2.49115
2.47661
2.46422
2.45528
2.45083
2.4501
2.45339
2.46029
2.4701
2.4819
2.49513
2.50881
2.52247
2.53622
2.55018
2.56237
2.56956
2.57836
2.58484
2.58882
2.59179
2.59286
2.5929
2.59188
2.58979
2.58676
2.58288
2.57817
2.57263
2.5663
2.55922
2.55144
2.54302
2.53402
2.52452
2.5147
2.50478
2.49486
2.48485
2.47471
2.76421
2.75797
2.74463
2.72544
2.70231
2.6773
2.6522
2.62851
2.60791
2.58658
2.56764
2.55026
2.53347
2.51749
2.50258
2.48916
2.47771
2.46914
2.46422
2.46274
2.46429
2.46876
2.47563
2.48438
2.49437
2.50496
2.51599
2.527
2.5384
2.54845
2.55025
2.55976
2.56507
2.56811
2.56995
2.57071
2.57043
2.56909
2.56683
2.56375
2.55993
2.55539
2.55016
2.54426
2.53773
2.53063
2.52301
2.51495
2.50652
2.49779
2.48891
2.48008
2.47137
2.46269
2.78612
2.77815
2.76255
2.7409
2.71554
2.68883
2.66271
2.6384
2.61672
2.59643
2.57711
2.55942
2.54295
2.52755
2.51339
2.50073
2.48995
2.48154
2.476
2.47368
2.47361
2.476
2.48045
2.48646
2.49365
2.50154
2.50986
2.51873
2.52554
2.53183
2.53763
2.54313
2.54614
2.54839
2.54968
2.54994
2.54918
2.54753
2.54506
2.54189
2.5381
2.53368
2.52869
2.52314
2.51708
2.51055
2.50361
2.49635
2.48883
2.48112
2.47325
2.46535
2.45756
2.44999
2.80701
2.79745
2.77988
2.75614
2.72872
2.70052
2.6738
2.64845
2.62567
2.60597
2.58592
2.56837
2.55204
2.53708
2.52346
2.51126
2.50087
2.49245
2.48642
2.48293
2.48163
2.48217
2.48446
2.48816
2.49298
2.49847
2.50419
2.50864
2.50807
2.52479
2.5241
2.52722
2.52931
2.53051
2.5311
2.53075
2.5295
2.52749
2.52477
2.52148
2.51763
2.51327
2.50844
2.50314
2.49743
2.49135
2.48497
2.47836
2.47159
2.46472
2.45777
2.45077
2.44378
2.43692
2.82666
2.81584
2.79653
2.77078
2.74147
2.71217
2.68585
2.65654
2.63431
2.61401
2.59424
2.57658
2.56057
2.54596
2.53268
2.52085
2.51053
2.50217
2.49554
2.49107
2.48851
2.48768
2.48824
2.49019
2.49311
2.4969
2.49937
2.5
2.50181
2.50609
2.51268
2.51205
2.51411
2.51461
2.51443
2.51342
2.51165
2.50923
2.50623
2.50272
2.49875
2.49436
2.48956
2.4844
2.4789
2.47314
2.46718
2.46108
2.45491
2.44871
2.4425
2.43628
2.43006
2.42384
2.84479
2.833
2.81229
2.78478
2.75359
2.72274
2.6955
2.66676
2.64257
2.6212
2.60159
2.58399
2.56834
2.55405
2.54112
2.52941
2.51926
2.51059
2.50368
2.49842
2.49476
2.49268
2.49186
2.492
2.49353
2.49527
2.49647
2.49231
2.49759
2.4989
2.49996
2.50059
2.50095
2.50068
2.49979
2.49818
2.49588
2.49301
2.48964
2.48583
2.48164
2.47709
2.4722
2.46702
2.4616
2.456
2.45031
2.44459
2.43888
2.43322
2.4276
2.422
2.41639
2.41073
2.86115
2.84873
2.82708
2.79821
2.76539
2.73281
2.70461
2.67546
2.64874
2.62819
2.60812
2.59043
2.5751
2.56122
2.54858
2.53715
2.52707
2.51838
2.51118
2.50536
2.50067
2.49717
2.49493
2.49384
2.49527
2.49528
2.49033
2.49282
2.4918
2.4921
2.49107
2.49091
2.49039
2.48926
2.48757
2.48529
2.48242
2.47904
2.47521
2.47101
2.46646
2.4616
2.45646
2.45109
2.44556
2.43997
2.43439
2.42892
2.42357
2.41838
2.41326
2.40816
2.403
2.3977
2.87522
2.86245
2.84027
2.81047
2.77626
2.74145
2.70951
2.6807
2.65612
2.6352
2.61459
2.59586
2.58072
2.56765
2.55546
2.54438
2.53443
2.52545
2.51769
2.51114
2.50558
2.50143
2.49988
2.49886
2.49637
2.49452
2.48878
2.48765
2.48946
2.48618
2.48567
2.48401
2.48248
2.48048
2.47803
2.47504
2.47153
2.46756
2.46317
2.45843
2.45336
2.448
2.44241
2.43665
2.43082
2.42504
2.41942
2.4141
2.40905
2.40425
2.39963
2.395
2.39021
2.38509
2.88637
2.87332
2.85094
2.82079
2.78581
2.74958
2.71532
2.68551
2.65895
2.64076
2.62102
2.60038
2.58544
2.5728
2.5611
2.55029
2.54028
2.53117
2.52325
2.51736
2.51339
2.50944
2.50494
2.50119
2.49821
2.49394
2.49159
2.48861
2.48717
2.48464
2.48232
2.4798
2.47743
2.4746
2.47141
2.46768
2.46346
2.4588
2.45372
2.44827
2.44248
2.4364
2.43011
2.42372
2.41736
2.41119
2.40542
2.4001
2.39532
2.39101
2.38696
2.38288
2.37848
2.37345
2.89373
2.88015
2.85759
2.8276
2.79253
2.7557
2.72036
2.68883
2.66249
2.64259
2.62497
2.60145
2.58835
2.57662
2.56595
2.55616
2.54765
2.54009
2.53308
2.52593
2.51935
2.51431
2.50971
2.50436
2.50114
2.4986
2.49379
2.49141
2.48801
2.48519
2.48206
2.4788
2.47557
2.47194
2.46794
2.46344
2.45846
2.45299
2.44707
2.4407
2.43395
2.42689
2.41962
2.4123
2.40514
2.3984
2.39224
2.38689
2.38245
2.37877
2.37551
2.37221
2.36833
2.36353
2.89719
2.88267
2.85957
2.82945
2.79467
2.75813
2.72283
2.69095
2.66363
2.64152
2.62389
2.60845
2.59202
2.58235
2.57294
2.56286
2.55342
2.54573
2.53892
2.53234
2.52636
2.52065
2.5164
2.51025
2.50643
2.50369
2.49905
2.49553
2.49172
2.48809
2.48444
2.48065
2.47678
2.47255
2.46785
2.46257
2.45674
2.45034
2.4434
2.43592
2.42794
2.41958
2.41099
2.4024
2.3941
2.38646
2.37979
2.37436
2.37039
2.36773
2.36574
2.36366
2.3607
2.35617
2.89687
2.88083
2.85695
2.82616
2.79112
2.75503
2.72021
2.68884
2.66193
2.63975
2.62219
2.60733
2.5938
2.58492
2.57623
2.56771
2.55968
2.55262
2.54614
2.53975
2.53485
2.52797
2.52377
2.51911
2.51463
2.5107
2.50643
2.50233
2.49823
2.49405
2.48991
2.48558
2.48105
2.47613
2.47073
2.46478
2.4582
2.45093
2.44289
2.43407
2.4246
2.4146
2.40429
2.39401
2.38418
2.37531
2.36786
2.36232
2.35922
2.35805
2.35801
2.35799
2.35657
2.35274
2.89313
2.8752
2.84964
2.81795
2.78252
2.74677
2.71236
2.68188
2.65608
2.63511
2.61853
2.60522
2.59443
2.58584
2.57833
2.5714
2.56493
2.55894
2.55329
2.54775
2.54256
2.53732
2.53274
2.52838
2.5239
2.51997
2.51567
2.51145
2.50727
2.50294
2.49862
2.49398
2.48906
2.48359
2.47753
2.47076
2.46317
2.45471
2.44538
2.43519
2.42402
2.41199
2.3995
2.38705
2.37517
2.36448
2.35594
2.35081
2.34887
2.34948
2.35252
2.35591
2.357
2.35433
2.88645
2.86629
2.83871
2.80577
2.7699
2.73398
2.70036
2.67092
2.64652
2.62717
2.61226
2.60078
2.59187
2.58484
2.57887
2.57357
2.56865
2.56394
2.55934
2.55484
2.55047
2.54613
2.54199
2.53798
2.53402
2.53013
2.52619
2.52215
2.51818
2.51405
2.50974
2.50509
2.50006
2.49437
2.48795
2.4806
2.47217
2.46253
2.45163
2.43949
2.42627
2.41193
2.39685
2.38163
2.367
2.35385
2.34411
2.3395
2.33869
2.34206
2.34917
2.35779
2.36256
2.36185
2.87788
2.8547
2.82493
2.79051
2.75396
2.71803
2.68512
2.65692
2.63407
2.61646
2.60339
2.59388
2.5869
2.58169
2.57753
2.57394
2.57062
2.56735
2.56405
2.56073
2.5574
2.55406
2.55074
2.54743
2.54411
2.54074
2.53735
2.53389
2.53036
2.52665
2.52268
2.5183
2.51343
2.50779
2.50124
2.49355
2.48452
2.47394
2.46167
2.4476
2.43163
2.41447
2.39636
2.37764
2.35953
2.34299
2.3313
2.32658
2.32689
2.33372
2.34601
2.36125
2.37253
2.37495
2.86784
2.84155
2.80932
2.77319
2.73592
2.69996
2.66776
2.64082
2.61957
2.60377
2.59259
2.585
2.57997
2.57665
2.57436
2.5725
2.57082
2.5691
2.56725
2.56526
2.56314
2.56091
2.55861
2.55624
2.55378
2.55128
2.54871
2.54604
2.54325
2.54025
2.53691
2.5331
2.52868
2.52338
2.51698
2.50921
2.49979
2.48846
2.47493
2.45897
2.44059
2.41983
2.39786
2.37492
2.35219
2.33128
2.31658
2.31087
2.31276
2.32399
2.34217
2.36305
2.38234
2.39135
2.58489
2.58018
2.57522
2.56999
2.56442
2.55846
2.55215
2.5455
2.53853
2.53129
2.52382
2.51618
2.50845
2.50072
2.4931
2.48568
2.47861
2.472
2.46599
2.46071
2.58172
2.57613
2.57027
2.56418
2.55782
2.55113
2.54411
2.53681
2.52928
2.52155
2.51369
2.50576
2.49785
2.49005
2.48248
2.47524
2.46848
2.46231
2.45687
2.4523
2.57878
2.57223
2.56546
2.55847
2.55125
2.54379
2.53607
2.52811
2.51998
2.51176
2.50351
2.49531
2.48724
2.47941
2.47193
2.46491
2.4585
2.45282
2.448
2.44418
2.57606
2.5685
2.56075
2.55281
2.54468
2.53639
2.52793
2.51929
2.51057
2.50185
2.49322
2.48476
2.47656
2.46874
2.46139
2.45465
2.44865
2.44352
2.43938
2.43636
2.57352
2.56489
2.55609
2.54714
2.53805
2.52885
2.51959
2.51027
2.50093
2.4917
2.4827
2.47401
2.46572
2.45795
2.4508
2.4444
2.43888
2.43437
2.43097
2.42883
2.57115
2.56138
2.55144
2.54138
2.53125
2.52109
2.51095
2.50088
2.49091
2.48118
2.47181
2.46291
2.45458
2.44692
2.44005
2.43408
2.42913
2.42531
2.42275
2.42156
2.56891
2.55788
2.54671
2.53545
2.52416
2.51293
2.50184
2.49095
2.48033
2.47007
2.46035
2.45129
2.44298
2.43552
2.42901
2.42356
2.41928
2.41629
2.41465
2.41448
2.56673
2.55434
2.5418
2.52919
2.51662
2.5042
2.49204
2.48027
2.46893
2.45816
2.44811
2.43893
2.43071
2.42355
2.41752
2.41272
2.40925
2.40718
2.40659
2.40742
2.56455
2.55065
2.53656
2.52244
2.50841
2.49464
2.48129
2.4685
2.45643
2.44513
2.43478
2.42556
2.41754
2.41079
2.40538
2.40138
2.39886
2.39787
2.39837
2.40045
2.56228
2.54667
2.53085
2.51498
2.49928
2.48395
2.46923
2.45532
2.4424
2.43059
2.42002
2.41085
2.40316
2.397
2.39238
2.38935
2.38796
2.38818
2.38993
2.39357
2.55986
2.5423
2.52448
2.50657
2.48891
2.47176
2.45546
2.44028
2.42645
2.41414
2.40342
2.39444
2.38725
2.38187
2.37824
2.3764
2.37636
2.37786
2.38132
2.38662
2.55722
2.53744
2.51734
2.49698
2.47698
2.45771
2.4396
2.42294
2.40808
2.39534
2.38456
2.37595
2.36946
2.36507
2.36266
2.36228
2.36363
2.36703
2.37237
2.37935
2.55447
2.53205
2.50957
2.48624
2.46352
2.44176
2.42154
2.40303
2.38675
2.3737
2.36306
2.35506
2.34947
2.3463
2.34539
2.34654
2.34989
2.3555
2.36279
2.37162
2.55159
2.52663
2.5017
2.47521
2.44911
2.42438
2.40183
2.38054
2.36232
2.34973
2.3389
2.33168
2.32715
2.32523
2.32592
2.32916
2.33512
2.34299
2.35241
2.36332
2.54921
2.52091
2.49279
2.46343
2.43171
2.40299
2.37783
2.35378
2.33379
2.32288
2.31102
2.30573
2.30246
2.30172
2.30417
2.31027
2.31896
2.32937
2.34122
2.35435
2.54592
2.51159
2.47799
2.447
2.41881
2.38833
2.35942
2.33128
2.30979
2.29062
2.28002
2.27649
2.27458
2.2753
2.28075
2.29034
2.30194
2.3149
2.32922
2.34467
2.54018
2.51024
2.475
2.43785
2.4021
2.3661
2.33246
2.30193
2.27697
2.25681
2.24708
2.24874
2.23809
2.24171
2.25588
2.27027
2.28412
2.29982
2.3168
2.33453
2.54141
2.50462
2.46494
2.42318
2.38277
2.34453
2.30899
2.27764
2.24992
2.22838
2.21447
2.20976
2.2112
2.21409
2.22706
2.24802
2.26682
2.2851
2.30437
2.32418
2.5384
2.49781
2.45564
2.41283
2.37025
2.32988
2.29226
2.25862
2.22899
2.20566
2.1888
2.1802
2.18125
2.18917
2.2093
2.22351
2.2462
2.27049
2.29202
2.31352
2.53625
2.49411
2.44944
2.4032
2.35806
2.31559
2.27736
2.24293
2.21191
2.1857
2.16635
2.15832
2.15831
2.16813
2.19043
2.20864
2.22798
2.25666
2.28054
2.30336
2.53504
2.4919
2.44622
2.39922
2.35283
2.30917
2.26979
2.23466
2.20308
2.17592
2.15498
2.14316
2.14213
2.1526
2.17287
2.19524
2.21779
2.24537
2.27032
2.29402
2.53453
2.49112
2.44477
2.39802
2.35125
2.30724
2.26712
2.23179
2.20031
2.17375
2.15373
2.13932
2.13564
2.14509
2.16463
2.18673
2.2099
2.2366
2.26133
2.28522
2.53361
2.49085
2.44678
2.39997
2.35367
2.30811
2.26696
2.23261
2.20228
2.17659
2.1572
2.14485
2.14115
2.14667
2.16314
2.18413
2.20561
2.22969
2.25363
2.27719
2.53209
2.49001
2.44643
2.40159
2.35693
2.31445
2.27524
2.2372
2.20638
2.18254
2.16629
2.15471
2.15112
2.15624
2.16701
2.18545
2.20432
2.22549
2.24741
2.26933
2.53017
2.48951
2.44753
2.40511
2.36305
2.32281
2.28471
2.25096
2.22206
2.1969
2.17532
2.16425
2.16109
2.16473
2.17506
2.18881
2.2051
2.22231
2.2415
2.26105
2.52796
2.48874
2.44874
2.40841
2.36867
2.33023
2.29434
2.26199
2.23392
2.21009
2.19218
2.18144
2.17719
2.17789
2.18336
2.1924
2.20424
2.21753
2.23455
2.25121
2.52556
2.48822
2.4502
2.41202
2.37434
2.3379
2.30351
2.2721
2.24439
2.2211
2.20312
2.19101
2.18499
2.18369
2.18667
2.19331
2.20341
2.21841
2.23026
2.24017
2.523
2.48761
2.45178
2.4158
2.38014
2.34557
2.3128
2.28256
2.25568
2.23284
2.21456
2.20143
2.19308
2.18908
2.18837
2.18937
2.19392
2.20068
2.20785
2.22145
2.5203
2.48718
2.45353
2.41947
2.38569
2.35263
2.32094
2.29132
2.26466
2.24186
2.22355
2.20924
2.19885
2.19218
2.18888
2.18386
2.1853
2.18621
2.18769
2.19396
2.51751
2.48668
2.45519
2.42323
2.39129
2.35976
2.3292
2.30038
2.27408
2.25098
2.23145
2.21555
2.20322
2.19467
2.18794
2.17938
2.17885
2.17407
2.17222
2.17333
2.51442
2.48592
2.45671
2.42689
2.39686
2.36692
2.33751
2.30923
2.28285
2.25918
2.23879
2.22188
2.20829
2.19816
2.19178
2.18007
2.1731
2.16675
2.16273
2.1614
2.51098
2.4847
2.45796
2.4303
2.40227
2.37405
2.3459
2.31829
2.29199
2.26779
2.24629
2.22782
2.21298
2.20381
2.19376
2.17515
2.17279
2.16614
2.16128
2.15935
2.5069
2.48306
2.45852
2.43347
2.40753
2.38105
2.35425
2.32737
2.30132
2.27697
2.25465
2.23506
2.21861
2.2056
2.1963
2.18458
2.17691
2.16931
2.16683
2.16661
2.50208
2.48068
2.45857
2.43573
2.41221
2.38774
2.36263
2.3372
2.31162
2.28645
2.26314
2.24293
2.2253
2.21127
2.20118
2.18931
2.18235
2.17763
2.17615
2.17892
2.49644
2.47743
2.45774
2.43729
2.41597
2.39374
2.37043
2.34645
2.32173
2.29721
2.27331
2.25053
2.23184
2.2174
2.21077
2.18513
2.19016
2.18899
2.18453
2.19137
2.4899
2.4732
2.45589
2.43782
2.41886
2.39872
2.37764
2.35521
2.33146
2.30729
2.28321
2.26002
2.2382
2.21915
2.2052
2.1927
2.19658
2.19984
2.19202
2.20307
2.48239
2.46792
2.45292
2.4372
2.42061
2.4029
2.38383
2.36318
2.34081
2.31737
2.29291
2.26836
2.24519
2.22423
2.20811
2.19687
2.19112
2.19331
2.20327
2.21548
2.4739
2.46152
2.4487
2.43531
2.4211
2.40582
2.38899
2.3703
2.3495
2.3266
2.30173
2.2762
2.25068
2.22754
2.20796
2.19562
2.19117
2.19065
2.196
2.20901
2.46442
2.45395
2.44319
2.43199
2.42009
2.40717
2.39282
2.37634
2.35724
2.33511
2.31019
2.28307
2.25535
2.229
2.20607
2.1913
2.18484
2.18404
2.19022
2.2033
2.45397
2.44518
2.43626
2.42708
2.41741
2.40687
2.39496
2.38097
2.36376
2.34275
2.31763
2.289
2.25778
2.22782
2.20265
2.18403
2.17618
2.17439
2.17938
2.19206
2.44258
2.4352
2.42784
2.42044
2.41278