/*--------------------------------*- C++ -*----------------------------------*\
  =========                 |
  \\      /  F ield         | OpenFOAM: The Open Source CFD Toolbox
   \\    /   O peration     | Website:  https://openfoam.org
    \\  /    A nd           | Version:  10
     \\/     M anipulation  |
\*---------------------------------------------------------------------------*/
FoamFile
{
    format      ascii;
    class       surfaceScalarField;
    location    "0.449345";
    object      phi;
}
// * * * * * * * * * * * * * * * * * * * * * * * * * * * * * * * * * * * * * //

dimensions      [1 0 -1 0 0 0 0];

internalField   nonuniform List<scalar> 
31672
(
0.000484851
-1.57056e-05
0.000483838
-1.75908e-05
0.000482502
-1.96362e-05
0.000480804
-2.1779e-05
0.000478704
-2.39451e-05
0.000476158
-2.60859e-05
0.000473219
-2.81817e-05
0.000469774
-3.00867e-05
0.000465804
-3.18827e-05
0.000461249
-3.3413e-05
0.00045606
-3.4685e-05
0.00045027
-3.56423e-05
0.000443838
-3.62797e-05
0.000436785
-3.65509e-05
0.000429183
-3.64841e-05
0.000421079
-3.60621e-05
0.000412544
-3.53151e-05
0.000403697
-3.42795e-05
0.000394645
-3.29959e-05
0.00038555
-3.1526e-05
0.0003765
-2.99379e-05
0.000367646
-2.82979e-05
0.000359122
-2.66873e-05
0.000350976
-2.51599e-05
0.000343332
-2.37887e-05
0.000336206
-2.26196e-05
0.000329656
-2.16969e-05
0.000323694
-2.10529e-05
0.000318322
-2.07095e-05
0.00031354
-2.06783e-05
0.000309313
-2.09614e-05
0.000305615
-2.15481e-05
0.000302428
-2.24123e-05
0.000299727
-2.35588e-05
0.000297503
-2.49492e-05
0.000295746
-2.6557e-05
0.000294389
-2.8348e-05
0.000293434
-3.02686e-05
0.000292878
-3.22886e-05
0.000292676
-3.43499e-05
0.000292841
-3.64075e-05
0.000293365
-3.84032e-05
0.000294209
-4.02794e-05
0.0002954
-4.19708e-05
0.000296902
-4.34144e-05
0.000298705
-4.45319e-05
0.000300823
-4.52658e-05
0.00030321
-4.55299e-05
0.00030586
-4.52607e-05
0.000308754
-4.4384e-05
0.000311868
-4.2842e-05
0.000315157
-4.05669e-05
0.000318619
-3.75263e-05
-3.36754e-05
0.000322196
0.000482863
-1.26084e-05
0.000481772
-1.4382e-05
0.000480415
-1.63716e-05
0.00047874
-1.84907e-05
0.00047669
-2.06685e-05
0.000474296
-2.28902e-05
0.000471519
-2.5053e-05
0.000468265
-2.71365e-05
0.000464506
-2.90735e-05
0.000460187
-3.08104e-05
0.000455297
-3.23003e-05
0.000449753
-3.34977e-05
0.000443639
-3.4361e-05
0.000436914
-3.48814e-05
0.0004296
-3.5026e-05
0.000421759
-3.48111e-05
0.00041347
-3.42372e-05
0.000404842
-3.33406e-05
0.000395945
-3.21688e-05
0.000386923
-3.07708e-05
0.000377909
-2.92218e-05
0.000369059
-2.75993e-05
0.000360439
-2.59783e-05
0.000352168
-2.44406e-05
0.000344352
-2.30469e-05
0.000337028
-2.18723e-05
0.000330245
-2.09556e-05
0.000324033
-2.03465e-05
0.000318398
-2.00667e-05
0.000313349
-2.01345e-05
0.000308858
-2.05547e-05
0.000304901
-2.1322e-05
0.000301507
-2.24021e-05
0.000298579
-2.37945e-05
0.000296157
-2.54785e-05
0.000294221
-2.74077e-05
0.000292743
-2.95564e-05
0.000291703
-3.18649e-05
0.000291093
-3.42943e-05
0.000290912
-3.67898e-05
0.000291138
-3.9296e-05
0.000291764
-4.17542e-05
0.000292803
-4.40971e-05
0.000294229
-4.62612e-05
0.000296031
-4.81659e-05
0.000298222
-4.97418e-05
0.000300767
-5.09106e-05
0.000303655
-5.15823e-05
0.000306867
-5.16908e-05
0.000310386
-5.11464e-05
0.000314159
-4.98854e-05
0.000318171
-4.7831e-05
0.000322355
-4.49431e-05
-4.11658e-05
0.000326693
0.000481017
-9.54409e-06
0.000479835
-1.12409e-05
0.000478417
-1.32074e-05
0.000476727
-1.5324e-05
0.000474774
-1.75722e-05
0.000472449
-1.9854e-05
0.000469802
-2.21241e-05
0.000466682
-2.43769e-05
0.000463137
-2.64594e-05
0.000459043
-2.84146e-05
0.000454411
-3.00936e-05
0.000449174
-3.15215e-05
0.000443359
-3.26036e-05
0.000436925
-3.33399e-05
0.000429917
-3.36809e-05
0.000422381
-3.36503e-05
0.00041434
-3.3226e-05
0.000405927
-3.24533e-05
0.000397206
-3.13651e-05
0.000388304
-3.00246e-05
0.000379365
-2.85017e-05
0.000370469
-2.68768e-05
0.00036179
-2.52391e-05
0.000353398
-2.36674e-05
0.00034539
-2.22496e-05
0.000337848
-2.10515e-05
0.000330804
-2.01373e-05
0.000324321
-1.9552e-05
0.000318388
-1.93314e-05
0.000313029
-1.94938e-05
0.000308251
-2.00499e-05
0.000304022
-2.09922e-05
0.000300326
-2.23142e-05
0.000297156
-2.39481e-05
0.000294516
-2.59321e-05
0.000292381
-2.82072e-05
0.000290745
-3.07258e-05
0.000289596
-3.3447e-05
0.00028893
-3.63136e-05
0.000288733
-3.92718e-05
0.000289008
-4.22619e-05
0.000289754
-4.5217e-05
0.000290962
-4.80705e-05
0.000292636
-5.07467e-05
0.00029476
-5.31648e-05
0.000297343
-5.52462e-05
0.000300342
-5.68993e-05
0.000303769
-5.80339e-05
0.000307598
-5.85694e-05
0.000311767
-5.84095e-05
0.000316276
-5.74653e-05
0.000321054
-5.56831e-05
0.000326049
-5.2966e-05
-4.92872e-05
0.000331185
0.000479317
-6.55246e-06
0.000478044
-8.21004e-06
0.000476548
-1.01409e-05
0.000474834
-1.23028e-05
0.00047287
-1.46001e-05
0.000470621
-1.69929e-05
0.000468035
-1.94066e-05
0.000465083
-2.17704e-05
0.00046169
-2.40661e-05
0.000457838
-2.61798e-05
0.000453453
-2.80807e-05
0.000448502
-2.96963e-05
0.000442995
-3.09936e-05
0.000436858
-3.19095e-05
0.000430186
-3.24362e-05
0.000422944
-3.2554e-05
0.000415179
-3.22573e-05
0.000407007
-3.15803e-05
0.00039848
-3.05562e-05
0.000389716
-2.9252e-05
0.000380817
-2.7729e-05
0.000371959
-2.60879e-05
0.000363193
-2.44143e-05
0.000354657
-2.28006e-05
0.000346474
-2.13406e-05
0.000338682
-2.0113e-05
0.000331361
-1.91891e-05
0.000324558
-1.86219e-05
0.000318303
-1.84537e-05
0.000312615
-1.87094e-05
0.000307486
-1.94005e-05
0.000302921
-2.05255e-05
0.000298934
-2.20661e-05
0.000295475
-2.3998e-05
0.000292555
-2.6276e-05
0.000290198
-2.89035e-05
0.000288375
-3.18252e-05
0.000287092
-3.49769e-05
0.000286336
-3.8311e-05
0.000286121
-4.17619e-05
0.000286423
-4.52722e-05
0.000287264
-4.87627e-05
0.000288657
-5.21742e-05
0.00029057
-5.54076e-05
0.000293029
-5.83932e-05
0.000296007
-6.10344e-05
0.000299503
-6.32268e-05
0.000303496
-6.48924e-05
0.000307972
-6.59081e-05
0.000312859
-6.61926e-05
0.000318149
-6.56303e-05
0.00032378
-6.4153e-05
0.000329647
-6.16544e-05
-5.80972e-05
0.000335703
0.000477715
-3.60505e-06
0.000476289
-5.25022e-06
0.000474739
-7.21744e-06
0.000472964
-9.41064e-06
0.000470983
-1.17893e-05
0.000468755
-1.43e-05
0.000466237
-1.68461e-05
0.000463429
-1.93897e-05
0.000460209
-2.18401e-05
0.00045655
-2.41397e-05
0.000452429
-2.6237e-05
0.000447755
-2.80367e-05
0.00044253
-2.9508e-05
0.000436746
-3.05927e-05
0.000430377
-3.12673e-05
0.000423472
-3.15046e-05
0.00041603
-3.13059e-05
0.00040809
-3.06927e-05
0.000399799
-2.97063e-05
0.00039118
-2.84018e-05
0.00038236
-2.68668e-05
0.0003735
-2.51825e-05
0.000364679
-2.34554e-05
0.00035601
-2.17851e-05
0.0003476
-2.02691e-05
0.000339554
-1.89991e-05
0.000331932
-1.80554e-05
0.00032478
-1.74994e-05
0.000318159
-1.73789e-05
0.000312082
-1.77248e-05
0.000306573
-1.85524e-05
0.000301643
-1.98614e-05
0.000297282
-2.16392e-05
0.000293499
-2.38577e-05
0.000290287
-2.64717e-05
0.000287652
-2.94672e-05
0.000285611
-3.28017e-05
0.000284153
-3.64143e-05
0.000283283
-4.02431e-05
0.000283011
-4.42232e-05
0.000283332
-4.829e-05
0.000284275
-5.23639e-05
0.000285816
-5.63753e-05
0.000287973
-6.02227e-05
0.000290775
-6.38307e-05
0.000294157
-6.70927e-05
0.000298165
-6.98963e-05
0.000302766
-7.21572e-05
0.000307901
-7.37292e-05
0.000313581
-7.4526e-05
0.00031973
-7.44186e-05
0.000326269
-7.33084e-05
0.000333133
-7.10781e-05
-6.76766e-05
0.000340204
0.00047621
-7.07297e-07
0.000474629
-2.36866e-06
0.000472907
-4.38397e-06
0.000471087
-6.66469e-06
0.00046908
-9.14955e-06
0.000466859
-1.17673e-05
0.000464425
-1.44821e-05
0.000461696
-1.7184e-05
0.000458668
-1.98113e-05
0.000455209
-2.23047e-05
0.000451331
-2.45509e-05
0.000446953
-2.65392e-05
0.000442065
-2.81531e-05
0.000436614
-2.9386e-05
0.000430584
-3.01609e-05
0.000424
-3.04903e-05
0.000416857
-3.03476e-05
0.00040923
-2.97658e-05
0.000401132
-2.87795e-05
0.000392693
-2.74528e-05
0.000383996
-2.5865e-05
0.000375123
-2.41163e-05
0.000366241
-2.23104e-05
0.000357431
-2.05623e-05
0.000348802
-1.89746e-05
0.000340469
-1.76477e-05
0.000332503
-1.66747e-05
0.000324975
-1.61201e-05
0.000317934
-1.60445e-05
0.000311436
-1.64798e-05
0.000305496
-1.74465e-05
0.000300139
-1.89476e-05
0.000295382
-2.09686e-05
0.000291207
-2.34891e-05
0.000287669
-2.64544e-05
0.000284718
-2.98424e-05
0.000282408
-3.36135e-05
0.00028075
-3.77112e-05
0.000279733
-4.20696e-05
0.000279384
-4.66135e-05
0.000279699
-5.12784e-05
0.000280697
-5.59804e-05
0.000282393
-6.06428e-05
0.000284787
-6.51631e-05
0.000287902
-6.94585e-05
0.000291721
-7.3407e-05
0.000296246
-7.69083e-05
0.000301459
-7.98336e-05
0.000307341
-8.2057e-05
0.00031385
-8.34559e-05
0.000320929
-8.38814e-05
0.000328481
-8.3225e-05
0.000336439
-8.1332e-05
-7.81437e-05
0.000344642
0.000474771
2.14317e-06
0.000472983
4.38032e-07
0.000471131
-1.65438e-06
0.00046917
-4.04102e-06
0.000467126
-6.65661e-06
0.000464933
-9.4371e-06
0.000462533
-1.22928e-05
0.00045993
-1.51773e-05
0.000457023
-1.79852e-05
0.000453809
-2.06402e-05
0.000450183
-2.30703e-05
0.000446112
-2.51888e-05
0.000441539
-2.69427e-05
0.000436431
-2.82679e-05
0.000430787
-2.91278e-05
0.000424544
-2.94983e-05
0.000417759
-2.93765e-05
0.000410424
-2.878e-05
0.000402589
-2.77517e-05
0.000394328
-2.63612e-05
0.000385725
-2.46873e-05
0.000376887
-2.28406e-05
0.00036792
-2.09265e-05
0.000358962
-1.90722e-05
0.000350089
-1.73916e-05
0.000341441
-1.59929e-05
0.000333094
-1.49745e-05
0.000325132
-1.44163e-05
0.000317651
-1.43802e-05
0.000310667
-1.49067e-05
0.00030425
-1.6017e-05
0.000298412
-1.77174e-05
0.00029319
-1.99951e-05
0.000288605
-2.2827e-05
0.000284647
-2.61749e-05
0.000281365
-2.99717e-05
0.00027875
-3.42086e-05
0.000276829
-3.88188e-05
0.000275635
-4.37365e-05
0.000275169
-4.88898e-05
0.000275435
-5.41921e-05
0.000276483
-5.95753e-05
0.000278298
-6.49413e-05
0.000280923
-7.02016e-05
0.000284345
-7.52511e-05
0.000288581
-7.99698e-05
0.000293644
-8.42497e-05
0.000299504
-8.79412e-05
0.000306165
-9.09188e-05
0.000313555
-9.30217e-05
0.000321644
-9.40972e-05
0.000330323
-9.39866e-05
0.000339489
-9.2535e-05
-8.96107e-05
0.000348988
0.000473347
4.96767e-06
0.000471345
3.18506e-06
0.000469307
9.81503e-07
0.000467241
-1.54118e-06
0.000465103
-4.31528e-06
0.000462897
-7.26823e-06
0.000460568
-1.03157e-05
0.000458068
-1.33732e-05
0.000455352
-1.63642e-05
0.00045233
-1.91873e-05
0.000448987
-2.1766e-05
0.000445225
-2.40199e-05
0.000441004
-2.58688e-05
0.00043629
-2.72658e-05
0.000431021
-2.81626e-05
0.000425177
-2.85341e-05
0.000418741
-2.83796e-05
0.000411724
-2.7721e-05
0.000404167
-2.66026e-05
0.000396096
-2.50954e-05
0.000387608
-2.32925e-05
0.000378787
-2.13007e-05
0.000369732
-1.92451e-05
0.000360592
-1.72526e-05
0.000351459
-1.54512e-05
0.000342459
-1.39588e-05
0.000333697
-1.28843e-05
0.000325278
-1.23113e-05
0.000317281
-1.23115e-05
0.000309767
-1.29289e-05
0.000302808
-1.419e-05
0.00029644
-1.61002e-05
0.000290703
-1.865e-05
0.000285626
-2.18124e-05
0.000281221
-2.55506e-05
0.000277552
-2.98091e-05
0.000274571
-3.45277e-05
0.000272365
-3.96853e-05
0.000270943
-4.52022e-05
0.00027032
-5.09981e-05
0.000270517
-5.69909e-05
0.000271559
-6.31007e-05
0.000273475
-6.92357e-05
0.000276285
-7.53012e-05
0.000280001
-8.11793e-05
0.000284657
-8.67648e-05
0.000290244
-9.19154e-05
0.000296776
-9.64924e-05
0.000304234
-0.000100341
0.000312596
-0.000103279
0.00032177
-0.000105138
0.00033168
-0.000105703
0.000342209
-0.000104812
-0.000102253
0.000353167
0.000471926
7.76923e-06
0.000469684
5.87538e-06
0.000467454
3.53086e-06
0.000465237
8.39363e-07
0.000463017
-2.12062e-06
0.00046079
-5.27936e-06
0.000458501
-8.52373e-06
0.000456115
-1.17835e-05
0.000453575
-1.49653e-05
0.000450812
-1.7957e-05
0.000447765
-2.06717e-05
0.00044434
-2.30343e-05
0.000440505
-2.49584e-05
0.000436196
-2.63907e-05
0.000431332
-2.72744e-05
0.000425907
-2.76016e-05
0.000419853
-2.73586e-05
0.000413177
-2.65798e-05
0.000405888
-2.53097e-05
0.000398031
-2.36298e-05
0.000389649
-2.16374e-05
0.000380827
-1.94531e-05
0.000371699
-1.72062e-05
0.000362353
-1.50374e-05
0.000352918
-1.30819e-05
0.000343537
-1.14685e-05
0.000334323
-1.03186e-05
0.000325376
-9.72099e-06
0.000316808
-9.75263e-06
0.000308712
-1.04647e-05
0.000301152
-1.18849e-05
0.000294195
-1.40196e-05
0.000287888
-1.68591e-05
0.000282261
-2.03753e-05
0.000277358
-2.45285e-05
0.000273216
-2.92671e-05
0.000269852
-3.45221e-05
0.000267301
-4.02575e-05
0.000265598
-4.64049e-05
0.000264781
-5.28865e-05
0.000264847
-5.9621e-05
0.000265851
-6.65128e-05
0.000267826
-7.34811e-05
0.000270782
-8.04196e-05
0.000274772
-8.72201e-05
0.000279816
-9.37609e-05
0.00028593
-9.99028e-05
0.000293145
-0.000105491
0.00030144
-0.000110349
0.000310791
-0.000114285
0.00032115
-0.000117081
0.000332428
-0.000118503
0.000344466
-0.000118307
-0.00011626
0.000357051
0.000470461
1.0585e-05
0.000467928
8.53801e-06
0.000465482
6.01079e-06
0.000463105
3.11155e-06
0.000460815
-6.22932e-08
0.000458549
-3.47029e-06
0.000456341
-6.93347e-06
0.000454078
-1.04391e-05
0.000451704
-1.37848e-05
0.000449234
-1.69673e-05
0.000446494
-1.98134e-05
0.000443462
-2.22646e-05
0.000440046
-2.42342e-05
0.000436165
-2.56599e-05
0.000431756
-2.64836e-05
0.000426758
-2.67175e-05
0.00042112
-2.63168e-05
0.000414807
-2.5357e-05
0.000407817
-2.38631e-05
0.000400163
-2.19405e-05
0.000391894
-1.969e-05
0.000383084
-1.72467e-05
0.000373835
-1.47518e-05
0.000364269
-1.23541e-05
0.000354506
-1.02028e-05
0.000344693
-8.43905e-06
0.000334959
-7.18851e-06
0.000325438
-6.55248e-06
0.000316246
-6.61205e-06
0.000307495
-7.42191e-06
0.000299271
-9.01193e-06
0.000291647
-1.13889e-05
0.000284696
-1.45407e-05
0.000278464
-1.84375e-05
0.000273003
-2.30378e-05
0.000268337
-2.82881e-05
0.000264544
-3.41226e-05
0.000261575
-4.04667e-05
0.000259545
-4.72895e-05
0.000258472
-5.45063e-05
0.000258371
-6.20257e-05
0.000259289
-6.97624e-05
0.000261261
-7.76259e-05
0.000264336
-8.55171e-05
0.000268546
-9.33284e-05
0.000273946
-0.000100933
0.000280575
-0.000108187
0.00028844
-0.000114931
0.000297586
-0.000120965
0.000307998
-0.000126084
0.000319621
-0.000130014
0.000332349
-0.000132485
0.000346026
-0.00013316
-0.000131771
0.000360429
0.000468881
1.34356e-05
0.000466113
1.11913e-05
0.000463365
8.43262e-06
0.000460904
5.30332e-06
0.000458436
1.79089e-06
0.000456207
-1.81074e-06
0.000453988
-5.5932e-06
0.000451905
-9.27299e-06
0.000449792
-1.29075e-05
0.000447563
-1.62057e-05
0.000445214
-1.92315e-05
0.000442566
-2.1718e-05
0.000439605
-2.37325e-05
0.000436207
-2.51002e-05
0.000432296
-2.58258e-05
0.000427786
-2.59106e-05
0.000422588
-2.52837e-05
0.000416676
-2.40635e-05
0.000409998
-2.22611e-05
0.000402565
-2.00092e-05
0.000394413
-1.74203e-05
0.000385581
-1.46308e-05
0.000376194
-1.18209e-05
0.000366363
-9.12943e-06
0.000356221
-6.72844e-06
0.000345922
-4.77261e-06
0.000335613
-3.3945e-06
0.000325444
-2.70206e-06
0.000315555
-2.78485e-06
0.000306074
-3.6984e-06
0.000297117
-5.47409e-06
0.000288767
-8.1152e-06
0.000281112
-1.16096e-05
0.000274212
-1.59195e-05
0.000268121
-2.10026e-05
0.000262887
-2.68007e-05
0.000258562
-3.32448e-05
0.000255159
-4.02639e-05
0.000252734
-4.78023e-05
0.000251349
-5.57904e-05
0.000251017
-6.41515e-05
0.00025179
-7.279e-05
0.000253708
-8.16163e-05
0.000256827
-9.05393e-05
0.000261216
-9.94523e-05
0.000266913
-0.000108236
0.000273991
-0.000116734
0.000282513
-0.000124795
0.000292507
-0.000132199
0.00030398
-0.000138699
0.000316901
-0.000143974
0.000331149
-0.000147721
0.000346533
-0.000149426
-0.000148844
0.000362743
0.000467248
1.63668e-05
0.000464054
1.38725e-05
0.00046119
1.08265e-05
0.000458355
7.35066e-06
0.000455889
3.60619e-06
0.000453612
-3.75222e-07
0.000451526
-4.42643e-06
0.000449598
-8.44609e-06
0.000447672
-1.22469e-05
0.000445831
-1.57781e-05
0.000443834
-1.89012e-05
0.000441735
-2.1511e-05
0.000439266
-2.35088e-05
0.000436458
-2.47962e-05
0.000433031
-2.53985e-05
0.000429042
-2.51556e-05
0.000424367
-2.43195e-05
0.000418845
-2.26796e-05
0.000412498
-2.05018e-05
0.000405282
-1.7819e-05
0.000397227
-1.47934e-05
0.000388373
-1.15676e-05
0.000378815
-8.34806e-06
0.000368673
-5.28423e-06
0.00035809
-2.56603e-06
0.000347232
-3.58477e-07
0.000336283
1.17344e-06
0.000325397
1.94287e-06
0.000314733
1.84431e-06
0.000304447
8.18344e-07
0.000294671
-1.1603e-06
0.000285517
-4.09701e-06
0.000277081
-7.96819e-06
0.000269439
-1.27355e-05
0.00026266
-1.8343e-05
0.000256796
-2.47337e-05
0.000251881
-3.18347e-05
0.000247995
-3.95745e-05
0.000245116
-4.78685e-05
0.000243354
-5.66887e-05
0.000242732
-6.59351e-05
0.000243284
-7.55308e-05
0.000245076
-8.53841e-05
0.000248173
-9.54195e-05
0.000252646
-0.000105527
0.000258576
-0.000115602
0.000266047
-0.000125492
0.000275155
-0.000135037
0.000285955
-0.000144007
0.000298433
-0.000152099
0.000312641
-0.000158917
0.000328272
-0.00016412
0.000345175
-0.000166891
-0.000167281
0.000362972
0.000465365
1.94336e-05
0.000461862
1.66204e-05
0.000458617
1.32241e-05
0.00045567
9.38738e-06
0.000453069
5.2415e-06
0.000450778
8.85514e-07
0.000448802
-3.51847e-06
0.000447015
-7.86819e-06
0.000445525
-1.19497e-05
0.000443959
-1.57223e-05
0.000442516
-1.89544e-05
0.000440854
-2.16505e-05
0.000439041
-2.35864e-05
0.000436767
-2.47997e-05
0.000434013
-2.51289e-05
0.000430614
-2.46805e-05
0.000426401
-2.33491e-05
0.000421392
-2.13029e-05
0.000415413
-1.86083e-05
0.000408432
-1.53674e-05
0.000400456
-1.1786e-05
0.000391549
-8.0125e-06
0.000381773
-4.26074e-06
0.000371263
-7.20519e-07
0.000360185
2.38015e-06
0.000348703
4.89703e-06
0.000337005
6.65087e-06
0.00032529
7.5205e-06
0.000313755
7.41017e-06
0.000302565
6.26196e-06
0.000291886
4.04842e-06
0.000281844
7.79271e-07
0.000272547
-3.516e-06
0.000264096
-8.7887e-06
0.000256562
-1.49787e-05
0.000250004
-2.20133e-05
0.00024446
-2.98214e-05
0.000240002
-3.83232e-05
0.000236631
-4.74463e-05
0.000234425
-5.71284e-05
0.000233434
-6.73128e-05
0.000233695
-7.79168e-05
0.000235278
-8.88592e-05
0.000238258
-0.000100075
0.000242727
-0.000111471
0.000248787
-0.000122944
0.000256551
-0.000134376
0.00026614
-0.000145565
0.000277624
-0.000156291
0.000290959
-0.000166128
0.000306213
-0.000174635
0.000322741
-0.000181199
0.000340582
-0.000185036
-0.000186375
0.000359094
0.000463256
2.2696e-05
0.00045934
1.94888e-05
0.000455765
1.56599e-05
0.000452641
1.13706e-05
0.000449897
6.75589e-06
0.000447665
1.95957e-06
0.000445746
-2.89419e-06
0.000444279
-7.61091e-06
0.000443048
-1.20236e-05
0.000442026
-1.60319e-05
0.000441048
-1.9466e-05
0.00044007
-2.21923e-05
0.000438868
-2.41352e-05
0.000437307
-2.51453e-05
0.000435262
-2.52452e-05
0.000432486
-2.43564e-05
0.000428935
-2.25847e-05
0.000424428
-1.99518e-05
0.000418813
-1.66027e-05
0.000412075
-1.26749e-05
0.000404187
-8.3753e-06
0.000395172
-3.9046e-06
0.00038513
5.06784e-07
0.000374197
4.63057e-06
0.000362514
8.24355e-06
0.000350295
1.11489e-05
0.000337746
1.31707e-05
0.000325111
1.41721e-05
0.000312598
1.40582e-05
0.000300408
1.27695e-05
0.000288724
1.02918e-05
0.000277707
6.6388e-06
0.000267481
1.85824e-06
0.000258144
-3.98399e-06
0.000249786
-1.08198e-05
0.000242465
-1.85618e-05
0.00023624
-2.71358e-05
0.000231141
-3.64601e-05
0.000227224
-4.64509e-05
0.000224512
-5.70553e-05
0.000223079
-6.82159e-05
0.000222959
-7.98716e-05
0.000224238
-9.19562e-05
0.000226999
-0.000104414
0.000231332
-0.000117177
0.000237398
-0.000130152
0.000245316
-0.000143257
0.000255211
-0.000156218
0.000267129
-0.000168828
0.00028092
-0.000180348
0.000296463
-0.000190451
0.000313019
-0.000198009
0.000330762
-0.000202931
-0.000205075
0.000348787
0.000460811
2.62337e-05
0.000456437
2.25366e-05
0.000452551
1.81773e-05
0.000449132
1.33342e-05
0.000446385
8.15729e-06
0.000444064
2.80537e-06
0.000442354
-2.50961e-06
0.000441246
-7.7155e-06
0.000440392
-1.2556e-05
0.000439877
-1.68476e-05
0.000439559
-2.04818e-05
0.000439249
-2.33083e-05
0.000438837
-2.5169e-05
0.000438092
-2.602e-05
0.000436853
-2.57715e-05
0.000434853
-2.44462e-05
0.000431939
-2.20138e-05
0.00042801
-1.87027e-05
0.00042285
-1.4516e-05
0.000416379
-9.73715e-06
0.000408546
-4.54478e-06
0.000399399
7.98579e-07
0.000389008
6.03601e-06
0.00037752
1.0902e-05
0.000365131
1.51441e-05
0.000352073
1.85402e-05
0.00033857
2.08982e-05
0.000324876
2.20709e-05
0.000311249
2.19577e-05
0.000297933
2.05083e-05
0.000285134
1.7717e-05
0.000273034
1.36182e-05
0.000261777
8.27758e-06
0.000251486
1.78206e-06
0.000242245
-5.78125e-06
0.000234114
-1.43056e-05
0.000227149
-2.37144e-05
0.000221369
-3.39154e-05
0.00021685
-4.4837e-05
0.000213557
-5.63916e-05
0.000211604
-6.85781e-05
0.000211024
-8.1319e-05
0.000211887
-9.45807e-05
0.000214295
-0.000108326
0.000218369
-0.000122521
0.000224276
-0.000137087
0.000232128
-0.000151941
0.000242055
-0.000166739
0.000253871
-0.00018112
0.000267372
-0.000193947
0.000282023
-0.000205352
0.00029707
-0.000213158
0.000313204
-0.000219934
-0.000223282
0.000329892
0.000457927
3.0134e-05
0.000453061
2.58364e-05
0.000448766
2.08252e-05
0.000445186
1.53061e-05
0.000442221
9.45325e-06
0.000440121
3.44625e-06
0.000438532
-2.53345e-06
0.00043768
-8.24694e-06
0.0004374
-1.35311e-05
0.000437514
-1.82411e-05
0.000437923
-2.21424e-05
0.000438471
-2.50633e-05
0.000438943
-2.68993e-05
0.000439164
-2.75227e-05
0.000438816
-2.68841e-05
0.000437693
-2.49585e-05
0.000435608
-2.18529e-05
0.000432293
-1.76041e-05
0.000427628
-1.24349e-05
0.000421421
-6.58263e-06
0.00041364
-2.90144e-07
0.000404313
6.14452e-06
0.000393524
1.2411e-05
0.000381416
1.8206e-05
0.000368194
2.32361e-05
0.000354127
2.72483e-05
0.000339496
3.00253e-05
0.000324596
3.14139e-05
0.000309708
3.1306e-05
0.000295109
2.96625e-05
0.000281056
2.64949e-05
0.000267759
2.18653e-05
0.000255382
1.5866e-05
0.000244066
8.6106e-06
0.000233874
2.27772e-07
0.000224876
-9.17137e-06
0.000217126
-1.95e-05
0.000210629
-3.0642e-05
0.000205439
-4.25331e-05
0.000201539
-5.51e-05
0.000198987
-6.83228e-05
0.000197845
-8.21725e-05
0.000198181
-9.66321e-05
0.000200103
-0.000111691
0.000203747
-0.000127353
0.000209275
-0.000143553
0.00021678
-0.000160153
0.000226202
-0.000176634
0.000237156
-0.000192275
0.000249022
-0.000205946
0.0002611
-0.000217956
0.000273913
-0.00022673
0.000288515
-0.00023881
-0.000254109
0.000311489
0.000454493
3.45044e-05
0.000449072
2.94633e-05
0.000444392
2.3657e-05
0.000440502
1.7319e-05
0.000437552
1.06447e-05
0.000435375
3.84687e-06
0.000434093
-2.86429e-06
0.000433809
-9.25551e-06
0.000434009
-1.51883e-05
0.000434847
-2.03378e-05
0.000436106
-2.45526e-05
0.000437639
-2.76343e-05
0.000439181
-2.94493e-05
0.000440503
-2.98395e-05
0.000441294
-2.87749e-05
0.000441228
-2.61757e-05
0.000440008
-2.21308e-05
0.000437481
-1.68406e-05
0.000433348
-1.04336e-05
0.000427474
-3.25778e-06
0.00041976
4.39074e-06
0.000410166
1.21862e-05
0.000398812
1.97352e-05
0.000385906
2.66867e-05
0.000371695
3.2696e-05
0.000356456
3.74752e-05
0.000340496
4.07771e-05
0.000324161
4.24327e-05
0.000307815
4.23282e-05
0.000291787
4.0445e-05
0.000276351
3.68128e-05
0.000261754
3.15371e-05
0.000248173
2.47521e-05
0.000235747
1.66116e-05
0.000224572
7.27335e-06
0.000214691
-3.11303e-06
0.000206122
-1.44385e-05
0.00019888
-2.65955e-05
0.000192984
-3.95083e-05
0.000188406
-5.31114e-05
0.000185197
-6.73918e-05
0.000183397
-8.23446e-05
0.000183089
-9.80004e-05
0.000184378
-0.000114379
0.000187399
-0.000131499
0.000192282
-0.000149303
0.000198956
-0.000167451
0.000207163
-0.000185064
0.000215831
-0.000201318
0.000224494
-0.000214903
0.000233261
-0.000228703
0.000246314
-0.000245051
0.000275255
-0.000281192
-0.000337222
0.000315732
0.000450343
3.94614e-05
0.000444301
3.35074e-05
0.000439176
2.6733e-05
0.000435073
1.93976e-05
0.000431994
1.17317e-05
0.000430015
3.97216e-06
0.000429045
-3.64452e-06
0.00042918
-1.08899e-05
0.000430061
-1.74759e-05
0.000431726
-2.32103e-05
0.000434112
-2.78637e-05
0.000436759
-3.12101e-05
0.000439614
-3.30329e-05
0.000442201
-3.32163e-05
0.000444298
-3.16175e-05
0.000445512
-2.82646e-05
0.000445392
-2.31554e-05
0.0004437
-1.65113e-05
0.000440113
-8.57728e-06
0.000434505
1.97819e-07
0.000426786
9.50591e-06
0.000416929
1.8965e-05
0.000405005
2.81128e-05
0.00039119
3.65094e-05
0.000375777
4.37385e-05
0.00035914
4.94602e-05
0.000341653
5.34139e-05
0.000323684
5.54035e-05
0.000305646
5.53009e-05
0.000287939
5.31035e-05
0.000270915
4.88908e-05
0.00025486
4.28149e-05
0.000239974
3.50728e-05
0.000226392
2.58764e-05
0.000214191
1.54306e-05
0.000203395
3.929e-06
0.000194011
-8.51163e-06
0.000186034
-2.17689e-05
0.000179417
-3.57344e-05
0.000174151
-5.03924e-05
0.000170219
-6.57258e-05
0.000167687
-8.17657e-05
0.00016662
-9.85832e-05
0.000167115
-0.000116243
0.000169293
-0.000134763
0.000173147
-0.00015398
0.000178399
-0.000173172
0.000184097
-0.000191165
0.000188984
-0.000207033
0.000194301
-0.000222334
0.000203812
-0.000246579
0.000232551
-0.000301289
0.00026515
-0.000364401
-0.000406937
0.000299741
0.000445321
4.51298e-05
0.000438593
3.80612e-05
0.000433002
3.0111e-05
0.000428599
2.1573e-05
0.000425517
1.27137e-05
0.000423633
3.80077e-06
0.000423116
-4.90766e-06
0.000423846
-1.31275e-05
0.000425478
-2.06371e-05
0.000428212
-2.70913e-05
0.00043171
-3.22784e-05
0.000435778
-3.59533e-05
0.000440049
-3.78801e-05
0.000444175
-3.78385e-05
0.000447714
-3.56834e-05
0.000450314
-3.14045e-05
0.000451485
-2.50839e-05
0.000450792
-1.67607e-05
0.000448045
-7.08159e-06
0.000442843
3.65297e-06
0.000435087
1.50882e-05
0.00042485
2.65529e-05
0.000412169
3.76781e-05
0.000397266
4.78536e-05
0.000380447
5.65854e-05
0.000362117
6.34749e-05
0.000342744
6.82249e-05
0.000322831
7.06043e-05
0.00030287
7.04903e-05
0.000283331
6.78917e-05
0.000264599
6.29381e-05
0.000246988
5.58623e-05
0.000230724
4.69448e-05
0.000215942
3.64773e-05
0.000202708
2.4731e-05
0.00019104
1.19299e-05
0.000180845
-1.70641e-06
0.000172107
-1.61278e-05
0.000164769
-3.12055e-05
0.000158774
-4.69259e-05
0.000154094
-6.32793e-05
0.00015075
-8.03637e-05
0.000148812
-9.82789e-05
0.000148353
-0.000117132
0.000149393
-0.000136878
0.000151716
-0.000157037
0.000154467
-0.000176525
0.000156179
-0.000193662
0.000156979
-0.000210574
0.000163931
-0.000240378
0.000184799
-0.000304937
0.000202522
-0.000372183
0.000216594
-0.000407618
-0.000428674
0.000228113
0.000439157
5.16169e-05
0.000431684
4.32016e-05
0.000425573
3.38379e-05
0.000420942
2.38609e-05
0.000417779
1.35815e-05
0.000416215
3.29372e-06
0.000416084
-6.72123e-06
0.00041738
-1.61398e-05
0.000420183
-2.46986e-05
0.000424006
-3.20935e-05
0.000428904
-3.799e-05
0.000434443
-4.21446e-05
0.000440333
-4.41891e-05
0.000446122
-4.39006e-05
0.000451328
-4.10967e-05
0.000455427
-3.57474e-05
0.0004579
-2.79114e-05
0.000458557
-1.79441e-05
0.000456642
-6.11013e-06
0.000451732
7.1739e-06
0.000443857
2.10979e-05
0.000433098
3.49886e-05
0.000419468
4.85281e-05
0.000403267
6.08621e-05
0.000384915
7.13942e-05
0.0003648
7.97137e-05
0.000343422
8.54677e-05
0.000321361
8.83441e-05
0.000299221
8.82016e-05
0.000277571
8.50601e-05
0.000256917
7.91518e-05
0.000237638
7.0809e-05
0.000219965
6.04373e-05
0.000204009
4.8436e-05
0.00018979
3.5167e-05
0.000177255
2.09184e-05
0.000166332
5.92896e-06
0.00015695
-9.76506e-06
0.00014897
-2.59735e-05
0.000142283
-4.27183e-05
0.000136851
-6.00461e-05
0.000132649
-7.80902e-05
0.000129748
-9.69975e-05
0.000128143
-0.000116871
0.000127651
-0.000137429
0.000127618
-0.000157823
0.000126583
-0.00017632
0.000123348
-0.000193323
0.000124807
-0.000223961
0.000132102
-0.000292722
0.000136078
-0.000354848
0.000133252
-0.000388364
0.000132711
-0.000411774
-0.0004313
0.000135669
0.000431328
5.89676e-05
0.00042314
4.89527e-05
0.000416596
3.791e-05
0.000411761
2.62358e-05
0.00040865
1.42812e-05
0.000407349
2.3771e-06
0.000407785
-9.17302e-06
0.000409902
-2.00169e-05
0.000413755
-2.9852e-05
0.000418887
-3.83425e-05
0.000425284
-4.51063e-05
0.000432365
-4.97604e-05
0.000439837
-5.19246e-05
0.000447218
-5.13509e-05
0.000453887
-4.77498e-05
0.000459382
-4.12729e-05
0.000463208
-3.18098e-05
0.000464502
-1.96421e-05
0.000463336
-5.47541e-06
0.000459322
1.027e-05
0.000451443
2.74125e-05
0.000440172
4.43654e-05
0.00042554
6.08053e-05
0.000407902
7.56765e-05
0.000387756
8.82559e-05
0.000365703
9.82182e-05
0.000342274
0.000105143
0.000318036
0.000108629
0.000293681
0.000108469
0.000269925
0.000104692
0.000247359
9.76013e-05
0.000226427
8.7688e-05
0.000207394
7.55325e-05
0.000190358
6.16879e-05
0.000175297
4.66338e-05
0.000162099
3.07299e-05
0.000150641
1.42256e-05
0.00014068
-2.72295e-06
0.000132098
-2.00608e-05
0.00012476
-3.78027e-05
0.000118577
-5.60338e-05
0.000113514
-7.49215e-05
0.000109548
-9.46507e-05
0.000106522
-0.000115175
0.000103926
-0.000135837
0.000100434
-0.00015532
9.41166e-05
-0.000172553
8.89964e-05
-0.000199528
8.41633e-05
-0.000265963
7.13513e-05
-0.000324031
5.60403e-05
-0.000354758
4.52315e-05
-0.000380022
3.9687e-05
-0.000405199
-0.000428073
3.83653e-05
0.000421097
6.70513e-05
0.000412327
5.5203e-05
0.000405433
4.22252e-05
0.00040052
2.85972e-05
0.000397633
1.47092e-05
0.000396696
9.41268e-07
0.000397829
-1.23672e-05
0.000400947
-2.48649e-05
0.000405833
-3.61593e-05
0.000412328
-4.58639e-05
0.000420004
-5.35204e-05
0.000428403
-5.85463e-05
0.00043696
-6.06575e-05
0.000445245
-5.94876e-05
0.000452573
-5.48486e-05
0.000458873
-4.72352e-05
0.000463461
-3.6229e-05
0.000465505
-2.17155e-05
0.000464948
-5.43058e-06
0.000461108
1.36113e-05
0.000453491
3.38913e-05
0.00044227
5.39118e-05
0.000426487
7.45154e-05
0.000407839
9.17922e-05
0.000386351
0.000106873
0.000362531
0.000118815
0.000337128
0.000127082
0.00031096
0.00013129
0.000284691
0.000131104
0.000259073
0.00012658
0.000234838
0.000118074
0.000212525
0.000106277
0.00019242
9.19986e-05
0.000174589
7.59992e-05
0.000158945
5.89049e-05
0.000145304
4.1168e-05
0.000133446
2.30725e-05
0.000123088
4.83815e-06
0.000114103
-1.36476e-05
0.000106263
-3.23093e-05
9.94331e-05
-5.13144e-05
9.35243e-05
-7.08753e-05
8.83852e-05
-9.1111e-05
8.35631e-05
-0.000111606
7.77556e-05
-0.000131306
6.91744e-05
-0.000148797
5.94871e-05
-0.000172154
4.15837e-05
-0.000225572
1.15524e-05
-0.000282546
-1.30039e-05
-0.000312384
-3.08914e-05
-0.00033835
-4.32311e-05
-0.00036695
-5.18768e-05
-0.000395042
-0.000419835
-5.81898e-05
0.000407081
7.54079e-05
0.000398201
6.15524e-05
0.000391351
4.64598e-05
0.000386662
3.0679e-05
0.000384161
1.4666e-05
0.000383855