/*--------------------------------*- C++ -*----------------------------------*\
  =========                 |
  \\      /  F ield         | OpenFOAM: The Open Source CFD Toolbox
   \\    /   O peration     | Website:  https://openfoam.org
    \\  /    A nd           | Version:  10
     \\/     M anipulation  |
\*---------------------------------------------------------------------------*/
FoamFile
{
    format      ascii;
    class       volScalarField;
    location    "0.449345";
    object      rho;
}
// * * * * * * * * * * * * * * * * * * * * * * * * * * * * * * * * * * * * * //

dimensions      [1 -3 0 0 0 0 0];

internalField   nonuniform List<scalar> 
15984
(
0.969314
0.968979
0.968646
0.968367
0.968274
0.968322
0.968687
0.969376
0.970557
0.972221
0.974422
0.977036
0.980428
0.984122
0.988479
0.99325
0.998461
1.0038
1.00942
1.0148
1.02036
1.0252
1.03011
1.03424
1.03801
1.04119
1.04376
1.04587
1.04735
1.04844
1.04906
1.04928
1.04917
1.04879
1.04816
1.04725
1.04635
1.04507
1.04394
1.04262
1.04127
1.03997
1.03867
1.03726
1.03612
1.03471
1.03358
1.03234
1.03118
1.02998
1.02883
1.02764
1.02636
1.02525
0.969239
0.968957
0.96877
0.968636
0.968591
0.9688
0.969146
0.969978
0.971106
0.972733
0.974809
0.97747
0.980435
0.98432
0.988385
0.993136
0.998062
1.0035
1.00892
1.01443
1.01972
1.02486
1.02973
1.03396
1.03787
1.04118
1.04396
1.04616
1.04789
1.04907
1.0499
1.05018
1.05028
1.04998
1.04948
1.04866
1.04773
1.04663
1.04541
1.04413
1.04284
1.04144
1.04005
1.03871
1.03727
1.03588
1.03455
1.03311
1.03176
1.03033
1.02902
1.02747
1.02619
1.0245
0.969046
0.96908
0.969032
0.969048
0.969155
0.969462
0.969915
0.970821
0.971851
0.973583
0.975475
0.978096
0.980985
0.984677
0.988564
0.993195
0.998023
1.00321
1.00862
1.01396
1.01933
1.02449
1.0292
1.0338
1.03759
1.0412
1.044
1.04649
1.04833
1.04971
1.05062
1.05121
1.05131
1.05122
1.05076
1.05015
1.04922
1.04823
1.04703
1.04582
1.04442
1.0431
1.04159
1.04018
1.03864
1.03714
1.03564
1.03397
1.03251
1.03086
1.02921
1.02758
1.02586
1.02413
0.969054
0.969328
0.969472
0.969698
0.969936
0.970326
0.970986
0.971761
0.973074
0.974492
0.976617
0.978913
0.981886
0.985275
0.989029
0.99355
0.998085
1.0032
1.00837
1.01371
1.01893
1.024
1.029
1.0333
1.0375
1.04103
1.04415
1.04665
1.04876
1.05028
1.05147
1.05207
1.0525
1.05246
1.05221
1.05161
1.0509
1.04988
1.04884
1.04752
1.04632
1.04473
1.04338
1.04176
1.04017
1.03855
1.03682
1.03512
1.03329
1.03158
1.0295
1.0278
1.02564
1.02375
0.96927
0.969679
0.970091
0.970527
0.970909
0.971501
0.972122
0.973134
0.974347
0.975902
0.977813
0.980193
0.982881
0.986117
0.989817
0.993892
0.99853
1.00326
1.0083
1.01357
1.01859
1.0237
1.02855
1.0331
1.03722
1.0409
1.04418
1.0469
1.04913
1.05092
1.05219
1.05312
1.05362
1.05378
1.05366
1.05326
1.05257
1.05173
1.05065
1.04946
1.04813
1.04668
1.04524
1.04348
1.04185
1.04014
1.03812
1.0364
1.03426
1.03223
1.0301
1.02793
1.02561
1.02335
0.969534
0.97025
0.970877
0.971427
0.972148
0.972778
0.973627
0.97467
0.975893
0.977585
0.979245
0.981689
0.984137
0.987378
0.990696
0.994694
0.998886
1.00352
1.00839
1.01329
1.01845
1.02335
1.02816
1.03278
1.03695
1.04078
1.04417
1.04708
1.04951
1.05145
1.05301
1.05405
1.05481
1.05514
1.05515
1.05493
1.05438
1.05359
1.05267
1.05142
1.05023
1.0487
1.0472
1.04544
1.04367
1.04179
1.03974
1.03766
1.03538
1.03314
1.03068
1.0283
1.02557
1.02313
0.970023
0.970917
0.971785
0.97264
0.973384
0.974381
0.97527
0.976402
0.977757
0.9792
0.981197
0.983179
0.985798
0.988536
0.99188
0.995523
0.999515
1.00395
1.0085
1.01337
1.01819
1.02313
1.02784
1.03243
1.03676
1.04059
1.04422
1.04716
1.04987
1.05205
1.05373
1.05512
1.05592
1.05656
1.05672
1.05661
1.05626
1.0556
1.05464
1.05363
1.05228
1.05087
1.04928
1.04747
1.0457
1.04351
1.04145
1.03907
1.03668
1.03412
1.03138
1.02869
1.02568
1.02286
0.970558
0.971746
0.972857
0.9739
0.97498
0.97595
0.977165
0.978291
0.979741
0.981272
0.982993
0.985133
0.987371
0.990104
0.993146
0.996563
1.00034
1.00443
1.00881
1.01346
1.0181
1.02295
1.02755
1.03213
1.03646
1.04046
1.04412
1.04734
1.05022
1.05257
1.05452
1.05606
1.05717
1.05793
1.05831
1.05838
1.05814
1.05761
1.05685
1.05581
1.05454
1.05316
1.05145
1.04973
1.04766
1.04554
1.04319
1.04067
1.03802
1.03519
1.03231
1.02907
1.02593
1.02253
0.971271
0.972733
0.974087
0.975398
0.976621
0.977848
0.979116
0.980422
0.981866
0.98341
0.985153
0.987133
0.989236
0.991818
0.994573
0.997758
1.00128
1.00507
1.00922
1.01354
1.01815
1.02267
1.02732
1.03185
1.03618
1.04025
1.04409
1.04748
1.05049
1.05308
1.05528
1.05701
1.05841
1.05935
1.05992
1.06016
1.06009
1.0597
1.05907
1.05806
1.05694
1.05542
1.05384
1.05194
1.04984
1.04759
1.04507
1.04237
1.03954
1.0364
1.03314
1.02966
1.02614
1.02234
0.972097
0.973809
0.975383
0.976991
0.978362
0.979947
0.981116
0.982859
0.984094
0.985699
0.987462
0.989186
0.991346
0.993545
0.996178
0.999024
1.00227
1.00581
1.00965
1.01379
1.01808
1.02258
1.02705
1.03157
1.03592
1.0401
1.044
1.04758
1.05079
1.05359
1.05602
1.058
1.05956
1.06075
1.06152
1.06198
1.06206
1.06184
1.06126
1.06043
1.05926
1.05789
1.05619
1.0543
1.05214
1.04971
1.04711
1.04422
1.04102
1.03773
1.0341
1.03035
1.02626
1.02218
0.973018
0.974931
0.977087
0.978376
0.980856
0.981597
0.983913
0.984667
0.986924
0.98797
0.989843
0.991464
0.993313
0.99541
0.997735
1.0004
1.00331
1.00658
1.01019
1.01402
1.01817
1.02246
1.02684
1.03128
1.03566
1.03989
1.04392
1.04764
1.05104
1.05405
1.0567
1.05894
1.06074
1.06217
1.06316
1.06379
1.06406
1.06397
1.06353
1.06277
1.0617
1.06033
1.05869
1.0567
1.05449
1.05202
1.04914
1.0461
1.04272
1.0391
1.03513
1.03099
1.02653
1.02188
0.974032
0.976502
0.978235
0.981012
0.981963
0.984655
0.985494
0.987956
0.988866
0.990679
0.992219
0.993497
0.995929
0.996919
1.00002
1.00135
1.00468
1.00736
1.0107
1.0143
1.01822
1.02233
1.02664
1.03099
1.03539
1.03965
1.04381
1.04768
1.0513
1.05449
1.05739
1.05983
1.06191
1.06354
1.06475
1.0656
1.06602
1.06609
1.0658
1.06517
1.06414
1.06287
1.06116
1.05923
1.0569
1.05432
1.05132
1.04807
1.04448
1.04056
1.03607
1.03194
1.0264
1.02167
0.975309
0.977764
0.980293
0.982437
0.984658
0.986533
0.988391
0.990147
0.991462
0.993546
0.994306
0.996509
0.997256
0.999771
1.0007
1.0036
1.00533
1.00821
1.01123
1.01466
1.01829
1.02224
1.02642
1.03074
1.03514
1.03948
1.04371
1.04774
1.05148
1.05496
1.05799
1.06074
1.06297
1.06487
1.0663
1.06735
1.06797
1.06821
1.06805
1.06752
1.06662
1.06535
1.06369
1.06171
1.05936
1.05667
1.05356
1.0501
1.04627
1.04204
1.0371
1.03288
1.0258
1.02193
0.97652
0.979434
0.981998
0.984539
0.986937
0.988825
0.991189
0.992355
0.994528
0.995494
0.997464
0.998101
1.00021
1.00091
1.00299
1.00452
1.00654
1.00905
1.01179
1.01486
1.01833
1.02212
1.02614
1.03044
1.03482
1.03923
1.04356
1.04768
1.05169
1.05529
1.05865
1.06153
1.06411
1.06617
1.06787
1.06907
1.06989
1.07029
1.07026
1.06987
1.06906
1.06783
1.06619
1.06423
1.06186
1.05896
1.0559
1.05211
1.04816
1.04346
1.03824
1.03295
1.02602
1.02409
0.978026
0.981029
0.983971
0.986745
0.989009
0.99179
0.993098
0.995589
0.996677
0.998628
0.999327
1.00112
1.00161
1.0034
1.00406
1.00627
1.00733
1.00979
1.01215
1.01512
1.01832
1.02197
1.02586
1.03007
1.03438
1.03889
1.04336
1.0477
1.05181
1.05567
1.05921
1.06236
1.06511
1.06739
1.06932
1.07072
1.07175
1.0723
1.07243
1.07214
1.07143
1.07025
1.06869
1.06668
1.06429
1.06136
1.05819
1.0541
1.05015
1.0443
1.03964
1.03374
1.0299
1.03157
0.979484
0.982863
0.985953
0.988857
0.991707
0.993673
0.996615
0.997467
0.9997
1.00068
1.00227
1.00283
1.00421
1.00461
1.0062
1.00675
1.00862
1.01017
1.01243
1.01517
1.01812
1.02164
1.02543
1.02969
1.03403
1.0386
1.04314
1.0477
1.05202
1.05609
1.05978
1.06316
1.06609
1.0686
1.07071
1.07231
1.0735
1.07421
1.07451
1.07434
1.07377
1.07262
1.0711
1.06908
1.06671
1.06371
1.06039
1.05617
1.05157
1.04552
1.043
1.0375
1.05469
1.06544
0.981128
0.984767
0.988056
0.991264
0.993872
0.996808
0.998279
1.00079
1.00195
1.00364
1.00415
1.00533
1.00572
1.00664
1.00707
1.00832
1.00908
1.01066
1.01256
1.01504
1.01794
1.02133
1.02493
1.02904
1.03342
1.03815
1.04283
1.04751
1.05193
1.05627
1.06022
1.06384
1.06703
1.06973
1.07202
1.07382
1.0752
1.07606
1.0765
1.07644
1.07593
1.07488
1.07337
1.07143
1.069
1.06601
1.06248
1.05778
1.0532
1.04834
1.05407
1.06628
1.13638
1.29212
0.982894
0.986725
0.990238
0.993566
0.996544
0.999051
1.00142
1.00295
1.0049
1.00547
1.00666
1.00718
1.00772
1.00808
1.00848
1.00892
1.01
1.01088
1.01244
1.01448
1.01712
1.02038
1.02415
1.02836
1.03283
1.03757
1.04252
1.04746
1.05212
1.05656
1.06064
1.06438
1.06774
1.07065
1.07311
1.07511
1.07663
1.07767
1.0783
1.07834
1.07797
1.07696
1.07552
1.07364
1.07115
1.06817
1.06412
1.05945
1.05707
1.05982
1.10029
1.19873
1.471
1.74682
0.984859
0.988833
0.992578
0.996032
0.998949
1.00189
1.00357
1.00613
1.00677
1.00816
1.00859
1.00913
1.00937
1.00937
1.00943
1.00944
1.00994
1.01054
1.01167
1.01414
1.01627
1.01944
1.02323
1.02756
1.03227
1.03713
1.04206
1.04705
1.05194
1.05666
1.0611
1.06513
1.06871
1.0718
1.07441
1.07654
1.07817
1.07932
1.08001
1.08013
1.0798
1.07886
1.07748
1.07564
1.07317
1.06983
1.06553
1.06275
1.06989
1.11734
1.27653
1.66187
1.87379
1.96814
0.986994
0.991155
0.995008
0.998493
1.00168
1.00413
1.00678
1.0078
1.00946
1.01026
1.01079
1.01085
1.01067
1.01034
1.00992
1.00965
1.00962
1.00997
1.01153
1.01275
1.01488
1.01782
1.02157
1.02585
1.03084
1.03612
1.04148
1.04681
1.05196
1.05683
1.06132
1.06547
1.06926
1.07255
1.07535
1.07761
1.07935
1.08062
1.08139
1.08162
1.08134
1.08051
1.07923
1.0774
1.07478
1.07078
1.06809
1.07495
1.12775
1.34123
1.75702
1.9705
2.02877
2.01762
0.98923
0.993501
0.997588
1.00119
1.00438
1.00683
1.00918
1.01029
1.01171
1.01236
1.01263
1.01238
1.0118
1.011
1.01014
1.00944
1.0089
1.0092
1.00929
1.01042
1.01382
1.01578
1.01964
1.02419
1.02903
1.03426
1.0401
1.04596
1.05153
1.05675
1.06157
1.0659
1.06981
1.0732
1.07613
1.07854
1.08041
1.08172
1.08261
1.0829
1.08259
1.08188
1.08066
1.07874
1.07535
1.07266
1.07695
1.12701
1.35794
1.82248
2.02742
2.06328
2.04898
2.02052
0.991527
0.996127
1.00013
1.00384
1.00693
1.00963
1.01118
1.01288
1.01373
1.01411
1.01398
1.01345
1.01261
1.01115
1.01013
1.00903
1.00903
1.00871
1.00957
1.00962
1.01119
1.01597
1.01819
1.02249
1.02734
1.03271
1.03819
1.04425
1.05056
1.05633
1.0615
1.06608
1.07018
1.07376
1.07681
1.07931
1.08123
1.0826
1.08348
1.08383
1.08351
1.08294
1.08167
1.07922
1.07632
1.07782
1.11701
1.33442
1.83968
2.06173
2.0895
2.07523
2.05195
2.02013
0.993888
0.998784
1.00298
1.0067
1.00979
1.0122
1.01374
1.01524
1.01579
1.01579
1.01549
1.01429
1.01396
1.01123
1.01205
1.01332
1.01505
1.01981
1.02402
1.02409
1.0259
1.0252
1.02538
1.02751
1.03032
1.03312
1.03739
1.04298
1.04901
1.05535
1.0611
1.0661
1.07043
1.07417
1.07731
1.07984
1.08178
1.08311
1.08398
1.0843
1.0841
1.08348
1.08198
1.07899
1.07883
1.10442
1.27914
1.81491
2.0748
2.10758
2.09569
2.07656
2.05212
2.02453
0.996006
1.00098
1.00545
1.00918
1.01241
1.01437
1.01628
1.0172
1.0177
1.01726
1.01758
1.01743
1.01653
1.02083
1.02371
1.0601
1.06067
1.10679
1.15552
1.15763
1.16125
1.12972
1.0902
1.06324
1.04434
1.03893
1.03973
1.04285
1.04811
1.05422
1.06025
1.06569
1.07033
1.07425
1.07746
1.08001
1.08192
1.08323
1.084
1.08438
1.08419
1.08345
1.08092
1.07982
1.094
1.22117
1.73064
2.06781
2.12024
2.11207
2.09497
2.07509
2.05429
2.03036
0.999438
1.00419
1.00844
1.01202
1.01497
1.01673
1.01837
1.01925
1.01936
1.0199
1.02248
1.02336
1.04644
1.05947
1.15338
1.28512
1.43003
1.55647
1.65878
1.66143
1.66746
1.57508
1.52215
1.27478
1.12468
1.06592
1.04519
1.04322
1.0473
1.05325
1.05944
1.06509
1.06995
1.074
1.07726
1.07979
1.08167
1.08292
1.08374
1.084
1.08382
1.08206
1.08042
1.08747
1.17261
1.5917
2.03425
2.12667
2.1245
2.11009
2.09209
2.07403
2.0535
2.031
1.00267
1.00717
1.01128
1.01473
1.01732
1.01918
1.02062
1.02175
1.02162
1.03317
1.03274
1.10374
1.19662
1.44872
1.65252
1.78771
1.86524
1.9052
1.92433
1.91888
1.91742
1.8608
1.85293
1.65522
1.41544
1.17346
1.07725
1.04974
1.04734
1.05221
1.05837
1.06423
1.06927
1.07342
1.07673
1.07916
1.081
1.08217
1.08285
1.08311
1.08232
1.08023
1.08444
1.13868
1.44325
1.96572
2.12455
2.13361
2.12268
2.10571
2.08943
2.07105
2.05083
2.02936
1.0066
1.01045
1.01427
1.01741
1.01978
1.02173
1.02274
1.02832
1.0284
1.08748
1.20339
1.50143
1.74269
1.8773
1.93685
1.95368
1.95338
1.94595
1.93661
1.926
1.91548
1.89477
1.89731
1.81008
1.69064
1.31949
1.12555
1.06142
1.04858
1.05115
1.05714
1.06313
1.0683
1.07254
1.07572
1.07803
1.07975
1.08089
1.08155
1.08139
1.07946
1.08192
1.12002
1.33085
1.86264
2.1101
2.13912
2.13169
2.11712
2.10229
2.08625
2.06818
2.04923
2.02896
1.01118
1.0143
1.01761
1.02033
1.02271
1.02406
1.03323
1.04542
1.14787
1.44587
1.75395
1.91289
1.97177
1.98241
1.97157
1.95392
1.93635
1.89819
1.84255
1.79956
1.80531
1.83591
1.85353
1.84527
1.75561
1.46832
1.18294
1.07544
1.04963
1.04978
1.0556
1.06181
1.06707
1.07121
1.07422
1.07642
1.07803
1.07914
1.07943
1.0782
1.07911
1.11133
1.28365
1.77751
2.08638
2.14031
2.13735
2.12564
2.11197
2.09811
2.08221
2.06478
2.04675
2.02717
1.01499
1.01785
1.02052
1.02329
1.02557
1.03412
1.07795
1.30402
1.68873
1.91276
1.99198
2.00512
1.99473
1.97587
1.93891
1.88816
1.82397
1.74478
1.59878
1.55433
1.57496
1.67073
1.78702
1.80745
1.73609
1.44738
1.167
1.06816
1.04571
1.04777
1.05411
1.06024
1.06539
1.06924
1.07196
1.07412
1.07581
1.07653
1.0756
1.07686
1.11036
1.3173
1.8505
2.10289
2.14153
2.13956
2.13054
2.11841
2.1064
2.09261
2.0774
2.06068
2.04329
2.02497
1.01772
1.0207
1.02359
1.02623
1.04333
1.14059
1.56768
1.90421
2.0106
2.02675
2.0181
2.00028
1.97072
1.92066
1.8422
1.71277
1.58251
1.38133
1.26116
1.2547
1.28023
1.41713
1.66254
1.76341
1.71212
1.41541
1.14321
1.05416
1.04032
1.0449
1.05204
1.05831
1.06316
1.06657
1.06932
1.07159
1.0726
1.07306
1.07916
1.1331
1.38932
1.87875
2.09233
2.13759
2.13886
2.13219
2.12157
2.11111
2.09904
2.08595
2.07142
2.05602
2.03989
2.02271
1.02025
1.02397
1.0314
1.11424
1.56946
1.92905
2.02959
2.04415
2.03759
2.02404
2.00072
1.96209
1.89741
1.79064
1.626
1.36961
1.17589
1.1013
1.08544
1.10285
1.20721
1.43627
1.65516
1.70283
1.57602
1.26415
1.07793
1.03692
1.03622
1.04268
1.04998
1.05586
1.06016
1.06366
1.06617
1.06789
1.07007
1.08153
1.14782
1.42184
1.87908
2.07933
2.12834
2.13504
2.12959
2.1216
2.11196
2.10216
2.0909
2.07872
2.06527
2.05107
2.03613
2.02026
1.06987
1.15887
1.44331
1.84346
2.01745
2.05252
2.05285
2.04401
2.02795
2.00153
1.95695
1.87912
1.74554
1.53677
1.22693
1.0798
1.05341
1.04605
1.07919
1.15416
1.32506
1.54264
1.6533
1.633
1.38543
1.10833
1.03844
1.02748
1.03233
1.04078
1.04748
1.05284
1.05691
1.05966
1.0628
1.06675
1.08574
1.1698
1.48528
1.88669
2.07232
2.11623
2.12917
2.12481
2.11942
2.1103
2.10232
2.09225
2.08202
2.07044
2.05827
2.04496
2.03125
2.01691
1.58468
1.78139
1.9639
2.04946
2.06301
2.05985
2.04989
2.03249
2.00373
1.95403
1.86534
1.71333
1.48115
1.16221
1.04649
1.02744
1.05498
1.16247
1.27188
1.37113
1.48077
1.54676
1.56032
1.38784
1.13731
1.03493
1.02164
1.02256
1.03051
1.0383
1.04462
1.04909
1.05257
1.05684
1.06439
1.09346
1.19903
1.57457
1.89868
2.0694
2.10417
2.12088
2.1183
2.1143
2.10677
2.10013
2.09127
2.08274
2.07262
2.06213
2.0507
2.03877
2.02638
2.01337
1.97857
2.03834
2.06708
2.07239
2.06741
2.05728
2.03856
2.00766
1.95321
1.85706
1.69725
1.45763
1.16208
1.03626
1.02057
1.06348
1.17343
1.29132
1.3568
1.4178
1.45559
1.45485
1.30246
1.11408
1.02817
1.01499
1.01249
1.02043
1.02874
1.03591
1.04052
1.04505
1.0509
1.06262
1.10196
1.22848
1.67733
1.9097
2.06566
2.09452
2.11044
2.10971
2.107
2.10087
2.09588
2.08802
2.08085
2.07222
2.06332
2.05362
2.0433
2.03238
2.02105
2.00941
2.07142
2.08138
2.08291
2.07777
2.0665
2.04676
2.01285
1.95435
1.85536
1.69825
1.47133
1.18992
1.04312
1.01583
1.03353
1.09815
1.18651
1.27044
1.30829
1.33055
1.29041
1.17377
1.07519
1.01201
1.00475
1.00292
1.011
1.01848
1.02664
1.03111
1.03658
1.04388
1.05751
1.10848
1.29842
1.74626
1.92507
2.05943
2.08453
2.0989
2.09914
2.0979
2.09296
2.08927
2.08238
2.07662
2.06902
2.06123
2.05295
2.04423
2.03508
2.0254
2.01531
2.00482
2.09314
2.09417
2.08947
2.07803
2.05672
2.02063
1.959
1.86005
1.71138
1.50639
1.25363
1.06495
1.01679
1.01113
1.02799
1.06596
1.10503
1.12656
1.13394
1.11906
1.06437
1.02238
1.00548
0.988765
0.996757
1.0024
1.00914
1.01798
1.02195
1.02969
1.03813
1.0582
1.13343
1.35661
1.7168
1.98402
2.03369
2.07816
2.08316
2.08813
2.08612
2.08423
2.0797
2.07574
2.07002
2.06444
2.0575
2.05027
2.04259
2.03468
2.02642
2.01787
2.00898
1.99972
2.10588
2.1021
2.09109
2.06902
2.03154
1.9677
1.86983
1.72995
1.54727
1.3307
1.11437
1.02649
1.00846
1.00348
1.0104
1.01987
1.02497
1.02483
1.02377
1.00986
0.995975
0.984107
0.989821
0.98767
0.995795
1.00111
1.00909
1.01348
1.02064
1.02866
1.05622
1.13621
1.37861
1.79856
1.93687
2.04327
2.05562
2.07262
2.07296
2.07519
2.07235
2.07059
2.06613
2.06251
2.05742
2.05208
2.04591
2.03929
2.03227
2.02506
2.01765
2.01006
2.00226
1.99428
2.11505
2.10538
2.08425
2.04588
1.98152
1.88434
1.75071
1.58414
1.39433
1.19571
1.05629
1.01524
1.0035
0.999036
0.997874
0.996254
0.994259
0.990762
0.987627
0.983126
0.981276
0.982872
0.985684
0.989871
0.995881
1.00125
1.00714
1.01491
1.02716
1.05594
1.1342
1.38057
1.80134
1.9258
2.0287
2.04577
2.05843
2.06034
2.0626
2.06076
2.05967
2.05617
2.05318
2.04918
2.04473
2.03969
2.03413
2.02805
2.02155
2.01491
2.00823
2.00157
1.99482
1.98793
2.12063
2.10151
2.06533
2.00262
1.9067
1.77647
1.61736
1.44288
1.26772
1.10798
1.03582
1.01058
1.00351
0.996582
0.993458
0.989839
0.986869
0.983489
0.981934
0.981277
0.982256
0.984315
0.987903
0.991158
0.996612
1.00115
1.00845
1.01532
1.04499
1.12832
1.35045
1.77183
1.90052
2.01427
2.03164
2.04485
2.0469
2.04987
2.04868
2.04824
2.04557
2.0431
2.03986
2.0363
2.03209
2.02748
2.02241
2.01691
2.01103
2.0049
1.99875
1.99287
1.9868
1.98088
2.12159
2.09003
2.03337
1.94282
1.8164
1.65967
1.48925
1.32386
1.17654
1.06938
1.02187
1.0136
1.00382
0.998701
0.994119
0.990868
0.988534
0.985073
0.98496
0.984439
0.985444
0.987283
0.989918
0.993384
0.997455
1.00376
1.0133
1.04683
1.12223
1.31135
1.68318
1.86377
1.99737
2.01526
2.03059
2.03321
2.03711
2.03644
2.0368
2.03475
2.03255
2.03021
2.02715
2.02385
2.01996
2.01569
2.01111
2.00613
2.00084
1.99525
1.98982
1.98438
1.97909
1.97391
2.11898
2.0723
1.99412
1.87744
1.72353
1.54786
1.37409
1.22439
1.1078
1.04745
1.02223
1.01454
1.00626
1.00119
0.997013
0.994484
0.991563
0.989367
0.988824
0.987765
0.988945
0.990136
0.992593
0.995728
1.00116
1.0121
1.04076
1.10803
1.2651
1.56404
1.79764
1.97159
1.9929
2.01622
2.01934
2.02482
2.02453
2.02554
2.02397
2.02237
2.02028
2.01804
2.01507
2.01182
2.00813
2.00418
1.99985
1.99526
1.99033
1.98538
1.98033
1.97523
1.97053
1.96602
2.11703
2.05843
1.96204
1.82396
1.64944
1.46126
1.28763
1.15444
1.0627
1.04218
1.02207
1.01628
1.00909
1.00403
1.00006
0.998148
0.994946
0.993654
0.991459
0.991537
0.991673
0.992702
0.994698
0.998454
1.00757
1.03079
1.08412
1.19741
1.4335
1.73547
1.94531
1.97329
2.00417
2.00619
2.01324
2.01335
2.01493
2.01375
2.01273
2.01082
2.00899
2.00633
2.00357
2.00034
1.9969
1.9931
1.98909
1.98481
1.98034
1.97587
1.9713
1.96673
1.96239
1.9579
2.1237
2.06036
1.95441
1.80384
1.61434
1.41184
1.22869
1.10437
1.05313
1.03735
1.02768
1.01837
1.01146
1.00642
1.0035
1.00038
0.999232
0.995332
0.995829
0.993996
0.994713
0.996208
1.00005
1.00851
1.02734
1.06684
1.1519
1.33619
1.75381
1.84623
1.97203
1.97319
1.99844
2.00019
2.00475
2.0045
2.00487
2.00358
2.00224
2.00023
1.99817
1.99562
1.99283
1.98964
1.9862
1.98253
1.97866
1.97447
1.97029
1.96601
1.96179
1.95763
1.95351
1.94939
2.13551
2.07174
1.96287
1.80647
1.60921
1.39749
1.20663
1.09308
1.05145
1.04376
1.02853
1.02074
1.01372
1.00907
1.00555
1.00425
1.0003
1.00021
0.997466
0.997862
0.998325
1.00112
1.00803
1.02407
1.06066
1.14044
1.31836
1.6796
1.8151
1.94092
1.95803
1.98747
1.9918
1.99646
1.99585
1.99724
1.9956
1.99459
1.99276
1.99084
1.98846
1.98582
1.98288
1.97961
1.97623
1.97244
1.96858
1.96453
1.96054
1.95646
1.95253
1.94861
1.94474
1.94097
2.15286
2.09879
2.0026
1.85813
1.66822
1.45068
1.24265
1.11078
1.05375
1.04919
1.03295
1.02353
1.01618
1.01232
1.00839
1.00679
1.00435
1.00328
1.00313
1.00451
1.00895
1.01869
1.03923
1.08121
1.1713
1.37435
1.65954
1.80989
1.92883
1.95128
1.98135
1.98143
1.99022
1.98964
1.99066
1.98949
1.98814
1.98659
1.98474
1.98227
1.97977
1.97675
1.97371
1.97033
1.96683
1.96302
1.95903
1.95497
1.95098
1.94697
1.94316
1.93936
1.93541
1.93167
2.17788
2.13762
2.0651
1.94444
1.77761
1.57054
1.3543
1.16707
1.07636
1.04895
1.04216
1.03026
1.02067
1.01628
1.01453
1.01249
1.01247
1.01407
1.01753
1.02629
1.04148
1.07253
1.13634
1.27498
1.47054
1.66568
1.86908
1.89079
1.95939
1.9586
1.9812
1.98299
1.98549
1.98594
1.98506
1.98366
1.98196
1.98017
1.97764
1.97515
1.97221
1.96903
1.96561
1.96201
1.9581
1.95399
1.94976
1.94557
1.94148
1.9375
1.93372
1.92999
1.92613
1.92202
2.19748
2.16987
2.12522
2.04442
1.92013
1.75085
1.54566
1.33754
1.16698
1.07891
1.05855
1.05087
1.03995
1.03321
1.03157
1.03467
1.0429
1.05524
1.08056
1.12393
1.20743
1.31925
1.45338
1.60892
1.73927
1.86065
1.91322
1.96131
1.96013
1.98071
1.98129
1.98474
1.98283
1.98359
1.98127
1.97983
1.9778
1.97532
1.97248
1.96935
1.96585
1.96213
1.95822
1.95411
1.94979
1.94532
1.94083
1.93654
1.93227
1.92844
1.92489
1.92084
1.9166
1.91176
2.20951
2.19206
2.16206
2.1184
2.04799
1.94639
1.80904
1.63878
1.45759
1.2946
1.19287
1.12768
1.13069
1.11626
1.12266
1.14888
1.20686
1.27944
1.36543
1.46555
1.55388
1.65121
1.75245
1.82043
1.89111
1.95074
1.94823
1.97652
1.9753
1.98545
1.98349
1.98505
1.98259
1.98204
1.9794
1.97738
1.9748
1.97165
1.96832
1.9645
1.96069
1.9564
1.95203
1.9472
1.94215
1.93697
1.93194
1.92718
1.92324
1.91924
1.91535
1.91146
1.90663
1.8997
2.21618
2.20277
2.18195
2.15164
2.11381
2.05942
1.98894
1.89983
1.79492
1.68375
1.58284
1.52176
1.47692
1.47291
1.47607
1.52604
1.5944
1.65846
1.70746
1.76308
1.81089
1.86091
1.89521
1.94992
1.94736
1.97644
1.97374
1.98728
1.98467
1.98893
1.98602
1.98639
1.98364
1.98222
1.9795
1.9772
1.97405
1.97043
1.96645
1.96212
1.95731
1.95201
1.94668
1.94076
1.93462
1.92855
1.92286
1.91829
1.91323
1.9092
1.90527
1.90055
1.8956
1.88895
2.21745
2.20613
2.18969
2.16669
2.13912
2.10799
2.07238
2.03096
1.98545
1.93589
1.88624
1.84866
1.81774
1.81339
1.8071
1.82883
1.86071
1.88594
1.89901
1.92095
1.93329
1.96414
1.96081
1.98349
1.98043
1.99307
1.98979
1.99519
1.99207
1.99333
1.99033
1.98927
1.98668
1.98428
1.98146
1.97853
1.97483
1.97064
1.96586
1.9605
1.9546
1.94843
1.94169
1.93403
1.92654
1.91954
1.91357
1.90716
1.90117
1.89586
1.8919
1.88715
1.88172
1.87349
2.21561
2.20554
2.18828
2.16967
2.14637
2.12356
2.09679
2.07401
2.05179
2.0299
2.00981
1.99165
1.97968
1.97083
1.96561
1.96797
1.97537
1.97897
1.98104
1.98543
1.99022
1.99514
1.99698
2.00325
1.99949
2.00405
2.00057
2.00245
1.99908
1.9991
1.99618
1.99449
1.99165
1.98875
1.9857
1.98203
1.97749
1.97249
1.967
1.96087
1.95391
1.94592
1.93764
1.92796
1.91906
1.91067
1.90262
1.8943
1.88923
1.88612
1.8833
1.88021
1.87538
1.86749
2.21101
2.20277
2.18299
2.16618
2.14332
2.12209
2.10176
2.08375
2.0666
2.05382
2.04283
2.03406
2.02667
2.021
2.01696
2.0155
2.01439
2.01355
2.01274
2.013
2.01377
2.01384
2.01483
2.01281
2.01251
2.01162
2.00964
2.00949
2.00694
2.00532
2.00292
2.00073
1.99778
1.99479
1.99154
1.98717
1.98239
1.97652
1.97031
1.96286
1.9542
1.94587
1.93331
1.92316
1.911
1.90074
1.88919
1.88045
1.87612
1.87277
1.87084
1.86927
1.86384
1.85507
2.20914
2.19435
2.17848
2.15776
2.1374
2.11625
2.09726
2.08072
2.06742
2.05701
2.04916
2.04331
2.03883
2.03518
2.03272
2.03116
2.02929
2.02809
2.02692
2.02608
2.02525
2.02411
2.02296
2.02146
2.02062
2.01939
2.01784
2.01613
2.01438
2.01274
2.01072
2.00864
2.00573
2.00283
1.99945
1.99524
1.98971
1.98375
1.97604
1.96706
1.95737
1.94343
1.93216
1.91578
1.903
1.88944
1.87636
1.86861
1.86623
1.86625
1.86894
1.87189
1.87006
1.86355
2.20345
2.1882
2.16995
2.14926
2.12806
2.1075
2.08939
2.07405
2.06224
2.05337
2.0471
2.04263
2.04015
2.03772
2.0368
2.03573
2.03479
2.03391
2.03314
2.03238
2.03148
2.03057
2.02959
2.02842
2.02742
2.02611
2.02487
2.02362
2.02233
2.02078
2.01913
2.01725
2.01472
2.01174
2.00846
2.00363
1.99817
1.99111
1.98265
1.97174
1.95852
1.94579
1.92772
1.91252
1.89333
1.87578
1.85978
1.85381
1.85395
1.85972
1.87063
1.8815
1.89227
1.89716
1.02386
1.02266
1.02119
1.01968
1.01811
1.01636
1.01462
1.01262
1.01065
1.00856
1.00641
1.0042
1.00193
0.99974
0.997621
0.995429
0.993439
0.991538
0.989895
0.988227
1.0233
1.02122
1.01999
1.01806
1.01628
1.01437
1.01235
1.01017
1.008
1.00583
1.0035
1.00128
0.999
0.996711
0.994546
0.992468
0.990527
0.988754
0.987225
0.98589
1.02227
1.02053
1.01844
1.01657
1.01445
1.01227
1.01009
1.0077
1.00548
1.00297
1.00064
0.998272
0.995923
0.993678
0.991514
0.989464
0.987637
0.98598
0.984632
0.983523
1.02152
1.01953
1.01711
1.01503
1.01256
1.01021
1.00779
1.00526
1.00272
1.00022
0.997649
0.995222
0.992831
0.990564
0.988484
0.986493
0.98479
0.9833
0.982109
0.981223
1.02091
1.01844
1.01598
1.01331
1.01078
1.00813
1.00541
1.00273
0.999985
0.997265
0.994666
0.992105
0.989731
0.987423
0.985403
0.983501
0.981927
0.980623
0.979645
0.979042
1.02017
1.01759
1.01464
1.01174
1.00893
1.00588
1.00301
1.00009
0.99713
0.994295
0.991502
0.988877
0.986474
0.98424
0.982234
0.980506
0.979066
0.977958
0.977271
0.976883
1.0196
1.0167
1.01325
1.01022
1.00682
1.00364
1.00036
0.997146
0.994152
0.991003
0.988213
0.985569
0.983112
0.980916
0.978973
0.977395
0.976142
0.975279
0.97481
0.97475
1.01916
1.0155
1.01203
1.00837
1.00471
1.00116
0.997567
0.994194
0.990803
0.987629
0.98463
0.981914
0.979497
0.977356
0.975573
0.974195
0.973167
0.972578
0.972404
0.972661
1.0185
1.0145
1.01052
1.00644
1.00238
0.998409
0.994465
0.990783
0.987141
0.98382
0.980719
0.977976
0.975558
0.973616
0.972022
0.970785
0.970044
0.969773
0.969948
0.970518
1.01778
1.01335
1.00886
1.00415
0.999714
0.995245
0.990942
0.986893
0.982996
0.979545
0.97632
0.973612
0.971302
0.969503
0.968064
0.96721
0.966804
0.966864
0.967338
0.968544
1.01691
1.012
1.00668
1.00161
0.996417
0.991561
0.986882
0.982339
0.978262
0.974599
0.971281
0.968641
0.966508
0.964871
0.96379
0.963269
0.963228
0.963648
0.964869
0.96628
1.01567
1.0105
1.00434
0.99863
0.993465
0.988267
0.983127
0.978107
0.973292
0.96902
0.965745
0.962777
0.961043
0.959585
0.959007
0.958898
0.959321
0.960357
0.961928
0.964123
1.01372
1.01138
1.00269
1.00057
0.997065
0.99314
0.988899
0.982233
0.974729
0.968153
0.962279
0.957869
0.955367
0.953703
0.953174
0.953639
0.954841
0.957092
0.959051
0.961834
1.01459
1.01928
1.01261
1.02708
1.03246
1.03743
1.03788
1.02486
1.01718
0.99441
0.976521
0.96308
0.954693
0.950049
0.948132
0.948325
0.949779
0.952184
0.955619
0.958849
1.03394
1.06436
1.09632
1.1458
1.18662
1.23084
1.24298
1.21778
1.20932
1.1385
1.07757
1.01932
0.980882
0.96015
0.948677
0.944577
0.945682
0.948228
0.951564
0.955942
1.15108
1.25717
1.39213
1.51664
1.58078
1.60865
1.59515
1.56203
1.54242
1.4665
1.3889
1.2563
1.11699
1.01897
0.975649
0.95491
0.944954
0.944283
0.947329
0.952126
1.51147
1.68927
1.77572
1.79979
1.78349
1.74679
1.69573
1.6684
1.60555
1.58833
1.53851
1.55959
1.3928
1.24201
1.06131
0.986183
0.959417
0.948946
0.946947
0.949743
1.86788
1.90695
1.89197
1.84858
1.79615
1.72277
1.66545
1.56708
1.54446
1.53044
1.53071
1.51999
1.52965
1.44944
1.32029
1.11446
0.999937
0.95886
0.947199
0.947753
1.97666
1.94148
1.89446
1.82145
1.69893
1.57275
1.41977
1.31558
1.29312
1.30416
1.34595
1.42942
1.48035
1.46264
1.47765
1.28593
1.10672
1.00811
0.965075
0.950319
1.98378
1.93435
1.85225
1.73524
1.5779
1.4122
1.27126
1.1856
1.15183
1.14363
1.17361
1.27061
1.39594
1.43021
1.44753
1.37445
1.23414
1.07448
0.993813
0.961631
1.9793
1.91916
1.83189
1.71128
1.55098
1.37821
1.24005
1.16177
1.12584
1.11914
1.15107
1.25121
1.3518
1.40179
1.418
1.39465
1.29511
1.14371
1.03958
0.983444
1.97781
1.91983
1.84051
1.72718
1.57054
1.39814
1.25023
1.1684
1.12759
1.12026
1.17089
1.27369
1.35217
1.38148
1.39398
1.37181
1.27679
1.14156
1.05346
1.0003
1.99187
1.95565
1.90743
1.84334
1.73766
1.58078
1.38745
1.25203
1.17205
1.13146
1.12551
1.16114
1.24832
1.31509
1.325
1.30162
1.21526
1.11597
1.04339
0.997251
2.00488
1.97185
1.94058
1.89015
1.84177
1.74868
1.64895
1.48249
1.3242
1.19954
1.12881
1.09374
1.07978
1.09067
1.12964
1.13102
1.10093
1.06178
1.02047
0.988708
2.00541
1.9811
1.94923
1.92
1.87271
1.84346
1.78003
1.71577
1.62628
1.5174
1.37665
1.24528
1.13413
1.04962
0.996121
0.978816
0.980853
0.977492
0.97322
0.967133
2.00615
1.98054
1.95527
1.92328
1.89314
1.85933
1.82809
1.78754
1.74805
1.70393
1.65552
1.60053
1.53365
1.44973
1.34217
1.21762
1.07884
0.988092
0.969998
0.960266
2.00658
1.98327
1.95674
1.92864
1.89876
1.8684
1.83684
1.80321
1.76709
1.73507
1.70363
1.67558
1.65033
1.6276
1.60786
1.58681
1.55876
1.47166
1.2684
1.09765
2.00638
1.98379
1.95797
1.93011
1.90061
1.86786
1.83128
1.79104
1.74765
1.70692
1.66828
1.63274
1.60287
1.57894
1.56281
1.55597
1.55662
1.5632
1.56608
1.51262
2.00533
1.98378
1.95887
1.93138
1.90109
1.86528
1.82136
1.76833
1.70529
1.63327
1.56157
1.49333
1.43057
1.37442
1.32674
1.30802
1.3049
1.31683
1.35128
1.4038
2.00468
1.98423
1.96033
1.93423
1.9046
1.86826
1.82181
1.76349
1.69149
1.60425
1.50455
1.39803
1.29391
1.20603
1.13199
1.06377
1.07473
1.074
1.10738
1.16093
2.0039
1.98528
1.96323
1.93845
1.90959
1.87378
1.82747
1.76774
1.69144
1.59669
1.48429
1.3617
1.23662
1.12179
1.03211
0.995239
0.966498
0.988267
1.01247
1.07279
2.00185
1.98626
1.96737
1.94547
1.91909
1.88634
1.84194
1.78144
1.70148
1.60066
1.48254
1.35129
1.21644
1.0922
1.01166
0.941756
0.953402
0.951325
0.985413
1.05495
1.99962
1.98536
1.97049
1.95262
1.93243
1.90729
1.87425
1.82493
1.75199
1.64854
1.51951
1.37035
1.21937
1.08944
0.985726
0.954926
0.936904
0.942591
0.948014
0.994145
1.99708
1.98423
1.97071
1.95646
1.9394
1.92041
1.89661
1.86796
1.82532
1.75801
1.64798
1.49561
1.31951
1.1501
1.01654
0.957282
0.934321
0.932704
0.926883
0.936793
1.99386
1.98246
1.97047
1.95762
1.94426
1.92835
1.91025
1.88786
1.86038
1.822
1.76366
1.67809
1.53914
1.34851
1.15271
1.03172
0.934018
0.944897
0.916045
0.925624
1.99007
1.98003
1.96949
1.95818
1.94642
1.9337
1.91942
1.90292
1.88337
1.85889
1.82749
1.77624
1.70153
1.58999
1.43292
1.22899
1.04576
1.00125
0.918402
0.955763
1.98596
1.97739
1.96837
1.95863
1.94825
1.93709
1.92476
1.91153