/*--------------------------------*- C++ -*----------------------------------*\
  =========                 |
  \\      /  F ield         | OpenFOAM: The Open Source CFD Toolbox
   \\    /   O peration     | Website:  https://openfoam.org
    \\  /    A nd           | Version:  10
     \\/     M anipulation  |
\*---------------------------------------------------------------------------*/
FoamFile
{
    format      ascii;
    class       volScalarField;
    location    "0.84941";
    object      p;
}
// * * * * * * * * * * * * * * * * * * * * * * * * * * * * * * * * * * * * * //

dimensions      [1 -1 -2 0 0 0 0];

internalField   nonuniform List<scalar> 
16320
(
0.643253
0.629745
0.617056
0.605306
0.594581
0.584827
0.576338
0.569024
0.562905
0.557924
0.554043
0.551139
0.549038
0.547556
0.546503
0.545647
0.544776
0.543721
0.542399
0.540372
0.538099
0.536305
0.533373
0.530915
0.529462
0.528841
0.529305
0.531473
0.536348
0.544267
0.555771
0.570818
0.590498
0.639168
0.625418
0.612551
0.600689
0.589907
0.580331
0.572017
0.564994
0.559294
0.554787
0.551512
0.549274
0.547834
0.547054
0.546624
0.546353
0.546023
0.545461
0.544548
0.54282
0.540679
0.539111
0.53617
0.533631
0.532295
0.531484
0.531953
0.534113
0.538782
0.546263
0.556875
0.571005
0.589354
0.634893
0.620883
0.607814
0.595836
0.584984
0.575466
0.56736
0.56068
0.555425
0.551519
0.548915
0.547221
0.546566
0.546517
0.546692
0.547042
0.547328
0.547331
0.546907
0.545691
0.543685
0.5424
0.539619
0.537141
0.536022
0.535054
0.53575
0.537926
0.542447
0.549512
0.559371
0.572483
0.589484
0.630542
0.616279
0.603015
0.590874
0.579928
0.57049
0.56259
0.556248
0.551472
0.548151
0.5462
0.545277
0.545307
0.545793
0.546649
0.54757
0.548577
0.549297
0.549409
0.548819
0.547177
0.546185
0.543662
0.541435
0.540578
0.53969
0.540486
0.542756
0.547172
0.553803
0.562958
0.575055
0.590544
0.626397
0.611571
0.597897
0.585526
0.574661
0.56537
0.557739
0.551834
0.547565
0.544888
0.543598
0.543432
0.543914
0.545187
0.54705
0.549019
0.549915
0.551403
0.552158
0.551973
0.550948
0.550326
0.548205
0.546418
0.545851
0.545218
0.546132
0.548504
0.552782
0.558991
0.567444
0.578483
0.592584
0.622148
0.60708
0.593126
0.580538
0.569558
0.560333
0.552971
0.547469
0.543785
0.541785
0.541214
0.541572
0.542761
0.544994
0.547819
0.550526
0.552269
0.554318
0.555621
0.555597
0.555204
0.554851
0.553251
0.552031
0.551821
0.551509
0.55255
0.555053
0.559156
0.56494
0.572692
0.582664
0.595237
0.618331
0.602715
0.588279
0.57538
0.564296
0.55521
0.548196
0.543224
0.540207
0.538903
0.539013
0.539885
0.541983
0.54513
0.548746
0.552175
0.554986
0.557358
0.559529
0.56003
0.56057
0.559974
0.559002
0.558519
0.55839
0.558453
0.559698
0.562276
0.566146
0.57149
0.57846
0.587362
0.598428
0.614199
0.597995
0.583127
0.569999
0.558924
0.550098
0.543542
0.539232
0.536861
0.536299
0.536847
0.5385
0.541639
0.545579
0.549874
0.554072
0.557829
0.560712
0.563563
0.564549
0.565903
0.565682
0.565276
0.565284
0.565262
0.565874
0.567346
0.569872
0.57351
0.578315
0.584549
0.592378
0.602053
0.609848
0.593111
0.5778
0.564426
0.553413
0.544939
0.538974
0.535282
0.533767
0.533912
0.535038
0.537647
0.541677
0.546361
0.551331
0.556281
0.560798
0.564394
0.56781
0.569286
0.571392
0.571685
0.5718
0.572262
0.572499
0.57343
0.575113
0.577563
0.580881
0.585233
0.590738
0.597612
0.606105
0.605415
0.588217
0.572459
0.558806
0.547876
0.539768
0.534376
0.531628
0.530965
0.531643
0.533703
0.537376
0.542091
0.547488
0.553132
0.55882
0.563904
0.568414
0.572202
0.574132
0.576877
0.577658
0.578259
0.579202
0.579711
0.580933
0.582704
0.585055
0.588124
0.592022
0.596915
0.603006
0.610521
0.600477
0.582642
0.566499
0.55273
0.541969
0.534426
0.529759
0.528214
0.528459
0.529724
0.53296
0.537431
0.542821
0.548898
0.555248
0.561661
0.567172
0.572493
0.576603
0.578945
0.582113
0.583376
0.584462
0.585729
0.586608
0.588056
0.58987
0.592144
0.594993
0.598529
0.602952
0.608488
0.615303
0.59558
0.577398
0.560688
0.546563
0.53583
0.528854
0.525235
0.52436
0.525393
0.528256
0.532519
0.537672
0.543725
0.550544
0.557567
0.564665
0.570507
0.576297
0.580713
0.583506
0.586864
0.588593
0.590134
0.591668
0.592935
0.594525
0.5964
0.598628
0.601334
0.604657
0.608906
0.614059
0.620899
0.590918
0.572245
0.554821
0.540261
0.529627
0.523284
0.520584
0.520777
0.52262
0.526437
0.532421
0.538041
0.544829
0.552249
0.559918
0.56759
0.573688
0.57971
0.584265
0.587727
0.590819
0.593089
0.595052
0.596868
0.598529
0.600148
0.602144
0.604454
0.607239
0.610615
0.61483
0.620095
0.62673
0.586635
0.5674
0.549358
0.534384
0.523851
0.518218
0.516473
0.517555
0.520666
0.52541
0.532113
0.538579
0.546031
0.553924
0.562143
0.570084
0.576448
0.582509
0.587142
0.59102
0.594099
0.596769
0.599063
0.601144
0.603064
0.605027
0.607208
0.609665
0.612623
0.61621
0.620595
0.626039
0.632765
0.582737
0.563464
0.545304
0.530104
0.51952
0.514303
0.513368
0.51536
0.519536
0.525149
0.531799
0.539166
0.547175
0.555554
0.563976
0.571738
0.578701
0.584556
0.589245
0.593259
0.596559
0.59952
0.602104
0.604444
0.606653
0.608931
0.611375
0.614132
0.617367
0.621221
0.625864
0.631502
0.638543
0.580052
0.560972
0.543117
0.5281
0.517531
0.512565
0.512124
0.514749
0.519308
0.52534
0.532053
0.539916
0.548365
0.557062
0.565625
0.573225
0.58003
0.585766
0.590515
0.594561
0.598172
0.601374
0.604189
0.606792
0.609296
0.611887
0.614663
0.617766
0.621338
0.625538
0.630486
0.636853
0.643702
0.579144
0.560511
0.543173
0.528656
0.518091
0.513071
0.512991
0.515586
0.520113
0.525827
0.532878
0.54097
0.549525
0.558202
0.566371
0.573985
0.580541
0.586169
0.590988
0.59519
0.598885
0.602267
0.605341
0.608239
0.611086
0.614026
0.617175
0.620671
0.624653
0.629351
0.634844
0.640936
0.648009
0.579965
0.562327
0.545712
0.531503
0.521024
0.516075
0.515389
0.517717
0.521605
0.527165
0.534169
0.542166
0.550537
0.558993
0.566933
0.574087
0.580413
0.585913
0.590697
0.594938
0.598824
0.60237
0.605699
0.608904
0.612105
0.615435
0.61901
0.622951
0.627275
0.632285
0.637843
0.644287
0.651773
0.582798
0.566436
0.550549
0.536482
0.52573
0.520197
0.518784
0.520227
0.523757
0.52902
0.535741
0.543361
0.551321
0.559188
0.566836
0.573727
0.579902
0.585306
0.590024
0.594264
0.598348
0.602071
0.605621
0.609118
0.612673
0.616332
0.620213
0.624435
0.62912
0.634379
0.640338
0.64723
0.655279
0.587038
0.572117
0.556896
0.542989
0.531749
0.525338
0.523152
0.523597
0.526456
0.531177
0.537397
0.544445
0.551882
0.559361
0.566452
0.573037
0.579044
0.58437
0.589123
0.593478
0.597525
0.601448
0.605231
0.608999
0.612836
0.616809
0.620981
0.625496
0.630515
0.636147
0.642681
0.650072
0.658417
0.592085
0.578443
0.564023
0.550308
0.538662
0.531274
0.528214
0.52775
0.529714
0.533674
0.539095
0.545437
0.552298
0.559179
0.565821
0.572123
0.577938
0.583171
0.588008
0.592466
0.59669
0.600788
0.604618
0.608651
0.612767
0.617
0.621469
0.62632
0.631774
0.637913
0.644835
0.652595
0.661215
0.597276
0.584437
0.571228
0.558022
0.546315
0.537945
0.533887
0.532677
0.533547
0.536344
0.54059
0.546309
0.552541
0.558859
0.565118
0.571115
0.576726
0.581892
0.586754
0.591358
0.595681
0.599916
0.604079
0.608228
0.612546
0.617064
0.621925
0.62718
0.633036
0.639567
0.646841
0.654562
0.662572
0.60175
0.589864
0.577683
0.565537
0.554187
0.545141
0.539921
0.537715
0.537354
0.539197
0.542878
0.547561
0.552903
0.55862
0.564448
0.57012
0.575542
0.580628
0.585421
0.590117
0.594711
0.599148
0.603495
0.60787
0.61243
0.61726
0.622497
0.628107
0.634324
0.64088
0.647797
0.655336
0.663399
0.605846
0.594521
0.583186
0.572023
0.561406
0.552213
0.545963
0.542895
0.541972
0.542738
0.545246
0.548921
0.553478
0.55857
0.563901
0.569181
0.574258
0.579283
0.584274
0.589076
0.593746
0.598367
0.603001
0.607687
0.612537
0.617732
0.623363
0.628823
0.634806
0.641375
0.648418
0.656001
0.663978
0.609695
0.598966
0.58825
0.577772
0.567779
0.558883
0.551944
0.547992
0.546369
0.546222
0.547688
0.550481
0.554187
0.558531
0.563244
0.568196
0.5733
0.578292
0.583199
0.588075
0.592958
0.59782
0.602709
0.607683
0.612769
0.618057
0.623598
0.629216
0.635307
0.641848
0.648823
0.656483
0.664603
0.613416
0.603364
0.593273
0.583262
0.573757
0.56512
0.557974
0.553011
0.550527
0.549732
0.550254
0.552174
0.555141
0.558848
0.563125
0.567714
0.572481
0.577363
0.582353
0.587359
0.592377
0.597445
0.602499
0.607611
0.612836
0.618208
0.623738
0.629495
0.635669
0.64244
0.649654
0.657319
0.665407
0.616914
0.607623
0.598168
0.588595
0.579579
0.571133
0.563849
0.558132
0.554674
0.553202
0.55295
0.554014
0.556223
0.559311
0.563065
0.567356
0.571949
0.576783
0.581741
0.586808
0.591865
0.596992
0.602266
0.607517
0.612801
0.618303
0.62394
0.629873
0.636262
0.643271
0.650586
0.658206
0.666127
0.61986
0.611531
0.602878
0.594048
0.585378
0.577018
0.569645
0.563445
0.55896
0.556595
0.555779
0.556057
0.557558
0.560069
0.563366
0.567311
0.571683
0.576392
0.581234
0.58623
0.591436
0.596698
0.601963
0.607362
0.612878
0.618492
0.624345
0.63049
0.63709
0.644021
0.651267
0.658847
0.667667
0.622225
0.614918
0.607149
0.599102
0.590937
0.582932
0.575465
0.568897
0.563653
0.560335
0.558813
0.558407
0.559216
0.561126
0.563979
0.567511
0.571551
0.57604
0.580904
0.585946
0.591087
0.596355
0.601822
0.607306
0.612936
0.618763
0.624766
0.630951
0.63749
0.644586
0.651866
0.660679
0.669699
0.624002
0.617641
0.610838
0.603645
0.596148
0.588632
0.581267
0.574469
0.568689
0.564405
0.562085
0.561186
0.561247
0.562473
0.564758
0.567932
0.571789
0.576093
0.580775
0.585694
0.590928
0.596218
0.601644
0.607273
0.613049
0.61898
0.62504
0.631132
0.637408
0.646005
0.653701
0.662272
0.671725
0.625183
0.619772
0.613897
0.60757
0.600894
0.593907
0.586788
0.579921
0.573734
0.568742
0.565575
0.564034
0.563586
0.564297
0.566079
0.568767
0.572224
0.576284
0.580884
0.585747
0.590805
0.596084
0.601594
0.607262
0.613073
0.619049
0.625069
0.630741
0.63909
0.646722
0.654714
0.663769
0.673489
0.625861
0.621458
0.616625
0.611309
0.605326
0.598853
0.592058
0.585268
0.578904
0.57346
0.569495
0.56724
0.566346
0.566401
0.567632
0.569915
0.573097
0.576853
0.581145
0.585864
0.590874
0.596104
0.601576
0.607193
0.613005
0.618995
0.625105
0.631276
0.639664
0.647421
0.655724
0.66505
0.674975
0.626565
0.623104
0.619258
0.614746
0.609537
0.603574
0.597173
0.590538
0.584083
0.57829
0.573695
0.570747
0.569335
0.568946
0.569721
0.571517
0.574236
0.57765
0.581692
0.586263
0.591063
0.596192
0.60158
0.607142
0.612916
0.618933
0.625359
0.632116
0.639971
0.648095
0.656679
0.666215
0.676419
0.627321
0.624702
0.621576
0.618009
0.613559
0.608327
0.602323
0.595914
0.589432
0.583377
0.578315
0.57481
0.572827
0.571992
0.572156
0.57349
0.575769
0.578842
0.582558
0.586845
0.591227
0.59625
0.601493
0.606973
0.612791
0.618816
0.625763
0.632762
0.640555
0.648851
0.657652
0.667274
0.678169
0.62834
0.626327
0.624168
0.621202
0.617638
0.613131
0.607716
0.601615
0.595196
0.58897
0.583533
0.579384
0.576753
0.575489
0.575172
0.575923
0.577749
0.580381
0.583578
0.587267
0.591666
0.596474
0.601461
0.606891
0.612669
0.618897
0.625674
0.632937
0.640922
0.649524
0.658772
0.668855
0.680061
0.629541
0.628217
0.626819
0.62491
0.621886
0.618167
0.6134
0.607697
0.601398
0.595025
0.589243
0.584594
0.581417
0.579526
0.57871
0.578849
0.580153
0.582235
0.584701
0.588146
0.59225
0.596662
0.60127
0.606357
0.612241
0.618885
0.625914
0.633294
0.641487
0.650374
0.66013
0.670805
0.682836
0.630814
0.630494
0.62975
0.628702
0.626745
0.623579
0.619486
0.614258
0.608156
0.60182
0.595707
0.590634
0.586823
0.584209
0.582799
0.582268
0.582885
0.584131
0.58624
0.589101
0.59274
0.596748
0.601207
0.606532
0.61288
0.619072
0.626062
0.633655
0.642416
0.65161
0.661708
0.673497
0.686466
0.632588
0.63307
0.633131
0.632986
0.632044
0.629288
0.62598
0.62135
0.615528
0.609378
0.603029
0.597468
0.593045
0.589824
0.587613
0.586394
0.586093
0.586624
0.587925
0.590239
0.593377
0.597306
0.602539
0.606756
0.613453
0.620123
0.627468
0.635519
0.644396
0.653788
0.664621
0.676554
0.690171
0.635029
0.636171
0.637017
0.637708
0.637709
0.635461
0.632928
0.629031
0.623645
0.61763
0.61119
0.605305
0.60035
0.596548
0.593178
0.591188
0.590139
0.589762
0.590361
0.592212
0.595582
0.59911
0.602692
0.609558
0.615798
0.62264
0.629749
0.638303
0.647229
0.656784
0.667835
0.680267
0.69424
0.638113
0.639775
0.641337
0.642813
0.643549
0.642105
0.640374
0.637241
0.632439
0.626698
0.620308
0.61424
0.609065
0.603795
0.599932
0.59712
0.595016
0.594037
0.593797
0.594055
0.598606
0.60266
0.606636
0.612879
0.619496
0.626573
0.633039
0.641449
0.650604
0.660715
0.671978
0.684633
0.698873
0.641646
0.643841
0.646008
0.648219
0.649578
0.649037
0.648154
0.645821
0.641947
0.636512
0.630411
0.624306
0.618568
0.612454
0.608094
0.604142
0.601278
0.599331
0.597822
0.600069
0.60313
0.606944
0.611697
0.617729
0.624423
0.630316
0.637297
0.645636
0.654711
0.66541
0.676731
0.689369
0.703552
0.645199
0.648207
0.650942
0.653775
0.655717
0.656086
0.656086
0.654654
0.651834
0.646975
0.641422
0.635696
0.62846
0.622637
0.617521
0.612795
0.608547
0.605328
0.60583
0.60681
0.609398
0.612811
0.617845
0.623919
0.629035
0.635327
0.642508
0.65063
0.660213
0.670364
0.681671
0.694285
0.707959
0.649103
0.652538
0.65574
0.659005
0.661778
0.663195
0.663981
0.663557
0.661627
0.657787
0.652932
0.647485
0.63993
0.634155
0.62834
0.622895
0.617353
0.614078
0.614591
0.614944
0.616521
0.620306
0.625399
0.629313
0.635004
0.641265
0.64837
0.656861
0.665796
0.675718
0.68647
0.69839
0.711849
0.652975
0.656729
0.660368
0.664104
0.667563
0.670093
0.67178
0.672278
0.671269
0.668604
0.664608
0.659538
0.652509
0.646522
0.640233
0.633886
0.627775
0.626056
0.624206
0.623692
0.625506
0.62946
0.631537
0.636317
0.641849
0.647929
0.655249
0.662893
0.671367
0.680304
0.690522
0.702054
0.715056
0.656645
0.660673
0.664679
0.668902
0.672986
0.67648
0.679257
0.680604
0.680637
0.679206
0.67647
0.671336
0.665735
0.659662
0.653107
0.646239
0.639896
0.638137
0.635351
0.6342
0.636131
0.636703
0.63988
0.644274
0.649219
0.655409
0.661809
0.668901
0.676031
0.684461
0.694084
0.704987
0.717382
0.659998
0.664268
0.668721
0.673384
0.678071
0.682361
0.686074
0.688599
0.689575
0.689325
0.687694
0.683192
0.678785
0.673086
0.666656
0.659448
0.653347
0.650761
0.64687
0.645507
0.645759
0.646211
0.648783
0.652323
0.6572
0.662249
0.667934
0.67375
0.680292
0.687984
0.696888
0.707078
0.718719
0.663029
0.667518
0.672469
0.677519
0.682753
0.687796
0.692233
0.695875
0.698098
0.698825
0.698317
0.694858
0.691401
0.686346
0.680384
0.673214
0.667462
0.663277
0.658892
0.656979
0.655649
0.655974
0.657537
0.660907
0.664361
0.668687
0.672977
0.678049
0.683783
0.690631
0.698685
0.708041
0.718892
0.665601
0.670638
0.675981
0.681362
0.6872
0.69289
0.69814
0.70265
0.706016
0.707703
0.708145
0.705833
0.703311
0.699093
0.693692
0.686652
0.681985
0.67624
0.671351
0.667923
0.666318
0.665761
0.666628
0.668575
0.671189
0.67399
0.677511
0.681528
0.686376
0.692257
0.699349
0.707805
0.717756
0.668192
0.673212
0.679074
0.685303
0.691516
0.697743
0.703627
0.708867
0.713183
0.716117
0.717291
0.716199
0.714502
0.711149
0.706353
0.700129
0.6952
0.689015
0.683625
0.679548
0.676834
0.675421
0.675339
0.675896
0.677174
0.678868
0.681197
0.684163
0.687958
0.692776
0.698834
0.706294
0.715279
0.670422
0.676073
0.682076
0.688763
0.695583
0.702384
0.708912
0.714834
0.719891
0.723833
0.725913
0.726007
0.724977
0.722561
0.718479
0.713355
0.707696
0.701517
0.695836
0.690943
0.687176
0.684998
0.683447
0.682733
0.682427
0.682925
0.68401
0.685816
0.688492
0.692231
0.697227
0.703625
0.711583
0.671615
0.678405
0.685241
0.69219
0.699563
0.706903
0.714026
0.720655
0.726329
0.731051
0.734163
0.735201
0.734997
0.733314
0.729965
0.725412
0.71991
0.713832
0.707782
0.702184
0.697731
0.694033
0.691017
0.688713
0.687023
0.68618
0.685996
0.686606
0.688155
0.690787
0.694749
0.700032
0.70696
0.674189
0.680607
0.687933
0.695592
0.703452
0.711365
0.719017
0.72624
0.732694
0.737863
0.741993
0.744017
0.744437
0.743501
0.740744
0.736859
0.731669
0.725631
0.719301
0.713119
0.707657
0.702542
0.697977
0.694122
0.690994
0.688671
0.687256
0.686741
0.687145
0.688616
0.691405
0.695791
0.70172
0.676555
0.682842
0.691278
0.698857
0.707209
0.71574
0.723938
0.731686
0.738746
0.744778
0.749435
0.752324
0.753401
0.753226
0.751247
0.747647
0.742736
0.736674
0.730125
0.723517
0.716797
0.710245
0.704233
0.698904
0.694405
0.69066
0.687589
0.68617
0.685571
0.686099
0.687967
0.691379
0.696368
0.678471
0.686217
0.693347
0.702582
0.710919
0.720004
0.728699
0.736974
0.744619
0.751247
0.756618
0.760673
0.762087
0.762179
0.76074
0.757548
0.753277
0.74732
0.740411
0.732885
0.724958
0.717105
0.70971
0.702937
0.697007
0.6922
0.688188
0.68545
0.684066
0.683873
0.684962
0.687545
0.691693
0.680203
0.688632
0.69718
0.705247
0.713939
0.72397
0.733343
0.742042
0.750147
0.757429
0.763348
0.767908
0.77015
0.770804
0.770014
0.76731
0.762564
0.756489
0.749359
0.74102
0.731975
0.722841
0.714208
0.706341
0.699522
0.693386
0.688528
0.684825
0.68266
0.681905
0.682413
0.68443
0.687934
0.681397
0.690808
0.699764
0.708919
0.71773
0.726569
0.737577
0.746616
0.755368
0.762991
0.769507
0.774579
0.77761
0.77858
0.777837
0.775267
0.770714
0.764419
0.756775
0.747711
0.737642
0.727731
0.71809
0.709402
0.701461
0.694754
0.689213
0.684928
0.682019
0.680708
0.680679
0.682226
0.685301
0.681608
0.691838
0.701933
0.711049
0.720785
0.73018
0.739388
0.749324
0.759819
0.76786
0.775227
0.780315
0.783721
0.78508
0.784634
0.78195
0.777361
0.770844
0.762588
0.75275
0.742312
0.731577
0.72137
0.712156
0.703724
0.69658
0.690623
0.685899
0.682546
0.68075
0.680299
0.681378
0.684035
0.681683
0.692262
0.702667
0.71309
0.722335
0.732426
0.742705
0.75256
0.761325
0.771172
0.779549
0.78498
0.789069
0.790755
0.790361
0.787606
0.7827
0.7756
0.766866
0.756569
0.745644
0.734699
0.724386
0.714898
0.706382
0.699006
0.692816
0.687894
0.684309
0.682111
0.681398
0.682129
0.684257
0.680188
0.691829
0.702629
0.712852
0.723544
0.733096
0.744215
0.754499
0.764157
0.772728
0.780194
0.787225
0.792713
0.794479
0.793829
0.790978
0.786029
0.778927
0.769269
0.758976
0.748124
0.737381
0.727251
0.717858
0.709425
0.702021
0.695766
0.690821
0.687207
0.684633
0.683714
0.684246
0.685561
0.677949
0.690096
0.701573
0.71216
0.722665
0.733823
0.74396
0.754432
0.764859
0.774218
0.782137
0.78823
0.791815
0.7939
0.793771
0.791328
0.786073
0.778908
0.77045
0.760548
0.750141
0.739884
0.730144
0.721092
0.712883
0.705632
0.699467
0.694518
0.690925
0.688308
0.686802
0.686729
0.687233
0.674992
0.687362
0.699342
0.71046
0.720707
0.731663
0.742979
0.754012
0.763674
0.773251
0.781633
0.788093
0.792362
0.794457
0.794192
0.791379
0.786434
0.779396
0.771031
0.761635
0.7519
0.74229
0.733112
0.724555
0.716746
0.709828
0.703937
0.699123
0.695413
0.692742
0.691068
0.689767
0.689359
0.671923
0.684284
0.696195
0.707539
0.718012
0.728785
0.739594
0.750654
0.761617
0.770069
0.778908
0.785821
0.790569
0.792947
0.79286
0.790414
0.785632
0.778911
0.77098
0.762351
0.753463
0.744662
0.736216
0.728312
0.721061
0.714649
0.709177
0.704637
0.701326
0.698556
0.696126
0.693727
0.691649
0.669093
0.681197
0.692619
0.703488
0.715005
0.725202
0.735379
0.745481
0.756029
0.766604
0.775163
0.780901
0.785732
0.788758
0.789037
0.787128
0.783037
0.777202
0.770239
0.76254
0.754697
0.746912
0.739416
0.732367
0.72589
0.720208
0.715346
0.711511
0.708001
0.70488
0.701653
0.698492
0.69581
0.666109
0.678058
0.68922
0.699898
0.711102
0.72067
0.730039
0.739448
0.748934
0.758455
0.767481
0.7755
0.779119
0.782427
0.782928
0.781992
0.779159
0.774431
0.768641
0.76221
0.755563
0.748951
0.742634
0.736685
0.73115
0.726237
0.721838
0.719076
0.715184
0.711378
0.707742
0.703873
0.700597
0.663228
0.674886
0.685927
0.696525
0.706697
0.715721
0.723958
0.732323
0.741103
0.749748
0.758112
0.766085
0.773415
0.776367
0.776413
0.77618
0.774067
0.770511
0.766081
0.761141
0.755936
0.750855
0.745751
0.741102
0.736905
0.73296
0.729674
0.72638
0.72261
0.718895
0.714638
0.710262
0.706812
0.660921
0.672255
0.682982
0.692812
0.701972
0.710336
0.717887
0.725155
0.732443
0.740381
0.748111
0.755416
0.761985
0.766733
0.770647
0.769987
0.768252
0.766468
0.763496
0.760009
0.756306
0.752742
0.749206
0.745706
0.742546
0.739454
0.73755
0.734187
0.730865
0.727193
0.722571
0.718185
0.714833
0.659773
0.670296
0.680087
0.688911
0.696988
0.7045
0.711358
0.717745
0.724114
0.730517
0.737642
0.744466
0.750723
0.755697
0.759488
0.762347
0.76368
0.762437
0.759714
0.758026
0.756272
0.754088
0.75197
0.750069
0.74818
0.74658
0.744658
0.74187
0.739137
0.735811
0.73123
0.727115
0.724413
0.659515
0.668912
0.677509
0.685141
0.69206
0.698517
0.704529
0.710121
0.71568
0.721373
0.72698
0.733434
0.739466
0.74464
0.748792
0.752108
0.754811
0.755984
0.757097
0.756443
0.755839
0.755195
0.754688
0.754163
0.753423
0.753262
0.751869
0.749279
0.748008
0.744664
0.741227
0.738451
0.734454
0.660221
0.668338
0.675496
0.681789
0.687448
0.692767
0.697826
0.702639
0.707463
0.712458
0.717474
0.72249
0.728531
0.733701
0.738516
0.742644
0.746107
0.74925
0.751829
0.753658
0.754995
0.756203
0.757257
0.758095
0.758478
0.759704
0.759125
0.757608
0.756713
0.755345
0.751995
0.749291
0.74786
0.661773
0.668432
0.674079
0.678999
0.683369
0.687508
0.691622
0.695652
0.699809
0.704203
0.708818
0.713529
0.718044
0.723898
0.729048
0.734183
0.73877
0.742982
0.747299
0.750991
0.754306
0.757277
0.759877
0.762039
0.763768
0.765959
0.766738
0.766194
0.766157
0.764883
0.765233
0.762791
0.762523
0.663895
0.66905
0.673194
0.676788
0.679943
0.683007
0.686238
0.68956
0.693152
0.697131
0.701431
0.706021
0.710677
0.715313
0.721565
0.727415
0.733144
0.738594
0.743973
0.74938
0.754462
0.759
0.762978
0.766476
0.769606
0.772745
0.775071
0.776736
0.778174
0.779036
0.781085
0.780513
0.780061
0.666322
0.669976
0.672735
0.675115
0.677247
0.679407
0.681948
0.684784
0.688002
0.691745
0.695966
0.700597
0.705589
0.710772
0.716621
0.723131
0.729808
0.736862
0.743551
0.749925
0.755961
0.761734
0.767086
0.772
0.7765
0.781002
0.785252
0.789521
0.793218
0.796695
0.801368
0.802756
0.800725
0.668683
0.670902
0.672556
0.673892
0.675197
0.676813
0.679009
0.681675
0.684812
0.688515
0.692887
0.697847
0.703367
0.709364
0.715825
0.722809
0.730128
0.737879
0.745247
0.752305
0.759423
0.766411
0.773018
0.779371
0.78567
0.792111
0.798893
0.80574
0.812197
0.819262
0.825696
0.828111
0.824626
0.66956
0.670999
0.672184
0.673152
0.674105
0.675447
0.677442
0.680276
0.683799
0.687732
0.692569
0.698147
0.704203
0.710772
0.717776
0.725408
0.734318
0.742222
0.750102
0.758283
0.7663
0.774481
0.782611
0.790857
0.799413
0.808474
0.818029
0.828172
0.838576
0.847383
0.854503
0.854806
0.849051
0.671357
0.672183
0.672672
0.673174
0.673915
0.675209
0.677336
0.680577
0.68461
0.689205
0.694708
0.701055
0.708099
0.715768
0.72398
0.732777
0.741602
0.750598
0.76035
0.769784
0.779258
0.789146
0.799059
0.80961
0.82098
0.833074
0.845479
0.858493
0.869997
0.878721
0.882854
0.879873
0.870337
0.674156
0.674094
0.67396
0.674366
0.675074
0.676434
0.678845
0.682559
0.687498
0.693339
0.700214
0.708044
0.716741
0.726216
0.736321
0.746834
0.75753
0.768787
0.779534
0.790581
0.8019
0.813645
0.826005
0.839424
0.853718
0.86849
0.88283
0.895633
0.904657
0.909184
0.907617
0.89965
0.885961
0.677898
0.677118
0.6775
0.677534
0.677988
0.679394
0.682109
0.686291
0.692449
0.700112
0.708919
0.718809
0.729729
0.741425
0.753788
0.766663
0.779739
0.793335
0.807301
0.821082
0.835378
0.850415
0.866109
0.882199
0.89848
0.913323
0.92524
0.933173
0.936164
0.933616
0.925678
0.911747
0.893286
0.682791
0.682384
0.681692
0.681723
0.682194
0.683827
0.686921
0.691718
0.699191
0.708776
0.719645
0.73184
0.745203
0.759576
0.774773
0.790637
0.807003
0.823824
0.841434
0.85958
0.877901
0.896604
0.915017
0.932148
0.947121
0.958111
0.964017
0.964284
0.959885
0.949597
0.933928
0.915221
0.892757
0.689343
0.688223
0.687098
0.686789
0.687315
0.68933
0.693026
0.698909
0.70712
0.718428
0.731257
0.745683
0.761569
0.778795
0.79713
0.816418
0.836549
0.85745
0.878936
0.901315
0.923403
0.944624
0.963638
0.978937
0.989311
0.993705
0.992415
0.985788
0.97274
0.955092
0.932639
0.909097
0.881961
0.695745
0.693772
0.692461
0.691986
0.692635
0.695056
0.699469
0.706253
0.715448
0.727503
0.742013
0.75831
0.776938
0.796844
0.818233
0.840905
0.864676
0.889244
0.91421
0.938961
0.962943
0.984129
1.00117
1.01258
1.01732
1.01616
1.00888
0.99403
0.973392
0.950561
0.923352
0.894982
0.865124
0.700188
0.697914
0.69594
0.695632
0.696807
0.699785
0.704886
0.712548
0.722637
0.735334
0.750674
0.768775
0.789197
0.811297
0.835145
0.860499
0.886894
0.91379
0.940471
0.966041
0.989211
1.00876
1.02308
1.03115
1.03107
1.02511
1.01178
0.992304
0.968474
0.941479
0.912251
0.881125
0.85074
0.701172
0.698854
0.697534
0.697392
0.698494
0.701905
0.707903
0.716569
0.727652
0.740978
0.756993
0.775832
0.797318
0.820756
0.846185
0.872961
0.900434
0.928165
0.955
0.980048
1.00173
1.0188
1.02946
1.03294
1.03225
1.02433
1.00855
0.985778
0.957246
0.926486
0.896647
0.868094
0.839806
0.698404
0.695596
0.694465
0.694659
0.696816
0.701534
0.708991
0.718233
0.729531
0.743485
0.75993
0.778998
0.800975
0.824778
0.850632
0.877681
0.905347
0.932604
0.95862
0.983024
1.00299
1.01744
1.026
1.02728
1.02211
1.00954
0.9933
0.972859
0.947989
0.918986
0.887301
0.856291
0.826774
0.692967
0.690586
0.689854
0.690709
0.693555
0.698599
0.705805
0.715204
0.726982
0.741494
0.758401
0.777819
0.799366
0.823584
0.849034
0.876023
0.903146
0.929133
0.954363
0.976976
0.990942
1.0028
1.01006
1.01166
1.00878
0.998824
0.982311
0.960929
0.93464
0.904999
0.873782
0.842588
0.813213
0.685397
0.683531
0.683267
0.684836
0.688291
0.693796
0.701349
0.711061
0.723077
0.737542
0.754469
0.773858
0.795592
0.819579
0.845187
0.870985
0.896647
0.921664
0.943548
0.961529
0.97516
0.986636
0.993678
0.995522
0.992479
0.984136
0.96823
0.946397
0.919645
0.890134
0.85886
0.828081
0.799578
0.677897
0.676567
0.676668
0.678633
0.682554
0.688448
0.696287
0.706069
0.71801
0.73223
0.748716
0.767424
0.788198
0.810772
0.834659
0.859115
0.883106
0.90629
0.927134
0.944503
0.957749
0.967598
0.973398
0.974385
0.970424
0.960861
0.945425
0.925315
0.900243
0.872174
0.842373
0.813272
0.786484
0.6699
0.668777
0.669003
0.671006
0.674872
0.680689
0.688345
0.698295
0.709801
0.723643
0.739631
0.757724
0.777697
0.799225
0.821842
0.844707
0.867166
0.888573
0.907588
0.922942
0.934718
0.942875
0.947207
0.947576
0.943431
0.93477
0.921693
0.903896
0.88143
0.855195
0.827562
0.800317
0.775238
0.661947
0.661056
0.66138
0.663257
0.666819
0.672382
0.679599
0.688711
0.699733
0.712815
0.727996
0.745221
0.764344
0.785012
0.806624
0.828192
0.849547
0.869383
0.886971
0.901766
0.912334
0.919017
0.922011
0.921836
0.918741
0.911627
0.900397
0.884609
0.864434
0.840314
0.814708
0.789587
0.765992
0.654459
0.653789
0.654176
0.655874
0.659085
0.664234
0.670923
0.679436
0.68983
0.702185
0.716578
0.733005
0.751293
0.771197
0.791897
0.812926
0.833256
0.851922
0.868108
0.881364
0.891214
0.89761
0.900703
0.90084
0.898374
0.892753
0.883312
0.869201
0.851025
0.828454
0.803771
0.780886
0.759425
0.647629
0.647203
0.647698
0.649254
0.652093
0.656664
0.662761
0.670565
0.680228
0.691838
0.705477
0.721163
0.738601
0.757849
0.778155
0.79869
0.818427
0.836436
0.851956
0.864567
0.874081
0.880527
0.884273
0.885399
0.88402
0.879918
0.872259
0.86063
0.843571
0.821275
0.797945
0.775809
0.756309
0.641454
0.641391
0.64207
0.643589
0.646104
0.649894
0.655315
0.662408
0.671357
0.682271
0.695209
0.710178
0.727026
0.745752
0.765793
0.786241
0.805949
0.823952
0.83941
0.851929
0.861453
0.868197
0.872489
0.874434
0.874001
0.871152
0.864742
0.854218
0.837564
0.817702
0.794543
0.774297
0.755217
0.635777
0.636294
0.637255
0.638825
0.641152
0.64447
0.649088
0.65538
0.663568
0.67376
0.686022
0.700354
0.716777
0.735207
0.755146
0.775715
0.795731
0.814198
0.830166
0.843186
0.853176
0.860494
0.865546
0.868464
0.869019
0.866881
0.861156
0.851295
0.835336
0.815927
0.793218
0.77405
0.756443
0.630395
0.631631
0.632968
0.634666
0.637011
0.640136
0.644289
0.6499
0.657215
0.6665
0.677952
0.691601
0.707584
0.725818
0.745879
0.766892
0.787583
0.806896
0.823756
0.837614
0.848471
0.856641
0.862557
0.866274
0.867436
0.865656
0.86013
0.8505
0.835
0.816307
0.793539
0.77436
0.759655
0.625296
0.627009
0.628811
0.630856
0.633327
0.636438
0.640448
0.64557
0.652231
0.660679
0.671165
0.683989
0.699229
0.717085
0.737201
0.75878
0.780504
0.80104
0.819234
0.834318
0.84621
0.855286
0.861892
0.866212
0.867956
0.866634
0.861406
0.852062
0.836632
0.819248
0.796546
0.775971
0.762404
0.620174
0.622527
0.624553
0.626964
0.629717
0.63301
0.637
0.641944
0.648141
0.655895
0.665523
0.677321
0.691592
0.70866
0.728359
0.750103
0.772772
0.79484
0.814819
0.831689
0.845083
0.855205
0.862622
0.867683
0.870249
0.869578
0.864941
0.855839
0.840359
0.823236
0.801134
0.780287
0.762902
0.615087
0.617483
0.620103
0.622867
0.625865
0.629438
0.633551
0.638447
0.644385
0.651629
0.660454
0.671261
0.684378
0.700195
0.718871
0.740197
0.763249
0.786576
0.808479
0.82757
0.842916
0.855008
0.863364
0.8694
0.872732
0.873077
0.869675
0.861681
0.847425
0.831265
0.807401
0.783411
0.764353
0.610504
0.612767
0.615372
0.618392
0.621971
0.625518
0.629801
0.634713
0.640468
0.647313
0.655518
0.665387
0.677294
0.691651
0.708798
0.728788
0.751226
0.775035
0.798529
0.819941
0.838071
0.852094
0.862597
0.870144
0.8742
0.875655
0.874049
0.868612
0.857146
0.843826
0.821298
0.795768
0.76446
0.615362
0.645698
0.679729
0.715008
0.747745
0.77539
0.796519
0.8103
0.612556
0.640808
0.672147
0.705303
0.736696
0.763974
0.785535
0.800119
0.610788
0.636561
0.665547
0.696184
0.726068
0.752986
0.774899
0.790145
0.610115
0.6332
0.659571
0.687784
0.716105
0.742398
0.764569
0.780951
0.610015
0.63072
0.654418
0.6803
0.706914
0.732508
0.754597
0.772101
0.610618
0.628992
0.650265
0.674006
0.699061
0.723544
0.745681
0.763428
0.611929
0.62817
0.647267
0.66889
0.692096
0.715324
0.737806
0.755419
0.613905
0.628296
0.645424
0.66502
0.686171
0.709265
0.730302
0.747814
0.616536
0.629348
0.64475
0.662368
0.682856
0.703825
0.72389
0.74058
0.61996
0.631197
0.645546
0.661946
0.680535
0.700059
0.718444
0.733814
0.624017
0.634781
0.647813
0.663109
0.68011
0.697757
0.714113
0.727263
0.629093
0.639349
0.651704
0.6658
0.681105
0.696695
0.710565
0.72201
0.63492
0.644838
0.656516
0.669547
0.683145
0.696611
0.70859