/*--------------------------------*- C++ -*----------------------------------*\
  =========                 |
  \\      /  F ield         | OpenFOAM: The Open Source CFD Toolbox
   \\    /   O peration     | Website:  https://openfoam.org
    \\  /    A nd           | Version:  10
     \\/     M anipulation  |
\*---------------------------------------------------------------------------*/
FoamFile
{
    format      ascii;
    class       volScalarField;
    location    "0.84941";
    object      rho;
}
// * * * * * * * * * * * * * * * * * * * * * * * * * * * * * * * * * * * * * //

dimensions      [1 -3 0 0 0 0 0];

internalField   nonuniform List<scalar> 
16320
(
0.738113
0.72298
0.708223
0.694485
0.680921
0.667402
0.655548
0.644176
0.634812
0.625667
0.618564
0.611775
0.603155
0.592093
0.579836
0.568625
0.559537
0.553019
0.54931
0.54728
0.547651
0.555424
0.562932
0.564804
0.563448
0.561085
0.556882
0.55509
0.557784
0.565696
0.579223
0.594989
0.614463
0.71576
0.700079
0.684776
0.670274
0.658235
0.64762
0.638979
0.631353
0.624891
0.619148
0.613868
0.6088
0.60421
0.597034
0.587294
0.576365
0.565926
0.557821
0.553444
0.551631
0.552985
0.563977
0.573511
0.575425
0.573751
0.569446
0.562095
0.558051
0.558989
0.564856
0.574593
0.587953
0.604003
0.695342
0.680135
0.666036
0.654101
0.643997
0.635368
0.628099
0.622567
0.617455
0.613013
0.609996
0.606258
0.604658
0.600522
0.594835
0.585052
0.573534
0.563656
0.558443
0.557034
0.559233
0.573648
0.585085
0.586772
0.584627
0.577251
0.567158
0.561739
0.56166
0.56596
0.573555
0.584061
0.597335
0.673849
0.658422
0.64465
0.632409
0.623517
0.61628
0.611751
0.608743
0.60582
0.606088
0.605927
0.605503
0.604962
0.605157
0.602392
0.596736
0.583222
0.570733
0.564291
0.563287
0.566698
0.58396
0.596741
0.598446
0.595958
0.586149
0.573537
0.566709
0.565268
0.568184
0.574392
0.583469
0.593624
0.635799
0.62254
0.612167
0.604769
0.600508
0.596128
0.593828
0.593422
0.594086
0.595283
0.598639
0.602813
0.605126
0.606351
0.607718
0.604748
0.593053
0.577483
0.569778
0.569125
0.574397
0.594249
0.606756
0.607952
0.605091
0.593801
0.579953
0.572435
0.570423
0.572499
0.577505
0.58341
0.586921
0.612763
0.606042
0.599853
0.593729
0.590256
0.586528
0.584261
0.583392
0.585964
0.587148
0.590785
0.597227
0.603311
0.607092
0.609912
0.61019
0.601244
0.583642
0.575212
0.575069
0.583265
0.606182
0.61764
0.618058
0.614338
0.601344
0.588078
0.580444
0.577376
0.577825
0.579226
0.578496
0.573183
0.606904
0.60022
0.593721
0.587155
0.583075
0.579723
0.576756
0.576576
0.579315
0.581549
0.584983
0.592018
0.601005
0.607715
0.611935
0.614025
0.607426
0.589059
0.580721
0.581572
0.593426
0.618151
0.628083
0.628038
0.622779
0.609361
0.598155
0.590378
0.585048
0.581156
0.575028
0.566387
0.557488
0.603151
0.594977
0.587255
0.579207
0.573656
0.570385
0.567541
0.568341
0.571904
0.575673
0.579416
0.587259
0.598758
0.608196
0.613885
0.61717
0.611741
0.592725
0.585297
0.587506
0.604218
0.629584
0.638262
0.637801
0.631037
0.618644
0.607602
0.59858
0.589597
0.578012
0.565794
0.554809
0.54729
0.595713
0.583333
0.571258
0.559866
0.552312
0.548949
0.548515
0.551336
0.558905
0.566185
0.572475
0.582781
0.597108
0.609197
0.616369
0.620544
0.615313
0.59575
0.589755
0.593659
0.615573
0.641035
0.648217
0.647199
0.63876
0.626444
0.615533
0.603318
0.58812
0.57297
0.559944
0.550701
0.546641
0.574156
0.554658
0.535887
0.523106
0.513996
0.509603
0.51037
0.518691
0.534721
0.549468
0.56198
0.577404
0.595696
0.610872
0.619647
0.624543
0.618377
0.598249
0.593965
0.59989
0.626858
0.652287
0.658634
0.657035
0.64644
0.634037
0.620584
0.603987
0.587229
0.572673
0.561672
0.555027
0.553856
0.543244
0.524885
0.509905
0.497072
0.487008
0.480633
0.476853
0.480937
0.492868
0.519608
0.544956
0.569866
0.59461
0.613163
0.623132
0.628224
0.619707
0.599669
0.597736
0.60633
0.638553
0.663396
0.669632
0.667905
0.655733
0.640285
0.623994
0.607062
0.591529
0.578821
0.570719
0.569963
0.576874
0.530458
0.515202
0.501493
0.488571
0.477695
0.469181
0.465177
0.465042
0.4709
0.491419
0.525443
0.562028
0.595096
0.616856
0.62773
0.632121
0.618257
0.599778
0.600761
0.613399
0.650147
0.673231
0.679542
0.678992
0.667214
0.648204
0.630835
0.614736
0.602372
0.596848
0.599684
0.60882
0.628026
0.525675
0.514656
0.504272
0.490084
0.476622
0.463997
0.457774
0.457244
0.460866
0.475982
0.517389
0.563173
0.599138
0.621931
0.632417
0.634813
0.614389
0.599496
0.603467
0.622102
0.66104
0.681113
0.687004
0.687591
0.680163
0.659881
0.643654
0.634815
0.634542
0.638689
0.64595
0.657875
0.672252
0.532197
0.539741
0.533787
0.515763
0.493891
0.467562
0.455327
0.454022
0.458901
0.476738
0.522372
0.570128
0.607684
0.628255
0.63727
0.634124
0.607489
0.598838
0.605605
0.632159
0.669966
0.687417
0.692782
0.69386
0.689037
0.677445
0.669816
0.667787
0.669395
0.673182
0.678538
0.685814
0.692778
0.56389
0.588581
0.578033
0.552624
0.513337
0.472762
0.454703
0.453185
0.46024
0.485313
0.537209
0.587552
0.619894
0.635422
0.640659
0.626215
0.600542
0.597631
0.607384
0.641192
0.676426
0.691644
0.696664
0.698115
0.694395
0.688416
0.685355
0.684891
0.68607
0.688926
0.692567
0.696501
0.699381
0.600305
0.614934
0.600533
0.571012
0.519618
0.474951
0.457165
0.457469
0.470509
0.512341
0.567634
0.607785
0.631731
0.641669
0.639427
0.610484
0.593768
0.596546
0.609468
0.647036
0.678412
0.69276
0.69776
0.699765
0.697424
0.69371
0.692014
0.691915
0.69319
0.695092
0.695862
0.692078
0.675458
0.617623
0.628917
0.612318
0.582974
0.528477
0.487334
0.469524
0.475489
0.508654
0.558555
0.599934
0.627622
0.640829
0.642979
0.626639
0.596775
0.590341
0.595889
0.611108
0.64637
0.673505
0.6878
0.692724
0.695189
0.695017
0.693393
0.692569
0.692469
0.691456
0.685479
0.667697
0.648316
0.640141
0.62625
0.639267
0.627593
0.605172
0.56672
0.530296
0.517321
0.538544
0.569529
0.602514
0.625143
0.639786
0.642659
0.637546
0.603076
0.586594
0.587415
0.595839
0.613612
0.642591
0.661561
0.670695
0.674077
0.677115
0.680317
0.682466
0.681446
0.674421
0.656243
0.636545
0.62595
0.62675
0.63412
0.629957
0.647328
0.642125
0.628436
0.609474
0.590119
0.584211
0.599117
0.612541
0.627522
0.638429
0.641456
0.638397
0.611126
0.584478
0.581482
0.586754
0.596549
0.616196
0.634387
0.645686
0.652697
0.658379
0.662477
0.662602
0.655095
0.639819
0.622652
0.612441
0.61164
0.617468
0.627909
0.644876
0.613549
0.649771
0.652508
0.644344
0.633491
0.625456
0.622254
0.626891
0.631814
0.637521
0.640083
0.637009
0.618564
0.583475
0.576796
0.580112
0.586592
0.599163
0.615501
0.62747
0.636505
0.642218
0.64367
0.637763
0.623815
0.608826
0.59976
0.598637
0.603135
0.612606
0.628839
0.638675
0.643851
0.579663
0.635085
0.653139
0.65157
0.64468
0.638497
0.636305
0.636259
0.637384
0.638117
0.633617
0.615666
0.580646
0.57114
0.573149
0.578891
0.587679
0.600831
0.61297
0.620927
0.62547
0.622812
0.610441
0.596474
0.588207
0.587334
0.591515
0.600021
0.614272
0.624977
0.629741
0.627371
0.608751
0.555886
0.588773
0.633344
0.645324
0.645497
0.641724
0.638981
0.637716
0.633103
0.622792
0.59877
0.571975
0.564022
0.565761
0.571227
0.578367
0.588914
0.598786
0.606011
0.60694
0.597503
0.584753
0.578083
0.577487
0.581433
0.588633
0.600496
0.611607
0.617194
0.616048
0.596987
0.549367
0.519507
0.547737
0.550979
0.577502
0.611317
0.620743
0.622319
0.620369
0.616537
0.596408
0.577697
0.561493
0.556817
0.55874
0.563707
0.569555
0.577337
0.58544
0.589814
0.583731
0.573506
0.568648
0.568871
0.572307
0.57824
0.588355
0.598459
0.604438
0.605501
0.587954
0.540204
0.510858
0.502266
0.502357
0.549196
0.541449
0.541092
0.552321
0.568319
0.57174
0.57145
0.569421
0.560718
0.554341
0.55216
0.552016
0.555228
0.559957
0.565273
0.570183
0.569193
0.562003
0.558431
0.559697
0.563373
0.569054
0.578592
0.586446
0.592063
0.592887
0.577424
0.536738
0.505318
0.495461
0.49818
0.507813
0.525007
0.557423
0.54459
0.535383
0.532797
0.533641
0.53704
0.53782
0.537548
0.537454
0.537643
0.539071
0.541393
0.545157
0.547474
0.549115
0.548969
0.547962
0.550217
0.554152
0.559878
0.568766
0.575299
0.580205
0.581112
0.569624
0.536625
0.506576
0.495488
0.496656
0.508271
0.532189
0.567497
0.596598
0.575699
0.557721
0.543382
0.533273
0.527118
0.52543
0.52419
0.523147
0.5237
0.524847
0.526414
0.528741
0.531761
0.534424
0.537524
0.541107
0.545285
0.550813
0.558738
0.564803
0.569443
0.570987
0.563154
0.538205
0.51282
0.504088
0.504361
0.510915
0.539005
0.570883
0.593455
0.612826
0.631491
0.583337
0.574493
0.561953
0.547019
0.537064
0.529508
0.526026
0.523539
0.522512
0.523138
0.524385
0.526686
0.529758
0.533364
0.537681
0.543158
0.549291
0.554812
0.558988
0.561363
0.55672
0.539449
0.521508
0.513771
0.512769
0.516493
0.539835
0.567271
0.586399
0.601875
0.617568
0.635704
0.665568
0.584936
0.580432
0.572868
0.564256
0.554492
0.544624
0.537287
0.532014
0.529095
0.528364
0.529185
0.531163
0.534148
0.53786
0.541681
0.545704
0.548962
0.551708
0.549543
0.539256
0.526592
0.521371
0.519582
0.522154
0.535688
0.557956
0.575597
0.588823
0.601649
0.617754
0.647474
0.703922
0.778065
0.579861
0.574354
0.572619
0.568755
0.562306
0.555442
0.548701
0.543531
0.539518
0.537339
0.536669
0.536785
0.537723
0.539456
0.541482
0.54234
0.540595
0.535585
0.529663
0.525644
0.524266
0.526578
0.533603
0.550809
0.564443
0.576998
0.587138
0.59952
0.622383
0.669011
0.753755
0.812618
0.835116
0.580475
0.573635
0.567202
0.562892
0.560346
0.557338
0.552205
0.547419
0.543396
0.540246
0.53843
0.537607
0.536655
0.5356
0.533232
0.530551
0.528846
0.528001
0.527397
0.529188
0.533533
0.547015
0.55731
0.566757
0.575087
0.584784
0.599578
0.630026
0.693897
0.778248
0.816499
0.832508
0.841407
0.585835
0.576675
0.569257
0.562484
0.55614
0.551276
0.547725
0.543937
0.54025
0.536468
0.533801
0.531555
0.529347
0.528089
0.527495
0.52778
0.528776
0.530941
0.534842
0.544488
0.551976
0.558729
0.564793
0.571794
0.58087
0.596721
0.628123
0.688323
0.766409
0.805141
0.821369
0.831239
0.828815
0.599115
0.582855
0.574493
0.567163
0.559243
0.552506
0.546451
0.541747
0.537582
0.534003
0.531077
0.529326
0.528604
0.528745
0.529601
0.531584
0.536601
0.543064
0.548271
0.552673
0.556789
0.560882
0.566337
0.574275
0.588151
0.614451
0.660704
0.722965
0.772504
0.796402
0.808922
0.816867
0.816246
0.625702
0.596786
0.581321
0.573119
0.565334
0.556833
0.55017
0.544471
0.54029
0.536707
0.534027
0.532618
0.532521
0.534321
0.538335
0.54326
0.547179
0.550026
0.551462
0.554422
0.556286
0.559984
0.565373
0.574197
0.591788
0.624779
0.666672
0.708258
0.735495
0.752881
0.771561
0.787269
0.799873
0.637659
0.623853
0.594788
0.579799
0.571499
0.563259
0.555582
0.549561
0.545305
0.542069
0.540119
0.540355
0.543502
0.546607
0.548862
0.550589
0.550246
0.550923
0.551445
0.552489
0.55148
0.554587
0.559953
0.572974
0.596673
0.627134
0.658138
0.676696
0.6904
0.704361
0.72475
0.750891
0.773312
0.637804
0.636319
0.619168
0.591368
0.577378
0.569418
0.562961
0.557105
0.553301
0.552083
0.552933
0.554473
0.554907
0.554657
0.554547
0.55226
0.55102
0.549471
0.546769
0.541529
0.542664
0.547243
0.558877
0.576943
0.60338
0.633973
0.661961
0.682068
0.698318
0.715161
0.730761
0.74639
0.763515
0.634151
0.641569
0.635235
0.611392
0.585545
0.57526
0.56949
0.564796
0.56315
0.564327
0.56572
0.564293
0.562062
0.560099
0.556422
0.552247
0.548102
0.540455
0.533093
0.534251
0.538206
0.548706
0.564444
0.591043
0.628126
0.674489
0.72107
0.76005
0.795642
0.817925
0.834018
0.844115
0.83284
0.627239
0.645549
0.645828
0.631088
0.600007
0.582897
0.576961
0.573217
0.573654
0.576592
0.575198
0.571407
0.56778
0.562629
0.555645
0.547444
0.534367
0.52833
0.528821
0.532461
0.542016
0.559881
0.594323
0.659313
0.74612
0.794864
0.835624
0.861558
0.887015
0.90427
0.918762
0.9278
0.927293
0.628816
0.651655
0.655168
0.646457
0.619094
0.592734
0.584597
0.580838
0.583105
0.585725
0.582377
0.577546
0.571738
0.562126
0.549059
0.531979
0.526629
0.525882
0.529721
0.538862
0.560881
0.607529
0.709545
0.775302
0.806824
0.829372
0.841736
0.853516
0.860013
0.864628
0.877131
0.901586
0.93377
0.634907
0.656983
0.661045
0.655067
0.632121
0.602638
0.593247
0.589718
0.592662
0.593696
0.589028
0.583031
0.572502
0.55479
0.53453
0.527655
0.525807
0.529218
0.537801
0.562651
0.628317
0.734647
0.770994
0.80141
0.811431
0.819486
0.806623
0.777263
0.766224
0.770468
0.783047
0.810279
0.852061
0.64178
0.660843
0.665009
0.659886
0.638271
0.610843
0.602619
0.599619
0.602138
0.601125
0.595349
0.586042
0.56729
0.542805
0.532261
0.528776
0.530529
0.539489
0.565569
0.63801
0.725875
0.77504
0.787998
0.799046
0.795293
0.762071
0.720801
0.715647
0.722733
0.7379
0.768881
0.793116
0.81389
0.644205
0.662565
0.667014
0.662928
0.642741
0.617388
0.610485
0.608284
0.610684
0.607774
0.600564
0.585507
0.559782
0.541326
0.535289
0.534082
0.541511
0.564957
0.633645
0.725103
0.765096
0.780923
0.788026
0.778435
0.732438
0.693566
0.690969
0.69942
0.724682
0.757178
0.775044
0.789608
0.802826
0.636575
0.656602
0.662609
0.661198
0.644737
0.623229
0.617867
0.616559
0.617816
0.613773
0.604532
0.584326
0.557202
0.545999
0.541575
0.545184
0.564122
0.621977
0.713015
0.758712
0.77479
0.781031
0.769795
0.72125
0.680645
0.67831
0.68754
0.718395
0.74785
0.762312
0.770352
0.767152
0.764084
0.62405
0.640138
0.646434
0.648418
0.6406
0.627658
0.624726
0.624269
0.624424
0.620103
0.608351
0.584194
0.561617
0.553754
0.552542
0.564594
0.606997
0.686527
0.748692
0.76988
0.776367
0.768499
0.723274
0.67684
0.67267
0.681579
0.712799
0.73744
0.74817
0.744911
0.726806
0.71847
0.719567
0.619943
0.629981
0.635035
0.637807
0.63561
0.631196
0.631128
0.631902
0.632202
0.62759
0.613636
0.587564
0.570784
0.564913
0.567924
0.594535
0.650301
0.726818
0.762141
0.772146
0.768462
0.733176
0.679349
0.671512
0.678296
0.706211
0.728622
0.737226
0.729474
0.708398
0.704797
0.707793
0.706888
0.621452
0.627504
0.631809
0.635005
0.636103
0.636394
0.638187
0.639713
0.639846
0.634492
0.61975
0.594679
0.582698
0.578219
0.588395
0.622593
0.683422
0.74466
0.766225
0.766023
0.743255
0.687167
0.67371
0.677405
0.699694
0.721224
0.728784
0.720433
0.703734
0.703612
0.706385
0.703322
0.701999
0.628931
0.631716
0.635492
0.638684
0.641027
0.642717
0.645558
0.648063
0.648521
0.643091
0.627276
0.604996
0.595633
0.593765
0.607537
0.644231
0.704451
0.750707
0.754856
0.743147
0.699211
0.678834
0.678776
0.695383
0.716962
0.724343
0.719105
0.706771
0.707239
0.710131
0.70825
0.70589
0.702288
0.648486
0.643987
0.642462
0.644841
0.647888
0.651563
0.655391
0.658304
0.658141
0.652488
0.637261
0.616986
0.609795
0.609335
0.624403
0.660261
0.714364
0.734155
0.730919
0.709053
0.685512
0.681671
0.693801
0.715457
0.72322
0.722487
0.713267
0.713766
0.717705
0.720213
0.719038
0.7155
0.711334
0.675972
0.67542
0.664526
0.658637
0.660418
0.66514
0.670383
0.67303
0.670686
0.663167
0.647827
0.630605
0.625088
0.625155
0.638915
0.671877
0.706772
0.712158
0.705917
0.690892
0.684904
0.694874
0.714497
0.724238
0.726451
0.719777
0.719842
0.723177
0.726868
0.727678
0.727435
0.726994
0.725311
0.6995
0.707196
0.706227
0.695755
0.686703
0.683834
0.68368
0.685391
0.684576
0.677341
0.661476
0.645575
0.640381
0.639377
0.649043
0.674748
0.695083
0.696773
0.692242
0.68806
0.697043
0.713953
0.726969
0.729392
0.725361
0.722015
0.723277
0.725597
0.726959
0.726721
0.727603
0.728361
0.728892
0.707596
0.728796
0.736413
0.735529
0.726066
0.714315
0.704377
0.698538
0.696092
0.691414
0.677828
0.660307
0.653449
0.651204
0.656977
0.67093
0.684872
0.69003
0.691613
0.699517
0.714499
0.730755
0.733268
0.731198
0.724403
0.722981
0.723297
0.723126
0.721203
0.720656
0.722119
0.723147
0.725287
0.689966
0.735242
0.7535
0.761407
0.760652
0.75064
0.73614
0.721492
0.710495
0.703319
0.691603
0.673842
0.665862
0.663574
0.664857
0.672505
0.682279
0.691518
0.701912
0.715469
0.734773
0.739308
0.737104
0.729413
0.722204
0.719139
0.715932
0.710492
0.706463
0.706508
0.708248
0.710946
0.714577
0.655413
0.717027
0.756635
0.772951
0.781387
0.780933
0.770626
0.754481
0.736357
0.719851
0.705174
0.687242
0.677907
0.674644
0.674744
0.680094
0.688987
0.701267
0.71605
0.73791
0.7467
0.744983
0.738701
0.72451
0.712327
0.704541
0.690642
0.67753
0.67255
0.672252
0.675638
0.684175
0.69131
0.631614
0.666511
0.735743
0.772826
0.788085
0.796709
0.796874
0.787163
0.770371
0.749335
0.726772
0.704914
0.691081
0.68832
0.686724
0.691049
0.700536
0.715216
0.738363
0.753415
0.753618
0.747092
0.733228
0.709903
0.687048
0.660183
0.619306
0.60094
0.593814
0.592537
0.602585
0.62318
0.641384
0.625718
0.633559
0.67154
0.744035
0.78384
0.800147
0.808198
0.808693
0.800204
0.783675
0.76132
0.735902
0.716571
0.709259
0.707023
0.708968
0.720212
0.740188
0.758453
0.761839
0.756028
0.743722
0.715731
0.675308
0.627546
0.575505
0.546069
0.533825
0.529229
0.528563
0.537932
0.549273
0.568089
0.645192
0.628029
0.634705
0.669391
0.740483
0.788137
0.807855
0.815819
0.815967
0.808731
0.793751
0.773781
0.754954
0.74674
0.743764
0.742856
0.749753
0.760873
0.767994
0.764909
0.754587
0.725771
0.674359
0.611656
0.560363
0.52234
0.506888
0.500351
0.498136
0.504683
0.515083
0.52806
0.543866
0.710855
0.658093
0.631887
0.635632
0.662647
0.723778
0.781873
0.808785
0.818844
0.818466
0.811582
0.799711
0.786104
0.777094
0.772495
0.769366
0.769048
0.772264
0.772456
0.764343
0.738665
0.687185
0.616468
0.560428
0.515631
0.495085
0.48652
0.482781
0.48779
0.498251
0.510057
0.524
0.540003
0.737154
0.727468
0.675692
0.637311
0.637174
0.655239
0.699573
0.759115
0.799346
0.814293
0.815958
0.80917
0.800413
0.793031
0.787568
0.782437
0.778185
0.776765
0.770704
0.749199
0.703575
0.632794
0.570471
0.52293
0.493085
0.480748
0.475329
0.477237
0.48732
0.501885
0.526839
0.559776
0.578402
0.733492
0.743223
0.742276
0.693109
0.644407
0.640282
0.650676
0.676191
0.723267
0.772443
0.798415
0.804953
0.802573
0.797597
0.792897
0.786985
0.780696
0.773298
0.756144
0.714318
0.651124
0.588796
0.537865
0.500111
0.481432
0.47343
0.471067
0.477257
0.489721
0.511912
0.553334
0.602106
0.643266
0.728137
0.736421
0.746593
0.754336
0.710183
0.655945
0.646182
0.648173
0.660615
0.688128
0.727202
0.762433
0.780444
0.785534
0.784882
0.779712
0.769608
0.752461
0.716391
0.663877
0.608332
0.557579
0.516697
0.488987
0.476045
0.469976
0.47088
0.478453
0.494395
0.529158
0.59922
0.66109
0.69911
0.726129
0.737201
0.741935
0.753351
0.759801
0.73085
0.67512
0.651341
0.648073
0.651
0.662804
0.682678
0.707871
0.72871
0.739595
0.739952
0.725727
0.698125
0.661063
0.617834
0.57372
0.534455
0.503201
0.48297
0.473492
0.470013
0.47231
0.480739
0.501974
0.571155
0.65818
0.711835
0.741145
0.691978
0.720342
0.738545
0.744518
0.758485
0.764095
0.749929
0.700227
0.658671
0.648624
0.644827
0.64462
0.650131
0.658873
0.666552
0.668497
0.659952
0.640458
0.613364
0.581093
0.54806
0.518765
0.495944
0.48149
0.4748
0.472391
0.475083
0.485917
0.527223
0.632837
0.699229
0.742438
0.777273
0.655704
0.67125
0.708695
0.736635
0.748386
0.761362
0.768842
0.762238
0.724505
0.669556
0.64759
0.638517
0.63163
0.626411
0.623087
0.61952
0.611654
0.597288
0.577643
0.554488
0.530915
0.510138
0.494125
0.483488
0.477907
0.475936
0.479917
0.499767
0.584956
0.666198
0.726503
0.803972
0.875298
0.64689
0.651234
0.661064
0.694569
0.732952
0.749366
0.763094
0.771657
0.770676
0.745416
0.687415
0.646635
0.630212
0.619281
0.608469
0.59781
0.587134
0.573974
0.558451
0.541139
0.523871
0.508607
0.495987
0.486671
0.482298
0.481674
0.489691
0.537902
0.628158
0.68447
0.79559
0.945766
1.02832
0.649159
0.646634
0.64891
0.657667
0.681537
0.722554
0.745269
0.761992
0.772271
0.775065
0.757648
0.706203
0.648672
0.622309
0.605677
0.592342
0.579596
0.566069
0.552244
0.537897
0.523552
0.510254
0.498994
0.491903
0.489316
0.491646
0.511321
0.586854
0.647732
0.724614
0.906756
1.05275
1.09815
0.653804
0.653203
0.646347
0.648746
0.657323
0.673122
0.708575
0.73707
0.758893
0.771226
0.775927
0.764469
0.725152
0.659571
0.617802
0.594514
0.578264
0.564049
0.55084
0.537638
0.524881
0.513588
0.505357
0.50203
0.502645
0.510971
0.549961
0.616395
0.668507
0.817295
1.01392
1.10564
1.11479
0.657088
0.659573
0.650173
0.645983
0.649034
0.656855
0.66925
0.697353
0.725721
0.75432
0.768614
0.774778
0.767829
0.736802
0.67654
0.620728
0.588776
0.568155
0.553137
0.541061
0.530167
0.522606
0.519441
0.519112
0.522516
0.537293
0.588148
0.634787
0.717758
0.913363
1.06802
1.11712
1.11219
0.659114
0.66043
0.649976
0.644338
0.644089
0.64901
0.655886
0.666691
0.690256
0.716841
0.749632
0.764908
0.772152
0.767376
0.741812
0.691803
0.636026
0.593368
0.566958
0.55073
0.541664
0.538165
0.537106
0.538507
0.545077
0.570497
0.619719
0.661521
0.784401
0.975758
1.08564
1.10447
1.07069
0.660561
0.659514
0.647607
0.640988
0.639548
0.642852
0.648176
0.654179
0.664569
0.685067
0.710193
0.745414
0.760353
0.768037
0.764808
0.744356
0.702294
0.652976
0.611876
0.583966
0.567552
0.561414
0.561257
0.563364
0.572691
0.605838
0.645063
0.693756
0.84318
1.00728
1.08027
1.05185
0.959956
0.661608
0.653044
0.640148
0.632813
0.632228
0.636076
0.641096
0.646653
0.653636
0.664781
0.682853
0.704842
0.742474
0.755407
0.763344
0.761765
0.74571
0.712356
0.67107
0.635564
0.608959
0.596276
0.595118
0.597697
0.608098
0.640563
0.670815
0.728467
0.885218
1.02083
1.03857
0.975649
0.885605
0.657934
0.641237
0.629246
0.620872
0.620921
0.624987
0.630321
0.638255
0.646364
0.653902
0.66483
0.681261
0.701637
0.740779
0.752513
0.759892
0.75965
0.748051
0.722374
0.688427
0.659559
0.642088
0.638537
0.641243
0.650216
0.674482
0.701441
0.767341
0.914894
1.01338
1.01162
0.94897
0.865263
0.645043
0.624233
0.615346
0.604713
0.604165
0.608174
0.614691
0.625478
0.638423
0.647173
0.655365
0.6664
0.680213
0.703049
0.739115
0.752559
0.759938
0.761799
0.754323
0.733046
0.707509
0.690171
0.684766
0.687991
0.694652
0.709829
0.735487
0.805682
0.934298
1.00652
1.0078
0.962691
0.88085
0.621998
0.603807
0.595296
0.582335
0.578883
0.582661
0.590377
0.604685
0.625602
0.639982
0.649642
0.657285
0.668657
0.682025
0.711049
0.740665
0.754165
0.76258
0.766895
0.762554
0.74739
0.733844
0.729162
0.731804
0.737335
0.747254
0.768612
0.831494
0.948351
1.00829
1.01595
0.988849
0.913003
0.596871
0.580191
0.568148
0.554718
0.547528
0.550069
0.55726
0.572815
0.603471
0.629456
0.644446
0.653078
0.662295
0.67236
0.687579
0.719734
0.750287
0.763032
0.769858
0.774723
0.773533
0.76782
0.766399
0.770172
0.776903
0.78571
0.803437
0.850989
0.956311
1.01246
1.02309
1.00883
0.941051
0.57132
0.560922
0.552365
0.542027
0.533798
0.532971
0.535873
0.545009
0.570039
0.61035
0.637927
0.650937
0.660367
0.669156
0.679353
0.69908
0.735714
0.759776
0.772892
0.780456
0.786117
0.790205
0.794974
0.8009
0.808239
0.817697
0.831413
0.872247
0.957826
1.00225
1.01228
0.99965
0.943178
0.564302
0.558146
0.550576
0.53961
0.530163
0.5273
0.529081
0.535359
0.554705
0.594493
0.629396
0.649595
0.661078
0.670194
0.679111
0.692795
0.713005
0.753493
0.775731
0.788657
0.797661
0.804913
0.813808
0.822849
0.831394
0.841677
0.85722
0.891486
0.948455
0.971952
0.974166
0.954256
0.905984
0.567933
0.564254
0.556536
0.541179
0.530259
0.526739
0.528412
0.53571
0.559145
0.598623
0.631979
0.653897
0.666869
0.676251
0.685694
0.696616
0.71197
0.742349
0.778645
0.799639
0.813496
0.825699
0.837648
0.849323
0.860204
0.87223
0.88695
0.907777
0.933461
0.941802
0.936912
0.914211
0.890187
0.592254
0.59026
0.57466
0.549464
0.534343
0.530416
0.533358
0.546335
0.578414
0.611972
0.642186
0.664081
0.677167
0.68734
0.6968
0.707731
0.720826
0.740943
0.776911
0.810629
0.833096
0.850908
0.866625
0.88098
0.89275
0.901366
0.909659
0.919082
0.925521
0.923934
0.912962
0.898567
0.883462
0.647964
0.631767
0.5828
0.554973
0.542814
0.541478
0.550232
0.581942
0.61637
0.639786
0.660772
0.677607
0.689869
0.701634
0.711699
0.723041
0.736773
0.753652
0.779566
0.819273
0.850977
0.875261
0.894458
0.910019
0.921769
0.92781
0.930172
0.930645
0.926626
0.917721
0.905018
0.894785
0.901624
0.706837
0.654191
0.58822
0.566434
0.562174
0.565611
0.594964
0.630544
0.649286
0.663708
0.677715
0.690915
0.703577
0.715284
0.726319
0.73876
0.752978
0.770155
0.791819
0.824279
0.863128
0.896145
0.921309
0.936012
0.944741
0.944573
0.940248
0.934324
0.923817
0.914322
0.913182
0.944643
0.966142
0.741974
0.676115
0.618922
0.59937
0.594288
0.598811
0.624177
0.648888
0.663401
0.67542
0.688437
0.701082
0.71472
0.727452
0.740944
0.75564
0.772067
0.789957
0.810955
0.836398
0.86933
0.898131
0.919137
0.930925
0.936295
0.937421
0.936499
0.933884
0.94128
0.97722
0.978554
0.947274
0.901029
0.774491
0.743297
0.689957
0.649167
0.631297
0.627777
0.634366
0.651508
0.664154
0.677049
0.69125
0.704806
0.719074
0.733083
0.748052
0.764166
0.781019
0.798575
0.817364
0.838795
0.861555
0.886407
0.909038
0.924329
0.942075
0.953713
0.987677
0.998041
0.962742
0.902252
0.819113
0.714335
0.636202
0.784647
0.773491
0.755097
0.733732
0.71124
0.683747
0.668141
0.662336
0.665015
0.672773
0.683676
0.697752
0.713363
0.729685
0.747664
0.765987
0.785401
0.805473
0.825916
0.84826
0.874757
0.912487
0.950338
0.988737
0.995306
0.955964
0.883324
0.794028
0.705783
0.650872
0.617906
0.591983
0.570649
0.778264
0.772213
0.764703
0.758551
0.754055
0.747925
0.744274
0.740886
0.732998
0.728136
0.726425
0.727617
0.736041
0.752233
0.771977
0.79384
0.819594
0.849979
0.881768
0.913338
0.939688
0.926074
0.883314
0.830432
0.751626
0.703528
0.6764
0.660188
0.644791
0.628744
0.612198
0.594973
0.576318
0.730899
0.7187
0.714115
0.714705
0.721308
0.730935
0.743303
0.757369
0.772461
0.788963
0.80637
0.821347
0.835332
0.845249
0.858205
0.873532
0.887114
0.890901
0.878854
0.833538
0.729876
0.692635
0.678038
0.673534
0.678991
0.689751
0.703555
0.715712
0.713088
0.700397
0.673579
0.6412
0.603705
0.632899
0.617807
0.610781
0.607579
0.604488
0.602094
0.60293
0.606695
0.614397
0.62429
0.635597
0.648181
0.658729
0.667931
0.672377
0.673253
0.669661
0.663735
0.654696
0.648432
0.658002
0.678088
0.708224
0.751133
0.793219
0.818333
0.818135
0.802324
0.775133
0.736232
0.695011
0.649348
0.603229
0.591598
0.588986
0.589399
0.58971
0.587005
0.583506
0.581402
0.580036
0.582163
0.586612
0.591983
0.599981
0.609832
0.62061
0.630084
0.638718
0.650226
0.66565
0.68484
0.721195
0.762827
0.797901
0.832668
0.860198
0.874554
0.870618
0.852278
0.822891
0.781592
0.736688
0.68781
0.640852
0.594452
0.575731
0.577128
0.584675
0.595846
0.606504
0.618193
0.633093
0.646594
0.657969
0.668457
0.677528
0.685039
0.690783
0.694549
0.697001
0.702527
0.714789
0.733293
0.761688
0.790108
0.819433
0.854238
0.881941
0.897065
0.895272
0.881546
0.854425
0.819667
0.776066
0.725992
0.669832
0.623357
0.579833
0.564276
0.567627
0.58012
0.603157
0.632967
0.653628
0.665217
0.674321
0.680885
0.685087
0.688793
0.691714
0.693865
0.695583
0.700309
0.711353
0.728398
0.755826
0.798537
0.841205
0.872824
0.892045
0.900482
0.901634
0.893765
0.875875
0.848691
0.815551
0.770499
0.717673
0.639578
0.589316
0.555851
0.553163
0.555886
0.567799
0.59469
0.629821
0.653523
0.664554
0.672201
0.675737
0.67716
0.678422
0.679387
0.680809
0.68345
0.69439
0.712652
0.738999
0.773841
0.815459
0.852056
0.875814
0.88948
0.895141
0.894461
0.886754
0.872829
0.852741
0.824175
0.777817
0.71558
0.621629
0.552752
0.532046
0.538515
0.541984
0.549142
0.571478
0.60866
0.641177
0.655453
0.662717
0.663412
0.658812
0.65275
0.649023
0.650895
0.663273
0.68217
0.70285
0.731578
0.764803
0.803527
0.839123
0.862812
0.877139
0.885224
0.887358
0.883547
0.873841
0.858142
0.834327
0.795041
0.723831
0.616563
0.536871
0.514406
0.519435
0.527471
0.53147
0.540533
0.565825
0.605198
0.631977
0.641336
0.638661
0.629473
0.620069
0.614272
0.618806
0.633438
0.658723
0.682787
0.711973
0.744035
0.779426
0.816039
0.845173
0.864354
0.874686
0.87844
0.876141
0.868165
0.854255
0.835849
0.807011
0.74187
0.625367
0.534169
0.502317
0.509675
0.511046
0.516328
0.520465
0.528161
0.547068
0.580935
0.601993
0.60661
0.603386
0.594892
0.589005
0.592579
0.605026
0.623542
0.647042
0.675284
0.70759
0.740476
0.777628
0.814009
0.84293
0.861895
0.870294
0.870462
0.864036
0.851407
0.833312
0.80751
0.765214
0.659373
0.544005
0.498737
0.517066
0.506438
0.505168
0.507072
0.510455
0.515499
0.525138
0.545812
0.560307
0.567732
0.571557
0.569685
0.57359
0.581575
0.592422
0.607636
0.628993
0.66021
0.694086
0.731328
0.772488
0.809938
0.837977
0.85467
0.860355
0.857446
0.847087
0.832032
0.810117
0.778513
0.717313
0.582143
0.502767
0.556522
0.526398
0.508209
0.502336
0.501892
0.503309
0.505936
0.510441
0.51899
0.528743
0.536872
0.545833
0.553819
0.562684
0.572409
0.582441
0.595052
0.613015
0.642837
0.678393
0.720602
0.764869
0.802839
0.830278
0.844444
0.846834
0.83912
0.825865
0.808617
0.785857
0.750486
0.657954
0.522233
0.578042
0.567238
0.541429
0.517086
0.504428
0.499948
0.499343
0.500627
0.503157
0.507231
0.512933
0.520243
0.530498
0.542552
0.555335
0.566944
0.577066
0.589353
0.605316
0.630063
0.664928
0.70858
0.755552
0.794981
0.820945
0.831306
0.827772
0.816725
0.802038
0.787558
0.762627
0.714197
0.574896
0.581101
0.579057
0.573028
0.556891
0.531455
0.512702
0.502612
0.498718
0.498333
0.499754
0.502592
0.507009
0.513425
0.522202
0.532566
0.545256
0.559715
0.572943
0.58494
0.599051
0.617944
0.650871
0.697229
0.746009
0.784107
0.806969
0.811698
0.803112
0.790229
0.783074
0.767806
0.730003
0.654457
0.581442
0.580116
0.579315
0.576371
0.56738
0.546221
0.524673
0.510024
0.501841
0.498546
0.498591
0.500884
0.504868
0.510679
0.51851
0.528588
0.541292
0.555822
0.569396
0.581459
0.595147
0.611862
0.641367
0.688235
0.736456
0.772363
0.788898
0.788955
0.777731
0.7734
0.773296
0.742588
0.685505
0.635813
0.656891
0.662995
0.651235
0.640692
0.639962
0.655684
0.675625
0.622938
0.638357
0.638423
0.629281
0.624811
0.630684
0.649083
0.671967
0.611183
0.61887
0.613984
0.609324
0.611042
0.622977
0.64336
0.671025
0.600917
0.598375
0.593242
0.592853
0.6002
0.617073
0.639645
0.675259
0.5842
0.578595
0.575711
0.580432
0.592591
0.613189
0.639623
0.687331
0.566117
0.561428
0.563416
0.5731
0.589154
0.612684
0.649717
0.707495
0.551331
0.551219
0.558192
0.570678
0.590882
0.621813
0.677352
0.729454
0.545357
0.549496
0.55888
0.575627
0.603158
0.655317
0.710253
0.747463
0.547811
0.554718
0.569049
0.595794
0.645701
0.696823
0.73375
0.758316
0.559865
0.573399
0.603903
0.648777
0.691338
0.722919
0.745526
0.761165
0.594254
0.626116
0.660541
0.692031
0.71535
0.734174
0.748161
0.749487
0.651045
0.674776
0.695101
0.710645
0.725005
0.732826
0.728544
0.732197
0.686403
0.697533