/*--------------------------------*- C++ -*----------------------------------*\
  =========                 |
  \\      /  F ield         | OpenFOAM: The Open Source CFD Toolbox
   \\    /   O peration     | Website:  https://openfoam.org
    \\  /    A nd           | Version:  10
     \\/     M anipulation  |
\*---------------------------------------------------------------------------*/
FoamFile
{
    format      ascii;
    class       volScalarField;
    location    "0.84941";
    object      T;
}
// * * * * * * * * * * * * * * * * * * * * * * * * * * * * * * * * * * * * * //

dimensions      [0 0 0 1 0 0 0];

internalField   nonuniform List<scalar> 
16320
(
0.0030365
0.00303496
0.00303577
0.00303687
0.00304248
0.00305319
0.00306328
0.0030778
0.00308961
0.00310703
0.00312085
0.00313894
0.00317167
0.0032222
0.00328399
0.00334348
0.00339237
0.00342571
0.00344045
0.00344031
0.00342351
0.00336435
0.00330133
0.00327523
0.00327412
0.00328406
0.00331175
0.00333604
0.00335039
0.0033523
0.00334322
0.00334274
0.0033484
0.00311144
0.0031127
0.00311679
0.00312256
0.0031226
0.00312226
0.00311915
0.00311807
0.00311853
0.00312209
0.00313036
0.00314361
0.00315919
0.00319261
0.003243
0.00330286
0.00336175
0.00340708
0.00342828
0.00342863
0.00340675
0.00333066
0.00325743
0.00323122
0.00323253
0.00325201
0.00329745
0.00333483
0.00335833
0.0033696
0.00337684
0.00338385
0.00339978
0.00318138
0.00318074
0.00317971
0.00317392
0.00316501
0.00315579
0.00314734
0.00313792
0.00313425
0.00313476
0.00313539
0.00314499
0.00314954
0.00317095
0.00320229
0.00325792
0.00332508
0.00338337
0.00341231
0.00341334
0.00338742
0.00329449
0.00321353
0.00318958
0.00319461
0.00322959
0.00329134
0.00333658
0.0033651
0.00338302
0.00339812
0.00341521
0.00343849
0.00326036
0.00326127
0.00325926
0.00325545
0.0032407
0.0032254
0.00320428
0.00318382
0.00317171
0.00315122
0.00314084
0.00313773
0.0031407
0.00314249
0.00316186
0.00319721
0.00327731
0.00335342
0.0033924
0.0033948
0.00336427
0.0032589
0.00317437
0.00315235
0.00316051
0.00320812
0.0032835
0.00333702
0.00337274
0.0033961
0.00341493
0.00343404
0.00346621
0.00343276
0.0034229
0.00340307
0.00337342
0.00333432
0.00330451
0.00327253
0.0032401
0.00321144
0.00318932
0.00316393
0.00314107
0.00313183
0.00313282
0.00313645
0.0031632
0.00323084
0.00332693
0.00337653
0.00337928
0.00334204
0.00322675
0.00314806
0.00313162
0.00314316
0.00319921
0.0032811
0.00333863
0.00337653
0.00340208
0.00342359
0.00345486
0.00351791
0.00353765
0.00349025
0.00344521
0.00340688
0.00336211
0.00332867
0.00329768
0.00326974
0.00323348
0.00321509
0.00319193
0.00315959
0.0031346
0.00312789
0.00312956
0.0031436
0.00320047
0.00330923
0.00336561
0.00336631
0.00331666
0.00318924
0.00312105
0.00311206
0.00312971
0.00319553
0.00327379
0.00333187
0.00337433
0.00340659
0.00344498
0.00350939
0.00361835
0.00354989
0.00349877
0.00345235
0.00341441
0.00337207
0.00333696
0.00331175
0.00328274
0.00324908
0.00322878
0.00321048
0.00317746
0.00314211
0.00312546
0.0031245
0.00313332
0.00318348
0.00329678
0.00335714
0.00335523
0.00329138
0.00315636
0.00310106
0.0030986
0.00312405
0.0031932
0.00326027
0.00331844
0.00337172
0.00342634
0.00350508
0.00361332
0.00374016
0.00354811
0.00350196
0.0034598
0.00342889
0.00339481
0.00336036
0.00333695
0.00330583
0.00327079
0.00324597
0.0032283
0.00319499
0.0031519
0.00312556
0.00312097
0.00312806
0.00317723
0.0032961
0.0033549
0.00334814
0.00326334
0.00313064
0.00308585
0.00308813
0.00312111
0.00318708
0.00325344
0.00331718
0.00338922
0.00348612
0.00359978
0.00372022
0.00383293
0.00356696
0.00354269
0.00352419
0.00351267
0.00349123
0.00345883
0.00342369
0.00338283
0.00332758
0.00328568
0.00325644
0.00321444
0.00316083
0.0031249
0.00311663
0.00312346
0.00317559
0.0033009
0.00335463
0.00334124
0.00323421
0.00310734
0.00307353
0.00308085
0.00312285
0.00318942
0.00325548
0.00333555
0.0034414
0.00355886
0.00367591
0.0037811
0.00386331
0.00367398
0.0036951
0.00372208
0.00372207
0.00371396
0.00369053
0.00364817
0.00357119
0.00345982
0.00337126
0.00330897
0.00324275
0.00317075
0.00312276
0.00311027
0.00311762
0.00317735
0.00331052
0.00335663
0.00333468
0.00320647
0.00308564
0.00305909
0.00307153
0.00312462
0.00319246
0.00327161
0.00337507
0.00348959
0.00360201
0.00370292
0.00378548
0.00384076
0.00385137
0.00386769
0.00387101
0.00387443
0.00387751
0.00387425
0.00387086
0.0038268
0.0037359
0.00355212
0.00340759
0.00328597
0.00318082
0.00311911
0.00310471
0.00311511
0.00318891
0.00332639
0.0033611
0.00332692
0.00317632
0.00306401
0.00304112
0.0030556
0.00311699
0.00320007
0.00329374
0.00339866
0.00350469
0.00360293
0.00368107
0.0037198
0.0037164
0.00391204
0.00390492
0.00389556
0.00389786
0.00390832
0.00392744
0.00393413
0.00392872
0.0038875
0.00374547
0.00353121
0.0033333
0.00318351
0.00310973
0.00309484
0.00311247
0.00321518
0.00334788
0.00336801
0.00331448
0.00314514
0.00304624
0.00302586
0.00303618
0.00309639
0.00319574
0.00329409
0.00339299
0.00347828
0.00352987
0.00353787
0.00351426
0.00344474
0.00391673
0.00387417
0.00383356
0.00384102
0.00387178
0.00392949
0.00396235
0.00396842
0.00395116
0.00385363
0.00358552
0.0033288
0.00316846
0.00309391
0.00308486
0.00311532
0.00325347
0.00336929
0.00337342
0.00329176
0.00311416
0.00303399
0.00301794
0.00302456
0.0030661
0.00316888
0.00325958
0.00331765
0.00333437
0.00333113
0.00331642
0.00328419
0.00324834
0.00384069
0.00366284
0.00358593
0.00361008
0.00369565
0.00386177
0.0039522
0.00397186
0.00395324
0.00384001
0.00354926
0.00329148
0.00313079
0.00307205
0.00307353
0.00313241
0.00330625
0.00338928
0.00337806
0.00325754
0.00308973
0.00302482
0.00301294
0.00301871
0.00304954
0.00311182
0.00315861
0.00318103
0.00318878
0.00318941
0.00318675
0.0031806
0.00318246
0.00360074
0.0033356
0.003287
0.0033423
0.00352625
0.00379044
0.00393382
0.00396232
0.00393319
0.00377029
0.0034492
0.00319735
0.00307555
0.00304634
0.00306724
0.00318118
0.00335757
0.00340805
0.00338023
0.00322381
0.00307289
0.0030202
0.00301136
0.00301677
0.00304402
0.00308199
0.00310818
0.00312431
0.00313537
0.00314187
0.00314871
0.00315912
0.00318119
0.00336674
0.00317853
0.00315116
0.00322244
0.0034703
0.00376022
0.00390316
0.00392055
0.00384566
0.00357269
0.00326588
0.00309521
0.00302449
0.00302487
0.00308213
0.00327164
0.00340367
0.00342133
0.00337593
0.00320171
0.00307218
0.00302466
0.00301704
0.00302135
0.00304401
0.00307332
0.00309483
0.00311089
0.00312312
0.00313563
0.00315694
0.00320626
0.00332048
0.00326721
0.00310531
0.00309083
0.00315964
0.00341581
0.0036683
0.00380685
0.00377812
0.00356278
0.00328013
0.00309484
0.00300323
0.00298785
0.00302489
0.00314918
0.00335123
0.00342645
0.00342745
0.00336957
0.0032084
0.00309825
0.00305099
0.00304476
0.00304849
0.00306352
0.00308547
0.00310498
0.00312302
0.00314766
0.00319899
0.00331285
0.00344462
0.00352711
0.00322677
0.00306493
0.0030297
0.00306014
0.00320334
0.00339085
0.00347128
0.00334954
0.0031911
0.00304855
0.00297724
0.00295265
0.00298483
0.00305498
0.00327547
0.00341
0.00344275
0.00342625
0.00335417
0.0032259
0.00315386
0.00312934
0.00313084
0.00313329
0.00313493
0.00314206
0.00316505
0.00321837
0.00333049
0.00346097
0.00355049
0.00358178
0.00358128
0.00322345
0.00304888
0.00298738
0.00297446
0.00300553
0.00307145
0.00309408
0.00302548
0.00297926
0.00293736
0.00292386
0.00295145
0.00300904
0.00318817
0.00337911
0.00343782
0.0034436
0.00341862
0.0033363
0.00326392
0.00322884
0.00321403
0.00320508
0.00320365
0.00322174
0.00327811
0.00337752
0.00349426
0.00357918
0.00361382
0.00361334
0.0035915
0.00354049
0.00333373
0.00306788
0.00297373
0.00293621
0.00292469
0.00292655
0.00292937
0.00291018
0.00290327
0.00290308
0.00292532
0.00297798
0.00310868
0.00334028
0.0034218
0.00344179
0.00343946
0.00339826
0.00333497
0.00329553
0.0032709
0.00326309
0.00327621
0.00332714
0.00342297
0.00352997
0.00360757
0.00364062
0.00364246
0.00361818
0.00356099
0.00354646
0.00356311
0.00355895
0.00317353
0.00300888
0.00294278
0.00291129
0.00289917
0.0028924
0.00289007
0.00289571
0.002914
0.00296451
0.00308684
0.00331418
0.00341132
0.00343974
0.00344355
0.00342653
0.00338187
0.0033424
0.00332458
0.00332396
0.00336108
0.00345105
0.00355542
0.00362977
0.00366028
0.00366073
0.003637
0.00358356
0.00355641
0.0035678
0.00362437
0.00378457
0.00374372
0.00345863
0.00314256
0.00301292
0.00294892
0.00292081
0.00291122
0.00291038
0.00293638
0.00300064
0.00314573
0.00332794
0.00341336
0.00344178
0.00344702
0.0034406
0.00341218
0.00338599
0.00337357
0.00339484
0.00347366
0.00357464
0.00364098
0.00366976
0.00367074
0.00365258
0.00360863
0.003573
0.00357372
0.00361731
0.00377526
0.00415147
0.00444382
0.00382787
0.00373019
0.00348538
0.00322336
0.0031107
0.00305218
0.00303245
0.00303883
0.00313929
0.00325208
0.00336877
0.00342636
0.00344789
0.00345284
0.00345304
0.00344073
0.00342538
0.00343002
0.00349437
0.00358521
0.00364398
0.00366973
0.00367416
0.00366283
0.00362686
0.00359375
0.00358839
0.00361437
0.00375908
0.00413364
0.00441827
0.00454615
0.00460126
0.00384369
0.00382581
0.00375534
0.00360858
0.0034419
0.00336528
0.00332889
0.00332197
0.0033678
0.00341135
0.00344066
0.00346475
0.0034733
0.00347566
0.00347583
0.00347817
0.00351529
0.00359142
0.00364553
0.00366718
0.00367214
0.00366377
0.00363128
0.00361049
0.00360478
0.0036303
0.00376149
0.00408207
0.00437713
0.00451042
0.00453505
0.00450106
0.00440659
0.00381102
0.00383219
0.00382835
0.0037784
0.00370718
0.00362601
0.00357579
0.00355198
0.00354208
0.00353989
0.00353998
0.00354278
0.003542
0.00355465
0.00357394
0.00360632
0.0036454
0.00366207
0.00366693
0.00365976
0.00363249
0.00362069
0.00361943
0.0036436
0.0037482
0.00401302
0.00428918
0.00442467
0.00445699
0.00439998
0.0042479
0.00403064
0.00388145
0.00371257
0.00376943
0.0038042
0.00381091
0.00379258
0.00374748
0.00370885
0.00368319
0.00366277
0.00364949
0.00364208
0.0036387
0.00363748
0.00364352
0.00365023
0.00365561
0.00365806
0.00365223
0.00363155
0.00362344
0.00362462
0.00364574
0.00372772
0.00393362
0.00416383
0.00427309
0.00430898
0.00429297
0.00410915
0.00392102
0.00381424
0.00373726
0.00367142
0.00368484
0.00368522
0.00370883
0.00374911
0.00376011
0.00375819
0.00373482
0.00371451
0.00369875
0.00368453
0.00367409
0.00366507
0.00365835
0.00365379
0.00364878
0.00363951
0.00362801
0.00362227
0.00362612
0.00364222
0.00370425
0.00385596
0.00402384
0.00412005
0.004164
0.0041711
0.00402714
0.0038688
0.00378057
0.00372393
0.00367057
0.00360762
0.00348722
0.00369232
0.00367097
0.00366681
0.00366826
0.00367837
0.00369153
0.00369412
0.00369014
0.00368096
0.00367046
0.00365939
0.00364759
0.00363699
0.00362816
0.00362377
0.00362225
0.00362849
0.00364018
0.00368522
0.0037878
0.00391334
0.00398769
0.00403672
0.00405287
0.00398636
0.00386232
0.00377938
0.00373084
0.00368954
0.00363244
0.0035047
0.00326117
0.00298991
0.00373884
0.00373037
0.00369439
0.0036702
0.0036617
0.00365673
0.00365424
0.0036469
0.00364015
0.0036334
0.00362806
0.00362464
0.00362356
0.00362426
0.00362905
0.003646
0.00368381
0.00374747
0.00382137
0.003884
0.00392838
0.00394599
0.00392974
0.00384168
0.00378363
0.00373649
0.00370759
0.00366696
0.00356886
0.00335708
0.00301329
0.00283281
0.00279413
0.00374556
0.00375158
0.00375234
0.00373655
0.00370691
0.00367992
0.00366766
0.00365645
0.00364646
0.0036401
0.00363736
0.00363711
0.00364395
0.00365911
0.00369029
0.00372977
0.00376722
0.00380165
0.00383694
0.00385633
0.00385911
0.00379769
0.00376146
0.00373337
0.00371429
0.00368804
0.00363225
0.0034904
0.00320064
0.00289222
0.00278957
0.0027718
0.00278163
0.00371831
0.00374468
0.00375751
0.00376357
0.00376468
0.00375373
0.00373278
0.00371479
0.00370024
0.0036939
0.00369169
0.00369719
0.00370965
0.00372319
0.00373915
0.00375487
0.00377058
0.00378184
0.00378423
0.00374831
0.00372939
0.00371723
0.00371132
0.00370042
0.00367746
0.00361466
0.00346735
0.00319281
0.00290546
0.00279872
0.00277733
0.00278231
0.00283131
0.00363983
0.00371505
0.00373981
0.00375549
0.0037714
0.00377657
0.00377508
0.00376419
0.00375211
0.00374173
0.00373634
0.00373386
0.00373306
0.00373243
0.0037345
0.00373553
0.00372126
0.00370107
0.0036932
0.00369354
0.00369759
0.00370309
0.00370109
0.00368401
0.00363153
0.00351006
0.00329655
0.0030424
0.00288513
0.00283249
0.00282441
0.00283672
0.00288125
0.00348909
0.00363794
0.00371167
0.00373736
0.00375672
0.00377676
0.00378196
0.00377909
0.0037667
0.00375424
0.0037431
0.00373372
0.00372516
0.00371007
0.00368742
0.00366552
0.00365658
0.00365928
0.00367528
0.00368439
0.00370211
0.00370958
0.00370742
0.0036842
0.00360869
0.00345169
0.00326837
0.0031097
0.00303176
0.00299934
0.00296549
0.00294853
0.00294651
0.0034278
0.00348903
0.00364121
0.00371391
0.00374072
0.00376307
0.00377742
0.00377817
0.00376624
0.0037498
0.00373068
0.00370646
0.00367228
0.0036461
0.00363216
0.00362921
0.00364591
0.00366086
0.00368087
0.00370095
0.00373541
0.00374604
0.00374277
0.00369104
0.00357841
0.00343808
0.00331289
0.00325807
0.00323273
0.00320969
0.00316171
0.00309629
0.0030556
0.00343259
0.00342958
0.00351243
0.00366007
0.00372724
0.00375177
0.00376129
0.00376267
0.00374811
0.00371708
0.00367711
0.00364083
0.00362146
0.00361515
0.00361388
0.00363358
0.0036533
0.00368029
0.00371885
0.00377857
0.00379892
0.00379774
0.00374977
0.00366515
0.00353793
0.00340143
0.00329329
0.00323331
0.00319791
0.0031645
0.00314104
0.00312234
0.00310344
0.00345896
0.00341178
0.00343812
0.00356133
0.00370054
0.00374417
0.00375294
0.00374895
0.00372093
0.00367383
0.00362917
0.00360964
0.00360427
0.00360514
0.00362385
0.00365213
0.00368804
0.00375365
0.0038216
0.00383578
0.00383416
0.00378881
0.00371161
0.00357457
0.00339617
0.00319705
0.00302448
0.0029032
0.00280921
0.00277053
0.00275783
0.00276891
0.00285673
0.00350414
0.00340303
0.00339755
0.00347112
0.00363955
0.00372746
0.0037411
0.00373375
0.00369385
0.00363673
0.00360852
0.00360153
0.00360115
0.00361793
0.00365456
0.00370593
0.00380065
0.00385229
0.00386261
0.00385492
0.00381036
0.00371372
0.00352465
0.00320535
0.00286207
0.0027137
0.00261048
0.00256261
0.00252348
0.00251075
0.00250944
0.00252927
0.00257938
0.00350519
0.00338492
0.00336709
0.00341168
0.00355717
0.00369916
0.00373093
0.00372731
0.00367803
0.00362499
0.00360785
0.00360447
0.00361414
0.00365597
0.00372895
0.00384069
0.00387772
0.00388674
0.00386713
0.00381649
0.00368616
0.00342566
0.00295883
0.00272682
0.00264921
0.00260521
0.00259735
0.00259436
0.00261073
0.00263464
0.00264012
0.00261463
0.00257532
0.00348496
0.00337391
0.00335764
0.00339196
0.00351509
0.00367406
0.00371734
0.00371656
0.00366644
0.00362475
0.00361538
0.0036174
0.00365377
0.00374654
0.00386658
0.00390382
0.00391058
0.0038829
0.00382481
0.00366735
0.00330275
0.00284146
0.00272369
0.00265017
0.00264424
0.00264734
0.00272026
0.00286137
0.00294317
0.00297017
0.00297164
0.00292522
0.00283892
0.00346438
0.0033732
0.00336026
0.00339414
0.0035131
0.00366261
0.00370258
0.0037029
0.00365963
0.00363252
0.00363036
0.00365194
0.00374087
0.00387578
0.00392728
0.00393463
0.00390781
0.00383659
0.00365819
0.00324424
0.00287338
0.00270933
0.00268236
0.0026725
0.00271409
0.00286477
0.00306005
0.00312304
0.00313655
0.00311983
0.00304516
0.00300771
0.0029919
0.00347045
0.00338582
0.00337455
0.00340698
0.00352135
0.0036629
0.00369928
0.0036993
0.00366266
0.00364904
0.00365745
0.00371518
0.0038502
0.00394211
0.00395818
0.00394135
0.00386885
0.00369628
0.00328731
0.00288347
0.00274668
0.00270804
0.00270464
0.00276496
0.00297045
0.00316654
0.00321364
0.00321635
0.00314786
0.003062
0.00304231
0.00304197
0.00305343
0.00353149
0.00343974
0.00342294
0.00344517
0.00354362
0.00366798
0.00369981
0.00369957
0.00367614
0.00367277
0.00369691
0.0037906
0.00392988
0.00397336
0.00397289
0.00391639
0.00375868
0.00339102
0.00296051
0.0027867
0.00274051
0.00273383
0.00279652
0.00301409
0.00322009
0.00326349
0.00325607
0.00315562
0.00307598
0.00306402
0.00308318
0.00315334
0.00322836
0.00362417
0.00355178
0.00353445
0.00354118
0.00359948
0.00368156
0.00370323
0.00370356
0.00369188
0.00369603
0.00373962
0.00386177
0.00397014
0.00399018
0.00396226
0.00384408
0.00354373
0.00311659
0.00286021
0.00278309
0.00276691
0.0028124
0.00301278
0.00323962
0.00328919
0.0032782
0.00316934
0.00310356
0.00310066
0.00316064
0.00329092
0.00338691
0.00344692
0.00366994
0.00363222
0.00362328
0.00362795
0.00365945
0.00369901
0.00370872
0.00370692
0.0036996
0.00371199
0.00377372
0.0039111
0.00398317
0.00398764
0.00392791
0.0037149
0.00336359
0.00300125
0.00285369
0.00281439
0.00283611
0.0029914
0.00323907
0.00330167
0.00329706
0.00319674
0.00313342
0.00313297
0.00320674
0.00334611
0.00341372
0.00345604
0.00352455
0.0036816
0.00366847
0.00366556
0.00367029
0.00368632
0.00370376
0.00370851
0.00370701
0.00370641
0.00372984
0.00380317
0.00393343
0.00398081
0.00397505
0.00386749
0.00361662
0.00326238
0.00298586
0.00288916
0.00288468
0.0029821
0.00322841
0.00330933
0.00331388
0.00323294
0.00316633
0.00316408
0.00323506
0.00334713
0.00338945
0.00342361
0.00349254
0.00356064
0.00365639
0.00366383
0.00366647
0.00367359
0.00368564
0.0036992
0.00370296
0.00370223
0.00370486
0.00373479
0.00381989
0.00393463
0.0039707
0.00394975
0.00382334
0.00356659
0.00323152
0.0030204
0.00298584
0.00302649
0.00321793
0.00331684
0.00333033
0.00326853
0.00319386
0.0031856
0.00323635
0.0033215
0.00335153
0.00337562
0.00342839
0.00349015
0.0035658
0.00356243
0.0036116
0.00364703
0.00366086
0.00367179
0.00367805
0.00368015
0.00368314
0.00369582
0.00373172
0.00381812
0.00392406
0.00395058
0.00392465
0.00379668
0.00355264
0.00325552
0.0031479
0.00314094
0.0032284
0.0033325
0.00335294
0.00330217
0.00321863
0.00320072
0.00322483
0.00328747
0.00330993
0.0033196
0.00334117
0.00338566
0.00344797
0.00352131
0.00343083
0.00345962
0.00354435
0.0036045
0.00362558
0.00362965
0.00362855
0.00363763
0.00366783
0.00371828
0.0038087
0.00389994
0.00392031
0.00389638
0.00378301
0.00356091
0.00336209
0.00330855
0.00331368
0.00336845
0.00338974
0.00333831
0.00325085
0.00321649
0.00321924
0.00326264
0.00327939
0.00328362
0.00329019
0.00331468
0.00334976
0.00339232
0.00344799
0.00332834
0.00331685
0.00335032
0.00343195
0.00350871
0.00355515
0.00358594
0.00360363
0.00362989
0.00368375
0.00377829
0.00386545
0.00388758
0.00387541
0.00379195
0.00361535
0.00348487
0.00344549
0.00344091
0.00344119
0.00338327
0.00329624
0.00323683
0.00322874
0.00325282
0.00327607
0.00328157
0.00328532
0.00329735
0.00332154
0.00334652
0.00337873
0.00341921
0.00330123
0.00323222
0.0032272
0.00326275
0.003338
0.00342609
0.00350672
0.00356557
0.00360341
0.00364766
0.00373146
0.00383097
0.00386569
0.00386608
0.00381046
0.00370461
0.0036004
0.00354229
0.00350556
0.00344158
0.00335104
0.00326611
0.00324755
0.00325334
0.00328239
0.00329125
0.00329503
0.00330451
0.00332626
0.00334686
0.00336418
0.00339023
0.00341845
0.00339161
0.00321494
0.00316865
0.00316754
0.00320446
0.00328127
0.00337961
0.00348025
0.00356194
0.00362167
0.00369871
0.00380156
0.00384605
0.00385047
0.0038255
0.0037584
0.00367646
0.00359672
0.00351343
0.00341959
0.00330863
0.00327091
0.00326643
0.00328987
0.00331456
0.0033246
0.00333859
0.00336715
0.00339399
0.00340675
0.00341788
0.0034308
0.00344715
0.0035841
0.00330731
0.00316792
0.00313557
0.00313677
0.0031739
0.00325094
0.00335387
0.00346696
0.00357147
0.00366621
0.00377214
0.00382624
0.00383991
0.0038251
0.00377511
0.00370014
0.00360534
0.0035001
0.00336723
0.0033021
0.00328579
0.0032922
0.00333814
0.00337994
0.0034058
0.0034672
0.00353165
0.0035599
0.0035691
0.0035656
0.00354345
0.00353676
0.0037322
0.00356966
0.00327371
0.0031508
0.00312672
0.00313018
0.00316538
0.00323872
0.00334125
0.0034631
0.00359294
0.00371863
0.00379849
0.00381284
0.00381166
0.00376966
0.00369418
0.00358882
0.00344541
0.00334602
0.00331405
0.00331244
0.0033465
0.0034303
0.00352159
0.00364513
0.00386846
0.00397846
0.00402269
0.00403446
0.00397798
0.0038656
0.00378299
0.00377804
0.00377388
0.00359743
0.00329016
0.00316014
0.0031353
0.00314155
0.00317528
0.00324226
0.00334011
0.00346277
0.00360157
0.00370561
0.00374426
0.00374901
0.00372304
0.00364425
0.00351786
0.0034014
0.00335187
0.0033411
0.00335959
0.00345498
0.00362684
0.00386996
0.0041908
0.0043911
0.00447394
0.00450369
0.00450809
0.00443662
0.00436141
0.00424239
0.00367336
0.00382051
0.00382725
0.00367092
0.00335939
0.00320061
0.00316292
0.00316919
0.00320323
0.00326326
0.00335083
0.00345784
0.00355442
0.00359657
0.00360726
0.00359899
0.00354382
0.00346421
0.00339974
0.00337547
0.00337988
0.00347022
0.00369018
0.00402366
0.00434956
0.00462525
0.00473286
0.00476891
0.00477497
0.00470781
0.00461619
0.00451606
0.00440727
0.0033399
0.0036575
0.00385857
0.00388602
0.00377392
0.00349773
0.00328689
0.00321646
0.00321419
0.00324812
0.00330365
0.00337479
0.00344664
0.00349095
0.00350838
0.00351101
0.00349184
0.00344889
0.00341355
0.00340847
0.00347946
0.00368987
0.00405865
0.00441049
0.00474001
0.00488951
0.00493591
0.00494321
0.00487166
0.00476021
0.00464983
0.0045364
0.0044218
0.00322174
0.00331363
0.0036196
0.00388742
0.0039415
0.00388279
0.00368259
0.00343935
0.00331199
0.00328561
0.00331036
0.00336004
0.00341162
0.00344936
0.00347131
0.00348212
0.0034806
0.00345773
0.0034476
0.0035008
0.00367612
0.00402821
0.00440594
0.00474511
0.00497273
0.00504856
0.00506245
0.00500772
0.00488013
0.00472604
0.0044992
0.00424119
0.00412061
0.00323818
0.00324538
0.00329836
0.00358473
0.00390564
0.00398572
0.00397709
0.0038778
0.00366763
0.00347855
0.00340196
0.00339783
0.00342566
0.00345439
0.00347314
0.00348703
0.00349323
0.00349466
0.00353369
0.00369038
0.00399008
0.00434769
0.00469257
0.00498072
0.00511233
0.00514445
0.00512448
0.00502207
0.00486875
0.00464273
0.00429069
0.00394737
0.00370632
0.00325484
0.0032733
0.00327911
0.00329267
0.00354984
0.0038941
0.0040129
0.00405584
0.0040304
0.00391265
0.00373819
0.00359759
0.00353906
0.00352396
0.00352401
0.00353463
0.00355863
0.00360684
0.00374147
0.0039834
0.00428496
0.00460786
0.00490414
0.00511511
0.00519245
0.00520461
0.00514833
0.00503084
0.00484314
0.00450802
0.00397559
0.00360633
0.00341676
0.0032531
0.00326165
0.00329474
0.00329378
0.00331399
0.00349846
0.00383957
0.00403576
0.00411218
0.00414377
0.00411161
0.004023
0.00389748
0.00379599
0.00373951
0.00372621
0.00377401
0.00388747
0.00406084
0.00428913
0.00455572
0.00482355
0.0050557
0.00520216
0.00524589
0.00523097
0.00516005
0.00503371
0.00479583
0.00419897
0.00363581
0.0033614
0.00323083
0.00339876
0.00332476
0.00329934
0.0033249
0.00331075
0.0033364
0.003452
0.00375192
0.00403974
0.00415376
0.00422351
0.00425978
0.00424655
0.00420129
0.00415151
0.00412476
0.00415206
0.00424015
0.00437994
0.00456684
0.0047802
0.0049856
0.00515052
0.00524322
0.00525979
0.00523558
0.00516271
0.00501309
0.00459582
0.00381411
0.00344362
0.0032371
0.00309019
0.00357047
0.00355195
0.00342283
0.00334666
0.00334287
0.0033352
0.00335174
0.00343133
0.00366277
0.00400734
0.00419083
0.0042881
0.00436105
0.00441061
0.00443365
0.00444542
0.00447535
0.00454379
0.00465048
0.00479046
0.00494483
0.00508611
0.00519138
0.00524863
0.00525705
0.00523189
0.00514876
0.00491261
0.00417744
0.00365352
0.0033386
0.0030065
0.00275324
0.00360388
0.0036446
0.00365061
0.00352903
0.00339897
0.00337193
0.00335774
0.00336609
0.00341806
0.00358333
0.00392905
0.00420776
0.00434412
0.00443783
0.00451827
0.00458771
0.00464685
0.00471798
0.00480568
0.00490985
0.00501952
0.00511683
0.00519437
0.00524333
0.00524408
0.00520978
0.00508988
0.00460885
0.00392716
0.00358819
0.00307289
0.00257331
0.00235765
0.00357527
0.00365361
0.00370073
0.00370802
0.00363544
0.0034752
0.00341308
0.0033812
0.003379
0.00340962
0.00352951
0.00382619
0.00418497
0.00438078
0.00450397
0.00459985
0.00468398
0.0047668
0.0048496
0.00493729
0.00502834
0.00511424
0.00518553
0.00521815
0.00520633
0.00514684
0.00491881
0.00426932
0.00384713
0.00342064
0.00271956
0.00232962
0.0022229
0.00353451
0.00359994
0.00369765
0.0037409
0.003746
0.00370479
0.00355993
0.00346185
0.00340261
0.00338726
0.00340429
0.00349165
0.00371619
0.00410128
0.00437882
0.00454898
0.00466408
0.00475966
0.00484578
0.00493274
0.00501809
0.00509395
0.00514173
0.00514354
0.00510816
0.00499801
0.00462286
0.00410599
0.00376628
0.00306479
0.00245581
0.00223831
0.00220915
0.00350461
0.00355129
0.00366011
0.00373687
0.00376848
0.00376798
0.0037375
0.0036232
0.00351656
0.0034199
0.00339135
0.00339722
0.00345777
0.00362582
0.00396896
0.00432211
0.0045464
0.00470047
0.00480936
0.00489425
0.00497049
0.00501864
0.0050255
0.00500518
0.00495152
0.00479527
0.00436937
0.00402988
0.00354792
0.00277409
0.00235729
0.00224002
0.00223944
0.00348777
0.00353634
0.0036457
0.00372531
0.00377045
0.00378219
0.00377897
0.0037511
0.0036552
0.00355076
0.00342856
0.00339117
0.00338759
0.00343126
0.00356731
0.00383958
0.0041836
0.00447707
0.00466889
0.00479577
0.00486477
0.00488226
0.00487814
0.00485315
0.00478258
0.00455971
0.00418674
0.00390749
0.00328323
0.00262747
0.00234682
0.00229385
0.00235741
0.00347877
0.00353394
0.00364517
0.00372429
0.00377038
0.00378599
0.00378722
0.00378225
0.00375226
0.00366894
0.00356664
0.00342829
0.00338857
0.00337814
0.00341132
0.00352057
0.00374484
0.00403394
0.00431124
0.00451339
0.00464021
0.00468694
0.0046851
0.00466434
0.00458387
0.00433216
0.00406119
0.00376315
0.00309101
0.00257587
0.00239074
0.00244614
0.0026658
0.00347698
0.00356588
0.00367669
0.00375395
0.00378861
0.00379482
0.0037926
0.00378595
0.00377122
0.00373418
0.00366094
0.00357152
0.00341885
0.00338417
0.00337096
0.00339683
0.00348614
0.00366474
0.0039036
0.0041317
0.00431986
0.00441881
0.00443357
0.00441933
0.00434594
0.00413234
0.00394298
0.00362367
0.00297848
0.00257812
0.00252286
0.0026759
0.00294235
0.00350462
0.00363206
0.00373254
0.00381049
0.00383472
0.00383284
0.00382315
0.00379762
0.00377239
0.00375231
0.00371482
0.00364932
0.00356576
0.00340489
0.00337564
0.0033664
0.00338851
0.00346067
0.00360451
0.00380094
0.00398481
0.00410936
0.0041464
0.00414065
0.00409277
0.00395685
0.00380864
0.00347908
0.00291784
0.0026299
0.00263567
0.0028007
0.00307057
0.00358612
0.00373444
0.00381184
0.00389957
0.00392131
0.00391301
0.00388984
0.00384126
0.00378298
0.00375325
0.0037292
0.00369144
0.00364033
0.00354507
0.00340155
0.00336787
0.00336144
0.00337815
0.00343648
0.00356193
0.00371552
0.00383176
0.00388225
0.00388177
0.00386025
0.00379311
0.00367181
0.00335911
0.00290205
0.00269679
0.00270047
0.00282493
0.00308561
0.00373258
0.00386612
0.00393754
0.00403942
0.00407634
0.00406283
0.00402473
0.00394583
0.00383182
0.0037661
0.00373274
0.00371388
0.00367673
0.00363115
0.00351159
0.0034018
0.00337176
0.00336678
0.00337823
0.00342658
0.00352425
0.00361671
0.00366551
0.00367567
0.00366936
0.00364164
0.00355972
0.0033084
0.00291432
0.00275309
0.00274837
0.00282857
0.0030558
0.0039035
0.00402904
0.00412459
0.00423284
0.00429673
0.00428712
0.00424553
0.00414646
0.00395393
0.0038112
0.00374619
0.00372314
0.00370037
0.00367605
0.00362742
0.00349917
0.00339067
0.00336943
0.0033729
0.00338346
0.00342073
0.00347789
0.00351438
0.00352591
0.00352361
0.00351267
0.00346458
0.00329902
0.00295921
0.0028194
0.00281203
0.00286013
0.00305322
0.00408341
0.00416805
0.0042401
0.00432719
0.00440012
0.00441572
0.00440478
0.00434906
0.00417963
0.00392603
0.00378273
0.00373699
0.00371558
0.00370098
0.00368135
0.00361551
0.00347768
0.00340379
0.00338155
0.0033853
0.00339645
0.00341495
0.0034301
0.00344059
0.00344624
0.00344499
0.0034282
0.00330823
0.00305049
0.00294589
0.00294123
0.00297943
0.00313656
0.0041453
0.00419618
0.00425696
0.00434671
0.00442904
0.00446164
0.00446063
0.00442941
0.00430027
0.00403939
0.00384585
0.00376031
0.00373212
0.00372122
0.00371449
0.00368537
0.00362404
0.0034709
0.0034152
0.00340091
0.0034039
0.00341603
0.00342114
0.00342823
0.00344064
0.00344867
0.00343656
0.00335534
0.00319606
0.00315007
0.00315769
0.00321269
0.0033472
0.00413597
0.00416255
0.00421944
0.00434178
0.00443585
0.00447449
0.00447623
0.0044394
0.00428411
0.00403558
0.00386049
0.00377281
0.00374486
0.00374172
0.00374155
0.00373546
0.00370725
0.00360837
0.00348827
0.00344482
0.00343462
0.00343342
0.00343586
0.00344368
0.00345802
0.00346935
0.0034681
0.00343768
0.00337677
0.00336361
0.00337534
0.00342879
0.00346774
0.00398814
0.00399701
0.00410783
0.00429641
0.00442095
0.00446292
0.00445604
0.00437686
0.00417122
0.00398612
0.00384636
0.00377143
0.00375474
0.00375846
0.00376925
0.00377442
0.00376906
0.00373066
0.00362058
0.00352922
0.00349383
0.00348227
0.00348221
0.00348911
0.00350665
0.00353051
0.00354397
0.00353771
0.00352435
0.0035208
0.00353282
0.00353539
0.00352303
0.00367156
0.00376344
0.00407552
0.00428006
0.00437896
0.00440027
0.00434985
0.00414155
0.00395247
0.00386001
0.00379473
0.00376315
0.00376376
0.00377202
0.00379308
0.00381003
0.00381641
0.00380871
0.00376081
0.00365571
0.00359452
0.00356925
0.00356438
0.00356901
0.00358012
0.00359808
0.00361106
0.00361023
0.00360935
0.00360531
0.00359559
0.00356386
0.00345002
0.00339805
0.00366554
0.00406999
0.00422463
0.00425989
0.00424642
0.00405856
0.00386206
0.00379464
0.00377155
0.00375956
0.00376048
0.00377148
0.00379366
0.00382399
0.00385055
0.003871
0.00387922
0.00386763
0.00380992
0.00372761
0.00367278
0.00364437
0.00364407
0.00364867
0.00366552
0.0036776
0.00367621
0.00366881
0.00363965
0.00355853
0.00335318
0.0031807
0.00326719
0.00357528
0.00389828
0.00402269
0.00406089
0.00404431
0.00390458
0.00379232
0.00375764
0.00375296
0.00375544
0.00376871
0.0037876
0.00381665
0.00384774
0.00387745
0.00390223
0.00392222
0.00392792
0.00391155
0.00385949
0.00381792
0.00379528
0.00378989
0.0037858
0.00377695
0.00375358
0.00370869
0.00360315
0.00338923
0.00328773
0.00329194
0.00334544
0.00315001
0.00327155
0.0035145
0.00373368
0.00384585
0.00388395
0.00387162
0.00381073
0.0037911
0.00378424
0.00378382
0.00380052
0.00382407
0.00385603
0.00388995
0.00392353
0.00395662
0.00398698
0.00400907
0.00401286
0.00400055
0.00396522
0.00392141
0.00388694
0.00381344
0.00374511
0.00356932
0.00346426
0.00350503
0.00363577
0.00388047
0.00429783
0.00465925
0.00311361
0.00314808
0.00321867
0.00331172
0.00342185
0.00357682
0.00369164
0.00376959
0.00381247
0.00383752
0.00385794
0.00387419
0.00389435
0.00391915
0.00394342
0.00397089
0.00399461
0.00401502
0.00402885