/*--------------------------------*- C++ -*----------------------------------*\
  =========                 |
  \\      /  F ield         | OpenFOAM: The Open Source CFD Toolbox
   \\    /   O peration     | Website:  https://openfoam.org
    \\  /    A nd           | Version:  10
     \\/     M anipulation  |
\*---------------------------------------------------------------------------*/
FoamFile
{
    format      ascii;
    class       volVectorField;
    location    "0.84941";
    object      U;
}
// * * * * * * * * * * * * * * * * * * * * * * * * * * * * * * * * * * * * * //

dimensions      [0 1 -1 0 0 0 0];

internalField   nonuniform List<vector> 
16320
(
(0.464444 -0.160309 0)
(0.491948 -0.152784 0)
(0.517763 -0.144254 0)
(0.54154 -0.13496 0)
(0.563042 -0.125217 0)
(0.581852 -0.115415 0)
(0.597658 -0.105905 0)
(0.610367 -0.0969264 0)
(0.61985 -0.0888264 0)
(0.626035 -0.0819275 0)
(0.628913 -0.0766438 0)
(0.628735 -0.0732395 0)
(0.625779 -0.0718873 0)
(0.620272 -0.072847 0)
(0.612481 -0.0763274 0)
(0.602775 -0.0824028 0)
(0.591682 -0.090725 0)
(0.579863 -0.100495 0)
(0.568081 -0.11044 0)
(0.55618 -0.11887 0)
(0.544798 -0.124563 0)
(0.535908 -0.125755 0)
(0.528075 -0.121288 0)
(0.519451 -0.11134 0)
(0.510736 -0.0961298 0)
(0.501426 -0.0756042 0)
(0.491096 -0.0510141 0)
(0.479254 -0.0231216 0)
(0.464115 0.00704594 0)
(0.446601 0.0386018 0)
(0.427922 0.0701547 0)
(0.407537 0.100839 0)
(0.384202 0.130305 0)
(0.474617 -0.164498 0)
(0.502524 -0.155244 0)
(0.528592 -0.144906 0)
(0.552424 -0.133655 0)
(0.57356 -0.121858 0)
(0.591675 -0.109958 0)
(0.606529 -0.0982647 0)
(0.617935 -0.0872019 0)
(0.625926 -0.0771495 0)
(0.630408 -0.0684639 0)
(0.631379 -0.0614885 0)
(0.62917 -0.0563834 0)
(0.624003 -0.053442 0)
(0.616207 -0.0531576 0)
(0.606093 -0.0552969 0)
(0.593949 -0.0603509 0)
(0.580283 -0.0681309 0)
(0.56573 -0.0779766 0)
(0.551132 -0.0885779 0)
(0.536211 -0.0982133 0)
(0.521816 -0.105135 0)
(0.51045 -0.107599 0)
(0.500327 -0.104344 0)
(0.489276 -0.0954213 0)
(0.478367 -0.0809921 0)
(0.466843 -0.0612131 0)
(0.454305 -0.0373368 0)
(0.440916 -0.0102984 0)
(0.425494 0.018407 0)
(0.408728 0.0478494 0)
(0.391255 0.0774159 0)
(0.372491 0.10595 0)
(0.351776 0.133006 0)
(0.480772 -0.169359 0)
(0.508904 -0.158285 0)
(0.534981 -0.145924 0)
(0.558565 -0.13257 0)
(0.579169 -0.118547 0)
(0.596444 -0.104355 0)
(0.610168 -0.0904292 0)
(0.620241 -0.0771935 0)
(0.626685 -0.0650537 0)
(0.629487 -0.0544234 0)
(0.628835 -0.0456089 0)
(0.624967 -0.0387789 0)
(0.617764 -0.0342231 0)
(0.608063 -0.0322215 0)
(0.596099 -0.0330983 0)
(0.581743 -0.0366506 0)
(0.565743 -0.0437183 0)
(0.548705 -0.0535093 0)
(0.531456 -0.0647605 0)
(0.513825 -0.0756851 0)
(0.496795 -0.0839316 0)
(0.483158 -0.0876177 0)
(0.470933 -0.085571 0)
(0.457651 -0.0777636 0)
(0.444684 -0.0642824 0)
(0.43104 -0.045544 0)
(0.416588 -0.0226488 0)
(0.402159 0.0029743 0)
(0.387052 0.0295588 0)
(0.371412 0.0567383 0)
(0.35572 0.083736 0)
(0.339342 0.109691 0)
(0.32161 0.134157 0)
(0.483419 -0.174586 0)
(0.511919 -0.161404 0)
(0.538098 -0.146674 0)
(0.561499 -0.130817 0)
(0.58152 -0.114414 0)
(0.59778 -0.0979229 0)
(0.610184 -0.0817823 0)
(0.618638 -0.0664567 0)
(0.623252 -0.0523098 0)
(0.624077 -0.0397841 0)
(0.621441 -0.0291287 0)
(0.615732 -0.0207396 0)
(0.607021 -0.0147481 0)
(0.595513 -0.0112085 0)
(0.582052 -0.0110176 0)
(0.566046 -0.0139663 0)
(0.547629 -0.0194275 0)
(0.52821 -0.0286362 0)
(0.508418 -0.0399769 0)
(0.488439 -0.0515841 0)
(0.469418 -0.0610884 0)
(0.454029 -0.06589 0)
(0.439899 -0.0650795 0)
(0.424568 -0.0584798 0)
(0.409724 -0.0461175 0)
(0.394411 -0.0288618 0)
(0.378785 -0.00750032 0)
(0.36427 0.0159264 0)
(0.34996 0.0400766 0)
(0.335954 0.0648078 0)
(0.322455 0.0891473 0)
(0.30893 0.112219 0)
(0.294829 0.133675 0)
(0.484492 -0.178915 0)
(0.513451 -0.163693 0)
(0.539552 -0.146679 0)
(0.562198 -0.128362 0)
(0.580966 -0.109478 0)
(0.59579 -0.0905039 0)
(0.606494 -0.0720417 0)
(0.613098 -0.0545767 0)
(0.615718 -0.0385337 0)
(0.614526 -0.0243286 0)
(0.609743 -0.0120689 0)
(0.601515 -0.0016904 0)
(0.590163 0.00653493 0)
(0.575947 0.0119075 0)
(0.559576 0.0137471 0)
(0.542336 0.0115417 0)
(0.522977 0.00654565 0)
(0.501893 -0.0032352 0)
(0.481273 -0.0158493 0)
(0.45975 -0.028232 0)
(0.439145 -0.0386581 0)
(0.422384 -0.044181 0)
(0.406511 -0.0443092 0)
(0.38958 -0.0386943 0)
(0.3735 -0.0274527 0)
(0.357563 -0.0120855 0)
(0.342145 0.00698601 0)
(0.328431 0.0277158 0)
(0.315387 0.0493875 0)
(0.303452 0.0714777 0)
(0.292547 0.0929421 0)
(0.282193 0.112995 0)
(0.271737 0.131296 0)
(0.480885 -0.184546 0)
(0.509385 -0.167084 0)
(0.534967 -0.14747 0)
(0.556923 -0.126379 0)
(0.574738 -0.104504 0)
(0.588228 -0.0826863 0)
(0.597328 -0.0616041 0)
(0.602105 -0.0418094 0)
(0.602703 -0.0237959 0)
(0.599211 -0.00752699 0)
(0.591662 0.00710835 0)
(0.580921 0.0196771 0)
(0.567145 0.0294165 0)
(0.550527 0.0357504 0)
(0.532133 0.0383472 0)
(0.513399 0.0370836 0)
(0.4925 0.0320161 0)
(0.469026 0.0231423 0)
(0.446122 0.0107879 0)
(0.423233 -0.00246924 0)
(0.401911 -0.0143743 0)
(0.384756 -0.0208832 0)
(0.368395 -0.0224153 0)
(0.351772 -0.0185512 0)
(0.336409 -0.00922927 0)
(0.32165 0.00361244 0)
(0.307952 0.0199319 0)
(0.295467 0.0380116 0)
(0.284235 0.0571144 0)
(0.274741 0.0763341 0)
(0.266737 0.0946651 0)
(0.259575 0.111418 0)
(0.252652 0.12646 0)
(0.470772 -0.191753 0)
(0.499674 -0.171122 0)
(0.525299 -0.148068 0)
(0.54683 -0.123459 0)
(0.563642 -0.0982788 0)
(0.575574 -0.0735189 0)
(0.582749 -0.0498986 0)
(0.58535 -0.0279413 0)
(0.58338 -0.00766475 0)
(0.576947 0.0110099 0)
(0.567324 0.0275405 0)
(0.554691 0.0416908 0)
(0.538885 0.0525477 0)
(0.520511 0.0599219 0)
(0.500738 0.0635088 0)
(0.481052 0.0628862 0)
(0.4595 0.0579363 0)
(0.435124 0.0487072 0)
(0.41141 0.0355804 0)
(0.387306 0.0215088 0)
(0.365607 0.00882244 0)
(0.349301 0.000803167 0)
(0.333487 -0.00284796 0)
(0.318123 -0.00100229 0)
(0.303817 0.00618541 0)
(0.290015 0.0170677 0)
(0.277485 0.0311142 0)
(0.266406 0.0467191 0)
(0.257333 0.0630707 0)
(0.250475 0.0790876 0)
(0.245296 0.0939073 0)
(0.241344 0.107211 0)
(0.238272 0.1189 0)
(0.456761 -0.198256 0)
(0.486365 -0.174444 0)
(0.512271 -0.14787 0)
(0.533449 -0.119574 0)
(0.549104 -0.0908387 0)
(0.559085 -0.0629209 0)
(0.563788 -0.036676 0)
(0.563412 -0.012235 0)
(0.557978 0.0105005 0)
(0.54913 0.0308375 0)
(0.537556 0.0490492 0)
(0.522973 0.0643625 0)
(0.505505 0.0761652 0)
(0.485996 0.0844525 0)
(0.465408 0.0888304 0)
(0.445353 0.0886851 0)
(0.423755 0.0838189 0)
(0.399326 0.0741365 0)
(0.376001 0.0604074 0)
(0.352704 0.044992 0)
(0.332413 0.0309621 0)
(0.317066 0.0211476 0)
(0.301816 0.0155787 0)
(0.287428 0.0155928 0)
(0.27397 0.0205728 0)
(0.261125 0.0295515 0)
(0.250072 0.0410104 0)
(0.241148 0.0538834 0)
(0.234717 0.0670006 0)
(0.23056 0.0793857 0)
(0.228424 0.0906115 0)
(0.228005 0.100449 0)
(0.228804 0.108527 0)
(0.439147 -0.205657 0)
(0.470009 -0.178747 0)
(0.496909 -0.148387 0)
(0.518271 -0.115829 0)
(0.532923 -0.0828995 0)
(0.540673 -0.05121 0)
(0.542099 -0.021491 0)
(0.537326 0.00607069 0)
(0.52826 0.0305923 0)
(0.516599 0.0523702 0)
(0.502701 0.0715286 0)
(0.486007 0.0873994 0)
(0.467156 0.0998894 0)
(0.446951 0.108767 0)
(0.426063 0.113592 0)
(0.406203 0.113636 0)
(0.385068 0.108567 0)
(0.361346 0.0980564 0)
(0.339202 0.0833896 0)
(0.31737 0.0664521 0)
(0.299181 0.051034 0)
(0.28539 0.0395484 0)
(0.271195 0.032354 0)
(0.258055 0.0305944 0)
(0.245866 0.033696 0)
(0.234612 0.0403925 0)
(0.225771 0.0492682 0)
(0.21963 0.0590245 0)
(0.216045 0.0685793 0)
(0.21498 0.0773541 0)
(0.216202 0.0850318 0)
(0.219288 0.0911784 0)
(0.223705 0.0953405 0)
(0.41747 -0.214402 0)
(0.449948 -0.183691 0)
(0.478371 -0.148685 0)
(0.5004 -0.110971 0)
(0.514649 -0.0728509 0)
(0.521105 -0.0366324 0)
(0.518962 -0.00293623 0)
(0.509387 0.0270986 0)
(0.495732 0.052577 0)
(0.480193 0.0754473 0)
(0.462954 0.0947446 0)
(0.443955 0.11076 0)
(0.423938 0.123552 0)
(0.403319 0.132619 0)
(0.382592 0.137454 0)
(0.363494 0.137307 0)
(0.343256 0.13164 0)
(0.32092 0.12001 0)
(0.300742 0.10411 0)
(0.281115 0.0856584 0)
(0.265633 0.0692546 0)
(0.253714 0.0563109 0)
(0.241038 0.0477217 0)
(0.229734 0.0442919 0)
(0.219399 0.0453879 0)
(0.210437 0.0496106 0)
(0.204522 0.0556063 0)
(0.201477 0.0619988 0)
(0.201164 0.0680367 0)
(0.203454 0.0732206 0)
(0.208019 0.0770279 0)
(0.214326 0.0790604 0)
(0.221853 0.0792305 0)
(0.388779 -0.225251 0)
(0.421324 -0.191134 0)
(0.449535 -0.151166 0)
(0.471427 -0.10739 0)
(0.485401 -0.0626146 0)
(0.490979 -0.0198902 0)
(0.48656 0.0188345 0)
(0.473656 0.052206 0)
(0.456784 0.0798395 0)
(0.438 0.101961 0)
(0.417407 0.120112 0)
(0.396559 0.13527 0)
(0.375755 0.147437 0)
(0.355149 0.155958 0)
(0.335149 0.160219 0)
(0.31743 0.159384 0)
(0.298583 0.152583 0)
(0.278315 0.139698 0)
(0.260764 0.122377 0)
(0.244235 0.102486 0)
(0.23198 0.0854407 0)
(0.222101 0.0712597 0)
(0.211554 0.0615194 0)
(0.202664 0.0565776 0)
(0.194847 0.0554398 0)
(0.188796 0.0570368 0)
(0.186185 0.0598966 0)
(0.186589 0.0628702 0)
(0.189706 0.0651882 0)
(0.195235 0.066323 0)
(0.202809 0.0661529 0)
(0.212264 0.0644286 0)
(0.222581 0.061138 0)
(0.345962 -0.239049 0)
(0.376592 -0.201933 0)
(0.403827 -0.156999 0)
(0.425117 -0.106667 0)
(0.438494 -0.0548391 0)
(0.442002 -0.00509888 0)
(0.435951 0.0396094 0)
(0.422845 0.0773205 0)
(0.404368 0.108355 0)
(0.3837 0.130489 0)
(0.362986 0.146807 0)
(0.342281 0.160417 0)
(0.322071 0.171024 0)
(0.302479 0.178399 0)
(0.284112 0.181592 0)
(0.268417 0.179676 0)
(0.251589 0.17118 0)
(0.23428 0.156875 0)
(0.219894 0.138082 0)
(0.207306 0.117034 0)
(0.198664 0.0994341 0)
(0.190975 0.0842267 0)
(0.183149 0.0735333 0)
(0.177212 0.0672644 0)
(0.172589 0.0637756 0)
(0.169929 0.0624711 0)
(0.17076 0.0618834 0)
(0.174548 0.0611625 0)
(0.180844 0.0598643 0)
(0.189578 0.0577122 0)
(0.200342 0.0544426 0)
(0.212621 0.0499545 0)
(0.225816 0.0439363 0)
(0.290042 -0.252457 0)
(0.317097 -0.211473 0)
(0.341928 -0.16152 0)
(0.361953 -0.104712 0)
(0.374931 -0.0454923 0)
(0.376695 0.0112103 0)
(0.369629 0.061321 0)
(0.356488 0.102832 0)
(0.338476 0.135143 0)
(0.317657 0.157636 0)
(0.298733 0.17264 0)
(0.280989 0.184258 0)
(0.263182 0.193131 0)
(0.246065 0.19912 0)
(0.230413 0.201002 0)
(0.217304 0.197823 0)
(0.20311 0.187202 0)
(0.189831 0.171369 0)
(0.179152 0.151071 0)
(0.171084 0.129579 0)
(0.166116 0.111162 0)
(0.160863 0.0952452 0)
(0.156263 0.0836799 0)
(0.15363 0.0760314 0)
(0.15262 0.0704796 0)
(0.15362 0.0661679 0)
(0.157785 0.0623888 0)
(0.164999 0.0586734 0)
(0.174758 0.0544882 0)
(0.186515 0.0494114 0)
(0.199803 0.0430765 0)
(0.214147 0.0355724 0)
(0.228785 0.0266369 0)
(0.222866 -0.262207 0)
(0.243045 -0.218358 0)
(0.263012 -0.165357 0)
(0.28018 -0.10386 0)
(0.292582 -0.0377059 0)
(0.294364 0.0263131 0)
(0.288045 0.0818754 0)
(0.276231 0.12645 0)
(0.259776 0.158765 0)
(0.242101 0.180316 0)
(0.228077 0.194989 0)
(0.214814 0.204964 0)
(0.20091 0.212665 0)
(0.187222 0.217282 0)
(0.175374 0.217847 0)
(0.165108 0.213116 0)
(0.154244 0.200493 0)
(0.146028 0.183082 0)
(0.139691 0.161336 0)
(0.136207 0.139942 0)
(0.134678 0.12076 0)
(0.132455 0.104449 0)
(0.13133 0.0920176 0)
(0.132213 0.0828008 0)
(0.134827 0.0752162 0)
(0.139641 0.0684551 0)
(0.147472 0.0620794 0)
(0.15787 0.0554878 0)
(0.170353 0.048186 0)
(0.184538 0.0398979 0)
(0.199941 0.0305767 0)
(0.215939 0.0202164 0)
(0.231763 0.00878542 0)
(0.147219 -0.268979 0)
(0.159438 -0.223578 0)
(0.173506 -0.168856 0)
(0.185749 -0.1046 0)
(0.196063 -0.0327528 0)
(0.198921 0.0383774 0)
(0.194885 0.099077 0)
(0.185884 0.145294 0)
(0.173348 0.176991 0)
(0.162838 0.197973 0)
(0.15537 0.212188 0)
(0.146884 0.221699 0)
(0.137251 0.228719 0)
(0.127655 0.232391 0)
(0.120306 0.231784 0)
(0.113164 0.224957 0)
(0.106698 0.211116 0)
(0.103859 0.191893 0)
(0.102151 0.168987 0)
(0.103169 0.147784 0)
(0.104919 0.128385 0)
(0.106134 0.111894 0)
(0.10868 0.0985779 0)
(0.113149 0.0876829 0)
(0.119395 0.0778865 0)
(0.127878 0.0687364 0)
(0.138959 0.0596457 0)
(0.152206 0.0501136 0)
(0.16723 0.0399494 0)
(0.183585 0.0290283 0)
(0.20063 0.0174348 0)
(0.217578 0.00497935 0)
(0.233718 -0.00784631 0)
(0.0694861 -0.27257 0)
(0.0759281 -0.22566 0)
(0.084057 -0.168891 0)
(0.0893784 -0.102429 0)
(0.0932207 -0.0257948 0)
(0.0994822 0.0521373 0)
(0.0990957 0.114213 0)
(0.0937614 0.158269 0)
(0.0879983 0.188501 0)
(0.0858708 0.209909 0)
(0.084209 0.223914 0)
(0.0797869 0.234033 0)
(0.0742692 0.241081 0)
(0.0694204 0.24423 0)
(0.0663144 0.242761 0)
(0.0629962 0.233787 0)
(0.0621348 0.21882 0)
(0.0640617 0.197753 0)
(0.0670279 0.174282 0)
(0.072214 0.153297 0)
(0.0772039 0.134154 0)
(0.0821226 0.117508 0)
(0.0883528 0.103285 0)
(0.0964107 0.090809 0)
(0.106227 0.0789905 0)
(0.118092 0.0674665 0)
(0.132084 0.0557976 0)
(0.147811 0.0437589 0)
(0.164824 0.0313055 0)
(0.182594 0.0184267 0)
(0.200145 0.00506985 0)
(0.217005 -0.0087834 0)
(0.232095 -0.0224741 0)
(-0.00455115 -0.270185 0)
(-0.00328499 -0.222116 0)
(-0.000947578 -0.163282 0)
(-0.00262525 -0.0949514 0)
(-0.00523702 -0.0217647 0)
(0.00231552 0.0531551 0)
(0.00824873 0.11853 0)
(0.00709811 0.162249 0)
(0.0105206 0.193892 0)
(0.014706 0.21621 0)
(0.0159728 0.231522 0)
(0.0150597 0.242801 0)
(0.0139098 0.250051 0)
(0.014386 0.252833 0)
(0.0149614 0.249987 0)
(0.0162178 0.23996 0)
(0.0213046 0.223195 0)
(0.0274787 0.200768 0)
(0.0348266 0.177371 0)
(0.0435507 0.156432 0)
(0.0515397 0.137544 0)
(0.0600144 0.12086 0)
(0.0699566 0.105835 0)
(0.0815394 0.0919078 0)
(0.0946449 0.0783103 0)
(0.109406 0.0647822 0)
(0.125723 0.0511149 0)
(0.143183 0.0373355 0)
(0.161227 0.0232787 0)
(0.17904 0.00865146 0)
(0.195971 -0.00640404 0)
(0.211437 -0.0206506 0)
(0.224128 -0.0337466 0)
(-0.0731123 -0.262388 0)
(-0.0769205 -0.213997 0)
(-0.0800433 -0.154638 0)
(-0.0860494 -0.0867327 0)
(-0.0907865 -0.0158152 0)
(-0.0845283 0.053902 0)
(-0.0741506 0.115924 0)
(-0.067428 0.161353 0)
(-0.0589995 0.194266 0)
(-0.0529655 0.217707 0)
(-0.0488973 0.235053 0)
(-0.0457663 0.247503 0)
(-0.0421117 0.255324 0)
(-0.0371823 0.258191 0)
(-0.0324073 0.253875 0)
(-0.0253051 0.242892 0)
(-0.0156358 0.224447 0)
(-0.00549468 0.201312 0)
(0.00570321 0.178123 0)
(0.0170932 0.157293 0)
(0.0281754 0.138472 0)
(0.0400327 0.121474 0)
(0.0530961 0.105556 0)
(0.0675878 0.0902809 0)
(0.0833458 0.0753014 0)
(0.100261 0.060572 0)
(0.118058 0.0456755 0)
(0.136054 0.0303635 0)
(0.153481 0.0146213 0)
(0.170236 -0.000971782 0)
(0.185395 -0.015389 0)
(0.198041 -0.0286945 0)
(0.207656 -0.040847 0)
(-0.134799 -0.253082 0)
(-0.143135 -0.20541 0)
(-0.149547 -0.147595 0)
(-0.157151 -0.0821589 0)
(-0.161679 -0.01384 0)
(-0.155506 0.0527036 0)
(-0.144438 0.111466 0)
(-0.134444 0.157259 0)
(-0.124681 0.190771 0)
(-0.116379 0.216025 0)
(-0.108751 0.235183 0)
(-0.101039 0.24891 0)
(-0.0926077 0.257221 0)
(-0.0843637 0.259515 0)
(-0.0749505 0.254494 0)
(-0.0624154 0.241769 0)
(-0.048759 0.222385 0)
(-0.0349087 0.199677 0)
(-0.0207522 0.177315 0)
(-0.007024 0.156452 0)
(0.00706896 0.137444 0)
(0.0217743 0.119978 0)
(0.0374419 0.103273 0)
(0.0540323 0.087125 0)
(0.071357 0.0711417 0)
(0.0889262 0.0551023 0)
(0.106296 0.0389541 0)
(0.123221 0.0228083 0)
(0.139421 0.00729725 0)
(0.15398 -0.00719046 0)
(0.166261 -0.0206818 0)
(0.176836 -0.0333553 0)
(0.186549 -0.0453679 0)
(-0.186847 -0.242201 0)
(-0.199032 -0.195672 0)
(-0.208031 -0.140743 0)
(-0.216587 -0.0788934 0)
(-0.221529 -0.0141599 0)
(-0.216931 0.0482832 0)
(-0.206392 0.103877 0)
(-0.195328 0.14953 0)
(-0.184312 0.184761 0)
(-0.173323 0.212056 0)
(-0.161956 0.232854 0)
(-0.150269 0.247493 0)
(-0.138475 0.255546 0)
(-0.126443 0.256939 0)
(-0.111669 0.250983 0)
(-0.0951396 0.237166 0)
(-0.0780605 0.217838 0)
(-0.0610546 0.195969 0)
(-0.0444596 0.174271 0)
(-0.0284835 0.15396 0)
(-0.0122308 0.135182 0)
(0.00473437 0.117127 0)
(0.0216886 0.100183 0)
(0.0387362 0.083179 0)
(0.0556421 0.0663652 0)
(0.0724034 0.049691 0)
(0.0886982 0.0336182 0)
(0.104006 0.0182834 0)
(0.117858 0.00382109 0)
(0.130301 -0.0101187 0)
(0.142276 -0.0238629 0)
(0.154101 -0.0374091 0)
(0.166509 -0.0507546 0)
(-0.229263 -0.229719 0)
(-0.243779 -0.184853 0)
(-0.25527 -0.134013 0)
(-0.264822 -0.0766076 0)
(-0.270966 -0.0162358 0)
(-0.268683 0.0426308 0)
(-0.259366 0.0956993 0)
(-0.247885 0.14102 0)
(-0.235561 0.177793 0)
(-0.222188 0.206821 0)
(-0.20808 0.228611 0)
(-0.193827 0.24299 0)
(-0.178967 0.250654 0)
(-0.162262 0.251164 0)
(-0.143411 0.243968 0)
(-0.123748 0.229885 0)
(-0.103853 0.211259 0)
(-0.0845065 0.190472 0)
(-0.0661185 0.169782 0)
(-0.0484511 0.150239 0)
(-0.0309688 0.131802 0)
(-0.0136675 0.113775 0)
(0.00288753 0.0961324 0)
(0.0187735 0.0791395 0)
(0.0348447 0.062672 0)
(0.05035 0.0467221 0)
(0.0648452 0.0314596 0)
(0.0785497 0.0167266 0)
(0.09186 0.00200111 0)
(0.104769 -0.0131388 0)
(0.118799 -0.0285193 0)
(0.13389 -0.0433607 0)
(0.149506 -0.057523 0)
(-0.26325 -0.216128 0)
(-0.27801 -0.173717 0)
(-0.291654 -0.126661 0)
(-0.302236 -0.0742752 0)
(-0.309535 -0.0181573 0)
(-0.309368 0.0377898 0)
(-0.301673 0.08867 0)
(-0.290277 0.133069 0)
(-0.27726 0.170128 0)
(-0.263009 0.199192 0)
(-0.248107 0.220744 0)
(-0.231767 0.235108 0)
(-0.213049 0.242401 0)
(-0.192524 0.241929 0)
(-0.170829 0.23421 0)
(-0.148814 0.220663 0)
(-0.127044 0.203233 0)
(-0.106394 0.184023 0)
(-0.0871227 0.164821 0)
(-0.069071 0.146083 0)
(-0.0523425 0.127963 0)
(-0.0364405 0.110432 0)
(-0.0209284 0.0934237 0)
(-0.00560609 0.0770854 0)
(0.00914616 0.0612319 0)
(0.0233413 0.045768 0)
(0.0375254 0.0303862 0)
(0.0515642 0.0147217 0)
(0.0657162 -0.00157457 0)
(0.081228 -0.0181519 0)
(0.0979392 -0.0348586 0)
(0.113823 -0.0517544 0)
(0.128494 -0.0671797 0)
(-0.289404 -0.20247 0)
(-0.304215 -0.163219 0)
(-0.317802 -0.119105 0)
(-0.329258 -0.0714205 0)
(-0.336891 -0.0200691 0)
(-0.339017 0.0320269 0)
(-0.333874 0.0804822 0)
(-0.32379 0.122915 0)
(-0.311662 0.15906 0)
(-0.297782 0.187905 0)
(-0.281151 0.209456 0)
(-0.261857 0.224115 0)
(-0.240601 0.230949 0)
(-0.217994 0.230211 0)
(-0.194685 0.223016 0)
(-0.171489 0.21079 0)
(-0.149181 0.195139 0)
(-0.128601 0.177544 0)
(-0.110268 0.159568 0)
(-0.0936288 0.142062 0)
(-0.077745 0.125 0)
(-0.0625557 0.108511 0)
(-0.0481025 0.0924159 0)
(-0.0340056 0.0767799 0)
(-0.0197591 0.0609795 0)
(-0.00481341 0.0446129 0)
(0.0104624 0.0285695 0)
(0.0259742 0.0120274 0)
(0.0412105 -0.00687443 0)
(0.0567092 -0.0262269 0)
(0.0713898 -0.0441556 0)
(0.083997 -0.0603408 0)
(0.0942786 -0.0744467 0)
(-0.307775 -0.189092 0)
(-0.323631 -0.153341 0)
(-0.337232 -0.112884 0)
(-0.348462 -0.0689841 0)
(-0.356921 -0.022679 0)
(-0.360585 0.0251798 0)
(-0.358012 0.0711854 0)
(-0.349769 0.111766 0)
(-0.337945 0.146643 0)
(-0.323387 0.175515 0)
(-0.305694 0.197309 0)
(-0.285351 0.211516 0)
(-0.263257 0.218201 0)
(-0.240011 0.217973 0)
(-0.216467 0.211834 0)
(-0.19369 0.200923 0)
(-0.172819 0.186733 0)
(-0.154102 0.170916 0)
(-0.136779 0.154735 0)
(-0.12062 0.138955 0)
(-0.105529 0.123389 0)
(-0.0911263 0.107758 0)
(-0.0769316 0.0921205 0)
(-0.0626607 0.0765774 0)
(-0.048035 0.0608426 0)
(-0.0322721 0.044009 0)
(-0.0165067 0.0250593 0)
(-0.00293651 0.00457882 0)
(0.00941812 -0.014695 0)
(0.0219285 -0.0322939 0)
(0.0320881 -0.0485085 0)
(0.0398557 -0.0624009 0)
(0.0462282 -0.0740204 0)
(-0.319193 -0.174353 0)
(-0.335924 -0.14269 0)
(-0.350221 -0.10583 0)
(-0.361852 -0.0653972 0)
(-0.370389 -0.022812 0)
(-0.374938 0.0209025 0)
(-0.374227 0.0637111 0)
(-0.367788 0.102448 0)
(-0.356508 0.135715 0)
(-0.341946 0.163313 0)
(-0.324464 0.184269 0)
(-0.304508 0.197995 0)
(-0.282987 0.204825 0)
(-0.260751 0.2053 0)
(-0.238785 0.200234 0)
(-0.217959 0.190808 0)
(-0.198545 0.17852 0)
(-0.180625 0.16499 0)
(-0.16419 0.151109 0)
(-0.148857 0.136954 0)
(-0.134057 0.122501 0)
(-0.119483 0.107577 0)
(-0.105036 0.0922115 0)
(-0.0907392 0.075956 0)
(-0.0772645 0.0581977 0)
(-0.0651346 0.0392642 0)
(-0.0531624 0.0198457 0)
(-0.041011 0.0012298 0)
(-0.0311754 -0.0150321 0)
(-0.024418 -0.03087 0)
(-0.0186084 -0.0453258 0)
(-0.0126376 -0.0579646 0)
(-0.00682597 -0.0696193 0)
(-0.323793 -0.157274 0)
(-0.341377 -0.130072 0)
(-0.356362 -0.0975652 0)
(-0.368661 -0.0610176 0)
(-0.377745 -0.0221089 0)
(-0.382911 0.0179048 0)
(-0.383448 0.0573087 0)
(-0.378895 0.0937947 0)
(-0.369185 0.125209 0)
(-0.355644 0.151079 0)
(-0.339452 0.171037 0)
(-0.321063 0.184452 0)
(-0.301209 0.191532 0)
(-0.280845 0.192811 0)
(-0.260751 0.18916 0)
(-0.241571 0.181803 0)
(-0.223682 0.172088 0)
(-0.207021 0.160787 0)
(-0.19132 0.148661 0)
(-0.176345 0.135856 0)
(-0.161895 0.12228 0)
(-0.148006 0.107428 0)
(-0.135347 0.091142 0)
(-0.124288 0.073877 0)
(-0.113865 0.0558251 0)
(-0.103495 0.0376285 0)
(-0.0946043 0.0206631 0)
(-0.0879106 0.00489238 0)
(-0.0807606 -0.0100203 0)
(-0.0773339 -0.0246943 0)
(-0.0734543 -0.0402851 0)
(-0.0682499 -0.055291 0)
(-0.0618913 -0.0689617 0)
(-0.320477 -0.13734 0)
(-0.339516 -0.114603 0)
(-0.355568 -0.0869198 0)
(-0.368723 -0.0551047 0)
(-0.378762 -0.0203723 0)
(-0.384774 0.01586 0)
(-0.386562 0.0517955 0)
(-0.383961 0.0856081 0)
(-0.376547 0.115306 0)
(-0.364954 0.139722 0)
(-0.350669 0.158783 0)
(-0.334517 0.17218 0)
(-0.317009 0.17987 0)
(-0.298961 0.182365 0)
(-0.281069 0.180473 0)
(-0.263749 0.175221 0)
(-0.247346 0.167552 0)
(-0.231921 0.158249 0)
(-0.217351 0.147679 0)
(-0.203642 0.135667 0)
(-0.191209 0.122114 0)
(-0.180425 0.107296 0)
(-0.170701 0.0914719 0)
(-0.161691 0.0752944 0)
(-0.154163 0.0593349 0)
(-0.148111 0.0437197 0)
(-0.142973 0.0280626 0)
(-0.139348 0.0120149 0)
(-0.135671 -0.00450695 0)
(-0.131609 -0.021042 0)
(-0.127753 -0.0376272 0)
(-0.122573 -0.053917 0)
(-0.116759 -0.0684371 0)
(-0.309238 -0.115293 0)
(-0.329994 -0.0968226 0)
(-0.347519 -0.0736992 0)
(-0.361947 -0.0466278 0)
(-0.372993 -0.0162972 0)
(-0.380324 0.0158317 0)
(-0.383835 0.048204 0)
(-0.383273 0.0791986 0)
(-0.378516 0.107091 0)
(-0.369697 0.130366 0)
(-0.357924 0.148695 0)
(-0.344383 0.162173 0)
(-0.329626 0.17063 0)
(-0.314237 0.174455 0)
(-0.298769 0.174339 0)
(-0.283697 0.171106 0)
(-0.269371 0.165263 0)
(-0.255919 0.157276 0)
(-0.243782 0.147455 0)
(-0.233133 0.13616 0)
(-0.223611 0.123496 0)
(-0.215124 0.110056 0)
(-0.208172 0.0961908 0)
(-0.202589 0.0821432 0)
(-0.198066 0.067556 0)
(-0.194869 0.0523395 0)
(-0.19281 0.0361469 0)
(-0.190882 0.0192686 0)
(-0.187889 0.00188466 0)
(-0.183253 -0.0159888 0)
(-0.179412 -0.0335417 0)
(-0.175708 -0.0513839 0)
(-0.171514 -0.0647591 0)
(-0.29039 -0.0914914 0)
(-0.312384 -0.0768845 0)
(-0.331576 -0.0582779 0)
(-0.347584 -0.0358779 0)
(-0.36013 -0.0101436 0)
(-0.369146 0.0178857 0)
(-0.374817 0.0469301 0)
(-0.376843 0.075274 0)
(-0.375182 0.101334 0)
(-0.369744 0.12366 0)
(-0.36111 0.141536 0)
(-0.350616 0.15512 0)
(-0.339041 0.164429 0)
(-0.326751 0.169519 0)
(-0.314241 0.170827 0)
(-0.302124 0.168873 0)
(-0.290963 0.164283 0)
(-0.280852 0.157535 0)
(-0.271673 0.148945 0)
(-0.263637 0.139202 0)
(-0.257046 0.128479 0)
(-0.251902 0.117159 0)
(-0.247912 0.10506 0)
(-0.245028 0.0920425 0)
(-0.243533 0.0777181 0)
(-0.242563 0.0619317 0)
(-0.241428 0.0449473 0)
(-0.239641 0.0271506 0)
(-0.236861 0.00893118 0)
(-0.232654 -0.0109859 0)
(-0.22981 -0.029119 0)
(-0.226116 -0.0447856 0)
(-0.220945 -0.0587902 0)
(-0.265471 -0.0657065 0)
(-0.288445 -0.0546764 0)
(-0.308901 -0.0406444 0)
(-0.326359 -0.0229707 0)
(-0.340613 -0.00179448 0)
(-0.351884 0.0221995 0)
(-0.360098 0.0478174 0)
(-0.365069 0.0735278 0)
(-0.366802 0.0977795 0)
(-0.365207 0.119216 0)
(-0.360424 0.136823 0)
(-0.353492 0.150471 0)
(-0.345578 0.160364 0)
(-0.337216 0.166446 0)
(-0.328714 0.169061 0)
(-0.320411 0.168547 0)
(-0.312636 0.165499 0)
(-0.305789 0.160555 0)
(-0.300008 0.154033 0)
(-0.295468 0.146412 0)
(-0.29204 0.137727 0)
(-0.28962 0.127936 0)
(-0.288571 0.116775 0)
(-0.28824 0.10386 0)
(-0.2881 0.0892435 0)
(-0.287485 0.0728922 0)
(-0.285833 0.0550497 0)
(-0.283137 0.036298 0)
(-0.281271 0.0156026 0)
(-0.278146 -0.00463724 0)
(-0.2737 -0.0231589 0)
(-0.269734 -0.0391799 0)
(-0.264873 -0.0549084 0)
(-0.234826 -0.0396603 0)
(-0.258304 -0.031373 0)
(-0.279842 -0.0213311 0)
(-0.298581 -0.007723 0)
(-0.314659 0.00942515 0)
(-0.328687 0.0293357 0)
(-0.339914 0.0513604 0)
(-0.348381 0.0742258 0)
(-0.35404 0.0964844 0)
(-0.356811 0.116886 0)
(-0.356644 0.134298 0)
(-0.354193 0.148199 0)
(-0.350647 0.158724 0)
(-0.346582 0.165991 0)
(-0.342302 0.170172 0)
(-0.338252 0.171552 0)
(-0.334662 0.170598 0)
(-0.331806 0.16785 0)
(-0.329554 0.16349 0)
(-0.328029 0.157623 0)
(-0.327615 0.15029 0)
(-0.327914 0.141186 0)
(-0.328447 0.130047 0)
(-0.328631 0.116884 0)
(-0.328104 0.101437 0)
(-0.326337 0.0837046 0)
(-0.323086 0.0640692 0)
(-0.32064 0.0431612 0)
(-0.318627 0.0211264 0)
(-0.315094 0.00155926 0)
(-0.31038 -0.017031 0)
(-0.305665 -0.034719 0)
(-0.30028 -0.0515154 0)
(-0.201113 -0.0152157 0)
(-0.221853 -0.00683735 0)
(-0.244206 0.00159373 0)
(-0.265795 0.0113998 0)
(-0.285529 0.0241738 0)
(-0.302673 0.0402002 0)
(-0.317246 0.0585678 0)
(-0.329329 0.0784109 0)
(-0.339038 0.0986074 0)
(-0.346371 0.117921 0)
(-0.351227 0.135195 0)
(-0.353858 0.149609 0)
(-0.355208 0.161038 0)
(-0.356068 0.169688 0)
(-0.356745 0.175522 0)
(-0.357326 0.178943 0)
(-0.357814 0.180121 0)
(-0.358633 0.179335 0)
(-0.35991 0.176581 0)
(-0.36139 0.171658 0)
(-0.362858 0.164779 0)
(-0.364125 0.155786 0)
(-0.364647 0.144121 0)
(-0.363868 0.129807 0)
(-0.36168 0.11275 0)
(-0.357852 0.0933181 0)
(-0.352975 0.0720726 0)
(-0.349406 0.0499228 0)
(-0.345951 0.0288006 0)
(-0.341063 0.00884421 0)
(-0.336047 -0.0108289 0)
(-0.331009 -0.0299906 0)
(-0.325515 -0.0475872 0)
(-0.176525 0.00656868 0)
(-0.192796 0.0172903 0)
(-0.213873 0.0253435 0)
(-0.236517 0.0329526 0)
(-0.257815 0.0420577 0)
(-0.277358 0.0540403 0)
(-0.29517 0.0691888 0)
(-0.310945 0.086421 0)
(-0.324806 0.10486 0)
(-0.336846 0.123219 0)
(-0.346929 0.140331 0)
(-0.355056 0.155263 0)
(-0.361696 0.167778 0)
(-0.367542 0.177895 0)
(-0.372804 0.185518 0)
(-0.377658 0.190707 0)
(-0.382211 0.193525 0)
(-0.386524 0.193887 0)
(-0.390501 0.191927 0)
(-0.393587 0.187536 0)
(-0.39561 0.180718 0)
(-0.396758 0.170755 0)
(-0.39636 0.157627 0)
(-0.393905 0.141406 0)
(-0.389601 0.122374 0)
(-0.383829 0.101333 0)
(-0.377646 0.0786696 0)
(-0.372359 0.0556167 0)
(-0.367134 0.0341489 0)
(-0.3611 0.0132524 0)
(-0.355099 -0.00682966 0)
(-0.348746 -0.0256298 0)
(-0.342289 -0.0432002 0)
(-0.164629 0.0236963 0)
(-0.17716 0.0375553 0)
(-0.193719 0.0471266 0)
(-0.213942 0.0543206 0)
(-0.235446 0.0614458 0)
(-0.256351 0.0703628 0)
(-0.276618 0.0824629 0)
(-0.295962 0.0974906 0)
(-0.313953 0.114524 0)
(-0.330701 0.132289 0)
(-0.345897 0.149541 0)
(-0.359114 0.165272 0)
(-0.370554 0.179031 0)
(-0.380987 0.190379 0)
(-0.390678 0.199381 0)
(-0.399468 0.205774 0)
(-0.407293 0.209562 0)
(-0.414044 0.210685 0)
(-0.419462 0.209136 0)
(-0.4231 0.204486 0)
(-0.425274 0.196367 0)
(-0.425914 0.184584 0)
(-0.424045 0.16969 0)
(-0.419616 0.151501 0)
(-0.413144 0.130816 0)
(-0.405758 0.108241 0)
(-0.398313 0.0847725 0)
(-0.391133 0.0610754 0)
(-0.383936 0.038355 0)
(-0.376363 0.0163704 0)
(-0.368814 -0.00427801 0)
(-0.36177 -0.0227345 0)
(-0.354528 -0.0393317 0)
(-0.160848 0.0377372 0)
(-0.169473 0.0538364 0)
(-0.1826 0.0657467 0)
(-0.199437 0.0736697 0)
(-0.219661 0.0805251 0)
(-0.241518 0.0880815 0)
(-0.263814 0.0980837 0)
(-0.286027 0.111532 0)
(-0.307721 0.127679 0)
(-0.328652 0.145192 0)
(-0.348277 0.162623 0)
(-0.365958 0.1791 0)
(-0.381857 0.193618 0)
(-0.396348 0.205924 0)
(-0.409475 0.215881 0)
(-0.4213 0.223165 0)
(-0.431466 0.227583 0)
(-0.439703 0.229057 0)
(-0.446087 0.227112 0)
(-0.450433 0.221094 0)
(-0.452445 0.211023 0)
(-0.451705 0.197373 0)
(-0.448125 0.180228 0)
(-0.442127 0.159614 0)
(-0.43433 0.136197 0)
(-0.425735 0.11112 0)
(-0.416978 0.0862953 0)
(-0.408302 0.0622015 0)
(-0.399351 0.039038 0)
(-0.389982 0.0172545 0)
(-0.380486 -0.00291624 0)
(-0.371212 -0.0209192 0)
(-0.362336 -0.0363685 0)
(-0.163298 0.0490493 0)
(-0.16916 0.0670742 0)
(-0.179182 0.0813701 0)
(-0.193082 0.0910102 0)
(-0.210984 0.098017 0)
(-0.233016 0.10583 0)
(-0.256765 0.115129 0)
(-0.28115 0.1277 0)
(-0.305869 0.143354 0)
(-0.330432 0.160653 0)
(-0.353626 0.178259 0)
(-0.374916 0.19514 0)
(-0.394341 0.210431 0)
(-0.411882 0.22368 0)
(-0.427773 0.234327 0)
(-0.441803 0.24218 0)
(-0.453428 0.246815 0)
(-0.462719 0.247892 0)
(-0.469949 0.244561 0)
(-0.474255 0.236862 0)
(-0.47499 0.224688 0)
(-0.472482 0.208335 0)
(-0.467228 0.187757 0)
(-0.459696 0.163693 0)
(-0.450242 0.138286 0)
(-0.438982 0.113195 0)
(-0.426806 0.0878576 0)
(-0.41501 0.0629753 0)
(-0.403487 0.0390364 0)
(-0.392019 0.0165268 0)
(-0.380746 -0.00417868 0)
(-0.370022 -0.0227977 0)
(-0.360514 -0.0380956 0)
(-0.171344 0.0569187 0)
(-0.175292 0.07776 0)
(-0.182233 0.0941815 0)
(-0.194182 0.10609 0)
(-0.209549 0.114112 0)
(-0.230239 0.122797 0)
(-0.255022 0.132518 0)
(-0.280815 0.144901 0)
(-0.307688 0.160366 0)
(-0.334709 0.177417 0)
(-0.360428 0.195378 0)
(-0.384335 0.212756 0)
(-0.406281 0.228789 0)
(-0.426246 0.242583 0)
(-0.444028 0.253773 0)
(-0.459393 0.261813 0)
(-0.472033 0.266228 0)
(-0.481992 0.266129 0)
(-0.488965 0.261107 0)
(-0.491906 0.250937 0)
(-0.49067 0.23554 0)
(-0.485758 0.215333 0)
(-0.477726 0.191824 0)
(-0.46621 0.167376 0)
(-0.452121 0.14165 0)
(-0.438218 0.115636 0)
(-0.424599 0.0890123 0)
(-0.410545 0.0624911 0)
(-0.396038 0.0372835 0)
(-0.381373 0.013814 0)
(-0.367584 -0.00739887 0)
(-0.354691 -0.0253591 0)
(-0.342915 -0.0391629 0)
(-0.184728 0.0616936 0)
(-0.186667 0.0855669 0)
(-0.191063 0.104238 0)
(-0.200821 0.118466 0)
(-0.213934 0.12875 0)
(-0.232734 0.138352 0)
(-0.257441 0.149188 0)
(-0.28378 0.162082 0)
(-0.311843 0.177733 0)
(-0.340081 0.194959 0)
(-0.367063 0.213221 0)
(-0.392762 0.231054 0)
(-0.416518 0.247389 0)
(-0.437873 0.261497 0)
(-0.456685 0.273088 0)
(-0.472772 0.280989 0)
(-0.485751 0.284512 0)
(-0.495331 0.282807 0)
(-0.500862 0.27534 0)
(-0.501713 0.261892 0)
(-0.497576 0.242394 0)
(-0.48862 0.221248 0)
(-0.47587 0.196861 0)
(-0.462738 0.171018 0)
(-0.448225 0.143896 0)
(-0.431923 0.115496 0)
(-0.415228 0.0873278 0)
(-0.397507 0.0595244 0)
(-0.37949 0.0335099 0)
(-0.361939 0.00936264 0)
(-0.345226 -0.0117384 0)
(-0.33043 -0.0278415 0)
(-0.318158 -0.0387904 0)
(-0.201943 0.0645398 0)
(-0.20183 0.0905645 0)
(-0.203952 0.111594 0)
(-0.211475 0.128226 0)
(-0.222507 0.14104 0)
(-0.239219 0.152254 0)