/*--------------------------------*- C++ -*----------------------------------*\
  =========                 |
  \\      /  F ield         | OpenFOAM: The Open Source CFD Toolbox
   \\    /   O peration     | Website:  https://openfoam.org
    \\  /    A nd           | Version:  10
     \\/     M anipulation  |
\*---------------------------------------------------------------------------*/
FoamFile
{
    format      ascii;
    class       surfaceScalarField;
    location    "0.10055";
    object      phi;
}
// * * * * * * * * * * * * * * * * * * * * * * * * * * * * * * * * * * * * * //

dimensions      [1 0 -1 0 0 0 0];

internalField   nonuniform List<scalar> 
32368
(
-4.03676e-05
2.85764e-05
-4.58545e-05
3.50302e-05
-5.56379e-05
5.01329e-05
-7.65156e-05
8.0331e-05
-0.000100334
0.0001414
-9.81015e-05
0.000221729
-7.03721e-05
0.000272964
-4.92982e-05
0.000284445
-4.37122e-05
0.000303144
-3.17175e-05
0.000339563
-7.46024e-06
0.000336093
1.68085e-05
0.000299013
2.78459e-05
0.000247616
2.15531e-05
0.000192617
1.46789e-05
0.000137195
-1.55843e-05
5.23524e-05
-5.30931e-05
-0.000114761
-4.58015e-05
-0.00026973
-3.4916e-05
-0.000268691
-2.60082e-05
-0.000251192
-1.651e-05
-0.000237983
-1.11132e-05
-0.00022349
-1.0273e-05
-0.000200212
-1.25601e-05
-0.000181148
-1.58125e-05
-0.000167088
-2.5681e-05
-0.000169157
-4.47033e-05
-0.000205656
-5.76087e-05
-0.000184601
-2.73778e-05
-0.000130173
1.36352e-05
-2.79948e-05
3.29911e-05
6.17078e-05
3.92045e-05
9.77502e-05
-2.37542e-06
0.000123145
-6.46552e-05
0.000133052
-0.000100266
0.000122353
-0.000116346
0.00011087
-0.000126278
9.76439e-05
-0.000142253
9.33369e-05
-0.00020897
0.000113395
-0.000268922
0.000120423
-0.000277393
9.05044e-05
-0.000232463
-1.9621e-06
-0.00018996
-0.000105503
-0.000125927
-0.00013782
-6.89936e-05
-8.60402e-05
-3.04959e-05
-1.68149e-05
-2.02105e-05
3.1975e-05
-1.60815e-05
4.92693e-05
-1.55543e-05
5.3594e-05
-1.76219e-05
5.32923e-05
-2.21331e-05
5.4758e-05
-3.14458e-05
6.67317e-05
-3.68529e-05
8.69933e-05
-3.54514e-05
8.99648e-05
-2.97862e-05
7.45719e-05
-2.28884e-05
4.64195e-05
-4.6609e-06
-9.73861e-06
6.13074e-06
-0.000113763
-1.45294e-05
-0.000150455
-4.0127e-05
-0.000171096
-5.59897e-05
-0.000169337
-5.28922e-05
-0.000136243
-3.73447e-05
-9.4854e-05
-2.3321e-05
-6.85237e-05
-1.43194e-05
-5.83031e-05
-1.04424e-05
-5.01412e-05
-6.97422e-06
-4.19667e-05
-3.91242e-06
-3.60487e-05
1.59328e-06
-3.47429e-05
9.33772e-06
-4.7936e-05
1.91387e-05
-7.28248e-05
2.61485e-05
-9.60776e-05
2.95635e-05
-0.000107388
3.29477e-05
-0.000120195
3.46993e-05
-0.000126438
5.8871e-05
-0.000135506
0.000184349
-0.000305181
0.000306243
-0.000489307
0.000354626
-0.000545485
0.000291946
-0.000512262
0.00018434
-0.000414868
0.00010883
-0.000323583
6.64453e-05
-0.000254013
4.11447e-05
-0.000203291
2.27589e-05
-0.000165797
5.92953e-06
-0.000138765
-1.24177e-05
-0.000115824
-3.04962e-05
-8.68612e-05
-3.79889e-05
-4.74055e-05
-1.94461e-05
6.3459e-07
1.06807e-05
9.18009e-05
9.54343e-06
0.000248342
-2.30525e-05
0.000417918
-6.36202e-05
0.000524857
-6.44512e-05
0.000588742
-3.37741e-05
0.000593177
-2.80012e-05
0.000542794
-3.76229e-05
0.000568162
-4.51671e-05
0.000553154
-3.72412e-05
0.000535904
-5.72205e-05
0.000520094
-9.08697e-05
0.000279744
-0.000115893
-6.53124e-05
-0.000160229
-0.000230934
-0.000242691
-0.000345666
-0.000262126
-0.000440828
-0.000241269
-0.000510268
-0.00020231
-0.000518923
-0.000182565
-0.000536507
-0.000130274
-0.000603269
-3.23842e-05
-0.000710492
8.33512e-05
-0.000696516
-0.000597274
0.000183167
-4.90422e-05
3.66548e-05
-5.14644e-05
3.99288e-05
-5.46046e-05
4.98079e-05
-6.11305e-05
6.97594e-05
-7.47609e-05
0.000108904
-7.76794e-05
0.000177007
-6.05826e-05
0.000234784
-3.75191e-05
0.000267783
-2.06198e-05
0.000290877
5.93327e-07
0.000299952
2.7598e-05
0.000297795
5.75523e-05
0.000259602
6.74428e-05
0.000213896
5.94279e-05
0.000172027
4.38177e-05
0.00011648
8.44698e-07
2.12521e-05
-3.76781e-05
-0.000145956
-3.33194e-05
-0.000251856
-2.58082e-05
-0.000235735
-1.61751e-05
-0.000218896
-6.38644e-06
-0.000207202
-1.96566e-09
-0.000198547
-3.31478e-08
-0.000179906
-4.86416e-06
-0.000165911
-1.08522e-05
-0.000155587
-2.4252e-05
-0.000160327
-5.41355e-05
-0.000205831
-8.99052e-05
-0.000189451
-9.48971e-05
-0.000139911
-3.94843e-05
-6.39002e-05
5.87465e-06
2.60999e-05
3.09338e-05
5.7649e-05
3.41886e-06
9.22192e-05
-5.97885e-05
0.000121997
-9.93411e-05
0.000123593
-0.000119179
0.000115886
-0.000140495
0.000110441
-0.000192589
0.000119464
-0.000266751
0.000141146
-0.000293286
0.000134219
-0.000234764
5.06943e-05
-0.000214172
-7.07173e-05
-0.000226711
-0.000162931
-0.000196745
-0.000197003
-0.000108759
-0.000145498
-4.70098e-05
-4.91626e-05
-2.73552e-05
1.71148e-05
-2.11429e-05
3.94909e-05
-1.91568e-05
4.80724e-05
-1.97864e-05
5.02946e-05
-2.28344e-05
5.24878e-05
-2.9765e-05
6.34783e-05
-3.33802e-05
8.17855e-05
-3.01512e-05
8.19616e-05
-2.28828e-05
6.40875e-05
-7.93647e-06
2.88721e-05
1.05793e-05
-4.02608e-05
-2.10272e-06
-0.000112285
-2.64959e-05
-0.000134529
-5.44487e-05
-0.00014824
-6.88205e-05
-0.000142489
-6.66932e-05
-0.000118323
-4.92747e-05
-9.43551e-05
-3.23927e-05
-7.86483e-05
-2.20771e-05
-6.6122e-05
-1.65814e-05
-5.41181e-05
-1.44886e-05
-4.42881e-05
-1.2867e-05
-3.79324e-05
-9.40813e-06
-4.04787e-05
-1.97279e-06
-5.48209e-05
8.89247e-06
-7.74579e-05
1.81536e-05
-9.44776e-05
2.39632e-05
-0.000105274
2.88009e-05
-0.00011784
3.12724e-05
-0.000121685
6.34054e-05
-0.000150103
0.0001885
-0.000311529
0.000320719
-0.000474385
0.000372471
-0.000525768
0.00031055
-0.000493224
0.000206744
-0.000395402
0.000131264
-0.000307156
8.73906e-05
-0.000241138
6.16201e-05
-0.000193334
4.48141e-05
-0.000158308
3.14408e-05
-0.000136273
2.0733e-05
-0.000116168
1.15358e-05
-9.82644e-05
4.77106e-06
-6.70784e-05
6.07064e-06
-2.93354e-05
2.35404e-05
3.42795e-05
2.97847e-05
0.000164701
-4.88537e-06
0.000352904
-5.61114e-05
0.000517229
-6.36358e-05
0.000642144
-2.27265e-05
0.000673455
9.78673e-07
0.000602417
1.79159e-06
0.000602197
7.80405e-07
0.000554982
5.838e-06
0.000518977
-2.06411e-05
0.000493627
-8.16451e-05
0.000224979
-0.000121943
-7.05377e-05
-0.000197556
-0.000198487
-0.000269063
-0.000315086
-0.000274119
-0.000409744
-0.000235669
-0.00047722
-0.000176228
-0.000498082
-0.000125731
-0.000504793
-5.82915e-05
-0.000571795
4.46946e-05
-0.000678628
0.000166821
-0.000683576
-0.000605698
0.000259013
-5.58553e-05
4.51262e-05
-5.66821e-05
4.66477e-05
-5.67794e-05
5.31526e-05
-5.77745e-05
6.7189e-05
-6.07009e-05
9.27764e-05
-6.17108e-05
0.000137456
-5.10491e-05
0.000196107
-2.72284e-05
0.00024681
-3.87392e-06
0.000274745
2.32665e-05
0.00027065
6.09567e-05
0.000244202
9.78371e-05
0.000203501
0.000111634
0.000163886
0.000105967
0.000126596
7.51688e-05
7.02511e-05
2.12028e-05
-3.34274e-05
-1.76887e-05
-0.000164001
-3.14213e-05
-0.000196368
-2.89235e-05
-0.000190629
-1.75371e-05
-0.000182428
-3.45183e-06
-0.000174996
6.24602e-06
-0.000169219
6.32938e-06
-0.000154508
6.56804e-07
-0.000145085
-8.15839e-06
-0.000137888
-2.51772e-05
-0.000145277
-6.56747e-05
-0.000182536
-0.000118074
-0.000159718
-0.000133287
-0.00011577
-7.1938e-05
-6.4564e-05
-7.83045e-06
-1.11979e-06
3.44189e-05
1.50764e-05
2.42578e-05
4.99017e-05
-4.15092e-05
9.21101e-05
-9.37618e-05
0.000118404
-0.000124922
0.000119967
-0.000155782
0.000121181
-0.000219247
0.000136912
-0.000268434
0.000156499
-0.000233991
0.000103074
-0.000182191
-1.64166e-05
-0.000172999
-0.000132147
-0.000196675
-0.000202122
-0.000210425
-0.000243007
-0.000154447
-0.000209851
-5.28487e-05
-9.95658e-05
-3.0093e-05
-1.09317e-06
-2.18721e-05
2.86483e-05
-1.9101e-05
4.21356e-05
-1.87805e-05
4.65513e-05
-2.07104e-05
4.90124e-05
-2.63654e-05
5.78618e-05
-2.94422e-05
7.37895e-05
-2.6696e-05
7.35922e-05
-1.87539e-05
5.25946e-05
-1.17289e-06
6.39788e-06
8.44346e-06
-6.09702e-05
-1.21735e-05
-0.000102899
-3.79446e-05
-0.000120337
-6.58281e-05
-0.000132166
-7.62774e-05
-0.000131149
-6.90331e-05
-0.000119205
-5.14752e-05
-0.000117841
-3.63479e-05
-0.000113698
-2.50462e-05
-8.48756e-05
-2.01082e-05
-6.17784e-05
-1.99619e-05
-4.75811e-05
-2.06567e-05
-4.13445e-05
-1.98796e-05
-4.5862e-05
-1.19483e-05
-5.92517e-05
1.94954e-06
-8.02688e-05
1.24276e-05
-9.15883e-05
1.98812e-05
-0.000104091
2.54344e-05
-0.000115436
3.10456e-05
-0.000118723
7.40921e-05
-0.000193363
0.000200222
-0.000356432
0.000334582
-0.000484452
0.000396248
-0.000516129
0.00033738
-0.000478865
0.000228973
-0.000380232
0.000152022
-0.000293647
0.000106498
-0.000230657
7.86846e-05
-0.000185331
5.96545e-05
-0.000154953
4.78384e-05
-0.000135881
4.16148e-05
-0.000119358
3.43477e-05
-0.000106973
2.87868e-05
-8.7449e-05
2.19073e-05
-5.87384e-05
2.42514e-05
-1.30197e-05
1.34208e-05
7.78506e-05
-6.46065e-06
0.000265612
-5.85578e-05
0.000458663
-7.08276e-05
0.000625232
-2.01592e-05
0.000685599
1.7497e-05
0.000613302
2.94744e-05
0.000596476
2.99143e-05
0.00054261
2.5211e-05
0.000487978
-9.23027e-06
0.000450842
-9.23886e-05
0.00019422
-0.000149322
-5.52427e-05
-0.000243966
-0.000175592
-0.000301306
-0.00029495
-0.000296342
-0.000392254
-0.000242007
-0.000456157
-0.000162973
-0.000474407
-8.73172e-05
-0.000469588
4.22208e-06
-0.000521864
0.000105724
-0.000648421
0.000229398
-0.000692538
-0.000633893
0.000311471
-6.03765e-05
5.29495e-05
-6.00673e-05
5.43719e-05
-5.88462e-05
5.93613e-05
-5.71181e-05
6.9461e-05
-5.54037e-05
8.69696e-05
-5.18023e-05
0.000115486
-4.22492e-05
0.000155777
-2.495e-05
0.000200554
5.02611e-06
0.000237533
3.63196e-05
0.000217262
7.13518e-05
0.000166364
0.000112332
0.000106816
0.000132593
7.26531e-05
0.000125909
4.22389e-05
8.34212e-05
1.73164e-06
2.6417e-05
-7.58744e-05
-2.2457e-05
-0.000127596
-3.77753e-05
-0.00013304
-3.70861e-05
-0.00014198
-2.33277e-05
-0.000144448
-5.06546e-06
-0.000143168
8.55193e-06
-0.000138474
9.3192e-06
-0.000126931
3.59953e-06
-0.000121708
-5.79059e-06
-0.00011761
-2.36434e-05
-0.000125059
-6.6196e-05
-0.000145376
-0.000121644
-0.000113587
-0.000148686
-6.54986e-05
-9.96901e-05
-3.05404e-05
-2.47689e-05
-8.01231e-06
3.42402e-05
-1.20184e-05
5.46122e-05
2.33242e-05
-2.27141e-07
5.58202e-05
-7.3513e-05
9.96661e-05
-0.000118629
0.000118713
-0.000158313
0.000126673
-0.000217152
0.000142174
-0.00023727
0.000149763
-0.000180979
7.3666e-05
-0.000139534
-4.89747e-05
-0.000133501
-0.000151327
-0.00013851
-0.000214358
-0.000151125
-0.000240317
-0.000149975
-0.000218947
-6.92939e-05
-0.000150161
-3.10497e-05
-3.16423e-05
-1.9398e-05
1.72139e-05
-1.59074e-05
3.60996e-05
-1.5116e-05
4.28235e-05
-1.65231e-05
4.62051e-05
-1.95207e-05
5.28038e-05
-2.23801e-05
6.18063e-05
-1.83705e-05
6.11825e-05
-6.79942e-06
3.49509e-05
7.42838e-06
-1.23996e-05
8.29499e-07
-6.83329e-05
-2.17141e-05
-9.94968e-05
-4.37064e-05
-0.000117194
-6.43076e-05
-0.000130399
-7.1634e-05
-0.000144936
-6.59112e-05
-0.000169245
-5.5431e-05
-0.000187765
-3.61312e-05
-0.000164332
-2.3505e-05
-0.000100866
-2.28633e-05
-6.75725e-05
-2.61736e-05
-5.01175e-05
-3.02675e-05
-4.4059e-05
-2.77684e-05
-4.70472e-05
-1.69544e-05
-6.16892e-05
-1.74432e-06
-7.8416e-05
8.87145e-06
-9.00931e-05
1.59861e-05
-0.000102829
2.13901e-05
-0.000113034
2.98703e-05
-0.000117238
9.68996e-05
-0.000245925
0.000229754
-0.000423917
0.000359176
-0.00051686
0.000425871
-0.000518936
0.000366188
-0.000467536
0.000251265
-0.000368913
0.000171742
-0.000283259
0.000122616
-0.000222285
8.96306e-05
-0.000179945
6.64184e-05
-0.00015373
5.54954e-05
-0.000137348
5.10842e-05
-0.000124242
4.38056e-05
-0.000115492
3.62337e-05
-0.000101801
2.21209e-05
-7.75058e-05
7.76306e-06
-3.08873e-05
-5.99265e-06
4.14458e-05
-3.1858e-05
0.000173717
-7.3148e-05
0.000385914
-7.57411e-05
0.000572317
-2.14399e-05
0.000645866
2.26818e-05
0.000587892
4.21598e-05
0.000569387
4.25927e-05
0.000526007
3.03064e-05
0.000458355
-1.39863e-05
0.000386345
-8.02728e-05
0.000172575
-0.000160118
-2.72284e-05
-0.000260244
-0.000150264
-0.000311893
-0.000277227
-0.000300883
-0.00037145
-0.000238715
-0.000430822
-0.000148561
-0.000438575
-5.68676e-05
-0.000427589
3.58685e-05
-0.000465939
0.000154776
-0.00061215
0.000275067
-0.000682367
-0.000634382
0.000338849
-6.28645e-05
6.06452e-05
-6.13296e-05
6.2425e-05
-5.93463e-05
6.68921e-05
-5.6746e-05
7.4909e-05
-5.29138e-05
8.71708e-05
-4.68761e-05
0.000105349
-3.65109e-05
0.000129647
-1.99973e-05
0.000157121
2.82009e-06
0.000180716
2.43374e-05
0.000160298
4.50787e-05
0.000104849
8.08538e-05
2.74385e-05
0.000100837
2.32519e-06
8.72317e-05
-7.8292e-06
4.8774e-05
-3.80052e-05
-1.55296e-05
-6.40198e-05
-5.77371e-05
-7.12072e-05
-6.09816e-05
-8.40825e-05
-5.06389e-05
-0.000102735
-3.16215e-05
-0.00010986
-9.73031e-06
-0.000112413
7.26546e-06
-0.000107897
1.08261e-05
-9.93595e-05
6.56193e-06
-9.84204e-05
-1.98411e-06
-9.68143e-05
-1.685e-05
-0.000105152
-5.24882e-05
-0.000103304
-9.60292e-05
-7.47906e-05
-0.000127314
-1.53567e-05
-0.000105381
2.90757e-05
-3.45795e-05
5.65283e-06
1.94203e-05
-2.05286e-05
5.71355e-05
1.16915e-05
4.08946e-05
4.57864e-05
-3.16204e-05
7.02663e-05
-9.67544e-05
0.000104834
-0.000141766
0.000121385
-0.000191304
0.000138331
-0.000199454
0.000138958
-0.000158901
6.97702e-05
-0.000141388
-4.20178e-05
-0.000130156
-0.000139646
-0.000112271
-0.000204263
-8.63237e-05
-0.000243048
-5.34315e-05
-0.000235991
-4.74723e-05
-0.00014159
-2.34938e-05
-5.30338e-05
-1.27666e-05
1.27902e-05
-1.02098e-05
3.24316e-05
-1.04435e-05
4.1123e-05
-1.14635e-05
4.42634e-05
-1.22517e-05
4.93726e-05
-1.09544e-05
5.16121e-05
-5.80241e-06
4.35112e-05
4.90244e-06
1.53089e-05
1.1954e-05
-2.33934e-05
-6.21772e-06
-6.96138e-05
-3.15756e-05
-0.000102979
-4.94886e-05
-0.000125592
-6.26766e-05
-0.000146644
-6.74424e-05
-0.000184561
-6.02604e-05
-0.000224661
-3.99443e-05
-0.000227536
-2.34406e-05
-0.000170861
-1.9422e-05
-9.32222e-05
-2.53857e-05
-6.18519e-05
-3.30681e-05
-4.65314e-05
-3.78768e-05
-4.01823e-05
-3.30196e-05
-4.53561e-05
-1.73846e-05
-6.11725e-05
-2.81425e-06
-7.29725e-05
6.19022e-06
-8.81962e-05
1.2679e-05
-0.000101313
1.68245e-05
-0.000109089
2.45728e-05
-0.000109482
0.000109318
-0.000249807
0.000258175
-0.000423728
0.000381833
-0.000503698
0.00044904
-0.000506482
0.000394792
-0.000459816
0.000274672
-0.000362096
0.00019038
-0.000275527
0.000134779
-0.000215625
9.47598e-05
-0.000175916
6.97161e-05
-0.000154114
5.9335e-05
-0.000140527
5.51822e-05
-0.000129811
4.69726e-05
-0.000123027
3.46089e-05
-0.000111474
8.37207e-06
-7.78753e-05
-1.73599e-05
-1.86831e-05
-3.34835e-05
3.04778e-05
-5.44927e-05
0.00011221
-9.44703e-05
0.000298613
-7.83312e-05
0.000499913
-2.47867e-05
0.000582293
2.06025e-05
0.000545948
4.05832e-05
0.000535014
4.22619e-05
0.00049962
2.71952e-05
0.000414124
-2.04276e-05
0.000325208
-7.51628e-05
0.000156156
-0.000147408
-4.53302e-06
-0.000223899
-0.000128096
-0.000259561
-0.000253764
-0.000259702
-0.000333526
-0.000228197
-0.000386384
-0.00014688
-0.00039002
-4.21814e-05
-0.000366656
4.82959e-05
-0.000391412
0.000173692
-0.000562528
0.000295152
-0.000659115
-0.000603918
0.000336002
-6.34567e-05
6.76212e-05
-6.08621e-05
7.01075e-05
-5.85042e-05
7.4849e-05
-5.52898e-05
8.14037e-05
-5.07368e-05
9.01795e-05
-4.41117e-05
0.000101928
-3.44308e-05
0.000115974
-2.108e-05
0.000130399
-4.15828e-06
0.000140845
7.25454e-06
0.000122452
1.15283e-05
6.88726e-05
3.25901e-05
-3.03312e-05
4.10252e-05
-5.45728e-05
1.46938e-05
-3.99207e-05
-4.84783e-05
-4.01207e-05
-0.000103828
-4.61521e-05
-0.000111062
-5.12579e-05
-9.54659e-05
-6.71874e-05
-7.0021e-05
-8.04483e-05
-4.16629e-05
-8.43205e-05
-1.52228e-05
-8.5348e-05
3.69656e-06
-8.07475e-05
1.15987e-05
-7.52937e-05
9.75843e-06
-7.61954e-05
3.93696e-06
-7.59091e-05
-7.87212e-06
-8.647e-05
-3.2235e-05
-6.4113e-05
-5.77069e-05
-4.04362e-05
-7.86988e-05
1.82646e-05
-7.0368e-05
7.17566e-05
-2.57203e-05
3.37099e-05
3.97456e-06
-1.37016e-05
3.8537e-05
9.21558e-06
5.30315e-05
4.98499e-05
1.09849e-05
6.4659e-05
-5.85114e-05
7.90337e-05
-0.000123463
0.0001055
-0.000177177
0.000130967
-0.000218234
0.000148731
-0.000214831
9.89021e-05
-0.000187731
-2.48474e-05
-0.000163106
-0.000103353
-0.00013732
-0.000169647
-8.09347e-05
-0.000262267
-1.43936e-05
-0.000245061
1.56098e-05
-0.000140874
-1.27248e-06
-4.55483e-05
-2.99388e-06
1.53255e-05
-4.80656e-06
3.72933e-05
-6.82517e-06
4.38448e-05
-7.7128e-06
4.56022e-05
-7.06503e-06
4.76521e-05
-3.21575e-06
4.43903e-05
2.60341e-06
3.15904e-05
8.12267e-06
5.14379e-06
3.61336e-06
-2.75253e-05
-2.11689e-05
-7.31114e-05
-4.53579e-05
-0.000110922
-5.61154e-05
-0.000139911
-6.20543e-05
-0.000167604
-6.26619e-05
-0.000211386
-5.44982e-05
-0.000250997
-3.7238e-05
-0.000236546
-2.28793e-05
-0.000156245
-2.32364e-05
-7.56318e-05
-3.27805e-05
-5.11576e-05
-4.26056e-05
-3.71708e-05
-4.46029e-05
-3.1307e-05
-3.52906e-05
-4.01603e-05
-1.63021e-05
-5.70139e-05
-3.68754e-06
-6.72842e-05
4.11493e-06
-8.68892e-05
1.05113e-05
-9.9562e-05
1.41739e-05
-0.000104512
2.24686e-05
-0.000101306
0.000115106
-0.000228354
0.000269291
-0.00040073
0.00040007
-0.000485229
0.000468554
-0.000490074
0.000428782
-0.000451242
0.000300184
-0.000356773
0.000207987
-0.000270144
0.000143521
-0.000210926
9.707e-05
-0.000174548
7.11608e-05
-0.000155524
6.06695e-05
-0.000144498
5.65633e-05
-0.000135369
4.60018e-05
-0.00012843
2.60618e-05
-0.000112919
-3.36661e-06
-6.84956e-05
-3.06413e-05
-5.99986e-07
-4.95723e-05
3.016e-05
-6.87772e-05
8.29589e-05
-0.000102145
0.000205985
-7.99498e-05
0.000390428
-3.1114e-05
0.000487739
9.81803e-06
0.000486944
3.34116e-05
0.000482462
3.93116e-05
0.000454155
1.35731e-05
0.000354488
-3.0364e-05
0.000270188
-7.85156e-05
0.000140185
-0.000128193
-1.48078e-06
-0.000160528
-0.000118112
-0.00016986
-0.000233981
-0.000205827
-0.000277064
-0.000218499
-0.000319377
-0.000157928
-0.000329496
-5.57567e-05
-0.000292296
2.9474e-05
-0.000305117
0.000160656
-0.000509202
0.000292382
-0.000633746
-0.000557608
0.000315654
-6.27518e-05
7.31355e-05
-5.9614e-05
7.66791e-05
-5.61656e-05
8.13979e-05
-5.23414e-05
8.71801e-05
-4.76318e-05
9.36647e-05
-4.12642e-05
0.000100994
-3.28608e-05
0.000108342
-2.24197e-05
0.000114219
-1.03375e-05
0.000114364
-3.62823e-06
9.34885e-05
-3.34677e-06
3.20652e-05
-6.34983e-06
-7.7396e-05
-2.82279e-05
-9.2614e-05
-8.39418e-05
-6.91212e-05
-0.000145958
-6.22189e-05
-0.000164724
-5.76933e-05
-0.000150087
-5.73328e-05
-0.000119992
-6.22954e-05
-8.45068e-05
-6.429e-05
-5.01538e-05
-6.3898e-05
-2.01664e-05
-6.13339e-05
2.04459e-07
-5.68719e-05
1.16375e-05
-5.49963e-05
1.30286e-05
-5.62679e-05
1.16234e-05
-5.81624e-05
3.9515e-06
-7.1336e-05
-5.8674e-06
-4.15584e-05
-1.73881e-05
-1.44492e-05
-3.49233e-05
4.47227e-05
-2.47478e-05
9.51746e-05
-7.07721e-06
7.07112e-05
4.35043e-07
7.88173e-06
2.04809e-05
1.37439e-05
4.09141e-05
5.42179e-05
4.26545e-05
7.68811e-05
1.41379e-06
7.16828e-05
-7.91118e-05
7.46373e-05
-0.000176755
0.00011295
-0.000251131
0.000154541
-0.000229938
0.000120286
-0.000210865
1.25568e-05
-0.000199925
-6.63897e-05
-0.000171623
-0.000154797
-0.00010175
-0.000277372
-3.76816e-05
-0.000238949
-4.59997e-06
-0.000122947
-3.23305e-07
-4.01644e-05
-5.22277e-06
1.57432e-05
-6.43741e-06
3.76642e-05
-7.71743e-06
4.55833e-05
-7.59075e-06
4.69213e-05
-4.61969e-06
4.56334e-05
-2.18493e-07
3.81406e-05
4.24154e-06
2.38995e-05
4.23828e-06
5.09739e-07
-7.80812e-06
-2.91009e-05
-3.73651e-05
-7.65758e-05
-5.69417e-05
-0.00012301
-6.45232e-05
-0.000150437
-6.91121e-05
-0.000181758
-7.58378e-05
-0.000230049
-6.6525e-05
-0.000257972
-4.20528e-05
-0.000215529
-2.90286e-05
-0.00011429
-3.15055e-05
-5.7066e-05
-4.25502e-05
-3.87342e-05
-5.26711e-05
-2.63187e-05
-5.08399e-05
-2.25555e-05
-3.56909e-05
-3.47271e-05
-1.54026e-05
-4.9198e-05
-4.72395e-06
-6.56715e-05
2.86335e-06
-8.56841e-05
9.57407e-06
-9.77556e-05
1.35788e-05
-0.000100009
2.19353e-05
-9.37257e-05
0.000115712
-0.000184965
0.000274938
-0.000353839
0.000410009
-0.000453286
0.000487762
-0.000470621
0.000462593
-0.000440734
0.000326037
-0.000352135
0.00022443
-0.000266398
0.000149555
-0.000207995
9.81976e-05
-0.000175486
7.0832e-05
-0.000158697
5.99313e-05
-0.000149921
5.51765e-05
-0.000141531
3.96888e-05
-0.000130033
1.20794e-05
-0.000101346
-2.5502e-05
-3.82201e-05
-4.29455e-05
9.72052e-06
-6.10774e-05
3.35585e-05
-7.52368e-05
7.0301e-05
-8.99702e-05
0.000147256
-7.62182e-05
0.000276268
-3.87822e-05
0.000369715
-3.77065e-07
0.000389737
2.27796e-05
0.00039181
2.53387e-05
0.000374064
6.95778e-07
0.000300473
-4.31669e-05
0.000223405
-8.46511e-05
0.000108277
-0.000106827
-1.48444e-05
-9.48752e-05
-0.000130518
-0.000117021
-0.000180982
-0.000174507
-0.000202527
-0.000221751
-0.000239862
-0.000188008
-0.00025876
-9.50437e-05
-0.000218238
-8.06128e-06
-0.000226644
0.00011567
-0.000460194
0.000261296
-0.000612978
-0.00050317
0.000274891
-6.14981e-05
7.69175e-05
-5.764e-05
8.13964e-05
-5.33236e-05
8.64006e-05
-4.89072e-05
9.16819e-05
-4.41294e-05
9.63907e-05
-3.83003e-05
0.00010039
-3.15816e-05
0.000102911
-2.44327e-05
0.00010184
-1.75842e-05
9.20204e-05
-1.44086e-05
5.89066e-05
-1.59392e-05
-1.66841e-05
-4.07323e-05
-0.000117926
-8.35186e-05
-0.000132666
-0.000149958
-0.000107447
-0.000195237
-9.21548e-05
-0.00019205
-7.28051e-05
-0.000166929
-6.10125e-05
-0.000130386
-5.47687e-05
-9.09327e-05
-4.84963e-05
-5.4639e-05
-4.34765e-05
-2.33511e-05
-3.93072e-05
-2.1598e-06
-3.63122e-05
1.0787e-05
-3.75469e-05
1.57434e-05
-3.93161e-05
1.83236e-05
-4.36568e-05
1.57801e-05
-5.74436e-05
1.33038e-05
-2.70865e-05
1.18902e-05
8.85461e-06
-2.04444e-06
6.36888e-05
1.27531e-06
0.000116702
5.59591e-06
0.000111156
2.01745e-06
4.11954e-05
1.3091e-05
2.56036e-05
3.52744e-05
5.6465e-05
5.00179e-05
8.3336e-05
4.45914e-05
8.42567e-05
6.69396e-06
5.98897e-05
-0.000137112
7.98133e-05
-0.000212742
0.000140949
-0.000205661
0.000110065
-0.000209718
5.00082e-05
-0.000209313
-2.98947e-05
-0.000203343
-0.00013936
-0.00013536
-0.000283276
-5.94101e-05
-0.000237171
-2.23963e-05
-0.000107247
-1.3156e-05
-3.78947e-05
-1.26286e-05
9.81128e-06
-1.25353e-05
3.42976e-05
-1.19862e-05
4.33742e-05
-9.72108e-06
4.36525e-05
-5.01988e-06
4.02843e-05
3.23224e-07
3.20283e-05
3.42541e-06
1.80637e-05
1.3895e-06
-2.95674e-06
-1.08819e-05
-3.11007e-05
-4.23506e-05
-7.93664e-05
-6.76553e-05
-0.000128394
-7.60555e-05
-0.000157233
-8.75317e-05
-0.000190071
-9.84923e-05
-0.00023881
-7.99687e-05
-0.000239023
-5.3187e-05
-0.000169571
-3.67177e-05
-7.69925e-05
-4.21632e-05
-4.58038e-05
-5.28956e-05
-2.82113e-05
-5.99883e-05
-1.53318e-05
-5.39975e-05
-1.36033e-05
-3.37009e-05
-2.82792e-05
-1.54786e-05
-4.2986e-05
-5.39071e-06
-6.49635e-05
2.33029e-06
-8.41692e-05
9.37055e-06
-9.5864e-05
1.43435e-05
-9.61443e-05
2.37133e-05
-9.02744e-05
0.000106214
-0.00015885
0.000265947
-0.000315208
0.000416542
-0.000423369
0.000506474
-0.000449645
0.000494391
-0.000427778
0.000351921
-0.000347637
0.000239942
-0.000264096
0.000153807
-0.000208173
9.76351e-05
-0.000178968
6.83871e-05
-0.000164664
5.68053e-05
-0.000158141
5.10576e-05
-0.000147202
3.34746e-05
-0.000124576
5.26101e-06
-7.53778e-05
-2.81161e-05
-1.52901e-05
-4.58747e-05
1.73313e-05
-6.25571e-05
3.6577e-05
-7.66164e-05
6.47375e-05
-8.235e-05
0.000118794
-6.83613e-05
0.000203215
-3.73028e-05
0.000269989
-7.95571e-06
0.000296454
9.85351e-06
0.000310825
1.03821e-05
0.000303345
-1.36205e-05
0.000244793
-5.28723e-05
0.000166787
-7.89038e-05
5.19839e-05
-5.64757e-05
-6.70968e-05
-5.95511e-05
-0.000138305
-9.28397e-05
-0.000164361
-0.000172059
-0.00017113
-0.000251637
-0.000191548
-0.000234822
-0.000200175
-0.000147643
-0.000157773
-6.7653e-05
-0.000169611
5.95925e-05
-0.000406839
0.000211057
-0.000595399
-0.000442003
0.000216261
-5.98133e-05
7.8338e-05
-5.5704e-05
8.42432e-05
-5.09299e-05
8.97596e-05
-4.61304e-05
9.46652e-05
-4.13781e-05
9.78895e-05
-3.68085e-05
9.90999e-05
-3.28444e-05
9.67421e-05
-3.11502e-05
8.80804e-05
-3.39325e-05
6.54328e-05
-4.07517e-05
1.37451e-05
-4.98151e-05
-7.75751e-05
-8.30715e-05
-0.000158088
-0.000124074
-0.000166426
-0.000186537
-0.000139467
-0.000214711
-0.000111589
-0.000200245
-7.9591e-05
-0.000171766
-5.71251e-05
-0.000134202
-4.25273e-05
-9.45009e-05
-3.15045e-05
-5.72538e-05
-2.4326e-05
-2.64106e-05
-2.10395e-05
-5.37815e-06
-2.08045e-05
8.29754e-06
-2.35769e-05
1.65013e-05
-2.68662e-05
2.21718e-05
-3.15774e-05
2.93912e-05
-4.96158e-05
3.1149e-05
-1.6488e-05
3.73246e-05
2.26456e-05
3.28519e-05
7.27762e-05
2.99087e-05
0.000126005
3.28558e-05
0.000144763
1.64366e-05
8.65825e-05
1.86571e-05
4.66345e-05
3.69144e-05
6.07678e-05
5.47056e-05
8.60154e-05
6.52467e-05
9.20221e-05
7.74031e-05
6.45239e-05
1.03801e-05
4.37035e-05
-0.000131573
7.47283e-05
-0.000175299
9.63548e-05
-0.000184247
6.74074e-05
-0.000195846
3.43237e-06
-0.000213129
-0.00011105
-0.00016774
-0.000283521
-8.10166e-05
-0.000259225
-3.57921e-05
-0.000123628
-2.15372e-05
-4.14554e-05
-1.88177e-05
3.31004e-06
-1.88845e-05
2.8989e-05
-1.64501e-05
3.74376e-05
-1.18335e-05
3.68857e-05
-5.48714e-06
3.28184e-05
5.62867e-07
2.50048e-05
3.74015e-06
1.23216e-05
2.95978e-06
-6.93973e-06
-7.59478e-06
-3.30568e-05
-4.19413e-05
-8.08125e-05
-7.58033e-05
-0.000132165
-9.25363e-05
-0.000162414
-0.000112873
-0.000196347
-0.000122995
-0.000236822
-9.70539e-05
-0.000208878
-6.21888e-05
-0.000129732
-4.68094e-05
-5.96822e-05
-5.27153e-05
-3.71124e-05
-6.19676e-05
-1.97075e-05
-6.41041e-05
-6.34227e-06
-5.30558e-05
-7.22105e-06
-3.0399e-05
-2.19912e-05
-1.60141e-05
-4.18065e-05
-5.74357e-06
-6.45153e-05
2.17905e-06
-8.25542e-05
9.39015e-06
-9.371e-05
1.55816e-05
-9.32688e-05
2.7929e-05
-9.38885e-05
0.00011173
-0.000161767
0.000272685
-0.00030886
0.000425031
-0.00041416
0.000520632
-0.000441474
0.000522363
-0.000419506
0.00037653
-0.00034422
0.000253618
-0.000264394
0.000156557
-0.000212271
9.49218e-05
-0.000185911
6.36641e-05
-0.000174117
5.14638e-05
-0.00016824
4.43054e-05
-0.000149668
2.37521e-05
-0.000105601
-4.13742e-06
-4.7594e-05
-2.659e-05
-5.07699e-06
-4.17878e-05
1.86748e-05
-5.59599e-05
3.52546e-05
-6.97054e-05
6.11892e-05
-7.35165e-05
0.000100415
-5.96857e-05
0.00015791
-3.66893e-05
0.000206595
-1.52449e-05
0.00023366
-1.98916e-06
0.000247705
-7.09199e-06
0.00023757
-3.17022e-05
0.000183207
-5.40201e-05
9.167e-05
-4.48723e-05
-3.17339e-05
-4.73797e-05
-0.000127068
-7.0526e-05
-0.000159754
-0.000108406
-0.000154557
-0.000181206
-0.00015515
-0.000278685
-0.000172503
-0.000273907
-0.000174376
-0.000188015
-0.000125829
-0.000107928
-0.000123881
1.01414e-05
-0.000344484
0.000157413
-0.000577718
-0.00038063
0.000161562
-5.75768e-05
7.5578e-05
-5.38179e-05
8.40631e-05
-4.91001e-05
9.06058e-05
-4.444e-05
9.51715e-05
-4.05728e-05
9.67143e-05
-3.82289e-05
9.42325e-05
-3.93759e-05
8.53915e-05
-4.6148e-05
6.52682e-05
-6.09109e-05
2.50912e-05
-7.48436e-05
-4.52142e-05
-9.45094e-05
-0.000129191
-0.000119725
-0.000193392
-0.000147663
-0.000199537
-0.000202611
-0.000164721
-0.000219106
-0.000120306
-0.00020136
-7.47005e-05
-0.000171262
-4.47531e-05
-0.000132193
-2.5685e-05
-9.2633e-05
-1.33417e-05
-5.54809e-05
-5.85732e-06
-2.58057e-05
-3.63413e-06
-6.06987e-06
-6.49011e-06
6.89078e-06
-1.01943e-05
1.57354e-05
-1.47482e-05
2.34018e-05
-2.1189e-05
4.30586e-05
-4.43479e-05
4.99529e-05
2.86414e-06
6.67218e-05
3.97222e-05
6.72861e-05
8.51981e-05
5.78125e-05
0.00013637
6.236e-05
0.000166428
4.31231e-05
0.000128199
3.50827e-05
7.50977e-05
4.51771e-05
7.1902e-05
6.13018e-05
8.95634e-05
7.38134e-05
9.58747e-05
8.43938e-05
7.21946e-05
0.000160588
4.97993e-05
1.50882e-05
1.47663e-05
-0.000106516
3.57462e-05
-0.00014188
5.6346e-05
-0.000156295
1.19103e-05
-0.000181034
-0.000101973
-0.000172601
-0.000265707
-9.33914e-05
-0.00029002
-3.49654e-05
-0.000193042
-2.37499e-05
-5.32732e-05
-2.20807e-05
-9.53131e-07
-2.18116e-05
2.41902e-05
-1.8547e-05
3.14917e-05
-1.2605e-05
3.0182e-05
-5.03726e-06
2.57791e-05
1.6382e-06
1.82577e-05
6.09394e-06
6.61796e-06
5.50227e-06
-1.02586e-05
-4.07925e-06
-3.47032e-05
-3.9554e-05
-8.13425e-05
-7.94114e-05
-0.000134478
-0.000103263
-0.000166242
-0.00013592
-0.000194849
-0.000147191
-0.000219552
-0.000111009
-0.000171416
-6.72391e-05
-9.66297e-05
-5.71151e-05
-4.99507e-05
-6.17399e-05
-3.03488e-05
-6.73008e-05
-1.2473e-05
-6.43914e-05
-3.23878e-07
-5.01377e-05
-3.11115e-06
-2.91294e-05
-1.93192e-05
-1.56925e-05
-4.12876e-05
-5.64755e-06
-6.39526e-05
2.21966e-06
-8.07464e-05
9.41687e-06
-9.11128e-05
1.67496e-05
-9.08965e-05
3.72593e-05
-0.000112736
0.00012447
-0.000207186
0.000286246
-0.000333441
0.000443984
-0.000420678
0.000541605
-0.000441544
0.000546053
-0.000416125
0.000399279
-0.000344905
0.000265084
-0.000269712
0.000157699
-0.000220949
8.96794e-05
-0.000197215
5.63489e-05
-0.000186818
4.40094e-05
-0.000178538
3.5518e-05
-0.000144116
1.37467e-05
-7.26704e-05
-8.05211e-06
-2.78182e-05
-2.08652e-05
-2.94924e-06
-3.04848e-05
1.25565e-05
-4.29231e-05
2.7045e-05
-5.54162e-05
5.13368e-05
-6.07077e-05
8.35183e-05
-5.2015e-05
0.000126195
-3.65642e-05
0.000163624
-2.29927e-05
0.000183922
-1.73248e-05
0.000191088
-2.85645e-05
0.000170674
-4.71463e-05
0.000102032
-5.34525e-05
-1.34415e-05
-7.2671e-05
-0.000116359
-8.81785e-05
-0.000160086
-0.000106409
-0.00014169
-0.000132253
-0.000133063
-0.000210019
-0.00014697
-0.000317793
-0.00017586
-0.000308059
-0.000173717
-0.000212897
-0.000117604
-0.000128765
-9.53625e-05
-2.67299e-05
-0.000289453
0.000109472
-0.000541982
-0.000311556
0.000110168
-5.3668e-05
6.79e-05
-5.1424e-05
7.82132e-05
-4.7436e-05
8.6907e-05
-4.40254e-05
9.08193e-05
-4.24184e-05
8.93038e-05
-4.42219e-05
7.98601e-05
-5.22813e-05
5.90356e-05
-6.96939e-05
2.46347e-05
-9.52948e-05
-2.67515e-05
-0.000118005
-9.59578e-05
-0.000129934
-0.000171787
-0.000145144
-0.000224525
-0.000163762
-0.000220279
-0.000210336
-0.000177461
-0.000221252
-0.000118134
-0.000200228
-6.32112e-05
-0.000167756
-2.90225e-05
-0.000126445
-7.37385e-06
-8.54385e-05
5.29759e-06
-4.82867e-05
1.33095e-05
-1.95949e-05
1.50092e-05
-1.20679e-06
1.09736e-05
1.09091e-05
5.16807e-06
1.6352e-05
2.33303e-06
1.98772e-05
-6.31663e-06
4.21477e-05
-1.88867e-05
6.98708e-05
2.56557e-05
9.79986e-05
5.32897e-05
0.000111986
9.19294e-05
9.82788e-05
0.000148277
8.54911e-05
0.000198944
6.36217e-05
0.00016687
5.16011e-05
0.000104233
5.55967e-05
8.68073e-05
6.80671e-05
9.54671e-05
7.96352e-05
0.000100536
8.77193e-05
8.29625e-05
0.000152582
4.84561e-05
0.000302082
2.47691e-05
2.77069e-05
7.55803e-06
-8.9855e-05
2.56609e-05
-9.84623e-05