/*--------------------------------*- C++ -*----------------------------------*\
  =========                 |
  \\      /  F ield         | OpenFOAM: The Open Source CFD Toolbox
   \\    /   O peration     | Website:  https://openfoam.org
    \\  /    A nd           | Version:  11
     \\/     M anipulation  |
\*---------------------------------------------------------------------------*/
FoamFile
{
    format      ascii;
    class       surfaceScalarField;
    location    "7.5";
    object      phi;
}
// * * * * * * * * * * * * * * * * * * * * * * * * * * * * * * * * * * * * * //

dimensions      [0 3 -1 0 0 0 0];

internalField   nonuniform List<scalar> 
18960
(
0.0887691
0.00045268
-0.0892218
0.0883586
0.000410473
0.0879916
0.00036708
0.087643
0.000348606
0.087345
0.000297907
0.0871153
0.000229764
0.0869075
0.000207746
0.0867402
0.000167294
0.0866113
0.000128973
0.0865399
7.14129e-05
0.086514
2.58687e-05
0.0865267
-1.26814e-05
0.0865659
-3.92304e-05
0.0866614
-9.55519e-05
0.0868081
-0.000146622
0.0870076
-0.000199553
0.0871979
-0.000190283
0.0873758
-0.000177846
0.0876086
-0.000232842
0.0879144
-0.000305849
0.0881201
-0.000205654
0.0881859
-6.58454e-05
0.0880855
0.000100456
0.0875333
0.000552193
0.0863508
0.00118246
0.0850752
0.00127565
0.0842915
0.00078367
0.0841253
0.000166256
0.0844474
-0.000322146
0.0854725
-0.00102505
0.0869106
-0.00143818
0.0885179
-0.00160725
0.0901135
-0.00159556
0.0918088
-0.0016953
0.0933115
-0.00150275
0.0946177
-0.00130623
0.0953151
-0.000697378
0.0956841
-0.000369028
0.0953754
0.00030878
-0.000348483
0.0957239
0.0888997
0.000774458
-0.0892215
0.0885899
0.000720235
0.0882912
0.000665792
0.0880278
0.000611976
0.0877859
0.000539797
0.0875504
0.000465271
0.0873825
0.000375706
0.0872528
0.000296983
0.0871459
0.000235842
0.0871082
0.000109126
0.0871414
-7.32194e-06
0.0871801
-5.14026e-05
0.0872813
-0.000140394
0.0874361
-0.000250334
0.0876485
-0.000359049
0.0879101
-0.000461209
0.0881725
-0.000452648
0.0884535
-0.000458843
0.0886606
-0.000439957
0.0887985
-0.000443725
0.088982
-0.000389157
0.0892372
-0.000321017
0.0894566
-0.000118929
0.0895754
0.000433385
0.0896781
0.0010797
0.0897462
0.0012076
0.0896195
0.000910337
0.0893888
0.000396958
0.0893483
-0.000281612
0.0895645
-0.00124132
0.0900972
-0.00197082
0.0910699
-0.00257998
0.0922438
-0.00276944
0.0935685
-0.00302
0.0948728
-0.00280709
0.0962435
-0.00267695
0.0974604
-0.00191424
0.0984853
-0.00139397
0.0993439
-0.000549782
-0.000313589
0.099309
0.0889036
0.00110161
-0.0892308
0.0885806
0.00104322
0.0882824
0.000964058
0.0880146
0.000879738
0.08776
0.000794461
0.0875558
0.000669377
0.0874107
0.00052082
0.0872806
0.000427135
0.0871921
0.000324331
0.0871938
0.000107396
0.0872365
-5.00261e-05
0.0873264
-0.000141287
0.0874184
-0.000232396
0.0875689
-0.000400772
0.0877919
-0.000582095
0.088065
-0.000734339
0.0883188
-0.000706438
0.0884737
-0.000613725
0.088574
-0.000540247
0.0887572
-0.000626927
0.0890631
-0.000695038
0.0894558
-0.000713793
0.0897771
-0.000440227
0.0899575
0.000253059
0.0900068
0.00103033
0.089868
0.00134644
0.0895192
0.00125911
0.0891283
0.000787837
0.0888925
-4.57949e-05
0.0890439
-0.00139268
0.08946
-0.00238692
0.090273
-0.00339302
0.0912419
-0.00373828
0.0923958
-0.00417395
0.093527
-0.00393825
0.0947806
-0.00393059
0.0959229
-0.00305652
0.0969422
-0.00241329
0.0976169
-0.00122444
-0.00105722
0.0983605
0.0888668
0.00143864
-0.0892038
0.0885777
0.00133236
0.0882843
0.00125743
0.088032
0.00113208
0.0878025
0.00102389
0.0876384
0.000833536
0.0874796
0.000679612
0.0873794
0.00052729
0.0873224
0.000381333
0.0872972
0.000132644
0.087283
-3.58228e-05
0.0873832
-0.000241563
0.0875085
-0.000357606
0.0876208
-0.000513142
0.0877762
-0.000737485
0.0880299
-0.000988039
0.0883151
-0.000991617
0.0885282
-0.000826821
0.0886843
-0.000696392
0.0888289
-0.000771505
0.08907
-0.000936146
0.0893131
-0.000956844
0.0895938
-0.00072094
0.0898707
-2.38093e-05
0.0900477
0.000853329
0.0901644
0.00122974
0.0902751
0.0011484
0.0903643
0.00069865
0.0904284
-0.000109908
0.0906139
-0.00157822
0.0909119
-0.0026849
0.0915156
-0.00399673
0.0922912
-0.00451391
0.0933441
-0.00522685
0.0944709
-0.00506504
0.0957909
-0.00525062
0.0971266
-0.00439222
0.0985987
-0.00388535
0.0996805
-0.00230629
-0.00145948
0.100083
0.0888629
0.00175812
-0.0891823
0.0885659
0.00162933
0.0882927
0.00153064
0.0880456
0.00137918
0.0878288
0.00124072
0.0876831
0.000979238
0.0875274
0.00083526
0.087438
0.000616672
0.0873609
0.000458439
0.0873411
0.000152486
0.0873849
-7.96386e-05
0.0874434
-0.0003001
0.0875558
-0.000469931
0.0877278
-0.000685202
0.0879227
-0.000932376
0.0880865
-0.00115181
0.0882721
-0.00117727
0.0885408
-0.00109549
0.0888265
-0.00098211
0.0890599
-0.00100493
0.0891364
-0.00101264
0.0891923
-0.00101275
0.0893136
-0.000842171
0.089696
-0.000406283
0.0901712
0.000378211
0.090539
0.000861868
0.0908041
0.000883279
0.0909069
0.000595932
0.0907923
4.61007e-06
0.0905526
-0.00133849
0.0905039
-0.00263616
0.0907116
-0.00420444
0.0912233
-0.00502561
0.0920192
-0.0060228
0.0929938
-0.00603963
0.0940399
-0.00629672
0.0951845
-0.00553674
0.0963615
-0.00506237
0.097698
-0.00364287
-0.0025485
0.0987871
0.0888583
0.00207093
-0.0891711
0.0885805
0.00190716
0.0883196
0.0017915
0.0880864
0.00161234
0.0878762
0.00145092
0.0877207
0.00113477
0.0875772
0.000978779
0.0874976
0.000696295
0.0874444
0.000511608
0.0874382
0.000158651
0.0874456
-8.70521e-05
0.0875532
-0.000407652
0.0876809
-0.00059768
0.0878072
-0.000811444
0.0879322
-0.00105741
0.0881192
-0.00133881
0.0883765
-0.00143459
0.0886451
-0.00136407
0.0888428
-0.00117975
0.0889683
-0.00113043
0.0891015
-0.0011459
0.0892554
-0.00116662
0.0894547
-0.00104148
0.0897458
-0.000697338
0.0900387
8.52694e-05
0.0903474
0.000553177
0.0905837
0.000646993
0.0908051
0.000374457
0.0909431
-0.000133385
0.0910357
-0.00143101
0.0911413
-0.00274182
0.0914339
-0.00449699
0.0918882
-0.00547994
0.0926292
-0.00676376
0.093623
-0.00703347
0.0948547
-0.00752839
0.0962747
-0.00695681
0.0977596
-0.00654719
0.0993927
-0.00527599
-0.00345279
0.100297
0.0888577
0.00237924
-0.089166
0.0885927
0.00217211
0.0883479
0.00203639
0.0881383
0.00182192
0.0879337
0.00165553
0.0877774
0.00129105
0.0876464
0.00110973
0.0875697
0.000773054
0.0875233
0.000557997
0.0874905
0.000191444
0.0875183
-0.000114872
0.087642
-0.000531352
0.0877674
-0.000723105
0.0878722
-0.000916189
0.0880031
-0.00118828
0.0881977
-0.00153341
0.0884623
-0.0016992
0.0887006
-0.00160239
0.0888916
-0.00137077
0.0890525
-0.00129138
0.0891945
-0.00128787
0.0893188
-0.00129094
0.0894663
-0.00118895
0.0896618
-0.000892831
0.0899515
-0.00020439
0.0902304
0.000274263
0.0905311
0.000346264
0.0908282
7.73348e-05
0.0910362
-0.000341324
0.090986
-0.00138083
0.0908947
-0.00265057
0.0908892
-0.00449143
0.0911268
-0.00571761
0.0915862
-0.0072231
0.0923601
-0.00780743
0.0933367
-0.00850496
0.0945353
-0.0081554
0.0957298
-0.00774173
0.0972696
-0.00681576
-0.00505089
0.0988677
0.0888676
0.00266759
-0.0891559
0.0886125
0.00242723
0.0883781
0.00227074
0.0881623
0.00203773
0.0879681
0.00184974
0.0878161
0.00144306
0.0877056
0.0012202
0.0876322
0.00084649
0.0875742
0.000615926
0.0875723
0.000193351
0.0876368
-0.000179306
0.0877225
-0.00061706
0.0878364
-0.000837011
0.0879727
-0.00105253
0.0881299
-0.00134542
0.0882827
-0.00168624
0.0884576
-0.00187408
0.0886986
-0.0018434
0.0889619
-0.00163405
0.0891548
-0.0014843
0.0893078
-0.00144085
0.0893639
-0.00134706
0.0894586
-0.00128367
0.0896642
-0.00109841
0.0899972
-0.000537352
0.0902692
2.20031e-06
0.0905085
0.000106946
0.0906736
-8.77665e-05
0.0907768
-0.000444477
0.090751
-0.00135502
0.0907607
-0.00266032
0.0908648
-0.00459546
0.0911545
-0.00600736
0.0916607
-0.00772925
0.0924339
-0.00858064
0.0934996
-0.00957073
0.094911
-0.00956674
0.0964579
-0.00928864
0.0982407
-0.00859853
-0.00654103
0.0997308
0.0888935
0.00295189
-0.0891778
0.0886376
0.00268306
0.0884165
0.00249189
0.0882173
0.00223697
0.0880654
0.00200157
0.0879029
0.00160555
0.087802
0.0013211
0.0877356
0.000912886
0.0877073
0.000644273
0.0877079
0.000192743
0.0877345
-0.00020588
0.0878089
-0.000691474
0.0879467
-0.000974813
0.088107
-0.00121282
0.0882251
-0.00146359
0.0883428
-0.00180394
0.0885369
-0.0020681
0.0887737
-0.00208025
0.0890278
-0.00188813
0.0892439
-0.00170043
0.0893799
-0.00157684
0.0894865
-0.00145364
0.089583
-0.00138023
0.0897156
-0.00123095
0.0899554
-0.000777178
0.0902152
-0.000257553
0.0904198
-9.76913e-05
0.0906037
-0.000271646
0.0907565
-0.000597263
0.0907068
-0.00130538
0.0905484
-0.00250191
0.0904037
-0.00445076
0.0904299
-0.00603356
0.0906566
-0.00795589
0.0912156
-0.00913971
0.0920296
-0.0103847
0.0933125
-0.0108497
0.0946318
-0.0106079
0.0964382
-0.010405
-0.00825654
0.0981537
0.0888784
0.00321715
-0.0891436
0.0886593
0.00290211
0.0884448
0.00270639
0.0882426
0.00243916
0.0880702
0.002174
0.0879358
0.00173998
0.0878289
0.00142801
0.0877806
0.000961197
0.087754
0.000670816
0.0877607
0.000186036
0.087807
-0.000252131
0.0878948
-0.000779345
0.0880175
-0.00109743
0.0881572
-0.00135254
0.0882929
-0.00159935
0.0884511
-0.00196209
0.0886046
-0.00222162
0.0888298
-0.00230544
0.0890742
-0.00213252
0.089288
-0.00191426
0.0895
-0.00178878
0.0896236
-0.00157731
0.08967
-0.00142662
0.0897384
-0.0012993
0.0899071
-0.000945941
0.0901461
-0.000496518
0.0903656
-0.000317146
0.0905327
-0.000438787
0.0906564
-0.000720967
0.0906333
-0.00128224
0.0903965
-0.00226511
0.0901007
-0.004155
0.0900025
-0.00593534
0.0901649
-0.00811835
0.0906231
-0.00959786
0.0914046
-0.0111662
0.0927497
-0.0121948
0.0942583
-0.0121165
0.0964658
-0.0126125
-0.010139
0.0983483
0.0889368
0.00348378
-0.0892034
0.0886925
0.00314634
0.0884899
0.00290907
0.0883232
0.00260582
0.0881641
0.00233311
0.0880393
0.00186474
0.087949
0.00151837
0.087887
0.00102321
0.0878913
0.000666505
0.0879011
0.000176233
0.0879374
-0.00028845
0.0879985
-0.000840412
0.0880901
-0.0011891
0.0882773
-0.00153967
0.0884431
-0.00176514
0.0885767
-0.00209576
0.0886846
-0.00232953
0.088867
-0.00248785
0.0891243
-0.00238979
0.0893972
-0.00218719
0.0896091
-0.00200067
0.0897454
-0.00171362
0.0897959
-0.00147706
0.0898466
-0.00134998
0.0899808
-0.0010802
0.0901768
-0.000692541
0.0903429
-0.000483264
0.0904891
-0.000584912
0.0906021
-0.000834027
0.0906231
-0.0013032
0.090483
-0.00212505
0.0900204
-0.0036924
0.0896157
-0.0055306
0.0893478
-0.00785046
0.0894264
-0.00967645
0.0897372
-0.011477
0.090773
-0.0132306
0.0919687
-0.0133122
0.0941121
-0.0147559
-0.0122422
0.0962152
0.0889135
0.00374543
-0.0891751
0.08871
0.00334983
0.088501
0.00311806
0.088331
0.00277577
0.088181
0.00248314
0.0880758
0.00196992
0.0879888
0.00160543
0.0879371
0.00107485
0.0879245
0.000679154
0.0879678
0.000132858
0.0879896
-0.000310201
0.0880558
-0.000906575
0.088163
-0.00129639
0.0883401
-0.0017167
0.0884925
-0.00191757
0.0886657
-0.00226895
0.0887871
-0.00245094
0.0889562
-0.00265694
0.0892025
-0.00263612
0.0894329
-0.00241752
0.0896645
-0.00223234
0.08983
-0.00187911
0.0899472
-0.00159422
0.0899868
-0.00138959
0.0900408
-0.00113416
0.0901845
-0.000836319
0.0903205
-0.000619193
0.0904169
-0.000681328
0.0904969
-0.00091408
0.0905508
-0.00135703
0.0904548
-0.00202907
0.0900117
-0.00324931
0.0894342
-0.00495312
0.08892
-0.00733627
0.0887615
-0.0095179
0.0887302
-0.0114457
0.0894959
-0.0139963
0.0905597
-0.014376
0.0925741
-0.0167704
-0.0147544
0.0950864
0.088993
0.00398981
-0.0892373
0.0887621
0.0035807
0.0885734
0.00330671
0.0884154
0.00293383
0.0882891
0.00260945
0.0881775
0.0020815
0.0881083
0.00167462
0.0880749
0.00110827
0.0880428
0.000711219
0.0880958
7.99341e-05
0.0881312
-0.000345652
0.0882036
-0.000979002
0.0882918
-0.00138451
0.0884478
-0.00187276
0.0886186
-0.00208839
0.0887827
-0.00243302
0.0889233
-0.00259151
0.0890941
-0.0028278
0.0892914
-0.00283335
0.0895266
-0.00265272
0.0897544
-0.00246022
0.0899851
-0.00210974
0.0901268
-0.00173596
0.0901922
-0.00145495
0.0902426
-0.00118461
0.0903289
-0.00092264
0.0904285
-0.000718801
0.09045
-0.00070279
0.090453
-0.000917095
0.0904281
-0.00133207
0.0903815
-0.00198254
0.0900955
-0.00296331
0.0895516
-0.0044092
0.0886974
-0.00648203
0.0882102
-0.00903076
0.0876461
-0.0108815
0.0877558
-0.014106
0.0883126
-0.0149328
0.0896279
-0.0180857
-0.0169202
0.0917937
0.0889624
0.00422629
-0.0891989
0.0887613
0.00378179
0.088581
0.00348698
0.0884311
0.00308383
0.0883093
0.00273117
0.0882175
0.00217332
0.0881444
0.00174769
0.0881253
0.00112744
0.0881152
0.000721253
0.0881454
4.97939e-05
0.088211
-0.000411268
0.0882968
-0.00106485
0.0883791
-0.00146683
0.0885249
-0.00201851
0.0886976
-0.00226109
0.088882
-0.00261746
0.0890597
-0.00276916
0.0891971
-0.00296517
0.0893837
-0.00302
0.0895945
-0.00286353
0.0898311
-0.00269681
0.0900425
-0.00232116
0.0902312
-0.00192467
0.0903428
-0.00156649
0.0904297
-0.0012715
0.090489
-0.000981963
0.0905435
-0.000773325
0.0905322
-0.000691443
0.0904797
-0.000864569
0.0903397
-0.00119216
0.0902341
-0.00187692
0.0899622
-0.00269143
0.0895454
-0.0039924
0.0886853
-0.00562189
0.0879484
-0.00829385
0.0871682
-0.0101014
0.0867116
-0.0136494
0.0867939
-0.0150151
0.087514
-0.0188058
-0.0188865
0.0894802
0.0890465
0.00447592
-0.0892961
0.0888352
0.00399312
0.0886593
0.00366289
0.0885302
0.00321296
0.0884135
0.00284787
0.0883483
0.0022385
0.0882674
0.00182855
0.0882608
0.00113402
0.0882616
0.000720496
0.0883157
-4.26295e-06
0.0883642
-0.000459802
0.0884344
-0.00113504
0.0885408
-0.00157327
0.0886545
-0.00213221
0.0888432
-0.00244974
0.0890255
-0.00279978
0.0892068
-0.00295046
0.089355
-0.00311338
0.0895179
-0.00318292
0.0897509
-0.00309647
0.0899621
-0.00290808
0.0902085
-0.00256751
0.0904123
-0.00212848
0.0905631
-0.00171735
0.0906889
-0.00139728
0.0907565
-0.00104959
0.0908084
-0.000825192
0.0907388
-0.000621813
0.0906503
-0.000776127
0.0904239
-0.000965687
0.0902084
-0.00166141
0.0898432
-0.0023263
0.0895205
-0.00366967
0.0887979
-0.00489932
0.0879086
-0.00740452
0.0869539
-0.00914665
0.0859731
-0.0126685
0.0853978
-0.0144398
0.0851495
-0.0185575
-0.0201273
0.0863903
0.0890077
0.00468973
-0.0892215
0.0888209
0.00417995
0.0886594
0.00382436
0.0885272
0.00334521
0.0884274
0.00294767
0.0883774
0.00228845
0.088326
0.00187993
0.0883065
0.00115354
0.0883167
0.000710328
0.088369
-5.65875e-05
0.0884287
-0.00051953
0.0885164
-0.00122271
0.0886269
-0.00168374
0.0887435
-0.00224882
0.0889343
-0.00264059
0.0890963
-0.00296179
0.0893063
-0.00316047
0.0894857
-0.00329278
0.08968
-0.00337715
0.0898622
-0.00327871
0.0900653
-0.00311121
0.0902855
-0.00278764
0.0905284
-0.00237137
0.0907064
-0.00189535
0.0908544
-0.00154531
0.0909292
-0.0011244
0.0910013
-0.000897306
0.0909824
-0.00060286
0.0908853
-0.000679058
0.0906428
-0.000723202
0.0903639
-0.00138251
0.08986
-0.00182234
0.0893753
-0.00318498
0.088687
-0.00421109
0.0877593
-0.0064768
0.0867581
-0.00814539
0.0855346
-0.011445
0.0845949
-0.0135001
0.0835591
-0.0175218
-0.0204498
0.0838816
0.0891204
0.00491671
-0.0893473
0.0889416
0.00435871
0.0887853
0.0039807
0.0886533
0.00347713
0.0885588
0.00304223
0.0884986
0.00234857
0.0884718
0.00190673
0.088488
0.00113741
0.0885063
0.000692009
0.0885354
-8.57321e-05
0.0886347
-0.000618812
0.0887124
-0.00130037
0.0888638
-0.00183519
0.0889542
-0.00233914
0.0890942
-0.00278065
0.0892504
-0.00311793
0.0894691
-0.00337919
0.0896792
-0.00350291
0.0898753
-0.00357328
0.0900795
-0.00348285
0.0902622
-0.00329397
0.0904733
-0.00299871
0.0907382
-0.0026362
0.0909348
-0.00209202
0.0911295
-0.00173999
0.091236
-0.00123087
0.0913466
-0.00100792
0.091334
-0.000590297
0.0912774
-0.000622459
0.0910059
-0.000451639
0.0907139
-0.00109053
0.0901705
-0.00127896
0.0895543
-0.00256878
0.0887693
-0.00342612
0.0877489
-0.00545641
0.0866994
-0.00709582
0.0852454
-0.00999109
0.0840028
-0.0122575
0.0825243
-0.0160433
-0.0195472
0.0816217
0.0890687
0.00510864
-0.0892606
0.0888987
0.00452865
0.0887609
0.00411853
0.0886521
0.00358594
0.0885674
0.00312693
0.088519
0.00239691
0.0884987
0.00192708
0.0885141
0.00112196
0.0885635
0.000642603
0.0885969
-0.000119145
0.088703
-0.00072491
0.0887847
-0.00138204
0.0889373
-0.00198781
0.0890557
-0.00245748
0.0892099
-0.0029349
0.0893631
-0.00327113
0.0895614
-0.00357745
0.0897803
-0.00372187
0.0900041
-0.00379709
0.0902139
-0.00369262
0.0904513
-0.00353141
0.0906337
-0.00318104
0.0908878
-0.00289038
0.0911063
-0.00231047
0.0913365
-0.00197024
0.0914633
-0.00135762
0.0915794
-0.00112408
0.0916046
-0.000615438
0.0915959
-0.00061381
0.0913875
-0.000243221
0.0910941
-0.000797072
0.0906189
-0.000803795
0.0899526
-0.00190253
0.0891326
-0.00260606
0.0879412
-0.00426504
0.0867624
-0.00591702
0.0851133
-0.00834196
0.0835695
-0.0107137
0.0817153
-0.0141891
-0.0178804
0.0800485
0.0892296
0.00530897
-0.0894299
0.0890604
0.0046978
0.0889316
0.00424734
0.0888442
0.00367334
0.0887645
0.00320671
0.0887183
0.00244304
0.0886966
0.00194883
0.088694
0.00112451
0.0887728
0.000563792
0.0888074
-0.000153665
0.0889296
-0.00084715
0.0890009
-0.0014533
0.0891525
-0.00213949
0.0892986
-0.00260354
0.0894616
-0.00309786
0.0896352
-0.00344473
0.0898241
-0.00376634
0.0900002
-0.00389802
0.0902048
-0.00400166
0.0904234
-0.00391119
0.0907
-0.00380808
0.0909245
-0.00340553
0.091184
-0.00314983
0.0914095
-0.00253601
0.0916422
-0.00220297
0.091824
-0.00153936
0.0919988
-0.0012989
0.092047
-0.000663688
0.0920865
-0.000653245
0.0919559
-0.000112646
0.0916621
-0.000503302
0.091223
-0.000364647
0.0905346
-0.00121411
0.0898086
-0.00188006
0.088578
-0.0030345
0.0873445
-0.00468347
0.0855701
-0.00656761
0.0837357
-0.00887927
0.0814842
-0.0119376
-0.0157149
0.0793188
0.089163
0.005488
-0.089342
0.0890361
0.00482461
0.0889065
0.00437703
0.0888274
0.00375234
0.0887794
0.0032548
0.0887237
0.00249872
0.0887451
0.00192743
0.0887409
0.00112866
0.0888295
0.000475183
0.0888634
-0.000187511
0.0890017
-0.000985427
0.0891044
-0.00155599
0.0892266
-0.00226178
0.0893879
-0.00276477
0.089574
-0.00328395
0.0897509
-0.00362164
0.0899718
-0.00398725
0.0901593
-0.00408553
0.0903958
-0.00423813
0.0905748
-0.00409021
0.0908528
-0.00408614
0.09109
-0.00364272
0.0913945
-0.00345427
0.0916474
-0.00278892
0.091937
-0.00249258
0.0921393
-0.00174161
0.0923369
-0.00149655
0.0924413
-0.000768045
0.0925156
-0.000727567
0.0924569
-5.39252e-05
0.0922421
-0.000288536
0.0919449
-6.74787e-05
0.0912201
-0.000489252
0.0905315
-0.00119151
0.0894166
-0.00191954
0.0881446
-0.00341153
0.0864066
-0.00482955
0.0845231
-0.00699576
0.0819864
-0.00940104
-0.0132475
0.079519
0.0894011
0.00564693
-0.08956
0.0892581
0.00496759
0.0891491
0.00448605
0.0890706
0.00383082
0.0890182
0.00330724
0.088982
0.00253492
0.0890117
0.00189767
0.0889966
0.00114372
0.0890846
0.000387256
0.0891497
-0.000252614
0.0892456
-0.00108131
0.0893831
-0.00169354
0.0895105
-0.00238913
0.089667
-0.0029213
0.0898471
-0.00346403
0.0900268
-0.00380141
0.0902387
-0.00419907
0.0904573
-0.00430417
0.090708
-0.00448883
0.0909202
-0.00430235
0.0911717
-0.00433771
0.0914249
-0.00389588
0.0917055
-0.00373486
0.091989
-0.00307246
0.0923103
-0.00281386
0.0925905
-0.00202178
0.0928563
-0.00176242
0.0930156
-0.000927302
0.0931194
-0.000831387
0.0932014
-0.000135887
0.0929715
-5.86451e-05
0.0928641
3.99447e-05
0.0922923
8.25075e-05
0.0916432
-0.000542401
0.090606
-0.000882369
0.0893458
-0.00215136
0.0876701
-0.00315376
0.0857953
-0.00512095
0.0832426
-0.00684833
-0.0104663
0.0804614
0.0893115
0.00578384
-0.0894484
0.0892134
0.00506568
0.0891324
0.00456707
0.0890751
0.00388807
0.0890572
0.00332516
0.0890266
0.00256555
0.0890695
0.00185473
0.0890702
0.00114306
0.0891553
0.000302163
0.089247
-0.000344301
0.0893423
-0.0011766
0.089466
-0.00181723
0.0896289
-0.00255204
0.0897797
-0.00307215
0.0899877
-0.00367204
0.0901608
-0.00397449
0.0903885
-0.00442676
0.090578
-0.00449371
0.0908633
-0.00477411
0.0910918
-0.0045308
0.0913879
-0.00463379
0.0916643
-0.00417231
0.0919913
-0.00406188
0.092288
-0.00336916
0.0926339
-0.00315977
0.0929336
-0.00232151
0.0932676
-0.00209642
0.0935567
-0.0012164
0.0936633
-0.000938007
0.0939272
-0.000399698
0.0937767
9.18201e-05
0.0937036
0.000113069
0.0933454
0.000440727
0.0928106
-7.66053e-06
0.0919787
-5.04711e-05
0.09087
-0.00104268
0.0893095
-0.00159324
0.0875305
-0.00334194
0.0850721
-0.00438993
-0.00761895
0.0822247
0.0896079
0.00592984
-0.0897539
0.0895085
0.005165
0.0894441
0.00463151
0.0893984
0.00393374
0.0893953
0.00332825
0.089365
0.00259588
0.0894231
0.00179663
0.0894496
0.00111659
0.0895237
0.000228089
0.0896007
-0.00042139
0.0897119
-0.0012878
0.0898372
-0.0019425
0.0899853
-0.00270013
0.0901312
-0.00321804
0.0903273
-0.00386812
0.090505
-0.0041522
0.0907421
-0.00466393
0.0909478
-0.00469938
0.0911909
-0.00501715
0.0914621
-0.00480207
0.0917391
-0.00491073
0.0920311
-0.0044643
0.0923784
-0.00440919
0.0927361
-0.00372694
0.0931001
-0.00352371
0.0935118
-0.00273323
0.0937929
-0.00237751
0.0942705
-0.001694
0.0944284
-0.00109589
0.0947381
-0.000709398
0.0948396
-9.73655e-06
0.0948395
0.000113202
0.0946581
0.000622127
0.0942826
0.000367853
0.0936311
0.000600987
0.0927867
-0.000198275
0.0914432
-0.000249712
0.0898673
-0.00176607
0.0876467
-0.00216933
-0.00504682
0.0850746
0.0895108
0.00601506
-0.089596
0.0894374
0.00523831
0.0893965
0.00467246
0.089345
0.00398522
0.0893871
0.00328614
0.0893852
0.00259779
0.0894632
0.00171866
0.089525
0.00105482
0.0896172
0.000135872
0.0897467
-0.000550954
0.0898655
-0.00140661
0.0899876
-0.0020646
0.0901661
-0.00287858
0.0902975
-0.00334938
0.0905146
-0.00408524
0.0906788
-0.00431646
0.090906
-0.00489112
0.0911226
-0.00491593
0.0913934
-0.00528798
0.0916522
-0.00506089
0.0919806
-0.00523913
0.0922978
-0.00478148
0.0926246
-0.00473595
0.093064
-0.00416635
0.0934076
-0.00386731
0.0939665
-0.00329221
0.0942903
-0.00270123
0.0948418
-0.00224551
0.0951753
-0.00142945
0.0955339
-0.00106799
0.0957994
-0.00027524
0.0959651
-5.24655e-05
0.0959636
0.000623672
0.095814
0.000517436
0.0953616
0.00105338
0.0947555
0.000407809
0.0937274
0.000778342
0.0924647
-0.000503386
0.0906547
-0.000359308
-0.0027339
0.0883418
0.0899093
0.0061209
-0.0900151
0.0898251
0.00532251
0.0898284
0.00466916
0.089788
0.00402558
0.0898259
0.0032482
0.0898455
0.00257823
0.0899013
0.00166283
0.0900062
0.000949957
0.0900915
5.05387e-05
0.0901971
-0.000656546
0.0903544
-0.00156385
0.0904594
-0.00216964
0.0906597
-0.00307887
0.0907913
-0.00348103
0.0909944
-0.00428831
0.0911834
-0.00450542
0.0914035
-0.00511129
0.0916074
-0.0051198
0.0918376
-0.00551812
0.0921315
-0.00535488
0.0923732
-0.00548081
0.0927769
-0.00518511
0.0930751
-0.0050342
0.0936005
-0.00469174
0.0939202
-0.00418696
0.094511
-0.00388306
0.0949581
-0.00314831
0.0955172
-0.00280463
0.0960445
-0.00195675
0.0965476
-0.00157106
0.0969722
-0.000699871
0.0973379
-0.000418191
0.0975031
0.000458546
0.0976131
0.000407417
0.0974416
0.00122486
0.097105
0.000744422
0.0964268
0.00145648
0.0954614
0.000462058
0.0940695
0.00103263
-0.000769306
0.0921049
0.0897938
0.00615
-0.0898229
0.0897311
0.00538525
0.0897499
0.00465032
0.0897531
0.00402244
0.0898217
0.00317956
0.0898966
0.00250337
0.0899712
0.00158824
0.0900505
0.000870606
0.0901915
-9.04265e-05
0.0902861
-0.00075113
0.090488
-0.00176576
0.0906127
-0.00229436
0.0908224
-0.00328857
0.0909951
-0.00365377
0.0911964
-0.00448958
0.0914308
-0.00473983
0.0916146
-0.00529503
0.0919122
-0.00541743
0.0920903
-0.00569621
0.0924569
-0.0057215
0.0926608
-0.00568475
0.0931197
-0.00564401
0.093382
-0.00529647
0.0939166
-0.00522631
0.0943544
-0.00462477
0.094925
-0.00445367
0.0955028
-0.00372616
0.0961388
-0.00344058
0.0967596
-0.0025776
0.0974286
-0.00223999
0.0980076
-0.0012789
0.0986139
-0.00102447
0.099043
2.93792e-05
0.0994035
4.68979e-05
0.099517
0.00111139
0.0994806
0.000780879
0.0991869
0.00175015
0.0986498
0.000999135
0.0978357
0.00184673
0.000829881
0.0962365
0.0903538
0.00615643
-0.0903602
0.0902973
0.00544171
0.0903309
0.00461667
0.0903523
0.00400108
0.0904044
0.0031274
0.0904559
0.00245193
0.0905904
0.00145376
0.0906605
0.000800493
0.0908276
-0.000257501
0.0909395
-0.000863028
0.0911142
-0.00194048
0.0912865
-0.00246667
0.0914039
-0.00340599
0.0916632
-0.00391309
0.0917723
-0.00459862
0.0920639
-0.00503142
0.0921678
-0.005399
0.0925019
-0.0057515
0.0926434
-0.00583766
0.0930229
-0.00610104
0.0932344
-0.00589621
0.0936693
-0.00607897
0.0940323
-0.00565944
0.0945142
-0.0057082
0.0950182
-0.00512882
0.0956183
-0.0050537
0.0962281
-0.00433599
0.0969516
-0.00416413
0.0976741
-0.00330003
0.0984854
-0.00305129
0.0992419
-0.00203548
0.100022
-0.00180458
0.1007
-0.000648602
0.101299
-0.000551768
0.101783
0.000626925
0.102103
0.0004607
0.102239
0.00161411
0.102047
0.00119202
0.101752
0.00214127
0.0016619
0.10092
0.0901684
0.00615849
-0.0901705
0.0901777
0.00543239
0.0902291
0.00456531
0.0902913
0.0039389
0.0903999
0.0030188
0.0904847
0.00236709
0.0906201
0.00131836
0.0907662
0.000654438
0.0909143
-0.000405632
0.0911345
-0.0010832
0.0912278
-0.00203384
0.0915189
-0.00275776
0.0916031
-0.00349018
0.091912
-0.00422199
0.0919906
-0.00467724
0.0922959
-0.00533667
0.0924235
-0.00552662
0.0927374
-0.00606537
0.0929268
-0.00602712
0.0932633
-0.00643755
0.0935619
-0.00619483
0.0939413
-0.00645828
0.0943512
-0.00606941
0.0948534
-0.00621034
0.0954092
-0.00568468
0.0960753
-0.00571974
0.0967936
-0.00505436
0.0976023
-0.00497278
0.0984651
-0.0041628
0.0993927
-0.00397892
0.100358
-0.00300091
0.101312
-0.00275861
0.102289
-0.00162547
0.103178
-0.00144093
0.104007
-0.000202163
0.104608
-0.000140404
0.105227
0.00099594
0.105441
0.000977991
0.105645
0.00193722
0.00191128
0.105395
0.0909701
0.00614568
-0.0909573
0.0909632
0.00543933
0.0910114
0.00451707
0.0910964
0.00385389
0.0911851
0.0029301
0.0913522
0.00220001
0.0914055
0.00126513
0.0916241
0.000435828
0.0916685
-0.000450067
0.0919429
-0.00135758
0.0920164
-0.00210733
0.0922981
-0.00303954
0.0923962
-0.0035882
0.0926642
-0.00449006
0.0927879
-0.00480091
0.0930274
-0.00557613
0.0931901
-0.0056893
0.0934412
-0.00631655
0.0936527
-0.00623859
0.0939397
-0.00672453
0.0942317
-0.00648682
0.0946106
-0.00683717
0.095012
-0.00647086
0.0955145
-0.00671285
0.0960858
-0.00625596
0.0967314
-0.00636539
0.0975022
-0.00582511
0.0983438
-0.00581438
0.099345
-0.00516402
0.100364
-0.00499774
0.10155
-0.00418715
0.102709
-0.00391708
0.103969
-0.00288637
0.105125
-0.00259683
0.106347
-0.00142402
0.107362
-0.00115499
0.108375
-1.7744e-05
0.109098
0.000255725
0.109833
0.00120171
0.00169558
0.110049
0.0907373
0.00608166
-0.0906733
0.0908777
0.00529892
0.0909402
0.0044546
0.0911071
0.00368702
0.0911908
0.00284637
0.0914485
0.00194229
0.0915454
0.00116822
0.0918207
0.000160564
0.091922
-0.000551365
0.0922021
-0.00163763
0.092341
-0.00224627
0.0925971
-0.00329564
0.0927592
-0.00375033
0.0929622
-0.00469299
0.0931201
-0.00495887
0.093329
-0.00578502
0.0935144
-0.00587473
0.0937283
-0.00653039
0.0939489
-0.00645919
0.0942039
-0.00697955
0.0944917
-0.00677461
0.0948226
-0.00716811
0.0952563
-0.00690452
0.095704
-0.0071606
0.0963064
-0.00685832
0.0969647
-0.00702363
0.0978124
-0.00667284
0.098694
-0.00669596
0.0997971
-0.00626713
0.100926
-0.00612704
0.102325
-0.00558546
0.103642
-0.00523476
0.105238
-0.00448246
0.106686
-0.00404467
0.108344
-0.00308137
0.10974
-0.00255092
0.111295
-0.00157365
0.112494
-0.000942312
0.11379
-9.43897e-05
0.00076778
0.114717
0.0919246
0.00605188
-0.0918949
0.0920971
0.00512647
0.0921592
0.00439254
0.0923474
0.00349878
0.0924041
0.00278965
0.0925803
0.00176607
0.0927225
0.00102605
0.0929939
-0.000110882
0.0931917
-0.000749091
0.0934058
-0.00185175
0.0935664
-0.00240686
0.0937743
-0.00350359
0.0939364
-0.0039124
0.0941193
-0.00487586
0.094281
-0.00512063
0.0944422
-0.00594619
0.09462
-0.00605255
0.0947578
-0.00666818
0.0949766
-0.00667794
0.0951029
-0.00710593
0.0954328
-0.00710447
0.0956378
-0.00737314
0.0960693
-0.007336
0.0964219
-0.00751319
0.0970415
-0.00747793
0.0975885
-0.00757063
0.0984729
-0.00755726
0.0993095
-0.00753254
0.100494
-0.00745142
0.101652
-0.00728555
0.103165
-0.00709853
0.104633
-0.00670215
0.106458
-0.00630722
0.108196
-0.00578316
0.11025
-0.00513579
0.112074
-0.00437453
0.11412
-0.00362
0.11591
-0.00273144
0.117823
-0.00200802
-0.000648676
0.11924
0.0917392
0.0059066
-0.0915939
0.0919742
0.00489145
0.0921704
0.00419642
0.0924573
0.00321183
0.0927133
0.00253364
0.0930113
0.00146811
0.0932157
0.000821582
0.0934236
-0.000318753
0.0936259
-0.00095141
0.0938929
-0.00211871
0.094139
-0.00265293
0.0943132
-0.0036778
0.0945165
-0.00411576
0.0946511
-0.00501045
0.0948575
-0.00532697
0.0949322
-0.00602097
0.0951256
-0.00624591
0.0951669
-0.0067095
0.0954058
-0.00691685
0.0954664
-0.00716653
0.0957695
-0.00740753
0.0958988
-0.0075025
0.0963372
-0.00777435
0.0966426
-0.00781862
0.0972363
-0.00807157
0.0977625
-0.00809689
0.098602
-0.0083967
0.0993963
-0.00832684
0.100558
-0.00861302
0.101736
-0.00846373
0.103272
-0.00863422
0.104886
-0.00831659
0.106838
-0.00825902
0.108833
-0.00777772
0.111169
-0.00747195
0.113527
-0.00673325
0.1161
-0.00619298
0.118557
-0.00518806
0.121115
-0.00456626
-0.00279854
0.123265
0.0935834
0.00584886
-0.0935256
0.0937365
0.00473829
0.0938612
0.00407169
0.0940324
0.0030407
0.0942027
0.00236333
0.0944381
0.0012327
0.0947722
0.000487479
0.0950378
-0.000584338
0.0953653
-0.00127892
0.0955146
-0.002268
0.0958282
-0.00296661
0.0958879
-0.00373748
0.0961894
-0.00441725
0.0961942
-0.00501525
0.0964424
-0.00557515
0.0963891
-0.00596766
0.0966072
-0.00646405
0.0965522
-0.00665449
0.0967627
-0.00712731
0.0967638
-0.00716763
0.0969926
-0.00763638
0.0970972
-0.0076071
0.0974034
-0.00808053
0.0976733
-0.00808852
0.0981502
-0.00854845
0.0986504
-0.00859706
0.0993554
-0.0091017
0.100155
-0.00912649
0.101179
-0.00963651
0.102321
-0.00960641
0.103748
-0.0100606
0.105357
-0.00992565
0.107351
-0.0102538
0.109491
-0.00991784
0.112056
-0.0100362
0.114769
-0.00944637
0.117876
-0.00930057
0.121071
-0.00838212
0.124503
-0.00799865
-0.00613538
0.12784
0.0938343
0.0053556
-0.0933411
0.0942993
0.00427326
0.0948091
0.00356191
0.0952296
0.00262027
0.0957
0.00189289
0.0959411
0.000991571
0.0962386
0.000190004
0.0963517
-0.000697386
0.0966901
-0.00161735
0.0967914
-0.00236934
0.0970339
-0.00320905
0.0971051
-0.00380871
0.0972375
-0.00454962
0.0972262
-0.00500393
0.0972958
-0.00564482
0.0972484
-0.00592024
0.0972678
-0.00648346
0.0972325