FoamFile
{
    version     2.0;
    format      ascii;
    class       volVectorField;
    object      U;
}
dimensions      [0 1 -1 0 0 0 0];

internalField   nonuniform List<vector>
16384
(
(-0.026883170365995544 0.01681875268392119 0.0)
(-0.022215712606818677 0.032989294861156745 0.0)
(-0.021232946739775705 0.042865895381837736 0.0)
(-0.01576037207796422 0.0586873710741523 0.0)
(-0.01515761568347085 0.062067242230923754 0.0)
(-0.009850343206939503 0.07735353521108543 0.0)
(-0.009048700402174903 0.07398033823693681 0.0)
(-0.003500558409221526 0.08848021920189919 0.0)
(-0.002699858462150935 0.07799568925766183 0.0)
(0.0050993177742592625 0.09161217335670345 0.0)
(0.005924508698203992 0.07312347438699066 0.0)
(0.01543489372472076 0.0858867218753468 0.0)
(0.015814969719160844 0.06177187495525405 0.0)
(0.006756279216237924 0.0741368565754006 0.0)
(0.0066863703913255185 0.05495076568973233 0.0)
(-0.0005058495670580821 0.06739989176218147 0.0)
(-0.0006324181247143839 0.05532195233242219 0.0)
(-0.005060901930940582 0.06799337069296629 0.0)
(-0.005236668521952724 0.061650779063587006 0.0)
(-0.00877677435968866 0.07458465579418964 0.0)
(-0.0088937996234054 0.0729520242984643 0.0)
(-0.00997424348296942 0.08610528289048117 0.0)
(-0.010007639389936162 0.08778330029295305 0.0)
(-0.009028026183609249 0.10112140508510663 0.0)
(-0.009125243077083615 0.10699595461182748 0.0)
(-0.01944279614157931 0.12065168939191669 0.0)
(-0.019693376139769354 0.1371166923570507 0.0)
(-0.028573564447048415 0.15127694111307557 0.0)
(-0.028711333338143272 0.18021247148367087 0.0)
(-0.03771320650609832 0.19488104558503114 0.0)
(-0.03796426656879764 0.23750257068130906 0.0)
(-0.04894313308067114 0.25277443781111975 0.0)
(-0.049239263283565905 0.3117480305833968 0.0)
(-0.07061681551593973 0.3277047120651866 0.0)
(-0.07123409382409487 0.4086973546344999 0.0)
(-0.10195043751367273 0.42532799564371593 0.0)
(-0.10163693539610692 0.5232565250544938 0.0)
(-0.0715808431939453 0.5394455947269772 0.0)
(-0.07033980645025574 0.6214619710740832 0.0)
(-0.04967060429329357 0.6361005414570716 0.0)
(-0.0487783900761808 0.6971574127445421 0.0)
(-0.03860913942312487 0.7102605256379111 0.0)
(-0.037789204045431186 0.7560895079889688 0.0)
(-0.029702157396949768 0.7677687824753662 0.0)
(-0.029033531632957854 0.8010939562582436 0.0)
(-0.021292279316086012 0.8114769378426359 0.0)
(-0.020532883376950507 0.8335624817999695 0.0)
(-0.011491273453427417 0.8426660467578022 0.0)
(-0.010881107611787838 0.8551458201774204 0.0)
(-0.011892652075010973 0.8631340827517211 0.0)
(-0.011307445956882111 0.8715432266569964 0.0)
(-0.01021642486209328 0.8784936223912535 0.0)
(-0.009519425716892658 0.8832295566971675 0.0)
(-0.005844646951037029 0.8890477914042154 0.0)
(-0.005009643276265071 0.8882975004870108 0.0)
(-1.5300365771167877e-05 0.892846043816796 0.0)
(0.0008633547443292982 0.8849865766380575 0.0)
(0.009050688359450595 0.8881959291154916 0.0)
(0.010006207338563902 0.8712129571236988 0.0)
(0.020643419497271793 0.8730980511150257 0.0)
(0.021276688568871393 0.8482513383932317 0.0)
(0.015580305152113456 0.8491892321382662 0.0)
(0.015885979458180724 0.8253767259887753 0.0)
(0.012343345148296693 0.8257744600607781 0.0)
(0.01262688481690254 0.8046716974993701 0.0)
(0.01154174438519407 0.8046684733530818 0.0)
(0.01175390543145801 0.7851419741551384 0.0)
(0.01091415740867034 0.7848453271654032 0.0)
(0.011061873791998036 0.7665524321861805 0.0)
(0.010172867296235965 0.7660667507688637 0.0)
(0.010227300295324673 0.7489685454526255 0.0)
(0.008879333715166325 0.7484046926292568 0.0)
(0.008877204562175329 0.7324783820550083 0.0)
(0.00898452301453286 0.7319143427941344 0.0)
(0.008925119825902387 0.7165251470662064 0.0)
(0.008389135514575284 0.7160314819997659 0.0)
(0.008253068851182113 0.7014317933040857 0.0)
(0.0067497541792345414 0.701089508220352 0.0)
(0.006558554335089395 0.6880490561863993 0.0)
(0.004298073167183121 0.6879108172902838 0.0)
(0.004091724091388284 0.6772272683630882 0.0)
(-0.0013359980450321316 0.6772860359566122 0.0)
(-0.0015396970934957862 0.6702608951949421 0.0)
(-0.009536878078561413 0.6703776834466743 0.0)
(-0.009292980151209463 0.6640295700675023 0.0)
(0.006137188267083839 0.6636255309401282 0.0)
(0.006929548507076077 0.6442383270977313 0.0)
(0.02050094767679896 0.6426631268035844 0.0)
(0.02131980078763245 0.6061708227935848 0.0)
(0.034351563045714316 0.6031895217971632 0.0)
(0.0353955470894539 0.5481727258980194 0.0)
(0.05069992325681509 0.5435588326522076 0.0)
(0.05178481213791918 0.4669758649011732 0.0)
(0.07866791426542125 0.460637936091024 0.0)
(0.08002616420566917 0.35632165303320207 0.0)
(0.11708108454524667 0.34838034155007 0.0)
(0.11719405914935827 0.22283791795249536 0.0)
(0.08298717451723463 0.21477615790833607 0.0)
(0.0818249434854817 0.10697288641496533 0.0)
(0.057648071410843646 0.10031066015776631 0.0)
(0.056697929919406094 0.01695685080661512 0.0)
(0.04391443640491185 0.011913428528389065 0.0)
(0.042884228810016294 -0.052809952482112704 0.0)
(0.03202006441663684 -0.0561570536963657 0.0)
(0.03106249695252135 -0.10478339379964768 0.0)
(0.020099158947610735 -0.10643767010951616 0.0)
(0.01897323554353418 -0.1399888680897426 0.0)
(0.0063061422524593675 -0.1398911301542333 0.0)
(0.005386956102425083 -0.16042955244912988 0.0)
(0.006585094446066042 -0.1587887639191949 0.0)
(0.005742061506624841 -0.17398833403383945 0.0)
(0.004482518540881673 -0.17094569438337312 0.0)
(0.00354519042811857 -0.18166668765239993 0.0)
(-0.0008930508533410173 -0.17715449796416327 0.0)
(-0.0019738949383150935 -0.18128011009862788 0.0)
(-0.007926697195829335 -0.17516861971457526 0.0)
(-0.009018526136238306 -0.17080002277027523 0.0)
(-0.019127962257333368 -0.16304205307573086 0.0)
(-0.02031905886751361 -0.14761612433157262 0.0)
(-0.03366079209927634 -0.13823849190721096 0.0)
(-0.03439651876236917 -0.11344532738013739 0.0)
(-0.025939528102730838 -0.10293961275049891 0.0)
(-0.026302954188435965 -0.08059548681412614 0.0)
(-0.020840509062330845 -0.06941764746607852 0.0)
(-0.021205771079794333 -0.05153418328990437 0.0)
(-0.019277039084977923 -0.0397404960347637 0.0)
(-0.019791426560830012 -0.02445064050396339 0.0)
(-0.01787985708229607 -0.011886651055830385 0.0)
(-0.04797851754034995 0.01879716399195419 0.0)
(-0.03920566606941914 0.03715926803158667 0.0)
(-0.0379952121444981 0.04844804555975866 0.0)
(-0.028284970002914963 0.06635859614241388 0.0)
(-0.027333126206439753 0.07029289842863629 0.0)
(-0.017620982354773662 0.08735051842612476 0.0)
(-0.016306381038758068 0.08353081182957083 0.0)
(-0.006119679737396239 0.09939653582919297 0.0)
(-0.004742760286517978 0.08753946202864901 0.0)
(0.008277351728790272 0.1021308071879047 0.0)
(0.009659089314157975 0.08165911996705925 0.0)
(0.02283928154214971 0.09508643243048122 0.0)
(0.023479137223179534 0.06884336270351057 0.0)
(0.011205532262092989 0.08167038280160778 0.0)
(0.011080737941856322 0.06068125335221588 0.0)
(-0.0007479660962443749 0.07349730570718431 0.0)
(-0.0010195308123518917 0.06037503747869266 0.0)
(-0.009189050376334277 0.07339895231796988 0.0)
(-0.00953601253934752 0.06700648453724924 0.0)
(-0.016148317290013942 0.08031342498533497 0.0)
(-0.016408440307645333 0.07953773238747106 0.0)
(-0.019648344472077237 0.09306786729764617 0.0)
(-0.019802311313617656 0.09610778878095873 0.0)
(-0.021559999711623746 0.10976123171634297 0.0)
(-0.02186439935738457 0.11681082514329826 0.0)
(-0.03908986217433342 0.13061942088175824 0.0)
(-0.03966952506164452 0.14710945357142932 0.0)
(-0.05668395222690849 0.16115541346816287 0.0)
(-0.05715329007592207 0.18827251172433468 0.0)
(-0.0750822235427921 0.20248768912302964 0.0)
(-0.07572679780382621 0.24106254977953365 0.0)
(-0.09737174282014696 0.2555195577173506 0.0)
(-0.09811456170999616 0.3082318066518396 0.0)
(-0.13385463484076596 0.3230544375024449 0.0)
(-0.13491152148291174 0.3959814003195785 0.0)
(-0.17667475552132486 0.41126404789952603 0.0)
(-0.176073226553808 0.5002530990258012 0.0)
(-0.13563800205383836 0.5150459139853746 0.0)
(-0.13338561020383913 0.5889113726911704 0.0)
(-0.09904500386668529 0.6022758372734212 0.0)
(-0.09715124596414855 0.6569507634593579 0.0)
(-0.07704919280128043 0.6690205888885824 0.0)
(-0.07530052030438461 0.7107395954279611 0.0)
(-0.05905752625919925 0.7216891245131056 0.0)
(-0.05754335838203228 0.753311181127223 0.0)
(-0.042470753452418096 0.7632698768674915 0.0)
(-0.04087682340731097 0.7858060373893102 0.0)
(-0.025569589791356543 0.7947435840465769 0.0)
(-0.024231937798445076 0.8092662182551631 0.0)
(-0.022588304040614994 0.8172645024840939 0.0)
(-0.021326121199272328 0.8284810010484175 0.0)
(-0.017839149774141957 0.8355340160972007 0.0)
(-0.01640366797126425 0.8432614628374426 0.0)
(-0.009150350388036358 0.8492164331279077 0.0)
(-0.007487156164237797 0.8512973777353614 0.0)
(0.0021443392831655087 0.8559866999900732 0.0)
(0.0038965178550468085 0.8506392488179634 0.0)
(0.018034904297240875 0.8539814714326392 0.0)
(0.019854206698296076 0.8391605031339855 0.0)
(0.035620756481255574 0.8411639066568491 0.0)
(0.03687186253754521 0.8180927707962217 0.0)
(0.030500889906226472 0.8191213621446739 0.0)
(0.031158897971647496 0.7965281316830308 0.0)
(0.025848760101352133 0.7969736989557101 0.0)
(0.026393835614722996 0.7765020346012245 0.0)
(0.02428053476247784 0.7764944151073575 0.0)
(0.02468408879617402 0.7570427634598056 0.0)
(0.02303968904976345 0.7566865523563501 0.0)
(0.023310708252317354 0.7379801027736479 0.0)
(0.02164243310464354 0.7373869255626051 0.0)
(0.021747855518054162 0.7195148003330131 0.0)
(0.019635488889860525 0.7188137157168554 0.0)
(0.019633481345775906 0.701940365887614 0.0)
(0.019390452109371917 0.7012371587769582 0.0)
(0.019285145448630983 0.6849798594972647 0.0)
(0.018234183817455295 0.6843758216265076 0.0)
(0.017999375465148727 0.6691888469636345 0.0)
(0.015479006499485838 0.6687924390892678 0.0)
(0.015154712009526474 0.6556031114071535 0.0)
(0.011356877030337748 0.6554900819423454 0.0)
(0.011022025142175979 0.6452193462989843 0.0)
(0.0032080073110477983 0.6454029683970838 0.0)
(0.0029664627186693914 0.6394410513203268 0.0)
(-0.00547232769185034 0.6398026108108343 0.0)
(-0.0048887060168425174 0.6353008196291948 0.0)
(0.019046561894860797 0.6352865315830111 0.0)
(0.020602843688608218 0.6188220338787179 0.0)
(0.045331507176767684 0.6178042683482239 0.0)
(0.04706752750906712 0.5854101941151325 0.0)
(0.0721823907339224 0.5831619105897029 0.0)
(0.07429127723787542 0.5334069552851327 0.0)
(0.10366277241247314 0.5296927409394488 0.0)
(0.10587221012972668 0.4594022849112227 0.0)
(0.15084511741899165 0.4540929849622627 0.0)
(0.153249217083052 0.3568382107178792 0.0)
(0.20414946180785895 0.349984962862351 0.0)
(0.204341002244324 0.23167083217707873 0.0)
(0.15856327576548512 0.22464582219842874 0.0)
(0.1564881609604309 0.12296964077414461 0.0)
(0.11636346578674908 0.11718155509858617 0.0)
(0.11435741560748362 0.038253018813589765 0.0)
(0.0894217212098858 0.03385261992726078 0.0)
(0.08728504231144738 -0.02837711891306586 0.0)
(0.0659211475226447 -0.03134218986475194 0.0)
(0.0638593892196575 -0.07942307132478006 0.0)
(0.043062881946115794 -0.08094192396440204 0.0)
(0.04079415985429056 -0.11565911830152843 0.0)
(0.01963913159556584 -0.11562241688619347 0.0)
(0.01771344895208595 -0.1385783760687927 0.0)
(0.01542917653235975 -0.1371174556308926 0.0)
(0.013671748276106052 -0.15528450504622054 0.0)
(0.009490932406528723 -0.15246450728269811 0.0)
(0.007595050526765372 -0.1662454347101338 0.0)
(-0.0011452065206418362 -0.16194668239128043 0.0)
(-0.0032692377493939266 -0.1689657438817089 0.0)
(-0.014762617667326694 -0.16303484967045728 0.0)
(-0.016928407279231002 -0.1612793015390296 0.0)
(-0.03425028719421481 -0.1536672898448518 0.0)
(-0.03649785263569242 -0.1405766832060934 0.0)
(-0.05594961881312898 -0.1313228512057306 0.0)
(-0.05742116761195165 -0.10857663064457687 0.0)
(-0.047366725279142 -0.09818849981575264 0.0)
(-0.04816856289502037 -0.07744006394446178 0.0)
(-0.03979653046419189 -0.06640030119817683 0.0)
(-0.04056349593922456 -0.049675437543180344 0.0)
(-0.03694301254210847 -0.03808470098355705 0.0)
(-0.03795985046186763 -0.02359782365333161 0.0)
(-0.03427026108967745 -0.011361849254572507 0.0)
(-0.0747918867617847 0.016788991645489495 0.0)
(-0.06089689186740382 0.03360081827581393 0.0)
(-0.059325050084518945 0.043786028935377586 0.0)
(-0.04425816455708107 0.060664273039818126 0.0)
(-0.042542714066588425 0.06445029715754766 0.0)
(-0.027119917473279534 0.08073696433508915 0.0)
(-0.02476338185198893 0.07761356600923922 0.0)
(-0.00873005948118593 0.09291495742077967 0.0)
(-0.006266863386829235 0.08278186463363339 0.0)
(0.012770542148407097 0.09698226639827139 0.0)
(0.015114276703837519 0.0801160939308626 0.0)
(0.032153742469162284 0.09333508108731482 0.0)
(0.03331693233287433 0.07263037494643505 0.0)
(0.01740419247439694 0.08532915591563978 0.0)
(0.017348591663803703 0.0680751843693437 0.0)
(-0.00010637439229465272 0.0807473477672164 0.0)
(-0.0005041108070924634 0.0696616414981341 0.0)
(-0.013711983412026568 0.08254331725490038 0.0)
(-0.01425697222277691 0.07751400843268656 0.0)
(-0.02512446518111689 0.0906912199627609 0.0)
(-0.0255326596965237 0.09110894070226244 0.0)
(-0.031590778568066406 0.10454916058144409 0.0)
(-0.031785036465476035 0.10940869502743557 0.0)
(-0.0360362572521793 0.1230429857794192 0.0)
(-0.03633587937177926 0.13275013504918204 0.0)
(-0.05896899622768284 0.14659360289690443 0.0)
(-0.05952923061288402 0.16443972410500798 0.0)
(-0.08227300092705192 0.17853747962592495 0.0)
(-0.08263152320493662 0.20571633496971922 0.0)
(-0.10658066734420998 0.22002957386200017 0.0)
(-0.10714720842938985 0.2573759119129029 0.0)
(-0.13656906285063528 0.2719441974915287 0.0)
(-0.1373421679252216 0.32127161139297183 0.0)
(-0.1850909081308071 0.33616043792011163 0.0)
(-0.18630830315150806 0.4002757400355058 0.0)
(-0.23797851007663548 0.4154343149969472 0.0)
(-0.2370259948034897 0.48958823907438265 0.0)
(-0.18724035802968234 0.5042697861834426 0.0)
(-0.18413596093814613 0.5692751535533033 0.0)
(-0.13843167080886626 0.5827441233626882 0.0)
(-0.13585052977042222 0.6339240851335639 0.0)
(-0.10877958096082958 0.6461644897295172 0.0)
(-0.10649815838886006 0.6864524343330668 0.0)
(-0.08523909426929399 0.6975759922853834 0.0)
(-0.08327787279805902 0.7289190998256018 0.0)
(-0.06368357743808027 0.7390142858056153 0.0)
(-0.06159203727108934 0.7623388597898032 0.0)
(-0.042096348701616784 0.7713984310152022 0.0)
(-0.040260864203595544 0.7877501172271539 0.0)
(-0.036959375841029304 0.7958178188191868 0.0)
(-0.035141014933786366 0.8079558154598414 0.0)
(-0.029498336959988675 0.8150136107721627 0.0)
(-0.027368879018056284 0.8229491300315287 0.0)
(-0.016327932717039976 0.8288750323419358 0.0)
(-0.013841822701978264 0.831185352674893 0.0)
(0.0008432644149162135 0.8358495169938934 0.0)
(0.003479283890016735 0.8312551053891497 0.0)
(0.024025333159581393 0.8346013726298774 0.0)
(0.026727414080519454 0.8220554634046304 0.0)
(0.0481274161975902 0.8241351016121397 0.0)
(0.050032380492739205 0.8050433893512177 0.0)
(0.04371254362602421 0.8061600007273451 0.0)
(0.04477880438334567 0.786043040592256 0.0)
(0.03846847229973834 0.7865301296661904 0.0)
(0.03934321862488873 0.7671622148645401 0.0)
(0.03692741642938929 0.767179798038715 0.0)
(0.03759433409084503 0.7483104569097172 0.0)
(0.03578242965544297 0.7479758165677204 0.0)
(0.036239281147125116 0.7295518194302107 0.0)
(0.034261853391768335 0.7289797044119332 0.0)
(0.03445705743913927 0.7111293317509778 0.0)
(0.03180613431066774 0.7104408594967039 0.0)
(0.03180677406658669 0.6933072462210177 0.0)
(0.031110421245759676 0.6926061648725657 0.0)
(0.030921646418148235 0.6760634885060129 0.0)
(0.028989365734466487 0.6754454278714785 0.0)
(0.028582434507000126 0.6598304188671248 0.0)
(0.024473081266337345 0.6593868509359165 0.0)
(0.02391219895478729 0.6453092686483183 0.0)
(0.017844256562452865 0.645095112297062 0.0)
(0.0172509094725678 0.633050889287873 0.0)
(0.006202100388192174 0.6330501248691354 0.0)
(0.005766272384063038 0.6232782155992512 0.0)
(-0.004135721831020957 0.6233315842749977 0.0)
(-0.003401510456894684 0.6128356051388659 0.0)
(0.027634655860192474 0.6124706973914523 0.0)
(0.02973610677142838 0.5924399683208048 0.0)
(0.06408850038971775 0.5911319382657706 0.0)
(0.06651263080189003 0.5576560752172726 0.0)
(0.10219260172492924 0.5551460283537935 0.0)
(0.1051489718376024 0.5063983697193811 0.0)
(0.1472430197683867 0.5024899312774128 0.0)
(0.1504087841207719 0.43618136777002686 0.0)
(0.2124682982606293 0.4308053825443979 0.0)
(0.21584071178000724 0.34418643428472756 0.0)
(0.28036870200925323 0.33754802903480624 0.0)
(0.2807057495961346 0.23711324277818324 0.0)
(0.2247937599599288 0.23032687402884375 0.0)
(0.22201789425123564 0.13966030651746034 0.0)
(0.16816548833532433 0.1338747574119864 0.0)
(0.16540503434680356 0.05968216869509752 0.0)
(0.13083705608043483 0.05520138953029112 0.0)
(0.12793438553664904 -0.004841780535246183 0.0)
(0.09861227116939614 -0.007914817786903127 0.0)
(0.0957680336698226 -0.05538577355416136 0.0)
(0.06737104277330214 -0.05700264074412916 0.0)
(0.06421581494157395 -0.09271673997430473 0.0)
(0.03620555405199705 -0.09280305333199139 0.0)
(0.03342839712992352 -0.11833389949694006 0.0)
(0.028379143579094622 -0.116966124513413 0.0)
(0.025763120735755415 -0.1365826602361 0.0)
(0.018781644326499564 -0.13380227567363617 0.0)
(0.015915200888569417 -0.14811960357002327 0.0)
(0.002655739642796042 -0.1438409470639726 0.0)
(-0.0005543218475424463 -0.1514454947274818 0.0)
(-0.017954077105375343 -0.145561415718173 0.0)
(-0.02123901475880747 -0.14508006367559015 0.0)
(-0.046135647983929384 -0.13756839059495685 0.0)
(-0.04946858801390762 -0.12776277945402356 0.0)
(-0.07540659202261472 -0.11872074877878193 0.0)
(-0.07762207287846078 -0.10150037835955864 0.0)
(-0.06655886400113052 -0.09134840278513907 0.0)
(-0.06777237917958581 -0.07403462942520372 0.0)
(-0.05706096640270478 -0.06318903931016692 0.0)
(-0.058145003570002955 -0.047989017161252534 0.0)
(-0.053296697328692494 -0.03659670372835853 0.0)
(-0.05465283247616947 -0.022901689567879854 0.0)
(-0.049804838338856905 -0.010941018696065966 0.0)
(-0.09184239242031769 0.017084462335948698 0.0)
(-0.07442476188371562 0.03483454557519423 0.0)
(-0.07330095314728402 0.045611228839462864 0.0)
(-0.055242625935091015 0.06372180841272942 0.0)
(-0.05351903803031735 0.068036844834528 0.0)
(-0.03479317876799686 0.08538431819297021 0.0)
(-0.032193231907072455 0.08242368688334785 0.0)
(-0.012862004922745853 0.0985156914027064 0.0)
(-0.010048784908645051 0.08840216890782052 0.0)
(0.01175499384157851 0.10313553827903459 0.0)
(0.014417039882577788 0.08730440125749386 0.0)
(0.032604806970756635 0.10090933936543174 0.0)
(0.033923299768708996 0.08292656073485921 0.0)
(0.017148024827640187 0.09589024032324694 0.0)
(0.017057954569344863 0.0800015779385503 0.0)
(-0.0028175852557167313 0.09284347334713226 0.0)
(-0.003362470179627834 0.08247788937976314 0.0)
(-0.01943288789329774 0.0955343903984118 0.0)
(-0.020165392462498884 0.09185834959008742 0.0)
(-0.03388364198693547 0.10526098379342985 0.0)
(-0.034486873625994736 0.10807298872428012 0.0)
(-0.043521364094039984 0.12180144370091724 0.0)
(-0.04392850688931876 0.1303601565134926 0.0)
(-0.05201017110422513 0.14430659803488258 0.0)
(-0.052587453588864706 0.15828597473597086 0.0)
(-0.08043064565692871 0.17234164544280145 0.0)
(-0.08134204057210902 0.19212262964294277 0.0)
(-0.11053152436321093 0.20618534795451687 0.0)
(-0.11128197192885614 0.23199865553733715 0.0)
(-0.1424749366968934 0.2459777637619378 0.0)
(-0.14345223315951758 0.2781293725267626 0.0)
(-0.18072713985672936 0.2920076352043197 0.0)
(-0.18188812175672292 0.33144901358990264 0.0)
(-0.23691979515850922 0.3452705463717352 0.0)
(-0.23832858322788983 0.39228124097332984 0.0)
(-0.2931877427535436 0.4059687067275102 0.0)
(-0.29196390514309284 0.456561566561537 0.0)
(-0.23959389343714757 0.4697351996721283 0.0)
(-0.23575962889345484 0.5174575531383722 0.0)
(-0.18338303293144909 0.5297533274974138 0.0)
(-0.17988654523670036 0.5707329834467182 0.0)
(-0.14557526636851018 0.5821176225523874 0.0)
(-0.1423696069982122 0.6168351868224048 0.0)
(-0.11445758904518007 0.6274157298264502 0.0)
(-0.11160185429027118 0.6570497988262836 0.0)
(-0.08606863849556169 0.6668753991636659 0.0)
(-0.08312369297131778 0.691882262565948 0.0)
(-0.05871994998969665 0.7009126304256358 0.0)
(-0.05608835039513858 0.7214740922443451 0.0)
(-0.048947730610667636 0.7296264911715746 0.0)
(-0.0463680703866517 0.7459005751330491 0.0)
(-0.03739873984337988 0.7530558788055857 0.0)
(-0.03448664237864657 0.7644511258768972 0.0)
(-0.019894948445586164 0.7704608107451386 0.0)
(-0.016585748745900027 0.7758928610234767 0.0)
(0.0020533430934602573 0.7806455891855194 0.0)
(0.005524789708522167 0.7792669401736542 0.0)
(0.03003633501094983 0.7827291765899461 0.0)
(0.0335080235165649 0.7744643554320707 0.0)
(0.057813927519007303 0.7767246820259626 0.0)
(0.060321354181220574 0.763112438113756 0.0)
(0.055287872872596795 0.7644033337976208 0.0)
(0.056767126841414675 0.7478504307256437 0.0)
(0.0504798188066912 0.74843209050158 0.0)
(0.05163739016882687 0.7307452560994232 0.0)
(0.04887367298537149 0.7307923424223355 0.0)
(0.04973672165290108 0.7125116047724378 0.0)
(0.04751134657434104 0.7121480650742323 0.0)
(0.04809216434062584 0.6934814706650183 0.0)
(0.04567556502744245 0.6928295375113758 0.0)
(0.04593278175069678 0.6740837591696763 0.0)
(0.042885363724287306 0.6732753671701739 0.0)
(0.0428998054257708 0.6548166078957847 0.0)
(0.041885867018871585 0.6539824672536726 0.0)
(0.041672255345004884 0.636140504296773 0.0)
(0.03941110144857205 0.6354026028049322 0.0)
(0.03894865792388165 0.618653187414125 0.0)
(0.03442263262402707 0.618113419778728 0.0)
(0.03379905831574986 0.6029263814568367 0.0)
(0.02734859614335405 0.6026391823043332 0.0)
(0.02673536293369122 0.5892043586474253 0.0)
(0.01595698888653139 0.5891428998651231 0.0)
(0.015644824743537476 0.5767049583035945 0.0)
(0.008150622649202004 0.576690907547254 0.0)
(0.009279908548989493 0.5622774950440894 0.0)
(0.04565377362612506 0.5619404035531901 0.0)
(0.04844040949761893 0.5413345582161605 0.0)
(0.09070897770633571 0.5402709516851089 0.0)
(0.09401309400014543 0.5097956598255354 0.0)
(0.1390508408444609 0.5077308388953906 0.0)
(0.14298400482226714 0.4652648155014653 0.0)
(0.19526465053312225 0.4620379265386656 0.0)
(0.19938858243100463 0.40607568538399197 0.0)
(0.270857485519181 0.4016456789770972 0.0)
(0.27490848040792926 0.33256102135334514 0.0)
(0.3438322333030837 0.3272057418720832 0.0)
(0.34421680013007716 0.2511931339134647 0.0)
(0.2856959037904307 0.24566677449230126 0.0)
(0.2823151656107948 0.17198649163003535 0.0)
(0.22069927377816298 0.1670743786547871 0.0)
(0.21699108061696387 0.10211138884398341 0.0)
(0.17359670403703648 0.09818633377954039 0.0)
(0.1696235496472825 0.04276118346135173 0.0)
(0.13185852108907892 0.039951888656105834 0.0)
(0.12789711015481026 -0.006598010374833314 0.0)
(0.09176314742612703 -0.00819319931190748 0.0)
(0.08749773504976312 -0.046374410895573905 0.0)
(0.05305810220445339 -0.04665734006453952 0.0)
(0.049235482646683315 -0.0773403334184808 0.0)
(0.039235672262369875 -0.07625102716348914 0.0)
(0.03563541838141696 -0.10054398166249334 0.0)
(0.02454149918978617 -0.09801899507276123 0.0)
(0.020691040495891346 -0.11611068064994635 0.0)
(0.0031935984409799043 -0.11204446784699222 0.0)
(-0.0010247933043557348 -0.12314917426357104 0.0)
(-0.02306666687497213 -0.11746246930622828 0.0)
(-0.02735574101359112 -0.12078378468868763 0.0)
(-0.05684162140966221 -0.11348497634364844 0.0)
(-0.06108562113301695 -0.10907407921966546 0.0)
(-0.09021034196314243 -0.1003281926850742 0.0)
(-0.09312987393630322 -0.09029299066010466 0.0)
(-0.08319728079320103 -0.08045196376728707 0.0)
(-0.08490397610519916 -0.06794102899716113 0.0)
(-0.07377444085548113 -0.0573810151977578 0.0)
(-0.07525463647902106 -0.0447460249344841 0.0)
(-0.06967078873281575 -0.03369885906408422 0.0)
(-0.07142907968251849 -0.02150291686127111 0.0)
(-0.06547694565394686 -0.010076031546975745 0.0)
(-0.12110377466282315 0.01624302528467723 0.0)
(-0.0981116022065876 0.03307012341646065 0.0)
(-0.09701004739601968 0.04333942604677064 0.0)
(-0.07351359395638951 0.060672188442041725 0.0)
(-0.07080263012093992 0.06506507996896424 0.0)
(-0.045888331323354875 0.08180711387997744 0.0)
(-0.041893968674573644 0.07961243148476345 0.0)
(-0.01652931274675878 0.09524832059491951 0.0)
(-0.012293703592947833 0.08671294472120616 0.0)
(0.014202639442770983 0.10113001715339624 0.0)
(0.01801847363470697 0.08772418341532148 0.0)
(0.0378648722931793 0.10113153247007703 0.0)
(0.03986461859081642 0.0859399973022464 0.0)
(0.02121999078782735 0.09877287381641311 0.0)
(0.021323264028900914 0.08551185339700841 0.0)
(-0.003336856647722739 0.09824014579179598 0.0)
(-0.0040145576920488195 0.08990682463406621 0.0)
(-0.02594930128443435 0.10285649595534203 0.0)
(-0.02694583956208871 0.10075668129674403 0.0)
(-0.04627733922167947 0.11407216064538377 0.0)
(-0.04711058456432099 0.11828895374443563 0.0)
(-0.06066559479212587 0.13196536120688532 0.0)
(-0.061144227931286696 0.1419118016222389 0.0)
(-0.07246699804455776 0.1558463467650657 0.0)
(-0.07290911554638961 0.17096372133735407 0.0)
(-0.10311074327969307 0.1850270714029421 0.0)
(-0.1036801716465915 0.20526994143770616 0.0)
(-0.13429343419118894 0.21933202628387335 0.0)
(-0.13454288258690875 0.24445650590839185 0.0)
(-0.1667606835507033 0.25840448619538225 0.0)
(-0.16719566616353546 0.2883523050647842 0.0)
(-0.20612741946667745 0.3021385810081747 0.0)
(-0.2068265173229307 0.33730136712544795 0.0)
(-0.26444984006873734 0.35092312447518 0.0)
(-0.2654923373981946 0.3912924084837359 0.0)
(-0.3218356726814076 0.404673750449724 0.0)
(-0.32021283492388103 0.4476845776850137 0.0)
(-0.2666824672850925 0.4605587613998685 0.0)
(-0.2624328559557766 0.501548978503463 0.0)
(-0.20793235210326505 0.5136644344339371 0.0)
(-0.20416258582999483 0.5501778712987087 0.0)
(-0.16892239961547661 0.5615013408544238 0.0)
(-0.16559199017347023 0.5937174416125086 0.0)
(-0.1377012314323915 0.6043066483320076 0.0)
(-0.1347551464064631 0.6328233707477601 0.0)
(-0.1091244109903878 0.6426944209881122 0.0)
(-0.10599544703034046 0.6675848552491294 0.0)
(-0.08070049157747866 0.6766737477565453 0.0)
(-0.07771964910472126 0.6976593728593848 0.0)
(-0.06882504435961759 0.7058577813597559 0.0)
(-0.06570591874497589 0.72271047095 0.0)
(-0.05369853407940618 0.7298834648479525 0.0)
(-0.05007455442378029 0.7418084576603311 0.0)
(-0.03125429526868615 0.7478187561043729 0.0)
(-0.027128417222981583 0.7538946639844679 0.0)
(-0.0035584043904098015 0.7586554819075007 0.0)
(0.0007611313888363859 0.7583301202169752 0.0)
(0.03029056479792334 0.761833595312873 0.0)
(0.03456060211128779 0.7552124965696286 0.0)
(0.06293660653268862 0.7575536504714695 0.0)
(0.0661062459008453 0.745855731216215 0.0)
(0.06362265801186275 0.7472385182193693 0.0)
(0.06561415538415297 0.7324172207789831 0.0)
(0.060783098071907044 0.7330693840071523 0.0)
(0.062355224389523574 0.7165580402362628 0.0)
(0.06071420111372585 0.7166498154993154 0.0)
(0.061916802636573516 0.699060976425697 0.0)
(0.06060826922040716 0.6987235754795383 0.0)
(0.061441345578180574 0.6804046840487991 0.0)
(0.05956721754698306 0.679762987976506 0.0)
(0.05996653062395492 0.6610920104618064 0.0)
(0.05694117559306421 0.6602766069019572 0.0)
(0.056975405846392956 0.6416738718723277 0.0)
(0.05547440885775164 0.6408127840474135 0.0)
(0.0551600848516101 0.6226347985069729 0.0)
(0.05180251675587986 0.6218439074765271 0.0)
(0.0511371091926873 0.6045176533894155 0.0)
(0.04498955053350553 0.6038861714518552 0.0)
(0.044099178970850694 0.5877299683995522 0.0)
(0.035745377744799786 0.5872951579565369 0.0)
(0.034857540128346486 0.5722763440476967 0.0)
(0.02250824441442989 0.5719943402932547 0.0)
(0.022010570075431408 0.5572901205424902 0.0)
(0.01468568458619625 0.5569899889999235 0.0)
(0.01584132007661291 0.5402593838466342 0.0)
(0.054955850065893506 0.5396273204696389 0.0)
(0.0580050791549681 0.5174929071274057 0.0)
(0.10523269974646839 0.5161906594772504 0.0)
(0.10896296851277479 0.48583959268358456 0.0)
(0.16028549747865606 0.48363039648116074 0.0)
(0.16475784821340056 0.4433706655396777 0.0)
(0.22445844242341081 0.4401274031062611 0.0)
(0.2291937385760616 0.389031540932501 0.0)
(0.30837215498571285 0.38476194182378376 0.0)
(0.31295163729232883 0.32347659514236354 0.0)
(0.38651751356886116 0.31844702845556516 0.0)
(0.3870777441935921 0.2514468188534821 0.0)
(0.3281231102791826 0.24626736408718763 0.0)
(0.3245459268481043 0.1806874844828794 0.0)
(0.2593213404990556 0.1759984174332198 0.0)
(0.25527321606130626 0.11650968561405914 0.0)
(0.20826261013380495 0.11266966699901337 0.0)
(0.20390436996389702 0.06038189001088081 0.0)
(0.1630040100986214 0.05756450442641678 0.0)
(0.15857590580504766 0.0124294572089345 0.0)
(0.11926150934729567 0.01076133274470286 0.0)
(0.11439436764850135 -0.02732581018340018 0.0)
(0.07660227538855746 -0.0277239425069266 0.0)
(0.0720349631113915 -0.05906969861487187 0.0)
(0.058649558142443825 -0.0581062169702239 0.0)
(0.05416061262522054 -0.0833156794481557 0.0)
(0.03908924538896014 -0.08090465153657247 0.0)
(0.034212188968126785 -0.09988763908821946 0.0)
(0.011837835378145875 -0.09593592349334797 0.0)
(0.006513754195983409 -0.10811605307963663 0.0)
(-0.02103985578476993 -0.10257416419028485 0.0)
(-0.02642786953000337 -0.10753496354370401 0.0)
(-0.06141159231968623 -0.10044395065285353 0.0)
(-0.06663232414182911 -0.09845590764441872 0.0)
(-0.09990753819583466 -0.089990523516714 0.0)
(-0.10355168890135054 -0.08271142849103469 0.0)
(-0.09571820733913253 -0.07319309331943083 0.0)
(-0.09786967983788057 -0.06317405985829581 0.0)
(-0.08732010416380999 -0.05295241627702778 0.0)
(-0.08903965756499457 -0.04205063327879513 0.0)
(-0.08361858937420032 -0.031385626454948856 0.0)
(-0.08547008908088823 -0.020291743918295833 0.0)
(-0.07961881862282562 -0.009359818206951276 0.0)
(-0.13574611230011535 0.01860917820377639 0.0)