/*--------------------------------*- C++ -*----------------------------------*\
  =========                 |
  \\      /  F ield         | OpenFOAM: The Open Source CFD Toolbox
   \\    /   O peration     | Website:  https://openfoam.org
    \\  /    A nd           | Version:  11
     \\/     M anipulation  |
\*---------------------------------------------------------------------------*/
FoamFile
{
    format      ascii;
    class       volScalarField;
    location    "10";
    object      Ccx;
}
// * * * * * * * * * * * * * * * * * * * * * * * * * * * * * * * * * * * * * //

dimensions      [0 1 0 0 0 0 0];

internalField   nonuniform List<scalar> 
9600
(
-9.67009
-9.42302
-9.17595
-8.92887
-8.68178
-8.43468
-8.18759
-7.94048
-7.69338
-7.44626
-7.19915
-6.95203
-6.7049
-6.45778
-6.21065
-5.96352
-5.71638
-5.46925
-5.22211
-4.97498
-4.72784
-4.48071
-4.23357
-3.98643
-3.7393
-3.49217
-3.24504
-2.99792
-2.75079
-2.50367
-2.25655
-2.00944
-1.76233
-1.51523
-1.26813
-1.02104
-0.773951
-0.52687
-0.279795
-0.0327272
-9.55688
-9.3157
-9.07451
-8.83329
-8.59205
-8.3508
-8.10953
-7.86825
-7.62695
-7.38565
-7.14433
-6.903
-6.66165
-6.42031
-6.17895
-5.93759
-5.69622
-5.45485
-5.21347
-4.9721
-4.73072
-4.48935
-4.24797
-4.0066
-3.76523
-3.52386
-3.28251
-3.04116
-2.79982
-2.55849
-2.31716
-2.07586
-1.83456
-1.59328
-1.35201
-1.11076
-0.869528
-0.628313
-0.387115
-0.145936
-9.44367
-9.20838
-8.97306
-8.73771
-8.50233
-8.26692
-8.03148
-7.79602
-7.56054
-7.32503
-7.08952
-6.85397
-6.61841
-6.38284
-6.14725
-5.91166
-5.67606
-5.44045
-5.20483
-4.96922
-4.7336
-4.49799
-4.26237
-4.02676
-3.79115
-3.55556
-3.31998
-3.0844
-2.84885
-2.6133
-2.37778
-2.14228
-1.90679
-1.67133
-1.4359
-1.20049
-0.965109
-0.729755
-0.494433
-0.259144
-9.33046
-9.10106
-8.87162
-8.64213
-8.4126
-8.18303
-7.95343
-7.72379
-7.49412
-7.26442
-7.03469
-6.80494
-6.57517
-6.34537
-6.11556
-5.88573
-5.6559
-5.42605
-5.19619
-4.96634
-4.73648
-4.50663
-4.27677
-4.04692
-3.81708
-3.58725
-3.35744
-3.12765
-2.89788
-2.66812
-2.4384
-2.20869
-1.97902
-1.74938
-1.51978
-1.29021
-1.06069
-0.831195
-0.601753
-0.372351
-9.21725
-8.99375
-8.77018
-8.54655
-8.32288
-8.09915
-7.87538
-7.65156
-7.4277
-7.20381
-6.97987
-6.75591
-6.53192
-6.3079
-6.08386
-5.85981
-5.63574
-5.41165
-5.18756
-4.96346
-4.73936
-4.51526
-4.29117
-4.06708
-3.84301
-3.61895
-3.39491
-3.17089
-2.9469
-2.72294
-2.49901
-2.27511
-2.05126
-1.82743
-1.60366
-1.37994
-1.15626
-0.932637
-0.70907
-0.485561
-9.10405
-8.88643
-8.66874
-8.45098
-8.23315
-8.01527
-7.79733
-7.57933
-7.36129
-7.14319
-6.92506
-6.70688
-6.48868
-6.27044
-6.05217
-5.83388
-5.61557
-5.39725
-5.17891
-4.96058
-4.74223
-4.5239
-4.30556
-4.08724
-3.86894
-3.65065
-3.43238
-3.21414
-2.99593
-2.77776
-2.55962
-2.34153
-2.12348
-1.90549
-1.68755
-1.46966
-1.25184
-1.03408
-0.816388
-0.598767
-8.99084
-8.77911
-8.56729
-8.3554
-8.14343
-7.93139
-7.71928
-7.5071
-7.29487
-7.08258
-6.87024
-6.65786
-6.44543
-6.23297
-6.02048
-5.80796
-5.59541
-5.38285
-5.17028
-4.9577
-4.74512
-4.53253
-4.31996
-4.1074
-3.89486
-3.68234
-3.46985
-3.25738
-3.04496
-2.83257
-2.62024
-2.40795
-2.19571
-1.98354
-1.77143
-1.55939
-1.34742
-1.13552
-0.923707
-0.711975
-8.87763
-8.67179
-8.46585
-8.25983
-8.05371
-7.84751
-7.64123
-7.43487
-7.22845
-7.02197
-6.81542
-6.60883
-6.40219
-6.1955
-5.98878
-5.78203
-5.57525
-5.36845
-5.16164
-4.95482
-4.74799
-4.54117
-4.33436
-4.12756
-3.92079
-3.71403
-3.50731
-3.30063
-3.09399
-2.88739
-2.68085
-2.47436
-2.26794
-2.06159
-1.85531
-1.64911
-1.44299
-1.23696
-1.03102
-0.825182
-8.76443
-8.56447
-8.36441
-8.16425
-7.96398
-7.76363
-7.56317
-7.36264
-7.16204
-6.96135
-6.76061
-6.55981
-6.35894
-6.15803
-5.95709
-5.75611
-5.55509
-5.35405
-5.153
-4.95194
-4.75088
-4.54981
-4.34876
-4.14773
-3.94671
-3.74573
-3.54478
-3.34387
-3.14301
-2.94221
-2.74146
-2.54078
-2.34017
-2.13965
-1.93919
-1.73884
-1.53857
-1.3384
-1.13834
-0.938387
-8.65122
-8.45716
-8.26297
-8.06867
-7.87426
-7.67974
-7.48513
-7.29042
-7.09562
-6.90074
-6.70579
-6.51078
-6.3157
-6.12057
-5.92539
-5.73018
-5.53493
-5.33965
-5.14436
-4.94906
-4.75375
-4.55845
-4.36316
-4.16789
-3.97264
-3.77742
-3.58225
-3.38712
-3.19204
-2.99702
-2.80208
-2.6072
-2.4124
-2.21769
-2.02308
-1.82856
-1.63415
-1.43985
-1.24566
-1.05159
-8.53802
-8.34984
-8.16153
-7.97309
-7.78454
-7.59586
-7.40707
-7.21819
-7.0292
-6.84013
-6.65097
-6.46175
-6.27246
-6.0831
-5.8937
-5.70425
-5.51477
-5.32526
-5.13573
-4.94618
-4.75664
-4.56709
-4.37756
-4.18805
-3.99856
-3.80912
-3.61972
-3.43036
-3.24107
-3.05184
-2.86268
-2.67362
-2.48463
-2.29574
-2.10696
-1.91828
-1.72972
-1.54128
-1.35298
-1.1648
-8.42481
-8.24253
-8.06009
-7.87752
-7.69481
-7.51198
-7.32902
-7.14596
-6.96279
-6.77952
-6.59616
-6.41272
-6.22921
-6.04563
-5.862
-5.67832
-5.49461
-5.31086
-5.12709
-4.94331
-4.75951
-4.57573
-4.39196
-4.20821
-4.02449
-3.84081
-3.65718
-3.47361
-3.2901
-3.10666
-2.9233
-2.74003
-2.55686
-2.37379
-2.19084
-2.008
-1.8253
-1.64272
-1.46029
-1.278
-8.3116
-8.13521
-7.95865
-7.78194
-7.60509
-7.4281
-7.25097
-7.07373
-6.89637
-6.71891
-6.54134
-6.3637
-6.18597
-6.00817
-5.83031
-5.6524
-5.47445
-5.29646
-5.11845
-4.94042
-4.7624
-4.58437
-4.40636
-4.22837
-4.05042
-3.87251
-3.69464
-3.51685
-3.33912
-3.16147
-2.98391
-2.80644
-2.62908
-2.45184
-2.27472
-2.09773
-1.92087
-1.74416
-1.56761
-1.39121
-8.1984
-8.02789
-7.85721
-7.68637
-7.51537
-7.34422
-7.17293
-7.0015
-6.82995
-6.6583
-6.48653
-6.31467
-6.14273
-5.9707
-5.79861
-5.62647
-5.45428
-5.28206
-5.10981
-4.93755
-4.76527
-4.59301
-4.42076
-4.24853
-4.07634
-3.9042
-3.73212
-3.56009
-3.38814
-3.21629
-3.04452
-2.87286
-2.70131
-2.52989
-2.3586
-2.18745
-2.01645
-1.8456
-1.67492
-1.50441
-8.0852
-7.92058
-7.75578
-7.5908
-7.42565
-7.26034
-7.09488
-6.92928
-6.76354
-6.59768
-6.43172
-6.26565
-6.09948
-5.93324
-5.76692
-5.60055
-5.43412
-5.26766
-5.10117
-4.93466
-4.76816
-4.60165
-4.43516
-4.26869
-4.10227
-3.9359
-3.76958
-3.60334
-3.43717
-3.2711
-3.10513
-2.93927
-2.77354
-2.60794
-2.44248
-2.27717
-2.11202
-1.94704
-1.78224
-1.61762
-7.97199
-7.81327
-7.65434
-7.49523
-7.33593
-7.17646
-7.01683
-6.85705
-6.69713
-6.53707
-6.3769
-6.21662
-6.05624
-5.89577
-5.73523
-5.57463
-5.41397
-5.25326
-5.09253
-4.93179
-4.77103
-4.61029
-4.44956
-4.28885
-4.12819
-3.96759
-3.80705
-3.64658
-3.4862
-3.32591
-3.16575
-3.00569
-2.84577
-2.68599
-2.52636
-2.36689
-2.20759
-2.04848
-1.88955
-1.73083
-7.85879
-7.70595
-7.55291
-7.39965
-7.24621
-7.09258
-6.93878
-6.78482
-6.63071
-6.47646
-6.32208
-6.16759
-6.013
-5.85831
-5.70354
-5.5487
-5.3938
-5.23886
-5.08389
-4.9289
-4.77392
-4.61893
-4.46395
-4.30902
-4.15412
-3.99928
-3.84451
-3.68982
-3.53522
-3.38073
-3.22635
-3.07211
-2.918
-2.76404
-2.61024
-2.45661
-2.30316
-2.14991
-1.99686
-1.84403
-7.74559
-7.59864
-7.45147
-7.30408
-7.15649
-7.0087
-6.86074
-6.7126
-6.5643
-6.41585
-6.26727
-6.11857
-5.96975
-5.82084
-5.67184
-5.52277
-5.37364
-5.22446
-5.07525
-4.92603
-4.77679
-4.62756
-4.47835
-4.32917
-4.18004
-4.03097
-3.88197
-3.73306
-3.58425
-3.43554
-3.28696
-3.13852
-2.99022
-2.84208
-2.69412
-2.54633
-2.39874
-2.25135
-2.10418
-1.95723
-7.63239
-7.49133
-7.35003
-7.20851
-7.06677
-6.92482
-6.78269
-6.64037
-6.49789
-6.35525
-6.21246
-6.06954
-5.92651
-5.78338
-5.64015
-5.49685
-5.35348
-5.21006
-5.06662
-4.92315
-4.77967
-4.63619
-4.49275
-4.34933
-4.20597
-4.06266
-3.91944
-3.77631
-3.63327
-3.49036
-3.34757
-3.20493
-3.06245
-2.92013
-2.77799
-2.63605
-2.49431
-2.35278
-2.21149
-2.07043
-7.51919
-7.38402
-7.24859
-7.11293
-6.97705
-6.84095
-6.70464
-6.56815
-6.43147
-6.29464
-6.15765
-6.02052
-5.88327
-5.74591
-5.60846
-5.47092
-5.33332
-5.19567
-5.05798
-4.92027
-4.78255
-4.64483
-4.50714
-4.36949
-4.23189
-4.09436
-3.9569
-3.81954
-3.6823
-3.54517
-3.40818
-3.27134
-3.13467
-2.99817
-2.86187
-2.72577
-2.58988
-2.45422
-2.3188
-2.18363
-7.40598
-7.27671
-7.14716
-7.01736
-6.88733
-6.75707
-6.62659
-6.49592
-6.36506
-6.23403
-6.10283
-5.9715
-5.84003
-5.70845
-5.57677
-5.445
-5.31316
-5.18127
-5.04934
-4.91739
-4.78543
-4.65347
-4.52154
-4.38965
-4.25782
-4.12605
-3.99437
-3.86279
-3.73132
-3.59998
-3.46879
-3.33775
-3.2069
-3.07622
-2.94574
-2.81548
-2.68545
-2.55566
-2.42611
-2.29683
-7.29279
-7.1694
-7.04573
-6.9218
-6.79762
-6.6732
-6.54855
-6.4237
-6.29865
-6.17342
-6.04802
-5.92248
-5.79679
-5.67099
-5.54508
-5.41908
-5.293
-5.16687
-5.0407
-4.91451
-4.78831
-4.66211
-4.53594
-4.40981
-4.28374
-4.15774
-4.03183
-3.90603
-3.78034
-3.65479
-3.5294
-3.40417
-3.27912
-3.15426
-3.02962
-2.9052
-2.78102
-2.65709
-2.53342
-2.41003
-7.17959
-7.06209
-6.9443
-6.82623
-6.7079
-6.58932
-6.47051
-6.35148
-6.23224
-6.11282
-5.99321
-5.87345
-5.75355
-5.63352
-5.51339
-5.39315
-5.27284
-5.15248
-5.03207
-4.91163
-4.79119
-4.67075
-4.55034
-4.42997
-4.30966
-4.18943
-4.06929
-3.94927
-3.82937
-3.70961
-3.59
-3.47058
-3.35134
-3.23231
-3.11349
-2.99492
-2.87659
-2.75852
-2.64073
-2.52322
-7.0664
-6.95478
-6.84287
-6.73067
-6.61819
-6.50545
-6.39247
-6.27926
-6.16583
-6.05221
-5.9384
-5.82443
-5.71031
-5.59606
-5.48169
-5.36723
-5.25269
-5.13808
-5.02343
-4.90876
-4.79406
-4.67939
-4.56474
-4.45013
-4.33559
-4.22112
-4.10676
-3.99251
-3.87838
-3.76441
-3.65061
-3.53699
-3.42356
-3.31035
-3.19737
-3.08463
-2.97215
-2.85995
-2.74803
-2.63642
-6.9532
-6.84748
-6.74144
-6.6351
-6.52847
-6.42158
-6.31443
-6.20704
-6.09943
-5.99161
-5.88359
-5.77541
-5.66707
-5.5586
-5.45
-5.34131
-5.23253
-5.12369
-5.0148
-4.90587
-4.79695
-4.68802
-4.57913
-4.47029
-4.36151
-4.25281
-4.14422
-4.03574
-3.9274
-3.81922
-3.71121
-3.60339
-3.49578
-3.38839
-3.28124
-3.17434
-3.06772
-2.96138
-2.85534
-2.74961
-6.84001
-6.74018
-6.64001
-6.53954
-6.43876
-6.33771
-6.23639
-6.13482
-6.03302
-5.931
-5.82879
-5.72639
-5.62384
-5.52114
-5.41831
-5.31538
-5.21237
-5.10929
-5.00616
-4.903
-4.79982
-4.69666
-4.59353
-4.49045
-4.38743
-4.2845
-4.18168
-4.07898
-3.97643
-3.87403
-3.77182
-3.6698
-3.568
-3.46643
-3.36511
-3.26405
-3.16328
-3.0628
-2.96264
-2.86281
-6.72682
-6.63288
-6.53859
-6.44398
-6.34906
-6.25384
-6.15835
-6.0626
-5.96662
-5.8704
-5.77398
-5.67738
-5.5806
-5.48368
-5.38663
-5.28946
-5.19221
-5.09489
-4.99752
-4.90012
-4.8027
-4.7053
-4.60793
-4.5106
-4.41335
-4.31619
-4.21914
-4.12222
-4.02544
-3.92884
-3.83242
-3.7362
-3.64022
-3.54447
-3.44897
-3.35376
-3.25884
-3.16423
-3.06994
-2.97599
-6.61364
-6.52558
-6.43717
-6.34842
-6.25935
-6.16997
-6.08032
-5.99039
-5.90021
-5.8098
-5.71918
-5.62836
-5.53736
-5.44622
-5.35494
-5.26354
-5.17206
-5.0805
-4.98888
-4.89724
-4.80558
-4.71394
-4.62232
-4.53076
-4.43927
-4.34788
-4.2566
-4.16545
-4.07446
-3.98364
-3.89302
-3.80261
-3.71243
-3.6225
-3.53284
-3.44347
-3.3544
-3.26565
-3.17724
-3.08918
-6.50045
-6.41828
-6.33574
-6.25286
-6.16964
-6.08611
-6.00228
-5.91818
-5.83381
-5.7492
-5.66438
-5.57935
-5.49413
-5.40876
-5.32325
-5.23763
-5.1519
-5.0661
-4.98025
-4.89436
-4.80846
-4.72257
-4.63672
-4.55092
-4.46519
-4.37956
-4.29405
-4.20868
-4.12347
-4.03844
-3.95362
-3.869
-3.78464
-3.70053
-3.6167
-3.53317
-3.44996
-3.36707
-3.28453
-3.20236
-6.38727
-6.31099
-6.23433
-6.15731
-6.07995
-6.00226
-5.92425
-5.84597
-5.76741
-5.68861
-5.60957
-5.53033
-5.45091
-5.37131
-5.29157
-5.21171
-5.13175
-5.05171
-4.97161
-4.89148
-4.81134
-4.73121
-4.65111
-4.57107
-4.49111
-4.41125
-4.33151
-4.25191
-4.17248
-4.09324
-4.01421
-3.9354
-3.85685
-3.77856
-3.70056
-3.62287
-3.54551
-3.46849
-3.39183
-3.31554
-6.27409
-6.2037
-6.13292
-6.06176
-5.99025
-5.9184
-5.84623
-5.77376
-5.70102
-5.62802
-5.55478
-5.48132
-5.40767
-5.33386
-5.25989
-5.18579
-5.11159
-5.03731
-4.96297
-4.8886
-4.81422
-4.73984
-4.66551
-4.59122
-4.51703
-4.44293
-4.36896
-4.29514
-4.22149
-4.14804
-4.0748
-4.0018
-3.92906
-3.85659
-3.78442
-3.71257
-3.64105
-3.5699
-3.49912
-3.42872
-6.16092
-6.09642
-6.03152
-5.96622
-5.90056
-5.83455
-5.76821
-5.70156
-5.63463
-5.56743
-5.49998
-5.43231
-5.36445
-5.29641
-5.22821
-5.15988
-5.09144
-5.02292
-4.95434
-4.88572
-4.81709
-4.74848
-4.6799
-4.61137
-4.54294
-4.47461
-4.40641
-4.33837
-4.2705
-4.20283
-4.13539
-4.06819
-4.00125
-3.93461
-3.86827
-3.80226
-3.7366
-3.6713
-3.6064
-3.54189
-6.04776
-5.98915
-5.93011
-5.87068
-5.81087
-5.75071
-5.69019
-5.62937
-5.56824
-5.50685
-5.44519
-5.38331
-5.32123
-5.25896
-5.19653
-5.13396
-5.07129
-5.00853
-4.9457
-4.88284
-4.81997
-4.75711
-4.69428
-4.63152
-4.56885
-4.50629
-4.44386
-4.38159
-4.3195
-4.25762
-4.19597
-4.13457
-4.07345
-4.01262
-3.95211
-3.89194
-3.83213
-3.7727
-3.71367
-3.65506
-5.9346
-5.88188
-5.82872
-5.77515
-5.7212
-5.66687
-5.61219
-5.55718
-5.50187
-5.44627
-5.39042
-5.33432
-5.27801
-5.22152
-5.16485
-5.10806
-5.05114
-4.99414
-4.93707
-4.87997
-4.82285
-4.76574
-4.70867
-4.65167
-4.59476
-4.53796
-4.4813
-4.42481
-4.3685
-4.3124
-4.25655
-4.20095
-4.14563
-4.09063
-4.03595
-3.98162
-3.92766
-3.87409
-3.82094
-3.76821
-5.82146
-5.77462
-5.72734
-5.67963
-5.63153
-5.58304
-5.53419
-5.485
-5.4355
-5.3857
-5.33564
-5.28533
-5.2348
-5.18408
-5.13319
-5.08215
-5.031
-4.97975
-4.92844
-4.87709
-4.82573
-4.77437
-4.72306
-4.67182
-4.62066
-4.56963
-4.51874
-4.46801
-4.41749
-4.36718
-4.31711
-4.26732
-4.21781
-4.16863
-4.11978
-4.07129
-4.02318
-3.97547
-3.9282
-3.88136
-5.70832
-5.66737
-5.62597
-5.58413
-5.54187
-5.49922
-5.4562
-5.41283
-5.36914
-5.32515
-5.28087
-5.23635
-5.1916
-5.14665
-5.10153
-5.05625
-5.01086
-4.96537
-4.91981
-4.87421
-4.8286
-4.783
-4.73745
-4.69196
-4.64656
-4.60129
-4.55617
-4.51121
-4.46646
-4.42194
-4.37767
-4.33368
-4.28998
-4.24662
-4.20359
-4.16094
-4.11868
-4.07685
-4.03544
-3.9945
-5.59521
-5.56015
-5.52462
-5.48864
-5.45224
-5.41542
-5.37824
-5.34069
-5.3028
-5.26461
-5.22613
-5.18739
-5.14842
-5.10924
-5.06988
-5.03036
-4.99073
-4.95099
-4.91119
-4.87134
-4.83148
-4.79163
-4.75183
-4.71209
-4.67245
-4.63294
-4.59358
-4.5544
-4.51543
-4.47669
-4.43821
-4.40002
-4.36213
-4.32458
-4.28739
-4.25058
-4.21418
-4.1782
-4.14267
-4.10761
-5.48212
-5.45295
-5.42329
-5.39318
-5.36262
-5.33165
-5.30029
-5.26856
-5.23648
-5.20409
-5.1714
-5.13844
-5.10524
-5.07183
-5.03824
-5.00449
-4.9706
-4.93662
-4.90257
-4.86847
-4.83435
-4.80025
-4.7662
-4.73221
-4.69833
-4.66458
-4.63098
-4.59757
-4.56438
-4.53142
-4.49873
-4.46633
-4.43426
-4.40252
-4.37116
-4.34019
-4.30964
-4.27953
-4.24987
-4.2207
-5.36905
-5.34577
-5.322
-5.29775
-5.27305
-5.24792
-5.22238
-5.19647
-5.1702
-5.1436
-5.1167
-5.08953
-5.06211
-5.03446
-5.00662
-4.97863
-4.9505
-4.92226
-4.89395
-4.8656
-4.83722
-4.80887
-4.78056
-4.75232
-4.72419
-4.69619
-4.66835
-4.64071
-4.61329
-4.58611
-4.55921
-4.53261
-4.50635
-4.48043
-4.4549
-4.42977
-4.40506
-4.38082
-4.35704
-4.33376
-5.25605
-5.23865
-5.22076
-5.20238
-5.18352
-5.16424
-5.14454
-5.12444
-5.10398
-5.08318
-5.06207
-5.04067
-5.01902
-4.99714
-4.97505
-4.95281
-4.93042
-4.90793
-4.88535
-4.86273
-4.84009
-4.81747
-4.79489
-4.7724
-4.75001
-4.72776
-4.70568
-4.6838
-4.66215
-4.64075
-4.61964
-4.59884
-4.57838
-4.55828
-4.53858
-4.51929
-4.50044
-4.48205
-4.46416
-4.44677
0.0908251
0.0909916
0.091151
0.0913026
0.0914467
0.0915832
0.0917111
0.0918308
0.091942
0.0920448
0.0921384
0.0922231
0.0922986
0.0923651
0.0924222
0.0924696
0.0925078
0.0925363
0.0925552
0.0925645
0.0925641
0.092554
0.0925343
0.0925051
0.0924662
0.092418
0.0923601
0.0922928
0.0922166
0.0921312
0.0920369
0.0919334
0.0918215
0.091701
0.0915726
0.0914354
0.0912906
0.0911384
0.0909782
0.0908116
-0.0251606
-0.0246609
-0.0241831
-0.0237275
-0.0232945
-0.0228861
-0.0225011
-0.0221418
-0.0218075
-0.0214998
-0.0212184
-0.0209634
-0.0207362
-0.0205368
-0.0203653
-0.0202219
-0.020107
-0.0200208
-0.0199634
-0.0199349
-0.0199354
-0.0199646
-0.0200228
-0.0201099
-0.0202256
-0.0203698
-0.020542
-0.0207422
-0.0209702
-0.0212259
-0.0215082
-0.0218166
-0.0221516
-0.0225116
-0.0228973
-0.0233067
-0.0237397
-0.0241963
-0.0246744
-0.0251753
-0.141146
-0.140313
-0.139516
-0.138757
-0.138036
-0.137354
-0.136714
-0.136114
-0.135557
-0.135044
-0.134574
-0.13415
-0.133771
-0.133438
-0.133152
-0.132913
-0.132721
-0.132578
-0.132482
-0.132434
-0.132434
-0.132483
-0.13258
-0.132724
-0.132917
-0.133157
-0.133444
-0.133777
-0.134157
-0.134582
-0.135052
-0.135567
-0.136124
-0.136725
-0.137366
-0.138048
-0.13877
-0.13953
-0.140328
-0.141161
-0.257131
-0.255965
-0.25485
-0.253786
-0.252776
-0.251823
-0.250925
-0.250086
-0.249306
-0.248588
-0.24793
-0.247336
-0.246805
-0.246339
-0.245939
-0.245604
-0.245336
-0.245134
-0.245
-0.244933
-0.244933
-0.245001
-0.245136
-0.245339
-0.245608
-0.245944
-0.246345
-0.246812
-0.247344
-0.247938
-0.248597
-0.249316
-0.250097
-0.250937
-0.251835
-0.25279
-0.2538
-0.254864
-0.25598
-0.257147
-0.373116
-0.371617
-0.370182
-0.368815
-0.367517
-0.36629
-0.365136
-0.364058
-0.363055
-0.362131
-0.361286
-0.360521
-0.359839
-0.35924
-0.358725
-0.358295
-0.357949
-0.35769
-0.357517
-0.357431
-0.357431
-0.357519
-0.357692
-0.357953
-0.358299
-0.358731
-0.359246
-0.359846
-0.360529
-0.361295
-0.36214
-0.363065
-0.364069
-0.365148
-0.366303
-0.367531
-0.36883
-0.370198
-0.371633
-0.373132
-0.4891
-0.487268
-0.485515
-0.483844
-0.482257
-0.480758
-0.479348
-0.478029
-0.476804
-0.475673
-0.474641
-0.473707
-0.472873
-0.472141
-0.471511
-0.470985
-0.470563
-0.470246
-0.470034
-0.469929
-0.469929
-0.470036
-0.470248
-0.470566
-0.470989
-0.471516
-0.472147
-0.472881
-0.473715
-0.47465
-0.475684
-0.476815
-0.478041
-0.47936
-0.480772
-0.482272
-0.483859
-0.485531
-0.487285
-0.489118
-0.605084
-0.602919
-0.600847
-0.598872
-0.596997
-0.595225
-0.593558
-0.592
-0.590552
-0.589216
-0.587996
-0.586892
-0.585906
-0.585041
-0.584296
-0.583674
-0.583176
-0.582801
-0.582552
-0.582427
-0.582427
-0.582553
-0.582804
-0.583179
-0.583679
-0.584302
-0.585047
-0.585914
-0.586901
-0.588006
-0.589227
-0.590563
-0.592013
-0.593572
-0.59524
-0.597013
-0.598888
-0.600864
-0.602937
-0.605103
-0.721067
-0.71857
-0.716179
-0.7139
-0.711737
-0.709692
-0.707769
-0.705971
-0.7043
-0.702759
-0.70135
-0.700077
-0.69894
-0.69794
-0.697081
-0.696364
-0.695788
-0.695356
-0.695068
-0.694924
-0.694924
-0.69507
-0.695359
-0.695792
-0.696369
-0.697088
-0.697948
-0.698947
-0.700086
-0.701361
-0.70277
-0.704312
-0.705984
-0.707783
-0.709707
-0.711752
-0.713917
-0.716197
-0.718588
-0.721087
-0.837051
-0.834219
-0.83151
-0.828927
-0.826476
-0.824158
-0.821978
-0.81994
-0.818047
-0.8163
-0.814704
-0.813261
-0.811972
-0.81084
-0.809867
-0.809053
-0.8084
-0.80791
-0.807584
-0.807421
-0.807421
-0.807586
-0.807914
-0.808404
-0.809058
-0.809873
-0.810847
-0.811981
-0.813271
-0.814715
-0.816312
-0.81806
-0.819955
-0.821994
-0.824174
-0.826493
-0.828945
-0.831529
-0.83424
-0.837072
-0.953034
-0.94987
-0.946841
-0.943953
-0.941214
-0.938623
-0.936188
-0.93391
-0.931793
-0.929842
-0.928057
-0.926444
-0.925004
-0.923738
-0.922651
-0.921741
-0.921012
-0.920465
-0.9201
-0.919917
-0.919918
-0.920102
-0.920468
-0.921017
-0.921747
-0.922657
-0.923746
-0.925013
-0.926454
-0.928069
-0.929854
-0.931807
-0.933925
-0.936203
-0.938641
-0.941232
-0.943972
-0.946861
-0.949891
-0.953056
-1.06902
-1.06552
-1.06217
-1.05898
-1.05595
-1.05309
-1.0504
-1.04788
-1.04554
-1.04338
-1.04141
-1.03963
-1.03804
-1.03664
-1.03543
-1.03443
-1.03362
-1.03302
-1.03261
-1.03241
-1.03241
-1.03262
-1.03302
-1.03363
-1.03443
-1.03544
-1.03665
-1.03805
-1.03964
-1.04142
-1.0434
-1.04555
-1.04789
-1.05041
-1.05311
-1.05597
-1.059
-1.06219
-1.06554
-1.06904
-1.185
-1.18117
-1.1775
-1.17401
-1.17069
-1.16755
-1.1646
-1.16185
-1.15929
-1.15692
-1.15476
-1.15281
-1.15107
-1.14953
-1.14822
-1.14711
-1.14623
-1.14557
-1.14513
-1.14491
-1.14491
-1.14513
-1.14557
-1.14624
-1.14712
-1.14822
-1.14954
-1.15108
-1.15282
-1.15478
-1.15694
-1.1593
-1.16186
-1.16462
-1.16757
-1.17071
-1.17403
-1.17752
-1.18119
-1.18502
-1.30098
-1.29681
-1.29283
-1.28903
-1.28543
-1.28202
-1.27881
-1.27582
-1.27303
-1.27046
-1.26812
-1.26599
-1.2641
-1.26243
-1.261
-1.2598
-1.25884
-1.25812
-1.25764
-1.2574
-1.2574
-1.25764
-1.25813
-1.25885
-1.25981
-1.26101
-1.26244
-1.26411
-1.266
-1.26813
-1.27048
-1.27305
-1.27583
-1.27883
-1.28204
-1.28545
-1.28905
-1.29285
-1.29684
-1.301
-1.41696
-1.41246
-1.40816
-1.40406
-1.40016
-1.39648
-1.39302
-1.38978
-1.38677
-1.384
-1.38146
-1.37917
-1.37712
-1.37533
-1.37378
-1.37249
-1.37145
-1.37067
-1.37015
-1.3699
-1.3699
-1.37016
-1.37068
-1.37146
-1.3725
-1.37379
-1.37534
-1.37714
-1.37918
-1.38148
-1.38402
-1.38679
-1.3898
-1.39304
-1.3965
-1.40018
-1.40408
-1.40818
-1.41249
-1.41698
-1.53294
-1.52811
-1.52349
-1.51908
-1.5149
-1.51095
-1.50723
-1.50375
-1.50051
-1.49754
-1.49482
-1.49235
-1.49015
-1.48822
-1.48656
-1.48517
-1.48406
-1.48323
-1.48267
-1.48239
-1.48239
-1.48267
-1.48323
-1.48407
-1.48518
-1.48657
-1.48823
-1.49017
-1.49237
-1.49483
-1.49755
-1.50053
-1.50377
-1.50725
-1.51097
-1.51492
-1.51911
-1.52351
-1.52814
-1.53297
-1.64892
-1.64375
-1.63881
-1.6341
-1.62963
-1.6254
-1.62143
-1.61771
-1.61426
-1.61107
-1.60816
-1.60553
-1.60318
-1.60112
-1.59934
-1.59786
-1.59667
-1.59577
-1.59518
-1.59488
-1.59488
-1.59518
-1.59578
-1.59668
-1.59787
-1.59935
-1.60113
-1.6032
-1.60555
-1.60818
-1.61109
-1.61428
-1.61774
-1.62146
-1.62543
-1.62966
-1.63413
-1.63884
-1.64378
-1.64895
-1.76489
-1.7594
-1.75414
-1.74912
-1.74436
-1.73986
-1.73563
-1.73168
-1.728
-1.72461
-1.72151
-1.71871
-1.71621
-1.71401
-1.71212
-1.71054
-1.70927
-1.70832
-1.70769
-1.70737
-1.70737
-1.70769
-1.70833
-1.70928
-1.71055
-1.71213
-1.71402
-1.71623
-1.71873
-1.72153
-1.72463
-1.72803
-1.7317
-1.73566
-1.73989
-1.74439
-1.74915
-1.75417
-1.75943
-1.76493
-1.88087
-1.87504
-1.86946
-1.86415
-1.8591
-1.85432
-1.84984
-1.84564
-1.84174
-1.83815
-1.83486
-1.83189
-1.82924
-1.8269
-1.8249
-1.82322
-1.82188
-1.82087
-1.8202
-1.81986
-1.81986
-1.8202
-1.82088
-1.82189
-1.82323
-1.82491
-1.82692
-1.82925
-1.83191
-1.83488
-1.83817
-1.84177
-1.84567
-1.84986
-1.85435
-1.85913
-1.86418
-1.8695
-1.87508
-1.88091
-1.99685
-1.99069
-1.98479
-1.97917
-1.97383
-1.96878
-1.96404
-1.9596
-1.95548
-1.95168
-1.94821
-1.94506
-1.94226
-1.93979
-1.93767
-1.9359
-1.93448
-1.93342
-1.93271
-1.93235
-1.93235
-1.93271
-1.93342
-1.93449
-1.93591
-1.93769
-1.93981
-1.94228
-1.94508
-1.94823
-1.95171
-1.95551
-1.95963
-1.96407
-1.96881
-1.97386
-1.9792
-1.98482
-1.99072
-1.99689
-2.11282
-2.10633
-2.10011
-2.09418
-2.08856
-2.08324
-2.07824
-2.07356
-2.06922
-2.06521
-2.06155
-2.05824
-2.05528
-2.05268
-2.05045
-2.04858
-2.04709
-2.04596
-2.04521
-2.04484
-2.04484
-2.04522
-2.04597
-2.0471
-2.04859
-2.05046
-2.0527
-2.0553
-2.05826
-2.06158
-2.06524
-2.06925
-2.07359
-2.07827
-2.08328
-2.08859
-2.09422
-2.10015
-2.10637
-2.11287
-2.22879
-2.22197
-2.21543
-2.2092
-2.20329
-2.1977
-2.19244
-2.18752
-2.18296
-2.17874
-2.17489
-2.17141
-2.1683
-2.16557
-2.16322
-2.16126
-2.15969
-2.15851
-2.15772
-2.15733
-2.15733
-2.15772
-2.15852
-2.1597
-2.16127
-2.16324
-2.16559
-2.16832
-2.17143
-2.17492
-2.17877
-2.18299
-2.18756
-2.19247
-2.19773
-2.20332
-2.20924
-2.21547
-2.22201
-2.22884
-2.34476
-2.3376
-2.33075
-2.32422
-2.31801
-2.31215
-2.30663
-2.30148
-2.29669
-2.29227
-2.28823
-2.28458
-2.28132
-2.27846
-2.27599
-2.27393
-2.27229
-2.27105
-2.27022
-2.26981
-2.26981
-2.27023
-2.27106
-2.2723
-2.27395
-2.27601
-2.27848
-2.28134
-2.28461
-2.28826
-2.2923
-2.29672
-2.30152
-2.30667
-2.31219
-2.31806
-2.32426
-2.3308
-2.33765
-2.34482
-2.46073
-2.45324
-2.44607
-2.43923
-2.43274
-2.4266
-2.42083
-2.41543
-2.41042
-2.4058
-2.40157
-2.39775
-2.39434
-2.39134
-2.38876
-2.38661
-2.38488
-2.38359
-2.38272
-2.38229
-2.38229
-2.38273
-2.38359
-2.38489
-2.38662
-2.38878
-2.39136
-2.39436
-2.39778
-2.4016
-2.40583
-2.41046
-2.41547
-2.42087
-2.42664
-2.43278
-2.43928
-2.44612
-2.45329
-2.46079
-2.5767
-2.56887
-2.56138
-2.55424
-2.54746
-2.54105
-2.53502
-2.52939
-2.52415
-2.51932
-2.51491
-2.51092
-2.50735
-2.50422
-2.50153
-2.49928
-2.49748
-2.49612
-2.49522
-2.49477
-2.49477
-2.49522
-2.49613
-2.49749
-2.4993
-2.50155
-2.50425
-2.50738
-2.51095
-2.51494
-2.51936
-2.52419
-2.52943
-2.53507
-2.5411
-2.54751
-2.55429
-2.56144
-2.56893
-2.57676
-2.69267
-2.6845
-2.67669
-2.66925
-2.66218
-2.6555
-2.64921
-2.64334
-2.63788
-2.63284
-2.62824
-2.62408
-2.62036
-2.6171
-2.61429
-2.61195
-2.61007
-2.60866
-2.60772
-2.60725
-2.60725
-2.60772
-2.60867
-2.61009
-2.61197
-2.61432
-2.61713
-2.62039
-2.62411
-2.62828
-2.63288
-2.63792
-2.64339
-2.64927
-2.65555
-2.66223
-2.66931
-2.67675
-2.68457
-2.69273
-2.80862
-2.80013
-2.792
-2.78425
-2.77689
-2.76994
-2.7634
-2.75728
-2.7516
-2.74636
-2.74157
-2.73724
-2.73337
-2.72997
-2.72705
-2.72461
-2.72266
-2.72119
-2.72021
-2.71972
-2.71972
-2.72022
-2.7212
-2.72267
-2.72464
-2.72708
-2.73
-2.7334
-2.73728
-2.74161
-2.74641
-2.75165
-2.75734
-2.76346
-2.77
-2.77696
-2.78432
-2.79207
-2.8002
-2.8087
-2.92458
-2.91575
-2.9073
-2.89925
-2.8916
-2.88438
-2.87758
-2.87122
-2.86532
-2.85987
-2.8549
-2.8504
-2.84637
-2.84285
-2.83981
-2.83727
-2.83524
-2.83371
-2.8327
-2.83219
-2.83219
-2.8327
-2.83373
-2.83526
-2.8373
-2.83984
-2.84288
-2.84641
-2.85044
-2.85495
-2.85993
-2.86537
-2.87129
-2.87765
-2.88445
-2.89168
-2.89932
-2.90738
-2.91583
-2.92467
-3.04053
-3.03137
-3.0226
-3.01424
-3.00631
-2.99881
-2.99175
-2.98516
-2.97903
-2.97338
-2.96822
-2.96355
-2.95938
-2.95571
-2.95256
-2.94993
-2.94782
-2.94624
-2.94518
-2.94465
-2.94466
-2.94519
-2.94625
-2.94784
-2.94995
-2.95259
-2.95575
-2.95942
-2.9636
-2.96827
-2.97344
-2.9791
-2.98523
-2.99183
-2.99889
-3.00639
-3.01433
-3.02269
-3.03146
-3.04063
-3.15648
-3.14699
-3.1379
-3.12924
-3.12101
-3.11324
-3.10593
-3.09909
-3.09274
-3.08688
-3.08153
-3.07669
-3.07237
-3.06857
-3.0653
-3.06258
-3.06039
-3.05875
-3.05766
-3.05711
-3.05712
-3.05767
-3.05877
-3.06042
-3.06261
-3.06534
-3.06862
-3.07242
-3.07674
-3.08159
-3.08695
-3.09282
-3.09917
-3.10601
-3.11333
-3.1211
-3.12933
-3.138
-3.14709
-3.15659
-3.27242
-3.26259
-3.25319
-3.24422
-3.23571
-3.22766
-3.22009
-3.21302
-3.20644
-3.20038
-3.19484
-3.18982
-3.18535
-3.18142
-3.17804
-3.17522
-3.17296
-3.17126
-3.17013
-3.16956
-3.16957
-3.17014
-3.17128
-3.17299
-3.17525
-3.17809
-3.18147
-3.18541
-3.18989
-3.19491
-3.20046
-3.20653
-3.21311
-3.22019
-3.22776
-3.23581
-3.24433
-3.2533
-3.26271
-3.27255
-3.38835
-3.37819
-3.36846
-3.35919
-3.35039
-3.34207
-3.33425
-3.32693
-3.32013
-3.31386
-3.30813
-3.30295
-3.29832
-3.29426
-3.29077
-3.28785
-3.28551
-3.28376
-3.28258
-3.282
-3.28201
-3.2826
-3.28378
-3.28555
-3.2879
-3.29082
-3.29433
-3.2984
-3.30303
-3.30822
-3.31395
-3.32023
-3.32704
-3.33436
-3.34219
-3.35051
-3.35932
-3.3686
-3.37833
-3.3885
-3.50428
-3.49378
-3.48373
-3.47416
-3.46506
-3.45647
-3.44839
-3.44083
-3.43381
-3.42733
-3.42142
-3.41607
-3.41129
-3.40709
-3.40348
-3.40047
-3.39805
-3.39624
-3.39503
-3.39443
-3.39444
-3.39505
-3.39627
-3.39809
-3.40052
-3.40354
-3.40717
-3.41137
-3.41616
-3.42152
-3.42744
-3.43393
-3.44096
-3.44853
-3.45661
-3.46521
-3.47431
-3.48389
-3.49394
-3.50444
-3.62019
-3.60935
-3.59899
-3.5891
-3.57972
-3.57086
-3.56251
-3.55472
-3.54748
-3.54079
-3.53469
-3.52916
-3.52424
-3.51991
-3.51618
-3.51307
-3.51058
-3.50871
-3.50747
-3.50685
-3.50686
-3.50749
-3.50875
-3.51063
-3.51313
-3.51626
-3.52
-3.52434
-3.52928
-3.53481
-3.54093
-3.54762
-3.55487
-3.56267
-3.57102
-3.5799
-3.58928
-3.59917
-3.60954
-3.62038
-3.73608
-3.72491
-3.71422
-3.70404
-3.69436
-3.68522
-3.67662
-3.66858
-3.66112
-3.65423
-3.64793
-3.64224
-3.63716
-3.6327
-3.62886
-3.62565
-3.62309
-3.62116
-3.61988
-3.61924
-3.61925
-3.61991
-3.6212
-3.62315
-3.62573
-3.62895
-3.63281
-3.63729
-3.64238
-3.64808
-3.65439
-3.66129
-3.66877
-3.67682
-3.68542
-3.69458
-3.70425
-3.71444
-3.72514
-3.73631
-3.85194
-3.84044
-3.82943
-3.81894
-3.80897
-3.79956
-3.7907
-3.78242
-3.77473
-3.76763
-3.76115
-3.75529
-3.75005
-3.74545
-3.7415
-3.7382
-3.73556
-3.73358
-3.73226
-3.73161
-3.73162
-3.7323
-3.73363
-3.73564
-3.7383
-3.74162
-3.74559
-3.75021
-3.75546
-3.76134
-3.76784
-3.77495
-3.78265
-3.79095
-3.79981
-3.80923
-3.81921
-3.82971
-3.84072
-3.85223
-3.96778
-3.95593
-3.9446
-3.9338
-3.92355
-3.91385
-3.90474
-3.89621
-3.88829
-3.88099
-3.87432
-3.86828
-3.8629
-3.85817
-3.8541
-3.8507
-3.84799
-3.84595
-3.8446
-3.84393
-3.84394
-3.84464
-3.84603
-3.84809
-3.85084
-3.85426
-3.85835
-3.8631
-3.86851
-3.87456
-3.88126
-3.88858
-3.89651
-3.90505
-3.91418
-3.92388
-3.93414
-3.94495
-3.95629
-3.96813
-4.08355
-4.07137
-4.05972
-4.04861
-4.03806
-4.02809
-4.0187
-4.00994
-4.00179
-3.99428
-3.98742
-3.98121
-3.97567
-3.97081
-3.96663
-3.96314
-3.96035
-3.95826
-3.95687
-3.95618
-3.9562
-3.95693
-3.95836
-3.96049
-3.96332
-3.96685
-3.97106
-3.97595
-3.98152
-3.98775
-3.99464
-4.00217
-4.01034
-4.01912
-4.02851
-4.0385
-4.04905
-4.06017
-4.07183
-4.08402
-4.19926
-4.18673
-4.17475
-4.16332
-4.15247
-4.14222
-4.13257
-4.12356
-4.11518
-4.10746
-4.1004
-4.09402
-4.08833
-4.08334
-4.07904
-4.07546
-4.07259
-4.07045
-4.06902
-4.06833
-4.06836
-4.06912
-4.0706
-4.0728
-4.07573
-4.07935
-4.0837
-4.08874
-4.09447
-4.10089
-4.10797
-4.11572
-4.12412
-4.13315
-4.14281
-4.15308
-4.16393
-4.17537
-4.18735
-4.19987
-4.31482
-4.30195
-4.28962
-4.27788
-4.26672
-4.25617
-4.24626
-4.23698
-4.22837
-4.22043
-4.21318
-4.20662
-4.20077
-4.19564
-4.19123
-4.18756
-4.18463
-4.18243
-4.18099
-4.18029
-4.18034
-4.18113
-4.18268
-4.18496
-4.18798
-4.19174
-4.19621
-4.20141
-4.20732
-4.21392
-4.22122
-4.22919
-4.23783
-4.24712
-4.25705
-4.2676
-4.27877
-4.2905
-4.30283
-4.31569
-4.43013
-4.41688
-4.4042
-4.3921
-4.38061
-4.36976
-4.35954
-4.34998
-4.34112
-4.33295
-4.32547
-4.31873
-4.31272
-4.30745
-4.30294
-4.29919
-4.29619
-4.29398
-4.29252
-4.29184
-4.29193
-4.2928
-4.29442
-4.29682
-4.29996
-4.30385
-4.3085
-4.31387
-4.31997
-4.32679
-4.33431
-4.34252
-4.35141
-4.36098
-4.37119
-4.38204
-4.39351
-4.40559
-4.41824
-4.43145
-0.0327685
-0.279836
-0.526911
-0.77399
-1.02108
-1.26817
-1.51527
-1.76237
-2.00947
-2.25658
-2.5037
-2.75082
-2.99794
-3.24506
-3.49219
-3.73932
-3.98645
-4.23358
-4.48071
-4.72784
-4.97498
-5.22211
-5.46924
-5.71637
-5.9635
-6.21063
-6.45776
-6.70488
-6.952
-7.19912
-7.44623
-7.69334
-7.94045
-8.18755
-8.43465
-8.68174
-8.92883
-9.17591
-9.42298
-9.67005
-0.145976
-0.387155
-0.628353
-0.869567
-1.1108
-1.35205
-1.59332
-1.8346