/*--------------------------------*- C++ -*----------------------------------*\
  =========                 |
  \\      /  F ield         | OpenFOAM: The Open Source CFD Toolbox
   \\    /   O peration     | Website:  https://openfoam.org
    \\  /    A nd           | Version:  11
     \\/     M anipulation  |
\*---------------------------------------------------------------------------*/
FoamFile
{
    format      ascii;
    class       volScalarField;
    location    "10";
    object      mag(U);
}
// * * * * * * * * * * * * * * * * * * * * * * * * * * * * * * * * * * * * * //

dimensions      [0 1 -1 0 0 0 0];

internalField   nonuniform List<scalar> 
9600
(
0.994292
0.993444
0.992515
0.992154
0.991889
0.99167
0.991717
0.992053
0.992711
0.99365
0.994802
0.996146
0.99774
0.999316
1.00101
1.00275
1.00444
1.00587
1.00758
1.00847
1.00827
1.00851
1.0086
1.00788
1.00673
1.00575
1.00514
1.00476
1.00442
1.00402
1.00344
1.00227
0.99996
0.995384
0.984013
0.967884
0.962073
0.96049
0.973407
0.970804
0.994764
0.994706
0.994828
0.995142
0.995694
0.996223
0.996814
0.99764
0.998834
1.00045
1.00201
1.00363
1.00568
1.00812
1.01062
1.01295
1.01528
1.01772
1.01962
1.02111
1.02263
1.02293
1.02263
1.02235
1.02267
1.02284
1.02271
1.02221
1.02183
1.02186
1.02225
1.02296
1.023
1.02183
1.02117
1.02142
1.02161
1.02002
1.02305
1.0206
0.994889
0.994918
0.995067
0.995458
0.995833
0.996257
0.996914
0.997708
0.999104
1.00068
1.00249
1.00422
1.00608
1.00838
1.01112
1.0136
1.01567
1.01747
1.01948
1.02161
1.02286
1.02282
1.02241
1.02238
1.02299
1.02302
1.02281
1.02203
1.02136
1.02139
1.02199
1.02425
1.02668
1.02754
1.02742
1.02546
1.02227
1.01919
1.0197
1.01774
0.994918
0.994977
0.99521
0.995656
0.996155
0.996531
0.997265
0.998112
0.999658
1.00079
1.00285
1.0048
1.00677
1.00864
1.01118
1.01413
1.01675
1.01813
1.01968
1.02183
1.02339
1.02358
1.02315
1.02272
1.02251
1.02253
1.02244
1.02215
1.02191
1.02171
1.0223
1.0236
1.02466
1.02503
1.02468
1.02523
1.02523
1.02714
1.0268
1.03186
0.994957
0.995024
0.995308
0.99581
0.996298
0.996648
0.99739
0.998218
0.999704
1.0012
1.00316
1.00485
1.00697
1.00928
1.01193
1.0142
1.01666
1.019
1.02058
1.02178
1.02236
1.0234
1.02395
1.02369
1.02278
1.02153
1.02126
1.02166
1.02247
1.02307
1.0233
1.02303
1.02284
1.02316
1.02341
1.02595
1.02722
1.03054
1.03055
1.03376
0.994925
0.995007
0.995388
0.995902
0.99643
0.996723
0.997572
0.99837
1.0002
1.00135
1.00364
1.00511
1.00769
1.00944
1.01212
1.01446
1.01749
1.01942
1.02072
1.02174
1.02338
1.02444
1.02428
1.02348
1.02236
1.02167
1.02156
1.02183
1.02219
1.02257
1.0227
1.02292
1.02313
1.02346
1.02379
1.02524
1.02597
1.02759
1.02785
1.0318
0.994935
0.995025
0.99546
0.99594
0.996489
0.996794
0.997735
0.998526
1.00046
1.00173
1.00363
1.00539
1.00829
1.00996
1.01249
1.01493
1.01801
1.02003
1.02139
1.02216
1.02359
1.0245
1.0245
1.02388
1.02289
1.02179
1.02116
1.02115
1.02166
1.0225
1.02297
1.02339
1.02377
1.02402
1.02391
1.02451
1.02486
1.02583
1.02593
1.02976
0.99479
0.994904
0.99541
0.995903
0.996532
0.996818
0.997848
0.998648
1.00061
1.00183
1.00413
1.00576
1.00825
1.01051
1.01336
1.01537
1.01776
1.02035
1.0223
1.02321
1.02387
1.0242
1.02471
1.02441
1.02367
1.02225
1.02089
1.02041
1.02065
1.02186
1.023
1.02365
1.02404
1.02434
1.02441
1.02457
1.02443
1.02454
1.02425
1.02697
0.994759
0.994878
0.995437
0.995984
0.996636
0.996928
0.998004
0.998799
1.00088
1.00222
1.00438
1.00578
1.00877
1.01123
1.01389
1.0159
1.01823
1.0211
1.02339
1.0241
1.02436
1.02473
1.02513
1.02486
1.02394
1.02254
1.02105
1.02015
1.02013
1.02092
1.02247
1.0237
1.02444
1.02535
1.02558
1.02588
1.02474
1.02397
1.02285
1.0246
0.994536
0.994654
0.995278
0.995847
0.996612
0.99687
0.998038
0.998858
1.00099
1.00234
1.00459
1.00614
1.00903
1.01157
1.01454
1.01678
1.01886
1.0212
1.02373
1.02508
1.0255
1.02544
1.02515
1.02487
1.02399
1.02298
1.02154
1.02011
1.01945
1.01971
1.021
1.02327
1.02465
1.026
1.0262
1.02646
1.02525
1.02438
1.0225
1.02295
0.994623
0.994725
0.995415
0.996006
0.996719
0.996991
0.998171
0.999008
1.00111
1.00273
1.00507
1.0067
1.00924
1.01209
1.01524
1.01779
1.01992
1.02156
1.02449
1.0263
1.02697
1.02659
1.02575
1.0252
1.02434
1.02321
1.02182
1.02023
1.01916
1.01898
1.01982
1.02226
1.02413
1.02633
1.02708
1.02798
1.02696
1.02614
1.0231
1.02257
0.994444
0.994489
0.995215
0.995697
0.996508
0.99675
0.998064
0.998951
1.00105
1.00286
1.00529
1.00702
1.00968
1.01243
1.01566
1.01828
1.0212
1.02247
1.02501
1.0267
1.02805
1.02753
1.02679
1.02573
1.02442
1.0229
1.02152
1.0201
1.01888
1.01831
1.01852
1.02041
1.02269
1.02601
1.02747
1.02909
1.02832
1.02808
1.02477
1.02229
0.994535
0.994561
0.995367
0.995759
0.996574
0.996799
0.998128
0.999334
1.00129
1.00307
1.00569
1.0076
1.01062
1.01287
1.01647
1.01892
1.02241
1.02375
1.02635
1.02755
1.02923
1.02889
1.02842
1.02709
1.02522
1.02319
1.02134
1.01986
1.01852
1.01798
1.01772
1.0193
1.02112
1.02501
1.02709
1.03003
1.03016
1.03066
1.02841
1.02435
0.99416
0.994177
0.995067
0.995476
0.996351
0.996629
0.997817
0.99917
1.00142
1.00291
1.00592
1.00764
1.0111
1.01339
1.01726
1.01922
1.02311
1.02497
1.02756
1.02837
1.02988
1.02995
1.0295
1.02812
1.02586
1.02346
1.02101
1.01933
1.01758
1.01704
1.0165
1.0178
1.01922
1.02305
1.02573
1.0296
1.03123
1.03226
1.03184
1.02697
0.994208
0.994232
0.995114
0.995658
0.996176
0.996798
0.998155
0.999147
1.00181
1.00328
1.00649
1.00832
1.01206
1.01436
1.01841
1.02034
1.02421
1.02632
1.02909
1.03009
1.03142
1.03164
1.03101
1.02967
1.02732
1.0246
1.02153
1.01909
1.01665
1.01599
1.01524
1.01657
1.0177
1.02135
1.02438
1.02876
1.03195
1.03407
1.03574
1.03094
0.993376
0.993502
0.994371
0.994891
0.995771
0.996141
0.997876
0.998988
1.00164
1.00324
1.00656
1.00851
1.0125
1.01484
1.01919
1.02127
1.02487
1.02725
1.02999
1.03171
1.0326
1.03278
1.03189
1.03046
1.02828
1.02548
1.02187
1.01873
1.01542
1.01422
1.01296
1.01417
1.01526
1.01854
1.0222
1.02668
1.03143
1.03405
1.03856
1.03407
0.993006
0.993569
0.99435
0.994632
0.995873
0.996294
0.998019
0.999158
1.00213
1.00386
1.00737
1.00936
1.01339
1.01601
1.02064
1.02348
1.02667
1.02924
1.03178
1.03385
1.03468
1.03487
1.034
1.03221
1.02971
1.02696
1.0232
1.01965
1.01549
1.01322
1.01113
1.0116
1.01272
1.01549
1.01962
1.02416
1.03063
1.03412
1.04117
1.0383
0.991744
0.992129
0.993293
0.993535
0.994888
0.9955
0.99744
0.998684
1.00162
1.00366
1.00738
1.0097
1.01378
1.0167
1.02099
1.02459
1.02798
1.03083
1.03301
1.03537
1.03628
1.03633
1.03546
1.03376
1.03081
1.0275
1.02333
1.01934
1.01495
1.01178
1.00917
1.00826
1.00902
1.01063
1.01541
1.0195
1.02769
1.03183
1.04119
1.0409
0.991685
0.991793
0.993098
0.993354
0.994848
0.995514
0.997637
0.999125
1.00224
1.00438
1.00832
1.01106
1.01512
1.01875
1.02274
1.02686
1.03011
1.03379
1.03611
1.03831
1.03945
1.03957
1.03841
1.03648
1.0336
1.02973
1.02498
1.02012
1.01527
1.01096
1.00788
1.00564
1.00601
1.00621
1.01089
1.01435
1.02366
1.02867
1.04032
1.04262
0.990411
0.990542
0.991769
0.992044
0.99358
0.994508
0.996537
0.998435
1.00151
1.00423
1.00795
1.01156
1.01526
1.01962
1.02362
1.02839
1.03181
1.03554
1.03825
1.0406
1.0417
1.04195
1.04087
1.03851
1.03539
1.03115
1.0262
1.02048
1.01527
1.0094
1.00579
1.00145
1.00153
1.00012
1.00446
1.00691
1.01642
1.02216
1.03541
1.04096
0.990396
0.990566
0.991928
0.992293
0.993634
0.994983
0.996928
0.999102
1.00207
1.00561
1.00891
1.01357
1.01696
1.02219
1.02598
1.03123
1.03505
1.03928
1.04195
1.04469
1.04606
1.04618
1.04543
1.04293
1.03956
1.03477
1.02958
1.0227
1.01708
1.00972
1.00543
0.999114
0.997922
0.994579
0.997826
0.998909
1.0078
1.01402
1.02731
1.03739
0.988414
0.988958
0.990058
0.991066
0.992164
0.993852
0.995475
0.998592
1.00094
1.00553
1.00861
1.01411
1.01741
1.02348
1.02719
1.03317
1.037
1.0416
1.04472
1.04735
1.04933
1.04943
1.04892
1.04624
1.04313
1.03754
1.03253
1.02441
1.01856
1.00943
1.00437
0.996225
0.993853
0.988437
0.989696
0.989074
0.99575
1.00239
1.01328
1.02761
0.988063
0.989306
0.990041
0.991647
0.992382
0.995053
0.996218
0.999881
1.00206
1.00732
1.01027
1.01653
1.01994
1.02657
1.03066
1.03682
1.04149
1.04605
1.04995
1.05256
1.0547
1.05489
1.05491
1.05182
1.04893
1.04294
1.03796
1.02899
1.02269
1.01234
1.00637
0.996277
0.99181
0.984369
0.982982
0.980934
0.983477
0.99041
0.99705
1.01458
0.984934
0.987154
0.987307
0.989863
0.990421
0.993523
0.994846
0.998994
1.00169
1.00701
1.01059
1.01717
1.02095
1.02798
1.03284
1.03883
1.04443
1.04916
1.05355
1.05636
1.0591
1.05898
1.05936
1.05613
1.05364
1.0468
1.04203
1.03232
1.02573
1.01432
1.00721
0.995939
0.989268
0.980558
0.975177
0.972197
0.969322
0.975717
0.977463
0.99648
0.984641
0.98741
0.98745
0.989935
0.991054
0.993909
0.996696
1.00044
1.00383
1.00958
1.0135
1.02034
1.02522
1.03169
1.03788
1.04406
1.05009
1.05521
1.0603
1.06309
1.06641
1.0664
1.06732
1.06397
1.06177
1.0545
1.04996
1.03961
1.03233
1.0202
1.01148
0.999471
0.989635
0.980394
0.970195
0.966162
0.957539
0.961859
0.957556
0.976854
0.982042
0.98374
0.985477
0.986645
0.989108
0.991431
0.994399
0.998757
1.00284
1.00889
1.01428
1.02065
1.02728
1.03381
1.04071
1.04727
1.05404
1.05947
1.06519
1.06808
1.07203
1.0722
1.07322
1.06993
1.06841
1.06102
1.056
1.04581
1.03766
1.02572
1.01454
1.00308
0.989606
0.980281
0.965623
0.960171
0.946377
0.947774
0.936903
0.953464
0.984257
0.985041
0.986614
0.988059
0.990674
0.993064
0.997094
1.00065
1.00616
1.01123
1.01831
1.02481
1.0321
1.03949
1.04728
1.05429
1.06199
1.06756
1.07415
1.07767
1.08176
1.08205
1.08394
1.08061
1.07912
1.07242
1.06684
1.0575
1.04764
1.03706
1.02329
1.01265
0.995957
0.986275
0.967992
0.960447
0.941831
0.939464
0.922112
0.932619
0.97959
0.980953
0.984186
0.984796
0.988745
0.991008
0.995697
0.999501
1.00572
1.01147
1.01893
1.02607
1.03434
1.04214
1.05079
1.05851
1.06664
1.07337
1.08033
1.08413
1.08913
1.08983
1.09172
1.0894
1.08733
1.08223
1.07523
1.06779
1.05577
1.04691
1.03068
1.02107
1.00192
0.991771
0.970943
0.961487
0.939238
0.933591
0.911858
0.914707
0.980592
0.981766
0.985495
0.986378
0.991012
0.993881
0.999542
1.00448
1.01085
1.01764
1.02589
1.03383
1.04253
1.05147
1.06029
1.06908
1.07766
1.08486
1.09243
1.09698
1.1019
1.10404
1.10492
1.10475
1.10127
1.09862
1.08996
1.08515
1.07143
1.06445
1.04689
1.03764
1.01757
1.00661
0.984252
0.973015
0.948755
0.939007
0.91385
0.909012
0.973749
0.975513
0.979445
0.981886
0.98614
0.990433
0.996712
1.00267
1.0102
1.01846
1.02674
1.03689
1.0464
1.0566
1.06632
1.07597
1.08548
1.09368
1.10104
1.10766
1.11122
1.11594
1.1152
1.11781
1.11236
1.11276
1.10221
1.09963
1.08527
1.07914
1.0617
1.05252
1.03223
1.02069
0.997896
0.98478
0.960279
0.946653
0.921541
0.908421
0.973764
0.977306
0.98132
0.984981
0.989676
0.994992
1.00111
1.00938
1.01651
1.02731
1.03615
1.04794
1.05778
1.07001
1.07996
1.092
1.10034
1.11183
1.11717
1.12716
1.1288
1.13671
1.13394
1.13935
1.13261
1.1347
1.12465
1.12303
1.10965
1.10433
1.08787
1.07896
1.05984
1.04721
1.02576
1.01018
0.986813
0.97013
0.946953
0.929132
0.964948
0.969311
0.973488
0.979075
0.983409
0.992128
0.99723
1.00822
1.01552
1.02862
1.03738
1.05228
1.06146
1.07731
1.08586
1.1022
1.10872
1.12391
1.12755
1.14053
1.14092
1.15092
1.14812
1.15466
1.14882
1.15176
1.14298
1.14175
1.13009
1.12442
1.11105
1.10118
1.08529
1.07157
1.05245
1.03579
1.0144
0.993304
0.973378
0.949369
0.967682
0.97478
0.977434
0.985081
0.989218
0.999351
1.0054
1.01875
1.02657
1.04292
1.0519
1.07029
1.07901
1.0981
1.10588
1.12453
1.13061
1.14757
1.15141
1.16539
1.16617
1.17659
1.17468
1.18098
1.1767
1.17866
1.17261
1.17061
1.16293
1.15831
1.14706
1.14045
1.12564
1.1147
1.09836
1.08172
1.06441
1.04253
1.02689
0.999816
0.955361
0.966324
0.970054
0.980703
0.986303
0.999135
1.00693
1.02226
1.03143
1.04961
1.05932
1.07988
1.08937
1.11068
1.11946
1.13933
1.14645
1.16373
1.16893
1.18247
1.18558
1.19485
1.19595
1.20096
1.19983
1.2013
1.19804
1.19666
1.19137
1.18663
1.18035
1.17041
1.16419
1.14871
1.14165
1.11998
1.11224
1.08502
1.07553
1.04643
0.95952
0.968158
0.973954
0.984649
0.993782
1.00879
1.02017
1.03935
1.05162
1.07403
1.08634
1.10987
1.12301
1.14494
1.15805
1.17618
1.18914
1.20159
1.21435
1.21993
1.2324
1.23148
1.24246
1.2375
1.24537
1.23919
1.24386
1.2371
1.24024
1.23167
1.23482
1.22304
1.22511
1.2112
1.21075
1.19515
1.19138
1.17167
1.16704
1.1432
0.949601
0.967726
0.9747
0.992146
1.0015
1.02088
1.0325
1.05277
1.06771
1.08977
1.10622
1.1292
1.14669
1.16729
1.18482
1.20068
1.21786
1.22733
1.24329
1.24648
1.26029
1.25835
1.26931
1.26378
1.27255
1.26462
1.27305
1.26342
1.27231
1.26224
1.27127
1.2603
1.27017
1.25712
1.26558
1.25103
1.25582
1.24012
1.24273
1.22282
0.949877
0.965252
0.977753
1.0012
1.01829
1.04596
1.06654
1.09494
1.11523
1.14283
1.16189
1.18875
1.2054
1.23003
1.24404
1.26451
1.27595
1.29135
1.29863
1.31001
1.31208
1.32011
1.31778
1.32286
1.31823
1.32161
1.31688
1.32021
1.3173
1.32162
1.32129
1.32662
1.32784
1.3331
1.33427
1.33859
1.33912
1.34191
1.34276
1.34387
0.963678
0.988303
1.00909
1.03556
1.05287
1.08272
1.09882
1.13105
1.14913
1.18266
1.20143
1.2332
1.25011
1.27797
1.29198
1.31457
1.3246
1.34141
1.34596
1.35727
1.35672
1.36276
1.35755
1.35984
1.35138
1.35266
1.34394
1.347
1.34055
1.34714
1.34384
1.35475
1.35232
1.36748
1.36274
1.38128
1.3777
1.39557
1.38522
1.40048
0.996391
1.03576
1.07402
1.11745
1.15081
1.19527
1.22733
1.26659
1.29892
1.33327
1.36244
1.39134
1.41572
1.43867
1.45803
1.47396
1.48753
1.4968
1.50245
1.50438
1.50066
1.49495
1.48337
1.47258
1.45421
1.43915
1.417
1.40008
1.37837
1.36155
1.3436
1.32937
1.31705
1.30746
1.29965
1.29023
1.27284
1.24152
1.18014
1.15411
1.16452
1.20138
1.23817
1.27562
1.31273
1.34776
1.38009
1.40934
1.43305
1.45754
1.4681
1.48828
1.4924
1.50833
1.50853
1.5178
1.51047
1.50824
1.49148
1.47772
1.45158
1.42711
1.39089
1.35455
1.30727
1.25982
1.20397
1.1483
1.08739
1.02642
0.964958
0.900443
0.843565
0.777001
0.728744
0.651048
0.588558
0.311846
0.0603942
0.109762
1.03338
1.04183
1.03281
1.00302
0.92422
0.849905
0.832768
0.778535
0.68867
0.635093
0.758798
1.22949
1.33803
1.23195
1.13133
1.09412
1.05486
1.0427
1.03554
1.03033
1.0289
1.02657
1.02539
1.02442
1.02354
1.02284
1.02228
1.02134
1.02081
1.01985
1.01941
1.0189
1.01856
1.01842
1.01823
1.01829
1.01788
1.01701
1.01499
1.00871
1.04075
1.03985
1.01951
0.984078
0.913066
0.845865
0.79121
0.75114
0.700626
0.672232
0.848446
1.25967
1.30497
1.20582
1.10764
1.09264
1.05751
1.04311
1.03677
1.03128
1.02994
1.02754
1.02645
1.02529
1.02414
1.02354
1.0228
1.02201
1.02151
1.02051
1.01992
1.01933
1.01883
1.01859
1.01837
1.01856
1.01877
1.01908
1.01901
1.02042
1.0351
1.03141
1.01334
0.982401
0.922067
0.845723
0.819582
0.77573
0.738118
0.744571
0.940832
1.28123
1.29668
1.18591
1.07921
1.07888
1.0537
1.0389
1.03605
1.03071
1.02975
1.02778
1.02691
1.026
1.02479
1.02428
1.02331
1.02266
1.02215
1.02117
1.02065
1.01993
1.01944
1.01899
1.01869
1.01857
1.01872
1.01873
1.01804
1.01499
1.03486
1.02817
1.00551
0.971225
0.924057
0.867465
0.821576
0.807939
0.797438
0.833485
1.02218
1.26109
1.24911
1.14885
1.05798
1.0625
1.05093
1.03727
1.03579
1.03078
1.03016
1.02838
1.02737
1.02665
1.02559
1.02502
1.02404
1.02345
1.02283
1.02202
1.02143
1.02068
1.02013
1.01958
1.01927
1.01912
1.01917
1.01932
1.01986
1.02192
1.03076
1.01972
1.00104
0.972438
0.932244
0.892193
0.868223
0.849624
0.853132
0.911446
1.05482
1.23275
1.21479
1.12461
1.02895
1.03823
1.04306
1.0316
1.03318
1.02919
1.02911
1.02836
1.02741
1.02697
1.0259
1.02546
1.02437
1.02387
1.0232
1.02245
1.02187
1.02102
1.02048
1.01984
1.01955
1.01925
1.01917
1.01901
1.01845
1.01704
1.02855
1.01661
0.9984
0.972019
0.942701
0.911097
0.889947
0.890561
0.901992
0.950189
1.06009
1.1829
1.16905
1.08564
1.00061
1.01824
1.03655
1.02685
1.0309
1.02814
1.02816
1.02821
1.02749
1.02724
1.02626
1.0258
1.02485
1.02427
1.02347
1.02279
1.02213
1.02131
1.02079
1.02007
1.0198
1.01951
1.01938
1.01942
1.01957
1.02069
1.02478
1.01164
0.996302
0.978309
0.947998
0.939527
0.93231
0.926512
0.930728
0.968623
1.05417
1.13858
1.12948
1.04715
0.96451
0.998006
1.02463
1.01907
1.02728
1.02646
1.027
1.02788
1.02748
1.02745
1.02681
1.02639
1.0255
1.02483
1.02409
1.02335
1.02275
1.02182
1.02121
1.02031
1.01994
1.01959
1.0194
1.01927
1.01886
1.01797
1.02213
1.01103
0.999178
0.987752
0.970925
0.956441
0.953594
0.962944
0.95982
0.979922
1.03204
1.08257
1.07702
0.999657
0.932846
0.981776
1.01318
1.01272
1.02325
1.02507
1.02588
1.02767
1.02748
1.02759
1.02732
1.02696
1.02634
1.0257
1.02508
1.02429
1.02371
1.0229
1.02208
1.02108
1.02057
1.02023
1.0199
1.01977
1.0197
1.02002
1.01967
1.00901
1.00092
0.996602
0.980382
0.990447
0.997392
1.00173
0.982779
0.98461
1.00494
1.04039
1.03753
0.956205
0.900304
0.962765
0.998706
1.00465
1.01725
1.02269
1.02393
1.02679
1.02722
1.02761
1.02756
1.02727
1.02673
1.02624
1.02577
1.02498
1.02441
1.02374
1.02301
1.02214
1.0214
1.02074
1.02022
1.01991
1.01954
1.01883
1.01924
1.01198
1.01014
1.01101
1.00953
1.01572
1.02529
1.04106
1.01979
0.985784
0.986746
0.998044
0.985061
0.908155
0.875183
0.947034
0.986384
0.99753
1.01095
1.01926
1.02136
1.0253
1.02641
1.02739
1.02775
1.02769
1.02714
1.02657
1.02617
1.02543
1.02483
1.02421
1.02355
1.02288
1.0222
1.02151
1.02095
1.02055
1.02024
1.02016
1.01995
1.01468
1.01627
1.01995
1.02236
1.0547
1.07896
1.08851
1.04485
0.980884
0.965007
0.959289
0.936459
0.866197
0.853156
0.931905
0.973678
0.989725
1.00561
1.01501
1.01901
1.02355
1.02553
1.02705
1.02781
1.02801
1.02764
1.02701
1.02656
1.02586
1.02512
1.02457
1.02395
1.02323
1.02258
1.02183
1.02125
1.02074
1.02025
1.01983
1.02265
1.02168
1.02827
1.04135
1.05505
1.08697
1.11978
1.13548
1.05049
0.967981
0.931318
0.907692
0.867787
0.819436
0.837362
0.920414
0.963133
0.983567
1.00184
1.01074
1.01771
1.02224
1.02519
1.02671
1.02785
1.02834
1.02831
1.0277
1.02722
1.02649
1.02569
1.02499
1.02441
1.02367
1.02312
1.02233
1.02183
1.02129
1.0209
1.02066
1.02687
1.02739
1.0379
1.05455
1.07221
1.13275
1.18866
1.18028
1.04861
0.936651
0.878088
0.846659
0.802816
0.784549
0.828241
0.910195
0.952341
0.977242
0.997021
1.00733
1.0162
1.02087
1.02444
1.02635
1.02781
1.02854
1.02895
1.02856
1.02813
1.02756
1.02682
1.02593
1.02528
1.02427
1.0237
1.02285
1.0224
1.02159
1.02117
1.02061
1.03082
1.03748
1.05155
1.0751
1.11247
1.18801
1.24712
1.19306
1.02412
0.877158
0.807468
0.771812
0.736519
0.755434
0.827975
0.903551
0.943585
0.971657
0.991802
1.00394
1.01338
1.01935
1.02325
1.02609
1.0276
1.02857
1.02917
1.02913
1.02893
1.02857
1.02806
1.02723
1.02664
1.02572
1.0252
1.02419
1.02373
1.0227
1.02224
1.02166
1.03646
1.04516
1.06409
1.09115
1.13781
1.25311
1.30945
1.19362
0.961963
0.791367
0.723287
0.702094
0.702474
0.750728
0.836745
0.899208
0.937706
0.967548
0.986575
1.00058
1.01035
1.01769
1.02169
1.02552
1.02743
1.02855
1.0294
1.0295
1.02929
1.02907
1.0287
1.02821
1.02754
1.02669
1.02615
1.02513
1.02452
1.02339
1.02291
1.02229
1.04173
1.05491
1.07847
1.10978
1.18918
1.33079
1.32157
1.15582
0.857577
0.689197
0.647354
0.662823
0.693147
0.76195
0.849829
0.90055
0.937483
0.966471
0.984206
0.999292
1.00813
1.01677
1.02054
1.02461
1.02706
1.0284
1.02953
1.02998
1.02967
1.02961
1.02913
1.02878
1.02836
1.02753
1.02712
1.026
1.02551
1.02442
1.02391
1.02315
1.04821
1.06359
1.08873
1.13058
1.23786
1.37234
1.31306
1.09686
0.763419
0.625769
0.629175
0.68153
0.723997
0.793769
0.864102
0.906216
0.941041
0.967096
0.985187
0.999526
1.00762
1.01653
1.02021
1.02411
1.02686
1.02838
1.0294
1.03028
1.02996
1.03019
1.02964
1.02919
1.02889
1.02793
1.02763
1.02652
1.02603
1.02512
1.0247
1.02411
1.05093
1.07196
1.09833
1.15182
1.28689
1.36525
1.27756
1.05774
0.785959
0.690251
0.709097
0.746037
0.768863
0.829653
0.87933
0.918843
0.949882
0.970337
0.988089
1.00101
1.00838
1.01673
1.02157
1.02434
1.02746
1.02922
1.02991
1.03118
1.03069
1.03128
1.03056
1.03019
1.02992
1.02893
1.02862
1.02764
1.02713
1.02613
1.02555
1.02486
1.0534
1.07783
1.09977
1.16627
1.29101
1.28869
1.2172
1.11286
0.93653
0.862439
0.815313
0.81708
0.824209
0.870078
0.898782
0.936493
0.962769
0.97773
0.992097
1.00409
1.01129
1.01774
1.0242
1.02523
1.02911
1.0307
1.03126
1.03283
1.03204
1.03271
1.03198
1.03149
1.03124
1.03017
1.02974
1.02866
1.02808
1.0274
1.0267
1.02613
1.05313
1.07373
1.09402
1.16703
1.23481
1.18672
1.17908
1.12468
1.01239
0.943416
0.881001
0.877283
0.874848
0.909994
0.926123
0.960698
0.978971
0.9911
0.998308
1.0094
1.01643
1.0192
1.0268
1.02735
1.03044
1.03221
1.03226
1.03395
1.03325
1.03381
1.03337
1.03279
1.03233
1.03139
1.03064
1.02993
1.02875
1.02813
1.02733
1.02684
1.04924
1.06224
1.07601
1.14326
1.11833
1.0997
1.12297
1.10199
1.02294
0.968387
0.92816
0.939987
0.927198
0.954417
0.962596
0.987824
0.997374
1.00878
1.00937
1.01666
1.02238
1.02242
1.02904
1.02926
1.03164
1.03298
1.03317
1.0339
1.03397
1.03373
1.03396
1.03326
1.03296
1.03204
1.03116
1.03076
1.02977
1.02941
1.02855
1.0284
1.03732
1.03848
1.04688
1.07649
0.991438
1.00166
1.04366
1.03765
1.00601
0.963892
0.962237
0.990355
0.979147
0.998541
1.00384
1.01777
1.02289
1.02955
1.02501
1.02727
1.03009
1.02878
1.03231
1.03271
1.03386
1.03436
1.03535
1.0347
1.03601
1.03474
1.03566
1.03462
1.03452
1.03379
1.03265
1.03234
1.03111
1.03083
1.02966
1.02935
1.01907
1.00731
1.00604
0.980348
0.870438
0.882455
0.946904
0.951539
0.955377
0.943225
0.977632
1.00921
1.04016
1.04229
1.04533
1.05083
1.05595
1.05175
1.04702
1.04295
1.04243
1.03943
1.03966
1.03962
1.03947
1.03868
1.04009
1.03805
1.03985
1.03795
1.03872
1.03755
1.03735
1.03686
1.03581
1.03511
1.03382
1.03315
1.03213
1.03166
0.992634
0.966275
0.953712
0.884182
0.756895
0.76026
0.833101
0.858774
0.880904
0.906394
0.972605
1.02139
1.07281
1.081
1.08825
1.08818
1.08902
1.07976
1.07295
1.06174
1.0592
1.05256
1.05079
1.04839
1.04815
1.04524
1.04642
1.04326
1.04405
1.04223
1.04183
1.04108
1.03973
1.03919
1.03798
1.03682
1.03552
1.03437
1.03355
1.03287
0.961631
0.92852
0.897426
0.814687
0.664888
0.663205
0.722903
0.759513
0.788975
0.840961
0.931786
1.01223
1.08474
1.12263
1.12997
1.12312
1.12198
1.11185
1.09802
1.08401
1.07702
1.06675
1.06277
1.05739
1.05621
1.0512
1.05116
1.04748
1.04668
1.04528
1.04341
1.04329
1.04117
1.04054
1.03954
1.03843
1.03775
1.03614
1.0357
1.03466
0.929746
0.892741
0.84482
0.775668
0.628394
0.606795
0.628954
0.657508
0.680239
0.743852
0.853881
0.969808
1.07625
1.14622
1.16456
1.16179
1.15422
1.14494
1.12477
1.11044
1.09572
1.08523
1.07454
1.06949
1.06364
1.05908
1.05633
1.05337
1.05062
1.04933
1.04633
1.04545
1.04357
1.04223
1.04128
1.03966
1.0393
1.03789
1.03762
1.03697
0.904995
0.868676
0.811836
0.757481
0.645012
0.612489
0.58905
0.581499
0.57992
0.630976
0.740435
0.882769
1.03198
1.14126
1.19026
1.2035
1.18773
1.18026
1.15767
1.13946
1.12073
1.10977
1.0922
1.08797
1.07707
1.07285
1.0667
1.06399
1.0593
1.05774
1.05399
1.05205
1.0503
1.04794
1.04709
1.04453
1.04355
1.04139
1.04047
1.03949
0.886094
0.851113
0.798659
0.756143
0.696787
0.652369
0.613217
0.582241
0.54269
0.54457
0.609617
0.748428
0.933575
1.10357
1.19698
1.2313
1.22805
1.21437
1.19452
1.17053
1.15231
1.13556
1.11867
1.10834
1.09771
1.0893
1.08208
1.07768
1.07148
1.06885
1.06356
1.06119
1.05802
1.05536
1.05339
1.05094
1.04908
1.04722
1.04593
1.04515
0.880331
0.846371
0.809602
0.771947
0.734829
0.707979
0.67315
0.638994
0.602617
0.563606
0.53607
0.597912
0.77801
1.00522
1.16408
1.23453
1.25638
1.24334
1.22614
1.19767
1.17879
1.15929
1.14337
1.12707
1.11872
1.10422
1.09863
1.09038
1.08526
1.07999
1.07584
1.07154
1.06813
1.06428
1.06093
1.05767
1.05437
1.05217
1.04977
1.04872
0.885197
0.855123
0.828324
0.80176
0.780062
0.756351
0.743061
0.718878
0.690689
0.662857
0.624456
0.562423
0.601906
0.820516
1.07331
1.2081
1.25549
1.26673
1.24765
1.22052
1.1975
1.1806
1.16161
1.14732
1.13488
1.12177
1.11209
1.1039
1.09687
1.09034
1.08688
1.08038
1.07876
1.07264
1.07084
1.06579
1.06332
1.05999
1.05763
1.05597
0.905317
0.881768
0.86251
0.852346
0.836385
0.812083
0.809698
0.807295
0.785821
0.761541
0.73514
0.695997
0.625587
0.607669
0.862194
1.12313
1.2374
1.26846
1.27103
1.24247
1.21666
1.19993
1.18089
1.16589
1.15154
1.14056
1.12665
1.12095
1.10893
1.10461
1.09618
1.09135
1.08607
1.0805
1.07721
1.072
1.06947
1.06531
1.06378
1.06115
0.931475
0.918319
0.91021
0.901941
0.912624
0.907464
0.898581
0.900295
0.895911
0.864505
0.827446
0.782858
0.732635
0.666282
0.609744
0.860054
1.13266
1.24633
1.27442
1.26654
1.24049
1.22191
1.20611
1.18749
1.17553
1.16022
1.14928
1.13896
1.12817
1.12087
1.11164
1.1066
1.09857
1.09513
1.08835
1.08583
1.08017
1.07805
1.07443
1.0725
0.988952
0.97901
0.972459
0.98629
0.994117
1.01181
1.02965
1.02281
0.988403
0.931933
0.862946
0.80906
0.770246
0.71939
0.654326
0.586921
0.774443
1.08117
1.21277
1.25136
1.24718
1.23352
1.22657
1.21023
1.20235
1.18822
1.17867
1.16834
1.15809
1.14731
1.13807
1.12813
1.11987
1.11161
1.10552
1.09994
1.09356
1.08996
1.08536
1.08348
1.04222
1.04102
1.04827
1.08085
1.10016
1.12434
1.12292
1.08115
1.02114
0.947847
0.864409
0.78967
0.728151
0.68176
0.637177
0.58447
0.511153
0.617003
0.96241
1.11947
1.17799
1.19319
1.2066
1.20558
1.20493
1.19929
1.1931
1.18725
1.18104
1.17423
1.16753
1.16084
1.15265
1.14237
1.13477
1.12574
1.1192
1.11198
1.10792
1.10374
1.14708
1.15712
1.1805
1.1988
1.21353
1.20407
1.16855
1.09945
1.02166
0.94138
0.83945
0.734253
0.639937
0.572381
0.516421
0.465334
0.41865
0.367231
0.429217
0.795063
0.980683
1.06155
1.1136
1.14401
1.16172
1.17041
1.17657
1.17747
1.17827
1.17631
1.17285
1.17047
1.16683
1.16287
1.15856
1.15341
1.14668
1.14044
1.13407
1.12714
1.23897
1.2619
1.27664
1.28532
1.27187
1.23233
1.17279
1.0923
0.98694
0.868876
0.741819
0.621832
0.528026
0.426307
0.346017
0.292887
0.250078
0.201963
0.13949
0.231621
0.636745
0.822728
0.929061
1.01199
1.06011
1.09699
1.12119
1.13385
1.14749
1.15291
1.15953
1.16135
1.1641
1.16426
1.16388
1.16248
1.16065
1.15737
1.15366
1.15098
1.35217
1.35155
1.34459
1.31979
1.27493
1.20616
1.10762
0.966071
0.826086
0.661514
0.489059
0.359127
0.267818
0.221701
0.218603
0.221883
0.219455
0.20273
0.201494
0.205727
0.129983
0.462341
0.62893
0.774054
0.873138
0.948564
1.00519
1.04263
1.07396
1.0959
1.11489
1.12882
1.14229
1.14955
1.15687
1.16118
1.16381
1.16473
1.16718
1.16669
1.3801
1.34705
1.29971
1.22675
1.13784
0.979681
0.802142
0.63319
0.46038
0.315432
0.196512
0.143063
0.202832
0.258402
0.308796
0.363059
0.390652
0.397529
0.401535
0.398518
0.383893
0.279296
0.407338
0.533603
0.655044
0.756947
0.837481
0.902874
0.96017
0.99921
1.02977
1.04876
1.06613
1.08781
1.10233
1.11571
1.1273
1.14031
1.14602
1.16032
1.03109
0.867738
0.693405
0.496231
0.271663
0.155808
0.228401
0.339161
0.422444
0.465801
0.519096
0.552699
0.584823
0.608536
0.63204
0.641291
0.651159
0.657313
0.675442
0.697991
0.706091
0.675687
0.502183
0.301979
0.375497
0.551064
0.66125
0.776566
0.839303
0.908751
0.951685
1.0046
1.02918
1.05515
1.08066
1.10375
1.12457
1.14217
1.15302
1.16304
0.21144
0.317587
0.399549
0.472784
0.521607
0.558343
0.592558
0.627389
0.660024
0.687515
0.709741
0.726356
0.734911
0.733675
0.73028
0.72083
0.713522
0.70344
0.689156
0.6737
0.666142
0.645702
0.606348
0.531234
0.511111
0.559387
0.537068
0.388854
0.231012
0.540705
0.609317
0.641792
0.689802
0.717874
0.764656
0.795431
0.844083
0.879082
0.93881
0.984298
0.978873
0.989032
0.983239
0.987982
0.994083
1.0041
1.01382
1.01768
1.01837
1.01702
1.01527
1.01389
1.01394
1.01396
1.014
1.01387
1.01356
1.01321
1.01301
1.01276
1.01246
1.01202
1.01169
1.01135
1.01099
1.01062
1.01022
1.00981
1.00938
1.00892
1.00844
1.00796
1.00748
1.00699
1.0065
1.00606
1.00564
1.00523
1.00484
1.00459
1.02582
1.02781
1.0278
1.02603
1.02217
1.01728
1.01466
1.01393
1.01432
1.01527
1.0164
1.01682
1.01675
1.01651
1.01619
1.01582
1.01544
1.01509
1.01474
1.01437
1.01395
1.01346
1.01299
1.01257
1.01218
1.01176
1.01131
1.01083
1.0103
1.00975
1.00922
1.00869
1.00814
1.00757
1.00698
1.00642
1.00595
1.00555
1.00518
1.00482
1.00826
1.01136
1.01244
1.01361
1.0147
1.01482
1.01542
1.01535
1.01607
1.01656
1.01686
1.0169
1.01684
1.01667
1.01644
1.01614
1.0158
1.01543
1.01508
1.01477
1.01442
1.01397
1.01347
1.01304
1.01264
1.0122
1.01175
1.01129
1.01081
1.01029
1.00976
1.00918
1.00863
1.00811
1.00752
1.00701
1.00655
1.00617
1.0058
1.00552
1.02639
1.02609
1.02433
1.02224
1.01962
1.01746
1.01671
1.01672
1.01705
1.01715
1.01716
1.01706
1.01688
1.01673
1.01661
1.01642
1.01606
1.0156
1.01518
1.01484
1.01445
1.01402
1.01361
1.0132
1.01274
1.01225
1.01181
1.01141
1.011
1.01053
1.00995
1.00933
1.00879
1.00827
1.00767
1.00713
1.00671
1.00628
1.00589
1.00554
1.01447
1.01544
1.01532
1.01552
1.01569
1.016
1.01638
1.01666
1.01725
1.01728
1.01734
1.01719
1.01709
1.01701
1.01683
1.01664
1.01625
1.01596
1.01564
1.01528
1.01483
1.01441
1.01402
1.01367
1.01324
1.0127
1.01227
1.01185
1.0115
1.01098
1.01041
1.00984
1.00934
1.00881
1.00819
1.00766
1.00726
1.00687
1.00645
1.00616
1.02299
1.02223
1.02188
1.0209
1.01987
1.01907
1.01837
1.01807
1.01798
1.01802
1.01794
1.01774
1.01749
1.01727
1.01708
1.01684
1.01649
1.01603
1.0156
1.01526
1.01493
1.01449
1.01403
1.01363
1.0132
1.01274
1.01232
1.01198
1.01158
1.01094
1.01042
1.00993
1.00941
1.00891
1.00831
1.00779
1.00734
1.00689
1.00644
1.00608
1.01659
1.01686
1.01677
1.01716
1.01738
1.01752
1.01759
1.0177
1.01789
1.01804
1.01815
1.01794
1.01774
1.01753
1.01739
1.01726
1.01693
1.01655
1.01608
1.01577
1.01543
1.01507
1.01461
1.01418
1.01369
1.01326
1.01291
1.01261
1.0121
1.01155
1.01093
1.01051
1.00991
1.00941
1.00882
1.00834
1.00782
1.00747
1.00709
1.00677
1.02104
1.02086
1.02059
1.0203
1.01991
1.01962
1.0192
1.01906
1.01886
1.01884
1.0186
1.01836
1.01807
1.01799
1.01778
1.01746
1.017
1.01663
1.01626
1.01587
1.0155
1.01506
1.0147
1.01421
1.01371
1.01331
1.01298
1.01262
1.01219
1.01164
1.01111
1.01058
1.01015
1.00954
1.00893
1.00845
1.00797
1.00753
1.00703
1.00669
1.01796
1.0182
1.01828
1.01849
1.01854
1.01867
1.01872
1.01895
1.01909
1.01911
1.01888
1.01865
1.0185
1.01855
1.01842
1.01818
1.01774
1.01737
1.01697
1.01664
1.01623
1.01587
1.01542
1.01493
1.01442
1.01411
1.01375
1.01334
1.01279
1.01231
1.01174
1.01127
1.01068
1.01011
1.00952
1.00908
1.00872
1.0083
1.00781
1.00745
1.02041
1.02061
1.0205
1.02052
1.02014
1.02006
1.01987
1.01994
1.01983
1.01968
1.01926
1.01909
1.01892
1.01895
1.01857
1.01835
1.01793
1.01767
1.0171
1.01682
1.0164
1.01602
1.01548
1.01502
1.01455
1.01425
1.01394
1.0135
1.01304
1.01248
1.01202
1.01156
1.01103
1.01037
1.00982
1.00929
1.00883
1.00829
1.00783
1.00749
1.01929
1.01947
1.01951