/*--------------------------------*- C++ -*----------------------------------*\
  =========                 |
  \\      /  F ield         | OpenFOAM: The Open Source CFD Toolbox
   \\    /   O peration     | Website:  https://openfoam.org
    \\  /    A nd           | Version:  11
     \\/     M anipulation  |
\*---------------------------------------------------------------------------*/
FoamFile
{
    format      ascii;
    class       volScalarField;
    location    "10";
    object      p;
}
// * * * * * * * * * * * * * * * * * * * * * * * * * * * * * * * * * * * * * //

dimensions      [0 2 -2 0 0 0 0];

internalField   nonuniform List<scalar> 
9600
(
0.0436005
0.0434467
0.0430601
0.0424351
0.041607
0.0406562
0.0394892
0.0380145
0.0361361
0.03389
0.0312827
0.0284046
0.02524
0.0217181
0.0179512
0.0140458
0.0102265
0.0066575
0.00340427
0.000562637
-0.0015846
-0.00297337
-0.00343689
-0.00307093
-0.00187096
-6.43912e-07
0.00227949
0.00471355
0.00712655
0.00942313
0.0114635
0.0130595
0.0142151
0.0150813
0.01618
0.0167552
0.0162653
0.0157919
0.0148677
0.0113387
0.0435449
0.0432992
0.04277
0.0420004
0.0410637
0.0399962
0.0387426
0.0371439
0.0351455
0.0327871
0.0301379
0.0272631
0.0241353
0.0207628
0.0171189
0.0133192
0.00962149
0.00616616
0.00304399
0.000335703
-0.00176036
-0.00307331
-0.00363147
-0.003288
-0.00226824
-0.000605298
0.00158
0.00395215
0.00633638
0.00863468
0.0106985
0.0124688
0.013824
0.0147004
0.0155768
0.0162747
0.0163997
0.0163158
0.0162494
0.0146043
0.0434687
0.0431436
0.0425529
0.041774
0.0408668
0.0398359
0.0385735
0.0369662
0.0349722
0.0326634
0.0300688
0.027187
0.0240318
0.0205702
0.0169104
0.0131689
0.00951531
0.0060872
0.00297121
0.000324492
-0.00174038
-0.00309437
-0.00369439
-0.00342498
-0.00236903
-0.000656081
0.00141549
0.00376251
0.00611038
0.00838777
0.0105111
0.0122279
0.0136504
0.0148209
0.0156416
0.0162554
0.0169598
0.0165068
0.016083
0.0153276
0.0433739
0.0429997
0.0423548
0.0415241
0.0405594
0.0394402
0.0380779
0.0363672
0.0342751
0.0318489
0.0291565
0.0262927
0.0232036
0.0198265
0.0162146
0.0125286
0.0089291
0.00554406
0.00245711
-0.000186057
-0.00222323
-0.00360504
-0.00417545
-0.00387652
-0.00292475
-0.00133726
0.000759311
0.00312215
0.00548819
0.00778239
0.0099328
0.0117277
0.0132647
0.0145495
0.0152915
0.0158766
0.0165438
0.0167986
0.0168279
0.0164151
0.0432745
0.0428588
0.0421574
0.0412578
0.0402526
0.0391124
0.037723
0.0359846
0.0338894
0.031505
0.0289038
0.0260391
0.0228849
0.0194488
0.0158325
0.0121876
0.00863005
0.00526737
0.00219505
-0.000412154
-0.00240643
-0.00370331
-0.00434892
-0.00419392
-0.003217
-0.00166279
0.000424433
0.00275471
0.00511232
0.00743099
0.0095963
0.011463
0.0130562
0.0143368
0.0153415
0.0159899
0.016606
0.0170266
0.0173077
0.0167621
0.0431766
0.0427184
0.0419577
0.0410096
0.039975
0.0388134
0.0373856
0.0355971
0.033447
0.0310049
0.0283056
0.0254225
0.0222805
0.0188505
0.0152486
0.0116212
0.00807549
0.00470173
0.00160572
-0.00103869
-0.0030746
-0.00440994
-0.00499818
-0.00485706
-0.00391546
-0.00237808
-0.000302166
0.00211865
0.00456989
0.00692656
0.00915263
0.0111194
0.0127897
0.0140854
0.0151871
0.0158781
0.0164715
0.0169879
0.017293
0.0171999
0.04307
0.0425778
0.0417683
0.0407752
0.039718
0.0385309
0.0370643
0.0352242
0.0330262
0.0305536
0.0278851
0.0249948
0.0218088
0.0183517
0.0147257
0.0110879
0.00754965
0.00417086
0.00106903
-0.00155931
-0.00357995
-0.00487661
-0.00547032
-0.00536584
-0.00448493
-0.00296095
-0.000907055
0.00156387
0.004085
0.00646961
0.00875604
0.0108012
0.012567
0.0139542
0.0150244
0.0158419
0.0164251
0.0169237
0.0173432
0.0175686
0.0429727
0.0424495
0.0415968
0.0405569
0.039473
0.0382667
0.0367701
0.0348836
0.0326421
0.0301445
0.0274328
0.0245148
0.0213048
0.0178066
0.0141491
0.0104953
0.00694335
0.00354221
0.000400978
-0.00228744
-0.00434433
-0.00568942
-0.00631585
-0.00619695
-0.00532167
-0.00376829
-0.0016896
0.000785139
0.00346032
0.00598035
0.00831174
0.01045
0.0123044
0.0138139
0.0148663
0.0158745
0.0164617
0.0168265
0.017228
0.0176778
0.0428856
0.0423262
0.0414398
0.0403533
0.0392456
0.0380298
0.0365088
0.0345815
0.0322887
0.029743
0.0269991
0.024058
0.02079
0.0172403
0.0135435
0.00985574
0.00625878
0.0028131
-0.000377175
-0.00310803
-0.00519416
-0.00655362
-0.00716741
-0.0070565
-0.00617997
-0.00461231
-0.00250349
-1.11405e-05
0.00273819
0.00544264
0.00788316
0.0101101
0.012066
0.0136761
0.0148097
0.0158434
0.0165242
0.0168726
0.0171804
0.0177014
0.0428172
0.0422041
0.0412979
0.0401769
0.0390513
0.0378265
0.0362804
0.0343021
0.0319579
0.0293674
0.0265905
0.023584
0.0202575
0.0166419
0.0128928
0.00915384
0.00548958
0.00199434
-0.00123609
-0.00403636
-0.00617958
-0.00755854
-0.00821208
-0.00811666
-0.00722742
-0.00562594
-0.0034591
-0.000899989
0.00190262
0.00477133
0.00741632
0.00975121
0.0118105
0.0135298
0.014846
0.0157598
0.0166167
0.0170536
0.0172367
0.0176101
0.0427685
0.042098
0.0411748
0.0400294
0.0388904
0.0376579
0.0360811
0.034055
0.0316559
0.0290047
0.0261712
0.0231051
0.0197061
0.0159986
0.0121761
0.00838523
0.0046582
0.00107606
-0.00222798
-0.00509358
-0.00730772
-0.00873668
-0.00942136
-0.00932523
-0.00842337
-0.00678748
-0.00454771
-0.00189172
0.000998995
0.00398381
0.00684616
0.00937161
0.0115532
0.0134125
0.0148821
0.0158297
0.0166317
0.0172198
0.0174158
0.0175366
0.0427351
0.042015
0.041085
0.0399344
0.038774
0.0375159
0.0359176
0.0338358
0.0313732
0.0286524
0.0257575
0.0226207
0.0191191
0.0153207
0.0114093
0.00753583
0.00373283
3.96018e-05
-0.0033533
-0.006286
-0.00858112
-0.0100738
-0.0107965
-0.0107083
-0.00979497
-0.00811129
-0.00579971
-0.003023
-2.29652e-05
0.00311026
0.00615365
0.00892563
0.0112932
0.013274
0.0148846
0.0160352
0.0167356
0.0173378
0.0177124
0.0176432
0.0427363
0.0419661
0.0410183
0.0398762
0.0387111
0.0374161
0.0357656
0.0336363
0.0311127
0.0283158
0.0253309
0.0221005
0.0185054
0.0145927
0.0105727
0.00658265
0.00269248
-0.00110022
-0.00461818
-0.00765337
-0.0100348
-0.0115837
-0.0123637
-0.0123103
-0.0113756
-0.00962321
-0.00724249
-0.00431951
-0.00117129
0.0021078
0.00533841
0.00836227
0.0109919
0.0131539
0.0148972
0.0162416
0.0170396
0.0175282
0.017983
0.0178481
0.0427736
0.0419559
0.0410001
0.0398591
0.0386906
0.0373581
0.0356432
0.0334615
0.0308697
0.027991
0.0248876
0.0215562
0.017868
0.0138061
0.0096552
0.00554717
0.00152459
-0.00238554
-0.0060399
-0.00917725
-0.0116645
-0.0133071
-0.0141292
-0.014098
-0.0131645
-0.0113607
-0.00889723
-0.00584167
-0.00250041
0.000963366
0.00440415
0.00769471
0.0106125
0.0130359
0.0149488
0.0164284
0.0174028
0.0179127
0.0183089
0.0181523
0.0428628
0.0419893
0.0410239
0.0398957
0.0387173
0.0373275
0.0355494
0.0333239
0.0306449
0.0276453
0.0244287
0.0209666
0.0171565
0.0129748
0.0086548
0.00437604
0.000205911
-0.00382472
-0.00763545
-0.0108892
-0.0135214
-0.0152627
-0.0161141
-0.0161115
-0.0152089
-0.0133716
-0.0108059
-0.00761026
-0.00405555
-0.000358396
0.00331185
0.00688006
0.0100991
0.0128402
0.0150573
0.0167028
0.0178429
0.0184105
0.0187548
0.0186201
0.0430006
0.0420823
0.0411183
0.039992
0.0387696
0.0373382
0.035495
0.0331934
0.0304371
0.0273163
0.0239522
0.0203375
0.0164045
0.0120618
0.00754976
0.00308768
-0.00127144
-0.00542665
-0.0094193
-0.0128373
-0.0155689
-0.0174321
-0.0183732
-0.0184027
-0.0174849
-0.0156278
-0.0129802
-0.00964255
-0.00589316
-0.00195037
0.00200376
0.00588196
0.00946598
0.0125589
0.0151527
0.0170579
0.0184108
0.0191073
0.0193066
0.019252
0.0432009
0.0422333
0.0412793
0.0401554
0.0388793
0.0373786
0.0354733
0.0330853
0.030238
0.0269643
0.0234331
0.019635
0.0155495
0.011059
0.00630866
0.00166225
-0.0029288
-0.00724824
-0.0114061
-0.0150275
-0.0178735
-0.0198871
-0.0209286
-0.0209775
-0.0200712
-0.0181917
-0.0154785
-0.0119951
-0.00803814
-0.00383735
0.00043891
0.00462192
0.00860043
0.0121135
0.0151581
0.0174477
0.0191147
0.0200538
0.0202299
0.020302
0.0435048
0.0424759
0.0414989
0.0403668
0.0390381
0.037458
0.0354844
0.0329902
0.0300311
0.0266096
0.0228871
0.0188921
0.0145912
0.00995919
0.00495462
6.52285e-05
-0.00477972
-0.00931598
-0.0136142
-0.0174509
-0.0204925
-0.0226373
-0.0237463
-0.0238897
-0.0230355
-0.0211011
-0.0182853
-0.0146793
-0.0105331
-0.00608944
-0.0014816
0.0030372
0.00745522
0.0114612
0.0149974
0.0177736
0.019856
0.0212162
0.0217189
0.0219046
0.0439312
0.0428397
0.0418036
0.0406463
0.0392704
0.0375755
0.0355043
0.0329175
0.0298001
0.026221
0.0222876
0.018073
0.013508
0.00870091
0.00344642
-0.00175044
-0.00683133
-0.0116452
-0.0161428
-0.0201724
-0.0233913
-0.0257544
-0.0269754
-0.027154
-0.0263661
-0.0244311
-0.021492
-0.0177883
-0.0134451
-0.00876583
-0.0038248
0.00105007
0.00590975
0.0104738
0.0145963
0.0179857
0.0205692
0.0224703
0.0234957
0.0239112
0.0444582
0.0433023
0.0422133
0.0409902
0.0395563
0.0377584
0.0355437
0.0328425
0.0295826
0.0258033
0.0216073
0.0171741
0.0123135
0.00725877
0.00177789
-0.00377007
-0.00915586
-0.014254
-0.0189495
-0.0232608
-0.0266492
-0.0291797
-0.0306281
-0.0308527
-0.030084
-0.0281957
-0.0251982
-0.0213728
-0.0168434
-0.0119327
-0.00666731
-0.00138344
0.00390011
0.00900712
0.0137602
0.0178712
0.0211499
0.0237008
0.0252618
0.0262006
0.0451062
0.0438719
0.0427215
0.0414133
0.039875
0.0379881
0.0356336
0.0327589
0.0292985
0.025354
0.020847
0.0161259
0.0109998
0.00558612
-0.000138682
-0.00602976
-0.0117487
-0.017246
-0.0221355
-0.0266904
-0.0303752
-0.0330394
-0.0347321
-0.0350833
-0.0342993
-0.0324756
-0.0294485
-0.0255167
-0.0208049
-0.015673
-0.0101337
-0.00443634
0.00131073
0.00696477
0.0123579
0.0172458
0.0213197
0.0247294
0.026931
0.0286827
0.0458736
0.0445426
0.0433228
0.0419325
0.0402552
0.0382543
0.0357524
0.0327026
0.0289619
0.0248027
0.0200228
0.014925
0.00950321
0.00369082
-0.00231472
-0.0086184
-0.0146662
-0.0205615
-0.025789
-0.0305298
-0.0345505
-0.0374024
-0.0392481
-0.0398299
-0.0390943
-0.0373156
-0.0342825
-0.0302935
-0.0254179
-0.0200443
-0.0142491
-0.0082015
-0.00201262
0.00419131
0.0102231
0.0159302
0.0207902
0.0251797
0.0283708
0.0311977
0.0467914
0.0453569
0.0440259
0.0425564
0.0407382
0.0385632
0.0358321
0.0326557
0.0286495
0.0240972
0.0190803
0.013536
0.00777075
0.00151604
-0.00482586
-0.0115483
-0.0180285
-0.0242703
-0.0299537
-0.0349215
-0.0392006
-0.0423666
-0.0444068
-0.0452129
-0.0445583
-0.0428259
-0.0398425
-0.0358126
-0.0308546
-0.025258
-0.019221
-0.0128166
-0.00621438
0.000529026
0.00712225
0.0136271
0.0193632
0.02472
0.0291644
0.0333383
0.0478608
0.0462916
0.0448526
0.0432873
0.0412566
0.0389414
0.0359915
0.0324378
0.028287
0.0233068
0.017908
0.0119657
0.00575429
-0.00097988
-0.0077536
-0.0148613
-0.0218857
-0.0284992
-0.0346133
-0.03993
-0.0444673
-0.0479465
-0.0501595
-0.0512299
-0.0507706
-0.049092
-0.0461743
-0.042124
-0.0371221
-0.0313827
-0.0250913
-0.0183802
-0.0114544
-0.0041966
0.00292511
0.0100977
0.0167575
0.0230222
0.0286724
0.0341636
0.0491993
0.0474718
0.0457599
0.0440709
0.0419525
0.0393028
0.0361479
0.0322414
0.0277285
0.0224233
0.0165345
0.0100725
0.00340414
-0.00378847
-0.0112025
-0.0187266
-0.0262432
-0.0333735
-0.0399305
-0.0456528
-0.050454
-0.0542728
-0.0567602
-0.0580482
-0.0578395
-0.0562615
-0.0534554
-0.0494451
-0.0444057
-0.0385546
-0.032098
-0.0250967
-0.0179186
-0.0102516
-0.00262304
0.00508178
0.0125669
0.0196776
0.0263193
0.0326195
0.0506514
0.0488273
0.0470004
0.0449604
0.0426069
0.0397245
0.0362754
0.0320182
0.027016
0.021194
0.0148886
0.00791174
0.000576088
-0.00712102
-0.0151479
-0.0232308
-0.0312821
-0.0389567
-0.0459795
-0.0521584
-0.0572971
-0.061441
-0.0642081
-0.0657251
-0.0658587
-0.0644638
-0.0617538
-0.057834
-0.0528479
-0.0468799
-0.040362
-0.0331254
-0.0257061
-0.0178238
-0.00970398
-0.00149959
0.00660698
0.0144143
0.0218264
0.0284697
0.0521799
0.0501183
0.0483445
0.0461467
0.0433818
0.0400773
0.0362271
0.0315144
0.0261312
0.0198144
0.0128117
0.00530811
-0.00273952
-0.0110879
-0.0197637
-0.0285166
-0.0371543
-0.0454116
-0.0529428
-0.0596417
-0.0651651
-0.0695965
-0.0727635
-0.0745393
-0.0749515
-0.0738296
-0.0713471
-0.0675042
-0.0626534
-0.0566641
-0.0500973
-0.0427574
-0.0350528
-0.027225
-0.0186762
-0.0100556
-0.00143766
0.0069346
0.0148817
0.0217689
0.0540822
0.0516481
0.0496145
0.0472949
0.0443074
0.0404599
0.0361353
0.0309386
0.0248932
0.0180609
0.0102916
0.00208819
-0.00673325
-0.0158481
-0.0252089
-0.0347415
-0.0439994
-0.0529428
-0.0610314
-0.0681834
-0.0742349
-0.0790032
-0.0825066
-0.084614
-0.0853538
-0.0845012
-0.0823514
-0.0786297
-0.0739397
-0.0680562
-0.0614547
-0.0541397
-0.04617
-0.0377885
-0.0294091
-0.0206522
-0.0117173
-0.00298815
0.0053153
0.0123816
0.056373
0.0535381
0.0512594
0.0485395
0.0451748
0.0409266
0.0357933
0.0300427
0.023305
0.0157887
0.00722417
-0.00192217
-0.0114942
-0.0215888
-0.0317443
-0.042072
-0.0520974
-0.0616799
-0.0704504
-0.078105
-0.0846592
-0.0898194
-0.0937168
-0.0961075
-0.0972935
-0.0967097
-0.0949048
-0.0915463
-0.0870316
-0.0814529
-0.074915
-0.067723
-0.0598302
-0.0514012
-0.0426521
-0.0336952
-0.0246809
-0.0156258
-0.00697679
0.000476233
0.0591214
0.0558284
0.0529916
0.0498783
0.0459884
0.0411954
0.0352444
0.0286291
0.0209632
0.0124537
0.00325745
-0.00701981
-0.0176732
-0.0287115
-0.0398547
-0.0510215
-0.0619258
-0.0721336
-0.0816244
-0.0898038
-0.096899
-0.102408
-0.10677
-0.10947
-0.110947
-0.110859
-0.109262
-0.106436
-0.10226
-0.0970548
-0.090865
-0.0838526
-0.0761098
-0.0677537
-0.0588427
-0.0496383
-0.0401785
-0.0312983
-0.0227165
-0.0147815
0.0623846
0.0585448
0.0548773
0.0511249
0.0465808
0.0412623
0.0347823
0.0271208
0.0186541
0.00883328
-0.00171237
-0.0130507
-0.0250135
-0.0371966
-0.0496051
-0.0616566
-0.073573
-0.084504
-0.0947193
-0.103496
-0.111093
-0.117102
-0.121675
-0.124843
-0.126442
-0.126754
-0.125625
-0.123279
-0.11971
-0.115
-0.109311
-0.102779
-0.0953337
-0.0871862
-0.0782794
-0.0689066
-0.0592772
-0.0496297
-0.0403608
-0.0332098
0.0659742
0.0615214
0.0569982
0.0521771
0.0465191
0.0397091
0.0321451
0.0233358
0.013421
0.00256543
-0.00936212
-0.0218243
-0.0350438
-0.0483684
-0.0620692
-0.0753071
-0.0881064
-0.0999808
-0.110763
-0.120246
-0.128204
-0.134775
-0.139756
-0.143328
-0.145441
-0.146223
-0.14561
-0.143667
-0.140525
-0.13652
-0.131566
-0.125816
-0.119042
-0.111503
-0.103097
-0.0940413
-0.0845492
-0.075062
-0.065691
-0.0580096
0.0699341
0.0647091
0.0597906
0.0542967
0.0479482
0.0404403
0.0314119
0.0210633
0.00925715
-0.00368195
-0.0177358
-0.0322955
-0.0472638
-0.0623143
-0.0773009
-0.0918471
-0.105557
-0.118422
-0.12991
-0.139948
-0.148273
-0.155061
-0.160155
-0.163757
-0.165886
-0.166771
-0.166521
-0.165296
-0.16332
-0.160381
-0.156553
-0.152002
-0.146303
-0.13989
-0.132226
-0.124113
-0.115042
-0.105865
-0.096803
-0.0887892
0.0733121
0.0661037
0.0591773
0.0517518
0.0432038
0.0335389
0.0226697
0.0107241
-0.00244964
-0.0168019
-0.0321778
-0.0484101
-0.0650993
-0.0819283
-0.0982596
-0.114078
-0.128756
-0.142446
-0.154424
-0.165034
-0.173625
-0.18079
-0.186096
-0.189933
-0.192324
-0.193511
-0.193775
-0.193244
-0.191906
-0.190097
-0.187397
-0.18411
-0.180038
-0.175101
-0.16948
-0.162741
-0.155372
-0.147322
-0.139326
-0.13229
0.0807284
0.0740189
0.0669492
0.0583803
0.0478187
0.0354032
0.021153
0.00526732
-0.0118091
-0.0299907
-0.0488672
-0.0683008
-0.0876738
-0.106852
-0.125059
-0.142379
-0.158126
-0.172393
-0.184677
-0.195106
-0.203605
-0.210043
-0.214878
-0.217961
-0.219899
-0.220936
-0.221169
-0.221247
-0.220832
-0.220332
-0.219599
-0.21839
-0.216841
-0.214776
-0.212041
-0.208733
-0.20424
-0.199019
-0.193817
-0.189363
0.0765022
0.0636666
0.0516655
0.0390104
0.0252254
0.0100547
-0.00586171
-0.023237
-0.0420848
-0.0620705
-0.0829417
-0.104649
-0.126201
-0.147437
-0.16748
-0.186358
-0.203356
-0.218181
-0.230931
-0.241007
-0.249104
-0.254613
-0.258311
-0.260239
-0.260862
-0.260862
-0.260436
-0.260101
-0.260078
-0.260477
-0.261175
-0.262148
-0.263275
-0.263898
-0.264482
-0.264629
-0.264343
-0.264088
-0.263499
-0.263697
0.102399
0.0914072
0.0771123
0.0594102
0.0391591
0.016226
-0.00844393
-0.03359
-0.0591152
-0.0846088
-0.110096
-0.13523
-0.159479
-0.182765
-0.204371
-0.224188
-0.241761
-0.256526
-0.268719
-0.277965
-0.284455
-0.288405
-0.290072
-0.290059
-0.288934
-0.287395
-0.286163
-0.28581
-0.28682
-0.289442
-0.293765
-0.299408
-0.306256
-0.313475
-0.320908
-0.327801
-0.334347
-0.34061
-0.347096
-0.354878
0.0432775
0.0187641
-0.00578018
-0.0298731
-0.0546995
-0.0801776
-0.106586
-0.13417
-0.163121
-0.192908
-0.222939
-0.252233
-0.280307
-0.30645
-0.330369
-0.351426
-0.368969
-0.383249
-0.39315
-0.399785
-0.402342
-0.401739
-0.397831
-0.391491
-0.383262
-0.374476
-0.36598
-0.358962
-0.354186
-0.352432
-0.353963
-0.358891
-0.367347
-0.378602
-0.392144
-0.407441
-0.424081
-0.441156
-0.45946
-0.479123
0.123626
0.0912141
0.0549643
0.0181302
-0.0184272
-0.0556921
-0.0925755
-0.129606
-0.166353
-0.201782
-0.235754
-0.267821
-0.297327
-0.324355
-0.347865
-0.36814
-0.384441
-0.396454
-0.40362
-0.405568
-0.402092
-0.393359
-0.379311
-0.361486
-0.340852
-0.319212
-0.297512
-0.277862
-0.260967
-0.248563
-0.241448
-0.241016
-0.247736
-0.262931
-0.286033
-0.31472
-0.34352
-0.367826
-0.374513
-0.362541
-0.22302
-0.265059
-0.308431
-0.360074
-0.416266
-0.47361
-0.528957
-0.582232
-0.632006
-0.676356
-0.714047
-0.746659
-0.776698
-0.804939
-0.829915
-0.849828
-0.862789
-0.867535
-0.864557
-0.853445
-0.835277
-0.809655
-0.777587
-0.738889
-0.695178
-0.647492
-0.598326
-0.549092
-0.502104
-0.458845
-0.421213
-0.390758
-0.369094
-0.357756
-0.357345
-0.369237
-0.389154
-0.411414
-0.411234
-0.406421
0.0104282
0.0137695
0.017735
0.0237521
0.0269342
0.0158094
0.00638736
-0.0105927
-0.0530027
-0.130138
-0.251111
-0.254321
-0.0926783
-0.0263751
-0.00499939
0.00542639
0.00482429
0.00499054
0.00499978
0.00396813
0.00367835
0.00321057
0.00308882
0.0028713
0.00280974
0.00282109
0.00277938
0.00291877
0.00294447
0.00304531
0.00311143
0.00318338
0.0032642
0.00335059
0.00351312
0.00366136
0.00367251
0.00352287
0.00231204
7.94121e-05
0.0138896
0.0148015
0.0192784
0.0248585
0.0257184
0.017983
0.00956568
-0.00818819
-0.05071
-0.124578
-0.227535
-0.234296
-0.0861893
-0.0230109
-0.00422479
0.00576869
0.00605928
0.00459119
0.00535708
0.00405035
0.00356243
0.00323805
0.0029389
0.00280241
0.00281694
0.00275567
0.00276503
0.00289751
0.00290269
0.0030288
0.00308606
0.00317178
0.00328491
0.00341394
0.00357458
0.00369285
0.00371399
0.0036334
0.00382625
0.00447644
0.0156037
0.0164791
0.0199697
0.0249728
0.0260642
0.0209548
0.00895096
-0.00866181
-0.0498583
-0.117362
-0.199169
-0.206062
-0.076833
-0.0183733
-0.00118101
0.00517076
0.00760166
0.00518478
0.00532406
0.00414497
0.0033175
0.00311067
0.00267927
0.0026049
0.00256793
0.00247696
0.00255311
0.00264306
0.00267303
0.00281616
0.00285578
0.00295648
0.00310229
0.00328532
0.0034723
0.00357864
0.00361009
0.00354527
0.00349586
0.00300728
0.0168055
0.0177077
0.0200979
0.0248558
0.0260044
0.0225298
0.00864405
-0.0123515
-0.0512395
-0.105382
-0.165884
-0.175525
-0.0655198
-0.0143095
0.00137494
0.00656299
0.00831444
0.00621764
0.0053292
0.0043265
0.00325496
0.00300109
0.00260919
0.00245772
0.00231908
0.00225713
0.00236973
0.00241097
0.00248912
0.00260346
0.00264738
0.00275845
0.00290878
0.00311239
0.00329651
0.00341582
0.0035308
0.00368756
0.00417004
0.00517776
0.0173378
0.0185792
0.020711
0.0245615
0.0251951
0.0212627
0.0076879
-0.0136147
-0.0517447
-0.0965005
-0.133984
-0.143631
-0.0529009
-0.0109224
0.00417321
0.00877226
0.00853614
0.00737432
0.00564582
0.004692
0.00349527
0.003016
0.00267342
0.00241823
0.00228999
0.00221544
0.00234026
0.00235239
0.00248668
0.00258875
0.0026827
0.00280707
0.00293435
0.0031018
0.00325287
0.00336569
0.00346248
0.00352503
0.003587
0.00334885
0.0180425
0.0195174
0.0212438
0.0237731
0.0236349
0.0199531
0.00543641
-0.0167475
-0.051468
-0.0871482
-0.107318
-0.112725
-0.0430325
-0.00771063
0.00690453
0.0111338
0.00854498
0.00821144
0.00612575
0.00510688
0.00381582
0.00305623
0.00267201
0.00238634
0.00227959
0.00218124
0.00228642
0.00232933
0.00251126
0.0026269
0.00277361
0.00292791
0.00303616
0.00320336
0.00333358
0.00344447
0.00353075
0.00363523
0.00390777
0.00440715
0.0184675
0.0197072
0.0213342
0.0225237
0.0224603
0.0177965
0.00254681
-0.0219183
-0.0532696
-0.0800827
-0.0902137
-0.086791
-0.0342603
-0.00492781
0.00895561
0.0130987
0.00898346
0.00864958
0.00644182
0.00528681
0.00390412
0.00299276
0.0025494
0.00225261
0.00210996
0.0020042
0.0020538
0.0021537
0.00232314
0.00245593
0.00263622
0.00282724
0.00298926
0.00322518
0.00336893
0.00347945
0.00356035
0.00361515
0.0035717
0.00338482
0.0185653
0.0197655
0.0212224
0.0216663
0.0202712
0.0144429
-0.00137705
-0.0294164
-0.0599882
-0.0811683
-0.0818148
-0.0668808
-0.025906
-0.00204784
0.0108727
0.014485
0.0103076
0.00913799
0.00672717
0.00520665
0.00386322
0.00285233
0.00235435
0.00208429
0.00190505
0.00179805
0.00177262
0.00185328
0.00194728
0.00208332
0.00226759
0.00247121
0.00272122
0.0029982
0.00315812
0.00329433
0.00344331
0.00358294
0.00377637
0.00404412
0.0185572
0.020255
0.0208324
0.0204161
0.0181675
0.0105967
-0.00753695
-0.0390423
-0.0701505
-0.085276
-0.0757146
-0.0515194
-0.0187786
0.00100665
0.0125597
0.0157174
0.0120865
0.00982563
0.00735225
0.00523901
0.00408573
0.00289575
0.00227864
0.00196461
0.00178218
0.00166501
0.00160806
0.00163305
0.00168393
0.00181188
0.00196922
0.0021615
0.00241601
0.00263838
0.00282299
0.00302314
0.00323081
0.0033711
0.0034449
0.00346119
0.0185787
0.0205061
0.0202678
0.0189428
0.0154974
0.00641179
-0.015574
-0.0515219
-0.0863872
-0.0899991
-0.0723885
-0.0417987
-0.0127785
0.00464306
0.0143331
0.0165685
0.0136196
0.0104679
0.00823337
0.00567855
0.00454615
0.00319741
0.00243198
0.00194178
0.00164589
0.00153107
0.0015008
0.00154176
0.00161628
0.00174802
0.00190688
0.00208393
0.00227358
0.00244628
0.00265037
0.00286805
0.00308933
0.00326006
0.00351412
0.00386221
0.0185947
0.0202717
0.0196958
0.0175348
0.012889
0.00111815
-0.0266385
-0.0672312
-0.10795
-0.101494
-0.0718749
-0.0353221
-0.00792711
0.00822963
0.0166185
0.0169804
0.0145313
0.0109936
0.0085831
0.00614118
0.00467422
0.00336986
0.00239147
0.0018266
0.00144522
0.00133677
0.00132297
0.00139923
0.00153822
0.00172051
0.00192772
0.00211134
0.00229002
0.0024705
0.00267915
0.00289408
0.00310069
0.00326047
0.003432
0.00352608
0.0184309
0.0198623
0.019191
0.0156834
0.00973162
-0.00553616
-0.041891
-0.0980259
-0.132727
-0.114992
-0.0738627
-0.0318612
-0.00462035
0.0113684
0.0195305
0.0172837
0.0148989
0.0110545
0.00830478
0.00636269
0.00418647
0.00309685
0.00200313
0.00161335
0.00119752
0.00105492
0.000990285
0.00107357
0.00126499
0.00150654
0.00176172
0.00199999
0.00223012
0.00247675
0.00271301
0.00293714
0.00311529
0.00327798
0.0034909
0.0036746
0.0180936
0.0194799
0.0188521
0.0140831
0.0068179
-0.0137815
-0.0616796
-0.132619
-0.168912
-0.131934
-0.0781888
-0.0312543
-0.00298909
0.0133112
0.0219817
0.0181827
0.0152433
0.0109746
0.00833102
0.00618496
0.00377097
0.00269879
0.00165373
0.00131793
0.000894365
0.000707506
0.000593854
0.00063983
0.000788057
0.00101425
0.00127568
0.00158055
0.00186885
0.00219895
0.00246469
0.00271764
0.00290833
0.00314407
0.00336889
0.0035178
0.018117
0.019112
0.0186191
0.0126042
0.00406189
-0.0245333
-0.0930927
-0.17039
-0.214079
-0.152284
-0.0843004
-0.0332014
-0.0031978
0.0153605
0.0223534
0.0194631
0.0158737
0.0115009
0.00871931
0.00606336
0.00409324
0.00253629
0.00153393
0.000984229
0.000600498
0.000356404
0.000261884
0.000245031
0.000304147
0.000478523
0.000693355
0.000980239
0.00126879
0.00160864
0.00190162
0.00220433
0.00249845
0.0028423
0.00311804
0.00328042
0.0183688
0.0191558
0.0186326
0.0121557
0.000614992
-0.0395687
-0.128558
-0.232389
-0.268516
-0.174485
-0.0917445
-0.0373504
-0.00453424
0.0174333
0.0204909
0.0199692
0.0159915
0.0121165
0.00906288
0.00623604
0.0044309
0.00258145
0.00156407
0.000710944
0.000351302
3.70997e-05
-3.56984e-05
-6.47891e-05
-1.53305e-05
0.000134293
0.000278883
0.000499748
0.000752486
0.00105435
0.00137066
0.00172496
0.00212832
0.00252815
0.00283504
0.0030064
0.0187083
0.019946
0.0186294
0.0130749
-0.00103237
-0.0615237
-0.163354
-0.313467
-0.327018
-0.193262
-0.0998773
-0.0425153
-0.00566289
0.0170605
0.0184026
0.0187571
0.0149612
0.0119612
0.00867211
0.00593316
0.00422118
0.00244234
0.00149364
0.000462839
0.000123867
-0.000275363
-0.000344809
-0.000333837
-0.000240635
-8.95708e-05
3.519e-05
0.000256374
0.000468039
0.000746057
0.00107447
0.00146992
0.0018995
0.00228824
0.00256271
0.00273549
0.0192857
0.0214215
0.0191948
0.014047
0.00141668
-0.0791671
-0.204055
-0.384093
-0.37748
-0.197535
-0.108966
-0.0465715
-0.00695982
0.0128018
0.0163086
0.0167892
0.0134087
0.0107422
0.0074096
0.00513775
0.00328499
0.00191241
0.00107163
2.46244e-05
-0.000297222
-0.000721419
-0.000758549
-0.000725634
-0.000587114
-0.000442164
-0.000273274
-1.62477e-05
0.000201725
0.000512742
0.000858424
0.0012526
0.00165517
0.00201834
0.00227521
0.00244079
0.0208952
0.0233673
0.0216882
0.0185049
0.00504413
-0.0742594
-0.225757
-0.391994
-0.361002
-0.21028
-0.116363
-0.0490141
-0.0107923
0.00650465
0.0124839
0.0141588
0.0117052
0.00897813
0.005789
0.00407009
0.00209329
0.000894121
-7.62762e-05
-0.000812145
-0.00122978
-0.00160046
-0.00158307
-0.00158162
-0.00136084
-0.00118773
-0.000919295
-0.00060865
-0.000328311
3.21376e-05
0.000407392
0.000821342
0.0012222
0.00159633
0.00189291
0.00209779
0.023636
0.0255388
0.0271893
0.0313682
0.00909275
-0.0463828
-0.218401
-0.327178
-0.292386
-0.196974
-0.108939
-0.0492008
-0.0179406
-0.000950654
0.00683048
0.0100797
0.00882242
0.00672259
0.00422787
0.00274211
0.000765973
-0.000481468
-0.00163673
-0.00211374
-0.00261078
-0.0028388
-0.00280295
-0.00277825
-0.0024388
-0.00222485
-0.00184112
-0.0015004
-0.00111377
-0.000678995
-0.000211687
0.000281836
0.000749648
0.00117851
0.00150882
0.00172555
0.0271217
0.0289302
0.0354737
0.0432267
0.020854
-0.0370394
-0.161513
-0.240677
-0.220896
-0.166844
-0.0983616
-0.0566854
-0.0279371
-0.0107161
-0.000293303
0.00406412
0.00449471
0.00370485
0.00232766
0.000910434
-0.000744405
-0.00173933
-0.00282359
-0.00332706
-0.00371595
-0.00382855
-0.00373756
-0.00363894
-0.00321988
-0.0029878
-0.00253097
-0.0021791
-0.00169082
-0.00119375
-0.000626494
-0.000102632
0.000417919
0.000855503
0.00119851
0.00138557
0.0310428
0.0341508
0.0450406
0.0485793
0.03356
-0.013804
-0.118437
-0.17164
-0.170274
-0.143536
-0.104675
-0.0723181
-0.0408318
-0.0228104
-0.00984534
-0.00395414
-0.000730981
-0.000412171
-0.000531409
-0.00141087
-0.00226168
-0.00282805
-0.00356717
-0.00392669
-0.00428784
-0.00428653
-0.00413223
-0.00398364
-0.0036045
-0.00338134
-0.00297861
-0.0026401
-0.00211901
-0.00161427
-0.00102981
-0.000538947
-3.54086e-05
0.00037172
0.000712957
0.000845249
0.0347878
0.0401718
0.0515562
0.0548051
0.0458617
-0.00253121
-0.0822126
-0.122645
-0.139428
-0.131603
-0.115326
-0.0876341
-0.0563371
-0.0381698
-0.0225624
-0.013651
-0.00779828
-0.00629698
-0.00466871
-0.00455939
-0.00452419
-0.00462488
-0.00487782
-0.00502361
-0.00524564
-0.00514259
-0.00503937
-0.00482946
-0.00463713
-0.00436512
-0.00406542
-0.0036891
-0.00320126
-0.00268541
-0.00215622
-0.00166748
-0.0011232
-0.00063909
-0.000188815
-8.59268e-06
0.0378516
0.045194
0.0540094
0.0610272
0.0504011
0.00165365
-0.0590921
-0.0975256
-0.122327
-0.126625
-0.120869
-0.101814
-0.0804176
-0.0565773
-0.0384595
-0.0257722
-0.0178118
-0.0135985
-0.0106321
-0.00937062
-0.00850767
-0.00816826
-0.00786358
-0.00767384
-0.00771923
-0.00755423
-0.00737447
-0.0070885
-0.00692795
-0.00651865
-0.00618265
-0.00566102
-0.00517066
-0.00455741
-0.00396319
-0.003298
-0.00258683
-0.00188789
-0.00129098
-0.00105245
0.0398878
0.047238
0.0522975
0.0617167
0.0464058
-0.00218254
-0.0490355
-0.0843073
-0.110721
-0.127969
-0.134089
-0.124255
-0.105139
-0.078311
-0.0580446
-0.0408043
-0.0298995
-0.0222037
-0.0183055
-0.015169
-0.0135803
-0.0125039
-0.0118895
-0.0112598
-0.011152
-0.01063
-0.0102583
-0.00969748
-0.00922697
-0.00866585
-0.00814974
-0.00751274
-0.00684004
-0.00602124
-0.0052484
-0.00438641
-0.00358416
-0.00283188
-0.00223069
-0.00194424
0.0394635
0.0459032
0.0483408
0.0539186
0.0357805
-0.006317
-0.0448989
-0.0750102
-0.103764
-0.133493
-0.150588
-0.148926
-0.13094
-0.107579
-0.0809478
-0.0589447
-0.0433647
-0.0322686
-0.0262845
-0.0211971
-0.0185311
-0.0164934
-0.0154008
-0.01424
-0.0137434
-0.0126542
-0.0120316
-0.0111673
-0.0104901
-0.00982481
-0.00909848
-0.0083506
-0.00750585
-0.00664098
-0.00584526
-0.00502113
-0.00428552
-0.00358543
-0.00304509
-0.00282364
0.0358235
0.0407581
0.0420098
0.0410222
0.0255616
-0.0115004
-0.0410434
-0.0679518
-0.100017
-0.138381
-0.164818
-0.174156
-0.163541
-0.139011
-0.107825
-0.0811285
-0.059798
-0.0451573
-0.0349725
-0.0287793
-0.0239672
-0.021223
-0.0189715
-0.0174199
-0.0161271
-0.0148975
-0.0139737
-0.0130371
-0.0122222
-0.0113863
-0.0105266
-0.00961424
-0.00878891
-0.00794883
-0.00712353
-0.00629913
-0.00553561
-0.00482313
-0.0042996
-0.00412843
0.0292647
0.0325354
0.032009
0.0275521
0.0152648
-0.0143121
-0.0397935
-0.0641241
-0.0958441
-0.139547
-0.17438
-0.19611
-0.196011
-0.171868
-0.14084
-0.108342
-0.0811853
-0.0620006
-0.047888
-0.0394407
-0.0323937
-0.0288116
-0.0250711
-0.0232822
-0.0212076
-0.0199609
-0.0185045
-0.0174714
-0.0162759
-0.0152635
-0.0140994
-0.0130502
-0.0121189
-0.0111136
-0.0101635
-0.00912314
-0.00807322
-0.00708743
-0.00639637
-0.00620015
0.019684
0.0219036
0.0189865
0.0121229
0.0019556
-0.0165269
-0.0406217
-0.0655334
-0.0945175
-0.133057
-0.175632
-0.209973
-0.224183
-0.209783
-0.176493
-0.138963
-0.107383
-0.081712
-0.0641658
-0.0519326
-0.0437673
-0.0378783
-0.033556
-0.0308314
-0.0283796
-0.0265523
-0.0248373
-0.0234775
-0.0219314
-0.020654
-0.0191684
-0.0180579
-0.0168212
-0.0156105
-0.0142518
-0.0128848
-0.0114266
-0.0101747
-0.00929723
-0.00895288
0.00683921
0.0084803
0.00361176
-0.0048074
-0.0135916
-0.027073
-0.0455063
-0.065369
-0.093858
-0.128439
-0.167814
-0.21114
-0.241086
-0.243779
-0.213402
-0.170835
-0.131461
-0.101092
-0.0785918
-0.0628024
-0.0528755
-0.0449778
-0.0403679
-0.0364099
-0.0340612
-0.0316562
-0.0300985
-0.0282949
-0.0269028
-0.0254013
-0.0241165
-0.0227889
-0.0214657
-0.0200158
-0.0183497
-0.0166961
-0.014858
-0.0134339
-0.0122824
-0.0117879
-0.00928224
-0.00820756
-0.0138784
-0.0236507
-0.0322213
-0.0417959