/*--------------------------------*- C++ -*----------------------------------*\
  =========                 |
  \\      /  F ield         | OpenFOAM: The Open Source CFD Toolbox
   \\    /   O peration     | Website:  https://openfoam.org
    \\  /    A nd           | Version:  11
     \\/     M anipulation  |
\*---------------------------------------------------------------------------*/
FoamFile
{
    format      ascii;
    class       surfaceScalarField;
    location    "10";
    object      phi;
}
// * * * * * * * * * * * * * * * * * * * * * * * * * * * * * * * * * * * * * //

dimensions      [0 3 -1 0 0 0 0];

internalField   nonuniform List<scalar> 
18960
(
0.089067
0.000407724
-0.0894747
0.0886669
0.00040013
0.0883272
0.00033961
0.0880233
0.000303946
0.0877556
0.0002677
0.0875162
0.000239374
0.0872952
0.000221041
0.0871151
0.000180035
0.0869608
0.000154333
0.0868588
0.000102002
0.0867762
8.26149e-05
0.0867385
3.76619e-05
0.0867267
1.18109e-05
0.0867496
-2.28411e-05
0.0868021
-5.25348e-05
0.0868639
-6.18177e-05
0.0869383
-7.4339e-05
0.0870189
-8.05934e-05
0.0870788
-5.993e-05
0.0870881
-9.30324e-06
0.0870771
1.10327e-05
0.0871097
-3.26766e-05
0.0871229
-1.32143e-05
0.087112
1.09093e-05
0.0871033
8.74198e-06
0.0871213
-1.80012e-05
0.0871835
-6.22089e-05
0.0872848
-0.000101294
0.0874017
-0.000116909
0.0875399
-0.000138149
0.0876644
-0.000124573
0.0877588
-9.43426e-05
0.0877392
1.95954e-05
0.0874432
0.000295973
0.0866224
0.000820774
0.0858171
0.00080533
0.0856629
0.000154158
0.0860373
-0.00037437
0.0873611
-0.00132379
-0.00159104
0.0889521
0.0891536
0.000748573
-0.0894944
0.0888505
0.000703161
0.0885502
0.000639991
0.0882735
0.000580564
0.0880301
0.000511107
0.0878193
0.000450239
0.0876596
0.000380721
0.0875245
0.00031511
0.0874446
0.00023423
0.0873816
0.000165007
0.0873647
9.94849e-05
0.0873662
3.6159e-05
0.0874433
-6.52531e-05
0.0875509
-0.000130471
0.0876485
-0.000150091
0.0877602
-0.000173479
0.0878928
-0.000207023
0.0880431
-0.000230888
0.0881648
-0.000181572
0.0882631
-0.000107623
0.0883527
-7.85414e-05
0.0883738
-5.3775e-05
0.0883933
-3.27711e-05
0.0884631
-5.8817e-05
0.0885703
-9.84608e-05
0.0887022
-0.000149898
0.0888238
-0.000183853
0.0889346
-0.00021208
0.0891052
-0.000287511
0.0893128
-0.000345754
0.0895837
-0.000395485
0.0898797
-0.000390335
0.0901322
-0.000232952
0.0903947
3.35335e-05
0.0907824
0.000433078
0.0910005
0.000587202
0.0909807
0.00017393
0.0910332
-0.000426849
0.0910435
-0.00133405
-0.00208412
0.0915366
0.0891928
0.00107475
-0.089519
0.0888839
0.00101202
0.088605
0.000918864
0.0883694
0.000816214
0.0881436
0.000736895
0.0879504
0.000643441
0.0877758
0.000555341
0.0876414
0.000449545
0.0875518
0.000323736
0.0875134
0.000203419
0.087481
0.000131894
0.0875302
-1.29896e-05
0.0875721
-0.000107191
0.0876655
-0.000223888
0.0877754
-0.000259933
0.0878677
-0.000265838
0.0879611
-0.000300351
0.0880483
-0.000318157
0.0881743
-0.000307522
0.0883024
-0.000235771
0.088333
-0.000109143
0.0883327
-5.34925e-05
0.0883609
-6.09646e-05
0.0884372
-0.000135084
0.0885528
-0.000214088
0.0886444
-0.00024149
0.0887055
-0.000244943
0.0887869
-0.000293516
0.0888893
-0.00038989
0.0890954
-0.00055178
0.089401
-0.000701086
0.0898475
-0.000836867
0.0903426
-0.000728022
0.0907971
-0.00042099
0.0911352
9.49491e-05
0.0912788
0.000443565
0.0912303
0.000222525
0.0910239
-0.000220518
0.0910911
-0.00140118
-0.00252144
0.0915284
0.0891932
0.00140357
-0.089522
0.0889001
0.00130511
0.088614
0.0012049
0.0883752
0.00105507
0.0881498
0.000962256
0.0879565
0.000836782
0.0877947
0.000717163
0.0876826
0.000561645
0.0875891
0.000417193
0.0875457
0.000246768
0.08755
0.000127593
0.0875629
-2.57955e-05
0.0876101
-0.000154468
0.0876697
-0.00028342
0.0877828
-0.000373113
0.0879248
-0.000407802
0.0880121
-0.000387635
0.0880783
-0.000384371
0.0882002
-0.000429463
0.0883311
-0.000366632
0.088412
-0.000190019
0.0884211
-6.26387e-05
0.0884331
-7.29696e-05
0.0884665
-0.000168434
0.0885398
-0.000287435
0.088669
-0.000370641
0.088814
-0.000389968
0.0889455
-0.000425022
0.0890782
-0.00052261
0.0892377
-0.000711213
0.0894869
-0.000950297
0.0897876
-0.00113761
0.0901896
-0.00112996
0.0906198
-0.000851263
0.091075
-0.000360191
0.0915083
1.02248e-05
0.0918187
-8.78573e-05
0.0920407
-0.000442528
0.0918823
-0.0012428
-0.00290478
0.0922657
0.089222
0.00170593
-0.0895244
0.0889263
0.00160077
0.0886519
0.00147934
0.0884134
0.00129355
0.0881905
0.00118515
0.0880076
0.0010197
0.0878424
0.000882375
0.0877385
0.000665549
0.0876677
0.000487957
0.0876093
0.000305186
0.087611
0.000125906
0.0876277
-4.25184e-05
0.0876763
-0.000203009
0.0877606
-0.000367798
0.0878576
-0.000470123
0.0879562
-0.000506311
0.0880699
-0.00050142
0.0881825
-0.000496878
0.0882322
-0.000479248
0.0882889
-0.000423249
0.0883427
-0.000243877
0.0884395
-0.000159464
0.0884881
-0.000121572
0.0885018
-0.000182055
0.0884923
-0.000277927
0.0885217
-0.000400069
0.0886467
-0.000514948
0.0888389
-0.000617302
0.0890648
-0.000748428
0.0892407
-0.000887137
0.0894275
-0.00113714
0.0896129
-0.00132302
0.0898779
-0.00139494
0.0903391
-0.00131248
0.0909018
-0.000922888
0.0914984
-0.000586341
0.0919824
-0.000571825
0.092336
-0.000796123
0.0923539
-0.00126078
-0.00280437
0.0922535
0.0892318
0.00201047
-0.0895364
0.0889461
0.00188643
0.0886842
0.00174128
0.0884473
0.00153049
0.0882345
0.00139794
0.0880504
0.0012038
0.0879042
0.0010285
0.0878051
0.000764719
0.0877221
0.000570966
0.0876924
0.000334846
0.0876878
0.000130496
0.0877182
-7.28718e-05
0.0877682
-0.00025302
0.0878229
-0.000422484
0.0878993
-0.000546531
0.0880188
-0.00062588
0.0881394
-0.000622004
0.088203
-0.000560491
0.0882469
-0.000523139
0.0883224
-0.00049876
0.0884462
-0.000367618
0.0885124
-0.000225699
0.0885158
-0.000124992
0.0884896
-0.000155787
0.088502
-0.000290334
0.0885793
-0.000477409
0.0887272
-0.000662825
0.0889065
-0.000796651
0.0890968
-0.000938643
0.0892824
-0.0010728
0.0894579
-0.00131267
0.0896783
-0.00154335
0.0899389
-0.00165555
0.0903082
-0.00168176
0.0908043
-0.00141905
0.0913237
-0.00110575
0.0917946
-0.00104268
0.0921484
-0.0011499
0.0923518
-0.00146424
-0.0026864
0.0922339
0.0892512
0.00230815
-0.0895489
0.0889834
0.00215424
0.0887274
0.00199729
0.0885025
0.00175537
0.0882859
0.00161451
0.0881132
0.0013765
0.0879739
0.00116781
0.0878562
0.000882449
0.0877938
0.000633306
0.087751
0.000377662
0.0877466
0.000134939
0.0877935
-0.000119818
0.0878346
-0.00029409
0.0878685
-0.000456407
0.0879707
-0.000648757
0.0880874
-0.000742502
0.0882068
-0.000741438
0.0882661
-0.000619807
0.0882918
-0.000548868
0.0883569
-0.000563789
0.0884437
-0.000454406
0.0885242
-0.00030623
0.0885395
-0.000140258
0.0885335
-0.000149845
0.0885228
-0.000279603
0.0885354
-0.000490069
0.0886259
-0.000753293
0.0888052
-0.000975977
0.0890137
-0.0011471
0.089249
-0.00130809
0.0894505
-0.00151422
0.089674
-0.00176681
0.0899504
-0.00193201
0.0902798
-0.00201116
0.0907278
-0.00186704
0.0912103
-0.00158825
0.0916279
-0.00146022
0.0919943
-0.00151636
0.0922694
-0.00173928
-0.00258599
0.0921689
0.0892631
0.00259924
-0.0895541
0.0889903
0.00242704
0.0887387
0.00224883
0.088511
0.0019831
0.088317
0.00180847
0.0881542
0.00153933
0.0880239
0.00129816
0.0879222
0.00098411
0.0878671
0.000688388
0.0878248
0.000420004
0.0878432
0.000116493
0.0878664
-0.000142978
0.0879198
-0.000347473
0.0879897
-0.000526343
0.0880561
-0.000715187
0.0881252
-0.000811569
0.088224
-0.000840291
0.0883219
-0.000717685
0.088387
-0.000613963
0.0884048
-0.000581546
0.0884546
-0.000504205
0.0885142
-0.000365879
0.0885842
-0.00021028
0.0886147
-0.000180323
0.0886041
-0.000269028
0.0885861
-0.000471973
0.0886217
-0.000788924
0.0887452
-0.00109946
0.0889647
-0.00136668
0.0892249
-0.00156821
0.089489
-0.00177836
0.0897196
-0.0019974
0.0899821
-0.00219449
0.090283
-0.0023121
0.0906884
-0.00227241
0.0911188
-0.00201864
0.0915026
-0.00184408
0.091827
-0.00184074
0.09216
-0.00207227
-0.0026225
0.0921965
0.0892948
0.00289041
-0.089586
0.089026
0.00269586
0.0887804
0.00249436
0.0885662
0.00219737
0.088395
0.00197961
0.0882255
0.00170882
0.0881138
0.00140995
0.0880198
0.00107809
0.0879626
0.000745578
0.0879362
0.000446429
0.0879264
0.000126276
0.0879496
-0.000166241
0.0880172
-0.00041508
0.0880948
-0.000603883
0.0881371
-0.000757506
0.0881951
-0.000869573
0.0883011
-0.000946263
0.0884119
-0.000828543
0.0884593
-0.00066135
0.0884763
-0.000598491
0.0884863
-0.000514204
0.0885534
-0.000432967
0.088629
-0.000285903
0.0886467
-0.000198021
0.0886437
-0.000266024
0.088623
-0.000451266
0.0886026
-0.000768512
0.0886737
-0.00117058
0.0888649
-0.00155787
0.0891356
-0.00183894
0.0894317
-0.00207451
0.089714
-0.00227964
0.0900114
-0.00249187
0.0903175
-0.00261829
0.0907301
-0.00268493
0.0911734
-0.00246194
0.0915419
-0.00221257
0.0918077
-0.00210657
0.0920657
-0.00233028
-0.00276001
0.0922032
0.0892611
0.00317152
-0.0895422
0.0890204
0.00293654
0.088784
0.00273074
0.088579
0.00240241
0.0884138
0.00214476
0.0882774
0.0018452
0.0881656
0.00152184
0.0880766
0.00116706
0.0880171
0.000805022
0.087993
0.000470553
0.087999
0.000120318
0.0880276
-0.000194851
0.0880908
-0.000478251
0.088152
-0.000665124
0.0882179
-0.000823377
0.0882786
-0.000930252
0.0883397
-0.0010074
0.0884555
-0.000944311
0.0885373
-0.000743238
0.0885594
-0.000620532
0.088578
-0.000532808
0.0885956
-0.000450611
0.08862
-0.00031032
0.0886595
-0.000237443
0.0886748
-0.000281407
0.088682
-0.000458435
0.0886665
-0.000753007
0.0886718
-0.00117589
0.0887755
-0.00166152
0.0889905
-0.00205401
0.0893089
-0.00239282
0.0896652
-0.00263598
0.0900167
-0.00284337
0.0903591
-0.00296071
0.0907153
-0.00304112
0.0911518
-0.00289845
0.0915757
-0.00263647
0.0918551
-0.00238598
0.0920034
-0.00247849
-0.00292033
0.0921637
0.089323
0.00345292
-0.0896044
0.089073
0.00318655
0.0888524
0.00295127
0.0886702
0.00258466
0.0885012
0.00231374
0.0883726
0.00197376
0.0882587
0.00163581
0.0881655
0.00126023
0.0881334
0.000837099
0.0881093
0.00049462
0.0881204
0.000109284
0.0881319
-0.000206388
0.088175
-0.000521299
0.088257
-0.00074721
0.0883423
-0.000908661
0.0883937
-0.000981576
0.0884188
-0.00103249
0.0884991
-0.00102462
0.0886154
-0.000859573
0.0886826
-0.000687768
0.088682
-0.00053214
0.0886653
-0.000433918
0.0886658
-0.000310836
0.0887011
-0.000272762
0.0887225
-0.000302821
0.0887274
-0.000463299
0.0887068
-0.00073245
0.0886902
-0.00115921
0.0887281
-0.0016995
0.088869
-0.00219485
0.0891643
-0.00268813
0.0895288
-0.00300045
0.0899448
-0.0032594
0.090358
-0.00337395
0.090764
-0.00344704
0.09122
-0.00335455
0.0917029
-0.00311932
0.092091
-0.00277412
0.0922233
-0.00261075
-0.00304258
0.0923455
0.089297
0.0037303
-0.0895743
0.0890773
0.00340621
0.0888547
0.00317382
0.0886786
0.00276083
0.0885274
0.00246495
0.0884109
0.00209024
0.0883114
0.00173532
0.0882323
0.00133929
0.0881885
0.000880898
0.0881823
0.000500784
0.0881861
0.000105485
0.0881981
-0.000218374
0.0882451
-0.000568243
0.088316
-0.00081813
0.088395
-0.000987635
0.0884909
-0.00107754
0.0885365
-0.00107804
0.0885754
-0.00106357
0.0886821
-0.00096625
0.0887404
-0.000746029
0.0887821
-0.000573851
0.0887461
-0.00039798
0.0887334
-0.000298091
0.0887285
-0.000267907
0.0887187
-0.000292998
0.0887253
-0.000469922
0.0887219
-0.000728989
0.0887081
-0.00114546
0.0886996
-0.00169097
0.0887895
-0.0022848
0.0889612
-0.00285979
0.0893114
-0.0033507
0.0897542
-0.00370215
0.0902697
-0.00388948
0.0907584
-0.00393573
0.0912562
-0.0038523
0.0917389
-0.0036021
0.0922591
-0.00329425
0.0924375
-0.00278923
-0.00317516
0.0925701
0.0894014
0.00397886
-0.08965
0.0891612
0.00364643
0.0889578
0.00337719
0.0887776
0.00294107
0.0886348
0.00260774
0.0885097
0.00221532
0.0884261
0.0018189
0.088349
0.00141641
0.0883026
0.000927296
0.0882986
0.000504836
0.088317
8.70083e-05
0.088341
-0.000242288
0.0883794
-0.000606656
0.0884247
-0.000863466
0.0885155
-0.00107839
0.0885963
-0.00115838
0.0886645
-0.00114627
0.0887028
-0.00110185
0.0887686
-0.00103208
0.0888353
-0.000812671
0.0888861
-0.000624674
0.088898
-0.000409843
0.0888791
-0.000279184
0.0888367
-0.000225589
0.0887949
-0.000251143
0.088755
-0.000430002
0.0887377
-0.00071175
0.0887329
-0.00114062
0.0887054
-0.00166352
0.0887543
-0.00233362
0.0888544
-0.00295992
0.0891337
-0.00363002
0.0895222
-0.00409061
0.0900495
-0.00441683
0.090624
-0.00451022
0.091271
-0.00449928
0.0918357
-0.00416679
0.0924711
-0.00392964
0.0928678
-0.00318596
-0.00334136
0.093034
0.0893676
0.00422089
-0.0896096
0.0891567
0.00385728
0.0889751
0.00355882
0.0888107
0.00310549
0.0886871
0.00273128
0.0885577
0.00234476
0.0884771
0.00189953
0.0884235
0.00147001
0.0883895
0.00096129
0.0883658
0.000528452
0.0883947
5.81472e-05
0.0884282
-0.000275822
0.0884654
-0.000643825
0.0885194
-0.000917464
0.0886008
-0.00115979
0.0886677
-0.0012253
0.0887846
-0.00126311
0.0888158
-0.00113306
0.0888797
-0.00109596
0.0888988
-0.000831824
0.0889658
-0.000691614
0.0889751
-0.00041916
0.0889805
-0.000284598
0.0889241
-0.000169214
0.0888632
-0.000190213
0.0887928
-0.000359645
0.0887295
-0.000648451
0.0887195
-0.00113061
0.0886826
-0.00162663
0.088687
-0.00233801
0.0887478
-0.00302075
0.0889323
-0.00381449
0.089238
-0.00439631
0.0897491
-0.00492791
0.0903419
-0.00510305
0.0910976
-0.00525499
0.0918032
-0.00487231
0.0925404
-0.00466689
0.0931587
-0.00380421
-0.00366844
0.0934857
0.0894742
0.00446816
-0.0897214
0.0892604
0.00407105
0.0890931
0.00372618
0.0889384
0.00326011
0.0887983
0.00287141
0.0886951
0.00244801
0.0886031
0.00199145
0.0885444
0.00152875
0.0885262
0.000979497
0.0885179
0.000536785
0.088548
2.80232e-05
0.0885721
-0.000299903
0.0886443
-0.000716026
0.0886743
-0.000947457
0.0887418
-0.0012273
0.0887973
-0.00128084
0.0889062
-0.00137202
0.0889634
-0.00119027
0.0890083
-0.00114084
0.0890518
-0.000875307
0.0890898
-0.000729602
0.089135
-0.000464424
0.0891195
-0.000269025
0.0890786
-0.000128379
0.0889914
-0.000103023
0.0889013
-0.000269535
0.0887966
-0.000543709
0.0887018
-0.00103579
0.0886528
-0.00157764
0.0886432
-0.00232847
0.0886581
-0.00303561
0.0887892
-0.00394562
0.0890091
-0.00461616
0.0894585
-0.00537733
0.0900057
-0.00565028
0.0907827
-0.00603197
0.0916202
-0.0057098
0.0925117
-0.00555835
0.0933838
-0.00467629
-0.00416043
0.0938757
0.0894332
0.00467255
-0.0896376
0.0892464
0.00425787
0.0891032
0.00386932
0.0889506
0.00341273
0.0888337
0.00298827
0.0887402
0.00254154
0.08868
0.00205162
0.0886317
0.00157704
0.0886058
0.00100538
0.0886072
0.000535429
0.0886302
5.02387e-06
0.0886794
-0.000349113
0.0887404
-0.000777011
0.0887779
-0.000984946
0.0888612
-0.00131058
0.088896
-0.00131572
0.0889957
-0.00147165
0.089059
-0.00125362
0.0891356
-0.00121737
0.0891788
-0.000918564
0.089204
-0.000754831
0.0892127
-0.000473061
0.0891955
-0.00025188
0.0891812
-0.000114038
0.0891157
-3.75604e-05
0.0890017
-0.000155472
0.0888485
-0.000390492
0.0887237
-0.000911029
0.0885951
-0.001449
0.0885501
-0.00228354
0.088513
-0.00299848
0.0886063
-0.00403892
0.0887433
-0.00475319
0.0890961
-0.00573009
0.0896031
-0.00615731
0.0903216
-0.00675049
0.0912286
-0.00661675
0.092208
-0.00653774
0.0933687
-0.00583702
-0.00484087
0.0940491
0.0895645
0.0048865
-0.0897785
0.0893843
0.00443804
0.0892339
0.00401974
0.0890871
0.00355958
0.0889889
0.00308648
0.0888969
0.0026335
0.0888483
0.00210022
0.0888104
0.0016149
0.0888135
0.00100234
0.08879
0.000558883
0.0888321
-3.7068e-05
0.0888593
-0.000376286
0.0889406
-0.000858331
0.0889725
-0.00101683
0.0890686
-0.00140664
0.0891094
-0.0013566
0.0891804
-0.00154264
0.0892495
-0.00132273
0.0892949
-0.0012627
0.0893689
-0.00099257
0.0893753
-0.000761293
0.089397
-0.000494769
0.0893704
-0.000225217
0.0893235
-6.71476e-05
0.089262
2.39433e-05
0.0891783
-7.1749e-05
0.0890283
-0.000240516
0.088859
-0.000741713
0.0886536
-0.00124359
0.0885012
-0.00213123
0.088391
-0.00288826
0.0883971
-0.00404501
0.0884767
-0.00483273
0.0887121
-0.00596554
0.0891563
-0.00660146
0.0898006
-0.0073948
0.0907405
-0.00755669
0.091774
-0.00757119
0.0931079
-0.00717094
-0.00589524
0.0941623
0.0895277
0.00507222
-0.0897134
0.0893638
0.00460195
0.0892383
0.00414523
0.0891045
0.00369334
0.089018
0.00317301
0.088951
0.00270051
0.0889092
0.002142
0.0888741
0.00164998
0.0888795
0.000996942
0.088882
0.000556433
0.0889407
-9.58069e-05
0.0889626
-0.000398176
0.0890446
-0.000940379
0.0890878
-0.00105996
0.0891795
-0.00149841
0.0892634
-0.00144045
0.0893155
-0.00159478
0.089403
-0.00141025
0.089437
-0.00129672
0.089505
-0.0010605
0.0895206
-0.000776929
0.0895438
-0.000517938
0.0895254
-0.000206806
0.0894742
-1.59276e-05
0.0893898
0.000108327
0.0892845
3.35195e-05
0.0891177
-7.37189e-05
0.088954
-0.000578037
0.0887215
-0.00101107
0.0885193
-0.00192907
0.0883012
-0.00267015
0.088174
-0.00391774
0.088148
-0.00480679
0.0882577
-0.00607522
0.0885931
-0.00693687
0.0891145
-0.00791617
0.0900106
-0.00845274
0.0910452
-0.00860585
0.0924896
-0.00861534
-0.00727375
0.0938681
0.0897081
0.00527112
-0.089907
0.0895202
0.00478991
0.089399
0.00426642
0.0892947
0.0037976
0.0892103
0.00325745
0.089148
0.00276274
0.0891301
0.00215989
0.089094
0.00168617
0.0891194
0.000971464
0.0891303
0.000545567
0.0891854
-0.000150877
0.0892125
-0.000425297
0.0893028
-0.00103073
0.0893676
-0.00112474
0.0894087
-0.0015395
0.0895168
-0.00154853
0.089565
-0.00164298
0.0896783
-0.0015236
0.0896979
-0.00131624
0.0897809
-0.00114356
0.0897863
-0.000782301
0.0897929
-0.000524557
0.0897854
-0.000199248
0.0897418
2.76437e-05
0.0896326
0.000217535
0.089518
0.000148052
0.0893321
0.000112239
0.0891074
-0.00035332
0.0888496
-0.000753353
0.088576
-0.00165539
0.0883036
-0.00239782
0.088046
-0.00366011
0.0879191
-0.00467987
0.0878534
-0.0060095
0.0880207
-0.00710417
0.0883655
-0.00826099
0.0891165
-0.0092038
0.0900945
-0.00958386
0.0915451
-0.0100659
-0.00890412
0.0931755
0.0896775
0.00545107
-0.0898575
0.0895314
0.00493606
0.0894045
0.00439334
0.0893063
0.00389581
0.0892584
0.00330526
0.0891802
0.00284103
0.0891897
0.00215033
0.0891772
0.00169864
0.0892165
0.000932203
0.0892189
0.000543151
0.0892915
-0.000223454
0.0893536
-0.000487419
0.0894026
-0.00107967
0.0895253
-0.0012475
0.0895732
-0.00158742
0.0896981
-0.00167335
0.089746
-0.00169091
0.0898581
-0.00163572
0.0899152
-0.00137332
0.0899651
-0.00119344
0.0900194
-0.000836586
0.0900099
-0.000515113
0.090006
-0.000195298
0.0899591
7.45528e-05
0.0898598
0.00031681
0.0897333
0.000274513
0.0895327
0.000312896
0.0893007
-0.000121405
0.0890051
-0.000457686
0.0886405
-0.00129084
0.0883041
-0.00206135
0.0879093
-0.0032654
0.0876496
-0.00442008
0.0874151
-0.00577501
0.0874331
-0.00712224
0.0875391
-0.00836695
0.0880593
-0.00972399
0.0888378
-0.0103624
0.0901852
-0.0114133
-0.0106184
0.0918995
0.0899353
0.00560592
-0.0900902
0.0897761
0.0050953
0.0896668
0.00450267
0.0895566
0.00400595
0.0895133
0.00334861
0.0894715
0.00288285
0.0894744
0.00214737
0.0894702
0.00170288
0.0895003
0.000902108
0.0895533
0.00049008
0.0895746
-0.000244773
0.0896947
-0.000607469
0.0897176
-0.00110252
0.0898639
-0.00139387
0.0898903
-0.00161378
0.0900314
-0.00181444
0.0900901
-0.00174965
0.0902052
-0.00175084
0.0902728
-0.00144093
0.0903324
-0.00125301
0.0903813
-0.000885502
0.0904038
-0.00053754
0.0903837
-0.000175252
0.0903588
9.9423e-05
0.0902408
0.000434897
0.0901018
0.000413487
0.0898994
0.000515308
0.0896279
0.000150022
0.0893054
-0.000135139
0.0888887
-0.000874184
0.0884678
-0.00164043
0.0879541
-0.00275167
0.0875216
-0.0039876
0.0870802
-0.00533363
0.0868485
-0.00689046
0.086693
-0.00821153
0.0869393
-0.00997028
0.087382
-0.010805
0.0884779
-0.0125092
-0.0121958
0.0900554
0.089913
0.00573535
-0.0900424
0.0897788
0.00522948
0.0896987
0.00458275
0.0896088
0.0040958
0.0895747
0.00338276
0.089542
0.00291553
0.0895525
0.00213689
0.0895846
0.00167076
0.0895919
0.000894777
0.0897079
0.000374094
0.0897135
-0.000250335
0.0898549
-0.000748878
0.0898987
-0.0011463
0.090046
-0.00154123
0.0901133
-0.00168109
0.0902373
-0.00193838
0.0903214
-0.0018338
0.0904096
-0.00183899
0.0905362
-0.00156753
0.0905837
-0.00130049
0.0906729
-0.000974707
0.0907082
-0.000572875
0.090698
-0.000165045
0.0906964
0.00010106
0.0906218
0.000509431
0.0904709
0.000564446
0.0902911
0.000695079
0.089974
0.000467169
0.0896613
0.000177565
0.0891853
-0.000398251
0.0886986
-0.00115371
0.0880919
-0.00214499
0.0875365
-0.00343222
0.0868874
-0.0046845
0.0864031
-0.00640615
0.0859215
-0.00772989
0.0857917
-0.00984056
0.0858527
-0.010866
0.0864445
-0.013101
-0.0133885
0.0876371
0.0902158
0.00587426
-0.0903548
0.0900979
0.00534742
0.0900316
0.00464909
0.0899723
0.00415506
0.0899347
0.0034204
0.0899497
0.0029005
0.0899158
0.00217078
0.0900029
0.00158371
0.0899815
0.000916131
0.0901132
0.000242391
0.0901211
-0.000258181
0.0902721
-0.000899929
0.0903159
-0.00119011
0.0904591
-0.00168439
0.0905497
-0.00177169
0.0906575
-0.00204625
0.0907791
-0.00195539
0.0908674
-0.00192723
0.0909842
-0.00168437
0.0910663
-0.00138257
0.0911205
-0.0010289
0.0912051
-0.000657508
0.0912115
-0.000171454
0.0911915
0.000121038
0.091158
0.000542953
0.0910191
0.000703336
0.0908653
0.00084892
0.0905613
0.000771172
0.0902393
0.000499543
0.0897338
0.000107222
0.0892279
-0.000647784
0.088503
-0.00142013
0.0878047
-0.00273393
0.0869708
-0.00385055
0.0862456
-0.00568099
0.0854817
-0.00696591
0.0848743
-0.00923326
0.084498
-0.0104896
0.0844438
-0.0130468
-0.0139855
0.0850408
0.0902022
0.00596782
-0.0902958
0.0901174
0.00543223
0.090061
0.00470548
0.090064
0.00415202
0.0900023
0.00348215
0.0900674
0.00283538
0.090037
0.00220116
0.0901692
0.00145148
0.0901675
0.000917836
0.0902956
0.000114299
0.0903552
-0.000317762
0.0904767
-0.00102139
0.0905784
-0.00129181
0.0906893
-0.0017953
0.0908358
-0.00191824
0.0909254
-0.00213582
0.0910779
-0.00210783
0.0911728
-0.00202217
0.0913113
-0.00182286
0.0914155
-0.00148678
0.0915053
-0.00111869
0.091568
-0.000720239
0.0916303
-0.000233694
0.0916225
0.00012884
0.0916369
0.000528517
0.0915046
0.000835618
0.0913967
0.000956866
0.0911109
0.00105694
0.0908068
0.000803676
0.0903235
0.000590489
0.0898056
-0.000129848
0.0890507
-0.000665293
0.0882864
-0.00196966
0.0873016
-0.00286565
0.0863263
-0.00470572
0.0853182
-0.00595785
0.0842791
-0.00819418
0.0834512
-0.00966168
0.0827301
-0.0123257
-0.0138633
0.0826079
0.0905944
0.00609242
-0.090719
0.0905649
0.00546176
0.0904578
0.00481261
0.0904871
0.00412266
0.0904476
0.00352163
0.090565
0.00271798
0.0905649
0.0022013
0.0906799
0.00133643
0.0907381
0.000859644
0.0908337
1.87374e-05
0.0909272
-0.000411245
0.0910125
-0.00110668
0.091146
-0.00142531
0.0912451
-0.00189446
0.0914071
-0.00208021
0.0915126
-0.00224136
0.0916621
-0.00225731
0.0917725
-0.00213258
0.0918961
-0.00194648
0.0920275
-0.0016181
0.0921303
-0.00122147
0.0922104
-0.000800364
0.0923326
-0.000355872
0.0923226
0.000138747
0.0923487
0.000502507
0.0922723
0.000912009
0.0921878
0.00104129
0.0919394
0.0013054
0.0916642
0.00107887
0.0911858
0.0010689
0.0906765
0.000379388
0.0899174
9.38361e-05
0.0890676
-0.00111985
0.0880636
-0.00186168
0.0868629
-0.00350496
0.0856409
-0.00473588
0.0842263
-0.00677953
0.0829412
-0.00837665
0.0814938
-0.0108784
-0.0129982
0.0806288
0.0905939
0.00619173
-0.0906932
0.0906079
0.00544777
0.0905546
0.00486592
0.0906097
0.00406757
0.0906185
0.00351279
0.0906886
0.0026479
0.090748
0.00214188
0.0908458
0.00123861
0.0909625
0.000743005
0.0910653
-8.41233e-05
0.0912091
-0.00055505
0.0913133
-0.00121088
0.0915084
-0.00162035
0.0915925
-0.00197852
0.0917724
-0.00226011
0.0919013
-0.00237033
0.0920519
-0.00240788
0.0921989
-0.00227964
0.0923444
-0.0020919
0.0924789
-0.0017526
0.092646
-0.00138864
0.0927351
-0.000889385
0.0928696
-0.000490444
0.092928
8.03355e-05
0.0930173
0.000413253
0.0929729
0.000956425
0.0929466
0.00106759
0.0927587
0.00149326
0.092539
0.00129859
0.0921168
0.00149107
0.0916223
0.000873886
0.0909698
0.000746349
0.0900775
-0.000227483
0.0890991
-0.000883346
0.0877868
-0.00219263
0.0864346
-0.0033837
0.0847594
-0.00510435
0.083132
-0.00674921
0.081121
-0.00886736
-0.0113582
0.079481
0.0913247
0.00627432
-0.0914072
0.0912967
0.00547575
0.0912724
0.00489023
0.0912864
0.00405358
0.0913054
0.00349374
0.0913596
0.00259367
0.0914668
0.00203468
0.0915272
0.00117823
0.0916803
0.000589872
0.0917314
-0.000135208
0.0919531
-0.00077675
0.0920306
-0.00128833
0.0922149
-0.0018047
0.0923692
-0.00213283
0.0925389
-0.00242978
0.0926793
-0.00251073
0.0928398
-0.00256835
0.0929787
-0.00241852
0.0931644
-0.00227766
0.0932927
-0.00188094
0.0934722
-0.00156811
0.0935962
-0.00101334
0.0937742
-0.000668434
0.0938639
-9.44703e-06
0.0939913
0.000285887
0.0940222
0.000925522
0.0940372
0.00105256
0.0939406
0.00158992
0.0937872
0.00145194
0.0935111
0.00176715
0.0930234
0.00136166
0.0924991
0.00127062
0.0916235
0.000648077
0.0906853
5.49169e-05
0.0893913
-0.000898611
0.0880213
-0.00201377
0.0862058
-0.00328882
0.0843628
-0.00490627
0.0819875
-0.00649204
-0.00905955
0.0796889
0.0913134
0.00629754
-0.0913366
0.0913796
0.00540952
0.0914267
0.00484313
0.0914676
0.0040127
0.0915709
0.00339041
0.0916007
0.00256391
0.0917773
0.0018581
0.0918129
0.00114256
0.092059
0.000343798
0.092134
-0.000210261
0.0923193
-0.00096203
0.0924642
-0.00143325
0.0926512
-0.00199161
0.0928198
-0.00230147
0.0929947
-0.00260472
0.0931514
-0.00266743
0.0933628
-0.00277975
0.0935242
-0.00257984
0.0937426
-0.00249614
0.0939026
-0.00204093
0.0941301
-0.00179561
0.0942869
-0.00117011
0.0945097
-0.000891217
0.0946577
-0.00015744
0.0948554
8.81253e-05
0.0949759
0.000805076
0.0950721
0.000956325
0.095114
0.00154808
0.0949971
0.00156881
0.0948943
0.00186991
0.0944971
0.00175893
0.09409
0.00167773
0.0933539
0.0013841
0.0925508
0.00085805
0.091332
0.00032015
0.090031
-0.000712718
0.0882662
-0.00152407
0.0864473
-0.00308728
0.0840323
-0.00407705
-0.00650116
0.0814739
0.0922288
0.00626384
-0.0921951
0.0922331
0.00540524
0.0923689
0.00470736
0.0924074
0.00397415
0.0925922
0.00320567
0.092623
0.00253302
0.0928244
0.0016568
0.0929116
0.00105531
0.093075
0.00018045
0.0932456
-0.000380883
0.0933907
-0.00110718
0.0935588
-0.00160132
0.0937323
-0.00216506
0.093906
-0.00247517
0.0940995
-0.00279826
0.0942527
-0.00282065
0.0944501
-0.00297716
0.0946214
-0.00275113
0.0948263
-0.00270103
0.0950036
-0.00221818
0.0952439
-0.00203593
0.0954604
-0.00138664
0.0956959
-0.00112668
0.0959387
-0.000400291
0.0961618
-0.000134974
0.096415
0.000551919
0.0965413
0.000829971
0.0967708
0.00131865
0.0967678
0.00157182
0.0968249
0.00181274
0.096599
0.00198488
0.0963713
0.0019054
0.0958285
0.00192691
0.0952086
0.00147796
0.0942112
0.00131751
0.0931033
0.000395225
0.0915193
5.99092e-05
0.0898085
-0.00137651
0.0875423
-0.00181081
-0.00385602
0.0848972
0.092292
0.0061237
-0.0921518
0.0923347
0.00536246
0.0925209
0.00452123
0.0926019
0.00389312
0.0928242
0.00298335
0.0930126
0.00234469
0.0932079
0.00146147
0.0934655
0.000797748
0.0935925
5.34121e-05
0.0938406
-0.000629002
0.0940321
-0.00129862
0.0942549
-0.00182421
0.0944765
-0.0023866
0.0946407
-0.00263939
0.094851
-0.00300854
0.0950345
-0.00300416
0.0952619
-0.0032046
0.0954332
-0.00292241
0.0956574
-0.00292524
0.0958987
-0.00245945
0.0961186
-0.00225581
0.0964227
-0.00169073
0.0966752
-0.00137923
0.0970553
-0.000780344
0.0972679
-0.000347565
0.0976924
0.000127423
0.0979063
0.000616054
0.0982735
0.000951419
0.0984156
0.00142975
0.0986456
0.0015827
0.0986392
0.00199124
0.0986114
0.00193319
0.0983011
0.00223729
0.0979337
0.00184535
0.0971897
0.0020615
0.0963488
0.00123614
0.0950798
0.00132888
0.0935885
0.000114753
0.0917165
6.12403e-05
-0.00147044
0.0893309
0.0935931
0.00597521
-0.0934446
0.0937133
0.0052423
0.0938728
0.00436173
0.0940553
0.00371057
0.0941503
0.00288833
0.0943288
0.00216619
0.0944636
0.00132664
0.0947159
0.000545498
0.0950066
-0.000237261
0.0952351
-0.000857526
0.0954892
-0.00155268
0.0956814
-0.00201645
0.0959039
-0.00260914
0.0961333
-0.00286877
0.096354
-0.00322919
0.0965791
-0.00322934
0.0967534
-0.00337886
0.0970295
-0.00319848
0.0971866
-0.00308237
0.0975089
-0.00278177
0.0977138
-0.00246071
0.0981127
-0.00208962
0.0983308
-0.00159729
0.0987945
-0.00124406
0.0991345
-0.000687599
0.0996461
-0.000384147
0.100051
0.000211473
0.100561
0.000441236
0.100951
0.00103987
0.101403
0.00113073
0.101663
0.00173126
0.10194
0.00165569
0.101935
0.00224298
0.10189
0.00188953
0.101543
0.00240841
0.101055
0.00172502
0.100239
0.00214423
0.0991813
0.00117271
0.0978462
0.0013963
0.000280137
0.0960956
0.0938264
0.00576675
-0.0936179
0.0940685
0.0050002
0.0942897
0.00414056
0.094625
0.00337526
0.094922
0.00259126
0.0952765
0.00181174
0.0955574
0.0010457
0.0957591
0.000343884
0.0959551
-0.00043326
0.0962117
-0.00111419
0.0964565
-0.00179747
0.0967579
-0.00231789
0.0969335
-0.00278468
0.0972134
-0.00314872
0.0973362
-0.00335199
0.0976503
-0.00354341
0.0977639
-0.00349249
0.0980775
-0.00351201
0.0982162
-0.00322105
0.098577
-0.00314259
0.0987831
-0.00266688
0.0992095
-0.00251595
0.0995558
-0.00194367
0.100076
-0.00176416
0.100515
-0.00112713
0.101112
-0.000980567
0.101618
-0.000294202
0.102256
-0.000197129
0.102838
0.000457802
0.103465
0.000503618
0.104016
0.00117988
0.104517
0.0011551
0.104957
0.00180305
0.105173
0.00167399
0.105345
0.00223561
0.10517
0.00190009
0.104867
0.00244768
0.104173
0.00186655
0.103306
0.00226352
0.00167137
0.101915
0.0958874
0.00571689
-0.0958375
0.0960139
0.00487371
0.0960793
0.0040751
0.096234
0.00322063
0.0964116
0.00241358
0.096694
0.00152939
0.0969879
0.000751809
0.0974667
-0.000134949
0.0977655
-0.000732037
0.0981546
-0.00150335
0.0983558
-0.00199863
0.0987115
-0.00267355
0.0988947
-0.0029679
0.0992209
-0.00347491
0.0993858
-0.00351692
0.0996814
-0.00383903
0.0998502
-0.00366129
0.100139
-0.00380044
0.100372
-0.00345477
0.100686
-0.00345602
0.100997
-0.00297765
0.101398
-0.00291694
0.101809
-0.00235541
0.102358
-0.00231287
0.102932
-0.00170094
0.103642
-0.00169089
0.104425
-0.00107699
0.105317
-0.00108927
0.106235
-0.000459977
0.107215
-0.000476162
0.10819
0.000204051
0.109195
0.000150636
0.110115
0.000883341
0.11098
0.000808173
0.111717
0.00149893
0.112249
0.00136825
0.11275
0.00194681
0.112733
0.00188316
0.112817
0.00217998
0.00228596
0.112202
0.0969321
0.00516971
-0.0963849
0.0975258
0.00428003
0.0980551
0.00354582
0.0986158
0.00265991
0.0990274
0.00200202
0.0994752
0.00108158
0.0996774
0.000549639
0.0999275
-0.000385093
0.100089
-0.000893439
0.100404
-0.00181857
0.100562