/*--------------------------------*- C++ -*----------------------------------*\
  =========                 |
  \\      /  F ield         | OpenFOAM: The Open Source CFD Toolbox
   \\    /   O peration     | Website:  https://openfoam.org
    \\  /    A nd           | Version:  11
     \\/     M anipulation  |
\*---------------------------------------------------------------------------*/
FoamFile
{
    format      ascii;
    class       volVectorField;
    location    "10";
    object      U;
}
// * * * * * * * * * * * * * * * * * * * * * * * * * * * * * * * * * * * * * //

dimensions      [0 1 -1 0 0 0 0];

internalField   nonuniform List<vector> 
9600
(
(0.994292 0.000197606 -4.23329e-21)
(0.993444 0.000227091 0)
(0.992515 -0.000138056 -4.23668e-21)
(0.992154 -0.000423153 4.18576e-21)
(0.991889 -0.000699183 0)
(0.99167 -0.000822667 1.97017e-21)
(0.991717 -0.000924051 -3.84842e-21)
(0.992052 -0.0010014 1.88279e-21)
(0.99271 -0.00106181 1.71857e-21)
(0.993649 -0.00105735 -1.72266e-21)
(0.994801 -0.00102671 1.18287e-23)
(0.996146 -0.00097909 0)
(0.99774 -0.000981389 0)
(0.999315 -0.00109048 -4.93473e-22)
(1.00101 -0.00119771 9.61873e-23)
(1.00275 -0.00121577 4.01276e-22)
(1.00444 -0.0013343 0)
(1.00587 -0.00140109 0)
(1.00758 -0.00117609 1.59907e-25)
(1.00847 -0.000671002 0)
(1.00827 -0.000700076 0)
(1.00851 -0.00118845 1.4711e-25)
(1.0086 -0.0010027 -3.43512e-25)
(1.00788 -0.000734192 6.20537e-23)
(1.00673 -0.000532999 -6.13805e-23)
(1.00575 -0.000771998 2.82662e-23)
(1.00514 -0.00118064 -2.86038e-23)
(1.00476 -0.00146922 -2.94602e-22)
(1.00442 -0.00159398 2.89802e-22)
(1.00402 -0.00154987 0)
(1.00344 -0.00135586 0)
(1.00227 -0.00110553 6.74152e-22)
(0.99996 -0.000354757 -1.38461e-21)
(0.995384 0.000657643 7.17463e-22)
(0.984008 0.00327906 0)
(0.967878 0.0034598 1.27734e-23)
(0.962073 0.000690951 1.59426e-21)
(0.96049 0.00041593 -1.5651e-21)
(0.9734 -0.00363952 -1.17118e-23)
(0.970804 0.000171954 -2.13469e-21)
(0.994764 0.000315056 -4.30694e-21)
(0.994706 0.000250551 -2.85441e-23)
(0.994828 0.000231337 9.77787e-23)
(0.995142 0.000255665 4.29987e-21)
(0.995694 0.000372348 2.05246e-21)
(0.996223 0.000412704 -2.05916e-21)
(0.996814 0.000441703 3.07816e-23)
(0.99764 0.000348246 1.50027e-23)
(0.998834 0.000277842 -1.7403e-21)
(1.00045 0.000118189 1.77103e-21)
(1.00201 2.35333e-05 -1.23516e-23)
(1.00363 -0.000163653 2.19461e-23)
(1.00568 -0.00023113 5.60665e-22)
(1.00812 -0.000181319 -1.07126e-21)
(1.01062 -0.000192956 4.97832e-22)
(1.01295 -0.000174531 3.00409e-22)
(1.01528 1.62695e-06 -3.01798e-22)
(1.01772 0.000188379 6.10856e-23)
(1.01962 0.000334159 -6.00318e-23)
(1.02111 0.000558418 0)
(1.02263 0.000755335 0)
(1.02293 0.00112065 4.26653e-23)
(1.02263 0.00126824 -4.20177e-23)
(1.02235 0.00137007 -6.3849e-25)
(1.02267 0.00130878 0)
(1.02284 0.00137505 1.22399e-23)
(1.02271 0.00152483 5.84941e-23)
(1.02221 0.00169819 1.9528e-22)
(1.02183 0.00176558 -2.59894e-22)
(1.02186 0.00170203 -6.72367e-24)
(1.02225 0.0017118 5.90477e-22)
(1.02296 0.00201107 -5.98586e-22)
(1.023 0.00235145 7.33948e-22)
(1.02182 0.00356221 -1.4865e-21)
(1.02116 0.00510624 7.36519e-22)
(1.02141 0.00503419 -1.28112e-23)
(1.02161 0.00292858 -1.27534e-23)
(1.02002 -0.00069002 0)
(1.02304 -0.00359682 1.2073e-23)
(1.02056 -0.00904232 -1.43348e-21)
(0.994889 0.000272691 0)
(0.994918 0.000210109 4.39831e-21)
(0.995067 5.52531e-05 -4.38734e-21)
(0.995458 -0.000210359 0)
(0.995833 -0.000518067 0)
(0.996257 -0.000777807 -6.44069e-23)
(0.996913 -0.00105097 -9.39846e-23)
(0.997707 -0.00125678 0)
(0.999103 -0.00163293 -1.83111e-21)
(1.00068 -0.00182478 1.7519e-21)
(1.00249 -0.00190833 0)
(1.00422 -0.00217548 -2.24762e-23)
(1.00608 -0.00250391 1.99196e-23)
(1.00838 -0.00281286 0)
(1.01112 -0.00263592 -4.06329e-22)
(1.0136 -0.00250379 3.99734e-22)
(1.01567 -0.00269728 7.81069e-24)
(1.01747 -0.00266042 -1.2743e-24)
(1.01948 -0.00218198 -1.04094e-23)
(1.02161 -0.00148709 1.09764e-23)
(1.02286 -0.00112091 -1.593e-23)
(1.02282 -0.000963959 1.68481e-23)
(1.02241 -0.000696589 -7.58027e-25)
(1.02238 -0.00058232 7.62544e-23)
(1.02299 -0.000537714 -7.50935e-23)
(1.02302 -0.000619139 1.10528e-23)
(1.02281 -0.000711615 -9.91274e-24)
(1.02203 -0.000841451 2.60019e-22)
(1.02136 -0.00108983 -2.60787e-22)
(1.02139 -0.00133243 6.94114e-24)
(1.02199 -0.00130349 0)
(1.02425 -0.00135976 6.75444e-22)
(1.02668 -0.000204869 -1.43308e-21)
(1.02754 0.00104826 7.42672e-22)
(1.02741 0.00341815 8.54712e-22)
(1.02545 0.00504318 -2.54154e-21)
(1.02226 0.00389449 -1.29908e-23)
(1.01919 0.00217947 1.714e-21)
(1.0197 -0.00287507 -2.62351e-23)
(1.01773 -0.00380129 -1.44035e-24)
(0.994918 0.000238036 -8.86239e-21)
(0.994977 0.000137533 4.47175e-21)
(0.99521 -6.61773e-05 4.40661e-21)
(0.995656 -0.000435167 -4.43726e-21)
(0.996155 -0.000484292 0)
(0.996531 -0.000758333 2.13023e-21)
(0.997265 -0.000765929 -2.00699e-21)
(0.998111 -0.00114426 1.95358e-21)
(0.999657 -0.00133837 -1.20523e-22)
(1.00079 -0.00174353 -1.7818e-21)
(1.00285 -0.00183404 -1.44871e-21)
(1.0048 -0.00214933 2.88526e-21)
(1.00677 -0.00231853 -7.5892e-22)
(1.00864 -0.00254416 -1.07413e-21)
(1.01118 -0.00251864 4.90349e-22)
(1.01413 -0.00227579 3.02819e-22)
(1.01675 -0.00187572 -2.96516e-22)
(1.01813 -0.00163333 -2.30491e-24)
(1.01968 -0.00148547 -5.7874e-25)
(1.02183 -0.000934359 0)
(1.02339 0.000205836 0)
(1.02358 0.00117439 -7.14087e-25)
(1.02315 0.00137204 0)
(1.02272 0.00104551 0)
(1.02251 0.000787132 1.47138e-24)
(1.02253 0.00102633 -8.37547e-25)
(1.02244 0.00163547 -5.20996e-23)
(1.02215 0.0018615 -1.75386e-22)
(1.02191 0.0017026 2.40364e-22)
(1.02171 0.00105007 -4.75406e-22)
(1.0223 0.000151156 4.7614e-22)
(1.0236 -0.000497463 1.94722e-23)
(1.02466 -0.000107108 7.20455e-22)
(1.02503 0.00168689 -7.40208e-22)
(1.02467 0.00430058 -8.04577e-22)
(1.02521 0.00587634 -8.83851e-22)
(1.02521 0.00559292 -4.77962e-23)
(1.02713 0.00423274 1.73224e-21)
(1.0268 1.72282e-06 2.67819e-23)
(1.03183 -0.00803607 2.57498e-23)
(0.994957 0.000120154 0)
(0.995024 -1.92923e-05 4.65001e-21)
(0.995308 -0.000288964 -9.20783e-21)
(0.99581 -0.000690124 4.52105e-21)
(0.996298 -0.000864801 0)
(0.996647 -0.00108756 0)
(0.997389 -0.00147994 0)
(0.998216 -0.00191969 6.07903e-23)
(0.999701 -0.00236959 -1.7429e-21)
(1.0012 -0.00276512 1.80666e-21)
(1.00315 -0.00322171 -5.02513e-23)
(1.00484 -0.00366078 1.31271e-21)
(1.00696 -0.00391847 -1.94967e-21)
(1.00927 -0.00418689 5.89813e-22)
(1.01192 -0.00428563 0)
(1.01419 -0.00411808 2.80048e-22)
(1.01665 -0.00372194 -2.91138e-22)
(1.01899 -0.00330767 2.36408e-24)
(1.02058 -0.00302896 0)
(1.02178 -0.00240103 0)
(1.02236 -0.00132249 2.13944e-23)
(1.0234 -0.0005966 -2.13893e-23)
(1.02395 -8.29235e-05 0)
(1.02369 5.06205e-05 1.01919e-22)
(1.02278 -3.98562e-05 -1.05629e-22)
(1.02153 -0.000252252 -1.72859e-23)
(1.02126 -0.000307881 1.66588e-23)
(1.02166 -0.000240901 2.11273e-22)
(1.02247 -0.000305183 -2.2752e-22)
(1.02307 -0.000563113 -1.24223e-23)
(1.0233 -0.00121306 0)
(1.02303 -0.00151504 -1.97348e-23)
(1.02284 -0.00128349 -7.15827e-22)
(1.02316 -8.16212e-05 7.44095e-22)
(1.02341 0.00229903 -2.61293e-23)
(1.02594 0.00441452 0)
(1.02721 0.00445111 0)
(1.03053 0.00335556 1.84558e-21)
(1.03055 0.00103626 -1.77746e-21)
(1.03374 -0.00585528 5.58983e-23)
(0.994925 2.78972e-05 -4.49621e-21)
(0.995007 -0.000158777 -1.45324e-22)
(0.995388 -0.000384221 1.45047e-22)
(0.995902 -0.000901005 1.42011e-22)
(0.996429 -0.00101741 0)
(0.996722 -0.00155003 0)
(0.99757 -0.00181011 0)
(0.998367 -0.0024668 1.81936e-21)
(1.0002 -0.0029457 -3.89016e-21)
(1.00134 -0.00354047 1.7177e-21)
(1.00363 -0.00384441 0)
(1.0051 -0.00416166 1.3137e-21)
(1.00768 -0.00453016 -1.36146e-21)
(1.00943 -0.00496904 -4.87493e-22)
(1.01211 -0.00489819 4.88292e-22)
(1.01445 -0.00458453 1.01756e-23)
(1.01748 -0.00412995 -7.00816e-24)
(1.01941 -0.00360433 0)
(1.02072 -0.00291357 6.00164e-25)
(1.02174 -0.00203736 0)
(1.02338 -0.000721787 3.73817e-25)
(1.02444 0.000346159 2.08595e-24)
(1.02428 0.00105552 0)
(1.02348 0.00128898 -1.30262e-22)
(1.02236 0.00129403 1.29562e-22)
(1.02167 0.00119859 -3.36056e-23)
(1.02156 0.00113154 3.77724e-23)
(1.02183 0.00100876 -1.85384e-22)
(1.02219 0.00081794 1.82742e-22)
(1.02257 0.000572205 8.52595e-25)
(1.0227 -8.08677e-05 3.16823e-23)
(1.02292 -0.000675294 -3.87045e-23)
(1.02313 -0.000784361 7.49942e-22)
(1.02346 -0.000387611 -1.55325e-21)
(1.02379 0.00141608 8.14686e-22)
(1.02524 0.00314996 0)
(1.02596 0.00391261 5.69677e-23)
(1.02758 0.00374981 -5.83087e-23)
(1.02785 0.00247631 -5.8949e-23)
(1.03179 -0.00359661 1.89567e-21)
(0.994935 -0.000203179 -1.90028e-22)
(0.995025 -0.000445691 -9.35406e-21)
(0.99546 -0.000731942 2.49606e-22)
(0.995939 -0.0013329 4.55938e-21)
(0.996488 -0.00152502 0)
(0.996792 -0.00201158 1.37738e-22)
(0.997732 -0.00243198 1.32885e-22)
(0.998521 -0.00322172 0)
(1.00045 -0.00370113 1.96432e-21)
(1.00172 -0.00430509 -1.62758e-21)
(1.00362 -0.00483639 0)
(1.00537 -0.00550075 9.13193e-23)
(1.00827 -0.00567046 -5.88496e-22)
(1.00994 -0.00585673 5.89606e-22)
(1.01247 -0.00598444 0)
(1.01491 -0.0060202 2.63986e-22)
(1.018 -0.00529693 -2.74222e-22)
(1.02002 -0.00420865 0)
(1.02138 -0.00339431 8.55281e-25)
(1.02216 -0.00295888 -1.81063e-24)
(1.02359 -0.00191861 -8.41223e-25)
(1.0245 -0.00063603 -4.58027e-24)
(1.0245 0.000679679 5.43577e-24)
(1.02388 0.00120995 1.49939e-22)
(1.02289 0.00112662 -1.48924e-22)
(1.02179 0.000555226 -4.90891e-24)
(1.02116 4.69472e-05 9.62883e-24)
(1.02115 -0.000128446 -1.49524e-23)
(1.02166 -0.000155851 -2.97228e-22)
(1.0225 -0.000214984 2.97356e-22)
(1.02297 -0.000730439 -3.25516e-23)
(1.02339 -0.00127054 1.21359e-24)
(1.02377 -0.00140295 0)
(1.02402 -0.00105549 -4.93671e-23)
(1.02391 0.000535038 -8.80448e-22)
(1.02451 0.00252186 -9.63317e-22)
(1.02485 0.00349038 -1.20052e-22)
(1.02582 0.00359006 1.92933e-21)
(1.02593 0.00282383 -1.93476e-21)
(1.02976 -0.00175256 1.99619e-21)
(0.99479 -0.000345971 4.91955e-21)
(0.994904 -0.000620872 7.2766e-23)
(0.99541 -0.000931428 -9.51225e-21)
(0.995902 -0.00162135 4.6597e-21)
(0.99653 -0.00181235 0)
(0.996815 -0.00242898 -1.41443e-22)
(0.997844 -0.00296786 -2.12014e-21)
(0.998641 -0.00375473 4.2621e-21)
(1.0006 -0.0045416 -3.76127e-21)
(1.00182 -0.00516984 1.7633e-21)
(1.00411 -0.00597867 0)
(1.00574 -0.00641206 1.33024e-21)
(1.00823 -0.0067318 -1.34012e-21)
(1.01049 -0.00689531 -4.49033e-22)
(1.01333 -0.00723092 4.82957e-22)
(1.01535 -0.00691751 0)
(1.01774 -0.00630723 6.11417e-25)
(1.02034 -0.00494465 0)
(1.02229 -0.00397132 3.52557e-25)
(1.02321 -0.00314806 6.40259e-25)
(1.02387 -0.00197888 4.70019e-25)
(1.0242 -0.000393757 2.50581e-24)
(1.02471 0.00108095 -5.58719e-24)
(1.02441 0.0018302 1.80805e-22)
(1.02367 0.00200785 -1.85096e-22)
(1.02225 0.00171306 -8.24406e-23)
(1.02089 0.00104601 8.23461e-23)
(1.02041 0.000408276 -1.25572e-22)
(1.02065 6.22231e-05 4.08429e-22)
(1.02186 -8.46264e-05 -6.83467e-22)
(1.023 -0.000479647 4.27065e-22)
(1.02365 -0.00103279 3.95655e-23)
(1.02404 -0.00125056 0)
(1.02434 -0.00110356 5.09684e-23)
(1.02441 -0.000167386 0)
(1.02457 0.0017147 0)
(1.02443 0.00277432 0)
(1.02454 0.003111 1.9594e-21)
(1.02425 0.00272747 -2.05037e-21)
(1.02697 0.000231333 -1.25234e-22)
(0.994759 -0.000693662 -4.79415e-21)
(0.994877 -0.00102221 -9.0918e-25)
(0.995436 -0.00136398 -5.19505e-21)
(0.995982 -0.00215089 5.06907e-21)
(0.996633 -0.00246661 -2.95415e-22)
(0.996923 -0.00308699 -2.39987e-21)
(0.997997 -0.00373144 1.98762e-21)
(0.998788 -0.00467074 -1.32502e-22)
(1.00086 -0.00550024 -2.0238e-21)
(1.0022 -0.00623713 3.64972e-21)
(1.00436 -0.00695263 -1.85172e-21)
(1.00575 -0.00759214 0)
(1.00874 -0.00794233 -1.20133e-22)
(1.0112 -0.00812618 -3.39824e-23)
(1.01386 -0.00812717 2.56772e-23)
(1.01587 -0.0079244 2.32329e-22)
(1.0182 -0.00738053 -2.44686e-22)
(1.02108 -0.00595232 0)
(1.02338 -0.004428 3.89546e-25)
(1.02409 -0.00336637 2.13407e-25)
(1.02436 -0.00215178 0)
(1.02473 -0.00081574 -3.44295e-24)
(1.02513 0.000772486 -7.49896e-24)
(1.02486 0.00191539 -6.45614e-24)
(1.02394 0.00239396 1.11934e-23)
(1.02254 0.00220756 0)
(1.02105 0.00135979 0)
(1.02015 0.000287838 8.44058e-23)
(1.02013 -0.000540352 -7.48808e-23)
(1.02092 -0.000825526 -1.95663e-23)
(1.02247 -0.00100142 0)
(1.0237 -0.0012918 -7.17303e-22)
(1.02444 -0.00160966 1.46291e-21)
(1.02535 -0.00156387 -1.64968e-21)
(1.02558 -0.00100208 8.58409e-22)
(1.02588 0.00111313 -1.1857e-22)
(1.02474 0.00298228 -1.883e-21)
(1.02396 0.00379449 1.98476e-21)
(1.02285 0.00318751 2.16385e-21)
(1.0246 0.00164429 -4.13408e-21)
(0.994536 -0.000898982 -5.20057e-21)
(0.994653 -0.00132245 9.65293e-21)
(0.995277 -0.00163085 -1.2447e-22)
(0.995844 -0.00256702 -5.34512e-21)
(0.996608 -0.00291761 3.03781e-22)
(0.996863 -0.00369192 1.47603e-22)
(0.998028 -0.00447265 1.42197e-22)
(0.998843 -0.00541427 2.07998e-21)
(1.00097 -0.00645283 -1.55452e-22)
(1.00231 -0.00712796 -1.93882e-21)
(1.00456 -0.00807632 -1.48473e-21)
(1.0061 -0.00880683 2.94122e-22)
(1.00899 -0.00924106 2.06695e-21)
(1.01153 -0.00927998 -1.06084e-21)
(1.0145 -0.00920123 4.4608e-22)
(1.01674 -0.00885776 3.65961e-23)
(1.01883 -0.00832176 0)
(1.02118 -0.00689087 -6.08496e-24)
(1.02372 -0.00491484 -1.54966e-23)
(1.02507 -0.00355056 2.02892e-23)
(1.0255 -0.00222196 0)
(1.02544 -0.000851855 1.30237e-22)
(1.02515 0.000825947 -1.18902e-22)
(1.02487 0.00222604 2.46165e-22)
(1.02399 0.00290777 -2.30193e-22)
(1.02298 0.00298042 -1.3295e-22)
(1.02154 0.00226592 2.22712e-22)
(1.02011 0.00101507 -1.01389e-22)
(1.01945 -0.000289636 2.26222e-23)
(1.01971 -0.00111329 3.7477e-23)
(1.021 -0.00165847 0)
(1.02327 -0.00180461 7.6773e-23)
(1.02465 -0.00203711 0)
(1.026 -0.0017923 8.87802e-22)
(1.0262 -0.00134468 -9.94855e-22)
(1.02646 0.000214643 -1.9988e-21)
(1.02525 0.00254955 1.87238e-21)
(1.02437 0.00399086 0)
(1.02249 0.00361899 -2.09563e-21)
(1.02295 0.0019487 2.21968e-21)
(0.994622 -0.00136437 -5.75153e-21)
(0.994723 -0.00189697 3.31217e-22)
(0.995412 -0.00225576 -5.12932e-21)
(0.996001 -0.00329663 5.79999e-21)
(0.996712 -0.00381562 0)
(0.996981 -0.00456541 0)
(0.998156 -0.00541662 0)
(0.998987 -0.00640806 0)
(1.00108 -0.00756841 -1.96821e-21)
(1.00269 -0.00842122 1.97484e-21)
(1.00503 -0.00938814 0)
(1.00665 -0.010055 -9.55523e-23)
(1.00918 -0.0106279 -6.65702e-22)
(1.01203 -0.0107118 5.87367e-22)
(1.01519 -0.0105091 0)
(1.01774 -0.00983054 1.97216e-22)
(1.01988 -0.00919936 -2.24253e-22)
(1.02153 -0.00803614 0)
(1.02447 -0.00592665 1.44538e-24)
(1.02629 -0.00401196 0)
(1.02697 -0.00232319 0)
(1.02659 -0.000818267 -4.86807e-24)
(1.02575 0.00102425 -1.04577e-23)
(1.0252 0.00241389 -2.07033e-23)
(1.02433 0.00329832 -3.49569e-23)
(1.0232 0.00354954 -2.14982e-22)
(1.02182 0.0031365 1.78251e-22)
(1.02023 0.00187336 -3.94485e-23)
(1.01916 0.000102068 2.92785e-23)
(1.01898 -0.00122088 -1.78613e-23)
(1.01982 -0.00236689 0)
(1.02226 -0.00267676 -3.86708e-23)
(1.02413 -0.00283981 0)
(1.02633 -0.00245025 0)
(1.02708 -0.00198907 1.19099e-22)
(1.02798 -0.000596209 2.1895e-21)
(1.02696 0.00171748 -4.0681e-21)
(1.02613 0.00449814 4.1936e-21)
(1.02309 0.00524607 1.9785e-23)
(1.02256 0.0037673 -2.30023e-21)
(0.994443 -0.00160987 8.82938e-23)
(0.994486 -0.00229461 1.08599e-20)
(0.995211 -0.00265417 -1.06638e-20)
(0.99569 -0.00384595 -1.75829e-22)
(0.996498 -0.0044192 7.68738e-21)
(0.996736 -0.00534878 -2.51745e-21)
(0.998045 -0.00620634 0)
(0.998924 -0.0073777 -2.17222e-21)
(1.00101 -0.0086628 1.73324e-22)
(1.00281 -0.00959283 2.014e-21)
(1.00523 -0.0105504 -1.07478e-22)
(1.00696 -0.0112335 9.43576e-23)
(1.00961 -0.0119256 1.61713e-22)
(1.01236 -0.0119808 0)
(1.01559 -0.0118197 0)
(1.01822 -0.0109961 0)
(1.02115 -0.0099414 2.09509e-24)
(1.02243 -0.00876684 0)
(1.02499 -0.00675818 -5.7476e-24)
(1.02669 -0.00445496 1.86105e-24)
(1.02805 -0.00229525 -2.48515e-24)
(1.02753 -0.000339778 5.02028e-24)
(1.02679 0.00147386 1.07849e-23)
(1.02573 0.00277882 3.70848e-22)
(1.02441 0.00386978 -3.29649e-22)
(1.02289 0.00421224 -2.20609e-22)
(1.02151 0.00396582 2.08307e-22)
(1.0201 0.00292465 -5.13786e-24)
(1.01888 0.00102966 -1.06698e-22)
(1.01831 -0.000838326 9.2894e-23)
(1.01852 -0.00266963 0)
(1.0204 -0.00371139 0)
(1.02268 -0.00415853 7.255e-22)
(1.026 -0.00366859 1.19163e-22)
(1.02747 -0.00285824 -1.95189e-21)
(1.02909 -0.00123761 -1.13662e-21)
(1.02832 0.000757932 -3.59411e-22)
(1.02807 0.00360983 2.35906e-21)
(1.02475 0.00650899 2.27855e-21)
(1.02228 0.00470455 -2.25398e-21)
(0.994532 -0.00230109 0)
(0.994556 -0.00312079 3.49641e-22)
(0.995361 -0.00352352 -3.43239e-22)
(0.995748 -0.00477745 0)
(0.996559 -0.00544965 0)
(0.996778 -0.00650387 0)
(0.9981 -0.00749609 -3.05321e-22)
(0.999298 -0.00851988 -2.88145e-22)
(1.00124 -0.010047 2.04961e-21)
(1.00301 -0.0110544 -2.17879e-21)
(1.00562 -0.0122092 1.10882e-22)
(1.00752 -0.0127004 1.31696e-21)
(1.01053 -0.0134584 -2.07824e-21)
(1.01278 -0.0136521 5.79345e-22)
(1.01638 -0.0133649 -2.2171e-23)
(1.01884 -0.0124983 1.49643e-22)
(1.02235 -0.0110349 -1.5613e-22)
(1.02371 -0.00953323 0)
(1.02632 -0.00782871 4.39468e-24)
(1.02754 -0.00523129 -1.92126e-24)
(1.02923 -0.00271726 2.56555e-24)
(1.02889 -0.000226808 0)
(1.02842 0.00173738 0)
(1.02708 0.00337779 0)
(1.02521 0.00458007 0)
(1.02318 0.00499234 -2.95847e-22)
(1.02133 0.00473259 5.26219e-22)
(1.01985 0.00381285 -3.77713e-22)
(1.01852 0.0020074 1.93921e-22)
(1.01798 -0.000253574 -2.47195e-22)
(1.01772 -0.00239054 2.36601e-22)
(1.01929 -0.00430412 -6.67403e-22)
(1.02111 -0.00532602 7.60074e-22)
(1.025 -0.00549685 1.1194e-22)
(1.02708 -0.00460195 0)
(1.03003 -0.00287687 -2.25684e-21)
(1.03016 -0.000268046 5.56277e-23)
(1.03066 0.00238419 2.46354e-21)
(1.02839 0.00716507 2.22609e-21)
(1.02433 0.00644417 -4.72096e-21)
(0.994156 -0.0026762 -6.3092e-21)
(0.994171 -0.00355222 5.3427e-21)
(0.995059 -0.00406369 -5.38078e-21)
(0.995461 -0.00544767 -5.46856e-21)
(0.996331 -0.00628545 5.49631e-21)
(0.996602 -0.0073285 3.28173e-22)
(0.997781 -0.00845339 3.15232e-22)
(0.999123 -0.00967175 1.38456e-24)
(1.00136 -0.0112593 -2.09581e-21)
(1.00283 -0.0123831 2.22963e-21)
(1.00583 -0.0135974 0)
(1.00754 -0.0141019 0)
(1.01099 -0.01478 0)
(1.01328 -0.0148416 -4.84812e-22)
(1.01715 -0.0147722 4.48085e-22)
(1.01913 -0.0136762 2.50106e-23)
(1.02304 -0.0122835 0)
(1.02492 -0.010248 0)
(1.02753 -0.00839006 0)
(1.02836 -0.00546575 0)
(1.02988 -0.00301207 -3.58706e-24)
(1.02995 1.31511e-05 0)
(1.0295 0.00238802 0)
(1.02811 0.00435927 5.30021e-22)
(1.02584 0.00563684 -1.74803e-23)
(1.02344 0.00613417 -4.44482e-22)
(1.02099 0.00597039 0)
(1.01932 0.00481741 -2.70685e-22)
(1.01757 0.00344537 2.44817e-22)
(1.01704 0.000778202 5.52057e-23)
(1.0165 -0.00169027 2.17527e-23)
(1.01779 -0.004624 0)
(1.0192 -0.00630497 8.37551e-22)
(1.02302 -0.00737934 -7.65799e-23)
(1.02571 -0.0066749 -9.83611e-22)
(1.02958 -0.00559435 1.44891e-22)
(1.03123 -0.00187521 -1.53372e-22)
(1.03226 0.000599363 2.34831e-21)
(1.03182 0.00650489 -2.31863e-21)
(1.02694 0.00740039 0)
(0.994201 -0.00365229 -6.15273e-21)
(0.994221 -0.00466127 5.5281e-21)
(0.9951 -0.0052929 -1.49706e-22)
(0.995635 -0.00675622 -1.14687e-20)
(0.996147 -0.00762665 5.68142e-21)
(0.99676 -0.00869831 -3.39043e-22)
(0.998105 -0.0099836 0)
(0.999084 -0.0112601 1.22781e-24)
(1.00173 -0.0129668 -1.86347e-21)
(1.00318 -0.0141459 2.28064e-21)
(1.00637 -0.015472 0)
(1.00819 -0.0160147 0)
(1.01192 -0.0167116 6.40283e-22)
(1.01422 -0.0166517 -4.42419e-22)
(1.01827 -0.0166218 0)
(1.02022 -0.0153416 7.43908e-23)
(1.02412 -0.0139326 -8.61639e-23)
(1.02626 -0.0113405 0)
(1.02905 -0.00938182 0)
(1.03007 -0.00609906 3.49634e-24)
(1.03141 -0.00357889 3.71115e-24)
(1.03164 -0.000101719 0)
(1.03101 0.0025402 0)
(1.02966 0.00503024 -3.55284e-23)
(1.0273 0.00670796 -3.33205e-23)
(1.02457 0.00734168 0)
(1.0215 0.00728177 -3.44475e-22)
(1.01907 0.00598647 3.52471e-22)
(1.01664 0.00453794 0)
(1.01599 0.00174761 0)
(1.01524 -0.000845508 0)
(1.01656 -0.00439056 0)
(1.01768 -0.00669291 0)
(1.02131 -0.00897628 1.13586e-21)
(1.02434 -0.00874481 -1.01297e-21)
(1.02872 -0.00895875 -1.49653e-22)
(1.03194 -0.00509296 2.9274e-21)
(1.03407 -0.00252916 -2.75223e-21)
(1.03573 0.00454937 0)
(1.03091 0.00723538 -1.65864e-22)
(0.993367 -0.00414969 3.93698e-22)
(0.993488 -0.00524942 6.49778e-21)
(0.994352 -0.00613913 -6.14894e-21)
(0.994862 -0.00754908 -5.48158e-21)
(0.995734 -0.00859015 8.72924e-21)
(0.996093 -0.00975661 -2.50435e-21)
(0.997813 -0.011224 -2.2544e-21)
(0.998911 -0.0124218 5.33043e-21)
(1.00154 -0.0143856 -5.14407e-22)
(1.00312 -0.0154898 -2.33973e-21)
(1.00641 -0.017226 0)
(1.00836 -0.0174781 0)
(1.01233 -0.0183367 -8.09821e-23)
(1.01468 -0.017963 -4.40418e-22)
(1.01903 -0.0179709 3.8068e-22)
(1.02114 -0.0163519 3.52989e-23)
(1.02475 -0.0153744 -3.53559e-23)
(1.02718 -0.0121598 0)
(1.02994 -0.0101156 0)
(1.03169 -0.0063195 -3.62163e-24)
(1.03259 -0.00351909 -5.10433e-24)
(1.03278 -1.79666e-05 0)
(1.03189 0.00320632 0)
(1.03044 0.00612739 6.99167e-22)
(1.02825 0.00830103 -6.98036e-22)
(1.02544 0.00923124 -5.55381e-22)
(1.02183 0.00934675 5.54098e-22)
(1.0187 0.00793217 -9.39616e-23)
(1.0154 0.00633879 3.02178e-22)
(1.01421 0.00324474 -3.01162e-22)
(1.01296 0.000541836 0)
(1.01416 -0.00377023 0)
(1.01524 -0.00650246 8.34995e-22)
(1.01849 -0.0102523 3.31005e-22)
(1.02214 -0.0107428 -2.39249e-21)
(1.02661 -0.0120624 1.36454e-21)
(1.03139 -0.00885411 -3.13099e-21)
(1.03403 -0.00652601 5.76892e-21)
(1.03856 0.000317933 1.05824e-23)
(1.03405 0.00663296 -2.61183e-21)
(0.992991 -0.00553064 0)
(0.993546 -0.00671263 5.94357e-21)
(0.99432 -0.00772063 -1.30092e-20)
(0.99459 -0.00910689 5.87842e-21)
(0.99582 -0.0103177 -3.76723e-22)
(0.996227 -0.0115276 -3.19384e-21)
(0.997932 -0.0131958 2.15236e-21)
(0.999052 -0.0145323 0)
(1.00199 -0.0165041 -1.95774e-21)
(1.0037 -0.0178009 2.00112e-21)
(1.00718 -0.0194398 0)
(1.00916 -0.0199157 1.40412e-21)
(1.01318 -0.0207634 -1.40864e-21)
(1.01581 -0.0200299 0)
(1.02044 -0.0203147 -1.32089e-22)
(1.02332 -0.0181093 1.60751e-22)
(1.02652 -0.0172773 -9.74893e-24)
(1.02915 -0.0136626 0)
(1.03172 -0.0113343 1.58393e-23)
(1.03382 -0.0074052 0)
(1.03467 -0.00396298 -7.79478e-25)
(1.03487 -5.16214e-05 -2.69161e-23)
(1.03399 0.00362514 -5.65043e-23)
(1.03219 0.00659254 0)
(1.02967 0.0092475 0)
(1.0269 0.010629 -6.77798e-22)
(1.02314 0.0113593 1.2278e-21)
(1.0196 0.0101006 3.06373e-22)
(1.01545 0.00853543 -1.32033e-21)
(1.01321 0.00490812 4.72498e-22)
(1.01113 0.00191293 0)
(1.01159 -0.00328638 0)
(1.0127 -0.00613993 0)
(1.01543 -0.0111168 -1.20527e-22)
(1.01954 -0.0126359 2.93899e-22)
(1.02404 -0.0153576 -1.66824e-22)
(1.03054 -0.0132985 -2.64475e-21)
(1.03406 -0.0113794 3.1854e-21)
(1.04115 -0.00569996 -1.97896e-22)
(1.03829 0.00343152 -2.97091e-21)
(0.991724 -0.00630409 -7.34798e-21)
(0.992099 -0.00770538 4.16724e-22)
(0.993253 -0.0088751 6.48273e-21)
(0.993483 -0.0101458 -1.24497e-20)
(0.99482 -0.0116593 9.82352e-21)
(0.995417 -0.0128443 -3.08151e-21)
(0.997333 -0.014609 7.18593e-22)
(0.998557 -0.0159416 2.56536e-21)
(1.00145 -0.0183244 -5.20219e-21)
(1.00348 -0.0191305 4.63812e-21)
(1.00715 -0.0214334 -2.04287e-21)
(1.00948 -0.0212981 -1.38717e-21)
(1.01352 -0.0227415 1.31883e-21)
(1.01647 -0.0214444 0)
(1.02075 -0.0221442 -2.9402e-23)
(1.02441 -0.0194217 -9.87794e-23)
(1.02782 -0.0183346 1.0907e-22)
(1.03073 -0.0146964 -2.4087e-22)
(1.03294 -0.0118066 2.05052e-22)
(1.03534 -0.0078481 -6.18612e-24)
(1.03627 -0.00389303 2.33119e-22)
(1.03633 0.000333941 -6.86354e-22)
(1.03545 0.00462776 4.79252e-22)
(1.03373 0.00796118 9.84564e-22)
(1.03075 0.0109899 -9.82764e-22)
(1.02742 0.0126759 -8.23174e-22)
(1.02323 0.0139996 7.17409e-22)
(1.01926 0.0127827 8.44061e-23)
(1.01488 0.011789 4.81281e-23)
(1.01175 0.00779078 3.12657e-22)
(1.00916 0.00484923 -3.38734e-22)
(1.00826 -0.00134704 0)
(1.00901 -0.0049589 -6.79994e-23)
(1.01057 -0.0110601 1.07209e-21)
(1.01531 -0.0140114 -2.39002e-21)
(1.01934 -0.0179255 1.31332e-21)
(1.02753 -0.0180241 -3.46667e-21)
(1.0317 -0.0165433 -1.35409e-22)
(1.04111 -0.01304 6.95852e-21)
(1.0409 -0.00185855 -3.14279e-21)
(0.991655 -0.00776184 8.91005e-22)
(0.991749 -0.00931562 6.90914e-21)
(0.993039 -0.0108541 -6.09613e-21)
(0.99328 -0.0121279 -8.40526e-22)
(0.994751 -0.0138574 0)
(0.995398 -0.0152242 0)
(0.997489 -0.0171921 -3.73289e-22)
(0.998955 -0.0184501 0)
(1.00202 -0.0210865 2.37996e-21)
(1.00414 -0.0219715 -4.18617e-21)
(1.00803 -0.024368 2.08025e-21)
(1.01077 -0.024172 9.48577e-23)
(1.01479 -0.0258047 6.15488e-24)
(1.01847 -0.0240118 4.32107e-23)
(1.02244 -0.0247367 0)
(1.02662 -0.0220601 0)
(1.02991 -0.0203674 2.1824e-23)
(1.03366 -0.0167009 -3.53951e-23)
(1.03603 -0.0132065 2.03496e-23)
(1.03827 -0.00908347 6.43448e-24)
(1.03944 -0.0042466 0)
(1.03957 -0.000127731 0)
(1.0384 0.00478871 1.48002e-22)
(1.03644 0.00892177 1.08869e-21)
(1.03352 0.0124842 -1.24261e-21)
(1.02963 0.0143904 0)
(1.02485 0.0163164 1.07818e-22)
(1.02 0.015322 -8.77472e-23)
(1.01516 0.0147415 -9.56637e-22)
(1.0109 0.0106045 8.97293e-22)
(1.00785 0.00772634 2.8412e-23)
(1.00564 0.0011404 0)
(1.00601 -0.00316932 7.06229e-23)
(1.00616 -0.010217 1.02414e-22)
(1.01078 -0.0148707 -1.54782e-22)
(1.01415 -0.0203474 -3.2071e-21)
(1.0234 -0.0231121 -3.70837e-22)
(1.02842 -0.0227556 3.30389e-21)
(1.04009 -0.021688 2.46593e-22)
(1.04257 -0.0105264 -2.29205e-22)
(0.990372 -0.00882887 -8.07215e-21)
(0.990487 -0.010426 7.24902e-21)
(0.991693 -0.0122926 -1.48499e-20)
(0.991951 -0.0136188 1.49513e-20)
(0.993459 -0.0155049 -6.96471e-21)
(0.994367 -0.0167499 -3.18734e-21)
(0.996352 -0.0192254 3.20639e-21)
(0.998231 -0.0201874 2.74386e-21)
(1.00124 -0.023217 -4.87997e-21)
(1.00395 -0.0237293 4.56407e-21)
(1.0076 -0.0267078 -2.11664e-21)
(1.01123 -0.025957 -9.87351e-23)
(1.01488 -0.0278819 -3.02136e-22)
(1.01929 -0.0261026 1.92792e-22)
(1.02329 -0.0261556 2.09051e-22)
(1.02811 -0.0238514 -3.07211e-22)
(1.03158 -0.0216424 2.711e-22)
(1.03538 -0.0181439 -7.97296e-24)
(1.03816 -0.0135433 -2.92689e-23)
(1.04055 -0.0097956 0)
(1.04169 -0.00405767 1.01596e-23)
(1.04195 0.000782359 0)
(1.04085 0.00583326 -8.19821e-23)
(1.03846 0.0103841 -1.12711e-23)
(1.03528 0.0148112 -1.15075e-21)
(1.03101 0.0170919 1.31902e-21)
(1.02601 0.01979 -1.05117e-21)
(1.0203 0.0190717 -8.03816e-22)
(1.01509 0.019035 1.8188e-21)
(1.00929 0.0150688 5.78152e-23)
(1.00572 0.0120256 0)
(1.00144 0.00528363 -1.11047e-22)
(1.00153 -0.000293249 1.10466e-22)
(1.00009 -0.00770579 -1.06502e-22)
(1.00436 -0.014148 0)
(1.0067 -0.0205332 0)
(1.01607 -0.0264807 0)
(1.02178 -0.0279499 0)
(1.03496 -0.0305348 -4.86858e-21)
(1.04075 -0.0208287 8.41022e-21)
(0.990335 -0.0109476 7.77038e-21)
(0.990485 -0.012684 -6.97372e-22)
(0.991818 -0.0147402 -1.51591e-20)
(0.992161 -0.0161755 -2.05982e-22)
(0.993462 -0.0184812 7.31784e-21)
(0.99479 -0.0195843 0)
(0.996674 -0.022507 0)
(0.998826 -0.0234761 0)
(1.00171 -0.0267641 2.17896e-21)
(1.00524 -0.0271132 -2.82794e-21)
(1.00846 -0.0302931 1.18884e-22)
(1.01313 -0.0297291 -1.26789e-21)
(1.01648 -0.0311428 1.20436e-21)
(1.02175 -0.0299758 -2.72617e-23)
(1.02556 -0.0292126 -1.20872e-23)
(1.03087 -0.0272776 -7.17758e-24)
(1.03477 -0.0239751 0)
(1.03907 -0.0209952 1.02961e-22)
(1.04184 -0.0154353 3.05456e-23)
(1.04463 -0.0110563 1.06407e-23)
(1.04605 -0.0052259 -3.99818e-22)
(1.04618 0.00040661 4.29328e-22)
(1.04541 0.00619602 -1.09878e-22)
(1.04287 0.0113807 9.77899e-23)
(1.03943 0.0165508 -2.0394e-22)
(1.03459 0.0191755 -1.25614e-21)
(1.02933 0.0227364 1.45794e-21)
(1.02245 0.0225 2.14748e-21)
(1.01682 0.0230414 -7.05314e-22)
(1.00953 0.0196218 -1.69808e-21)
(1.00529 0.0166294 0)
(0.999061 0.0102777 -7.29668e-23)
(0.997915 0.00384849 0)
(0.99457 -0.00426492 8.16805e-22)
(0.997746 -0.0126139 -2.21544e-21)
(0.998705 -0.0201701 4.80058e-21)
(1.00738 -0.0292578 -7.7962e-21)
(1.0135 -0.032367 4.35734e-21)
(1.02652 -0.0402098 -4.60146e-21)
(1.03687 -0.0328101 4.80371e-21)
(0.988336 -0.0124186 -5.26907e-22)
(0.988856 -0.0142067 9.09116e-21)
(0.989919 -0.0165784 -8.12927e-21)
(0.990905 -0.017869 4.92129e-22)
(0.991949 -0.0206776 0)
(0.993615 -0.0217259 -4.53175e-22)
(0.995163 -0.0249229 0)
(0.998261 -0.0256945 3.34073e-21)
(1.00051 -0.0294533 -7.26626e-22)
(1.00509 -0.029833 -2.30501e-21)
(1.00809 -0.0324999 -1.24153e-22)
(1.01358 -0.0327514 -8.68416e-23)
(1.01687 -0.0332281 0)
(1.02296 -0.0327596 -5.27216e-24)
(1.02673 -0.0308418 4.14827e-23)
(1.03274 -0.0296442 -5.53546e-22)
(1.03669 -0.0255097 6.28172e-22)
(1.04136 -0.0223063 -5.87267e-23)
(1.04459 -0.0165457 3.06726e-22)
(1.04729 -0.011416 -3.61391e-22)
(1.04932 -0.00519778 1.26234e-23)
(1.04943 0.00131423 -1.16761e-22)
(1.04889 0.00759298 1.14893e-22)
(1.04616 0.0130229 -1.31862e-22)
(1.04295 0.0194864 1.13559e-22)
(1.03729 0.0228345 -2.22977e-21)
(1.03218 0.02697 1.98963e-21)
(1.02404 0.0275706 2.70011e-21)
(1.01817 0.0283491 -2.75143e-21)
(1.00909 0.0261997 -1.37746e-22)
(1.00411 0.0228735 0)
(0.996075 0.0172709 5.67942e-22)
(0.993803 0.00999152 -4.39589e-22)
(0.988435 0.00220331 7.23221e-22)
(0.989662 -0.00816585 -5.78284e-22)
(0.98894 -0.0163105 0)
(0.995324 -0.0291215 -4.03605e-21)
(1.00183 -0.0336052 3.95594e-21)
(1.0122 -0.0468495 0)
(1.02669 -0.043394 3.38898e-22)
(0.987945 -0.015269 2.28607e-22)
(0.98916 -0.0169787 -9.36725e-21)
(0.989841 -0.0199158 8.36195e-21)
(0.991421 -0.0211604 -1.70338e-20)
(0.992085 -0.0242796 1.25477e-20)
(0.994729 -0.0253988 -3.43798e-21)
(0.995795 -0.0290435 0)
(0.999435 -0.0298712 -4.08519e-22)
(1.00151 -0.0331886 -2.29163e-21)
(1.00671 -0.0349727 2.36001e-21)
(1.00962 -0.0363191 1.17555e-22)
(1.01582 -0.037911 -1.07908e-21)
(1.01927 -0.0370977 1.28841e-21)
(1.02588 -0.0376171 -2.39147e-22)
(1.03007 -0.0348253 0)
(1.03627 -0.033625 0)
(1.04109 -0.0289763 -5.31271e-23)
(1.04574 -0.0253361 6.19634e-22)
(1.04977 -0.0195376 -1.03082e-21)
(1.05248 -0.0132416 4.2276e-22)
(1.05468 -0.00681683 -5.48548e-22)
(1.05489 9.20939e-05 5.22622e-22)
(1.05488 0.00777387 1.53877e-22)
(1.05173 0.0137719 2.47009e-21)
(1.04872 0.0210182 -2.32698e-21)
(1.04263 0.0253263 -2.17502e-21)
(1.03752 0.0302548 -5.82011e-23)
(1.02848 0.0323115 -1.26839e-21)
(1.02214 0.0333968 3.80484e-21)
(1.01182 0.0323908 3.24403e-22)
(1.00594 0.0294994 -2.80599e-22)
(0.995964 0.0249793 1.96497e-22)
(0.991662 0.0171082 -5.16321e-23)
(0.984319 0.00990099 4.08936e-22)
(0.98298 -0.00210284 -1.50793e-21)
(0.980882 -0.0101369 1.01551e-21)
(0.98313 -0.0261243 0)
(0.989874 -0.0325747 0)