/*--------------------------------*- C++ -*----------------------------------*\
  =========                 |
  \\      /  F ield         | OpenFOAM: The Open Source CFD Toolbox
   \\    /   O peration     | Website:  https://openfoam.org
    \\  /    A nd           | Version:  10
     \\/     M anipulation  |
\*---------------------------------------------------------------------------*/
FoamFile
{
    format      ascii;
    class       volScalarField;
    location    "0.649362";
    object      rho;
}
// * * * * * * * * * * * * * * * * * * * * * * * * * * * * * * * * * * * * * //

dimensions      [1 -3 0 0 0 0 0];

internalField   nonuniform List<scalar> 
16320
(
0.920536
0.880697
0.845571
0.824491
0.821102
0.850979
0.889734
0.891354
0.868811
0.834786
0.823618
0.822371
0.825964
0.821095
0.8129
0.804945
0.798033
0.791826
0.786933
0.783877
0.779371
0.773118
0.764583
0.750771
0.718341
0.661429
0.630821
0.621878
0.620544
0.631668
0.681594
0.747919
0.784594
0.930487
0.889396
0.851535
0.825052
0.81188
0.811096
0.838702
0.867908
0.865239
0.839638
0.823153
0.823121
0.836142
0.839488
0.834142
0.828255
0.82248
0.816411
0.811481
0.808192
0.803227
0.794938
0.78349
0.762891
0.714182
0.659875
0.638039
0.630085
0.629243
0.648311
0.709247
0.768331
0.795713
0.940554
0.903978
0.866797
0.83636
0.818017
0.811142
0.813092
0.842498
0.85911
0.850876
0.831443
0.83039
0.851053
0.874164
0.8708
0.863295
0.85598
0.848513
0.842153
0.836246
0.828398
0.817463
0.800853
0.765962
0.704586
0.663324
0.646738
0.638712
0.643746
0.67722
0.741055
0.788869
0.805437
0.940498
0.911988
0.885433
0.85722
0.833361
0.820508
0.81751
0.823536
0.85403
0.860748
0.847832
0.842315
0.861675
0.912098
0.926753
0.917879
0.900732
0.890023
0.881051
0.870378
0.857443
0.840622
0.812741
0.759439
0.704502
0.672204
0.658021
0.654297
0.669472
0.719295
0.775064
0.807812
0.812357
0.932513
0.913691
0.896033
0.880257
0.862072
0.84265
0.829738
0.829053
0.841104
0.866952
0.865706
0.857252
0.87167
0.930223
0.969045
0.966839
0.950415
0.926222
0.912684
0.899271
0.882664
0.858713
0.817508
0.759894
0.712952
0.688423
0.678424
0.684104
0.715879
0.765644
0.807119
0.821272
0.815307
0.931758
0.920444
0.910619
0.901409
0.894538
0.882917
0.861982
0.844528
0.84521
0.862528
0.878066
0.873723
0.879539
0.933352
0.989389
1.00205
0.991144
0.964429
0.939036
0.921889
0.902068
0.872842
0.824755
0.767921
0.731287
0.716939
0.716002
0.734277
0.770938
0.810146
0.829158
0.825534
0.812383
0.94669
0.947174
0.947304
0.945555
0.940126
0.931227
0.918086
0.887584
0.860366
0.86195
0.878614
0.8857
0.88761
0.918197
0.995626
1.02299
1.01683
0.998215
0.966649
0.94121
0.917839
0.884525
0.83287
0.78659
0.76795
0.761598
0.770919
0.794185
0.822924
0.839039
0.83556
0.822661
0.793983
0.954561
0.953971
0.95652
0.959984
0.963688
0.968306
0.967911
0.957205
0.911528
0.872775
0.874942
0.886911
0.892308
0.90419
0.974582
1.02914
1.03473
1.01996
0.994326
0.965324
0.935797
0.897605
0.853255
0.831228
0.820133
0.820621
0.83131
0.845875
0.852546
0.845694
0.831217
0.802216
0.778283
0.934606
0.935753
0.941229
0.948005
0.956597
0.971185
0.982976
0.99274
0.984374
0.924655
0.883137
0.884116
0.891021
0.900171
0.933973
1.01706
1.03925
1.03316
1.01486
0.990263
0.961923
0.925903
0.900619
0.883989
0.875781
0.8739
0.873799
0.86883
0.856697
0.839248
0.808881
0.785375
0.775688
0.898806
0.908764
0.91859
0.927698
0.937763
0.955113
0.978098
0.995575
1.00872
0.993849
0.91673
0.887887
0.889814
0.89533
0.911802
0.972337
1.02857
1.03362
1.0238
1.0067
0.98452
0.959239
0.939155
0.923106
0.911393
0.899451
0.885546
0.868562
0.8462
0.814245
0.792944
0.781942
0.777008
0.877386
0.890576
0.896439
0.902862
0.912317
0.929445
0.957157
0.984129
1.0043
1.01418
0.969743
0.897235
0.885534
0.889427
0.899425
0.929158
0.990129
1.02151
1.02052
1.00862
0.991296
0.972044
0.953394
0.936
0.918719
0.900443
0.879646
0.85086
0.820672
0.799759
0.784727
0.773956
0.765477
0.876081
0.876591
0.872209
0.869171
0.875316
0.891869
0.925166
0.960647
0.987529
1.0065
0.99813
0.917521
0.879175
0.879869
0.887107
0.90453
0.94278
0.981755
1.00101
0.99848
0.985172
0.968016
0.949972
0.931329
0.91058
0.884671
0.854656
0.830031
0.807285
0.781588
0.757686
0.746059
0.75004
0.866841
0.855406
0.829941
0.810191
0.815607
0.834578
0.878886
0.926717
0.962097
0.986992
0.996118
0.938542
0.873901
0.867132
0.874225
0.888458
0.910275
0.933732
0.953133
0.961147
0.955838
0.945067
0.928775
0.907882
0.883649
0.860334
0.835721
0.806725
0.767766
0.739669
0.732898
0.76276
0.817673
0.848287
0.815561
0.757833
0.726119
0.733064
0.758243
0.816475
0.88479
0.931288
0.962935
0.981049
0.951973
0.869883
0.853546
0.860684
0.874952
0.891961
0.906447
0.915871
0.922995
0.923637
0.913729
0.897443
0.880235
0.860956
0.834535
0.793413
0.751885
0.733458
0.736277
0.781367
0.819068
0.819581
0.813951
0.754321
0.681588
0.652517
0.655489
0.681164
0.749634
0.838224
0.897756
0.937403
0.961617
0.949216
0.866176
0.840048
0.846595
0.861926
0.879299
0.890792
0.899307
0.90297
0.897464
0.886157
0.871989
0.85233
0.818405
0.774789
0.745791
0.735188
0.749398
0.796504
0.815863
0.807585
0.781317
0.774242
0.701349
0.644899
0.621108
0.619285
0.639617
0.695761
0.795409
0.867736
0.913619
0.942606
0.942263
0.862764
0.825778
0.83325
0.849215
0.868442
0.880249
0.885074
0.879439
0.870581
0.858396
0.834909
0.798639
0.764732
0.746221
0.742819
0.769067
0.809407
0.813082
0.801175
0.771932
0.723267
0.750312
0.672419
0.626284
0.608605
0.604558
0.623708
0.672184
0.760654
0.845335
0.894927
0.925426
0.927211
0.855389
0.814162
0.821396
0.837572
0.85828
0.86584
0.863535
0.857695
0.845454
0.818274
0.787385
0.76365
0.751836
0.754666
0.789585
0.817575
0.814047
0.794513
0.749102
0.689408
0.638284
0.737478
0.655918
0.622772
0.606312
0.60652
0.630922
0.677226
0.751268
0.832949
0.88047
0.911576
0.911506
0.843045
0.803804
0.80984
0.825062
0.839719
0.844817
0.844358
0.833194
0.808183
0.782508
0.76716
0.761119
0.771067
0.809823
0.824105
0.815685
0.788311
0.73114
0.665244
0.620846
0.596734
0.733469
0.656214
0.624887
0.613855
0.627188
0.66652
0.714317
0.767466
0.829226
0.870714
0.900614
0.892237
0.826579
0.795367
0.798451
0.810297
0.823985
0.831383
0.822724
0.801805
0.784287
0.774634
0.773251
0.792859
0.825565
0.829754
0.815714
0.775781
0.699536
0.630471
0.589888
0.570653
0.568617
0.737069
0.662147
0.63548
0.627188
0.648672
0.704126
0.749228
0.780848
0.821758
0.855617
0.883381
0.858383
0.799263
0.785646
0.792728
0.805765
0.816905
0.811558
0.796724
0.78815
0.786291
0.791417
0.819138
0.838805
0.834624
0.813675
0.754319
0.658299
0.596624
0.564966
0.553201
0.555446
0.566516
0.757358
0.683598
0.650048
0.641949
0.667519
0.730668
0.769993
0.790716
0.812584
0.8355
0.846933
0.818812
0.784257
0.782287
0.789923
0.798033
0.795196
0.789798
0.791169
0.798078
0.815506
0.84707
0.853595
0.843107
0.808173
0.724649
0.630567
0.581096
0.558106
0.54935
0.550471
0.558907
0.573055
0.777978
0.720059
0.667649
0.656176
0.663392
0.717253
0.770758
0.793137
0.810333
0.825952
0.823525
0.795987
0.770604
0.770095
0.773515
0.776537
0.783375
0.792386
0.805361
0.837661
0.867925
0.870984
0.85462
0.80107
0.701898
0.626994
0.587969
0.567717
0.557827
0.559159
0.572332
0.593819
0.613727
0.794927
0.765968
0.70181
0.677802
0.673846
0.687227
0.729155
0.762434
0.77801
0.786399
0.765675
0.745116
0.74463
0.751983
0.76329
0.775631
0.789303
0.812678
0.852486
0.877993
0.883018
0.864485
0.792546
0.705425
0.647606
0.612911
0.59197
0.585663
0.600154
0.626282
0.647547
0.658838
0.666751
0.806956
0.798224
0.769253
0.712408
0.699096
0.695255
0.701929
0.714348
0.723798
0.729323
0.728165
0.731919
0.741906
0.754093
0.768407
0.790634
0.827333
0.860024
0.876462
0.881408
0.859493
0.793465
0.731211
0.688408
0.655339
0.637739
0.648841
0.665812
0.678321
0.68268
0.6837
0.68271
0.683817
0.814097
0.818112
0.812524
0.789259
0.748939
0.724468
0.725114
0.722529
0.72744
0.732454
0.73705
0.744206
0.757223
0.777282
0.809594
0.837616
0.856686
0.867231
0.867128
0.8399
0.795057
0.762831
0.735614
0.713572
0.715468
0.719724
0.717343
0.709664
0.700634
0.692669
0.690232
0.691118
0.693748
0.814334
0.827406
0.83662
0.836576
0.823034
0.803501
0.782028
0.776244
0.770866
0.770638
0.781193
0.793526
0.810505
0.82778
0.840333
0.848207
0.853971
0.846194
0.816904
0.799166
0.787883
0.774839
0.778497
0.788579
0.777977
0.755745
0.732241
0.71266
0.700461
0.694398
0.690284
0.686558
0.684435
0.822335
0.82492
0.837883
0.852839
0.857112
0.846851
0.842614
0.837439
0.833578
0.830753
0.830395
0.83216
0.834894
0.837741
0.840833
0.832936
0.818715
0.806109
0.800985
0.800229
0.803346
0.826857
0.836187
0.822157
0.791224
0.755979
0.725927
0.705105
0.691879
0.682362
0.676093
0.669489
0.66439
0.849719
0.834075
0.834421
0.843205
0.858462
0.863157
0.861571
0.855689
0.851129
0.847011
0.841736
0.838253
0.83174
0.82339
0.812067
0.802466
0.801365
0.803361
0.806917
0.821568
0.850364
0.859921
0.851763
0.825374
0.786666
0.746066
0.712775
0.689835
0.673294
0.659636
0.648253
0.643986
0.659542
0.897132
0.870575
0.84687
0.841378
0.845559
0.84796
0.850971
0.849357
0.842831
0.8351
0.830258
0.821029
0.813591
0.806405
0.801767
0.801511
0.805659
0.811798
0.828626
0.854044
0.869845
0.867303
0.854498
0.820798
0.77821
0.730748
0.692634
0.663964
0.639588
0.625418
0.624792
0.639036
0.669841
0.916418
0.9239
0.897764
0.860794
0.850144
0.848963
0.848096
0.845624
0.840963
0.834203
0.828204
0.821664
0.81454
0.808755
0.807397
0.810022
0.81579
0.831218
0.857751
0.872983
0.875645
0.871009
0.849492
0.815065
0.760496
0.70577
0.656336
0.624526
0.60656
0.605091
0.611762
0.63108
0.65188
0.921549
0.938203
0.941391
0.923666
0.876123
0.858888
0.854358
0.851373
0.847796
0.843081
0.836804
0.829497
0.820861
0.814428
0.815267
0.820041
0.832047
0.858158
0.874945
0.883963
0.880073
0.870558
0.846155
0.797737
0.731627
0.665591
0.622248
0.598416
0.588032
0.587205
0.594417
0.602638
0.607819
0.903452
0.93337
0.948568
0.952888
0.940255
0.90068
0.868148
0.860184
0.856594
0.853212
0.847965
0.839117
0.8258
0.82012
0.821951
0.830412
0.857365
0.881206
0.893404
0.891312
0.883443
0.868946
0.829721
0.769161
0.69902
0.641823
0.604131
0.581793
0.575073
0.577356
0.582971
0.583671
0.585269
0.87149
0.90228
0.924484
0.944979
0.956406
0.956919
0.925734
0.880694
0.86785
0.862392
0.857462
0.845288
0.829289
0.825234
0.829128
0.846895
0.881516
0.897647
0.90283
0.896326
0.88219
0.851865
0.810021
0.749609
0.686912
0.63056
0.594781
0.581127
0.585826
0.597283
0.606416
0.611825
0.609457
0.86268
0.871293
0.87799
0.889468
0.923834
0.960218
0.968555
0.952873
0.903584
0.875401
0.864598
0.851556
0.833385
0.830773
0.838327
0.867822
0.897893
0.910535
0.908888
0.894895
0.867861
0.839537
0.801585
0.752705
0.691305
0.640992
0.632743
0.673232
0.708531
0.733537
0.743961
0.746296
0.744218
0.860262
0.860666
0.852205
0.841684
0.848156
0.900035
0.964945
0.977537
0.966075
0.922626
0.878712
0.856072
0.838196
0.83713
0.849123
0.888208
0.910862
0.91774
0.905958
0.884057
0.856847
0.840064
0.816246
0.779646
0.744329
0.756146
0.787369
0.801691
0.808308
0.811026
0.810394
0.811451
0.813536
0.86297
0.853766
0.842265
0.815433
0.812727
0.834336
0.914506
0.976076
0.985138
0.971968
0.924611
0.868975
0.845622
0.845535
0.861847
0.901052
0.919423
0.919938
0.897388
0.876366
0.861573
0.855522
0.854155
0.880601
0.902927
0.879686
0.846491
0.820626
0.808091
0.797633
0.795189
0.794937
0.799813
0.870699
0.841738
0.827995
0.803185
0.799193
0.813679
0.874151
0.958815
0.980683
0.976705
0.940641
0.877617
0.854607
0.855931
0.875483
0.909026
0.923035
0.915832
0.891723
0.875637
0.87247
0.884656
0.94654
1.0069
0.993302
0.906464
0.83335
0.790701
0.765659
0.752854
0.741641
0.732851
0.733881
0.900181
0.832619
0.811713
0.795284
0.793739
0.807965
0.861819
0.939334
0.963795
0.964194
0.932222
0.875042
0.860162
0.863749
0.885318
0.914867
0.925433
0.912497
0.888102
0.880025
0.88999
0.931588
0.993513
1.0398
1.02079
0.909692
0.800686
0.730256
0.685521
0.6506
0.634128
0.628612
0.631268
0.918122
0.829878
0.803148
0.793322
0.79191
0.802494
0.841387
0.894452
0.914401
0.917527
0.898689
0.86543
0.86189
0.871002
0.902797
0.920969
0.92477
0.905188
0.8854
0.888765
0.900056
0.939894
0.986211
1.02177
0.994587
0.865161
0.734394
0.653011
0.609473
0.589153
0.58209
0.586135
0.598891
0.928746
0.830868
0.802205
0.794595
0.79401
0.801855
0.825131
0.850636
0.861292
0.864873
0.863692
0.861108
0.865937
0.888162
0.914775
0.923784
0.92066
0.897733
0.884812
0.885803
0.891701
0.918471
0.941961
0.948197
0.902413
0.814872
0.720096
0.643593
0.596198
0.575532
0.572784
0.579447
0.593208
0.931515
0.831401
0.804069
0.799203
0.79927
0.806604
0.825261
0.838747
0.843486
0.849942
0.858162
0.864104
0.885879
0.913667
0.922911
0.924986
0.914564
0.890168
0.876647
0.872632
0.871983
0.883944
0.888043
0.875064
0.846222
0.79552
0.733159
0.668924
0.620083
0.594211
0.58948
0.601115
0.621438
0.939474
0.838622
0.809268
0.80537
0.806365
0.816406
0.833232
0.841442
0.844327
0.85252
0.867336
0.890675
0.917728
0.925922
0.926696
0.922396
0.904459
0.878287
0.863653
0.854028
0.848777
0.85104
0.846867
0.832916
0.813152
0.784758
0.747969
0.704757
0.666642
0.648076
0.650597
0.649934
0.647019
0.943362
0.843894
0.812908
0.809427
0.812747
0.829823
0.853142
0.864973
0.869562
0.884694
0.913247
0.933248
0.938546
0.937002
0.932889
0.918866
0.889749
0.86312
0.844713
0.831373
0.824119
0.819297
0.815005
0.802809
0.794497
0.786188
0.778997
0.77278
0.759372
0.729774
0.695489
0.668387
0.650581
0.953343
0.852701
0.811558
0.806677
0.811308
0.834449
0.868168
0.896583
0.917786
0.941725
0.956118
0.95622
0.950382
0.941384
0.92545
0.900805
0.871756
0.846298
0.821799
0.806351
0.797986
0.792614
0.792904
0.793307
0.814014
0.843377
0.86683
0.852342
0.808446
0.753839
0.704337
0.660738
0.625991
0.961188
0.866748
0.810188
0.80182
0.804382
0.82807
0.868161
0.910511
0.948672
0.985069
0.993807
0.985963
0.973846
0.956967
0.930285
0.893192
0.85958
0.833223
0.809907
0.798203
0.793802
0.799079
0.831317
0.873372
0.906879
0.905056
0.879152
0.830483
0.77499
0.725171
0.685023
0.654062
0.62765
0.967834
0.882985
0.807246
0.792875
0.791182
0.808462
0.845234
0.888563
0.929677
0.967233
0.995703
1.00307
0.996803
0.983637
0.965909
0.941757
0.913752
0.893877
0.883728
0.885331
0.895121
0.908067
0.908977
0.899809
0.872323
0.832527
0.797327
0.768928
0.742685
0.718835
0.69568
0.669893
0.645008
0.974704
0.907919
0.808282
0.781086
0.774278
0.781567
0.809218
0.847411
0.88473
0.917123
0.944645
0.956912
0.958381
0.955792
0.947156
0.935245
0.922581
0.911572
0.901497
0.890917
0.875836
0.854802
0.832821
0.797447
0.773864
0.762624
0.755182
0.74514
0.734565
0.720512
0.7056
0.686854
0.665381
0.976257
0.931764
0.824613
0.771004
0.7573
0.752207
0.762598
0.785929
0.811861
0.831614
0.850223
0.866725
0.878215
0.885974
0.879937
0.869157
0.856257
0.843168
0.824999
0.801638
0.77468
0.749351
0.73119
0.725199
0.724021
0.721313
0.727651
0.724155
0.722802
0.717709
0.7098
0.698825
0.68248
0.973601
0.948726
0.860108
0.768499
0.741928
0.729458
0.725097
0.733769
0.749171
0.761915
0.771046
0.778069
0.781929
0.785851
0.779797
0.768105
0.755135
0.739449
0.720492
0.703282
0.690736
0.679986
0.674413
0.672241
0.671756
0.677051
0.678861
0.689897
0.696431
0.705248
0.704909
0.700325
0.689268
0.967016
0.956421
0.900665
0.789148
0.734021
0.71103
0.695055
0.684421
0.681411
0.67795
0.673366
0.669085
0.665202
0.662429
0.656923
0.648761
0.642652
0.634659
0.625693
0.616002
0.607498
0.599919
0.595448
0.592262
0.594672
0.59894
0.61323
0.627921
0.65043
0.669728
0.685478
0.690914
0.687897
0.952666
0.95295
0.924813
0.833931
0.741555
0.704158
0.679334
0.656894
0.640227
0.624955
0.605965
0.588332
0.574746
0.563987
0.555612
0.547531
0.539751
0.532282
0.524442
0.517379
0.511147
0.505811
0.503222
0.502895
0.505355
0.513498
0.525427
0.5472
0.572372
0.606748
0.639593
0.665199
0.674817
0.931099
0.943658
0.932754
0.876388
0.768444
0.713756
0.680483
0.644892
0.623072
0.604136
0.581414
0.55598
0.535168
0.516311
0.501268
0.490811
0.48231
0.47472
0.468316
0.462358
0.45727
0.452774
0.449314
0.446944
0.446403
0.448673
0.454192
0.465314
0.485759
0.517353
0.560893
0.606913
0.644607
0.910641
0.92279
0.929852
0.903835
0.813031
0.731255
0.695314
0.648969
0.61483
0.594018
0.572101
0.546276
0.523594
0.503007
0.484158
0.46998
0.460107
0.451287
0.444297
0.438326
0.433344
0.429732
0.427061
0.425079
0.424257
0.425271
0.427675
0.432261
0.43979
0.452058
0.473685
0.51704
0.577337
0.892948
0.890849
0.915359
0.91187
0.863828
0.762573
0.71392
0.675659
0.619608
0.589943
0.569547
0.545186
0.519909
0.499027
0.479964
0.464109
0.453467
0.444144
0.43664
0.4305
0.425661
0.4218
0.418624
0.416231
0.415095
0.415595
0.417587
0.420821
0.425192
0.431177
0.440156
0.45501
0.48501
0.878083
0.867364
0.878444
0.902733
0.887256
0.807307
0.734863
0.703072
0.653309
0.597922
0.572981
0.555459
0.528877
0.506728
0.488596
0.467748
0.453088
0.442541
0.434458
0.427994
0.423368
0.419838
0.417153
0.415424
0.414626
0.414271
0.414974
0.41648
0.419812
0.424035
0.429889
0.437095
0.447881
0.871497
0.851595
0.845448
0.875033
0.887424
0.853417
0.761279
0.725392
0.692402
0.635375
0.583865
0.562127
0.545312
0.523155
0.50201
0.486113
0.467471
0.451685
0.440269
0.432821
0.42935
0.427361
0.426162
0.426277
0.425589
0.425778
0.426507
0.427503
0.428336
0.428162
0.428695
0.43174
0.437734
0.876291
0.840751
0.825312
0.826837
0.868822
0.869631
0.807788
0.738787
0.717909
0.681667
0.620132
0.572827
0.553593
0.540182
0.521805
0.504029
0.48828
0.472673
0.457064
0.444675
0.437034
0.433735
0.433229
0.434476
0.438074
0.441948
0.446924
0.451152
0.453274
0.452433
0.449046
0.442664
0.43874
0.872805
0.84505
0.813129
0.800358
0.816909
0.860177
0.84957
0.763055
0.72748
0.71126
0.672222
0.607603
0.56739
0.549205
0.538077
0.52723
0.514951
0.501108
0.484146
0.470528
0.459393
0.451687
0.447469
0.446423
0.448024
0.453142
0.462889
0.476202
0.488748
0.49356
0.491144
0.480412
0.464585
0.856658
0.848448
0.813948
0.786977
0.777763
0.812228
0.847498
0.818051
0.73718
0.718203
0.708456
0.664404
0.60393
0.56631
0.54806
0.538168
0.531005
0.522838
0.512965
0.502105
0.49117
0.482307
0.477354
0.476664
0.480692
0.497466
0.526958
0.553107
0.567008
0.567686
0.560266
0.544581
0.520855
0.831929
0.834512
0.819168
0.783267
0.763488
0.758496
0.811339
0.836558
0.780944
0.720084
0.715564
0.70499
0.660534
0.60798
0.573752
0.554885
0.542625
0.535112
0.526547
0.518818
0.513707
0.511372
0.515148
0.536434
0.575182
0.611168
0.633072
0.640123
0.639906
0.636014
0.628702
0.618029
0.599561
0.802118
0.811423
0.808407
0.788073
0.75945
0.741199
0.739913
0.816302
0.811206
0.740873
0.713932
0.713089
0.699557
0.660611
0.61899
0.589588
0.571646
0.560185
0.55288
0.550461
0.552565
0.56551
0.595312
0.631931
0.656769
0.663416
0.65975
0.656274
0.654876
0.652381
0.648336
0.643921
0.639334
0.767608
0.782197
0.787153
0.776434
0.75723
0.734885
0.7187
0.74678
0.801646
0.775469
0.719118
0.710497
0.708479
0.694876
0.666926
0.636009
0.614492
0.600758
0.597086
0.599231
0.612458
0.636223
0.656236
0.662742
0.658641
0.650071
0.648487
0.659339
0.67261
0.673544
0.663443
0.651502
0.649016
0.731102
0.746081
0.759801
0.756442
0.745189
0.73051
0.714843
0.706199
0.751264
0.771253
0.745831
0.711124
0.705001
0.703825
0.694719
0.676531
0.657679
0.646074
0.643939
0.648132
0.658877
0.664533
0.660503
0.649308
0.64326
0.653089
0.713176
0.78102
0.810912
0.803008
0.74802
0.68085
0.656556
0.69688
0.711969
0.723714
0.731057
0.725838
0.720086
0.709212
0.6929
0.697077
0.745462
0.746059
0.723847
0.703701
0.700079
0.701022
0.696689
0.686833
0.678534
0.675029
0.674051
0.671846
0.663883
0.65177
0.649483
0.693282
0.833158
0.923995
0.953572
0.955801
0.944941
0.904342
0.799725
0.696866
0.664902
0.677505
0.689532
0.697006
0.698559
0.701201
0.6958
0.687384
0.680242
0.689593
0.729919
0.725766
0.708595
0.698714
0.697473
0.698883
0.695939
0.690657
0.685762
0.679673
0.669645
0.657602
0.653832
0.705745
0.869057
0.95832
0.980732
0.98133
0.978115
0.973371
0.960903
0.921058
0.812033
0.638166
0.647219
0.65714
0.665643
0.666044
0.672427
0.677819
0.676645
0.669257
0.666079
0.685239
0.71444
0.709512
0.69864
0.692968
0.694583
0.695252
0.691348
0.685819
0.677734
0.665539
0.658101
0.695972
0.843541
0.928324
0.950072
0.947198
0.94925
0.960063
0.96858
0.969037
0.954598
0.911633
0.615927
0.620846
0.627318
0.635188
0.640346
0.645258
0.651154
0.657755
0.655836
0.65238
0.654092
0.681167
0.700384
0.69643
0.690249
0.686132
0.687667
0.687352
0.682126
0.674339
0.666681
0.68184
0.78218
0.878893
0.9072
0.885639
0.841368
0.837385
0.872363
0.921261
0.947428
0.956569
0.941166
0.598347
0.598978
0.605556
0.614267
0.620514
0.625287
0.629397
0.635206
0.63873
0.638084
0.637316
0.644612
0.677675
0.687917
0.684678
0.680116
0.676442
0.675905
0.674115
0.669825
0.672784
0.708384
0.80313
0.860031
0.844037
0.765295
0.710798
0.708774
0.75121
0.845268
0.906523
0.931875
0.939425
0.584943
0.584927
0.592085
0.599696
0.605075
0.608985
0.612107
0.615888
0.619467
0.622007
0.62195
0.623763
0.636541
0.668287
0.67414
0.671896
0.667647
0.663532
0.661062
0.66005
0.666153
0.703247
0.789176
0.810527
0.784165
0.710143
0.66752
0.667198
0.690431
0.774109
0.861057
0.90509
0.918932
0.576376
0.57698
0.58351
0.589296
0.593343
0.596153
0.597671
0.599758
0.602151
0.604883
0.605751
0.606515
0.610749
0.630906
0.655564
0.659626
0.656986
0.652839
0.64866
0.64708
0.653022
0.68927
0.757296
0.762162
0.747508
0.698203
0.656952
0.654468
0.672041
0.734556
0.830539
0.885792
0.902605
0.572661
0.572495
0.578821
0.582842
0.585627
0.587353
0.586861
0.586636
0.587075
0.588394
0.589481
0.590363
0.592201
0.599551
0.62557
0.642027
0.644703
0.641878
0.637701
0.635026
0.636392
0.663678
0.706202
0.711024
0.704908
0.680726
0.651674
0.650557
0.667476
0.718042
0.8119
0.873192
0.89173
0.571601
0.573399
0.57704
0.57846
0.578961
0.579307
0.579086
0.577323
0.574595
0.574142
0.574598
0.575072
0.576304
0.579594
0.590332
0.618317
0.629469
0.631172
0.629438
0.626884
0.626653
0.636437
0.662854
0.667474
0.666702
0.658798
0.646042
0.65095
0.670144
0.7202
0.814406
0.869547
0.886417
0.572588
0.576755
0.57587
0.5739
0.57188
0.570183
0.569676
0.568745
0.566711
0.56421
0.562518
0.561999
0.562821
0.565052
0.570495
0.584976
0.611642
0.620871
0.623087
0.623318
0.623645
0.627434
0.639619
0.643435
0.646169
0.644883
0.64405
0.65607
0.678999
0.746284
0.8322
0.875379
0.886484
0.5786
0.579297
0.574992
0.56947
0.564412
0.561718
0.560497
0.559268
0.558242
0.556931
0.554676
0.552523
0.552522
0.554741
0.558673
0.56651
0.58739
0.610463
0.619797
0.623386
0.625321
0.629613
0.635834
0.639898
0.642855
0.644334
0.650998
0.665762
0.702012
0.792998
0.854475
0.880469
0.876572
0.584931
0.581119
0.569941
0.559199
0.551837
0.549479
0.55009
0.550428
0.550092
0.549821
0.549032
0.546475
0.546484
0.54827
0.552487
0.558864
0.570498
0.595379
0.61558
0.625726
0.631059
0.637447
0.642364
0.646395
0.650136
0.654512
0.66248
0.684834
0.761094
0.828765
0.860417
0.870916
0.821787
0.590636
0.576148
0.556742
0.541248
0.534199
0.535002
0.538727
0.54121
0.542212
0.543563
0.543832
0.543007
0.543973
0.546148
0.550271
0.556461
0.565703
0.582106
0.611458
0.629797
0.641402
0.648959
0.654659
0.659599
0.6634
0.668707
0.685683
0.749756
0.812009
0.833609
0.844936
0.808337
0.7524
0.588025
0.563942
0.533967
0.517854
0.51378
0.519227
0.527018
0.533017
0.536
0.538647
0.540806
0.541546
0.54394
0.547261
0.551177
0.558247
0.567192
0.57967
0.603479
0.631187
0.647884
0.661038
0.671005
0.675946
0.681555
0.696903
0.759143
0.81146
0.82108
0.816773
0.775997
0.725339
0.712866
0.578615
0.540133
0.506838
0.492973
0.49207
0.499049
0.509739
0.522395
0.530832
0.534649
0.538209
0.541005
0.545299
0.550589
0.554916
0.561239
0.571068
0.583419
0.600877
0.627579
0.654799
0.676161
0.686894
0.695742
0.718053
0.786444
0.82382
0.821755
0.804473
0.742627
0.689759
0.679116
0.690824
0.559247
0.511141
0.485817
0.474761
0.469425
0.469342
0.477836
0.498024
0.519114
0.528111
0.533983
0.539987
0.546577
0.552747
0.557789
0.564986
0.575174
0.584833
0.602858
0.638539
0.671745
0.692339
0.708832
0.753933
0.821823
0.841066
0.826385
0.792626
0.71353
0.663659
0.649041
0.654963
0.666842
0.532341
0.49719
0.482238
0.473134
0.465007
0.457693
0.455049
0.461386
0.480738
0.506453
0.520902
0.5313
0.540659
0.547061
0.55048
0.558175
0.571338
0.590833
0.618494
0.66033
0.695974
0.735331
0.809528
0.85956
0.854619
0.826563
0.767011
0.680661
0.640015
0.628045
0.626904
0.631552
0.64207
0.517431
0.498156
0.487078
0.478617
0.4693
0.459935
0.454366
0.455074
0.462474
0.475154
0.489803
0.501902
0.515224
0.527784
0.544615
0.563167
0.584498
0.612696
0.658543
0.720378
0.798037
0.865757
0.874907
0.85222
0.801726
0.709255
0.642621
0.617342
0.605946
0.597882
0.593528
0.593052
0.597827
0.518895
0.50499
0.499575
0.497289
0.488709
0.477048
0.468828
0.467158
0.471604
0.478689
0.490106
0.503806
0.520337
0.539912
0.565152
0.598656
0.648826
0.727421
0.807751
0.859861
0.87828
0.854315
0.801077
0.707612
0.635725
0.602873
0.583969
0.566648
0.551499
0.540406
0.532003
0.527848
0.529519
0.526043
0.520359
0.533732
0.546884
0.540673
0.52456
0.510181
0.502208
0.503194
0.511147
0.52681
0.550925
0.587141
0.63926
0.701605
0.764275
0.819978
0.851986
0.867441
0.835555
0.734871
0.657639
0.596601
0.568709
0.549072
0.521749
0.491843
0.467717
0.4504
0.441478
0.438117
0.439687
0.443458
0.537048
0.549705
0.586636
0.621948
0.637349
0.634408
0.626484
0.624433
0.630879
0.648276
0.677666
0.712873
0.750645
0.779035
0.802285
0.820302
0.82403
0.787049
0.705514
0.591597
0.538196
0.51714
0.494356
0.468468
0.444045
0.424693
0.409103
0.395561
0.382203
0.369713
0.361446
0.360217
0.359854
0.551805
0.581371
0.631604
0.669
0.68464
0.687345
0.689709
0.699161
0.712954
0.724803
0.735205
0.747107
0.758163
0.757086
0.734517
0.689248
0.631593
0.573057
0.528854
0.480522
0.448538
0.430032
0.423301
0.421782
0.416582
0.408387
0.398808
0.387492
0.372979
0.356268
0.343419
0.333842
0.333191
0.567153
0.607971
0.66007
0.688847
0.696329
0.695018
0.693645
0.693138
0.691607
0.688043
0.67345
0.646397
0.615685
0.588385
0.566972
0.548445
0.520865
0.479288
0.438826
0.421426
0.414158
0.414848
0.419767
0.428652
0.43113
0.427472
0.419191
0.405217
0.38264
0.360677
0.340177
0.330014
0.323062
0.576698
0.621735
0.672446
0.675407
0.667328
0.646716
0.633967
0.616509
0.588033
0.560462
0.548605
0.543268
0.539162
0.530744
0.512972
0.481439
0.450739
0.428856
0.421386
0.420732
0.425646
0.44227
0.455612
0.458002
0.4549
0.450259
0.444568
0.435529
0.416155
0.386314
0.359009
0.336817
0.325887
0.580133
0.619572
0.630812
0.616825
0.593866
0.573507
0.551003
0.532419
0.525786
0.523851
0.524116
0.522507
0.515827
0.501225
0.478438
0.454524
0.446209
0.44884
0.456776
0.468605
0.47561
0.471384
0.467167
0.462271
0.45713
0.452201
0.448534
0.445038
0.440734
0.432117
0.41238
0.382349
0.360514
0.572108
0.59674
0.594944
0.576067
0.553629
0.533522
0.519586
0.515128
0.514517
0.51569
0.518759
0.518866
0.512517
0.500517
0.49794
0.507796
0.525221
0.534972
0.532549
0.518887
0.498947
0.478496
0.468971
0.461633
0.455977
0.450994
0.447025
0.445095
0.446267
0.451074
0.454843
0.455715
0.456547
0.562503
0.574936
0.572191
0.554101
0.534435
0.518588
0.509857
0.510652
0.516026
0.522935
0.5289
0.538536
0.552449
0.569856
0.589576
0.601796
0.605361
0.594787
0.57052
0.539845
0.509522
0.486545
0.474249
0.465283
0.458004
0.45115
0.445203
0.440795
0.441474
0.450398
0.461302
0.478447
0.501995
0.555999
0.556442
0.55682
0.541415
0.524351
0.5115
0.506034
0.512164
0.525797
0.545917
0.566826
0.587511
0.606421
0.619259
0.62707
0.630618
0.624332
0.605365
0.576347
0.542106
0.515495
0.501842
0.489003
0.478427
0.46956
0.458391
0.447433
0.437551
0.430419
0.427164
0.43572
0.462701
0.494442
0.552032
0.541503
0.54444
0.53316
0.518594
0.507884
0.505637
0.516516
0.539511
0.57184
0.596808
0.609657
0.618389
0.625031
0.629846
0.629222
0.619992
0.599312
0.568395
0.53425
0.514928
0.508475
0.50755
0.502046
0.494518
0.480589
0.464113
0.445055
0.430251
0.418383
0.409568
0.405804
0.412977
0.550551
0.532969
0.530145
0.526231
0.514606
0.505122
0.504206
0.516335
0.543206
0.580399
0.601094
0.609963
0.615516
0.619827
0.621081
0.616993
0.604053
0.578004
0.546336
0.526584
0.520743
0.52401
0.530076
0.534071
0.531059
0.516893
0.498144
0.473005
0.448641
0.424207
0.406136
0.393974
0.387599
0.555518
0.529546
0.517844
0.518159
0.511509
0.502421
0.500491
0.510659
0.535357
0.571201
0.591286
0.597409
0.599828
0.600356
0.598086
0.592607
0.578132
0.558216
0.537505
0.531782
0.539977
0.557289
0.567251
0.569841
0.568105
0.553897
0.534652
0.509765
0.480595
0.448002
0.414693
0.393139
0.382543
0.575472
0.529827
0.512203
0.507066
0.507227
0.500255
0.495484
0.500637
0.517977
0.547366
0.565724
0.569192
0.569378
0.568359
0.568943
0.569947
0.565823
0.553653
0.546163
0.55326
0.582084
0.603354
0.609071
0.605814
0.59895
0.582222
0.560307
0.534221
0.498509
0.459419
0.413439
0.390055
0.38092
0.601637
0.540306
0.511316
0.499379
0.499677
0.499047
0.493256
0.492231
0.501578
0.521197
0.534856
0.536699
0.536752
0.538806
0.549022
0.559928
0.563278
0.561779
0.564795
0.587923
0.614618
0.627534
0.624986
0.622529
0.613619
0.598252
0.574331
0.545895
0.505597
0.460811
0.407944
0.383754
0.378013
0.620841
0.569727
0.515429
0.496871
0.49033
0.493824
0.493724
0.489764
0.491239
0.501397
0.514
0.517794
0.519059
0.522784
0.536193
0.555817
0.566141
0.57331
0.581711
0.603405
0.633119
0.634113
0.634415
0.630403
0.620997
0.60589
0.580638
0.550959
0.512699
0.462888
0.408102
0.383342
0.378196
0.790835
0.783962
0.776454
0.777689
0.804405
0.849851
0.874438
0.872442
0.797102
0.78618
0.773647
0.772166
0.790824
0.840076
0.870011
0.877051
0.80203
0.785107
0.770647
0.768327
0.783338
0.836094
0.872424
0.883483
0.803802
0.780211
0.767876
0.765747
0.780942
0.832912
0.875816
0.893378
0.79789
0.773365
0.766116
0.767644
0.796103
0.845614
0.88514
0.90354
0.783239
0.768874
0.766146
0.781696
0.827296
0.866699
0.897322
0.915449
0.77307
0.767408
0.773772
0.810139
0.847655
0.877114
0.900377
0.916435
0.770264
0.771343
0.795634
0.828826
0.858397
0.882688
0.901003
0.91415
0.773647
0.785898
0.809198
0.838077
0.866065
0.886832
0.899062
0.906197
0.776489
0.784448
0.811728
0.846693
0.87484
0.886855
0.883428
0.876931
0.764033
0.787846
0.841598
0.865385
0.862132
0.848089
0.81837
0.7948
0.804277
0.84554
0.845997
0.827345
0.781145
0.747265
0.728484
0.717199
0.833977
0.822188
0.781372
0.74136
0.718793
0.704768
0.694514