/*--------------------------------*- C++ -*----------------------------------*\
  =========                 |
  \\      /  F ield         | OpenFOAM: The Open Source CFD Toolbox
   \\    /   O peration     | Website:  https://openfoam.org
    \\  /    A nd           | Version:  10
     \\/     M anipulation  |
\*---------------------------------------------------------------------------*/
FoamFile
{
    format      ascii;
    class       volVectorField;
    location    "0.649362";
    object      U;
}
// * * * * * * * * * * * * * * * * * * * * * * * * * * * * * * * * * * * * * //

dimensions      [0 1 -1 0 0 0 0];

internalField   nonuniform List<vector> 
16320
(
(0.282857 -0.293525 0)
(0.285915 -0.312697 0)
(0.285116 -0.330873 0)
(0.280828 -0.344537 0)
(0.273322 -0.350023 0)
(0.267909 -0.347824 0)
(0.266826 -0.339512 0)
(0.267225 -0.323857 0)
(0.267456 -0.301908 0)
(0.268487 -0.269367 0)
(0.274088 -0.231209 0)
(0.283509 -0.188072 0)
(0.294573 -0.142792 0)
(0.305368 -0.0947404 0)
(0.315856 -0.0445862 0)
(0.326045 0.00739961 0)
(0.333461 0.0600493 0)
(0.337844 0.112149 0)
(0.338571 0.162785 0)
(0.335702 0.210496 0)
(0.329362 0.253758 0)
(0.320097 0.291742 0)
(0.309821 0.322686 0)
(0.301439 0.344298 0)
(0.295049 0.353473 0)
(0.290929 0.348418 0)
(0.291954 0.333644 0)
(0.296917 0.307052 0)
(0.304598 0.269758 0)
(0.312976 0.225039 0)
(0.322092 0.178286 0)
(0.330722 0.131174 0)
(0.33678 0.0840718 0)
(0.306256 -0.287066 0)
(0.312192 -0.303651 0)
(0.313209 -0.319067 0)
(0.309041 -0.33108 0)
(0.300209 -0.337312 0)
(0.287769 -0.335265 0)
(0.276923 -0.328279 0)
(0.26981 -0.316836 0)
(0.262789 -0.298972 0)
(0.255324 -0.272086 0)
(0.250486 -0.237443 0)
(0.250274 -0.19683 0)
(0.253217 -0.153147 0)
(0.257374 -0.106301 0)
(0.261469 -0.0573908 0)
(0.266929 -0.00640102 0)
(0.272923 0.0460411 0)
(0.277867 0.0986434 0)
(0.280756 0.150683 0)
(0.281311 0.200435 0)
(0.279326 0.245906 0)
(0.274903 0.285762 0)
(0.269857 0.318035 0)
(0.267208 0.339641 0)
(0.266162 0.346578 0)
(0.267466 0.342094 0)
(0.273938 0.32728 0)
(0.283481 0.300461 0)
(0.295248 0.264515 0)
(0.307716 0.221882 0)
(0.320203 0.179021 0)
(0.331612 0.134656 0)
(0.341355 0.0899905 0)
(0.33459 -0.283271 0)
(0.34443 -0.294978 0)
(0.348316 -0.305018 0)
(0.345356 -0.312274 0)
(0.3361 -0.315608 0)
(0.321222 -0.314381 0)
(0.301782 -0.30721 0)
(0.283569 -0.297014 0)
(0.268521 -0.282691 0)
(0.252883 -0.261745 0)
(0.238322 -0.231982 0)
(0.227156 -0.195774 0)
(0.221546 -0.153349 0)
(0.219351 -0.10871 0)
(0.21741 -0.0624537 0)
(0.218112 -0.0142147 0)
(0.221698 0.0367505 0)
(0.226646 0.0889815 0)
(0.231323 0.141554 0)
(0.23486 0.192515 0)
(0.236593 0.239563 0)
(0.236616 0.280739 0)
(0.236954 0.313101 0)
(0.239209 0.332901 0)
(0.243159 0.337994 0)
(0.250099 0.333765 0)
(0.260657 0.318091 0)
(0.274054 0.291294 0)
(0.288774 0.25657 0)
(0.304428 0.217985 0)
(0.319813 0.177544 0)
(0.333716 0.135413 0)
(0.347255 0.0926752 0)
(0.361851 -0.284493 0)
(0.375024 -0.290193 0)
(0.382156 -0.293668 0)
(0.382097 -0.293921 0)
(0.374237 -0.291166 0)
(0.3588 -0.285891 0)
(0.336044 -0.27832 0)
(0.308307 -0.267506 0)
(0.282149 -0.255107 0)
(0.258999 -0.238692 0)
(0.235963 -0.215323 0)
(0.214257 -0.184104 0)
(0.199165 -0.143853 0)
(0.191006 -0.100908 0)
(0.184898 -0.0575117 0)
(0.181505 -0.0134938 0)
(0.182579 0.03399 0)
(0.186684 0.0851032 0)
(0.19222 0.137518 0)
(0.197763 0.188801 0)
(0.202385 0.236351 0)
(0.206324 0.277303 0)
(0.211343 0.307803 0)
(0.218012 0.32426 0)
(0.226535 0.328857 0)
(0.237814 0.32313 0)
(0.251405 0.306467 0)
(0.267468 0.280477 0)
(0.285395 0.248341 0)
(0.303115 0.212777 0)
(0.31988 0.17387 0)
(0.336781 0.133437 0)
(0.354312 0.0919122 0)
(0.382745 -0.293108 0)
(0.398589 -0.292672 0)
(0.40885 -0.288384 0)
(0.412186 -0.280261 0)
(0.407491 -0.268927 0)
(0.394027 -0.256005 0)
(0.371288 -0.243492 0)
(0.339705 -0.231414 0)
(0.303975 -0.218367 0)
(0.271259 -0.204876 0)
(0.240992 -0.187204 0)
(0.211254 -0.161451 0)
(0.186341 -0.125469 0)
(0.172035 -0.0856268 0)
(0.163246 -0.0456111 0)
(0.157019 -0.00509865 0)
(0.155436 0.0382581 0)
(0.15796 0.0864821 0)
(0.163223 0.137783 0)
(0.169776 0.188627 0)
(0.17648 0.235573 0)
(0.183816 0.274668 0)
(0.192561 0.301783 0)
(0.203138 0.315453 0)
(0.215293 0.318456 0)
(0.229225 0.311389 0)
(0.245724 0.294443 0)
(0.26431 0.270019 0)
(0.28347 0.23994 0)
(0.30206 0.205224 0)
(0.321017 0.167852 0)
(0.340774 0.128545 0)
(0.362245 0.0883667 0)
(0.39311 -0.310858 0)
(0.411314 -0.303689 0)
(0.424666 -0.291462 0)
(0.431632 -0.274374 0)
(0.430858 -0.253203 0)
(0.420893 -0.230477 0)
(0.400791 -0.208951 0)
(0.37059 -0.190899 0)
(0.33082 -0.175817 0)
(0.28881 -0.162318 0)
(0.251724 -0.148422 0)
(0.216247 -0.128825 0)
(0.183047 -0.0989897 0)
(0.161738 -0.0617832 0)
(0.150589 -0.0256765 0)
(0.142081 0.0110215 0)
(0.137849 0.0501983 0)
(0.138472 0.0942166 0)
(0.142676 0.142633 0)
(0.149505 0.19165 0)
(0.157832 0.236599 0)
(0.167896 0.27244 0)
(0.179983 0.29544 0)
(0.193376 0.306469 0)
(0.20808 0.307752 0)
(0.224478 0.299731 0)
(0.242711 0.282971 0)
(0.262229 0.259248 0)
(0.281854 0.229542 0)
(0.302116 0.195882 0)
(0.323515 0.159401 0)
(0.346403 0.120845 0)
(0.370383 0.0822042 0)
(0.392677 -0.338987 0)
(0.411767 -0.32458 0)
(0.42717 -0.304248 0)
(0.437602 -0.278149 0)
(0.441015 -0.247362 0)
(0.435608 -0.213853 0)
(0.420439 -0.180681 0)
(0.394507 -0.152102 0)
(0.3573 -0.130171 0)
(0.311567 -0.113937 0)
(0.266536 -0.100954 0)
(0.226387 -0.0865841 0)
(0.188225 -0.0646695 0)
(0.159794 -0.0313611 0)
(0.144637 0.00223732 0)
(0.13444 0.0341091 0)
(0.127958 0.0685435 0)
(0.126303 0.108054 0)
(0.129202 0.152328 0)
(0.135787 0.197683 0)
(0.145262 0.238994 0)
(0.157467 0.270464 0)
(0.171861 0.289276 0)
(0.187231 0.297913 0)
(0.203709 0.297789 0)
(0.221676 0.288397 0)
(0.240946 0.271199 0)
(0.260887 0.247097 0)
(0.281759 0.217807 0)
(0.304057 0.184663 0)
(0.327937 0.14854 0)
(0.353714 0.111192 0)
(0.378825 0.0723722 0)
(0.381013 -0.370787 0)
(0.400436 -0.349861 0)
(0.417094 -0.321918 0)
(0.429859 -0.287367 0)
(0.437108 -0.247603 0)
(0.436948 -0.204208 0)
(0.427354 -0.160191 0)
(0.408146 -0.119975 0)
(0.37768 -0.087488 0)
(0.336169 -0.0630442 0)
(0.289646 -0.0474866 0)
(0.244289 -0.0356323 0)
(0.203153 -0.0196349 0)
(0.167946 0.00587656 0)
(0.145422 0.035771 0)
(0.133092 0.063788 0)
(0.124419 0.0930496 0)
(0.120358 0.12712 0)
(0.121464 0.166186 0)
(0.127336 0.206491 0)
(0.137435 0.242669 0)
(0.150814 0.269088 0)
(0.16637 0.284685 0)
(0.183241 0.291235 0)
(0.201302 0.288455 0)
(0.220387 0.277374 0)
(0.240425 0.2588 0)
(0.261509 0.234076 0)
(0.284116 0.204591 0)
(0.308477 0.17148 0)
(0.334983 0.136042 0)
(0.361411 0.098498 0)
(0.385863 0.0608009 0)
(0.357733 -0.403608 0)
(0.376491 -0.378111 0)
(0.393591 -0.344033 0)
(0.407898 -0.301809 0)
(0.41797 -0.252954 0)
(0.422068 -0.199988 0)
(0.418001 -0.146092 0)
(0.405511 -0.0948282 0)
(0.385633 -0.0519636 0)
(0.353737 -0.0176903 0)
(0.311442 0.00894919 0)
(0.267205 0.0256769 0)
(0.223759 0.0386975 0)
(0.183764 0.054205 0)
(0.153954 0.0759969 0)
(0.136273 0.099191 0)
(0.125329 0.123159 0)
(0.119298 0.150892 0)
(0.118578 0.183529 0)
(0.123437 0.217636 0)
(0.133231 0.248002 0)
(0.147275 0.269649 0)
(0.163921 0.282014 0)
(0.181799 0.285046 0)
(0.200902 0.279316 0)
(0.221277 0.265802 0)
(0.242494 0.245521 0)
(0.265051 0.219767 0)
(0.289484 0.190071 0)
(0.315866 0.156812 0)
(0.342316 0.120891 0)
(0.367334 0.0840838 0)
(0.389497 0.0506237 0)
(0.322445 -0.439559 0)
(0.340397 -0.412174 0)
(0.358016 -0.37343 0)
(0.373755 -0.324054 0)
(0.386043 -0.26614 0)
(0.393366 -0.202863 0)
(0.394006 -0.137994 0)
(0.386927 -0.0754101 0)
(0.373262 -0.0207445 0)
(0.351131 0.0231843 0)
(0.317222 0.0592527 0)
(0.27675 0.0830569 0)
(0.236748 0.0980596 0)
(0.197813 0.110042 0)
(0.164751 0.123851 0)
(0.142627 0.139251 0)
(0.129142 0.157216 0)
(0.121546 0.17827 0)
(0.119645 0.203579 0)
(0.123895 0.230464 0)
(0.1335 0.254386 0)
(0.147669 0.271117 0)
(0.164697 0.279038 0)
(0.183537 0.278079 0)
(0.20396 0.269258 0)
(0.225365 0.253181 0)
(0.247806 0.23129 0)
(0.272108 0.204888 0)
(0.297554 0.174045 0)
(0.322633 0.140197 0)
(0.346772 0.105239 0)
(0.368215 0.0729525 0)
(0.385652 0.0449754 0)
(0.274174 -0.477698 0)
(0.293494 -0.449134 0)
(0.312936 -0.406155 0)
(0.330388 -0.350306 0)
(0.344261 -0.283857 0)
(0.353734 -0.21033 0)
(0.357724 -0.134231 0)
(0.355332 -0.0599957 0)
(0.345837 0.00800099 0)
(0.331377 0.0637243 0)
(0.307499 0.106184 0)
(0.274349 0.139496 0)
(0.239814 0.15806 0)
(0.205281 0.168563 0)
(0.173486 0.1766 0)
(0.150181 0.184444 0)
(0.135242 0.194124 0)
(0.12622 0.207979 0)
(0.123617 0.225641 0)
(0.127827 0.244732 0)
(0.137608 0.261493 0)
(0.151959 0.272326 0)
(0.169573 0.275292 0)
(0.18926 0.270622 0)
(0.210508 0.258638 0)
(0.232973 0.240436 0)
(0.256687 0.216601 0)
(0.280311 0.18854 0)
(0.303285 0.15691 0)
(0.325371 0.124764 0)
(0.344775 0.0944414 0)
(0.360343 0.0671656 0)
(0.37072 0.044845 0)
(0.21906 -0.514835 0)
(0.239937 -0.484201 0)
(0.261016 -0.438034 0)
(0.279837 -0.377191 0)
(0.295125 -0.303308 0)
(0.305932 -0.21976 0)
(0.312045 -0.132335 0)
(0.313251 -0.0463816 0)
(0.307779 0.0336119 0)
(0.29848 0.101142 0)
(0.284602 0.151867 0)
(0.260637 0.192323 0)
(0.231565 0.216354 0)
(0.203671 0.227216 0)
(0.176528 0.231288 0)
(0.15495 0.232921 0)
(0.141175 0.23431 0)
(0.133032 0.239649 0)
(0.130406 0.249349 0)
(0.13482 0.260648 0)
(0.145028 0.270077 0)
(0.159911 0.274466 0)
(0.178229 0.272129 0)
(0.198623 0.263076 0)
(0.220423 0.24754 0)
(0.242368 0.226568 0)
(0.263894 0.201042 0)
(0.284661 0.172358 0)
(0.303787 0.143678 0)
(0.320537 0.115841 0)
(0.332773 0.0908325 0)
(0.33863 0.0681888 0)
(0.335896 0.0519616 0)
(0.160167 -0.545765 0)
(0.180776 -0.51484 0)
(0.20168 -0.467174 0)
(0.22159 -0.402 0)
(0.239177 -0.3217 0)
(0.251875 -0.229154 0)
(0.259416 -0.130691 0)
(0.263059 -0.0335767 0)
(0.261102 0.0577173 0)
(0.256003 0.135997 0)
(0.249486 0.195691 0)
(0.234339 0.240254 0)
(0.212754 0.270092 0)
(0.192277 0.282579 0)
(0.171907 0.283998 0)
(0.154772 0.280303 0)
(0.144009 0.274883 0)
(0.139205 0.271804 0)
(0.139036 0.272729 0)
(0.144481 0.275652 0)
(0.155167 0.277572 0)
(0.170271 0.275393 0)
(0.18862 0.267661 0)
(0.208528 0.254234 0)
(0.228866 0.23561 0)
(0.248631 0.212677 0)
(0.266885 0.188116 0)
(0.283269 0.162271 0)
(0.296444 0.137316 0)
(0.304142 0.114265 0)
(0.302274 0.0941099 0)
(0.293533 0.0796018 0)
(0.285695 0.0692447 0)
(0.0954692 -0.571562 0)
(0.114366 -0.542258 0)
(0.134741 -0.493279 0)
(0.155391 -0.422758 0)
(0.175183 -0.33612 0)
(0.190984 -0.236482 0)
(0.200617 -0.128525 0)
(0.206164 -0.0210526 0)
(0.206858 0.0801926 0)
(0.205125 0.167715 0)
(0.203829 0.235072 0)
(0.196702 0.283158 0)
(0.18334 0.317584 0)
(0.170938 0.331743 0)
(0.158509 0.331161 0)
(0.147817 0.322648 0)
(0.141867 0.311439 0)
(0.141099 0.301019 0)
(0.144459 0.293599 0)
(0.152323 0.288305 0)
(0.164269 0.282877 0)
(0.179832 0.274695 0)
(0.197684 0.262423 0)
(0.215997 0.245909 0)
(0.233448 0.226153 0)
(0.249711 0.204107 0)
(0.262918 0.181231 0)
(0.271027 0.159196 0)
(0.272271 0.138165 0)
(0.26362 0.121247 0)
(0.251365 0.109322 0)
(0.242822 0.100653 0)
(0.238162 0.0899929 0)
(0.0246857 -0.593747 0)
(0.0416763 -0.56651 0)
(0.0616705 -0.516114 0)
(0.0817347 -0.442703 0)
(0.101084 -0.349115 0)
(0.119966 -0.241264 0)
(0.133949 -0.125282 0)
(0.142309 -0.00907701 0)
(0.144622 0.100732 0)
(0.14562 0.195609 0)
(0.14856 0.269081 0)
(0.14901 0.320241 0)
(0.143656 0.357097 0)
(0.139622 0.372376 0)
(0.136086 0.370187 0)
(0.13341 0.357505 0)
(0.133773 0.340992 0)
(0.138048 0.324435 0)
(0.145625 0.310253 0)
(0.156456 0.29841 0)
(0.170158 0.287115 0)
(0.185933 0.274253 0)
(0.202301 0.258977 0)
(0.218066 0.241088 0)
(0.231563 0.22139 0)
(0.240857 0.201503 0)
(0.243956 0.182268 0)
(0.238446 0.164732 0)
(0.224992 0.15084 0)
(0.212722 0.139843 0)
(0.204153 0.129699 0)
(0.200198 0.116595 0)
(0.200177 0.09914 0)
(-0.0514797 -0.610229 0)
(-0.0355383 -0.585592 0)
(-0.0174822 -0.538317 0)
(-0.000157146 -0.466247 0)
(0.0188725 -0.368322 0)
(0.0376016 -0.251745 0)
(0.0540715 -0.124803 0)
(0.0673189 0.00131631 0)
(0.0725965 0.118249 0)
(0.0766947 0.218219 0)
(0.084381 0.296238 0)
(0.0920674 0.349417 0)
(0.0942781 0.386786 0)
(0.099499 0.402696 0)
(0.105497 0.39882 0)
(0.111556 0.382705 0)
(0.119484 0.361553 0)
(0.12971 0.340192 0)
(0.142224 0.320777 0)
(0.156412 0.304167 0)
(0.171344 0.288952 0)
(0.18654 0.273538 0)
(0.20025 0.257065 0)
(0.210844 0.239934 0)
(0.216728 0.222683 0)
(0.215313 0.206805 0)
(0.204545 0.192435 0)
(0.188879 0.180881 0)
(0.176663 0.170525 0)
(0.16882 0.158805 0)
(0.164932 0.14242 0)
(0.165466 0.121502 0)
(0.170528 0.0986099 0)
(-0.130729 -0.619258 0)
(-0.118006 -0.597212 0)
(-0.104403 -0.553911 0)
(-0.0895531 -0.485051 0)
(-0.0728643 -0.388413 0)
(-0.0561216 -0.269379 0)
(-0.039869 -0.134229 0)
(-0.0242519 0.0048899 0)
(-0.0125932 0.1313 0)
(-0.00330665 0.235575 0)
(0.0115577 0.316339 0)
(0.0269054 0.370153 0)
(0.0371984 0.406532 0)
(0.0521713 0.421544 0)
(0.0679348 0.415475 0)
(0.0832813 0.396692 0)
(0.0995599 0.372321 0)
(0.116513 0.347669 0)
(0.13382 0.325076 0)
(0.150699 0.30581 0)
(0.166008 0.289009 0)
(0.178961 0.273465 0)
(0.187203 0.258539 0)
(0.189793 0.245149 0)
(0.184659 0.232258 0)
(0.170909 0.220602 0)
(0.155715 0.210502 0)
(0.144294 0.200022 0)
(0.136587 0.186396 0)
(0.133543 0.168278 0)
(0.134673 0.145635 0)
(0.138314 0.1216 0)
(0.143747 0.099091 0)
(-0.212793 -0.622033 0)
(-0.205225 -0.602177 0)
(-0.197745 -0.559469 0)
(-0.188056 -0.491049 0)
(-0.175746 -0.393761 0)
(-0.162844 -0.273257 0)
(-0.146736 -0.136675 0)
(-0.12895 0.00702816 0)
(-0.109071 0.137703 0)
(-0.0928879 0.24327 0)
(-0.0695511 0.323879 0)
(-0.0459276 0.379012 0)
(-0.026891 0.414607 0)
(-0.000790114 0.428153 0)
(0.0253144 0.420153 0)
(0.0503253 0.399676 0)
(0.0750744 0.373496 0)
(0.098253 0.347013 0)
(0.119499 0.323547 0)
(0.137884 0.304116 0)
(0.151693 0.288486 0)
(0.15999 0.275829 0)
(0.160818 0.265614 0)
(0.153147 0.25626 0)
(0.138464 0.247993 0)
(0.124588 0.239212 0)
(0.11434 0.228604 0)
(0.107232 0.213407 0)
(0.104849 0.193904 0)
(0.105118 0.169399 0)
(0.106271 0.143891 0)
(0.108199 0.121736 0)
(0.108379 0.102498 0)
(-0.295563 -0.618412 0)
(-0.293851 -0.600458 0)
(-0.294018 -0.558416 0)
(-0.290909 -0.489814 0)
(-0.284838 -0.391599 0)
(-0.277356 -0.270083 0)
(-0.263085 -0.13407 0)
(-0.24175 0.00843958 0)
(-0.213708 0.138412 0)
(-0.187432 0.243048 0)
(-0.155613 0.321952 0)
(-0.123868 0.3771 0)
(-0.0945577 0.411229 0)
(-0.0576013 0.422799 0)
(-0.0213326 0.414542 0)
(0.0141365 0.392317 0)
(0.0457979 0.365043 0)
(0.0739487 0.338807 0)
(0.0978829 0.316817 0)
(0.116 0.300081 0)
(0.126681 0.288751 0)
(0.128912 0.281313 0)
(0.121141 0.27548 0)
(0.107962 0.27105 0)
(0.0961165 0.26458 0)
(0.0867091 0.254441 0)
(0.0810122 0.240168 0)
(0.0800316 0.219862 0)
(0.0791748 0.194225 0)
(0.0777794 0.16826 0)
(0.0768203 0.14654 0)
(0.0742129 0.127991 0)
(0.070115 0.111536 0)
(-0.377059 -0.606526 0)
(-0.381841 -0.590963 0)
(-0.38909 -0.549368 0)
(-0.392632 -0.48165 0)
(-0.39065 -0.384925 0)
(-0.384943 -0.265748 0)
(-0.370528 -0.134715 0)
(-0.348123 0.00182841 0)
(-0.316192 0.128558 0)
(-0.281354 0.232568 0)
(-0.2423 0.310514 0)
(-0.202538 0.364865 0)
(-0.162512 0.397014 0)
(-0.115712 0.406198 0)
(-0.0704282 0.397104 0)
(-0.0282054 0.375821 0)
(0.0105662 0.349313 0)
(0.0428945 0.325512 0)
(0.0679165 0.307461 0)
(0.0845659 0.296162 0)
(0.0911623 0.289735 0)
(0.0872237 0.287732 0)
(0.0787932 0.286953 0)
(0.0701152 0.283906 0)
(0.0624244 0.275955 0)
(0.0593579 0.262975 0)
(0.0586966 0.24274 0)
(0.055123 0.217797 0)
(0.0504283 0.192556 0)
(0.0462047 0.172054 0)
(0.0401867 0.153925 0)
(0.0338881 0.137075 0)
(0.0285479 0.121148 0)
(-0.452337 -0.586664 0)
(-0.462329 -0.571463 0)
(-0.474153 -0.531469 0)
(-0.483774 -0.464987 0)
(-0.484338 -0.372611 0)
(-0.47858 -0.258809 0)
(-0.463333 -0.13617 0)
(-0.43977 -0.0103695 0)
(-0.40611 0.108014 0)
(-0.366991 0.209253 0)
(-0.323678 0.286683 0)
(-0.277246 0.340577 0)
(-0.227715 0.371082 0)
(-0.173554 0.379412 0)
(-0.121235 0.371317 0)
(-0.0733673 0.352618 0)
(-0.0313952 0.330816 0)
(0.00339947 0.31175 0)
(0.0292604 0.298865 0)
(0.0435847 0.291956 0)
(0.0483227 0.291969 0)
(0.0490196 0.293639 0)
(0.0462198 0.293828 0)
(0.0426182 0.290178 0)
(0.042268 0.279576 0)
(0.0401294 0.260883 0)
(0.0332898 0.236984 0)
(0.0252642 0.215269 0)
(0.0160795 0.197062 0)
(0.00654187 0.179403 0)
(-0.00266377 0.161845 0)
(-0.0101862 0.144912 0)
(-0.0154715 0.128513 0)
(-0.515732 -0.560987 0)
(-0.529857 -0.54285 0)
(-0.544144 -0.507431 0)
(-0.558015 -0.443737 0)
(-0.561396 -0.35794 0)
(-0.555094 -0.252029 0)
(-0.539252 -0.137628 0)
(-0.514832 -0.0227834 0)
(-0.480446 0.0861049 0)
(-0.43946 0.181252 0)
(-0.393431 0.255793 0)
(-0.342303 0.308605 0)
(-0.287064 0.338248 0)
(-0.22904 0.347923 0)
(-0.173557 0.342852 0)
(-0.123128 0.328742 0)
(-0.0793784 0.312626 0)
(-0.0441664 0.299248 0)
(-0.0188294 0.291809 0)
(-0.000326674 0.290296 0)
(0.0132637 0.292255 0)
(0.0209038 0.293713 0)
(0.0270989 0.292667 0)
(0.030389 0.284733 0)
(0.026569 0.270508 0)
(0.016225 0.251718 0)
(0.00301493 0.235793 0)
(-0.012601 0.21964 0)
(-0.0288487 0.202539 0)
(-0.0442243 0.18562 0)
(-0.0563326 0.168878 0)
(-0.0645968 0.152065 0)
(-0.0705553 0.134804 0)
(-0.563506 -0.531031 0)
(-0.580528 -0.509752 0)
(-0.594986 -0.47552 0)
(-0.608973 -0.418703 0)
(-0.61719 -0.340876 0)
(-0.61336 -0.245849 0)
(-0.598793 -0.140987 0)
(-0.574669 -0.0358746 0)
(-0.539837 0.0644451 0)
(-0.498941 0.152335 0)
(-0.452592 0.222841 0)
(-0.399547 0.273812 0)
(-0.342082 0.30334 0)
(-0.283181 0.315202 0)
(-0.227202 0.314198 0)
(-0.176397 0.305915 0)
(-0.13244 0.296471 0)
(-0.095274 0.290339 0)
(-0.0629851 0.287788 0)
(-0.0352499 0.287766 0)
(-0.0117287 0.287744 0)
(0.00870404 0.285518 0)
(0.0208457 0.278643 0)
(0.0195864 0.267883 0)
(0.00779693 0.258832 0)
(-0.0126402 0.250042 0)
(-0.0379333 0.239316 0)
(-0.0639026 0.227021 0)
(-0.0849748 0.212599 0)
(-0.100332 0.196229 0)
(-0.112239 0.17929 0)
(-0.121962 0.161931 0)
(-0.130043 0.144134 0)
(-0.595628 -0.498058 0)
(-0.611114 -0.474653 0)
(-0.624806 -0.439621 0)
(-0.638188 -0.389744 0)
(-0.64733 -0.320473 0)
(-0.648553 -0.239217 0)
(-0.639413 -0.147982 0)
(-0.618868 -0.0534733 0)
(-0.586393 0.0384955 0)
(-0.545966 0.120427 0)
(-0.499798 0.187232 0)
(-0.447469 0.235976 0)
(-0.391246 0.266155 0)
(-0.334142 0.281043 0)
(-0.279226 0.286058 0)
(-0.227679 0.285772 0)
(-0.179474 0.283995 0)
(-0.135464 0.283096 0)
(-0.0952675 0.282173 0)
(-0.0563296 0.280051 0)
(-0.0210464 0.274458 0)
(0.00376388 0.266409 0)
(0.0134519 0.258919 0)
(0.00619341 0.257006 0)
(-0.0192342 0.25749 0)
(-0.0548317 0.257659 0)
(-0.0888707 0.252009 0)
(-0.116714 0.241482 0)
(-0.140032 0.227494 0)
(-0.158734 0.210397 0)
(-0.173536 0.191927 0)
(-0.185667 0.173043 0)
(-0.195515 0.153984 0)
(-0.610814 -0.464119 0)
(-0.625487 -0.438335 0)
(-0.63636 -0.403443 0)
(-0.645212 -0.357176 0)
(-0.654687 -0.297817 0)
(-0.659357 -0.226698 0)
(-0.653284 -0.148956 0)
(-0.637986 -0.066867 0)
(-0.611567 0.0135476 0)
(-0.575279 0.0869453 0)
(-0.53262 0.148665 0)
(-0.483842 0.195831 0)
(-0.430598 0.228571 0)
(-0.374678 0.249127 0)
(-0.318479 0.261038 0)
(-0.264119 0.267784 0)
(-0.211641 0.271044 0)
(-0.160857 0.271757 0)
(-0.111279 0.269155 0)
(-0.0655018 0.262903 0)
(-0.0271702 0.253606 0)
(-0.00157066 0.248025 0)
(0.00142824 0.250239 0)
(-0.0203236 0.260193 0)
(-0.0575361 0.269903 0)
(-0.0991251 0.274409 0)
(-0.139761 0.270355 0)
(-0.174252 0.25865 0)
(-0.202208 0.242453 0)
(-0.224327 0.224377 0)
(-0.241565 0.204762 0)
(-0.254632 0.183951 0)
(-0.263888 0.161802 0)
(-0.609341 -0.430268 0)
(-0.623479 -0.402958 0)
(-0.63265 -0.36708 0)
(-0.638514 -0.323259 0)
(-0.643786 -0.27104 0)
(-0.648039 -0.209324 0)
(-0.64625 -0.142663 0)
(-0.6357 -0.0732036 0)
(-0.615832 -0.00437058 0)
(-0.585036 0.0599944 0)
(-0.546169 0.116099 0)
(-0.500678 0.161505 0)
(-0.449964 0.196071 0)
(-0.396127 0.220724 0)
(-0.340411 0.23712 0)
(-0.283697 0.247128 0)
(-0.2265 0.251765 0)
(-0.17057 0.251436 0)
(-0.117724 0.247232 0)
(-0.070131 0.241241 0)
(-0.0328432 0.238597 0)
(-0.0155205 0.243602 0)
(-0.0230959 0.258243 0)
(-0.051439 0.276548 0)
(-0.0962202 0.290231 0)
(-0.148198 0.294071 0)
(-0.19791 0.288297 0)
(-0.239341 0.275617 0)
(-0.271283 0.258489 0)
(-0.294766 0.238806 0)
(-0.31114 0.21697 0)
(-0.321644 0.192926 0)
(-0.327455 0.166234 0)
(-0.591174 -0.396981 0)
(-0.604795 -0.369421 0)
(-0.614037 -0.333635 0)
(-0.618512 -0.291201 0)
(-0.621404 -0.242957 0)
(-0.623684 -0.189316 0)
(-0.62136 -0.131453 0)
(-0.613288 -0.0720327 0)
(-0.598257 -0.0134081 0)
(-0.573861 0.0421481 0)
(-0.540259 0.0917862 0)
(-0.499221 0.133726 0)
(-0.451833 0.166957 0)
(-0.399466 0.191665 0)
(-0.343586 0.208909 0)
(-0.285894 0.219338 0)
(-0.227722 0.22425 0)
(-0.170355 0.22454 0)
(-0.116897 0.224136 0)
(-0.0735712 0.226932 0)
(-0.0458404 0.236377 0)
(-0.0368438 0.253899 0)
(-0.0493619 0.276924 0)
(-0.0859319 0.298085 0)
(-0.141322 0.311865 0)
(-0.204319 0.315067 0)
(-0.262453 0.308117 0)
(-0.308302 0.293974 0)
(-0.340773 0.274875 0)
(-0.362073 0.252454 0)
(-0.375148 0.226633 0)
(-0.3825 0.197373 0)
(-0.386181 0.164655 0)
(-0.558413 -0.36418 0)
(-0.569307 -0.337642 0)
(-0.578683 -0.30224 0)
(-0.583955 -0.26096 0)
(-0.586953 -0.216279 0)
(-0.589003 -0.168278 0)
(-0.587548 -0.118763 0)
(-0.580852 -0.0686103 0)
(-0.568063 -0.0192232 0)
(-0.547186 0.0277883 0)
(-0.517469 0.0703462 0)
(-0.480075 0.107062 0)
(-0.435976 0.136985 0)
(-0.386176 0.159951 0)
(-0.331872 0.176232 0)
(-0.274616 0.186963 0)
(-0.216968 0.194345 0)
(-0.16267 0.20096 0)
(-0.11618 0.209827 0)
(-0.0823135 0.224553 0)
(-0.0633403 0.246013 0)
(-0.0609354 0.272285 0)
(-0.080948 0.299067 0)
(-0.126162 0.32234 0)
(-0.191964 0.33637 0)
(-0.264257 0.338076 0)
(-0.327427 0.328696 0)
(-0.374025 0.311689 0)
(-0.404366 0.289233 0)
(-0.4226 0.262133 0)
(-0.433196 0.231051 0)
(-0.43877 0.195841 0)
(-0.441283 0.157937 0)
(-0.516303 -0.334185 0)
(-0.520178 -0.307011 0)
(-0.525522 -0.272233 0)
(-0.53138 -0.232432 0)
(-0.53615 -0.190684 0)
(-0.540319 -0.14756 0)
(-0.540523 -0.10435 0)
(-0.535323 -0.0618846 0)
(-0.524671 -0.0208566 0)
(-0.506655 0.0176617 0)
(-0.480439 0.0525821 0)
(-0.446193 0.0828478 0)
(-0.404923 0.108179 0)
(-0.357713 0.128658 0)
(-0.306215 0.144964 0)
(-0.253035 0.158587 0)
(-0.201607 0.171368 0)
(-0.155982 0.186612 0)
(-0.120023 0.206691 0)
(-0.0967108 0.232775 0)
(-0.0860877 0.262815 0)
(-0.0901985 0.294474 0)
(-0.116658 0.3249 0)
(-0.169403 0.349067 0)
(-0.243555 0.361696 0)
(-0.321661 0.360097 0)
(-0.387065 0.347162 0)
(-0.432523 0.325639 0)
(-0.460881 0.298358 0)
(-0.476937 0.266081 0)
(-0.484981 0.229829 0)
(-0.488494 0.19064 0)
(-0.490027 0.149606 0)
(-0.472543 -0.310745 0)
(-0.467182 -0.281077 0)
(-0.464115 -0.245513 0)
(-0.464691 -0.205117 0)
(-0.468256 -0.164078 0)
(-0.473561 -0.123832 0)
(-0.476923 -0.0853715 0)
(-0.47493 -0.049751 0)
(-0.467087 -0.0165637 0)
(-0.45196 0.0139216 0)
(-0.429412 0.0413813 0)
(-0.39897 0.06545 0)
(-0.361851 0.0863488 0)
(-0.319635 0.104791 0)
(-0.274549 0.121709 0)
(-0.229919 0.138991 0)
(-0.189263 0.159132 0)
(-0.155891 0.184105 0)
(-0.132141 0.214124 0)
(-0.117926 0.24808 0)
(-0.112893 0.28408 0)
(-0.121944 0.319414 0)
(-0.152294 0.351364 0)
(-0.210114 0.374415 0)
(-0.289053 0.38395 0)
(-0.371299 0.377921 0)
(-0.438039 0.3604 0)
(-0.483822 0.334093 0)
(-0.51011 0.301553 0)
(-0.523258 0.264872 0)
(-0.528623 0.225077 0)
(-0.53073 0.183443 0)
(-0.532161 0.140322 0)
(-0.434519 -0.295344 0)
(-0.420389 -0.264726 0)
(-0.406772 -0.226142 0)
(-0.396537 -0.182772 0)
(-0.392185 -0.138625 0)
(-0.39411 -0.098367 0)
(-0.39847 -0.0627538 0)
(-0.39945 -0.0323916 0)
(-0.395087 -0.00615092 0)
(-0.384291 0.0172037 0)
(-0.367161 0.037732 0)
(-0.34265 0.0559035 0)
(-0.312325 0.0728155 0)
(-0.278619 0.0901295 0)
(-0.244306 0.10919 0)
(-0.212298 0.131926 0)
(-0.185416 0.159863 0)
(-0.165124 0.192754 0)
(-0.151029 0.229659 0)
(-0.142216 0.268391 0)
(-0.140645 0.306952 0)
(-0.150961 0.34319 0)
(-0.181921 0.373872 0)
(-0.241066 0.39427 0)
(-0.324412 0.399505 0)
(-0.411493 0.38991 0)
(-0.481505 0.36751 0)
(-0.527268 0.336567 0)
(-0.551914 0.299472 0)
(-0.562536 0.258988 0)
(-0.566015 0.216499 0)
(-0.567164 0.172959 0)
(-0.56816 0.129502 0)
(-0.402899 -0.286619 0)
(-0.384188 -0.25723 0)
(-0.362869 -0.217051 0)
(-0.342301 -0.169244 0)
(-0.326102 -0.119876 0)
(-0.317881 -0.075197 0)
(-0.317423 -0.0385308 0)
(-0.319394 -0.0105141 0)
(-0.316973 0.0114217 0)
(-0.312762 0.0289096 0)
(-0.302232 0.0436936 0)
(-0.285985 0.0572341 0)
(-0.265537 0.071812 0)
(-0.243762 0.0894273 0)
(-0.223072 0.111775 0)
(-0.205093 0.139837 0)
(-0.190994 0.172806 0)
(-0.180095 0.210407 0)
(-0.171432 0.250383 0)
(-0.165424 0.290088 0)
(-0.163854 0.327869 0)
(-0.171752 0.36164 0)
(-0.199636 0.389018 0)
(-0.25988 0.405606 0)
(-0.34891 0.408288 0)
(-0.442723 0.395922 0)
(-0.517049 0.368653 0)
(-0.563797 0.332183 0)
(-0.587586 0.290014 0)
(-0.596791 0.245253 0)
(-0.599491 0.199384 0)
(-0.59987 0.15474 0)
(-0.599333 0.111783 0)
(-0.376581 -0.279993 0)
(-0.356995 -0.254103 0)
(-0.332702 -0.215579 0)
(-0.307277 -0.165539 0)
(-0.283533 -0.110762 0)
(-0.264864 -0.0599112 0)
(-0.253187 -0.0177265 0)
(-0.248017 0.0144446 0)
(-0.249155 0.035893 0)
(-0.248655 0.0499473 0)
(-0.24511 0.059999 0)
(-0.238071 0.070141 0)
(-0.229115 0.0838796 0)
(-0.220455 0.102943 0)
(-0.212865 0.128506 0)
(-0.207123 0.159969 0)
(-0.201645 0.194918 0)
(-0.195604 0.233698 0)
(-0.189315 0.27285 0)
(-0.183084 0.310073 0)
(-0.178692 0.343763 0)
(-0.181148 0.371929 0)
(-0.205164 0.394247 0)
(-0.26642 0.40763 0)
(-0.361563 0.409455 0)
(-0.464264 0.39279 0)
(-0.544778 0.358085 0)
(-0.593329 0.31475 0)
(-0.61702 0.269798 0)
(-0.625739 0.224487 0)
(-0.626613 0.179559 0)
(-0.624352 0.136273 0)
(-0.62039 0.0969637 0)
(-0.353475 -0.271273 0)
(-0.336137 -0.250494 0)
(-0.313034 -0.215761 0)
(-0.287386 -0.165911 0)
(-0.262658 -0.108161 0)
(-0.240701 -0.051684 0)
(-0.222599 -0.00381031 0)
(-0.210534 0.0336373 0)
(-0.205115 0.0601694 0)
(-0.203949 0.0764172 0)
(-0.204671 0.0863818 0)
(-0.205363 0.0955334 0)
(-0.207154 0.109392 0)
(-0.209839 0.129495 0)
(-0.212125 0.156161 0)
(-0.213979 0.18759 0)
(-0.212744 0.222182 0)
(-0.208408 0.259034 0)
(-0.202351 0.294674 0)
(-0.194097 0.326469 0)
(-0.184942 0.352888 0)
(-0.180977 0.373488 0)
(-0.199351 0.387678 0)
(-0.260486 0.397597 0)
(-0.364209 0.396717 0)
(-0.48168 0.37734 0)
(-0.570496 0.340052 0)
(-0.61634 0.291789 0)
(-0.633495 0.244014 0)
(-0.63823 0.198609 0)
(-0.637449 0.156428 0)
(-0.63283 0.117074 0)
(-0.624898 0.0832396 0)
(-0.33466 -0.25975 0)
(-0.320675 -0.243473 0)
(-0.300544 -0.21274 0)
(-0.278508 -0.164864 0)
(-0.256469 -0.105833 0)
(-0.235521 -0.0446608 0)
(-0.217256 0.00809412 0)
(-0.201987 0.0487118 0)
(-0.191542 0.0802005 0)
(-0.186538 0.102006 0)
(-0.187305 0.11659 0)
(-0.192042 0.129067 0)
(-0.200138 0.144689 0)
(-0.209636 0.164995 0)
(-0.21751 0.19055 0)
(-0.222191 0.219262 0)
(-0.221849 0.251199 0)
(-0.217421 0.284091 0)
(-0.210173 0.314312 0)
(-0.199006 0.339068 0)
(-0.184468 0.356442 0)
(-0.17451 0.366143 0)
(-0.187826 0.369697 0)
(-0.25076 0.374371 0)
(-0.366156 0.377712 0)
(-0.491091 0.360347 0)
(-0.578692 0.321831 0)
(-0.621017 0.273567 0)
(-0.634429 0.227198 0)
(-0.635076 0.182631 0)
(-0.63 0.14321 0)
(-0.621522 0.108665 0)
(-0.61105 0.0786979 0)
(-0.320771 -0.245979 0)
(-0.311226 -0.232092 0)
(-0.295684 -0.204174 0)
(-0.278773 -0.158909 0)
(-0.261883 -0.0997172 0)
(-0.243735 -0.0367869 0)
(-0.228499 0.0213261 0)
(-0.214541 0.0643361 0)
(-0.201364 0.0987377 0)
(-0.194369 0.126535 0)
(-0.193431 0.147139 0)
(-0.197611 0.165169 0)
(-0.206992 0.183803 0)
(-0.217912 0.204003 0)
(-0.226679 0.227225 0)
(-0.230411 0.252242 0)
(-0.228405 0.279966 0)
(-0.222599 0.307861 0)
(-0.213214 0.332035 0)
(-0.198996 0.349152 0)
(-0.181397 0.356833 0)
(-0.168842 0.35349 0)
(-0.179111 0.346607 0)
(-0.237819 0.347607 0)
(-0.352368 0.350692 0)
(-0.479579 0.332699 0)
(-0.569384 0.290354 0)
(-0.608531 0.247394 0)
(-0.617142 0.203638 0)
(-0.613495 0.164661 0)
(-0.603075 0.130437 0)
(-0.591074 0.100961 0)
(-0.578668 0.0748467 0)
(-0.314054 -0.229937 0)
(-0.308385 -0.216459 0)
(-0.298752 -0.189795 0)
(-0.287875 -0.146192 0)
(-0.276821 -0.0885284 0)
(-0.263335 -0.026274 0)
(-0.251391 0.0326812 0)
(-0.239653 0.0804392 0)
(-0.22727 0.118076 0)
(-0.219488 0.15054 0)
(-0.216695 0.177126 0)
(-0.218177 0.200794 0)
(-0.224901 0.221856 0)
(-0.232738 0.241498 0)
(-0.238236 0.261957 0)
(-0.23836 0.283139 0)
(-0.233131 0.306137 0)
(-0.224697 0.32859 0)
(-0.212539 0.346658 0)
(-0.195821 0.356251 0)
(-0.177605 0.355249 0)
(-0.163199 0.343579 0)
(-0.163844 0.327175 0)
(-0.206665 0.312566 0)
(-0.30909 0.297885 0)
(-0.440116 0.276586 0)
(-0.534001 0.245789 0)
(-0.573877 0.212835 0)
(-0.583846 0.178108 0)
(-0.575982 0.146182 0)
(-0.563372 0.11688 0)
(-0.54977 0.0912583 0)
(-0.536324 0.06854 0)
(-0.313051 -0.211164 0)
(-0.311344 -0.196506 0)
(-0.3086 -0.169615 0)
(-0.304283 -0.126967 0)
(-0.299403 -0.0713331 0)
(-0.291241 -0.0112289 0)
(-0.283077 0.0465065 0)
(-0.273579 0.0963617 0)
(-0.263019 0.137936 0)
(-0.255487 0.174359 0)
(-0.250661 0.205797 0)
(-0.248724 0.233544 0)
(-0.250659 0.255939 0)
(-0.252264 0.275009 0)
(-0.251767 0.292756 0)
(-0.246605 0.310779 0)
(-0.23711 0.329386 0)
(-0.225125 0.346855 0)
(-0.209293 0.359356 0)
(-0.188901 0.362648 0)
(-0.166075 0.354148 0)
(-0.1454 0.334644 0)
(-0.135544 0.303949 0)
(-0.158825 0.262792 0)
(-0.243356 0.223458 0)
(-0.366428 0.200112 0)
(-0.469437 0.188549 0)
(-0.520164 0.169213 0)
(-0.533867 0.14828 0)
(-0.529293 0.124239 0)
(-0.515821 0.100549 0)
(-0.500401 0.0792469 0)
(-0.484593 0.0614319 0)
(-0.316846 -0.189875 0)
(-0.318412 -0.173094 0)
(-0.32274 -0.144458 0)
(-0.325212 -0.10266 0)
(-0.326472 -0.0495384 0)
(-0.324193 0.00776729 0)
(-0.319031 0.0630508 0)
(-0.3115 0.113432 0)
(-0.302948 0.157482 0)
(-0.295665 0.196299 0)
(-0.288818 0.230743 0)
(-0.2833 0.260091 0)
(-0.279161 0.283498 0)
(-0.273546 0.302435 0)
(-0.265738 0.318272 0)
(-0.254495 0.334526 0)
(-0.240363 0.349897 0)
(-0.223729 0.363263 0)
(-0.202856 0.371361 0)
(-0.177726 0.369241 0)
(-0.149542 0.354233 0)
(-0.121077 0.323964 0)
(-0.100006 0.276653 0)
(-0.105465 0.212133 0)
(-0.160301 0.14588 0)
(-0.259402 0.108138 0)
(-0.365974 0.103775 0)
(-0.435488 0.107465 0)
(-0.463872 0.10207 0)