/*--------------------------------*- C++ -*----------------------------------*\
  =========                 |
  \\      /  F ield         | OpenFOAM: The Open Source CFD Toolbox
   \\    /   O peration     | Website:  https://openfoam.org
    \\  /    A nd           | Version:  11
     \\/     M anipulation  |
\*---------------------------------------------------------------------------*/
FoamFile
{
    format      ascii;
    class       volScalarField;
    location    "5";
    object      Ccy;
}
// * * * * * * * * * * * * * * * * * * * * * * * * * * * * * * * * * * * * * //

dimensions      [0 1 0 0 0 0 0];

internalField   nonuniform List<scalar> 
9600
(
-7.3698393
-7.3698393
-7.3698393
-7.3698393
-7.3698393
-7.3698393
-7.3698393
-7.3698393
-7.3698393
-7.3698393
-7.3698393
-7.3698393
-7.3698393
-7.3698393
-7.3698393
-7.3698393
-7.3698393
-7.3698393
-7.3698393
-7.3698393
-7.3698393
-7.3698393
-7.3698393
-7.3698393
-7.3698393
-7.3698393
-7.3698393
-7.3698393
-7.3698393
-7.3698393
-7.3698393
-7.3698393
-7.3698393
-7.3698393
-7.3698393
-7.3698393
-7.3698393
-7.3698393
-7.3698393
-7.3698393
-7.1085385
-7.1085385
-7.1085385
-7.1085385
-7.1085385
-7.1085385
-7.1085385
-7.1085385
-7.1085385
-7.1085385
-7.1085385
-7.1085385
-7.1085385
-7.1085385
-7.1085385
-7.1085385
-7.1085385
-7.1085385
-7.1085385
-7.1085385
-7.1085385
-7.1085385
-7.1085385
-7.1085385
-7.1085385
-7.1085385
-7.1085385
-7.1085385
-7.1085385
-7.1085385
-7.1085385
-7.1085385
-7.1085385
-7.1085385
-7.1085385
-7.1085385
-7.1085385
-7.1085385
-7.1085385
-7.1085385
-6.8472382
-6.8472382
-6.8472382
-6.8472382
-6.8472382
-6.8472382
-6.8472382
-6.8472382
-6.8472382
-6.8472382
-6.8472382
-6.8472382
-6.8472382
-6.8472382
-6.8472382
-6.8472382
-6.8472382
-6.8472382
-6.8472382
-6.8472382
-6.8472382
-6.8472382
-6.8472382
-6.8472382
-6.8472382
-6.8472382
-6.8472382
-6.8472382
-6.8472382
-6.8472382
-6.8472382
-6.8472382
-6.8472382
-6.8472382
-6.8472382
-6.8472382
-6.8472382
-6.8472382
-6.8472382
-6.8472382
-6.5859384
-6.5859384
-6.5859384
-6.5859384
-6.5859384
-6.5859384
-6.5859384
-6.5859384
-6.5859384
-6.5859384
-6.5859384
-6.5859384
-6.5859384
-6.5859384
-6.5859384
-6.5859384
-6.5859384
-6.5859384
-6.5859384
-6.5859384
-6.5859384
-6.5859384
-6.5859384
-6.5859384
-6.5859384
-6.5859384
-6.5859384
-6.5859384
-6.5859384
-6.5859384
-6.5859384
-6.5859384
-6.5859384
-6.5859384
-6.5859384
-6.5859384
-6.5859384
-6.5859384
-6.5859384
-6.5859384
-6.3246394
-6.3246394
-6.3246394
-6.3246394
-6.3246394
-6.3246394
-6.3246394
-6.3246394
-6.3246394
-6.3246394
-6.3246394
-6.3246394
-6.3246394
-6.3246394
-6.3246394
-6.3246394
-6.3246394
-6.3246394
-6.3246394
-6.3246394
-6.3246394
-6.3246394
-6.3246394
-6.3246394
-6.3246394
-6.3246394
-6.3246394
-6.3246394
-6.3246394
-6.3246394
-6.3246394
-6.3246394
-6.3246394
-6.3246394
-6.3246394
-6.3246394
-6.3246394
-6.3246394
-6.3246394
-6.3246394
-6.063341
-6.063341
-6.063341
-6.063341
-6.063341
-6.063341
-6.063341
-6.063341
-6.063341
-6.063341
-6.063341
-6.063341
-6.063341
-6.063341
-6.063341
-6.063341
-6.063341
-6.063341
-6.063341
-6.063341
-6.063341
-6.063341
-6.063341
-6.063341
-6.063341
-6.063341
-6.063341
-6.063341
-6.063341
-6.063341
-6.063341
-6.063341
-6.063341
-6.063341
-6.063341
-6.063341
-6.063341
-6.063341
-6.063341
-6.063341
-5.8020434
-5.8020434
-5.8020434
-5.8020434
-5.8020434
-5.8020434
-5.8020434
-5.8020434
-5.8020434
-5.8020434
-5.8020434
-5.8020434
-5.8020434
-5.8020434
-5.8020434
-5.8020434
-5.8020434
-5.8020434
-5.8020434
-5.8020434
-5.8020434
-5.8020434
-5.8020434
-5.8020434
-5.8020434
-5.8020434
-5.8020434
-5.8020434
-5.8020434
-5.8020434
-5.8020434
-5.8020434
-5.8020434
-5.8020434
-5.8020434
-5.8020434
-5.8020434
-5.8020434
-5.8020434
-5.8020434
-5.5407465
-5.5407465
-5.5407465
-5.5407465
-5.5407465
-5.5407465
-5.5407465
-5.5407465
-5.5407465
-5.5407465
-5.5407465
-5.5407465
-5.5407465
-5.5407465
-5.5407465
-5.5407465
-5.5407465
-5.5407465
-5.5407465
-5.5407465
-5.5407465
-5.5407465
-5.5407465
-5.5407465
-5.5407465
-5.5407465
-5.5407465
-5.5407465
-5.5407465
-5.5407465
-5.5407465
-5.5407465
-5.5407465
-5.5407465
-5.5407465
-5.5407465
-5.5407465
-5.5407465
-5.5407465
-5.5407465
-5.2794505
-5.2794505
-5.2794505
-5.2794505
-5.2794505
-5.2794505
-5.2794505
-5.2794505
-5.2794505
-5.2794505
-5.2794505
-5.2794505
-5.2794505
-5.2794505
-5.2794505
-5.2794505
-5.2794505
-5.2794505
-5.2794505
-5.2794505
-5.2794505
-5.2794505
-5.2794505
-5.2794505
-5.2794505
-5.2794505
-5.2794505
-5.2794505
-5.2794505
-5.2794505
-5.2794505
-5.2794505
-5.2794505
-5.2794505
-5.2794505
-5.2794505
-5.2794505
-5.2794505
-5.2794505
-5.2794505
-5.0181555
-5.0181555
-5.0181555
-5.0181555
-5.0181555
-5.0181555
-5.0181555
-5.0181555
-5.0181555
-5.0181555
-5.0181555
-5.0181555
-5.0181555
-5.0181555
-5.0181555
-5.0181555
-5.0181555
-5.0181555
-5.0181555
-5.0181555
-5.0181555
-5.0181555
-5.0181555
-5.0181555
-5.0181555
-5.0181555
-5.0181555
-5.0181555
-5.0181555
-5.0181555
-5.0181555
-5.0181555
-5.0181555
-5.0181555
-5.0181555
-5.0181555
-5.0181555
-5.0181555
-5.0181555
-5.0181555
-4.7568614
-4.7568614
-4.7568614
-4.7568614
-4.7568614
-4.7568614
-4.7568614
-4.7568614
-4.7568614
-4.7568614
-4.7568614
-4.7568614
-4.7568614
-4.7568614
-4.7568614
-4.7568614
-4.7568614
-4.7568614
-4.7568614
-4.7568614
-4.7568614
-4.7568614
-4.7568614
-4.7568614
-4.7568614
-4.7568614
-4.7568614
-4.7568614
-4.7568614
-4.7568614
-4.7568614
-4.7568614
-4.7568614
-4.7568614
-4.7568614
-4.7568614
-4.7568614
-4.7568614
-4.7568614
-4.7568614
-4.4955685
-4.4955685
-4.4955685
-4.4955685
-4.4955685
-4.4955685
-4.4955685
-4.4955685
-4.4955685
-4.4955685
-4.4955685
-4.4955685
-4.4955685
-4.4955685
-4.4955685
-4.4955685
-4.4955685
-4.4955685
-4.4955685
-4.4955685
-4.4955685
-4.4955685
-4.4955685
-4.4955685
-4.4955685
-4.4955685
-4.4955685
-4.4955685
-4.4955685
-4.4955685
-4.4955685
-4.4955685
-4.4955685
-4.4955685
-4.4955685
-4.4955685
-4.4955685
-4.4955685
-4.4955685
-4.4955685
-4.2342768
-4.2342768
-4.2342768
-4.2342768
-4.2342768
-4.2342768
-4.2342768
-4.2342768
-4.2342768
-4.2342768
-4.2342768
-4.2342768
-4.2342768
-4.2342768
-4.2342768
-4.2342768
-4.2342768
-4.2342768
-4.2342768
-4.2342768
-4.2342768
-4.2342768
-4.2342768
-4.2342768
-4.2342768
-4.2342768
-4.2342768
-4.2342768
-4.2342768
-4.2342768
-4.2342768
-4.2342768
-4.2342768
-4.2342768
-4.2342768
-4.2342768
-4.2342768
-4.2342768
-4.2342768
-4.2342768
-3.9729864
-3.9729864
-3.9729864
-3.9729864
-3.9729864
-3.9729864
-3.9729864
-3.9729864
-3.9729864
-3.9729864
-3.9729864
-3.9729864
-3.9729864
-3.9729864
-3.9729864
-3.9729864
-3.9729864
-3.9729864
-3.9729864
-3.9729864
-3.9729864
-3.9729864
-3.9729864
-3.9729864
-3.9729864
-3.9729864
-3.9729864
-3.9729864
-3.9729864
-3.9729864
-3.9729864
-3.9729864
-3.9729864
-3.9729864
-3.9729864
-3.9729864
-3.9729864
-3.9729864
-3.9729864
-3.9729864
-3.7116975
-3.7116975
-3.7116975
-3.7116975
-3.7116975
-3.7116975
-3.7116975
-3.7116975
-3.7116975
-3.7116975
-3.7116975
-3.7116975
-3.7116975
-3.7116975
-3.7116975
-3.7116975
-3.7116975
-3.7116975
-3.7116975
-3.7116975
-3.7116975
-3.7116975
-3.7116975
-3.7116975
-3.7116975
-3.7116975
-3.7116975
-3.7116975
-3.7116975
-3.7116975
-3.7116975
-3.7116975
-3.7116975
-3.7116975
-3.7116975
-3.7116975
-3.7116975
-3.7116975
-3.7116975
-3.7116975
-3.4504102
-3.4504102
-3.4504102
-3.4504102
-3.4504102
-3.4504102
-3.4504102
-3.4504102
-3.4504102
-3.4504102
-3.4504102
-3.4504102
-3.4504102
-3.4504102
-3.4504102
-3.4504102
-3.4504102
-3.4504102
-3.4504102
-3.4504102
-3.4504102
-3.4504102
-3.4504102
-3.4504102
-3.4504102
-3.4504102
-3.4504102
-3.4504102
-3.4504102
-3.4504102
-3.4504102
-3.4504102
-3.4504102
-3.4504102
-3.4504102
-3.4504102
-3.4504102
-3.4504102
-3.4504102
-3.4504102
-3.1891248
-3.1891248
-3.1891248
-3.1891248
-3.1891248
-3.1891248
-3.1891248
-3.1891248
-3.1891248
-3.1891248
-3.1891248
-3.1891248
-3.1891248
-3.1891248
-3.1891248
-3.1891248
-3.1891248
-3.1891248
-3.1891248
-3.1891248
-3.1891248
-3.1891248
-3.1891248
-3.1891248
-3.1891248
-3.1891248
-3.1891248
-3.1891248
-3.1891248
-3.1891248
-3.1891248
-3.1891248
-3.1891248
-3.1891248
-3.1891248
-3.1891248
-3.1891248
-3.1891248
-3.1891248
-3.1891248
-2.9278414
-2.9278414
-2.9278414
-2.9278414
-2.9278414
-2.9278414
-2.9278414
-2.9278414
-2.9278414
-2.9278414
-2.9278414
-2.9278414
-2.9278414
-2.9278414
-2.9278414
-2.9278414
-2.9278414
-2.9278414
-2.9278414
-2.9278414
-2.9278414
-2.9278414
-2.9278414
-2.9278414
-2.9278414
-2.9278414
-2.9278414
-2.9278414
-2.9278414
-2.9278414
-2.9278414
-2.9278414
-2.9278414
-2.9278414
-2.9278414
-2.9278414
-2.9278414
-2.9278414
-2.9278414
-2.9278414
-2.6665601
-2.6665601
-2.6665601
-2.6665601
-2.6665601
-2.6665601
-2.6665601
-2.6665601
-2.6665601
-2.6665601
-2.6665601
-2.6665601
-2.6665601
-2.6665601
-2.6665601
-2.6665601
-2.6665601
-2.6665601
-2.6665601
-2.6665601
-2.6665601
-2.6665601
-2.6665601
-2.6665601
-2.6665601
-2.6665601
-2.6665601
-2.6665601
-2.6665601
-2.6665601
-2.6665601
-2.6665601
-2.6665601
-2.6665601
-2.6665601
-2.6665601
-2.6665601
-2.6665601
-2.6665601
-2.6665601
-2.4052814
-2.4052814
-2.4052814
-2.4052814
-2.4052814
-2.4052814
-2.4052814
-2.4052814
-2.4052814
-2.4052814
-2.4052814
-2.4052814
-2.4052814
-2.4052814
-2.4052814
-2.4052814
-2.4052814
-2.4052814
-2.4052814
-2.4052814
-2.4052814
-2.4052814
-2.4052814
-2.4052814
-2.4052814
-2.4052814
-2.4052814
-2.4052814
-2.4052814
-2.4052814
-2.4052814
-2.4052814
-2.4052814
-2.4052814
-2.4052814
-2.4052814
-2.4052814
-2.4052814
-2.4052814
-2.4052814
-2.1440054
-2.1440054
-2.1440054
-2.1440054
-2.1440054
-2.1440054
-2.1440054
-2.1440054
-2.1440054
-2.1440054
-2.1440054
-2.1440054
-2.1440054
-2.1440054
-2.1440054
-2.1440054
-2.1440054
-2.1440054
-2.1440054
-2.1440054
-2.1440054
-2.1440054
-2.1440054
-2.1440054
-2.1440054
-2.1440054
-2.1440054
-2.1440054
-2.1440054
-2.1440054
-2.1440054
-2.1440054
-2.1440054
-2.1440054
-2.1440054
-2.1440054
-2.1440054
-2.1440054
-2.1440054
-2.1440054
-1.8827327
-1.8827327
-1.8827327
-1.8827327
-1.8827327
-1.8827327
-1.8827327
-1.8827327
-1.8827327
-1.8827327
-1.8827327
-1.8827327
-1.8827327
-1.8827327
-1.8827327
-1.8827327
-1.8827327
-1.8827327
-1.8827327
-1.8827327
-1.8827327
-1.8827327
-1.8827327
-1.8827327
-1.8827327
-1.8827327
-1.8827327
-1.8827327
-1.8827327
-1.8827327
-1.8827327
-1.8827327
-1.8827327
-1.8827327
-1.8827327
-1.8827327
-1.8827327
-1.8827327
-1.8827327
-1.8827327
-1.6214635
-1.6214635
-1.6214635
-1.6214635
-1.6214635
-1.6214635
-1.6214635
-1.6214635
-1.6214635
-1.6214635
-1.6214635
-1.6214635
-1.6214635
-1.6214635
-1.6214635
-1.6214635
-1.6214635
-1.6214635
-1.6214635
-1.6214635
-1.6214635
-1.6214635
-1.6214635
-1.6214635
-1.6214635
-1.6214635
-1.6214635
-1.6214635
-1.6214635
-1.6214635
-1.6214635
-1.6214635
-1.6214635
-1.6214635
-1.6214635
-1.6214635
-1.6214635
-1.6214635
-1.6214635
-1.6214635
-1.3601985
-1.3601985
-1.3601985
-1.3601985
-1.3601985
-1.3601985
-1.3601985
-1.3601985
-1.3601985
-1.3601985
-1.3601985
-1.3601985
-1.3601985
-1.3601985
-1.3601985
-1.3601985
-1.3601985
-1.3601985
-1.3601985
-1.3601985
-1.3601985
-1.3601985
-1.3601985
-1.3601985
-1.3601985
-1.3601985
-1.3601985
-1.3601985
-1.3601985
-1.3601985
-1.3601985
-1.3601985
-1.3601985
-1.3601985
-1.3601985
-1.3601985
-1.3601985
-1.3601985
-1.3601985
-1.3601985
-1.0989382
-1.0989382
-1.0989382
-1.0989382
-1.0989382
-1.0989382
-1.0989382
-1.0989382
-1.0989382
-1.0989382
-1.0989382
-1.0989382
-1.0989382
-1.0989382
-1.0989382
-1.0989382
-1.0989382
-1.0989382
-1.0989382
-1.0989382
-1.0989382
-1.0989382
-1.0989382
-1.0989382
-1.0989382
-1.0989382
-1.0989382
-1.0989382
-1.0989382
-1.0989382
-1.0989382
-1.0989382
-1.0989382
-1.0989382
-1.0989382
-1.0989382
-1.0989382
-1.0989382
-1.0989382
-1.0989382
-0.83768349
-0.83768349
-0.83768349
-0.83768349
-0.83768349
-0.83768349
-0.83768349
-0.83768349
-0.83768349
-0.83768349
-0.83768349
-0.83768349
-0.83768349
-0.83768349
-0.83768349
-0.83768349
-0.83768349
-0.83768349
-0.83768349
-0.83768349
-0.83768349
-0.83768349
-0.83768349
-0.83768349
-0.83768349
-0.83768349
-0.83768349
-0.83768349
-0.83768349
-0.83768349
-0.83768349
-0.83768349
-0.83768349
-0.83768349
-0.83768349
-0.83768349
-0.83768349
-0.83768349
-0.83768349
-0.83768349
-0.57643516
-0.57643516
-0.57643516
-0.57643516
-0.57643516
-0.57643516
-0.57643516
-0.57643516
-0.57643516
-0.57643516
-0.57643516
-0.57643516
-0.57643516
-0.57643516
-0.57643516
-0.57643516
-0.57643516
-0.57643516
-0.57643516
-0.57643516
-0.57643516
-0.57643516
-0.57643516
-0.57643516
-0.57643516
-0.57643516
-0.57643516
-0.57643516
-0.57643516
-0.57643516
-0.57643516
-0.57643516
-0.57643516
-0.57643516
-0.57643516
-0.57643516
-0.57643516
-0.57643516
-0.57643516
-0.57643516
-0.31519439
-0.31519439
-0.31519439
-0.31519439
-0.31519439
-0.31519439
-0.31519439
-0.31519439
-0.31519439
-0.31519439
-0.31519439
-0.31519439
-0.31519439
-0.31519439
-0.31519439
-0.31519439
-0.31519439
-0.31519439
-0.31519439
-0.31519439
-0.31519439
-0.31519439
-0.31519439
-0.31519439
-0.31519439
-0.31519439
-0.31519439
-0.31519439
-0.31519439
-0.31519439
-0.31519439
-0.31519439
-0.31519439
-0.31519439
-0.31519439
-0.31519439
-0.31519439
-0.31519439
-0.31519439
-0.31519439
-0.053962599
-0.053962599
-0.053962599
-0.053962599
-0.053962599
-0.053962599
-0.053962599
-0.053962599
-0.053962599
-0.053962599
-0.053962599
-0.053962599
-0.053962599
-0.053962599
-0.053962599
-0.053962599
-0.053962599
-0.053962599
-0.053962599
-0.053962599
-0.053962599
-0.053962599
-0.053962599
-0.053962599
-0.053962599
-0.053962599
-0.053962599
-0.053962599
-0.053962599
-0.053962599
-0.053962599
-0.053962599
-0.053962599
-0.053962599
-0.053962599
-0.053962599
-0.053962599
-0.053962599
-0.053962599
-0.053962599
0.2072584
0.2072584
0.2072584
0.2072584
0.2072584
0.2072584
0.2072584
0.2072584
0.2072584
0.2072584
0.2072584
0.2072584
0.2072584
0.2072584
0.2072584
0.2072584
0.2072584
0.2072584
0.2072584
0.2072584
0.2072584
0.2072584
0.2072584
0.2072584
0.2072584
0.2072584
0.2072584
0.2072584
0.2072584
0.2072584
0.2072584
0.2072584
0.2072584
0.2072584
0.2072584
0.2072584
0.2072584
0.2072584
0.2072584
0.2072584
0.4684663
0.4684663
0.4684663
0.4684663
0.4684663
0.4684663
0.4684663
0.4684663
0.4684663
0.4684663
0.4684663
0.4684663
0.4684663
0.4684663
0.4684663
0.4684663
0.4684663
0.4684663
0.4684663
0.4684663
0.4684663
0.4684663
0.4684663
0.4684663
0.4684663
0.4684663
0.4684663
0.4684663
0.4684663
0.4684663
0.4684663
0.4684663
0.4684663
0.4684663
0.4684663
0.4684663
0.4684663
0.4684663
0.4684663
0.4684663
0.72965805
0.72965805
0.72965805
0.72965805
0.72965805
0.72965805
0.72965805
0.72965805
0.72965805
0.72965805
0.72965805
0.72965805
0.72965805
0.72965805
0.72965805
0.72965805
0.72965805
0.72965805
0.72965805
0.72965805
0.72965805
0.72965805
0.72965805
0.72965805
0.72965805
0.72965805
0.72965805
0.72965805
0.72965805
0.72965805
0.72965805
0.72965805
0.72965805
0.72965805
0.72965805
0.72965805
0.72965805
0.72965805
0.72965805
0.72965805
0.9908296
0.9908296
0.9908296
0.9908296
0.9908296
0.9908296
0.9908296
0.9908296
0.9908296
0.9908296
0.9908296
0.9908296
0.9908296
0.9908296
0.9908296
0.9908296
0.9908296
0.9908296
0.9908296
0.9908296
0.9908296
0.9908296
0.9908296
0.9908296
0.9908296
0.9908296
0.9908296
0.9908296
0.9908296
0.9908296
0.9908296
0.9908296
0.9908296
0.9908296
0.9908296
0.9908296
0.9908296
0.9908296
0.9908296
0.9908296
1.2519754
1.2519754
1.2519754
1.2519754
1.2519754
1.2519754
1.2519754
1.2519754
1.2519754
1.2519754
1.2519754
1.2519754
1.2519754
1.2519754
1.2519754
1.2519754
1.2519754
1.2519754
1.2519754
1.2519754
1.2519754
1.2519754
1.2519754
1.2519754
1.2519754
1.2519754
1.2519754
1.2519754
1.2519754
1.2519754
1.2519754
1.2519754
1.2519754
1.2519754
1.2519754
1.2519754
1.2519754
1.2519754
1.2519754
1.2519754
1.5130877
1.5130877
1.5130877
1.5130877
1.5130877
1.5130877
1.5130877
1.5130877
1.5130877
1.5130877
1.5130877
1.5130877
1.5130877
1.5130877
1.5130877
1.5130877
1.5130877
1.5130877
1.5130877
1.5130877
1.5130877
1.5130877
1.5130877
1.5130877
1.5130877
1.5130877
1.5130877
1.5130877
1.5130877
1.5130877
1.5130877
1.5130877
1.5130877
1.5130877
1.5130877
1.5130877
1.5130877
1.5130877
1.5130877
1.5130877
1.7741553
1.7741553
1.7741553
1.7741553
1.7741553
1.7741553
1.7741553
1.7741553
1.7741553
1.7741553
1.7741553
1.7741553
1.7741553
1.7741553
1.7741553
1.7741553
1.7741553
1.7741553
1.7741553
1.7741553
1.7741553
1.7741553
1.7741553
1.7741553
1.7741553
1.7741553
1.7741553
1.7741553
1.7741553
1.7741553
1.7741553
1.7741553
1.7741553
1.7741553
1.7741553
1.7741553
1.7741553
1.7741553
1.7741553
1.7741553
2.0351613
2.0351613
2.0351613
2.0351613
2.0351613
2.0351613
2.0351613
2.0351613
2.0351613
2.0351613
2.0351613
2.0351613
2.0351613
2.0351613
2.0351613
2.0351613
2.0351613
2.0351613
2.0351613
2.0351613
2.0351613
2.0351613
2.0351613
2.0351613
2.0351613
2.0351613
2.0351613
2.0351613
2.0351613
2.0351613
2.0351613
2.0351613
2.0351613
2.0351613
2.0351613
2.0351613
2.0351613
2.0351613
2.0351613
2.0351613
2.296079
2.296079
2.296079
2.296079
2.296079
2.296079
2.296079
2.296079
2.296079
2.296079
2.296079
2.296079
2.296079
2.296079
2.296079
2.296079
2.296079
2.296079
2.296079
2.296079
2.296079
2.296079
2.296079
2.296079
2.296079
2.296079
2.296079
2.296079
2.296079
2.296079
2.296079
2.296079
2.296079
2.296079
2.296079
2.296079
2.296079
2.296079
2.296079
2.296079
2.5568638
2.5568638
2.5568638
2.5568638
2.5568638
2.5568638
2.5568638
2.5568638
2.5568638
2.5568638
2.5568638
2.5568638
2.5568638
2.5568638
2.5568638
2.5568638
2.5568638
2.5568638
2.5568638
2.5568638
2.5568638
2.5568638
2.5568638
2.5568638
2.5568638
2.5568638
2.5568638
2.5568638
2.5568638
2.5568638
2.5568638
2.5568638
2.5568638
2.5568638
2.5568638
2.5568638
2.5568638
2.5568638
2.5568638
2.5568638
2.8174353
2.8174353
2.8174353
2.8174353
2.8174353
2.8174353
2.8174353
2.8174353
2.8174353
2.8174353
2.8174353
2.8174353
2.8174353
2.8174353
2.8174353
2.8174353
2.8174353
2.8174353
2.8174353
2.8174353
2.8174353
2.8174353
2.8174353
2.8174353
2.8174353
2.8174353
2.8174353
2.8174353
2.8174353
2.8174353
2.8174353
2.8174353
2.8174353
2.8174353
2.8174353
2.8174353
2.8174353
2.8174353
2.8174353
2.8174353
-7.1845368
-6.8138946
-6.4432524
-6.0726102
-5.7019679
-5.3313257
-4.9606835
-4.5900413
-4.2193991
-3.8487569
-3.4781147
-3.1074724
-2.7368302
-2.366188
-1.9955458
-1.6249036
-1.2542614
-0.88361915
-0.51297694
-0.14233472
0.22830749
0.59894971
0.96959192
1.3402341
1.7108764
2.0815186
2.4521608
2.822803
3.1934452
3.5640874
3.9347296
4.3053719
4.6760141
5.0466563
5.4172985
5.7879407
6.1585829
6.5292251
6.8998674
7.2705096
-6.9276116
-6.565719
-6.2038264
-5.8419337
-5.4800411
-5.1181485
-4.7562558
-4.3943632
-4.0324706
-3.6705779
-3.3086853
-2.9467927
-2.5849
-2.2230074
-1.8611148
-1.4992222
-1.1373295
-0.77543691
-0.41354428
-0.051651647
0.31024098
0.67213361
1.0340263
1.3959189
1.7578115
2.1197042
2.4815968
2.8434894
3.205382
3.5672747
3.9291673
4.2910599
4.6529526
5.0148452
5.3767378
5.7386305
6.1005231
6.4624157
6.8243084
7.186201
-6.670687
-6.317544
-5.9644009
-5.6112578
-5.2581148
-4.9049717
-4.5518286
-4.1986856
-3.8455425
-3.4923994
-3.1392564
-2.7861133
-2.4329702
-2.0798272
-1.7266841
-1.373541
-1.020398
-0.66725492
-0.31411185
0.039031216
0.39217428
0.74531735
1.0984604
1.4516035
1.8047466
2.1578896
2.5110327
2.8641758
3.2173189
3.5704619
3.923605
4.2767481
4.6298911
4.9830342
5.3361773
5.6893203
6.0424634
6.3956065
6.7487495
7.1018926
-6.4137631
-6.0693696
-5.7249761
-5.3805825
-5.036189
-4.6917955
-4.347402
-4.0030084
-3.6586149
-3.3142214
-2.9698279
-2.6254343
-2.2810408
-1.9366473
-1.5922538
-1.2478602
-0.90346672
-0.55907321
-0.21467968
0.12971385
0.47410737
0.81850091
1.1628945
1.507288
1.8516815
2.196075
2.5404686
2.8848621
3.2292556
3.5736492
3.9180427
4.2624362
4.6068297
4.9512233
5.2956168
5.6400103
5.9844038
6.3287974
6.6731909
7.0175844
-6.1568399
-5.8211959
-5.4855519
-5.1499079
-4.8142639
-4.4786199
-4.1429759
-3.8073318
-3.4716878
-3.1360438
-2.8003998
-2.4647558
-2.1291118
-1.7934678
-1.4578238
-1.1221798
-0.78653578
-0.45089178
-0.11524777
0.22039624
0.55604025
0.89168428
1.2273283
1.5629723
1.8986163
2.2342603
2.5699043
2.9055484
3.2411924
3.5768364
3.9124804
4.2481244
4.5837684
4.9194124
5.2550564
5.5907004
5.9263444
6.2619885
6.5976325
6.9332765
-5.8999175
-5.573023
-5.2461285
-4.9192339
-4.5923394
-4.2654449
-3.9385504
-3.6116559
-3.2847614
-2.9578668
-2.6309723
-2.3040778
-1.9771833
-1.6502888
-1.3233942
-0.99649972
-0.6696052
-0.34271068
-0.015816162
0.31107836
0.63797288
0.96486739
1.2917619
1.6186564
1.9455509
2.2724455
2.59934
2.9262345
3.253129
3.5800235
3.9069181
4.2338126
4.5607071
4.8876016
5.2144961
5.5413907
5.8682852
6.1951797
6.5220742
6.8489687
-5.6429959
-5.3248509
-5.0067058
-4.6885608
-4.3704157
-4.0522706
-3.7341256
-3.4159805
-3.0978355
-2.7796904
-2.4615454
-2.1434003
-1.8252553
-1.5071102
-1.1889651
-0.87082005
-0.55267498
-0.23452993
0.083615126
0.40176018
0.71990524
1.0380503
1.3561953
1.6743404
1.9924854
2.3106305
2.6287755
2.9469206
3.2650656
3.5832107
3.9013557
4.2195008
4.5376459
4.8557909
5.173936
5.492081
5.8102261
6.1283711
6.4465162
6.7646613
-5.3860752
-5.0766796
-4.7672839
-4.4578883
-4.1484927
-3.8390971
-3.5297014
-3.2203058
-2.9109102
-2.6015146
-2.2921189
-1.9827233
-1.6733277
-1.3639321
-1.0545364
-0.7451408
-0.43574518
-0.12634955
0.18304607
0.49244169
0.80183732
1.1112329
1.4206285
1.7300242
2.0394198
2.3488154
2.658211
2.9676066
3.2770023
3.5863979
3.8957935
4.2051891
4.5145848
4.8239804
5.133376
5.4427716
5.7521672
6.0615629
6.3709585
6.6803541
-5.1291554
-4.8285092
-4.527863
-4.2272167
-3.9265705
-3.6259243
-3.3252781
-3.0246318
-2.7239856
-2.4233394
-2.1226932
-1.8220469
-1.5214007
-1.2207545
-0.92010827
-0.61946203
-0.31881581
-0.018169584
0.28247664
0.58312286
0.88376908
1.1844153
1.4850615
1.7857077
2.086354
2.3870002
2.6876464
2.9882926
3.2889388
3.5895851
3.8902313
4.1908775
4.4915237
4.79217
5.0928162
5.3934624
5.6941086
5.9947549
6.2954011
6.5960473
-4.8722367
-4.5803398
-4.288443
-3.9965461
-3.7046492
-3.4127524
-3.1208555
-2.8289587
-2.5370618
-2.245165
-1.9532681
-1.6613712
-1.3694744
-1.0775775
-0.78568064
-0.49378378
-0.20188692
0.09000994
0.3819068
0.67380366
0.96570051
1.2575974
1.5494942
1.8413911
2.1332879
2.4251848
2.7170817
3.0089785
3.3008754
3.5927722
3.8846691
4.176566
4.4684628
4.7603597
5.0522565
5.3441534
5.6360503
5.9279471
6.219844
6.5117408
-4.6153191
-4.3321716
-4.0490241
-3.7658765
-3.482729
-3.1995814
-2.9164339
-2.6332864
-2.3501388
-2.0669913
-1.7838438
-1.5006962
-1.2175487
-0.93440117
-0.65125363
-0.36810609
-0.084958558
0.19818898
0.48133651
0.76448405
1.0476316
1.3307791
1.6139266
1.8970742
2.1802217
2.4633693
2.7465168
3.0296643
3.3128119
3.5959594
3.8791069
4.1622545
4.445402
4.7285495
5.0116971
5.2948446
5.5779921
5.8611397
6.1442872
6.4274347
-4.3584028
-4.0840046
-3.8096063
-3.5352081
-3.2608098
-2.9864116
-2.7120133
-2.4376151
-2.1632168
-1.8888185
-1.6144203
-1.340022
-1.0656238
-0.79122553
-0.51682728
-0.24242903
0.031969228
0.30636748
0.58076573
0.85516399
1.1295622
1.4039605
1.6783588
1.952757
2.2271553
2.5015535
2.7759518
3.05035
3.3247483
3.5991465
3.8735448
4.147943
4.4223413
4.6967395
4.9711378
5.2455361
5.5199343
5.7943326
6.0687308
6.3431291
-4.1014879
-3.8358389
-3.5701899
-3.3045409
-3.0388918
-2.7732428
-2.5075938
-2.2419448
-1.9762958
-1.7106467
-1.4449977
-1.1793487
-0.9136997
-0.64805068
-0.38240166
-0.11675264
0.14889638
0.4145454
0.68019442
0.94584345
1.2114925
1.4771415
1.7427905
2.0084395
2.2740886
2.5397376
2.8053866
3.0710356
3.3366846
3.6023337
3.8679827
4.1336317
4.3992807
4.6649297
4.9305787
5.1962278
5.4618768
5.7275258
5.9931748
6.2588238
-3.8445745
-3.5876747
-3.3307749
-3.073875
-2.8169752
-2.5600754
-2.3031755
-2.0462757
-1.7893758
-1.532476
-1.2755762
-1.0186763
-0.76177652
-0.50487668
-0.24797684
0.008923
0.26582284
0.52272267
0.77962251
1.0365224
1.2934222
1.550322
1.8072219
2.0641217
2.3210216
2.5779214
2.8348212
3.0917211
3.3486209
3.6055208
3.8624206
4.1193204
4.3762203
4.6331201
4.8900199
5.1469198
5.4038196
5.6607195
5.9176193
6.1745191
-3.5876629
-3.3395122
-3.0913614
-2.8432107
-2.59506
-2.3469093
-2.0987586
-1.8506079
-1.6024572
-1.3543064
-1.1061557
-0.85800503
-0.60985433
-0.36170362
-0.1135529
0.13459781
0.38274853
0.63089924
0.87904996
1.1272007
1.3753514
1.6235021
1.8716528
2.1198036
2.3679543
2.616105
2.8642557
3.1124064
3.3605571
3.6087078
3.8568585
4.1050093
4.35316
4.6013107
4.8494614
5.0976121
5.3457628
5.5939135
5.8420643
6.090215
-3.3307531
-3.0913514
-2.8519498
-2.6125481
-2.3731464
-2.1337448
-1.8943431
-1.6549415
-1.4155398
-1.1761382
-0.93673655
-0.69733491
-0.45793326
-0.2185316
0.02087005
0.2602717
0.49967336
0.73907501
0.97847668
1.2178784
1.45728
1.6966817
1.9360833
2.175485
2.4148866
2.6542883
2.8936899
3.1330916
3.3724932
3.6118949
3.8512965
4.0906982
4.3300999
4.5695015
4.8089032
5.0483048
5.2877065
5.5271081
5.7665098
6.0059114
-3.0738454
-2.8431927
-2.6125401
-2.3818874
-2.1512347
-1.9205821
-1.6899294
-1.4592768
-1.2286241
-0.99797142
-0.76731875
-0.53666609
-0.30601343
-0.075360761
0.1552919
0.38594457
0.61659723
0.84724988
1.0779025
1.3085552
1.5392079
1.7698606
2.0005132
2.2311659
2.4618185
2.6924712
2.9231239
3.1537765
3.3844292
3.6150819
3.8457345
4.0763872
4.3070399
4.5376925
4.7683452
4.9989979
5.2296505
5.4603032
5.6909559
5.9216085
-2.8169401
-2.5950363
-2.3731326
-2.1512288
-1.9293251
-1.7074213
-1.4855176
-1.2636138
-1.04171
-0.81980626
-0.59790249
-0.37599874
-0.15409498
0.067808776
0.28971253
0.51161629
0.73352004
0.95542378
1.1773275
1.3992313
1.621135
1.8430388
2.0649425
2.2868463
2.50875
2.7306538
2.9525576
3.1744613
3.3963651
3.6182688
3.8401726
4.0620763
4.2839801
4.5058838
4.7277876
4.9496914
5.1715951
5.3934989
5.6154026
5.8373064
-2.5600374
-2.3468824
-2.1337275
-1.9205726
-1.7074176
-1.4942627
-1.2811077
-1.0679528
-0.85479785
-0.6416429
-0.42848796
-0.21533303
-0.0021780901
0.21097685
0.42413178
0.63728672
0.85044165
1.0635966
1.2767515
1.4899064
1.7030614
1.9162163
2.1293712
2.3425262
2.5556811
2.768836
2.981991
3.1951459
3.4083009
3.6214558
3.8346107
4.0477657
4.2609206
4.4740755
4.6872305
4.9003854
5.1135404
5.3266953
5.5398502
5.7530052
-2.3031376
-2.0987314
-1.8943252
-1.6899189
-1.4855127
-1.2811065
-1.0767003
-0.87229406
-0.66788783
-0.46348161
-0.25907539
-0.054669173
0.14973704
0.35414326
0.55854948
0.7629557
0.96736191
1.1717681
1.3761743
1.5805805
1.7849868
1.989393
2.1937992
2.3982054
2.6026116
2.8070179
3.0114241
3.2158303
3.4202365
3.6246427
3.8290489
4.0334552
4.2378614
4.4422676
4.6466738
4.85108
5.0554863
5.2598925
5.4642987
5.6687049
-2.0462412
-1.8505836
-1.654926
-1.4592684
-1.2636107
-1.0679531
-0.87229551
-0.67663788
-0.48098027
-0.28532265
-0.08966504
0.10599257
0.30165019
0.4973078
0.69296542
0.88862303
1.0842806
1.2799382
1.4755959
1.6712535
1.8669111
2.0625687
2.2582263
2.4538839
2.6495415
2.8451992
3.0408568
3.2365144
3.432172
3.6278296
3.8234872
4.0191448
4.2148025
4.4104601
4.6061177
4.8017753
4.9974329
5.1930905
5.3887481
5.5844058
-1.7893486
-1.6024395
-1.4155304
-1.2286212
-1.0417121
-0.85480293
-0.66789379
-0.48098465
-0.29407551
-0.10716636
0.07974278
0.26665192
0.45356106
0.6404702
0.82737934
1.0142885
1.2011976
1.3881068
1.5750159
1.761925
1.9488342
2.1357433
2.3226525
2.5095616
2.6964708
2.8833799
3.070289
3.2571982
3.4441073
3.6310165
3.8179256
4.0048347
4.1917439
4.378653
4.5655622
4.7524713
4.9393805
5.1262896
5.3131987
5.5001079
-1.5324605
-1.3542997
-1.1761389
-0.99797804
-0.81981722
-0.6416564
-0.46349558
-0.28533476
-0.10717394
0.070986874
0.24914769
0.42730851
0.60546933
0.78363015
0.96179097
1.1399518
1.3181126
1.4962734
1.6744342
1.8525951
2.0307559
2.2089167
2.3870775
2.5652383
2.7433992
2.92156
3.0997208
3.2778816
3.4560424
3.6342033
3.8123641
3.9905249
4.1686857
4.3468465
4.5250073
4.7031682
4.881329
5.0594898
5.2376506
5.4158114
-1.2755774
-1.1061648
-0.93675209
-0.76733943
-0.59792676
-0.42851409
-0.25910142
-0.089688755
0.079723918
0.24913659
0.41854925
0.58796192
0.75737459
0.92678727
1.0961999
1.2656126
1.4350253
1.6044379
1.7738506
1.9432633
2.112676
2.2820886
2.4515013
2.620914
2.7903266
2.9597393
3.129152
3.2985646
3.4679773
3.63739
3.8068026
3.9762153
4.145628
4.3150407
4.4844533
4.653866
4.8232787
4.9926913
5.162104
5.3315167
-1.0187003
-0.85803557
-0.69737086
-0.53670613
-0.37604141
-0.21537669
-0.054711972
0.10595275
0.26661747
0.42728219
0.58794691
0.74861164
0.90927636
1.0699411
1.2306058
1.3912705
1.5519353
1.7126
1.8732647
2.0339294
2.1945941
2.3552589
2.5159236
2.6765883
2.837253
2.9979177
3.1585825
3.3192472
3.4799119
3.6405766
3.8012414
3.9619061
4.1225708
4.2832355
4.4439002
4.604565
4.7652297
4.9258944
5.0865591
5.2472238
-0.76183011
-0.6099131
-0.45799609
-0.30607908
-0.15416207
-0.0022450594
0.14967195
0.30158896
0.45350597
0.60542298
0.75733999
0.90925701
1.061174
1.213091
1.3650081
1.5169251
1.6688421
1.8207591
1.9726761
2.1245931
2.2765101
2.4284271
2.5803441
2.7322611
2.8841781
3.0360952
3.1880122
3.3399292
3.4918462
3.6437632
3.7956802
3.9475972
4.0995142
4.2514312
4.4033482
4.5552653
4.7071823
4.8590993
5.0110163
5.1629333
-0.50496813
-0.36179855
-0.21862898
-0.075459398
0.067710179
0.21087976
0.35404934
0.49721891
0.64038849
0.78355807
0.92672766
1.0698972
1.2130668
1.3562364
1.499406
1.6425756
1.7857451
1.9289147
2.0720843
2.2152539
2.3584235
2.501593
2.6447626
2.7879322
2.9311018
3.0742713
3.2174409
3.3606105
3.5037801
3.6469497
3.7901192
3.9332888
4.0764584
4.219628
4.3627976
4.5059671
4.6491367
4.7923063
4.9354759
5.0786454
-0.24811598
-0.1136935
0.020728982
0.15515146
0.28957394
0.42399642
0.5584189
0.69284139
0.82726387
0.96168633
1.0961088
1.2305313
1.3649538
1.4993763
1.6337987
1.7682212
1.9026437
2.0370662
2.1714887
2.3059111
2.4403336
2.5747561
2.7091786
2.8436011
2.9780236
3.112446
3.2468685
3.381291
3.5157135
3.650136
3.7845584
3.9189809
4.0534034
4.1878259
4.3222484
4.4566708
4.5910933
4.7255158
4.8599383
4.9943608
0.0087243002
0.13440009
0.26007588
0.38575166
0.51142745
0.63710324
0.76277903
0.8884548
1.0141306
1.1398064
1.2654821
1.3911579
1.5168337
1.6425095
1.7681853
1.8938611
2.0195369
2.1452126
2.2708884
2.3965642
2.52224
2.6479158
2.7735916
2.8992674
3.0249432
3.1506189
3.2762947