/*--------------------------------*- C++ -*----------------------------------*\
  =========                 |
  \\      /  F ield         | OpenFOAM: The Open Source CFD Toolbox
   \\    /   O peration     | Website:  https://openfoam.org
    \\  /    A nd           | Version:  11
     \\/     M anipulation  |
\*---------------------------------------------------------------------------*/
FoamFile
{
    format      ascii;
    class       volScalarField;
    location    "5";
    object      p;
}
// * * * * * * * * * * * * * * * * * * * * * * * * * * * * * * * * * * * * * //

dimensions      [0 2 -2 0 0 0 0];

internalField   nonuniform List<scalar> 
9600
(
0.00029876814
0.00014561972
0.00013100629
0.00015048843
0.00013078659
0.00010466851
9.8028365e-05
9.5355765e-05
9.1531532e-05
8.7678916e-05
8.4215862e-05
8.0606462e-05
7.6805182e-05
7.2674961e-05
6.8222874e-05
6.3578646e-05
5.8889527e-05
5.4281208e-05
4.98782e-05
4.5791498e-05
4.2136536e-05
3.8956634e-05
3.6232314e-05
3.3941626e-05
3.2045953e-05
3.0483596e-05
2.9201051e-05
2.8185508e-05
2.7531316e-05
2.7279955e-05
2.7700663e-05
2.8407217e-05
3.0420007e-05
3.2093675e-05
3.2084366e-05
3.4047344e-05
2.5816101e-05
2.2767952e-05
4.1726129e-05
-0.00019741382
9.454105e-06
4.216106e-05
5.1914029e-05
6.9577951e-05
8.1091827e-05
7.1110325e-05
7.3884402e-05
7.5779159e-05
7.5378585e-05
7.4608609e-05
7.3578503e-05
7.2299424e-05
7.0147506e-05
6.7219705e-05
6.384006e-05
6.0226429e-05
5.6527868e-05
5.2867981e-05
4.9372336e-05
4.6184877e-05
4.3627148e-05
4.1534448e-05
3.9891083e-05
3.8596945e-05
3.7634934e-05
3.6981118e-05
3.661219e-05
3.6494312e-05
3.6615153e-05
3.69702e-05
3.7951157e-05
3.9514136e-05
4.2781184e-05
4.6501013e-05
5.2382501e-05
6.0030131e-05
6.8643814e-05
8.9262251e-05
0.00010497216
0.00015232269
0.00029617047
0.00022442687
0.00018047332
0.00016982024
0.00016034296
0.00013641382
0.00012189544
0.00011525512
0.00010744292
0.00010050986
9.4666974e-05
8.9382795e-05
8.4077733e-05
7.8420023e-05
7.258175e-05
6.6744389e-05
6.1006603e-05
5.5447638e-05
5.0118848e-05
4.5112962e-05
4.0322559e-05
3.6051477e-05
3.227476e-05
2.9037843e-05
2.6235925e-05
2.3637907e-05
2.11777e-05
1.8842069e-05
1.6743701e-05
1.4823627e-05
1.3536634e-05
1.1940485e-05
1.1847443e-05
1.0262373e-05
8.8766331e-06
8.8810332e-06
4.5675407e-06
3.6367043e-06
-1.153845e-05
-3.0114751e-05
-2.3431199e-05
-1.2713788e-05
1.2331603e-05
3.5331845e-05
4.0175316e-05
3.5655797e-05
4.4983523e-05
5.1846044e-05
5.4658768e-05
5.6735342e-05
5.8251545e-05
5.9082677e-05
5.9236007e-05
5.835462e-05
5.6547367e-05
5.4215899e-05
5.1649081e-05
4.9021709e-05
4.6496297e-05
4.4219538e-05
4.2407758e-05
4.1145348e-05
4.0339185e-05
3.9766237e-05
3.9399003e-05
3.9335733e-05
3.9622236e-05
4.0320921e-05
4.1537469e-05
4.3205013e-05
4.5726613e-05
4.850451e-05
5.2943287e-05
5.728774e-05
6.3705876e-05
7.2423589e-05
8.1945374e-05
9.6931941e-05
8.207256e-05
8.9283786e-05
0.00024121759
0.0002211917
0.0001946268
0.00018525692
0.00017333735
0.00015239571
0.00014120953
0.00013284086
0.00012277224
0.00011372613
0.0001058674
9.8752342e-05
9.2066966e-05
8.5218375e-05
7.8117792e-05
7.1019071e-05
6.4091968e-05
5.740314e-05
5.0960745e-05
4.4809312e-05
3.9023955e-05
3.3429649e-05
2.8379637e-05
2.3951161e-05
1.9959741e-05
1.6288535e-05
1.2860397e-05
9.7067669e-06
6.9867288e-06
4.5541755e-06
2.8506615e-06
9.2384204e-07
4.7109518e-07
-8.3731638e-07
-6.540183e-07
-5.8131637e-07
-2.8831917e-06
-2.7326476e-06
-1.3558101e-05
-1.8297055e-05
1.500622e-05
2.6944516e-06
1.447513e-05
2.6055186e-05
2.7065935e-05
2.1225504e-05
2.7629911e-05
3.5276629e-05
3.8509808e-05
4.1253036e-05
4.3849018e-05
4.5850828e-05
4.7263091e-05
4.7884639e-05
4.7499084e-05
4.6387931e-05
4.4891751e-05
4.3229252e-05
4.1545687e-05
3.9909041e-05
3.8400344e-05
3.7632728e-05
3.7321847e-05
3.7331434e-05
3.7641909e-05
3.8353185e-05
3.9566607e-05
4.1258869e-05
4.347126e-05
4.6018852e-05
4.9288304e-05
5.2472546e-05
5.6718923e-05
6.1106355e-05
6.6035371e-05
7.2995281e-05
8.16288e-05
9.0532907e-05
7.8104649e-05
7.7677339e-05
0.0002035374
0.00019826898
0.00018124562
0.00017836352
0.00017085007
0.0001546324
0.00014646253
0.00013983817
0.00013001229
0.00012088556
0.00011285995
0.00010514889
9.7705388e-05
9.0205326e-05
8.2337104e-05
7.4319456e-05
6.6425386e-05
5.8754936e-05
5.1288854e-05
4.4027389e-05
3.7043947e-05
3.0376172e-05
2.4264679e-05
1.8828207e-05
1.4061033e-05
9.8191455e-06
6.0457124e-06
2.7589051e-06
7.065013e-08
-2.1680092e-06
-3.586828e-06
-4.8860693e-06
-4.9834102e-06
-5.0264476e-06
-3.9752128e-06
-2.8580984e-06
-4.1100017e-06
-1.8581592e-06
-9.0919089e-06
-9.0817922e-06
5.2926191e-05
3.4426858e-05
2.9478213e-05
3.333198e-05
3.1766915e-05
2.3390409e-05
2.467634e-05
2.8809619e-05
3.0148874e-05
3.1847248e-05
3.3959573e-05
3.5837679e-05
3.7417055e-05
3.8476023e-05
3.8656331e-05
3.815303e-05
3.729699e-05
3.6269708e-05
3.5153858e-05
3.3950728e-05
3.2719961e-05
3.1959438e-05
3.1879813e-05
3.2336459e-05
3.323061e-05
3.4632219e-05
3.6560041e-05
3.8912098e-05
4.1685596e-05
4.4645609e-05
4.8073373e-05
5.1377088e-05
5.5219416e-05
5.9403548e-05
6.4016569e-05
6.8923946e-05
7.3003012e-05
7.8157385e-05
7.0572757e-05
6.6406507e-05
0.0001691847
0.00016919719
0.00015924787
0.00015969531
0.00015727549
0.00014548745
0.00013859441
0.00013558359
0.00012833321
0.00012003164
0.0001129378
0.00010590154
9.877327e-05
9.1283066e-05
8.3201586e-05
7.4812856e-05
6.6430279e-05
5.8178598e-05
5.0045118e-05
4.2003521e-05
3.4105289e-05
2.6595227e-05
1.9791994e-05
1.3891598e-05
8.8624736e-06
4.5402319e-06
8.6911501e-07
-2.157778e-06
-4.4500229e-06
-6.1551036e-06
-6.9407885e-06
-7.3942338e-06
-6.6465526e-06
-5.5097322e-06
-3.1397687e-06
-3.9471419e-07
-1.6671027e-08
3.7916283e-06
8.1304888e-07
3.2912045e-06
7.6521e-05
6.0171511e-05
4.8302058e-05
4.7251773e-05
4.4292125e-05
3.4445709e-05
2.9910203e-05
2.9910911e-05
2.9414697e-05
2.9010898e-05
2.9576204e-05
3.0369846e-05
3.1182869e-05
3.1569919e-05
3.1283516e-05
3.0595818e-05
2.9754163e-05
2.8831124e-05
2.7815247e-05
2.663108e-05
2.5331353e-05
2.4499022e-05
2.4484005e-05
2.5177548e-05
2.6427385e-05
2.8216015e-05
3.0490548e-05
3.310207e-05
3.6010336e-05
3.8999781e-05
4.2247863e-05
4.5379743e-05
4.8769533e-05
5.2531556e-05
5.6862436e-05
6.0528359e-05
6.213684e-05
6.5100026e-05
6.0176438e-05
5.4998237e-05
0.00014168519
0.00014266328
0.00013689612
0.00013841071
0.00013951721
0.00013074635
0.0001245165
0.00012344235
0.00011888115
0.00011195852
0.00010614828
0.00010053866
9.4364411e-05
8.7298334e-05
7.9453532e-05
7.122763e-05
6.2900236e-05
5.457237e-05
4.6246535e-05
3.7884544e-05
2.9520696e-05
2.158152e-05
1.4627428e-05
8.758668e-06
3.8786835e-06
-1.826096e-07
-3.4811813e-06
-6.0314172e-06
-7.7632512e-06
-8.8065422e-06
-8.9144224e-06
-8.4750423e-06
-6.8979604e-06
-4.6621163e-06
-9.7275472e-07
3.2888821e-06
5.0976119e-06
9.9682349e-06
1.0001019e-05
1.3236268e-05
9.1685746e-05
7.7800259e-05
6.4209509e-05
6.1133939e-05
5.7605953e-05
4.6510513e-05
3.8102446e-05
3.5793316e-05
3.3629063e-05
3.099688e-05
2.9739025e-05
2.9045774e-05
2.8295853e-05
2.7117927e-05
2.5618673e-05
2.4073864e-05
2.2663483e-05
2.1358912e-05
2.0024022e-05
1.8516541e-05
1.6872089e-05
1.5725088e-05
1.5512059e-05
1.6144623e-05
1.7423033e-05
1.9243896e-05
2.1493671e-05
2.4009407e-05
2.6739011e-05
2.9491786e-05
3.2370059e-05
3.5187922e-05
3.8160023e-05
4.1759197e-05
4.6077046e-05
4.9230085e-05
5.0119694e-05
5.2426013e-05
4.9650256e-05
4.5802602e-05
0.00012136888
0.00012205662
0.00011723968
0.00011866527
0.00012104297
0.00011415545
0.00010793735
0.00010738472
0.00010492609
9.9599314e-05
9.4653716e-05
9.0258584e-05
8.4736995e-05
7.8081959e-05
7.077232e-05
6.3120089e-05
5.5282198e-05
4.7325466e-05
3.9254107e-05
3.1029327e-05
2.2666126e-05
1.480226e-05
8.0809802e-06
2.6100643e-06
-1.8246255e-06
-5.4021845e-06
-8.1607462e-06
-1.0125601e-05
-1.1254973e-05
-1.1649598e-05
-1.1149624e-05
-9.9637582e-06
-7.7566736e-06
-4.7049774e-06
-1.099748e-07
5.0109265e-06
7.8248621e-06
1.3156958e-05
1.4924016e-05
1.836183e-05
9.9838061e-05
8.8798539e-05
7.5334649e-05
7.1923158e-05
6.8259251e-05
5.679549e-05
4.6499447e-05
4.2995031e-05
3.9681594e-05
3.5519364e-05
3.2492163e-05
2.9866978e-05
2.6987395e-05
2.4046141e-05
2.1246926e-05
1.848925e-05
1.576935e-05
1.3456856e-05
1.1629435e-05
9.8630952e-06
7.8370301e-06
6.0106534e-06
5.1639021e-06
5.3953227e-06
6.3810678e-06
7.9092496e-06
9.841438e-06
1.2025557e-05
1.4405015e-05
1.6814143e-05
1.9312327e-05
2.1922666e-05
2.4780889e-05
2.7943844e-05
3.2004737e-05
3.5125352e-05
3.5959461e-05
3.8312679e-05
3.6892523e-05
3.4369181e-05
0.00010759497
0.00010707114
0.0001018482
0.00010234959
0.00010366762
9.7216125e-05
9.0863753e-05
9.0560111e-05
8.9034091e-05
8.4672666e-05
8.0135676e-05
7.5782106e-05
7.0403279e-05
6.4238215e-05
5.7617589e-05
5.0686959e-05
4.3533845e-05
3.6209679e-05
2.8699363e-05
2.0910326e-05
1.2938729e-05
5.4792614e-06
-7.1732418e-07
-5.5211116e-06
-9.3172096e-06
-1.2267596e-05
-1.439765e-05
-1.5745321e-05
-1.6291006e-05
-1.6127431e-05
-1.5146177e-05
-1.3479261e-05
-1.0988065e-05
-7.5160934e-06
-2.5199858e-06
3.0704783e-06
6.9012043e-06
1.1918157e-05
1.4021408e-05
1.719537e-05
0.0001015431
9.4283429e-05
8.2824603e-05
7.838519e-05
7.4802121e-05
6.3897973e-05
5.3021243e-05
4.8804967e-05
4.4807441e-05
3.9652136e-05
3.4542133e-05
2.981764e-05
2.5243302e-05
2.0863839e-05
1.6770939e-05
1.2990813e-05
9.5099594e-06
6.2856452e-06
3.215091e-06
1.1074753e-07
-3.0290455e-06
-5.5008183e-06
-6.7613217e-06
-7.1561489e-06
-6.7353024e-06
-5.7301908e-06
-4.2961964e-06
-2.5658465e-06
-5.8204743e-07
1.5156587e-06
3.7979333e-06
6.0914614e-06
8.5788127e-06
1.1261211e-05
1.4888995e-05
1.8656281e-05
2.0602915e-05
2.3087654e-05
2.2321865e-05
2.1561958e-05
0.00010180169
9.7953811e-05
9.1026902e-05
8.9254465e-05
8.8863559e-05
8.2168041e-05
7.5017736e-05
7.3433268e-05
7.1580604e-05
6.7239003e-05
6.2472047e-05
5.7932672e-05
5.2688832e-05
4.6928516e-05
4.0863081e-05
3.4562062e-05
2.8063208e-05
2.138502e-05
1.4498801e-05
7.2941692e-06
-1.6862118e-07
-7.057106e-06
-1.2594037e-05
-1.6581196e-05
-1.9637944e-05
-2.1901572e-05
-2.3384884e-05
-2.4138693e-05
-2.415417e-05
-2.3521236e-05
-2.2157497e-05
-2.0195634e-05
-1.746483e-05
-1.3974404e-05
-8.9733836e-06
-3.2772791e-06
1.2047968e-06
5.9078386e-06
7.7631232e-06
1.0697825e-05
9.97218e-05
9.4237298e-05
8.5349527e-05
7.8987645e-05
7.5697366e-05
6.6270706e-05
5.5770497e-05
5.0570769e-05
4.5984934e-05
4.0010893e-05
3.3660799e-05
2.765906e-05
2.1882241e-05
1.6335194e-05
1.1093985e-05
6.1822683e-06
1.5825021e-06
-2.7530174e-06
-6.9328399e-06
-1.1134572e-05
-1.5321123e-05
-1.8741043e-05
-2.0841536e-05
-2.1978716e-05
-2.2258873e-05
-2.1918433e-05
-2.1099466e-05
-1.9917392e-05
-1.8408402e-05
-1.6699372e-05
-1.4733684e-05
-1.2673548e-05
-1.0317537e-05
-7.7171965e-06
-4.1899272e-06
-5.1630335e-08
3.0018576e-06
5.7333986e-06
5.227356e-06
5.1044843e-06
9.7328072e-05
9.1986187e-05
8.3540265e-05
7.7600759e-05
7.5708516e-05
6.8701196e-05
6.0541723e-05
5.6552667e-05
5.3497628e-05
4.8629397e-05
4.3126944e-05
3.799363e-05
3.2633484e-05
2.699764e-05
2.1180721e-05
1.5239782e-05
9.1884378e-06
3.0214871e-06
-3.3124532e-06
-9.9505973e-06
-1.6824732e-05
-2.3055144e-05
-2.7880187e-05
-3.1223002e-05
-3.3632909e-05
-3.5272054e-05
-3.6173245e-05
-3.6397602e-05
-3.594946e-05
-3.4927913e-05
-3.325199e-05
-3.1097086e-05
-2.8271783e-05
-2.4835118e-05
-2.0202689e-05
-1.47227e-05
-9.8914341e-06
-5.733084e-06
-4.8712881e-06
-3.6801878e-06
9.435904e-05
8.8971674e-05
8.0088146e-05
7.2934463e-05
7.00821e-05
6.2556232e-05
5.2957084e-05
4.5915664e-05
4.1444657e-05
3.5008137e-05
2.7885242e-05
2.1221896e-05
1.4700308e-05
8.3005516e-06
2.1167533e-06
-3.7963862e-06
-9.4386052e-06
-1.4841453e-05
-2.00956e-05
-2.5359802e-05
-3.0573517e-05
-3.4947849e-05
-3.790987e-05
-3.9827386e-05
-4.085604e-05
-4.1211563e-05
-4.1007968e-05
-4.0347654e-05
-3.9258618e-05
-3.786669e-05
-3.6100523e-05
-3.4133935e-05
-3.1736038e-05
-2.8977444e-05
-2.5293628e-05
-2.0700903e-05
-1.6423446e-05
-1.2820307e-05
-1.2481943e-05
-1.1915958e-05
9.0534931e-05
8.5047776e-05
7.5664594e-05
6.7530256e-05
6.4249038e-05
5.7024866e-05
4.7338674e-05
4.0084527e-05
3.6008978e-05
3.0035675e-05
2.3479975e-05
1.7418382e-05
1.1401303e-05
5.3364669e-06
-7.2865099e-07
-6.7637489e-06
-1.2767275e-05
-1.8767406e-05
-2.4843445e-05
-3.1143906e-05
-3.7584288e-05
-4.3304622e-05
-4.7608828e-05
-5.048807e-05
-5.2421856e-05
-5.3589917e-05
-5.4046764e-05
-5.3869661e-05
-5.3064012e-05
-5.1749351e-05
-4.9849755e-05
-4.7580604e-05
-4.4720325e-05
-4.1377318e-05
-3.7148628e-05
-3.2012556e-05
-2.6966146e-05
-2.2844625e-05
-2.1975909e-05
-2.1270873e-05
8.5311189e-05
8.0227575e-05
7.0413149e-05
6.1377852e-05
5.7489269e-05
5.0459912e-05
4.0405666e-05
3.2294707e-05
2.7643517e-05
2.1395849e-05
1.4326283e-05
7.5066598e-06
6.8336073e-07
-6.1734205e-06
-1.2959882e-05
-1.9588982e-05
-2.6034311e-05
-3.2307799e-05
-3.8468749e-05
-4.4650198e-05
-5.075853e-05
-5.5955992e-05
-5.9698922e-05
-6.2236639e-05
-6.3852152e-05
-6.4729566e-05
-6.4954078e-05
-6.4616397e-05
-6.372667e-05
-6.241833e-05
-6.0576694e-05
-5.8423488e-05
-5.5714322e-05
-5.2517214e-05
-4.8491361e-05
-4.3508911e-05
-3.8331589e-05
-3.390804e-05
-3.2261444e-05
-3.1777238e-05
7.935314e-05
7.4476568e-05
6.4336594e-05
5.4183579e-05
4.9263607e-05
4.2645101e-05
3.2066628e-05
2.3002749e-05
1.7653652e-05
1.1324618e-05
4.0543176e-06
-3.1160978e-06
-1.0251622e-05
-1.7361666e-05
-2.4344357e-05
-3.113931e-05
-3.7740348e-05
-4.4177431e-05
-5.0539592e-05
-5.6968098e-05
-6.3345147e-05
-6.8868455e-05
-7.2950063e-05
-7.5713885e-05
-7.7497827e-05
-7.8495113e-05
-7.8776157e-05
-7.8437312e-05
-7.748691e-05
-7.6088825e-05
-7.4119232e-05
-7.1829644e-05
-6.8968589e-05
-6.5599847e-05
-6.151526e-05
-5.6500738e-05
-5.1074525e-05
-4.6148721e-05
-4.3977836e-05
-4.3426049e-05
7.28878e-05
6.7984788e-05
5.7383898e-05
4.6276481e-05
4.0404002e-05
3.3756365e-05
2.2577836e-05
1.2204892e-05
5.7256859e-06
-4.8957266e-07
-7.8106835e-06
-1.5375117e-05
-2.2900248e-05
-3.0391219e-05
-3.7762361e-05
-4.493971e-05
-5.1902505e-05
-5.8690284e-05
-6.5389547e-05
-7.2090369e-05
-7.8647877e-05
-8.4270971e-05
-8.8444784e-05
-9.130646e-05
-9.3158232e-05
-9.4187331e-05
-9.4462693e-05
-9.4089772e-05
-9.3059189e-05
-9.1551492e-05
-8.9429373e-05
-8.6979268e-05
-8.3967707e-05
-8.0403564e-05
-7.619822e-05
-7.1091795e-05
-6.5364085e-05
-5.9791281e-05
-5.7027566e-05
-5.6312022e-05
6.6659845e-05
6.1214354e-05
4.9780332e-05
3.7598617e-05
3.005109e-05
2.3148374e-05
1.1524426e-05
-4.4501592e-07
-8.0089748e-06
-1.4440343e-05
-2.1978194e-05
-2.985535e-05
-3.770846e-05
-4.5613617e-05
-5.3453274e-05
-6.1098156e-05
-6.8507021e-05
-7.5687055e-05
-8.2667112e-05
-8.952267e-05
-9.6160849e-05
-0.00010195286
-0.00010633761
-0.00010935957
-0.00011130154
-0.00011236062
-0.00011260347
-0.00011216109
-0.00011101313
-0.00010936741
-0.00010704345
-0.00010434008
-0.0001010851
-9.7216863e-05
-9.2796205e-05
-8.753536e-05
-8.1449416e-05
-7.5115259e-05
-7.1578115e-05
-7.0562626e-05
5.8335648e-05
5.2435656e-05
4.049653e-05
2.705067e-05
1.8180292e-05
1.0519774e-05
-1.4754675e-06
-1.4751048e-05
-2.3667864e-05
-3.0940157e-05
-3.9204352e-05
-4.7521068e-05
-5.5572879e-05
-6.3767483e-05
-7.2041776e-05
-8.0156863e-05
-8.8067964e-05
-9.5813023e-05
-0.00010342732
-0.00011093271
-0.00011802337
-0.00012385156
-0.000128113
-0.00013103942
-0.00013288901
-0.00013383468
-0.00013394334
-0.00013333999
-0.00013196992
-0.00013006197
-0.00012746717
-0.00012439085
-0.00012085409
-0.00011659228
-0.00011177204
-0.00010635149
-9.984125e-05
-9.2426951e-05
-8.774866e-05
-8.6279327e-05
4.8149826e-05
4.1510864e-05
2.9656834e-05
1.4864599e-05
4.116283e-06
-4.6084393e-06
-1.6823024e-05
-3.1252471e-05
-4.1972304e-05
-5.029823e-05
-5.94064e-05
-6.8582705e-05
-7.7011661e-05
-8.5009152e-05
-9.3010433e-05
-0.00010092371
-0.00010854812
-0.00011586327
-0.00012300243
-0.00013012501
-0.00013710846
-0.00014339259
-0.00014845893
-0.00015222075
-0.00015483737
-0.00015644457
-0.00015704728
-0.00015679186
-0.00015558037
-0.00015367018
-0.00015093034
-0.00014754844
-0.00014365513
-0.00013900917
-0.00013373322
-0.00012794279
-0.0001211041
-0.00011259488
-0.0001063073
-0.0001039199
3.6450058e-05
2.9142449e-05
1.6955683e-05
3.7432992e-07
-1.2539752e-05
-2.2178522e-05
-3.496537e-05
-5.0812974e-05
-6.346906e-05
-7.3283808e-05
-8.3854291e-05
-9.4972499e-05
-0.0001057191
-0.00011609882
-0.0001263007
-0.00013652317
-0.00014671924
-0.0001566048
-0.00016593158
-0.0001745177
-0.00018196578
-0.00018774708
-0.00019180786
-0.00019438243
-0.00019559481
-0.00019561499
-0.00019450211
-0.00019251753
-0.00018959576
-0.00018611272
-0.0001818584
-0.00017715827
-0.0001720068
-0.00016630531
-0.00016023737
-0.00015351284
-0.00014565471
-0.00013599402
-0.00012819684
-0.00012463576
2.1267546e-05
1.3342418e-05
7.909904e-07
-1.7463746e-05
-3.2430468e-05
-4.2552338e-05
-5.5026333e-05
-7.109885e-05
-8.4132176e-05
-9.3457267e-05
-0.00010292102
-0.00011276139
-0.00012193881
-0.00013038593
-0.00013833542
-0.00014594196
-0.00015342354
-0.0001610208
-0.00016879118
-0.00017663483
-0.00018430405
-0.00019139385
-0.00019740638
-0.00020199304
-0.00020521501
-0.00020726341
-0.00020815152
-0.00020808817
-0.00020692454
-0.00020500794
-0.00020212785
-0.00019854008
-0.0001942923
-0.00018920239
-0.00018354327
-0.00017698026
-0.00016927113
-0.00015945414
-0.00015093165
-0.00014675702
4.1687334e-06
-5.8370049e-06
-2.0707711e-05
-4.262422e-05
-6.288788e-05
-7.7616657e-05
-9.4380672e-05
-0.00011595304
-0.00013557658
-0.00015139227
-0.00016725252
-0.00018382374
-0.00019983878
-0.00021492091
-0.0002291501
-0.00024248452
-0.00025487253
-0.00026630291
-0.00027670626
-0.00028584735
-0.00029326201
-0.00029871852
-0.00030229892
-0.00030434667
-0.00030480882
-0.00030373731
-0.00030115811
-0.00029734344
-0.00029220421
-0.00028613418
-0.00027896228
-0.00027098755
-0.00026225203
-0.000252749
-0.00024259758
-0.00023148069
-0.00021948983
-0.00020516649
-0.00019074218
-0.00018063961
-1.1802333e-05
-1.8712412e-05
-2.9510339e-05
-4.7586998e-05
-6.5456131e-05
-7.6323391e-05
-8.7835649e-05
-0.00010477452
-0.00012036141
-0.00013155208
-0.00014238442
-0.00015411872
-0.00016551836
-0.00017612027
-0.00018614506
-0.00019572491
-0.00020492502
-0.00021388922
-0.00022278691
-0.00023166695
-0.00024049007
-0.00024889675
-0.0002563635
-0.00026204052
-0.0002659105
-0.00026829857
-0.00026924829
-0.00026900401
-0.00026746419
-0.00026498608
-0.00026144467
-0.00025712964
-0.00025211273
-0.00024640377
-0.00024034837
-0.00023332879
-0.0002262285
-0.00021734701
-0.00020837409
-0.00020360432
-5.8409515e-05
-7.8728168e-05
-0.00010097946
-0.00013199178
-0.00016550573
-0.00019112685
-0.00021531655
-0.00024515803
-0.00027497943
-0.00029979495
-0.00032326915
-0.00034734374
-0.00037065728
-0.00039225813
-0.00041217706
-0.00043040343
-0.00044675007
-0.00046105042
-0.00047317204
-0.00048298393
-0.00049023768
-0.00049450728
-0.0004963788
-0.00049657237
-0.00049495811
-0.00049135164
-0.00048564751
-0.00047816409
-0.00046880799
-0.00045797685
-0.00044547933
-0.00043169586
-0.00041654956
-0.00040003659
-0.00038256587
-0.00036318988
-0.00034262798
-0.00032029482
-0.00029631746
-0.00027546507
-2.281216e-05
-2.5337448e-05
-4.0851519e-05
-6.0762584e-05
-8.4890876e-05
-0.00010119726
-0.00011396597
-0.00013287127
-0.00015394579
-0.00017024543
-0.00018489882
-0.00020081883
-0.00021689872
-0.00023200772
-0.00024629503
-0.00025997566
-0.00027300392
-0.00028533858
-0.0002970641
-0.00030824094
-0.00031892064
-0.00032939387
-0.00033942446
-0.00034707111
-0.0003520435
-0.00035493161
-0.0003559595
-0.00035546744
-0.00035332853
-0.00035002541
-0.00034547605
-0.0003400636
-0.00033411933
-0.00032721929
-0.00032074599
-0.00031317669
-0.00030565434
-0.00029790035
-0.00029032451
-0.00028469813
-0.00020651801
-0.00025070149
-0.00028186973
-0.00032050223
-0.00037127029
-0.00041721871
-0.00045453168
-0.00049548036
-0.00054050056
-0.00058043003
-0.00061608073
-0.00065149831
-0.00068616527
-0.00071816638
-0.00074715075
-0.00077325399
-0.00079621335
-0.00081565667
-0.00083126974
-0.00084280167
-0.00085003632
-0.00085242604
-0.00085027778
-0.00084562916
-0.00083872621
-0.00082919814
-0.00081659444
-0.00080130064
-0.00078329251
-0.0007631159
-0.00074071129
-0.00071614223
-0.00069024943
-0.00066184199
-0.00063264338
-0.000601775
-0.00056819943
-0.00053452088
-0.00049940758
-0.00046717425
5.8153757e-05
4.3081554e-05
-4.8254423e-06
-4.3858759e-05
-7.8798497e-05
-0.0001091658
-0.00013163622
-0.00015738337
-0.00019041416
-0.00022065026
-0.00024611836
-0.00027194779
-0.00029884289
-0.00032459284
-0.0003486556
-0.00037153683
-0.00039333529
-0.00041383979
-0.00043288878
-0.00045058822
-0.00046673011
-0.00048150203
-0.00049404569
-0.00050374197
-0.00050890084
-0.00051034876
-0.00050911192
-0.00050610248
-0.0005007337
-0.00049304579
-0.00048377078
-0.00047194207
-0.00046008585
-0.00044608544
-0.00043204502
-0.00041831015
-0.00040400336
-0.00039101574
-0.00038130355
-0.0003788757
-0.00059534885
-0.0006771645
-0.000719706
-0.00076422925
-0.00082692564
-0.00090612106
-0.00097586705
-0.0010342915
-0.0010979584
-0.001163941
-0.0012217999
-0.0012746664
-0.0013266985
-0.0013758368
-0.0014195257
-0.0014577199
-0.0014906361
-0.0015177627
-0.00153863
-0.001552799
-0.0015600512
-0.0015598794
-0.0015529248
-0.001540318
-0.0015235161
-0.0015035516
-0.0014793643
-0.0014509663
-0.0014187396
-0.0013817485
-0.0013419311
-0.0012975841
-0.0012503044
-0.0012012548
-0.0011478208
-0.0010948094
-0.0010399158
-0.00098441848
-0.00093127646
-0.00088190977
0.0003066647
0.0002416879
0.00011401791
1.982482e-05
-4.5636918e-05
-0.00010475201
-0.00016159158
-0.00021568214
-0.00027646904
-0.0003428739
-0.00040086426
-0.00045087723
-0.00050132483
-0.00055310462
-0.00060231948
-0.0006477724
-0.00069011461
-0.00072956429
-0.00076540533
-0.00079762995
-0.00082607348
-0.0008513043
-0.00087182317
-0.00088880144
-0.00089811148
-0.00089847192
-0.00089193746
-0.00087991422
-0.00086531812
-0.00084484947
-0.00082120313
-0.00079290145
-0.00076072335
-0.00072704151
-0.0006906169
-0.00065363509
-0.00061821423
-0.00058444682
-0.00055722228
-0.00054182814
-0.0016523644
-0.0017973604
-0.0018742201
-0.0019684134
-0.0020793974
-0.0022005904
-0.0023321499
-0.0024580629
-0.002558011
-0.0026454874
-0.0027351935
-0.0028207559
-0.0028945025
-0.0029600047
-0.0030201951
-0.0030711761
-0.0031117999
-0.003141345
-0.0031607546
-0.0031696713
-0.0031691713
-0.0031597933
-0.0031423713
-0.0031158734
-0.0030838025
-0.0030459674
-0.0030045819
-0.0029541176
-0.0028968006
-0.0028319683
-0.0027596504
-0.0026823096
-0.0025965142
-0.0025046231
-0.0024081055
-0.0023051687
-0.0021993725
-0.0020921121
-0.0019852406
-0.0018838467
0.0012110999
0.00093043307
0.00045755914
0.00016174214
-1.8310455e-05
-0.00018955553
-0.00037703946
-0.00057885343
-0.00078230284
-0.00097836582
-0.0011657338
-0.0013359626
-0.0014819019
-0.0016098721
-0.0017283998
-0.0018383956
-0.0019328328
-0.0020125545
-0.0020788249
-0.0021345949
-0.0021775978
-0.0022083621
-0.0022271378
-0.002235528
-0.0022326658
-0.0022131907
-0.0021813508
-0.0021386129
-0.0020830853
-0.0020135622
-0.0019304369
-0.0018295225
-0.0017095772
-0.0015758875
-0.0014264341
-0.0012604018
-0.0010776931
-0.00086529899
-0.00061687071
-0.00031926527
-0.01327006
-0.011936418
-0.010595565
-0.01001641
-0.0098461425
-0.0096831334
-0.0094664198
-0.009199535
-0.0089204658
-0.0086527346
-0.0084095854
-0.0081974691
-0.0080150907
-0.0078505966
-0.0077125482
-0.007597155
-0.0074806263
-0.0073699535
-0.0072755834
-0.0072082173
-0.0071586184
-0.0071202172
-0.0070901907
-0.0070662281
-0.007056698
-0.0070606248
-0.0070746496
-0.0071033382
-0.0071498581
-0.0072154772
-0.0073058796
-0.0074228045
-0.0075625404
-0.007726048
-0.0079141727
-0.0081303672
-0.008368054
-0.0086231537
-0.0088800448
-0.0089883072
-4.3419835e-05
3.4413107e-05
1.6768806e-05
3.1185249e-05
2.9115021e-05
3.2127133e-05
3.2361928e-05
3.2844309e-05
3.295146e-05
3.4719003e-05
3.7338111e-05
3.5748302e-05
3.1147089e-05
2.6344705e-05
2.0383206e-05
1.336703e-05
6.8789314e-06
1.7257968e-06
-1.9879308e-06
-4.368045e-06
-5.5125873e-06
-5.2161223e-06
-3.2755549e-06
4.6649356e-09
4.2147423e-06
8.6124118e-06
1.2737535e-05
1.5524181e-05
1.7269586e-05
1.3304774e-05
1.505045e-05
5.1926664e-07
8.6968742e-06
-2.6017329e-05
1.5513647e-05
-7.0926956e-05
2.2708787e-05
-0.0001222472
1.5422303e-05
-0.00018156326
3.8404773e-05
3.799692e-05
3.0752194e-05
3.029508e-05
3.1203528e-05
3.2811546e-05
3.3183891e-05
3.3071635e-05
3.2825687e-05
3.3949216e-05
3.6137959e-05
3.4080516e-05
2.8208583e-05
2.2465072e-05
1.5750208e-05
8.2404526e-06
1.8845827e-06
-2.8748014e-06
-6.2506189e-06
-8.4222217e-06
-9.176414e-06
-8.3229847e-06
-5.8016033e-06
-1.833051e-06
3.1125713e-06
8.3347378e-06
1.3156337e-05
1.6583322e-05
1.835274e-05
1.6010274e-05
1.6065452e-05
5.5000467e-06
6.5880765e-06
-1.6390629e-05
1.0387481e-05
-5.8220238e-05
1.0948286e-05
-9.9214197e-05
7.2292847e-06
-0.00015609576
1.6042729e-05
3.3010855e-05
3.280615e-05
3.1070782e-05
3.2758454e-05
3.397417e-05
3.3684326e-05
3.2994289e-05
3.2437952e-05
3.2838314e-05
3.3295262e-05
3.1232932e-05
2.5061934e-05
1.8340103e-05
1.1000461e-05
3.3180985e-06
-2.9862555e-06
-7.6848194e-06
-1.0810052e-05
-1.2589427e-05
-1.2721266e-05
-1.1097138e-05
-7.9112639e-06
-3.1701879e-06
2.5889628e-06
8.618536e-06
1.4124106e-05
1.8226765e-05
2.0275171e-05
1.9042735e-05
1.7685806e-05
9.8825372e-06
6.0376534e-06
-8.3351477e-06
6.3817203e-06
-4.88285e-05
1.197714e-06
-8.1835e-05
5.6259083e-06
-7.1481919e-05
4.9392882e-05
3.6623829e-05
3.5146699e-05
3.3160572e-05
3.4017917e-05
3.4654899e-05
3.3515479e-05
3.2039999e-05
3.1221069e-05
3.1035706e-05
3.0480771e-05
2.8155231e-05
2.155678e-05
1.3972566e-05
6.1521558e-06
-1.3426931e-06
-7.5050145e-06
-1.1944633e-05
-1.4732981e-05
-1.5960484e-05
-1.5450082e-05
-1.3135321e-05
-9.1638345e-06
-3.6605217e-06
2.8533025e-06
9.6273034e-06
1.5779101e-05
2.0383217e-05
2.2836383e-05
2.2322061e-05
1.9960214e-05
1.3448715e-05
6.9915513e-06
-2.7359573e-06
3.542304e-06
-4.1024367e-05
-6.1159219e-06
-6.8669025e-05
-3.4362726e-06
-8.9488413e-05
1.5068172e-05
2.8743979e-05
3.4822639e-05
3.4677263e-05
3.551287e-05
3.5330286e-05
3.3391351e-05
3.0905737e-05
2.9541984e-05
2.8616162e-05
2.7730157e-05
2.4622682e-05
1.7463122e-05
9.3080473e-06
1.3342983e-06
-5.9965741e-06
-1.1906719e-05
-1.5920549e-05
-1.826821e-05
-1.8961085e-05
-1.7891875e-05
-1.500031e-05
-1.0227226e-05
-3.9057152e-06
3.4302966e-06
1.1036035e-05
1.7981015e-05
2.3204751e-05
2.595435e-05
2.5839057e-05
2.279447e-05
1.6721234e-05
9.1792185e-06
1.1771692e-06
1.7753114e-06
-3.4550533e-05
-1.2506839e-05
-6.0064676e-05
-5.8572757e-06
-5.2452545e-05
5.016786e-05
3.69007e-05
3.7521883e-05
3.6950072e-05
3.7021258e-05
3.6111776e-05
3.3289338e-05
2.9575477e-05
2.725405e-05
2.5587311e-05
2.435744e-05
2.045248e-05
1.2693513e-05
4.2242933e-06
-3.6375538e-06
-1.0691863e-05
-1.6199065e-05
-1.9840098e-05
-2.1746076e-05
-2.1906315e-05
-2.0208253e-05
-1.6574069e-05
-1.1013978e-05
-3.8414275e-06
4.3554375e-06
1.2794975e-05
2.0471816e-05
2.6297796e-05
2.9516392e-05
2.9636762e-05
2.6230413e-05
2.0135878e-05
1.1913162e-05
4.2995633e-06
7.6291169e-07
-2.9003308e-05
-1.7714727e-05
-5.4704842e-05
-1.3118112e-05
-5.862959e-05
1.9526373e-05
3.0029023e-05
3.648154e-05
3.8470038e-05
3.8940828e-05
3.7184287e-05
3.2867145e-05
2.7368193e-05
2.3894763e-05
2.1677958e-05
2.0227798e-05
1.6021277e-05
7.65284e-06
-1.1485667e-06
-8.885495e-06
-1.5564091e-05
-2.0584992e-05
-2.3752565e-05
-2.5118061e-05
-2.4612148e-05
-2.2189733e-05
-1.7736273e-05
-1.1317074e-05
-3.259397e-06
5.8325564e-06
1.5138581e-05
2.3599676e-05
2.9993751e-05
3.3587746e-05
3.3841866e-05
3.0117143e-05
2.3731978e-05
1.4949626e-05
7.0477532e-06
-8.3223333e-07
-2.5192494e-05
-2.0267523e-05
-5.015612e-05
-1.5011683e-05
-4.9439896e-05
4.7715613e-05
3.7982139e-05
3.9352958e-05
3.9872974e-05
3.9803657e-05
3.7908015e-05
3.2379054e-05
2.4794771e-05
2.0203583e-05
1.7501929e-05
1.5509288e-05
1.1156632e-05
2.2625852e-06
-6.8373115e-06
-1.4293857e-05
-2.0516494e-05
-2.5074889e-05
-2.7766396e-05
-2.8546443e-05
-2.7368804e-05
-2.4177295e-05
-1.8889302e-05
-1.1561724e-05
-2.5295931e-06
7.5604292e-06
1.7824258e-05
2.7144756e-05
3.4208238e-05
3.8178607e-05
3.8496309e-05
3.4495468e-05
2.7635267e-05
1.8291654e-05
9.3963759e-06
-2.4445596e-06
-2.1983975e-05
-2.1340712e-05
-4.7062716e-05
-2.0733993e-05
-4.9688281e-05
2.5747361e-05
3.2741117e-05
3.7814302e-05
3.9775118e-05
3.9158923e-05
3.6884435e-05
3.1035859e-05
2.2308109e-05
1.6154241e-05
1.2782282e-05
9.9946272e-06
5.2409932e-06
-3.8905405e-06
-1.2898683e-05
-1.9919778e-05
-2.5549561e-05
-2.9544984e-05
-3.1655292e-05
-3.1792244e-05
-2.9892819e-05
-2.5866269e-05
-1.96362e-05
-1.1293042e-05
-1.2180601e-06
9.9187687e-06
2.1164335e-05
3.1331348e-05
3.9000555e-05
4.3356769e-05
4.3699032e-05
3.9406942e-05
3.1990609e-05
2.2027059e-05
1.1860322e-05
-2.585379e-06
-1.941929e-05
-2.1432676e-05
-4.4073712e-05
-2.3266168e-05
-5.2876676e-05
4.5088667e-05
3.8838084e-05
3.8505461e-05
3.8957354e-05
3.6899445e-05
3.3586442e-05
2.7684077e-05
1.9467518e-05
1.2042526e-05
7.2559203e-06
3.6063502e-06
-1.5223725e-06
-1.0533821e-05
-1.9143752e-05
-2.5663619e-05
-3.0705024e-05
-3.4145338e-05
-3.5642758e-05
-3.5107196e-05
-3.2413883e-05
-2.7476406e-05
-2.0231477e-05
-1.0793472e-05
4.1941318e-07
1.2711166e-05
2.5030533e-05
3.6144418e-05
4.4509278e-05
4.9198994e-05
4.9515101e-05
4.4876031e-05
3.6785922e-05
2.6007013e-05
1.4332325e-05
-1.5198265e-06
-1.7547527e-05
-2.1526041e-05
-4.1355831e-05
-2.5942849e-05
-5.0411976e-05
3.0434919e-05
3.4456728e-05
3.6117629e-05
3.6575199e-05
3.3636729e-05
2.8876547e-05
2.2105267e-05
1.4776607e-05
7.5964595e-06
1.2140428e-06
-3.7624399e-06
-9.1700662e-06
-1.7443933e-05
-2.5451292e-05
-3.1400248e-05
-3.5832591e-05
-3.8646438e-05
-3.9486463e-05
-3.8220093e-05
-3.4709613e-05
-2.8816498e-05
-2.0466431e-05
-9.8240284e-06
2.6288125e-06
1.6157339e-05
2.9620346e-05
4.1700475e-05
5.0743721e-05
5.5783758e-05
5.6041272e-05
5.0997909e-05
4.216434e-05
3.035843e-05
1.7193428e-05
2.592781e-07
-1.6233804e-05
-2.191623e-05
-3.8815457e-05
-2.784986e-05
-5.6406644e-05
4.2822723e-05
3.6910793e-05
3.395462e-05
3.2918447e-05
2.8939772e-05
2.2816314e-05
1.6124967e-05