/*--------------------------------*- C++ -*----------------------------------*\
  =========                 |
  \\      /  F ield         | OpenFOAM: The Open Source CFD Toolbox
   \\    /   O peration     | Website:  https://openfoam.org
    \\  /    A nd           | Version:  10
     \\/     M anipulation  |
\*---------------------------------------------------------------------------*/
FoamFile
{
    format      ascii;
    class       volScalarField;
    location    "0.149409";
    object      p;
}
// * * * * * * * * * * * * * * * * * * * * * * * * * * * * * * * * * * * * * //

dimensions      [1 -1 -2 0 0 0 0];

internalField   nonuniform List<scalar> 
16320
(
0.715479
0.696166
0.698147
0.601124
0.530804
0.517949
0.520225
0.569773
0.623873
0.638672
0.640338
0.636102
0.621575
0.610431
0.60773
0.627754
0.674958
0.761226
0.861545
0.944887
0.970078
0.953352
0.926361
0.888754
0.834517
0.776114
0.730905
0.70571
0.694205
0.691328
0.697825
0.710921
0.731199
0.759568
0.795372
0.838495
0.88592
0.945803
1.02958
1.05516
0.949524
0.778496
0.647739
0.588183
0.557756
0.552732
0.553077
0.560578
0.569049
0.576273
0.583844
0.593375
0.610154
0.634453
0.660367
0.678434
0.679658
0.670375
0.634825
0.585484
0.539455
0.494237
0.458957
0.438449
0.424775
0.412718
0.402082
0.392932
0.386038
0.381002
0.377914
0.376111
0.375607
0.375068
0.374432
0.373595
0.37345
0.372875
0.371525
0.369767
0.370334
0.373704
0.383382
0.405441
0.457081
0.576848
0.766872
0.753464
0.551987
0.454132
0.41826
0.41191
0.425302
0.459349
0.508989
0.591593
0.648173
0.671623
0.675723
0.697773
0.706147
0.727262
0.770383
0.84537
0.921325
0.848034
0.706231
0.614833
0.574638
0.560461
0.577883
0.613427
0.6589
0.71751
0.714423
0.71763
0.673768
0.579626
0.568884
0.596608
0.685899
0.747586
0.749579
0.738736
0.709858
0.671537
0.630182
0.60633
0.607729
0.646961
0.731263
0.847178
0.949562
0.990546
0.950298
0.905729
0.857934
0.79396
0.737934
0.69115
0.670098
0.664791
0.669226
0.681796
0.698798
0.721035
0.74957
0.784281
0.825861
0.868196
0.921855
1.06183
1.07359
0.872096
0.700528
0.61249
0.574202
0.550545
0.542741
0.543718
0.554494
0.56588
0.575863
0.585356
0.598188
0.618234
0.645147
0.670936
0.688134
0.687089
0.687593
0.657779
0.610958
0.559953
0.507765
0.462335
0.43822
0.422997
0.410186
0.39916
0.390198
0.38306
0.377731
0.374839
0.37297
0.371998
0.371255
0.37053
0.369605
0.369405
0.369601
0.369256
0.368762
0.369819
0.373304
0.38233
0.401466
0.443524
0.534555
0.711131
0.797144
0.629014
0.479057
0.417944
0.399194
0.406949
0.435331
0.478356
0.553091
0.617045
0.650512
0.663809
0.696359
0.713158
0.749867
0.804655
0.821824
0.824273
0.712495
0.606307
0.545564
0.517792
0.508197
0.51739
0.543192
0.583149
0.741716
0.757919
0.764707
0.766442
0.681846
0.686043
0.756795
0.847426
0.872338
0.843749
0.802963
0.749293
0.687292
0.627504
0.591664
0.572925
0.583679
0.624417
0.718071
0.843505
0.927855
0.905589
0.852973
0.808966
0.749841
0.707798
0.664552
0.646917
0.643563
0.650732
0.667442
0.686774
0.709593
0.736798
0.767344
0.802895
0.838102
0.883144
1.06013
1.09917
0.855625
0.678889
0.599434
0.568888
0.54692
0.547334
0.54939
0.557071
0.566283
0.575906
0.587377
0.601439
0.624645
0.652114
0.677053
0.694744
0.691671
0.695551
0.674991
0.633096
0.57506
0.511208
0.462397
0.436511
0.420825
0.40739
0.396079
0.386687
0.379428
0.374583
0.371854
0.370072
0.368924
0.368136
0.367382
0.366241
0.365656
0.366247
0.367237
0.368313
0.370337
0.374543
0.383417
0.400859
0.437837
0.511393
0.65059
0.788672
0.698496
0.499577
0.413777
0.385322
0.386428
0.412605
0.454839
0.526514
0.601374
0.646553
0.666997
0.701421
0.724538
0.761499
0.783192
0.781366
0.736947
0.639317
0.560131
0.514752
0.491961
0.483248
0.484434
0.49945
0.53388
0.805948
0.841585
0.854046
0.864243
0.826146
0.852999
0.888115
0.893071
0.876168
0.832181
0.790533
0.74423
0.679097
0.629097
0.579396
0.536584
0.518647
0.527914
0.573845
0.66607
0.778387
0.816029
0.774356
0.742226
0.694994
0.668483
0.636667
0.626895
0.628186
0.637021
0.656769
0.675499
0.696557
0.720517
0.746116
0.775337
0.802188
0.842372
1.00303
1.12713
0.997272
0.789051
0.645375
0.581721
0.559875
0.552016
0.55527
0.559953
0.567321
0.576831
0.588278
0.6038
0.627873
0.654473
0.677168
0.689058
0.692193
0.694427
0.679228
0.638791
0.577735
0.509923
0.46092
0.434965
0.418697
0.404386
0.392569
0.383111
0.375911
0.371395
0.369031
0.367278
0.366149
0.365426
0.364752
0.363838
0.363845
0.364718
0.366477
0.369547
0.373173
0.379021
0.3897
0.40676
0.438276
0.500623
0.613603
0.726166
0.692176
0.502896
0.399997
0.368411
0.36608
0.390346
0.440486
0.521066
0.606525
0.65273
0.67761
0.714241
0.741422
0.757818
0.755825
0.732795
0.679694
0.598374
0.537243
0.500794
0.48032
0.471048
0.467372
0.474086
0.50201
0.916017
0.943926
0.933668
0.893168
0.865041
0.856033
0.84898
0.840062
0.813733
0.765167
0.71878
0.668351
0.629899
0.588265
0.541828
0.506754
0.482908
0.478817
0.489414
0.535959
0.626993
0.705588
0.680885
0.660495
0.625724
0.613118
0.59534
0.60079
0.611958
0.623141
0.644899
0.662287
0.680842
0.700663
0.721189
0.743791
0.767033
0.806903
0.896068
1.06427
1.1718
0.937493
0.714223
0.610798
0.571678
0.565826
0.560133
0.563211
0.569075
0.577814
0.589499
0.605975
0.629234
0.653385
0.673164
0.68189
0.687301
0.687315
0.674542
0.637688
0.574797
0.507879
0.461085
0.435499
0.417444
0.401762
0.389128
0.379355
0.372612
0.368387
0.366287
0.364603
0.363522
0.362897
0.362334
0.361737
0.361059
0.362851
0.365477
0.370436
0.37752
0.386057
0.399067
0.417593
0.446387
0.498042
0.596957
0.684319
0.63572
0.483255
0.376291
0.336377
0.340276
0.372004
0.445049
0.532714
0.623584
0.671079
0.702643
0.730602
0.742284
0.745969
0.730387
0.698399
0.647402
0.577136
0.524844
0.493552
0.474421
0.464002
0.457931
0.460248
0.481655
1.03092
1.00691
0.934581
0.849052
0.8006
0.780184
0.76867
0.759354
0.742538
0.721203
0.693691
0.656346
0.616761
0.573977
0.533566
0.49963
0.468581
0.443825
0.438537
0.461482
0.521095
0.59791
0.589681
0.579052
0.555639
0.550492
0.549027
0.568004
0.588494
0.607314
0.627581
0.643519
0.660104
0.676403
0.693131
0.709464
0.729815
0.759085
0.827249
0.947313
1.15711
0.955483
0.728428
0.634639
0.592804
0.568014
0.565376
0.56741
0.571947
0.579849
0.591054
0.60603
0.627827
0.648219
0.662941
0.670784
0.67444
0.673494
0.661962
0.62558
0.562252
0.503805
0.464148
0.437998
0.416978
0.399761
0.386141
0.376002
0.36951
0.36584
0.363688
0.362024
0.36096
0.360387
0.359841
0.359509
0.359855
0.361031
0.364127
0.370734
0.381162
0.394528
0.410775
0.431057
0.457967
0.503269
0.592166
0.671833
0.609558
0.473447
0.360915
0.321218
0.325746
0.375143
0.46445
0.567737
0.663682
0.71307
0.736871
0.743696
0.740315
0.73074
0.711005
0.678357
0.628729
0.567821
0.522252
0.493518
0.472518
0.457526
0.449658
0.449854
0.467613
1.10158
1.01287
0.889095
0.786011
0.735915
0.716359
0.709498
0.706124
0.696441
0.680607
0.657375
0.624304
0.587435
0.550428
0.514419
0.481162
0.450453
0.425264
0.414076
0.426203
0.461487
0.516603
0.516107
0.512548
0.497817
0.49116
0.508859
0.528734
0.561534
0.587862
0.600752
0.618258
0.633746
0.64808
0.661315
0.672422
0.687876
0.707917
0.749742
0.822563
1.00558
0.957836
0.762105
0.653936
0.607426
0.586562
0.575216
0.572092
0.57554
0.582324
0.592933
0.607553
0.6257
0.64245
0.653753
0.659939
0.6611
0.658848
0.644318
0.606555
0.54754
0.502628
0.469388
0.441011
0.417161
0.398088
0.383621
0.373214
0.366964
0.363436
0.361173
0.359531
0.358493
0.357986
0.357149
0.356469
0.356929
0.359134
0.364677
0.37453
0.388191
0.404705
0.423693
0.445048
0.470223
0.512848
0.599226
0.693352
0.615907
0.500364
0.383287
0.335053
0.338952
0.400608
0.518207
0.659545
0.739906
0.760771
0.760818
0.753311
0.742454
0.7215
0.699219
0.667211
0.619698
0.568358
0.527706
0.496627
0.47157
0.452575
0.442127
0.440994
0.456453
1.13139
0.989369
0.834001
0.737574
0.692873
0.676389
0.6699
0.665106
0.655667
0.640442
0.617665
0.588476
0.55608
0.525323
0.492656
0.463252
0.435566
0.411327
0.397842
0.403213
0.424763
0.460869
0.462228
0.461605
0.456525
0.451405
0.471941
0.489168
0.524026
0.555797
0.571142
0.59
0.604632
0.616986
0.626738
0.634167
0.644469
0.653636
0.670872
0.706713
0.804312
0.887581
0.792647
0.687195
0.629549
0.604499
0.588641
0.581202
0.58041
0.584705
0.5938
0.607274
0.62271
0.636522
0.646019
0.650361
0.649271
0.645251
0.626568
0.586018
0.538084
0.505657
0.474124
0.443219
0.417498
0.396974
0.381713
0.371129
0.364714
0.361113
0.358782
0.357159
0.356161
0.355852
0.355585
0.356604
0.355288
0.358008
0.365145
0.377594
0.395412
0.415773
0.436643
0.458009
0.481507
0.5253
0.617702
0.75342
0.688937
0.576845
0.450295
0.389804
0.39542
0.483403
0.658143
0.782945
0.807174
0.80125
0.775656
0.752959
0.734736
0.716033
0.693729
0.66124
0.623115
0.572622
0.531362
0.497607
0.470227
0.448925
0.436198
0.433075
0.4459
1.13504
0.95305
0.7872
0.697408
0.657906
0.641943
0.634258
0.627322
0.616129
0.600478
0.580587
0.556756
0.53055
0.501496
0.473461
0.447016
0.421243
0.398008
0.382681
0.382548
0.395281
0.420137
0.423595
0.426423
0.42843
0.431149
0.43998
0.465696
0.490146
0.521558
0.547658
0.560646
0.574781
0.586461
0.594637
0.599807
0.606228
0.60942
0.616186
0.63442
0.691521
0.792079
0.881965
0.747493
0.654178
0.620913
0.603541
0.59077
0.585167
0.58682
0.594429
0.606327
0.619617
0.631644
0.640309
0.644487
0.643019
0.63518
0.613691
0.572089
0.535579
0.510004
0.477184
0.444721
0.417584
0.396026
0.380142
0.369432
0.362971
0.359049
0.356609
0.354954
0.353967
0.353587
0.352874
0.353953
0.355147
0.359917
0.369823
0.385765
0.405886
0.427516
0.448799
0.46898
0.491644
0.540153
0.653028
0.875615
0.836845
0.701814
0.587334
0.536933
0.561461
0.699488
0.846126
0.871898
0.855908
0.816334
0.776515
0.752017
0.7329
0.714849
0.690375
0.664152
0.624142
0.573778
0.532087
0.496301
0.466415
0.443941
0.429716
0.424947
0.435393
1.12215
0.918467
0.750986
0.665019
0.626639
0.609624
0.600137
0.591378
0.57992
0.566182
0.549777
0.530348
0.508444
0.481654
0.455363
0.430606
0.405818
0.381924
0.363674
0.357847
0.365346
0.386508
0.394291
0.401592
0.409274
0.418202
0.42991
0.453394
0.47212
0.495726
0.519717
0.537889
0.549743
0.560108
0.567864
0.573097
0.578555
0.582071
0.587139
0.603691
0.653764
0.764176
0.932564
0.88583
0.703687
0.637842
0.612825
0.597326
0.588535
0.587153
0.593182
0.604066
0.616716
0.628539
0.637597
0.642335
0.641124
0.631544
0.609117
0.566558
0.535403
0.513257
0.47853
0.445112
0.416919
0.394984
0.378922
0.368043
0.361316
0.357124
0.354659
0.35294
0.352092
0.35185
0.351314
0.352264
0.353893
0.359507
0.371147
0.390721
0.414711
0.438301
0.459387
0.477688
0.501867
0.561067
0.724259
1.07655
1.01812
0.841195
0.753943
0.738303
0.826334
0.893467
0.906903
0.888596
0.849203
0.809328
0.77282
0.750003
0.732776
0.714091
0.694862
0.663682
0.62136
0.572982
0.530148
0.491235
0.459479
0.436871
0.422406
0.416766
0.424685
1.09571
0.890162
0.725414
0.640918
0.601525
0.583113
0.571686
0.562353
0.551904
0.540262
0.526528
0.509604
0.49019
0.464821
0.438689
0.41329
0.386466
0.35911
0.33707
0.327858
0.332976
0.353458
0.369127
0.381309
0.392552
0.414377
0.430998
0.449939
0.466719
0.484318
0.502256
0.518827
0.52965
0.539903
0.547745
0.554653
0.561738
0.569511
0.580673
0.605544
0.665088
0.790822
0.973286
0.947346
0.757387
0.652163
0.620599
0.602216
0.590885
0.587298
0.591819
0.602089
0.614905
0.627728
0.638088
0.64465
0.644842
0.635136
0.613207
0.571892
0.541036
0.516067
0.478742
0.444015
0.415341
0.393356
0.37743
0.366518
0.359577
0.355215
0.352702
0.351247
0.350538
0.350524
0.350525
0.351571
0.35439
0.362658
0.37819
0.400431
0.425433
0.448014
0.468183
0.483674
0.512038
0.591353
0.843512
1.33827
1.14868
0.915976
0.794671
0.759192
0.799888
0.848378
0.861133
0.857744
0.826452
0.791481
0.764158
0.745557
0.729678
0.713059
0.690246
0.665379
0.61734
0.569396
0.522773
0.480574
0.448555
0.427284
0.414303
0.40871
0.413924
1.06085
0.868256
0.710428
0.62529
0.584111
0.563581
0.551178
0.541502
0.53226
0.522058
0.510322
0.496162
0.474858
0.447376
0.417332
0.386744
0.356806
0.326669
0.303861
0.295514
0.300651
0.319413
0.342987
0.362074
0.379129
0.408088
0.430639
0.452758
0.467686
0.481981
0.495707
0.508471
0.517302
0.526751
0.534773
0.542989
0.55243
0.564214
0.581442
0.612676
0.679929
0.816435
0.984292
0.959039
0.788144
0.673893
0.621702
0.607649
0.59254
0.587012
0.590551
0.601093
0.615218
0.629991
0.642949
0.653036
0.656768
0.650152
0.631671
0.588881
0.54844
0.516345
0.476504
0.440665
0.412031
0.390602
0.375192
0.36454
0.357586
0.353231
0.350857
0.349671
0.349227
0.349429
0.349833
0.351589
0.355799
0.365796
0.38343
0.407324
0.433276
0.455468
0.474267
0.487517
0.520511
0.626097
0.97123
1.53323
1.25368
0.962388
0.807177
0.757725
0.760524
0.788873
0.800217
0.800625
0.78385
0.764818
0.747952
0.733389
0.719673
0.7043
0.682591
0.659078
0.611105
0.558341
0.5058
0.4638
0.434265
0.416173
0.405109
0.400051
0.405145
1.02174
0.850218
0.70421
0.618371
0.57481
0.551304
0.537536
0.527661
0.518676
0.508864
0.497266
0.480718
0.453778
0.417264
0.380175
0.346432
0.316536
0.291328
0.271905
0.267298
0.272775
0.290508
0.317084
0.342769
0.366212
0.392967
0.429346
0.454995
0.47324
0.485768
0.496085
0.505104
0.512486
0.520369
0.527864
0.536785
0.547677
0.562376
0.583223
0.61527
0.683992
0.815088
0.967878
0.912687
0.754678
0.686187
0.631876
0.609736
0.595135
0.588056
0.590966
0.602178
0.618305
0.635916
0.652447
0.668007
0.677311
0.67872
0.670677
0.624815
0.560203
0.512928
0.47004
0.434108
0.406508
0.386342
0.371914
0.36185
0.355215
0.3509
0.349156
0.348288
0.348163
0.348662
0.349469
0.350253
0.353703
0.364277
0.383603
0.408891
0.4362
0.459573
0.476717
0.490588
0.527882
0.660715
1.11356
1.62024
1.33005
1.00891
0.830522
0.760499
0.742801
0.748755
0.752421
0.752373
0.743092
0.735962
0.728916
0.719136
0.708194
0.693904
0.673628
0.649537
0.595383
0.531264
0.478844
0.442029
0.417719
0.404975
0.396301
0.391433
0.395426
0.981444
0.833576
0.703755
0.619435
0.572393
0.545963
0.529488
0.517984
0.50727
0.49515
0.477995
0.450189
0.410734
0.36742
0.331198
0.302508
0.279098
0.261171
0.248658
0.246677
0.252051
0.266959
0.292034
0.321973
0.351184
0.378388
0.423521
0.458537
0.482214
0.496084
0.502592
0.507816
0.513101
0.519339
0.524694
0.533691
0.545043
0.560925
0.582516
0.617735
0.684433
0.793317
0.93743
0.878936
0.747318
0.671737
0.634391
0.613587
0.598396
0.59017
0.592732
0.605026
0.623721
0.645029
0.665884
0.686069
0.704437
0.714298
0.724107
0.693752
0.602552
0.511097
0.458806
0.423815
0.39851
0.380356
0.367416
0.35835
0.3519
0.348926
0.347518
0.347029
0.347284
0.348196
0.349708
0.352129
0.357586
0.36984
0.389483
0.414988
0.441906
0.463315
0.47862
0.493141
0.535361
0.697615
1.24198
1.63786
1.3734
1.04905
0.844936
0.759937
0.727691
0.718483
0.716443
0.716718
0.717337
0.712824
0.70698
0.700329
0.691363
0.680166
0.660729
0.628027
0.557874
0.491206
0.448076
0.420106
0.402423
0.393088
0.387899
0.384756
0.389233
0.94183
0.817222
0.706209
0.626907
0.576757
0.545714
0.52485
0.508309
0.49138
0.469631
0.437447
0.393943
0.351607
0.315891
0.289949
0.26987
0.253882
0.242026
0.234207
0.233526
0.23797
0.24933
0.270041
0.297877
0.331356
0.365304
0.410989
0.463769
0.495826
0.511127
0.516917
0.517584
0.518584
0.520811
0.524785
0.532352
0.542988
0.558443
0.579064
0.612971
0.681933
0.793142
0.896408
0.857498
0.72664
0.655662
0.634591
0.616457
0.601453
0.593106
0.595171
0.608525
0.629983
0.655562
0.681284
0.705814
0.729956
0.744408
0.770723
0.760301
0.650886
0.521063
0.44388
0.410536
0.388351
0.372679
0.361626
0.353624
0.348899
0.346766
0.345918
0.345894
0.346506
0.347712
0.34953
0.352586
0.359057
0.372711
0.394372
0.420409
0.445794
0.465154
0.478408
0.494663
0.54229
0.72952
1.30967
1.62189
1.39554
1.09
0.864432
0.758201
0.715279
0.700498
0.697312
0.697011
0.694536
0.6906
0.685546
0.67937
0.672445
0.661431
0.63481
0.577813
0.502741
0.451105
0.422315
0.402883
0.391342
0.38526
0.380054
0.377658
0.383242
0.903634
0.800402
0.709172
0.63871
0.586883
0.549122
0.519482
0.492014
0.460646
0.421554
0.376732
0.336264
0.306028
0.283585
0.266121
0.251992
0.240536
0.232013
0.226286
0.22584
0.229051
0.237116
0.252752
0.275909
0.307058
0.347289
0.399585
0.46569
0.510488
0.528982
0.535557
0.53302
0.527746
0.524707
0.527094
0.532678
0.542262
0.557092
0.57793
0.612748
0.679993
0.794801
0.891256
0.882
0.767832
0.652979
0.62695
0.619646
0.605611
0.596395
0.59759
0.611155
0.634856
0.664657
0.695572
0.724304
0.750121
0.766618
0.799798
0.819371
0.685731
0.528137
0.432954
0.395315
0.375993
0.363385
0.354569
0.348895
0.346007
0.344754
0.344447
0.344876
0.345849
0.347292
0.349025
0.351897
0.359392
0.375062
0.398332
0.423788
0.446691
0.464927
0.477109
0.495686
0.549922
0.755148
1.31976
1.58877
1.40125
1.1319
0.889648
0.765839
0.708707
0.690297
0.68223
0.678473
0.674963
0.670216
0.664362
0.657571
0.648579
0.6286
0.582079
0.509083
0.450672
0.419323
0.402079
0.390949
0.383259
0.378573
0.375275
0.374586
0.378764
0.867283
0.783556
0.711434
0.651777
0.599506
0.551651
0.506935
0.460427
0.410655
0.363176
0.327338
0.302186
0.283893
0.269102
0.255979
0.24477
0.235299
0.227989
0.222634
0.221632
0.223495
0.228689
0.239625
0.258185
0.28571
0.326787
0.388023
0.458928
0.517253
0.547683
0.555793
0.550573
0.537839
0.531371
0.531111
0.534938
0.543364
0.557797
0.5791
0.61272
0.674164
0.790104
0.920264
0.954199
0.856071
0.71262
0.638378
0.625477
0.610847
0.599804
0.599762
0.612154
0.63682
0.669204
0.704633
0.738123
0.76546
0.780038
0.825223
0.859029
0.703607
0.518824
0.416798
0.37716
0.362622
0.352769
0.347217
0.344103
0.342877
0.342802
0.343077
0.343933
0.345287
0.347104
0.349431
0.35372
0.363419
0.380332
0.402603
0.425646
0.447103
0.465105
0.477119
0.498301
0.561819
0.781492
1.29588
1.52814
1.38231
1.16196
0.924444
0.779371
0.712373
0.682485
0.669171
0.662118
0.656655
0.649937
0.640932
0.628932
0.60992
0.571409
0.508183
0.44772
0.415257
0.398882
0.389704
0.383239
0.377749
0.37272
0.370381
0.37136
0.375194
0.832608
0.766609
0.711536
0.66251
0.608375
0.546195
0.47855
0.412358
0.357836
0.323933
0.303032
0.288409
0.276303
0.265088
0.254182
0.244082
0.235027
0.227616
0.221567
0.219438
0.219879
0.222608
0.22954
0.243525
0.267141
0.306249
0.371191
0.457626
0.530384
0.56372
0.567929
0.561671
0.55039
0.540114
0.536244
0.538894
0.546446
0.560817
0.583389
0.618731
0.681557
0.798474
0.965844
1.02639
0.945055
0.774493
0.67814
0.638463
0.616872
0.603649
0.601922
0.612532
0.636666
0.670129
0.707439
0.743726
0.774361
0.791098
0.836862
0.882025
0.688747
0.485442
0.390658
0.356757
0.346632
0.342442
0.340258
0.339596
0.340044
0.340405
0.34167
0.342992
0.34469
0.346713
0.348918
0.353457
0.363723
0.380149
0.401351
0.423471
0.444537
0.462547
0.475867
0.502424
0.578591
0.811093
1.25181
1.43572
1.33421
1.17109
0.960074
0.800379
0.716399
0.67391
0.6536
0.642735
0.633885
0.622238
0.606025
0.58296
0.548988
0.498499
0.443046
0.411437
0.396476
0.389266
0.384841
0.380738
0.376355
0.370616
0.368234
0.368067
0.372033
0.798632
0.748406
0.707385
0.666642
0.608109
0.524193
0.434087
0.364417
0.324956
0.305046
0.293708
0.284116
0.275924
0.266837
0.256601
0.246491
0.237164
0.229031
0.221906
0.218655
0.217417
0.218281
0.222033
0.23128
0.250128
0.285627
0.348157
0.446983
0.542444
0.584255
0.5876
0.575422
0.555272
0.546331
0.542726
0.543905
0.551198
0.56604
0.590498
0.630333
0.697325
0.812267
0.978797
1.0769
0.996202
0.835552
0.7233
0.668723
0.630827
0.611096
0.605724
0.613721
0.635491
0.668126
0.705895
0.743395
0.775558
0.798028
0.839016
0.876959
0.634397
0.439271
0.362267
0.338329
0.33365
0.335399
0.334551
0.335973
0.337747
0.339029
0.340466
0.342085
0.344119
0.346392
0.348692
0.352998
0.362652
0.378398
0.39862
0.420683
0.441122
0.459049
0.475755
0.509285
0.600794
0.848959
1.19801
1.32698
1.25923
1.15356
0.98112
0.825352
0.716572
0.657226
0.62817
0.611435
0.595329
0.575436
0.549178
0.516544
0.477714
0.436078
0.406666
0.394113
0.38847
0.386461
0.384911
0.380662
0.376359
0.369253
0.366223
0.365696
0.369105
0.76352
0.726325
0.69589
0.660006
0.591038
0.484904
0.38976
0.335683
0.310331
0.298331
0.291516
0.285566
0.280378
0.272132
0.262142
0.251806
0.241634
0.232372
0.223268
0.218817
0.215951
0.214843
0.216393
0.221869
0.234921
0.26367
0.324163
0.428602
0.544316
0.605885
0.609855
0.589943
0.558987
0.551036
0.548919
0.550483
0.556662
0.571338
0.596563
0.638538
0.704549
0.817902
0.989637
1.12157
1.01629
0.877021
0.771678
0.697281
0.646861
0.621333
0.612276
0.61709
0.635125
0.665785
0.702396
0.73972
0.772694
0.798326
0.838861
0.849068
0.568095
0.398472
0.340373
0.323609
0.322059
0.326606
0.329429
0.332826
0.33537
0.337464
0.339319
0.341127
0.343548
0.346101
0.348643
0.352614
0.361465
0.376477
0.396035
0.417806
0.437378
0.455826
0.476568
0.518325
0.626687
0.887016
1.1459
1.22029
1.16954
1.10699
0.989511
0.838761
0.707492
0.62662
0.58391
0.556644
0.531975
0.505129
0.47627
0.447118
0.42036
0.398888
0.387835
0.38497
0.384485
0.386533
0.386869
0.382897
0.377738
0.369329
0.36512
0.364006
0.365898
0.724918
0.697588
0.674102
0.639088
0.558522
0.443933
0.362965
0.32301
0.305188
0.297073
0.29337
0.290263
0.286666
0.278666
0.268861
0.258162
0.247043
0.236228
0.226024
0.219646
0.215178
0.212217
0.211756
0.214484
0.223027
0.244141
0.293612
0.396614
0.544636
0.634157
0.634431
0.599465
0.557866
0.553993
0.554361
0.556577
0.562611
0.576378
0.599062
0.636947
0.698713
0.810366
0.981363
1.15762
1.01581
0.894624
0.792488
0.716203
0.662052
0.631764
0.620262
0.622593
0.636706
0.66451
0.699312
0.735632
0.767968
0.79535
0.841645
0.814064
0.51526
0.368476
0.325477
0.315556
0.317512
0.321485
0.32566
0.329922
0.333116
0.335772
0.338059
0.340228
0.343025
0.345807
0.348584
0.35249
0.360158
0.372937
0.389705
0.409607
0.429869
0.45131
0.477448
0.529195
0.654572
0.916454
1.09912
1.12764
1.08393
1.0532
0.977464
0.837357
0.686884
0.581399
0.522179
0.485797
0.458185
0.43458
0.4144
0.398233
0.386934
0.380509
0.377724
0.380536
0.3841
0.38799
0.388652
0.384915
0.379954
0.370019
0.363853
0.361271
0.361141
0.682039
0.661797
0.642338
0.607074
0.523109
0.417552
0.350836
0.318821
0.304642
0.299131
0.297209
0.296086
0.292833
0.285498
0.276121
0.265087
0.252949
0.240533
0.229827
0.221371
0.215216
0.210518
0.207871
0.208926
0.214037
0.229196
0.268761
0.362449
0.529911
0.658639
0.661018
0.610168
0.555585
0.555454
0.557439
0.561844
0.568081
0.578081
0.596178
0.621835
0.68083
0.790223
0.986423
1.1852
1.06786
0.901458
0.800505
0.724326
0.673685
0.642968
0.629802
0.63024
0.640866
0.664791
0.697647
0.732976
0.764989
0.79361
0.845062
0.781045
0.473771
0.345086
0.312392
0.310037
0.313262
0.317088
0.322452
0.32725
0.330803
0.333956
0.336776
0.339404
0.342513
0.345569
0.348675
0.352039
0.358444
0.370158
0.386155
0.406053
0.426495
0.450113
0.480747
0.541688
0.68363
0.927636
1.05094
1.04946
1.01909
1.0021
0.960253
0.833317
0.669539
0.536872
0.463915
0.42486
0.401864
0.386962
0.377348
0.371921
0.36984
0.370921
0.37364
0.378458
0.384795
0.389032
0.390181
0.387501
0.378854
0.371321
0.362438
0.357456
0.356071
0.636518
0.621311
0.605172
0.572579
0.495976
0.404878
0.347055
0.318925
0.306778
0.302359
0.301598
0.301474
0.298645
0.292576
0.283565
0.272226
0.25936
0.245218
0.23419
0.224023
0.215912
0.209559
0.205135
0.204143
0.207375
0.218742
0.250912
0.335517
0.509888
0.671673
0.67906
0.618869
0.553518
0.556763
0.560492
0.562657
0.568948
0.577208
0.587984
0.617863
0.668966
0.778861
0.981108
1.19013
1.11389
0.926827
0.811907
0.733841
0.681714
0.653838
0.640517
0.639561
0.64763
0.667461
0.697737
0.732449
0.764834
0.794664
0.853622
0.746073
0.437078
0.326675
0.302212
0.303878
0.309339
0.314753
0.319855
0.325138
0.328785
0.332253
0.335606
0.33873
0.342112
0.345439
0.348631
0.351915
0.357544
0.368656
0.383959
0.403424
0.424495
0.450221
0.484602
0.554614
0.712552
0.921761
1.00183
0.990456
0.972565
0.964689
0.937653
0.833766
0.666459
0.514173
0.428572
0.388694
0.370457
0.362131
0.358779
0.35835
0.360931
0.365929
0.371931
0.377927
0.386023
0.389873
0.390766
0.388138
0.379918
0.369035
0.358043
0.350181
0.348986
0.591808
0.58092
0.569326
0.5432
0.479372
0.400681
0.347073
0.321307
0.309818
0.305802
0.305616
0.30597
0.304345
0.299379
0.290645
0.279082
0.265414
0.251027
0.239042
0.227442
0.217411
0.209469
0.203365
0.200338
0.202392
0.210945
0.23831
0.316662
0.493681
0.672406
0.681653
0.619965
0.553164
0.557605
0.561976
0.563939
0.569998
0.575201
0.582827
0.604586
0.654042
0.754972
0.941371
1.15922
1.11928
0.955484
0.829019
0.750037
0.697651
0.667555
0.653675
0.651249
0.657097
0.673209
0.700373
0.734414
0.767661
0.796991
0.867472
0.700528
0.40481
0.311967
0.294074
0.298781
0.30637
0.312613
0.318166
0.323102
0.327029
0.330777
0.334582
0.33826
0.342051
0.345583
0.348772
0.351795
0.357135
0.367999
0.382879
0.402395
0.423794
0.451062
0.48911
0.568057
0.737077
0.903457
0.955527
0.944256
0.937584
0.936216
0.919812
0.842278
0.680056
0.51146
0.415382
0.372357
0.355783
0.350032
0.348742
0.351219
0.356276
0.363122
0.370687
0.377938
0.386721
0.390954
0.391724
0.387849
0.37994
0.369103
0.357956
0.347808
0.339586
0.551128
0.544678
0.538367
0.520793
0.469436
0.399905
0.349106
0.324043
0.312566
0.308716
0.309208
0.310016
0.3094
0.305108
0.296862
0.285299
0.271117
0.257547
0.244465
0.231568
0.219802
0.210066
0.202337
0.197509
0.198326
0.205059
0.229175
0.302835
0.480695
0.667934
0.677743
0.616527
0.552044
0.556832
0.563333
0.5637
0.569083
0.57338
0.581628
0.60328
0.655625
0.749391
0.915492
1.1048
1.08893
0.960064
0.850262
0.771489
0.717305
0.684262
0.669443
0.665547
0.669413
0.682276
0.706327
0.739052
0.773167
0.801148
0.875696
0.644953
0.372551
0.300142
0.287965
0.296289
0.303612
0.310138
0.316191
0.321298
0.325548
0.329477
0.333815
0.338276
0.342422
0.34616
0.349371
0.351897
0.357267
0.368687
0.384674
0.404293
0.425585
0.453922
0.494414
0.5789
0.748251
0.878479
0.9137
0.906735
0.909134
0.914464
0.908611
0.852857
0.706876
0.526101
0.414891
0.366928
0.348603
0.343418
0.343112
0.347258
0.353619
0.361427
0.369758
0.377695
0.387273
0.391891
0.392829
0.388474
0.37977
0.368285
0.356975
0.346316
0.338488
0.51649
0.513558
0.512413
0.503768
0.461718
0.399487
0.350601
0.325717
0.314508
0.310544
0.311786
0.313456
0.313373
0.309845
0.302116
0.290922
0.276731
0.264174
0.250406
0.236314
0.222907
0.211345
0.201967
0.195513
0.194789
0.200367
0.222314
0.29162
0.467736
0.659199
0.6668
0.60618
0.549662
0.555818
0.563328
0.562297
0.566962
0.57218
0.581295
0.607519
0.652839
0.749576
0.899809
1.03933
1.02945
0.931736
0.850526
0.783102
0.735078
0.701994
0.686637
0.681789
0.684275
0.695223
0.716713
0.747268
0.780547
0.805902
0.869038
0.571653
0.33917
0.287544
0.285779
0.292206
0.300483
0.308038
0.314236
0.319917
0.324166
0.328643
0.333605
0.338814
0.343299
0.347287
0.350724
0.353979
0.360443
0.371495
0.386079
0.404436
0.42627
0.456085
0.499546
0.589173
0.748692
0.85192
0.878287
0.877111
0.885938
0.897435
0.898619
0.864107
0.738183
0.552859
0.424327
0.366523
0.345255
0.339384
0.339695
0.344828
0.351958
0.360285
0.368945
0.377089
0.387116
0.392546
0.394012
0.390183
0.381152
0.369029
0.357487
0.345812
0.336507
0.488024
0.488009
0.491025
0.488804
0.453882
0.39702
0.350697
0.325896
0.314985
0.311234
0.312966
0.315615
0.316128
0.31371
0.306359
0.295521
0.283205
0.270751
0.256607
0.241595
0.226827
0.213533
0.202566
0.194475
0.191916
0.196837
0.217341
0.283602
0.456319
0.652785
0.65418
0.591076
0.542173
0.553639
0.56181
0.559145
0.563275
0.571547
0.584112
0.60819
0.659832
0.753328
0.867054
0.958224
0.953671
0.894555
0.839839
0.78597
0.744096
0.71704
0.702899
0.698371
0.701242
0.712092
0.731466
0.758846
0.788679
0.809325
0.827007
0.485882
0.310671
0.276083
0.278675
0.289791
0.298292
0.305517
0.312369
0.318774
0.322999
0.328377
0.334145
0.339915
0.344757
0.348879
0.352464
0.355728
0.362349
0.373422
0.387383
0.405151
0.427629
0.458418
0.505272
0.600161
0.740394
0.826567
0.848357
0.852723
0.867138
0.882587
0.888928
0.870187
0.768719
0.587134
0.439253
0.369959
0.344069
0.336896
0.337367
0.343209
0.350853
0.359521
0.368351
0.376466
0.38636
0.392851
0.394967
0.39218
0.383289
0.371556
0.359255
0.346855
0.336611
0.466562
0.464177
0.472374
0.475144
0.444256
0.391042
0.346987
0.323313
0.313124
0.30989
0.312482
0.316253
0.317519
0.316482
0.309901
0.300139
0.289703
0.277422
0.263044
0.247387
0.231492
0.216528
0.20381
0.194266
0.190114
0.194465
0.214653
0.281616
0.454831
0.644197
0.636907
0.572781
0.53183
0.550009
0.557043
0.553355
0.558396
0.569682
0.585215
0.611404
0.654852
0.737124
0.825757
0.884361
0.882169
0.843009
0.811016
0.776455
0.745507
0.724619
0.714023
0.712967
0.7173
0.729308
0.747416
0.769549
0.793272
0.806336
0.739596
0.402026
0.2878
0.267518
0.272501
0.285158
0.293927
0.302817
0.310106
0.316568
0.322479
0.328676
0.3353
0.341487
0.346585
0.350876
0.354663
0.358373
0.365001
0.375551
0.388401
0.405504
0.428316
0.459504
0.508681
0.604802
0.729905
0.802578
0.822953
0.831857
0.850002
0.867222
0.8769
0.870049
0.793705
0.623071
0.459088
0.376231
0.344212
0.335225
0.335518
0.341834
0.350042
0.358996
0.367996
0.375983
0.385737
0.393115
0.396261
0.395054
0.387208
0.376425
0.363253
0.349735
0.338005
0.453435
0.444291
0.454286
0.463702
0.432419
0.380809
0.339258
0.317072
0.307765
0.305839
0.309603
0.31491
0.317444
0.317374
0.312332
0.304395
0.295483
0.283708
0.269416
0.253403
0.236655
0.220299
0.205888
0.194814
0.18947
0.193656
0.214753
0.284517
0.459634
0.632873
0.610386
0.547837
0.520012
0.545088
0.547586
0.543551
0.550684
0.564308
0.572704
0.607036
0.65149
0.710884
0.789405
0.825396
0.816391
0.777085
0.761885
0.746498
0.734334
0.727391
0.719689
0.720003
0.726125
0.738897
0.756459
0.7744
0.786166
0.782017
0.59944
0.34724
0.274943
0.262509
0.267781
0.278773
0.290357
0.299191
0.308114
0.314922
0.322281
0.329621
0.337039
0.343386
0.348618
0.353084
0.357145
0.361112
0.367307
0.376855
0.388816
0.405159
0.427867
0.459987
0.510697
0.605585
0.717694
0.781746
0.802191
0.814232
0.83436
0.851984
0.86282
0.863307
0.813379
0.655077
0.480396
0.384168
0.345095
0.334052
0.333693
0.340476
0.349135
0.358508
0.36771
0.375769
0.385126
0.393426
0.398104
0.398897
0.394056
0.384283
0.37024
0.355258
0.341543
0.448799
0.433575
0.44151
0.446657
0.418915
0.366434
0.327537
0.307286
0.299516
0.298644
0.304196
0.311287
0.315503
0.316191
0.313358
0.307653
0.300341
0.289413
0.275466
0.259306
0.242127
0.224821
0.208866
0.196183
0.189958
0.194467
0.217356
0.293826
0.47617
0.613833