/*--------------------------------*- C++ -*----------------------------------*\
  =========                 |
  \\      /  F ield         | OpenFOAM: The Open Source CFD Toolbox
   \\    /   O peration     | Website:  https://openfoam.org
    \\  /    A nd           | Version:  10
     \\/     M anipulation  |
\*---------------------------------------------------------------------------*/
FoamFile
{
    format      ascii;
    class       volScalarField;
    location    "0.149409";
    object      rho;
}
// * * * * * * * * * * * * * * * * * * * * * * * * * * * * * * * * * * * * * //

dimensions      [1 -3 0 0 0 0 0];

internalField   nonuniform List<scalar> 
16320
(
0.563257
0.557952
0.77915
1.0076
0.810647
0.620928
0.705677
1.09707
1.29825
1.30851
1.18431
1.04495
0.910065
0.749301
0.59553
0.537079
0.567112
0.65333
0.768578
0.851426
0.84521
0.67563
0.514177
0.494238
0.612086
0.672774
0.638212
0.548623
0.455295
0.41627
0.414362
0.419291
0.428942
0.442312
0.458968
0.476204
0.493236
0.519669
0.634598
1.13468
1.50878
1.31949
0.77851
0.404614
0.301539
0.352367
0.318871
0.230158
0.177376
0.160655
0.162921
0.187442
0.281482
0.338644
0.356566
0.374332
0.545461
0.888089
0.928695
0.73496
0.488902
0.350141
0.253562
0.154732
0.121207
0.114237
0.111954
0.119209
0.124473
0.123002
0.108137
0.0865318
0.0838265
0.0835109
0.0850437
0.112114
0.256583
0.457606
0.644665
0.784591
0.865601
0.909436
0.937177
0.982564
1.06513
1.25799
1.56788
1.53553
1.15624
0.816696
0.613543
0.586275
0.625239
0.709035
0.837
1.01444
1.06949
0.869526
0.724137
0.728162
0.827716
1.05709
1.18273
1.31009
1.71709
1.69501
1.45459
1.1919
1.08761
1.08855
1.14719
1.19841
1.2263
0.463457
0.459366
0.544989
0.937188
0.880833
0.720546
0.778566
1.17488
1.37928
1.32882
1.09619
0.88163
0.689928
0.566855
0.509167
0.497211
0.532247
0.613396
0.74685
0.853333
0.876694
0.714553
0.531046
0.505417
0.652128
0.769921
0.743244
0.650263
0.494407
0.414305
0.406744
0.412824
0.423309
0.436913
0.453256
0.469507
0.488106
0.559942
1.11044
1.80749
1.73155
1.40326
0.898341
0.411845
0.21745
0.219679
0.248959
0.193895
0.164483
0.15915
0.166552
0.210736
0.300896
0.346089
0.365326
0.404984
0.580712
0.914197
0.965882
0.816385
0.650482
0.506671
0.33247
0.185452
0.139614
0.130194
0.129874
0.136387
0.134623
0.122062
0.0953552
0.084305
0.0828823
0.0828736
0.0849859
0.119297
0.277076
0.483374
0.665999
0.794344
0.868945
0.909866
0.935064
0.974478
1.04584
1.18131
1.47865
1.61275
1.34107
1.01498
0.693376
0.577694
0.598853
0.671551
0.782378
0.951293
1.04041
0.890225
0.795864
0.830823
0.937313
1.02599
1.00495
1.30702
1.54373
1.49322
1.33019
1.16272
1.01577
1.00631
1.05784
1.09753
1.12
0.429447
0.432413
0.477414
0.778572
0.954768
0.844787
0.907323
1.23703
1.39972
1.3639
1.15664
0.931149
0.713005
0.564554
0.507388
0.495922
0.501729
0.537103
0.65139
0.782222
0.844574
0.711618
0.523502
0.496446
0.645544
0.791166
0.770614
0.683804
0.515216
0.415255
0.402118
0.407428
0.418243
0.431845
0.444726
0.459946
0.496093
0.753251
1.58047
2.2201
2.04917
1.72255
1.22432
0.610076
0.213481
0.170547
0.177545
0.164888
0.158849
0.160401
0.178445
0.237606
0.313978
0.35369
0.380599
0.435547
0.593872
0.943053
1.01892
0.952896
0.794812
0.584005
0.361233
0.197735
0.155955
0.145719
0.143385
0.143588
0.135674
0.113172
0.0875406
0.083312
0.0822258
0.082581
0.085172
0.119883
0.278194
0.483354
0.66565
0.793386
0.868756
0.911487
0.93676
0.97181
1.03707
1.14238
1.37205
1.60103
1.44732
1.10249
0.843737
0.597095
0.573084
0.637696
0.740687
0.903956
1.03265
0.962097
0.880898
0.914695
0.94695
0.894132
0.823972
1.19511
1.37619
1.36504
1.25828
1.14019
0.988179
0.96817
1.01283
1.03785
1.04747
0.430826
0.439841
0.474672
0.669346
0.936271
0.975086
0.980658
1.099
1.20673
1.16624
1.03996
0.895155
0.761208
0.650816
0.573827
0.4859
0.451284
0.465768
0.556974
0.66702
0.748344
0.66449
0.492719
0.468213
0.598198
0.769964
0.768858
0.697688
0.538177
0.42543
0.403926
0.403849
0.411796
0.423926
0.435921
0.455087
0.521292
0.855243
1.60145
2.32534
2.48545
2.09436
1.48771
0.895207
0.386646
0.169057
0.158251
0.15762
0.158391
0.165362
0.190611
0.25258
0.32027
0.361867
0.391398
0.380864
0.607276
0.973027
1.06897
1.003
0.829474
0.594943
0.36199
0.199495
0.164129
0.15719
0.153546
0.149126
0.133168
0.102511
0.0850311
0.082635
0.0818744
0.0824831
0.085352
0.119133
0.27034
0.468537
0.64895
0.778695
0.860587
0.910334
0.942595
0.977675
1.03737
1.13093
1.31014
1.50346
1.38985
1.06124
0.860863
0.677541
0.570834
0.61166
0.719782
0.889064
1.04462
1.03863
0.925983
0.924204
0.893333
0.740849
0.720897
0.952973
1.18752
1.26548
1.21132
1.12075
0.974492
0.949848
0.987452
0.99719
0.9907
0.459055
0.466162
0.493056
0.598969
0.784171
0.875686
0.887728
0.892689
0.872588
0.745921
0.559708
0.471309
0.46715
0.445471
0.397209
0.36012
0.361696
0.436285
0.518907
0.578792
0.640462
0.589578
0.444495
0.422884
0.517591
0.709535
0.741323
0.69665
0.544506
0.419426
0.395594
0.39491
0.401725
0.412046
0.423838
0.446321
0.508761
0.80123
1.32601
2.0467
2.79536
2.20369
1.402
0.999799
0.669939
0.310026
0.160774
0.157144
0.158941
0.168428
0.193661
0.253396
0.318341
0.353558
0.355513
0.3606
0.680393
0.999703
1.07395
1.00338
0.807402
0.547222
0.32081
0.193249
0.167726
0.163548
0.160728
0.150896
0.12701
0.0931999
0.0839825
0.082059
0.0816574
0.0825403
0.086212
0.117803
0.248198
0.428563
0.604528
0.743656
0.841768
0.907491
0.951242
0.991529
1.0476
1.12992
1.283
1.43455
1.24373
0.87495
0.780052
0.674686
0.595491
0.612174
0.744568
0.905653
1.06276
1.08092
0.954602
0.902996
0.749981
0.64027
0.652584
0.758272
1.01161
1.16092
1.14637
1.08525
0.965733
0.938112
0.971316
0.971969
0.941434
0.490331
0.485452
0.491701
0.530062
0.623481
0.680161
0.688865
0.653929
0.530378
0.41325
0.370746
0.349408
0.34242
0.332895
0.340684
0.38273
0.441158
0.482621
0.505685
0.525078
0.553863
0.50596
0.394014
0.376291
0.431549
0.62598
0.702005
0.695866
0.566209
0.419049
0.378444
0.377605
0.385789
0.39587
0.407181
0.428634
0.482052
0.670888
1.0641
1.91332
2.73191
1.97287
0.994258
0.607843
0.561162
0.515624
0.205211
0.159515
0.160214
0.168965
0.191149
0.237978
0.287367
0.306664
0.287946
0.373746
0.710276
0.988206
1.05012
0.94672
0.694196
0.421566
0.241136
0.180994
0.169237
0.167262
0.163186
0.148177
0.115358
0.0880923
0.0833579
0.08173
0.0812949
0.0825882
0.088284
0.120577
0.240398
0.410191
0.581427
0.724594
0.833213
0.910344
0.964459
1.01004
1.06463
1.14179
1.27864
1.40655
1.07447
0.667761
0.644052
0.6377
0.613293
0.663147
0.806237
0.951599
1.09734
1.13607
0.969243
0.813012
0.625161
0.584727
0.618294
0.676075
0.88016
1.09189
1.09341
1.03377
0.939009
0.919451
0.953662
0.947998
0.895058
0.511004
0.489184
0.463942
0.456307
0.470914
0.477827
0.476362
0.440707
0.384772
0.362303
0.35139
0.358983
0.380901
0.395599
0.426464
0.466715
0.490042
0.494735
0.48981
0.493486
0.493324
0.431061
0.351305
0.338594
0.366181
0.52977
0.667005
0.70135
0.626951
0.459995
0.363261
0.353888
0.360904
0.373757
0.386861
0.405743
0.447878
0.563696
1.04217
1.86602
2.41253
2.00147
1.03262
0.462061
0.308388
0.291973
0.250876
0.167178
0.16419
0.170481
0.190409
0.223527
0.247648
0.260894
0.278391
0.380735
0.699923
0.952919
0.989282
0.841068
0.546011
0.300805
0.19915
0.177564
0.171531
0.170123
0.163346
0.14156
0.103411
0.0864905
0.0830495
0.0814944
0.0809081
0.0824893
0.0924247
0.140511
0.252331
0.413824
0.582624
0.730005
0.845405
0.926769
0.984493
1.03263
1.08353
1.1588
1.29806
1.40624
0.912499
0.545622
0.550142
0.626855
0.63712
0.714446
0.883978
1.06443
1.16655
1.15948
0.924193
0.683596
0.588188
0.558755
0.559446
0.587818
0.808367
1.04448
1.06232
1.00094
0.919392
0.904816
0.919732
0.91341
0.834309
0.520613
0.475615
0.425769
0.398405
0.385794
0.380177
0.373848
0.360947
0.352077
0.344026
0.345608
0.368539
0.416554
0.47121
0.496953
0.504448
0.502205
0.489043
0.472477
0.464492
0.439644
0.372419
0.317872
0.309841
0.330298
0.44302
0.60509
0.672938
0.666674
0.525363
0.365952
0.335513
0.337944
0.347125
0.360628
0.377951
0.408245
0.506961
0.97429
1.56254
1.97772
2.13505
1.51666
0.683707
0.292563
0.236664
0.222608
0.189404
0.178729
0.180833
0.199456
0.224589
0.23993
0.251775
0.274285
0.356712
0.661007
0.922505
0.933277
0.732307
0.424287
0.232296
0.189622
0.176758
0.173822
0.170812
0.161589
0.133881
0.0963457
0.0860603
0.0832179
0.0812773
0.0805502
0.0820972
0.0976357
0.181269
0.305543
0.458419
0.613851
0.752156
0.867072
0.949937
1.00879
1.05621
1.10213
1.17862
1.32492
1.42446
0.828148
0.542763
0.527599
0.639953
0.704509
0.82607
1.0582
1.1861
1.18822
1.11537
0.806568
0.616603
0.561988
0.525017
0.492552
0.547039
0.80509
1.01253
1.0299
0.973675
0.905923
0.881157
0.886536
0.884659
0.777612
0.520377
0.457667
0.401367
0.368808
0.353283
0.34667
0.342172
0.338307
0.332644
0.328882
0.338104
0.378103
0.446169
0.502632
0.516088
0.51009
0.49634
0.475806
0.455327
0.437392
0.402276
0.341227
0.297135
0.293171
0.316738
0.403122
0.507027
0.626482
0.659434
0.592845
0.42866
0.329077
0.320577
0.325086
0.33481
0.347584
0.370219
0.444409
0.808288
1.23517
1.63481
2.00914
2.20008
1.44487
0.547356
0.254942
0.222973
0.213008
0.206581
0.208062
0.223141
0.233769
0.241685
0.25096
0.267228
0.343406
0.649989
0.903632
0.892171
0.633761
0.330681
0.210282
0.186718
0.176444
0.173678
0.168019
0.155542
0.124882
0.0944672
0.0865559
0.0839329
0.0811422
0.0802072
0.0815745
0.0983516
0.196905
0.34052
0.502168
0.655991
0.788846
0.897001
0.976064
1.03303
1.07667
1.11947
1.20143
1.36428
1.43266
0.738335
0.572498
0.587815
0.746302
0.883844
1.09525
1.2744
1.26411
1.16632
0.991162
0.672872
0.578932
0.533518
0.461167
0.431839
0.553169
0.83534
0.998668
1.0023
0.946314
0.880981
0.841857
0.845175
0.850656
0.708619
0.514553
0.44386
0.386218
0.354078
0.33861
0.331172
0.325708
0.320828
0.315559
0.315445
0.33459
0.386278
0.46535
0.510043
0.515019
0.503572
0.484918
0.460703
0.437727
0.414878
0.380135
0.328248
0.285783
0.284123
0.324815
0.418947
0.484965
0.600113
0.642874
0.628085
0.512574
0.364484
0.313445
0.311197
0.315484
0.323984
0.338765
0.375688
0.577346
0.907205
1.29712
1.81115
2.44335
2.25497
1.18626
0.413011
0.241212
0.228272
0.224554
0.226433
0.2338
0.239326
0.244406
0.249978
0.264705
0.338915
0.644374
0.884856
0.86047
0.570972
0.283739
0.203984
0.185418
0.175486
0.169217
0.161456
0.146783
0.119137
0.095163
0.0878945
0.0850309
0.0810713
0.0799273
0.0809156
0.0966227
0.195442
0.343478
0.50756
0.663607
0.801619
0.916126
0.995633
1.05178
1.09047
1.13613
1.23099
1.43658
1.38457
0.738866
0.641562
0.689238
0.861682
1.11285
1.25856
1.27444
1.16931
0.999349
0.785434
0.609929
0.549716
0.462931
0.377982
0.420706
0.638298
0.893936
0.977662
0.959782
0.902895
0.842754
0.795548
0.796289
0.809835
0.629193
0.504939
0.434696
0.377384
0.344136
0.327753
0.318919
0.311593
0.306386
0.30335
0.310006
0.337652
0.390183
0.475248
0.508523
0.507746
0.492624
0.47007
0.442895
0.418552
0.39836
0.37599
0.340669
0.290845
0.281415
0.345065
0.525026
0.579098
0.613241
0.649088
0.643733
0.559174
0.415961
0.319331
0.304054
0.30507
0.310958
0.319061
0.335499
0.39458
0.594246
0.932272
1.5184
2.50127
2.49835
1.57188
0.770736
0.294419
0.2363
0.232232
0.233777
0.236766
0.240325
0.244258
0.249776
0.26477
0.335949
0.633746
0.879776
0.86209
0.566693
0.279712
0.20417
0.185115
0.174523
0.165634
0.156878
0.141868
0.118903
0.0986435
0.0901773
0.0861781
0.0810099
0.079744
0.0803347
0.0916059
0.175427
0.32156
0.487915
0.65068
0.796983
0.916105
1.00024
1.0569
1.09277
1.14962
1.27054
1.52612
1.24847
0.776522
0.668366
0.671019
0.741339
0.878358
0.973425
0.997566
0.905613
0.776711
0.663446
0.562263
0.466391
0.352432
0.351554
0.478535
0.757017
0.922295
0.95641
0.919553
0.858624
0.802525
0.753875
0.739624
0.747335
0.534557
0.492773
0.428292
0.371205
0.337368
0.319283
0.308881
0.301478
0.297395
0.299141
0.314859
0.345533
0.397433
0.477262
0.500931
0.49278
0.471174
0.444605
0.414943
0.389993
0.372862
0.356256
0.325851
0.291806
0.292045
0.367513
0.60934
0.711052
0.721382
0.71484
0.693119
0.608845
0.444879
0.328768
0.304574
0.300448
0.302544
0.308011
0.316718
0.334646
0.388561
0.677102
1.41253
2.51913
2.28499
1.52024
0.939466
0.427425
0.244623
0.234139
0.234164
0.235729
0.239124
0.2442
0.251271
0.267547
0.334322
0.62008
0.889904
0.901051
0.616533
0.314899
0.213621
0.18701
0.174228
0.165003
0.156367
0.142616
0.12265
0.104949
0.0942753
0.0871147
0.0809397
0.079572
0.0800481
0.0860038
0.139435
0.265386
0.422443
0.589532
0.748206
0.885028
0.985611
1.04033
1.09381
1.16044
1.31002
1.56663
1.15712
0.815592
0.666773
0.615648
0.624533
0.671949
0.72005
0.734625
0.708638
0.642769
0.553344
0.432348
0.329426
0.316939
0.37112
0.545628
0.789496
0.914399
0.925086
0.876705
0.815981
0.756851
0.709766
0.687755
0.662569
0.425544
0.479762
0.422862
0.368328
0.333709
0.314156
0.30216
0.295746
0.294142
0.302927
0.323428
0.350247
0.411413
0.470029
0.479843
0.461919
0.435618
0.408035
0.382165
0.36038
0.348435
0.336454
0.313259
0.280816
0.277891
0.316379
0.476567
0.677376
0.75455
0.771841
0.743448
0.66064
0.513552
0.3713
0.32
0.303743
0.300649
0.304139
0.310988
0.325348
0.384474
0.751085
1.70851
2.53731
1.98186
1.08445
0.708368
0.469657
0.257781
0.234365
0.232665
0.234136
0.239399
0.245886
0.254497
0.27157
0.328734
0.573077
0.898267
1.00972
0.836723
0.503548
0.264249
0.195776
0.176104
0.165454
0.157081
0.145616
0.128904
0.11274
0.101032
0.0878769
0.080845
0.079472
0.0799211
0.0841622
0.113305
0.210056
0.350864
0.517383
0.690548
0.851908
0.959351
1.0242
1.09854
1.16701
1.33624
1.55825
1.0977
0.837597
0.675724
0.601802
0.576607
0.582635
0.59681
0.59265
0.552126
0.478725
0.371523
0.312769
0.298525
0.319761
0.40313
0.563095
0.777745
0.876014
0.864486
0.817749
0.766526
0.714107
0.660681
0.632938
0.558641
0.37211
0.467407
0.417353
0.367939
0.333142
0.312114
0.299306
0.292951
0.293389
0.306711
0.324706
0.363164
0.410785
0.447005
0.439522
0.417862
0.393864
0.371191
0.351503
0.335657
0.326665
0.316735
0.295067
0.270254
0.268008
0.29558
0.411383
0.640123
0.767163
0.814886
0.817421
0.757227
0.609939
0.436146
0.348427
0.316616
0.304166
0.303663
0.310762
0.332209
0.50124
1.12941
2.03863
2.40868
1.9028
1.04869
0.506069
0.344747
0.25886
0.234364
0.230788
0.234256
0.241027
0.248485
0.257873
0.274187
0.3191
0.482773
0.836485
1.11231
1.11345
0.855967
0.494667
0.233889
0.182599
0.167758
0.159162
0.150419
0.137221
0.122842
0.106605
0.0881941
0.0806098
0.0794476
0.0800788
0.0841851
0.109831
0.200914
0.339773
0.507088
0.686549
0.853808
0.954615
1.02434
1.10508
1.17585
1.35913
1.50353
1.05115
0.844157
0.682316
0.57821
0.529641
0.501133
0.473952
0.429408
0.367069
0.314619
0.29405
0.285903
0.295851
0.340274
0.427557
0.59048
0.768422
0.80936
0.778276
0.741906
0.704584
0.66213
0.601646
0.571073
0.469895
0.345219
0.455391
0.41249
0.368708
0.335223
0.312774
0.298385
0.291153
0.293935
0.302915
0.323992
0.357057
0.389344
0.405612
0.395302
0.379319
0.362033
0.345624
0.331849
0.320122
0.313122
0.305172
0.286313
0.262307
0.260487
0.282474
0.365516
0.578769
0.758705
0.831641
0.852534
0.824893
0.731413
0.555256
0.383196
0.335522
0.311611
0.305012
0.311985
0.350157
0.643583
1.27999
1.98328
2.27947
2.03585
1.24972
0.571399
0.308593
0.251395
0.233433
0.231221
0.236228
0.242703
0.250595
0.260522
0.275258
0.306747
0.395711
0.67453
1.08702
1.26296
1.11942
0.79952
0.422368
0.20776
0.175785
0.164978
0.158138
0.148235
0.135766
0.109693
0.088029
0.0803223
0.0793757
0.080492
0.0861043
0.116852
0.210174
0.351864
0.52239
0.705328
0.867712
0.958128
1.04146
1.10866
1.18036
1.36434
1.4202
1.02179
0.845726
0.674018
0.540448
0.456792
0.39574
0.341901
0.299816
0.284567
0.276663
0.273647
0.279033
0.302678
0.351597
0.445984
0.611551
0.727
0.728391
0.70194
0.676978
0.649555
0.603499
0.551112
0.521891
0.431838
0.346686
0.443827
0.406877
0.369851
0.339355
0.31595
0.29915
0.290041
0.287107
0.293337
0.307064
0.330071
0.357058
0.370236
0.366372
0.356878
0.344866
0.332662
0.322273
0.312635
0.306918
0.300168
0.284108
0.258575
0.252252
0.268095
0.315968
0.466364
0.671903
0.79733
0.855789
0.850562
0.786147
0.664633
0.479975
0.359149
0.320424
0.307711
0.313979
0.35023
0.626344
1.21273
1.82328
2.22169
2.20395
1.66092
0.859493
0.370939
0.259562
0.236021
0.235227
0.239857
0.24412
0.251272
0.261473
0.275804
0.300632
0.356643
0.521619
0.9167
1.30517
1.22111
0.967243
0.649568
0.337423
0.190936
0.1735
0.166628
0.159174
0.14609
0.11124
0.0872
0.0799434
0.0793755
0.0812694
0.0921543
0.149628
0.258274
0.408444
0.579395
0.757803
0.895561
0.976859
1.0607
1.11002
1.18362
1.35212
1.33432
0.998781
0.842132
0.662214
0.503273
0.394289
0.318883
0.278915
0.268752
0.26405
0.262557
0.264876
0.276994
0.30209
0.351261
0.445274
0.590417
0.653732
0.649218
0.636492
0.620778
0.604442
0.567151
0.526256
0.498916
0.419754
0.366369
0.432546
0.40049
0.369957
0.343568
0.32034
0.299774
0.284342
0.275811
0.270658
0.27745
0.300723
0.334662
0.351634
0.352508
0.347048
0.338492
0.328576
0.319444
0.310711
0.305327
0.299626
0.289464
0.264661
0.248702
0.256279
0.288311
0.357131
0.486032
0.624668
0.7605
0.819752
0.798487
0.699766
0.582762
0.422232
0.340304
0.31441
0.316671
0.344512
0.541588
1.00914
1.5521
2.06007
2.3925
2.01784
1.23644
0.577893
0.309823
0.249782
0.243585
0.243951
0.245669
0.250352
0.259894
0.274509
0.296767
0.341358
0.473524
0.860571
1.26818
1.23464
0.975735
0.730123
0.51001
0.258077
0.183046
0.173234
0.167696
0.150939
0.110622
0.0854181
0.0796286
0.0793995
0.0822532
0.102925
0.188961
0.319594
0.481122
0.653849
0.812174
0.921771
1.00796
1.07175
1.11172
1.18982
1.33343
1.22996
0.964094
0.822515
0.638815
0.458138
0.337135
0.280227
0.262322
0.255721
0.253834
0.254103
0.260193
0.270939
0.292445
0.335904
0.419477
0.535073
0.589768
0.604866
0.605082
0.599315
0.590858
0.571304
0.541391
0.517753
0.45763
0.438162
0.421018
0.393638
0.369651
0.347843
0.323666
0.297522
0.27378
0.253621
0.244507
0.253011
0.283252
0.324376
0.344724
0.34778
0.343918
0.337422
0.328905
0.320432
0.312367
0.307303
0.303227
0.297443
0.286858
0.264022
0.254623
0.273893
0.324328
0.408209
0.498856
0.586406
0.678728
0.727315
0.698805
0.623408
0.51726
0.392062
0.332003
0.323435
0.338915
0.407044
0.700244
1.15726
1.74339
2.4778
2.23843
1.44887
0.752375
0.440648
0.295187
0.266761
0.251983
0.246563
0.249554
0.258137
0.271585
0.291267
0.329504
0.446563
0.827946
1.24468
1.16869
0.901356
0.687786
0.547858
0.355472
0.19515
0.178131
0.173549
0.152547
0.102149
0.0840602
0.079484
0.0795226
0.082599
0.107009
0.199496
0.33703
0.499283
0.671047
0.819885
0.923041
1.01047
1.06982
1.11448
1.19611
1.30155
1.12135
0.91436
0.787675
0.590734
0.398164
0.30297
0.267262
0.253507
0.248642
0.246576
0.249192
0.251285
0.258725
0.271426
0.300849
0.359023
0.457821
0.545232
0.593119
0.61744
0.627311
0.630382
0.629811
0.618938
0.59492
0.542401
0.525495
0.408624
0.38639
0.367941
0.349776
0.323046
0.289288
0.256076
0.232243
0.225651
0.237672
0.268785
0.315795
0.34296
0.348908
0.345343
0.338956
0.33118
0.32243
0.314106
0.309284
0.306317
0.303261
0.299066
0.29007
0.277206
0.279561
0.312924
0.391656
0.477092
0.538342
0.594978
0.641786
0.649584
0.624548
0.573805
0.485264
0.384301
0.344221
0.346772
0.376123
0.463049
0.772363
1.45517
2.51849
2.26853
1.49948
0.815928
0.556727
0.384903
0.302979
0.262109
0.248215
0.248546
0.256066
0.268356
0.285792
0.316618
0.416306
0.799201
1.20603
1.05159
0.777721
0.548937
0.470871
0.421176
0.264637
0.2091
0.193086
0.146533
0.0949007
0.0829165
0.0795416
0.0796907
0.0826176
0.106652
0.198349
0.335148
0.493979
0.665034
0.807179
0.90866
1.00123
1.06089
1.11414
1.20582
1.26998
1.01585
0.858586
0.739845
0.52678
0.363987
0.295027
0.262621
0.247815
0.240111
0.239213
0.237354
0.238078
0.237434
0.243863
0.260301
0.301295
0.389152
0.497592
0.567254
0.609295
0.636767
0.674347
0.700703
0.694242
0.68076
0.63934
0.596663
0.39487
0.377742
0.364556
0.34855
0.3174
0.274638
0.238426
0.219219
0.216516
0.22821
0.25686
0.305215
0.342896
0.352646
0.349829
0.342969
0.334831
0.326181
0.316241
0.311344
0.307456
0.305502
0.304002
0.301829
0.298037
0.307312
0.33556
0.399345
0.486607
0.55403
0.60362
0.640456
0.643782
0.630482
0.60353
0.541404
0.43281
0.366736
0.352686
0.370636
0.429547
0.723015
1.64662
2.703
2.0615
1.14144
0.750437
0.590838
0.430335
0.319209
0.269354
0.251453
0.248985
0.254878
0.265618
0.281318
0.30683
0.384811
0.745243
1.12395
0.932904
0.68406
0.449266
0.340868
0.327468
0.280745
0.221769
0.191147
0.131661
0.0902194
0.0822715
0.0797355
0.0798966
0.0823927
0.100528
0.177755
0.301598
0.446008
0.617336
0.750201
0.862262
0.973849
1.04117
1.10514
1.20444
1.22425
0.928349
0.808403
0.683875
0.464822
0.347818
0.291887
0.260646
0.239096
0.229999
0.223778
0.220817
0.215154
0.213783
0.215487
0.229288
0.26437
0.339919
0.447124
0.524431
0.576306
0.622817
0.671797
0.71314
0.715052
0.709643
0.694658
0.665134
0.379472
0.367124
0.358065
0.341208
0.306449
0.258878
0.227508
0.213234
0.21294
0.223471
0.248521
0.293168
0.341329
0.356575
0.35581
0.348653
0.339365
0.329508
0.319297
0.31251
0.308648
0.305613
0.30564
0.30574
0.306553
0.317084
0.349907
0.421247
0.519537
0.601609
0.64908
0.668969
0.65891
0.651883
0.630267
0.559184
0.441242
0.370483
0.35489
0.372837
0.443928
0.877859
2.14079
2.77478
1.87352
1.01959
0.700833
0.580248
0.444934
0.321497
0.272307
0.25402
0.249806
0.254146
0.263111
0.277047
0.29739
0.356488
0.686415
1.03337
0.83888
0.627338
0.420748
0.292553
0.270383
0.266639
0.217808
0.179896
0.109751
0.087394
0.0826424
0.0806067
0.0803166
0.0821556
0.0910229
0.138455
0.238015
0.366075
0.532369
0.673776
0.815976
0.945466
1.01807
1.09681
1.20013
1.16503
0.862708
0.76357
0.62964
0.420863
0.335563
0.289889
0.25567
0.228463
0.213045
0.205127
0.197857
0.194069
0.191432
0.19496
0.208515
0.242103
0.310425
0.415513
0.4922
0.539756
0.579589
0.636785
0.701087
0.710681
0.704519
0.695413
0.68246
0.361982
0.3532
0.347047
0.330261
0.293844
0.249063
0.222714
0.211023
0.211705
0.22179
0.244125
0.282419
0.33435
0.358839
0.362222
0.35571
0.34535
0.333971
0.323122
0.314568
0.308885
0.303763
0.302513
0.305025
0.308337
0.317884
0.347145
0.419186
0.535729
0.655793
0.721741
0.733697
0.702831
0.686731
0.640998
0.555955
0.433598
0.36483
0.360646
0.402698
0.619161
1.35137
2.38081
2.90403
2.22285
1.28604
0.777993
0.611205
0.452697
0.327111
0.277288
0.258085
0.25155
0.253589
0.261327
0.273239
0.290349
0.333623
0.626662
0.948971
0.754387
0.576873
0.420113
0.29778
0.238723
0.230929
0.205489
0.152615
0.0982976
0.0869462
0.0842286
0.0822059
0.0810276
0.0822329
0.0873528
0.114496
0.205859
0.33638
0.502704
0.652151
0.803753
0.938477
1.00815
1.09835
1.19867
1.08269
0.81534
0.727038
0.588813
0.395646
0.32596
0.288363
0.252047
0.216732
0.196689
0.186842
0.18091
0.178412
0.178724
0.183261
0.196305
0.225089
0.284153
0.385157
0.467755
0.514981
0.543079
0.571789
0.633951
0.681579
0.678453
0.670813
0.666317
0.342731
0.33668
0.33283
0.317438
0.284032
0.244926
0.221226
0.210293
0.21141
0.221128
0.242481
0.277219
0.323971
0.358616
0.367179
0.362215
0.351389
0.338328
0.327178
0.316975
0.309876
0.303278
0.300028
0.301164
0.304988
0.315144
0.341179
0.407633
0.531932
0.677987
0.753584
0.765371
0.719345
0.696383
0.637515
0.521085
0.39699
0.357929
0.39613
0.646466
1.08461
1.75972
2.45541
3.01235
2.69488
1.73258
0.954172
0.693565
0.48703
0.344138
0.286598
0.2639
0.254992
0.254346
0.26093
0.272011
0.288002
0.327229
0.592978
0.882982
0.680483
0.504336
0.377449
0.313276
0.226372
0.203336
0.178428
0.126637
0.0956988
0.087673
0.0870213
0.0847238
0.0822194
0.0828417
0.0867633
0.110636
0.201627
0.3333
0.498768
0.649192
0.806648
0.93882
1.0085
1.10626
1.19917
1.01739
0.776377
0.697893
0.563193
0.380676
0.317842
0.28858
0.25147
0.210557
0.1867
0.175854
0.171122
0.170349
0.172346
0.177526
0.189557
0.21465
0.265009
0.356195
0.443431
0.493373
0.519973
0.532562
0.548931
0.591853
0.601619
0.593521
0.60385
0.324016
0.320993
0.319234
0.306074
0.277282
0.243798
0.221577
0.210538
0.210649
0.219729
0.240489
0.274941
0.317924
0.356371
0.370788
0.368113
0.357334
0.344258
0.332316
0.320109
0.311724
0.303204
0.298217
0.296426
0.299158
0.308507
0.3346
0.399569
0.522563
0.680073
0.758676
0.769341
0.719998
0.69492
0.619586
0.479028
0.366263
0.352711
0.438968
0.832036
1.34912
1.8776
2.42246
2.98859
2.79212
1.88182
1.03084
0.743671
0.548008
0.376892
0.302211
0.272513
0.260551
0.257106
0.261969
0.272571
0.288607
0.327118
0.589966
0.828725
0.627962
0.455779
0.316033
0.283516
0.237019
0.189765
0.15816
0.118133
0.0959088
0.0907758
0.0911847
0.0886599
0.0841432
0.0839713
0.0873101
0.111513
0.207654
0.348709
0.515633
0.672953
0.833256
0.946072
1.01743
1.11486
1.17826
0.928369
0.740042
0.674298
0.545874
0.368325
0.311552
0.291521
0.255435
0.209915
0.182868
0.170616
0.166416
0.16629
0.168604
0.174293
0.186035
0.208605
0.252585
0.333257
0.418287
0.46841
0.497963
0.510166
0.50931
0.504887
0.510334
0.491047
0.4826
0.312633
0.311747
0.311578
0.300411
0.273083
0.243703
0.22225
0.2111
0.209196
0.216654
0.235769
0.271338
0.318266
0.357226
0.373359
0.372717
0.36261
0.35045
0.337607
0.323854
0.314047
0.303828
0.296767
0.292413
0.293016
0.300372
0.32579
0.393658
0.5243
0.68047
0.755599
0.759841
0.709259
0.683125
0.604355
0.456878
0.351705
0.347952
0.439063
0.84034
1.35103
1.78925
2.34885
2.8813
2.65246
1.64375
0.976645
0.749067
0.578429
0.4081
0.320675
0.284146
0.268189
0.26238
0.264923
0.274891
0.291028
0.330336
0.585297
0.779174
0.592259
0.432071
0.278166
0.24868
0.237525
0.188491
0.153319
0.117453
0.0976036
0.0951615
0.0963063
0.0937244
0.0864441
0.0854133
0.0896343
0.124958
0.243471
0.402659
0.566081
0.720634
0.862776
0.955667
1.02687
1.11813
1.13965
0.858725
0.7101
0.650386
0.526253
0.356764
0.307482
0.294652
0.262078
0.214696
0.182933
0.16867
0.163664
0.163644
0.166099
0.172097
0.183483
0.204867
0.244987
0.318116
0.400855
0.447104
0.471849
0.485209
0.485739
0.46616
0.452547
0.428346
0.409122
0.308488
0.313096
0.3159
0.302205
0.272378
0.243352
0.223161
0.211556
0.207918
0.212872
0.228667
0.262522
0.316004
0.358672
0.374786
0.375973
0.367529
0.357
0.343798
0.32867
0.317289
0.306492
0.296581
0.289527
0.287662
0.292888
0.316033
0.385352
0.533002
0.686515
0.748402
0.741712
0.688679
0.664761
0.588797
0.444289
0.345208
0.342299
0.410816
0.756007
1.14452
1.6235
2.38527
2.77175
2.27421
1.26726
0.856818
0.713219
0.588263
0.43528
0.340963
0.298061
0.277916
0.269419
0.269864
0.279641
0.295824
0.339057
0.586531
0.725004
0.576638
0.497486
0.371437
0.247076
0.220847
0.1944
0.153532
0.119436
0.102033
0.104021
0.105876
0.100562
0.0886845
0.0870129
0.0941925
0.154024
0.282438
0.436336
0.587643
0.733934
0.869858
0.956494
1.02902
1.11472
1.08911
0.808081
0.687107
0.625713
0.495409
0.343809
0.304791
0.299836
0.27222
0.223809
0.185734
0.168476
0.161944
0.161605
0.163825
0.169447
0.180194
0.200634
0.239185
0.308022
0.388457
0.433328
0.454425
0.462509
0.463331
0.445984
0.419519
0.393242
0.372645
0.32068
0.330867
0.333169
0.311267
0.276308
0.242994
0.224058
0.21214
0.206859
0.209265
0.220757
0.24919
0.305133
0.358578
0.377088
0.37835
0.372645
0.36303
0.349575
0.334269
0.321311
0.310718
0.299911
0.288531
0.283582
0.287098
0.307618
0.374614
0.536733
0.718954
0.756197
0.725868
0.671306
0.637038
0.568222
0.432568
0.340756
0.332645
0.365579
0.57559
1.0162
1.77547
2.414
2.57155
2.05446
1.20432
0.839986
0.71238
0.600549
0.464108
0.369624
0.317391
0.288709
0.276894
0.276585
0.285854
0.302434
0.353894
0.588105
0.644324
0.541981
0.502345
0.438433
0.291224
0.218697
0.201586
0.157633
0.126385
0.113534
0.115901
0.116098
0.105752
0.090609
0.0891609
0.0995334
0.16506
0.290987
0.441822
0.588596
0.732439
0.867416
0.946028
1.02021
1.09766
1.01347
0.763321
0.667363
0.601642
0.469724
0.336354
0.304091
0.30585
0.285544
0.236901
0.191933
0.169503
0.161143
0.159825
0.16142
0.1663
0.175737
0.194201
0.230768
0.298635
0.376462
0.421189
0.441639
0.446871
0.44295
0.427086
0.39901
0.373573
0.354462
0.351734
0.367585
0.364206
0.328086
0.278865
0.242859
0.223901
0.211779
0.205619
0.206256
0.213782
0.233856
0.281344
0.351444
0.378717
0.382641
0.378701
0.369264
0.355814
0.33976
0.326106
0.31442
0.301599
0.290129
0.281923
0.283496
0.30186
0.369117
0.540629
0.743272
0.769485
0.71443
0.6553
0.605149
0.528903
0.415088
0.332585
0.327669
0.359317
0.568138
1.10299
1.93898
2.32157
2.37933
2.00118
1.26482
0.853653
0.724945
0.630183
0.514838
0.413483
0.334023
0.29647
0.283237
0.283886
0.292689
0.309799
0.371742
0.57521
0.559153
0.500694
0.490276
0.482244
0.391294
0.239838
0.207239
0.169195
0.141443
0.133184
0.135107
0.131436
0.111601
0.0926989
0.0910785
0.101086
0.164377
0.285951
0.428081
0.561982
0.703748
0.837697
0.919462
0.995759
1.06599
0.955257
0.734348
0.652042
0.588287
0.461861
0.333922
0.305116
0.313913
0.3048
0.255516
0.202099
0.172985
0.161321
0.158779
0.159934
0.163554
0.170661
0.185781
0.217326
0.282399
0.362657
0.409042
0.430024
0.434839
0.427373
0.409859
0.38561
0.362666
0.345359
0.394837
0.428687
0.421219
0.352069
0.283549
0.241011
0.221103
0.210262
0.204145
0.203048
0.208396
0.222061
0.256584
0.331794
0.377112
0.386475
0.38405
0.375246
0.362095
0.345405
0.329615
0.317252
0.30343
0.290638
0.28239
0.283168
0.300888
0.3662
0.54691
0.749977
0.765576
0.703311
0.637544
0.57869
0.483246
0.382914
0.321893
0.326699
0.379132
0.700512
1.4462
2.01999
2.25421
2.26924
1.89561
1.18937
0.808086
0.699208
0.639394
0.568475
0.446726
0.339794
0.296484
0.286012
0.29063
0.299527
0.316905
0.38453
0.525136
0.487721
0.459434
0.463709
0.475417
0.449686
0.325992
0.229318
0.2024
0.174162
0.166595
0.161362
0.145028
0.113982
0.0938997
0.0915991
0.099654
0.150088
0.255451
0.376468
0.495773
0.634706
0.783604
0.879096
0.958927
1.0307
0.917481
0.713907
0.641897
0.584925
0.468686
0.335025
0.308405
0.329208
0.339827
0.288751
0.221352
0.181099
0.163811
0.159456
0.158909
0.162148
0.167125
0.176996
0.200826
0.25528
0.340823
0.394294
0.419681
0.426608
0.417924
0.396332
0.377555
0.356854
0.341301
0.449212
0.515981
0.528871
0.430509
0.295242
0.238772
0.21628
0.206892
0.201937
0.199585
0.203477
0.21286
0.236749
0.301977
0.368853
0.38885
0.389146
0.381661
0.368923
0.352658
0.335244
0.319757
0.304016
0.290832
0.282901
0.286013
0.304602
0.372454
0.562505
0.745664
0.7428
0.677557
0.617432
0.552526
0.442044
0.348661
0.313749
0.345452
0.607442
1.11785
1.75024
2.06648
2.22425
2.18642
1.73647
1.01639
0.731458
0.660476
0.632129
0.577964
0.450949
0.331861
0.293185
0.288719
0.29641