/*--------------------------------*- C++ -*----------------------------------*\
  =========                 |
  \\      /  F ield         | OpenFOAM: The Open Source CFD Toolbox
   \\    /   O peration     | Website:  https://openfoam.org
    \\  /    A nd           | Version:  10
     \\/     M anipulation  |
\*---------------------------------------------------------------------------*/
FoamFile
{
    format      ascii;
    class       volScalarField;
    location    "0.149409";
    object      T;
}
// * * * * * * * * * * * * * * * * * * * * * * * * * * * * * * * * * * * * * //

dimensions      [0 0 0 1 0 0 0];

internalField   nonuniform List<scalar> 
16320
(
0.00442592
0.00434741
0.00312205
0.00207869
0.00228148
0.00290643
0.00256862
0.00180959
0.00167437
0.00170065
0.0018839
0.00212101
0.00237977
0.00283853
0.00355567
0.00407254
0.00414689
0.00405971
0.00390574
0.00386676
0.00399904
0.00491652
0.00627742
0.00626555
0.00475047
0.00401948
0.00399034
0.00448195
0.00531262
0.00578659
0.00586787
0.00590773
0.00593951
0.00598345
0.00603812
0.0061351
0.00625826
0.00634144
0.00565294
0.00324009
0.00219278
0.00205571
0.00289901
0.00506506
0.00644488
0.00546554
0.00604344
0.00848639
0.0111781
0.0124982
0.0124863
0.01103
0.00755271
0.00652785
0.00645296
0.00631486
0.00434152
0.00263012
0.00238174
0.00277565
0.00384457
0.00491819
0.0063067
0.00987308
0.0122108
0.0125882
0.0125138
0.0114848
0.0108061
0.0107927
0.0121768
0.0151445
0.0156123
0.0156488
0.0153407
0.0116107
0.0050713
0.00283913
0.00200802
0.0016421
0.0014907
0.00143176
0.00142536
0.00143774
0.00149522
0.0015977
0.00170421
0.00170969
0.00166339
0.00193747
0.00237528
0.00244802
0.00237009
0.0022573
0.00211883
0.00203194
0.00211168
0.00269127
0.00325134
0.00333888
0.00297254
0.00239713
0.00226953
0.00224833
0.00186953
0.00174323
0.00169168
0.00179734
0.00184092
0.00179395
0.00175517
0.0017835
0.00187213
0.00539427
0.00541889
0.00458803
0.00250494
0.00229281
0.00275091
0.00266997
0.00203414
0.00188852
0.00196547
0.00234811
0.00280543
0.00339141
0.00387354
0.00414918
0.00425876
0.00423525
0.00415381
0.00395234
0.0038772
0.00393677
0.00463382
0.00594265
0.00591449
0.00424209
0.00333953
0.00324007
0.00359057
0.00468506
0.00562816
0.00584046
0.00589794
0.00593489
0.00597766
0.00602895
0.00612885
0.00619752
0.00573633
0.00333178
0.00206956
0.00175486
0.00173941
0.00237559
0.00485786
0.00882159
0.00860832
0.00760956
0.00996422
0.0119872
0.0126075
0.0122457
0.00989038
0.00715896
0.00649509
0.00639903
0.00592038
0.00412255
0.00262063
0.00237285
0.00260753
0.00299937
0.00349181
0.00484527
0.00823332
0.0105566
0.0109775
0.0107087
0.0099684
0.00991428
0.0107825
0.0136966
0.0154147
0.0156384
0.0156088
0.0151911
0.010795
0.00464535
0.00266418
0.00193183
0.00161753
0.0014829
0.00142955
0.00142466
0.00143546
0.00147763
0.00157668
0.00167571
0.0017222
0.00163426
0.00164455
0.00210022
0.00240768
0.00236774
0.00225868
0.00213034
0.0020258
0.00206647
0.00254607
0.00290615
0.00292037
0.00265103
0.00254657
0.00278984
0.00219085
0.00186043
0.00166254
0.00158815
0.00163488
0.00177613
0.0017596
0.00170417
0.00172444
0.00181416
0.00601786
0.00610714
0.00558103
0.00343001
0.0024883
0.00282955
0.00290623
0.0023869
0.00217149
0.00215549
0.00241885
0.00280379
0.00335863
0.0038728
0.00406302
0.00402531
0.00405339
0.00405071
0.00384097
0.00375726
0.00382786
0.00443402
0.00567715
0.0056777
0.00404723
0.00311713
0.00300473
0.00329633
0.00435227
0.00546011
0.00578328
0.00587323
0.00591145
0.00594475
0.0060119
0.00608228
0.00588637
0.00408513
0.00233714
0.00172507
0.00145485
0.00137322
0.00170593
0.00324905
0.00892647
0.0111821
0.0107817
0.0117716
0.0124212
0.01251
0.011469
0.00881957
0.00693183
0.00642414
0.00619825
0.00555781
0.00405808
0.00256984
0.00230819
0.00231493
0.00252094
0.00304997
0.00446007
0.00769176
0.00940195
0.00974114
0.00962482
0.00938328
0.00974422
0.0115325
0.0148005
0.0154772
0.015633
0.0155325
0.0150292
0.0106444
0.00457972
0.00264011
0.00192227
0.00161751
0.0014853
0.00143174
0.00142612
0.00143722
0.00147102
0.00155976
0.00165215
0.00171637
0.00168156
0.00157885
0.00170873
0.00224851
0.00234944
0.00225442
0.00213962
0.00202944
0.0020291
0.00234153
0.00263822
0.00267187
0.00266592
0.00296744
0.00331184
0.00227804
0.00186583
0.00163187
0.00155105
0.00157302
0.00173464
0.00173913
0.00166652
0.00167676
0.0017759
0.00651807
0.00666678
0.00626904
0.00449882
0.00307446
0.00304803
0.00315548
0.00283142
0.00252984
0.00248624
0.00264861
0.00289683
0.00310844
0.00336801
0.0035181
0.00384773
0.00400439
0.00394918
0.00358983
0.00347932
0.00362417
0.00427889
0.0054759
0.0055234
0.00404809
0.00302506
0.00288523
0.00313074
0.00406703
0.00521723
0.00566532
0.005828
0.0058937
0.005922
0.00596366
0.00593622
0.00536178
0.00343185
0.0021823
0.00168889
0.00139805
0.00131271
0.00151149
0.00226415
0.00504535
0.0113771
0.0122257
0.0123781
0.0124799
0.0121542
0.0107535
0.00832928
0.00683076
0.00630168
0.00602825
0.00630375
0.00397151
0.00248666
0.00221394
0.00221907
0.00242683
0.00298637
0.00443652
0.00759689
0.00888851
0.00896365
0.00890825
0.00895128
0.0098356
0.0126235
0.0151216
0.0154862
0.015582
0.0154365
0.0148901
0.0106412
0.00468944
0.00271223
0.00196766
0.00165354
0.00151088
0.0014507
0.00144052
0.00144963
0.00147206
0.00154237
0.00163186
0.0016829
0.00173525
0.00165112
0.00161896
0.00189457
0.0022345
0.00222358
0.00213228
0.00204208
0.00202305
0.00218972
0.00254971
0.00269272
0.00289178
0.00356409
0.00365311
0.00267927
0.00199428
0.00164753
0.00154535
0.00155692
0.00171738
0.00172792
0.00164915
0.00165651
0.00176557
0.00695269
0.00705529
0.00659797
0.00519569
0.00384361
0.00340609
0.0033322
0.00327888
0.00324928
0.00357418
0.00447454
0.00494097
0.00469817
0.00460116
0.00475288
0.00490302
0.00465195
0.00382396
0.00328625
0.00322644
0.00341101
0.00416988
0.00533729
0.00544204
0.00421221
0.00301082
0.00279815
0.00300484
0.00391591
0.0051766
0.00568009
0.00584335
0.00590516
0.00592485
0.00592875
0.00580654
0.00525308
0.00350896
0.00235455
0.0018118
0.0014606
0.00148228
0.00177501
0.00212862
0.00297324
0.00635915
0.0121392
0.0124878
0.0124752
0.0119533
0.0106061
0.00833238
0.00688706
0.00643907
0.0065975
0.00658874
0.00351966
0.00239552
0.00218846
0.0022144
0.0024805
0.00323378
0.0050078
0.00785207
0.00867182
0.00855931
0.00843561
0.00875958
0.0102219
0.0137722
0.0151966
0.0154813
0.0155113
0.015319
0.0146439
0.0106992
0.00506867
0.00295004
0.00210648
0.00173562
0.00156265
0.00148226
0.00146174
0.00146745
0.00148467
0.0015358
0.00162118
0.00166209
0.00178096
0.00192445
0.00168079
0.00173715
0.001991
0.00211732
0.00208265
0.00204949
0.00204443
0.0021632
0.00256464
0.00281909
0.00344853
0.00405949
0.00389969
0.00320917
0.00222984
0.00173217
0.00159522
0.00158459
0.00171167
0.00172337
0.00164268
0.00164988
0.00178263
0.00732571
0.00722699
0.00662261
0.00558112
0.00447411
0.00399668
0.00388794
0.00404602
0.00487806
0.00608077
0.00651933
0.00654506
0.00627584
0.00600761
0.00545696
0.00454852
0.00370088
0.0032042
0.00302162
0.00306228
0.00327815
0.0041175
0.00521458
0.00536176
0.00448617
0.00306411
0.00272501
0.00284406
0.00362142
0.00504966
0.00577806
0.00593797
0.00596179
0.00595343
0.00593119
0.0057671
0.00527512
0.00394234
0.00270874
0.00172512
0.00147578
0.00168748
0.00255271
0.00363788
0.00368076
0.00383831
0.00959954
0.0123939
0.0124385
0.0119572
0.0107738
0.00887303
0.00761233
0.00736499
0.00802191
0.00625346
0.00330849
0.00237466
0.00219639
0.00230237
0.00282204
0.004164
0.0067067
0.00843182
0.00858485
0.00832753
0.00824474
0.00884144
0.0111607
0.01447
0.0152019
0.0154337
0.0154707
0.0152043
0.0142018
0.0103887
0.00521567
0.00306671
0.00218209
0.00178272
0.00159393
0.00151003
0.001484
0.001487
0.00149882
0.00153577
0.00161365
0.00166426
0.00197667
0.00247038
0.00195253
0.00175508
0.00185065
0.00197106
0.0020072
0.00207877
0.00210733
0.00218696
0.00264895
0.00318722
0.00412609
0.00435435
0.00400674
0.00349605
0.00248895
0.00181195
0.00166423
0.00166339
0.00175333
0.00173381
0.00164286
0.0016534
0.00182032
0.00751114
0.00721429
0.00667727
0.00600185
0.00544503
0.00522365
0.00518953
0.00558271
0.0063066
0.00654543
0.00651836
0.0060595
0.00537356
0.00484796
0.00420289
0.00359214
0.0032028
0.00299502
0.00294555
0.00300924
0.00325943
0.00417573
0.00511881
0.00527435
0.00473682
0.00323035
0.00265817
0.00262674
0.00312073
0.00445283
0.00576222
0.00608721
0.0061184
0.00604161
0.00595617
0.00577437
0.00535136
0.00437574
0.0025066
0.00153591
0.0014523
0.00166747
0.0025715
0.00493117
0.00686294
0.00699981
0.0079889
0.0119234
0.0122135
0.0119015
0.0108501
0.0094704
0.0088033
0.00858004
0.00818223
0.00603942
0.00329102
0.00240904
0.00226931
0.00251277
0.00349404
0.00582204
0.00821232
0.00865382
0.00847376
0.00815326
0.00818294
0.00918613
0.0123643
0.0146411
0.0151528
0.0153717
0.0154384
0.0151211
0.013464
0.00883945
0.00492863
0.00302381
0.00218089
0.00178762
0.00159991
0.00152153
0.00149952
0.00150167
0.00151209
0.00154203
0.00160846
0.00171794
0.00235178
0.00319527
0.00242753
0.00186235
0.00185366
0.00195373
0.00204257
0.00215894
0.00220998
0.00228615
0.00286835
0.00383962
0.00439812
0.00449913
0.00435481
0.00395489
0.00267107
0.00189599
0.00173081
0.00172877
0.00178714
0.00174279
0.00167494
0.00168221
0.00190626
0.00757201
0.00724798
0.00682506
0.00645052
0.00625766
0.00619904
0.00624351
0.00642038
0.00648873
0.00648639
0.00622706
0.00556364
0.00465136
0.00388442
0.00345416
0.00319974
0.00302195
0.00293059
0.00293389
0.00302461
0.00336635
0.00431181
0.00506662
0.00519094
0.00481584
0.00355023
0.00271758
0.00253277
0.00273875
0.00368613
0.00543793
0.00612711
0.00623391
0.00619303
0.00605538
0.00584631
0.00550041
0.00449237
0.00239919
0.00157589
0.00141701
0.00144849
0.00182098
0.00350206
0.00749763
0.00889975
0.00921347
0.0106918
0.011315
0.0112661
0.010373
0.00942127
0.00904305
0.00880876
0.0082065
0.00635258
0.00342243
0.0024371
0.00233922
0.00278825
0.0044188
0.00758451
0.00871196
0.00873683
0.00836881
0.00809761
0.00823073
0.00965873
0.0131897
0.0146203
0.015022
0.0153111
0.0154062
0.0151027
0.0126896
0.00685451
0.00405156
0.0027211
0.0020726
0.00174917
0.00158895
0.00152502
0.00150813
0.00151091
0.00152224
0.00155292
0.00162444
0.0018429
0.00289858
0.00370308
0.00297377
0.00212233
0.00195563
0.00203895
0.00216703
0.00229998
0.00236692
0.00250301
0.00335075
0.00425481
0.00455531
0.00475197
0.00490741
0.00421168
0.00269673
0.00197049
0.00179766
0.00178068
0.00180855
0.00177515
0.00171436
0.00170569
0.00199797
0.00759985
0.00725571
0.00683371
0.00658872
0.00648866
0.006452
0.00645855
0.0064609
0.00645367
0.00636166
0.00598316
0.00513061
0.00414325
0.00347641
0.0031965
0.00305345
0.00295711
0.00291458
0.00292839
0.00304739
0.0034237
0.00429005
0.00496719
0.00506797
0.00471295
0.00372653
0.00302354
0.00259005
0.00258981
0.00306531
0.00445154
0.00593615
0.00624718
0.00628571
0.00618825
0.00601265
0.00570546
0.00477802
0.00265619
0.00178963
0.00147385
0.00137364
0.00139677
0.00180257
0.00416428
0.00848602
0.00943121
0.00966355
0.0098697
0.00982714
0.00928185
0.0090372
0.0089328
0.00876966
0.00834875
0.00653914
0.00344692
0.00244917
0.00239671
0.00314523
0.00564323
0.00845056
0.00890457
0.00878203
0.00837748
0.00821256
0.00851554
0.0103074
0.0133877
0.0144534
0.0148038
0.0152419
0.0153767
0.0151027
0.0125012
0.00626331
0.00363395
0.00249728
0.00196431
0.0017039
0.00157661
0.00152612
0.00151375
0.0015177
0.00153022
0.00156651
0.00166779
0.00212953
0.00394917
0.00427132
0.00348144
0.0025068
0.00221339
0.00222525
0.00231336
0.00240322
0.00255696
0.0028697
0.00402097
0.00452599
0.00478641
0.00540094
0.00557029
0.00418335
0.00260336
0.00200188
0.00184969
0.00182736
0.00184468
0.00183739
0.00177153
0.00174058
0.00214083
0.00759864
0.00720993
0.00677506
0.00654408
0.00644808
0.00641391
0.00642001
0.00642254
0.00640326
0.00625384
0.00572515
0.00478383
0.00380695
0.00329035
0.00308069
0.00297943
0.00291593
0.00288849
0.00289483
0.00300532
0.00334873
0.00410271
0.00480723
0.00492485
0.00439027
0.00347809
0.00308874
0.00263243
0.00255883
0.00275003
0.00353284
0.00514195
0.00611101
0.00627121
0.00627163
0.00616338
0.00595058
0.00539838
0.00354339
0.00231858
0.00175613
0.00147012
0.00132986
0.00136875
0.00206688
0.00538103
0.0088522
0.00911743
0.00913198
0.00903495
0.0088401
0.00879444
0.008792
0.00876081
0.00839261
0.00660366
0.00346672
0.00248683
0.00246649
0.00345735
0.0065747
0.00876705
0.00899231
0.00883774
0.00858462
0.00852393
0.00899474
0.0107638
0.0132292
0.014157
0.0145328
0.0151687
0.0153488
0.0151509
0.0126686
0.00628008
0.00358993
0.00246794
0.00194871
0.00169829
0.00157726
0.00153386
0.00152184
0.00152632
0.00153913
0.00158808
0.00175663
0.00270914
0.00480116
0.00456848
0.00381139
0.00298539
0.00258722
0.00247354
0.00247946
0.00264781
0.0029608
0.00359028
0.00441482
0.00475377
0.0055153
0.00658259
0.00575484
0.00362285
0.00242187
0.00204205
0.00192459
0.00189568
0.00189967
0.00191338
0.0018483
0.00179312
0.00235178
0.00756088
0.00713505
0.00669756
0.00648913
0.00639471
0.00637069
0.00639269
0.0063952
0.00633919
0.00607223
0.00543333
0.00455071
0.00359383
0.00318485
0.0030104
0.00292317
0.00286459
0.00282514
0.00280598
0.00286763
0.00308567
0.00361509
0.00442209
0.0047211
0.00396378
0.00274998
0.00259321
0.00255645
0.00250534
0.00262143
0.00312962
0.00434594
0.00577912
0.006187
0.00625595
0.0062149
0.00613442
0.00591458
0.00512755
0.00355053
0.00248571
0.0018147
0.00135579
0.0013212
0.00167885
0.00294825
0.00734445
0.0088798
0.00886531
0.00875328
0.00870932
0.00872923
0.00877148
0.00875658
0.00839703
0.00668597
0.00354529
0.00251541
0.00247838
0.00351625
0.00673953
0.00880698
0.00901102
0.0088646
0.00873713
0.00873648
0.0092697
0.0107403
0.012701
0.0137249
0.0142602
0.0151074
0.0153162
0.015203
0.0133324
0.00698283
0.00384001
0.00258981
0.00202515
0.00175062
0.00161808
0.00156064
0.00154346
0.0015422
0.00155189
0.0016217
0.00192582
0.00373491
0.00515417
0.00477511
0.00412635
0.00356819
0.00317301
0.00303669
0.00300775
0.00330011
0.00370742
0.0041567
0.00473541
0.00556986
0.0072139
0.0070672
0.00502578
0.00306251
0.00233222
0.00207436
0.00198084
0.00195016
0.00194747
0.00197484
0.00195173
0.00190552
0.00269799
0.00750101
0.00706353
0.00666838
0.0064579
0.00637431
0.0063574
0.00637015
0.00634424
0.00619958
0.00577718
0.00514599
0.00434985
0.00346674
0.00311178
0.00295082
0.00285993
0.00279622
0.00274305
0.00271476
0.00276149
0.00294045
0.00341544
0.00409541
0.00431977
0.00359442
0.0023335
0.00211021
0.00218683
0.00227961
0.0024229
0.00283682
0.00398234
0.00548236
0.00602597
0.00620174
0.0062534
0.0062492
0.00620704
0.00605389
0.00549397
0.00349883
0.00201389
0.00136141
0.0014624
0.00180638
0.00249933
0.00506799
0.00865505
0.00881775
0.00873457
0.00872887
0.00875854
0.00877803
0.00873586
0.00837319
0.0068059
0.00369044
0.00254557
0.00244262
0.00332802
0.00606836
0.00842189
0.008878
0.00881261
0.00870064
0.00870371
0.00916641
0.010356
0.0118718
0.013055
0.0140331
0.0150526
0.0152919
0.0152097
0.0141728
0.00878574
0.00467133
0.00301706
0.00226617
0.00189685
0.00170577
0.00161015
0.00158842
0.00155297
0.00156286
0.00166524
0.00216008
0.00461684
0.00535586
0.00502905
0.00456825
0.00422737
0.00394358
0.00381732
0.00379538
0.00393658
0.00424905
0.0048159
0.00602774
0.00775694
0.00791176
0.00661237
0.00435891
0.00290871
0.0023286
0.00210296
0.0020102
0.00198045
0.00199921
0.00204302
0.00205235
0.00210377
0.00331726
0.00742042
0.00700561
0.00666165
0.00645647
0.00637519
0.00635724
0.0063329
0.00625046
0.00596585
0.00548199
0.00494684
0.00407124
0.00336382
0.00302988
0.00286768
0.00277093
0.00270296
0.00265611
0.00262888
0.00267293
0.00282483
0.00323123
0.00393429
0.00429776
0.0040331
0.00287307
0.00220847
0.00210103
0.00213633
0.00227663
0.00261641
0.00342697
0.00480918
0.00566598
0.00605521
0.00622091
0.00627431
0.00630081
0.00624599
0.00557587
0.00317304
0.00166227
0.00132911
0.00160458
0.00242475
0.00337518
0.00468776
0.00824149
0.00884782
0.00880646
0.00879444
0.0087643
0.00876158
0.00870625
0.008371
0.00708029
0.00411802
0.00263269
0.00231433
0.00260186
0.00387631
0.00676328
0.00836544
0.008589
0.00856062
0.00856963
0.0088991
0.00978082
0.0109781
0.0121014
0.0138439
0.0150107
0.0152645
0.0152005
0.0144679
0.0107708
0.00586702
0.00361749
0.00258335
0.00206314
0.00178405
0.00166913
0.00162177
0.00155601
0.00157608
0.00172284
0.00248995
0.00514292
0.0055328
0.00520232
0.00480852
0.0045955
0.00444212
0.00437137
0.00442361
0.00474798
0.00540842
0.00690214
0.00812023
0.00839351
0.00771687
0.00599747
0.00416824
0.00290992
0.0023681
0.00214125
0.00204027
0.00200927
0.00203814
0.00213575
0.00218162
0.0024414
0.0037026
0.00731617
0.00695914
0.00666437
0.00647857
0.00638991
0.00635567
0.0062976
0.00615157
0.00576267
0.00531326
0.00458601
0.00381852
0.00320157
0.00291271
0.00276165
0.00267612
0.00261983
0.00258886
0.00258119
0.00263111
0.00277272
0.00315237
0.00376509
0.00418587
0.00413975
0.00320483
0.00230529
0.00208257
0.00206185
0.00211458
0.00231261
0.0029009
0.00409906
0.00519342
0.00577414
0.00611355
0.00625393
0.00628912
0.00610956
0.00429409
0.00211152
0.00135589
0.00135604
0.00160945
0.00248297
0.00462492
0.00641166
0.00825895
0.00889635
0.00891
0.00881622
0.00874628
0.0087459
0.0087154
0.00846184
0.00749125
0.00508409
0.00297533
0.00226824
0.00217094
0.00245274
0.00360002
0.00683493
0.00808707
0.00827692
0.00832653
0.00851077
0.00909914
0.00998128
0.0114043
0.0137294
0.015
0.0152306
0.0151503
0.0144738
0.0111709
0.00620132
0.00379262
0.0026762
0.00210609
0.00180337
0.00169107
0.00162802
0.00155485
0.00158638
0.00178842
0.00287818
0.00542911
0.00566876
0.00535706
0.00509157
0.00499931
0.0050595
0.00528197
0.00581334
0.00680322
0.00794423
0.00844646
0.00861592
0.00824789
0.00707932
0.00554287
0.00389881
0.00284769
0.00240164
0.00219909
0.00210435
0.0020775
0.00211765
0.00227647
0.00236669
0.00285298
0.00392852
0.00720613
0.00690304
0.00667367
0.00651604
0.00642506
0.00637238
0.00628099
0.00602546
0.00565212
0.00505053
0.00426876
0.00352544
0.00302038
0.00278433
0.00266337
0.00259729
0.00255942
0.00254118
0.00254917
0.00259857
0.00271701
0.00303422
0.00358702
0.00398441
0.00408725
0.00348227
0.00247422
0.00212982
0.00207734
0.00208896
0.00218342
0.00246565
0.00325417
0.00473558
0.00544972
0.00595251
0.00620279
0.00623676
0.00576206
0.00331856
0.00185631
0.00139342
0.00137021
0.00146757
0.00202591
0.0039981
0.00716508
0.00854398
0.00897745
0.00893757
0.00877858
0.0087361
0.00875932
0.00876766
0.00862386
0.00801721
0.00642736
0.00384524
0.00247045
0.00209754
0.00202593
0.00227078
0.00366175
0.00688498
0.00769761
0.00787087
0.00796776
0.00831197
0.00895414
0.0110147
0.0136918
0.0150045
0.0152103
0.0150515
0.014144
0.0105134
0.00595249
0.00369073
0.00263042
0.0020768
0.00179008
0.00169156
0.00160054
0.00155463
0.00160078
0.00186307
0.00321313
0.00553061
0.00574944
0.0056347
0.00557302
0.00578335
0.00629765
0.00713873
0.00810376
0.00853433
0.00874699
0.00879326
0.00856042
0.0078206
0.00666386
0.00516749
0.00361681
0.00276928
0.00240488
0.00223919
0.00217358
0.00216111
0.0022594
0.00243572
0.00253734
0.00304713
0.00385169
0.00709403
0.00685424
0.00668097
0.00655787
0.00647213
0.0063958
0.00624058
0.005971
0.00547159
0.00478341
0.00397684
0.00328137
0.00288002
0.00269696
0.0025982
0.00254595
0.00251937
0.00250843
0.00252194
0.00256385
0.00265877
0.00290798
0.00340583
0.00381105
0.00399067
0.00382967
0.00298537
0.00241493
0.0022308
0.00215371
0.00219388
0.0023624
0.00276667
0.00380901
0.0051136
0.00579234
0.00614018
0.00618217
0.00574957
0.00340865
0.00195368
0.00151887
0.00139776
0.00139438
0.00161076
0.0026471
0.00588903
0.00831796
0.00894039
0.00883405
0.0086809
0.00872294
0.00880329
0.00885696
0.00878732
0.00839459
0.00732843
0.00512082
0.00303995
0.00218739
0.00195665
0.0019025
0.00232237
0.0040821
0.00686127
0.00729763
0.00741425
0.00763726
0.00825239
0.0107984
0.0137632
0.0150312
0.0151815
0.0148896
0.0131964
0.00819441
0.00484844
0.00319952
0.00239543
0.00194853
0.00173791
0.00165831
0.00156725
0.00155593
0.00161883
0.00194594
0.00344626
0.0055425
0.00579762
0.00595555
0.00615926
0.00676763
0.00774371
0.0086234
0.0088449
0.00895281
0.00895715
0.00881629
0.00835695
0.00758437
0.0064335
0.00491882
0.00343508
0.00271333
0.00241871
0.00229546
0.00225678
0.00225361
0.00235455
0.00250649
0.00262082
0.00310936
0.00360217
0.00698622
0.00681698
0.00670035
0.00660997
0.00652074
0.00641186
0.00621192
0.00581651
0.00528653
0.00456085
0.00379266
0.00314617
0.00281306
0.00265988
0.00256998
0.00251955
0.00249516
0.00248676
0.00249661
0.00252919
0.00259898
0.00275274
0.00315469
0.00361714
0.00388441
0.00394927
0.00378567
0.00328998
0.00288515
0.00250925
0.00236235
0.00240249
0.00267802
0.00317703
0.00438276
0.00547709
0.00602155
0.00613736
0.00585683
0.00394191
0.00232771
0.0017737
0.00155648
0.00138963
0.00147821
0.00200816
0.00384897
0.00703414
0.00852089
0.00857971
0.00856623
0.00868209
0.00886297
0.00897172
0.00894376
0.00866616
0.00781315
0.00573968
0.00334117
0.00236017
0.00198565
0.00185269
0.00198904
0.00257668
0.00489575
0.00671496
0.00698363
0.00714956
0.00791501
0.0107973
0.0139945
0.0150494
0.0151522
0.0147035
0.0118292
0.00652232
0.00396208
0.00275436
0.00214543
0.00182605
0.00169004
0.00160776
0.00155112
0.00156174
0.00164524
0.00204206
0.00367102
0.00552277
0.00585565
0.00633768
0.0070307
0.00805479
0.00885749
0.0090651
0.00911768
0.00908866
0.00900411
0.00870342
0.0082424
0.0074933
0.00632662
0.00474627
0.00330918
0.00264509
0.00239205
0.00229691
0.00226566
0.00225996
0.00230383
0.00239875
0.00249253
0.00282745
0.00298356
0.00689055
0.00678563
0.00670685
0.00663625
0.0065492
0.00639649
0.00609033
0.00566504
0.00509926
0.00446098
0.0037276
0.00309794
0.00279273
0.00265583
0.00257516
0.00252044
0.00248978
0.00247504
0.00247147
0.00248806
0.00252656
0.00260766
0.00278808
0.00321379
0.00365558
0.0038959
0.00398774
0.00390608
0.0037045
0.00334949
0.0029155
0.00269075
0.00274428
0.00301875
0.00361216
0.00478919
0.00573481
0.00604154
0.00599765
0.00529632
0.0033913
0.00240405
0.00193031
0.00144332
0.00147105
0.00186253
0.0031405
0.00504844
0.00728136
0.00788453
0.00832308
0.00865595
0.00888917
0.00904528
0.00907604
0.00889685
0.00818837
0.0061725
0.00352181
0.00246908
0.00205341
0.00187653
0.00197905
0.00226891
0.00339763
0.00611411
0.00665553
0.00681795
0.00776685
0.0116111
0.0141622
0.0150355
0.0151026
0.0146255
0.011361
0.0061733
0.00376024
0.0026529
0.00208394
0.00179963
0.00167804
0.00159494
0.00154985
0.00157077
0.00168545
0.00217132
0.00388965
0.00547101
0.00590189
0.00690736
0.0084015
0.00920472
0.00933967
0.00926245
0.00915907
0.00908228
0.00886318
0.00862787
0.00816142
0.00748344
0.00635811
0.00483789
0.00337184
0.00262927
0.0023291
0.00219668
0.00213753
0.00210444
0.0020821
0.00208637
0.00215665
0.0023644
0.00246676
0.00680983
0.00674878
0.00669872
0.00664075
0.0065589
0.00631357
0.00590638
0.00546726
0.00501766
0.004472
0.00380737
0.00313476
0.00280324
0.0026647
0.00258894
0.00253379
0.00249515
0.00247499
0.00246154
0.0024633
0.00247306
0.00250792
0.00258681
0.0027781
0.00314393
0.00355989
0.00387659
0.00397649
0.00396157
0.00378145
0.00344108
0.00312399
0.00297841
0.00304792
0.00329557
0.00390534
0.00499746
0.0057296
0.00593318
0.00583922
0.00524714
0.0036643
0.00234365
0.00148987
0.00153009
0.00194154
0.00308874
0.00418522
0.00571049
0.00702766
0.00805206
0.00861505
0.00890875
0.00909118
0.00916523
0.00906325
0.00853479
0.00667913
0.00365787
0.00253357
0.00210197
0.00196799
0.00229943
0.00250352
0.00276021
0.00441596
0.00557472
0.00606271
0.00803102
0.0124475
0.014307
0.0149849
0.0150458
0.0146086
0.0113917
0.00620091
0.00377022
0.00266903
0.00208847
0.00181593
0.0016915
0.0015975
0.00156253
0.00159271
0.00173603
0.00232919
0.0041091
0.00538509
0.00593034
0.00763
0.00939184
0.00974745
0.00950703
0.0092406
0.00911545
0.00890593
0.00873925
0.00842155
0.00805906
0.00738031
0.00639449
0.00504296
0.0036411
0.0027597
0.00238613
0.00221
0.00210617
0.00196684
0.00187147
0.00185322
0.00187441
0.00199298
0.00215543
0.00673721
0.00669961
0.00665105
0.00659777
0.00648817
0.00615189
0.00569584
0.00533538
0.00499401
0.00455488
0.00395439
0.00325998
0.00284903
0.00268878
0.00261093
0.00255814
0.00251447
0.00248222
0.00245993
0.00244881
0.00244729
0.00245032
0.00248017
0.00256124
0.00274641
0.00298948
0.00336595
0.00373955
0.0038975
0.0038104
0.00352028
0.00320948
0.00302536
0.00304524
0.00316901
0.00354271
0.00448134
0.00542817
0.00589362
0.00600279
0.00571497
0.00394156
0.00209409
0.00144576
0.0017177
0.00267713
0.00358291
0.00411201
0.00523744
0.00678209
0.00792024
0.00855077
0.00888791
0.00910155
0.00921378
0.00916188
0.00877452
0.00722847
0.00392199
0.00263215
0.00212177
0.00202963
0.00263976
0.00330787
0.00342673
0.00405347
0.00517577
0.00606686
0.0088753
0.0130329
0.0143705
0.0149066
0.0149821
0.0146362
0.0120839
0.0069118
0.00417591
0.0029411
0.00223525
0.00194049
0.00176738
0.00163088
0.00159484
0.00163417
0.00181292
0.0025245
0.0043008
0.00525957
0.0059587
0.00829795
0.0099125
0.0100124
0.00945767
0.00913156
0.00884573
0.00866709
0.00839405
0.00818026
0.00776235
0.0072296
0.00638786
0.00525718
0.00397544
0.00299994
0.00255449
0.00233694
0.0021643
0.0019859
0.00184557
0.00179966
0.00179271
0.00182579
0.00191675
0.00665616
0.00662064
0.00655962
0.00652613
0.00635033
0.00597498
0.00555882
0.00527804
0.00499372
0.00463186
0.00411307
0.00344976
0.00292628
0.002723
0.00263284
0.00257996
0.00253641
0.00249792
0.00246646
0.00244892
0.00242911
0.00241948
0.00241402
0.00244432
0.00253493
0.00268276
0.00292372
0.00328053
0.00365262
0.00367279
0.00340565
0.00312228
0.00294997
0.00296107
0.00306466
0.00346804
0.00444268
0.00542067
0.00588156
0.00595249
0.00548404
0.0032164
0.00159724
0.00145362
0.00188915
0.00305725
0.00393996
0.00430067
0.00518454
0.00684687
0.00793653
0.00853983
0.00888075
0.0091103
0.00926073
0.00925168
0.00899767
0.00777369
0.00427224
0.00274484
0.00214013
0.00204655
0.00269533
0.00375825
0.00409161
0.00420098
0.0052096
0.00639004
0.0105756
0.0133868
0.0142529
0.0147066
0.0148811
0.014666
0.0133435
0.00887059
0.00527232
0.0035496
0.00255057
0.0021182
0.00183558
0.00166319
0.00163404
0.00168111
0.00190039
0.00274086
0.0044391
0.00514557
0.00599824
0.00871933
0.0101494
0.0100645
0.0093609
0.00886691
0.00854008
0.00825177
0.00806868
0.00780237
0.00754255
0.00711716
0.00646567
0.00547619
0.00423966
0.00319099
0.00271905
0.00250459
0.00233644
0.00210613
0.00188831
0.00181411
0.00179948
0.00181011
0.0018438
0.00656503
0.00652857
0.00644894
0.00640469
0.00620282
0.00584139
0.00548872
0.00526419
0.00501386
0.00469929
0.00424194
0.00365289
0.00305164
0.00277216
0.00265606
0.00259661
0.00255203
0.00250946
0.00247827
0.00245199
0.00242767
0.00241473
0.00239422
0.00238655
0.00241868
0.00251219
0.00269755
0.00301269
0.00344645
0.00349941
0.00319114
0.00289766
0.00275432
0.00281822
0.00303008
0.0035212
0.00456495
0.00552092
0.00575982
0.00538033
0.00383132
0.00203746
0.00144362
0.00142201
0.00167385
0.00244233
0.0035851
0.00412915
0.00518517
0.0068487
0.00791383
0.00850859
0.0088768
0.00913417
0.00930177
0.00934677
0.00918015
0.00828831
0.00469861
0.00286773
0.0021882
0.00208431
0.00259088
0.00362771
0.00457223
0.00478426
0.00546751
0.00747129
0.0117257
0.013383
0.0139314
0.0143856
0.0147285
0.0146421
0.0139078
0.0107131
0.00606688
0.00383416
0.00267648
0.00216944
0.00184886
0.00167114
0.00166152
0.00171839
0.00198717
0.0029853
0.00449112
0.00502949
0.00603045
0.00882508
0.0102644
0.0100689
0.00925569
0.00863099
0.00821813
0.00792294
0.00773983
0.00755716
0.00735653
0.00707121
0.00656441
0.00574171
0.00458158
0.00342368
0.00286633
0.00263213
0.00250333
0.00236129
0.00208224
0.00189822
0.00186135
0.00185667
0.00186196
0.006471
0.00642992
0.00633535
0.00628479
0.00608427
0.00575976
0.00546609
0.00528417
0.00505608
0.00476425
0.00433375
0.00378914
0.0032119
0.00284265
0.00269085
0.00261865
0.00257175
0.00252539
0.00249402
0.00246253
0.00242774
0.00240757
0.00238227
0.00236182
0.00236913
0.00241844
0.00256243
0.00286787
0.00333989
0.00345184
0.00313971
0.00281735
0.00268107
0.00278571
0.00306332
0.00376226
0.00499352
0.00561887
0.00517179
0.00333012
0.00214903
0.00154216
0.00139222
0.00137658
0.00144019
0.00186388
0.00296479
0.00368662
0.00487708
0.0066199
0.00778703
0.00844417
0.00884942
0.00914356
0.00931712
0.0093822
0.00925307
0.00846148
0.00501581
0.00294403
0.00223798
0.00225689
0.00278976
0.00337975
0.00476129
0.00539347
0.00624604
0.00894586
0.0119707
0.0132043
0.0134375
0.0139303
0.014498
0.014529
0.0140005
0.011083
0.00617867
0.0038539
0.00268226
0.00216522
0.00183359
0.00167093
0.00167426
0.00174681
0.00207038
0.00315679
0.00449607
0.00494493
0.00601693
0.00882971
0.0102789
0.0100668
0.00923424
0.00850851
0.00799822
0.00770138
0.00754304
0.00740696
0.00725334
0.00703332
0.00663435
0.0059399
0.00489008
0.00369686
0.0030332
0.00275335
0.00261848
0.00253939
0.0024115
0.00217254
0.00207362
0.00205575
0.00201369
0.00636397
0.00630572
0.00621391
0.00618368
0.00602371
0.00572641
0.0054577
0.00531746
0.0051246
0.00484916
0.00442788
0.00387751
0.00333547
0.00292707
0.00273119
0.00264159
0.00258799
0.00254069
0.00250632
0.00247564
0.0024301
0.00240713
0.00237606
0.00235484
0.00235725
0.00238242
0.00248159
0.00276133
0.00329171
0.00344501
0.00313055
0.00280778
0.00267692
0.0027958
0.00316031
0.00410191
0.00542243
0.00568217
0.00462617
0.0025318
0.00168915
0.00140101
0.001354
0.00135149
0.00139674
0.00176913
0.00280212
0.00351411
0.00443573
0.0061714
0.00753642
0.00832671
0.0087872
0.00912329
0.00931522
0.00938803
0.0092678
0.00848912
0.00512321
0.0029453
0.00224611
0.00238489
0.00324218
0.00367188
0.00450379
0.00573991
0.00700923
0.00952975
0.0118807
0.0126963
0.0127848
0.0132934
0.014164
0.0143396
0.0139185
0.0109921
0.00599248
0.00367703
0.00258723
0.00208344
0.00177211
0.00166122
0.001675
0.00177535
0.00217965
0.00339079
0.00449884
0.00487924
0.00598455
0.00885642
0.0102868
0.010067
0.00927638
0.00848949
0.00791451
0.00760419
0.00744911
0.00733426
0.00720694
0.00702121
0.00667278
0.00606514
0.00511345
0.00395144
0.00322135
0.00290813
0.00274092
0.0026489
0.00259924
0.00254722
0.00244393
0.00246792
0.00245175
0.00614231