FoamFile
{
    version     2.0;
    format      ascii;
    class       volVectorField;
    object      U;
}
dimensions      [0 1 -1 0 0 0 0];

internalField   nonuniform List<vector>
16384
(
(1.2039286982194754e-13 9.57057599739706e-12 0.0)
(-0.41340689297573385 1.8155352898050947 0.0)
(0.367784161519503 -0.32121976890087117 0.0)
(-0.5660411673807054 -4.815928593820436 0.0)
(-0.3630700863211479 -0.26855155048933915 0.0)
(-0.16364980586077982 -1.8539863122540001 0.0)
(-0.08773874549184638 -0.06138572914445324 0.0)
(-0.04275544323755132 -1.1329194926400357 0.0)
(-0.024580126872648274 0.017274351156172308 0.0)
(-0.011525475331960515 -0.8011467501447638 0.0)
(-0.006259067874933561 0.04879044822060011 0.0)
(-0.0015787028569788195 -0.6122801337435237 0.0)
(8.763124497223232e-05 0.061503427923225384 0.0)
(0.001999576391143049 -0.49087430048978375 0.0)
(0.002480065037577073 0.06591765458264946 0.0)
(0.003314802648359925 -0.4063800849293356 0.0)
(0.0033643820508882055 0.06637249799174733 0.0)
(0.003729614962805503 -0.34417381605123 0.0)
(0.0036174877816231594 0.06484590423430048 0.0)
(0.003761281809902026 -0.29640748976481435 0.0)
(0.0035921737086849303 0.0623101322318202 0.0)
(0.0036258513136902502 -0.2585036885239688 0.0)
(0.003442553777470175 0.059270204641857296 0.0)
(0.0034197647749976945 -0.2276177729080197 0.0)
(0.0032399020054785506 0.05599864477431383 0.0)
(0.0031879262744475916 -0.20189129647953702 0.0)
(0.003018357036766118 0.052645888025097815 0.0)
(0.002951621305301384 -0.1800599075809302 0.0)
(0.0027944711069588877 0.04929551208478978 0.0)
(0.002720809085546161 -0.16123406187886827 0.0)
(0.00257612440473234 0.04599328153434173 0.0)
(0.0024998469728401396 -0.1447699030904717 0.0)
(0.0023668024934942423 0.04276305782285786 0.0)
(0.0022902763015914505 -0.13018989692933844 0.0)
(0.0021677329273090953 0.03961580876430886 0.0)
(0.0020922244988454478 -0.11713223475366276 0.0)
(0.0019789858552925876 0.036554848961033566 0.0)
(0.0019051278062764006 -0.10531754924917033 0.0)
(0.0018000534685196563 0.0335789528516769 0.0)
(0.0017281089251279108 -0.09452641079715854 0.0)
(0.001630158875812366 0.03068423323652279 0.0)
(0.0015601746270032086 -0.08458374020726415 0.0)
(0.001468420930573404 0.027865286456006208 0.0)
(0.0014003175312655347 -0.07534777581764374 0.0)
(0.001313940893689899 0.025115893326747782 0.0)
(0.0012475661909796764 -0.06670210910142975 0.0)
(0.0011658461342478601 0.022429446585565192 0.0)
(0.0011010071414380483 -0.05854982974492716 0.0)
(0.0010233100720191252 0.019799207759416168 0.0)
(0.0009597917996619817 -0.050809146657035446 0.0)
(0.0008855590074037185 0.01721845657990033 0.0)
(0.0008231353151930483 -0.04341005737823028 0.0)
(0.0007518718045470251 0.014680572221922308 0.0)
(0.0006903113006142102 -0.03629177155726206 0.0)
(0.0006215757865280575 0.012179071105446233 0.0)
(0.0005606446050102121 -0.029400681911145858 0.0)
(0.0004940407273191537 0.009707616989301449 0.0)
(0.00043350329948948173 -0.02268873480846215 0.0)
(0.00036867198159440574 0.007260013428713055 0.0)
(0.0003082904794925141 -0.016112092398933502 0.0)
(0.00024490330661091557 0.004830185079909356 0.0)
(0.0001844361668669781 -0.009630005353800809 0.0)
(0.00012218964824404154 0.002412152046731574 0.0)
(6.138941147277858e-05 -0.003203833773487915 0.0)
(1.2039286982194754e-13 9.57057599739706e-12 0.0)
(-6.138941123194199e-05 0.0032038337926292527 0.0)
(-0.00012218964800320682 -0.002412152027590461 0.0)
(-0.00018443616662621088 0.00963000537294179 0.0)
(-0.0002449033063701165 -0.004830185060768194 0.0)
(-0.00030829047925169775 0.016112092418074715 0.0)
(-0.0003686719813536248 -0.0072600134095718825 0.0)
(-0.00043350329924869094 0.022688734827603314 0.0)
(-0.0004940407270783738 -0.009707616970160305 0.0)
(-0.0005606446047694443 0.029400681930286922 0.0)
(-0.0006215757862872688 -0.012179071086305083 0.0)
(-0.0006903113003734306 0.03629177157640324 0.0)
(-0.0007518718043062662 -0.014680572202781171 0.0)
(-0.0008231353149522651 0.04341005739737128 0.0)
(-0.0008855590071629742 -0.01721845656075916 0.0)
(-0.0009597917994211921 0.0508091466761766 0.0)
(-0.0010233100717783395 -0.019799207740275014 0.0)
(-0.0011010071411972848 0.05854982976406835 0.0)
(-0.0011658461340070926 -0.02242944656642405 0.0)
(-0.001247566190738901 0.06670210912057108 0.0)
(-0.0013139408934491129 -0.025115893307606628 0.0)
(-0.0014003175310247353 0.07534777583678494 0.0)
(-0.0014684209303326113 -0.027865286436865044 0.0)
(-0.0015601746267623878 0.08458374022640537 0.0)
(-0.001630158875571586 -0.030684233217381646 0.0)
(-0.0017281089248871383 0.09452641081629981 0.0)
(-0.0018000534682788632 -0.033578952832535765 0.0)
(-0.0019051278060356108 0.10531754926831145 0.0)
(-0.0019789858550518106 -0.03655484894189243 0.0)
(-0.0020922244986046634 0.1171322347728039 0.0)
(-0.0021677329270682806 -0.039615808745167735 0.0)
(-0.0022902763013506276 0.13018989694847954 0.0)
(-0.002366802493253456 -0.04276305780371671 0.0)
(-0.002499846972599426 0.14476990310961277 0.0)
(-0.0025761244044915548 -0.04599328151520058 0.0)
(-0.002720809085305411 0.16123406189800918 0.0)
(-0.002794471106718086 -0.04929551206564863 0.0)
(-0.00295162130506066 0.18005990760007118 0.0)
(-0.003018357036525335 -0.052645888005956654 0.0)
(-0.003187926274206837 0.2018912964986781 0.0)
(-0.003239902005237766 -0.05599864475517268 0.0)
(-0.003419764774756968 0.22761777292716068 0.0)
(-0.0034425537772294 -0.05927020462271615 0.0)
(-0.0036258513134495057 0.25850368854310996 0.0)
(-0.0035921737084441525 -0.062310132212679066 0.0)
(-0.003761281809661275 0.2964074897839555 0.0)
(-0.003617487781382361 -0.06484590421515929 0.0)
(-0.0037296149625647354 0.3441738160703712 0.0)
(-0.0033643820506474194 -0.06637249797260616 0.0)
(-0.0033148026481191373 0.40638008494847666 0.0)
(-0.002480065037336253 -0.06591765456350827 0.0)
(-0.001999576390902283 0.4908743005089249 0.0)
(-8.763124473145902e-05 -0.061503427904084244 0.0)
(0.0015787028572195952 0.6122801337626649 0.0)
(0.006259067875174339 -0.04879044820145896 0.0)
(0.011525475332201343 0.8011467501639051 0.0)
(0.02458012687288907 -0.01727435113703112 0.0)
(0.04275544323779206 1.1329194926591768 0.0)
(0.08773874549208716 0.06138572916359434 0.0)
(0.16364980586102065 1.8539863122731413 0.0)
(0.36307008632138876 0.26855155050848023 0.0)
(0.5660411673809461 4.815928593839577 0.0)
(-0.36778416151926235 0.32121976892001236 0.0)
(0.4134068929759747 -1.8155352897859531 0.0)
(0.5482215925645522 0.3605465463940558 0.0)
(0.11419467176780713 1.2610004042081324 0.0)
(-0.9303511630441296 -0.6584836787982354 0.0)
(-0.0840067648071685 -3.000048176202406 0.0)
(0.10973157647525682 -1.2968475183944925 0.0)
(0.10216522685171339 -1.2552993273244943 0.0)
(0.09067237878352796 -0.5935192272480962 0.0)
(0.07686265883977829 -0.7176139782464638 0.0)
(0.06427191480973518 -0.3470706835117389 0.0)
(0.056606495565515814 -0.4864336891998238 0.0)
(0.04798896921762815 -0.23037729134791973 0.0)
(0.04371884697200395 -0.36104082058213843 0.0)
(0.03778599809205899 -0.16444034595616813 0.0)
(0.035287604876862985 -0.28328839019226987 0.0)
(0.031027184118873466 -0.12293738231594778 0.0)
(0.029499017767010187 -0.23075595770873347 0.0)
(0.02630952551850924 -0.09485261546949304 0.0)
(0.02534233297291945 -0.19306949556037842 0.0)
(0.022867238718781477 -0.07483058879912814 0.0)
(0.022240323616546945 -0.16480136880857027 0.0)
(0.020260677940041428 -0.05998058164435719 0.0)
(0.01984871028594352 -0.14285011713771933 0.0)
(0.01822454586964865 -0.048617228349640176 0.0)
(0.01795307047037453 -0.12532171150567925 0.0)
(0.016591479827548775 -0.039697908665770824 0.0)
(0.016414526018828073 -0.1109977183967692 0.0)
(0.015251731250448016 -0.032546506376811404 0.0)
(0.01513996713646004 -0.09906073733832778 0.0)
(0.014130870242697024 -0.02670738680367073 0.0)
(0.014065048481435126 -0.08894307614559002 0.0)
(0.01317691674677792 -0.02186349118189687 0.0)
(0.01314410210593236 -0.08023878857926174 0.0)
(0.012352622176388344 -0.017788097087601446 0.0)
(0.012343943579911063 -0.07265023044221744 0.0)
(0.011630679573988216 -0.014315220042755084 0.0)
(0.011639949076523819 -0.06595435012935781 0.0)
(0.010990659641254936 -0.011320808143210003 0.0)
(0.011013500868125548 -0.059980732284442694 0.0)
(0.010416997049434327 -0.008710428290378455 0.0)
(0.010450281944287654 -0.054596891150413523 0.0)
(0.009897634555554499 -0.0064109873687863755 0.0)
(0.009939111680037051 -0.049698173970197546 0.0)
(0.009423089910402 -0.0043650342778383455 0.0)
(0.009471134623828889 -0.04520067496803465 0.0)
(0.008985800925587824 -0.0025267547517912143 0.0)
(0.009039244822110451 -0.04103616191172698 0.0)
(0.008579657454522818 -0.0008591013213509781 0.0)
(0.008637670395880558 -0.03714837607192454 0.0)
(0.008199661411339567 0.0006683005722353322 0.0)
(0.008261669143819218 -0.033490286446923555 0.0)
(0.007841676050677503 0.0020807066937478386 0.0)
(0.007907302363548835 -0.030022017426620144 0.0)
(0.007502238486825241 0.003399427295176371 0.0)
(0.007571264640824714 -0.026709257907773246 0.0)
(0.007178417690894176 0.0046427285562840506 0.0)
(0.007250754278681516 -0.02352201803627709 0.0)
(0.0068677056554119435 0.0058265384007892326 0.0)
(0.006943373660658837 -0.020433638454958478 0.0)
(0.006567933077482217 0.006965011072802452 0.0)
(0.0066470519842813216 -0.017419983018109545 0.0)
(0.006277203415505307 0.008070990165787651 0.0)
(0.006359984976960032 -0.014458763647946214 0.0)
(0.005993840918517193 0.009156399870458718 0.0)
(0.006080587745524705 -0.01152895803404335 0.0)
(0.00571634946849909 0.010232587553713403 0.0)
(0.005807458028677226 -0.008610288917226783 0.0)
(0.005443379984529114 0.011310636454761736 0.0)
(0.005539347965040722 -0.005682738829723417 0.0)
(0.005173704830246892 0.012401664703730957 0.0)
(0.0052751431624624145 -0.002726077039111438 0.0)
(0.004906198227496066 0.013517125696408698 0.0)
(0.005013848437077305 0.0002806235792510513 0.0)
(0.0046398221769425665 0.014669124946173841 0.0)
(0.004754580153535681 0.0033595028187770994 0.0)
(0.0043736178828163805 0.01587076988871697 0.0)
(0.004496565712490186 0.006534488322605469 0.0)
(0.004106703240829825 0.01713657190437836 0.0)
(0.004239151484234021 0.009831960307004053 0.0)
(0.0038382776608347643 0.018482924402938583 0.0)
(0.003981821496635201 0.01328154417114458 0.0)
(0.0035676364801248777 0.019928687795630246 0.0)
(0.0037242306271947404 0.016917080886649824 0.0)
(0.0032941986651890322 0.021495922536474234 0.0)
(0.0034662582001952374 0.020777842069791108 0.0)
(0.0030175536976055507 0.0232108266915973 0.0)
(0.003208091201126185 0.024910081648449833 0.0)
(0.002737536988289283 0.02510495712744736 0.0)
(0.0029503515464586257 0.02936905305967898 0.0)
(0.002454348705418932 0.027216847289904974 0.0)
(0.002694290281078091 0.03422167638328811 0.0)
(0.0021687400025820814 0.029594185997813948 0.0)
(0.002442085491372215 0.03955012421877036 0.0)
(0.001882305916914928 0.0322968011639774 0.0)
(0.002197304215475437 0.04545672590486416 0.0)
(0.0015979504806501723 0.035400817606316595 0.0)
(0.001965629291510545 0.05207079661771862 0.0)
(0.0013206359262964732 0.039004559879405244 0.0)
(0.0017560243959104283 0.05955833302341457 0.0)
(0.0010586119321350093 0.04323710421100282 0.0)
(0.0015826430816038226 0.06813607427034242 0.0)
(0.0008254782731324844 0.04827094907564652 0.0)
(0.0014680390163993987 0.07809238062478606 0.0)
(0.0006437397065256174 0.054341263628091 0.0)
(0.001448730010686275 0.0898190684065728 0.0)
(0.0005511291023951163 0.06177596631322331 0.0)
(0.001585188172868657 0.10386143467767135 0.0)
(0.0006122807385128565 0.0710442636718003 0.0)
(0.001980535421855107 0.12099962832421748 0.0)
(0.0009412497454920472 0.08283792926249521 0.0)
(0.002817284576736963 0.1423864180238575 0.0)
(0.0017472904620008515 0.09821336969329966 0.0)
(0.004433886225997018 0.16979164558921492 0.0)
(0.003433956798574067 0.11885270891367981 0.0)
(0.007495864165919841 0.2060607319477364 0.0)
(0.006830658995522965 0.1475727604007435 0.0)
(0.013412963350312855 0.2560335723602133 0.0)
(0.013786932944383344 0.18938856647919772 0.0)
(0.025471421420441072 0.3285384127243726 0.0)
(0.02888567768726629 0.25392165949466744 0.0)
(0.05235491117397458 0.44114882435719965 0.0)
(0.06514791441161744 0.36135259593391184 0.0)
(0.1211951950086715 0.6328843769853022 0.0)
(0.16672167738664506 0.558441212286957 0.0)
(0.34044373310242404 1.0042117104712442 0.0)
(0.5344796280733177 0.9691295893794727 0.0)
(1.6698976775542917 1.8927743936616557 0.0)
(5.487536275260364 0.682363253469073 0.0)
(1.8114768055926762 0.1788680764698503 0.0)
(0.9545806144708721 -0.25649169692396506 0.0)
(1.0912619091300353 3.4026981101185423 0.0)
(0.3254761378379738 -0.43162144560966664 0.0)
(0.8154420139420038 -5.490665292934365 0.0)
(0.5437237091884743 -0.18325288084995492 0.0)
(0.31175909051286815 -1.8851698263068355 0.0)
(0.21088022916290988 -0.004651246036965831 0.0)
(0.14059240494203729 -1.1393523530583538 0.0)
(0.10690725715967613 0.05837470083742163 0.0)
(0.07796773522172076 -0.8149302352376908 0.0)
(0.06362425956550526 0.08684486238453332 0.0)
(0.048891968582697946 -0.6351267868121223 0.0)
(0.04175846239712296 0.10110283819610622 0.0)
(0.0331808592121478 -0.5215417896797487 0.0)
(0.02926677821990799 0.10857789239805235 0.0)
(0.023794858501411623 -0.4435445225225367 0.0)
(0.021503905142064482 0.11247058088728609 0.0)
(0.017773284142170994 -0.38676644426536294 0.0)
(0.016373968335240272 0.11433364152723378 0.0)
(0.013697888305244986 -0.34360037610862243 0.0)
(0.012820549730710217 0.11498861745860096 0.0)
(0.010821919405665863 -0.3096545585771655 0.0)
(0.01026549332583303 0.11489921525028488 0.0)
(0.008722885271641891 -0.2822225190215032 0.0)
(0.00837156709471615 0.11434040426959595 0.0)
(0.007147810518842848 -0.2595488454578555 0.0)
(0.0069317798382215285 0.11348160374900243 0.0)
(0.005938092860348888 -0.2404470076332458 0.0)
(0.0058136551542193275 0.11243037751682353 0.0)
(0.004990430851331825 -0.2240871661479038 0.0)
(0.004929387229822747 0.11125663388805304 0.0)
(0.004235340437742226 -0.20987200611975718 0.0)
(0.004219021440732656 0.11000662623697775 0.0)
(0.0036247789850982525 -0.19736083467747162 0.0)
(0.0036405597719304655 0.10871135398424238 0.0)
(0.0031247282772586893 -0.18622143425791296 0.0)
(0.0031639226303286547 0.10739176207233171 0.0)
(0.0027105956547742865 -0.1761985364125088 0.0)
(0.0027671453054567276 0.106062045655718 0.0)
(0.0023642769066810113 -0.16709259980982558 0.0)
(0.0024339147813592994 0.10473179954621573 0.0)
(0.0020722311516090915 -0.15874517194987703 0.0)
(0.0021519352246344 0.10340744493920281 0.0)
(0.0018241898113102088 -0.15102856981571774 0.0)
(0.0019118197659892615 0.10209319378148796 0.0)
(0.0016122731188448283 -0.14383846022453456 0.0)
(0.0017063246914296947 0.10079171156159347 0.0)
(0.001430374626030797 -0.1370884271926612 0.0)
(0.0015298113397350713 0.09950458011455783 0.0)
(0.001273725684572407 -0.13070592553157506 0.0)
(0.0013778625171519676 0.098232625996702 0.0)
(0.0011385831718682654 -0.12462921667951024 0.0)
(0.0012470057817197439 0.0969761575777881 0.0)
(0.0010220032070737892 -0.11880500964884737 0.0)
(0.0011345120290751115 0.09573513981055905 0.0)
(0.0009216759932264084 -0.11318661334366947 0.0)
(0.0010382481558115291 0.09450932652335683 0.0)
(0.0008358049738349425 -0.10773246219183243 0.0)
(0.0009565693739532662 0.09329836416949797 0.0)
(0.000763018839446356 -0.10240491472395089 0.0)
(0.0008882413172912047 0.09210187712570492 0.0)
(0.0007023085547344718 -0.09716925045754585 0.0)
(0.0008323852284955628 0.09091954216870077 0.0)
(0.000652984119337371 -0.0919928080328243 0.0)
(0.0007884417583242444 0.08975115825015806 0.0)
(0.0006146476240670507 -0.0868442194403888 0.0)
(0.0007561505806166703 0.08859671688165452 0.0)
(0.0005871805841712408 -0.08169270293826242 0.0)
(0.0007355443596001372 0.08745647819304495 0.0)
(0.0005707447119033859 -0.07650738184354579 0.0)
(0.0007269567702607641 0.08633105798308673 0.0)
(0.000565796379435488 -0.07125659835463428 0.0)
(0.0007310454107147445 0.08522153185333448 0.0)
(0.0005731161528848703 -0.06590719114424998 0.0)
(0.0007488316966908268 0.084129563888252 0.0)
(0.000593856089613647 -0.0604237026109428 0.0)
(0.0007817613518018793 0.08305756948155878 0.0)
(0.0006296091574269381 -0.05476747604623865 0.0)
(0.0008317911119802594 0.08200892508674403 0.0)
(0.0006825073946514785 -0.04889559387722792 0.0)
(0.0009015100471225446 0.0809882423246275 0.0)
(0.0007553586374303354 -0.042759594422636736 0.0)
(0.0009943079202849022 0.0800017306925687 0.0)
(0.0008518363409185561 -0.03630388441719426 0.0)
(0.0011146089661014317 0.07905768315116715 0.0)
(0.0009767440857185365 -0.02946373504219086 0.0)
(0.0012681985249801983 0.07816713379247249 0.0)
(0.0011363872157765412 -0.02216270584925069 0.0)
(0.0014626840206077647 0.0773447593052475 0.0)
(0.0013391010880759095 -0.014309276650885392 0.0)
(0.001708154038745607 0.07661013042218569 0.0)
(0.0015960127257113553 -0.005792370704770253 0.0)
(0.002018135349579636 0.0759894732212451 0.0)
(0.0019221574602384067 0.003524695471200458 0.0)
(0.002411007576926374 0.07551818535904893 0.0)
(0.002338147441660229 0.013812531064041716 0.0)
(0.002912137101709037 0.07524449035515754 0.0)
(0.0028727188893295412 0.025287321699413026 0.0)
(0.0035571701518706746 0.07523484177654587 0.0)
(0.003566716137483431 0.03822747456659448 0.0)
(0.00439724718904794 0.07558207761540833 0.0)
(0.0044794953934199095 0.052997924816398846 0.0)
(0.005507503182129487 0.07641800279854903 0.0)
(0.005699541160977077 0.07008650161935241 0.0)
(0.0070013899236713 0.07793329502534092 0.0)
(0.007362697793965673 0.090159834937308 0.0)
(0.0090557373202073 0.08040988596326655 0.0)
(0.009684769607820895 0.11415196921644183 0.0)
(0.011956556684807803 0.0842752972211492 0.0)
(0.01302260019497807 0.14340974575884824 0.0)
(0.0161870929689059 0.09019699931548479 0.0)
(0.01799490550347175 0.17994077053626575 0.0)
(0.022607414210779317 0.09925246603771246 0.0)
(0.025737060766026533 0.22685505973933207 0.0)
(0.03284716562167364 0.11324745809570469 0.0)
(0.038480271706532315 0.28918910200366704 0.0)
(0.05023846202313838 0.13533107576894235 0.0)
(0.06098974248990508 0.37551401649537136 0.0)
(0.0822585226905668 0.17118967348091763 0.0)
(0.1045191604101021 0.5011561405525833 0.0)
(0.1476904443768616 0.23111764409151508 0.0)
(0.19896470538380168 0.6942432598568226 0.0)
(0.30051000817840534 0.3308584983168252 0.0)
(0.4340759118494808 0.9999366609649727 0.0)
(0.7190662060939135 0.45338734565318345 0.0)
(0.9277619714746067 1.3325625423382714 0.0)
(-0.2128658134575562 0.0874900384332438 0.0)
(1.1037003642417051 1.975105657602936 0.0)
(2.496601894994836 0.4896492919787388 0.0)
(2.920366504114902 0.79621561182623 0.0)
(6.946406617533899 -0.4298383701090103 0.0)
(2.211481628614866 -1.750276649673907 0.0)
(0.7281297644631181 -0.9801343631103436 0.0)
(0.4908259154404079 -0.8967024771683622 0.0)
(0.26074797058368226 -0.55607044388741 0.0)
(0.20619245385677165 -0.5604471355014009 0.0)
(0.12430336521275342 -0.36399025787324574 0.0)
(0.10686614599123946 -0.3932370679869208 0.0)
(0.06804144698292103 -0.2589589214823992 0.0)
(0.06199772733347056 -0.29591239689302723 0.0)
(0.04029020352031533 -0.1945108626111114 0.0)
(0.03845246123619121 -0.2333389130181877 0.0)
(0.024921855544427735 -0.15170071972728266 0.0)
(0.02480939278379452 -0.19021652688706372 0.0)
(0.015700133039294076 -0.12157225128864703 0.0)
(0.01633017628347643 -0.15893671962195088 0.0)
(0.009834257957018241 -0.09941678525784325 0.0)
(0.010779702190942916 -0.1353337832983027 0.0)
(0.005935571685267106 -0.0825509462497677 0.0)
(0.0069994841406414 -0.11695413097501271 0.0)
(0.003255412436043717 -0.069346298644758 0.0)
(0.004344184311467769 -0.10226747222267413 0.0)
(0.001364060147495698 -0.058763680504713846 0.0)
(0.0024332441535130094 -0.09027439530158213 0.0)
(2.133980235590666e-06 -0.050112174281978596 0.0)
(0.0010316385601682188 -0.08029700038402365 0.0)
(-0.0009935320121135282 -0.04291641877596165 0.0)
(-1.1433474784427828e-05 -0.07186062865389577 0.0)
(-0.0017291822261255745 -0.03683973835365026 0.0)
(-0.0007958906051765541 -0.06462380177951116 0.0)
(-0.002276047386062807 -0.03163765581480191 0.0)
(-0.0013897719285997448 -0.058335021371808155 0.0)
(-0.0026830906037317937 -0.02712873140158153 0.0)
(-0.0018405071708667382 -0.05280519963782412 0.0)
(-0.002984698138198315 -0.023175682738052844 0.0)
(-0.0021818334139758295 -0.04788953313619535 0.0)
(-0.0032054683665755012 -0.01967281857086185 0.0)
(-0.0024381679968863887 -0.043475269250840574 0.0)
(-0.0033632769043889024 -0.016537468018059436 0.0)
(-0.0026274459317316397 -0.03947325560442451 0.0)
(-0.0034712862568270085 -0.013704005767390566 0.0)
(-0.002763003516795859 -0.03581197937150922 0.0)
(-0.0035392916624282355 -0.011119603613889237 0.0)
(-0.002854854107141508 -0.03243328196836832 0.0)
(-0.003574639266260598 -0.008741153917205913 0.0)
(-0.002910567452289148 -0.029289223241802404 0.0)
(-0.00358286263860711 -0.006533003196489183 0.0)
(-0.002935884934422006 -0.026339747969394398 0.0)
(-0.0035681299797751254 -0.00446525471332793 0.0)
(-0.0029351553282887474 -0.023550920695822285 0.0)
(-0.003533561575392378 -0.002512476091543791 0.0)
(-0.0029116462145121263 -0.020893568150574422 0.0)
(-0.0034814565854508006 -0.000652698382854872 0.0)
(-0.0028677675377377383 -0.01834221671335433 0.0)
(-0.0034134551691507686 0.0011333736097160446 0.0)
(-0.002805231760770708 -0.015874244642268585 0.0)
(-0.0033306534091676397 0.0028629974805629934 0.0)
(-0.0027251671151320715 -0.0134691906067791 0.0)
(-0.0032336827947598784 0.004551918329098049 0.0)
(-0.002628195067946563 -0.011108174945452147 0.0)
(-0.0031227621061198315 0.006214814935546981 0.0)
(-0.002514479371855416 -0.008773400200725588 0.0)
(-0.002997726753352064 0.007865692107455574 0.0)
(-0.0023837513359312545 -0.00644770427587883 0.0)
(-0.002858038532502769 0.009518239711485209 0.0)
(-0.002235313850064198 -0.004114143905771359 0.0)
(-0.002702777072981 0.011186176141963999 0.0)
(-0.002068024928702697 -0.001755588579622273 0.0)
(-0.0025306127453349507 0.012883592693434823 0.0)
(-0.0018802598897547267 0.0006456940993229294 0.0)
(-0.0023397592897877683 0.014625315339810386 0.0)
(-0.0016698495508049797 0.0031084812818400645 0.0)
(-0.0021279027301591537 0.016427301777227163 0.0)
(-0.0014339897953997527 0.005653087851563537 0.0)
(-0.0018921010408715735 0.018307094418618428 0.0)
(-0.0011691152759918512 0.008301935446727979 0.0)
(-0.0016286462549202252 0.020284354676040048 0.0)
(-0.0008707265198852212 0.011080229829797596 0.0)
(-0.001332876834316542 0.022381510913331834 0.0)
(-0.0005331547656192668 0.0140167884163127 0.0)
(-0.000998922562574165 0.024624562821355913 0.0)
(-0.00014924167596922278 0.017145073685585942 0.0)
(-0.0006193560102854493 0.027044100099920573 0.0)
(0.0002900996198216692 0.020504508486947595 0.0)
(-0.0001847122451533147 0.02967661546120254 0.0)
(0.0007964919637338022 0.024142179003448578 0.0)
(0.0003171805933227896 0.032566224602545435 0.0)
(0.0013849451305152566 0.028115075185932665 0.0)
(0.0009021471501251537 0.03576695449021859 0.0)
(0.002075065332004473 0.03249308456431007 0.0)
(0.0015910224134444394 0.03934583500675773 0.0)
(0.0028928030020814767 0.037363056052305804 0.0)
(0.0024116349360313186 0.04338714243015736 0.0)
(0.003873025861614977 0.04283440649043456 0.0)
(0.003401761924765264 0.04799832087586226 0.0)
(0.0050633866191535735 0.04904698933137266 0.0)
(0.004613630649051026 0.053318391573311336 0.0)
(0.006530273465832247 0.05618234256831494 0.0)
(0.006120946229264215 0.05953012242996428 0.0)
(0.008368206269410285 0.06448008824710799 0.0)
(0.008030170270179436 0.06687800088296506 0.0)
(0.01071511337243059 0.07426236011767202 0.0)
(0.010499190548376294 0.07569536491501186 0.0)
(0.013778000174299768 0.08597103972839426 0.0)
(0.013769322955467055 0.08644632770207801 0.0)
(0.017877713964805298 0.10022593479677566 0.0)
(0.01822237636670202 0.09979216445452752 0.0)
(0.023530380837502494 0.11791804128462514 0.0)
(0.024487069027635786 0.11669901270312202 0.0)
(0.03160284466476018 0.14036283797457808 0.0)
(0.03364779308601238 0.13861628315205837 0.0)
(0.043625935908870206 0.16955742962837292 0.0)
(0.047678084269867534 0.16777501317665297 0.0)
(0.062465349021054654 0.20861392343655896 0.0)
(0.07039791704463076 0.20767429867218357 0.0)
(0.09385493514328286 0.26245804689283875 0.0)
(0.10972144394644676 0.2637633761518598 0.0)
(0.15012398905430296 0.33871015984027647 0.0)
(0.18316227884785216 0.3436932046041087 0.0)
(0.25954811325930544 0.44721305868181227 0.0)
(0.3305541693530003 0.45240485809824016 0.0)
(0.4870165287391733 0.587815292559484 0.0)
(0.6226107969599702 0.5561053521044698 0.0)
(1.0093128037997114 0.7109747153925527 0.0)
(2.2259457250644714 0.5360848271828035 0.0)
(1.64247708804379 0.6952740488375496 0.0)
(0.945783978403239 0.309478572568604 0.0)
(1.3319720004178839 0.018471510417371172 0.0)
(-0.156219835618149 -0.2950066019514878 0.0)
(1.1559028428852927 -0.5225292449354773 0.0)
(0.8902811337576669 -0.7139313990634313 0.0)
(0.5460350749945336 -0.5799290211093355 0.0)
(0.3864067207816584 -0.5302488679922184 0.0)
(0.264701838269539 -0.4184505643534709 0.0)
(0.2022636417489822 -0.38276125728470173 0.0)
(0.1486829700864117 -0.3075872457535787 0.0)
(0.11994672832471817 -0.28795695843650565 0.0)
(0.09223865339448957 -0.23500890139052918 0.0)
(0.0773286071624193 -0.22513209970902937 0.0)
(0.06129174202432247 -0.185616957242108 0.0)
(0.0528653329931977 -0.18147913454699374 0.0)
(0.04278770761211387 -0.15050693816899186 0.0)
(0.03772290323339703 -0.14982459849303328 0.0)
(0.030982361673152752 -0.12457763716933405 0.0)
(0.027799003260506265 -0.1260335789717732 0.0)
(0.023064551024196557 -0.10480346060979623 0.0)
(0.020998804264882744 -0.10761101937339387 0.0)
(0.017539773128198592 -0.08931076053111785 0.0)
(0.016170121518405342 -0.09298297820021846 0.0)
(0.013559522549530453 -0.07689111808936493 0.0)
(0.01264044908225122 -0.08111663220478281 0.0)
(0.010615712485116334 -0.06673659963387768 0.0)
(0.009997748568112808 -0.07131062602306511 0.0)
(0.008390432123003538 -0.05828981382466286 0.0)
(0.007979179666277203 -0.06307434582572016 0.0)
(0.006677297395136354 -0.051155555449007864 0.0)
(0.006411272412643256 -0.056055608119076616 0.0)
(0.005338063659446014 -0.045046813813556276 0.0)
(0.005176162794648018 -0.0499957945880604 0.0)
(0.004277603475783376 -0.039750687214531434 0.0)
(0.004191734857040561 -0.04470113083251689 0.0)
(0.003428915263268431 -0.035106229538399814 0.0)
(0.003399518871836299 -0.040023781352242854 0.0)
(0.0027438399979300802 -0.03098967321207053 0.0)
(0.002757084390435005 -0.03584909300756741 0.0)
(0.0021871441010414775 -0.027304340064039218 0.0)
(0.002233127079350958 -0.03208679310237215 0.0)
(0.001732650776007693 -0.023973606318871365 0.0)
(0.001804218481082565 -0.028664792089794004 0.0)
(0.0013606531270901226 -0.020935902077427126 0.0)
(0.0014526098021929387 -0.025524738572263714 0.0)
(0.0010561496112007564 -0.01814109333072741 0.0)
(0.0011647198600560976 -0.022618775774621288 0.0)
(0.0008076191270384687 -0.015547820341093836 0.0)
(0.0009300768336376381 -0.019907135838275757 0.0)
(0.0006061576551704371 -0.013121508087550143 0.0)
(0.0007405671175756088 -0.01735632706595762 0.0)
(0.0004448618808265716 -0.010832855477127087 0.0)
(0.0005898959839424826 -0.014937746141693131 0.0)
(0.0003183847148875206 -0.008656669502485137 0.0)
(0.0004731970676710654 -0.012626598020544947 0.0)
(0.00022261271517611892 -0.00657095004646261 0.0)
(0.00038674844047024396 -0.010401040090390622 0.0)
(0.00015443168801533807 -0.00455615766276979 0.0)
(0.0003277666442953988 -0.008241490186696713 0.0)
(0.00011155753878946303 -0.002594614797785375 0.0)
(0.000294259175668544 -0.006130053749997767 0.0)
(9.241675871738772e-05 -0.0006700033428246473 0.0)
(0.0002849221810196061 -0.0040500361828934815 0.0)
(9.606604089354738e-05 0.0012330701006985684 0.0)
(0.00029907457264455984 -0.0019855137839969294 0.0)
(0.00012214421762400928 0.0031294641543121705 0.0)
(0.00033662307718728627 7.905852941806302e-05 0.0)
(0.00017085253910060268 0.005033867054514703 0.0)
(0.00039805534224084577 0.0021592215451765647 0.0)
(0.00024296164793595948 0.006961152721474298 0.0)
(0.00048446048758264546 0.004270885531854287 0.0)
(0.000339845735858198 0.008926745040499699 0.0)
(0.0005975786704263471 0.006430720794296384 0.0)
(0.00046354655368233247 0.010947007488340831 0.0)
(0.0007398835997482252 0.008656583597446262 0.0)
(0.0006168724474251275 0.013039677172945973 0.0)
(0.0009147047740801593 0.010967998785158502 0.0)
(0.0008035407289846828 0.015224365851637238 0.0)
(0.00112639990155648 0.013386724951708964 0.0)
(0.0010283758858971846 0.01752315595823636 0.0)
(0.0013805930112530495 0.015937434887962076 0.0)
(0.0012975820102350483 0.01996132777061399 0.0)
(0.0016845009558439958 0.01864855407691785 0.0)
(0.0016191163225062833 0.022568265622006208 0.0)
(0.0020473815349076577 0.021553314572952204 0.0)
(0.0020032032583085667 0.025378608091016466 0.0)
(0.0024811522384598048 0.024691102687346464 0.0)
(0.002463047646650635 0.028433731836209977 0.0)
(0.0030012527144841258 0.028109209634957673 0.0)
(0.0030158349399562238 0.03178369494575487 0.0)
(0.003627861640555396 0.03186513951825104 0.0)
(0.0036841528081043395 0.035489819251500854 0.0)
(0.004387638452373988 0.03602969635912466 0.0)
(0.004498042932800857 0.039628171347835396 0.0)
(0.005316257507370545 0.04069117348287969 0.0)
(0.005498014314380687 0.04429432401743569 0.0)
(0.006462163720011577 0.0459611240059538 0.0)
(0.006739555495072129 0.04960996763681991 0.0)
(0.007892253801464124 0.051982432430528254 0.0)
(0.008300038878082389 0.055732234536719424 0.0)
(0.00970066864484158 0.05894078689420213 0.0)
(0.010289541778955203 0.06286706321977256 0.0)
(0.012022749670925939 0.06708125571276224 0.0)
(0.012868263873942782 0.0712886695817631 0.0)
(0.015057824404436303 0.07673264012732708 0.0)
(0.016275403372527045 0.0813683755566021 0.0)
(0.019107588250750294 0.08834382268853364 0.0)
(0.0208786253359743 0.09361791050046678 0.0)
(0.024643036470334397 0.10253874193691127 0.0)
(0.02726192565400032 0.10875508862820928 0.0)