/*--------------------------------*- C++ -*----------------------------------*\
  =========                 |
  \\      /  F ield         | OpenFOAM: The Open Source CFD Toolbox
   \\    /   O peration     | Website:  https://openfoam.org
    \\  /    A nd           | Version:  11
     \\/     M anipulation  |
\*---------------------------------------------------------------------------*/
FoamFile
{
    format      ascii;
    class       volVectorField;
    location    "5";
    object      C;
}
// * * * * * * * * * * * * * * * * * * * * * * * * * * * * * * * * * * * * * //

dimensions      [0 1 0 0 0 0 0];

internalField   nonuniform List<vector> 
9600
(
(-8.0159284 -7.4652425 0.5)
(-7.76842 -7.4652425 0.5)
(-7.5209116 -7.4652425 0.5)
(-7.2734032 -7.4652425 0.5)
(-7.0258948 -7.4652425 0.5)
(-6.7783864 -7.4652425 0.5)
(-6.5308779 -7.4652425 0.5)
(-6.2833695 -7.4652425 0.5)
(-6.0358611 -7.4652425 0.5)
(-5.7883527 -7.4652425 0.5)
(-5.5408443 -7.4652425 0.5)
(-5.2933358 -7.4652425 0.5)
(-5.0458274 -7.4652425 0.5)
(-4.798319 -7.4652425 0.5)
(-4.5508106 -7.4652425 0.5)
(-4.3033022 -7.4652425 0.5)
(-4.0557938 -7.4652425 0.5)
(-3.8082853 -7.4652425 0.5)
(-3.5607769 -7.4652425 0.5)
(-3.3132685 -7.4652425 0.5)
(-3.0657601 -7.4652425 0.5)
(-2.8182517 -7.4652425 0.5)
(-2.5707433 -7.4652425 0.5)
(-2.3232348 -7.4652425 0.5)
(-2.0757264 -7.4652425 0.5)
(-1.828218 -7.4652425 0.5)
(-1.5807096 -7.4652425 0.5)
(-1.3332012 -7.4652425 0.5)
(-1.0856928 -7.4652425 0.5)
(-0.83818434 -7.4652425 0.5)
(-0.59067593 -7.4652425 0.5)
(-0.34316751 -7.4652425 0.5)
(-0.095659089 -7.4652425 0.5)
(0.15184933 -7.4652425 0.5)
(0.39935774 -7.4652425 0.5)
(0.64686616 -7.4652425 0.5)
(0.89437458 -7.4652425 0.5)
(1.141883 -7.4652425 0.5)
(1.3893914 -7.4652425 0.5)
(1.6368998 -7.4652425 0.5)
(-7.9184318 -7.3954952 0.5)
(-7.6759232 -7.3954952 0.5)
(-7.4334146 -7.3954952 0.5)
(-7.1909061 -7.3954952 0.5)
(-6.9483975 -7.3954952 0.5)
(-6.7058889 -7.3954952 0.5)
(-6.4633803 -7.3954952 0.5)
(-6.2208717 -7.3954952 0.5)
(-5.9783631 -7.3954952 0.5)
(-5.7358545 -7.3954952 0.5)
(-5.4933459 -7.3954952 0.5)
(-5.2508373 -7.3954952 0.5)
(-5.0083287 -7.3954952 0.5)
(-4.7658201 -7.3954952 0.5)
(-4.5233116 -7.3954952 0.5)
(-4.280803 -7.3954952 0.5)
(-4.0382944 -7.3954952 0.5)
(-3.7957858 -7.3954952 0.5)
(-3.5532772 -7.3954952 0.5)
(-3.3107686 -7.3954952 0.5)
(-3.06826 -7.3954952 0.5)
(-2.8257514 -7.3954952 0.5)
(-2.5832428 -7.3954952 0.5)
(-2.3407342 -7.3954952 0.5)
(-2.0982256 -7.3954952 0.5)
(-1.855717 -7.3954952 0.5)
(-1.6132085 -7.3954952 0.5)
(-1.3706999 -7.3954952 0.5)
(-1.1281913 -7.3954952 0.5)
(-0.88568269 -7.3954952 0.5)
(-0.6431741 -7.3954952 0.5)
(-0.40066551 -7.3954952 0.5)
(-0.15815692 -7.3954952 0.5)
(0.084351671 -7.3954952 0.5)
(0.32686026 -7.3954952 0.5)
(0.56936885 -7.3954952 0.5)
(0.81187744 -7.3954952 0.5)
(1.054386 -7.3954952 0.5)
(1.2968946 -7.3954952 0.5)
(1.5394032 -7.3954952 0.5)
(-7.8209354 -7.325748 0.5)
(-7.5834266 -7.325748 0.5)
(-7.3459178 -7.325748 0.5)
(-7.108409 -7.325748 0.5)
(-6.8709003 -7.325748 0.5)
(-6.6333915 -7.325748 0.5)
(-6.3958827 -7.325748 0.5)
(-6.1583739 -7.325748 0.5)
(-5.9208652 -7.325748 0.5)
(-5.6833564 -7.325748 0.5)
(-5.4458476 -7.325748 0.5)
(-5.2083389 -7.325748 0.5)
(-4.9708301 -7.325748 0.5)
(-4.7333213 -7.325748 0.5)
(-4.4958125 -7.325748 0.5)
(-4.2583038 -7.325748 0.5)
(-4.020795 -7.325748 0.5)
(-3.7832862 -7.325748 0.5)
(-3.5457775 -7.325748 0.5)
(-3.3082687 -7.325748 0.5)
(-3.0707599 -7.325748 0.5)
(-2.8332511 -7.325748 0.5)
(-2.5957424 -7.325748 0.5)
(-2.3582336 -7.325748 0.5)
(-2.1207248 -7.325748 0.5)
(-1.8832161 -7.325748 0.5)
(-1.6457073 -7.325748 0.5)
(-1.4081985 -7.325748 0.5)
(-1.1706897 -7.325748 0.5)
(-0.93318097 -7.325748 0.5)
(-0.6956722 -7.325748 0.5)
(-0.45816343 -7.325748 0.5)
(-0.22065466 -7.325748 0.5)
(0.016854112 -7.325748 0.5)
(0.25436288 -7.325748 0.5)
(0.49187165 -7.325748 0.5)
(0.72938043 -7.325748 0.5)
(0.9668892 -7.325748 0.5)
(1.204398 -7.325748 0.5)
(1.4419068 -7.325748 0.5)
(-7.723439 -7.2560008 0.5)
(-7.4909301 -7.2560008 0.5)
(-7.2584211 -7.2560008 0.5)
(-7.0259121 -7.2560008 0.5)
(-6.7934032 -7.2560008 0.5)
(-6.5608942 -7.2560008 0.5)
(-6.3283853 -7.2560008 0.5)
(-6.0958763 -7.2560008 0.5)
(-5.8633673 -7.2560008 0.5)
(-5.6308584 -7.2560008 0.5)
(-5.3983494 -7.2560008 0.5)
(-5.1658405 -7.2560008 0.5)
(-4.9333315 -7.2560008 0.5)
(-4.7008225 -7.2560008 0.5)
(-4.4683136 -7.2560008 0.5)
(-4.2358046 -7.2560008 0.5)
(-4.0032957 -7.2560008 0.5)
(-3.7707867 -7.2560008 0.5)
(-3.5382777 -7.2560008 0.5)
(-3.3057688 -7.2560008 0.5)
(-3.0732598 -7.2560008 0.5)
(-2.8407509 -7.2560008 0.5)
(-2.6082419 -7.2560008 0.5)
(-2.3757329 -7.2560008 0.5)
(-2.143224 -7.2560008 0.5)
(-1.910715 -7.2560008 0.5)
(-1.6782061 -7.2560008 0.5)
(-1.4456971 -7.2560008 0.5)
(-1.2131881 -7.2560008 0.5)
(-0.98067918 -7.2560008 0.5)
(-0.74817022 -7.2560008 0.5)
(-0.51566126 -7.2560008 0.5)
(-0.2831523 -7.2560008 0.5)
(-0.050643341 -7.2560008 0.5)
(0.18186562 -7.2560008 0.5)
(0.41437458 -7.2560008 0.5)
(0.64688354 -7.2560008 0.5)
(0.8793925 -7.2560008 0.5)
(1.1119015 -7.2560008 0.5)
(1.3444104 -7.2560008 0.5)
(-7.6259429 -7.1862538 0.5)
(-7.3984337 -7.1862538 0.5)
(-7.1709246 -7.1862538 0.5)
(-6.9434154 -7.1862538 0.5)
(-6.7159062 -7.1862538 0.5)
(-6.4883971 -7.1862538 0.5)
(-6.2608879 -7.1862538 0.5)
(-6.0333788 -7.1862538 0.5)
(-5.8058696 -7.1862538 0.5)
(-5.5783605 -7.1862538 0.5)
(-5.3508513 -7.1862538 0.5)
(-5.1233421 -7.1862538 0.5)
(-4.895833 -7.1862538 0.5)
(-4.6683238 -7.1862538 0.5)
(-4.4408147 -7.1862538 0.5)
(-4.2133055 -7.1862538 0.5)
(-3.9857964 -7.1862538 0.5)
(-3.7582872 -7.1862538 0.5)
(-3.530778 -7.1862538 0.5)
(-3.3032689 -7.1862538 0.5)
(-3.0757597 -7.1862538 0.5)
(-2.8482506 -7.1862538 0.5)
(-2.6207414 -7.1862538 0.5)
(-2.3932322 -7.1862538 0.5)
(-2.1657231 -7.1862538 0.5)
(-1.9382139 -7.1862538 0.5)
(-1.7107048 -7.1862538 0.5)
(-1.4831956 -7.1862538 0.5)
(-1.2556865 -7.1862538 0.5)
(-1.0281773 -7.1862538 0.5)
(-0.80066816 -7.1862538 0.5)
(-0.573159 -7.1862538 0.5)
(-0.34564984 -7.1862538 0.5)
(-0.11814068 -7.1862538 0.5)
(0.10936848 -7.1862538 0.5)
(0.33687763 -7.1862538 0.5)
(0.56438679 -7.1862538 0.5)
(0.79189595 -7.1862538 0.5)
(1.0194051 -7.1862538 0.5)
(1.2469143 -7.1862538 0.5)
(-7.5284469 -7.116507 0.5)
(-7.3059375 -7.116507 0.5)
(-7.0834282 -7.116507 0.5)
(-6.8609188 -7.116507 0.5)
(-6.6384094 -7.116507 0.5)
(-6.4159001 -7.116507 0.5)
(-6.1933907 -7.116507 0.5)
(-5.9708813 -7.116507 0.5)
(-5.748372 -7.116507 0.5)
(-5.5258626 -7.116507 0.5)
(-5.3033533 -7.116507 0.5)
(-5.0808439 -7.116507 0.5)
(-4.8583345 -7.116507 0.5)
(-4.6358252 -7.116507 0.5)
(-4.4133158 -7.116507 0.5)
(-4.1908064 -7.116507 0.5)
(-3.9682971 -7.116507 0.5)
(-3.7457877 -7.116507 0.5)
(-3.5232783 -7.116507 0.5)
(-3.300769 -7.116507 0.5)
(-3.0782596 -7.116507 0.5)
(-2.8557503 -7.116507 0.5)
(-2.6332409 -7.116507 0.5)
(-2.4107315 -7.116507 0.5)
(-2.1882222 -7.116507 0.5)
(-1.9657128 -7.116507 0.5)
(-1.7432034 -7.116507 0.5)
(-1.5206941 -7.116507 0.5)
(-1.2981847 -7.116507 0.5)
(-1.0756754 -7.116507 0.5)
(-0.853166 -7.116507 0.5)
(-0.63065663 -7.116507 0.5)
(-0.40814727 -7.116507 0.5)
(-0.1856379 -7.116507 0.5)
(0.036871459 -7.116507 0.5)
(0.25938082 -7.116507 0.5)
(0.48189018 -7.116507 0.5)
(0.70439955 -7.116507 0.5)
(0.92690891 -7.116507 0.5)
(1.1494183 -7.116507 0.5)
(-7.4309511 -7.0467602 0.5)
(-7.2134415 -7.0467602 0.5)
(-6.9959319 -7.0467602 0.5)
(-6.7784223 -7.0467602 0.5)
(-6.5609128 -7.0467602 0.5)
(-6.3434032 -7.0467602 0.5)
(-6.1258936 -7.0467602 0.5)
(-5.908384 -7.0467602 0.5)
(-5.6908745 -7.0467602 0.5)
(-5.4733649 -7.0467602 0.5)
(-5.2558553 -7.0467602 0.5)
(-5.0383457 -7.0467602 0.5)
(-4.8208361 -7.0467602 0.5)
(-4.6033266 -7.0467602 0.5)
(-4.385817 -7.0467602 0.5)
(-4.1683074 -7.0467602 0.5)
(-3.9507978 -7.0467602 0.5)
(-3.7332882 -7.0467602 0.5)
(-3.5157787 -7.0467602 0.5)
(-3.2982691 -7.0467602 0.5)
(-3.0807595 -7.0467602 0.5)
(-2.8632499 -7.0467602 0.5)
(-2.6457404 -7.0467602 0.5)
(-2.4282308 -7.0467602 0.5)
(-2.2107212 -7.0467602 0.5)
(-1.9932116 -7.0467602 0.5)
(-1.775702 -7.0467602 0.5)
(-1.5581925 -7.0467602 0.5)
(-1.3406829 -7.0467602 0.5)
(-1.1231733 -7.0467602 0.5)
(-0.90566373 -7.0467602 0.5)
(-0.68815416 -7.0467602 0.5)
(-0.47064458 -7.0467602 0.5)
(-0.253135 -7.0467602 0.5)
(-0.03562542 -7.0467602 0.5)
(0.18188416 -7.0467602 0.5)
(0.39939374 -7.0467602 0.5)
(0.61690331 -7.0467602 0.5)
(0.83441289 -7.0467602 0.5)
(1.0519225 -7.0467602 0.5)
(-7.3334555 -6.9770136 0.5)
(-7.1209457 -6.9770136 0.5)
(-6.9084359 -6.9770136 0.5)
(-6.6959261 -6.9770136 0.5)
(-6.4834163 -6.9770136 0.5)
(-6.2709065 -6.9770136 0.5)
(-6.0583967 -6.9770136 0.5)
(-5.8458868 -6.9770136 0.5)
(-5.633377 -6.9770136 0.5)
(-5.4208672 -6.9770136 0.5)
(-5.2083574 -6.9770136 0.5)
(-4.9958476 -6.9770136 0.5)
(-4.7833378 -6.9770136 0.5)
(-4.570828 -6.9770136 0.5)
(-4.3583182 -6.9770136 0.5)
(-4.1458084 -6.9770136 0.5)
(-3.9332986 -6.9770136 0.5)
(-3.7207888 -6.9770136 0.5)
(-3.508279 -6.9770136 0.5)
(-3.2957692 -6.9770136 0.5)
(-3.0832594 -6.9770136 0.5)
(-2.8707496 -6.9770136 0.5)
(-2.6582398 -6.9770136 0.5)
(-2.44573 -6.9770136 0.5)
(-2.2332202 -6.9770136 0.5)
(-2.0207104 -6.9770136 0.5)
(-1.8082006 -6.9770136 0.5)
(-1.5956908 -6.9770136 0.5)
(-1.383181 -6.9770136 0.5)
(-1.1706712 -6.9770136 0.5)
(-0.95816136 -6.9770136 0.5)
(-0.74565156 -6.9770136 0.5)
(-0.53314176 -6.9770136 0.5)
(-0.32063196 -6.9770136 0.5)
(-0.10812215 -6.9770136 0.5)
(0.10438765 -6.9770136 0.5)
(0.31689745 -6.9770136 0.5)
(0.52940726 -6.9770136 0.5)
(0.74191706 -6.9770136 0.5)
(0.95442687 -6.9770136 0.5)
(-7.2359601 -6.9072672 0.5)
(-7.02845 -6.9072672 0.5)
(-6.82094 -6.9072672 0.5)
(-6.61343 -6.9072672 0.5)
(-6.4059199 -6.9072672 0.5)
(-6.1984099 -6.9072672 0.5)
(-5.9908998 -6.9072672 0.5)
(-5.7833898 -6.9072672 0.5)
(-5.5758798 -6.9072672 0.5)
(-5.3683697 -6.9072672 0.5)
(-5.1608597 -6.9072672 0.5)
(-4.9533496 -6.9072672 0.5)
(-4.7458396 -6.9072672 0.5)
(-4.5383296 -6.9072672 0.5)
(-4.3308195 -6.9072672 0.5)
(-4.1233095 -6.9072672 0.5)
(-3.9157994 -6.9072672 0.5)
(-3.7082894 -6.9072672 0.5)
(-3.5007794 -6.9072672 0.5)
(-3.2932693 -6.9072672 0.5)
(-3.0857593 -6.9072672 0.5)
(-2.8782492 -6.9072672 0.5)
(-2.6707392 -6.9072672 0.5)
(-2.4632292 -6.9072672 0.5)
(-2.2557191 -6.9072672 0.5)
(-2.0482091 -6.9072672 0.5)
(-1.840699 -6.9072672 0.5)
(-1.633189 -6.9072672 0.5)
(-1.425679 -6.9072672 0.5)
(-1.2181689 -6.9072672 0.5)
(-1.0106589 -6.9072672 0.5)
(-0.80314885 -6.9072672 0.5)
(-0.59563881 -6.9072672 0.5)
(-0.38812877 -6.9072672 0.5)
(-0.18061873 -6.9072672 0.5)
(0.026891314 -6.9072672 0.5)
(0.23440135 -6.9072672 0.5)
(0.44191139 -6.9072672 0.5)
(0.64942143 -6.9072672 0.5)
(0.85693148 -6.9072672 0.5)
(-7.1384649 -6.8375208 0.5)
(-6.9359546 -6.8375208 0.5)
(-6.7334443 -6.8375208 0.5)
(-6.5309341 -6.8375208 0.5)
(-6.3284238 -6.8375208 0.5)
(-6.1259135 -6.8375208 0.5)
(-5.9234032 -6.8375208 0.5)
(-5.7208929 -6.8375208 0.5)
(-5.5183826 -6.8375208 0.5)
(-5.3158723 -6.8375208 0.5)
(-5.113362 -6.8375208 0.5)
(-4.9108517 -6.8375208 0.5)
(-4.7083415 -6.8375208 0.5)
(-4.5058312 -6.8375208 0.5)
(-4.3033209 -6.8375208 0.5)
(-4.1008106 -6.8375208 0.5)
(-3.8983003 -6.8375208 0.5)
(-3.69579 -6.8375208 0.5)
(-3.4932797 -6.8375208 0.5)
(-3.2907694 -6.8375208 0.5)
(-3.0882592 -6.8375208 0.5)
(-2.8857489 -6.8375208 0.5)
(-2.6832386 -6.8375208 0.5)
(-2.4807283 -6.8375208 0.5)
(-2.278218 -6.8375208 0.5)
(-2.0757077 -6.8375208 0.5)
(-1.8731974 -6.8375208 0.5)
(-1.6706871 -6.8375208 0.5)
(-1.4681769 -6.8375208 0.5)
(-1.2656666 -6.8375208 0.5)
(-1.0631563 -6.8375208 0.5)
(-0.860646 -6.8375208 0.5)
(-0.65813571 -6.8375208 0.5)
(-0.45562542 -6.8375208 0.5)
(-0.25311513 -6.8375208 0.5)
(-0.050604843 -6.8375208 0.5)
(0.15190545 -6.8375208 0.5)
(0.35441573 -6.8375208 0.5)
(0.55692602 -6.8375208 0.5)
(0.75943631 -6.8375208 0.5)
(-7.04097 -6.7677747 0.5)
(-6.8434594 -6.7677747 0.5)
(-6.6459489 -6.7677747 0.5)
(-6.4484384 -6.7677747 0.5)
(-6.2509278 -6.7677747 0.5)
(-6.0534173 -6.7677747 0.5)
(-5.8559067 -6.7677747 0.5)
(-5.6583962 -6.7677747 0.5)
(-5.4608856 -6.7677747 0.5)
(-5.2633751 -6.7677747 0.5)
(-5.0658645 -6.7677747 0.5)
(-4.868354 -6.7677747 0.5)
(-4.6708434 -6.7677747 0.5)
(-4.4733329 -6.7677747 0.5)
(-4.2758223 -6.7677747 0.5)
(-4.0783118 -6.7677747 0.5)
(-3.8808012 -6.7677747 0.5)
(-3.6832907 -6.7677747 0.5)
(-3.4857801 -6.7677747 0.5)
(-3.2882696 -6.7677747 0.5)
(-3.090759 -6.7677747 0.5)
(-2.8932485 -6.7677747 0.5)
(-2.6957379 -6.7677747 0.5)
(-2.4982274 -6.7677747 0.5)
(-2.3007168 -6.7677747 0.5)
(-2.1032063 -6.7677747 0.5)
(-1.9056957 -6.7677747 0.5)
(-1.7081852 -6.7677747 0.5)
(-1.5106746 -6.7677747 0.5)
(-1.3131641 -6.7677747 0.5)
(-1.1156535 -6.7677747 0.5)
(-0.918143 -6.7677747 0.5)
(-0.72063245 -6.7677747 0.5)
(-0.5231219 -6.7677747 0.5)
(-0.32561136 -6.7677747 0.5)
(-0.12810081 -6.7677747 0.5)
(0.069409743 -6.7677747 0.5)
(0.26692029 -6.7677747 0.5)
(0.46443084 -6.7677747 0.5)
(0.66194139 -6.7677747 0.5)
(-6.9434753 -6.6980288 0.5)
(-6.7509645 -6.6980288 0.5)
(-6.5584537 -6.6980288 0.5)
(-6.3659429 -6.6980288 0.5)
(-6.173432 -6.6980288 0.5)
(-5.9809212 -6.6980288 0.5)
(-5.7884104 -6.6980288 0.5)
(-5.5958996 -6.6980288 0.5)
(-5.4033888 -6.6980288 0.5)
(-5.2108779 -6.6980288 0.5)
(-5.0183671 -6.6980288 0.5)
(-4.8258563 -6.6980288 0.5)
(-4.6333455 -6.6980288 0.5)
(-4.4408346 -6.6980288 0.5)
(-4.2483238 -6.6980288 0.5)
(-4.055813 -6.6980288 0.5)
(-3.8633022 -6.6980288 0.5)
(-3.6707914 -6.6980288 0.5)
(-3.4782805 -6.6980288 0.5)
(-3.2857697 -6.6980288 0.5)
(-3.0932589 -6.6980288 0.5)
(-2.9007481 -6.6980288 0.5)
(-2.7082372 -6.6980288 0.5)
(-2.5157264 -6.6980288 0.5)
(-2.3232156 -6.6980288 0.5)
(-2.1307048 -6.6980288 0.5)
(-1.938194 -6.6980288 0.5)
(-1.7456831 -6.6980288 0.5)
(-1.5531723 -6.6980288 0.5)
(-1.3606615 -6.6980288 0.5)
(-1.1681507 -6.6980288 0.5)
(-0.97563985 -6.6980288 0.5)
(-0.78312903 -6.6980288 0.5)
(-0.59061821 -6.6980288 0.5)
(-0.39810738 -6.6980288 0.5)
(-0.20559656 -6.6980288 0.5)
(-0.013085737 -6.6980288 0.5)
(0.17942509 -6.6980288 0.5)
(0.37193591 -6.6980288 0.5)
(0.56444673 -6.6980288 0.5)
(-6.845981 -6.628283 0.5)
(-6.6584699 -6.628283 0.5)
(-6.4709587 -6.628283 0.5)
(-6.2834476 -6.628283 0.5)
(-6.0959365 -6.628283 0.5)
(-5.9084254 -6.628283 0.5)
(-5.7209143 -6.628283 0.5)
(-5.5334032 -6.628283 0.5)
(-5.3458921 -6.628283 0.5)
(-5.158381 -6.628283 0.5)
(-4.9708699 -6.628283 0.5)
(-4.7833587 -6.628283 0.5)
(-4.5958476 -6.628283 0.5)
(-4.4083365 -6.628283 0.5)
(-4.2208254 -6.628283 0.5)
(-4.0333143 -6.628283 0.5)
(-3.8458032 -6.628283 0.5)
(-3.6582921 -6.628283 0.5)
(-3.470781 -6.628283 0.5)
(-3.2832699 -6.628283 0.5)
(-3.0957587 -6.628283 0.5)
(-2.9082476 -6.628283 0.5)
(-2.7207365 -6.628283 0.5)
(-2.5332254 -6.628283 0.5)
(-2.3457143 -6.628283 0.5)
(-2.1582032 -6.628283 0.5)
(-1.9706921 -6.628283 0.5)
(-1.783181 -6.628283 0.5)
(-1.5956699 -6.628283 0.5)
(-1.4081587 -6.628283 0.5)
(-1.2206476 -6.628283 0.5)
(-1.0331365 -6.628283 0.5)
(-0.84562542 -6.628283 0.5)
(-0.65811431 -6.628283 0.5)
(-0.4706032 -6.628283 0.5)
(-0.28309209 -6.628283 0.5)
(-0.095580975 -6.628283 0.5)
(0.091930136 -6.628283 0.5)
(0.27944125 -6.628283 0.5)
(0.46695236 -6.628283 0.5)
(-6.7484869 -6.5585375 0.5)
(-6.5659755 -6.5585375 0.5)
(-6.3834641 -6.5585375 0.5)
(-6.2009527 -6.5585375 0.5)
(-6.0184412 -6.5585375 0.5)
(-5.8359298 -6.5585375 0.5)
(-5.6534184 -6.5585375 0.5)
(-5.470907 -6.5585375 0.5)
(-5.2883956 -6.5585375 0.5)
(-5.1058842 -6.5585375 0.5)
(-4.9233727 -6.5585375 0.5)
(-4.7408613 -6.5585375 0.5)
(-4.5583499 -6.5585375 0.5)
(-4.3758385 -6.5585375 0.5)
(-4.1933271 -6.5585375 0.5)
(-4.0108157 -6.5585375 0.5)
(-3.8283043 -6.5585375 0.5)
(-3.6457928 -6.5585375 0.5)
(-3.4632814 -6.5585375 0.5)
(-3.28077 -6.5585375 0.5)
(-3.0982586 -6.5585375 0.5)
(-2.9157472 -6.5585375 0.5)
(-2.7332358 -6.5585375 0.5)
(-2.5507243 -6.5585375 0.5)
(-2.3682129 -6.5585375 0.5)
(-2.1857015 -6.5585375 0.5)
(-2.0031901 -6.5585375 0.5)
(-1.8206787 -6.5585375 0.5)
(-1.6381673 -6.5585375 0.5)
(-1.4556559 -6.5585375 0.5)
(-1.2731444 -6.5585375 0.5)
(-1.090633 -6.5585375 0.5)
(-0.90812161 -6.5585375 0.5)
(-0.7256102 -6.5585375 0.5)
(-0.54309878 -6.5585375 0.5)
(-0.36058737 -6.5585375 0.5)
(-0.17807595 -6.5585375 0.5)
(0.0044354634 -6.5585375 0.5)
(0.18694688 -6.5585375 0.5)
(0.36945829 -6.5585375 0.5)
(-6.6509932 -6.4887923 0.5)
(-6.4734814 -6.4887923 0.5)
(-6.2959697 -6.4887923 0.5)
(-6.118458 -6.4887923 0.5)
(-5.9409462 -6.4887923 0.5)
(-5.7634345 -6.4887923 0.5)
(-5.5859228 -6.4887923 0.5)
(-5.408411 -6.4887923 0.5)
(-5.2308993 -6.4887923 0.5)
(-5.0533875 -6.4887923 0.5)
(-4.8758758 -6.4887923 0.5)
(-4.6983641 -6.4887923 0.5)
(-4.5208523 -6.4887923 0.5)
(-4.3433406 -6.4887923 0.5)
(-4.1658289 -6.4887923 0.5)
(-3.9883171 -6.4887923 0.5)
(-3.8108054 -6.4887923 0.5)
(-3.6332936 -6.4887923 0.5)
(-3.4557819 -6.4887923 0.5)
(-3.2782702 -6.4887923 0.5)
(-3.1007584 -6.4887923 0.5)
(-2.9232467 -6.4887923 0.5)
(-2.745735 -6.4887923 0.5)
(-2.5682232 -6.4887923 0.5)
(-2.3907115 -6.4887923 0.5)
(-2.2131997 -6.4887923 0.5)
(-2.035688 -6.4887923 0.5)
(-1.8581763 -6.4887923 0.5)
(-1.6806645 -6.4887923 0.5)
(-1.5031528 -6.4887923 0.5)
(-1.3256411 -6.4887923 0.5)
(-1.1481293 -6.4887923 0.5)
(-0.97061759 -6.4887923 0.5)
(-0.79310586 -6.4887923 0.5)
(-0.61559412 -6.4887923 0.5)
(-0.43808239 -6.4887923 0.5)
(-0.26057065 -6.4887923 0.5)
(-0.083058909 -6.4887923 0.5)
(0.094452828 -6.4887923 0.5)
(0.27196456 -6.4887923 0.5)
(-6.5534998 -6.4190473 0.5)
(-6.3809877 -6.4190473 0.5)
(-6.2084757 -6.4190473 0.5)
(-6.0359636 -6.4190473 0.5)
(-5.8634515 -6.4190473 0.5)
(-5.6909394 -6.4190473 0.5)
(-5.5184273 -6.4190473 0.5)
(-5.3459153 -6.4190473 0.5)
(-5.1734032 -6.4190473 0.5)
(-5.0008911 -6.4190473 0.5)
(-4.828379 -6.4190473 0.5)
(-4.655867 -6.4190473 0.5)
(-4.4833549 -6.4190473 0.5)
(-4.3108428 -6.4190473 0.5)
(-4.1383307 -6.4190473 0.5)
(-3.9658186 -6.4190473 0.5)
(-3.7933066 -6.4190473 0.5)
(-3.6207945 -6.4190473 0.5)
(-3.4482824 -6.4190473 0.5)
(-3.2757703 -6.4190473 0.5)
(-3.1032583 -6.4190473 0.5)
(-2.9307462 -6.4190473 0.5)
(-2.7582341 -6.4190473 0.5)
(-2.585722 -6.4190473 0.5)
(-2.41321 -6.4190473 0.5)
(-2.2406979 -6.4190473 0.5)
(-2.0681858 -6.4190473 0.5)
(-1.8956737 -6.4190473 0.5)
(-1.7231616 -6.4190473 0.5)
(-1.5506496 -6.4190473 0.5)
(-1.3781375 -6.4190473 0.5)
(-1.2056254 -6.4190473 0.5)
(-1.0331133 -6.4190473 0.5)
(-0.86060127 -6.4190473 0.5)
(-0.68808919 -6.4190473 0.5)
(-0.51557711 -6.4190473 0.5)
(-0.34306503 -6.4190473 0.5)
(-0.17055296 -6.4190473 0.5)
(0.0019591216 -6.4190473 0.5)
(0.1744712 -6.4190473 0.5)
(-6.4560068 -6.3493026 0.5)
(-6.2884944 -6.3493026 0.5)
(-6.120982 -6.3493026 0.5)
(-5.9534695 -6.3493026 0.5)
(-5.7859571 -6.3493026 0.5)
(-5.6184446 -6.3493026 0.5)
(-5.4509322 -6.3493026 0.5)
(-5.2834198 -6.3493026 0.5)
(-5.1159073 -6.3493026 0.5)
(-4.9483949 -6.3493026 0.5)
(-4.7808825 -6.3493026 0.5)
(-4.61337 -6.3493026 0.5)
(-4.4458576 -6.3493026 0.5)
(-4.2783451 -6.3493026 0.5)
(-4.1108327 -6.3493026 0.5)
(-3.9433203 -6.3493026 0.5)
(-3.7758078 -6.3493026 0.5)
(-3.6082954 -6.3493026 0.5)
(-3.440783 -6.3493026 0.5)
(-3.2732705 -6.3493026 0.5)
(-3.1057581 -6.3493026 0.5)
(-2.9382456 -6.3493026 0.5)
(-2.7707332 -6.3493026 0.5)
(-2.6032208 -6.3493026 0.5)
(-2.4357083 -6.3493026 0.5)
(-2.2681959 -6.3493026 0.5)
(-2.1006835 -6.3493026 0.5)
(-1.933171 -6.3493026 0.5)
(-1.7656586 -6.3493026 0.5)
(-1.5981461 -6.3493026 0.5)
(-1.4306337 -6.3493026 0.5)
(-1.2631213 -6.3493026 0.5)
(-1.0956088 -6.3493026 0.5)
(-0.9280964 -6.3493026 0.5)
(-0.76058396 -6.3493026 0.5)
(-0.59307152 -6.3493026 0.5)
(-0.42555909 -6.3493026 0.5)
(-0.25804665 -6.3493026 0.5)
(-0.090534209 -6.3493026 0.5)
(0.076978229 -6.3493026 0.5)
(-6.3585143 -6.2795581 0.5)
(-6.1960015 -6.2795581 0.5)
(-6.0334887 -6.2795581 0.5)
(-5.8709758 -6.2795581 0.5)
(-5.708463 -6.2795581 0.5)
(-5.5459502 -6.2795581 0.5)
(-5.3834374 -6.2795581 0.5)
(-5.2209246 -6.2795581 0.5)
(-5.0584117 -6.2795581 0.5)
(-4.8958989 -6.2795581 0.5)
(-4.7333861 -6.2795581 0.5)
(-4.5708733 -6.2795581 0.5)
(-4.4083605 -6.2795581 0.5)
(-4.2458476 -6.2795581 0.5)
(-4.0833348 -6.2795581 0.5)
(-3.920822 -6.2795581 0.5)
(-3.7583092 -6.2795581 0.5)
(-3.5957964 -6.2795581 0.5)
(-3.4332835 -6.2795581 0.5)
(-3.2707707 -6.2795581 0.5)
(-3.1082579 -6.2795581 0.5)
(-2.9457451 -6.2795581 0.5)
(-2.7832322 -6.2795581 0.5)
(-2.6207194 -6.2795581 0.5)
(-2.4582066 -6.2795581 0.5)
(-2.2956938 -6.2795581 0.5)
(-2.133181 -6.2795581 0.5)
(-1.9706681 -6.2795581 0.5)
(-1.8081553 -6.2795581 0.5)
(-1.6456425 -6.2795581 0.5)
(-1.4831297 -6.2795581 0.5)
(-1.3206169 -6.2795581 0.5)
(-1.158104 -6.2795581 0.5)
(-0.99559123 -6.2795581 0.5)
(-0.83307841 -6.2795581 0.5)
(-0.67056559 -6.2795581 0.5)
(-0.50805277 -6.2795581 0.5)
(-0.34553995 -6.2795581 0.5)
(-0.18302713 -6.2795581 0.5)
(-0.020514308 -6.2795581 0.5)
(-6.2610222 -6.2098141 0.5)
(-6.103509 -6.2098141 0.5)
(-5.9459958 -6.2098141 0.5)
(-5.7884826 -6.2098141 0.5)
(-5.6309693 -6.2098141 0.5)
(-5.4734561 -6.2098141 0.5)
(-5.3159429 -6.2098141 0.5)
(-5.1584296 -6.2098141 0.5)
(-5.0009164 -6.2098141 0.5)
(-4.8434032 -6.2098141 0.5)
(-4.68589 -6.2098141 0.5)
(-4.5283767 -6.2098141 0.5)
(-4.3708635 -6.2098141 0.5)
(-4.2133503 -6.2098141 0.5)
(-4.0558371 -6.2098141 0.5)
(-3.8983238 -6.2098141 0.5)
(-3.7408106 -6.2098141 0.5)
(-3.5832974 -6.2098141 0.5)
(-3.4257841 -6.2098141 0.5)
(-3.2682709 -6.2098141 0.5)
(-3.1107577 -6.2098141 0.5)
(-2.9532445 -6.2098141 0.5)
(-2.7957312 -6.2098141 0.5)
(-2.638218 -6.2098141 0.5)
(-2.4807048 -6.2098141 0.5)
(-2.3231915 -6.2098141 0.5)
(-2.1656783 -6.2098141 0.5)
(-2.0081651 -6.2098141 0.5)
(-1.8506519 -6.2098141 0.5)
(-1.6931386 -6.2098141 0.5)
(-1.5356254 -6.2098141 0.5)
(-1.3781122 -6.2098141 0.5)
(-1.220599 -6.2098141 0.5)
(-1.0630857 -6.2098141 0.5)
(-0.90557251 -6.2098141 0.5)
(-0.74805928 -6.2098141 0.5)
(-0.59054606 -6.2098141 0.5)
(-0.43303283 -6.2098141 0.5)
(-0.2755196 -6.2098141 0.5)
(-0.11800637 -6.2098141 0.5)
(-6.1635307 -6.1400704 0.5)
(-6.011017 -6.1400704 0.5)
(-5.8585034 -6.1400704 0.5)
(-5.7059897 -6.1400704 0.5)
(-5.553476 -6.1400704 0.5)
(-5.4009624 -6.1400704 0.5)
(-5.2484487 -6.1400704 0.5)
(-5.0959351 -6.1400704 0.5)
(-4.9434214 -6.1400704 0.5)
(-4.7909077 -6.1400704 0.5)
(-4.6383941 -6.1400704 0.5)
(-4.4858804 -6.1400704 0.5)
(-4.3333668 -6.1400704 0.5)
(-4.1808531 -6.1400704 0.5)
(-4.0283394 -6.1400704 0.5)
(-3.8758258 -6.1400704 0.5)
(-3.7233121 -6.1400704 0.5)
(-3.5707985 -6.1400704 0.5)
(-3.4182848 -6.1400704 0.5)
(-3.2657711 -6.1400704 0.5)
(-3.1132575 -6.1400704 0.5)
(-2.9607438 -6.1400704 0.5)
(-2.8082301 -6.1400704 0.5)
(-2.6557165 -6.1400704 0.5)
(-2.5032028 -6.1400704 0.5)
(-2.3506892 -6.1400704 0.5)
(-2.1981755 -6.1400704 0.5)
(-2.0456618 -6.1400704 0.5)
(-1.8931482 -6.1400704 0.5)
(-1.7406345 -6.1400704 0.5)
(-1.5881209 -6.1400704 0.5)
(-1.4356072 -6.1400704 0.5)
(-1.2830935 -6.1400704 0.5)
(-1.1305799 -6.1400704 0.5)
(-0.97806622 -6.1400704 0.5)
(-0.82555256 -6.1400704 0.5)
(-0.6730389 -6.1400704 0.5)
(-0.52052524 -6.1400704 0.5)
(-0.36801158 -6.1400704 0.5)
(-0.21549792 -6.1400704 0.5)
(-6.0660397 -6.070327 0.5)
(-5.9185256 -6.070327 0.5)
(-5.7710115 -6.070327 0.5)
(-5.6234974 -6.070327 0.5)
(-5.4759832 -6.070327 0.5)
(-5.3284691 -6.070327 0.5)
(-5.180955 -6.070327 0.5)
(-5.0334409 -6.070327 0.5)
(-4.8859267 -6.070327 0.5)
(-4.7384126 -6.070327 0.5)
(-4.5908985 -6.070327 0.5)
(-4.4433844 -6.070327 0.5)
(-4.2958702 -6.070327 0.5)
(-4.1483561 -6.070327 0.5)
(-4.000842 -6.070327 0.5)
(-3.8533279 -6.070327 0.5)
(-3.7058137 -6.070327 0.5)
(-3.5582996 -6.070327 0.5)
(-3.4107855 -6.070327 0.5)
(-3.2632714 -6.070327 0.5)
(-3.1157572 -6.070327 0.5)
(-2.9682431 -6.070327 0.5)
(-2.820729 -6.070327 0.5)
(-2.6732149 -6.070327 0.5)
(-2.5257007 -6.070327 0.5)
(-2.3781866 -6.070327 0.5)
(-2.2306725 -6.070327 0.5)
(-2.0831584 -6.070327 0.5)
(-1.9356442 -6.070327 0.5)
(-1.7881301 -6.070327 0.5)
(-1.640616 -6.070327 0.5)
(-1.4931019 -6.070327 0.5)
(-1.3455877 -6.070327 0.5)
(-1.1980736 -6.070327 0.5)
(-1.0505595 -6.070327 0.5)
(-0.90304538 -6.070327 0.5)
(-0.75553126 -6.070327 0.5)
(-0.60801713 -6.070327 0.5)
(-0.46050301 -6.070327 0.5)
(-0.31298889 -6.070327 0.5)
(-5.9685494 -6.0005842 0.5)
(-5.8260348 -6.0005842 0.5)
(-5.6835201 -6.0005842 0.5)
(-5.5410055 -6.0005842 0.5)
(-5.3984909 -6.0005842 0.5)
(-5.2559763 -6.0005842 0.5)
(-5.1134617 -6.0005842 0.5)
(-4.970947 -6.0005842 0.5)
(-4.8284324 -6.0005842 0.5)
(-4.6859178 -6.0005842 0.5)
(-4.5434032 -6.0005842 0.5)
(-4.4008886 -6.0005842 0.5)
(-4.2583739 -6.0005842 0.5)
(-4.1158593 -6.0005842 0.5)
(-3.9733447 -6.0005842 0.5)
(-3.8308301 -6.0005842 0.5)
(-3.6883155 -6.0005842 0.5)
(-3.5458008 -6.0005842 0.5)
(-3.4032862 -6.0005842 0.5)
(-3.2607716 -6.0005842 0.5)
(-3.118257 -6.0005842 0.5)
(-2.9757424 -6.0005842 0.5)
(-2.8332278 -6.0005842 0.5)
(-2.6907131 -6.0005842 0.5)
(-2.5481985 -6.0005842 0.5)
(-2.4056839 -6.0005842 0.5)
(-2.2631693 -6.0005842 0.5)
(-2.1206547 -6.0005842 0.5)
(-1.97814 -6.0005842 0.5)
(-1.8356254 -6.0005842 0.5)
(-1.6931108 -6.0005842 0.5)
(-1.5505962 -6.0005842 0.5)
(-1.4080816 -6.0005842 0.5)
(-1.2655669 -6.0005842 0.5)
(-1.1230523 -6.0005842 0.5)
(-0.9805377 -6.0005842 0.5)
(-0.83802308 -6.0005842 0.5)
(-0.69550846 -6.0005842 0.5)
(-0.55299384 -6.0005842 0.5)
(-0.41047922 -6.0005842 0.5)
(-5.8710598 -5.9308419 0.5)
(-5.7335446 -5.9308419 0.5)
(-5.5960295 -5.9308419 0.5)
(-5.4585143 -5.9308419 0.5)
(-5.3209991 -5.9308419 0.5)
(-5.183484 -5.9308419 0.5)
(-5.0459688 -5.9308419 0.5)
(-4.9084537 -5.9308419 0.5)
(-4.7709385 -5.9308419 0.5)
(-4.6334234 -5.9308419 0.5)
(-4.4959082 -5.9308419 0.5)
(-4.3583931 -5.9308419 0.5)
(-4.2208779 -5.9308419 0.5)
(-4.0833628 -5.9308419 0.5)
(-3.9458476 -5.9308419 0.5)
(-3.8083325 -5.9308419 0.5)
(-3.6708173 -5.9308419 0.5)
(-3.5333022 -5.9308419 0.5)
(-3.395787 -5.9308419 0.5)
(-3.2582719 -5.9308419 0.5)
(-3.1207567 -5.9308419 0.5)
(-2.9832416 -5.9308419 0.5)
(-2.8457264 -5.9308419 0.5)
(-2.7082113 -5.9308419 0.5)
(-2.5706961 -5.9308419 0.5)
(-2.433181 -5.9308419 0.5)
(-2.2956658 -5.9308419 0.5)
(-2.1581507 -5.9308419 0.5)
(-2.0206355 -5.9308419 0.5)
(-1.8831204 -5.9308419 0.5)
(-1.7456052 -5.9308419 0.5)
(-1.6080901 -5.9308419 0.5)
(-1.4705749 -5.9308419 0.5)
(-1.3330598 -5.9308419 0.5)
(-1.1955446 -5.9308419 0.5)
(-1.0580295 -5.9308419 0.5)
(-0.92051431 -5.9308419 0.5)
(-0.78299916 -5.9308419 0.5)
(-0.64548401 -5.9308419 0.5)
(-0.50796886 -5.9308419 0.5)
(-5.7735709 -5.8611001 0.5)
(-5.6410552 -5.8611001 0.5)
(-5.5085395 -5.8611001 0.5)
(-5.3760237 -5.8611001 0.5)
(-5.243508 -5.8611001 0.5)
(-5.1109923 -5.8611001 0.5)
(-4.9784766 -5.8611001 0.5)
(-4.8459608 -5.8611001 0.5)
(-4.7134451 -5.8611001 0.5)
(-4.5809294 -5.8611001 0.5)
(-4.4484137 -5.8611001 0.5)
(-4.3158979 -5.8611001 0.5)
(-4.1833822 -5.8611001 0.5)
(-4.0508665 -5.8611001 0.5)
(-3.9183508 -5.8611001 0.5)
(-3.7858351 -5.8611001 0.5)
(-3.6533193 -5.8611001 0.5)
(-3.5208036 -5.8611001 0.5)
(-3.3882879 -5.8611001 0.5)
(-3.2557722 -5.8611001 0.5)
(-3.1232564 -5.8611001 0.5)
(-2.9907407 -5.8611001 0.5)
(-2.858225 -5.8611001 0.5)
(-2.7257093 -5.8611001 0.5)
(-2.5931935 -5.8611001 0.5)
(-2.4606778 -5.8611001 0.5)
(-2.3281621 -5.8611001 0.5)
(-2.1956464 -5.8611001 0.5)
(-2.0631307 -5.8611001 0.5)
(-1.9306149 -5.8611001 0.5)
(-1.7980992 -5.8611001 0.5)
(-1.6655835 -5.8611001 0.5)
(-1.5330678 -5.8611001 0.5)
(-1.400552 -5.8611001 0.5)
(-1.2680363 -5.8611001 0.5)
(-1.1355206 -5.8611001 0.5)
(-1.0030049 -5.8611001 0.5)
(-0.87048915 -5.8611001 0.5)
(-0.73797343 -5.8611001 0.5)
(-0.60545771 -5.8611001 0.5)
(-5.6760829 -5.7913589 0.5)
(-5.5485666 -5.7913589 0.5)
(-5.4210502 -5.7913589 0.5)
(-5.2935339 -5.7913589 0.5)
(-5.1660176 -5.7913589 0.5)
(-5.0385012 -5.7913589 0.5)
(-4.9109849 -5.7913589 0.5)
(-4.7834685 -5.7913589 0.5)
(-4.6559522 -5.7913589 0.5)
(-4.5284359 -5.7913589 0.5)
(-4.4009195 -5.7913589 0.5)
(-4.2734032 -5.7913589 0.5)
(-4.1458868 -5.7913589 0.5)
(-4.0183705 -5.7913589 0.5)
(-3.8908542 -5.7913589 0.5)
(-3.7633378 -5.7913589 0.5)
(-3.6358215 -5.7913589 0.5)
(-3.5083051 -5.7913589 0.5)
(-3.3807888 -5.7913589 0.5)
(-3.2532725 -5.7913589 0.5)
(-3.1257561 -5.7913589 0.5)
(-2.9982398 -5.7913589 0.5)
(-2.8707235 -5.7913589 0.5)
(-2.7432071 -5.7913589 0.5)
(-2.6156908 -5.7913589 0.5)
(-2.4881744 -5.7913589 0.5)
(-2.3606581 -5.7913589 0.5)
(-2.2331418 -5.7913589 0.5)
(-2.1056254 -5.7913589 0.5)
(-1.9781091 -5.7913589 0.5)
(-1.8505927 -5.7913589 0.5)
(-1.7230764 -5.7913589 0.5)
(-1.5955601 -5.7913589 0.5)
(-1.4680437 -5.7913589 0.5)
(-1.3405274 -5.7913589 0.5)
(-1.213011 -5.7913589 0.5)
(-1.0854947 -5.7913589 0.5)
(-0.95797836 -5.7913589 0.5)
(-0.83046202 -5.7913589 0.5)
(-0.70294568 -5.7913589 0.5)
(-5.5785959 -5.7216185 0.5)
(-5.4560789 -5.7216185 0.5)
(-5.3335619 -5.7216185 0.5)
(-5.2110449 -5.7216185 0.5)
(-5.0885279 -5.7216185 0.5)
(-4.9660109 -5.7216185 0.5)
(-4.8434939 -5.7216185 0.5)
(-4.7209769 -5.7216185 0.5)
(-4.5984599 -5.7216185 0.5)
(-4.4759429 -5.7216185 0.5)
(-4.3534259 -5.7216185 0.5)
(-4.2309089 -5.7216185 0.5)
(-4.1083919 -5.7216185 0.5)
(-3.9858748 -5.7216185 0.5)
(-3.8633578 -5.7216185 0.5)
(-3.7408408 -5.7216185 0.5)
(-3.6183238 -5.7216185 0.5)
(-3.4958068 -5.7216185 0.5)
(-3.3732898 -5.7216185 0.5)
(-3.2507728 -5.7216185 0.5)
(-3.1282558 -5.7216185 0.5)
(-3.0057388 -5.7216185 0.5)
(-2.8832218 -5.7216185 0.5)
(-2.7607048 -5.7216185 0.5)
(-2.6381878 -5.7216185 0.5)
(-2.5156708 -5.7216185 0.5)
(-2.3931538 -5.7216185 0.5)
(-2.2706367 -5.7216185 0.5)
(-2.1481197 -5.7216185 0.5)
(-2.0256027 -5.7216185 0.5)
(-1.9030857 -5.7216185 0.5)
(-1.7805687 -5.7216185 0.5)
(-1.6580517 -5.7216185 0.5)
(-1.5355347 -5.7216185 0.5)
(-1.4130177 -5.7216185 0.5)
(-1.2905007 -5.7216185 0.5)
(-1.1679837 -5.7216185 0.5)
(-1.0454667 -5.7216185 0.5)
(-0.92294968 -5.7216185 0.5)
(-0.80043268 -5.7216185 0.5)
(-5.48111 -5.6518788 0.5)
(-5.3635923 -5.6518788 0.5)
(-5.2460746 -5.6518788 0.5)
(-5.1285569 -5.6518788 0.5)
(-5.0110391 -5.6518788 0.5)
(-4.8935214 -5.6518788 0.5)
(-4.7760037 -5.6518788 0.5)
(-4.6584859 -5.6518788 0.5)
(-4.5409682 -5.6518788 0.5)
(-4.4234505 -5.6518788 0.5)
(-4.3059327 -5.6518788 0.5)
(-4.188415 -5.6518788 0.5)
(-4.0708973 -5.6518788 0.5)