/*--------------------------------*- C++ -*----------------------------------*\
  =========                 |
  \\      /  F ield         | OpenFOAM: The Open Source CFD Toolbox
   \\    /   O peration     | Website:  https://openfoam.org
    \\  /    A nd           | Version:  11
     \\/     M anipulation  |
\*---------------------------------------------------------------------------*/
FoamFile
{
    format      ascii;
    class       volVectorField;
    location    "0";
    object      C;
}
// * * * * * * * * * * * * * * * * * * * * * * * * * * * * * * * * * * * * * //

dimensions      [0 1 0 0 0 0 0];

internalField   nonuniform List<vector> 
9600
(
(-3.2950632 -7.3727591 0.5)
(-3.0475548 -7.3727591 0.5)
(-2.8000464 -7.3727591 0.5)
(-2.552538 -7.3727591 0.5)
(-2.3050296 -7.3727591 0.5)
(-2.0575212 -7.3727591 0.5)
(-1.8100127 -7.3727591 0.5)
(-1.5625043 -7.3727591 0.5)
(-1.3149959 -7.3727591 0.5)
(-1.0674875 -7.3727591 0.5)
(-0.81997908 -7.3727591 0.5)
(-0.57247066 -7.3727591 0.5)
(-0.32496224 -7.3727591 0.5)
(-0.077453825 -7.3727591 0.5)
(0.17005459 -7.3727591 0.5)
(0.41756301 -7.3727591 0.5)
(0.66507143 -7.3727591 0.5)
(0.91257985 -7.3727591 0.5)
(1.1600883 -7.3727591 0.5)
(1.4075967 -7.3727591 0.5)
(1.6551051 -7.3727591 0.5)
(1.9026135 -7.3727591 0.5)
(2.1501219 -7.3727591 0.5)
(2.3976304 -7.3727591 0.5)
(2.6451388 -7.3727591 0.5)
(2.8926472 -7.3727591 0.5)
(3.1401556 -7.3727591 0.5)
(3.387664 -7.3727591 0.5)
(3.6351724 -7.3727591 0.5)
(3.8826809 -7.3727591 0.5)
(4.1301893 -7.3727591 0.5)
(4.3776977 -7.3727591 0.5)
(4.6252061 -7.3727591 0.5)
(4.8727145 -7.3727591 0.5)
(5.120223 -7.3727591 0.5)
(5.3677314 -7.3727591 0.5)
(5.6152398 -7.3727591 0.5)
(5.8627482 -7.3727591 0.5)
(6.1102566 -7.3727591 0.5)
(6.357765 -7.3727591 0.5)
(-3.1975666 -7.1174264 0.5)
(-2.955058 -7.1174264 0.5)
(-2.7125494 -7.1174264 0.5)
(-2.4700409 -7.1174264 0.5)
(-2.2275323 -7.1174264 0.5)
(-1.9850237 -7.1174264 0.5)
(-1.7425151 -7.1174264 0.5)
(-1.5000065 -7.1174264 0.5)
(-1.2574979 -7.1174264 0.5)
(-1.0149893 -7.1174264 0.5)
(-0.77248073 -7.1174264 0.5)
(-0.52997213 -7.1174264 0.5)
(-0.28746354 -7.1174264 0.5)
(-0.044954953 -7.1174264 0.5)
(0.19755364 -7.1174264 0.5)
(0.44006223 -7.1174264 0.5)
(0.68257082 -7.1174264 0.5)
(0.92507942 -7.1174264 0.5)
(1.167588 -7.1174264 0.5)
(1.4100966 -7.1174264 0.5)
(1.6526052 -7.1174264 0.5)
(1.8951138 -7.1174264 0.5)
(2.1376224 -7.1174264 0.5)
(2.380131 -7.1174264 0.5)
(2.6226396 -7.1174264 0.5)
(2.8651482 -7.1174264 0.5)
(3.1076567 -7.1174264 0.5)
(3.3501653 -7.1174264 0.5)
(3.5926739 -7.1174264 0.5)
(3.8351825 -7.1174264 0.5)
(4.0776911 -7.1174264 0.5)
(4.3201997 -7.1174264 0.5)
(4.5627083 -7.1174264 0.5)
(4.8052169 -7.1174264 0.5)
(5.0477255 -7.1174264 0.5)
(5.2902341 -7.1174264 0.5)
(5.5327427 -7.1174264 0.5)
(5.7752512 -7.1174264 0.5)
(6.0177598 -7.1174264 0.5)
(6.2602684 -7.1174264 0.5)
(-3.1000702 -6.8620941 0.5)
(-2.8625614 -6.8620941 0.5)
(-2.6250526 -6.8620941 0.5)
(-2.3875438 -6.8620941 0.5)
(-2.1500351 -6.8620941 0.5)
(-1.9125263 -6.8620941 0.5)
(-1.6750175 -6.8620941 0.5)
(-1.4375087 -6.8620941 0.5)
(-1.2 -6.8620941 0.5)
(-0.96249121 -6.8620941 0.5)
(-0.72498244 -6.8620941 0.5)
(-0.48747367 -6.8620941 0.5)
(-0.2499649 -6.8620941 0.5)
(-0.012456128 -6.8620941 0.5)
(0.22505264 -6.8620941 0.5)
(0.46256142 -6.8620941 0.5)
(0.70007019 -6.8620941 0.5)
(0.93757897 -6.8620941 0.5)
(1.1750877 -6.8620941 0.5)
(1.4125965 -6.8620941 0.5)
(1.6501053 -6.8620941 0.5)
(1.8876141 -6.8620941 0.5)
(2.1251228 -6.8620941 0.5)
(2.3626316 -6.8620941 0.5)
(2.6001404 -6.8620941 0.5)
(2.8376491 -6.8620941 0.5)
(3.0751579 -6.8620941 0.5)
(3.3126667 -6.8620941 0.5)
(3.5501755 -6.8620941 0.5)
(3.7876842 -6.8620941 0.5)
(4.025193 -6.8620941 0.5)
(4.2627018 -6.8620941 0.5)
(4.5002105 -6.8620941 0.5)
(4.7377193 -6.8620941 0.5)
(4.9752281 -6.8620941 0.5)
(5.2127369 -6.8620941 0.5)
(5.4502456 -6.8620941 0.5)
(5.6877544 -6.8620941 0.5)
(5.9252632 -6.8620941 0.5)
(6.162772 -6.8620941 0.5)
(-3.0025738 -6.6067623 0.5)
(-2.7700649 -6.6067623 0.5)
(-2.5375559 -6.6067623 0.5)
(-2.3050469 -6.6067623 0.5)
(-2.072538 -6.6067623 0.5)
(-1.840029 -6.6067623 0.5)
(-1.6075201 -6.6067623 0.5)
(-1.3750111 -6.6067623 0.5)
(-1.1425021 -6.6067623 0.5)
(-0.90999319 -6.6067623 0.5)
(-0.67748424 -6.6067623 0.5)
(-0.44497527 -6.6067623 0.5)
(-0.21246632 -6.6067623 0.5)
(0.020042646 -6.6067623 0.5)
(0.25255161 -6.6067623 0.5)
(0.48506057 -6.6067623 0.5)
(0.71756953 -6.6067623 0.5)
(0.95007849 -6.6067623 0.5)
(1.1825875 -6.6067623 0.5)
(1.4150964 -6.6067623 0.5)
(1.6476054 -6.6067623 0.5)
(1.8801143 -6.6067623 0.5)
(2.1126233 -6.6067623 0.5)
(2.3451323 -6.6067623 0.5)
(2.5776412 -6.6067623 0.5)
(2.8101502 -6.6067623 0.5)
(3.0426591 -6.6067623 0.5)
(3.2751681 -6.6067623 0.5)
(3.5076771 -6.6067623 0.5)
(3.740186 -6.6067623 0.5)
(3.972695 -6.6067623 0.5)
(4.2052039 -6.6067623 0.5)
(4.4377129 -6.6067623 0.5)
(4.6702219 -6.6067623 0.5)
(4.9027308 -6.6067623 0.5)
(5.1352398 -6.6067623 0.5)
(5.3677487 -6.6067623 0.5)
(5.6002577 -6.6067623 0.5)
(5.8327667 -6.6067623 0.5)
(6.0652756 -6.6067623 0.5)
(-2.9050777 -6.3514308 0.5)
(-2.6775685 -6.3514308 0.5)
(-2.4500594 -6.3514308 0.5)
(-2.2225502 -6.3514308 0.5)
(-1.995041 -6.3514308 0.5)
(-1.7675319 -6.3514308 0.5)
(-1.5400227 -6.3514308 0.5)
(-1.3125136 -6.3514308 0.5)
(-1.0850044 -6.3514308 0.5)
(-0.85749526 -6.3514308 0.5)
(-0.62998611 -6.3514308 0.5)
(-0.40247695 -6.3514308 0.5)
(-0.17496779 -6.3514308 0.5)
(0.052541365 -6.3514308 0.5)
(0.28005052 -6.3514308 0.5)
(0.50755968 -6.3514308 0.5)
(0.73506884 -6.3514308 0.5)
(0.962578 -6.3514308 0.5)
(1.1900872 -6.3514308 0.5)
(1.4175963 -6.3514308 0.5)
(1.6451055 -6.3514308 0.5)
(1.8726146 -6.3514308 0.5)
(2.1001238 -6.3514308 0.5)
(2.327633 -6.3514308 0.5)
(2.5551421 -6.3514308 0.5)
(2.7826513 -6.3514308 0.5)
(3.0101604 -6.3514308 0.5)
(3.2376696 -6.3514308 0.5)
(3.4651787 -6.3514308 0.5)
(3.6926879 -6.3514308 0.5)
(3.9201971 -6.3514308 0.5)
(4.1477062 -6.3514308 0.5)
(4.3752154 -6.3514308 0.5)
(4.6027245 -6.3514308 0.5)
(4.8302337 -6.3514308 0.5)
(5.0577428 -6.3514308 0.5)
(5.285252 -6.3514308 0.5)
(5.5127612 -6.3514308 0.5)
(5.7402703 -6.3514308 0.5)
(5.9677795 -6.3514308 0.5)
(-2.8075817 -6.0960997 0.5)
(-2.5850723 -6.0960997 0.5)
(-2.362563 -6.0960997 0.5)
(-2.1400536 -6.0960997 0.5)
(-1.9175442 -6.0960997 0.5)
(-1.6950349 -6.0960997 0.5)
(-1.4725255 -6.0960997 0.5)
(-1.2500161 -6.0960997 0.5)
(-1.0275068 -6.0960997 0.5)
(-0.80499742 -6.0960997 0.5)
(-0.58248806 -6.0960997 0.5)
(-0.3599787 -6.0960997 0.5)
(-0.13746934 -6.0960997 0.5)
(0.085040027 -6.0960997 0.5)
(0.30754939 -6.0960997 0.5)
(0.53005876 -6.0960997 0.5)
(0.75256812 -6.0960997 0.5)
(0.97507749 -6.0960997 0.5)
(1.1975869 -6.0960997 0.5)
(1.4200962 -6.0960997 0.5)
(1.6426056 -6.0960997 0.5)
(1.8651149 -6.0960997 0.5)
(2.0876243 -6.0960997 0.5)
(2.3101337 -6.0960997 0.5)
(2.532643 -6.0960997 0.5)
(2.7551524 -6.0960997 0.5)
(2.9776618 -6.0960997 0.5)
(3.2001711 -6.0960997 0.5)
(3.4226805 -6.0960997 0.5)
(3.6451899 -6.0960997 0.5)
(3.8676992 -6.0960997 0.5)
(4.0902086 -6.0960997 0.5)
(4.3127179 -6.0960997 0.5)
(4.5352273 -6.0960997 0.5)
(4.7577367 -6.0960997 0.5)
(4.980246 -6.0960997 0.5)
(5.2027554 -6.0960997 0.5)
(5.4252648 -6.0960997 0.5)
(5.6477741 -6.0960997 0.5)
(5.8702835 -6.0960997 0.5)
(-2.7100859 -5.8407692 0.5)
(-2.4925763 -5.8407692 0.5)
(-2.2750667 -5.8407692 0.5)
(-2.0575571 -5.8407692 0.5)
(-1.8400476 -5.8407692 0.5)
(-1.622538 -5.8407692 0.5)
(-1.4050284 -5.8407692 0.5)
(-1.1875188 -5.8407692 0.5)
(-0.97000926 -5.8407692 0.5)
(-0.75249968 -5.8407692 0.5)
(-0.53499011 -5.8407692 0.5)
(-0.31748053 -5.8407692 0.5)
(-0.099970951 -5.8407692 0.5)
(0.11753863 -5.8407692 0.5)
(0.33504821 -5.8407692 0.5)
(0.55255779 -5.8407692 0.5)
(0.77006737 -5.8407692 0.5)
(0.98757695 -5.8407692 0.5)
(1.2050865 -5.8407692 0.5)
(1.4225961 -5.8407692 0.5)
(1.6401057 -5.8407692 0.5)
(1.8576153 -5.8407692 0.5)
(2.0751248 -5.8407692 0.5)
(2.2926344 -5.8407692 0.5)
(2.510144 -5.8407692 0.5)
(2.7276536 -5.8407692 0.5)
(2.9451632 -5.8407692 0.5)
(3.1626727 -5.8407692 0.5)
(3.3801823 -5.8407692 0.5)
(3.5976919 -5.8407692 0.5)
(3.8152015 -5.8407692 0.5)
(4.0327111 -5.8407692 0.5)
(4.2502206 -5.8407692 0.5)
(4.4677302 -5.8407692 0.5)
(4.6852398 -5.8407692 0.5)
(4.9027494 -5.8407692 0.5)
(5.1202589 -5.8407692 0.5)
(5.3377685 -5.8407692 0.5)
(5.5552781 -5.8407692 0.5)
(5.7727877 -5.8407692 0.5)
(-2.6125903 -5.5854392 0.5)
(-2.4000805 -5.5854392 0.5)
(-2.1875707 -5.5854392 0.5)
(-1.9750609 -5.5854392 0.5)
(-1.7625511 -5.5854392 0.5)
(-1.5500413 -5.5854392 0.5)
(-1.3375315 -5.5854392 0.5)
(-1.1250217 -5.5854392 0.5)
(-0.91251185 -5.5854392 0.5)
(-0.70000205 -5.5854392 0.5)
(-0.48749225 -5.5854392 0.5)
(-0.27498244 -5.5854392 0.5)
(-0.062472641 -5.5854392 0.5)
(0.15003716 -5.5854392 0.5)
(0.36254697 -5.5854392 0.5)
(0.57505677 -5.5854392 0.5)
(0.78756658 -5.5854392 0.5)
(1.0000764 -5.5854392 0.5)
(1.2125862 -5.5854392 0.5)
(1.425096 -5.5854392 0.5)
(1.6376058 -5.5854392 0.5)
(1.8501156 -5.5854392 0.5)
(2.0626254 -5.5854392 0.5)
(2.2751352 -5.5854392 0.5)
(2.487645 -5.5854392 0.5)
(2.7001548 -5.5854392 0.5)
(2.9126646 -5.5854392 0.5)
(3.1251744 -5.5854392 0.5)
(3.3376842 -5.5854392 0.5)
(3.550194 -5.5854392 0.5)
(3.7627038 -5.5854392 0.5)
(3.9752136 -5.5854392 0.5)
(4.1877234 -5.5854392 0.5)
(4.4002333 -5.5854392 0.5)
(4.6127431 -5.5854392 0.5)
(4.8252529 -5.5854392 0.5)
(5.0377627 -5.5854392 0.5)
(5.2502725 -5.5854392 0.5)
(5.4627823 -5.5854392 0.5)
(5.6752921 -5.5854392 0.5)
(-2.5150949 -5.3301097 0.5)
(-2.3075848 -5.3301097 0.5)
(-2.1000748 -5.3301097 0.5)
(-1.8925648 -5.3301097 0.5)
(-1.6850547 -5.3301097 0.5)
(-1.4775447 -5.3301097 0.5)
(-1.2700346 -5.3301097 0.5)
(-1.0625246 -5.3301097 0.5)
(-0.85501457 -5.3301097 0.5)
(-0.64750453 -5.3301097 0.5)
(-0.43999449 -5.3301097 0.5)
(-0.23248445 -5.3301097 0.5)
(-0.024974413 -5.3301097 0.5)
(0.18253563 -5.3301097 0.5)
(0.39004567 -5.3301097 0.5)
(0.59755571 -5.3301097 0.5)
(0.80506575 -5.3301097 0.5)
(1.0125758 -5.3301097 0.5)
(1.2200858 -5.3301097 0.5)
(1.4275959 -5.3301097 0.5)
(1.6351059 -5.3301097 0.5)
(1.842616 -5.3301097 0.5)
(2.050126 -5.3301097 0.5)
(2.257636 -5.3301097 0.5)
(2.4651461 -5.3301097 0.5)
(2.6726561 -5.3301097 0.5)
(2.8801662 -5.3301097 0.5)
(3.0876762 -5.3301097 0.5)
(3.2951862 -5.3301097 0.5)
(3.5026963 -5.3301097 0.5)
(3.7102063 -5.3301097 0.5)
(3.9177164 -5.3301097 0.5)
(4.1252264 -5.3301097 0.5)
(4.3327364 -5.3301097 0.5)
(4.5402465 -5.3301097 0.5)
(4.7477565 -5.3301097 0.5)
(4.9552666 -5.3301097 0.5)
(5.1627766 -5.3301097 0.5)
(5.3702866 -5.3301097 0.5)
(5.5777967 -5.3301097 0.5)
(-2.4175997 -5.0747808 0.5)
(-2.2150894 -5.0747808 0.5)
(-2.0125791 -5.0747808 0.5)
(-1.8100689 -5.0747808 0.5)
(-1.6075586 -5.0747808 0.5)
(-1.4050483 -5.0747808 0.5)
(-1.202538 -5.0747808 0.5)
(-1.0000277 -5.0747808 0.5)
(-0.79751742 -5.0747808 0.5)
(-0.59500713 -5.0747808 0.5)
(-0.39249685 -5.0747808 0.5)
(-0.18998656 -5.0747808 0.5)
(0.012523728 -5.0747808 0.5)
(0.21503402 -5.0747808 0.5)
(0.41754431 -5.0747808 0.5)
(0.62005459 -5.0747808 0.5)
(0.82256488 -5.0747808 0.5)
(1.0250752 -5.0747808 0.5)
(1.2275855 -5.0747808 0.5)
(1.4300958 -5.0747808 0.5)
(1.632606 -5.0747808 0.5)
(1.8351163 -5.0747808 0.5)
(2.0376266 -5.0747808 0.5)
(2.2401369 -5.0747808 0.5)
(2.4426472 -5.0747808 0.5)
(2.6451575 -5.0747808 0.5)
(2.8476678 -5.0747808 0.5)
(3.0501781 -5.0747808 0.5)
(3.2526883 -5.0747808 0.5)
(3.4551986 -5.0747808 0.5)
(3.6577089 -5.0747808 0.5)
(3.8602192 -5.0747808 0.5)
(4.0627295 -5.0747808 0.5)
(4.2652398 -5.0747808 0.5)
(4.4677501 -5.0747808 0.5)
(4.6702604 -5.0747808 0.5)
(4.8727707 -5.0747808 0.5)
(5.0752809 -5.0747808 0.5)
(5.2777912 -5.0747808 0.5)
(5.4803015 -5.0747808 0.5)
(-2.3201048 -4.8194526 0.5)
(-2.1225942 -4.8194526 0.5)
(-1.9250837 -4.8194526 0.5)
(-1.7275732 -4.8194526 0.5)
(-1.5300626 -4.8194526 0.5)
(-1.3325521 -4.8194526 0.5)
(-1.1350415 -4.8194526 0.5)
(-0.93753096 -4.8194526 0.5)
(-0.74002042 -4.8194526 0.5)
(-0.54250987 -4.8194526 0.5)
(-0.34499932 -4.8194526 0.5)
(-0.14748877 -4.8194526 0.5)
(0.050021775 -4.8194526 0.5)
(0.24753232 -4.8194526 0.5)
(0.44504287 -4.8194526 0.5)
(0.64255342 -4.8194526 0.5)
(0.84006397 -4.8194526 0.5)
(1.0375745 -4.8194526 0.5)
(1.2350851 -4.8194526 0.5)
(1.4325956 -4.8194526 0.5)
(1.6301062 -4.8194526 0.5)
(1.8276167 -4.8194526 0.5)
(2.0251273 -4.8194526 0.5)
(2.2226378 -4.8194526 0.5)
(2.4201484 -4.8194526 0.5)
(2.6176589 -4.8194526 0.5)
(2.8151695 -4.8194526 0.5)
(3.01268 -4.8194526 0.5)
(3.2101906 -4.8194526 0.5)
(3.4077011 -4.8194526 0.5)
(3.6052117 -4.8194526 0.5)
(3.8027222 -4.8194526 0.5)
(4.0002328 -4.8194526 0.5)
(4.1977433 -4.8194526 0.5)
(4.3952539 -4.8194526 0.5)
(4.5927644 -4.8194526 0.5)
(4.790275 -4.8194526 0.5)
(4.9877855 -4.8194526 0.5)
(5.185296 -4.8194526 0.5)
(5.3828066 -4.8194526 0.5)
(-2.2226101 -4.5641251 0.5)
(-2.0300993 -4.5641251 0.5)
(-1.8375885 -4.5641251 0.5)
(-1.6450777 -4.5641251 0.5)
(-1.4525668 -4.5641251 0.5)
(-1.260056 -4.5641251 0.5)
(-1.0675452 -4.5641251 0.5)
(-0.87503439 -4.5641251 0.5)
(-0.68252357 -4.5641251 0.5)
(-0.49001275 -4.5641251 0.5)
(-0.29750192 -4.5641251 0.5)
(-0.1049911 -4.5641251 0.5)
(0.08751972 -4.5641251 0.5)
(0.28003054 -4.5641251 0.5)
(0.47254137 -4.5641251 0.5)
(0.66505219 -4.5641251 0.5)
(0.85756301 -4.5641251 0.5)
(1.0500738 -4.5641251 0.5)
(1.2425847 -4.5641251 0.5)
(1.4350955 -4.5641251 0.5)
(1.6276063 -4.5641251 0.5)
(1.8201171 -4.5641251 0.5)
(2.012628 -4.5641251 0.5)
(2.2051388 -4.5641251 0.5)
(2.3976496 -4.5641251 0.5)
(2.5901604 -4.5641251 0.5)
(2.7826712 -4.5641251 0.5)
(2.9751821 -4.5641251 0.5)
(3.1676929 -4.5641251 0.5)
(3.3602037 -4.5641251 0.5)
(3.5527145 -4.5641251 0.5)
(3.7452254 -4.5641251 0.5)
(3.9377362 -4.5641251 0.5)
(4.130247 -4.5641251 0.5)
(4.3227578 -4.5641251 0.5)
(4.5152686 -4.5641251 0.5)
(4.7077795 -4.5641251 0.5)
(4.9002903 -4.5641251 0.5)
(5.0928011 -4.5641251 0.5)
(5.2853119 -4.5641251 0.5)
(-2.1251158 -4.3087983 0.5)
(-1.9376047 -4.3087983 0.5)
(-1.7500935 -4.3087983 0.5)
(-1.5625824 -4.3087983 0.5)
(-1.3750713 -4.3087983 0.5)
(-1.1875602 -4.3087983 0.5)
(-1.0000491 -4.3087983 0.5)
(-0.812538 -4.3087983 0.5)
(-0.62502689 -4.3087983 0.5)
(-0.43751578 -4.3087983 0.5)
(-0.25000467 -4.3087983 0.5)
(-0.062493556 -4.3087983 0.5)
(0.12501756 -4.3087983 0.5)
(0.31252867 -4.3087983 0.5)
(0.50003978 -4.3087983 0.5)
(0.68755089 -4.3087983 0.5)
(0.875062 -4.3087983 0.5)
(1.0625731 -4.3087983 0.5)
(1.2500842 -4.3087983 0.5)
(1.4375953 -4.3087983 0.5)
(1.6251065 -4.3087983 0.5)
(1.8126176 -4.3087983 0.5)
(2.0001287 -4.3087983 0.5)
(2.1876398 -4.3087983 0.5)
(2.3751509 -4.3087983 0.5)
(2.562662 -4.3087983 0.5)
(2.7501731 -4.3087983 0.5)
(2.9376842 -4.3087983 0.5)
(3.1251953 -4.3087983 0.5)
(3.3127065 -4.3087983 0.5)
(3.5002176 -4.3087983 0.5)
(3.6877287 -4.3087983 0.5)
(3.8752398 -4.3087983 0.5)
(4.0627509 -4.3087983 0.5)
(4.250262 -4.3087983 0.5)
(4.4377731 -4.3087983 0.5)
(4.6252842 -4.3087983 0.5)
(4.8127953 -4.3087983 0.5)
(5.0003065 -4.3087983 0.5)
(5.1878176 -4.3087983 0.5)
(-2.0276217 -4.0534723 0.5)
(-1.8451103 -4.0534723 0.5)
(-1.6625989 -4.0534723 0.5)
(-1.4800875 -4.0534723 0.5)
(-1.297576 -4.0534723 0.5)
(-1.1150646 -4.0534723 0.5)
(-0.93255322 -4.0534723 0.5)
(-0.7500418 -4.0534723 0.5)
(-0.56753039 -4.0534723 0.5)
(-0.38501897 -4.0534723 0.5)
(-0.20250756 -4.0534723 0.5)
(-0.019996144 -4.0534723 0.5)
(0.16251527 -4.0534723 0.5)
(0.34502669 -4.0534723 0.5)
(0.5275381 -4.0534723 0.5)
(0.71004952 -4.0534723 0.5)
(0.89256094 -4.0534723 0.5)
(1.0750724 -4.0534723 0.5)
(1.2575838 -4.0534723 0.5)
(1.4400952 -4.0534723 0.5)
(1.6226066 -4.0534723 0.5)
(1.805118 -4.0534723 0.5)
(1.9876294 -4.0534723 0.5)
(2.1701409 -4.0534723 0.5)
(2.3526523 -4.0534723 0.5)
(2.5351637 -4.0534723 0.5)
(2.7176751 -4.0534723 0.5)
(2.9001865 -4.0534723 0.5)
(3.0826979 -4.0534723 0.5)
(3.2652093 -4.0534723 0.5)
(3.4477208 -4.0534723 0.5)
(3.6302322 -4.0534723 0.5)
(3.8127436 -4.0534723 0.5)
(3.995255 -4.0534723 0.5)
(4.1777664 -4.0534723 0.5)
(4.3602778 -4.0534723 0.5)
(4.5427893 -4.0534723 0.5)
(4.7253007 -4.0534723 0.5)
(4.9078121 -4.0534723 0.5)
(5.0903235 -4.0534723 0.5)
(-1.930128 -3.7981472 0.5)
(-1.7526162 -3.7981472 0.5)
(-1.5751045 -3.7981472 0.5)
(-1.3975928 -3.7981472 0.5)
(-1.220081 -3.7981472 0.5)
(-1.0425693 -3.7981472 0.5)
(-0.86505756 -3.7981472 0.5)
(-0.68754582 -3.7981472 0.5)
(-0.51003409 -3.7981472 0.5)
(-0.33252235 -3.7981472 0.5)
(-0.15501061 -3.7981472 0.5)
(0.022501123 -3.7981472 0.5)
(0.20001286 -3.7981472 0.5)
(0.3775246 -3.7981472 0.5)
(0.55503634 -3.7981472 0.5)
(0.73254807 -3.7981472 0.5)
(0.91005981 -3.7981472 0.5)
(1.0875716 -3.7981472 0.5)
(1.2650833 -3.7981472 0.5)
(1.442595 -3.7981472 0.5)
(1.6201068 -3.7981472 0.5)
(1.7976185 -3.7981472 0.5)
(1.9751302 -3.7981472 0.5)
(2.152642 -3.7981472 0.5)
(2.3301537 -3.7981472 0.5)
(2.5076655 -3.7981472 0.5)
(2.6851772 -3.7981472 0.5)
(2.8626889 -3.7981472 0.5)
(3.0402007 -3.7981472 0.5)
(3.2177124 -3.7981472 0.5)
(3.3952241 -3.7981472 0.5)
(3.5727359 -3.7981472 0.5)
(3.7502476 -3.7981472 0.5)
(3.9277594 -3.7981472 0.5)
(4.1052711 -3.7981472 0.5)
(4.2827828 -3.7981472 0.5)
(4.4602946 -3.7981472 0.5)
(4.6378063 -3.7981472 0.5)
(4.815318 -3.7981472 0.5)
(4.9928298 -3.7981472 0.5)
(-1.8326346 -3.542823 0.5)
(-1.6601225 -3.542823 0.5)
(-1.4876105 -3.542823 0.5)
(-1.3150984 -3.542823 0.5)
(-1.1425863 -3.542823 0.5)
(-0.97007423 -3.542823 0.5)
(-0.79756215 -3.542823 0.5)
(-0.62505008 -3.542823 0.5)
(-0.452538 -3.542823 0.5)
(-0.28002592 -3.542823 0.5)
(-0.10751385 -3.542823 0.5)
(0.064998232 -3.542823 0.5)
(0.23751031 -3.542823 0.5)
(0.41002239 -3.542823 0.5)
(0.58253446 -3.542823 0.5)
(0.75504654 -3.542823 0.5)
(0.92755862 -3.542823 0.5)
(1.1000707 -3.542823 0.5)
(1.2725828 -3.542823 0.5)
(1.4450949 -3.542823 0.5)
(1.6176069 -3.542823 0.5)
(1.790119 -3.542823 0.5)
(1.9626311 -3.542823 0.5)
(2.1351432 -3.542823 0.5)
(2.3076552 -3.542823 0.5)
(2.4801673 -3.542823 0.5)
(2.6526794 -3.542823 0.5)
(2.8251915 -3.542823 0.5)
(2.9977036 -3.542823 0.5)
(3.1702156 -3.542823 0.5)
(3.3427277 -3.542823 0.5)
(3.5152398 -3.542823 0.5)
(3.6877519 -3.542823 0.5)
(3.8602639 -3.542823 0.5)
(4.032776 -3.542823 0.5)
(4.2052881 -3.542823 0.5)
(4.3778002 -3.542823 0.5)
(4.5503123 -3.542823 0.5)
(4.7228243 -3.542823 0.5)
(4.8953364 -3.542823 0.5)
(-1.7351416 -3.2874999 0.5)
(-1.5676292 -3.2874999 0.5)
(-1.4001168 -3.2874999 0.5)
(-1.2326043 -3.2874999 0.5)
(-1.0650919 -3.2874999 0.5)
(-0.89757946 -3.2874999 0.5)
(-0.73006702 -3.2874999 0.5)
(-0.56255458 -3.2874999 0.5)
(-0.39504214 -3.2874999 0.5)
(-0.22752971 -3.2874999 0.5)
(-0.060017271 -3.2874999 0.5)
(0.10749517 -3.2874999 0.5)
(0.27500761 -3.2874999 0.5)
(0.44252004 -3.2874999 0.5)
(0.61003248 -3.2874999 0.5)
(0.77754492 -3.2874999 0.5)
(0.94505736 -3.2874999 0.5)
(1.1125698 -3.2874999 0.5)
(1.2800822 -3.2874999 0.5)
(1.4475947 -3.2874999 0.5)
(1.6151071 -3.2874999 0.5)
(1.7826196 -3.2874999 0.5)
(1.950132 -3.2874999 0.5)
(2.1176444 -3.2874999 0.5)
(2.2851569 -3.2874999 0.5)
(2.4526693 -3.2874999 0.5)
(2.6201817 -3.2874999 0.5)
(2.7876942 -3.2874999 0.5)
(2.9552066 -3.2874999 0.5)
(3.1227191 -3.2874999 0.5)
(3.2902315 -3.2874999 0.5)
(3.4577439 -3.2874999 0.5)
(3.6252564 -3.2874999 0.5)
(3.7927688 -3.2874999 0.5)
(3.9602812 -3.2874999 0.5)
(4.1277937 -3.2874999 0.5)
(4.2953061 -3.2874999 0.5)
(4.4628186 -3.2874999 0.5)
(4.630331 -3.2874999 0.5)
(4.7978434 -3.2874999 0.5)
(-1.6376491 -3.0321779 0.5)
(-1.4751363 -3.0321779 0.5)
(-1.3126235 -3.0321779 0.5)
(-1.1501106 -3.0321779 0.5)
(-0.98759782 -3.0321779 0.5)
(-0.82508501 -3.0321779 0.5)
(-0.66257219 -3.0321779 0.5)
(-0.50005937 -3.0321779 0.5)
(-0.33754655 -3.0321779 0.5)
(-0.17503373 -3.0321779 0.5)
(-0.012520907 -3.0321779 0.5)
(0.14999191 -3.0321779 0.5)
(0.31250474 -3.0321779 0.5)
(0.47501756 -3.0321779 0.5)
(0.63753038 -3.0321779 0.5)
(0.8000432 -3.0321779 0.5)
(0.96255602 -3.0321779 0.5)
(1.1250688 -3.0321779 0.5)
(1.2875817 -3.0321779 0.5)
(1.4500945 -3.0321779 0.5)
(1.6126073 -3.0321779 0.5)
(1.7751201 -3.0321779 0.5)
(1.937633 -3.0321779 0.5)
(2.1001458 -3.0321779 0.5)
(2.2626586 -3.0321779 0.5)
(2.4251714 -3.0321779 0.5)
(2.5876842 -3.0321779 0.5)
(2.7501971 -3.0321779 0.5)
(2.9127099 -3.0321779 0.5)
(3.0752227 -3.0321779 0.5)
(3.2377355 -3.0321779 0.5)
(3.4002483 -3.0321779 0.5)
(3.5627612 -3.0321779 0.5)
(3.725274 -3.0321779 0.5)
(3.8877868 -3.0321779 0.5)
(4.0502996 -3.0321779 0.5)
(4.2128124 -3.0321779 0.5)
(4.3753253 -3.0321779 0.5)
(4.5378381 -3.0321779 0.5)
(4.7003509 -3.0321779 0.5)
(-1.540157 -2.7768572 0.5)
(-1.3826438 -2.7768572 0.5)
(-1.2251306 -2.7768572 0.5)
(-1.0676174 -2.7768572 0.5)
(-0.91010413 -2.7768572 0.5)
(-0.75259091 -2.7768572 0.5)
(-0.59507768 -2.7768572 0.5)
(-0.43756445 -2.7768572 0.5)
(-0.28005123 -2.7768572 0.5)
(-0.122538 -2.7768572 0.5)
(0.034975226 -2.7768572 0.5)
(0.19248846 -2.7768572 0.5)
(0.35000168 -2.7768572 0.5)
(0.50751491 -2.7768572 0.5)
(0.66502814 -2.7768572 0.5)
(0.82254137 -2.7768572 0.5)
(0.9800546 -2.7768572 0.5)
(1.1375678 -2.7768572 0.5)
(1.2950811 -2.7768572 0.5)
(1.4525943 -2.7768572 0.5)
(1.6101075 -2.7768572 0.5)
(1.7676207 -2.7768572 0.5)
(1.925134 -2.7768572 0.5)
(2.0826472 -2.7768572 0.5)
(2.2401604 -2.7768572 0.5)
(2.3976737 -2.7768572 0.5)
(2.5551869 -2.7768572 0.5)
(2.7127001 -2.7768572 0.5)
(2.8702133 -2.7768572 0.5)
(3.0277266 -2.7768572 0.5)
(3.1852398 -2.7768572 0.5)
(3.342753 -2.7768572 0.5)
(3.5002662 -2.7768572 0.5)
(3.6577795 -2.7768572 0.5)
(3.8152927 -2.7768572 0.5)
(3.9728059 -2.7768572 0.5)
(4.1303192 -2.7768572 0.5)
(4.2878324 -2.7768572 0.5)
(4.4453456 -2.7768572 0.5)
(4.6028588 -2.7768572 0.5)
(-1.4426655 -2.5215378 0.5)
(-1.2901518 -2.5215378 0.5)
(-1.1376382 -2.5215378 0.5)
(-0.98512451 -2.5215378 0.5)
(-0.83261086 -2.5215378 0.5)
(-0.6800972 -2.5215378 0.5)
(-0.52758354 -2.5215378 0.5)
(-0.37506988 -2.5215378 0.5)
(-0.22255621 -2.5215378 0.5)
(-0.070042554 -2.5215378 0.5)
(0.082471107 -2.5215378 0.5)
(0.23498477 -2.5215378 0.5)
(0.38749843 -2.5215378 0.5)
(0.54001209 -2.5215378 0.5)
(0.69252575 -2.5215378 0.5)
(0.84503941 -2.5215378 0.5)
(0.99755308 -2.5215378 0.5)
(1.1500667 -2.5215378 0.5)
(1.3025804 -2.5215378 0.5)
(1.4550941 -2.5215378 0.5)
(1.6076077 -2.5215378 0.5)
(1.7601214 -2.5215378 0.5)
(1.9126351 -2.5215378 0.5)
(2.0651487 -2.5215378 0.5)
(2.2176624 -2.5215378 0.5)
(2.370176 -2.5215378 0.5)
(2.5226897 -2.5215378 0.5)
(2.6752034 -2.5215378 0.5)
(2.827717 -2.5215378 0.5)
(2.9802307 -2.5215378 0.5)
(3.1327443 -2.5215378 0.5)
(3.285258 -2.5215378 0.5)
(3.4377717 -2.5215378 0.5)
(3.5902853 -2.5215378 0.5)
(3.742799 -2.5215378 0.5)
(3.8953126 -2.5215378 0.5)
(4.0478263 -2.5215378 0.5)
(4.20034 -2.5215378 0.5)
(4.3528536 -2.5215378 0.5)
(4.5053673 -2.5215378 0.5)
(-1.3451745 -2.26622 0.5)
(-1.1976604 -2.26622 0.5)
(-1.0501463 -2.26622 0.5)
(-0.90263216 -2.26622 0.5)
(-0.75511804 -2.26622 0.5)
(-0.60760391 -2.26622 0.5)
(-0.46008979 -2.26622 0.5)
(-0.31257566 -2.26622 0.5)
(-0.16506154 -2.26622 0.5)
(-0.017547417 -2.26622 0.5)
(0.12996671 -2.26622 0.5)
(0.27748083 -2.26622 0.5)
(0.42499496 -2.26622 0.5)
(0.57250908 -2.26622 0.5)
(0.72002321 -2.26622 0.5)
(0.86753733 -2.26622 0.5)
(1.0150515 -2.26622 0.5)
(1.1625656 -2.26622 0.5)
(1.3100797 -2.26622 0.5)
(1.4575938 -2.26622 0.5)
(1.605108 -2.26622 0.5)
(1.7526221 -2.26622 0.5)
(1.9001362 -2.26622 0.5)
(2.0476503 -2.26622 0.5)
(2.1951645 -2.26622 0.5)
(2.3426786 -2.26622 0.5)
(2.4901927 -2.26622 0.5)
(2.6377068 -2.26622 0.5)
(2.785221 -2.26622 0.5)
(2.9327351 -2.26622 0.5)
(3.0802492 -2.26622 0.5)
(3.2277633 -2.26622 0.5)
(3.3752775 -2.26622 0.5)
(3.5227916 -2.26622 0.5)
(3.6703057 -2.26622 0.5)
(3.8178198 -2.26622 0.5)
(3.965334 -2.26622 0.5)
(4.1128481 -2.26622 0.5)
(4.2603622 -2.26622 0.5)
(4.4078763 -2.26622 0.5)
(-1.2476842 -2.0109037 0.5)
(-1.1051696 -2.0109037 0.5)
(-0.96265495 -2.0109037 0.5)
(-0.82014034 -2.0109037 0.5)
(-0.67762572 -2.0109037 0.5)
(-0.5351111 -2.0109037 0.5)
(-0.39259648 -2.0109037 0.5)
(-0.25008186 -2.0109037 0.5)
(-0.10756724 -2.0109037 0.5)
(0.034947379 -2.0109037 0.5)
(0.177462 -2.0109037 0.5)
(0.31997662 -2.0109037 0.5)
(0.46249124 -2.0109037 0.5)
(0.60500586 -2.0109037 0.5)
(0.74752048 -2.0109037 0.5)
(0.8900351 -2.0109037 0.5)
(1.0325497 -2.0109037 0.5)
(1.1750644 -2.0109037 0.5)
(1.317579 -2.0109037 0.5)
(1.4600936 -2.0109037 0.5)
(1.6026082 -2.0109037 0.5)
(1.7451228 -2.0109037 0.5)
(1.8876374 -2.0109037 0.5)
(2.0301521 -2.0109037 0.5)
(2.1726667 -2.0109037 0.5)
(2.3151813 -2.0109037 0.5)
(2.4576959 -2.0109037 0.5)
(2.6002105 -2.0109037 0.5)
(2.7427252 -2.0109037 0.5)
(2.8852398 -2.0109037 0.5)
(3.0277544 -2.0109037 0.5)
(3.170269 -2.0109037 0.5)
(3.3127836 -2.0109037 0.5)
(3.4552983 -2.0109037 0.5)
(3.5978129 -2.0109037 0.5)
(3.7403275 -2.0109037 0.5)
(3.8828421 -2.0109037 0.5)
(4.0253567 -2.0109037 0.5)
(4.1678714 -2.0109037 0.5)
(4.310386 -2.0109037 0.5)
(-1.1501946 -1.7555893 0.5)
(-1.0126794 -1.7555893 0.5)
(-0.87516426 -1.7555893 0.5)
(-0.73764911 -1.7555893 0.5)
(-0.60013396 -1.7555893 0.5)
(-0.46261881 -1.7555893 0.5)
(-0.32510366 -1.7555893 0.5)
(-0.1875885 -1.7555893 0.5)
(-0.050073355 -1.7555893 0.5)
(0.087441798 -1.7555893 0.5)
(0.22495695 -1.7555893 0.5)
(0.3624721 -1.7555893 0.5)
(0.49998725 -1.7555893 0.5)
(0.63750241 -1.7555893 0.5)
(0.77501756 -1.7555893 0.5)
(0.91253271 -1.7555893 0.5)
(1.0500479 -1.7555893 0.5)
(1.187563 -1.7555893 0.5)
(1.3250782 -1.7555893 0.5)
(1.4625933 -1.7555893 0.5)
(1.6001085 -1.7555893 0.5)
(1.7376236 -1.7555893 0.5)
(1.8751388 -1.7555893 0.5)
(2.0126539 -1.7555893 0.5)
(2.1501691 -1.7555893 0.5)
(2.2876842 -1.7555893 0.5)
(2.4251994 -1.7555893 0.5)
(2.5627145 -1.7555893 0.5)
(2.7002297 -1.7555893 0.5)
(2.8377448 -1.7555893 0.5)
(2.97526 -1.7555893 0.5)
(3.1127751 -1.7555893 0.5)
(3.2502903 -1.7555893 0.5)
(3.3878054 -1.7555893 0.5)
(3.5253206 -1.7555893 0.5)
(3.6628357 -1.7555893 0.5)
(3.8003509 -1.7555893 0.5)
(3.9378661 -1.7555893 0.5)
(4.0753812 -1.7555893 0.5)
(4.2128964 -1.7555893 0.5)
(-1.0527057 -1.500277 0.5)
(-0.92018999 -1.500277 0.5)
(-0.78767427 -1.500277 0.5)
(-0.65515854 -1.500277 0.5)
(-0.52264282 -1.500277 0.5)
(-0.3901271 -1.500277 0.5)
(-0.25761137 -1.500277 0.5)
(-0.12509565 -1.500277 0.5)
(0.0074200702 -1.500277 0.5)
(0.13993579 -1.500277 0.5)
(0.27245152 -1.500277 0.5)
(0.40496724 -1.500277 0.5)
(0.53748297 -1.500277 0.5)
(0.66999869 -1.500277 0.5)
(0.80251441 -1.500277 0.5)
(0.93503014 -1.500277 0.5)
(1.0675459 -1.500277 0.5)
(1.2000616 -1.500277 0.5)
(1.3325773 -1.500277 0.5)
(1.465093 -1.500277 0.5)
(1.5976088 -1.500277 0.5)
(1.7301245 -1.500277 0.5)
(1.8626402 -1.500277 0.5)
(1.9951559 -1.500277 0.5)
(2.1276717 -1.500277 0.5)
(2.2601874 -1.500277 0.5)
(2.3927031 -1.500277 0.5)
(2.5252188 -1.500277 0.5)
(2.6577345 -1.500277 0.5)
(2.7902503 -1.500277 0.5)
(2.922766 -1.500277 0.5)
(3.0552817 -1.500277 0.5)
(3.1877974 -1.500277 0.5)
(3.3203132 -1.500277 0.5)
(3.4528289 -1.500277 0.5)
(3.5853446 -1.500277 0.5)
(3.7178603 -1.500277 0.5)
(3.8503761 -1.500277 0.5)
(3.9828918 -1.500277 0.5)
(4.1154075 -1.500277 0.5)
(-0.95521773 -1.2449669 0.5)
(-0.8277014 -1.2449669 0.5)
(-0.70018506 -1.2449669 0.5)
(-0.57266872 -1.2449669 0.5)
(-0.44515238 -1.2449669 0.5)
(-0.31763604 -1.2449669 0.5)
(-0.1901197 -1.244967 0.5)
(-0.06260336 -1.2449669 0.5)
(0.06491298 -1.2449669 0.5)
(0.19242932 -1.2449669 0.5)
(0.31994566 -1.2449669 0.5)
(0.447462 -1.2449669 0.5)
(0.57497834 -1.2449669 0.5)
(0.70249468 -1.2449669 0.5)
(0.83001102 -1.2449669 0.5)
(0.95752737 -1.2449669 0.5)
(1.0850437 -1.2449669 0.5)
(1.2125601 -1.2449669 0.5)
(1.3400764 -1.2449669 0.5)
(1.4675927 -1.2449669 0.5)
(1.5951091 -1.2449669 0.5)
(1.7226254 -1.2449669 0.5)
(1.8501417 -1.2449669 0.5)
(1.9776581 -1.2449669 0.5)
(2.1051744 -1.2449669 0.5)
(2.2326908 -1.2449669 0.5)
(2.3602071 -1.2449669 0.5)
(2.4877234 -1.2449669 0.5)
(2.6152398 -1.2449669 0.5)
(2.7427561 -1.2449669 0.5)
(2.8702725 -1.2449669 0.5)
(2.9977888 -1.2449669 0.5)
(3.1253051 -1.2449669 0.5)
(3.2528215 -1.2449669 0.5)
(3.3803378 -1.2449669 0.5)
(3.5078542 -1.2449669 0.5)
(3.6353705 -1.2449669 0.5)
(3.7628868 -1.2449669 0.5)
(3.8904032 -1.2449669 0.5)
(4.0179195 -1.2449669 0.5)
(-0.85773074 -0.98965946 0.5)
(-0.73521374 -0.98965946 0.5)
(-0.61269673 -0.98965946 0.5)
(-0.49017972 -0.98965946 0.5)
(-0.36766272 -0.98965946 0.5)
(-0.24514571 -0.98965946 0.5)
(-0.1226287 -0.98965946 0.5)
(-0.00011169803 -0.98965946 0.5)
(0.12240531 -0.98965946 0.5)
(0.24492232 -0.98965946 0.5)
(0.36743933 -0.98965946 0.5)
(0.48995633 -0.98965946 0.5)
(0.61247334 -0.98965946 0.5)
(0.73499035 -0.98965946 0.5)
(0.85750735 -0.98965946 0.5)
(0.98002436 -0.98965946 0.5)
(1.1025414 -0.98965946 0.5)
(1.2250584 -0.98965946 0.5)
(1.3475754 -0.98965946 0.5)
(1.4700924 -0.98965946 0.5)
(1.5926094 -0.98965946 0.5)
(1.7151264 -0.98965946 0.5)
(1.8376434 -0.98965946 0.5)
(1.9601604 -0.98965946 0.5)
(2.0826774 -0.98965946 0.5)
(2.2051944 -0.98965946 0.5)
(2.3277114 -0.98965946 0.5)
(2.4502285 -0.98965946 0.5)
(2.5727455 -0.98965946 0.5)
(2.6952625 -0.98965946 0.5)
(2.8177795 -0.98965946 0.5)
(2.9402965 -0.98965946 0.5)
(3.0628135 -0.98965946 0.5)
(3.1853305 -0.98965946 0.5)
(3.3078475 -0.98965946 0.5)
(3.4303645 -0.98965946 0.5)
(3.5528815 -0.98965946 0.5)
(3.6753985 -0.98965946 0.5)
(3.7979155 -0.98965946 0.5)
(3.9204325 -0.98965946 0.5)
(-0.76024485 -0.7343549 0.5)
(-0.64272712 -0.7343549 0.5)
(-0.52520939 -0.7343549 0.5)
(-0.40769166 -0.7343549 0.5)
(-0.29017393 -0.7343549 0.5)
(-0.1726562 -0.7343549 0.5)
(-0.055138474 -0.7343549 0.5)
(0.062379257 -0.7343549 0.5)
(0.17989699 -0.7343549 0.5)
(0.29741472 -0.7343549 0.5)
(0.41493245 -0.7343549 0.5)
(0.53245018 -0.7343549 0.5)
(0.64996791 -0.7343549 0.5)
(0.76748564 -0.7343549 0.5)
(0.88500337 -0.7343549 0.5)
(1.0025211 -0.7343549 0.5)
(1.1200388 -0.7343549 0.5)
(1.2375566 -0.7343549 0.5)
(1.3550743 -0.7343549 0.5)
(1.472592 -0.7343549 0.5)
(1.5901098 -0.7343549 0.5)
(1.7076275 -0.7343549 0.5)
(1.8251452 -0.7343549 0.5)
(1.942663 -0.7343549 0.5)
(2.0601807 -0.7343549 0.5)
(2.1776984 -0.7343549 0.5)
(2.2952161 -0.7343549 0.5)
(2.4127339 -0.7343549 0.5)
(2.5302516 -0.7343549 0.5)
(2.6477693 -0.7343549 0.5)
(2.7652871 -0.7343549 0.5)