/*--------------------------------*- C++ -*----------------------------------*\
  =========                 |
  \\      /  F ield         | OpenFOAM: The Open Source CFD Toolbox
   \\    /   O peration     | Website:  https://openfoam.org
    \\  /    A nd           | Version:  10
     \\/     M anipulation  |
\*---------------------------------------------------------------------------*/
FoamFile
{
    format      ascii;
    class       volScalarField;
    location    "0.0508103";
    object      p;
}
// * * * * * * * * * * * * * * * * * * * * * * * * * * * * * * * * * * * * * //

dimensions      [1 -1 -2 0 0 0 0];

internalField   nonuniform List<scalar> 
16320
(
0.725447
0.771337
0.832872
0.921993
1.05429
1.23241
1.41328
1.52781
1.59598
1.64139
1.64217
1.61894
1.54699
1.38538
1.12974
0.86541
0.641253
0.493507
0.412752
0.386343
0.376835
0.376808
0.396638
0.472856
0.651828
0.899181
1.06903
1.11458
1.08638
1.05856
1.00957
0.938659
0.833304
0.743159
0.773261
0.822203
0.883229
0.962593
1.06481
1.21075
1.35654
1.47622
1.54545
1.55713
1.53731
1.46311
1.27354
0.9921
0.727993
0.536865
0.415278
0.351256
0.333818
0.331581
0.337617
0.36757
0.456246
0.656797
0.935822
1.12449
1.18395
1.16192
1.14661
1.11052
1.03327
0.91219
0.751592
0.76542
0.801576
0.845113
0.891569
0.942743
1.02586
1.11263
1.20492
1.27025
1.2744
1.24431
1.13187
0.901802
0.674171
0.508785
0.404087
0.329101
0.294298
0.285521
0.28713
0.298425
0.335419
0.436455
0.661256
0.966662
1.18191
1.25801
1.24693
1.2404
1.21431
1.15169
1.02619
0.731658
0.742251
0.772035
0.809224
0.842781
0.87401
0.928733
0.990838
1.06002
1.08944
1.07612
1.00911
0.838137
0.628707
0.479994
0.387437
0.327375
0.283967
0.264167
0.258493
0.260592
0.273303
0.3147
0.42505
0.668238
0.999955
1.2434
1.33416
1.33467
1.33032
1.31022
1.25768
1.14401
0.685285
0.700578
0.737855
0.775973
0.80721
0.84429
0.885893
0.93989
0.996174
1.0078
0.981174
0.87793
0.674189
0.507999
0.404862
0.341445
0.296309
0.269772
0.253272
0.246571
0.248283
0.262334
0.308415
0.426806
0.686337
1.04123
1.30673
1.41125
1.42079
1.41425
1.38999
1.33769
1.21743
0.629855
0.658463
0.707728
0.747246
0.778607
0.809821
0.853378
0.907828
0.962083
0.964544
0.925569
0.785992
0.595714
0.45945
0.381923
0.32867
0.295152
0.273381
0.254849
0.245954
0.247724
0.264517
0.31725
0.444576
0.717212
1.08934
1.36758
1.48178
1.50384
1.48528
1.45196
1.39722
1.26789
0.58073
0.620964
0.672733
0.714307
0.750218
0.78997
0.837458
0.894001
0.943954
0.93934
0.883294
0.721967
0.559378
0.44308
0.376327
0.337369
0.313154
0.290821
0.266498
0.253278
0.255391
0.27563
0.335615
0.470662
0.756976
1.13799
1.42271
1.54098
1.56532
1.54055
1.50278
1.44438
1.3034
0.540948
0.58665
0.650871
0.707167
0.754043
0.794634
0.841541
0.897077
0.935266
0.920311
0.844806
0.686104
0.546381
0.445246
0.384043
0.361325
0.342682
0.318023
0.285637
0.266868
0.268595
0.290923
0.356706
0.499707
0.797698
1.17968
1.46337
1.57461
1.59642
1.56985
1.53831
1.47784
1.3308
0.525225
0.575955
0.668798
0.734261
0.779341
0.823404
0.862808
0.904653
0.919119
0.891567
0.802349
0.673953
0.551817
0.460654
0.406865
0.392636
0.375716
0.349343
0.307619
0.281639
0.282171
0.305868
0.37651
0.526694
0.830649
1.21006
1.48381
1.58688
1.60647
1.58085
1.55567
1.49524
1.34738
0.535685
0.599896
0.71213
0.777481
0.819877
0.847507
0.870307
0.880724
0.873714
0.840674
0.769525
0.676228
0.56932
0.482322
0.429693
0.420556
0.405899
0.383094
0.331667
0.296047
0.294206
0.318316
0.392517
0.547742
0.852145
1.22675
1.48916
1.58625
1.60072
1.57993
1.55876
1.49587
1.34989
0.565304
0.648703
0.745174
0.786647
0.823789
0.83279
0.825582
0.801684
0.796719
0.785822
0.74785
0.679667
0.584897
0.503589
0.450059
0.443341
0.431963
0.41282
0.355266
0.309996
0.304515
0.328052
0.403841
0.561579
0.860333
1.22897
1.47884
1.56743
1.57331
1.56007
1.54435
1.48204
1.34154
0.618591
0.693812
0.735044
0.774957
0.779516
0.764137
0.721148
0.706899
0.717844
0.742456
0.727389
0.679509
0.591028
0.516321
0.463902
0.458913
0.449711
0.433638
0.374287
0.322252
0.312458
0.33504
0.410679
0.567398
0.856992
1.2207
1.45745
1.53386
1.53089
1.52533
1.51071
1.44907
1.31716
0.652367
0.703559
0.71765
0.726366
0.706262
0.651872
0.613759
0.618261
0.653238
0.709396
0.707334
0.669867
0.590075
0.51787
0.466574
0.463358
0.456491
0.443504
0.384968
0.329013
0.316414
0.338734
0.413779
0.567233
0.847666
1.20004
1.42759
1.48921
1.48002
1.47744
1.46245
1.39919
1.27349
0.659633
0.68923
0.702472
0.678562
0.61407
0.559647
0.549358
0.566397
0.613282
0.678082
0.681269
0.648788
0.575457
0.50629
0.460099
0.460141
0.455597
0.444169
0.386561
0.329062
0.315751
0.338566
0.413661
0.564384
0.833463
1.17222
1.38661
1.43313
1.42095
1.41956
1.40336
1.33746
1.22141
0.724626
0.700897
0.687616
0.618406
0.539448
0.51485
0.520586
0.546027
0.592977
0.648425
0.646988
0.61463
0.547404
0.484231
0.443192
0.450307
0.449272
0.440297
0.382458
0.323397
0.311081
0.335644
0.410945
0.557733
0.816146
1.13492
1.33193
1.37066
1.35698
1.3555
1.33473
1.25621
1.16955
0.8177
0.717894
0.653012
0.553423
0.500614
0.496919
0.51274
0.542151
0.581475
0.618859
0.607202
0.563977
0.504214
0.450475
0.416633
0.430773
0.435306
0.427939
0.368335
0.309072
0.300342
0.329064
0.405363
0.549433
0.795974
1.08999
1.26497
1.30477
1.29047
1.28646
1.2584
1.17307
1.10922
0.821208
0.703666
0.589315
0.514101
0.486769
0.49593
0.523201
0.549699
0.573217
0.589458
0.56393
0.497668
0.433527
0.397314
0.384297
0.408601
0.418741
0.407253
0.34363
0.289624
0.287527
0.321701
0.399406
0.540822
0.772903
1.0375
1.19526
1.2358
1.22152
1.21181
1.17504
1.09631
1.04054
0.806874
0.656233
0.547667
0.497143
0.484884
0.513144
0.549339
0.566918
0.566079
0.562275
0.512368
0.433495
0.369217
0.351405
0.355377
0.391078
0.402255
0.384254
0.313625
0.268203
0.273896
0.314286
0.393333
0.531954
0.74977
0.985055
1.12234
1.16172
1.14994
1.13335
1.08851
1.02664
0.970154
0.755518
0.601105
0.520937
0.491681
0.496985
0.53614
0.56784
0.575013
0.559108
0.534212
0.457288
0.375794
0.342542
0.330511
0.346639
0.384537
0.387824
0.356311
0.281479
0.244713
0.260616
0.307037
0.387267
0.523438
0.727038
0.934937
1.0531
1.08698
1.07686
1.05406
1.00353
0.962386
0.904183
0.688419
0.567997
0.511126
0.494255
0.507858
0.547375
0.574876
0.576778
0.546662
0.498627
0.408913
0.329362
0.322057
0.325325
0.350108
0.380814
0.373875
0.325561
0.25155
0.223271
0.248058
0.299874
0.382116
0.515818
0.70509
0.888111
0.989045
1.01411
1.00365
0.976168
0.922654
0.893269
0.833597
0.644563
0.555253
0.510887
0.499135
0.511801
0.550185
0.568124
0.556333
0.516439
0.45447
0.36334
0.30633
0.31253
0.326081
0.363067
0.38158
0.36109
0.293282
0.225875
0.206765
0.237239
0.29417
0.378972
0.509489
0.684954
0.845714
0.930785
0.945969
0.93442
0.907733
0.870292
0.839807
0.779041
0.624585
0.558123
0.518575
0.500604
0.507026
0.529524
0.537081
0.521268
0.480606
0.417026
0.337676
0.298218
0.310527
0.33118
0.381014
0.38642
0.347588
0.26429
0.206548
0.194631
0.229101
0.291985
0.379149
0.506226
0.66618
0.805457
0.876249
0.885436
0.875529
0.861962
0.844259
0.805807
0.764296
0.620419
0.567867
0.524921
0.495965
0.48932
0.497245
0.501387
0.489699
0.45569
0.394774
0.326603
0.299023
0.309427
0.340961
0.392838
0.390834
0.333177
0.241748
0.192619
0.187341
0.225154
0.292733
0.381684
0.504947
0.647694
0.766124
0.825773
0.828537
0.827449
0.831937
0.818815
0.785905
0.766699
0.622891
0.573424
0.527087
0.487009
0.465544
0.463666
0.469949
0.466553
0.438672
0.382778
0.322142
0.300108
0.306556
0.345117
0.398626
0.390075
0.315864
0.223646
0.184124
0.185095
0.225512
0.296343
0.388964
0.505774
0.628757
0.726259
0.776317
0.784816
0.790949
0.803107
0.794735
0.779945
0.763172
0.623718
0.575478
0.526956
0.479783
0.444245
0.433193
0.440313
0.444395
0.424626
0.374859
0.319357
0.299589
0.300538
0.346888
0.399874
0.382797
0.295577
0.210437
0.179346
0.185979
0.22913
0.304587
0.403594
0.506689
0.605186
0.683159
0.727341
0.741599
0.75155
0.764228
0.765904
0.768726
0.755434
0.623051
0.575796
0.526534
0.476781
0.432954
0.411968
0.411129
0.419003
0.406149
0.366785
0.315635
0.296376
0.291361
0.347048
0.397253
0.363274
0.271491
0.199861
0.177387
0.190223
0.238371
0.319598
0.415366
0.500675
0.576511
0.637601
0.677997
0.698127
0.710655
0.721106
0.737286
0.746603
0.761006
0.619122
0.57545
0.526799
0.476166
0.429825
0.401251
0.39069
0.390258
0.383683
0.354529
0.30982
0.288557
0.279804
0.343336
0.391131
0.339146
0.247956
0.192656
0.178201
0.199945
0.254069
0.333969
0.416963
0.487152
0.544047
0.593011
0.628861
0.651533
0.667027
0.679732
0.705348
0.730557
0.771839
0.615732
0.576776
0.531483
0.482852
0.435571
0.399529
0.382448
0.371566
0.360686
0.33384
0.301839
0.278555
0.269465
0.334165
0.380595
0.313178
0.22671
0.188956
0.181936
0.212266
0.269543
0.343423
0.411727
0.467188
0.513008
0.552828
0.582985
0.60618
0.624788
0.644437
0.675518
0.721346
0.795246
0.614769
0.582111
0.543085
0.49852
0.452171
0.410887
0.382459
0.365581
0.350943
0.326505
0.292301
0.273208
0.266454
0.320782
0.360322
0.280474
0.212384
0.188471
0.188931
0.224925
0.283386
0.34858
0.40131
0.448153
0.485044
0.517807
0.540169
0.562182
0.584439
0.610604
0.657279
0.732161
0.84804
0.617313
0.592941
0.561011
0.521362
0.476308
0.43264
0.397134
0.370981
0.350893
0.329311
0.294206
0.274827
0.267824
0.307581
0.331894
0.255769
0.204827
0.189049
0.197442
0.236872
0.294856
0.351365
0.391406
0.4311
0.462742
0.488638
0.503329
0.51864
0.540079
0.576886
0.63419
0.754891
0.936132
0.622697
0.60694
0.583221
0.549501
0.506504
0.461262
0.422287
0.391384
0.367749
0.342245
0.304982
0.279841
0.271906
0.298182
0.303672
0.238175
0.200635
0.190731
0.205639
0.248322
0.304776
0.355006
0.387461
0.41906
0.447162
0.46778
0.47564
0.483677
0.499073
0.539222
0.603348
0.769813
1.01069
0.628604
0.622343
0.60735
0.580843
0.540743
0.494921
0.454667
0.422667
0.395649
0.368696
0.329143
0.293008
0.279261
0.290987
0.276885
0.224565
0.19838
0.193287
0.21519
0.259845
0.315783
0.361347
0.388116
0.413378
0.437955
0.454752
0.457864
0.459334
0.470134
0.500177
0.596539
0.78067
1.04524
0.63557
0.63692
0.631103
0.612868
0.576711
0.532095
0.493075
0.462844
0.432593
0.401303
0.364608
0.319042
0.290296
0.282279
0.254371
0.214122
0.197344
0.197222
0.226217
0.274368
0.329497
0.371814
0.392885
0.412532
0.432909
0.447847
0.448331
0.445893
0.453457
0.491801
0.56018
0.793706
1.05671
0.643593
0.649569
0.652243
0.642573
0.612187
0.570973
0.534811
0.50655
0.472826
0.438409
0.396176
0.345552
0.305132
0.273295
0.236217
0.207038
0.196598
0.204411
0.239242
0.292209
0.343954
0.382288
0.400679
0.413973
0.430497
0.445089
0.445009
0.442444
0.45063
0.494913
0.575303
0.821275
1.05374
0.647839
0.655772
0.663152
0.662381
0.642736
0.609582
0.577572
0.550139
0.514991
0.477684
0.426334
0.368113
0.316963
0.26179
0.22539
0.206249
0.197927
0.214299
0.254541
0.308948
0.355027
0.387236
0.403497
0.413948
0.428825
0.445459
0.44658
0.448163
0.462258
0.517376
0.615577
0.87022
1.06357
0.648626
0.657048
0.666647
0.670332
0.661787
0.643636
0.616286
0.58639
0.548343
0.516944
0.457057
0.386087
0.322832
0.252789
0.221009
0.20826
0.202489
0.225767
0.268752
0.318481
0.357036
0.385873
0.40192
0.411389
0.426871
0.447181
0.452073
0.462515
0.4877
0.558751
0.684926
0.937986
1.08641
0.64706
0.654208
0.661091
0.666818
0.668524
0.666247
0.646467
0.613349
0.5689
0.530051
0.481993
0.401733
0.325764
0.250755
0.222773
0.216954
0.213008
0.235709
0.277937
0.319323
0.353337
0.379193
0.395386
0.403653
0.424041
0.451099
0.465047
0.489139
0.543129
0.628188
0.782675
0.993664
1.10971
0.642188
0.645852
0.64344
0.645456
0.659747
0.675032
0.669978
0.637648
0.586384
0.530642
0.492029
0.410956
0.32707
0.252101
0.229214
0.230849
0.226096
0.242642
0.279772
0.31425
0.342142
0.363971
0.380583
0.389289
0.419023
0.456909
0.487487
0.537972
0.620385
0.739277
0.882211
1.02997
1.12223
0.633377
0.633149
0.620023
0.614597
0.633952
0.674506
0.687743
0.66401
0.608814
0.534729
0.491306
0.409749
0.328557
0.258761
0.243646
0.247904
0.238552
0.246052
0.276561
0.301641
0.32372
0.343106
0.360973
0.376026
0.411176
0.460133
0.514459
0.599198
0.706024
0.830873
0.958149
1.04838
1.13006
0.619498
0.614262
0.592161
0.58184
0.604415
0.666658
0.704674
0.700371
0.652179
0.550114
0.487278
0.406809
0.331532
0.27559
0.263267
0.2661
0.249104
0.247698
0.268434
0.287015
0.305452
0.324019
0.342417
0.364569
0.40907
0.4691
0.551447
0.667526
0.792463
0.908615
0.999217
1.05814
1.11817
0.599675
0.589599
0.562658
0.550393
0.575602
0.653084
0.723119
0.737695
0.714666
0.587167
0.482555
0.400822
0.332759
0.293456
0.282929
0.282447
0.256426
0.25014
0.260029
0.274125
0.291711
0.309338
0.327588
0.35623
0.40953
0.484454
0.598152
0.742392
0.875265
0.958907
1.00875
1.04771
1.10859
0.57409
0.56397
0.537215
0.523701
0.548173
0.634244
0.735648
0.770368
0.774443
0.651758
0.493886
0.392923
0.336158
0.31229
0.301903
0.298863
0.268639
0.255381
0.255188
0.266493
0.282144
0.298683
0.317659
0.353685
0.416186
0.510276
0.653949
0.804954
0.923931
0.963377
0.982983
1.01628
1.07385
0.552694
0.54741
0.524385
0.506112
0.522782
0.614906
0.741967
0.796573
0.815294
0.732946
0.522351
0.397465
0.346781
0.333197
0.32329
0.31316
0.283172
0.260749
0.255964
0.262467
0.275195
0.290945
0.312148
0.356915
0.431753
0.54705
0.704328
0.843454
0.923233
0.932557
0.931953
0.946322
1.03687
0.545626
0.542839
0.520406
0.496355
0.508153
0.593159
0.743767
0.818988
0.838771
0.819798
0.56986
0.415431
0.367227
0.358777
0.34966
0.334349
0.299328
0.268373
0.259003
0.260465
0.269641
0.284112
0.309954
0.366037
0.46124
0.59407
0.743754
0.867964
0.92553
0.894682
0.877619
0.861454
1.03165
0.554392
0.556227
0.532556
0.495903
0.501325
0.568968
0.733306
0.840322
0.853233
0.88698
0.645251
0.45574
0.391861
0.380784
0.377755
0.360471
0.319295
0.278678
0.265089
0.260057
0.264949
0.278704
0.312254
0.384972
0.500071
0.641521
0.775664
0.857684
0.904798
0.876386
0.846647
0.877489
1.03636
0.573281
0.58028
0.556299
0.518639
0.501771
0.556132
0.706076
0.860865
0.868518
0.911704
0.758896
0.512445
0.416818
0.397132
0.408296
0.387037
0.340735
0.289359
0.269571
0.260557
0.26109
0.27596
0.320191
0.411563
0.534008
0.66718
0.761723
0.85246
0.902783
0.888481
0.86429
0.969627
1.06004
0.606426
0.61834
0.592598
0.552745
0.519063
0.551211
0.674317
0.872589
0.895724
0.907592
0.838383
0.582049
0.444011
0.412684
0.432739
0.416155
0.359942
0.299486
0.274074
0.260743
0.259246
0.276865
0.332819
0.436042
0.550376
0.66186
0.736537
0.812199
0.910728
0.953499
1.03614
1.11973
1.13258
0.643514
0.663585
0.644557
0.599763
0.550334
0.558177
0.657865
0.870777
0.937244
0.902261
0.870466
0.656989
0.480169
0.436189
0.459342
0.444118
0.378739
0.31036
0.278398
0.262566
0.260789
0.281635
0.346987
0.450933
0.553084
0.62956
0.71238
0.809319
0.934628
0.97934
1.06938
1.24133
1.23883
0.683164
0.721558
0.704865
0.658232
0.59362
0.572702
0.652025
0.854742
0.983465
0.912794
0.864599
0.710936
0.520615
0.468179
0.491545
0.477909
0.394534
0.322507
0.282091
0.266355
0.265295
0.289508
0.361418
0.461858
0.542211
0.631013
0.719488
0.868119
0.960852
0.984986
1.05836
1.25886
1.3406
0.715671
0.78005
0.769754
0.726466
0.649036
0.598703
0.656716
0.838899
1.02813
0.939245
0.869589
0.763484
0.567351
0.506605
0.527336
0.520707
0.412318
0.33144
0.288424
0.273533
0.272776
0.299852
0.374789
0.450931
0.551487
0.655008
0.812476
0.929924
0.969762
0.974536
1.03028
1.22802
1.38023
0.731356
0.820875
0.826784
0.792145
0.71176
0.636529
0.6717
0.829723
1.05708
0.973897
0.888363
0.819546
0.616045
0.542821
0.56204
0.566292
0.431922
0.339463
0.293837
0.281615
0.280986
0.309832
0.370474
0.454846
0.579732
0.76065
0.900931
0.955439
0.949419
0.941837
0.975229
1.14804
1.35972
0.730029
0.837691
0.86742
0.844199
0.773521
0.679517
0.691517
0.824311
1.07145
1.02371
0.919546
0.880443
0.669599
0.577637
0.584392
0.600719
0.453835
0.347365
0.300829
0.28838
0.287777
0.312748
0.368498
0.457742
0.639283
0.842664
0.926499
0.938157
0.898284
0.897854
0.92499
1.05495
1.31273
0.721192
0.838435
0.885536
0.873702
0.821312
0.722179
0.7189
0.823689
1.07334
1.08426
0.961908
0.932601
0.716817
0.608515
0.599819
0.624139
0.475111
0.358773
0.309908
0.287463
0.286049
0.308625
0.355749
0.453707
0.65499
0.819935
0.856451
0.840375
0.82904
0.856343
0.886284
0.9876
1.23287
0.70742
0.816839
0.88659
0.883816
0.844449
0.76282
0.744588
0.830454
1.06988
1.14577
1.01522
0.976374
0.800187
0.651649
0.621747
0.649755
0.499041
0.369127
0.311061
0.292627
0.284268
0.293938
0.326296
0.413533
0.561388
0.692589
0.735433
0.751885
0.78204
0.826919
0.857332
0.945057
1.15147
0.692644
0.784549
0.858718
0.872485
0.848833
0.785312
0.757521
0.832694
1.0608
1.20842
1.07483
1.0132
0.894041
0.710312
0.656075
0.684184
0.535283
0.378855
0.314072
0.288236
0.284741
0.292806
0.31848
0.384056
0.470003
0.569302
0.640237
0.698861
0.755068
0.805236
0.834144
0.915209
1.09196
0.683887
0.756485
0.82076
0.84238
0.830522
0.790435
0.761825
0.832945
1.05624
1.26636
1.13329
1.04964
0.986565
0.787169
0.70755
0.734748
0.591582
0.39504
0.313309
0.286108
0.279371
0.288252
0.318423
0.379144
0.414594
0.487493
0.582711
0.66482
0.73315
0.784351
0.811851
0.887451
1.04217
0.681066
0.736819
0.786276
0.805013
0.799545
0.777421
0.7572
0.824915
1.04689
1.31516
1.177
1.07547
1.05964
0.874932
0.769934
0.783809
0.679156
0.419663
0.312502
0.278482
0.272571
0.280955
0.311674
0.32838
0.352312
0.432564
0.542532
0.634882
0.711556
0.761748
0.787044
0.855735
0.995527
0.682032
0.724439
0.758899
0.769285
0.765165
0.74939
0.740834
0.80938
1.0353
1.33503
1.20161
1.08625
1.09976
0.945899
0.825468
0.81659
0.771501
0.463708
0.315481
0.262955
0.25416
0.263946
0.276332
0.277477
0.309709
0.396735
0.510276
0.606133
0.68845
0.735694
0.757573
0.822842
0.948401
0.684023
0.715583
0.736979
0.739475
0.734266
0.718588
0.72178
0.794227
1.02601
1.33191
1.21392
1.10048
1.10494
1.00996
0.884335
0.837238
0.85855
0.540062
0.328842
0.255686
0.239055
0.242769
0.253221
0.258541
0.291719
0.373046
0.482533
0.577625
0.661731
0.70532
0.722773
0.783179
0.901327
0.683186
0.705318
0.716954
0.716055
0.708217
0.691719
0.703239
0.78265
1.01898
1.3276
1.21256
1.11563
1.09923
1.04842
0.944547
0.851904
0.893663
0.683008
0.367816
0.264334
0.24332
0.242459
0.247727
0.255979
0.287646
0.355831
0.457942
0.54896
0.63104
0.671697
0.685455
0.741994
0.851764
0.673424
0.68915
0.697048
0.695276
0.686904
0.672244
0.688627
0.773651
1.01673
1.33268
1.21721
1.13439
1.09741
1.05892
0.991602
0.877521
0.87882
0.82181
0.457028
0.293263
0.261096
0.258041
0.26508
0.269645
0.290376
0.343654
0.434257
0.519665
0.595205
0.635573
0.64938
0.701716
0.805894
0.651539
0.66726
0.677803
0.67696
0.670498
0.659545
0.677651
0.763855
1.00906
1.3388
1.23384
1.1558
1.10305
1.06092
1.02713
0.921732
0.874448
0.844708
0.62504
0.361578
0.308151
0.295709
0.29359
0.294837
0.303573
0.336005
0.409785
0.487644
0.554405
0.596274
0.617249
0.666637
0.766987
0.622942
0.645928
0.662336
0.663367
0.659157
0.651017
0.669409
0.751844
0.990084
1.32863
1.25392
1.17447
1.11248
1.06547
1.04126
0.983802
0.8906
0.844004
0.770111
0.49726
0.392331
0.344459
0.328116
0.322459
0.320249
0.332667
0.385443
0.452871
0.511491
0.555682
0.589552
0.64116
0.736473
0.601195
0.633839
0.653524
0.655631
0.652244
0.644837
0.662302
0.740167
0.964833
1.28787
1.26205
1.17907
1.11562
1.0708
1.04726
1.00368
0.922248
0.863192
0.881846
0.706626
0.501005
0.401856
0.369543
0.352326
0.342053
0.338217
0.371942
0.414255
0.468123
0.509292
0.566969
0.626546
0.710992
0.590608
0.627716
0.648656
0.651501
0.648508
0.640479
0.657416
0.731573
0.945098
1.2431
1.24023
1.17418
1.11391
1.07661
1.0489
1.01658
0.970441
0.926257
1.01181
0.928879
0.606586
0.467572
0.418192
0.38368
0.360099
0.353009
0.366451
0.396426
0.441678
0.488936
0.551816
0.623705
0.683329
0.584736
0.624944
0.646012
0.649073
0.646073
0.637116
0.653183
0.724808
0.928575
1.20604
1.21436
1.16883
1.11
1.08188
1.05773
1.04142
1.02979
1.03693
1.1635
1.07495
0.686341
0.535107
0.479404
0.43219
0.390674
0.378016
0.380967
0.394293
0.429993
0.492276
0.551475
0.610758
0.647802
0.58227
0.623915
0.644664
0.647565
0.644366
0.633981
0.649448
0.718851
0.910953
1.16348
1.19172
1.1678
1.10903
1.09181
1.0783
1.0808
1.10276
1.15678
1.28485
1.0994
0.716179
0.595952
0.545871
0.497595
0.456476
0.446122
0.444765
0.446773
0.463903
0.50624
0.554727
0.598887
0.616581
0.581123
0.623471
0.642969
0.645575
0.64207
0.630783
0.646617
0.715163
0.894162
1.11289
1.14893
1.13687
1.11001
1.106
1.10797
1.1294
1.17667
1.24368
1.30708
1.06829
0.727006
0.640532
0.611572
0.580728
0.550523
0.553124
0.558424
0.549716
0.536073
0.54528
0.568672
0.585809
0.589868
0.579998
0.622003
0.639853
0.642177
0.638685
0.62687
0.64427
0.713678
0.881954
1.06401
1.09859
1.10076
1.10522
1.11556
1.13825
1.18145
1.24197
1.29677
1.29548
1.03666
0.728541
0.667862
0.678981
0.682736
0.665077
0.688128
0.6969
0.659646
0.614978
0.590562
0.580247
0.575517
0.566238
0.578599
0.619138
0.635342
0.637254
0.63366
0.622974
0.643112
0.714909
0.874937
1.02421
1.04843
1.06743
1.09424
1.12483
1.16552
1.22893
1.29641
1.32972
1.28443
1.04062
0.751609
0.698733
0.753148
0.790222
0.782759
0.811928
0.82107
0.762173
0.689953
0.629669
0.589008
0.564075
0.544045
0.576486
0.615119
0.629888
0.631693
0.628658
0.621754
0.643751
0.718369
0.870579
0.99284
0.996797
1.02879
1.08211
1.12933
1.19135
1.27218
1.34465
1.35257
1.28522
1.06492
0.817524
0.769878
0.833764
0.904526
0.898861
0.918805
0.918936
0.851001
0.756344
0.660354
0.591397
0.547928
0.515942
0.574582
0.611153
0.624786
0.626755
0.62551
0.622572
0.647526
0.725542
0.868619
0.955208
0.947617
0.972819
1.06161
1.13175
1.21424
1.31478
1.38771
1.37859
1.30045
1.11363
0.921788
0.876076
0.939205
1.01284
0.999625
1.004
0.992274
0.91725
0.802961
0.678525
0.587753
0.527124
0.485558
0.573619
0.608144
0.621022
0.62357
0.625066
0.627755
0.656697
0.739463
0.87117
0.922631
0.900242
0.916465
1.00096
1.1121
1.23161
1.35095
1.41516
1.38598
1.30106
1.15519
1.03211
1.0199
1.07528
1.10904
1.06445
1.05392
1.02972
0.952295
0.823637
0.680259
0.572245
0.498097
0.456391
0.573112
0.606025
0.618591
0.622536
0.626798
0.637289
0.674429
0.763535
0.876924
0.893057
0.860929
0.866479
0.939297
1.07782
1.23455
1.36828
1.42031
1.376
1.29018
1.1834
1.13791
1.1702
1.22957
1.15088
1.08387
1.07127
1.03995
0.958703
0.820983
0.668541
0.546481
0.469352
0.43305
0.572867
0.604613
0.617381
0.623078
0.632275
0.652322
0.700574
0.799335
0.883521
0.866298
0.824256
0.819529
0.877622
1.03024
1.22297
1.36515
1.41006
1.35139
1.26636
1.21699
1.24636
1.31189
1.30356
1.15358
1.08244
1.06603
1.03071
0.947902
0.800344
0.637557
0.51147
0.442893
0.414917
0.572782
0.603723
0.61693
0.625461
0.641355
0.671804
0.738533
0.845018
0.886861
0.841196
0.785934
0.774354
0.821453
0.966851
1.18903
1.34722
1.38768
1.31409
1.23598
1.24634
1.32299
1.42161
1.29226
1.14365
1.08381
1.06067
1.02462
0.931098
0.770444
0.603891
0.482502
0.424193
0.405065
0.57271
0.603101
0.616955
0.628677
0.653565
0.700398
0.790616
0.893483
0.882263
0.815442
0.746692
0.728974
0.7678
0.902657
1.13713
1.31301
1.35679
1.27122
1.20944
1.24904
1.3467
1.4115
1.25986
1.13854
1.10056
1.0657
1.02508
0.919909
0.745023
0.575445
0.463119
0.413911
0.400718
0.572662
0.602578
0.6176
0.634552
0.670219
0.739417
0.857106
0.934488
0.879473
0.787117
0.708276
0.684831
0.718854
0.843683
1.08348
1.28287
1.31573
1.22752
1.18857
1.24613
1.37104
1.39213
1.23711
1.14109
1.12131
1.08132
1.03722
0.923291
0.737236
0.561857
0.45721
0.413616
0.402936
0.572836
0.602111
0.618789
0.643257
0.694327
0.790311
0.935775
0.966654
0.871466
0.756739
0.672064
0.64406
0.676531
0.798474
1.04178
1.25912
1.27194
1.18571
1.17185
1.24894
1.38386
1.36411
1.21942
1.15001
1.14255
1.10994
1.06299
0.945419
0.750736
0.567779
0.461982
0.420182
0.41079
0.573638
0.602042
0.62087
0.65402
0.724345
0.856551
1.02369
0.990452
0.855757
0.726243
0.636304
0.604313
0.63729
0.76254
1.01877
1.24473
1.23512
1.15053
1.15845
1.25696
1.36275
1.3145
1.19898
1.16001
1.17422
1.16047
1.11315
0.991446
0.797221
0.60044
0.485435
0.440338
0.429817
0.574352
0.602198
0.624157
0.667876
0.761893
0.936428
1.11009
1.01141
0.842593
0.703462
0.613343
0.580547
0.613924
0.74604
1.02087
1.236
1.20369
1.12328
1.14027
1.24663
1.30795
1.24231
1.16252
1.15332
1.19471
1.21246
1.19173
1.08364
0.896767
0.683456
0.543278
0.485273
0.469632
0.574758
0.60226
0.628371
0.683582
0.805084
1.02822
1.18946
1.02893
0.838644
0.692325
0.603579
0.572179
0.607303
0.746968
1.04667
1.22387
1.1745
1.09911
1.11548
1.2044
1.219
1.15488
1.10973
1.1361
1.19305
1.22467
1.23367
1.19216
1.03475
0.820146
0.640173
0.559748
0.531983
0.574491
0.602082
0.632841
0.70036
0.853792
1.12526
1.25987
1.04395
0.849654
0.689261
0.601704
0.575783
0.622276
0.78881
1.10487
1.22142
1.15177
1.07344
1.07608
1.12068
1.10148
1.05209
1.03451
1.07679
1.14168
1.18992
1.22976
1.23456
1.1537
0.974952
0.761361
0.636999
0.584646
0.573609
0.601518
0.637372
0.719326
0.90658
1.21652
1.31622
1.0671
0.874077
0.698325
0.611378
0.591452
0.646243
0.847024
1.17079
1.23089
1.13429
1.04034
1.01673
1.01678
0.972296
0.94361
0.955684
1.01133
1.08389
1.14384
1.18178
1.19285
1.19164
1.09689
0.890167
0.714846
0.620464
0.572029
0.60081
0.642721
0.740383
0.963544
1.29504
1.34635
1.08294
0.897204
0.719359
0.63121
0.611158
0.667974
0.872199
1.20231
1.22654
1.10647
0.998358
0.945648
0.90596
0.847833
0.831194
0.878268
0.942053
1.01197
1.07763
1.1283
1.14736
1.13578
1.08636
0.98126
0.781769
0.651763
0.570244
0.600498
0.649785
0.765458
1.02715
1.36318
1.35296
1.09036
0.908177
0.736709
0.653662
0.633363
0.694648
0.897247
1.20633
1.20704
1.06593
0.951969
0.873158
0.809218
0.739818
0.737492
0.805645
0.887161
0.969179
1.03719
1.09148
1.11353
1.11267
1.0868
1.00358
0.810377
0.660228
0.568544
0.600896
0.659468
0.797555
1.1023
1.42549
1.33483
1.09416
0.910673
0.744401
0.669863
0.656188
0.718292
0.923565
1.1906
1.1614
1.02518
0.909385
0.814271
0.735679
0.671636
0.668316
0.735252
0.840133
0.945097
1.03068
1.08284
1.09733
1.10053
1.07266
1.01464
0.830822
0.665093
0.567369
0.601948
0.672241
0.836823
1.18743
1.47414
1.31226
1.09345
0.903607
0.746261
0.674519
0.670303
0.736034
0.948312
1.18131
1.11186
0.996781
0.885258
0.779469
0.692919
0.638498
0.635001
0.693167
0.798141
0.925597
1.05004
1.08917
1.09388
1.09086
1.05368
1.00522
0.833306
0.662916
0.56609
0.604199
0.685943
0.88086
1.27423
1.51636
1.30415
1.09306
0.902247
0.750839
0.661459
0.665227
0.748541
0.974639
1.19098
1.1052
0.990534
0.867003
0.757334
0.668999
0.62583
0.624432
0.666879
0.770205
0.921317
1.0655
1.11505
1.10374
1.08995
1.04445
0.992599
0.824304
0.656174
0.564227
0.60605
0.699488
0.926182
1.35772
1.55443
1.30347
1.09628
0.910895
0.799681
0.674551
0.668614
0.770219
0.989957
1.21924
1.13537
1.02061
0.890856
0.758244
0.663264
0.613653
0.616557
0.651893
0.752532
0.919816
1.08409
1.14469
1.12242
1.09838
1.04802
0.992261
0.823733
0.661012
0.561272
0.606886
0.711911
0.970112
1.44267
1.58732
1.32088
1.11332
0.936813
0.840121
0.758989
0.71776
0.801805
0.99717
1.24838
1.19413
1.04727
0.881279
0.730977
0.64678
0.609895
0.607681
0.657672
0.770373
0.939603
1.10936
1.17516
1.14797
1.11849
1.07008
1.00283
0.839871
0.688794
0.55745
0.606868
0.722852
1.00986
1.51146
1.60497
1.33818
1.13591
0.959067
0.87131
0.791653
0.748047
0.801656
0.967018
1.21812
1.2171
1.04036
0.867489
0.71253
0.642434
0.618874
0.623124
0.678508
0.790492
0.956945
1.12736
1.19996
1.17305
1.14597
1.11894
1.03982
0.894611
0.76152
0.552929
0.606321
0.733066
1.04558
1.56018
1.60886
1.34519
1.14764
0.970539
0.88587
0.818678
0.753375
0.778171
0.875737
1.08887
1.19042
1.00522
0.852883
0.701271
0.635419
0.616052
0.621534
0.686121
0.796491
0.963586
1.13679
1.21703
1.19162
1.15582
1.11884
1.06895
0.984596
0.872831
0.547613
0.606093
0.745457
1.08299
1.58637
1.59553
1.34436
1.15045
0.974669
0.88778
0.827395
0.748318
0.742526
0.781243
0.899506
1.05024
0.926141
0.749783
0.605444
0.551521
0.548193
0.566205
0.630565
0.732438
0.89886
1.0946
1.21441
1.19913
1.16242
1.1137
1.04909
0.968946
0.869168
0.541495
0.606716
0.762364
1.12723
1.59346
1.55025
1.31964
1.13453
0.957253
0.8775
0.821558
0.740435
0.711106
0.7117
0.755004
0.842357
0.803342
0.612823
0.474652
0.434141
0.446934
0.473828
0.537
0.626961
0.781127
1.00295
1.18434
1.1945
1.1664
1.11229
1.04308
0.962658
0.864791
0.534597
0.608803
0.786439
1.18454
1.59021
1.48567
1.27384
1.09304
0.92229
0.869588
0.808092
0.730003
0.693105
0.668729
0.663195
0.699039
0.684364
0.519718
0.393451
0.365083
0.384781
0.417317
0.480526
0.560207
0.689549
0.902306
1.12846
1.18259
1.16532
1.1131
1.04302
0.96223
0.851716
0.527222
0.612004
0.816521
1.24715
1.58868
1.4266
1.2286
1.05358
0.895315
0.815992
0.778437
0.718612
0.688681
0.650036
0.610721
0.612864
0.587274
0.456177
0.351884
0.3337
0.356394
0.392007
0.454611
0.528264
0.639277
0.821735
1.05611
1.15713
1.15421
1.1137
1.05549
0.98835
0.855781
0.706057
0.593241
0.536415
0.490909
0.478052
0.446476
0.430959
0.424189
0.771311
0.635332
0.545695
0.490167
0.455555
0.426711
0.418176
0.40498
0.854757
0.692961
0.569527
0.482552
0.424097
0.379039
0.360096
0.346468
0.94237
0.751338
0.587204
0.45747
0.357768
0.299802
0.288445
0.286575
0.998413
0.781848
0.584149
0.415213
0.293593
0.237854
0.231942
0.238988
1.03154
0.793244
0.572506
0.384405
0.256978
0.200831
0.192947
0.199995
1.05324
0.798568
0.567287
0.371072
0.242287
0.183438
0.170713
0.172469
1.06942
0.803902
0.566873
0.370623
0.241609
0.180856
0.163897
0.168172
1.08088
0.807174
0.569721
0.375321
0.246408
0.184137
0.165292
0.173549
1.08575
0.808323
0.575759
0.3857
0.257708
0.194725
0.175233
0.186564
1.08352
0.806386
0.580087
0.396933
0.273138
0.210627
0.201927
0.21132
1.07144
0.798687
0.580004
0.405288
0.289726
0.229546
0.23266
0.245551
1.04532
0.784191
0.576498
0.414776
0.306921
0.258213
0.259679
0.279151
1.01352
0.769856
0.571853
0.424702
0.321884
0.296202
0.301377
0.318165
0.980086
0.752659
0.566297
0.432143
0.339583
0.325424
0.336688
0.357872
0.950277
0.736694
0.562634
0.437416
0.368809
0.368886
0.382586
0.397436
0.914327
0.718801
0.557428
0.44615
0.40978
0.421141
0.432211
0.425817
0.863841
0.695794
0.555437
0.466905
0.455158
0.47551
0.48508
0.460705
0.811648
0.67348
0.558364
0.51149
0.517472
0.544646
0.533901
0.488847
0.765001
0.656927
0.573233
0.57622
0.596988
0.608504
0.576406
0.504061
0.729984
0.653143
0.616973
0.636535
0.676153
0.661783
0.607085
0.507858
0.725361
0.662632
0.671328
0.697796
0.731547
0.700298
0.621729