/*--------------------------------*- C++ -*----------------------------------*\
  =========                 |
  \\      /  F ield         | OpenFOAM: The Open Source CFD Toolbox
   \\    /   O peration     | Website:  https://openfoam.org
    \\  /    A nd           | Version:  11
     \\/     M anipulation  |
\*---------------------------------------------------------------------------*/
FoamFile
{
    format      ascii;
    class       volVectorField;
    location    "1";
    object      U;
}
// * * * * * * * * * * * * * * * * * * * * * * * * * * * * * * * * * * * * * //

dimensions      [0 1 -1 0 0 0 0];

internalField   nonuniform List<vector> 
9600
(
(0.990676 0.00916704 -1.29255e-21)
(0.96989 0.0217701 0)
(0.908948 0.00993466 -1.16678e-21)
(0.889595 -0.0187417 1.15424e-21)
(0.907813 -0.0431798 0)
(0.941651 -0.060233 2.64563e-22)
(0.9679 -0.0622106 -4.4512e-22)
(0.986708 -0.0590284 1.79693e-22)
(0.999671 -0.0548687 -2.85126e-23)
(1.00905 -0.0507031 2.85813e-23)
(1.0164 -0.0472088 -2.19684e-24)
(1.02246 -0.0443023 0)
(1.02783 -0.0414382 0)
(1.03273 -0.0384579 4.03923e-22)
(1.037 -0.0353758 9.29938e-23)
(1.04051 -0.0320924 -4.93533e-22)
(1.04314 -0.0286927 0)
(1.04511 -0.0251746 0)
(1.04672 -0.0216165 -1.58588e-24)
(1.04786 -0.0179129 0)
(1.04826 -0.0141195 0)
(1.04764 -0.0107709 1.91002e-24)
(1.04616 -0.00723316 -3.89317e-24)
(1.04423 -0.00334022 1.00702e-21)
(1.04199 0.000673458 -9.98274e-22)
(1.03955 0.0046621 -9.52469e-22)
(1.03671 0.00857507 9.58534e-22)
(1.03342 0.0119175 1.67888e-21)
(1.02986 0.0151497 -1.64985e-21)
(1.02617 0.0177811 0)
(1.0227 0.0203651 0)
(1.01924 0.02223 -1.03231e-21)
(1.01602 0.0245236 1.88775e-21)
(1.01286 0.0261593 -8.64364e-22)
(1.01022 0.0294676 0)
(1.00705 0.0309841 -8.11239e-24)
(1.00543 0.0357877 -8.2032e-22)
(1.00194 0.0381707 8.11079e-22)
(1.00044 0.0462002 5.13028e-24)
(0.964467 0.0753485 1.06834e-21)
(0.991101 0.00915674 -1.24554e-21)
(0.98432 0.00868881 1.32155e-22)
(0.981494 -0.00162574 2.75234e-22)
(0.984894 -0.00274049 8.42757e-22)
(0.996343 0.00942512 1.82142e-22)
(1.00143 0.0324229 -1.84307e-22)
(0.99868 0.0463286 3.2204e-24)
(0.997548 0.0508553 5.69598e-25)
(0.997906 0.0507264 1.46564e-22)
(1.00034 0.0482123 -1.50641e-22)
(1.00407 0.0452617 2.24851e-24)
(1.00793 0.0425358 -6.96861e-24)
(1.01197 0.0396974 -3.70757e-22)
(1.01584 0.0368729 8.53437e-22)
(1.01925 0.0341241 -4.80846e-22)
(1.02206 0.0312301 -6.52915e-22)
(1.02423 0.0281764 6.59376e-22)
(1.02591 0.024855 -4.08755e-22)
(1.02736 0.0214933 4.04727e-22)
(1.0284 0.0180887 0)
(1.02856 0.0146787 0)
(1.02781 0.0116671 4.99863e-22)
(1.02653 0.00828348 -4.93535e-22)
(1.02479 0.00430137 -8.01197e-24)
(1.02276 0.000338977 0)
(1.02056 -0.00332078 -9.93e-22)
(1.01779 -0.00692152 4.40191e-23)
(1.01465 -0.0103485 -7.96478e-22)
(1.011 -0.0137749 1.68964e-21)
(1.00735 -0.0165698 2.39488e-23)
(1.00376 -0.0193662 -1.18982e-21)
(0.999998 -0.0214199 1.19554e-21)
(0.997435 -0.0238988 -8.88453e-22)
(0.993089 -0.0265021 1.59229e-21)
(0.992387 -0.0297313 -6.95458e-22)
(0.987322 -0.0325177 8.35139e-24)
(0.987108 -0.0371602 6.67431e-24)
(0.981518 -0.0433038 0)
(0.982428 -0.0516632 -5.31525e-24)
(0.980892 -0.0599676 6.17126e-22)
(0.995578 0.0157032 0)
(0.986855 0.0204937 1.16042e-21)
(0.969239 0.00760326 -1.14895e-21)
(0.957949 -0.0132253 0)
(0.95588 -0.0293781 0)
(0.962721 -0.0444668 -7.25481e-24)
(0.976156 -0.053737 -7.65116e-24)
(0.990319 -0.0567801 0)
(1.00262 -0.0560198 2.5321e-23)
(1.01237 -0.0538809 -2.01606e-23)
(1.01961 -0.0512924 0)
(1.02529 -0.0484974 7.13653e-24)
(1.03036 -0.0454374 -9.81436e-24)
(1.03495 -0.0421198 0)
(1.03887 -0.0387531 5.27367e-22)
(1.04205 -0.0350665 -5.20133e-22)
(1.04434 -0.0311605 -2.16869e-23)
(1.04614 -0.0270243 5.97399e-24)
(1.04774 -0.0227465 2.10497e-22)
(1.049 -0.0184041 -2.17315e-22)
(1.04974 -0.0138666 -2.50074e-22)
(1.04941 -0.00986398 2.62098e-22)
(1.04775 -0.00581831 -8.17835e-24)
(1.04572 -0.00119212 1.06077e-21)
(1.04376 0.00339976 -1.04322e-21)
(1.04163 0.00777655 -9.84965e-22)
(1.03917 0.0119033 1.03223e-21)
(1.03615 0.0154453 -1.86688e-21)
(1.03324 0.0187587 1.86344e-21)
(1.02978 0.0211692 -2.45256e-23)
(1.02704 0.02383 0)
(1.02307 0.0252066 -1.27208e-21)
(1.02112 0.0284136 2.39604e-21)
(1.01614 0.0289781 -1.1065e-21)
(1.01476 0.033801 -8.39669e-22)
(1.00965 0.0350321 2.18599e-21)
(1.00846 0.0417897 -2.12506e-22)
(1.00328 0.0435061 -1.15495e-21)
(0.997564 0.0536639 1.17924e-23)
(0.975397 0.0544819 8.98566e-25)
(1.00105 0.0174582 -2.32636e-21)
(0.997561 0.0120902 1.10141e-21)
(0.999797 -0.0067824 8.02097e-22)
(1.01224 -0.0159042 -8.08869e-22)
(1.02049 -0.0107602 0)
(1.02425 0.0092294 -3.86818e-24)
(1.02071 0.0281607 1.58147e-23)
(1.01434 0.0385036 -1.75775e-22)
(1.00979 0.0420668 -1.11809e-22)
(1.00827 0.0419903 2.87115e-22)
(1.00856 0.040783 5.37527e-22)
(1.01109 0.0385274 -1.29446e-21)
(1.01478 0.0358121 2.67276e-22)
(1.01843 0.0330708 1.0157e-21)
(1.02167 0.0305358 -5.572e-22)
(1.0244 0.0280908 -7.54814e-22)
(1.02655 0.0255958 7.46927e-22)
(1.02813 0.0229573 1.25896e-23)
(1.02947 0.0202336 6.9388e-24)
(1.03045 0.0175564 0)
(1.03036 0.0145644 0)
(1.02951 0.0120916 -8.27637e-24)
(1.02865 0.00952258 0)
(1.02734 0.00611611 0)
(1.02541 0.00248247 1.7271e-23)
(1.02327 -0.000981435 -3.33207e-23)
(1.02055 -0.00438184 9.45e-22)
(1.0172 -0.00784074 7.59956e-22)
(1.0135 -0.0112531 -1.85213e-21)
(1.00943 -0.0143554 1.42313e-21)
(1.00602 -0.0172514 -1.41983e-21)
(1.00159 -0.019761 -4.25094e-23)
(1.00032 -0.0219394 -8.71442e-22)
(0.996304 -0.0252979 9.06092e-22)
(0.995277 -0.0284932 5.99188e-22)
(0.993349 -0.0331578 3.9267e-22)
(0.991684 -0.0374545 -1.75164e-22)
(0.992509 -0.0443493 -8.35154e-22)
(0.996912 -0.0471045 -1.20459e-23)
(0.998259 -0.04256 -8.7209e-24)
(1.00842 0.0166236 0)
(1.00419 0.00916725 1.27881e-21)
(1.0007 -0.0062324 -2.42312e-21)
(0.996001 -0.0128235 1.12946e-21)
(0.98148 -0.0157787 0)
(0.973488 -0.0246257 0)
(0.978735 -0.036562 0)
(0.990142 -0.0465025 -2.06625e-24)
(1.00133 -0.0513963 2.24975e-23)
(1.01106 -0.052154 -2.53271e-23)
(1.01902 -0.0512663 1.17322e-23)
(1.02534 -0.0499538 -5.11725e-22)
(1.03027 -0.0473447 8.89487e-22)
(1.03467 -0.0436959 -3.60462e-22)
(1.03837 -0.0400872 0)
(1.04124 -0.0362223 -6.23003e-22)
(1.04324 -0.032108 6.44159e-22)
(1.04487 -0.0276685 -1.29119e-23)
(1.04638 -0.0229832 0)
(1.04751 -0.0183387 0)
(1.04857 -0.013272 2.64103e-22)
(1.04867 -0.00869738 -2.64022e-22)
(1.04684 -0.00435069 0)
(1.04459 0.000573542 1.13403e-21)
(1.04268 0.00543633 -1.16786e-21)
(1.04075 0.0100031 -1.12268e-21)
(1.03861 0.0141843 1.08681e-21)
(1.03598 0.0178459 -2.01952e-21)
(1.03342 0.0212021 2.13792e-21)
(1.03038 0.0236847 5.41056e-23)
(1.02813 0.0266756 0)
(1.02449 0.0274274 4.3576e-23)
(1.02186 0.0312514 1.31893e-21)
(1.01672 0.031275 -1.34955e-21)
(1.01435 0.0365502 2.81567e-23)
(1.00894 0.0370499 0)
(1.00547 0.0436187 0)
(1.00014 0.043152 -1.1309e-21)
(0.989522 0.0490824 1.09587e-21)
(0.972835 0.0411094 -2.03845e-23)
(1.00938 0.0125966 -1.0305e-21)
(1.00853 -0.00173001 -3.90728e-23)
(1.01047 -0.0101336 3.6303e-23)
(1.01513 -0.0146177 2.0749e-23)
(1.02077 -0.0134529 0)
(1.02466 -0.00463769 0)
(1.02642 0.0107006 0)
(1.0244 0.0224835 -2.98166e-22)
(1.02059 0.0296018 7.18603e-22)
(1.01715 0.0326571 -3.92541e-22)
(1.01551 0.032968 0)
(1.01556 0.0322579 -8.33222e-22)
(1.0178 0.0302025 8.63797e-22)
(1.02164 0.0275689 6.45828e-22)
(1.02468 0.0253155 -6.46892e-22)
(1.02727 0.0233614 -2.22107e-23)
(1.02951 0.0215368 2.49575e-23)
(1.03118 0.0197173 0)
(1.03239 0.01787 -1.50768e-23)
(1.03353 0.0160951 0)
(1.0331 0.0138753 4.30385e-24)
(1.03184 0.0120773 1.79155e-23)
(1.03119 0.0103412 0)
(1.03051 0.00795305 -1.20491e-21)
(1.02873 0.00503499 1.20363e-21)
(1.02642 0.0020848 -1.03801e-21)
(1.02366 -0.000915589 1.17854e-21)
(1.02017 -0.00413319 1.85285e-21)
(1.01634 -0.00743173 -1.85344e-21)
(1.01183 -0.010878 2.39111e-24)
(1.0083 -0.0135788 -1.05266e-22)
(1.00398 -0.0170409 9.48249e-23)
(1.00284 -0.0190345 -9.794e-22)
(1.00029 -0.0224875 1.81885e-21)
(0.999609 -0.0261101 -8.39845e-22)
(0.998843 -0.0306794 0)
(0.999075 -0.0353166 -4.55254e-23)
(1.00079 -0.0377415 3.73695e-23)
(1.00413 -0.0367194 2.78737e-23)
(1.00575 -0.0271929 -7.34353e-22)
(1.01179 0.0041274 -1.07323e-23)
(1.01089 -0.00653647 -2.39777e-21)
(1.00974 -0.00952665 2.62288e-22)
(1.00744 -0.0115251 9.5293e-22)
(1.00213 -0.00969629 0)
(0.990319 -0.0125845 1.09206e-23)
(0.987024 -0.0230609 5.86989e-24)
(0.992405 -0.0350762 0)
(1.00119 -0.0429965 -4.40733e-23)
(1.01025 -0.0469 -5.77313e-24)
(1.01809 -0.0480897 0)
(1.02486 -0.0479795 -4.15643e-23)
(1.03043 -0.0465557 3.97349e-22)
(1.03475 -0.0434235 -3.98095e-22)
(1.0383 -0.0397421 0)
(1.04092 -0.0357447 -6.72287e-22)
(1.04271 -0.0315448 6.96872e-22)
(1.04415 -0.026883 0)
(1.04546 -0.0221274 2.73817e-22)
(1.04658 -0.017417 -2.42454e-22)
(1.04777 -0.0121284 -8.95764e-24)
(1.04816 -0.00720239 -3.71674e-23)
(1.04639 -0.00261225 3.8197e-23)
(1.04394 0.00215444 1.26203e-21)
(1.04195 0.00707719 -1.26053e-21)
(1.04013 0.0116206 -7.48486e-23)
(1.03822 0.0157136 -1.1965e-21)
(1.03588 0.0193261 1.33351e-21)
(1.03376 0.0227713 2.14516e-21)
(1.03095 0.0251969 -2.14396e-21)
(1.0289 0.028293 1.08065e-22)
(1.02574 0.0293441 9.74687e-25)
(1.02173 0.0329146 0)
(1.01699 0.0325368 7.74561e-23)
(1.01244 0.037824 1.18783e-21)
(1.00776 0.0369603 8.51876e-22)
(1.00289 0.0408585 -2.79847e-22)
(0.994903 0.0386242 -1.73071e-21)
(0.984613 0.0390627 9.91801e-22)
(0.978239 0.0291693 -1.00456e-21)
(1.01224 -0.00469125 1.30219e-21)
(1.01233 -0.00984425 -1.66635e-22)
(1.01316 -0.00937891 -1.86399e-21)
(1.01568 -0.00976685 7.81417e-22)
(1.01884 -0.00947139 0)
(1.02223 -0.00660431 -1.12439e-23)
(1.02559 -0.00153977 2.57968e-22)
(1.02693 0.00658 -6.55346e-22)
(1.02619 0.0151215 8.89112e-22)
(1.02334 0.02086 -4.91541e-22)
(1.02114 0.0230606 0)
(1.02094 0.0233968 -9.82813e-22)
(1.0217 0.0226759 9.72968e-22)
(1.0248 0.0205956 6.96551e-22)
(1.02787 0.0186733 -7.37995e-22)
(1.03034 0.0173365 0)
(1.03282 0.0161949 5.6898e-25)
(1.03454 0.0153054 0)
(1.03588 0.0144713 -3.30742e-23)
(1.03694 0.0136157 8.94085e-24)
(1.03663 0.0127132 4.64806e-24)
(1.03495 0.0117088 1.923e-23)
(1.03422 0.0107239 -3.92609e-23)
(1.03391 0.00954619 1.31308e-21)
(1.03243 0.00777112 -1.35166e-21)
(1.03017 0.00568209 -1.20987e-21)
(1.02719 0.00327333 1.20775e-21)
(1.02356 0.00047214 2.01295e-21)
(1.01936 -0.00249818 -3.93752e-21)
(1.01456 -0.00607165 3.34987e-21)
(1.01082 -0.00891108 -1.61612e-21)
(1.00661 -0.0128283 -1.00976e-22)
(1.00587 -0.0148669 0)
(1.00485 -0.0180482 -7.97032e-23)
(1.00404 -0.021955 0)
(1.00379 -0.0253551 0)
(1.00505 -0.0273271 0)
(1.00546 -0.0270388 -1.02127e-21)
(1.00817 -0.0241282 1.0934e-21)
(1.00685 -0.0143227 5.45336e-23)
(1.01251 -0.00934184 -1.31812e-21)
(1.0125 -0.0107797 -4.60694e-24)
(1.01329 -0.00920368 -9.16162e-22)
(1.01351 -0.00938532 8.78418e-22)
(1.01229 -0.00924496 -3.14858e-23)
(1.00717 -0.00993216 -3.43813e-22)
(0.999758 -0.0167245 3.27509e-22)
(0.999257 -0.0256983 4.91841e-24)
(1.00337 -0.0338681 9.9537e-23)
(1.01026 -0.039936 -3.61958e-22)
(1.01749 -0.0430885 3.14299e-22)
(1.02423 -0.0439225 0)
(1.03038 -0.0433923 9.43581e-23)
(1.03512 -0.041272 3.78592e-23)
(1.03864 -0.0379435 -4.66915e-23)
(1.04118 -0.0339033 -7.21372e-22)
(1.04292 -0.029835 7.46861e-22)
(1.04413 -0.0250801 0)
(1.04537 -0.0203526 3.48159e-23)
(1.04625 -0.0157008 2.76849e-25)
(1.04714 -0.0104888 0)
(1.04808 -0.00530528 -2.06101e-23)
(1.04659 -0.00059302 -4.19825e-23)
(1.04374 0.00379095 -4.13789e-23)
(1.04171 0.00851144 8.26043e-23)
(1.04011 0.0128455 0)
(1.03808 0.0167544 0)
(1.03572 0.020238 -2.55211e-21)
(1.03378 0.0236591 2.40145e-21)
(1.03126 0.0260416 1.33765e-22)
(1.0294 0.0292604 0)
(1.02591 0.0305194 2.13229e-21)
(1.02187 0.0334478 -3.80437e-21)
(1.01594 0.0329779 3.34347e-21)
(1.011 0.0366574 -1.55405e-21)
(1.00568 0.0345488 1.34922e-22)
(1.00011 0.0357026 1.81916e-21)
(0.991755 0.0317336 -1.92619e-21)
(0.98699 0.028889 -1.32712e-21)
(0.985467 0.0194163 2.25208e-21)
(1.01226 -0.01128 -1.23682e-21)
(1.01204 -0.0114764 2.12804e-21)
(1.0131 -0.00891104 -2.09997e-22)
(1.01592 -0.00840713 -9.10622e-22)
(1.01859 -0.00793609 3.30046e-23)
(1.02055 -0.00701218 1.22746e-23)
(1.02346 -0.00633221 4.18871e-24)
(1.02547 -0.00407278 -4.62108e-22)
(1.02683 0.00163882 -1.27702e-22)
(1.02653 0.00781431 5.94065e-22)
(1.02557 0.0115101 8.97606e-22)
(1.02571 0.0129567 1.6428e-22)
(1.02633 0.0132008 -1.91535e-21)
(1.02819 0.0122584 1.52558e-21)
(1.03137 0.010873 -7.8501e-22)
(1.03368 0.0103016 -1.11629e-22)
(1.03637 0.00978627 0)
(1.03803 0.00998054 6.20705e-22)
(1.03995 0.0101585 -9.69859e-22)
(1.04056 0.0105925 3.16732e-22)
(1.04016 0.0108235 0)
(1.0389 0.0110427 7.22811e-22)
(1.03783 0.0108813 -6.61023e-22)
(1.03717 0.0107456 1.4072e-21)
(1.03623 0.0103665 -1.31576e-21)
(1.03421 0.00957956 -1.25089e-21)
(1.03093 0.00806975 2.68312e-21)
(1.02678 0.00585143 1.05104e-21)
(1.02236 0.00324272 -2.15536e-21)
(1.01742 -0.00029434 -2.78799e-22)
(1.01354 -0.00320302 0)
(1.00969 -0.00729531 -2.32103e-22)
(1.0092 -0.00944251 0)
(1.0088 -0.0123258 -1.14045e-21)
(1.00838 -0.0151802 1.30065e-21)
(1.00806 -0.0165336 1.73124e-21)
(1.00834 -0.0164228 -1.58179e-21)
(1.00812 -0.0154176 0)
(1.00931 -0.0119842 1.16827e-21)
(1.00522 -0.00408564 -1.23196e-21)
(1.01163 -0.0120829 -1.3963e-21)
(1.0114 -0.0117504 7.06315e-23)
(1.01261 -0.00896716 -8.48955e-22)
(1.01645 -0.00798805 9.55486e-22)
(1.01682 -0.00806948 0)
(1.0152 -0.00815258 0)
(1.01131 -0.0124531 0)
(1.00771 -0.0206384 0)
(1.0088 -0.0273586 1.83681e-22)
(1.01288 -0.0332698 -1.84286e-22)
(1.0184 -0.0373975 0)
(1.02443 -0.0390329 5.60112e-23)
(1.0305 -0.0388081 6.17816e-22)
(1.03556 -0.037469 -5.45042e-22)
(1.0394 -0.0350414 0)
(1.04203 -0.0312927 -8.32428e-22)
(1.04381 -0.0273007 9.59217e-22)
(1.04511 -0.0227028 0)
(1.04606 -0.0179335 1.98512e-23)
(1.04681 -0.0133749 0)
(1.04778 -0.00856831 0)
(1.04861 -0.00323978 -2.29828e-23)
(1.04726 0.00177123 -4.67877e-23)
(1.04454 0.00579743 -9.42053e-23)
(1.04225 0.00987423 -1.85319e-22)
(1.04021 0.014111 -1.65021e-21)
(1.03817 0.0178757 1.377e-21)
(1.03576 0.0209243 -2.9818e-21)
(1.03393 0.0241853 2.80272e-21)
(1.03136 0.0265535 1.45376e-22)
(1.02943 0.0295506 0)
(1.02565 0.0310977 1.21316e-22)
(1.02145 0.0334142 0)
(1.0147 0.0316742 0)
(1.01011 0.0334305 -1.69604e-22)
(1.00387 0.0310276 -2.72973e-21)
(0.998979 0.0302874 4.59586e-21)
(0.993633 0.0248791 -3.82242e-21)
(0.991774 0.0204122 2.82873e-22)
(0.99249 0.012843 1.54559e-21)
(1.01103 -0.01266 1.54478e-22)
(1.01105 -0.012181 2.21345e-21)
(1.01196 -0.00922343 -1.93432e-21)
(1.0169 -0.00777544 2.37012e-22)
(1.01934 -0.00821987 7.70091e-22)
(1.01974 -0.00885937 -1.629e-22)
(1.02114 -0.0104375 0)
(1.02403 -0.0110477 4.68868e-22)
(1.02572 -0.00907561 1.89636e-22)
(1.0272 -0.00423153 -6.62011e-22)
(1.02803 -0.000373589 4.94307e-23)
(1.029 0.00184954 -6.42701e-23)
(1.03022 0.00284004 -1.57195e-22)
(1.0324 0.00268006 0)
(1.03513 0.00211627 0)
(1.03761 0.00253075 0)
(1.03997 0.00262843 3.24262e-24)
(1.04232 0.00403533 0)
(1.04359 0.0054032 -6.30366e-23)
(1.04501 0.00675458 1.13219e-23)
(1.04486 0.00865262 -1.18644e-23)
(1.04289 0.0101887 2.37011e-23)
(1.04169 0.0109743 4.82507e-23)
(1.0412 0.0116277 1.67515e-21)
(1.04023 0.0127965 -1.47899e-21)
(1.03781 0.0134661 -1.40874e-21)
(1.03448 0.013163 1.31175e-21)
(1.03028 0.0116794 -3.44973e-24)
(1.02563 0.00956914 2.17652e-21)
(1.02079 0.00623343 -2.18213e-21)
(1.01678 0.00336627 0)
(1.01295 -0.000384921 0)
(1.01251 -0.00272769 -1.26391e-21)
(1.01222 -0.00464795 1.28092e-22)
(1.0116 -0.00614759 2.59101e-21)
(1.01058 -0.00634679 9.34414e-22)
(1.0106 -0.00531985 1.93156e-23)
(1.00937 -0.00429397 -1.98769e-21)
(1.00826 -0.00105657 -1.46576e-21)
(1.00303 0.00340565 1.45321e-21)
(1.00963 -0.0130679 0)
(1.01014 -0.0125102 7.05363e-23)
(1.01121 -0.00973272 -6.4195e-23)
(1.01646 -0.00795816 0)
(1.0197 -0.00923088 0)
(1.01953 -0.00958083 0)
(1.0179 -0.0113235 -2.70034e-26)
(1.01569 -0.0175236 2.32885e-23)
(1.01553 -0.0229102 -3.50509e-22)
(1.01734 -0.0279562 3.8992e-22)
(1.02103 -0.0323506 -5.09956e-23)
(1.02619 -0.0342326 -9.8235e-22)
(1.03186 -0.0343984 1.79724e-21)
(1.0368 -0.0337737 -6.63833e-22)
(1.04067 -0.0319013 6.08967e-23)
(1.04361 -0.0282659 -9.84787e-22)
(1.04556 -0.0245299 9.80821e-22)
(1.04692 -0.0199177 0)
(1.04808 -0.0153275 4.39406e-23)
(1.0486 -0.0108175 -1.1688e-23)
(1.04927 -0.00620579 1.22482e-23)
(1.05008 -0.000787744 0)
(1.04892 0.00429365 0)
(1.04634 0.0082153 0)
(1.04385 0.0118474 0)
(1.04137 0.015639 -1.63054e-21)
(1.03898 0.0191619 3.41634e-21)
(1.03637 0.021898 -4.49915e-21)
(1.03411 0.024755 3.2625e-21)
(1.03157 0.0269826 2.69156e-21)
(1.02896 0.0296621 -2.68913e-21)
(1.02546 0.0309422 2.46461e-21)
(1.0206 0.0325933 -2.70204e-21)
(1.01426 0.0298188 -2.31794e-22)
(1.00931 0.0300851 0)
(1.00359 0.027244 2.8737e-21)
(1.00096 0.025101 -5.61749e-22)
(0.997907 0.0193717 -2.56579e-21)
(0.996785 0.0145346 -1.64244e-21)
(0.997371 0.0104556 3.28188e-21)
(1.00805 -0.0136353 -1.51307e-21)
(1.00939 -0.0131209 1.04138e-21)
(1.01063 -0.0104632 -1.04912e-21)
(1.0159 -0.00898876 -6.19957e-22)
(1.02046 -0.00996783 6.25925e-22)
(1.02071 -0.010266 1.16184e-23)
(1.02043 -0.0124819 2.7896e-26)
(1.02269 -0.0159948 7.95586e-24)
(1.02532 -0.0164301 6.81818e-22)
(1.02738 -0.0142755 -7.23773e-22)
(1.02945 -0.0115612 0)
(1.03146 -0.00916462 0)
(1.0337 -0.00781651 0)
(1.03627 -0.00728465 1.15311e-21)
(1.03899 -0.0070125 -1.10369e-21)
(1.0417 -0.00557992 -1.47244e-22)
(1.04412 -0.00465641 0)
(1.04656 -0.00232823 0)
(1.04812 0.000350108 0)
(1.04933 0.00279267 0)
(1.04927 0.00606157 -1.35957e-23)
(1.04754 0.00909177 0)
(1.04633 0.0110699 0)
(1.04538 0.012644 1.90484e-21)
(1.04401 0.0149061 9.1528e-23)
(1.04153 0.0170121 -1.7639e-21)
(1.03826 0.0181715 0)
(1.03412 0.0177593 -2.80899e-21)
(1.02921 0.0162559 2.77573e-22)
(1.02421 0.013284 2.71906e-21)
(1.02005 0.0107668 -1.60873e-22)
(1.01619 0.00722279 0)
(1.01549 0.00546103 -1.79737e-21)
(1.01473 0.00412409 6.08422e-22)
(1.014 0.0039751 1.65302e-21)
(1.01235 0.00365774 -1.9203e-22)
(1.01135 0.00514397 1.68552e-22)
(1.00854 0.00562972 -1.90602e-21)
(1.00475 0.00749103 1.91943e-21)
(1.00136 0.00842087 0)
(1.00652 -0.0142057 -1.50748e-21)
(1.00852 -0.0142029 1.08752e-21)
(1.00988 -0.0117808 -1.84964e-22)
(1.0152 -0.0101654 -1.62075e-21)
(1.02101 -0.011242 6.37119e-22)
(1.02206 -0.011669 -1.2008e-23)
(1.02176 -0.0131427 0)
(1.0216 -0.0175612 -7.48832e-25)
(1.02152 -0.0219589 4.88419e-22)
(1.02251 -0.0255593 -6.01608e-22)
(1.02512 -0.0287445 0)
(1.02908 -0.0307787 0)
(1.03377 -0.0315431 -9.19001e-22)
(1.03856 -0.0309401 5.78928e-22)
(1.0425 -0.0290727 0)
(1.04592 -0.0255764 -1.19591e-21)
(1.04834 -0.0220827 1.27628e-21)
(1.04989 -0.0175023 0)
(1.05118 -0.0127868 0)
(1.0516 -0.00827755 1.39387e-23)
(1.05215 -0.00383745 1.4066e-23)
(1.05256 0.00172424 0)
(1.05156 0.00699109 0)
(1.04935 0.0110764 -1.17876e-22)
(1.0467 0.0146376 -1.171e-22)
(1.04363 0.0178067 0)
(1.04082 0.0210064 -1.7835e-21)
(1.03781 0.0235766 1.78779e-21)
(1.03498 0.0261097 0)
(1.03189 0.027886 0)
(1.02889 0.0302247 0)
(1.02519 0.0307926 0)
(1.02026 0.0318631 0)
(1.01413 0.0286386 -2.35011e-21)
(1.00985 0.0277441 2.08845e-21)
(1.00564 0.024239 1.99762e-22)
(1.00432 0.0216195 -3.14933e-21)
(1.00185 0.0162954 2.93245e-21)
(1.00066 0.0132935 0)
(1.00007 0.010931 1.22064e-22)
(1.00529 -0.0153047 8.91659e-23)
(1.0081 -0.0158055 1.29166e-21)
(1.00982 -0.0131178 -1.21693e-21)
(1.01558 -0.0113877 -5.90827e-22)
(1.02186 -0.0126695 7.91575e-22)
(1.02336 -0.0131337 -1.31e-22)
(1.02305 -0.0145212 1.53105e-22)
(1.02398 -0.0189921 -6.32575e-22)
(1.02623 -0.0219499 -2.25086e-22)
(1.0281 -0.0219081 7.85136e-22)
(1.03054 -0.0207264 0)
(1.0334 -0.0191616 0)
(1.03647 -0.0179605 1.05084e-22)
(1.03974 -0.0168381 1.30559e-21)
(1.0429 -0.0158126 -1.18168e-21)
(1.04621 -0.0136438 -1.50648e-21)
(1.04876 -0.0117622 1.50899e-21)
(1.05119 -0.00854496 0)
(1.05296 -0.0044355 0)
(1.054 -0.000847998 -1.4438e-23)
(1.05436 0.00360309 -1.58713e-23)
(1.05305 0.00788093 0)
(1.05161 0.011272 0)
(1.0502 0.0140129 2.06127e-21)
(1.04815 0.0168766 -2.05844e-21)
(1.04528 0.0200049 -1.97489e-21)
(1.04201 0.0225356 1.97033e-21)
(1.03803 0.0235246 -4.61952e-22)
(1.0333 0.0231079 3.21894e-21)
(1.028 0.0207239 -3.20851e-21)
(1.02378 0.0188378 0)
(1.01958 0.0154171 0)
(1.01812 0.0143397 -2.17606e-21)
(1.01684 0.0132118 -1.33852e-22)
(1.01551 0.0137528 4.08773e-21)
(1.01297 0.0130974 -2.04688e-21)
(1.01042 0.0142918 3.27484e-21)
(1.00642 0.013209 -5.54671e-21)
(1.00323 0.012908 2.8816e-22)
(1.00118 0.011571 2.06408e-21)
(1.00465 -0.0167275 0)
(1.00775 -0.0174525 1.18031e-21)
(1.00948 -0.0147039 -2.40755e-21)
(1.01512 -0.0130312 1.01915e-21)
(1.02202 -0.014266 -2.88433e-23)
(1.02404 -0.0147767 -9.64833e-24)
(1.02388 -0.0160986 1.66605e-23)
(1.02498 -0.0199741 0)
(1.02617 -0.0237235 6.79791e-22)
(1.02702 -0.0259849 -6.47273e-22)
(1.02915 -0.0280188 0)
(1.03266 -0.0296122 -1.67345e-21)
(1.03696 -0.0303339 1.67866e-21)
(1.0416 -0.0295375 0)
(1.04565 -0.0277902 1.21668e-21)
(1.04945 -0.0242422 -1.38993e-21)
(1.05206 -0.0206032 -1.06998e-22)
(1.05408 -0.0161035 0)
(1.05581 -0.0109211 6.23552e-23)
(1.05617 -0.00640443 0)
(1.05682 -0.00181396 -7.02518e-25)
(1.05699 0.00408966 -7.04199e-23)
(1.0555 0.00968919 -1.42413e-22)
(1.05337 0.0141228 0)
(1.05076 0.017929 0)
(1.04729 0.0213007 -2.12473e-21)
(1.04383 0.0241467 4.15744e-21)
(1.0401 0.0263075 2.09376e-21)
(1.0368 0.0285785 -7.79087e-21)
(1.03291 0.0298843 3.66851e-21)
(1.02951 0.0316676 0)
(1.0256 0.0317295 0)
(1.02075 0.0321746 0)
(1.01504 0.0286045 2.91308e-22)
(1.01176 0.0269706 -5.39479e-22)
(1.00875 0.023459 2.34554e-22)
(1.00736 0.0213248 2.78596e-21)
(1.00492 0.0174359 -3.38391e-21)
(1.00272 0.015582 1.64563e-22)
(1.00145 0.0133945 2.21055e-21)
(1.00409 -0.0182389 -1.8931e-21)
(1.00708 -0.0191454 8.5614e-23)
(1.00867 -0.0167613 1.12385e-21)
(1.01368 -0.0152227 -1.8143e-21)
(1.02135 -0.0164766 9.25153e-22)
(1.02456 -0.0167914 -1.51297e-22)
(1.02494 -0.0177897 -2.29158e-23)
(1.0257 -0.0213124 -5.31493e-22)
(1.02733 -0.0256143 1.48714e-21)
(1.02903 -0.027385 -2.17303e-21)
(1.03181 -0.0279228 1.18751e-21)
(1.03544 -0.0276031 1.92192e-21)
(1.03934 -0.0268518 -1.79219e-21)
(1.0435 -0.0253449 0)
(1.04723 -0.0238242 1.76773e-22)
(1.05109 -0.0207837 -1.75782e-21)
(1.05405 -0.0178323 1.87198e-21)
(1.05642 -0.0140511 -1.04107e-21)
(1.05877 -0.00860039 9.08245e-22)
(1.05952 -0.00383414 -1.81765e-23)
(1.05992 0.00136789 6.15796e-22)
(1.05933 0.00709072 -1.7354e-21)
(1.05759 0.0119878 1.20254e-21)
(1.05577 0.0160972 2.41674e-21)
(1.05334 0.0198543 -2.41233e-21)
(1.04976 0.0232576 -2.30141e-21)
(1.0459 0.0262334 2.00754e-21)
(1.04182 0.0284225 2.73717e-22)
(1.03748 0.0295685 2.47554e-22)
(1.03208 0.0281845 3.48571e-21)
(1.02774 0.0271943 -3.90682e-21)
(1.02297 0.0241502 0)
(1.02058 0.0234748 3.62193e-22)
(1.0184 0.0222039 -2.42146e-21)
(1.0161 0.0226431 4.59515e-21)
(1.01237 0.0211642 -2.18526e-21)
(1.00961 0.0210657 3.6946e-21)
(1.00626 0.0185508 -4.39143e-22)
(1.00328 0.0171366 -5.8256e-21)
(1.00201 0.0149861 2.46246e-21)
(1.00326 -0.0196661 2.15734e-22)
(1.00622 -0.0209269 1.40171e-21)
(1.00773 -0.019026 -1.24055e-21)
(1.01207 -0.0175644 -1.33002e-22)
(1.02038 -0.0188044 0)
(1.02466 -0.0189281 0)
(1.02551 -0.0197289 1.39247e-23)
(1.02654 -0.0227765 0)
(1.02871 -0.0273916 -9.68262e-22)
(1.03051 -0.0296518 2.13999e-21)
(1.03303 -0.0309454 -1.32133e-21)
(1.03658 -0.0317058 -1.21827e-22)
(1.04066 -0.0318796 8.26226e-24)
(1.0454 -0.0306896 -1.78905e-22)
(1.04958 -0.0289224 0)
(1.05373 -0.0252661 0)
(1.05723 -0.0212708 1.30302e-22)
(1.05941 -0.0166856 -1.41722e-22)
(1.06191 -0.0107874 7.17637e-23)
(1.06267 -0.00544906 1.89067e-23)
(1.06296 -0.000412066 0)
(1.06276 0.00587029 0)
(1.06107 0.0120621 3.31812e-22)
(1.05909 0.017132 2.46502e-21)
(1.05654 0.0215255 -2.79811e-21)
(1.05272 0.0252764 0)
(1.04848 0.0284798 2.99539e-22)
(1.04388 0.0306631 -2.84552e-22)
(1.03972 0.0326155 -4.2279e-21)
(1.03499 0.0332621 3.95138e-21)
(1.03106 0.0346019 4.5192e-22)
(1.02667 0.0342605 0)
(1.02222 0.0343419 -3.76167e-22)
(1.01695 0.0308378 -3.59004e-22)
(1.0142 0.0291637 3.08456e-22)
(1.01134 0.0259263 4.31328e-21)
(1.00934 0.0245 -4.84976e-22)
(1.0065 0.021255 -3.5633e-21)
(1.0034 0.0195336 -1.97535e-22)
(1.00233 0.0170406 1.65359e-22)
(1.00257 -0.0210505 -2.14737e-21)
(1.00567 -0.0228871 1.48672e-21)
(1.0072 -0.0214398 -2.86386e-21)
(1.01099 -0.0201082 2.30126e-21)
(1.01913 -0.02151 -8.77146e-22)
(1.02473 -0.0216083 6.5793e-23)
(1.02628 -0.0221922 -6.59655e-23)
(1.02758 -0.0247826 -6.74854e-22)
(1.03025 -0.0297546 1.64747e-21)
(1.03221 -0.0324435 -2.56701e-21)
(1.03473 -0.0337517 1.47388e-21)
(1.03866 -0.0341611 1.26807e-22)
(1.04301 -0.0339035 1.08989e-21)
(1.04803 -0.0323341 4.30722e-22)
(1.05238 -0.0303893 -1.89763e-21)
(1.05659 -0.0266965 -2.25991e-21)
(1.06045 -0.0224867 1.99737e-21)
(1.06271 -0.0178279 -9.6351e-24)
(1.06537 -0.0116806 -8.39682e-23)
(1.0665 -0.00571696 0)
(1.06684 0.000301691 2.2874e-23)
(1.06643 0.00685411 0)
(1.06464 0.0131363 -1.77284e-22)
(1.06254 0.018685 -9.86573e-24)
(1.05991 0.0234998 -2.47523e-21)
(1.05584 0.0274875 2.82793e-21)
(1.0513 0.0309944 -2.61055e-21)
(1.04637 0.0333017 -2.64535e-21)
(1.04176 0.0355071 5.20827e-21)
(1.03635 0.035386 2.69893e-22)
(1.0316 0.035356 0)
(1.02631 0.0329876 3.47898e-21)
(1.02311 0.032436 -3.4613e-21)
(1.01933 0.0306811 3.73377e-22)
(1.01622 0.0304616 0)
(1.01246 0.0279346 0)
(1.0099 0.026848 0)
(1.00699 0.0235958 0)
(1.00361 0.0219144 3.62834e-21)
(1.00262 0.0191328 -5.8753e-21)
(1.00239 -0.0227276 1.82398e-21)
(1.00536 -0.0250988 -3.65036e-22)
(1.00683 -0.0241193 -2.9802e-21)
(1.0102 -0.0229607 3.4895e-22)
(1.01777 -0.0244934 9.65242e-22)
(1.02474 -0.0247216 0)
(1.02723 -0.0250126 0)
(1.02887 -0.0274298 0)
(1.03198 -0.0323176 -1.09583e-21)
(1.03439 -0.0351447 1.39595e-21)
(1.03685 -0.0365067 -1.21496e-22)
(1.04085 -0.0369732 2.61248e-21)
(1.04538 -0.036857 -2.44814e-21)
(1.0507 -0.0353014 2.23098e-22)
(1.05535 -0.0331451 -1.71989e-23)
(1.05967 -0.0292853 -9.65634e-24)
(1.06398 -0.0245657 0)
(1.06647 -0.0194067 3.39588e-22)
(1.06927 -0.0129409 8.76309e-23)
(1.07068 -0.00623131 2.4557e-23)
(1.07101 0.000121956 -8.44411e-22)
(1.07061 0.00693503 8.98488e-22)
(1.06876 0.0137838 -2.08078e-22)
(1.06649 0.0200473 1.94902e-22)
(1.06376 0.0254987 -3.96051e-22)
(1.05947 0.0299626 -2.61636e-21)
(1.05458 0.0337564 3.00314e-21)
(1.04924 0.0363115 5.37706e-21)
(1.04427 0.0385626 -1.00799e-21)
(1.03844 0.0388636 -4.99788e-21)
(1.03395 0.0397723 0)
(1.0287 0.0388592 -5.1869e-22)
(1.02442 0.0389439 0)
(1.01948 0.0358458 -2.74609e-21)
(1.01646 0.0345671 6.00515e-21)
(1.01281 0.0314151 -7.95027e-21)
(1.01006 0.0301066 9.93214e-21)
(1.00728 0.0265334 -4.78275e-21)
(1.00365 0.0249245 3.30241e-21)
(1.00274 0.0216289 -3.46484e-21)
(1.00192 -0.0245971 -1.39254e-22)
(1.00485 -0.0276663 1.94254e-21)
(1.00632 -0.0271429 -1.72554e-21)
(1.00951 -0.026105 8.69635e-23)
(1.01648 -0.0278476 0)
(1.02458 -0.0283623 -1.69789e-24)
(1.02829 -0.0283218 0)
(1.0305 -0.030481 -9.55901e-22)
(1.034 -0.0352667 -3.47668e-22)
(1.0368 -0.0382161 1.16877e-21)
(1.03931 -0.0396854 1.26881e-22)
(1.04343 -0.0403402 1.72613e-22)
(1.04815 -0.0402031 0)
(1.05376 -0.0384726 1.84775e-21)
(1.05889 -0.0358425 -1.8172e-21)
(1.06332 -0.0317688 -2.50719e-21)
(1.06797 -0.0266213 2.84717e-21)
(1.07077 -0.0210005 -1.83478e-22)
(1.07359 -0.0143833 7.23995e-22)
(1.07531 -0.0071344 -8.55222e-22)
(1.0758 0.000146618 2.65747e-23)
(1.07542 0.00737731 -2.24376e-22)
(1.0734 0.0146041 2.17576e-22)
(1.07099 0.0215042 -2.30083e-22)
(1.06812 0.0276816 2.12826e-22)
(1.06361 0.0326314 -4.18625e-21)
(1.05855 0.0369544 3.7433e-21)
(1.05255 0.0395334 5.93445e-21)
(1.0472 0.0421629 -5.95342e-21)
(1.04107 0.0426162 -3.41327e-22)
(1.03596 0.0434565 0)
(1.03001 0.0418165 4.7668e-21)
(1.02581 0.0413636 -3.68558e-21)
(1.02094 0.0389076 -3.44142e-21)
(1.01747 0.0381302 3.02109e-21)
(1.01339 0.0348606 0)
(1.01024 0.0335161 4.66222e-21)
(1.00771 0.029546 -4.66343e-21)
(1.00376 0.0281752 0)
(1.00275 0.0244915 -2.20989e-22)
(1.00189 -0.0271542 -3.09308e-22)
(1.00459 -0.0306937 -2.32326e-21)
(1.00608 -0.0307742 1.61265e-21)
(1.0091 -0.0298776 -2.8481e-21)
(1.01545 -0.0318497 1.4085e-21)
(1.02403 -0.0327316 -2.06897e-22)
(1.02894 -0.0323117 0)
(1.03196 -0.0339321 8.56089e-23)
(1.03605 -0.0387009 1.4079e-21)
(1.03951 -0.041717 -1.34852e-21)
(1.0423 -0.0431089 -1.57246e-22)
(1.04651 -0.0438385 3.3492e-21)
(1.05131 -0.0437804 -5.1154e-21)
(1.05701 -0.0420324 2.01513e-21)
(1.06274 -0.0389647 0)
(1.06765 -0.0347122 0)
(1.07277 -0.0292384 -1.90267e-22)
(1.07624 -0.0228908 1.54436e-21)
(1.07908 -0.0159869 -2.4737e-21)
(1.08084 -0.00815552 9.33937e-22)
(1.08148 3.14977e-05 -1.02716e-21)
(1.08099 0.00778331 9.85789e-22)
(1.07888 0.0153761 2.61027e-22)
(1.07603 0.0228554 4.19051e-21)
(1.07305 0.0299457 -3.94104e-21)
(1.0684 0.0355348 -3.74584e-21)
(1.06313 0.0404664 -2.66512e-22)
(1.05672 0.0434673 -2.69009e-21)
(1.05067 0.046052 7.3914e-21)
(1.04417 0.0466259 7.36674e-22)
(1.0385 0.0477171 -6.93547e-22)
(1.03223 0.0463837 6.30195e-22)
(1.02761 0.0462924 -5.39135e-22)
(1.02207 0.0434331 -4.30052e-21)
(1.01832 0.0423857 7.65648e-21)
(1.0141 0.0388208 -3.40465e-21)
(1.01046 0.037605 0)
(1.00825 0.033241 0)
(1.00417 0.0320526 0)
(1.00287 0.0280134 -3.88265e-21)
(1.00185 -0.0297191 0)
(1.00432 -0.0337115 2.03932e-21)
(1.00583 -0.0347141 -2.1783e-21)
(1.00859 -0.0341394 1.22622e-21)
(1.01417 -0.0361533 -1.34805e-21)
(1.02297 -0.0375929 2.70688e-24)
(1.02894 -0.0369645 -5.17397e-23)
(1.03301 -0.0377823 0)
(1.03806 -0.0422336 -1.78351e-21)
(1.04239 -0.0456157 1.794e-21)
(1.04564 -0.0470784 1.6491e-22)
(1.04996 -0.0477542 -4.01366e-21)
(1.05517 -0.0475308 3.5732e-21)
(1.06099 -0.0458358 2.35329e-21)
(1.06711 -0.0424566 -2.68865e-21)
(1.07261 -0.0379807 -2.12133e-22)
(1.07789 -0.0322067 0)
(1.08204 -0.0249873 2.33861e-22)
(1.08518 -0.0175147 -1.24588e-22)
(1.08696 -0.00936928 0)
(1.08765 -0.000215922 3.35961e-23)
(1.08727 0.00843666 1.36816e-22)
(1.08531 0.0165082 -2.74123e-22)
(1.08194 0.0243918 0)
(1.07842 0.032174 2.85304e-22)
(1.0738 0.0387588 -3.10214e-21)
(1.06833 0.0442639 4.15529e-21)
(1.06179 0.0478206 -7.41278e-21)