/*--------------------------------*- C++ -*----------------------------------*\
  =========                 |
  \\      /  F ield         | OpenFOAM: The Open Source CFD Toolbox
   \\    /   O peration     | Website:  https://openfoam.org
    \\  /    A nd           | Version:  10
     \\/     M anipulation  |
\*---------------------------------------------------------------------------*/
FoamFile
{
    format      ascii;
    class       volScalarField;
    location    "0.948548";
    object      p;
}
// * * * * * * * * * * * * * * * * * * * * * * * * * * * * * * * * * * * * * //

dimensions      [1 -1 -2 0 0 0 0];

internalField   nonuniform List<scalar> 
15708
(
2.35479
2.36361
2.37305
2.38302
2.39338
2.40402
2.41485
2.42578
2.43671
2.44756
2.45829
2.46883
2.47913
2.48917
2.49891
2.50834
2.51744
2.52622
2.53467
2.54279
2.55059
2.55809
2.56529
2.57222
2.57888
2.58529
2.59148
2.59744
2.6032
2.60877
2.61415
2.61937
2.62443
2.62933
2.63408
2.63867
2.64312
2.64741
2.65154
2.65552
2.65934
2.66299
2.66646
2.66975
2.67286
2.67576
2.67846
2.68094
2.68321
2.68525
2.68706
2.35574
2.36411
2.3731
2.38264
2.3926
2.40289
2.41341
2.42406
2.43476
2.44543
2.456
2.4664
2.47661
2.48658
2.49627
2.50567
2.51477
2.52356
2.53202
2.54018
2.54802
2.55556
2.56282
2.5698
2.57651
2.58298
2.58921
2.59521
2.60101
2.60662
2.61204
2.61728
2.62235
2.62726
2.632
2.63658
2.641
2.64527
2.64937
2.65331
2.65708
2.66068
2.6641
2.66734
2.67039
2.67324
2.67588
2.67831
2.68053
2.68252
2.68429
2.35622
2.36416
2.37275
2.38192
2.39155
2.40153
2.41179
2.42221
2.43271
2.44321
2.45364
2.46394
2.47406
2.48396
2.49362
2.503
2.51209
2.52088
2.52937
2.53755
2.54543
2.55301
2.56032
2.56734
2.5741
2.58062
2.5869
2.59295
2.59879
2.60443
2.60987
2.61513
2.6202
2.6251
2.62983
2.63439
2.63879
2.64302
2.64708
2.65098
2.6547
2.65824
2.66161
2.66478
2.66776
2.67055
2.67313
2.6755
2.67766
2.6796
2.68131
2.35618
2.3637
2.37197
2.38082
2.39018
2.39992
2.40996
2.42019
2.43053
2.44089
2.45121
2.46142
2.47147
2.48132
2.49094
2.5003
2.50939
2.51819
2.5267
2.53491
2.54282
2.55045
2.5578
2.56487
2.57169
2.57825
2.58457
2.59067
2.59654
2.6022
2.60765
2.61291
2.61799
2.62288
2.62759
2.63212
2.63649
2.64068
2.64469
2.64854
2.6522
2.65568
2.65898
2.66209
2.665
2.66771
2.67022
2.67253
2.67462
2.67649
2.67815
2.35556
2.3628
2.37075
2.37935
2.38848
2.39803
2.40789
2.41798
2.42819
2.43845
2.44868
2.45883
2.46883
2.47865
2.48824
2.49759
2.50668
2.5155
2.52403
2.53227
2.54023
2.5479
2.55529
2.56242
2.56928
2.57588
2.58223
2.58835
2.59424
2.59992
2.60538
2.61064
2.61571
2.62059
2.62528
2.62978
2.63411
2.63825
2.64222
2.646
2.6496
2.65301
2.65624
2.65927
2.66211
2.66475
2.66718
2.66941
2.67143
2.67323
2.67482
2.35438
2.36133
2.36906
2.37745
2.38641
2.39582
2.40556
2.41555
2.42568
2.43586
2.44603
2.45613
2.4661
2.47591
2.48552
2.49489
2.504
2.51285
2.52142
2.5297
2.53769
2.5454
2.55283
2.55998
2.56686
2.57349
2.57987
2.58601
2.59192
2.5976
2.60307
2.60833
2.61338
2.61824
2.6229
2.62737
2.63166
2.63575
2.63966
2.64338
2.64691
2.65025
2.6534
2.65636
2.65911
2.66167
2.66402
2.66617
2.66811
2.66984
2.67136
2.35256
2.35929
2.36684
2.3751
2.38394
2.39326
2.40292
2.41284
2.42293
2.43311
2.44329
2.45342
2.46342
2.47327
2.4829
2.4923
2.50144
2.51031
2.51889
2.52718
2.53519
2.54291
2.55036
2.55753
2.56443
2.57108
2.57748
2.58363
2.58955
2.59524
2.60071
2.60596
2.611
2.61584
2.62047
2.6249
2.62914
2.63319
2.63704
2.64069
2.64415
2.64742
2.65049
2.65336
2.65603
2.6585
2.66077
2.66283
2.66469
2.66633
2.66778
2.34998
2.35658
2.36404
2.37222
2.38101
2.3903
2.39999
2.40996
2.42012
2.43036
2.44061
2.45079
2.46084
2.4707
2.48034
2.48975
2.49889
2.50775
2.51634
2.52464
2.53266
2.54039
2.54786
2.55505
2.56197
2.56864
2.57505
2.58122
2.58715
2.59284
2.59831
2.60355
2.60857
2.61338
2.61799
2.62238
2.62657
2.63056
2.63435
2.63794
2.64133
2.64452
2.6475
2.65029
2.65287
2.65526
2.65744
2.65941
2.66118
2.66274
2.6641
2.34676
2.35314
2.36059
2.36877
2.37768
2.3871
2.39692
2.407
2.41724
2.42754
2.43783
2.44804
2.45811
2.468
2.47766
2.48709
2.49625
2.50514
2.51374
2.52206
2.5301
2.53786
2.54534
2.55255
2.55949
2.56617
2.5726
2.57878
2.58471
2.5904
2.59586
2.6011
2.6061
2.61089
2.61546
2.61981
2.62396
2.62789
2.63162
2.63514
2.63845
2.64156
2.64447
2.64717
2.64967
2.65196
2.65405
2.65593
2.65761
2.65909
2.66036
2.34274
2.34901
2.35653
2.36495
2.37399
2.38359
2.39352
2.4037
2.41402
2.4244
2.43478
2.44507
2.45522
2.46518
2.47491
2.48438
2.49358
2.50251
2.51114
2.51948
2.52754
2.53531
2.54281
2.55004
2.55699
2.56368
2.57012
2.5763
2.58224
2.58793
2.59339
2.59861
2.60359
2.60835
2.61289
2.61721
2.6213
2.62518
2.62885
2.6323
2.63554
2.63858
2.6414
2.64402
2.64642
2.64863
2.65062
2.65241
2.654
2.65539
2.65658
2.33784
2.34434
2.35203
2.36055
2.3698
2.37952
2.38962
2.39997
2.41044
2.42099
2.4315
2.44193
2.45219
2.46225
2.47206
2.48161
2.49087
2.49983
2.5085
2.51687
2.52495
2.53275
2.54026
2.5475
2.55446
2.56117
2.56761
2.5738
2.57973
2.58542
2.59087
2.59608
2.60105
2.60578
2.61029
2.61456
2.61861
2.62244
2.62605
2.62944
2.63261
2.63556
2.63831
2.64084
2.64316
2.64527
2.64717
2.64887
2.65037
2.65167
2.65277
2.33213
2.33884
2.34683
2.35552
2.36511
2.37498
2.3854
2.39586
2.4066
2.41732
2.42802
2.43859
2.449
2.45918
2.46911
2.47875
2.48809
2.49711
2.50583
2.51424
2.52234
2.53016
2.53768
2.54493
2.55191
2.55862
2.56507
2.57126
2.57719
2.58288
2.58832
2.59351
2.59846
2.60317
2.60765
2.61189
2.6159
2.61967
2.62322
2.62655
2.62965
2.63254
2.6352
2.63765
2.63989
2.64191
2.64372
2.64533
2.64674
2.64794
2.64896
2.32477
2.33272
2.34088
2.35027
2.35996
2.37039
2.38051
2.39147
2.40228
2.41334
2.42423
2.43502
2.44562
2.45597
2.46605
2.47581
2.48524
2.49434
2.50312
2.51157
2.5197
2.52754
2.53508
2.54234
2.54933
2.55604
2.56249
2.56869
2.57462
2.5803
2.58573
2.59091
2.59585
2.60054
2.60498
2.60919
2.61316
2.61689
2.62039
2.62366
2.62669
2.62951
2.6321
2.63447
2.63662
2.63856
2.64029
2.6418
2.64312
2.64424
2.64516
2.31608
2.32539
2.33375
2.34515
2.3551
2.36529
2.37581
2.3866
2.39776
2.40899
2.42019
2.43125
2.44207
2.45263
2.46288
2.47278
2.48233
2.49152
2.50036
2.50886
2.51704
2.5249
2.53246
2.53973
2.54672
2.55343
2.55989
2.56608
2.57201
2.57769
2.58311
2.58828
2.5932
2.59787
2.60229
2.60647
2.6104
2.61409
2.61754
2.62076
2.62374
2.62649
2.62901
2.63131
2.63338
2.63524
2.63688
2.63831
2.63953
2.64056
2.6414
2.30817
2.31634
2.32751
2.33765
2.34909
2.35983
2.37049
2.38162
2.39302
2.40455
2.41603
2.42734
2.43841
2.44919
2.45962
2.46969
2.47937
2.48866
2.49758
2.50613
2.51434
2.52223
2.5298
2.53708
2.54408
2.5508
2.55725
2.56344
2.56937
2.57504
2.58046
2.58562
2.59053
2.59518
2.59958
2.60373
2.60764
2.61129
2.6147
2.61786
2.62079
2.62348
2.62594
2.62816
2.63017
2.63194
2.6335
2.63485
2.63599
2.63693
2.63768
2.3015
2.30902
2.31722
2.32914
2.34203
2.35358
2.36487
2.37641
2.38821
2.40007
2.41183
2.42339
2.43471
2.4457
2.45634
2.46656
2.47638
2.48577
2.49477
2.50338
2.51163
2.51953
2.52712
2.53441
2.54141
2.54813
2.55458
2.56077
2.56669
2.57236
2.57778
2.58293
2.58783
2.59247
2.59686
2.60099
2.60486
2.60848
2.61186
2.61498
2.61786
2.62049
2.62289
2.62506
2.62699
2.6287
2.63018
2.63145
2.6325
2.63336
2.63402
2.29439
2.30378
2.30831
2.31983
2.33476
2.34674
2.35886
2.37115
2.38353
2.39576
2.40779
2.41956
2.43107
2.44226
2.45306
2.46345
2.47339
2.48288
2.49195
2.50061
2.50889
2.51682
2.52442
2.53171
2.53871
2.54542
2.55187
2.55806
2.56398
2.56965
2.57506
2.58021
2.58511
2.58974
2.59412
2.59823
2.60209
2.60568
2.60903
2.61211
2.61495
2.61754
2.61988
2.62199
2.62386
2.6255
2.62691
2.6281
2.62909
2.62986
2.63044
2.28681
2.2957
2.30151
2.31251
2.33215
2.33758
2.35221
2.36585
2.37892
2.39159
2.4039
2.4159
2.42758
2.43893
2.44988
2.46039
2.47043
2.48002
2.48915
2.49785
2.50615
2.51409
2.5217
2.52898
2.53597
2.54269
2.54913
2.55531
2.56124
2.5669
2.57232
2.57747
2.58236
2.58699
2.59137
2.59547
2.59931
2.60289
2.60621
2.60926
2.61207
2.61461
2.61691
2.61897
2.62079
2.62237
2.62371
2.62484
2.62574
2.62644
2.62694
2.27897
2.28763
2.29667
2.30801
2.32791
2.33012
2.34427
2.36013
2.37443
2.38767
2.40026
2.41245
2.42426
2.43575
2.44682
2.45743
2.46755
2.4772
2.48637
2.4951
2.50342
2.51136
2.51895
2.52623
2.53321
2.53991
2.54635
2.55253
2.55845
2.56413
2.56954
2.5747
2.5796
2.58423
2.5886
2.59271
2.59654
2.60011
2.6034
2.60644
2.60921
2.61173
2.61399
2.616
2.61777
2.61929
2.62058
2.62164
2.62249
2.62311
2.62354
2.27309
2.28103
2.29038
2.30179
2.31646
2.32953
2.34385
2.35285
2.36976
2.38411
2.39694
2.4092
2.4212
2.43279
2.44393
2.4546
2.46478
2.47445
2.48364
2.49238
2.50069
2.50861
2.51619
2.52345
2.53041
2.5371
2.54353
2.54971
2.55563
2.56131
2.56673
2.5719
2.57681
2.58146
2.58583
2.58994
2.59377
2.59733
2.60062
2.60364
2.60639
2.60887
2.61111
2.61308
2.61481
2.61629
2.61753
2.61853
2.61931
2.61988
2.62024
2.26591
2.27506
2.28503
2.2966
2.3104
2.32478
2.33928
2.35235
2.36455
2.38083
2.39404
2.40636
2.4184
2.43006
2.44125
2.45195
2.46213
2.47181
2.48098
2.48969
2.49797
2.50587
2.51341
2.52064
2.52758
2.53425
2.54066
2.54684
2.55276
2.55845
2.56389
2.56907
2.574
2.57866
2.58305
2.58717
2.59101
2.59457
2.59785
2.60086
2.60359
2.60606
2.60827
2.61022
2.61191
2.61335
2.61455
2.6155
2.61623
2.61674
2.61704
2.26262
2.27061
2.28071
2.29258
2.30618
2.3224
2.33341
2.34749
2.36308
2.37817
2.39136
2.4038
2.41592
2.42761
2.43881
2.44949
2.45964
2.46927
2.4784
2.48706
2.49528
2.50312
2.51061
2.5178
2.5247
2.53135
2.53775
2.54391
2.54985
2.55555
2.561
2.56621
2.57116
2.57585
2.58026
2.5844
2.58825
2.59181
2.5951
2.5981
2.60082
2.60328
2.60547
2.6074
2.60907
2.61048
2.61164
2.61256
2.61324
2.6137
2.61394
2.25776
2.26708
2.27754
2.28958
2.30318
2.31742
2.33347
2.34388
2.36
2.37545
2.38889
2.40158
2.41378
2.42547
2.43662
2.44723
2.45731
2.46686
2.4759
2.48447
2.49261
2.50038
2.5078
2.51492
2.52178
2.52839
2.53477
2.54093
2.54687
2.55259
2.55807
2.56332
2.5683
2.57302
2.57746
2.58162
2.58549
2.58906
2.59235
2.59536
2.59808
2.60052
2.6027
2.60462
2.60627
2.60766
2.60879
2.60968
2.61032
2.61073
2.61093
2.25689
2.26516
2.27557
2.28775
2.30099
2.31601
2.33012
2.34253
2.35869
2.37344
2.38706
2.39984
2.41202
2.42364
2.4347
2.44521
2.45516
2.46458
2.4735
2.48194
2.48997
2.49763
2.50496
2.51201
2.5188
2.52537
2.53173
2.53789
2.54384
2.54958
2.5551
2.56038
2.5654
2.57016
2.57464
2.57883
2.58272
2.58632
2.58962
2.59262
2.59534
2.59778
2.59995
2.60186
2.60351
2.60489
2.606
2.60685
2.60746
2.60783
2.60799
2.25512
2.26404
2.27461
2.28668
2.29996
2.31429
2.32924
2.34359
2.35791
2.37215
2.38564
2.39846
2.41065
2.42216
2.43307
2.44341
2.4532
2.46244
2.47119
2.47948
2.48736
2.49488
2.5021
2.50905
2.51577
2.52229
2.52862
2.53477
2.54073
2.5465
2.55206
2.55739
2.56246
2.56727
2.57179
2.57602
2.57995
2.58356
2.58687
2.58988
2.5926
2.59503
2.5972
2.5991
2.60075
2.60212
2.60322
2.60404
2.60461
2.60494
2.60507
2.25556
2.26451
2.27497
2.28687
2.30019
2.31516
2.32782
2.34256
2.35768
2.37168
2.38494
2.39761
2.40964
2.42101
2.43175
2.44188
2.45143
2.46046
2.46899
2.47707
2.48477
2.49214
2.49922
2.50606
2.51269
2.51914
2.52543
2.53157
2.53755
2.54335
2.54896
2.55434
2.55948
2.56434
2.56892
2.57319
2.57714
2.58078
2.5841
2.58712
2.58983
2.59226
2.59441
2.5963
2.59794
2.59931
2.6004
2.60119
2.60171
2.60198
2.60206
2.25797
2.2667
2.27689
2.28854
2.30202
2.31425
2.32835
2.3436
2.35802
2.37179
2.38493
2.39741
2.40916
2.42029
2.43075
2.4406
2.44988
2.45863
2.4669
2.47474
2.48222
2.48939
2.49631
2.50301
2.50953
2.51591
2.52216
2.52828
2.53428
2.54012
2.54578
2.55123
2.55642
2.56135
2.56598
2.5703
2.57428
2.57794
2.58127
2.58429
2.58699
2.58941
2.59154
2.59338
2.59499
2.59636
2.59742
2.59816
2.59861
2.59878
2.59881
2.26051
2.26876
2.27871
2.29008
2.30267
2.31606
2.33104
2.34525
2.35916
2.37259
2.38543
2.39763
2.40912
2.41991
2.43005
2.43958
2.44853
2.45696
2.46492
2.47247
2.47969
2.48664
2.49337
2.49991
2.5063
2.51258
2.51878
2.52488
2.53089
2.53677
2.54249
2.548
2.55327
2.55826
2.56295
2.5673
2.57132
2.57499
2.57832
2.58132
2.58401
2.5864
2.58849
2.59028
2.59177
2.59308
2.59409
2.59473
2.59505
2.59518
2.59524
2.26492
2.27331
2.28322
2.29445
2.30682
2.32009
2.33384
2.34755
2.36103
2.37405
2.38649
2.39829
2.40943
2.41987
2.42964
2.43878
2.44737
2.45544
2.46304
2.47025
2.47716
2.48385
2.49038
2.49675
2.50299
2.50915
2.51527
2.52135
2.52736
2.53328
2.53906
2.54464
2.54997
2.55502
2.55976
2.56415
2.56819
2.57186
2.57517
2.57815
2.5808
2.58313
2.58515
2.58687
2.58823
2.58921
2.59007
2.59059
2.59078
2.59102
2.59129
2.26945
2.27797
2.2879
2.29932
2.31138
2.32413
2.3373
2.35052
2.36349
2.376
2.38794
2.39928
2.40991
2.41995
2.42933
2.43809
2.44629
2.45395
2.46117
2.46799
2.47453
2.4809
2.48722
2.49343
2.49949
2.50552
2.51157
2.51762
2.52364
2.5296
2.53543
2.54107
2.54647
2.55157
2.55634
2.56076
2.5648
2.56846
2.5717
2.57458
2.57713
2.57933
2.58131
2.5829
2.58415
2.58501
2.58536
2.58549
2.58602
2.5865
2.58673
2.27406
2.28294
2.29312
2.30395
2.31543
2.32792
2.3407
2.35347
2.36591
2.37786
2.38925
2.40014
2.41043
2.42001
2.42897
2.43728
2.44509
2.45235
2.45914
2.46554
2.47158
2.47742
2.48355
2.48993
2.49585
2.50177
2.50774
2.51375
2.51975
2.52571
2.53157
2.53728
2.54272
2.54784
2.55262
2.55704
2.56104
2.56464
2.56771
2.57041
2.57301
2.57507
2.57654
2.57781
2.57885
2.57967
2.58008
2.58021
2.58071
2.58091
2.58143
2.27908
2.28804
2.29813
2.30925
2.32148
2.33357
2.34569
2.35767
2.36937
2.3807
2.39152
2.40176
2.41143
2.4205
2.42901
2.43696
2.44446
2.45153
2.45829
2.46471
2.47075
2.47672
2.48116
2.4861
2.49167
2.49752
2.50351
2.50955
2.51557
2.52156
2.52745
2.53323
2.53868
2.54375
2.54845
2.55285
2.55667
2.56028
2.56359
2.56625
2.568
2.56961
2.57067
2.57148
2.57238
2.57323
2.57332
2.5741
2.57413
2.5746
2.57399
2.28462
2.29419
2.30406
2.31463
2.32621
2.33781
2.3494
2.36082
2.37188
2.38258
2.39267
2.40235
2.41144
2.42006
2.42805
2.43549
2.44241
2.4488
2.45487
2.46075
2.46604
2.47141
2.47649
2.48179
2.4875
2.49322
2.49919
2.50521
2.51118
2.51707
2.52291
2.52885
2.53422
2.53906
2.54344
2.54846
2.55259
2.55558
2.55813
2.56032
2.56178
2.56302
2.56369
2.56401
2.56519
2.56598
2.5666
2.56812
2.56692
2.56675
2.56681
2.29213
2.30052
2.31018
2.3208
2.33187
2.34306
2.35397
2.36469
2.37509
2.38521
2.39486
2.40392
2.41232
2.42016
2.42734
2.43395
2.44006
2.44553
2.45117
2.45754
2.46291
2.46705
2.4718
2.47691
2.48225
2.48837
2.4944
2.50036
2.5062
2.51185
2.51729
2.52381
2.52968
2.53519
2.54018
2.5434
2.54673
2.54952
2.55168
2.55336
2.55434
2.55531
2.55587
2.55571
2.55706
2.55782
2.55838
2.55817
2.55862
2.55808
2.55928
2.30103
2.30878
2.31777
2.3277
2.33815
2.34853
2.35909
2.36948
2.37953
2.38893
2.39782
2.40592
2.41341
2.4204
2.42703
2.43373
2.43934
2.44351
2.44778
2.45184
2.45682
2.46234
2.46706
2.47126
2.47605
2.48242
2.48884
2.49527
2.50173
2.50815
2.51426
2.51866
2.52373
2.5288
2.53343
2.537
2.54011
2.54235
2.54396
2.54509
2.54563
2.54608
2.54681
2.54712
2.54832
2.54806
2.5481
2.54644
2.54874
2.55012
2.55073
2.31285
2.31936
2.32758
2.33647
2.3459
2.3555
2.36531
2.37498
2.38441
2.3934
2.40177
2.40905
2.41518
2.42101
2.4263
2.43083
2.43562
2.44111
2.44531
2.44883
2.4528
2.45736
2.46217
2.46743
2.47253
2.47667
2.48187
2.48785
2.49415
2.50038
2.50636
2.5117
2.51689
2.52197
2.52639
2.52938
2.53207
2.53384
2.53495
2.53529
2.53594
2.53664
2.53696
2.53685
2.53659
2.53699
2.53744
2.5379
2.53925
2.54275
2.54077
2.32649
2.33124
2.33818
2.34586
2.35415
2.36287
2.3717
2.3802
2.38828
2.39596
2.40336
2.41038
2.41705
2.42256
2.42725
2.43123
2.43463
2.43868
2.44219
2.44526
2.44812
2.45126
2.45491
2.45916
2.46385
2.46866
2.47407
2.48016
2.48699
2.49395
2.49957
2.50493
2.50991
2.51435
2.5176
2.5204
2.52267
2.5238
2.52407
2.52529
2.52575
2.52585
2.52561
2.52519
2.52533
2.5257
2.52652
2.52876
2.52913
2.53167
2.52614
2.34071
2.34459
2.34967
2.35587
2.36304
2.37078
2.37871
2.38647
2.39384
2.40071
2.40722
2.41337
2.41897
2.42375
2.42772
2.4311
2.43433
2.43636
2.43876
2.44113
2.44348
2.44607
2.44918
2.45289
2.45716
2.46194
2.4671
2.47273
2.47856
2.48468
2.49143
2.4968
2.50162
2.50512
2.5081
2.51042
2.51151
2.51276
2.51367
2.51409
2.51432
2.51371
2.51396
2.51289
2.51362
2.51523
2.51699
2.51681
2.51568
2.51485
2.5132
2.35573
2.35834
2.36223
2.36699
2.37241
2.37903
2.38601
2.39292
2.39959
2.40563
2.4109
2.41578
2.42023
2.42401
2.4272
2.42992
2.43239
2.43474
2.43665
2.43845
2.44028
2.44242
2.44502
2.44828
2.45208
2.45655
2.46134
2.46656
2.47201
2.47725
2.48365
2.48825
2.49164
2.49514
2.49726
2.49898
2.50047
2.50106
2.50153
2.50197
2.5018
2.50087
2.5003
2.50224
2.50382
2.50337
2.50072
2.50099
2.5003
2.49914
2.49891
2.3698
2.37122
2.37422
2.37807
2.38261
2.38711
2.39236
2.39805
2.40378
2.40904
2.4139
2.41861
2.4225
2.42569
2.42817
2.42993
2.43188
2.43379
2.43522
2.43631
2.43762
2.43906
2.44103
2.4439
2.44737
2.4512
2.45549
2.46053
2.46669
2.47174
2.47544
2.47889
2.48178
2.48427
2.48587
2.48699
2.4881
2.48848
2.48886
2.4889
2.48743
2.48932
2.48991
2.48925
2.48763
2.4865
2.48494
2.48405
2.48412
2.48348
2.48384
2.37988
2.38022
2.3819
2.38617
2.38988
2.39375
2.39871
2.40378
2.40876
2.41336
2.41761
2.42186
2.42568
2.42868
2.43132
2.43199
2.43268
2.4338
2.43468
2.43543
2.4365
2.43828
2.43978
2.44227
2.44543
2.44909
2.453
2.45662
2.45951
2.46314
2.4662
2.46965
2.47097
2.4726
2.47373
2.47454
2.4757
2.47547
2.47576
2.47637
2.47602
2.4743
2.47295
2.4716
2.47041
2.46891
2.46833
2.46769
2.46779
2.46845
2.46946
2.392
2.39056
2.39156
2.39556
2.39794
2.40164
2.40571
2.41015
2.41473
2.41917
2.42329
2.42684
2.4298
2.4322
2.43419
2.43497
2.43566
2.4359
2.43655
2.43676
2.43756
2.43816
2.43914
2.4407
2.44271
2.44508
2.44777
2.45051
2.45311
2.45547
2.45741
2.45904
2.46149
2.46269
2.46288
2.46273
2.46159
2.46046
2.45984
2.45898
2.45806
2.45635
2.45506
2.45358
2.45271
2.4518
2.45143
2.45155
2.45233
2.45373
2.45568
2.40141
2.40261
2.40139
2.40397
2.4073
2.41057
2.41424
2.41819
2.42232
2.42643
2.43021
2.43354
2.43622
2.43832
2.43965
2.4402
2.44064
2.44062
2.44043
2.43996
2.44071
2.44022
2.44044
2.44107
2.44203
2.44306
2.4443
2.44564
2.44697
2.44861
2.44989
2.45042
2.44932
2.44892
2.44809
2.44747
2.44588
2.44448
2.44311
2.44075
2.43982
2.43819
2.43705
2.43592
2.43518
2.43488
2.43495
2.43573
2.43725
2.4395
2.44244
2.41159
2.41219
2.41334
2.41271
2.4168
2.42002
2.42378
2.4277
2.43155
2.43536
2.43886
2.44188
2.44423
2.4459
2.44679
2.44707
2.44697
2.44657
2.44574
2.44483
2.44417
2.44343
2.44284
2.44231
2.44195
2.4419
2.44178
2.44147
2.44102
2.44064
2.43984
2.43868
2.43689
2.43535
2.43326
2.43171
2.42949
2.42747
2.42546
2.42328
2.42185
2.42008
2.41917
2.41839
2.41799
2.41813
2.41881
2.42028
2.42253
2.42572
2.42967
2.42303
2.42258
2.42308
2.42421
2.42713
2.43052
2.4339
2.43813
2.44172
2.44531
2.44857
2.45124
2.4532
2.4544
2.4549
2.45493
2.45451
2.45375
2.45281
2.45154
2.45013
2.44826
2.44623
2.44441
2.44268
2.44102
2.43927
2.43722
2.43469
2.43268
2.42985
2.42734
2.42432
2.4215
2.41845
2.41561
2.41282
2.41005
2.40796
2.40559
2.40384
2.40255
2.40157
2.40116
2.40119
2.40177
2.40305
2.40511
2.40816
2.41241
2.41748
2.43545
2.43475
2.43496
2.4365
2.43904
2.44215
2.44571
2.44953
2.45346
2.45683
2.45946
2.46194
2.46374
2.46471
2.46505
2.46481
2.46382
2.46217
2.4602
2.45801
2.45562
2.4529
2.44988
2.44673
2.44346
2.44012
2.43668
2.4329
2.42906
2.42455
2.42046
2.41597
2.41205
2.40767
2.40359
2.39963
2.39615
2.39277
2.39016
2.38774
2.3861
2.38497
2.38439
2.38429
2.38478
2.38592
2.38774
2.39041
2.39415
2.39931
2.40582
2.44832
2.44758
2.44786
2.44945
2.45198
2.45511
2.45869
2.46256
2.46616
2.46923
2.47186
2.47387
2.47506
2.47554
2.47551
2.47477
2.47331
2.47118
2.46849
2.46536
2.46183
2.45792
2.45367
2.44916
2.44441
2.43946
2.43429
2.42883
2.42317
2.41721
2.41136
2.40546
2.39968
2.3942
2.3888
2.38401
2.37947
2.37566
2.37247
2.37012
2.36856
2.36778
2.36756
2.36794
2.36896
2.37066
2.37297
2.37605
2.38024
2.38627
2.39434
2.46139
2.46066
2.46101
2.46266
2.46524
2.46846
2.47206
2.47579
2.47915
2.48213
2.48447
2.48602
2.48676
2.48692
2.48637
2.48503
2.48293
2.48013
2.47669
2.47269
2.46814
2.4631
2.45763
2.45171
2.44563
2.43908
2.4324
2.42528
2.41786
2.4103
2.40289
2.39535
2.38792
2.38103
2.37434
2.36836
2.36303
2.35852
2.35499
2.35258
2.35128
2.35083
2.35103
2.35195
2.35357
2.35582
2.35862
2.36198
2.36627
2.37275
2.38255
2.47433
2.47361
2.47405
2.47577
2.47838
2.48163
2.48517
2.48876
2.49195
2.49467
2.4966
2.49771
2.49811
2.49789
2.49682
2.49491
2.49219
2.4887
2.48453
2.47971
2.47425
2.46824
2.46153
2.45457
2.44695
2.43912
2.43107
2.42222
2.41336
2.40404
2.395
2.38569
2.37692
2.36826
2.3603
2.35302
2.34667
2.34143
2.33756
2.33524
2.33428
2.33421
2.33507
2.33674
2.33906
2.34193
2.34518
2.34861
2.35226
2.3581
2.36958
2.48686
2.48619
2.48669
2.48841
2.49102
2.49421
2.49761
2.50102
2.504
2.5064
2.50794
2.50863
2.50876
2.50808
2.50653
2.50409
2.50081
2.49671
2.49187
2.4863
2.48004
2.47313
2.46558
2.4575
2.44883
2.43967
2.43018
2.42005
2.40948
2.3987
2.38777
2.37681
2.36632
2.35601
2.34647
2.33785
2.33034
2.32428
2.32002
2.31786
2.3172
2.3177
2.31932
2.32176
2.32477
2.32815
2.33177
2.33525
2.33794
2.34128
2.3528
2.49888
2.49821
2.49874
2.50039
2.50294
2.50602
2.50924
2.51242
2.51512
2.51717
2.51827
2.5187
2.51852
2.51738
2.51539
2.51249
2.5087
2.5041
2.49869
2.49251
2.4856
2.47797
2.46967
2.46072
2.4511
2.44089
2.43002
2.41863
2.40657
2.39414
2.38153
2.36869
2.35625
2.34424
2.33296
2.32294
2.31431
2.30747
2.303
2.30105
2.30073
2.30193
2.30437
2.30766
2.31147
2.31548
2.31954
2.32338
2.32533
2.3234
2.32434
2.68864
2.68998
2.69108
2.69194
2.69257
2.69296
2.69312
2.69305
2.69278
2.69229
2.69157
2.69064
2.6895
2.68816
2.68662
2.68488
2.68294
2.68081
2.67849
2.67596
2.67324
2.67032
2.6672
2.66387
2.66034
2.65659
2.68582
2.68713
2.6882
2.68904
2.68964
2.69001
2.69016
2.69009
2.68981
2.68932
2.6886
2.68768
2.68655
2.68522
2.6837
2.682
2.6801
2.67802
2.67575
2.67329
2.67065
2.66782
2.6648
2.66159
2.65818
2.65458
2.6828
2.68406
2.68509
2.6859
2.68648
2.68683
2.68697
2.68689
2.68661
2.68611
2.68541
2.68449
2.68339
2.68209
2.68061
2.67894
2.6771
2.67508
2.67288
2.6705
2.66796
2.66523
2.66233
2.65925
2.65599
2.65254
2.67958
2.6808
2.68179
2.68256
2.68311
2.68344
2.68356
2.68347
2.68319
2.6827
2.682
2.68111
2.68003
2.67877
2.67733
2.67572
2.67394
2.67199
2.66988
2.66761
2.66517
2.66256
2.65979
2.65686
2.65375
2.65047
2.6762
2.67736
2.6783
2.67903
2.67954
2.67985
2.67995
2.67985
2.67957
2.67908
2.6784
2.67753
2.67649
2.67527
2.67389
2.67234
2.67064
2.66878
2.66676
2.6646
2.66228
2.65981
2.65719
2.65441
2.65148
2.64838
2.67267
2.67377
2.67465
2.67533
2.67581
2.67608
2.67616
2.67606
2.67576
2.67528
2.67461
2.67377
2.67276
2.6716
2.67028
2.6688
2.66719
2.66542
2.66352
2.66147
2.65929
2.65697
2.65451
2.65191
2.64916
2.64625
2.66901
2.67005
2.67088
2.67151
2.67194
2.67218
2.67223
2.67211
2.67181
2.67132
2.67067
2.66985
2.66888
2.66776
2.66651
2.66511
2.66358
2.66193
2.66015
2.65824
2.65621
2.65405
2.65177
2.64935
2.64681
2.64412
2.66527
2.66623
2.667
2.66757
2.66795
2.66815
2.66817
2.66803
2.66772
2.66723
2.66659
2.6658
2.66486
2.66379
2.6626
2.66128
2.65985
2.6583
2.65665
2.65489
2.65302
2.65104
2.64895
2.64674
2.64442
2.64196
2.66145
2.66234
2.66304
2.66355
2.66388
2.66403
2.66402
2.66385
2.66352
2.66303
2.66239
2.66162
2.66072
2.6597
2.65856
2.65733
2.65599
2.65456
2.65304
2.65143
2.64973
2.64794
2.64606
2.64408
2.64199
2.63978
2.65758
2.65839
2.65902
2.65947
2.65974
2.65984
2.65979
2.65959
2.65923
2.65873
2.65809
2.65733
2.65646
2.65548
2.65441
2.65325
2.65202
2.6507
2.64932
2.64787
2.64635
2.64477
2.6431
2.64136
2.63952
2.63759
2.65369
2.65442
2.65497
2.65535
2.65555
2.6556
2.6555
2.65526
2.65487
2.65434
2.6537
2.65295
2.6521
2.65116
2.65015
2.64907
2.64793
2.64674
2.6455
2.64422
2.64289
2.64152
2.6401
2.63861
2.63705
2.6354
2.64979
2.65044
2.65091
2.65121
2.65135
2.65133
2.65118
2.65088
2.65045
2.6499
2.64924
2.64848
2.64765
2.64674
2.64578
2.64477
2.64373
2.64266
2.64158
2.64047
2.63935
2.63821
2.63704
2.63583
2.63457
2.63323
2.6459
2.64646
2.64685
2.64707
2.64714
2.64706
2.64684
2.64648
2.646
2.6454
2.64471
2.64394
2.64311
2.64223
2.64131
2.64037
2.63942
2.63848
2.63754
2.63663
2.63572
2.63483
2.63394
2.63303
2.63209
2.63111
2.64205
2.64252
2.64282
2.64296
2.64295
2.64279
2.6425
2.64207
2.64152
2.64087
2.64014
2.63935
2.6385
2.63762
2.63673
2.63585
2.63499
2.63417
2.6334
2.63268
2.63201
2.63138
2.63079
2.63022
2.62964
2.62902
2.63824
2.63862
2.63884
2.63889
2.6388
2.63855
2.63817
2.63766
2.63704
2.63633
2.63554
2.63469
2.63381
2.63293
2.63205
2.63122
2.63044
2.62974
2.62912
2.62861
2.62819
2.62786
2.6276
2.62739
2.6272
2.627
2.6345
2.63479
2.63492
2.63488
2.63469
2.63436
2.63388
2.63328
2.63257
2.63177
2.6309
2.62999
2.62906
2.62814
2.62726
2.62645
2.62574
2.62515
2.62471
2.62441
2.62426
2.62425
2.62435
2.62454
2.62479
2.62505
2.63083
2.63104
2.63107
2.63095
2.63067
2.63023
2.62965
2.62894
2.62812
2.62721
2.62624
2.62524
2.62423
2.62325
2.62234
2.62153
2.62088
2.6204
2.62012
2.62005
2.62019
2.62053
2.62105
2.62169
2.62242
2.62318
2.62725
2.62737
2.62732
2.62711
2.62672
2.62618
2.62548
2.62465
2.62371
2.62267
2.62157
2.62044
2.61932
2.61824
2.61727
2.61645
2.61582
2.61544
2.61534
2.61551
2.61598
2.61672
2.61769
2.61883
2.62009
2.62142
2.62377
2.62381
2.62368
2.62337
2.62288
2.62222
2.6214
2.62044
2.61935
2.61815
2.61689
2.6156
2.61433
2.61312
2.61204
2.61116
2.61055
2.61026
2.61033
2.61076
2.61161
2.61279
2.61427
2.61598
2.61784
2.61978
2.6204
2.62036
2.62015
2.61975
2.61916
2.61838
2.61743
2.61631
2.61505
2.61368
2.61222
2.61073
2.60927
2.60788
2.60666
2.60568
2.60506
2.60484
2.60511
2.60591
2.6071
2.6088
2.61084
2.61315
2.61566
2.61828
2.61713
2.61704
2.61674
2.61626
2.61556
2.61467
2.61358
2.6123
2.61086
2.60927
2.60759
2.60586
2.60419
2.60259
2.60119
2.6001
2.59932
2.59921
2.59969
2.60084
2.60259
2.60484
2.60746
2.61041
2.61357
2.61686
2.61398
2.61382
2.61347
2.6129
2.61212
2.61111
2.60988
2.60843
2.60679
2.60498
2.60306
2.60106
2.59916
2.59721
2.5955
2.59428
2.59324
2.59306
2.59358
2.59497
2.59721
2.60013
2.60359
2.60741
2.61144
2.61559
2.61093
2.61072
2.61032
2.60969
2.60882
2.6077
2.60634
2.60472
2.6029
2.60088
2.59861
2.5963
2.59397
2.59132
2.5891
2.58747
2.58657
2.58645
2.58712
2.58881
2.59152
2.59511
2.59939
2.60413
2.60914
2.6143
2.60795
2.60771
2.60727
2.60659
2.60565
2.60445
2.60298
2.6012
2.59911
2.59682
2.59395
2.59083
2.5882
2.5858
2.5832
2.58085
2.57923
2.57879
2.57962
2.58184
2.58536
2.5899
2.59522
2.60104
2.6071
2.61325
2.605
2.60473
2.60427
2.60357
2.60259
2.6013
2.5997
2.59767
2.59497
2.59229
2.58978
2.58669
2.583
2.57946
2.57633
2.5738
2.57223
2.57197
2.57322
2.57626
2.58075
2.58637
2.59269
2.59937
2.60627
2.61322
2.60198
2.60171
2.60126
2.60057
2.59951
2.59802
2.59594
2.59368
2.59139
2.5882
2.58481
2.58134
2.5779
2.57403
2.57078
2.56835
2.56679
2.56656
2.56824
2.57207
2.57751
2.58345
2.59087
2.5987
2.60611
2.61337
2.59874
2.59853
2.59816
2.59744
2.59601
2.59423
2.59242
2.5895
2.58659
2.58374
2.58059
2.57667
2.57377
2.57009
2.56661
2.56408
2.5628
2.56314
2.56478
2.56878
2.5769
2.58371
2.59058
2.59836
2.60635
2.61412
2.59526
2.59506
2.59469
2.59374
2.5924
2.58999
2.58767
2.58546
2.58276
2.57959
2.57761
2.57386
2.57025
2.56706
2.56385
2.56171
2.56131
2.5631
2.56528
2.56947
2.57549
2.5834
2.59178
2.60042
2.60896
2.61738
2.59143
2.5907
2.59007
2.58884
2.5872
2.58576
2.58415
2.58167
2.57979
2.57693
2.57388
2.57093
2.56775
2.56501
2.56281
2.56172
2.56187
2.56395
2.56734
2.57248
2.57913
2.5868
2.59508
2.60371
2.61243
2.62021
2.58626
2.58583
2.58452
2.5838
2.58328
2.58163
2.58051
2.5783
2.57582
2.57327
2.57053
2.56803
2.56587
2.56406
2.56294
2.56293
2.56412
2.56679
2.57084
2.57645
2.58287
2.59044
2.59839
2.60646
2.61452
2.62283
2.57992
2.57892
2.58008
2.5785
2.57844
2.57712
2.57541
2.57353
2.57148
2.56939
2.56731
2.56551
2.56418
2.56341
2.56334
2.56424
2.56624
2.56943
2.57383
2.57946
2.58619
2.59348
2.60146
2.60968
2.61748
2.62589
2.57508
2.57259
2.57306
2.57288
2.57225
2.57105
2.56947
2.56826
2.56683
2.56535
2.56394
2.56278
2.56212
2.56199
2.56261
2.56423
2.56697
2.57085
2.57581
2.58177
2.58846
2.59638
2.60473
2.61316
2.62121
2.62923
2.56737
2.56715
2.56686
2.56664
2.5661
2.56551
2.5648
2.56318
2.56163
2.5603
2.55927
2.55887
2.55906
2.55991
2.56173
2.56456
2.56851
2.57347
2.57928
2.58579
2.5932
2.60094
2.60906
2.61699
2.62473
2.63213
2.5602
2.5603
2.55971
2.55915
2.55811
2.55708
2.55607
2.55487
2.55382
2.55328
2.55342
2.55399
2.55521
2.55703
2.56008
2.5639
2.56884
2.57462
2.5811
2.58829
2.59601
2.60402
2.61212
2.62007
2.62772
2.63493
2.55173
2.55171
2.54834
2.54857
2.54721
2.54628
2.5459
2.54523
2.54501
2.54536
2.54656
2.54814
2.55043
2.55357
2.55755
2.56245
2.56822
2.57478
2.58201
2.58982
2.59801
2.60637
2.61469
2.62278
2.63049
2.63769
2.53914
2.5381
2.53782
2.53637
2.53626
2.53542
2.53549
2.53563
2.53627
2.53777
2.5397
2.54227
2.54553
2.5496
2.55451
2.56028
2.56685
2.57416
2.58209
2.5905
2.59922
2.60803
2.61673
2.62513
2.63307
2.64043
2.52595
2.52553
2.52463
2.52439
2.52413
2.52437
2.52504
2.52614
2.52772
2.52993
2.53266
2.53602
2.5401
2.54495
2.55063
2.55716
2.56447
2.57249
2.58113
2.59021
2.59956
2.60897
2.61822
2.6271
2.63546
2.64316
2.51224
2.51201
2.51173
2.51199
2.51244
2.5135
2.51493
2.51679
2.51915
2.52202
2.52541
2.52943
2.53414
2.53961
2.54591
2.55305
2.56101
2.5697
2.57903
2.58885
2.59895
2.6091
2.61907
2.62865
2.63763
2.64587
2.49841
2.49839
2.49918
2.50001
2.50134
2.50307
2.5052
2.50773
2.51069
2.51409
2.51799
2.52246
2.5276
2.53348
2.54019
2.54779
2.55626
2.56556
2.57559
2.5862
2.59718
2.60826
2.61918
2.62968
2.63951
2.64852
2.48449
2.48537
2.48685
2.48857
2.49066
2.49311
2.49587
2.49894
2.50235
2.50612
2.51032
2.51503
2.52035
2.5264
2.53329
2.54113
2.54996
2.55977
2.57049
2.58197
2.59398
2.60622
2.61835
2.63005
2.64105
2.6511
2.47099
2.47286
2.47513
2.47772
2.48059
2.4837
2.48701
2.49052
2.49422
2.49817
2.50243
2.50712
2.51233
2.51824
2.52501
2.5328
2.54176
2.55195
2.56333
2.57575
2.58897
2.60263
2.61632
2.62961
2.64212
2.65355
2.45811
2.46094
2.46414
2.4676
2.47124
2.47497
2.47875
2.48256
2.48639
2.49029
2.49435
2.49868
2.50346
2.50887
2.51514
2.52253
2.53131
2.54166
2.55363
2.56707
2.58171
2.59711
2.61277
2.62811
2.6426
2.65583
2.44584
2.44981
2.45398
2.45838
2.46274
2.46709
2.47126
2.47524
2.47901
2.48261
2.48616
2.48979
2.49371
2.4982
2.50355
2.51011
2.51831
2.52852
2.54091
2.55539
2.57165
2.58918
2.60731
2.62527
2.64235