/*--------------------------------*- C++ -*----------------------------------*\
  =========                 |
  \\      /  F ield         | OpenFOAM: The Open Source CFD Toolbox
   \\    /   O peration     | Website:  https://openfoam.org
    \\  /    A nd           | Version:  10
     \\/     M anipulation  |
\*---------------------------------------------------------------------------*/
FoamFile
{
    format      ascii;
    class       volScalarField;
    location    "0.948548";
    object      T;
}
// * * * * * * * * * * * * * * * * * * * * * * * * * * * * * * * * * * * * * //

dimensions      [0 0 0 1 0 0 0];

internalField   nonuniform List<scalar> 
15708
(
0.00858025
0.00858842
0.00859712
0.00860619
0.00861602
0.00862637
0.00863704
0.00864762
0.00865807
0.00866828
0.00867828
0.0086881
0.00869787
0.00870753
0.00871719
0.00872666
0.00873574
0.00874448
0.00875257
0.00876029
0.00876746
0.00877419
0.00878074
0.00878678
0.0087927
0.0087984
0.00880387
0.0088093
0.00881447
0.00881965
0.00882471
0.00882958
0.00883441
0.00883916
0.00884381
0.00884825
0.00885279
0.00885679
0.00886098
0.00886468
0.0088684
0.00887176
0.0088751
0.00887829
0.00888102
0.0088842
0.00888606
0.00888925
0.00889077
0.00889336
0.00889464
0.00857828
0.00858845
0.00859662
0.00860554
0.00861528
0.00862558
0.00863605
0.00864646
0.00865675
0.00866677
0.00867654
0.00868621
0.0086958
0.00870535
0.00871486
0.00872418
0.00873316
0.00874175
0.00874989
0.00875751
0.00876475
0.00877148
0.00877811
0.00878427
0.00879038
0.00879609
0.00880168
0.00880704
0.00881238
0.00881745
0.00882254
0.00882751
0.00883231
0.00883706
0.00884167
0.00884604
0.00885056
0.00885442
0.00885869
0.00886229
0.00886605
0.00886943
0.00887254
0.00887574
0.00887847
0.00888117
0.00888353
0.00888591
0.00888801
0.00888994
0.00889167
0.00857729
0.00858968
0.00859685
0.00860586
0.00861545
0.00862542
0.00863545
0.00864545
0.00865532
0.00866499
0.00867455
0.00868406
0.00869358
0.00870302
0.00871237
0.00872169
0.00873053
0.00873922
0.00874727
0.00875496
0.00876211
0.00876892
0.00877541
0.00878174
0.00878771
0.00879364
0.00879927
0.00880474
0.00881018
0.00881525
0.00882049
0.00882535
0.00883033
0.00883497
0.00883972
0.00884405
0.00884844
0.0088524
0.00885647
0.00886008
0.00886376
0.00886707
0.00887024
0.00887322
0.00887601
0.00887855
0.00888102
0.00888291
0.00888547
0.00888662
0.00888906
0.00858433
0.00858572
0.00859661
0.00860577
0.008615
0.0086244
0.00863384
0.00864343
0.00865298
0.00866253
0.00867216
0.00868168
0.0086912
0.00870044
0.00870984
0.00871893
0.00872804
0.00873668
0.00874484
0.00875258
0.00875973
0.00876659
0.00877305
0.0087794
0.00878539
0.0087913
0.00879695
0.00880248
0.00880783
0.00881309
0.00881813
0.00882315
0.00882805
0.00883272
0.0088375
0.0088418
0.00884622
0.00885018
0.00885419
0.00885779
0.00886141
0.00886464
0.00886776
0.00887059
0.0088732
0.00887594
0.00887786
0.00888036
0.00888193
0.00888391
0.00888549
0.00857812
0.00858853
0.00859673
0.0086051
0.00861383
0.00862293
0.00863233
0.00864192
0.00865152
0.00866106
0.00867049
0.00867985
0.00868913
0.0086984
0.00870753
0.00871659
0.00872544
0.00873389
0.00874201
0.00874954
0.00875681
0.00876365
0.00877034
0.00877669
0.0087829
0.00878878
0.00879459
0.00880008
0.00880557
0.00881079
0.00881595
0.0088209
0.0088258
0.00883052
0.00883511
0.00883947
0.00884383
0.0088477
0.00885179
0.0088553
0.00885894
0.00886202
0.00886524
0.00886793
0.00887047
0.00887311
0.00887501
0.00887738
0.0088789
0.00888082
0.0088821
0.00858029
0.0085877
0.00859548
0.00860395
0.00861288
0.00862211
0.0086314
0.00864069
0.00864998
0.00865933
0.00866869
0.00867798
0.00868718
0.00869615
0.00870508
0.00871385
0.0087225
0.00873083
0.00873873
0.00874619
0.00875339
0.00876027
0.00876706
0.00877368
0.00878004
0.00878614
0.00879203
0.00879764
0.00880313
0.00880848
0.00881372
0.00881886
0.00882379
0.00882856
0.00883317
0.00883742
0.00884163
0.00884544
0.00884929
0.00885281
0.00885627
0.00885943
0.00886237
0.00886515
0.00886764
0.00887002
0.00887218
0.00887413
0.0088758
0.00887756
0.00887884
0.00857928
0.00858526
0.00859341
0.00860212
0.00861066
0.00861917
0.00862789
0.00863697
0.00864631
0.00865573
0.00866515
0.00867454
0.00868359
0.00869254
0.00870117
0.00870994
0.00871861
0.00872732
0.00873552
0.00874338
0.00875064
0.00875789
0.00876469
0.00877133
0.00877769
0.00878386
0.00878984
0.00879566
0.00880128
0.00880663
0.00881172
0.00881646
0.00882111
0.00882566
0.00883022
0.0088346
0.00883892
0.0088429
0.00884679
0.00885042
0.00885374
0.00885694
0.00885978
0.00886248
0.0088649
0.00886712
0.00886923
0.00887102
0.00887267
0.00887418
0.00887539
0.00857619
0.00858534
0.00859316
0.00860123
0.00860903
0.00861716
0.00862578
0.008635
0.0086445
0.00865405
0.00866329
0.00867228
0.00868098
0.00868971
0.00869838
0.00870711
0.00871589
0.00872459
0.0087331
0.00874096
0.00874841
0.00875542
0.00876218
0.00876872
0.00877512
0.00878157
0.00878785
0.00879394
0.00879949
0.00880463
0.0088095
0.0088141
0.00881861
0.00882308
0.00882746
0.0088318
0.00883608
0.00884023
0.00884418
0.00884789
0.00885136
0.00885433
0.00885732
0.00885967
0.00886213
0.00886427
0.00886607
0.008868
0.00886934
0.00887092
0.00887206
0.00858287
0.00857737
0.00859323
0.0085958
0.0086074
0.00861602
0.00862463
0.00863332
0.00864208
0.00865097
0.00865987
0.0086689
0.00867784
0.0086868
0.00869588
0.00870493
0.00871372
0.00872211
0.00873017
0.00873788
0.00874541
0.00875279
0.00875998
0.00876682
0.00877329
0.00877942
0.00878539
0.00879105
0.00879654
0.00880166
0.00880666
0.0088115
0.00881617
0.00882074
0.00882523
0.0088295
0.00883369
0.0088377
0.00884158
0.00884518
0.00884857
0.00885152
0.00885442
0.00885678
0.00885922
0.00886119
0.00886314
0.00886477
0.00886623
0.00886755
0.0088687
0.00857064
0.00858344
0.00858088
0.00860092
0.00860175
0.00861396
0.00862267
0.00863096
0.00863928
0.00864792
0.00865669
0.00866557
0.0086746
0.00868394
0.0086933
0.00870246
0.00871123
0.00871945
0.0087274
0.00873527
0.00874313
0.00875058
0.00875766
0.00876422
0.00877047
0.00877654
0.00878232
0.00878802
0.00879342
0.00879886
0.00880402
0.00880927
0.00881416
0.00881901
0.00882344
0.00882786
0.00883195
0.00883585
0.00883949
0.00884292
0.00884608
0.00884888
0.00885159
0.0088539
0.00885621
0.00885816
0.00886002
0.00886153
0.00886299
0.00886417
0.00886527
0.0085553
0.00856479
0.00857334
0.00858617
0.00859568
0.00860735
0.0086154
0.00862634
0.00863542
0.00864459
0.00865372
0.00866272
0.00867145
0.00868047
0.00868991
0.00869937
0.00870842
0.00871701
0.00872522
0.00873315
0.00874089
0.00874822
0.00875504
0.0087615
0.0087676
0.00877362
0.00877948
0.00878534
0.00879101
0.00879661
0.00880184
0.00880694
0.00881172
0.00881641
0.00882084
0.00882509
0.00882918
0.00883313
0.00883668
0.00884015
0.00884328
0.00884621
0.00884893
0.00885126
0.00885345
0.00885538
0.00885693
0.0088585
0.00885975
0.00886084
0.00886191
0.0085183
0.00849609
0.00855048
0.00853457
0.00858648
0.0085742
0.00861359
0.00861289
0.00863252
0.00864221
0.0086516
0.00866076
0.00866963
0.0086783
0.00868687
0.00869566
0.00870464
0.00871362
0.00872239
0.00873066
0.0087384
0.00874571
0.00875265
0.00875931
0.00876554
0.00877156
0.00877732
0.00878304
0.00878855
0.00879409
0.00879926
0.00880442
0.00880918
0.0088139
0.00881825
0.0088226
0.0088266
0.00883053
0.00883421
0.00883761
0.00884067
0.00884352
0.00884604
0.00884841
0.00885051
0.00885243
0.008854
0.00885545
0.00885656
0.00885765
0.00885832
0.00827386
0.00835243
0.0084038
0.00847692
0.008473
0.00855745
0.00855389
0.00861052
0.0086137
0.00863571
0.00864833
0.00865886
0.00866834
0.00867707
0.00868556
0.00869403
0.00870262
0.0087113
0.00871989
0.00872823
0.00873608
0.0087435
0.00875052
0.00875714
0.00876338
0.00876928
0.00877502
0.00878065
0.00878614
0.00879151
0.00879669
0.00880175
0.00880657
0.00881134
0.00881592
0.00882028
0.0088244
0.0088282
0.00883185
0.00883524
0.00883816
0.00884097
0.00884337
0.00884575
0.00884775
0.00884935
0.00885089
0.00885202
0.00885332
0.00885416
0.00885504
0.00759317
0.00804656
0.00804265
0.00823602
0.00834865
0.00842369
0.00849536
0.00854406
0.00858638
0.0086132
0.00863373
0.00864973
0.0086625
0.00867317
0.00868256
0.00869151
0.00870018
0.00870889
0.0087175
0.00872599
0.00873392
0.00874132
0.00874807
0.00875451
0.00876053
0.00876644
0.00877208
0.00877767
0.00878319
0.00878867
0.00879414
0.00879929
0.00880432
0.00880902
0.00881361
0.00881786
0.00882208
0.00882585
0.00882935
0.00883254
0.00883553
0.00883833
0.0088406
0.008843
0.00884468
0.00884633
0.00884765
0.00884902
0.00885003
0.00885101
0.00885176
0.00656121
0.00664068
0.00729786
0.00771204
0.00798336
0.00820357
0.00835121
0.00845925
0.00853397
0.00858417
0.00861765
0.00864048
0.00865654
0.00866873
0.00867893
0.00868825
0.00869727
0.00870598
0.00871463
0.00872278
0.0087308
0.00873791
0.00874503
0.00875121
0.00875766
0.00876345
0.00876954
0.00877507
0.00878076
0.00878609
0.00879138
0.00879653
0.00880147
0.00880631
0.00881096
0.00881543
0.00881963
0.00882353
0.00882708
0.0088302
0.00883315
0.00883577
0.00883798
0.00884034
0.00884197
0.0088433
0.00884475
0.0088456
0.00884701
0.00884745
0.00884845
0.00559173
0.00590911
0.00617312
0.00662782
0.00716616
0.00764765
0.00803002
0.00827479
0.00842774
0.00852333
0.00858212
0.00861953
0.0086444
0.00866159
0.00867443
0.00868509
0.00869472
0.00870374
0.00871218
0.00872035
0.00872776
0.00873532
0.00874164
0.00874868
0.00875442
0.00876124
0.00876664
0.00877306
0.00877804
0.00878394
0.0087888
0.00879408
0.00879901
0.00880385
0.00880845
0.008813
0.00881712
0.00882098
0.00882442
0.00882764
0.00883048
0.0088331
0.00883519
0.00883759
0.00883908
0.00884047
0.00884177
0.00884261
0.0088438
0.00884418
0.00884494
0.00548215
0.00547183
0.00559031
0.00584237
0.00631744
0.00687904
0.00742102
0.00787766
0.00819999
0.00840226
0.00852309
0.00859104
0.00863045
0.00865468
0.00867085
0.00868301
0.00869316
0.00870227
0.00871073
0.00871861
0.00872603
0.00873293
0.00874004
0.00874584
0.00875293
0.00875778
0.00876494
0.00876904
0.00877624
0.00878009
0.00878687
0.0087909
0.008797
0.00880129
0.00880647
0.00881066
0.00881488
0.00881864
0.00882206
0.00882509
0.00882802
0.00883045
0.00883273
0.00883485
0.00883629
0.00883763
0.00883878
0.00883967
0.00884056
0.00884096
0.00884145
0.00545814
0.00545113
0.00543973
0.00547818
0.00574932
0.00617373
0.00679116
0.00737205
0.00785703
0.00819605
0.00840133
0.008523
0.00859448
0.00863629
0.00866162
0.00867803
0.00869036
0.00870026
0.00870913
0.008717
0.00872445
0.00873123
0.00873775
0.00874435
0.00874975
0.00875657
0.00876059
0.00876809
0.00877102
0.00877922
0.0087817
0.00879021
0.00879242
0.00880065
0.00880255
0.00880823
0.00881216
0.00881639
0.00881998
0.00882301
0.00882573
0.00882787
0.00883019
0.00883228
0.0088335
0.00883482
0.00883577
0.00883661
0.00883722
0.00883781
0.00883784
0.00561986
0.00549612
0.0054319
0.00547833
0.00542296
0.00576539
0.00624143
0.0068957
0.00745322
0.00791664
0.00825533
0.00845583
0.00856245
0.00862103
0.00865439
0.00867466
0.00868806
0.00869832
0.00870706
0.00871523
0.00872231
0.00872957
0.00873543
0.00874232
0.00874752
0.00875371
0.00875912
0.00876429
0.0087703
0.00877399
0.00878139
0.00878486
0.0087925
0.0087957
0.00880304
0.00880538
0.00881148
0.00881335
0.00881668
0.00882073
0.00882342
0.00882601
0.00882757
0.00882964
0.00883068
0.00883221
0.00883318
0.00883412
0.00883447
0.00883525
0.00883508
0.00596412
0.00566622
0.00548593
0.00543387
0.0054846
0.0054873
0.00586968
0.00646026
0.00717182
0.00766506
0.0080323
0.00830511
0.00848281
0.00858319
0.00863757
0.0086666
0.00868414
0.00869624
0.0087055
0.00871342
0.008721
0.00872725
0.0087344
0.00873876
0.00874645
0.00874911
0.00875793
0.00875971
0.00876853
0.00877222
0.00877865
0.00878342
0.00878859
0.00879468
0.00879834
0.00880466
0.00880749
0.00881316
0.00881504
0.0088178
0.00881999
0.00882307
0.00882541
0.00882693
0.00882795
0.00882896
0.00882986
0.00883054
0.00883115
0.00883161
0.0088317
0.00623515
0.0058613
0.0055697
0.00544847
0.0054327
0.00553841
0.00559363
0.0060031
0.00670525
0.00745217
0.00793315
0.0082318
0.00842297
0.00854116
0.0086109
0.00865207
0.00867657
0.008692
0.00870347
0.00871161
0.00871976
0.00872521
0.00873231
0.00873694
0.00874349
0.00874813
0.00875344
0.00875976
0.0087626
0.00877122
0.008774
0.00878248
0.00878505
0.00879096
0.00879738
0.00880097
0.00880627
0.00880871
0.00881357
0.00881541
0.00881759
0.00882086
0.0088232
0.00882408
0.00882491
0.00882596
0.00882672
0.00882735
0.00882786
0.00882799
0.00882825
0.00640358
0.00596507
0.00563803
0.00545108
0.0054336
0.0054241
0.00560237
0.005912
0.00649579
0.00717878
0.00775999
0.0081446
0.00837483
0.00851319
0.00859487
0.00864217
0.00867078
0.00868837
0.00870118
0.00870995
0.00871776
0.00872382
0.00872951
0.00873506
0.00873935
0.00874604
0.00874976
0.00875726
0.00876196
0.00876815
0.00877342
0.00877857
0.00878496
0.00878852
0.00879592
0.00879865
0.00880454
0.00880683
0.00880972
0.00881308
0.00881561
0.00881824
0.00882019
0.0088218
0.00882278
0.00882451
0.00882518
0.00882574
0.00882583
0.00882573
0.00882573
0.00627843
0.00589885
0.00560198
0.00543632
0.00538569
0.00543421
0.00543218
0.00586298
0.00641182
0.00701046
0.0075962
0.0080523
0.00833605
0.00849374
0.00858272
0.00863461
0.00866594
0.00868569
0.00869901
0.00870885
0.00871547
0.00872289
0.00872563
0.00873343
0.00873691
0.008743
0.00874839
0.00875292
0.00875945
0.00876376
0.00877162
0.00877518
0.00878318
0.0087865
0.00879353
0.00879788
0.0088008
0.00880505
0.00880895
0.00881082
0.00881256
0.00881464
0.00881674
0.00881835
0.00881968
0.0088209
0.0088218
0.00882258
0.00882291
0.00882336
0.00882322
0.00605118
0.00571279
0.00549144
0.00536395
0.00534998
0.0053507
0.00551287
0.00586279
0.00643827
0.0070277
0.00755727
0.00798007
0.00828467
0.00847256
0.00857566
0.00863163
0.00866382
0.00868414
0.00869702
0.00870748
0.00871371
0.00872053
0.00872485
0.00872927
0.00873499
0.00873854
0.00874617
0.00874949
0.00875743
0.00876057
0.00876775
0.0087742
0.00877868
0.00878501
0.00878859
0.00879548
0.00880045
0.00880244
0.00880648
0.00881032
0.00881194
0.00881338
0.00881488
0.0088166
0.00881782
0.00881871
0.00881892
0.00881892
0.0088188
0.00881806
0.00881632
0.00547707
0.00537323
0.00530657
0.00529136
0.00529565
0.00537341
0.00548425
0.00600833
0.00655449
0.00710194
0.00759142
0.00798827
0.00826798
0.00845018
0.00856094
0.00862455
0.00866002
0.00868186
0.00869519
0.00870538
0.00871224
0.00871803
0.00872328
0.00872691
0.00873301
0.00873633
0.00874346
0.00874715
0.00875459
0.00875892
0.00876477
0.00877176
0.00877736
0.00878105
0.00878714
0.00879152
0.00879828
0.00880261
0.00880397
0.00880691
0.00881004
0.00881196
0.00881286
0.00881395
0.00881514
0.00881574
0.00881484
0.00881239
0.00880737
0.00880089
0.00879407
0.00536324
0.00531239
0.00529139
0.00528794
0.00533479
0.00536546
0.00571853
0.00619016
0.00674754
0.00724549
0.00767718
0.00802219
0.00827916
0.00845153
0.00855628
0.00861845
0.00865556
0.00867832
0.00869296
0.0087025
0.00871026
0.00871546
0.00872146
0.00872481
0.00873133
0.00873443
0.00874186
0.00874524
0.00875351
0.00875738
0.00876459
0.0087695
0.00877665
0.00877994
0.00878628
0.00878913
0.00879528
0.00879884
0.00880285
0.00880408
0.00880711
0.00880948
0.00880949
0.00880985
0.00880933
0.00880648
0.008799
0.00878424
0.00875974
0.00873798
0.00872375
0.00565842
0.00551465
0.00544929
0.00545056
0.0054464
0.00569056
0.00600082
0.00647571
0.00698051
0.00743429
0.00779982
0.00809396
0.00831233
0.00846278
0.00855994
0.008619
0.00865436
0.00867606
0.00869083
0.00869976
0.00870778
0.00871284
0.00871919
0.00872279
0.00872923
0.00873303
0.00873988
0.00874421
0.00875201
0.00875641
0.00876497
0.00876945
0.00877762
0.00878122
0.00878687
0.00878938
0.00879474
0.00879809
0.00880088
0.00880406
0.00880499
0.00880541
0.00880488
0.00880203
0.00879228
0.0087686
0.00873099
0.00866463
0.00858216
0.00853148
0.00854077
0.00655559
0.0063796
0.00621511
0.00613736
0.00617345
0.00633914
0.0066965
0.00704145
0.00741318
0.007753
0.00802329
0.00822602
0.0083806
0.0084943
0.00857228
0.00862143
0.00865319
0.00867262
0.00868672
0.00869477
0.00870293
0.00870775
0.00871458
0.00871834
0.00872562
0.00872886
0.00873761
0.0087408
0.00875069
0.0087549
0.00876465
0.00876958
0.00877744
0.00878382
0.00878857
0.00879183
0.00879598
0.00879785
0.00879888
0.00880124
0.0088003
0.00879724
0.00878872
0.00876462
0.00870086
0.00857587
0.00843228
0.00823859
0.00805779
0.00815283
0.0083742
0.00665205
0.0067627
0.0068461
0.00692351
0.00703471
0.00718325
0.00738169
0.00761123
0.00784405
0.0080593
0.00822816
0.00835159
0.00844764
0.0085222
0.00857895
0.00861965
0.00864657
0.00866186
0.00867367
0.00867955
0.00868714
0.00869195
0.00870042
0.00870609
0.00871519
0.00872134
0.0087306
0.00873666
0.0087465
0.00875244
0.008763
0.00876882
0.00877673
0.00878354
0.00878802
0.00879149
0.00879488
0.00879546
0.00879429
0.00879146
0.00878244
0.00875503
0.00867256
0.00847281
0.00820254
0.00788175
0.00751478
0.00729744
0.00759199
0.0080698
0.00836573
0.00638494
0.00663108
0.00685017
0.00705251
0.00725808
0.0074541
0.00764067
0.00783674
0.00800495
0.00816184
0.00828166
0.00837256
0.00844701
0.00850993
0.00855623
0.00858503
0.00860101
0.00860662
0.0086091
0.00860893
0.00861139
0.00861848
0.00863277
0.00864721
0.00866821
0.00868517
0.00870529
0.00871856
0.00873508
0.00874439
0.00875774
0.00876546
0.00877461
0.0087816
0.00878559
0.00878824
0.00878851
0.00878476
0.00876882
0.00872179
0.00860325
0.00832976
0.00786064
0.00731172
0.00689386
0.00648601
0.00645679
0.00691702
0.00774351
0.00816909
0.00809002
0.00630821
0.00635684
0.00654769
0.00682662
0.00710403
0.00734856
0.00755565
0.00776324
0.00792195
0.0080694
0.00816846
0.00824413
0.00829102
0.00832049
0.00833493
0.00833255
0.00831686
0.00828939
0.00825342
0.00821873
0.00819058
0.00818335
0.00820691
0.00829344
0.00840046
0.00849504
0.00857735
0.00863915
0.00868654
0.00872013
0.00874716
0.00876035
0.00877032
0.0087759
0.00877655
0.00877071
0.0087468
0.00868072
0.00851173
0.00813279
0.00747623
0.00677186
0.00626723
0.00600835
0.00583153
0.00587099
0.00634724
0.00763909
0.00805466
0.00762291
0.00650309
0.00638233
0.00632963
0.00633528
0.00639788
0.00653815
0.0067248
0.00690059
0.00709524
0.00722242
0.00732092
0.00733861
0.0073947
0.00745428
0.00745199
0.00740305
0.00731489
0.00721145
0.00708015
0.00693084
0.00681305
0.00677236
0.00689191
0.00724709
0.00765554
0.00801198
0.00828416
0.00847052
0.00858895
0.00866519
0.00870982
0.00873667
0.00874805
0.00875183
0.00874133
0.00870164
0.00859965
0.00836843
0.00788558
0.00713705
0.00644969
0.00593312
0.00569531
0.00555285
0.00540653
0.00548908
0.00624156
0.0075707
0.0077931
0.00690722
0.00604849
0.00596914
0.00668253
0.00644766
0.00635037
0.00631149
0.00629134
0.0062884
0.00630582
0.00633955
0.00634646
0.00640728
0.00645592
0.00639293
0.00627397
0.00615556
0.00601937
0.00590054
0.00580152
0.00572649
0.00570751
0.00578752
0.00606218
0.0065438
0.0071062
0.00761985
0.00802299
0.00830182
0.00847378
0.00858095
0.00864627
0.00867949
0.00868184
0.0086504
0.00857208
0.00840574
0.0080819
0.00750061
0.00683068
0.00623255
0.00583948
0.00565402
0.00547716
0.00523345
0.00520662
0.0055215
0.00643013
0.00730175
0.00724153
0.00616593
0.00586892
0.00618808
0.00756611
0.00698768
0.00681112
0.00659513
0.00642993
0.00631351
0.00622777
0.00616701
0.00612663
0.00603857
0.00589765
0.00568916
0.0055645
0.00541139
0.00532654
0.00526915
0.00526152
0.00529306
0.00537345
0.00552465
0.00578143
0.00620941
0.0068239
0.0073985
0.00781572
0.0081057
0.00829555
0.00841185
0.00845305
0.00843642
0.00834885
0.00816163
0.0078633
0.00744434
0.00696659
0.00647929
0.00609078
0.00582509
0.00567557
0.00550672
0.00522818
0.00514922
0.00521368
0.00563003
0.00658963
0.00684113
0.00648099
0.00598563
0.00599386
0.00681303
0.00796545
0.0082571
0.00678324
0.00672469
0.00656122
0.00637366
0.0062219
0.00606618
0.0058858
0.00570007
0.00551508
0.00537244
0.00526848
0.00521079
0.00517741
0.00517894
0.00521462
0.00529593
0.00543503
0.00567722
0.00601537
0.00642391
0.00686317
0.00718796
0.00744942
0.00767467
0.00778962
0.00776531
0.00760876
0.00742259
0.00721118
0.00695429
0.00668177
0.0064354
0.0062174
0.00601681
0.00586834
0.00576708
0.0056025
0.0053381
0.0051814
0.0051552
0.00529927
0.00590023
0.00632521
0.00638923
0.00612299
0.00606245
0.00642081
0.00748028
0.00794069
0.00800818
0.00784432
0.00625371
0.00623959
0.00616655
0.0060502
0.0059426
0.00582944
0.00569769
0.00556144
0.00545807
0.00539251
0.00536244
0.00538079
0.00544551
0.00554991
0.00568723
0.00586618
0.00605145
0.00621751
0.00637692
0.00654445
0.00670313
0.00674419
0.00674536
0.00671243
0.00668919
0.00662521
0.00654803
0.00645542
0.00635283
0.0062591
0.00617332
0.00608196
0.00599189
0.00590714
0.00576501
0.00556911
0.00529483
0.00522509
0.00522351
0.00546509
0.00595174
0.00611959
0.00615097
0.00611149
0.00628895
0.00696394
0.00758177
0.00769799
0.00768905
0.00718971
0.00611958
0.00627064
0.00618478
0.00616952
0.00606087
0.00600921
0.00591477
0.00584577
0.00579339
0.00576619
0.00575918
0.00576934
0.00579708
0.00583709
0.00589407
0.00596561
0.00604566
0.00613446
0.00621344
0.00629853
0.00641298
0.00646531
0.00647717
0.00646942
0.00648391
0.00650432
0.00649849
0.00645289
0.00638648
0.00632273
0.0062779
0.00623616
0.00614357
0.00599115
0.00582528
0.00552321
0.00535464
0.00530774
0.00533152
0.00567163
0.00591211
0.0060179
0.00607454
0.00618641
0.00656772
0.00715183
0.00735024
0.0073926
0.00713311
0.00619705
0.00538422
0.00478963
0.00559816
0.00569585
0.00569063
0.00573305
0.00573787
0.00573992
0.00574688
0.00576465
0.00578912
0.00581837
0.00585417
0.00590084
0.00596273
0.00604915
0.00614677
0.00626897
0.00637866
0.00652263
0.00662254
0.00668116
0.00669652
0.00668776
0.00668173
0.0066854
0.0067065
0.00671709
0.00669596
0.00665044
0.00659713
0.00650096
0.00632731
0.0061131
0.00584659
0.00552438
0.00544252
0.00539943
0.00548686
0.00573736
0.00583275
0.00593208
0.00600975
0.00623182
0.00665922
0.00694718
0.00698048
0.00690364
0.0062139
0.0053772
0.00494243
0.00466285
0.00452338
0.0053604
0.00542769
0.0055118
0.00558932
0.0056808
0.00577679
0.00585787
0.00595543
0.00607233
0.00619896
0.00635448
0.00653503
0.00671956
0.00690367
0.00701808
0.0070349
0.00703915
0.00692161
0.00687003
0.00682478
0.00681745
0.00682024
0.00684781
0.00692297
0.00696016
0.00696318
0.00692147
0.006812
0.00665321
0.00645851
0.00617865
0.00577094
0.00561599
0.00552198
0.00551404
0.00556808
0.00567749
0.00572689
0.00580432
0.0058948
0.00611183
0.00636774
0.00649894
0.00647009
0.00597298
0.00537853
0.00497241
0.00469411
0.00446871
0.00447313
0.00439713
0.00648082
0.00661363
0.00674291
0.00685681
0.00695798
0.00710724
0.00724349
0.00735706
0.00743304
0.00749917
0.00750184
0.00750298
0.00740816
0.00727472
0.00713163
0.0069947
0.00681962
0.00669421
0.00665792
0.00665005
0.00667714
0.00675227
0.00684427
0.00691704
0.00694461
0.00693068
0.00684262
0.00664763
0.00634604
0.00599413
0.00574519
0.00559763
0.00557247
0.00554335
0.00554638
0.00558702
0.00562443
0.00565983
0.0056882
0.00582327
0.00594392
0.00595443
0.00559908
0.00522526
0.0049227
0.00466347
0.00450596
0.00444903
0.00440238
0.00436799
0.00436778
0.0074374
0.00764858
0.00780863
0.0079207
0.00794675
0.00791712
0.00790814
0.007835
0.00777381
0.0076503
0.00750502
0.00736349
0.00712497
0.00686482
0.00663874
0.00639942
0.00636431
0.00632352
0.00633654
0.0063717
0.00643668
0.00655896
0.00665138
0.00668228
0.00667164
0.00654869
0.00633779
0.00607241
0.00585662
0.00572462
0.00563154
0.00556874
0.00550553
0.00549762
0.00543489
0.00543524
0.00542278
0.00541908
0.00542715
0.00542885
0.00522853
0.00497761
0.00479087
0.00461466
0.00452126
0.00442642
0.00439552
0.00435986
0.00436093
0.00434636
0.00434613
0.00762838
0.00773776
0.00786838
0.00784715
0.00782671
0.00780707
0.00770699
0.00760835
0.00743373
0.00724825
0.00704879
0.0068164
0.00662905
0.00645962
0.00631898
0.0062328
0.00620897
0.00619571
0.00621101
0.00621582
0.00624735
0.0062582
0.00626559
0.00623135
0.00617365
0.00606646
0.00593937
0.00580781
0.00568328
0.0055661
0.00547241
0.00537042
0.00530758
0.00511765
0.00512982
0.00502024
0.00502587
0.00492111
0.00490758
0.00477322
0.00467175
0.00454578
0.00447704
0.00441515
0.00438394
0.00435565
0.00434854
0.00433866
0.00433862
0.00433549
0.00433525
0.00724132
0.00740277
0.00748336
0.00746624
0.00748113
0.00741193
0.00733116
0.00718214
0.00702514
0.00687829
0.00670222
0.00657809
0.00643453
0.0063279
0.0062484
0.00619118
0.00615766
0.00614131
0.00613401
0.00613827
0.00610991
0.00611571
0.00606744
0.00602243
0.00593131
0.00580596
0.0056565
0.00548234
0.0053363
0.00520963
0.00506549
0.00494516
0.00484986
0.00476743
0.00478455
0.0046756
0.00468807
0.0045719
0.00457773
0.00445371
0.00445549
0.0043791
0.00437857
0.00434256
0.00434256
0.00432934
0.00432929
0.00432668
0.00432634
0.00432741
0.00432934
0.00637455
0.00659335
0.00672003
0.00687162
0.00684378
0.00687576
0.00684861
0.00681885
0.00671125
0.00660651
0.00650475
0.00639532
0.00631269
0.00622707
0.00616721
0.00611009
0.00607279
0.00603558
0.00601345
0.00596812
0.00592734
0.00585648
0.00574718
0.00558807
0.00543326
0.00526687
0.00510209
0.00497706
0.00485654
0.00476033
0.00468436
0.00462561
0.00457807
0.00456713
0.00450546
0.00450185
0.00444078
0.00443487
0.00439129
0.00436662
0.00435533
0.00433279
0.00433359
0.00432114
0.00432126
0.0043185
0.0043183
0.00431786
0.00432161
0.00432159
0.00432733
0.00553146
0.00565602
0.00576301
0.00584094
0.0059172
0.00596934
0.006018
0.00605459
0.00606222
0.00607014
0.00606539
0.00603821
0.00601204
0.00596665
0.00591865
0.00586604
0.00580139
0.00573154
0.00563212
0.00552831
0.00539514
0.00526508
0.00512189
0.00500952
0.00488598
0.00477271
0.00469746
0.00461662
0.00457156
0.0045245
0.00447076
0.00447892
0.00442866
0.00443265
0.00438886
0.00439145
0.0043554
0.00435608
0.00433079
0.00433025
0.0043167
0.00431691
0.00431061
0.00431047
0.00430972
0.00431111
0.00431063
0.00431586
0.00431573
0.00432337
0.00432285
0.00498475
0.00505065
0.0051083
0.0051537
0.00519183
0.00522304
0.00524963
0.0052687
0.00529482
0.00529519
0.0053021
0.00530078
0.0053005
0.00528062
0.00525001
0.00520594
0.00514477
0.00507911
0.00501213
0.00493055
0.00485215
0.00477193
0.00469752
0.00463407
0.00456783
0.00452168
0.00448589
0.00445091
0.00443334
0.00440179
0.00440285
0.00437177
0.00437234
0.00434808
0.0043475
0.00432798
0.00432774
0.00431379
0.00431375
0.00430648
0.0043064
0.00430481
0.00430449
0.00430587
0.00430673
0.00430939
0.00431108
0.00431489
0.00431722
0.00432285
0.00432632
0.00467364
0.00470339
0.00472872
0.00474824
0.00476473
0.00477856
0.00479013
0.00479696
0.00480061
0.00480362
0.00480076
0.00480179
0.00479216
0.00478076
0.00476292
0.00473904
0.00470896
0.00467594
0.00463585
0.00459555
0.00455441
0.00451713
0.00448301
0.0044531
0.00442543
0.00440907
0.0043916
0.00437823
0.00436962
0.00435551
0.0043509
0.00433412
0.00433697
0.00432021
0.00432093
0.0043095
0.00430984
0.00430347
0.00430359
0.00430241
0.00430289
0.00430328
0.00430463
0.00430577
0.00430678
0.00431235
0.00431084
0.00432008
0.00431838
0.00433168
0.00433091
0.00450447
0.0045169
0.00452729
0.00453519
0.00454129
0.00454665
0.00455283
0.00455241
0.00455405
0.00455337
0.00455305
0.00455103
0.00454623
0.00454043
0.00453092
0.00451858
0.00450457
0.00448755
0.00446952
0.00444989
0.00443238
0.00441597
0.00440189
0.00438418
0.00437831
0.00436396
0.00436022
0.00435085
0.00433884
0.0043391
0.00432531
0.00432601
0.00431554
0.0043158
0.00430836
0.0043086
0.00430442
0.00430453
0.00430327
0.00430317
0.00430396
0.00430488
0.00430721
0.00430975
0.0043134
0.00431764
0.00432123
0.0043279
0.00433254
0.00434129
0.00434889
0.00442328
0.00442739
0.00443141
0.00443448
0.00443741
0.0044402
0.00443983
0.00444237
0.00444261
0.0044427
0.00444296
0.00444135
0.00444035
0.00443741
0.0044338
0.00442824
0.00442247
0.00441391
0.00440601
0.00439658
0.00438931
0.00438031
0.00436912
0.00437066
0.00435706
0.00435801
0.00434376
0.00434594
0.00433376
0.0043347
0.00432523
0.00432474
0.00431824
0.00431488
0.004312
0.00430747
0.00430766
0.00430574
0.00430594
0.00430672
0.00430856
0.00431086
0.00431451
0.00431723
0.004321
0.00432535
0.0043293
0.0043356
0.00434082
0.00434922
0.00435887
0.00439005
0.00439038
0.0043915
0.00439229
0.00439382
0.0043956
0.0043957
0.00439852
0.00439915
0.00440048
0.0044013
0.00440149
0.00440153
0.00440079
0.00439942
0.00439729
0.00439427
0.00438997
0.00438627
0.00438085
0.00437688
0.00437119
0.00436741
0.00436334
0.00435682
0.00435395
0.00434758
0.004344
0.00433815
0.00433494
0.00432687
0.00432747
0.00431975
0.00432026
0.00431802
0.00432003
0.00432093
0.00432694
0.00433069
0.00433694
0.00434166
0.0043471
0.00435151
0.00435558
0.00435951
0.0043637
0.00436771
0.00437302
0.00437816
0.00438558
0.00439807
0.00437986
0.00437875
0.00437873
0.00437844
0.00437894
0.00438163
0.00438082
0.00438489
0.00438455
0.00438728
0.00438786
0.00438919
0.0043897
0.00438983
0.0043896
0.00438855
0.00438598
0.00438547
0.00438158
0.00437938
0.00437555
0.0043719
0.00436817
0.00436384
0.00435951
0.00435601
0.00435056
0.00434878
0.00434065
0.00434149
0.0043398
0.00433967
0.00434613
0.00434615
0.00435099
0.00435022
0.00435202
0.00435185
0.00435185
0.0043526
0.00435408
0.00435596
0.00435999
0.00436317
0.00437053
0.00437584
0.00438413
0.00438992
0.00440196
0.00441072
0.0044217
0.00889676
0.00889775
0.00889906
0.00889996
0.00890081
0.00890112
0.00890141
0.0089014
0.00890129
0.00890083
0.00890014
0.00889938
0.00889839
0.00889725
0.00889569
0.00889438
0.00889236
0.00889062
0.00888838
0.00888607
0.00888364
0.0088808
0.00887801
0.00887489
0.008871
0.00886821
0.00889309
0.00889448
0.00889558
0.00889645
0.00889722
0.00889757
0.00889779
0.00889787
0.00889758
0.00889728
0.0088967
0.00889589
0.00889506
0.00889377
0.00889243
0.00889083
0.00888903
0.00888718
0.00888503
0.00888294
0.00887998
0.0088785
0.00887367
0.00887328
0.00886688
0.00886699
0.00888982
0.00889138
0.0088924
0.00889315
0.00889383
0.0088943
0.0088944
0.00889449
0.00889432
0.00889378
0.00889326
0.00889244
0.00889153
0.00889041
0.00888906
0.00888757
0.00888578
0.00888393
0.00888189
0.00887969
0.00887726
0.00887478
0.00887198
0.00886897
0.00886634
0.00886162
0.00888678
0.00888795
0.008889
0.00888974
0.00889024
0.00889071
0.00889087
0.00889091
0.00889074
0.00889029
0.0088896
0.00888883
0.00888793
0.00888685
0.00888553