/*--------------------------------*- C++ -*----------------------------------*\
  =========                 |
  \\      /  F ield         | OpenFOAM: The Open Source CFD Toolbox
   \\    /   O peration     | Website:  https://openfoam.org
    \\  /    A nd           | Version:  11
     \\/     M anipulation  |
\*---------------------------------------------------------------------------*/
FoamFile
{
    format      ascii;
    class       volScalarField;
    location    "5";
    object      Ccx;
}
// * * * * * * * * * * * * * * * * * * * * * * * * * * * * * * * * * * * * * //

dimensions      [0 1 0 0 0 0 0];

internalField   nonuniform List<scalar> 
9600
(
-0.21645382
0.030744344
0.27794251
0.52514068
0.77233884
1.019537
1.2667351
1.5139333
1.7611315
2.0083296
2.2555278
2.502726
2.7499241
2.9971223
3.2443205
3.4915186
3.7387168
3.985915
4.2331131
4.4803113
4.7275095
4.9747077
5.2219058
5.469104
5.7163022
5.9635003
6.2106985
6.4578967
6.7050948
6.952293
7.1994912
7.4466893
7.6938875
7.9410857
8.1882838
8.435482
8.6826802
8.9298783
9.1770765
9.4242747
-0.10677117
0.13480225
0.37637566
0.61794908
0.85952249
1.1010959
1.3426693
1.5842427
1.8258161
2.0673895
2.308963
2.5505364
2.7921098
3.0336832
3.2752566
3.51683
3.7584034
3.9999769
4.2415503
4.4831237
4.7246971
4.9662705
5.2078439
5.4494174
5.6909908
5.9325642
6.1741376
6.415711
6.6572844
6.8988578
7.1404313
7.3820047
7.6235781
7.8651515
8.1067249
8.3482983
8.5898718
8.8314452
9.0730186
9.314592
0.0029112599
0.23885993
0.47480861
0.71075728
0.94670594
1.1826546
1.4186033
1.654552
1.8905006
2.1264493
2.362398
2.5983467
2.8342953
3.070244
3.3061927
3.5421414
3.77809
4.0140387
4.2499874
4.4859361
4.7218847
4.9578334
5.1937821
5.4297308
5.6656794
5.9016281
6.1375768
6.3735255
6.6094741
6.8454228
7.0813715
7.3173202
7.5532688
7.7892175
8.0251662
8.2611149
8.4970635
8.7330122
8.9689609
9.2049096
0.11259344
0.34291738
0.57324133
0.80356528
1.0338892
1.2642131
1.4945371
1.724861
1.955185
2.1855089
2.4158329
2.6461568
2.8764808
3.1068047
3.3371287
3.5674526
3.7977766
4.0281005
4.2584245
4.4887484
4.7190724
4.9493963
5.1797203
5.4100442
5.6403682
5.8706921
6.1010161
6.33134
6.561664
6.7919879
7.0223119
7.2526358
7.4829598
7.7132837
7.9436077
8.1739316
8.4042555
8.6345795
8.8649034
9.0952274
0.22227535
0.44697458
0.67167382
0.89637304
1.1210723
1.3457715
1.5704707
1.79517
2.0198692
2.2445684
2.4692677
2.6939669
2.9186661
3.1433654
3.3680646
3.5927638
3.8174631
4.0421623
4.2668615
4.4915608
4.71626
4.9409593
5.1656585
5.3903577
5.615057
5.8397562
6.0644554
6.2891547
6.5138539
6.7385531
6.9632524
7.1879516
7.4126508
7.6373501
7.8620493
8.0867485
8.3114478
8.536147
8.7608462
8.9855455
0.33195697
0.55103151
0.77010604
0.98918056
1.2082551
1.4273296
1.6464042
1.8654787
2.0845532
2.3036278
2.5227023
2.7417768
2.9608514
3.1799259
3.3990004
3.618075
3.8371495
4.0562241
4.2752986
4.4943731
4.7134477
4.9325222
5.1515967
5.3706713
5.5897458
5.8088204
6.0278949
6.2469694
6.466044
6.6851185
6.904193
7.1232676
7.3423421
7.5614166
7.7804912
7.9995657
8.2186403
8.4377148
8.6567893
8.8758639
0.44163829
0.65508814
0.86853798
1.0819878
1.2954377
1.5088875
1.7223374
1.9357872
2.1492371
2.3626869
2.5761368
2.7895866
3.0030365
3.2164864
3.4299362
3.6433861
3.8568359
4.0702858
4.2837356
4.4971855
4.7106353
4.9240852
5.137535
5.3509849
5.5644347
5.7778846
5.9913344
6.2047843
6.4182342
6.631684
6.8451339
7.0585837
7.2720336
7.4854834
7.6989333
7.9123831
8.125833
8.3392828
8.5527327
8.7661825
0.55131926
0.75914445
0.96696963
1.1747948
1.38262
1.5904452
1.7982704
2.0060956
2.2139207
2.4217459
2.6295711
2.8373963
3.0452215
3.2530467
3.4608719
3.6686971
3.8765222
4.0843474
4.2921726
4.4999978
4.707823
4.9156482
5.1234734
5.3312986
5.5391237
5.7469489
5.9547741
6.1625993
6.3704245
6.5782497
6.7860749
6.9939001
7.2017252
7.4095504
7.6173756
7.8252008
8.033026
8.2408512
8.4486764
8.6565016
0.66099988
0.86320041
1.0654009
1.2676015
1.469802
1.6720026
1.8742031
2.0764036
2.2786042
2.4808047
2.6830053
2.8852058
3.0874063
3.2896069
3.4918074
3.694008
3.8962085
4.098409
4.3006096
4.5028101
4.7050107
4.9072112
5.1094118
5.3116123
5.5138128
5.7160134
5.9182139
6.1204145
6.322615
6.5248155
6.7270161
6.9292166
7.1314172
7.3336177
7.5358182
7.7380188
7.9402193
8.1424199
8.3446204
8.5468209
0.7706801
0.967256
1.1638319
1.3604078
1.5569837
1.7535596
1.9501356
2.1467115
2.3432874
2.5398633
2.7364392
2.9330151
3.129591
3.326167
3.5227429
3.7193188
3.9158947
4.1124706
4.3090465
4.5056224
4.7021984
4.8987743
5.0953502
5.2919261
5.488502
5.6850779
5.8816538
6.0782298
6.2748057
6.4713816
6.6679575
6.8645334
7.0611093
7.2576852
7.4542612
7.6508371
7.847413
8.0439889
8.2405648
8.4371407
0.88035989
1.0713112
1.2622625
1.4532138
1.6441651
1.8351164
2.0260677
2.217019
2.4079703
2.5989217
2.789873
2.9808243
3.1717756
3.3627269
3.5536782
3.7446295
3.9355808
4.1265321
4.3174834
4.5084347
4.6993861
4.8903374
5.0812887
5.27224
5.4631913
5.6541426
5.8450939
6.0360452
6.2269965
6.4179478
6.6088991
6.7998505
6.9908018
7.1817531
7.3727044
7.5636557
7.754607
7.9455583
8.1365096
8.3274609
0.99003921
1.1753659
1.3606927
1.5460194
1.7313461
1.9166728
2.1019996
2.2873263
2.472653
2.6579798
2.8433065
3.0286332
3.2139599
3.3992867
3.5846134
3.7699401
3.9552669
4.1405936
4.3259203
4.511247
4.6965738
4.8819005
5.0672272
5.2525539
5.4378807
5.6232074
5.8085341
5.9938609
6.1791876
6.3645143
6.549841
6.7351678
6.9204945
7.1058212
7.291148
7.4764747
7.6618014
7.8471281
8.0324549
8.2177816
1.099718
1.2794202
1.4591224
1.6388245
1.8185267
1.9982289
2.1779311
2.3576332
2.5373354
2.7170376
2.8967397
3.0764419
3.2561441
3.4358463
3.6155484
3.7952506
3.9749528
4.154655
4.3343571
4.5140593
4.6937615
4.8734637
5.0531658
5.232868
5.4125702
5.5922724
5.7719745
5.9516767
6.1313789
6.3110811
6.4907832
6.6704854
6.8501876
7.0298897
7.2095919
7.3892941
7.5689963
7.7486984
7.9284006
8.1081028
1.2093963
1.3834739
1.5575516
1.7316292
1.9057069
2.0797845
2.2538622
2.4279398
2.6020174
2.7760951
2.9501727
3.1242504
3.298328
3.4724057
3.6464833
3.820561
3.9946386
4.1687163
4.3427939
4.5168716
4.6909492
4.8650269
5.0391045
5.2131822
5.3872598
5.5613375
5.7354151
5.9094928
6.0835704
6.2576481
6.4317257
6.6058034
6.779881
6.9539586
7.1280363
7.3021139
7.4761916
7.6502692
7.8243469
7.9984245
1.3190739
1.4875271
1.6559802
1.8244334
1.9928865
2.1613397
2.3297928
2.498246
2.6666991
2.8351523
3.0036054
3.1720586
3.3405117
3.5089649
3.6774181
3.8458712
4.0143244
4.1827775
4.3512307
4.5196838
4.688137
4.8565901
5.0250433
5.1934964
5.3619496
5.5304027
5.6988559
5.8673091
6.0357622
6.2042154
6.3726685
6.5411217
6.7095748
6.878028
7.0464811
7.2149343
7.3833874
7.5518406
7.7202937
7.8887469
1.4287509
1.5915795
1.7544082
1.9172369
2.0800656
2.2428943
2.405723
2.5685517
2.7313804
2.8942091
3.0570378
3.2198665
3.3826952
3.5455239
3.7083526
3.8711813
4.03401
4.1968387
4.3596674
4.5224961
4.6853247
4.8481534
5.0109821
5.1738108
5.3366395
5.4994682
5.6622969
5.8251256
5.9879543
6.150783
6.3136117
6.4764404
6.6392691
6.8020978
6.9649265
7.1277552
7.2905839
7.4534126
7.6162413
7.7790699
1.5384271
1.6956313
1.8528356
2.0100399
2.1672441
2.3244484
2.4816527
2.638857
2.7960612
2.9532655
3.1104698
3.2676741
3.4248783
3.5820826
3.7392869
3.8964912
4.0536954
4.2108997
4.368104
4.5253083
4.6825125
4.8397168
4.9969211
5.1541254
5.3113296
5.4685339
5.6257382
5.7829425
5.9401467
6.097351
6.2545553
6.4117596
6.5689638
6.7261681
6.8833724
7.0405767
7.1977809
7.3549852
7.5121895
7.6693937
1.6481024
1.7996823
1.9512622
2.1028421
2.254422
2.4060019
2.5575818
2.7091617
2.8607416
3.0123215
3.1639014
3.3154813
3.4670612
3.6186411
3.770221
3.9218009
4.0733808
4.2249607
4.3765406
4.5281205
4.6797003
4.8312802
4.9828601
5.13444
5.2860199
5.4375998
5.5891797
5.7407596
5.8923395
6.0439194
6.1954993
6.3470792
6.4986591
6.650239
6.8018189
6.9533988
7.1049787
7.2565586
7.4081385
7.5597184
1.7577768
1.9037324
2.049688
2.1956435
2.3415991
2.4875547
2.6335102
2.7794658
2.9254214
3.0713769
3.2173325
3.3632881
3.5092436
3.6551992
3.8011548
3.9471103
4.0930659
4.2390215
4.384977
4.5309326
4.6768882
4.8228438
4.9687993
5.1147549
5.2607105
5.406666
5.5526216
5.6985772
5.8445327
5.9904883
6.1364439
6.2823994
6.428355
6.5743106
6.7202661
6.8662217
7.0121773
7.1581328
7.3040884
7.450044
1.8674502
2.0077815
2.1481128
2.2884441
2.4287754
2.5691067
2.709438
2.8497693
2.9901005
3.1304318
3.2707631
3.4110944
3.5514257
3.691757
3.8320883
3.9724196
4.1127509
4.2530822
4.3934135
4.5337448
4.674076
4.8144073
4.9547386
5.0950699
5.2354012
5.3757325
5.5160638
5.6563951
5.7967264
5.9370577
6.077389
6.2177203
6.3580515
6.4983828
6.6387141
6.7790454
6.9193767
7.059708
7.2000393
7.3403706
1.9771224
2.1118295
2.2465366
2.3812436
2.5159507
2.6506578
2.7853649
2.9200719
3.054779
3.1894861
3.3241932
3.4589002
3.5936073
3.7283144
3.8630215
3.9977286
4.1324356
4.2671427
4.4018498
4.5365569
4.6712639
4.805971
4.9406781
5.0753852
5.2100922
5.3447993
5.4795064
5.6142135
5.7489206
5.8836276
6.0183347
6.1530418
6.2877489
6.4224559
6.557163
6.6918701
6.8265772
6.9612842
7.0959913
7.2306984
2.0867933
2.2158762
2.3449591
2.4740421
2.603125
2.7322079
2.8612908
2.9903738
3.1194567
3.2485396
3.3776226
3.5067055
3.6357884
3.7648714
3.8939543
4.0230372
4.1521201
4.2812031
4.410286
4.5393689
4.6684519
4.7975348
4.9266177
5.0557007
5.1847836
5.3138665
5.4429494
5.5720324
5.7011153
5.8301982
5.9592812
6.0883641
6.217447
6.34653
6.4756129
6.6046958
6.7337787
6.8628617
6.9919446
7.1210275
2.1964626
2.3199215
2.4433803
2.5668392
2.6902981
2.8137569
2.9372158
3.0606746
3.1841335
3.3075924
3.4310512
3.5545101
3.6779689
3.8014278
3.9248867
4.0483455
4.1718044
4.2952632
4.4187221
4.542181
4.6656398
4.7890987
4.9125576
5.0360164
5.1594753
5.2829341
5.406393
5.5298519
5.6533107
5.7767696
5.9002284
6.0236873
6.1471462
6.270605
6.3940639
6.5175227
6.6409816
6.7644405
6.8878993
7.0113582
2.3061302
2.4239651
2.5418
2.6596349
2.7774698
2.8953046
3.0131395
3.1309744
3.2488093
3.3666442
3.484479
3.6023139
3.7201488
3.8379837
3.9558186
4.0736534
4.1914883
4.3093232
4.4271581
4.544993
4.6628278
4.7806627
4.8984976
5.0163325
5.1341674
5.2520022
5.3698371
5.487672
5.6055069
5.7233418
5.8411766
5.9590115
6.0768464
6.1946813
6.3125162
6.430351
6.5481859
6.6660208
6.7838557
6.9016906
2.4157958
2.5280068
2.6402179
2.7524289
2.8646399
2.9768509
3.0890619
3.2012729
3.3134839
3.4256949
3.5379059
3.6501169
3.7623279
3.8745389
3.9867499
4.0989609
4.2111719
4.3233829
4.4355939
4.5478049
4.6600159
4.7722269
4.8844379
4.9966489
5.1088599
5.2210709
5.3332819
5.4454929
5.5577039
5.6699149
5.7821259
5.8943369
6.0065479
6.1187589
6.2309699
6.3431809
6.4553919
6.5676029
6.679814
6.792025
2.5254592
2.6320464
2.7386336
2.8452209
2.9518081
3.0583954
3.1649826
3.2715699
3.3781571
3.4847443
3.5913316
3.6979188
3.8045061
3.9110933
4.0176806
4.1242678
4.230855
4.3374423
4.4440295
4.5506168
4.657204
4.7637913
4.8703785
4.9769658
5.083553
5.1901402
5.2967275
5.4033147
5.509902
5.6164892
5.7230765
5.8296637
5.9362509
6.0428382
6.1494254
6.2560127
6.3625999
6.4691872
6.5757744
6.6823616
2.6351198
2.7360834
2.837047
2.9380106
3.0389743
3.1399379
3.2409015
3.3418651
3.4428287
3.5437924
3.644756
3.7457196
3.8466832
3.9476469
4.0486105
4.1495741
4.2505377
4.3515013
4.452465
4.5534286
4.6543922
4.7553558
4.8563195
4.9572831
5.0582467
5.1592103
5.2601739
5.3611376
5.4621012
5.5630648
5.6640284
5.7649921
5.8659557
5.9669193
6.0678829
6.1688465
6.2698102
6.3707738
6.4717374
6.572701
2.7447772
2.8401174
2.9354575
3.0307977
3.1261379
3.221478
3.3168182
3.4121584
3.5074985
3.6028387
3.6981788
3.793519
3.8888592
3.9841993
4.0795395
4.1748797
4.2702198
4.36556
4.4609002
4.5562403
4.6515805
4.7469206
4.8422608
4.937601
5.0329411
5.1282813
5.2236215
5.3189616
5.4143018
5.509642
5.6049821
5.7003223
5.7956624
5.8910026
5.9863428
6.0816829
6.1770231
6.2723633
6.3677034
6.4630436
2.8544309
2.9441478
3.0338647
3.1235816
3.2132985
3.3030154
3.3927323
3.4824492
3.5721661
3.661883
3.7515999
3.8413168
3.9310337
4.0207506
4.1104675
4.2001844
4.2899013
4.3796182
4.4693351
4.559052
4.6487688
4.7384857
4.8282026
4.9179195
5.0076364
5.0973533
5.1870702
5.2767871
5.366504
5.4562209
5.5459378
5.6356547
5.7253716
5.8150885
5.9048054
5.9945223
6.0842392
6.1739561
6.263673
6.3533899
2.96408
3.0481739
3.1322677
3.2163616
3.3004555
3.3845493
3.4686432
3.5527371
3.6368309
3.7209248
3.8050187
3.8891125
3.9732064
4.0573003
4.1413941
4.225488
4.3095819
4.3936757
4.4777696
4.5618635
4.6459573
4.7300512
4.8141451
4.8982389
4.9823328
5.0664267
5.1505205
5.2346144
5.3187083
5.4028021
5.486896
5.5709899
5.6550837
5.7391776
5.8232715
5.9073653
5.9914592
6.0755531
6.1596469
6.2437408
3.0737236
3.1521948
3.2306659
3.309137
3.3876081
3.4660792
3.5445503
3.6230215
3.7014926
3.7799637
3.8584348
3.9369059
4.015377
4.0938481
4.1723193
4.2507904
4.3292615
4.4077326
4.4862037
4.5646748
4.643146
4.7216171
4.8000882
4.8785593
4.9570304
5.0355015
5.1139727
5.1924438
5.2709149
5.349386
5.4278571
5.5063282
5.5847993
5.6632705
5.7417416
5.8202127
5.8986838
5.9771549
6.055626
6.1340972
3.1833605
3.2562092
3.3290579
3.4019066
3.4747554
3.5476041
3.6204528
3.6933015
3.7661502
3.8389989
3.9118476
3.9846963
4.0575451
4.1303938
4.2032425
4.2760912
4.3489399
4.4217886
4.4946373
4.567486
4.6403348
4.7131835
4.7860322
4.8588809
4.9317296
5.0045783
5.077427
5.1502757
5.2231245
5.2959732
5.3688219
5.4416706
5.5145193
5.587368
5.6602167
5.7330654
5.8059142
5.8787629
5.9516116
6.0244603
3.2929889
3.3602156
3.4274424
3.4946691
3.5618959
3.6291226
3.6963494
3.7635761
3.8308028
3.8980296
3.9652563
4.0324831
4.0997098
4.1669366
4.2341633
4.3013901
4.3686168
4.4358435
4.5030703
4.570297
4.6375238
4.7047505
4.7719773
4.839204
4.9064307
4.9736575
5.0408842
5.108111
5.1753377
5.2425645
5.3097912
5.377018
5.4442447
5.5114714
5.5786982
5.6459249
5.7131517
5.7803784
5.8476052
5.9148319
3.4026065
3.4642118
3.5258171
3.5874225
3.6490278
3.7106331
3.7722384
3.8338438
3.8954491
3.9570544
4.0186598
4.0802651
4.1418704
4.2034758
4.2650811
4.3266864
4.3882917
4.4498971
4.5115024
4.5731077
4.6347131
4.6963184
4.7579237
4.8195291
4.8811344
4.9427397
5.004345
5.0659504
5.1275557
5.189161
5.2507664
5.3123717
5.373977
5.4355824
5.4971877
5.558793
5.6203983
5.6820037
5.743609
5.8052143
3.51221
3.5681946
3.6241793
3.6801639
3.7361485
3.7921332
3.8481178
3.9041024
3.9600871
4.0160717
4.0720563
4.128041
4.1840256
4.2400103
4.2959949
4.3519795
4.4079642
4.4639488
4.5199334
4.5759181
4.6319027
4.6878874
4.743872
4.7998566
4.8558413
4.9118259
4.9678105
5.0237952
5.0797798
5.1357645
5.1917491
5.2477337
5.3037184
5.359703
5.4156876
5.4716723
5.5276569
5.5836415
5.6396262
5.6956108
3.6217947
3.6721596
3.7225245
3.7728894
3.8232543
3.8736193
3.9239842
3.9743491
4.024714
4.0750789
4.1254438
4.1758087
4.2261736
4.2765385
4.3269034
4.3772683
4.4276332
4.4779981
4.528363
4.5787279
4.6290929
4.6794578
4.7298227
4.7801876
4.8305525
4.8809174
4.9312823
4.9816472
5.0320121
5.082377
5.1327419
5.1831068
5.2334717
5.2838366
5.3342015
5.3845665
5.4349314
5.4852963
5.5356612
5.5860261
3.7313536
3.7761001
3.8208466
3.8655931
3.9103396
3.9550861
3.9998326
4.0445791
4.0893256
4.1340721
4.1788186
4.2235651
4.2683116
4.3130581
4.3578046
4.4025511
4.4472976
4.4920441
4.5367906
4.5815371
4.6262837
4.6710302
4.7157767
4.7605232
4.8052697
4.8500162
4.8947627
4.9395092
4.9842557
5.0290022
5.0737487
5.1184952
5.1632417
5.2079882
5.2527347
5.2974812
5.3422277
5.3869742
5.4317207
5.4764672
3.8408754
3.8800054
3.9191354
3.9582654
3.9973954
4.0365254
4.0756554
4.1147854
4.1539154
4.1930454
4.2321754
4.2713054
4.3104354
4.3495654
4.3886954
4.4278254
4.4669554
4.5060854
4.5452154
4.5843454
4.6234754
4.6626054
4.7017354
4.7408654
4.7799954
4.8191254
4.8582554
4.8973854
4.9365154
4.9756454
5.0147754
5.0539054
5.0930354
5.1321654
5.1712954
5.2104254
5.2495554
5.2886854
5.3278154
5.3669454
3.9503415
3.9838578
4.0173742
4.0508905
4.0844069
4.1179233
4.1514396
4.184956
4.2184723
4.2519887
4.285505
4.3190214
4.3525377
4.3860541
4.4195704
4.4530868
4.4866032
4.5201195
4.5536359
4.5871522
4.6206686
4.6541849
4.6877013
4.7212176
4.754734
4.7882504
4.8217667
4.8552831
4.8887994
4.9223158
4.9558321
4.9893485
5.0228648
5.0563812
5.0898975
5.1234139
5.1569303
5.1904466
5.223963
5.2574793
4.059718
4.0876253
4.1155326
4.1434399
4.1713472
4.1992545
4.2271618
4.2550691
4.2829764
4.3108837
4.338791
4.3666983
4.3946056
4.4225129
4.4504202
4.4783275
4.5062348
4.5341421
4.5620494
4.5899567
4.6178641
4.6457714
4.6736787
4.701586
4.7294933
4.7574006
4.7853079
4.8132152
4.8411225
4.8690298
4.8969371
4.9248444
4.9527517
4.980659
5.0085663
5.0364736
5.0643809
5.0922882
5.1201955
5.1481028
9.5478817
9.5478817
9.5478817
9.5478817
9.5478817
9.5478817
9.5478817
9.5478817
9.5478817
9.5478817
9.5478817
9.5478817
9.5478817
9.5478817
9.5478817
9.5478817
9.5478817
9.5478817
9.5478817
9.5478817
9.5478817
9.5478817
9.5478817
9.5478817
9.5478817
9.5478817
9.5478817
9.5478817
9.5478817
9.5478817
9.5478817
9.5478817
9.5478817
9.5478817
9.5478817
9.5478817
9.5478817
9.5478817
9.5478817
9.5478817
9.4353871
9.4353871
9.4353871
9.4353871
9.4353871
9.4353871
9.4353871
9.4353871
9.4353871
9.4353871
9.4353871
9.4353871
9.4353871
9.4353871
9.4353871
9.4353871
9.4353871
9.4353871
9.4353871
9.4353871
9.4353871
9.4353871
9.4353871
9.4353871
9.4353871
9.4353871
9.4353871
9.4353871
9.4353871
9.4353871
9.4353871
9.4353871
9.4353871
9.4353871
9.4353871
9.4353871
9.4353871
9.4353871
9.4353871
9.4353871
9.3228927
9.3228927
9.3228927
9.3228927
9.3228927
9.3228927
9.3228927
9.3228927
9.3228927
9.3228927
9.3228927
9.3228927
9.3228927
9.3228927
9.3228927
9.3228927
9.3228927
9.3228927
9.3228927
9.3228927
9.3228927
9.3228927
9.3228927
9.3228927
9.3228927
9.3228927
9.3228927
9.3228927
9.3228927
9.3228927
9.3228927
9.3228927
9.3228927
9.3228927
9.3228927
9.3228927
9.3228927
9.3228927
9.3228927
9.3228927
9.2103986
9.2103986
9.2103986
9.2103986
9.2103986
9.2103986
9.2103986
9.2103986
9.2103986
9.2103986
9.2103986
9.2103986
9.2103986
9.2103986
9.2103986
9.2103986
9.2103986
9.2103986
9.2103986
9.2103986
9.2103986
9.2103986
9.2103986
9.2103986
9.2103986
9.2103986
9.2103986
9.2103986
9.2103986
9.2103986
9.2103986
9.2103986
9.2103986
9.2103986
9.2103986
9.2103986
9.2103986
9.2103986
9.2103986
9.2103986
9.0979048
9.0979048
9.0979048
9.0979048
9.0979048
9.0979048
9.0979048
9.0979048
9.0979048
9.0979048
9.0979048
9.0979048
9.0979048
9.0979048
9.0979048
9.0979048
9.0979048
9.0979048
9.0979048
9.0979048
9.0979048
9.0979048
9.0979048
9.0979048
9.0979048
9.0979048
9.0979048
9.0979048
9.0979048
9.0979048
9.0979048
9.0979048
9.0979048
9.0979048
9.0979048
9.0979048
9.0979048
9.0979048
9.0979048
9.0979048
8.9854114
8.9854114
8.9854114
8.9854114
8.9854114
8.9854114
8.9854114
8.9854114
8.9854114
8.9854114
8.9854114
8.9854114
8.9854114
8.9854114
8.9854114
8.9854114
8.9854114
8.9854114
8.9854114
8.9854114
8.9854114
8.9854114
8.9854114
8.9854114
8.9854114
8.9854114
8.9854114
8.9854114
8.9854114
8.9854114
8.9854114
8.9854114
8.9854114
8.9854114
8.9854114
8.9854114
8.9854114
8.9854114
8.9854114
8.9854114
8.8729183
8.8729183
8.8729183
8.8729183
8.8729183
8.8729183
8.8729183
8.8729183
8.8729183
8.8729183
8.8729183
8.8729183
8.8729183
8.8729183
8.8729183
8.8729183
8.8729183
8.8729183
8.8729183
8.8729183
8.8729183
8.8729183
8.8729183
8.8729183
8.8729183
8.8729183
8.8729183
8.8729183
8.8729183
8.8729183
8.8729183
8.8729183
8.8729183
8.8729183
8.8729183
8.8729183
8.8729183
8.8729183
8.8729183
8.8729183
8.7604256
8.7604256
8.7604256
8.7604256
8.7604256
8.7604256
8.7604256
8.7604256
8.7604256
8.7604256
8.7604256
8.7604256
8.7604256
8.7604256
8.7604256
8.7604256
8.7604256
8.7604256
8.7604256
8.7604256
8.7604256
8.7604256
8.7604256
8.7604256
8.7604256
8.7604256
8.7604256
8.7604256
8.7604256
8.7604256
8.7604256
8.7604256
8.7604256
8.7604256
8.7604256
8.7604256
8.7604256
8.7604256
8.7604256
8.7604256
8.6479333
8.6479333
8.6479333
8.6479333
8.6479333
8.6479333
8.6479333
8.6479333
8.6479333
8.6479333
8.6479333
8.6479333
8.6479333
8.6479333
8.6479333
8.6479333
8.6479333
8.6479333
8.6479333
8.6479333
8.6479333
8.6479333
8.6479333
8.6479333
8.6479333
8.6479333
8.6479333
8.6479333
8.6479333
8.6479333
8.6479333
8.6479333
8.6479333
8.6479333
8.6479333
8.6479333
8.6479333
8.6479333
8.6479333
8.6479333
8.5354414
8.5354414
8.5354414
8.5354414
8.5354414
8.5354414
8.5354414
8.5354414
8.5354414
8.5354414
8.5354414
8.5354414
8.5354414
8.5354414
8.5354414
8.5354414
8.5354414
8.5354414
8.5354414
8.5354414
8.5354414
8.5354414
8.5354414
8.5354414
8.5354414
8.5354414
8.5354414
8.5354414
8.5354414
8.5354414
8.5354414
8.5354414
8.5354414
8.5354414
8.5354414
8.5354414
8.5354414
8.5354414
8.5354414
8.5354414
8.4229501
8.4229501
8.4229501
8.4229501
8.4229501
8.4229501
8.4229501
8.4229501
8.4229501
8.4229501
8.4229501
8.4229501
8.4229501
8.4229501
8.4229501
8.4229501
8.4229501
8.4229501
8.4229501
8.4229501
8.4229501
8.4229501
8.4229501
8.4229501
8.4229501
8.4229501
8.4229501
8.4229501
8.4229501
8.4229501
8.4229501
8.4229501
8.4229501
8.4229501
8.4229501
8.4229501
8.4229501
8.4229501
8.4229501
8.4229501
8.3104594
8.3104594
8.3104594
8.3104594
8.3104594
8.3104594
8.3104594
8.3104594
8.3104594
8.3104594
8.3104594
8.3104594
8.3104594
8.3104594
8.3104594
8.3104594
8.3104594
8.3104594
8.3104594
8.3104594
8.3104594
8.3104594
8.3104594
8.3104594
8.3104594
8.3104594
8.3104594
8.3104594
8.3104594
8.3104594
8.3104594
8.3104594
8.3104594
8.3104594
8.3104594
8.3104594
8.3104594
8.3104594
8.3104594
8.3104594
8.1979692
8.1979692
8.1979692
8.1979692
8.1979692
8.1979692
8.1979692
8.1979692
8.1979692
8.1979692
8.1979692
8.1979692
8.1979692
8.1979692
8.1979692
8.1979692
8.1979692
8.1979692
8.1979692
8.1979692
8.1979692
8.1979692
8.1979692
8.1979692
8.1979692
8.1979692
8.1979692
8.1979692
8.1979692
8.1979692
8.1979692
8.1979692
8.1979692
8.1979692
8.1979692
8.1979692
8.1979692
8.1979692
8.1979692
8.1979692
8.0854797
8.0854797
8.0854797
8.0854797
8.0854797
8.0854797
8.0854797
8.0854797
8.0854797
8.0854797
8.0854797
8.0854797
8.0854797
8.0854797
8.0854797
8.0854797
8.0854797
8.0854797
8.0854797
8.0854797
8.0854797
8.0854797
8.0854797
8.0854797
8.0854797
8.0854797
8.0854797
8.0854797
8.0854797
8.0854797
8.0854797
8.0854797
8.0854797
8.0854797
8.0854797
8.0854797
8.0854797
8.0854797
8.0854797
8.0854797
7.972991
7.972991
7.972991
7.972991
7.972991
7.972991
7.972991
7.972991
7.972991
7.972991
7.972991
7.972991
7.972991
7.972991
7.972991
7.972991
7.972991
7.972991
7.972991
7.972991
7.972991
7.972991
7.972991
7.972991
7.972991
7.972991
7.972991
7.972991
7.972991
7.972991
7.972991
7.972991
7.972991
7.972991
7.972991
7.972991
7.972991
7.972991
7.972991
7.972991
7.8605031
7.8605031
7.8605031
7.8605031
7.8605031
7.8605031
7.8605031
7.8605031
7.8605031
7.8605031
7.8605031
7.8605031
7.8605031
7.8605031
7.8605031
7.8605031
7.8605031
7.8605031
7.8605031
7.8605031
7.8605031
7.8605031
7.8605031
7.8605031
7.8605031
7.8605031
7.8605031
7.8605031
7.8605031
7.8605031
7.8605031
7.8605031
7.8605031
7.8605031
7.8605031
7.8605031
7.8605031
7.8605031
7.8605031
7.8605031
7.7480161
7.7480161
7.7480161
7.7480161
7.7480161
7.7480161
7.7480161
7.7480161
7.7480161
7.7480161
7.7480161
7.7480161
7.7480161
7.7480161
7.7480161
7.7480161
7.7480161
7.7480161
7.7480161
7.7480161
7.7480161
7.7480161
7.7480161
7.7480161
7.7480161
7.7480161
7.7480161
7.7480161
7.7480161
7.7480161
7.7480161
7.7480161
7.7480161
7.7480161
7.7480161
7.7480161
7.7480161
7.7480161
7.7480161
7.7480161
7.6355301
7.6355301
7.6355301
7.6355301
7.6355301
7.6355301
7.6355301
7.6355301
7.6355301
7.6355301
7.6355301
7.6355301
7.6355301
7.6355301
7.6355301
7.6355301
7.6355301
7.6355301
7.6355301
7.6355301
7.6355301
7.6355301
7.6355301
7.6355301
7.6355301
7.6355301
7.6355301
7.6355301
7.6355301
7.6355301
7.6355301
7.6355301
7.6355301
7.6355301
7.6355301
7.6355301
7.6355301
7.6355301
7.6355301
7.6355301
7.5230453
7.5230453
7.5230453
7.5230453
7.5230453
7.5230453
7.5230453
7.5230453
7.5230453
7.5230453
7.5230453
7.5230453
7.5230453
7.5230453
7.5230453
7.5230453
7.5230453
7.5230453
7.5230453
7.5230453
7.5230453
7.5230453
7.5230453
7.5230453
7.5230453
7.5230453
7.5230453
7.5230453
7.5230453
7.5230453
7.5230453
7.5230453
7.5230453
7.5230453
7.5230453
7.5230453
7.5230453
7.5230453
7.5230453
7.5230453
7.4105618
7.4105618
7.4105618
7.4105618
7.4105618
7.4105618
7.4105618
7.4105618
7.4105618
7.4105618
7.4105618
7.4105618
7.4105618
7.4105618
7.4105618
7.4105618
7.4105618
7.4105618
7.4105618
7.4105618
7.4105618
7.4105618
7.4105618
7.4105618
7.4105618
7.4105618
7.4105618
7.4105618
7.4105618
7.4105618
7.4105618
7.4105618
7.4105618
7.4105618
7.4105618
7.4105618
7.4105618
7.4105618
7.4105618
7.4105618
7.2980797
7.2980797
7.2980797
7.2980797
7.2980797
7.2980797
7.2980797
7.2980797
7.2980797
7.2980797
7.2980797
7.2980797
7.2980797
7.2980797
7.2980797
7.2980797
7.2980797
7.2980797
7.2980797
7.2980797
7.2980797
7.2980797
7.2980797
7.2980797
7.2980797
7.2980797
7.2980797
7.2980797
7.2980797
7.2980797
7.2980797
7.2980797
7.2980797
7.2980797
7.2980797
7.2980797
7.2980797
7.2980797
7.2980797
7.2980797
7.1855994
7.1855994
7.1855994
7.1855994
7.1855994
7.1855994
7.1855994
7.1855994
7.1855994
7.1855994
7.1855994
7.1855994
7.1855994
7.1855994
7.1855994
7.1855994
7.1855994
7.1855994
7.1855994
7.1855994
7.1855994
7.1855994
7.1855994
7.1855994
7.1855994
7.1855994
7.1855994
7.1855994
7.1855994
7.1855994
7.1855994
7.1855994
7.1855994
7.1855994
7.1855994
7.1855994
7.1855994
7.1855994
7.1855994
7.1855994
7.0731209
7.0731209
7.0731209
7.0731209
7.0731209
7.0731209
7.0731209
7.0731209
7.0731209
7.0731209
7.0731209
7.0731209
7.0731209
7.0731209
7.0731209
7.0731209
7.0731209
7.0731209
7.0731209
7.0731209
7.0731209
7.0731209
7.0731209
7.0731209
7.0731209
7.0731209
7.0731209
7.0731209
7.0731209
7.0731209
7.0731209
7.0731209
7.0731209
7.0731209
7.0731209
7.0731209
7.0731209
7.0731209
7.0731209
7.0731209
6.9606447
6.9606447
6.9606447
6.9606447
6.9606447
6.9606447
6.9606447
6.9606447
6.9606447
6.9606447
6.9606447
6.9606447
6.9606447
6.9606447
6.9606447
6.9606447
6.9606447
6.9606447
6.9606447
6.9606447
6.9606447
6.9606447
6.9606447
6.9606447
6.9606447
6.9606447
6.9606447
6.9606447
6.9606447
6.9606447
6.9606447
6.9606447
6.9606447
6.9606447
6.9606447
6.9606447
6.9606447
6.9606447
6.9606447
6.9606447
6.8481711
6.8481711
6.8481711
6.8481711
6.8481711
6.8481711
6.8481711
6.8481711
6.8481711
6.8481711
6.8481711
6.8481711
6.8481711
6.8481711
6.8481711
6.8481711
6.8481711
6.8481711
6.8481711
6.8481711
6.8481711
6.8481711
6.8481711
6.8481711
6.8481711
6.8481711
6.8481711
6.8481711
6.8481711
6.8481711
6.8481711
6.8481711
6.8481711
6.8481711
6.8481711
6.8481711
6.8481711
6.8481711
6.8481711
6.8481711
6.7357005
6.7357005
6.7357005
6.7357005
6.7357005
6.7357005
6.7357005
6.7357005
6.7357005
6.7357005
6.7357005
6.7357005
6.7357005
6.7357005
6.7357005
6.7357005
6.7357005
6.7357005
6.7357005
6.7357005
6.7357005
6.7357005
6.7357005
6.7357005
6.7357005
6.7357005
6.7357005
6.7357005
6.7357005
6.7357005
6.7357005
6.7357005
6.7357005
6.7357005
6.7357005
6.7357005
6.7357005
6.7357005
6.7357005
6.7357005
6.6232335
6.6232335
6.6232335
6.6232335
6.6232335
6.6232335
6.6232335
6.6232335
6.6232335
6.6232335
6.6232335
6.6232335
6.6232335
6.6232335
6.6232335
6.6232335
6.6232335
6.6232335
6.6232335
6.6232335
6.6232335
6.6232335
6.6232335
6.6232335
6.6232335
6.6232335
6.6232335
6.6232335
6.6232335
6.6232335
6.6232335
6.6232335
6.6232335
6.6232335
6.6232335
6.6232335
6.6232335
6.6232335
6.6232335
6.6232335
6.5107709
6.5107709
6.5107709
6.5107709
6.5107709
6.5107709
6.5107709
6.5107709
6.5107709
6.5107709
6.5107709
6.5107709
6.5107709
6.5107709
6.5107709
6.5107709
6.5107709
6.5107709
6.5107709
6.5107709
6.5107709
6.5107709
6.5107709
6.5107709
6.5107709
6.5107709
6.5107709
6.5107709
6.5107709
6.5107709
6.5107709
6.5107709
6.5107709
6.5107709
6.5107709
6.5107709
6.5107709
6.5107709
6.5107709
6.5107709
6.3983134
6.3983134
6.3983134
6.3983134
6.3983134
6.3983134
6.3983134
6.3983134
6.3983134
6.3983134
6.3983134
6.3983134
6.3983134
6.3983134
6.3983134
6.3983134
6.3983134
6.3983134
6.3983134
6.3983134
6.3983134
6.3983134
6.3983134
6.3983134
6.3983134
6.3983134
6.3983134
6.3983134
6.3983134
6.3983134
6.3983134
6.3983134
6.3983134
6.3983134
6.3983134
6.3983134
6.3983134
6.3983134
6.3983134
6.3983134
6.2858623
6.2858623
6.2858623
6.2858623
6.2858623
6.2858623
6.2858623
6.2858623
6.2858623
6.2858623
6.2858623
6.2858623
6.2858623
6.2858623
6.2858623
6.2858623
6.2858623
6.2858623
6.2858623
6.2858623
6.2858623
6.2858623
6.2858623
6.2858623
6.2858623
6.2858623
6.2858623
6.2858623
6.2858623
6.2858623
6.2858623
6.2858623
6.2858623
6.2858623
6.2858623
6.2858623
6.2858623
6.2858623
6.2858623
6.2858623
6.1734191
6.1734191
6.1734191
6.1734191
6.1734191
6.1734191
6.1734191
6.1734191
6.1734191
6.1734191
6.1734191
6.1734191
6.1734191
6.1734191
6.1734191
6.1734191
6.1734191
6.1734191
6.1734191
6.1734191
6.1734191
6.1734191
6.1734191
6.1734191
6.1734191
6.1734191
6.1734191
6.1734191
6.1734191
6.1734191
6.1734191
6.1734191
6.1734191
6.1734191
6.1734191
6.1734191
6.1734191
6.1734191
6.1734191
6.1734191
6.0609859
6.0609859
6.0609859
6.0609859
6.0609859
6.0609859
6.0609859
6.0609859
6.0609859
6.0609859
6.0609859
6.0609859
6.0609859
6.0609859
6.0609859
6.0609859
6.0609859
6.0609859
6.0609859
6.0609859
6.0609859
6.0609859
6.0609859
6.0609859
6.0609859
6.0609859
6.0609859
6.0609859
6.0609859
6.0609859
6.0609859
6.0609859
6.0609859
6.0609859
6.0609859
6.0609859
6.0609859
6.0609859
6.0609859
6.0609859
5.9485656
5.9485656
5.9485656
5.9485656
5.9485656
5.9485656
5.9485656
5.9485656
5.9485656
5.9485656
5.9485656
5.9485656
5.9485656
5.9485656
5.9485656
5.9485656
5.9485656
5.9485656
5.9485656
5.9485656
5.9485656
5.9485656
5.9485656
5.9485656
5.9485656
5.9485656
5.9485656
5.9485656
5.9485656
5.9485656
5.9485656
5.9485656
5.9485656
5.9485656
5.9485656
5.9485656
5.9485656
5.9485656
5.9485656
5.9485656
5.8361623
5.8361623
5.8361623
5.8361623
5.8361623
5.8361623
5.8361623
5.8361623
5.8361623
5.8361623
5.8361623
5.8361623
5.8361623
5.8361623
5.8361623
5.8361623
5.8361623
5.8361623
5.8361623
5.8361623
5.8361623
5.8361623
5.8361623
5.8361623
5.8361623
5.8361623
5.8361623
5.8361623
5.8361623