/*--------------------------------*- C++ -*----------------------------------*\
  =========                 |
  \\      /  F ield         | OpenFOAM: The Open Source CFD Toolbox
   \\    /   O peration     | Website:  https://openfoam.org
    \\  /    A nd           | Version:  11
     \\/     M anipulation  |
\*---------------------------------------------------------------------------*/
FoamFile
{
    format      ascii;
    class       volScalarField;
    location    "5";
    object      mag(U);
}
// * * * * * * * * * * * * * * * * * * * * * * * * * * * * * * * * * * * * * //

dimensions      [0 1 -1 0 0 0 0];

internalField   nonuniform List<scalar> 
9600
(
0.097352721
0.096767982
0.09664739
0.097444211
0.099055758
0.1003567
0.10091941
0.10124811
0.10146094
0.10159207
0.10167507
0.10173087
0.10177175
0.10180527
0.10183494
0.10186196
0.10188659
0.10190877
0.10192788
0.1019429
0.10195275
0.10195743
0.10195753
0.10195355
0.10194612
0.10193561
0.10192255
0.10190697
0.10188819
0.10186324
0.10183543
0.10178799
0.10175861
0.10163242
0.10165298
0.10132702
0.10136763
0.10016416
0.10122401
0.094051597
0.10209889
0.10294757
0.10301555
0.10201952
0.10132349
0.10090255
0.1004602
0.10021569
0.1000852
0.10000241
0.099946766
0.099911379
0.099894215
0.099888833
0.099890357
0.099896457
0.099905531
0.099916387
0.099927318
0.099936329
0.099942614
0.099945217
0.099944218
0.099941618
0.099938365
0.099934422
0.099930605
0.09992774
0.0999271
0.099927428
0.099932902
0.099930982
0.099955405
0.099935891
0.10001698
0.099966447
0.10028453
0.10016452
0.10056958
0.1024499
0.099563469
0.099798478
0.099542512
0.099207466
0.099417613
0.10011781
0.10052212
0.10086096
0.10114229
0.1013437
0.10148704
0.10159108
0.10167231
0.10173968
0.10179587
0.10184299
0.10188312
0.1019172
0.10194553
0.10196857
0.10198297
0.10198985
0.10199178
0.1019864
0.10197458
0.10195819
0.10193744
0.10191135
0.10187928
0.10183577
0.10178896
0.10170324
0.1016537
0.10146044
0.10140946
0.10104363
0.10089275
0.1001235
0.10019521
0.09919325
0.10233127
0.10257792
0.10245014
0.10187916
0.10172802
0.10157074
0.10116913
0.10089402
0.10069316
0.10052366
0.10039001
0.10028589
0.10020698
0.10015318
0.10011894
0.10009813
0.10008673
0.10008252
0.10008279
0.10008508
0.10008837
0.10009021
0.10009049
0.10009222
0.10009672
0.10010417
0.10011509
0.10012976
0.10015032
0.10017561
0.10021625
0.10025288
0.10034248
0.10038489
0.10056026
0.10064304
0.10097086
0.10106382
0.10148862
0.10247772
0.099977773
0.10006166
0.10010171
0.099743474
0.099825648
0.1002063
0.10038601
0.10062116
0.10085929
0.10105291
0.10120967
0.10133461
0.1014354
0.10152217
0.10159765
0.1016616
0.10171543
0.10176025
0.10179729
0.10182725
0.10184766
0.10185875
0.10186229
0.10185715
0.10184369
0.10182233
0.10179371
0.10175699
0.10171009
0.10164654
0.10157631
0.1014642
0.10137767
0.10117364
0.10106157
0.10070834
0.10055764
0.10001101
0.10006886
0.099446114
0.1017227
0.10194132
0.10189791
0.10157357
0.1015499
0.10154665
0.10136633
0.1011716
0.10102626
0.10087417
0.10073471
0.100614
0.10051108
0.10043061
0.10037221
0.10033053
0.10030141
0.10028271
0.1002722
0.10026797
0.10026959
0.10027301
0.1002763
0.10028293
0.10029496
0.10031164
0.1003334
0.10036068
0.10039682
0.10043923
0.10050215
0.1005593
0.10067304
0.10073889
0.10091654
0.1009957
0.10125622
0.10124725
0.10161304
0.10199417
0.10018738
0.10024879
0.10036171
0.1001328
0.10016526
0.10041579
0.10046911
0.10057956
0.10076026
0.10090903
0.10103902
0.1011543
0.10125377
0.10134193
0.10142278
0.10149414
0.10155513
0.10160637
0.10164903
0.10168466
0.1017105
0.10172616
0.10173324
0.10172917
0.10171382
0.10168841
0.10165364
0.10160734
0.10154977
0.1014757
0.10139381
0.10127751
0.10117687
0.10099874
0.10087742
0.10059297
0.10051016
0.10012924
0.1002311
0.099871074
0.10127146
0.10151638
0.1015569
0.10138273
0.10136211
0.10142164
0.10135846
0.10124386
0.10116487
0.10106132
0.10095253
0.10084932
0.10075339
0.10067144
0.10060757
0.10055889
0.10052211
0.10049614
0.10047984
0.10047267
0.10047489
0.10048073
0.10048651
0.10049646
0.1005125
0.10053353
0.10056003
0.10059276
0.10063471
0.10068198
0.10074786
0.10080684
0.10090577
0.10097022
0.10108766
0.10112176
0.10129052
0.10120638
0.10146466
0.10157153
0.1004177
0.10048016
0.10059811
0.1004505
0.10042776
0.10060562
0.10062765
0.10066493
0.10078054
0.10088578
0.10097573
0.10106301
0.10114291
0.10121948
0.10129424
0.1013631
0.1014236
0.10147567
0.10151999
0.10155827
0.10158856
0.10160857
0.10161808
0.10161464
0.10159846
0.10157148
0.10153423
0.10148551
0.10142659
0.10135255
0.10127419
0.10116808
0.10108161
0.10093595
0.10084186
0.10063381
0.10059692
0.10033296
0.10044749
0.10024632
0.10105184
0.10125192
0.10136121
0.1012492
0.1012291
0.10130105
0.10129212
0.10123796
0.10120794
0.10114984
0.10107758
0.10100218
0.10092771
0.10086255
0.10081015
0.10076739
0.10073286
0.10070728
0.10069085
0.10068485
0.10068942
0.10069745
0.10070515
0.10071618
0.10073233
0.10075286
0.10077816
0.10080858
0.10084641
0.10088741
0.10094116
0.10098795
0.10105505
0.10109738
0.101159
0.10114407
0.10123732
0.10112326
0.10129264
0.10129912
0.10062491
0.10067788
0.10079368
0.10068622
0.10063707
0.10076936
0.10078734
0.10079386
0.10085094
0.1009329
0.10098793
0.10104315
0.10110046
0.10116165
0.10122414
0.10128336
0.10133692
0.1013846
0.10142663
0.10146447
0.10149713
0.10152021
0.10153078
0.10152789
0.10151266
0.101487
0.10145191
0.10140672
0.10135349
0.10128864
0.10122264
0.10113739
0.10107029
0.10096328
0.10089546
0.10074458
0.10073151
0.10054782
0.10065002
0.10054397
0.10095152
0.1010872
0.10124844
0.10116656
0.10114143
0.10122442
0.1012459
0.10121753
0.10121588
0.10119307
0.10114954
0.10110054
0.10105355
0.10101345
0.10097923
0.10095047
0.1009256
0.10090627
0.100894
0.10089186
0.10090013
0.10091078
0.10091974
0.10092994
0.10094331
0.10095939
0.1009787
0.1010012
0.10102837
0.101056
0.10109129
0.10111809
0.10115641
0.1011678
0.1011904
0.10114495
0.10118605
0.10107026
0.1011786
0.10115436
0.10077828
0.10082362
0.10094432
0.1008723
0.10080998
0.10090455
0.10093444
0.1009293
0.10095206
0.10101226
0.10104406
0.10107441
0.10111589
0.10116356
0.10121217
0.10125889
0.10130226
0.10134251
0.10137967
0.10141518
0.10144826
0.10147248
0.10148332
0.10148099
0.10146782
0.10144571
0.10141565
0.10137738
0.10133353
0.1012814
0.10123001
0.10116684
0.10111622
0.10104371
0.10099264
0.10087831
0.10087232
0.10073957
0.10082055
0.10076682
0.10093234
0.10101738
0.10120123
0.10114298
0.10110804
0.10118396
0.101233
0.10121311
0.1012197
0.10122063
0.10119944
0.1011772
0.10115856
0.10114129
0.10112418
0.10110931
0.10110218
0.10109645
0.1010894
0.10108861
0.10109574
0.10111256
0.10112377
0.101132
0.10114075
0.10115024
0.10116102
0.1011727
0.10118647
0.10119832
0.10121431
0.10122085
0.10123514
0.10122518
0.1012239
0.10115501
0.10116368
0.10105733
0.10112399
0.10109233
0.10089022
0.10094103
0.10106567
0.10102477
0.10096345
0.10102574
0.10107185
0.10106214
0.10106988
0.10110169
0.10112396
0.10114737
0.10118027
0.10121623
0.10125246
0.10128811
0.10132205
0.10135441
0.10138529
0.10141665
0.10144907
0.10147397
0.10148433
0.10148226
0.10147155
0.10145351
0.10142906
0.1013982
0.10136371
0.10132316
0.1012846
0.10123752
0.10120028
0.10114955
0.1011082
0.10101313
0.10100445
0.10090301
0.10095931
0.10092909
0.10095894
0.10101494
0.10118874
0.10116452
0.10112025
0.10117823
0.1012499
0.10123588
0.10123477
0.10125229
0.10125943
0.10126167
0.10126331
0.10126375
0.10126286
0.10126155
0.10126069
0.10126185
0.10126555
0.10127573
0.10129317
0.10130863
0.10131833
0.10132412
0.1013275
0.10132964
0.10133117
0.10133161
0.10133206
0.101329
0.10132821
0.10131771
0.10131404
0.10129029
0.10127269
0.1011915
0.10117651
0.10108195
0.10112021
0.10108837
0.1009799
0.10102196
0.10116682
0.10115158
0.10109665
0.10113501
0.10119977
0.10119022
0.10119178
0.10121218
0.10123462
0.10125599
0.10128328
0.10131175
0.10133991
0.1013676
0.10139427
0.10142065
0.10144689
0.10147521
0.10150624
0.10153016
0.10153924
0.10153707
0.10152831
0.1015135
0.10149343
0.10146826
0.10144056
0.10140785
0.10137749
0.10133955
0.10131014
0.10126767
0.10123263
0.10114675
0.10112743
0.10104238
0.10107387
0.10105616
0.10101868
0.1010548
0.10121862
0.10122315
0.10118735
0.10121877
0.10130469
0.10129926
0.10129543
0.10132223
0.10134539
0.10136296
0.10137893
0.10139287
0.10140455
0.10141469
0.10142374
0.10143354
0.10144491
0.1014614
0.10148321
0.10150064
0.10151002
0.10151303
0.10151135
0.1015067
0.10149981
0.10149014
0.10147923
0.10146361
0.10144956
0.10142574
0.10140886
0.1013719
0.10134504
0.10125981
0.10122809
0.10113602
0.10115318
0.10112346
0.1010602
0.10108794
0.10124661
0.1012637
0.10123017
0.10124859
0.10132974
0.10132871
0.1013232
0.10134678
0.10137601
0.10140003
0.10142501
0.10145026
0.10147486
0.1014986
0.10152136
0.1015442
0.10156731
0.10159328
0.10162282
0.10164526
0.10165316
0.1016507
0.10164249
0.10162893
0.10161081
0.10158822
0.10156334
0.10153387
0.1015064
0.10147075
0.10144415
0.10140037
0.10136806
0.10128517
0.10125137
0.10116635
0.10117746
0.10115431
0.10110725
0.10112883
0.10128506
0.10132076
0.10129583
0.10131124
0.10139762
0.10140953
0.10140526
0.10143504
0.10146989
0.10149771
0.1015234
0.10154726
0.10156861
0.10158782
0.10160515
0.1016222
0.10163965
0.10166073
0.10168557
0.10170441
0.10171272
0.10171255
0.10170647
0.10169605
0.10168197
0.10166391
0.10164364
0.10161792
0.10159374
0.10155902
0.10153313
0.10148523
0.10145264
0.10136542
0.10132309
0.10122799
0.10123171
0.1012034
0.10116114
0.10117776
0.10132924
0.10138589
0.10136925
0.10138177
0.10146621
0.10148948
0.10148493
0.10151236
0.10154971
0.10157971
0.10160828
0.10163574
0.10166136
0.10168548
0.10170789
0.10172991
0.10175205
0.10177699
0.10180514
0.10182572
0.10183253
0.10182938
0.1018201
0.10180556
0.10178646
0.10176275
0.10173677
0.10170521
0.10167596
0.10163613
0.10160743
0.10155523
0.10152094
0.10143499
0.10138874
0.10128839
0.10128627
0.10125741
0.10121866
0.10123304
0.10137873
0.10145955
0.10145193
0.10146448
0.10154622
0.10158605
0.10158307
0.10161154
0.10165274
0.10168707
0.10171934
0.10174997
0.10177821
0.10180406
0.10182741
0.10184995
0.10187186
0.10189607
0.10192275
0.10194183
0.10194825
0.10194481
0.10193477
0.10191917
0.10189885
0.10187351
0.10184557
0.10181123
0.10177939
0.10173451
0.10170303
0.10164436
0.10160747
0.10151844
0.1014676
0.10135713
0.10134842
0.10131817
0.10128932
0.10130239
0.10144087
0.1015481
0.10154862
0.10156262
0.10163988
0.10169914
0.10169896
0.10172843
0.10177166
0.10180935
0.10184479
0.10187853
0.10190952
0.10193792
0.10196379
0.1019882
0.10201183
0.10203736
0.10206433
0.10208296
0.10208826
0.10208322
0.10207119
0.10205315
0.1020301
0.10200129
0.10196991
0.10193098
0.10189591
0.1018452
0.10181098
0.10174512
0.10170534
0.10161315
0.10155815
0.10143602
0.10141827
0.10138639
0.10138032
0.101393
0.10151725
0.10164918
0.1016609
0.1016772
0.10174958
0.10183315
0.10183934
0.10186914
0.10191361
0.1019548
0.10199373
0.10203087
0.10206499
0.10209617
0.10212393
0.10215
0.10217523
0.1022014
0.10222782
0.10224552
0.10224983
0.10224341
0.10222937
0.10220866
0.10218254
0.10214994
0.10211496
0.10207066
0.10203175
0.10197388
0.10193692
0.10186348
0.10182009
0.10172389
0.10166499
0.10153017
0.10149997
0.10146568
0.10147302
0.10148921
0.10159912
0.10175789
0.10178214
0.10180705
0.10187318
0.101986
0.10200431
0.10203308
0.10208029
0.10212414
0.10216549
0.10220596
0.10224412
0.10227909
0.10231069
0.1023399
0.10236677
0.10239343
0.10241963
0.10243656
0.10243968
0.10243146
0.10241504
0.10239123
0.10236146
0.10232396
0.10228476
0.10223409
0.10219146
0.10212476
0.10208415
0.10200154
0.10195387
0.10185209
0.10178952
0.10164332
0.1015977
0.10156118
0.10158041
0.10160319
0.10170442
0.10189047
0.10193199
0.1019663
0.10202629
0.10215488
0.10218972
0.10222588
0.10228243
0.10233123
0.10237427
0.10241866
0.10246155
0.10250022
0.10253467
0.10256624
0.10259518
0.10262303
0.10264794
0.10266236
0.10266363
0.10265354
0.10263459
0.10260706
0.10257335
0.10253075
0.10248654
0.10242815
0.10238072
0.10230425
0.10225881
0.10216668
0.10211292
0.10200547
0.101938
0.10177702
0.1017104
0.10167257
0.10171398
0.1017448
0.10183508
0.10204458
0.10211373
0.10215761
0.1022174
0.10235522
0.10241358
0.10245752
0.10252194
0.10258089
0.10262826
0.10267155
0.10271506
0.102757
0.10279502
0.10282916
0.1028603
0.10288993
0.10291683
0.10293395
0.10293599
0.10292407
0.10290175
0.10286903
0.10282964
0.1027787
0.10272863
0.10265883
0.10260588
0.10251726
0.10246257
0.10236382
0.10230001
0.1021865
0.10211522
0.10195134
0.1018482
0.10180545
0.10187384
0.10191244
0.10199798
0.10221629
0.10232278
0.10237897
0.1024442
0.10258856
0.10267097
0.10272473
0.1028004
0.10287474
0.10293715
0.10299153
0.10304052
0.10308688
0.10313095
0.10317081
0.1032046
0.10323274
0.10325189
0.10325752
0.10325137
0.10323463
0.10320799
0.10317059
0.10312673
0.10306886
0.1030139
0.10293358
0.10287583
0.10277162
0.10271375
0.10259608
0.10252822
0.1024
0.10231951
0.1021482
0.10201561
0.10196245
0.10205137
0.10210541
0.10219371
0.10241947
0.10257155
0.10264736
0.10272022
0.1028715
0.10297498
0.10303815
0.10312183
0.10320806
0.10328139
0.1033445
0.10340001
0.10344869
0.10349313
0.10353543
0.10357602
0.10361275
0.10364358
0.10366499
0.10366986
0.1036561
0.10362772
0.10358422
0.10353214
0.1034626
0.1033959
0.10329919
0.10322841
0.10310549
0.10303422
0.10289487
0.10281629
0.10266545
0.10257246
0.10239306
0.10222886
0.10215491
0.10229206
0.10236441
0.10246043
0.10268436
0.10288493
0.10299364
0.10308223
0.10325104
0.10338561
0.10347041
0.10357424
0.10368612
0.10378476
0.10387023
0.10394479
0.10400815
0.10406046
0.10410339
0.10413649
0.10415937
0.10416761
0.10415753
0.1041361
0.10410473
0.10406278
0.10400642
0.10394291
0.10386119
0.10378318
0.10367419
0.10359154
0.1034551
0.10337028
0.10321501
0.10312632
0.10295402
0.10284788
0.10266389
0.10246758
0.10236125
0.10248793
0.1026013
0.10270341
0.10293182
0.10317483
0.10331876
0.1034188
0.1036112
0.10376638
0.10386239
0.10397474
0.10410213
0.10421843
0.10432055
0.10441214
0.10449322
0.10456431
0.10462624
0.10468158
0.10473001
0.1047706
0.10480321
0.10481718
0.10480381
0.10476857
0.10471158
0.10464218
0.10454735
0.10445441
0.10432353
0.10421956
0.10405474
0.10394744
0.10375745
0.10364772
0.10344223
0.10330529
0.10311369
0.1028847
0.10275051
0.10300614
0.10313933
0.10326769
0.10351023
0.10380585
0.1040039
0.10413839
0.10436808
0.10457548
0.10470737
0.10484628
0.10500644
0.10515602
0.10528557
0.10539796
0.10549302
0.10556806
0.10562307
0.1056564
0.1056686
0.10565773
0.10562056
0.10556749
0.10550484
0.10543158
0.10533919
0.10523764
0.10511057
0.10498993
0.10482668
0.10469794
0.10449756
0.10436885
0.10413651
0.10400449
0.10375942
0.10358485
0.10335189
0.10309697
0.10287048
0.10290124
0.10308868
0.1033293
0.10360296
0.10396317
0.10422077
0.1043948
0.10467397
0.10494799
0.1051254
0.10529475
0.10549391
0.10569013
0.10586668
0.10602772
0.10617388
0.10630426
0.10641742
0.10651476
0.10659751
0.10666396
0.10671831
0.10675208
0.10674566
0.10670417
0.10662833
0.10653575
0.10640359
0.10627636
0.10608786
0.10594529
0.10570365
0.1055588
0.10528218
0.10512033
0.10485996
0.10463019
0.10440799
0.10413046
0.10392816
0.10445723
0.10469178
0.10483067
0.10509469
0.10552653
0.10587768
0.10607624
0.10637142
0.10671971
0.10696048
0.10715443
0.10737643
0.10760242
0.10780169
0.10797222
0.10811628
0.10822861
0.10830642
0.10834689
0.10834743
0.1083073
0.10822355
0.10810536
0.10797035
0.10782629
0.10765354
0.10747284
0.10724461
0.10704249
0.10675576
0.10655192
0.10620664
0.10600136
0.10563077
0.10538055
0.10505292
0.10472289
0.10439531
0.10405996
0.10343547
0.10323734
0.10347034
0.10403023
0.10453215
0.10504962
0.10555872
0.1058871
0.10628512
0.10680222
0.10722205
0.10755036
0.10789433
0.10825524
0.1085939
0.10890515
0.10919275
0.10945386
0.10968593
0.10988626
0.11005598
0.11019909
0.11030055
0.11037537
0.1103949
0.11036163
0.1102442
0.11013519
0.10991884
0.10977376
0.10944841
0.10927175
0.1088709
0.10864089
0.10824474
0.10791227
0.10758091
0.10719029
0.10686005
0.10654104
0.10624297
0.10736935
0.10795757
0.10817847
0.10841245
0.10881291
0.1095568
0.11007602
0.11041066
0.11092241
0.11147084
0.11187385
0.11221709
0.11256699
0.11288543
0.1131459
0.11335415
0.11351388
0.11361379
0.11365148
0.1136242
0.11352255
0.1133562
0.11314162
0.11284561
0.11257606
0.11220837
0.11192807
0.11146139
0.11116902
0.11062013
0.11027892
0.1097118
0.1092477
0.10873562
0.1081498
0.10762447
0.10706511
0.1064648
0.10591709
0.10475081
0.10347227
0.10403732
0.10535662
0.10646712
0.1072623
0.10809873
0.10891824
0.10963137
0.11051825
0.11154763
0.11245724
0.11324377
0.114007
0.11472831
0.11536056
0.11591507
0.11641407
0.11685596
0.11725372
0.11756811
0.11786773
0.11805945
0.11824641
0.1182766
0.11836763
0.11812274
0.1180872
0.11762328
0.11752588
0.11692802
0.11668674
0.11603742
0.11562861
0.11494225
0.11447168
0.11371077
0.11322929
0.11250649
0.11202854
0.1114435
0.11627068
0.1173599
0.1178846
0.11867806
0.11965098
0.12059222
0.1216964
0.1227596
0.12346345
0.12404388
0.1247172
0.12527897
0.12563111
0.12584272
0.12599081
0.12603437
0.12600953
0.12589975
0.12576519
0.12552797
0.12526774
0.12482147
0.12446906
0.12380035
0.12334149
0.12257609
0.1220638
0.12131899
0.12059886
0.11996724
0.11904533
0.11848902
0.11748567
0.11682568
0.11578851
0.11502419
0.11391652
0.11310699
0.11191064
0.11055473
0.10820459
0.1106913
0.116085
0.11944696
0.12158802
0.12348355
0.12533852
0.12719181
0.12884188
0.13032065
0.13170824
0.13301916
0.13406997
0.13497015
0.13582972
0.1365651
0.13733036
0.13774393
0.13842435
0.13861144
0.13937516
0.13930931
0.14008269
0.13968397
0.14019688
0.13929953
0.13939349
0.13813486
0.13794815
0.13635206
0.13599103
0.13401009
0.1334864
0.13110546
0.13038846
0.12764903
0.12668003
0.12361788
0.12222916
0.11702524
0.18028322
0.17544617
0.16587652
0.16098689
0.15855761
0.15626673
0.15365174
0.15085068
0.14785633
0.14532187
0.14257542
0.14073129
0.13846337
0.13733581
0.13527715
0.13507149
0.13299106
0.13296552
0.13108684
0.13157406
0.13018476
0.13090797
0.12967277
0.13070425
0.12976537
0.13146613
0.1310741
0.13334358
0.13346812
0.13622522
0.13665484
0.13990921
0.14065431
0.14423213
0.14519454
0.14919113
0.15018842
0.15458025
0.15486854
0.16033802
0.099960246
0.10062709
0.10103973
0.10091468
0.10085522
0.10076354
0.10075651
0.10073395
0.10072857
0.10070462
0.10064338
0.10062548
0.10061768
0.10059888
0.10056956
0.1005357
0.10048396
0.10041091
0.10032719
0.10022718
0.10010775
0.099969336
0.099812668
0.099642866
0.099470095
0.099304578
0.099158733
0.099038466
0.098949965
0.098925958
0.098902187
0.099043733
0.099058638
0.09940031
0.0992407
0.099832947
0.099403037
0.10029381
0.099457006
0.099121369
0.10193997
0.10123461
0.10107015
0.10089841
0.10081704
0.10077449
0.1007608
0.10073941
0.10074038
0.10070489
0.1006535
0.1006276
0.10062538
0.10060509
0.10057262
0.10053493
0.10047596
0.10040063
0.10031477
0.10020991
0.10008472
0.099941062
0.099777849
0.099600901
0.099420012
0.099242251
0.099085463
0.098960655
0.098882757
0.09885698
0.09885386
0.098965503
0.099020754
0.09928842
0.09921526
0.099745101
0.099413126
0.10029627
0.099669322
0.10084377
0.10026777
0.10080215
0.10085634
0.10085406
0.10081224
0.10077613
0.10075662
0.10074695
0.10075212
0.1007401
0.10070491
0.10066006
0.10065308
0.10064145
0.1006101
0.1005718
0.10051401
0.10044078
0.10035153
0.10024004
0.10010611
0.09994915
0.099773397
0.099583226
0.099389868
0.09920244
0.099039086
0.0989055
0.098819982
0.098787225
0.098790107
0.098892956
0.098991908
0.099221903
0.099230904
0.099681935
0.099429892
0.10024592
0.099604448
0.10057658
0.10148337
0.10110723
0.10089995
0.1008716
0.10083422
0.10079343
0.10077478
0.10077498
0.10078391
0.10074466
0.10071972
0.10066968
0.10065761
0.10064683
0.10061077
0.10056068
0.10049581
0.10041892
0.10032288
0.1002002
0.10005458
0.09988631
0.099703978
0.09950913
0.099310939
0.09911902
0.098954095
0.098821798
0.098734835
0.098705996
0.098726203
0.098821272
0.09894215
0.099132218
0.099211827
0.099614723
0.099419737
0.10026096
0.099692205
0.10127249
0.1002205
0.10076342
0.10081772
0.10085253
0.10084813
0.10080088
0.10077803
0.1007921
0.10078987
0.10077139
0.10074513
0.1006914
0.10068366
0.10067209
0.10063104
0.10058383
0.1005223
0.10043915
0.10033257
0.10020379
0.10005483
0.099883029
0.099690533
0.099481424
0.099268779
0.099062142
0.098879125
0.098734287
0.098652431
0.09862349
0.098651185
0.09875246
0.098891485
0.099083345
0.09921547
0.099586967
0.099405985
0.10026905
0.09965771
0.10085046
0.10125223
0.10105057
0.10089416
0.10089361
0.10086781
0.10080857
0.10078302
0.10080014
0.10081003
0.10078885
0.1007597
0.10070557
0.10069497
0.10067242
0.10062349
0.10057022
0.1005011
0.10041361
0.10030358
0.10016829
0.10000803
0.099823238
0.099619886
0.099402773
0.099183095
0.098971645
0.098790924
0.098649042
0.098556119
0.098531336
0.098566777
0.098671593
0.098825166
0.099000433
0.099169959
0.099515809
0.09940129
0.1003089
0.099740426
0.10145643
0.10033574
0.1007741
0.10084691
0.10088268
0.10087097
0.10079832
0.10079366
0.10083255
0.10084153
0.1008216
0.10078472
0.10072276
0.10071618
0.10069269
0.10064561
0.10059115
0.10051898
0.10042371
0.10030327
0.10015685
0.099988171
0.099795817
0.099582446
0.099352517
0.099118822
0.098893953
0.09869547
0.098541691
0.098454718
0.09843342
0.09847695
0.098593686
0.098763301
0.098953176
0.099177217
0.09950092
0.099397134
0.10031555
0.099680405
0.10097502
0.10109243
0.10100493
0.10092677
0.10092241
0.10088938
0.10080202
0.10080252
0.10084605
0.10085389
0.10083051
0.10079452
0.10072931
0.10071845
0.10069194
0.10064078
0.10058149
0.10050256
0.10040141
0.1002761
0.10012525
0.099947383
0.099743064
0.099516633
0.099274841
0.09902989
0.098795421
0.098593221
0.098438577
0.098343388
0.098325736
0.09837538
0.098501214
0.098681828
0.098879114
0.099145061
0.099442858
0.099374684
0.10033772
0.099812349
0.1014422
0.10050296
0.1008246
0.10090057
0.10091127
0.10089827
0.10081149
0.10081384
0.10086471
0.10088239
0.10085611
0.10081822
0.10075343
0.10074667
0.10071791
0.10066155
0.10059556
0.10051083
0.10040163
0.10026556
0.1001026
0.09991328
0.0996974
0.099458119
0.099202609
0.098943137
0.098695876
0.098479656
0.098315865
0.09822203
0.098208606
0.098266447
0.09840579
0.098599986
0.098823017
0.099122871
0.099421562
0.099355033
0.10035254
0.099748787
0.10103855
0.10101135
0.10098531
0.10096998
0.10095704
0.10094173
0.10086659
0.10085362
0.10086745
0.10089243
0.10087012
0.10082898
0.10076988
0.10075766
0.1007213
0.10066128
0.10059021
0.10049881
0.10038232
0.1002412
0.10007071
0.099870414
0.099641455
0.099387316
0.099116869
0.098842608
0.098582278
0.098356772
0.098187949
0.098089685
0.09808019
0.098145491
0.098297477
0.098504175
0.098752697
0.099065911
0.099377221
0.099325147
0.10036821
0.09990354
0.10134895
0.10066646
0.10088185
0.10095141
0.10095825
0.10095981
0.10089562
0.10088041
0.10088714
0.10090664
0.10089795
0.10086034
0.10080623
0.10078049
0.1007405
0.10067668
0.10059798
0.10049858
0.10037408
0.10022134
0.10003886
0.099825795
0.099582321
0.09931231
0.099025393
0.098734585
0.098459597
0.098220983
0.098043867
0.09794428
0.09793915
0.098013674
0.098180281
0.098403589
0.098681955
0.099012592
0.099349194
0.099314748
0.10034488
0.09983058
0.10106283
0.10099063
0.10099122
0.10101812
0.10101059
0.10100711
0.10095374
0.10091802
0.10092504
0.10092588
0.10091552
0.10088227
0.10082678
0.1007865
0.1007465
0.1006813
0.10059635
0.10048885
0.10035595
0.10019516
0.10000214
0.099775491
0.099515919
0.099228377
0.098923212
0.098614441
0.098323263
0.098071911
0.097887044
0.097784576
0.097783831
0.097868306
0.09804982
0.09829168
0.098596228
0.098946153
0.099307825
0.099308304
0.10035542
0.10000377
0.10122194
0.10081375
0.10092966
0.10101327
0.10101776
0.10102239
0.10098623
0.10095324
0.10093983
0.10094629
0.10093179
0.10089978
0.10084921
0.10080679
0.10076162
0.10069279
0.10059843
0.10048282
0.100341
0.10016813
0.099961809
0.099719408
0.099442513
0.099135604
0.098810342
0.098481944
0.09817283
0.097906992
0.097712906
0.097608259
0.097612474
0.097708066
0.097906362
0.098169199
0.098501956
0.098878255
0.099258824
0.099309083
0.1003285
0.099957792
0.10103038
0.10099976
0.10100714
0.10107785
0.10107755
0.10107379
0.10103558
0.10098566
0.10097062
0.10096641
0.10093187
0.10091202
0.10086797
0.10082241
0.10076979
0.10069533
0.10059663
0.1004732
0.10032126
0.10013724
0.099916238
0.099657481
0.099360802
0.099032259
0.098684773
0.098334668
0.098005636
0.097724208
0.097520319
0.097413139
0.097422589
0.09753091
0.0977476
0.098033947
0.098394976
0.098803237
0.099194971
0.099313261
0.10032676
0.10009209
0.10110275
0.10092736
0.10097338
0.10108196
0.10108473
0.10108406
0.10106456
0.10101834
0.10099608
0.10097844
0.10095493
0.10093163
0.1008833
0.10083686
0.1007794
0.10069909
0.10059622
0.10046458
0.10030119
0.10010304
0.099865462
0.099587332
0.099268835
0.098916756
0.098544668
0.098170539
0.097819455
0.097520694
0.097306129
0.097196382
0.097211764
0.097334407
0.097571501
0.09788456
0.09827423
0.098726953
0.099119366
0.099298514
0.10025797
0.10008365
0.10094832
0.10102902
0.10104739
0.10114069
0.10114306
0.10113637
0.10111559
0.10106017
0.10102231
0.10100351
0.10097789
0.10094989
0.10091104
0.10086166
0.10079062
0.10070241
0.10059344
0.10045416
0.10027777
0.100064
0.099808297
0.099508509
0.099165988
0.098787156
0.098387658
0.097986975
0.097611109
0.097293226
0.097067109
0.096954788
0.096976908
0.09711558
0.097375362
0.097718969
0.098136702
0.098641448
0.099035972
0.099301058
0.10022073
0.10014668
0.10094527
0.10101173
0.10103326
0.10113791
0.10115425
0.10115065
0.10114544
0.10109294
0.10104999
0.10103177
0.10100159
0.1009738
0.10092239
0.10088007
0.10080138
0.10070761
0.10059129
0.10044089
0.10025064
0.10001979
0.099743346
0.099419446
0.099049285
0.09864109
0.098211183
0.097780831
0.09737711
0.097037701
0.096799077
0.096684473
0.096714375
0.096871251
0.097156477
0.097533247
0.097980765
0.098541706
0.098942561
0.09929182
0.10015637
0.10014927
0.10084486
0.10108195
0.10109515
0.10118232
0.10120514
0.10120132
0.10119803
0.10114286
0.10109787
0.10105757
0.101039
0.100998
0.10095726
0.1009026
0.10082246
0.10071778
0.10058911
0.10042347
0.10021813
0.0999693
0.099668989
0.099318157
0.098916938
0.098475642
0.098011718
0.09754799
0.097113283
0.096749317
0.09649726
0.096380683
0.09642029
0.096597595
0.096911929
0.097324688
0.097805623
0.098422367
0.098843427
0.099283759
0.10009807
0.10016504
0.1007837
0.10110842
0.1011175
0.10119683
0.10123381
0.10123219
0.1012325
0.10119539
0.1011262
0.10110073
0.10106906
0.10103317
0.10098968
0.10092185
0.10083882
0.10072826
0.100583
0.10040192
0.10017974
0.099910365
0.099583799
0.099201926
0.098765493
0.098286593
0.097784877
0.097283654
0.096814276
0.096422899
0.096155816
0.096037638
0.096089726
0.096289863
0.096638001
0.097090933
0.097611723
0.098285723
0.098727601
0.099262861
0.10003395
0.10015903
0.10070876
0.10115893
0.10116538
0.10123402
0.10127675
0.10127497
0.10128383
0.10124651
0.10118771
0.10114586
0.10111224
0.10107638
0.10101842
0.10095246
0.10085591
0.10074024
0.10057993
0.10038046
0.10013728
0.099841497
0.099484912
0.0990678
0.098592285
0.098071412
0.097527664
0.096982734
0.096473191
0.096051693
0.095767472
0.095648624
0.095715522
0.095942728
0.096329815
0.096829087
0.0973958
0.0981316
0.098598227
0.099227745
0.099970667
0.10014256
0.1006365
0.10120817
0.10120992
0.10127036
0.10131988
0.10132173
0.10133138
0.10131579
0.1012489
0.10119695
0.10117171
0.10111012
0.1010663
0.10097909
0.10088255
0.10074721
0.10057628
0.10035479
0.10008847
0.099760092
0.09936898
0.098912824
0.098394618
0.097829456
0.097238546
0.096641387
0.096082111
0.095626107
0.095323594
0.095206039
0.095289456
0.095550786
0.095981592
0.096534185
0.097152076
0.097954374
0.098456859
0.099178855
0.099906187
0.10011516
0.10056325
0.10126598
0.10126081
0.10131838
0.10137315
0.10137388
0.10138801
0.10138294
0.10131756
0.101272
0.10121707
0.1011724
0.10110693
0.10101562
0.1009112
0.10075491
0.10056332
0.10032399
0.10003007
0.099664975
0.099234651
0.098733525
0.098168599
0.097552692
0.096901649
0.096247816
0.095630767
0.095133435
0.094813038
0.09469927
0.09480319
0.095106181
0.095587054
0.0961998
0.096877678
0.097751378
0.098304364
0.099113675
0.099835176
0.10007302
0.1004885
0.10133158
0.1013189
0.10137667
0.10143583
0.10143476
0.10145048
0.10145494
0.10141431
0.10134208
0.10129751
0.10122901
0.10115802
0.10105904
0.10093321
0.10076486
0.10054469
0.10029007
0.099957084
0.099550555
0.099077618
0.098524525
0.09790336
0.097210695
0.096478034
0.095766151
0.09510353
0.094560651
0.094221071
0.094113981
0.094245558
0.09459837
0.095139467
0.09582082
0.096571509
0.097520419
0.098142582
0.099033297
0.099747491
0.10001832
0.10041129
0.10140919
0.10139163
0.10144798
0.10151314
0.10150703
0.10151978
0.10154003
0.10150567
0.10144058
0.10137346
0.10129464
0.10122309
0.10109292
0.10096978
0.10076434
0.10053595
0.10024336
0.099860382
0.099414641
0.098896582
0.098280476
0.097580794
0.0967781
0.095961449
0.095171982
0.09447852
0.09389533
0.093532366
0.093435584
0.093602247
0.094015077
0.09463091
0.095392021
0.096229015
0.097255498
0.097966504
0.098928329
0.099643449
0.099963772
0.10033533
0.10150294
0.10148282
0.10153402
0.10160753
0.10159376
0.10160189
0.10162834
0.10161562
0.10155235
0.10146624
0.10138943
0.10127653
0.10115589
0.100997
0.10076953
0.10052282
0.10018197
0.099754696
0.099271673
0.098695494
0.097995724
0.09718793
0.096284684
0.095379417
0.094499287
0.093732921
0.093115406
0.092726409
0.092641898
0.092855692
0.093342037
0.094050189
0.094903418
0.095843925
0.096951697
0.097778223
0.098797436
0.099520121
0.099899255
0.10027491
0.10161247
0.10159241
0.10163447
0.10171957
0.10169989
0.10169319
0.10172879
0.10173141
0.10167692
0.10158409
0.10147926
0.10135528
0.10121686
0.10101998
0.10078579
0.10048866
0.10010695
0.099635282
0.099107862
0.098453141
0.097660403
0.096742677
0.095770808
0.094716686
0.093729064
0.092840571
0.09217913
0.091772393
0.091705676
0.091983124
0.09256023
0.093383215
0.094346146
0.095411542
0.096602114
0.097583218
0.098649459
0.099367219
0.099813563
0.10023362
0.10173874
0.10172352
0.10175539
0.10185413
0.10183095
0.10180282
0.10183921