/*--------------------------------*- C++ -*----------------------------------*\
  =========                 |
  \\      /  F ield         | OpenFOAM: The Open Source CFD Toolbox
   \\    /   O peration     | Website:  https://openfoam.org
    \\  /    A nd           | Version:  11
     \\/     M anipulation  |
\*---------------------------------------------------------------------------*/
FoamFile
{
    format      ascii;
    class       volVectorField;
    location    "5";
    object      U;
}
// * * * * * * * * * * * * * * * * * * * * * * * * * * * * * * * * * * * * * //

dimensions      [0 1 -1 0 0 0 0];

internalField   nonuniform List<vector> 
9600
(
(0.097335409 0.0018358826 3.0201487e-23)
(0.09676768 0.00024180892 -1.490214e-23)
(0.096589787 -0.0033363119 0)
(0.097333385 -0.0046461108 -9.440275e-24)
(0.098952428 -0.0045233018 1.5378347e-24)
(0.10028667 -0.0037485897 7.9041937e-24)
(0.10087364 -0.0030392553 0)
(0.10121669 -0.0025222331 0)
(0.10143833 -0.002141678 0)
(0.1015753 -0.0018458144 0)
(0.10166238 -0.0016060867 0)
(0.10172113 -0.0014073484 0)
(0.10176425 -0.0012353465 0)
(0.10179953 -0.0010810782 0)
(0.10183061 -0.00093952651 1.106146e-24)
(0.10185876 -0.0008074392 -1.106146e-24)
(0.10188431 -0.00068219557 0)
(0.10190722 -0.00056185805 -4.3707965e-25)
(0.10192691 -0.00044468282 4.3707965e-25)
(0.10194237 -0.00032991586 0)
(0.10195252 -0.00021679055 0)
(0.10195738 -0.00010427901 0)
(0.10195753 7.4386534e-06 -5.8893575e-25)
(0.10195348 0.00011895063 3.5134091e-26)
(0.10194586 0.00023152375 2.9021563e-26)
(0.10193502 0.00034605004 5.2478005e-25)
(0.1019215 0.00046351479 -9.6323485e-25)
(0.10190529 0.00058506719 9.6323481e-25)
(0.1018857 0.00071231751 0)
(0.10185971 0.00084753164 0)
(0.10183057 0.00099509906 0)
(0.10178146 0.0011533154 0)
(0.10174975 0.0013431657 0)
(0.10162097 0.0015255102 0)
(0.10163655 0.0018276682 -2.2195614e-24)
(0.1013062 0.0020541915 2.2186894e-24)
(0.10133037 0.0027482493 0)
(0.10012141 0.0029260464 0)
(0.10110696 0.0048665878 5.2157076e-24)
(0.093814647 0.0066719451 -5.2222603e-24)
(0.10209885 -9.3099513e-05 5.6676093e-24)
(0.10294755 -6.2619671e-05 -5.004476e-24)
(0.10301509 0.00030795121 -9.4106373e-25)
(0.10201078 0.0013354762 4.1703113e-24)
(0.10130113 0.0021284393 0)
(0.10087346 0.0024227824 0)
(0.10043147 0.0024022243 0)
(0.10019115 0.0022178114 -5.1925283e-24)
(0.10006516 0.0020025198 5.1925322e-24)
(0.099986301 0.0017947466 0)
(0.099933931 0.0016016864 2.5055823e-24)
(0.099901258 0.0014220755 -2.5055823e-24)
(0.099886342 0.0012541805 0)
(0.099882795 0.0010982544 0)
(0.099885812 0.00095285742 0)
(0.099893126 0.00081578813 1.0026794e-24)
(0.099903181 0.00068525865 -1.0026794e-24)
(0.099914817 0.00056011497 0)
(0.099926354 0.00043902666 0)
(0.099935812 0.00032155616 0)
(0.0999424 0.00020670883 0)
(0.099945174 9.3114648e-05 3.4963903e-25)
(0.099944216 -1.9928308e-05 -3.4963904e-25)
(0.099941529 -0.00013371656 -6.5467527e-25)
(0.099938054 -0.00024946887 6.5467521e-25)
(0.099933745 -0.00036771839 -1.2640305e-24)
(0.099929409 -0.00048898623 1.2640304e-24)
(0.099925852 -0.00061419014 -1.2557198e-24)
(0.099924327 -0.00074448142 -8.1738019e-27)
(0.099923543 -0.00088117165 1.2638933e-24)
(0.099927632 -0.0010262693 0)
(0.09992399 -0.0011821019 0)
(0.099946305 -0.0013487336 0)
(0.099923821 -0.0015531836 0)
(0.10000245 -0.0017046271 -3.8606062e-24)
(0.099945176 -0.0020621172 3.8597128e-24)
(0.10025901 -0.0022624452 0)
(0.10013097 -0.0025923139 -6.6613813e-24)
(0.10055154 -0.0019047271 -2.1621152e-24)
(0.10241799 -0.0025566905 8.8216444e-24)
(0.099563435 8.2655816e-05 1.4492302e-23)
(0.099796414 -0.00064188935 0)
(0.09952682 -0.0017674531 -1.2319912e-23)
(0.099180952 -0.0022934955 7.0799164e-25)
(0.099385476 -0.0025276509 1.1607853e-23)
(0.1000835 -0.0026210207 0)
(0.1004912 -0.002493144 0)
(0.1008345 -0.0023101199 0)
(0.10112041 -0.0021035882 -7.3138371e-24)
(0.10132604 -0.001891742 7.3138416e-24)
(0.10147301 -0.0016871983 0)
(0.10158011 -0.001492997 0)
(0.1016638 -0.0013154768 -2.8575823e-24)
(0.10173314 -0.0011539213 2.8575829e-24)
(0.10179092 -0.0010040798 1.2250509e-24)
(0.10183933 -0.00086311908 -1.225051e-24)
(0.10188051 -0.00072898946 0)
(0.10191543 -0.00060016273 -4.6410657e-25)
(0.10194442 -0.00047492085 4.641066e-25)
(0.10196796 -0.00035200881 0)
(0.10198271 -0.00023016134 -1.678833e-25)
(0.10198979 -0.00010826673 1.6788331e-25)
(0.10199178 1.3456603e-05 -5.3910279e-25)
(0.10198631 0.00013599162 5.3097616e-26)
(0.10197425 0.00026080054 4.7479976e-26)
(0.10195745 0.00038912243 4.3852513e-25)
(0.1019361 0.0005221512 0)
(0.10190921 0.00066054421 0)
(0.1018761 0.0008050375 0)
(0.10183128 0.00095579075 0)
(0.10178284 0.0011161587 -8.9604874e-25)
(0.10169517 0.0012814756 8.9604857e-25)
(0.10164297 0.0014769758 0)
(0.10144719 0.0016394174 6.731324e-25)
(0.10139068 0.0019513502 -1.2973103e-24)
(0.10102267 0.0020578921 6.2427141e-25)
(0.10086068 0.0025436028 0)
(0.1000899 0.0025935416 0)
(0.10015009 0.003006742 0)
(0.099150255 0.0029202299 0)
(0.10233052 -0.00039225083 3.2103746e-24)
(0.10257792 3.4266882e-06 1.3769953e-26)
(0.10244997 0.00018633428 -1.7302166e-24)
(0.10187673 0.00070398768 -1.0027072e-24)
(0.10172134 0.0011654728 -1.1671814e-26)
(0.10156108 0.0014008727 2.7321566e-24)
(0.10115687 0.0015747388 0)
(0.10088108 0.0016157678 -3.8373262e-24)
(0.10068087 0.0015734388 3.8373292e-24)
(0.10051262 0.0014898273 0)
(0.10038048 0.0013831621 0)
(0.10027789 0.0012669038 0)
(0.10020044 0.0011450788 0)
(0.10014799 0.0010198587 0)
(0.10011494 0.00089490543 0)
(0.10009515 0.00077211268 9.5357143e-25)
(0.10008461 0.00065178495 -9.5357154e-25)
(0.1000811 0.00053381516 0)
(0.10008192 0.00041789885 0)
(0.10008462 0.00030390691 0)
(0.10008819 0.00019185647 0)
(0.10009018 8.1057958e-05 3.6698336e-25)
(0.10009049 -2.8693663e-05 -3.6698341e-25)
(0.10009213 -0.0001376013 -7.1307593e-25)
(0.10009642 -0.00024656814 1.4222739e-24)
(0.10010353 -0.00035715023 -2.1316153e-24)
(0.10011399 -0.00046933443 1.4224171e-24)
(0.10012806 -0.00058411528 0)
(0.10014785 -0.00070295599 -1.5266236e-24)
(0.1001722 -0.00082694279 1.5266232e-24)
(0.10021171 -0.00095425046 0)
(0.10024693 -0.001092107 0)
(0.10033508 -0.0012184158 0)
(0.10037532 -0.0013862746 0)
(0.10054959 -0.0014650349 0)
(0.10062881 -0.0016923661 0)
(0.10095674 -0.0016885183 0)
(0.10104859 -0.0017544539 0)
(0.10147792 -0.0014735258 -6.1678599e-24)
(0.10247129 -0.0011481119 6.1667296e-24)
(0.099977515 -0.00022700895 3.090949e-23)
(0.1000602 -0.00054049269 -1.7058433e-23)
(0.10009747 -0.00092089502 0)
(0.099735882 -0.0012306404 1.3242279e-23)
(0.099815743 -0.0014061835 -1.3239357e-23)
(0.10019236 -0.0016714626 0)
(0.10037064 -0.0017563175 1.0121109e-23)
(0.10060554 -0.0017731513 -6.8091822e-25)
(0.10084446 -0.0017297829 -1.8174466e-23)
(0.10103958 -0.0016410991 4.6792958e-24)
(0.10119815 -0.0015267606 7.8334458e-24)
(0.10132497 -0.001397964 -3.7784728e-24)
(0.10142755 -0.0012615794 0)
(0.10151593 -0.0011253123 -3.0161396e-24)
(0.10159281 -0.00099158593 3.0161403e-24)
(0.10165796 -0.00086030662 0)
(0.1017128 -0.00073109514 0)
(0.10175846 -0.00060388148 -5.0025796e-25)
(0.10179617 -0.00047849089 5.0025805e-25)
(0.10182663 -0.00035410943 0)
(0.1018474 -0.00022951267 0)
(0.1018587 -0.00010365994 0)
(0.10186229 2.33769e-05 -4.8316692e-25)
(0.10185704 0.00015189238 7.7740351e-26)
(0.1018433 0.00028216207 4.0542638e-25)
(0.10182148 0.00041514393 0)
(0.10179222 0.00055033575 0)
(0.10175467 0.00068726661 0)
(0.10170673 0.00082644803 0)
(0.10164194 0.00096728701 0)
(0.10157023 0.0011116529 0)
(0.10145649 0.0012509514 5.1517338e-26)
(0.1013679 0.001407156 -3.7992163e-26)
(0.10116231 0.0015142623 4.1552287e-26)
(0.10104727 0.0017000586 -5.506366e-26)
(0.10069315 0.0017489347 0)
(0.10053995 0.0018860181 0)
(0.099995581 0.0017567632 6.0057824e-25)
(0.10005278 0.0017938672 -6.0029824e-25)
(0.099435784 0.0014333649 0)
(0.10172197 -0.00038487101 6.7010161e-25)
(0.10194132 2.0945527e-05 -6.7049994e-25)
(0.10189775 0.00017873782 1.5346316e-24)
(0.10157256 0.00045372399 4.7673585e-25)
(0.10154794 0.00063043775 -2.0122219e-24)
(0.10154378 0.00076366798 1.8500723e-24)
(0.10136232 0.00090183101 5.3209271e-25)
(0.10116638 0.0010277702 -2.3828928e-24)
(0.10102044 0.0010845884 3.0214096e-24)
(0.10086825 0.0010927456 -3.0214113e-24)
(0.10072909 0.0010637846 0)
(0.10060892 0.0010108649 1.7635762e-24)
(0.10050666 0.00094219663 -1.763577e-24)
(0.10042693 0.0008602525 0)
(0.10036926 0.00076932008 8.8911025e-25)
(0.10032827 0.00067353508 -1.7535295e-24)
(0.10029976 0.00057504268 8.644192e-25)
(0.10028159 0.0004748587 0)
(0.1002715 0.00037391817 -1.9284428e-25)
(0.1002676 0.0002726481 1.9284432e-25)
(0.10026944 0.00017229031 0)
(0.10027298 7.2925459e-05 0)
(0.1002763 -2.500657e-05 0)
(0.10028286 -0.00012194435 7.0999874e-25)
(0.10029472 -0.00021877191 -1.429673e-24)
(0.10031114 -0.00031574994 7.1967428e-25)
(0.10033255 -0.00041347774 0)
(0.10035937 -0.00051208108 0)
(0.10039497 -0.00061030042 0)
(0.10043673 -0.0007092791 0)
(0.10049893 -0.00080408677 0)
(0.10055525 -0.00090279742 0)
(0.10066831 -0.00097619237 0)
(0.10073321 -0.0010700061 0)
(0.10091052 -0.0011021589 0)
(0.10098919 -0.0011465405 0)
(0.10125073 -0.0010545624 0)
(0.10124185 -0.0010461322 0)
(0.10160982 -0.00080877778 0)
(0.10199292 -0.00050459074 0)
(0.10018718 -0.00020153328 -1.5587301e-23)
(0.10024827 -0.00032379228 1.5603155e-23)
(0.10036014 -0.00056054735 -1.3970101e-23)
(0.10013016 -0.00072686267 1.3970107e-23)
(0.10016142 -0.00087740025 0)
(0.10040943 -0.0011300387 0)
(0.10046152 -0.00123461 1.1130841e-23)
(0.10057129 -0.0012900902 -2.1622143e-23)
(0.10075161 -0.0013201701 7.3684342e-25)
(0.10090057 -0.0013068027 9.7544583e-24)
(0.10103114 -0.001261924 0)
(0.10114725 -0.0011938566 0)
(0.1012477 -0.0011084696 0)
(0.10133688 -0.0010118693 0)
(0.10141872 -0.0009075801 0)
(0.101491 -0.00079773117 0)
(0.10155282 -0.00068443127 0)
(0.10160478 -0.00056902644 -5.3478956e-25)
(0.10164802 -0.00045227786 5.347897e-25)
(0.10168411 -0.00033408344 0)
(0.10171028 -0.00021380325 0)
(0.10172612 -9.1233511e-05 0)
(0.10173323 3.2858783e-05 0)
(0.10172905 0.00015778629 -3.1966977e-25)
(0.10171342 0.00028349628 3.1966965e-25)
(0.10168759 0.00040932387 -3.0839945e-25)
(0.10165223 0.00053458714 3.0839933e-25)
(0.10160521 0.00065842177 0)
(0.10154677 0.00078000826 4.0770845e-26)
(0.10147173 0.0008972213 -4.0770831e-26)
(0.10138877 0.00101126 0)
(0.10127141 0.0011111601 0)
(0.10116959 0.0012139675 0)
(0.10099078 0.0012683485 0)
(0.10086835 0.0013528627 0)
(0.10058443 0.0013104431 0)
(0.10050163 0.0013091302 0)
(0.10012277 0.0011383947 4.2489965e-25)
(0.10022478 0.0011259773 2.8018157e-25)
(0.099867689 0.00082231983 -7.0490196e-25)
(0.10127104 -0.00029060283 -3.4863251e-24)
(0.10151638 -2.2580565e-05 3.4880572e-24)
(0.10155685 9.5896613e-05 0)
(0.10138247 0.00022925751 0)
(0.10136171 0.00028634643 -2.2015898e-24)
(0.10142096 0.00037076209 2.2003339e-24)
(0.10135748 0.00044592055 0)
(0.10124224 0.00057337071 -2.3542415e-24)
(0.10116277 0.00065209146 2.3542425e-24)
(0.10105889 0.00070135858 0)
(0.10094996 0.00072079166 0)
(0.10084678 0.00071542781 0)
(0.10075102 0.00069051545 -1.5152272e-24)
(0.10066934 0.00064975724 1.5152278e-24)
(0.1006058 0.00059615287 7.6676108e-25)
(0.10055748 0.00053272337 -1.3569823e-26)
(0.10052105 0.00046239433 -1.880056e-26)
(0.10049539 0.00038701361 -7.3439142e-25)
(0.10047937 0.00030833384 0)
(0.10047241 0.00022739436 0)
(0.10047478 0.00014583363 -1.6141828e-25)
(0.10048071 6.5352718e-05 4.8006154e-25)
(0.10048651 -1.4412607e-05 -9.5969325e-25)
(0.10049642 -9.362579e-05 6.4104981e-25)
(0.10051235 -0.00017232839 -6.7745192e-25)
(0.10053322 -0.00025021032 6.7745164e-25)
(0.1005595 -0.00032695411 -1.506825e-24)
(0.10059196 -0.00040177948 1.5068244e-24)
(0.1006336 -0.00047332675 0)
(0.10068053 -0.00054092436 0)
(0.10074608 -0.0005983085 -3.9711134e-24)
(0.10080472 -0.00065370724 3.9711123e-24)
(0.1009035 -0.00067624993 0)
(0.10096767 -0.00071753192 0)
(0.10108529 -0.00069171907 0)
(0.10111964 -0.00065478219 0)
(0.10128904 -0.0005469333 0)
(0.10120498 -0.00053169336 0)
(0.10146415 -0.00032013676 -5.4629935e-24)
(0.10157144 -0.00013705016 5.4629835e-24)
(0.10041748 -0.00020980094 -1.3853783e-23)
(0.10047988 -0.00023739975 4.0708669e-25)
(0.10059726 -0.00041345139 1.3455547e-23)
(0.10044931 -0.00048960571 0)
(0.10042585 -0.00061987697 -1.2419835e-23)
(0.10060237 -0.00080808248 1.241982e-23)
(0.1006236 -0.00090239402 0)
(0.10066052 -0.00094239324 -1.0828697e-23)
(0.10077571 -0.00098681057 6.3810811e-25)
(0.10088077 -0.0010056327 1.0193244e-23)
(0.10097081 -0.00099646437 4.4907393e-24)
(0.10105839 -0.00096619233 -4.490741e-24)
(0.10113874 -0.00091840405 0)
(0.10121586 -0.00085564629 0)
(0.10129123 -0.00078055936 0)
(0.10136071 -0.00069563872 0)
(0.10142181 -0.00060326468 1.2785343e-24)
(0.10147441 -0.00050508843 -1.8337431e-24)
(0.10151919 -0.00040266085 5.5520856e-25)
(0.10155784 -0.00029666547 0)
(0.10158839 -0.0001869634 0)
(0.10160854 -7.4804269e-05 0)
(0.10161807 3.8859129e-05 0)
(0.10161452 0.00015298749 -2.3346568e-25)
(0.10159811 0.00026645067 3.7098252e-25)
(0.10157078 0.00037809918 -2.4852082e-25)
(0.10153306 0.00048684297 1.1100389e-25)
(0.10148379 0.00059110111 0)
(0.10142424 0.00068978614 2.1762503e-25)
(0.10134955 0.00077958332 -2.1762495e-25)
(0.10127052 0.00086203398 0)
(0.10116385 0.00092515942 0)
(0.10107682 0.00098402427 0)
(0.10093096 0.0010031865 0)
(0.10083665 0.0010246765 0)
(0.10062928 0.00095503528 0)
(0.10059265 0.00092634551 0)
(0.10032994 0.00077910518 -1.88584e-25)
(0.10044449 0.00077641285 2.0487071e-26)
(0.10024469 0.00057164633 1.6802619e-25)
(0.10105144 -0.00028606246 -5.7676538e-24)
(0.10125187 -9.6593776e-05 5.7706008e-24)
(0.10136121 -2.353616e-05 0)
(0.10124919 5.1635678e-05 0)
(0.10122907 7.6371586e-05 0)
(0.10130099 0.00010809045 0)
(0.10129201 0.00014630039 0)
(0.10123768 0.00023650651 0)
(0.10120747 0.0003097585 -2.4664857e-24)
(0.10114916 0.00036977306 2.4664866e-24)
(0.10107675 0.00041062889 0)
(0.10100126 0.00043143578 0)
(0.10092677 0.00043546675 -1.324583e-24)
(0.10086165 0.00042540754 1.3245836e-24)
(0.10080934 0.00040299586 6.5307365e-25)
(0.10076671 0.00037026549 -1.6140771e-26)
(0.10073232 0.00032915207 -6.369334e-25)
(0.10070689 0.00028131604 0)
(0.10069059 0.00022862935 1.4365668e-25)
(0.1006847 0.00017242965 -1.4365674e-25)
(0.10068935 0.00011456929 0)
(0.10069743 5.721752e-05 2.5848385e-25)
(0.10070515 -5.5205177e-08 -7.8261248e-25)
(0.10071616 -5.7287381e-05 -2.0510449e-26)
(0.10073227 -0.00011367329 -3.2067998e-26)
(0.10075272 -0.00016846016 5.7670638e-25)
(0.10077792 -0.00022067791 0)
(0.10080822 -0.00026909202 0)
(0.10084593 -0.00031182691 0)
(0.10088681 -0.00034842107 -1.714972e-24)
(0.10094047 -0.00037261173 1.7149712e-24)
(0.10098719 -0.00039300562 0)
(0.10105433 -0.00038256458 0)
(0.10109665 -0.00038453939 4.6173435e-24)
(0.10115843 -0.00033938597 -9.5711911e-24)
(0.1011437 -0.00027500989 4.9522177e-24)
(0.10123716 -0.00018250149 0)
(0.10112311 -0.00017300299 0)
(0.10129264 -4.1015215e-06 0)
(0.10129908 9.2141974e-05 -4.1278781e-24)
(0.10062454 -0.00027151396 -1.1264008e-23)
(0.10067758 -0.00024382357 0)
(0.10079309 -0.0003436821 -1.1937778e-23)
(0.1006855 -0.00038044537 1.1948939e-23)
(0.10063592 -0.00048197596 -1.1736466e-23)
(0.10076745 -0.00062110042 1.1736452e-23)
(0.10078494 -0.00069592125 1.0776159e-23)
(0.10079129 -0.00072030443 -2.1293969e-23)
(0.10084816 -0.00074893312 4.987666e-25)
(0.10092992 -0.00077606261 1.0032181e-23)
(0.10098493 -0.0007788899 4.4912592e-24)
(0.10104024 -0.00076664688 -4.491261e-24)
(0.10109775 -0.00073980807 0)
(0.10115924 -0.00069841718 0)
(0.10122209 -0.00064463812 0)
(0.1012817 -0.00058013727 0)
(0.10133565 -0.00050663162 0)
(0.10138371 -0.00042594992 0)
(0.10142606 -0.00033966748 0)
(0.10146416 -0.00024890795 0)
(0.10149701 -0.00015395491 0)
(0.10152019 -5.6331604e-05 0)
(0.10153077 4.2751335e-05 0)
(0.10152779 0.0001417914 -1.3730389e-25)
(0.10151238 0.00023926708 1.3730381e-25)
(0.10148645 0.00033369507 0)
(0.10145103 0.00042372151 0)
(0.10140545 0.0005076413 0)
(0.10135181 0.00058432321 0)
(0.10128655 0.00065064892 0)
(0.10122016 0.00070788308 0)
(0.10113463 0.00074775647 -6.6810368e-25)
(0.10106729 0.00077883819 6.6810334e-25)
(0.10096023 0.00078451624 0)
(0.10089242 0.00078310089 0)
(0.10074201 0.00071905617 0)
(0.10072909 0.00069817241 6.540645e-25)
(0.10054608 0.00059197353 -6.5320365e-25)
(0.1006482 0.00060566313 -1.0072204e-24)
(0.1005428 0.00048473877 1.0072214e-24)
(0.10095097 -0.00033399848 -9.1338679e-24)
(0.10108705 -0.00017245095 0)
(0.10124835 -0.00013634173 0)
(0.10116652 -8.6296337e-05 0)
(0.1011414 -8.2130997e-05 0)
(0.10122438 -8.7079171e-05 0)
(0.10124588 -6.2619832e-05 0)
(0.10121753 -5.9800548e-06 0)
(0.10121586 5.59814e-05 0)
(0.10119301 0.00010751999 0)
(0.10114943 0.00015232348 0)
(0.10110037 0.000183286 0)
(0.10105335 0.00020346978 0)
(0.10101322 0.00021440561 0)
(0.100979 0.00021592661 0)
(0.10095026 0.00020820349 0)
(0.10092542 0.00019301774 4.9281758e-25)
(0.10090612 0.00017137121 -7.2445275e-25)
(0.1008939 0.00014457316 2.3163504e-25)
(0.1008918 0.00011398749 0)
(0.1009001 8.1561905e-05 -9.1229104e-26)
(0.10091077 4.8873277e-05 2.6607485e-25)
(0.10091974 1.582109e-05 -1.7484562e-25)
(0.10092994 -1.7424062e-05 -3.7578044e-25)
(0.1009433 -4.983914e-05 -3.469546e-26)
(0.10095936 -8.0304099e-05 4.1047547e-25)
(0.10097864 -0.00010763477 0)
(0.10100112 -0.00013076298 0)
(0.10102826 -0.00014783906 0)
(0.10105588 -0.00015889756 -1.3850475e-24)
(0.10109117 -0.00015849136 1.3850468e-24)
(0.10111797 -0.00015556234 0)
(0.10115633 -0.00012712034 0)
(0.10116774 -0.00011030918 3.9316905e-24)
(0.10119038 -5.9610619e-05 -3.930057e-24)
(0.10114495 -4.0445395e-06 0)
(0.10118603 6.9204093e-05 0)
(0.10107023 7.2683571e-05 0)
(0.10117841 0.00019855629 -4.2684163e-24)
(0.10115405 0.0002523059 3.3481561e-25)
(0.10077767 -0.00035090265 -2.1989185e-23)
(0.10082322 -0.00028377676 1.1220205e-23)
(0.10094377 -0.00033347988 -1.0867542e-23)
(0.10087172 -0.00034257396 1.0878911e-23)
(0.10080909 -0.00042283415 0)
(0.10090323 -0.00051548099 1.0244471e-23)
(0.1009328 -0.00057500297 -3.1267474e-25)
(0.10092757 -0.00059113819 -1.9725942e-23)
(0.10095026 -0.00060241254 3.5902419e-25)
(0.10101035 -0.00062175704 9.4423586e-24)
(0.10104213 -0.00062495565 0)
(0.10107253 -0.00061632192 0)
(0.10111413 -0.00059580294 0)
(0.10116199 -0.00056426691 0)
(0.10121082 -0.00052276553 0)
(0.10125778 -0.0004733008 0)
(0.10130141 -0.00041507843 0)
(0.10134192 -0.00034711912 0)
(0.1013793 -0.00027360845 0)
(0.10141499 -0.00019780292 0)
(0.10144819 -0.00011921741 0)
(0.10147247 -3.7222587e-05 0)
(0.10148331 4.6539473e-05 0)
(0.10148091 0.00012988569 -9.0680147e-27)
(0.1014676 0.00021115896 9.0680093e-27)
(0.1014453 0.00028895693 3.1317197e-25)
(0.101415 0.00036198469 -3.131718e-25)
(0.10137647 0.00042869195 0)
(0.10133235 0.00048816459 5.2887229e-25)
(0.10127997 0.00053788877 -5.2887203e-25)
(0.10122835 0.00057964047 0)
(0.10116502 0.00060628235 0)
(0.10111427 0.00062760689 0)
(0.10104176 0.00062834457 0)
(0.10099069 0.00062827347 0)
(0.10087661 0.00058497318 0)
(0.10087067 0.00057697491 9.6774732e-25)
(0.1007383 0.00050530372 -2.2597604e-24)
(0.10081916 0.00052981293 -2.3968917e-25)
(0.10076573 0.00046884039 1.5328442e-24)
(0.10093153 -0.0004032729 1.8926548e-23)
(0.10101706 -0.00025544232 -8.9908636e-24)
(0.10120094 -0.00024232693 0)
(0.10114277 -0.00020685482 6.6731847e-24)
(0.10110782 -0.00021327004 -7.2013043e-25)
(0.10118368 -0.00023697338 -5.9530416e-24)
(0.10123275 -0.00022357065 -4.2602474e-24)
(0.10121292 -0.00019385939 8.1956604e-24)
(0.10121961 -0.00013849495 -7.5261941e-24)
(0.10122058 -9.5981727e-05 5.2061834e-24)
(0.10119942 -5.6770212e-05 -1.6211485e-24)
(0.1011772 -2.2119762e-05 1.355203e-24)
(0.10115856 7.8571805e-06 -1.3552037e-24)
(0.10114128 3.214418e-05 1.0796244e-24)
(0.10112417 5.0179611e-05 -6.0604071e-25)
(0.10110929 6.1818211e-05 -6.5282959e-26)
(0.10110216 6.7380411e-05 -7.5662641e-25)
(0.10109643 6.8108628e-05 1.9883264e-25)
(0.10108938 6.4496261e-05 2.1353055e-25)
(0.10108859 5.7878057e-05 -6.4019575e-26)
(0.10109573 5.1448417e-05 4.1246307e-26)
(0.10111255 4.185952e-05 2.5329534e-26)
(0.10112376 3.227788e-05 5.9256927e-26)
(0.101132 2.2398144e-05 -1.2584744e-25)
(0.10114075 1.3263312e-05 0)
(0.10115024 5.8650881e-06 0)
(0.10116102 1.1062978e-06 0)
(0.1011727 -1.6489262e-07 -6.3001057e-25)
(0.10118647 3.4120874e-06 6.3001021e-25)
(0.10119832 1.1338683e-05 -8.6112525e-25)
(0.10121431 2.797995e-05 8.6112477e-25)
(0.10122084 4.4596996e-05 -2.2261833e-24)
(0.10123511 8.1403928e-05 4.7393708e-24)
(0.10122513 0.00010103617 -2.5127682e-24)
(0.10122379 0.00015133719 0)
(0.10115483 0.00019179631 -3.3871625e-24)
(0.10116337 0.00024886246 3.3838837e-24)
(0.10105703 0.00024525889 0)
(0.10112344 0.00033428932 0)
(0.10109165 0.00037194198 -3.364519e-24)
(0.10088922 -0.00044917274 1.0553209e-23)
(0.10094046 -0.00033810197 -1.0560248e-23)
(0.10106502 -0.00036319976 0)
(0.10102415 -0.00035486075 0)
(0.1009626 -0.00041363885 0)
(0.10102465 -0.00046991098 9.2518095e-24)
(0.10107051 -0.00052126588 -1.8176192e-23)
(0.10106078 -0.00052463088 1.7732184e-23)
(0.1010685 -0.0005281849 -8.8279226e-24)
(0.10110027 -0.00053564673 4.0566441e-24)
(0.10112257 -0.00053013979 -4.0596224e-24)
(0.10114606 -0.00051467792 3.6008965e-24)
(0.10117907 -0.00049253422 -3.6008984e-24)
(0.10121517 -0.00046299968 3.001604e-24)
(0.10125156 -0.00042637049 -3.0016058e-24)
(0.10128739 -0.00038232099 1.1604448e-24)
(0.1013215 -0.00033274911 -2.1425856e-24)
(0.10135402 -0.00028027447 5.8242283e-25)
(0.10138505 -0.00022263022 2.4696667e-25)
(0.10141653 -0.0001585374 1.5275144e-25)
(0.10144903 -8.9439858e-05 5.671022e-26)
(0.10147397 -1.8810894e-05 -2.7385583e-26)
(0.10148432 5.1721229e-05 -1.0615884e-25)
(0.10148219 0.00012181422 7.6834157e-26)
(0.10147137 0.00018981496 0)
(0.10145319 0.00025444302 0)
(0.10142857 0.00031468156 0)
(0.10139753 0.00036923846 7.8913299e-25)
(0.10136285 0.00041772478 -7.8913252e-25)
(0.10132213 0.00045796079 7.7034447e-25)
(0.1012834 0.00049265396 -7.7034403e-25)
(0.10123621 0.00051429806 1.2053774e-24)
(0.10119886 0.00053690838 -2.1169794e-24)
(0.10114812 0.0005375419 9.1160251e-25)
(0.10110673 0.00054553075 0)
(0.10101177 0.00052482726 0)
(0.10100307 0.00052744747 0)
(0.10090186 0.00048195112 0)
(0.10095802 0.00051095157 0)
(0.10092786 0.00049892834 -2.2633537e-24)
(0.1009577 -0.00049939118 0)
(0.10101429 -0.00036281778 0)
(0.10118814 -0.00034782052 0)
(0.10116402 -0.0003193353 0)
(0.10111972 -0.00032880794 0)
(0.1011776 -0.00035804387 5.9497342e-24)
(0.10124926 -0.00035904696 -1.1131413e-23)
(0.1012353 -0.00034262665 9.9417286e-24)
(0.10123433 -0.00029870824 -9.0724001e-24)
(0.10125195 -0.00026067489 6.1953501e-24)
(0.10125918 -0.00022358475 -1.8907212e-24)
(0.1012615 -0.0001865065 1.4031401e-24)
(0.1012632 -0.00015129878 -1.4031409e-24)
(0.10126368 -0.00011874659 9.5906332e-25)
(0.10126282 -8.9345459e-05 -5.798479e-25)
(0.10126153 -6.3368727e-05 -9.2517468e-26)
(0.10126068 -4.0875952e-05 -4.8796254e-25)
(0.10126185 -2.1512029e-05 1.4073564e-25)
(0.10126555 -4.828595e-06 4.9933787e-26)
(0.10127573 9.6967423e-06 1.0594266e-26)
(0.10129317 2.3274745e-05 2.7171407e-26)
(0.10130862 3.6312926e-05 -1.0529216e-25)
(0.10131832 4.8616636e-05 -9.9212535e-26)
(0.1013241 6.019685e-05 1.7733309e-25)
(0.10132747 7.211837e-05 0)
(0.1013296 8.5017949e-05 0)
(0.10133112 9.9594629e-05 0)
(0.10133154 0.00011613451 8.0219201e-26)
(0.10133197 0.00013574 -8.0219149e-26)
(0.10132888 0.00015723705 -1.3540849e-25)
(0.10132804 0.00018442486 1.3540841e-25)
(0.1013175 0.0002086382 -7.4769667e-25)
(0.10131374 0.0002484474 1.7588777e-24)
(0.10128994 0.000266686 -1.0111813e-24)
(0.1012722 0.00031406167 0)
(0.10119093 0.00033888285 -2.0000564e-24)
(0.10117577 0.00038647427 1.9985065e-24)
(0.10108124 0.00037812811 0)
(0.10111926 0.000438948 0)
(0.10108729 0.00046776781 -2.3680918e-24)
(0.10097839 -0.00055169425 0)
(0.10102105 -0.00042994022 0)
(0.10116593 -0.00042351137 -9.496748e-24)
(0.10115077 -0.00040470082 1.1385661e-25)
(0.1010957 -0.00043857373 1.8375682e-23)
(0.10113387 -0.00047951989 -1.7298942e-23)
(0.10119841 -0.00052383757 1.6108767e-23)
(0.10118888 -0.00052051852 -7.8160984e-24)
(0.10119049 -0.00051150605 7.3136477e-24)
(0.10121092 -0.00050512282 -3.900807e-24)
(0.10123346 -0.00048528566 -3.4237629e-24)
(0.10125494 -0.00046195081 -2.9198903e-24)
(0.10128234 -0.0004355309 2.9198922e-24)
(0.10131094 -0.00040435471 -2.3172906e-24)
(0.10133924 -0.00036813451 3.3127297e-24)
(0.10136707 -0.00032700844 -1.8219476e-24)
(0.10139388 -0.00028129913 8.2650998e-25)
(0.10142039 -0.00023154245 2.3679226e-25)
(0.10144673 -0.00017812211 -1.6488802e-25)
(0.10147514 -0.00012140724 -7.1904472e-26)
(0.10150622 -6.1778254e-05 2.3840831e-26)
(0.10153016 -3.2584819e-07 -2.3840834e-26)
(0.10153922 6.1446879e-05 0)
(0.101537 0.00012238125 -4.7801036e-25)
(0.10152815 0.00018141517 4.7800999e-25)
(0.10151322 0.00023761581 -1.1953548e-24)
(0.10149302 0.00029019472 1.195354e-24)
(0.1014677 0.00033821448 1.2747083e-24)
(0.10143984 0.00038156255 -1.2747074e-24)
(0.10140699 0.00041853849 0)
(0.10137648 0.00045205997 0)
(0.10133844 0.0004747013 -1.9881193e-24)
(0.1013089 0.00050206939 3.6478135e-24)
(0.1012664 0.00050692022 -1.6596951e-24)
(0.10123128 0.00052334784 6.4650595e-25)
(0.10114542 0.00051875312 -7.5587719e-25)
(0.10112603 0.00053124272 4.8435738e-25)
(0.10104113 0.00050318188 -3.7446717e-25)
(0.10107247 0.00053151759 9.7143313e-25)
(0.10105474 0.00053645845 -2.4625726e-24)
(0.10101688 -0.00060373441 1.0589619e-23)
(0.10105363 -0.00048562993 -1.0601436e-23)
(0.10121758 -0.00045857602 0)
(0.10122224 -0.00042965213 8.4548983e-24)
(0.1011864 -0.00043892393 -8.440806e-24)
(0.10121769 -0.00046822935 0)
(0.10130354 -0.00048242776 0)
(0.10129816 -0.0004721185 5.2743607e-24)
(0.10129448 -0.00043801193 -9.9885505e-24)
(0.10132144 -0.00040114163 6.7250148e-24)
(0.10134474 -0.00036359921 -2.0167566e-24)
(0.10136244 -0.00032349347 1.3561892e-24)
(0.10137853 -0.00028351208 -1.3561897e-24)
(0.10139258 -0.00024411835 7.5087236e-25)
(0.10140434 -0.0002053921 -5.1440449e-25)
(0.10141455 -0.00016774243 -2.3646867e-25)
(0.10142365 -0.00013139894 1.6021438e-26)
(0.10143349 -9.6393947e-05 5.0266242e-26)
(0.10144489 -6.2730816e-05 -1.2811233e-25)
(0.1014614 -3.0191771e-05 6.1824628e-26)
(0.10148321 2.0114521e-06 -1.1655693e-25)
(0.10150063 3.3877156e-05 -1.5433739e-25)
(0.10151 6.4979278e-05 -3.1520985e-25)
(0.10151299 9.5562464e-05 5.8610342e-25)
(0.10151127 0.00012589942 0)
(0.10150658 0.0001563193 0)
(0.10149964 0.00018709602 0)
(0.10148991 0.00021825906 1.0491673e-24)
(0.10147892 0.00025046873 -1.0491665e-24)
(0.10146322 0.00028221911 8.6047763e-25)
(0.10144906 0.000317117 -8.6047702e-25)
(0.10142515 0.00034641044 1.2587569e-24)
(0.10140812 0.00038718062 -2.2461531e-24)
(0.10137108 0.00040720316 9.8739673e-25)
(0.10134405 0.00044826977 0)
(0.10125875 0.00046337198 -1.6146455e-25)
(0.10122683 0.00050588815 1.6141267e-25)
(0.1011348 0.00049627834 0)
(0.10115176 0.00053638098 0)
(0.10112193 0.00055701471 -8.4737258e-25)
(0.10105802 -0.00066392295 2.1984678e-23)
(0.1010864 -0.00055797274 -1.0742891e-23)
(0.10124524 -0.00052611065 0)
(0.10126249 -0.00049579965 0)
(0.1012289 -0.00050715891 0)
(0.10124716 -0.0005381192 7.3316263e-24)
(0.10132814 -0.00056879528 -1.3974091e-23)
(0.10132713 -0.00056597117 1.2877391e-23)
(0.10132173 -0.00054598021 -6.2457307e-24)
(0.10134544 -0.00052182459 2.6069277e-24)
(0.10137482 -0.00049138071 -2.6086469e-24)
(0.10139899 -0.00045967652 0)
(0.10142412 -0.00042579616 0)
(0.10144952 -0.00038875613 1.3697184e-24)
(0.10147426 -0.00034816563 -8.5199849e-25)
(0.10149814 -0.00030409662 -5.1772084e-25)
(0.10152104 -0.0002567626 -1.7356532e-25)
(0.10154399 -0.00020639507 1.7563347e-25)
(0.10156719 -0.00015345093 4.5065892e-26)
(0.10159323 -9.8249444e-05 -4.7133967e-26)
(0.10162281 -4.1077183e-05 -1.4172435e-25)
(0.10164526 1.739518e-05 -2.2030164e-25)
(0.10165313 7.5917848e-05 -4.7813284e-25)
(0.10165061 0.00013320291 8.4015824e-25)
(0.10164231 0.00018884927 0)
(0.10162864 0.0002422026 0)
(0.10161039 0.00029268508 0)
(0.10158765 0.00033958318 0)
(0.10156262 0.00038303913 0)
(0.101533 0.00042138675 1.9383612e-24)
(0.10150537 0.00045803105 -1.9383593e-24)
(0.10146959 0.00048484276 3.3757207e-24)
(0.10144282 0.00051875006 -6.3953847e-24)
(0.10139898 0.00053030157 3.0196669e-24)
(0.10136653 0.00055690984 0)
(0.10128362 0.00056010532 1.3990934e-24)
(0.10124967 0.00058726393 -1.3987254e-24)
(0.10116474 0.00057140768 0)
(0.10117569 0.00059812551 0)
(0.10115246 0.00061133426 1.1656489e-25)
(0.1011046 -0.0007315307 0)
(0.10112684 -0.00063398856 0)
(0.10128332 -0.00059350289 0)
(0.10131924 -0.00055488849 8.4427201e-24)
(0.1012943 -0.00055712372 -8.4275048e-24)
(0.10130956 -0.00058277469 6.812597e-24)
(0.10139583 -0.00060325411 -1.2666636e-23)
(0.10140779 -0.00059448754 1.1004135e-23)
(0.10140367 -0.0005681228 -9.6749896e-24)
(0.10143366 -0.00052895091 6.3782687e-24)
(0.10146873 -0.00048561639 -1.8597555e-24)
(0.10149675 -0.00044174329 1.0622187e-24)
(0.10152262 -0.00039689066 -1.0622187e-24)
(0.10154665 -0.00035070846 3.0803947e-25)
(0.10156816 -0.000303424 -3.0803948e-25)
(0.1015875 -0.00025534958 0)
(0.10160494 -0.00020681501 3.5898042e-25)
(0.10162208 -0.00015816354 -1.0070843e-25)
(0.10163959 -0.00010959664 -9.0257582e-26)
(0.10166071 -6.1155167e-05 -1.6801442e-25)
(0.10168557 -1.2471192e-05 2.4218319e-25)
(0.1017044 3.5966894e-05 -7.8078352e-25)
(0.10171269 8.3654427e-05 -6.1074425e-25)
(0.10171247 0.00013085732 1.1493446e-24)
(0.10170632 0.0001772725 0)
(0.10169581 0.00022287875 0)
(0.10168162 0.00026763757 0)
(0.10166343 0.00031127467 2.3539542e-24)
(0.10164302 0.00035421069 -2.353952e-24)
(0.10161715 0.00039482233 2.1872031e-24)
(0.1015928 0.00043638379 -2.1872021e-24)
(0.10155793 0.00047036004 3.8955368e-24)
(0.10153183 0.00051337643 -7.4861228e-24)
(0.10148382 0.00053496541 3.5905882e-24)
(0.10145102 0.00057401128 0)
(0.10136374 0.00058358268 2.1948959e-24)
(0.10132116 0.00062467421 -2.1948293e-24)
(0.10122611 0.00061738199 0)
(0.10122966 0.00064391587 0)