/*--------------------------------*- C++ -*----------------------------------*\
| =========                 |                                                 |
| \\      /  F ield         | OpenFOAM: The Open Source CFD Toolbox           |
|  \\    /   O peration     | Version:  2406                                  |
|   \\  /    A nd           | Website:  www.openfoam.com                      |
|    \\/     M anipulation  |                                                 |
\*---------------------------------------------------------------------------*/
FoamFile
{
    version     2.0;
    format      ascii;
    arch        "LSB;label=32;scalar=64";
    class       volScalarField;
    location    "160";
    object      p;
}
// * * * * * * * * * * * * * * * * * * * * * * * * * * * * * * * * * * * * * //

dimensions      [0 2 -2 0 0 0 0];

internalField   nonuniform List<scalar> 
16128
(
4.06032e-10
7.00296e-10
5.77833e-10
1.44334e-10
3.81749e-10
1.11562e-09
2.4778e-09
4.51637e-09
7.24057e-09
1.06487e-08
1.47377e-08
1.95058e-08
2.49546e-08
3.10908e-08
3.79264e-08
4.54776e-08
5.37637e-08
6.28063e-08
7.26284e-08
8.32548e-08
9.4712e-08
1.07027e-07
1.2023e-07
1.3435e-07
1.49418e-07
1.65465e-07
1.82525e-07
2.00631e-07
2.19818e-07
2.4012e-07
2.61574e-07
2.84215e-07
3.08079e-07
3.33203e-07
3.59623e-07
3.87373e-07
4.16491e-07
4.4701e-07
4.78967e-07
5.12393e-07
5.47323e-07
5.83788e-07
6.21821e-07
6.6145e-07
7.02704e-07
7.45608e-07
7.90187e-07
8.36462e-07
8.8445e-07
9.34167e-07
9.85627e-07
1.03884e-06
1.09381e-06
1.15053e-06
1.20902e-06
1.26925e-06
1.33123e-06
1.39493e-06
1.46034e-06
1.52743e-06
1.59617e-06
1.66653e-06
1.73848e-06
1.81195e-06
1.88692e-06
1.96331e-06
2.04107e-06
2.12013e-06
2.20043e-06
2.28188e-06
2.36441e-06
2.44792e-06
2.53233e-06
2.61755e-06
2.70346e-06
2.78999e-06
2.877e-06
2.9644e-06
3.05208e-06
3.13991e-06
3.2278e-06
3.3156e-06
3.4032e-06
3.49049e-06
3.57733e-06
3.66362e-06
3.74923e-06
3.83404e-06
3.91794e-06
4.0008e-06
4.08252e-06
4.16299e-06
4.24209e-06
4.31973e-06
4.3958e-06
4.4702e-06
4.54285e-06
4.61366e-06
4.68254e-06
4.74942e-06
4.81423e-06
4.87689e-06
8.99339e-10
9.39589e-10
9.85662e-10
1.13979e-09
1.69388e-09
2.72007e-09
4.30034e-09
6.48513e-09
9.29869e-09
1.27535e-08
1.68595e-08
2.16265e-08
2.70652e-08
3.31872e-08
4.00067e-08
4.75406e-08
5.58082e-08
6.48314e-08
7.46336e-08
8.52396e-08
9.66757e-08
1.08969e-07
1.22149e-07
1.36246e-07
1.51289e-07
1.67311e-07
1.84346e-07
2.02426e-07
2.21586e-07
2.41861e-07
2.63288e-07
2.85901e-07
3.09737e-07
3.34832e-07
3.61223e-07
3.88945e-07
4.18034e-07
4.48524e-07
4.80451e-07
5.13849e-07
5.48749e-07
5.85186e-07
6.23191e-07
6.62792e-07
7.04018e-07
7.46895e-07
7.91447e-07
8.37695e-07
8.85657e-07
9.35348e-07
9.86782e-07
1.03997e-06
1.09491e-06
1.15161e-06
1.21007e-06
1.27028e-06
1.33223e-06
1.39591e-06
1.46129e-06
1.52836e-06
1.59708e-06
1.66741e-06
1.73933e-06
1.81278e-06
1.88771e-06
1.96407e-06
2.0418e-06
2.12083e-06
2.20109e-06
2.28251e-06
2.36499e-06
2.44846e-06
2.53283e-06
2.61799e-06
2.70386e-06
2.79033e-06
2.87729e-06
2.96463e-06
3.05224e-06
3.14e-06
3.22781e-06
3.31553e-06
3.40306e-06
3.49026e-06
3.57702e-06
3.66322e-06
3.74873e-06
3.83344e-06
3.91724e-06
3.99999e-06
4.0816e-06
4.16195e-06
4.24094e-06
4.31846e-06
4.39441e-06
4.46869e-06
4.54122e-06
4.6119e-06
4.68066e-06
4.74742e-06
4.8121e-06
4.87464e-06
1.52787e-09
1.18307e-09
1.15565e-09
1.40976e-09
2.06131e-09
3.18986e-09
4.8541e-09
7.097e-09
9.94592e-09
1.34176e-08
1.75248e-08
2.22801e-08
2.76972e-08
3.37911e-08
4.0578e-08
4.80758e-08
5.63046e-08
6.5286e-08
7.50438e-08
8.56031e-08
9.69902e-08
1.09233e-07
1.2236e-07
1.36401e-07
1.51388e-07
1.67352e-07
1.84326e-07
2.02345e-07
2.21443e-07
2.41655e-07
2.63017e-07
2.85566e-07
3.09337e-07
3.34366e-07
3.60691e-07
3.88347e-07
4.1737e-07
4.47796e-07
4.79659e-07
5.12994e-07
5.47834e-07
5.84212e-07
6.2216e-07
6.61707e-07
7.02881e-07
7.45709e-07
7.90215e-07
8.3642e-07
8.84342e-07
9.33999e-07
9.85402e-07
1.03856e-06
1.09348e-06
1.15017e-06
1.20862e-06
1.26882e-06
1.33077e-06
1.39445e-06
1.45985e-06
1.52693e-06
1.59567e-06
1.66604e-06
1.73799e-06
1.81148e-06
1.88646e-06
1.96287e-06
2.04066e-06
2.11975e-06
2.20008e-06
2.28157e-06
2.36413e-06
2.44768e-06
2.53213e-06
2.61739e-06
2.70335e-06
2.78991e-06
2.87696e-06
2.96439e-06
3.0521e-06
3.13997e-06
3.22787e-06
3.31569e-06
3.4033e-06
3.4906e-06
3.57744e-06
3.66372e-06
3.74932e-06
3.8341e-06
3.91797e-06
4.00079e-06
4.08246e-06
4.16287e-06
4.2419e-06
4.31946e-06
4.39545e-06
4.46976e-06
4.54231e-06
4.61301e-06
4.68177e-06
4.74853e-06
4.81321e-06
4.87574e-06
2.18243e-09
1.24852e-09
1.05766e-09
1.2778e-09
1.94549e-09
3.11703e-09
4.82579e-09
7.09989e-09
9.96308e-09
1.34336e-08
1.75262e-08
2.22555e-08
2.76366e-08
3.36863e-08
4.04224e-08
4.78641e-08
5.60322e-08
6.49489e-08
7.46378e-08
8.51244e-08
9.64352e-08
1.08598e-07
1.21642e-07
1.35598e-07
1.50496e-07
1.66368e-07
1.83249e-07
2.01172e-07
2.20173e-07
2.40286e-07
2.61549e-07
2.83996e-07
3.07666e-07
3.32593e-07
3.58816e-07
3.86369e-07
4.15291e-07
4.45617e-07
4.77382e-07
5.10621e-07
5.45368e-07
5.81657e-07
6.19518e-07
6.58983e-07
7.00079e-07
7.42835e-07
7.87273e-07
8.33417e-07
8.81284e-07
9.30893e-07
9.82256e-07
1.03538e-06
1.09028e-06
1.14695e-06
1.20539e-06
1.2656e-06
1.32757e-06
1.39128e-06
1.45671e-06
1.52384e-06
1.59264e-06
1.66307e-06
1.7351e-06
1.80868e-06
1.88376e-06
1.96029e-06
2.0382e-06
2.11743e-06
2.1979e-06
2.27954e-06
2.36226e-06
2.44599e-06
2.53062e-06
2.61606e-06
2.70221e-06
2.78897e-06
2.87623e-06
2.96387e-06
3.05179e-06
3.13987e-06
3.22798e-06
3.31601e-06
3.40383e-06
3.49133e-06
3.57839e-06
3.66487e-06
3.75066e-06
3.83564e-06
3.91968e-06
4.00268e-06
4.08452e-06
4.16508e-06
4.24426e-06
4.32196e-06
4.39807e-06
4.4725e-06
4.54515e-06
4.61594e-06
4.68479e-06
4.75162e-06
4.81636e-06
4.87894e-06
2.22421e-09
8.80522e-10
5.42561e-10
6.90139e-10
1.32781e-09
2.49775e-09
4.21481e-09
6.49286e-09
9.34868e-09
1.27988e-08
1.6859e-08
2.15449e-08
2.68729e-08
3.28608e-08
3.95274e-08
4.68928e-08
5.49784e-08
6.38069e-08
7.34025e-08
8.37906e-08
9.49981e-08
1.07053e-07
1.19985e-07
1.33824e-07
1.48601e-07
1.6435e-07
1.81105e-07
1.98899e-07
2.17767e-07
2.37747e-07
2.58874e-07
2.81185e-07
3.04716e-07
3.29505e-07
3.55589e-07
3.83005e-07
4.1179e-07
4.4198e-07
4.73613e-07
5.06723e-07
5.41345e-07
5.77513e-07
6.15259e-07
6.54614e-07
6.95608e-07
7.38267e-07
7.82616e-07
8.2868e-07
8.76477e-07
9.26025e-07
9.77338e-07
1.03043e-06
1.0853e-06
1.14196e-06
1.2004e-06
1.26062e-06
1.32262e-06
1.38637e-06
1.45186e-06
1.51907e-06
1.58796e-06
1.6585e-06
1.73065e-06
1.80437e-06
1.87961e-06
1.95631e-06
2.03441e-06
2.11384e-06
2.19453e-06
2.2764e-06
2.35938e-06
2.44336e-06
2.52826e-06
2.61399e-06
2.70044e-06
2.7875e-06
2.87507e-06
2.96303e-06
3.05127e-06
3.13967e-06
3.22811e-06
3.31647e-06
3.40463e-06
3.49245e-06
3.57983e-06
3.66663e-06
3.75273e-06
3.83801e-06
3.92235e-06
4.00563e-06
4.08774e-06
4.16856e-06
4.24799e-06
4.32591e-06
4.40224e-06
4.47687e-06
4.54971e-06
4.62067e-06
4.68967e-06
4.75664e-06
4.8215e-06
4.88418e-06
1.69537e-09
-2.24057e-11
-5.03858e-10
-4.44266e-10
1.3703e-10
1.27274e-09
2.96579e-09
5.21985e-09
8.04498e-09
1.14545e-08
1.54631e-08
2.00871e-08
2.53436e-08
3.12508e-08
3.78283e-08
4.50967e-08
5.30779e-08
6.17951e-08
7.12726e-08
8.15364e-08
9.26136e-08
1.04532e-07
1.17323e-07
1.31015e-07
1.45641e-07
1.61235e-07
1.77829e-07
1.9546e-07
2.14163e-07
2.33975e-07
2.54931e-07
2.77069e-07
3.00426e-07
3.2504e-07
3.5095e-07
3.78192e-07
4.06804e-07
4.36825e-07
4.68292e-07
5.0124e-07
5.35705e-07
5.71721e-07
6.09323e-07
6.4854e-07
6.89405e-07
7.31944e-07
7.76184e-07
8.22149e-07
8.6986e-07
9.19334e-07
9.70588e-07
1.02363e-06
1.07848e-06
1.13512e-06
1.19357e-06
1.25382e-06
1.31586e-06
1.37968e-06
1.44525e-06
1.51256e-06
1.58158e-06
1.65226e-06
1.72459e-06
1.7985e-06
1.87395e-06
1.95088e-06
2.02924e-06
2.10895e-06
2.18993e-06
2.27212e-06
2.35543e-06
2.43976e-06
2.52504e-06
2.61115e-06
2.69799e-06
2.78547e-06
2.87346e-06
2.96185e-06
3.05053e-06
3.13937e-06
3.22826e-06
3.31707e-06
3.40567e-06
3.49395e-06
3.58176e-06
3.669e-06
3.75553e-06
3.84123e-06
3.92597e-06
4.00965e-06
4.09214e-06
4.17332e-06
4.2531e-06
4.33135e-06
4.40799e-06
4.48291e-06
4.55602e-06
4.62723e-06
4.69646e-06
4.76363e-06
4.82867e-06
4.89151e-06
4.72083e-10
-1.54126e-09
-2.15391e-09
-2.18551e-09
-1.67244e-09
-5.90118e-10
1.05588e-09
3.26265e-09
6.03543e-09
9.38434e-09
1.33227e-08
1.78662e-08
2.30322e-08
2.88393e-08
3.53075e-08
4.24578e-08
5.03125e-08
5.88948e-08
6.82298e-08
7.83434e-08
8.92631e-08
1.01018e-07
1.13637e-07
1.27153e-07
1.41597e-07
1.57003e-07
1.73405e-07
1.9084e-07
2.09342e-07
2.2895e-07
2.497e-07
2.71629e-07
2.94777e-07
3.1918e-07
3.44879e-07
3.71911e-07
4.00317e-07
4.30133e-07
4.61399e-07
4.94151e-07
5.28427e-07
5.64261e-07
6.01688e-07
6.4074e-07
6.8145e-07
7.23845e-07
7.67954e-07
8.13802e-07
8.6141e-07
9.10799e-07
9.61984e-07
1.01498e-06
1.06979e-06
1.12643e-06
1.18489e-06
1.24517e-06
1.30727e-06
1.37117e-06
1.43685e-06
1.50429e-06
1.57347e-06
1.64435e-06
1.71689e-06
1.79104e-06
1.86676e-06
1.94399e-06
2.02266e-06
2.10272e-06
2.18408e-06
2.26667e-06
2.3504e-06
2.43518e-06
2.52092e-06
2.60751e-06
2.69486e-06
2.78286e-06
2.87138e-06
2.96032e-06
3.04955e-06
3.13896e-06
3.22842e-06
3.31779e-06
3.40697e-06
3.49581e-06
3.58419e-06
3.67198e-06
3.75906e-06
3.8453e-06
3.93057e-06
4.01475e-06
4.09773e-06
4.17938e-06
4.2596e-06
4.33829e-06
4.41533e-06
4.49062e-06
4.56408e-06
4.63562e-06
4.70514e-06
4.77259e-06
4.83787e-06
4.90093e-06
-1.50691e-09
-3.72963e-09
-4.45325e-09
-4.57291e-09
-4.13315e-09
-3.11554e-09
-1.53235e-09
6.09014e-10
3.31066e-09
6.58039e-09
1.04301e-08
1.48747e-08
1.99314e-08
2.56189e-08
3.19574e-08
3.89683e-08
4.66738e-08
5.50978e-08
6.42654e-08
7.42028e-08
8.4938e-08
9.65002e-08
1.0892e-07
1.22228e-07
1.36459e-07
1.51646e-07
1.67823e-07
1.85028e-07
2.03295e-07
2.22664e-07
2.43172e-07
2.64857e-07
2.87758e-07
3.11915e-07
3.37367e-07
3.64153e-07
3.92315e-07
4.21892e-07
4.52922e-07
4.85445e-07
5.19499e-07
5.55119e-07
5.92341e-07
6.312e-07
6.71727e-07
7.13954e-07
7.5791e-07
8.03621e-07
8.5111e-07
9.00399e-07
9.51505e-07
1.00444e-06
1.05922e-06
1.11585e-06
1.17433e-06
1.23466e-06
1.29683e-06
1.36083e-06
1.42664e-06
1.49425e-06
1.56362e-06
1.63472e-06
1.70752e-06
1.78197e-06
1.85801e-06
1.9356e-06
2.01467e-06
2.09514e-06
2.17696e-06
2.26003e-06
2.34427e-06
2.42959e-06
2.51589e-06
2.60308e-06
2.69104e-06
2.77966e-06
2.86883e-06
2.95844e-06
3.04834e-06
3.13843e-06
3.22858e-06
3.31865e-06
3.40852e-06
3.49806e-06
3.58712e-06
3.6756e-06
3.76334e-06
3.85023e-06
3.93614e-06
4.02094e-06
4.10452e-06
4.18675e-06
4.26752e-06
4.34672e-06
4.42426e-06
4.50002e-06
4.57391e-06
4.64584e-06
4.71574e-06
4.78352e-06
4.84911e-06
4.91244e-06
-4.25809e-09
-6.61862e-09
-7.4302e-09
-7.63113e-09
-7.26677e-09
-6.32166e-09
-4.81295e-09
-2.75133e-09
-1.36813e-10
3.03684e-09
6.78039e-09
1.11081e-08
1.60369e-08
2.15854e-08
2.77739e-08
3.46238e-08
4.21576e-08
5.03995e-08
5.93746e-08
6.91098e-08
7.96334e-08
9.09749e-08
1.03165e-07
1.16237e-07
1.30223e-07
1.45158e-07
1.61078e-07
1.78018e-07
1.96016e-07
2.1511e-07
2.3534e-07
2.56744e-07
2.79362e-07
3.03235e-07
3.28404e-07
3.54909e-07
3.82791e-07
4.12091e-07
4.42852e-07
4.75111e-07
5.08908e-07
5.44282e-07
5.81269e-07
6.19904e-07
6.60222e-07
7.02255e-07
7.46035e-07
7.91588e-07
8.38941e-07
8.88116e-07
9.39131e-07
9.92004e-07
1.04675e-06
1.10337e-06
1.16187e-06
1.22225e-06
1.2845e-06
1.34862e-06
1.41459e-06
1.48239e-06
1.55199e-06
1.62336e-06
1.69647e-06
1.77126e-06
1.84769e-06
1.9257e-06
2.00522e-06
2.0862e-06
2.16855e-06
2.25218e-06
2.33703e-06
2.42298e-06
2.50995e-06
2.59783e-06
2.68651e-06
2.77588e-06
2.86581e-06
2.95619e-06
3.0469e-06
3.13779e-06
3.22876e-06
3.31965e-06
3.41034e-06
3.50069e-06
3.59057e-06
3.67985e-06
3.76839e-06
3.85605e-06
3.94272e-06
4.02825e-06
4.11254e-06
4.19545e-06
4.27687e-06
4.3567e-06
4.43481e-06
4.51112e-06
4.58553e-06
4.65794e-06
4.72828e-06
4.79646e-06
4.8624e-06
4.92606e-06
-7.7704e-09
-1.02195e-08
-1.10992e-08
-1.13732e-08
-1.10845e-08
-1.02178e-08
-8.79298e-09
-6.82308e-09
-4.30959e-09
-1.24733e-09
2.37367e-09
6.56718e-09
1.13498e-08
1.674e-08
2.27581e-08
2.94254e-08
3.67649e-08
4.48006e-08
5.35582e-08
6.30649e-08
7.33496e-08
8.44423e-08
9.63746e-08
1.09179e-07
1.22889e-07
1.3754e-07
1.53167e-07
1.69809e-07
1.87502e-07
2.06286e-07
2.26201e-07
2.47287e-07
2.69586e-07
2.93138e-07
3.17985e-07
3.44171e-07
3.71736e-07
4.00725e-07
4.31178e-07
4.63138e-07
4.96645e-07
5.31739e-07
5.68457e-07
6.06838e-07
6.46918e-07
6.88731e-07
7.3231e-07
7.77684e-07
8.24881e-07
8.73925e-07
9.24838e-07
9.77637e-07
1.03234e-06
1.08894e-06
1.14747e-06
1.20791e-06
1.27027e-06
1.33452e-06
1.40067e-06
1.46869e-06
1.53856e-06
1.61024e-06
1.68369e-06
1.75888e-06
1.83575e-06
1.91424e-06
1.9943e-06
2.07585e-06
2.15881e-06
2.24311e-06
2.32864e-06
2.41533e-06
2.50307e-06
2.59175e-06
2.68126e-06
2.77148e-06
2.8623e-06
2.95359e-06
3.04521e-06
3.13704e-06
3.22895e-06
3.32079e-06
3.41243e-06
3.50373e-06
3.59455e-06
3.68476e-06
3.77422e-06
3.86278e-06
3.95032e-06
4.03671e-06
4.12181e-06
4.20551e-06
4.28769e-06
4.36824e-06
4.44703e-06
4.52398e-06
4.59898e-06
4.67194e-06
4.74279e-06
4.81143e-06
4.8778e-06
4.94183e-06
-1.20206e-08
-1.45282e-08
-1.54627e-08
-1.58029e-08
-1.55893e-08
-1.48056e-08
-1.34727e-08
-1.16051e-08
-9.20516e-09
-6.26846e-09
-2.78553e-09
1.25701e-09
5.87548e-09
1.10883e-08
1.69156e-08
2.33789e-08
3.0501e-08
3.83064e-08
4.68213e-08
5.60732e-08
6.60916e-08
7.6907e-08
8.85513e-08
1.01057e-07
1.1446e-07
1.28793e-07
1.44094e-07
1.60402e-07
1.77754e-07
1.96191e-07
2.15755e-07
2.36486e-07
2.58426e-07
2.81619e-07
3.06107e-07
3.31935e-07
3.59146e-07
3.87784e-07
4.17894e-07
4.49518e-07
4.82698e-07
5.17476e-07
5.53893e-07
5.91988e-07
6.31799e-07
6.73363e-07
7.16715e-07
7.61886e-07
8.08907e-07
8.57803e-07
9.08598e-07
9.61312e-07
1.01596e-06
1.07256e-06
1.13111e-06
1.19162e-06
1.25408e-06
1.3185e-06
1.38485e-06
1.45312e-06
1.52328e-06
1.59531e-06
1.66916e-06
1.7448e-06
1.82217e-06
1.90121e-06
1.98186e-06
2.06406e-06
2.14772e-06
2.23276e-06
2.31909e-06
2.40661e-06
2.49522e-06
2.58481e-06
2.67527e-06
2.76647e-06
2.85829e-06
2.9506e-06
3.04328e-06
3.13617e-06
3.22915e-06
3.32208e-06
3.4148e-06
3.50719e-06
3.59908e-06
3.69035e-06
3.78085e-06
3.87044e-06
3.95898e-06
4.04634e-06
4.13238e-06
4.21698e-06
4.30002e-06
4.38138e-06
4.46095e-06
4.53862e-06
4.6143e-06
4.68789e-06
4.75931e-06
4.82848e-06
4.89532e-06
4.95978e-06
-1.69831e-08
-1.95318e-08
-2.05138e-08
-2.09159e-08
-2.07775e-08
-2.00808e-08
-1.88472e-08
-1.70915e-08
-1.48168e-08
-1.2019e-08
-8.68907e-09
-4.81379e-09
-3.77071e-10
4.63935e-09
1.02555e-08
1.64928e-08
2.33746e-08
3.09256e-08
3.91723e-08
4.81429e-08
5.78673e-08
6.83765e-08
7.97027e-08
9.18792e-08
1.04941e-07
1.18923e-07
1.33863e-07
1.49801e-07
1.66776e-07
1.8483e-07
2.04003e-07
2.24341e-07
2.45884e-07
2.68678e-07
2.92768e-07
3.18198e-07
3.45015e-07
3.73264e-07
4.0299e-07
4.34239e-07
4.67055e-07
5.01481e-07
5.3756e-07
5.75335e-07
6.14845e-07
6.5613e-07
6.99227e-07
7.4417e-07
7.90991e-07
8.39719e-07
8.90379e-07
9.42996e-07
9.97587e-07
1.05417e-06
1.11275e-06
1.17333e-06
1.23591e-06
1.3005e-06
1.36707e-06
1.43562e-06
1.50612e-06
1.57853e-06
1.65283e-06
1.72896e-06
1.80689e-06
1.88654e-06
1.96787e-06
2.05079e-06
2.13523e-06
2.22111e-06
2.30832e-06
2.39677e-06
2.48637e-06
2.57698e-06
2.6685e-06
2.76081e-06
2.85376e-06
2.94723e-06
3.04109e-06
3.13518e-06
3.22937e-06
3.32352e-06
3.41746e-06
3.51107e-06
3.60417e-06
3.69664e-06
3.78832e-06
3.87906e-06
3.96873e-06
4.05718e-06
4.14428e-06
4.22989e-06
4.3139e-06
4.39618e-06
4.47661e-06
4.5551e-06
4.63154e-06
4.70583e-06
4.7779e-06
4.84766e-06
4.91503e-06
4.97996e-06
-2.26339e-08
-2.52132e-08
-2.62393e-08
-2.6702e-08
-2.66399e-08
-2.60345e-08
-2.49071e-08
-2.32726e-08
-2.11343e-08
-1.84884e-08
-1.5326e-08
-1.1634e-08
-7.39656e-09
-2.59556e-09
2.78894e-09
8.77861e-09
1.53969e-08
2.2669e-08
3.0622e-08
3.92847e-08
4.8687e-08
5.88605e-08
6.98377e-08
8.16524e-08
9.43397e-08
1.07936e-07
1.22481e-07
1.38013e-07
1.54573e-07
1.72205e-07
1.9095e-07
2.10853e-07
2.3196e-07
2.54315e-07
2.77964e-07
3.02956e-07
3.29338e-07
3.57156e-07
3.86458e-07
4.17292e-07
4.49703e-07
4.83738e-07
5.19442e-07
5.5686e-07
5.96035e-07
6.37008e-07
6.7982e-07
7.24506e-07
7.71101e-07
8.19639e-07
8.70147e-07
9.22651e-07
9.77173e-07
1.03373e-06
1.09233e-06
1.15299e-06
1.21571e-06
1.28048e-06
1.3473e-06
1.41615e-06
1.487e-06
1.55984e-06
1.63463e-06
1.71131e-06
1.78985e-06
1.87019e-06
1.95226e-06
2.03599e-06
2.12129e-06
2.2081e-06
2.2963e-06
2.38579e-06
2.47648e-06
2.56823e-06
2.66094e-06
2.75447e-06
2.84868e-06
2.94345e-06
3.03862e-06
3.13405e-06
3.2296e-06
3.3251e-06
3.42042e-06
3.51538e-06
3.60984e-06
3.70364e-06
3.79664e-06
3.88867e-06
3.97959e-06
4.06926e-06
4.15754e-06
4.24428e-06
4.32937e-06
4.41267e-06
4.49408e-06
4.57347e-06
4.65075e-06
4.72583e-06
4.79861e-06
4.86902e-06
4.93698e-06
5.00243e-06
-2.89498e-08
-3.15542e-08
-3.26231e-08
-3.3147e-08
-3.31637e-08
-3.26543e-08
-3.16401e-08
-3.01359e-08
-2.8145e-08
-2.56637e-08
-2.26831e-08
-1.91903e-08
-1.51696e-08
-1.06031e-08
-5.47075e-09
2.49293e-10
6.58086e-09
1.35497e-08
2.11833e-08
2.95108e-08
3.85625e-08
4.83703e-08
5.8967e-08
7.03869e-08
8.2666e-08
9.58419e-08
1.09954e-07
1.25043e-07
1.41151e-07
1.58321e-07
1.76598e-07
1.96027e-07
2.16654e-07
2.38527e-07
2.61695e-07
2.86206e-07
3.12108e-07
3.39452e-07
3.68287e-07
3.98662e-07
4.30627e-07
4.6423e-07
4.99519e-07
5.36542e-07
5.75344e-07
6.15971e-07
6.58463e-07
7.02861e-07
7.49204e-07
7.97526e-07
8.4786e-07
9.00234e-07
9.54673e-07
1.0112e-06
1.06982e-06
1.13056e-06
1.19341e-06
1.25838e-06
1.32546e-06
1.39463e-06
1.46588e-06
1.53918e-06
1.6145e-06
1.69179e-06
1.771e-06
1.85209e-06
1.93497e-06
2.01958e-06
2.10585e-06
2.19367e-06
2.28296e-06
2.37361e-06
2.4655e-06
2.55851e-06
2.65253e-06
2.74741e-06
2.84303e-06
2.93922e-06
3.03586e-06
3.13277e-06
3.22982e-06
3.32684e-06
3.42366e-06
3.52014e-06
3.6161e-06
3.71138e-06
3.80583e-06
3.8993e-06
3.99161e-06
4.08263e-06
4.17221e-06
4.2602e-06
4.34648e-06
4.43092e-06
4.51339e-06
4.59379e-06
4.672e-06
4.74793e-06
4.8215e-06
4.89261e-06
4.96121e-06
5.02723e-06
-3.59076e-08
-3.85353e-08
-3.96468e-08
-4.02338e-08
-4.03328e-08
-3.99249e-08
-3.90311e-08
-3.76664e-08
-3.58339e-08
-3.35298e-08
-3.07452e-08
-2.74676e-08
-2.36813e-08
-1.93683e-08
-1.45087e-08
-9.08022e-09
-3.05864e-09
3.58224e-09
1.08704e-08
1.88351e-08
2.7507e-08
3.69183e-08
4.71022e-08
5.80937e-08
6.99299e-08
8.26491e-08
9.62917e-08
1.109e-07
1.26516e-07
1.43184e-07
1.60951e-07
1.79863e-07
1.99969e-07
2.21317e-07
2.43958e-07
2.67942e-07
2.9332e-07
3.20144e-07
3.48466e-07
3.78338e-07
4.09811e-07
4.42938e-07
4.7777e-07
5.14356e-07
5.52746e-07
5.92986e-07
6.35123e-07
6.792e-07
7.25259e-07
7.73339e-07
8.23474e-07
8.75698e-07
9.30037e-07
9.86517e-07
1.04516e-06
1.10597e-06
1.16896e-06
1.23413e-06
1.30149e-06
1.37101e-06
1.44269e-06
1.51648e-06
1.59238e-06
1.67032e-06
1.75027e-06
1.83216e-06
1.91593e-06
2.00152e-06
2.08883e-06
2.17777e-06
2.26825e-06
2.36015e-06
2.45337e-06
2.54777e-06
2.64323e-06
2.7396e-06
2.83675e-06
2.93453e-06
3.03277e-06
3.13132e-06
3.23002e-06
3.32871e-06
3.4272e-06
3.52534e-06
3.62296e-06
3.71988e-06
3.81594e-06
3.91097e-06
4.00482e-06
4.09733e-06
4.18834e-06
4.27771e-06
4.3653e-06
4.45098e-06
4.53462e-06
4.61611e-06
4.69534e-06
4.77221e-06
4.84663e-06
4.91852e-06
4.98781e-06
5.05444e-06
-4.34842e-08
-4.61357e-08
-4.7291e-08
-4.79436e-08
-4.81293e-08
-4.78288e-08
-4.70631e-08
-4.58472e-08
-4.41841e-08
-4.20698e-08
-3.94957e-08
-3.64492e-08
-3.29148e-08
-2.88746e-08
-2.43083e-08
-1.91934e-08
-1.35053e-08
-7.21723e-09
-3.0112e-10
7.27265e-09
1.5535e-08
2.45183e-08
3.42565e-08
4.47855e-08
5.61432e-08
6.83691e-08
8.15045e-08
9.55919e-08
1.10675e-07
1.26801e-07
1.44015e-07
1.62366e-07
1.81905e-07
2.02682e-07
2.2475e-07
2.4816e-07
2.72966e-07
2.99223e-07
3.26984e-07
3.56305e-07
3.8724e-07
4.19845e-07
4.54173e-07
4.90277e-07
5.28211e-07
5.68023e-07
6.09765e-07
6.53484e-07
6.99225e-07
7.4703e-07
7.96938e-07
8.48987e-07
9.03207e-07
9.59626e-07
1.01827e-06
1.07915e-06
1.14228e-06
1.20767e-06
1.27532e-06
1.34521e-06
1.41733e-06
1.49166e-06
1.56817e-06
1.64682e-06
1.72756e-06
1.81033e-06
1.89507e-06
1.9817e-06
2.07015e-06
2.16031e-06
2.25209e-06
2.34536e-06
2.44003e-06
2.53594e-06
2.63298e-06
2.73099e-06
2.82982e-06
2.92932e-06
3.02933e-06
3.12968e-06
3.2302e-06
3.33071e-06
3.43103e-06
3.531e-06
3.63043e-06
3.72915e-06
3.82697e-06
3.92373e-06
4.01927e-06
4.1134e-06
4.20598e-06
4.29686e-06
4.38589e-06
4.47292e-06
4.55784e-06
4.64052e-06
4.72085e-06
4.79874e-06
4.87408e-06
4.9468e-06
5.01684e-06
5.08412e-06
-5.16564e-08
-5.43336e-08
-5.55348e-08
-5.62563e-08
-5.65335e-08
-5.63468e-08
-5.57173e-08
-5.46597e-08
-5.3177e-08
-5.12654e-08
-4.89162e-08
-4.61168e-08
-4.2852e-08
-3.91037e-08
-3.48514e-08
-3.00723e-08
-2.47411e-08
-1.88312e-08
-1.23141e-08
-5.16006e-09
2.66219e-09
1.11855e-08
2.04446e-08
3.04762e-08
4.13193e-08
5.30142e-08
6.56032e-08
7.91298e-08
9.36391e-08
1.09178e-07
1.25795e-07
1.4354e-07
1.62465e-07
1.82624e-07
2.04069e-07
2.26856e-07
2.5104e-07
2.76679e-07
3.03828e-07
3.32548e-07
3.62895e-07
3.94927e-07
4.28702e-07
4.64277e-07
5.01707e-07
5.41046e-07
5.8235e-07
6.25669e-07
6.71053e-07
7.18549e-07
7.68199e-07
8.20044e-07
8.7412e-07
9.30461e-07
9.89091e-07
1.05003e-06
1.1133e-06
1.17891e-06
1.24685e-06
1.31713e-06
1.38973e-06
1.46463e-06
1.5418e-06
1.6212e-06
1.70279e-06
1.78651e-06
1.87229e-06
1.96006e-06
2.04973e-06
2.14121e-06
2.2344e-06
2.32917e-06
2.4254e-06
2.52297e-06
2.62172e-06
2.72151e-06
2.82219e-06
2.92357e-06
3.02551e-06
3.12782e-06
3.23032e-06
3.33283e-06
3.43516e-06
3.53712e-06
3.63854e-06
3.73922e-06
3.83897e-06
3.93762e-06
4.03499e-06
4.1309e-06
4.2252e-06
4.31772e-06
4.4083e-06
4.49681e-06
4.58312e-06
4.66709e-06
4.74861e-06
4.82759e-06
4.90393e-06
4.97755e-06
5.04838e-06
5.11636e-06
-6.04009e-08
-6.31062e-08
-6.43559e-08
-6.51503e-08
-6.55243e-08
-6.54581e-08
-6.49729e-08
-6.40834e-08
-6.27925e-08
-6.10964e-08
-5.89865e-08
-5.64505e-08
-5.3473e-08
-5.00359e-08
-4.61183e-08
-4.16971e-08
-3.6747e-08
-3.12409e-08
-2.51503e-08
-1.84452e-08
-1.1094e-08
-3.06324e-09
5.68269e-09
1.51815e-08
2.54728e-08
3.65982e-08
4.86005e-08
6.15244e-08
7.5416e-08
9.03236e-08
1.06297e-07
1.23389e-07
1.41652e-07
1.61142e-07
1.81914e-07
2.04026e-07
2.27535e-07
2.52502e-07
2.78988e-07
3.07052e-07
3.36757e-07
3.68164e-07
4.01333e-07
4.36325e-07
4.732e-07
5.12018e-07
5.52836e-07
5.9571e-07
6.40695e-07
6.87841e-07
7.37196e-07
7.88805e-07
8.4271e-07
8.98948e-07
9.5755e-07
1.01854e-06
1.08194e-06
1.14776e-06
1.21602e-06
1.28669e-06
1.35979e-06
1.43529e-06
1.51316e-06
1.59336e-06
1.67586e-06
1.76059e-06
1.84749e-06
1.93648e-06
2.02748e-06
2.12038e-06
2.21509e-06
2.31148e-06
2.40941e-06
2.50877e-06
2.60939e-06
2.71112e-06
2.81379e-06
2.91723e-06
3.02126e-06
3.12571e-06
3.23037e-06
3.33505e-06
3.43957e-06
3.54372e-06
3.6473e-06
3.75011e-06
3.85197e-06
3.95267e-06
4.05204e-06
4.14989e-06
4.24605e-06
4.34035e-06
4.43263e-06
4.52274e-06
4.61054e-06
4.69591e-06
4.77872e-06
4.85887e-06
4.93628e-06
5.01085e-06
5.08252e-06
5.15123e-06
-6.9694e-08
-7.243e-08
-7.37313e-08
-7.46029e-08
-7.50793e-08
-7.51406e-08
-7.48079e-08
-7.40963e-08
-7.30085e-08
-7.15409e-08
-6.9685e-08
-6.74285e-08
-6.47561e-08
-6.16494e-08
-5.80875e-08
-5.40468e-08
-4.95021e-08
-4.4426e-08
-3.87898e-08
-3.25634e-08
-2.57146e-08
-1.82094e-08
-1.00112e-08
-1.0816e-09
8.62003e-09
1.9136e-08
3.05101e-08
4.2788e-08
5.60172e-08
7.02472e-08
8.55297e-08
1.01918e-07
1.19469e-07
1.38237e-07
1.58283e-07
1.79665e-07
2.02445e-07
2.26685e-07
2.5245e-07
2.79802e-07
3.08808e-07
3.39531e-07
3.72037e-07
4.06391e-07
4.42656e-07
4.80898e-07
5.21178e-07
5.63558e-07
6.08096e-07
6.54848e-07
7.03867e-07
7.55204e-07
8.08905e-07
8.65012e-07
9.23561e-07
9.84584e-07
1.0481e-06
1.11414e-06
1.1827e-06
1.25379e-06
1.32741e-06
1.40353e-06
1.48214e-06
1.5632e-06
1.64666e-06
1.73247e-06
1.82056e-06
1.91086e-06
2.00328e-06
2.09772e-06
2.19407e-06
2.29219e-06
2.39198e-06
2.49327e-06
2.59591e-06
2.69973e-06
2.80457e-06
2.91024e-06
3.01655e-06
3.12332e-06
3.23033e-06
3.33738e-06
3.44427e-06
3.55079e-06
3.65672e-06
3.76186e-06
3.866e-06
3.96894e-06
4.07048e-06
4.17044e-06
4.26861e-06
4.36484e-06
4.45895e-06
4.55079e-06
4.6402e-06
4.72707e-06
4.81127e-06
4.89268e-06
4.97122e-06
5.04681e-06
5.11937e-06
5.18885e-06
-7.95115e-08
-8.22807e-08
-8.36368e-08
-8.45901e-08
-8.51746e-08
-8.53703e-08
-8.51988e-08
-8.46748e-08
-8.38016e-08
-8.25756e-08
-8.09883e-08
-7.90277e-08
-7.66783e-08
-7.39215e-08
-7.07362e-08
-6.7099e-08
-6.29842e-08
-5.83646e-08
-5.32113e-08
-4.74936e-08
-4.11791e-08
-3.42328e-08
-2.66176e-08
-1.82943e-08
-9.22142e-09
6.4411e-10
1.13471e-08
2.29344e-08
3.54546e-08
4.89589e-08
6.35005e-08
7.91348e-08
9.59191e-08
1.13913e-07
1.33176e-07
1.53772e-07
1.75764e-07
1.99218e-07
2.24202e-07
2.50782e-07
2.79027e-07
3.09006e-07
3.40788e-07
3.74442e-07
4.10038e-07
4.47645e-07
4.87331e-07
5.29161e-07
5.73199e-07
6.19507e-07
6.68144e-07
7.19166e-07
7.72625e-07
8.28568e-07
8.87037e-07
9.4807e-07
1.0117e-06
1.07794e-06
1.14681e-06
1.21832e-06
1.29247e-06
1.36925e-06
1.44863e-06
1.53058e-06
1.61506e-06
1.70202e-06
1.79139e-06
1.88309e-06
1.97703e-06
2.07312e-06
2.17122e-06
2.27122e-06
2.37299e-06
2.47637e-06
2.58119e-06
2.68728e-06
2.79447e-06
2.90255e-06
3.01133e-06
3.12061e-06
3.23017e-06
3.33979e-06
3.44926e-06
3.55834e-06
3.66683e-06
3.77449e-06
3.88111e-06
3.98648e-06
4.09037e-06
4.1926e-06
4.29296e-06
4.39127e-06
4.48736e-06
4.58106e-06
4.67222e-06
4.76069e-06
4.84637e-06
4.92913e-06
5.00887e-06
5.08553e-06
5.15902e-06
5.2293e-06
-8.98278e-08
-9.26329e-08
-9.40471e-08
-9.50866e-08
-9.57851e-08
-9.61224e-08
-9.61203e-08
-9.57941e-08
-9.51469e-08
-9.41755e-08
-9.28717e-08
-9.12233e-08
-8.92148e-08
-8.68276e-08
-8.40404e-08
-8.08297e-08
-7.71699e-08
-7.30336e-08
-6.83917e-08
-6.32132e-08
-5.7465e-08
-5.11118e-08
-4.41156e-08
-3.64365e-08
-2.80325e-08
-1.88595e-08
-8.87173e-09
1.97869e-09
1.3742e-08
2.64706e-08
4.02196e-08
5.5046e-08
7.10093e-08
8.81707e-08
1.06594e-07
1.26343e-07
1.47487e-07
1.70093e-07
1.94232e-07
2.19975e-07
2.47394e-07
2.76563e-07
3.07555e-07
3.40445e-07
3.75308e-07
4.12216e-07
4.51245e-07
4.92464e-07
5.35945e-07
5.81754e-07
6.29957e-07
6.80615e-07
7.33788e-07
7.89528e-07
8.47884e-07
9.08899e-07
9.7261e-07
1.03904e-06
1.10823e-06
1.18016e-06
1.25486e-06
1.33231e-06
1.4125e-06
1.49539e-06
1.58095e-06
1.66912e-06
1.75984e-06
1.85303e-06
1.9486e-06
2.04644e-06
2.14643e-06
2.24843e-06
2.35235e-06
2.45797e-06
2.56514e-06
2.67369e-06
2.7834e-06
2.89409e-06
3.00555e-06
3.11754e-06
3.22986e-06
3.34227e-06
3.45452e-06
3.5664e-06
3.67765e-06
3.78805e-06
3.89735e-06
4.00534e-06
4.11178e-06
4.21647e-06
4.31919e-06
4.41975e-06
4.51797e-06
4.61367e-06
4.70669e-06
4.79689e-06
4.88414e-06
4.96833e-06
5.04936e-06
5.12714e-06
5.20161e-06
5.27272e-06
-1.00617e-07
-1.0346e-07
-1.04936e-07
-1.06066e-07
-1.06884e-07
-1.0737e-07
-1.07546e-07
-1.07427e-07
-1.07018e-07
-1.06314e-07
-1.05309e-07
-1.03989e-07
-1.0234e-07
-1.00342e-07
-9.79744e-08
-9.52137e-08
-9.2034e-08
-8.84081e-08
-8.43064e-08
-7.96978e-08
-7.45487e-08
-6.88231e-08
-6.24826e-08
-5.54867e-08
-4.77925e-08
-3.93553e-08
-3.01283e-08
-2.00621e-08
-9.10541e-09
2.79603e-09
1.56988e-08
2.96619e-08
4.47467e-08
6.10168e-08
7.85382e-08
9.7379e-08
1.17609e-07
1.39301e-07
1.62528e-07
1.87365e-07
2.13889e-07
2.42178e-07
2.72311e-07
3.04366e-07
3.38425e-07
3.74567e-07
4.1287e-07
4.53412e-07
4.96271e-07
5.41519e-07
5.89229e-07
6.39469e-07
6.92305e-07
7.47797e-07
8.06001e-07
8.66966e-07
9.30735e-07
9.97345e-07
1.06682e-06
1.13918e-06
1.21444e-06
1.29258e-06
1.37361e-06
1.45748e-06
1.54417e-06
1.63363e-06
1.72578e-06
1.82055e-06
1.91785e-06
2.01756e-06
2.11957e-06
2.2237e-06
2.32993e-06
2.43797e-06
2.54767e-06
2.65885e-06
2.7713e-06
2.8848e-06
2.99914e-06
3.11408e-06
3.22938e-06
3.34479e-06
3.46007e-06
3.57496e-06
3.6892e-06
3.80255e-06
3.91476e-06
4.02559e-06
4.13478e-06
4.24212e-06
4.34739e-06
4.45038e-06
4.55089e-06
4.64873e-06
4.74375e-06
4.8358e-06
4.92473e-06
5.01043e-06
5.0928e-06
5.17176e-06
5.24725e-06
5.31922e-06
-1.11851e-07
-1.14735e-07
-1.16276e-07
-1.17501e-07
-1.18445e-07
-1.19086e-07
-1.19449e-07
-1.19547e-07
-1.19387e-07
-1.18965e-07
-1.18272e-07
-1.17298e-07
-1.16026e-07
-1.14437e-07
-1.12511e-07
-1.10224e-07
-1.0755e-07
-1.04462e-07
-1.00929e-07
-9.69218e-08
-9.24048e-08
-8.73421e-08
-8.16947e-08
-7.54216e-08
-6.84793e-08
-6.08222e-08
-5.24023e-08
-4.31693e-08
-3.30701e-08
-2.20492e-08
-1.00481e-08
2.9939e-09
1.71404e-08
3.24574e-08
4.90134e-08
6.68792e-08
8.61282e-08
1.06836e-07
1.29079e-07
1.52938e-07
1.78493e-07
2.05828e-07
2.35025e-07
2.66171e-07
2.99351e-07
3.3465e-07
3.72153e-07
4.11946e-07
4.54111e-07
4.98729e-07
5.45881e-07
5.95641e-07
6.48083e-07
7.03275e-07
7.61279e-07
8.22155e-07
8.85952e-07
9.52712e-07
1.02247e-06
1.09525e-06
1.17106e-06
1.24992e-06
1.33181e-06
1.4167e-06
1.50458e-06
1.59537e-06
1.68904e-06
1.78548e-06
1.88462e-06
1.98634e-06
2.09052e-06
2.19706e-06
2.30564e-06
2.41625e-06
2.52866e-06
2.64267e-06
2.75806e-06
2.8746e-06
2.99205e-06
3.11016e-06
3.22868e-06
3.34734e-06
3.46588e-06
3.58403e-06
3.70151e-06
3.81806e-06
3.93341e-06
4.0473e-06
4.15946e-06
4.26967e-06
4.37768e-06
4.48327e-06
4.58624e-06
4.68639e-06
4.78355e-06
4.87755e-06
4.96827e-06
5.05557e-06
5.13936e-06
5.21956e-06
5.2961e-06
5.36895e-06
-1.23501e-07
-1.26429e-07
-1.28038e-07
-1.29362e-07
-1.30437e-07
-1.31241e-07
-1.31798e-07
-1.32125e-07
-1.32225e-07
-1.32097e-07
-1.31733e-07
-1.3112e-07
-1.30244e-07
-1.29085e-07
-1.27622e-07
-1.25832e-07
-1.23689e-07
-1.21166e-07
-1.18233e-07
-1.14858e-07
-1.11006e-07
-1.06642e-07
-1.01726e-07
-9.62163e-08
-9.00686e-08
-8.32367e-08
-7.56716e-08
-6.73217e-08
-5.81326e-08
-4.80471e-08
-3.70052e-08
-2.49441e-08
-1.17982e-08
2.50088e-09
1.80242e-08
3.48457e-08
5.30417e-08
7.26912e-08
9.38757e-08
1.16679e-07
1.41187e-07
1.67487e-07
1.9567e-07
2.25824e-07
2.58043e-07
2.92418e-07
3.29041e-07
3.68003e-07
4.09396e-07
4.53309e-07
4.99829e-07
5.4904e-07
6.01023e-07
6.55854e-07
7.13607e-07
7.74346e-07
8.3813e-07
9.05009e-07
9.75025e-07
1.04821e-06
1.12458e-06
1.20416e-06
1.28693e-06
1.37289e-06
1.46199e-06
1.5542e-06
1.64945e-06
1.74766e-06
1.84875e-06
1.95259e-06
2.05906e-06
2.16801e-06