/*--------------------------------*- C++ -*----------------------------------*\
| =========                 |                                                 |
| \\      /  F ield         | OpenFOAM: The Open Source CFD Toolbox           |
|  \\    /   O peration     | Version:  2406                                  |
|   \\  /    A nd           | Website:  www.openfoam.com                      |
|    \\/     M anipulation  |                                                 |
\*---------------------------------------------------------------------------*/
FoamFile
{
    version     2.0;
    format      ascii;
    arch        "LSB;label=32;scalar=64";
    class       surfaceScalarField;
    location    "160";
    object      phi;
}
// * * * * * * * * * * * * * * * * * * * * * * * * * * * * * * * * * * * * * //

dimensions      [0 3 -1 0 0 0 0];

oriented        oriented;

internalField   nonuniform List<scalar> 
31968
(
2.10869e-10
-2.18725e-10
2.98219e-10
-8.73417e-11
-1.10023e-11
3.09272e-10
-7.51448e-10
7.40465e-10
-1.86073e-09
1.10923e-09
-3.23196e-09
1.37119e-09
-4.76765e-09
1.53572e-09
-6.39581e-09
1.62821e-09
-8.07002e-09
1.67423e-09
-9.76351e-09
1.69348e-09
-1.14627e-08
1.69912e-09
-1.31617e-08
1.69905e-09
-1.48592e-08
1.69745e-09
-1.65554e-08
1.69626e-09
-1.82516e-08
1.69615e-09
-1.99488e-08
1.69721e-09
-2.1648e-08
1.69927e-09
-2.33502e-08
1.70214e-09
-2.50558e-08
1.70562e-09
-2.67654e-08
1.70958e-09
-2.84793e-08
1.71392e-09
-3.01978e-08
1.71855e-09
-3.19213e-08
1.72343e-09
-3.36498e-08
1.72852e-09
-3.53836e-08
1.73378e-09
-3.71228e-08
1.73918e-09
-3.88675e-08
1.7447e-09
-4.06178e-08
1.7503e-09
-4.23737e-08
1.75595e-09
-4.41354e-08
1.76162e-09
-4.59027e-08
1.76728e-09
-4.76755e-08
1.77288e-09
-4.94539e-08
1.77838e-09
-5.12377e-08
1.78373e-09
-5.30265e-08
1.78887e-09
-5.48203e-08
1.79376e-09
-5.66187e-08
1.79833e-09
-5.84212e-08
1.80251e-09
-6.02274e-08
1.80621e-09
-6.20367e-08
1.80937e-09
-6.38486e-08
1.81189e-09
-6.56623e-08
1.81368e-09
-6.74769e-08
1.81463e-09
-6.92916e-08
1.81465e-09
-7.11052e-08
1.81361e-09
-7.29166e-08
1.81139e-09
-7.47244e-08
1.80788e-09
-7.65274e-08
1.80293e-09
-7.83238e-08
1.79641e-09
-8.0112e-08
1.78818e-09
-8.18901e-08
1.77809e-09
-8.3656e-08
1.76598e-09
-8.54077e-08
1.7517e-09
-8.71428e-08
1.73509e-09
-8.88588e-08
1.71598e-09
-9.0553e-08
1.69423e-09
-9.22227e-08
1.66966e-09
-9.38648e-08
1.64211e-09
-9.54762e-08
1.61143e-09
-9.70536e-08
1.57746e-09
-9.85937e-08
1.54005e-09
-1.00093e-07
1.49907e-09
-1.01547e-07
1.45437e-09
-1.02953e-07
1.40583e-09
-1.04306e-07
1.35333e-09
-1.05603e-07
1.29678e-09
-1.06839e-07
1.23607e-09
-1.0801e-07
1.17115e-09
-1.09112e-07
1.10196e-09
-1.10141e-07
1.02846e-09
-1.11091e-07
9.50635e-10
-1.1196e-07
8.68492e-10
-1.12742e-07
7.82051e-10
-1.13433e-07
6.91365e-10
-1.1403e-07
5.96493e-10
-1.14527e-07
4.97533e-10
-1.14922e-07
3.94621e-10
-1.1521e-07
2.8778e-10
-1.15387e-07
1.7743e-10
-1.15451e-07
6.39234e-11
-1.15397e-07
-5.35989e-11
-1.15224e-07
-1.73742e-10
-1.14927e-07
-2.96485e-10
-1.14505e-07
-4.21811e-10
-1.13956e-07
-5.49293e-10
-1.13277e-07
-6.78622e-10
-1.12468e-07
-8.09476e-10
-1.11526e-07
-9.41519e-10
-1.10452e-07
-1.0744e-09
-1.09244e-07
-1.20777e-09
-1.07903e-07
-1.34127e-09
-1.06428e-07
-1.47452e-09
-1.04821e-07
-1.60718e-09
-1.03082e-07
-1.73887e-09
-1.01213e-07
-1.86924e-09
-9.92152e-08
-1.99796e-09
-9.70906e-08
-2.12468e-09
-9.48415e-08
-2.24909e-09
-9.24706e-08
-2.37087e-09
-8.99809e-08
-2.48974e-09
-8.73755e-08
-2.60542e-09
-2.71766e-09
-8.46578e-08
8.64521e-11
-3.05169e-10
-3.48729e-10
3.47802e-10
-1.655e-09
1.61556e-09
-3.91107e-09
2.99665e-09
-6.97966e-09
4.17791e-09
-1.06603e-08
5.05181e-09
-1.47562e-08
5.63156e-09
-1.91089e-08
5.98095e-09
-2.36059e-08
6.1712e-09
-2.81742e-08
6.26182e-09
-3.27707e-08
6.29568e-09
-3.73721e-08
6.30043e-09
-4.19669e-08
6.29223e-09
-4.65502e-08
6.27955e-09
-5.11203e-08
6.2663e-09
-5.5677e-08
6.25388e-09
-6.02202e-08
6.24253e-09
-6.47502e-08
6.23204e-09
-6.92666e-08
6.22206e-09
-7.37693e-08
6.21227e-09
-7.82578e-08
6.20242e-09
-8.27315e-08
6.1923e-09
-8.71899e-08
6.18179e-09
-9.16322e-08
6.17077e-09
-9.60575e-08
6.15916e-09
-1.00465e-07
6.14688e-09
-1.04854e-07
6.13388e-09
-1.09224e-07
6.12008e-09
-1.13574e-07
6.10543e-09
-1.17902e-07
6.08985e-09
-1.22208e-07
6.07327e-09
-1.26491e-07
6.05562e-09
-1.30749e-07
6.03679e-09
-1.34982e-07
6.0167e-09
-1.39189e-07
5.99522e-09
-1.43367e-07
5.97225e-09
-1.47516e-07
5.94764e-09
-1.51635e-07
5.92125e-09
-1.55722e-07
5.89292e-09
-1.59775e-07
5.86247e-09
-1.63793e-07
5.8297e-09
-1.67773e-07
5.79442e-09
-1.71715e-07
5.75639e-09
-1.75616e-07
5.71539e-09
-1.79473e-07
5.67115e-09
-1.83285e-07
5.62341e-09
-1.87049e-07
5.57187e-09
-1.90763e-07
5.51624e-09
-1.94422e-07
5.4562e-09
-1.98026e-07
5.39141e-09
-2.01569e-07
5.32153e-09
-2.05049e-07
5.24621e-09
-2.08463e-07
5.16506e-09
-2.11805e-07
5.07772e-09
-2.15073e-07
4.9838e-09
-2.18262e-07
4.88291e-09
-2.21367e-07
4.77465e-09
-2.24383e-07
4.65864e-09
-2.27306e-07
4.53448e-09
-2.30131e-07
4.40181e-09
-2.32851e-07
4.26024e-09
-2.35461e-07
4.10941e-09
-2.37956e-07
3.94898e-09
-2.40329e-07
3.77863e-09
-2.42573e-07
3.59805e-09
-2.44684e-07
3.40697e-09
-2.46653e-07
3.20516e-09
-2.48474e-07
2.99243e-09
-2.50141e-07
2.7686e-09
-2.51646e-07
2.53358e-09
-2.52982e-07
2.2873e-09
-2.54144e-07
2.02974e-09
-2.55122e-07
1.76095e-09
-2.55912e-07
1.48101e-09
-2.56506e-07
1.19008e-09
-2.56896e-07
8.88375e-10
-2.57078e-07
5.76234e-10
-2.57044e-07
2.53368e-10
-2.56786e-07
-8.01661e-11
-2.56303e-07
-4.18872e-10
-2.55587e-07
-7.69659e-10
-2.54633e-07
-1.12822e-09
-2.53435e-07
-1.494e-09
-2.51991e-07
-1.8665e-09
-2.50295e-07
-2.245e-09
-2.48345e-07
-2.62869e-09
-2.46138e-07
-3.01672e-09
-2.43671e-07
-3.40819e-09
-2.40943e-07
-3.80218e-09
-2.37953e-07
-4.19774e-09
-2.34701e-07
-4.59389e-09
-2.31185e-07
-4.98965e-09
-2.27409e-07
-5.38402e-09
-2.23371e-07
-5.77602e-09
-2.19076e-07
-6.16465e-09
-2.14525e-07
-6.54896e-09
-2.09722e-07
-6.92798e-09
-2.0467e-07
-7.3008e-09
-1.99374e-07
-7.66653e-09
-1.9384e-07
-8.0243e-09
-1.88072e-07
-8.37332e-09
-8.71283e-09
-1.82077e-07
-3.18933e-10
1.38148e-11
-1.64988e-09
1.67874e-09
-4.27135e-09
4.23695e-09
-8.1766e-09
6.9019e-09
-1.318e-08
9.18133e-09
-1.90205e-08
1.08924e-08
-2.54435e-08
1.20546e-08
-3.22397e-08
1.27771e-08
-3.92548e-08
1.31863e-08
-4.63849e-08
1.33919e-08
-5.35646e-08
1.34754e-08
-6.07556e-08
1.34915e-08
-6.79368e-08
1.34734e-08
-7.5097e-08
1.34398e-08
-8.22305e-08
1.33997e-08
-8.93341e-08
1.33575e-08
-9.64058e-08
1.33142e-08
-1.03444e-07
1.32703e-08
-1.10447e-07
1.32252e-08
-1.17413e-07
1.31786e-08
-1.24341e-07
1.31302e-08
-1.31229e-07
1.30797e-08
-1.38074e-07
1.30267e-08
-1.44874e-07
1.29712e-08
-1.51628e-07
1.2913e-08
-1.58333e-07
1.2852e-08
-1.64987e-07
1.27881e-08
-1.71588e-07
1.27212e-08
-1.78134e-07
1.26511e-08
-1.84622e-07
1.25779e-08
-1.9105e-07
1.25014e-08
-1.97416e-07
1.24214e-08
-2.03717e-07
1.23379e-08
-2.09951e-07
1.22506e-08
-2.16116e-07
1.21596e-08
-2.22208e-07
1.20645e-08
-2.28225e-07
1.19652e-08
-2.34165e-07
1.18615e-08
-2.40026e-07
1.17531e-08
-2.45803e-07
1.16398e-08
-2.51495e-07
1.15213e-08
-2.57097e-07
1.13973e-08
-2.62609e-07
1.12676e-08
-2.68025e-07
1.11317e-08
-2.73343e-07
1.09892e-08
-2.78559e-07
1.08398e-08
-2.83671e-07
1.06831e-08
-2.88673e-07
1.05186e-08
-2.93563e-07
1.03459e-08
-2.98336e-07
1.01644e-08
-3.02988e-07
9.97363e-09
-3.07515e-07
9.77307e-09
-3.11912e-07
9.56216e-09
-3.16174e-07
9.34033e-09
-3.20298e-07
9.10701e-09
-3.24276e-07
8.86161e-09
-3.28105e-07
8.60354e-09
-3.31779e-07
8.33221e-09
-3.35291e-07
8.04703e-09
-3.38637e-07
7.74743e-09
-3.41809e-07
7.43284e-09
-3.44803e-07
7.10271e-09
-3.4761e-07
6.75654e-09
-3.50225e-07
6.39381e-09
-3.52642e-07
6.0141e-09
-3.54852e-07
5.61697e-09
-3.56848e-07
5.2021e-09
-3.58625e-07
4.76915e-09
-3.60175e-07
4.31796e-09
-3.61489e-07
3.84832e-09
-3.62562e-07
3.36018e-09
-3.63386e-07
2.85351e-09
-3.63953e-07
2.32842e-09
-3.64257e-07
1.7851e-09
-3.64291e-07
1.22376e-09
-3.64047e-07
6.44709e-10
-3.63521e-07
4.93251e-11
-3.62703e-07
-5.64258e-10
-3.6159e-07
-1.19276e-09
-3.60174e-07
-1.83549e-09
-3.5845e-07
-2.49302e-09
-3.56415e-07
-3.16377e-09
-3.54062e-07
-3.84649e-09
-3.51389e-07
-4.54e-09
-3.48391e-07
-5.24301e-09
-3.45065e-07
-5.95417e-09
-3.4141e-07
-6.67202e-09
-3.37423e-07
-7.39504e-09
-3.33104e-07
-8.12166e-09
-3.28451e-07
-8.85026e-09
-3.23466e-07
-9.57917e-09
-3.18149e-07
-1.03067e-08
-3.12502e-07
-1.10312e-08
-3.06527e-07
-1.17508e-08
-3.00228e-07
-1.2464e-08
-2.93607e-07
-1.3169e-08
-2.86671e-07
-1.38642e-08
-2.79424e-07
-1.4548e-08
-2.71872e-07
-1.52188e-08
-2.64021e-07
-1.58751e-08
-2.55879e-07
-1.65155e-08
-1.71386e-08
-2.47453e-07
-7.74827e-10
7.88675e-10
-3.1133e-09
4.01732e-09
-7.0906e-09
8.21424e-09
-1.26024e-08
1.24137e-08
-1.93948e-08
1.59737e-08
-2.71604e-08
1.8658e-08
-3.5609e-08
2.05033e-08
-4.45025e-08
2.16706e-08
-5.36636e-08
2.23474e-08
-6.29698e-08
2.26981e-08
-7.23421e-08
2.28476e-08
-8.17316e-08
2.28811e-08
-9.111e-08
2.28518e-08
-1.00461e-07
2.27904e-08
-1.09774e-07
2.27131e-08
-1.19044e-07
2.26276e-08
-1.28267e-07
2.2537e-08
-1.37439e-07
2.24421e-08
-1.46557e-07
2.2343e-08
-1.55617e-07
2.22393e-08
-1.64618e-07
2.21306e-08
-1.73554e-07
2.20165e-08
-1.82424e-07
2.18968e-08
-1.91224e-07
2.17712e-08
-1.99951e-07
2.16395e-08
-2.08601e-07
2.15017e-08
-2.1717e-07
2.13574e-08
-2.25655e-07
2.12067e-08
-2.34054e-07
2.10493e-08
-2.42361e-07
2.08853e-08
-2.50574e-07
2.07143e-08
-2.58689e-07
2.05363e-08
-2.66702e-07
2.03512e-08
-2.7461e-07
2.01587e-08
-2.82409e-07
1.99586e-08
-2.90096e-07
1.97508e-08
-2.97665e-07
1.9535e-08
-3.05115e-07
1.93109e-08
-3.1244e-07
1.90782e-08
-3.19637e-07
1.88368e-08
-3.26702e-07
1.85861e-08
-3.3363e-07
1.83258e-08
-3.40418e-07
1.80555e-08
-3.47061e-07
1.77749e-08
-3.53555e-07
1.74834e-08
-3.59896e-07
1.71805e-08
-3.66079e-07
1.68657e-08
-3.72099e-07
1.65385e-08
-3.77951e-07
1.61983e-08
-3.83631e-07
1.58444e-08
-3.89134e-07
1.54763e-08
-3.94454e-07
1.50931e-08
-3.99586e-07
1.46944e-08
-4.04525e-07
1.42792e-08
-4.09265e-07
1.3847e-08
-4.138e-07
1.3397e-08
-4.18125e-07
1.29284e-08
-4.22233e-07
1.24405e-08
-4.26119e-07
1.19326e-08
-4.29775e-07
1.14039e-08
-4.33196e-07
1.08538e-08
-4.36375e-07
1.02815e-08
-4.39305e-07
9.68645e-09
-4.41979e-07
9.06804e-09
-4.44391e-07
8.42571e-09
-4.46533e-07
7.75898e-09
-4.48398e-07
7.06743e-09
-4.4998e-07
6.35074e-09
-4.5127e-07
5.60866e-09
-4.52263e-07
4.84106e-09
-4.52951e-07
4.04789e-09
-4.53327e-07
3.22923e-09
-4.53383e-07
2.38523e-09
-4.53115e-07
1.51636e-09
-4.52514e-07
6.22989e-10
-4.51574e-07
-2.94827e-10
-4.5029e-07
-1.23542e-09
-4.48655e-07
-2.19864e-09
-4.46665e-07
-3.18294e-09
-4.44313e-07
-4.18716e-09
-4.41596e-07
-5.21028e-09
-4.38509e-07
-6.25079e-09
-4.35049e-07
-7.30702e-09
-4.31211e-07
-8.37723e-09
-4.26995e-07
-9.45953e-09
-4.22397e-07
-1.0552e-08
-4.17417e-07
-1.16524e-08
-4.12053e-07
-1.27587e-08
-4.06306e-07
-1.38686e-08
-4.00176e-07
-1.49798e-08
-3.93666e-07
-1.60898e-08
-3.86776e-07
-1.71962e-08
-3.79511e-07
-1.82966e-08
-3.71873e-07
-1.93886e-08
-3.63868e-07
-2.04696e-08
-3.55499e-07
-2.15373e-08
-3.46774e-07
-2.25893e-08
-3.37699e-07
-2.36232e-08
-3.28281e-07
-2.46369e-08
-3.18528e-07
-2.56281e-08
-3.08449e-07
-2.65948e-08
-2.7535e-08
-2.98052e-07
-1.18132e-09
1.96995e-09
-4.41648e-09
7.25258e-09
-9.60124e-09
1.33991e-08
-1.65129e-08
1.93253e-08
-2.48266e-08
2.42874e-08
-3.41935e-08
2.80249e-08
-4.42983e-08
3.06081e-08
-5.48862e-08
3.22586e-08
-6.5768e-08
3.32291e-08
-7.68119e-08
3.3742e-08
-8.79313e-08
3.39671e-08
-9.90718e-08
3.40215e-08
-1.102e-07
3.398e-08
-1.21296e-07
3.38862e-08
-1.32347e-07
3.37641e-08
-1.43345e-07
3.36254e-08
-1.54283e-07
3.34756e-08
-1.65158e-07
3.33165e-08
-1.75963e-07
3.31486e-08
-1.86696e-07
3.29717e-08
-1.9735e-07
3.27856e-08
-2.07924e-07
3.25897e-08
-2.18411e-07
3.23839e-08
-2.28807e-07
3.21678e-08
-2.39109e-07
3.19413e-08
-2.49312e-07
3.17041e-08
-2.5941e-07
3.1456e-08
-2.69401e-07
3.1197e-08
-2.79278e-07
3.09269e-08
-2.89038e-07
3.06455e-08
-2.98677e-07
3.03526e-08
-3.08189e-07
3.00482e-08
-3.17569e-07
2.97319e-08
-3.26814e-07
2.94036e-08
-3.35919e-07
2.90631e-08
-3.44878e-07
2.87101e-08
-3.53687e-07
2.83443e-08
-3.62342e-07
2.79655e-08
-3.70837e-07
2.75733e-08
-3.79167e-07
2.71673e-08
-3.87329e-07
2.67472e-08
-3.95315e-07
2.63125e-08
-4.03123e-07
2.58628e-08
-4.10745e-07
2.53975e-08
-4.18178e-07
2.49162e-08
-4.25416e-07
2.44183e-08
-4.32453e-07
2.39031e-08
-4.39285e-07
2.33701e-08
-4.45905e-07
2.28185e-08
-4.52308e-07
2.22476e-08
-4.58488e-07
2.16567e-08
-4.6444e-07
2.1045e-08
-4.70158e-07
2.04118e-08
-4.75635e-07
1.97561e-08
-4.80865e-07
1.90772e-08
-4.85842e-07
1.83743e-08
-4.9056e-07
1.76464e-08
-4.95012e-07
1.68927e-08
-4.99192e-07
1.61124e-08
-5.03093e-07
1.53046e-08
-5.06708e-07
1.44686e-08
-5.1003e-07
1.36036e-08
-5.13052e-07
1.27089e-08
-5.15768e-07
1.17837e-08
-5.1817e-07
1.08277e-08
-5.20251e-07
9.84008e-09
-5.22004e-07
8.82059e-09
-5.23422e-07
7.76887e-09
-5.24498e-07
6.6847e-09
-5.25225e-07
5.56803e-09
-5.25596e-07
4.41889e-09
-5.25604e-07
3.23749e-09
-5.25243e-07
2.02409e-09
-5.24506e-07
7.79375e-10
-5.23387e-07
-4.96434e-10
-5.2188e-07
-1.802e-09
-5.19979e-07
-3.13636e-09
-5.17679e-07
-4.49839e-09
-5.14975e-07
-5.88657e-09
-5.11863e-07
-7.29927e-09
-5.08339e-07
-8.73482e-09
-5.04398e-07
-1.01912e-08
-5.00039e-07
-1.16664e-08
-4.95258e-07
-1.31578e-08
-4.90055e-07
-1.46632e-08
-4.84427e-07
-1.61798e-08
-4.78375e-07
-1.77049e-08
-4.71898e-07
-1.92355e-08
-4.64998e-07
-2.07687e-08
-4.57676e-07
-2.23015e-08
-4.49935e-07
-2.38306e-08
-4.41779e-07
-2.53529e-08
-4.3321e-07
-2.6865e-08
-4.24235e-07
-2.83639e-08
-4.14858e-07
-2.98463e-08
-4.05086e-07
-3.13091e-08
-3.94926e-07
-3.2749e-08
-3.84387e-07
-3.4163e-08
-3.73475e-07
-3.55483e-08
-3.62202e-07
-3.69018e-08
-3.50575e-07
-3.82211e-08
-3.95034e-08
-3.38607e-07
-1.48678e-09
3.45669e-09
-5.43205e-09
1.11979e-08
-1.15839e-08
1.9551e-08
-1.96146e-08
2.7356e-08
-2.91332e-08
3.3806e-08
-3.97528e-08
3.86445e-08
-5.11376e-08
4.19929e-08
-6.30221e-08
4.4143e-08
-7.52106e-08
4.54177e-08
-8.75676e-08
4.6099e-08
-1.00003e-07
4.64028e-08
-1.12461e-07
4.64789e-08
-1.24904e-07
4.64234e-08
-1.37311e-07
4.62934e-08
-1.49668e-07
4.61208e-08
-1.61964e-07
4.59217e-08
-1.74193e-07
4.5704e-08
-1.86347e-07
4.54707e-08
-1.98421e-07
4.52231e-08
-2.10411e-07
4.49611e-08
-2.2231e-07
4.46846e-08
-2.34114e-07
4.43933e-08
-2.45816e-07
4.40868e-08
-2.57414e-07
4.37649e-08
-2.689e-07
4.34273e-08
-2.80269e-07
4.30738e-08
-2.91517e-07
4.27043e-08
-3.02639e-07
4.23186e-08
-3.13629e-07
4.19164e-08
-3.24481e-07
4.14977e-08
-3.3519e-07
4.10622e-08
-3.45752e-07
4.06098e-08
-3.5616e-07
4.01403e-08
-3.6641e-07
3.96533e-08
-3.76496e-07
3.91487e-08
-3.86412e-07
3.86262e-08
-3.96153e-07
3.80855e-08
-4.05714e-07
3.75262e-08
-4.15089e-07
3.6948e-08
-4.24272e-07
3.63505e-08
-4.33258e-07
3.57333e-08
-4.42041e-07
3.50958e-08
-4.50616e-07
3.44376e-08
-4.58977e-07
3.37581e-08
-4.67117e-07
3.30568e-08
-4.75032e-07
3.2333e-08
-4.82715e-07
3.1586e-08
-4.9016e-07
3.08152e-08
-4.97361e-07
3.00197e-08
-5.04312e-07
2.91988e-08
-5.11007e-07
2.83517e-08
-5.1744e-07
2.74776e-08
-5.23604e-07
2.65754e-08
-5.29492e-07
2.56444e-08
-5.35098e-07
2.46837e-08
-5.40416e-07
2.36922e-08
-5.45439e-07
2.2669e-08
-5.50159e-07
2.16133e-08
-5.54571e-07
2.0524e-08
-5.58667e-07
1.94003e-08
-5.62439e-07
1.82414e-08
-5.65882e-07
1.70463e-08
-5.68988e-07
1.58144e-08
-5.71749e-07
1.45449e-08
-5.74158e-07
1.32373e-08
-5.76209e-07
1.1891e-08
-5.77894e-07
1.05056e-08
-5.79206e-07
9.0808e-09
-5.80138e-07
7.61653e-09
-5.80683e-07
6.11276e-09
-5.80833e-07
4.56967e-09
-5.80584e-07
2.98766e-09
-5.79927e-07
1.3671e-09
-5.78856e-07
-2.91475e-10
-5.77366e-07
-1.98671e-09
-5.7545e-07
-3.71753e-09
-5.73104e-07
-5.48258e-09
-5.70322e-07
-7.2803e-09
-5.671e-07
-9.10882e-09
-5.63433e-07
-1.09661e-08
-5.59318e-07
-1.28498e-08
-5.54752e-07
-1.47574e-08
-5.49732e-07
-1.66863e-08
-5.44256e-07
-1.86334e-08
-5.38324e-07
-2.05956e-08
-5.31934e-07
-2.25696e-08
-5.25087e-07
-2.4552e-08
-5.17784e-07
-2.6539e-08
-5.10025e-07
-2.85269e-08
-5.01815e-07
-3.05119e-08
-4.93156e-07
-3.24899e-08
-4.84051e-07
-3.44571e-08
-4.74507e-07
-3.64094e-08
-4.64528e-07
-3.83427e-08
-4.54122e-07
-4.0253e-08
-4.43294e-07
-4.21364e-08
-4.32054e-07
-4.3989e-08
-4.2041e-07
-4.5807e-08
-4.08372e-07
-4.75867e-08
-3.95949e-07
-4.93245e-08
-3.83153e-07
-5.10172e-08
-5.26615e-08
-3.69995e-07
-1.69353e-09
5.15023e-09
-6.15302e-09
1.56573e-08
-1.30215e-08
2.64195e-08
-2.18886e-08
3.62231e-08
-3.23075e-08
4.42248e-08
-4.38579e-08
5.0195e-08
-5.61863e-08
5.43213e-08
-6.90185e-08
5.69752e-08
-8.21556e-08
5.85547e-08
-9.54605e-08
5.94039e-08
-1.08843e-07
5.97852e-08
-1.22245e-07
5.9881e-08
-1.3563e-07
5.98088e-08
-1.48976e-07
5.9639e-08
-1.62266e-07
5.94113e-08
-1.75491e-07
5.91464e-08
-1.88642e-07
5.88545e-08
-2.01711e-07
5.85399e-08
-2.14692e-07
5.82046e-08
-2.2758e-07
5.78488e-08
-2.40368e-07
5.74725e-08
-2.5305e-07
5.70756e-08
-2.65621e-07
5.66578e-08
-2.78075e-07
5.62187e-08
-2.90406e-07
5.57583e-08
-3.02608e-07
5.52762e-08
-3.14676e-07
5.47722e-08
-3.26604e-07
5.42463e-08
-3.38386e-07
5.36981e-08
-3.50016e-07
5.31276e-08
-3.61488e-07
5.25345e-08
-3.72797e-07
5.19186e-08
-3.83936e-07
5.12796e-08
-3.949e-07
5.06175e-08
-4.05683e-07
4.99318e-08
-4.16279e-07
4.92222e-08
-4.26682e-07
4.84886e-08
-4.36886e-07
4.77304e-08
-4.46885e-07
4.69473e-08
-4.56674e-07
4.61389e-08
-4.66245e-07
4.53047e-08
-4.75594e-07
4.44443e-08
-4.84713e-07
4.3557e-08
-4.93597e-07
4.26423e-08
-5.0224e-07
4.16996e-08
-5.10635e-07
4.07281e-08
-5.18776e-07
3.97272e-08
-5.26657e-07
3.86961e-08
-5.34272e-07
3.7634e-08
-5.41613e-07
3.654e-08
-5.48674e-07
3.54133e-08
-5.5545e-07
3.4253e-08
-5.61933e-07
3.3058e-08
-5.68116e-07
3.18275e-08
-5.73992e-07
3.05604e-08
-5.79556e-07
2.92557e-08
-5.84799e-07
2.79124e-08
-5.89716e-07
2.65296e-08
-5.94298e-07
2.51061e-08
-5.98538e-07
2.36411e-08
-6.02431e-07
2.21336e-08
-6.05967e-07
2.05828e-08
-6.09141e-07
1.89879e-08
-6.11944e-07
1.73481e-08
-6.14369e-07
1.56629e-08
-6.1641e-07
1.39317e-08
-6.18059e-07
1.21542e-08
-6.19308e-07
1.03301e-08
-6.20151e-07
8.45934e-09
-6.2058e-07
6.54209e-09
-6.20589e-07
4.57858e-09
-6.20171e-07
2.56974e-09
-6.19319e-07
5.15333e-10
-6.18027e-07
-1.58339e-09
-6.1629e-07
-3.72445e-09
-6.141e-07
-5.90687e-09
-6.11454e-07
-8.1289e-09
-6.08346e-07
-1.03885e-08
-6.04771e-07
-1.26834e-08
-6.00726e-07
-1.50111e-08
-5.96207e-07
-1.73688e-08
-5.91211e-07
-1.97532e-08
-5.85736e-07
-2.21612e-08
-5.79781e-07
-2.45891e-08
-5.73343e-07
-2.70331e-08
-5.66424e-07
-2.94891e-08
-5.59023e-07
-3.19529e-08
-5.51142e-07
-3.44201e-08
-5.42782e-07
-3.68862e-08
-5.33948e-07
-3.93464e-08
-5.24642e-07
-4.1796e-08
-5.14869e-07
-4.42301e-08
-5.04634e-07
-4.66439e-08
-4.93944e-07
-4.90326e-08
-4.82806e-07
-5.13912e-08
-4.71228e-07
-5.3715e-08
-4.59217e-07
-5.59993e-08
-4.46785e-07
-5.82395e-08
-4.3394e-07
-6.04313e-08
-4.20694e-07
-6.25704e-08
-4.07059e-07
-6.46527e-08
-6.66744e-08
-3.93046e-07
-1.82211e-09
6.97238e-09
-6.62877e-09
2.04639e-08
-1.39966e-08
3.37874e-08
-2.34558e-08
4.56824e-08
-3.45161e-08
5.52851e-08
-4.67295e-08
6.24084e-08
-5.97269e-08
6.73187e-08
-7.32269e-08
7.04753e-08
-8.70279e-08
7.23558e-08
-1.00993e-07
7.33685e-08
-1.15031e-07
7.38234e-08
-1.29085e-07
7.39354e-08
-1.4312e-07
7.38433e-08
-1.57111e-07
7.36303e-08
-1.71044e-07
7.33439e-08
-1.84906e-07
7.3009e-08
-1.9869e-07
7.26382e-08
-2.12387e-07
7.22371e-08
-2.25991e-07
7.18083e-08
-2.39494e-07
7.13524e-08
-2.52892e-07
7.08698e-08
-2.66176e-07
7.03602e-08
-2.79342e-07
6.98234e-08
-2.92382e-07
6.92592e-08
-3.05291e-07
6.86674e-08
-3.18063e-07
6.80479e-08
-3.30691e-07
6.74003e-08
-3.43169e-07
6.67246e-08
-3.55492e-07
6.60205e-08
-3.67652e-07
6.52879e-08
-3.79644e-07
6.45265e-08
-3.91462e-07
6.37361e-08
-4.03099e-07
6.29166e-08
-4.14549e-07
6.20676e-08
-4.25806e-07
6.11889e-08
-4.36864e-07
6.02801e-08
-4.47716e-07
5.9341e-08
-4.58357e-07
5.83711e-08
-4.6878e-07
5.73701e-08
-4.78978e-07
5.63375e-08
-4.88946e-07
5.52728e-08
-4.98678e-07
5.41755e-08
-5.08166e-07
5.30451e-08
-5.17404e-07
5.18809e-08
-5.26387e-07
5.06822e-08
-5.35107e-07
4.94484e-08
-5.43559e-07
4.81787e-08
-5.51735e-07
4.68722e-08
-5.59629e-07
4.55282e-08
-5.67235e-07
4.41458e-08
-5.74545e-07
4.27239e-08
-5.81554e-07
4.12616e-08
-5.88254e-07
3.9758e-08
-5.94638e-07
3.8212e-08
-6.007e-07
3.66224e-08
-6.06433e-07
3.49884e-08
-6.11829e-07
3.33087e-08
-6.16882e-07
3.15823e-08
-6.21584e-07
2.98082e-08
-6.25928e-07
2.79853e-08
-6.29907e-07
2.61127e-08
-6.33514e-07
2.41894e-08
-6.36741e-07
2.22147e-08
-6.3958e-07
2.01878e-08
-6.42026e-07
1.8108e-08
-6.44069e-07
1.59749e-08
-6.45703e-07
1.37882e-08
-6.4692e-07
1.15476e-08
-6.47714e-07
9.25318e-09
-6.48077e-07
6.90512e-09
-6.48003e-07
4.50401e-09
-6.47483e-07
2.0503e-09
-6.46512e-07
-4.55469e-10
-6.45084e-07
-3.01153e-09
-6.43193e-07
-5.61631e-09
-6.40831e-07
-8.26816e-09
-6.37995e-07
-1.0965e-08
-6.34679e-07
-1.37044e-08
-6.30879e-07
-1.64837e-08
-6.2659e-07
-1.92998e-08
-6.2181e-07
-2.21493e-08
-6.16535e-07
-2.50285e-08
-6.10762e-07
-2.79335e-08
-6.04491e-07
-3.086e-08
-5.97721e-07
-3.38035e-08
-5.90451e-07
-3.67592e-08
-5.82682e-07
-3.9722e-08
-5.74415e-07
-4.26868e-08
-5.65653e-07
-4.56481e-08
-5.56399e-07
-4.86004e-08
-5.46657e-07
-5.15382e-08
-5.36431e-07
-5.44556e-08
-5.25728e-07
-5.7347e-08
-5.14554e-07
-6.02066e-08
-5.02917e-07
-6.30287e-08
-4.90824e-07
-6.58077e-08
-4.78285e-07
-6.85381e-08
-4.6531e-07
-7.12145e-08
-4.5191e-07
-7.38317e-08
-4.38096e-07
-7.63847e-08
-4.23879e-07
-7.88689e-08
-8.12797e-08
-4.09274e-07
-1.89584e-09
8.86825e-09
-6.92347e-09
2.54916e-08
-1.46223e-08
4.14862e-08
-2.4483e-08
5.5543e-08
-3.59834e-08
6.67855e-08
-4.86536e-08
7.50787e-08
-6.21116e-08
8.07767e-08
-7.60696e-08
8.44333e-08
-9.03236e-08
8.66098e-08
-1.04736e-07
8.77808e-08
-1.19217e-07
8.83045e-08
-1.3371e-07
8.84287e-08
-1.4818e-07
8.8313e-08
-1.62603e-07
8.80537e-08
-1.76965e-07
8.77054e-08
-1.91253e-07
8.72973e-08
-2.05459e-07
8.68442e-08
-2.19575e-07
8.63529e-08
-2.33593e-07
8.58266e-08
-2.47507e-07
8.52664e-08
-2.6131e-07
8.46727e-08
-2.74995e-07
8.40454e-08
-2.88557e-07
8.33845e-08
-3.01987e-07
8.26897e-08
-3.1528e-07
8.19608e-08
-3.2843e-07
8.11977e-08
-3.4143e-07
8.04003e-08
-3.54274e-07
7.95682e-08
-3.66955e-07
7.87014e-08
-3.79466e-07
7.77997e-08
-3.91803e-07
7.68628e-08
-4.03957e-07
7.58906e-08
-4.15923e-07
7.48827e-08
-4.27695e-07
7.38391e-08
-4.39265e-07
7.27593e-08
-4.50628e-07
7.16431e-08
-4.61777e-07
7.04901e-08
-4.72706e-07
6.93e-08
-4.83409e-07
6.80724e-08
-4.93878e-07
6.68067e-08
-5.04108e-07
6.55026e-08
-5.14092e-07
6.41594e-08
-5.23823e-07
6.27766e-08
-5.33296e-07
6.13535e-08
-5.42503e-07
5.98896e-08
-5.51439e-07
5.83839e-08
-5.60096e-07
5.68358e-08
-5.68468e-07
5.52444e-08
-5.76548e-07
5.36087e-08
-5.84331e-07
5.1928e-08
-5.91808e-07
5.02011e-08
-5.98973e-07
4.84271e-08
-6.0582e-07
4.66049e-08
-6.12342e-07
4.47334e-08
-6.18531e-07
4.28115e-08
-6.2438e-07
4.0838e-08
-6.29883e-07
3.88119e-08
-6.35033e-07
3.67319e-08
-6.39822e-07
3.4597e-08
-6.44242e-07
3.24061e-08
-6.48288e-07
3.01581e-08
-6.51951e-07
2.78522e-08
-6.55223e-07
2.54874e-08
-6.58098e-07
2.30629e-08
-6.60569e-07
2.05782e-08
-6.62626e-07
1.80328e-08
-6.64264e-07
1.54262e-08
-6.65475e-07
1.27584e-08
-6.66252e-07
1.00295e-08
-6.66586e-07
7.23974e-09
-6.66472e-07
4.38985e-09
-6.65902e-07
1.48045e-09
-6.64869e-07
-1.48823e-09
-6.63368e-07
-4.51324e-09
-6.61391e-07
-7.59331e-09
-6.58933e-07
-1.07264e-08
-6.55988e-07
-1.391e-08
-6.52551e-07
-1.71414e-08
-6.48617e-07
-2.04172e-08
-6.44183e-07
-2.37341e-08
-6.39244e-07
-2.7088e-08
-6.33798e-07
-3.04746e-08
-6.27842e-07
-3.38894e-08
-6.21375e-07
-3.73274e-08
-6.14395e-07
-4.07833e-08
-6.06903e-07
-4.42515e-08
-5.98899e-07
-4.77262e-08
-5.90384e-07
-5.12014e-08
-5.81361e-07
-5.46709e-08
-5.71834e-07
-5.81281e-08
-5.61805e-07
-6.15666e-08
-5.51281e-07
-6.49798e-08
-5.40267e-07
-6.83609e-08
-5.2877e-07
-7.17035e-08
-5.16798e-07
-7.50008e-08
-5.0436e-07
-7.82464e-08
-4.91464e-07
-8.14338e-08
-4.78121e-07
-8.4557e-08
-4.64343e-07
-8.76099e-08
-4.50141e-07
-9.05868e-08
-4.35527e-07
-9.34822e-08
-9.6291e-08
-4.20516e-07
-1.93434e-09
1.08026e-08
-7.09582e-09
3.06531e-08
-1.5006e-08
4.93963e-08
-2.51308e-08
6.56679e-08
-3.69259e-08
7.85805e-08
-4.99047e-08
8.80575e-08
-6.36748e-08
9.45468e-08
-7.79427e-08
9.87012e-08
-9.25021e-08
1.01169e-07
-1.07215e-07
1.02493e-07
-1.21992e-07
1.03081e-07
-1.36777e-07
1.03214e-07
-1.51535e-07
1.03071e-07
-1.66244e-07
1.02763e-07
-1.80889e-07
1.0235e-07
-1.95458e-07
1.01866e-07
-2.09942e-07
1.01328e-07
-2.24334e-07
1.00744e-07
-2.38625e-07
1.00118e-07
-2.52809e-07
9.94504e-08
-2.66879e-07
9.87425e-08
-2.80828e-07
9.79943e-08
-2.94649e-07
9.72057e-08
-3.08336e-07
9.63766e-08
-3.21882e-07
9.55068e-08
-3.3528e-07
9.45962e-08
-3.48525e-07
9.36447e-08
-3.61608e-07
9.2652e-08
-3.74525e-07
9.1618e-08
-3.87268e-07
9.05426e-08
-3.9983e-07
8.94255e-08
-4.12206e-07
8.82665e-08
-4.24389e-07
8.70654e-08
-4.36372e-07
8.5822e-08
-4.48149e-07
8.4536e-08
-4.59713e-07
8.32071e-08
-4.71057e-07
8.18349e-08
-4.82177e-07
8.04192e-08
-4.93063e-07
7.89594e-08
-5.03712e-07
7.74551e-08
-5.14115e-07
7.59058e-08
-5.24267e-07
7.43111e-08
-5.3416e-07
7.26702e-08
-5.43789e-07
7.09826e-08
-5.53147e-07
6.92475e-08
-5.62228e-07
6.74642e-08
-5.71024e-07
6.56319e-08
-5.79529e-07
6.37497e-08
-5.87737e-07
6.18167e-08
-5.95641e-07
5.98318e-08
-6.03234e-07
5.77942e-08
-6.1051e-07
5.57026e-08
-6.17461e-07
5.35561e-08
-6.24081e-07
5.13534e-08
-6.30362e-07
4.90933e-08
-6.36299e-07
4.67747e-08
-6.41884e-07
4.43963e-08
-6.47109e-07
4.1957e-08
-6.51967e-07
3.94556e-08
-6.56452e-07
3.68909e-08
-6.60556e-07
3.42618e-08
-6.64271e-07
3.15673e-08
-6.6759e-07
2.88066e-08
-6.70506e-07
2.59787e-08
-6.73011e-07
2.3083e-08
-6.75097e-07
2.0119e-08
-6.76757e-07
1.70864e-08
-6.77984e-07
1.3985e-08
-6.78769e-07
1.0815e-08
-6.79106e-07
7.57678e-09
-6.78988e-07
4.27152e-09
-6.78407e-07
8.99312e-10
-6.77355e-07
-2.53974e-09
-6.75827e-07
-6.0412e-09
-6.73816e-07
-9.60429e-09
-6.71316e-07
-1.32266e-08
-6.68321e-07
-1.69052e-08
-6.64825e-07
-2.0637e-08
-6.60824e-07
-2.44182e-08
-6.56314e-07
-2.82448e-08
-6.51289e-07
-3.21123e-08
-6.45748e-07
-3.60158e-08
-6.39688e-07
-3.995e-08
-6.33106e-07
-4.39093e-08
-6.26001e-07
-4.78876e-08
-6.18374e-07
-5.18785e-08
-6.10225e-07
-5.58754e-08
-6.01555e-07
-5.98713e-08
-5.92367e-07
-6.38592e-08
-5.82664e-07
-6.78317e-08
-5.72449e-07
-7.17812e-08
-5.61728e-07
-7.57004e-08
-5.50508e-07
-7.95814e-08
-5.38794e-07
-8.34169e-08
-5.26596e-07
-8.71991e-08
-5.13922e-07
-9.09208e-08
-5.00781e-07
-9.45746e-08
-4.87184e-07
-9.81535e-08
-4.73144e-07
-1.01651e-07
-4.58671e-07
-1.05059e-07
-4.43779e-07
-1.08374e-07
-1.11588e-07
-4.28482e-07
-1.952e-09
1.27546e-08
-7.19184e-09
3.58929e-08
-1.52346e-08
5.74391e-08
-2.55315e-08
7.59647e-08
-3.75229e-08
9.05718e-08
-5.07101e-08
1.01245e-07
-6.46924e-08
1.08529e-07
-7.91715e-08
1.1318e-07
-9.39388e-08
1.15936e-07
-1.08855e-07
1.1741e-07
-1.23832e-07
1.18058e-07
-1.38814e-07
1.18196e-07
-1.53767e-07
1.18024e-07
-1.68667e-07
1.17664e-07
-1.83501e-07
1.17184e-07
-1.98258e-07
1.16623e-07
-2.12928e-07
1.15998e-07
-2.27503e-07
1.1532e-07
-2.41977e-07
1.14591e-07
-2.56341e-07
1.13815e-07
-2.70589e-07
1.12991e-07
-2.84714e-07
1.12119e-07
-2.98709e-07
1.11201e-07
-3.12567e-07
1.10235e-07
-3.26283e-07
1.09222e-07
-3.39848e-07
1.08161e-07
-3.53256e-07
1.07053e-07
-3.66501e-07
1.05897e-07
-3.79576e-07
1.04693e-07
-3.92474e-07
1.03441e-07
-4.0519e-07
1.02141e-07
-4.17715e-07
1.00792e-07
-4.30044e-07
9.93946e-08
-4.4217e-07
9.79483e-08
-4.54087e-07
9.64529e-08
-4.65788e-07
9.4908e-08
-4.77267e-07
9.33134e-08
-4.88516e-07
9.16687e-08
-4.9953e-07
8.99735e-08
-5.10303e-07
8.82273e-08
-5.20826e-07
8.64296e-08
-5.31095e-07
8.458e-08
-5.41103e-07
8.26777e-08
-5.50842e-07
8.07223e-08
-5.60308e-07
7.87128e-08
-5.69492e-07
7.66487e-08
-5.78389e-07
7.45289e-08
-5.86992e-07
7.23528e-08
-5.95295e-07
7.01192e-08
-6.0329e-07
6.78272e-08
-6.10972e-07
6.54757e-08
-6.18333e-07
6.30636e-08
-6.25366e-07
6.05897e-08
-6.32066e-07
5.80528e-08
-6.38424e-07
5.54517e-08
-6.44435e-07
5.27851e-08
-6.5009e-07
5.00516e-08
-6.55383e-07
4.72501e-08
-6.60307e-07
4.43793e-08
-6.64854e-07
4.14379e-08
-6.69017e-07
3.84248e-08
-6.72788e-07
3.53388e-08
-6.76161e-07
3.2179e-08
-6.79126e-07
2.89446e-08
-6.81678e-07
2.56347e-08
-6.83808e-07
2.22488e-08
-6.85508e-07
1.87866e-08
-6.86771e-07
1.5248e-08
-6.87589e-07
1.16331e-08
-6.87955e-07
7.9426e-09
-6.8786e-07
4.17677e-09
-6.87298e-07
3.37355e-10
-6.86262e-07
-3.57648e-09
-6.84743e-07
-7.55971e-09
-6.82736e-07
-1.16113e-08
-6.80234e-07
-1.57286e-08
-6.77231e-07
-1.99084e-08
-6.73721e-07
-2.41471e-08
-6.69698e-07
-2.84405e-08
-6.65159e-07
-3.2784e-08
-6.60099e-07
-3.71726e-08
-6.54514e-07
-4.16007e-08
-6.48402e-07
-4.60625e-08
-6.41759e-07
-5.05514e-08
-6.34586e-07
-5.50607e-08
-6.26882e-07
-5.95831e-08
-6.18646e-07
-6.41112e-08
-6.0988e-07
-6.86371e-08
-6.00587e-07
-7.31527e-08
-5.90769e-07
-7.76498e-08
-5.8043e-07
-8.21198e-08
-5.69576e-07
-8.65542e-08
-5.58213e-07
-9.09445e-08
-5.46348e-07
-9.5282e-08
-5.33989e-07
-9.95582e-08
-5.21145e-07
-1.03765e-07
-5.07826e-07
-1.07893e-07
-4.94044e-07
-1.11936e-07
-4.79809e-07
-1.15885e-07
-4.65135e-07
-1.19734e-07
-4.50035e-07
-1.23474e-07
-1.271e-07
-4.34523e-07
-1.95848e-09
1.4713e-08
-7.24413e-09
4.11785e-08
-1.53716e-08
6.55666e-08
-2.57831e-08
8.63762e-08
-3.79085e-08
1.02697e-07
-5.12406e-08
1.14577e-07
-6.53719e-08
1.2266e-07
-8.00003e-08
1.27809e-07
-9.49149e-08
1.30851e-07
-1.09976e-07
1.32471e-07
-1.25095e-07
1.33177e-07
-1.40216e-07
1.33317e-07
-1.55304e-07
1.33113e-07
-1.7034e-07
1.32699e-07
-1.85307e-07
1.32152e-07
-2.00195e-07
1.31511e-07
-2.14996e-07
1.30799e-07
-2.297e-07
1.30024e-07
-2.44302e-07
1.29193e-07
-2.58792e-07
1.28305e-07
-2.73166e-07
1.27364e-07
-2.87415e-07
1.26368e-07
-3.01533e-07
1.25319e-07
-3.15513e-07
1.24215e-07
-3.29347e-07
1.23057e-07
-3.43031e-07
1.21845e-07
-3.56556e-07
1.20578e-07
-3.69916e-07
1.19257e-07
-3.83104e-07
1.17881e-07
-3.96114e-07
1.16451e-07
-4.0894e-07
1.14966e-07
-4.21573e-07
1.13426e-07
-4.34009e-07
1.1183e-07
-4.4624e-07
1.10179e-07
-4.58259e-07
1.08472e-07
-4.70061e-07
1.0671e-07
-4.81638e-07
1.04891e-07
-4.92985e-07
1.03015e-07
-5.04095e-07