/*--------------------------------*- C++ -*----------------------------------*\
| =========                 |                                                 |
| \\      /  F ield         | OpenFOAM: The Open Source CFD Toolbox           |
|  \\    /   O peration     | Version:  2406                                  |
|   \\  /    A nd           | Website:  www.openfoam.com                      |
|    \\/     M anipulation  |                                                 |
\*---------------------------------------------------------------------------*/
FoamFile
{
    version     2.0;
    format      ascii;
    arch        "LSB;label=32;scalar=64";
    class       volVectorField;
    location    "160";
    object      U;
}
// * * * * * * * * * * * * * * * * * * * * * * * * * * * * * * * * * * * * * //

dimensions      [0 1 -1 0 0 0 0];

internalField   nonuniform List<vector> 
16128
(
(7.7616e-08 -8.00011e-08 0)
(2.04363e-07 -7.29027e-08 0)
(1.61644e-07 5.88988e-09 0)
(-1.78775e-07 9.24993e-08 0)
(-7.90719e-07 1.64246e-07 0)
(-1.59956e-06 2.11255e-07 0)
(-2.54129e-06 2.37329e-07 0)
(-3.56188e-06 2.4942e-07 0)
(-4.62396e-06 2.53685e-07 0)
(-5.70476e-06 2.54319e-07 0)
(-6.79205e-06 2.53777e-07 0)
(-7.88024e-06 2.53303e-07 0)
(-8.96741e-06 2.53404e-07 0)
(-1.00535e-05 2.54196e-07 0)
(-1.1139e-05 2.55621e-07 0)
(-1.22248e-05 2.57569e-07 0)
(-1.33117e-05 2.59935e-07 0)
(-1.44001e-05 2.62632e-07 0)
(-1.54906e-05 2.65601e-07 0)
(-1.65834e-05 2.68802e-07 0)
(-1.7679e-05 2.72206e-07 0)
(-1.87774e-05 2.75796e-07 0)
(-1.98788e-05 2.79558e-07 0)
(-2.09835e-05 2.83483e-07 0)
(-2.20915e-05 2.8756e-07 0)
(-2.32028e-05 2.9178e-07 0)
(-2.43177e-05 2.96134e-07 0)
(-2.54362e-05 3.00614e-07 0)
(-2.65582e-05 3.05208e-07 0)
(-2.76839e-05 3.09905e-07 0)
(-2.88132e-05 3.14693e-07 0)
(-2.99461e-05 3.19559e-07 0)
(-3.10825e-05 3.24488e-07 0)
(-3.22224e-05 3.29464e-07 0)
(-3.33657e-05 3.34468e-07 0)
(-3.45122e-05 3.39483e-07 0)
(-3.56618e-05 3.44488e-07 0)
(-3.68141e-05 3.49459e-07 0)
(-3.79689e-05 3.54373e-07 0)
(-3.9126e-05 3.59204e-07 0)
(-4.02849e-05 3.63924e-07 0)
(-4.14451e-05 3.68503e-07 0)
(-4.26063e-05 3.7291e-07 0)
(-4.37677e-05 3.77111e-07 0)
(-4.49289e-05 3.81073e-07 0)
(-4.6089e-05 3.84758e-07 0)
(-4.72473e-05 3.88127e-07 0)
(-4.84029e-05 3.91143e-07 0)
(-4.95548e-05 3.93763e-07 0)
(-5.0702e-05 3.95945e-07 0)
(-5.18434e-05 3.97647e-07 0)
(-5.29777e-05 3.98822e-07 0)
(-5.41035e-05 3.99427e-07 0)
(-5.52195e-05 3.99415e-07 0)
(-5.63241e-05 3.98742e-07 0)
(-5.74156e-05 3.9736e-07 0)
(-5.84923e-05 3.95226e-07 0)
(-5.95523e-05 3.92296e-07 0)
(-6.05937e-05 3.88525e-07 0)
(-6.16145e-05 3.83873e-07 0)
(-6.26124e-05 3.78299e-07 0)
(-6.35852e-05 3.71766e-07 0)
(-6.45307e-05 3.64237e-07 0)
(-6.54463e-05 3.55681e-07 0)
(-6.63296e-05 3.46069e-07 0)
(-6.7178e-05 3.35376e-07 0)
(-6.79889e-05 3.23581e-07 0)
(-6.87596e-05 3.1067e-07 0)
(-6.94875e-05 2.9663e-07 0)
(-7.01696e-05 2.81456e-07 0)
(-7.08033e-05 2.65148e-07 0)
(-7.13859e-05 2.47712e-07 0)
(-7.19145e-05 2.29158e-07 0)
(-7.23864e-05 2.09503e-07 0)
(-7.2799e-05 1.88766e-07 0)
(-7.31495e-05 1.66971e-07 0)
(-7.34354e-05 1.44143e-07 0)
(-7.36542e-05 1.20282e-07 0)
(-7.38034e-05 9.55771e-08 0)
(-7.3881e-05 7.03747e-08 0)
(-7.38847e-05 4.4325e-08 0)
(-7.38123e-05 1.73243e-08 0)
(-7.36622e-05 -1.03965e-08 0)
(-7.34326e-05 -3.86918e-08 0)
(-7.31222e-05 -6.74605e-08 0)
(-7.27295e-05 -9.66291e-08 0)
(-7.22535e-05 -1.26117e-07 0)
(-7.16933e-05 -1.55839e-07 0)
(-7.10484e-05 -1.85705e-07 0)
(-7.03182e-05 -2.15625e-07 0)
(-6.95026e-05 -2.45508e-07 0)
(-6.86015e-05 -2.75264e-07 0)
(-6.76154e-05 -3.04802e-07 0)
(-6.65446e-05 -3.34035e-07 0)
(-6.53899e-05 -3.62877e-07 0)
(-6.41523e-05 -3.91247e-07 0)
(-6.28329e-05 -4.19067e-07 0)
(-6.14331e-05 -4.46263e-07 0)
(-5.99545e-05 -4.72767e-07 0)
(-5.83988e-05 -4.98514e-07 0)
(-5.6768e-05 -5.23447e-07 0)
(-5.50643e-05 -5.47512e-07 0)
(7.34031e-08 -2.0967e-07 0)
(3.57949e-08 -3.75668e-08 0)
(-4.92313e-07 4.13501e-07 0)
(-1.64353e-06 9.11248e-07 0)
(-3.37605e-06 1.33649e-06 0)
(-5.56758e-06 1.64414e-06 0)
(-8.0834e-06 1.84178e-06 0)
(-1.08075e-05 1.95607e-06 0)
(-1.36534e-05 2.0151e-06 0)
(-1.6563e-05 2.04122e-06 0)
(-1.95008e-05 2.04982e-06 0)
(-2.24468e-05 2.05041e-06 0)
(-2.53909e-05 2.04823e-06 0)
(-2.83284e-05 2.04582e-06 0)
(-3.12578e-05 2.0442e-06 0)
(-3.41785e-05 2.0436e-06 0)
(-3.70906e-05 2.04394e-06 0)
(-3.99941e-05 2.04502e-06 0)
(-4.28891e-05 2.04667e-06 0)
(-4.57753e-05 2.04872e-06 0)
(-4.86527e-05 2.05108e-06 0)
(-5.15208e-05 2.05365e-06 0)
(-5.43792e-05 2.05639e-06 0)
(-5.72276e-05 2.05924e-06 0)
(-6.00655e-05 2.06217e-06 0)
(-6.28923e-05 2.06515e-06 0)
(-6.57075e-05 2.06814e-06 0)
(-6.85105e-05 2.07112e-06 0)
(-7.13009e-05 2.07406e-06 0)
(-7.4078e-05 2.07692e-06 0)
(-7.68412e-05 2.07967e-06 0)
(-7.95898e-05 2.08227e-06 0)
(-8.23231e-05 2.08467e-06 0)
(-8.50406e-05 2.08682e-06 0)
(-8.77414e-05 2.08868e-06 0)
(-9.04248e-05 2.09017e-06 0)
(-9.30899e-05 2.09125e-06 0)
(-9.57359e-05 2.09183e-06 0)
(-9.83619e-05 2.09184e-06 0)
(-0.000100967 2.09119e-06 0)
(-0.00010355 2.0898e-06 0)
(-0.00010611 2.08756e-06 0)
(-0.000108645 2.08438e-06 0)
(-0.000111155 2.08013e-06 0)
(-0.000113638 2.07471e-06 0)
(-0.000116092 2.06798e-06 0)
(-0.000118517 2.05982e-06 0)
(-0.00012091 2.05008e-06 0)
(-0.00012327 2.03862e-06 0)
(-0.000125594 2.02529e-06 0)
(-0.000127882 2.00993e-06 0)
(-0.000130129 1.99238e-06 0)
(-0.000132336 1.97247e-06 0)
(-0.000134498 1.95003e-06 0)
(-0.000136614 1.9249e-06 0)
(-0.000138681 1.89689e-06 0)
(-0.000140695 1.86583e-06 0)
(-0.000142654 1.83155e-06 0)
(-0.000144556 1.79388e-06 0)
(-0.000146395 1.75265e-06 0)
(-0.00014817 1.7077e-06 0)
(-0.000149877 1.65887e-06 0)
(-0.000151511 1.60602e-06 0)
(-0.000153069 1.549e-06 0)
(-0.000154547 1.48768e-06 0)
(-0.000155942 1.42196e-06 0)
(-0.000157248 1.35173e-06 0)
(-0.000158461 1.2769e-06 0)
(-0.000159578 1.19743e-06 0)
(-0.000160594 1.11325e-06 0)
(-0.000161504 1.02435e-06 0)
(-0.000162304 9.30734e-07 0)
(-0.00016299 8.32413e-07 0)
(-0.000163557 7.29439e-07 0)
(-0.000164 6.21881e-07 0)
(-0.000164316 5.09847e-07 0)
(-0.0001645 3.93506e-07 0)
(-0.000164548 2.72846e-07 0)
(-0.000164455 1.48077e-07 0)
(-0.000164219 1.90915e-08 0)
(-0.000163836 -1.13135e-07 0)
(-0.000163302 -2.48643e-07 0)
(-0.000162614 -3.87279e-07 0)
(-0.000161769 -5.28701e-07 0)
(-0.000160765 -6.72571e-07 0)
(-0.000159598 -8.18559e-07 0)
(-0.000158268 -9.66315e-07 0)
(-0.000156773 -1.11547e-06 0)
(-0.000155111 -1.26564e-06 0)
(-0.000153282 -1.41644e-06 0)
(-0.000151284 -1.56747e-06 0)
(-0.000149118 -1.71833e-06 0)
(-0.000146785 -1.86861e-06 0)
(-0.000144284 -2.01793e-06 0)
(-0.000141618 -2.16587e-06 0)
(-0.000138787 -2.31207e-06 0)
(-0.000135793 -2.45613e-06 0)
(-0.000132639 -2.5977e-06 0)
(-0.000129327 -2.73643e-06 0)
(-0.000125861 -2.87198e-06 0)
(-0.000122243 -3.00406e-06 0)
(-0.000118478 -3.13235e-06 0)
(-6.1853e-09 -1.65833e-07 0)
(-4.26501e-07 4.93045e-07 0)
(-1.68464e-06 1.65521e-06 0)
(-3.79454e-06 2.8993e-06 0)
(-6.68295e-06 3.96818e-06 0)
(-1.01949e-05 4.76615e-06 0)
(-1.41562e-05 5.30218e-06 0)
(-1.84147e-05 5.63028e-06 0)
(-2.28542e-05 5.81241e-06 0)
(-2.73935e-05 5.90144e-06 0)
(-3.19805e-05 5.93611e-06 0)
(-3.65836e-05 5.94189e-06 0)
(-4.11852e-05 5.93395e-06 0)
(-4.57758e-05 5.92051e-06 0)
(-5.03505e-05 5.9055e-06 0)
(-5.49069e-05 5.89047e-06 0)
(-5.94433e-05 5.87585e-06 0)
(-6.39588e-05 5.86153e-06 0)
(-6.84524e-05 5.84729e-06 0)
(-7.2923e-05 5.83287e-06 0)
(-7.73695e-05 5.81806e-06 0)
(-8.17908e-05 5.8027e-06 0)
(-8.61855e-05 5.78667e-06 0)
(-9.05525e-05 5.76987e-06 0)
(-9.48903e-05 5.75224e-06 0)
(-9.91976e-05 5.73372e-06 0)
(-0.000103473 5.71426e-06 0)
(-0.000107715 5.69379e-06 0)
(-0.000111923 5.67228e-06 0)
(-0.000116094 5.64966e-06 0)
(-0.000120227 5.62588e-06 0)
(-0.000124322 5.60088e-06 0)
(-0.000128376 5.57458e-06 0)
(-0.000132387 5.54691e-06 0)
(-0.000136355 5.51778e-06 0)
(-0.000140278 5.4871e-06 0)
(-0.000144153 5.45476e-06 0)
(-0.00014798 5.42064e-06 0)
(-0.000151757 5.38461e-06 0)
(-0.000155481 5.34654e-06 0)
(-0.000159151 5.30626e-06 0)
(-0.000162766 5.26363e-06 0)
(-0.000166323 5.21845e-06 0)
(-0.00016982 5.17054e-06 0)
(-0.000173256 5.11969e-06 0)
(-0.000176627 5.06568e-06 0)
(-0.000179933 5.00829e-06 0)
(-0.000183169 4.94726e-06 0)
(-0.000186335 4.88234e-06 0)
(-0.000189428 4.81326e-06 0)
(-0.000192445 4.73974e-06 0)
(-0.000195382 4.66149e-06 0)
(-0.000198239 4.5782e-06 0)
(-0.00020101 4.48956e-06 0)
(-0.000203694 4.39526e-06 0)
(-0.000206287 4.29498e-06 0)
(-0.000208787 4.1884e-06 0)
(-0.000211188 4.07519e-06 0)
(-0.000213488 3.95504e-06 0)
(-0.000215683 3.82762e-06 0)
(-0.00021777 3.69264e-06 0)
(-0.000219744 3.54979e-06 0)
(-0.000221601 3.39879e-06 0)
(-0.000223337 3.23936e-06 0)
(-0.000224948 3.07126e-06 0)
(-0.000226429 2.89426e-06 0)
(-0.000227776 2.70816e-06 0)
(-0.000228984 2.5128e-06 0)
(-0.000230049 2.30805e-06 0)
(-0.000230967 2.09381e-06 0)
(-0.000231731 1.87003e-06 0)
(-0.000232339 1.6367e-06 0)
(-0.000232785 1.39385e-06 0)
(-0.000233065 1.14156e-06 0)
(-0.000233174 8.79933e-07 0)
(-0.000233108 6.09123e-07 0)
(-0.000232862 3.29437e-07 0)
(-0.000232432 4.13801e-08 0)
(-0.000231815 -2.55146e-07 0)
(-0.000231007 -5.60113e-07 0)
(-0.000230003 -8.7223e-07 0)
(-0.0002288 -1.191e-06 0)
(-0.000227397 -1.5161e-06 0)
(-0.000225789 -1.84695e-06 0)
(-0.000223974 -2.18291e-06 0)
(-0.000221951 -2.52329e-06 0)
(-0.000219718 -2.86735e-06 0)
(-0.000217273 -3.21434e-06 0)
(-0.000214615 -3.56345e-06 0)
(-0.000211744 -3.91387e-06 0)
(-0.00020866 -4.26476e-06 0)
(-0.000205363 -4.61528e-06 0)
(-0.000201854 -4.96457e-06 0)
(-0.000198135 -5.31176e-06 0)
(-0.000194206 -5.65602e-06 0)
(-0.000190072 -5.9965e-06 0)
(-0.000185733 -6.33237e-06 0)
(-0.000181194 -6.66282e-06 0)
(-0.000176457 -6.98709e-06 0)
(-0.000171527 -7.30442e-06 0)
(-0.000166409 -7.6141e-06 0)
(-0.000161106 -7.91546e-06 0)
(-9.70515e-08 1.86569e-07 0)
(-9.53633e-07 1.67396e-06 0)
(-3.00324e-06 3.78129e-06 0)
(-6.07804e-06 5.94224e-06 0)
(-1.00614e-05 7.78704e-06 0)
(-1.47688e-05 9.17704e-06 0)
(-2e-05 1.01278e-05 0)
(-2.55823e-05 1.07243e-05 0)
(-3.13831e-05 1.10663e-05 0)
(-3.73081e-05 1.12409e-05 0)
(-4.3295e-05 1.13135e-05 0)
(-4.93046e-05 1.13287e-05 0)
(-5.53138e-05 1.13138e-05 0)
(-6.13091e-05 1.12843e-05 0)
(-6.72828e-05 1.12482e-05 0)
(-7.32304e-05 1.12091e-05 0)
(-7.91488e-05 1.11684e-05 0)
(-8.50356e-05 1.11264e-05 0)
(-9.08889e-05 1.10829e-05 0)
(-9.67066e-05 1.10377e-05 0)
(-0.000102487 1.09905e-05 0)
(-0.000108227 1.09411e-05 0)
(-0.000113926 1.08893e-05 0)
(-0.000119581 1.0835e-05 0)
(-0.00012519 1.07781e-05 0)
(-0.000130751 1.07184e-05 0)
(-0.000136262 1.0656e-05 0)
(-0.00014172 1.05907e-05 0)
(-0.000147123 1.05225e-05 0)
(-0.00015247 1.04513e-05 0)
(-0.000157757 1.0377e-05 0)
(-0.000162982 1.02996e-05 0)
(-0.000168144 1.02189e-05 0)
(-0.000173239 1.01349e-05 0)
(-0.000178266 1.00474e-05 0)
(-0.000183222 9.95628e-06 0)
(-0.000188105 9.86145e-06 0)
(-0.000192912 9.76274e-06 0)
(-0.00019764 9.65998e-06 0)
(-0.000202288 9.55298e-06 0)
(-0.000206852 9.44155e-06 0)
(-0.000211331 9.32547e-06 0)
(-0.00021572 9.20451e-06 0)
(-0.000220019 9.0784e-06 0)
(-0.000224224 8.94689e-06 0)
(-0.000228331 8.80969e-06 0)
(-0.000232339 8.66647e-06 0)
(-0.000236245 8.51693e-06 0)
(-0.000240045 8.36072e-06 0)
(-0.000243736 8.19747e-06 0)
(-0.000247315 8.02681e-06 0)
(-0.000250779 7.84835e-06 0)
(-0.000254124 7.66169e-06 0)
(-0.000257348 7.46641e-06 0)
(-0.000260446 7.26208e-06 0)
(-0.000263414 7.04827e-06 0)
(-0.00026625 6.82456e-06 0)
(-0.00026895 6.59051e-06 0)
(-0.000271508 6.34568e-06 0)
(-0.000273923 6.08966e-06 0)
(-0.000276188 5.82203e-06 0)
(-0.000278301 5.54239e-06 0)
(-0.000280256 5.25036e-06 0)
(-0.00028205 4.94557e-06 0)
(-0.000283679 4.62771e-06 0)
(-0.000285137 4.29647e-06 0)
(-0.00028642 3.95161e-06 0)
(-0.000287524 3.59291e-06 0)
(-0.000288444 3.2202e-06 0)
(-0.000289175 2.83339e-06 0)
(-0.000289714 2.43243e-06 0)
(-0.000290055 2.01733e-06 0)
(-0.000290194 1.58815e-06 0)
(-0.000290127 1.14503e-06 0)
(-0.000289849 6.882e-07 0)
(-0.000289357 2.18046e-07 0)
(-0.000288646 -2.65161e-07 0)
(-0.000287713 -7.6078e-07 0)
(-0.000286553 -1.2684e-06 0)
(-0.000285165 -1.78715e-06 0)
(-0.000283543 -2.31677e-06 0)
(-0.000281686 -2.85636e-06 0)
(-0.000279591 -3.40495e-06 0)
(-0.000277257 -3.96162e-06 0)
(-0.00027468 -4.52536e-06 0)
(-0.000271859 -5.09512e-06 0)
(-0.000268794 -5.66975e-06 0)
(-0.000265484 -6.24809e-06 0)
(-0.000261929 -6.82891e-06 0)
(-0.000258128 -7.41095e-06 0)
(-0.000254083 -7.99292e-06 0)
(-0.000249795 -8.57349e-06 0)
(-0.000245265 -9.15135e-06 0)
(-0.000240495 -9.72517e-06 0)
(-0.000235489 -1.02936e-05 0)
(-0.000230249 -1.08554e-05 0)
(-0.000224778 -1.14092e-05 0)
(-0.000219081 -1.19538e-05 0)
(-0.000213162 -1.2488e-05 0)
(-0.000207026 -1.30106e-05 0)
(-0.000200679 -1.35204e-05 0)
(-0.000194125 -1.40165e-05 0)
(-1.75901e-07 8.3161e-07 0)
(-1.42281e-06 3.48326e-06 0)
(-4.18217e-06 6.7464e-06 0)
(-8.10808e-06 9.95813e-06 0)
(-1.30343e-05 1.26682e-05 0)
(-1.87462e-05 1.47128e-05 0)
(-2.50234e-05 1.61235e-05 0)
(-3.16804e-05 1.7021e-05 0)
(-3.85759e-05 1.75453e-05 0)
(-4.5609e-05 1.782e-05 0)
(-5.27121e-05 1.79389e-05 0)
(-5.98419e-05 1.79667e-05 0)
(-6.6972e-05 1.79443e-05 0)
(-7.40862e-05 1.78954e-05 0)
(-8.11748e-05 1.78326e-05 0)
(-8.82315e-05 1.77622e-05 0)
(-9.52521e-05 1.76869e-05 0)
(-0.000102233 1.76074e-05 0)
(-0.000109171 1.7524e-05 0)
(-0.000116064 1.74364e-05 0)
(-0.000122909 1.73444e-05 0)
(-0.000129703 1.72477e-05 0)
(-0.000136443 1.71462e-05 0)
(-0.000143127 1.70397e-05 0)
(-0.000149751 1.6928e-05 0)
(-0.000156313 1.68111e-05 0)
(-0.00016281 1.66888e-05 0)
(-0.000169239 1.65611e-05 0)
(-0.000175598 1.64278e-05 0)
(-0.000181883 1.62889e-05 0)
(-0.000188091 1.61443e-05 0)
(-0.00019422 1.59938e-05 0)
(-0.000200266 1.58374e-05 0)
(-0.000206227 1.5675e-05 0)
(-0.0002121 1.55064e-05 0)
(-0.000217881 1.53314e-05 0)
(-0.000223568 1.51499e-05 0)
(-0.000229157 1.49617e-05 0)
(-0.000234646 1.47667e-05 0)
(-0.00024003 1.45645e-05 0)
(-0.000245309 1.4355e-05 0)
(-0.000250477 1.41379e-05 0)
(-0.000255531 1.39129e-05 0)
(-0.00026047 1.36797e-05 0)
(-0.000265288 1.34381e-05 0)
(-0.000269984 1.31875e-05 0)
(-0.000274552 1.29278e-05 0)
(-0.000278991 1.26585e-05 0)
(-0.000283297 1.23792e-05 0)
(-0.000287465 1.20895e-05 0)
(-0.000291492 1.17888e-05 0)
(-0.000295375 1.14769e-05 0)
(-0.00029911 1.11531e-05 0)
(-0.000302693 1.0817e-05 0)
(-0.00030612 1.0468e-05 0)
(-0.000309388 1.01057e-05 0)
(-0.000312491 9.72962e-06 0)
(-0.000315426 9.33913e-06 0)
(-0.000318189 8.93376e-06 0)
(-0.000320776 8.51302e-06 0)
(-0.000323181 8.07641e-06 0)
(-0.000325402 7.62348e-06 0)
(-0.000327433 7.15378e-06 0)
(-0.00032927 6.6669e-06 0)
(-0.000330909 6.16248e-06 0)
(-0.000332344 5.64019e-06 0)
(-0.000333572 5.09975e-06 0)
(-0.000334587 4.54095e-06 0)
(-0.000335386 3.96363e-06 0)
(-0.000335964 3.36773e-06 0)
(-0.000336316 2.75322e-06 0)
(-0.000336438 2.12019e-06 0)
(-0.000336326 1.46877e-06 0)
(-0.000335975 7.99209e-07 0)
(-0.000335382 1.11999e-07 0)
(-0.000334542 -5.92392e-07 0)
(-0.000333452 -1.31349e-06 0)
(-0.000332109 -2.05081e-06 0)
(-0.000330508 -2.80333e-06 0)
(-0.000328647 -3.57011e-06 0)
(-0.000326524 -4.35037e-06 0)
(-0.000324136 -5.14296e-06 0)
(-0.00032148 -5.94666e-06 0)
(-0.000318556 -6.76016e-06 0)
(-0.000315361 -7.5821e-06 0)
(-0.000311895 -8.41098e-06 0)
(-0.000308157 -9.24526e-06 0)
(-0.000304148 -1.00833e-05 0)
(-0.000299867 -1.09235e-05 0)
(-0.000295316 -1.1764e-05 0)
(-0.000290495 -1.26032e-05 0)
(-0.000285408 -1.34391e-05 0)
(-0.000280055 -1.42701e-05 0)
(-0.00027444 -1.50943e-05 0)
(-0.000268567 -1.59098e-05 0)
(-0.000262438 -1.67149e-05 0)
(-0.000256059 -1.75079e-05 0)
(-0.000249434 -1.8287e-05 0)
(-0.000242569 -1.90505e-05 0)
(-0.000235468 -1.97969e-05 0)
(-0.000228139 -2.05246e-05 0)
(-0.000220587 -2.12323e-05 0)
(-2.31035e-07 1.70024e-06 0)
(-1.78112e-06 5.8117e-06 0)
(-5.10834e-06 1.04141e-05 0)
(-9.71677e-06 1.47857e-05 0)
(-1.5394e-05 1.84251e-05 0)
(-2.1897e-05 2.11629e-05 0)
(-2.89873e-05 2.30577e-05 0)
(-3.64702e-05 2.42723e-05 0)
(-4.41996e-05 2.49899e-05 0)
(-5.20717e-05 2.53717e-05 0)
(-6.00167e-05 2.55408e-05 0)
(-6.79896e-05 2.55827e-05 0)
(-7.59623e-05 2.5552e-05 0)
(-8.39173e-05 2.54811e-05 0)
(-9.18436e-05 2.53875e-05 0)
(-9.9734e-05 2.52805e-05 0)
(-0.000107583 2.5164e-05 0)
(-0.000115386 2.50398e-05 0)
(-0.000123141 2.49083e-05 0)
(-0.000130842 2.47695e-05 0)
(-0.000138487 2.46232e-05 0)
(-0.000146073 2.44692e-05 0)
(-0.000153596 2.43072e-05 0)
(-0.000161053 2.41371e-05 0)
(-0.00016844 2.39588e-05 0)
(-0.000175755 2.37721e-05 0)
(-0.000182994 2.35769e-05 0)
(-0.000190153 2.3373e-05 0)
(-0.000197229 2.31605e-05 0)
(-0.00020422 2.29392e-05 0)
(-0.00021112 2.27089e-05 0)
(-0.000217928 2.24696e-05 0)
(-0.000224639 2.22212e-05 0)
(-0.000231251 2.19634e-05 0)
(-0.000237759 2.16962e-05 0)
(-0.00024416 2.14193e-05 0)
(-0.000250452 2.11326e-05 0)
(-0.000256629 2.08359e-05 0)
(-0.000262689 2.05289e-05 0)
(-0.000268629 2.02115e-05 0)
(-0.000274444 1.98833e-05 0)
(-0.000280131 1.9544e-05 0)
(-0.000285686 1.91934e-05 0)
(-0.000291107 1.88311e-05 0)
(-0.000296388 1.84567e-05 0)
(-0.000301526 1.80699e-05 0)
(-0.000306518 1.76703e-05 0)
(-0.00031136 1.72573e-05 0)
(-0.000316048 1.68306e-05 0)
(-0.000320578 1.63897e-05 0)
(-0.000324945 1.5934e-05 0)
(-0.000329147 1.54631e-05 0)
(-0.000333178 1.49764e-05 0)
(-0.000337036 1.44733e-05 0)
(-0.000340715 1.39534e-05 0)
(-0.000344212 1.34159e-05 0)
(-0.000347522 1.28604e-05 0)
(-0.00035064 1.22862e-05 0)
(-0.000353563 1.16928e-05 0)
(-0.000356286 1.10797e-05 0)
(-0.000358805 1.04462e-05 0)
(-0.000361115 9.79195e-06 0)
(-0.000363211 9.1164e-06 0)
(-0.000365089 8.41913e-06 0)
(-0.000366745 7.69974e-06 0)
(-0.000368173 6.95792e-06 0)
(-0.000369369 6.19339e-06 0)
(-0.000370329 5.40594e-06 0)
(-0.000371048 4.59548e-06 0)
(-0.000371521 3.76195e-06 0)
(-0.000371745 2.90545e-06 0)
(-0.000371714 2.02613e-06 0)
(-0.000371424 1.12422e-06 0)
(-0.000370872 2.00154e-07 0)
(-0.000370053 -7.4547e-07 0)
(-0.000368964 -1.71213e-06 0)
(-0.000367601 -2.69902e-06 0)
(-0.00036596 -3.70524e-06 0)
(-0.000364039 -4.72972e-06 0)
(-0.000361835 -5.77129e-06 0)
(-0.000359345 -6.82867e-06 0)
(-0.000356568 -7.90044e-06 0)
(-0.0003535 -8.98503e-06 0)
(-0.000350142 -1.00808e-05 0)
(-0.000346492 -1.11858e-05 0)
(-0.000342548 -1.22983e-05 0)
(-0.000338313 -1.34163e-05 0)
(-0.000333784 -1.45376e-05 0)
(-0.000328964 -1.566e-05 0)
(-0.000323854 -1.67815e-05 0)
(-0.000318455 -1.78997e-05 0)
(-0.00031277 -1.90123e-05 0)
(-0.000306802 -2.0117e-05 0)
(-0.000300554 -2.12115e-05 0)
(-0.000294029 -2.22935e-05 0)
(-0.000287233 -2.33606e-05 0)
(-0.000280171 -2.44107e-05 0)
(-0.000272847 -2.54416e-05 0)
(-0.000265267 -2.64511e-05 0)
(-0.000257438 -2.74372e-05 0)
(-0.000249366 -2.8398e-05 0)
(-0.00024106 -2.93317e-05 0)
(-2.64606e-07 2.72987e-06 0)
(-2.02835e-06 8.52902e-06 0)
(-5.77307e-06 1.46177e-05 0)
(-1.08905e-05 2.02353e-05 0)
(-1.713e-05 2.48505e-05 0)
(-2.42228e-05 2.8305e-05 0)
(-3.19151e-05 3.06953e-05 0)
(-4.00042e-05 3.22323e-05 0)
(-4.83408e-05 3.31458e-05 0)
(-5.68199e-05 3.3636e-05 0)
(-6.53713e-05 3.38556e-05 0)
(-7.39495e-05 3.39111e-05 0)
(-8.2526e-05 3.38707e-05 0)
(-9.10829e-05 3.37754e-05 0)
(-9.96085e-05 3.36479e-05 0)
(-0.000108095 3.35002e-05 0)
(-0.000116536 3.33379e-05 0)
(-0.000124928 3.31636e-05 0)
(-0.000133265 3.29781e-05 0)
(-0.000141544 3.27816e-05 0)
(-0.000149761 3.2574e-05 0)
(-0.000157913 3.23551e-05 0)
(-0.000165995 3.21247e-05 0)
(-0.000174004 3.18827e-05 0)
(-0.000181936 3.16289e-05 0)
(-0.000189788 3.13632e-05 0)
(-0.000197555 3.10854e-05 0)
(-0.000205235 3.07955e-05 0)
(-0.000212823 3.04932e-05 0)
(-0.000220315 3.01786e-05 0)
(-0.000227709 2.98515e-05 0)
(-0.000235 2.95117e-05 0)
(-0.000242184 2.91591e-05 0)
(-0.000249258 2.87936e-05 0)
(-0.000256218 2.8415e-05 0)
(-0.000263061 2.80231e-05 0)
(-0.000269781 2.76177e-05 0)
(-0.000276377 2.71985e-05 0)
(-0.000282843 2.67655e-05 0)
(-0.000289176 2.63181e-05 0)
(-0.000295372 2.58563e-05 0)
(-0.000301427 2.53797e-05 0)
(-0.000307338 2.48879e-05 0)
(-0.0003131 2.43805e-05 0)
(-0.000318709 2.38572e-05 0)
(-0.000324162 2.33176e-05 0)
(-0.000329455 2.27612e-05 0)
(-0.000334583 2.21876e-05 0)
(-0.000339542 2.15962e-05 0)
(-0.000344329 2.09865e-05 0)
(-0.000348939 2.03579e-05 0)
(-0.000353367 1.971e-05 0)
(-0.000357611 1.90421e-05 0)
(-0.000361665 1.83535e-05 0)
(-0.000365525 1.76438e-05 0)
(-0.000369187 1.69122e-05 0)
(-0.000372646 1.61582e-05 0)
(-0.000375898 1.53811e-05 0)
(-0.000378938 1.45803e-05 0)
(-0.000381762 1.37552e-05 0)
(-0.000384366 1.29053e-05 0)
(-0.000386744 1.20299e-05 0)
(-0.000388892 1.11286e-05 0)
(-0.000390805 1.0201e-05 0)
(-0.000392479 9.2466e-06 0)
(-0.000393909 8.26514e-06 0)
(-0.00039509 7.25634e-06 0)
(-0.000396019 6.22005e-06 0)
(-0.000396689 5.15619e-06 0)
(-0.000397097 4.0648e-06 0)
(-0.000397238 2.946e-06 0)
(-0.000397108 1.80003e-06 0)
(-0.000396702 6.27388e-07 0)
(-0.000396017 -5.71309e-07 0)
(-0.000395048 -1.79555e-06 0)
(-0.000393792 -3.04444e-06 0)
(-0.000392245 -4.31698e-06 0)
(-0.000390404 -5.612e-06 0)
(-0.000388266 -6.92819e-06 0)
(-0.000385828 -8.26406e-06 0)
(-0.000383088 -9.618e-06 0)
(-0.000380043 -1.09882e-05 0)
(-0.000376693 -1.23727e-05 0)
(-0.000373035 -1.37695e-05 0)
(-0.000369069 -1.51763e-05 0)
(-0.000364795 -1.65907e-05 0)
(-0.000360212 -1.80104e-05 0)
(-0.000355322 -1.94326e-05 0)
(-0.000350125 -2.08548e-05 0)
(-0.000344622 -2.22743e-05 0)
(-0.000338817 -2.36881e-05 0)
(-0.000332711 -2.50936e-05 0)
(-0.000326307 -2.64879e-05 0)
(-0.000319611 -2.78681e-05 0)
(-0.000312625 -2.92314e-05 0)
(-0.000305354 -3.05751e-05 0)
(-0.000297805 -3.18963e-05 0)
(-0.000289982 -3.31924e-05 0)
(-0.000281891 -3.44608e-05 0)
(-0.000273541 -3.56991e-05 0)
(-0.000264937 -3.69048e-05 0)
(-0.000256088 -3.80758e-05 0)
(-2.82464e-07 3.86384e-06 0)
(-2.18571e-06 1.15162e-05 0)
(-6.21763e-06 1.92032e-05 0)
(-1.16932e-05 2.61338e-05 0)
(-1.83327e-05 3.17602e-05 0)
(-2.58463e-05 3.59469e-05 0)
(-3.39665e-05 3.88377e-05 0)
(-4.24842e-05 4.06973e-05 0)
(-5.12472e-05 4.18051e-05 0)
(-6.01499e-05 4.24017e-05 0)
(-6.91223e-05 4.26699e-05 0)
(-7.81191e-05 4.2737e-05 0)
(-8.71122e-05 4.26849e-05 0)
(-9.60834e-05 4.2563e-05 0)
(-0.000105021 4.2399e-05 0)
(-0.000113917 4.22077e-05 0)
(-0.000122765 4.19962e-05 0)
(-0.000131561 4.17679e-05 0)
(-0.000140298 4.15241e-05 0)
(-0.000148973 4.12652e-05 0)
(-0.000157583 4.09913e-05 0)
(-0.000166122 4.07021e-05 0)
(-0.000174587 4.03976e-05 0)
(-0.000182974 4.00776e-05 0)
(-0.000191279 3.9742e-05 0)
(-0.000199498 3.93907e-05 0)
(-0.000207627 3.90234e-05 0)
(-0.000215662 3.86401e-05 0)
(-0.000223599 3.82407e-05 0)
(-0.000231435 3.7825e-05 0)
(-0.000239165 3.7393e-05 0)
(-0.000246785 3.69444e-05 0)
(-0.000254291 3.64792e-05 0)
(-0.00026168 3.59972e-05 0)
(-0.000268947 3.54981e-05 0)
(-0.000276089 3.49819e-05 0)
(-0.000283102 3.44482e-05 0)
(-0.00028998 3.3897e-05 0)
(-0.000296722 3.33278e-05 0)
(-0.000303321 3.27404e-05 0)
(-0.000309776 3.21346e-05 0)
(-0.00031608 3.15099e-05 0)
(-0.000322232 3.08661e-05 0)
(-0.000328225 3.02027e-05 0)
(-0.000334057 2.95194e-05 0)
(-0.000339723 2.88156e-05 0)
(-0.000345219 2.8091e-05 0)
(-0.00035054 2.7345e-05 0)
(-0.000355684 2.6577e-05 0)
(-0.000360645 2.57865e-05 0)
(-0.000365419 2.4973e-05 0)
(-0.000370002 2.41358e-05 0)
(-0.00037439 2.32743e-05 0)
(-0.000378577 2.23879e-05 0)
(-0.000382561 2.14758e-05 0)
(-0.000386336 2.05375e-05 0)
(-0.000389899 1.95723e-05 0)
(-0.000393243 1.85794e-05 0)
(-0.000396366 1.75583e-05 0)
(-0.000399261 1.65082e-05 0)
(-0.000401926 1.54287e-05 0)
(-0.000404354 1.43191e-05 0)
(-0.000406541 1.31789e-05 0)
(-0.000408483 1.20076e-05 0)
(-0.000410175 1.0805e-05 0)
(-0.000411613 9.57049e-06 0)
(-0.00041279 8.30402e-06 0)
(-0.000413703 7.00543e-06 0)
(-0.000414348 5.67468e-06 0)
(-0.000414719 4.31188e-06 0)
(-0.000414812 2.91725e-06 0)
(-0.000414623 1.49113e-06 0)
(-0.000414146 3.41191e-08 0)
(-0.000413379 -1.45301e-06 0)
(-0.000412318 -2.96951e-06 0)
(-0.000410957 -4.51431e-06 0)
(-0.000409295 -6.08617e-06 0)
(-0.000407327 -7.68368e-06 0)
(-0.00040505 -9.30524e-06 0)
(-0.000402462 -1.0949e-05 0)
(-0.00039956 -1.26131e-05 0)
(-0.000396342 -1.42953e-05 0)
(-0.000392807 -1.59933e-05 0)
(-0.000388954 -1.77045e-05 0)
(-0.00038478 -1.94262e-05 0)
(-0.000380287 -2.11558e-05 0)
(-0.000375475 -2.28901e-05 0)
(-0.000370343 -2.46261e-05 0)
(-0.000364893 -2.63607e-05 0)
(-0.000359128 -2.80906e-05 0)
(-0.000353048 -2.98124e-05 0)
(-0.000346658 -3.15228e-05 0)
(-0.00033996 -3.32184e-05 0)
(-0.000332958 -3.48958e-05 0)
(-0.000325658 -3.65516e-05 0)
(-0.000318063 -3.81825e-05 0)
(-0.000310179 -3.97853e-05 0)
(-0.000302014 -4.13567e-05 0)
(-0.000293572 -4.28938e-05 0)
(-0.000284862 -4.43935e-05 0)
(-0.00027589 -4.58531e-05 0)
(-0.000266665 -4.72699e-05 0)
(-2.90324e-07 5.05985e-06 0)
(-2.27869e-06 1.4679e-05 0)
(-6.49765e-06 2.40464e-05 0)
(-1.22138e-05 3.23415e-05 0)
(-1.91266e-05 3.90064e-05 0)
(-2.693e-05 4.39372e-05 0)
(-3.53453e-05 4.73312e-05 0)
(-4.41576e-05 4.95117e-05 0)
(-5.32123e-05 5.08106e-05 0)
(-6.24032e-05 5.15102e-05 0)
(-7.16603e-05 5.1824e-05 0)
(-8.09392e-05 5.19002e-05 0)
(-9.02119e-05 5.18342e-05 0)
(-9.94607e-05 5.16836e-05 0)
(-0.000108674 5.14809e-05 0)
(-0.000117844 5.12436e-05 0)
(-0.000126963 5.09804e-05 0)
(-0.000136027 5.06954e-05 0)
(-0.000145032 5.03902e-05 0)
(-0.000153971 5.00657e-05 0)
(-0.000162842 4.97218e-05 0)
(-0.000171639 4.93587e-05 0)
(-0.000180359 4.89761e-05 0)
(-0.000188997 4.85739e-05 0)
(-0.00019755 4.81521e-05 0)
(-0.000206013 4.77104e-05 0)
(-0.000214382 4.72488e-05 0)
(-0.000222653 4.67672e-05 0)
(-0.000230822 4.62654e-05 0)
(-0.000238885 4.57433e-05 0)
(-0.000246837 4.52008e-05 0)
(-0.000254675 4.46378e-05 0)
(-0.000262395 4.4054e-05 0)
(-0.000269992 4.34494e-05 0)
(-0.000277462 4.28237e-05 0)
(-0.000284802 4.21768e-05 0)
(-0.000292007 4.15084e-05 0)
(-0.000299073 4.08184e-05 0)
(-0.000305996 4.01063e-05 0)
(-0.000312772 3.93721e-05 0)
(-0.000319397 3.86152e-05 0)
(-0.000325866 3.78355e-05 0)
(-0.000332176 3.70324e-05 0)
(-0.000338322 3.62058e-05 0)
(-0.000344301 3.53549e-05 0)
(-0.000350108 3.44796e-05 0)
(-0.000355738 3.35791e-05 0)
(-0.000361189 3.26531e-05 0)
(-0.000366454 3.17009e-05 0)
(-0.000371531 3.07219e-05 0)
(-0.000376415 2.97156e-05 0)
(-0.000381102 2.86813e-05 0)
(-0.000385587 2.76183e-05 0)
(-0.000389865 2.6526e-05 0)
(-0.000393934 2.54036e-05 0)
(-0.000397787 2.42504e-05 0)
(-0.000401421 2.30659e-05 0)
(-0.00040483 2.18491e-05 0)
(-0.000408012 2.05995e-05 0)
(-0.000410959 1.93164e-05 0)
(-0.00041367 1.7999e-05 0)
(-0.000416137 1.6647e-05 0)
(-0.000418357 1.52596e-05 0)
(-0.000420325 1.38364e-05 0)
(-0.000422037 1.2377e-05 0)
(-0.000423486 1.08811e-05 0)
(-0.00042467 9.34855e-06 0)
(-0.000425582 7.77913e-06 0)
(-0.000426219 6.17292e-06 0)
(-0.000426575 4.53008e-06 0)
(-0.000426647 2.85094e-06 0)
(-0.000426429 1.13597e-06 0)
(-0.000425916 -6.1427e-07 0)
(-0.000425106 -2.39882e-06 0)
(-0.000423994 -4.2166e-06 0)
(-0.000422575 -6.06638e-06 0)
(-0.000420846 -7.94672e-06 0)
(-0.000418805 -9.85594e-06 0)
(-0.000416447 -1.17921e-05 0)
(-0.000413769 -1.37532e-05 0)
(-0.00041077 -1.57368e-05 0)
(-0.000407448 -1.77404e-05 0)
(-0.000403799 -1.97612e-05 0)
(-0.000399824 -2.17963e-05 0)
(-0.000395521 -2.38425e-05 0)
(-0.00039089 -2.58965e-05 0)
(-0.00038593 -2.7955e-05 0)
(-0.000380644 -3.00141e-05 0)
(-0.000375032 -3.20704e-05 0)
(-0.000369095 -3.41198e-05 0)
(-0.000362837 -3.61586e-05 0)
(-0.000356259 -3.81828e-05 0)
(-0.000349366 -4.01884e-05 0)
(-0.000342162 -4.21715e-05 0)
(-0.000334651 -4.41282e-05 0)
(-0.000326838 -4.60546e-05 0)
(-0.00031873 -4.79468e-05 0)
(-0.000310332 -4.98012e-05 0)
(-0.000301652 -5.16142e-05 0)
(-0.000292696 -5.33824e-05 0)
(-0.000283473 -5.51026e-05 0)
(-0.000273992 -5.67716e-05 0)
(-2.92439e-07 6.2895e-06 0)
(-2.32951e-06 1.79499e-05 0)
(-6.66512e-06 2.90562e-05 0)
(-1.25375e-05 3.87542e-05 0)
(-1.9632e-05 4.64795e-05 0)
(-2.76306e-05 5.21639e-05 0)
(-3.62458e-05 5.60632e-05 0)
(-4.52577e-05 5.85629e-05 0)
(-5.45095e-05 6.00496e-05 0)
(-6.38943e-05 6.08488e-05 0)
(-7.33421e-05 6.12052e-05 0)
(-8.2809e-05 6.12878e-05 0)
(-9.22673e-05 6.12057e-05 0)
(-0.0001017 6.10244e-05 0)
(-0.000111095 6.07812e-05 0)
(-0.000120445 6.04962e-05 0)
(-0.000129744 6.01794e-05 0)
(-0.000138985 5.98356e-05 0)
(-0.000148165 5.94671e-05 0)
(-0.000157278 5.90746e-05 0)
(-0.000166321 5.86585e-05 0)
(-0.000175288 5.82188e-05 0)
(-0.000184175 5.77553e-05 0)
(-0.000192979 5.72682e-05 0)
(-0.000201695 5.67571e-05 0)
(-0.000210318 5.6222e-05 0)
(-0.000218845 5.56629e-05 0)
(-0.000227271 5.50795e-05 0)
(-0.000235592 5.44719e-05 0)
(-0.000243804 5.38398e-05 0)
(-0.000251903 5.31831e-05 0)
(-0.000259885 5.25018e-05 0)
(-0.000267744 5.17956e-05 0)
(-0.000275479 5.10644e-05 0)
(-0.000283083 5.0308e-05 0)
(-0.000290553 4.95263e-05 0)
(-0.000297885 4.8719e-05 0)
(-0.000305074 4.78858e-05 0)
(-0.000312117 4.70266e-05 0)
(-0.000319009 4.61409e-05 0)
(-0.000325747 4.52286e-05 0)
(-0.000332326 4.42892e-05 0)
(-0.000338741 4.33224e-05 0)
(-0.000344989 4.23278e-05 0)
(-0.000351066 4.13049e-05 0)
(-0.000356967 4.02532e-05 0)
(-0.000362689 3.91722e-05 0)
(-0.000368226 3.80615e-05 0)
(-0.000373575 3.69203e-05 0)
(-0.000378732 3.57481e-05 0)
(-0.000383692 3.45442e-05 0)
(-0.000388451 3.3308e-05 0)
(-0.000393004 3.20387e-05 0)
(-0.000397348 3.07358e-05 0)
(-0.000401477 2.93983e-05 0)
(-0.000405388 2.80256e-05 0)
(-0.000409076 2.66169e-05 0)
(-0.000412536 2.51714e-05 0)
(-0.000415763 2.36885e-05 0)
(-0.000418754 2.21675e-05 0)
(-0.000421503 2.06075e-05 0)
(-0.000424006 1.90081e-05 0)
(-0.000426258 1.73687e-05 0)
(-0.000428254 1.56886e-05 0)
(-0.00042999 1.39676e-05 0)
(-0.00043146 1.22053e-05 0)
(-0.000432659 1.04015e-05 0)
(-0.000433584 8.55609e-06 0)
(-0.000434228 6.66916e-06 0)
(-0.000434589 4.74088e-06 0)
(-0.000434659 2.77164e-06 0)
(-0.000434436 7.62155e-07 0)
(-0.000433915 -1.28682e-06 0)
(-0.00043309 -3.37439e-06 0)
(-0.000431958 -5.49931e-06 0)
(-0.000430515 -7.6601e-06 0)
(-0.000428757 -9.85508e-06 0)
(-0.000426681 -1.20823e-05 0)
(-0.000424282 -1.43396e-05 0)
(-0.000421559 -1.66244e-05 0)
(-0.000418508 -1.89342e-05 0)
(-0.000415127 -2.12659e-05 0)
(-0.000411415 -2.36164e-05 0)
(-0.00040737 -2.59824e-05 0)