/*--------------------------------*- C++ -*----------------------------------*\
  =========                 |
  \\      /  F ield         | OpenFOAM: The Open Source CFD Toolbox
   \\    /   O peration     | Website:  https://openfoam.org
    \\  /    A nd           | Version:  10
     \\/     M anipulation  |
\*---------------------------------------------------------------------------*/
FoamFile
{
    format      ascii;
    class       volScalarField;
    location    "0.449345";
    object      T;
}
// * * * * * * * * * * * * * * * * * * * * * * * * * * * * * * * * * * * * * //

dimensions      [0 0 0 1 0 0 0];

internalField   nonuniform List<scalar> 
15984
(
0.00861029
0.00860833
0.00860673
0.00860579
0.00860528
0.00860608
0.00860738
0.00861032
0.00861397
0.00861945
0.00862663
0.00863708
0.00864765
0.00866241
0.00867765
0.00869476
0.00871241
0.00873193
0.00875035
0.00877055
0.00878738
0.00880698
0.00882145
0.00883694
0.00884923
0.00885991
0.00886911
0.00887555
0.00888096
0.0088839
0.00888555
0.00888592
0.00888527
0.00888345
0.00888069
0.00887782
0.00887304
0.0088701
0.00886496
0.00886068
0.00885639
0.00885153
0.00884672
0.00884303
0.00883731
0.00883422
0.00882905
0.00882512
0.00882077
0.00881693
0.00881264
0.00880871
0.00880522
0.00879997
0.00860829
0.00860811
0.00860725
0.00860683
0.00860726
0.0086076
0.00861003
0.00861187
0.0086161
0.00862145
0.00862891
0.00863776
0.00865072
0.00866216
0.00867832
0.00869402
0.00871269
0.00873016
0.00874946
0.0087682
0.00878742
0.00880494
0.00882064
0.00883655
0.00884924
0.00886057
0.00886978
0.00887736
0.00888268
0.00888675
0.00888833
0.00888986
0.0088888
0.00888769
0.00888504
0.0088824
0.00887859
0.00887465
0.00887054
0.00886608
0.00886101
0.00885651
0.00885176
0.00884642
0.00884191
0.00883709
0.0088318
0.00882744
0.00882232
0.00881792
0.00881232
0.00880854
0.0088021
0.00879879
0.00860902
0.00860854
0.00860869
0.00860892
0.00860952
0.00861037
0.00861281
0.00861464
0.00861988
0.00862395
0.00863232
0.00864037
0.0086525
0.00866391
0.00867971
0.00869452
0.00871222
0.00873027
0.00874842
0.00876771
0.00878583
0.0088034
0.00882103
0.00883482
0.00884994
0.00886033
0.00887127
0.00887848
0.00888487
0.00888927
0.00889216
0.00889284
0.00889334
0.00889207
0.0088905
0.00888724
0.00888437
0.00888025
0.00887632
0.00887137
0.0088672
0.00886157
0.00885709
0.00885132
0.00884638
0.00884087
0.00883511
0.00883056
0.008824
0.00881882
0.00881329
0.00880716
0.00880139
0.00879516
0.00860972
0.0086097
0.00861059
0.00861109
0.0086125
0.00861414
0.00861585
0.00861971
0.00862268
0.00862934
0.00863496
0.00864474
0.00865457
0.00866677
0.00868163
0.00869519
0.00871324
0.00872991
0.00874847
0.00876648
0.00878518
0.00880317
0.00881866
0.00883583
0.00884865
0.00886136
0.00887145
0.00888048
0.0088868
0.0088921
0.00889476
0.00889748
0.00889714
0.00889689
0.00889521
0.00889328
0.00888967
0.00888657
0.0088819
0.00887812
0.00887216
0.00886856
0.00886202
0.00885705
0.00885124
0.00884514
0.00883945
0.00883296
0.00882703
0.00881961
0.00881479
0.00880615
0.00880084
0.00879262
0.00861022
0.00861179
0.00861295
0.00861397
0.00861621
0.00861777
0.00862127
0.00862383
0.0086282
0.00863346
0.00864037
0.00864827
0.00865899
0.00867054
0.00868358
0.00869856
0.00871324
0.0087309
0.00874848
0.00876544
0.00878473
0.00880183
0.00881853
0.00883411
0.00884871
0.00886158
0.00887211
0.00888148
0.00888888
0.00889424
0.00889851
0.00890064
0.00890173
0.0089017
0.00890058
0.00889856
0.00889608
0.00889243
0.00888876
0.00888427
0.00887947
0.00887436
0.00886805
0.00886333
0.00885654
0.00884961
0.00884439
0.00883578
0.00882998
0.00882249
0.00881494
0.00880709
0.00879964
0.00879101
0.00861196
0.00861374
0.00861581
0.00861844
0.0086199
0.00862313
0.008626
0.0086294
0.0086341
0.00863814
0.00864666
0.00865285
0.00866402
0.00867342
0.00868737
0.00870035
0.00871616
0.00873197
0.00874863
0.00876688
0.00878336
0.0088014
0.00881816
0.00883348
0.00884843
0.00886145
0.00887288
0.00888258
0.00889064
0.00889715
0.00890134
0.00890485
0.00890608
0.0089066
0.00890619
0.0089044
0.00890221
0.00889933
0.00889513
0.00889159
0.0088858
0.00888119
0.00887484
0.00886917
0.00886238
0.00885526
0.00884837
0.00884052
0.00883328
0.00882457
0.0088167
0.00880721
0.00879969
0.00878871
0.00861339
0.00861665
0.00861954
0.00862219
0.00862588
0.00862791
0.00863206
0.00863577
0.00863986
0.00864615
0.00865104
0.00866015
0.00866809
0.00867971
0.00869084
0.00870406
0.00871867
0.00873328
0.00875002
0.00876623
0.00878383
0.00880035
0.00881743
0.00883304
0.00884745
0.00886175
0.00887274
0.0088843
0.0088923
0.00889925
0.00890495
0.00890806
0.00891126
0.00891148
0.00891171
0.00891077
0.00890863
0.0089059
0.00890292
0.00889806
0.00889383
0.00888811
0.00888197
0.00887597
0.008868
0.00886187
0.00885313
0.00884557
0.00883662
0.0088276
0.00881881
0.00880827
0.00879935
0.00878764
0.00861608
0.00861992
0.0086237
0.00862751
0.00863076
0.00863519
0.00863812
0.00864307
0.00864695
0.00865246
0.0086592
0.00866568
0.00867519
0.00868456
0.00869561
0.00870782
0.00872112
0.00873565
0.00875102
0.00876656
0.0087837
0.00879948
0.00881674
0.00883234
0.00884731
0.00886125
0.00887367
0.00888493
0.00889384
0.00890183
0.00890787
0.00891227
0.00891546
0.00891703
0.00891758
0.00891693
0.00891558
0.00891324
0.00890973
0.00890579
0.00890123
0.00889523
0.00888978
0.00888226
0.0088757
0.00886746
0.00885922
0.00885053
0.00884112
0.00883137
0.00882028
0.00881065
0.00879866
0.00878763
0.00861877
0.00862346
0.00862824
0.00863261
0.00863719
0.00864153
0.00864573
0.00865029
0.00865482
0.00866023
0.00866614
0.00867277
0.0086816
0.00868991
0.00870066
0.00871178
0.00872404
0.00873791
0.00875216
0.00876779
0.00878298
0.00879999
0.00881587
0.00883163
0.00884694
0.00886138
0.00887386
0.00888565
0.00889576
0.00890432
0.00891092
0.00891643
0.00891976
0.0089223
0.00892355
0.00892346
0.00892244
0.00892052
0.00891714
0.00891371
0.00890841
0.00890376
0.0088969
0.00889023
0.00888282
0.00887425
0.00886562
0.00885614
0.00884557
0.00883527
0.00882386
0.00881233
0.00879916
0.00878675
0.00862204
0.00862784
0.00863388
0.00863857
0.00864445
0.00864784
0.00865466
0.00865652
0.00866353
0.00866834
0.0086734
0.00868095
0.00868733
0.00869652
0.00870544
0.00871632
0.00872762
0.00874027
0.00875402
0.00876832
0.00878382
0.00879926
0.00881549
0.00883096
0.00884637
0.00886078
0.00887431
0.00888644
0.00889724
0.00890651
0.00891395
0.00892008
0.00892475
0.00892769
0.00892968
0.00892991
0.00892935
0.0089277
0.00892532
0.00892135
0.00891705
0.00891128
0.0089053
0.00889803
0.00889019
0.00888182
0.00887202
0.00886191
0.00885174
0.00883955
0.00882753
0.00881406
0.00880114
0.00878601
0.00862594
0.00863333
0.00863744
0.00864794
0.00864655
0.0086597
0.00865801
0.00866985
0.00866826
0.00867794
0.00868125
0.00868826
0.00869537
0.00870285
0.0087115
0.00872068
0.00873148
0.00874309
0.0087555
0.00876948
0.00878371
0.00879903
0.00881484
0.00883045
0.00884584
0.00886067
0.00887452
0.00888742
0.00889884
0.00890897
0.00891726
0.00892394
0.00892935
0.0089329
0.00893543
0.00893651
0.0089363
0.00893514
0.00893299
0.0089296
0.00892511
0.00891971
0.00891324
0.00890644
0.00889815
0.00888887
0.00887975
0.0088687
0.0088573
0.0088447
0.00883176
0.00881715
0.00880235
0.00878642
0.00863053
0.00863631
0.00864738
0.00864756
0.00866251
0.00866043
0.00867341
0.00867115
0.0086819
0.00868453
0.00868996
0.00869835
0.00869841
0.00871272
0.00871157
0.0087292
0.00873283
0.00874608
0.00875747
0.00877049
0.00878414
0.00879899
0.00881416
0.00883
0.00884537
0.00886077
0.00887487
0.00888837
0.00890022
0.00891134
0.00892017
0.00892795
0.00893374
0.0089383
0.00894146
0.00894294
0.00894341
0.00894262
0.00894077
0.00893753
0.00893352
0.00892774
0.00892199
0.00891435
0.00890646
0.00889694
0.00888726
0.00887592
0.00886367
0.0088503
0.00883778
0.00881847
0.00880748
0.0087861
0.00863427
0.00864347
0.00865063
0.00865935
0.00866547
0.00867265
0.00867815
0.00868299
0.00869037
0.00869021
0.00870152
0.00870028
0.00871276
0.00871124
0.00872584
0.00872623
0.00874039
0.00874832
0.00875912
0.00877057
0.00878421
0.00879848
0.00881356
0.00882903
0.00884459
0.00886017
0.00887509
0.00888907
0.00890217
0.00891332
0.00892365
0.00893147
0.00893869
0.00894361
0.00894743
0.0089495
0.0089504
0.00894994
0.00894848
0.00894567
0.0089416
0.00893642
0.00893047
0.00892315
0.00891487
0.00890538
0.00889525
0.00888369
0.00887085
0.00885676
0.00884403
0.00882056
0.00881704
0.0087818
0.00864005
0.0086484
0.00865826
0.00866623
0.00867312
0.00868204
0.00868438
0.0086952
0.00869499
0.00870439
0.00870382
0.00871452
0.00871271
0.00872435
0.00872565
0.00873451
0.00874242
0.00874999
0.00875992
0.00877148
0.00878408
0.00879788
0.00881309
0.00882839
0.00884429
0.00886016
0.00887566
0.00889075
0.00890374
0.00891624
0.0089264
0.00893574
0.00894256
0.00894874
0.00895267
0.00895579
0.00895707
0.008957
0.00895594
0.00895345
0.00894968
0.00894488
0.00893914
0.0089317
0.00892336
0.00891484
0.00890299
0.00889241
0.00887806
0.00886473
0.00885048
0.00883103
0.00882038
0.00876167
0.00864469
0.00865533
0.00866471
0.00867318
0.00868339
0.0086861
0.00869897
0.00869861
0.00870791
0.00870789
0.0087171
0.0087159
0.00872562
0.0087247
0.00873512
0.00873442
0.0087471
0.00875157
0.00876147
0.00877105
0.00878355
0.00879683
0.00881211
0.00882794
0.00884478
0.0088607
0.00887649
0.00889153
0.00890585
0.0089186
0.00892972
0.00893934
0.00894719
0.00895386
0.00895826
0.00896185
0.00896344
0.00896395
0.00896306
0.00896109
0.00895767
0.00895332
0.00894746
0.00894076
0.00893238
0.00892359
0.0089116
0.00890193
0.00888523
0.00887863
0.00885559
0.00883661
0.00879435
0.00869886
0.00865127
0.00866151
0.00867225
0.00868189
0.00868887
0.00870023
0.00869953
0.00871394
0.00871291
0.00872054
0.00872027
0.00872769
0.00872712
0.00873502
0.00873397
0.0087439
0.00874578
0.00875466
0.00876215
0.00877089
0.00878329
0.00879624
0.00881156
0.00882683
0.00884399
0.00886045
0.00887718
0.00889232
0.00890705
0.00892035
0.00893258
0.00894271
0.00895153
0.00895847
0.00896351
0.00896754
0.00896969
0.0089706
0.00896991
0.00896825
0.00896498
0.00896136
0.00895587
0.0089496
0.00894121
0.00893262
0.0089211
0.00891111
0.00889794
0.00888994
0.00884535
0.00881879
0.00859744
0.0084253
0.00865779
0.00866849
0.00867988
0.00868892
0.00869965
0.00870369
0.00871658
0.00871644
0.00872423
0.00872429
0.00873177
0.00873139
0.00873647
0.00873663
0.00874179
0.00874195
0.00874965
0.00875459
0.00876198
0.00877017
0.00878101
0.00879378
0.0088102
0.00882685
0.0088445
0.00886097
0.00887818
0.00889436
0.00891037
0.00892376
0.00893623
0.00894667
0.00895546
0.00896293
0.0089684
0.00897261
0.00897505
0.00897645
0.0089761
0.00897491
0.00897235
0.0089691
0.00896434
0.00895809
0.00895042
0.00894176
0.00893139
0.00892445
0.00890917
0.00888889
0.0087724
0.00859722
0.0079866
0.00693621
0.00866493
0.00867647
0.00868805
0.00869776
0.00870657
0.00871521
0.0087206
0.00872872
0.00872872
0.00873695
0.00873647
0.00873909
0.00873966
0.00874113
0.00874268
0.00874576
0.00874655
0.00875396
0.00876096
0.00877036
0.00878161
0.00879445
0.00880926
0.00882554
0.00884352
0.00886144
0.00887841
0.00889458
0.00891096
0.0089258
0.00893951
0.0089511
0.00896058
0.00896827
0.0089741
0.0089783
0.00898112
0.00898261
0.00898224
0.00898144
0.00897913
0.00897667
0.00897234
0.00896629
0.00895972
0.0089511
0.00894499
0.00893682
0.00890191
0.00881667
0.00842347
0.00765504
0.00616919
0.0051384
0.00867218
0.00868474
0.00869614
0.00870614
0.00871641
0.00872175
0.00873307
0.00873171
0.00874143
0.00874088
0.00874451
0.0087439
0.00874368
0.0087442
0.00874456
0.00874697
0.00874854
0.00875438
0.00876169
0.00876485
0.00877889
0.00879178
0.00880655
0.00882274
0.00884025
0.00885936
0.00887881
0.00889699
0.00891391
0.00892884
0.00894167
0.00895295
0.00896249
0.00897043
0.00897665
0.00898116
0.00898445
0.00898645
0.0089869
0.00898675
0.00898535
0.00898361
0.00897991
0.00897459
0.00896856
0.00896355
0.00895963
0.00893548
0.00882129
0.00838628
0.00727328
0.00553703
0.00485372
0.00456071
0.00867996
0.00869293
0.00870488
0.00871561
0.00872402
0.00873363
0.008736
0.00874681
0.00874637
0.00874847
0.00874826
0.0087484
0.00874786
0.00874687
0.00874648
0.00874677
0.00874853
0.00875184
0.00875197
0.00876366
0.00877615
0.0087907
0.0088064
0.00882451
0.00884185
0.00885987
0.00887847
0.00889669
0.00891409
0.00893027
0.00894504
0.00895724
0.00896672
0.00897449
0.00898046
0.00898516
0.00898867
0.00899084
0.00899187
0.00899211
0.00899139
0.00899003
0.00898681
0.00898258
0.00897891
0.00898012
0.00896333
0.00885969
0.00839314
0.00700315
0.00530353
0.00467664
0.00448547
0.00444773
0.00868907
0.00870285
0.00871388
0.00872414
0.00873263
0.00874174
0.00874575
0.00875404
0.00875366
0.00875426
0.00875282
0.00875203
0.0087502
0.00874822
0.00874636
0.00874518
0.00874634
0.00874577
0.00875486
0.00876407
0.00876427
0.00878743
0.00880313
0.00882124
0.0088428
0.00886458
0.00888245
0.00889948
0.00891638
0.00893241
0.00894665
0.00895931
0.00896939
0.00897764
0.00898364
0.00898808
0.00899136
0.00899401
0.00899519
0.00899604
0.00899676
0.00899576
0.00899343
0.00899136
0.00899552
0.00898695
0.00891309
0.00847398
0.00698777
0.00517044
0.00460217
0.00446946
0.00444253
0.00444108
0.00870006
0.00871243
0.0087249
0.00873428
0.00874313
0.00874915
0.0087585
0.0087596
0.00876133
0.00876097
0.00875942
0.00875635
0.00875167
0.00874976
0.00874339
0.00873974
0.00873068
0.00873053
0.00872881
0.00874478
0.00875907
0.00875815
0.00878947
0.00881296
0.00883811
0.00886258
0.00888752
0.00890677
0.00892097
0.00893538
0.00894921
0.00896168
0.00897158
0.00897927
0.00898511
0.00898955
0.00899317
0.008996
0.00899802
0.00899943
0.00900136
0.00900046
0.00900007
0.00900411
0.00900592
0.00896429
0.00861519
0.0071736
0.00517255
0.00457474
0.00446695
0.00444469
0.00443635
0.00444147
0.00871304
0.00872395
0.008735
0.00874392
0.00875171
0.00875857
0.00876587
0.008766
0.00876693
0.0087661
0.00876178
0.00875923
0.00874463
0.00874777
0.00871849
0.00868886
0.0086585
0.00860936
0.00857526
0.00858655
0.00859722
0.00864323
0.00869228
0.008741
0.00878845
0.00883938
0.00887919
0.00890678
0.00892746
0.00894043
0.00895193
0.00896279
0.00897211
0.00897938
0.00898514
0.00898983
0.00899376
0.0089974
0.009
0.00900261
0.0090046
0.00900535
0.0090085
0.00901884
0.00900027
0.00876668
0.00753951
0.00528442
0.00458806
0.00447487
0.00445276
0.00444039
0.00443417
0.00442992
0.00873067
0.00874166
0.00875004
0.0087578
0.0087628
0.00877138
0.00877256
0.00877431
0.00877197
0.00877101
0.00875594
0.00873908
0.00872427
0.008661
0.00860779
0.00828825
0.00826401
0.00790477
0.00756791
0.00756186
0.00756077
0.00780445
0.00812946
0.00841108
0.00864058
0.00876626
0.00884041
0.00889355
0.00892494
0.00894337
0.00895539
0.00896456
0.00897241
0.00897898
0.0089845
0.0089893
0.00899379
0.00899786
0.00900177
0.00900453
0.00900742
0.00901042
0.00902371
0.00902061
0.00888698
0.00794068
0.0055779
0.00463811
0.00448669
0.00446188
0.00445032
0.00443951
0.00442572
0.0044139
0.00873919
0.00875237
0.00876188
0.00876928
0.0087745
0.00878194
0.0087819
0.00878001
0.00877682
0.00876303
0.00872368
0.00869333
0.00847403
0.00833938
0.00762659
0.00681984
0.00610638
0.00559642
0.00524575
0.00524076
0.00524008
0.00555998
0.005795
0.00699108
0.00799176
0.00851771
0.00877182
0.00887219
0.00891775
0.0089414
0.00895495
0.00896415
0.00897137
0.00897736
0.00898275
0.00898786
0.00899268
0.00899757
0.00900132
0.00900563
0.00900935
0.00902201
0.00902961
0.00896096
0.00829536
0.00608775
0.00474181
0.0045039
0.00447156
0.00445949
0.00444982
0.00443539
0.00442154
0.00440752
0.0087516
0.00876642
0.00877559
0.00878185
0.00878732
0.00879041
0.00878797
0.00877929
0.0087734
0.00866392
0.00864289
0.00806541
0.00740407
0.00608674
0.00531165
0.00488717
0.00466307
0.00454857
0.0044934
0.00450601
0.00451895
0.00467591
0.00473296
0.00534621
0.00631537
0.00771084
0.0084877
0.00879652
0.00890034
0.00893639
0.00895268
0.00896173
0.00896836
0.00897388
0.008979
0.00898496
0.00899028
0.00899607
0.00900131
0.00900595
0.0090156
0.00903216
0.0089925
0.0085549
0.00673291
0.00492724
0.0045319
0.00448049
0.00446616
0.00445938
0.0044464
0.00443333
0.00441988
0.00440513
0.00875924
0.00877824
0.00878762
0.00879364
0.00879754
0.00879571
0.00879267
0.0087412
0.00872604
0.00824543
0.00741863
0.00592244
0.00507888
0.00468973
0.00451899
0.00445402
0.00443075
0.00442829
0.00443745
0.00445953
0.00449163
0.00456007
0.00458962
0.00485837
0.0052647
0.00682487
0.00809686
0.00867759
0.00887027
0.00892829
0.0089477
0.00895672
0.00896279
0.00896788
0.00897421
0.0089812
0.00898759
0.0089939
0.00899955
0.0090084
0.00902798
0.00900716
0.00869614
0.00730864
0.00521181
0.00457888
0.00448895
0.00447205
0.00446529
0.00445445
0.00444175
0.00442916
0.00441454
0.00439921
0.008762
0.00878467
0.00879525
0.00880122
0.00880055
0.00879921
0.0087232
0.00861323
0.00781985
0.00620909
0.00509174
0.00464495
0.00448085
0.00442818
0.004422
0.00443207
0.00444497
0.00451136
0.00463272
0.00473929
0.00473116
0.00467422
0.00466605
0.00473768
0.00504534
0.00610582
0.00767935
0.00854071
0.00883947
0.0089195
0.00894127
0.00894891
0.00895443
0.00896047
0.0089682
0.00897623
0.0089837
0.00899057
0.00899934
0.00901831
0.00901385
0.00875118
0.00756865
0.00545967
0.00463762
0.00449754
0.00447611
0.00446838
0.00446034
0.0044484
0.00443672
0.00442444
0.00440995
0.00439567
0.00877109
0.00879213
0.0088042
0.00880589
0.00880199
0.00873398
0.00837874
0.00691585
0.00532452
0.00468744
0.0044797
0.00442409
0.00441702
0.00442626
0.00447532
0.00456054
0.00468818
0.00487417
0.00529875
0.00544541
0.00538319
0.00510117
0.00480812
0.00480753
0.00507555
0.00616961
0.00775615
0.00857201
0.00884779
0.00891276
0.00893029
0.00893831
0.00894455
0.00895273
0.00896297
0.00897154
0.00897859
0.00898882
0.00900804
0.00900496
0.00873885
0.00736517
0.00524357
0.00459897
0.0044961
0.00447759
0.00446956
0.00446362
0.00445326
0.00444265
0.0044313
0.0044197
0.00440644
0.00439247
0.00878834
0.00880347
0.00880836
0.00880524
0.00867129
0.00792729
0.00577275
0.00474254
0.00447568
0.00442073
0.00441457
0.00442379
0.00445545
0.00453307
0.00468506
0.0049956
0.00536561
0.00611224
0.00667162
0.00670249
0.00658274
0.0059777
0.00513687
0.00490001
0.0051224
0.00628279
0.00788595
0.00865652
0.00886586
0.00890952
0.00891953
0.00892574
0.00893387
0.00894548
0.00895547
0.00896345
0.0089768
0.00899013
0.0089521
0.00853195
0.00695698
0.00514422
0.00461033
0.0044988
0.00447731
0.00446868
0.00446455
0.00445616
0.00444738
0.00443714
0.00442656
0.00441478
0.00440185
0.00438883
0.00880517
0.00880863
0.00876999
0.00812981
0.00578161
0.0047011
0.00446284
0.00441974
0.00441561
0.00442138
0.00444347
0.00449607
0.00460912
0.00483865
0.00527841
0.00621109
0.00717825
0.00762089
0.00770658
0.0075794
0.00694115
0.00586227
0.00513295
0.00505186
0.00554306
0.00701684
0.008342
0.00877331
0.00887141
0.00889704
0.00890412
0.00891251
0.00892456
0.00893517
0.00894737
0.00896039
0.00896467
0.00888679
0.00838324
0.00676881
0.00512274
0.00462203
0.00450448
0.00447576
0.00446871
0.00446332
0.00445803
0.00444963
0.00444089
0.00443087
0.00442053
0.00440915
0.00439701
0.00438486
0.00843194
0.0078121
0.00628655
0.00492864
0.00450792
0.00442902
0.00441869
0.00442145
0.00443384
0.00446402
0.00453164
0.00467916
0.00499018
0.00561326
0.00696372
0.00783957
0.00797262
0.00797801
0.0077077
0.00720012
0.00629262
0.00543703
0.00512459
0.00525838
0.00629333
0.00798559
0.00863284
0.00882428
0.00887233
0.0088785
0.00888862
0.00889982
0.0089129
0.00892934
0.0089361
0.00893065
0.00879635
0.00817868
0.00644574
0.00507521
0.00461542
0.00451078
0.00447194
0.00446632
0.00445936
0.00445695
0.00444917
0.00444292
0.00443397
0.00442508
0.00441485
0.00440477
0.00439356
0.00438201
0.00571878
0.00510658
0.00464542
0.00445764
0.00442622
0.00442358
0.00443003
0.00444684
0.0044837
0.00456494
0.00474288
0.00511699
0.00586307
0.00740249
0.00814238
0.00821678
0.00794073
0.0071571
0.0065138
0.00604291
0.00561594
0.00541786
0.00542508
0.0061784
0.00766217
0.00853356
0.00874861
0.00883622
0.00885378
0.008862
0.00887261
0.00888945
0.0089062
0.00890879
0.00887772
0.00866782
0.00792366
0.00604109
0.00501092
0.00459447
0.0045117
0.00446721
0.00446097
0.00445472
0.00445281
0.00444602
0.00444133
0.00443351
0.0044265
0.00441785
0.00440901
0.00439933
0.00438895
0.00437845
0.00461681
0.00449792
0.00444345
0.00443164
0.00443385
0.00444039
0.00446046
0.0045029
0.00459695
0.00479737
0.00520414
0.00600522
0.00746517
0.00829872
0.00834818
0.00793722
0.00713233
0.00644197
0.00611151
0.00585159
0.00572476
0.00576975
0.00650436
0.00770883
0.00846656
0.00868071
0.0088015
0.0088233
0.00883258
0.00884188
0.00886387
0.00887777
0.00887283
0.00881109
0.00852514
0.00766946
0.00562637
0.00494538
0.00457066
0.00450274
0.00446195
0.0044544
0.00444847
0.00444711
0.00444058
0.0044375
0.00443057
0.00442473
0.00441739
0.00440974
0.00440155
0.00439309
0.00438411
0.00437458
0.00445134
0.00444063
0.00443902
0.00444326
0.00445329
0.00447552
0.00452468
0.00462872
0.00483902
0.00524367
0.0060013
0.00735915
0.00832513
0.00847661
0.00825787
0.00770523
0.00707694
0.00657107
0.00636628
0.00626413
0.00647564
0.00716558
0.00790914
0.00849845
0.0086566
0.00876864
0.00878945
0.00880823
0.00881237
0.00883979
0.00885034
0.00883777
0.00876585
0.00839446
0.00719084
0.00535689
0.00486311
0.00454786
0.00449031
0.00445474
0.00444736
0.00444091
0.00443998
0.00443402
0.00443249
0.00442618
0.00442167
0.00441579
0.00440945
0.00440238
0.00439473
0.00438694
0.00437892
0.00437074
0.00444563
0.00444851
0.00445458
0.00446666
0.00449302
0.00454696
0.00465824
0.00486919
0.00524993
0.00591587
0.00705304
0.00823606
0.00856001
0.00853872
0.00833045
0.00797011
0.00763205
0.00744724
0.00738268
0.00748559
0.00790277
0.00827614
0.00848558
0.00870806
0.00872438
0.00875865
0.00878177
0.00877981
0.00881281
0.00880698
0.00878741
0.00866545
0.00812671
0.00681339
0.00539954
0.00467901
0.00456369
0.00446678
0.00445288
0.0044376
0.00443497
0.00443006
0.0044287
0.00442404
0.00442107
0.00441576
0.00441146
0.00440612
0.00440059
0.00439443
0.00438782
0.00438084
0.0043737
0.00436655
0.00445816
0.00446685
0.00448126
0.00451111
0.00456874
0.00468481
0.00489231
0.00524505
0.00581635
0.00671016
0.00795153
0.00856769
0.00865736
0.00863478
0.00851111
0.00837159
0.0082774
0.0082423
0.00823531
0.00835168
0.00849262
0.00863982
0.00864632
0.0087317
0.00873212
0.00875768
0.0087578
0.00878531
0.00878324
0.00876897
0.00858728
0.00801848
0.00663663
0.00510203
0.00474449
0.00450177
0.00447479
0.00443778
0.00443385
0.00442424
0.00442345
0.00441856
0.00441759
0.00441298
0.00440974
0.00440531
0.00440101
0.00439624
0.00439124
0.00438592
0.00438029
0.00437429
0.00436807
0.00436164
0.00447784
0.00449502
0.00452671
0.00458829
0.00470582
0.0049101
0.00524064
0.00574232
0.0064707
0.00748949
0.00841201
0.00869029
0.00873082
0.00870755
0.00865756
0.00861559
0.00858504
0.0085815
0.00859338
0.00863282
0.00866725
0.00868745
0.00870821
0.00872523
0.00873119
0.00874357
0.00875069
0.0087399
0.00868744
0.0084963
0.0079464
0.00655078
0.00504169
0.00472288
0.00449005
0.00445566
0.00442844
0.00442317
0.00441507
0.00441402
0.00440963
0.00440878
0.00440523
0.00440225
0.00439872
0.00439498
0.00439101
0.00438689
0.00438268
0.00437822
0.00437349
0.00436829
0.00436283
0.00435722
0.00450437
0.00453831
0.00459937
0.00471464
0.00491405
0.00522905
0.00569212
0.00632438
0.00713954
0.0081066
0.00860863
0.0087616
0.00876297
0.00876542
0.00873705
0.00871781
0.00870028
0.00869852
0.00869649
0.00869973
0.00870275
0.00870894
0.00871191
0.00872478
0.0087233
0.00873139
0.00871534
0.0087036
0.00850299
0.00791267
0.00662972
0.00507032
0.00473887
0.00447816
0.00444496
0.00441806
0.0044137
0.00440557
0.00440456
0.00440037
0.00439952
0.00439679
0.0043943
0.00439118
0.00438813
0.00438473
0.00438122
0.00437761
0.00437396
0.00437026
0.00436641
0.00436196
0.00435773
0.00435293
0.00453966
0.00459781
0.00470306
0.00488785
0.00518367
0.00562068
0.00620513
0.00691803
0.00772327
0.00842768
0.00875494
0.00876661
0.00879374
0.00878306
0.00877128
0.00875288
0.00873317
0.00873355
0.00871715
0.00871653
0.00871314
0.00871268
0.00871367
0.00871394
0.00871326
0.00869532
0.00865134
0.00841094
0.00788119
0.0067713
0.00527918
0.00478544
0.0044746
0.00444015
0.00440978
0.00440539
0.00439648
0.00439565
0.00439099
0.00439013
0.00438834
0.00438562
0.00438323
0.00438022
0.00437742
0.0043744
0.00437117
0.00436801
0.00436488
0.00436187
0.00435823
0.00435465
0.00435096
0.00434708
0.00458129
0.00467109
0.00482695
0.00508676
0.00548973
0.00605268
0.00675183
0.00750817
0.0082302
0.0086369
0.00878416
0.00878993
0.00880528
0.00879621
0.00878361
0.00876158
0.00874952
0.00873933
0.00872459
0.00872577
0.00871512
0.00871304
0.0087071
0.00870072
0.0086785
0.00861186
0.0084026
0.00792032
0.00695575
0.00564029
0.00491859
0.00449434
0.00445155
0.00440396
0.00439937
0.00438791
0.00438724
0.00438219
0.00438136
0.00437937
0.00437733
0.00437458
0.0043724
0.00436985
0.00436736
0.0043646
0.00436197
0.00435932
0.00435698
0.00435429
0.00435157
0.00434886
0.00434545
0.00434201
0.00461988
0.00473523
0.00493665
0.005265
0.00576418
0.00643923
0.00723524
0.00799343
0.00860881
0.00871242
0.00881553
0.00880558
0.00881197
0.00880447
0.00879189
0.00876617
0.00875802
0.00873985
0.00873802
0.00872507
0.0087193
0.00871217
0.00870273
0.00868289
0.00862095
0.00844535
0.00804833
0.00729979
0.00609616
0.005069
0.00452098
0.00446237
0.00439724
0.0043949
0.00438054
0.00437971
0.0043741
0.00437319
0.0043707
0.00436913
0.00436644
0.00436467
0.00436227
0.00436009
0.00435763
0.00435531
0.00435292
0.00435071
0.00434862
0.00434633
0.00434411
0.0043418
0.004339
0.00433676
0.00463762
0.00476188
0.00498561
0.00535201
0.00591703
0.00669337
0.00761642
0.00838137
0.00871566
0.00878007
0.00879561
0.00881562
0.00882063
0.00881431
0.00879377
0.00878001
0.00875413
0.00875915
0.0087316
0.00873204
0.00871676
0.00870077
0.0086693
0.0086033
0.00845555
0.00815485
0.00756012
0.00651905
0.00497033
0.00472962
0.00443953
0.00443582
0.00438338
0.00438038
0.00437012
0.00436891
0.00436502
0.00436363
0.00436131
0.0043596
0.00435718
0.00435507
0.00435277
0.00435071
0.0043486
0.00434653
0.00434454
0.00434299
0.0043413
0.00433975
0.00433806
0.00433622
0.00433427
0.00433232
0.00464155
0.00476457
0.00499209
0.00537124
0.00596212
0.00678845
0.00778358
0.00850051
0.00875692
0.00875009
0.00881328
0.00882046
0.00882773
0.0088191
0.00880514
0.00877591
0.00877518
0.00874573
0.00874571
0.00872388
0.00870703
0.0086755
0.00861319
0.00847875
0.00819131
0.00762362
0.00659789
0.00517024
0.00479439
0.00448595
0.00444865
0.00438387
0.00437495
0.00436428
0.00436406
0.0043582
0.00435776
0.00435494
0.00435306
0.0043506
0.00434846
0.00434625
0.00434412
0.00434218
0.00434004
0.0043385
0.00433692
0.00433572
0.00433439
0.00433335
0.00433206
0.00433075
0.00432931
0.00432757
0.0046306
0.00472929
0.00491879
0.00524709
0.00577587
0.00656373
0.00758347
0.00839235
0.00875826
0.00872804
0.00879756
0.0088183
0.00882956
0.00881538
0.00880611
0.00878049
0.00876691
0.00874612
0.00872241
0.0086902
0.00863574
0.00854124
0.00836494
0.00803658
0.00742272
0.0063261
0.00522858
0.00479902
0.00450126
0.00444999
0.00438065
0.0043802
0.00435993
0.00435924
0.00435403
0.00435261
0.00435053
0.00434799
0.00434532
0.00434337
0.00434083
0.00433889
0.00433651
0.00433445
0.00433238
0.00433084
0.00432976
0.004329
0.00432829
0.0043279
0.00432722
0.00432654
0.00432609
0.00432489
0.00459994
0.00466573
0.00479217
0.00503616
0.00544175
0.00608201
0.00697089
0.00800322
0.00859815
0.00875334
0.00874142
0.00877907
0.00880986
0.00880312
0.00877644
0.00875597
0.00872191
0.00867727
0.00862127
0.00852537
0.00838243
0.00812629
0.00766524
0.0068289
0.00591489
0.00521806
0.00463952
0.00458417
0.00442688
0.00442285
0.00437148
0.00436462
0.00435644
0.00435193
0.00434957
0.0043474
0.00434495
0.00434188
0.00433973
0.00433682
0.00433432
0.00433185
0.00432946
0.00432718
0.00432546
0.00432425
0.00432359
0.00432336
0.0043234
0.00432366
0.00432379
0.0043238
0.00432378
0.00432374
0.00457658
0.00461386
0.0046741
0.00480745
0.00505515
0.00547181
0.00612097
0.00699573
0.00793892
0.00852823
0.00862723
0.00862192
0.00866233
0.00867627
0.00865047
0.00858822
0.00848701
0.00835763
0.00813629
0.00780402
0.00725288
0.00662769
0.00600526
0.00541657
0.00500467
0.0046702
0.00453759
0.00442104
0.00442116
0.00437075
0.00436539
0.0043534
0.00435342
0.00434678
0.00434624
0.00434284
0.00433987
0.00433709
0.00433437
0.0043316
0.00432907
0.00432648
0.00432393
0.00432163
0.00431983
0.0043187
0.00431834
0.00431835
0.00431926
0.00432005
0.00432069
0.0043224
0.00432395
0.00432574
0.00456325
0.00457802
0.00460517
0.00465077
0.00475099
0.00493306
0.00523952
0.00571685
0.00636454
0.00711226
0.00766736
0.00803791
0.00797617
0.00804264
0.00796369
0.00775221
0.00735524
0.00691739
0.00646388
0.00600529
0.00564917
0.00530555
0.00498992
0.00479333
0.00460825
0.00446285
0.00445999
0.00439197
0.00438868
0.00436128
0.00436009
0.00435096
0.00435068
0.0043455
0.00434425
0.00434077
0.00433765
0.00433491
0.00433176
0.00432889
0.00432532
0.00432223
0.00431892
0.00431651
0.0043149
0.00431432
0.00431444
0.00431545
0.00431622
0.00431855
0.00432137
0.00432416
0.00432802
0.00433502
0.00455497
0.00455973
0.00456635
0.00458192
0.00460659
0.00466641
0.00476993
0.00493521
0.00517063
0.00546625
0.00577595
0.00597241
0.006115
0.00610876
0.00607349
0.0058516
0.00558005
0.00534836
0.005181
0.00500454
0.00486092
0.00471956
0.00462633
0.00448553
0.00448459
0.00441377
0.00441164
0.0043754
0.00437447
0.00435874
0.00435872
0.00435126
0.00435049
0.00434617
0.00434386
0.00433964
0.00433625
0.00433292
0.00432938
0.00432565
0.00432208
0.00431889
0.00431534
0.00431307
0.00431182
0.00431159
0.00431226
0.00431266
0.00431685
0.00432111
0.00432638
0.0043333
0.00433919
0.0043461
0.00455186
0.00454989
0.00454604
0.00454479
0.00454629
0.00455377
0.00457348
0.00461293
0.00467146
0.00475113
0.00484375
0.00491421
0.00497185
0.00496671
0.00496725
0.004892
0.00479314
0.00471598
0.00467163
0.0046067
0.00456845
0.0044845
0.00448463
0.00442517
0.00442414
0.0043892
0.00438897
0.00436994
0.0043696
0.00435954
0.00435885
0.00435358
0.00435132
0.00434794
0.00434464
0.0043406
0.00433712
0.0043335
0.00432976
0.00432593
0.00432211
0.00431791
0.00431439
0.00431297
0.00431195
0.0043116
0.00431147