/*--------------------------------*- C++ -*----------------------------------*\
  =========                 |
  \\      /  F ield         | OpenFOAM: The Open Source CFD Toolbox
   \\    /   O peration     | Website:  https://openfoam.org
    \\  /    A nd           | Version:  10
     \\/     M anipulation  |
\*---------------------------------------------------------------------------*/
FoamFile
{
    format      ascii;
    class       volVectorField;
    location    "0.449345";
    object      U;
}
// * * * * * * * * * * * * * * * * * * * * * * * * * * * * * * * * * * * * * //

dimensions      [0 1 -1 0 0 0 0];

internalField   nonuniform List<vector> 
15984
(
(0.640788 -0.0228226 0)
(0.639873 -0.0253892 0)
(0.638533 -0.0281473 0)
(0.636704 -0.0310049 0)
(0.634301 -0.0338713 0)
(0.631233 -0.036658 0)
(0.627381 -0.0393445 0)
(0.622705 -0.0417571 0)
(0.617088 -0.0439497 0)
(0.610408 -0.0457571 0)
(0.602666 -0.0471809 0)
(0.593825 -0.0481493 0)
(0.583859 -0.0486604 0)
(0.572847 -0.0486741 0)
(0.560874 -0.0482275 0)
(0.548034 -0.0473169 0)
(0.534525 -0.046003 0)
(0.520552 -0.044336 0)
(0.506333 -0.0423953 0)
(0.492102 -0.040265 0)
(0.478099 -0.0380342 0)
(0.464525 -0.0357907 0)
(0.451565 -0.033623 0)
(0.439355 -0.0316066 0)
(0.428007 -0.0298081 0)
(0.417589 -0.0282828 0)
(0.408135 -0.0270724 0)
(0.399652 -0.0262076 0)
(0.392122 -0.0257074 0)
(0.385513 -0.0255814 0)
(0.379779 -0.0258258 0)
(0.374845 -0.0264244 0)
(0.370658 -0.027352 0)
(0.367199 -0.0286064 0)
(0.364427 -0.030146 0)
(0.362301 -0.0319444 0)
(0.360756 -0.0339515 0)
(0.359754 -0.036114 0)
(0.35926 -0.0383854 0)
(0.359247 -0.0407072 0)
(0.359697 -0.0430207 0)
(0.360585 -0.0452584 0)
(0.361898 -0.0473511 0)
(0.363622 -0.0492226 0)
(0.365742 -0.0507902 0)
(0.368248 -0.0519719 0)
(0.371123 -0.0526816 0)
(0.374354 -0.0528326 0)
(0.377924 -0.0523374 0)
(0.381814 -0.051114 0)
(0.385998 -0.0490854 0)
(0.390451 -0.0461835 0)
(0.395137 -0.0423513 0)
(0.400016 -0.0375466 0)
(0.638322 -0.0186869 0)
(0.637188 -0.0211027 0)
(0.635701 -0.0237623 0)
(0.633787 -0.0265678 0)
(0.631383 -0.0294278 0)
(0.628362 -0.0322948 0)
(0.62467 -0.0350922 0)
(0.6202 -0.0376845 0)
(0.614849 -0.0401018 0)
(0.608536 -0.0421791 0)
(0.601186 -0.0439063 0)
(0.592781 -0.0451997 0)
(0.58329 -0.0460453 0)
(0.572751 -0.0463861 0)
(0.561237 -0.0462555 0)
(0.548846 -0.0456335 0)
(0.535723 -0.0445698 0)
(0.522078 -0.043109 0)
(0.508107 -0.0413268 0)
(0.494037 -0.0393037 0)
(0.480097 -0.0371355 0)
(0.466501 -0.0349212 0)
(0.453433 -0.0327556 0)
(0.441041 -0.0307277 0)
(0.429448 -0.0289151 0)
(0.418733 -0.027385 0)
(0.408946 -0.0261894 0)
(0.400101 -0.0253687 0)
(0.392195 -0.0249483 0)
(0.385205 -0.0249423 0)
(0.379097 -0.0253514 0)
(0.373811 -0.0261675 0)
(0.369284 -0.0273493 0)
(0.365503 -0.0289008 0)
(0.362442 -0.030785 0)
(0.360064 -0.0329614 0)
(0.35832 -0.0353915 0)
(0.357165 -0.0380065 0)
(0.356579 -0.0407663 0)
(0.356537 -0.0435981 0)
(0.357024 -0.0464437 0)
(0.358027 -0.0492298 0)
(0.359535 -0.0518799 0)
(0.361538 -0.0543105 0)
(0.364029 -0.0564348 0)
(0.366994 -0.0581611 0)
(0.37042 -0.0593962 0)
(0.374293 -0.0600429 0)
(0.378593 -0.0600044 0)
(0.383294 -0.0591886 0)
(0.388365 -0.0575075 0)
(0.393768 -0.0548817 0)
(0.399453 -0.051247 0)
(0.405368 -0.0465503 0)
(0.636019 -0.014616 0)
(0.634617 -0.0168923 0)
(0.632923 -0.0194975 0)
(0.630889 -0.0222915 0)
(0.628416 -0.0252018 0)
(0.625399 -0.0281599 0)
(0.621809 -0.0310595 0)
(0.617498 -0.0338841 0)
(0.612381 -0.0364928 0)
(0.606378 -0.0388595 0)
(0.599405 -0.0408597 0)
(0.591434 -0.0424754 0)
(0.582407 -0.0436209 0)
(0.572359 -0.0442844 0)
(0.561334 -0.0444282 0)
(0.549414 -0.044074 0)
(0.536726 -0.0432344 0)
(0.523455 -0.0419543 0)
(0.50978 -0.0403073 0)
(0.495917 -0.0383746 0)
(0.482087 -0.0362548 0)
(0.468501 -0.0340539 0)
(0.455344 -0.0318758 0)
(0.442782 -0.0298206 0)
(0.430936 -0.0279793 0)
(0.419911 -0.0264306 0)
(0.409762 -0.0252388 0)
(0.400524 -0.0244524 0)
(0.392202 -0.0241045 0)
(0.384788 -0.0242137 0)
(0.378256 -0.0247852 0)
(0.372569 -0.0258115 0)
(0.36766 -0.0272661 0)
(0.363505 -0.029107 0)
(0.360109 -0.0313471 0)
(0.357433 -0.0339216 0)
(0.355444 -0.0367896 0)
(0.354106 -0.039889 0)
(0.353395 -0.0431607 0)
(0.3533 -0.0465409 0)
(0.353808 -0.0499571 0)
(0.354912 -0.0533337 0)
(0.356609 -0.0565877 0)
(0.358894 -0.0596302 0)
(0.361761 -0.0623663 0)
(0.3652 -0.0646974 0)
(0.369201 -0.0665191 0)
(0.373751 -0.0677238 0)
(0.378825 -0.068204 0)
(0.384394 -0.0678555 0)
(0.390421 -0.0665761 0)
(0.396853 -0.0642762 0)
(0.403628 -0.0608728 0)
(0.410677 -0.0563067 0)
(0.633863 -0.0106224 0)
(0.632135 -0.0128202 0)
(0.630169 -0.0153765 0)
(0.627943 -0.0181862 0)
(0.625366 -0.0211773 0)
(0.622345 -0.0242427 0)
(0.618773 -0.0273069 0)
(0.614583 -0.0303186 0)
(0.609678 -0.0331539 0)
(0.603963 -0.0357726 0)
(0.597353 -0.0380461 0)
(0.589793 -0.0399476 0)
(0.581246 -0.0413862 0)
(0.571699 -0.0423228 0)
(0.561192 -0.0427305 0)
(0.549774 -0.0426084 0)
(0.537565 -0.0419592 0)
(0.524714 -0.0408369 0)
(0.511381 -0.0392984 0)
(0.497771 -0.0374332 0)
(0.484088 -0.0353406 0)
(0.47054 -0.033132 0)
(0.45732 -0.0309249 0)
(0.444589 -0.0288276 0)
(0.432493 -0.0269449 0)
(0.421138 -0.0253667 0)
(0.410604 -0.024169 0)
(0.400936 -0.0234085 0)
(0.392157 -0.0231261 0)
(0.384268 -0.0233466 0)
(0.37726 -0.0240791 0)
(0.371103 -0.0253188 0)
(0.365768 -0.0270465 0)
(0.3612 -0.0292107 0)
(0.357402 -0.0318049 0)
(0.354388 -0.0347969 0)
(0.352112 -0.0381263 0)
(0.350548 -0.0417336 0)
(0.349681 -0.0455502 0)
(0.349502 -0.0495095 0)
(0.350007 -0.0535342 0)
(0.351195 -0.0575465 0)
(0.353068 -0.061453 0)
(0.355628 -0.0651623 0)
(0.358872 -0.06857 0)
(0.362796 -0.0715694 0)
(0.367395 -0.0740447 0)
(0.372652 -0.0758773 0)
(0.378545 -0.076949 0)
(0.385041 -0.0771374 0)
(0.392095 -0.076328 0)
(0.399644 -0.0744109 0)
(0.407615 -0.071291 0)
(0.415911 -0.0668864 0)
(0.631769 -0.00669453 0)
(0.629696 -0.0088621 0)
(0.627431 -0.0114193 0)
(0.624956 -0.0142692 0)
(0.622218 -0.0173339 0)
(0.619118 -0.0205475 0)
(0.615573 -0.0237968 0)
(0.611482 -0.0269961 0)
(0.606751 -0.0300732 0)
(0.601302 -0.0329177 0)
(0.595041 -0.035472 0)
(0.5879 -0.0376152 0)
(0.579833 -0.0393252 0)
(0.570811 -0.040498 0)
(0.560839 -0.0411393 0)
(0.549969 -0.0412047 0)
(0.538277 -0.0407129 0)
(0.525886 -0.0397091 0)
(0.512944 -0.0382492 0)
(0.499629 -0.0364197 0)
(0.48613 -0.0343284 0)
(0.472651 -0.0320923 0)
(0.459381 -0.0298346 0)
(0.446493 -0.0276798 0)
(0.434138 -0.0257417 0)
(0.422438 -0.0241218 0)
(0.411488 -0.0229066 0)
(0.401351 -0.0221643 0)
(0.392064 -0.0219425 0)
(0.383649 -0.0222716 0)
(0.376106 -0.0231652 0)
(0.369427 -0.0246215 0)
(0.363592 -0.0266196 0)
(0.358564 -0.0291302 0)
(0.354329 -0.0320987 0)
(0.350907 -0.0355179 0)
(0.348293 -0.0393358 0)
(0.346461 -0.0434739 0)
(0.345397 -0.0478697 0)
(0.345101 -0.0524459 0)
(0.345572 -0.0571231 0)
(0.346819 -0.061817 0)
(0.348849 -0.0664321 0)
(0.351672 -0.0708684 0)
(0.355289 -0.0750136 0)
(0.359703 -0.0787518 0)
(0.364914 -0.0819589 0)
(0.370906 -0.0845022 0)
(0.377661 -0.0862504 0)
(0.385144 -0.0870629 0)
(0.393303 -0.0868054 0)
(0.402066 -0.0853469 0)
(0.411348 -0.0825722 0)
(0.42103 -0.0783765 0)
(0.62972 -0.00284591 0)
(0.627252 -0.00501248 0)
(0.624647 -0.00761962 0)
(0.621909 -0.0105498 0)
(0.61896 -0.0137265 0)
(0.615747 -0.0170786 0)
(0.612184 -0.0205117 0)
(0.608161 -0.0239315 0)
(0.603609 -0.0272308 0)
(0.598415 -0.030323 0)
(0.592505 -0.0331046 0)
(0.58579 -0.035502 0)
(0.578214 -0.0374164 0)
(0.569735 -0.0388127 0)
(0.560335 -0.0396242 0)
(0.550048 -0.0398444 0)
(0.538906 -0.0394711 0)
(0.527017 -0.0385415 0)
(0.514504 -0.0371212 0)
(0.501517 -0.0352938 0)
(0.488238 -0.0331709 0)
(0.474853 -0.0308786 0)
(0.461551 -0.0285489 0)
(0.448508 -0.0263153 0)
(0.435884 -0.0243037 0)
(0.423816 -0.022627 0)
(0.412416 -0.0213831 0)
(0.401765 -0.0206494 0)
(0.391922 -0.0204829 0)
(0.382923 -0.0209199 0)
(0.374788 -0.0219779 0)
(0.367522 -0.0236572 0)
(0.361123 -0.0259405 0)
(0.355572 -0.0287991 0)
(0.350848 -0.0321746 0)
(0.34697 -0.036047 0)
(0.343962 -0.0403654 0)
(0.341812 -0.0450686 0)
(0.340505 -0.0500753 0)
(0.340051 -0.0553073 0)
(0.340453 -0.0606817 0)
(0.341725 -0.0661086 0)
(0.343886 -0.0714892 0)
(0.34695 -0.0767155 0)
(0.350928 -0.0816705 0)
(0.35583 -0.0862283 0)
(0.361659 -0.0902552 0)
(0.36841 -0.0936066 0)
(0.376067 -0.0961302 0)
(0.384595 -0.0976696 0)
(0.393942 -0.0980666 0)
(0.404028 -0.0971645 0)
(0.414753 -0.0948171 0)
(0.425974 -0.0908991 0)
(0.627672 0.000963792 0)
(0.624772 -0.00124795 0)
(0.621792 -0.00394548 0)
(0.618744 -0.00700299 0)
(0.615581 -0.010343 0)
(0.612222 -0.013865 0)
(0.608608 -0.0174954 0)
(0.604653 -0.0211262 0)
(0.600251 -0.0246466 0)
(0.595325 -0.0279731 0)
(0.589763 -0.0309715 0)
(0.583493 -0.0335821 0)
(0.576432 -0.035689 0)
(0.568517 -0.0372509 0)
(0.559725 -0.0381942 0)
(0.55004 -0.0385175 0)
(0.539494 -0.0382094 0)
(0.528148 -0.0373081 0)
(0.516101 -0.0358767 0)
(0.503485 -0.0340081 0)
(0.490452 -0.0318141 0)
(0.477182 -0.029429 0)
(0.463855 -0.0269947 0)
(0.450654 -0.0246546 0)
(0.437748 -0.0225469 0)
(0.425286 -0.0207966 0)
(0.413398 -0.0195119 0)
(0.402185 -0.0187805 0)
(0.39173 -0.018667 0)
(0.382087 -0.0192137 0)
(0.373295 -0.0204416 0)
(0.365377 -0.0223527 0)
(0.358345 -0.0249333 0)
(0.352204 -0.0281532 0)
(0.346934 -0.0319627 0)
(0.342548 -0.0363074 0)
(0.339087 -0.0411604 0)
(0.336556 -0.0464532 0)
(0.33496 -0.0521105 0)
(0.3343 -0.0580401 0)
(0.334589 -0.0641592 0)
(0.335849 -0.0703727 0)
(0.338105 -0.0765801 0)
(0.341382 -0.082667 0)
(0.345698 -0.0885114 0)
(0.351074 -0.0939815 0)
(0.35752 -0.0989287 0)
(0.365045 -0.103197 0)
(0.373638 -0.106616 0)
(0.38327 -0.109008 0)
(0.393891 -0.110186 0)
(0.405417 -0.109962 0)
(0.41773 -0.108155 0)
(0.430672 -0.104598 0)
(0.625618 0.00469363 0)
(0.622225 0.00240775 0)
(0.618828 -0.000405142 0)
(0.615441 -0.00361637 0)
(0.612022 -0.00713751 0)
(0.608516 -0.0108798 0)
(0.604846 -0.0147243 0)
(0.600939 -0.018586 0)
(0.5967 -0.0223393 0)
(0.592038 -0.0258767 0)
(0.586853 -0.0290906 0)
(0.581039 -0.031871 0)
(0.574518 -0.0341427 0)
(0.567207 -0.035814 0)
(0.559048 -0.0368503 0)
(0.550013 -0.0372141 0)
(0.540096 -0.0369143 0)
(0.529332 -0.0359828 0)
(0.517787 -0.0344851 0)
(0.505567 -0.0325186 0)
(0.492804 -0.0302046 0)
(0.479662 -0.0276816 0)
(0.466316 -0.0251034 0)
(0.452949 -0.0226243 0)
(0.439738 -0.0203937 0)
(0.426849 -0.0185489 0)
(0.41443 -0.0172089 0)
(0.402606 -0.0164717 0)
(0.39148 -0.0164083 0)
(0.381129 -0.0170664 0)
(0.371612 -0.0184712 0)
(0.362972 -0.0206269 0)
(0.355238 -0.02352 0)
(0.348429 -0.02712 0)
(0.342553 -0.0313847 0)
(0.337605 -0.0362418 0)
(0.333628 -0.0416553 0)
(0.330661 -0.0475716 0)
(0.328711 -0.0539119 0)
(0.327796 -0.0605887 0)
(0.327923 -0.0674995 0)
(0.329121 -0.0745591 0)
(0.33143 -0.081658 0)
(0.334878 -0.0886825 0)
(0.339499 -0.095506 0)
(0.345322 -0.101986 0)
(0.352377 -0.107969 0)
(0.360679 -0.113282 0)
(0.370233 -0.117739 0)
(0.381023 -0.121134 0)
(0.393003 -0.123249 0)
(0.406093 -0.12386 0)
(0.420163 -0.122735 0)
(0.435035 -0.119658 0)
(0.623452 0.00838876 0)
(0.61957 0.00597089 0)
(0.615723 0.00299156 0)
(0.611969 -0.000417114 0)
(0.608279 -0.00415858 0)
(0.604603 -0.00813534 0)
(0.600877 -0.0122286 0)
(0.597023 -0.0163217 0)
(0.592957 -0.0203227 0)
(0.588581 -0.024059 0)
(0.583785 -0.0274585 0)
(0.578466 -0.0303984 0)
(0.572521 -0.0327783 0)
(0.565846 -0.0345333 0)
(0.558366 -0.0355937 0)
(0.550021 -0.0359455 0)
(0.540774 -0.0355844 0)
(0.530626 -0.034555 0)
(0.519616 -0.0329225 0)
(0.507815 -0.0307918 0)
(0.49534 -0.028292 0)
(0.482332 -0.025574 0)
(0.468961 -0.0228017 0)
(0.455412 -0.0201418 0)
(0.44187 -0.0177552 0)
(0.428516 -0.0157915 0)
(0.415517 -0.0143796 0)
(0.403021 -0.0136254 0)
(0.391158 -0.0136084 0)
(0.380028 -0.0143822 0)
(0.369714 -0.0159746 0)
(0.360279 -0.0183912 0)
(0.35177 -0.0216171 0)
(0.344223 -0.0256217 0)
(0.337661 -0.0303608 0)
(0.332096 -0.0357723 0)
(0.32755 -0.0417833 0)
(0.324075 -0.0483626 0)
(0.32171 -0.0554253 0)
(0.320479 -0.0628879 0)
(0.320389 -0.0706497 0)
(0.321472 -0.078614 0)
(0.323777 -0.0866755 0)
(0.327346 -0.0947191 0)
(0.332225 -0.102615 0)
(0.338458 -0.110217 0)
(0.346091 -0.117363 0)
(0.355161 -0.123869 0)
(0.36569 -0.129528 0)
(0.377683 -0.134108 0)
(0.391107 -0.137356 0)
(0.405887 -0.138995 0)
(0.421889 -0.138737 0)
(0.43891 -0.136307 0)
(0.621215 0.0120713 0)
(0.616763 0.00947813 0)
(0.612436 0.00628259 0)
(0.608288 0.00262973 0)
(0.604307 -0.00136619 0)
(0.600455 -0.00565149 0)
(0.596679 -0.00998769 0)
(0.592878 -0.014379 0)
(0.58901 -0.0185778 0)
(0.584965 -0.0225661 0)
(0.58059 -0.0261152 0)
(0.575807 -0.0291893 0)
(0.570479 -0.0316438 0)
(0.564492 -0.0334183 0)
(0.557739 -0.0344489 0)
(0.550126 -0.0347214 0)
(0.54159 -0.0342255 0)
(0.532096 -0.033019 0)
(0.521649 -0.0311698 0)
(0.510293 -0.0287966 0)
(0.498115 -0.0260365 0)
(0.485242 -0.0230517 0)
(0.471835 -0.0200204 0)
(0.45808 -0.0171232 0)
(0.444169 -0.0145352 0)
(0.4303 -0.0124185 0)
(0.416663 -0.010912 0)
(0.403432 -0.0101292 0)
(0.390759 -0.0101579 0)
(0.378773 -0.0110552 0)
(0.367583 -0.0128505 0)
(0.357273 -0.015549 0)
(0.347911 -0.0191346 0)
(0.339549 -0.0235738 0)
(0.332226 -0.0288198 0)
(0.325971 -0.0348122 0)
(0.320797 -0.0414766 0)
(0.316757 -0.0487517 0)
(0.313912 -0.0565821 0)
(0.312293 -0.0648787 0)
(0.311921 -0.0735457 0)
(0.312825 -0.0824767 0)
(0.315063 -0.0915753 0)
(0.318689 -0.100723 0)
(0.323763 -0.109793 0)
(0.33035 -0.118639 0)
(0.338516 -0.127091 0)
(0.348324 -0.134957 0)
(0.359826 -0.142011 0)
(0.373047 -0.147992 0)
(0.387982 -0.152605 0)
(0.404568 -0.155513 0)
(0.422661 -0.156358 0)
(0.442035 -0.154776 0)
(0.61878 0.0157705 0)
(0.61376 0.012941 0)
(0.608917 0.00947471 0)
(0.604367 0.00553552 0)
(0.600049 0.00117552 0)
(0.596043 -0.00336702 0)
(0.592226 -0.00806778 0)
(0.588524 -0.012697 0)
(0.58488 -0.0171938 0)
(0.581167 -0.0213537 0)
(0.577299 -0.0251099 0)
(0.573083 -0.0282583 0)
(0.568441 -0.0307695 0)
(0.563193 -0.0325308 0)
(0.557213 -0.0334412 0)
(0.550391 -0.0335964 0)
(0.542616 -0.0328392 0)
(0.533817 -0.03139 0)
(0.523966 -0.0292092 0)
(0.513071 -0.026495 0)
(0.501202 -0.0233822 0)
(0.48846 -0.0200465 0)
(0.474996 -0.0166797 0)
(0.460998 -0.0134786 0)
(0.446669 -0.0106347 0)
(0.432225 -0.00832292 0)
(0.417879 -0.00669917 0)
(0.403832 -0.00588014 0)
(0.390264 -0.0059548 0)
(0.377337 -0.00698221 0)
(0.365185 -0.00899392 0)
(0.353917 -0.0119964 0)
(0.343622 -0.0159713 0)
(0.334368 -0.0208813 0)
(0.32621 -0.0266744 0)
(0.319187 -0.0332885 0)
(0.313326 -0.0406489 0)
(0.308661 -0.0486743 0)
(0.305258 -0.0573196 0)
(0.303182 -0.0664992 0)
(0.302456 -0.0761237 0)
(0.303109 -0.0860875 0)
(0.305203 -0.0962953 0)
(0.308808 -0.106637 0)
(0.313998 -0.116988 0)
(0.320862 -0.127205 0)
(0.329494 -0.13712 0)
(0.339986 -0.146531 0)
(0.352426 -0.155199 0)
(0.366874 -0.16283 0)
(0.383352 -0.169082 0)
(0.401802 -0.173537 0)
(0.422061 -0.175743 0)
(0.443869 -0.175249 0)
(0.616139 0.019541 0)
(0.610495 0.0164089 0)
(0.605122 0.0126019 0)
(0.600088 0.00828902 0)
(0.595511 0.00357011 0)
(0.591334 -0.00133204 0)
(0.587484 -0.00640764 0)
(0.583902 -0.0113553 0)
(0.580518 -0.0161512 0)
(0.577228 -0.0205123 0)
(0.573875 -0.0244609 0)
(0.570341 -0.0276901 0)
(0.566402 -0.0302309 0)
(0.562009 -0.0318822 0)
(0.556856 -0.0326792 0)
(0.550899 -0.0325173 0)
(0.543958 -0.0315273 0)
(0.535876 -0.0296387 0)
(0.526684 -0.0270567 0)
(0.516249 -0.0238844 0)
(0.504685 -0.0203005 0)
(0.492058 -0.0165055 0)
(0.478509 -0.012704 0)
(0.464221 -0.00911502 0)
(0.449412 -0.00595554 0)
(0.434311 -0.00340476 0)
(0.419169 -0.00160986 0)
(0.404215 -0.000716605 0)
(0.389661 -0.000826718 0)
(0.375697 -0.00200344 0)
(0.362489 -0.00426994 0)
(0.350171 -0.00761581 0)
(0.338856 -0.0120205 0)
(0.328629 -0.0174449 0)
(0.319559 -0.0238321 0)
(0.311698 -0.0311137 0)
(0.30508 -0.0392142 0)
(0.299728 -0.0480533 0)
(0.295711 -0.0575578 0)
(0.293102 -0.0676738 0)
(0.291941 -0.0783129 0)
(0.29226 -0.0893724 0)
(0.294121 -0.100764 0)
(0.297608 -0.112386 0)
(0.302816 -0.124127 0)
(0.309857 -0.135849 0)
(0.318855 -0.147392 0)
(0.329941 -0.158552 0)
(0.343245 -0.169076 0)
(0.358858 -0.17863 0)
(0.376822 -0.186816 0)
(0.397054 -0.193085 0)
(0.419319 -0.196899 0)
(0.443326 -0.197668 0)
(0.613217 0.0234318 0)
(0.606894 0.0199227 0)
(0.600934 0.0156965 0)
(0.595482 0.0109243 0)
(0.590585 0.0058114 0)
(0.586234 0.000403814 0)
(0.582386 -0.00503085 0)
(0.57898 -0.0104305 0)
(0.575936 -0.0154652 0)
(0.573082 -0.0201553 0)
(0.570352 -0.0241905 0)
(0.567543 -0.0275653 0)
(0.564474 -0.0300361 0)
(0.56096 -0.0315904 0)
(0.556778 -0.0321453 0)
(0.551729 -0.0316535 0)
(0.545661 -0.0302414 0)
(0.538439 -0.0278456 0)
(0.529856 -0.0247246 0)
(0.519949 -0.0209572 0)
(0.508688 -0.0167641 0)
(0.496151 -0.0123705 0)
(0.482471 -0.00801574 0)
(0.467823 -0.0039395 0)
(0.452453 -0.000346566 0)
(0.43662 0.00254243 0)
(0.420578 0.00453902 0)
(0.404596 0.00550619 0)
(0.388935 0.00535093 0)
(0.373819 0.00401615 0)
(0.359444 0.00147607 0)
(0.345982 -0.00226949 0)
(0.33356 -0.00716877 0)
(0.322275 -0.013164 0)
(0.312215 -0.0202028 0)
(0.303441 -0.0282104 0)
(0.295994 -0.0371086 0)
(0.289903 -0.0468115 0)
(0.285208 -0.0572379 0)
(0.281988 -0.0683415 0)
(0.280312 -0.0800435 0)
(0.280209 -0.0922595 0)
(0.281741 -0.104902 0)
(0.285 -0.117889 0)
(0.290103 -0.131122 0)
(0.297191 -0.144483 0)
(0.306421 -0.157822 0)
(0.317966 -0.17094 0)
(0.331994 -0.183567 0)
(0.348595 -0.195304 0)
(0.367803 -0.205678 0)
(0.38941 -0.213922 0)
(0.413041 -0.219501 0)
(0.438293 -0.2215 0)
(0.609927 0.0275234 0)
(0.602875 0.0235416 0)
(0.596303 0.0188017 0)
(0.59039 0.0135052 0)
(0.585188 0.00782225 0)
(0.580699 0.00191783 0)
(0.576878 -0.00404259 0)
(0.573709 -0.00984343 0)
(0.571047 -0.0152857 0)
(0.568764 -0.0202238 0)
(0.566727 -0.0244626 0)
(0.564752 -0.0278953 0)
(0.56262 -0.030336 0)
(0.560127 -0.0317287 0)
(0.556997 -0.0319647 0)
(0.552984 -0.0310781 0)
(0.547923 -0.0290789 0)
(0.541524 -0.0260742 0)
(0.533684 -0.0222299 0)
(0.524304 -0.0176911 0)
(0.513349 -0.0127231 0)
(0.500869 -0.00757309 0)
(0.486992 -0.00250994 0)
(0.471926 0.00221897 0)
(0.45589 0.00633316 0)
(0.439178 0.00960499 0)
(0.422103 0.0118503 0)
(0.40497 0.0129278 0)
(0.388073 0.0127355 0)
(0.371679 0.0112162 0)
(0.356022 0.00835686 0)
(0.341293 0.00418325 0)
(0.327661 -0.00127073 0)
(0.315248 -0.00792565 0)
(0.304121 -0.0156851 0)
(0.294362 -0.0244846 0)
(0.28602 -0.0342426 0)
(0.279121 -0.0448686 0)
(0.273688 -0.0562814 0)
(0.269795 -0.0684238 0)
(0.267518 -0.0812401 0)
(0.266896 -0.0946632 0)
(0.267989 -0.10862 0)
(0.270896 -0.123046 0)
(0.275753 -0.137866 0)
(0.282729 -0.152991 0)
(0.292015 -0.168286 0)
(0.303818 -0.183557 0)
(0.318315 -0.19849 0)
(0.335511 -0.212552 0)
(0.355355 -0.22516 0)
(0.377298 -0.23523 0)
(0.400785 -0.242482 0)
(0.425282 -0.24517 0)
(0.606174 0.0319056 0)
(0.598328 0.0273374 0)
(0.591113 0.0219694 0)
(0.584725 0.0160235 0)
(0.579228 0.00968689 0)
(0.574612 0.00315373 0)
(0.57088 -0.00337111 0)
(0.568007 -0.00971193 0)
(0.565833 -0.0155969 0)
(0.564185 -0.0208709 0)
(0.562956 -0.0253528 0)
(0.561932 -0.0288579 0)
(0.560884 -0.0312584 0)
(0.55955 -0.0324035 0)
(0.557617 -0.0322895 0)
(0.554776 -0.0308455 0)
(0.550793 -0.0281614 0)
(0.545387 -0.0243769 0)
(0.538315 -0.0195947 0)
(0.529508 -0.0141037 0)
(0.518838 -0.00816221 0)
(0.506381 -0.00205543 0)
(0.492255 0.00392123 0)
(0.47663 0.00942809 0)
(0.459795 0.0141925 0)
(0.442072 0.0179692 0)
(0.423808 0.0205478 0)
(0.405358 0.0217714 0)
(0.387062 0.0215398 0)
(0.369235 0.0198056 0)
(0.352154 0.0165699 0)
(0.336047 0.0118737 0)
(0.321091 0.00579456 0)
(0.30744 -0.00159512 0)
(0.295196 -0.0101806 0)
(0.284392 -0.0198551 0)
(0.275093 -0.0305436 0)
(0.26733 -0.0421593 0)
(0.261107 -0.0546171 0)
(0.256476 -0.0678464 0)
(0.253517 -0.0818273 0)
(0.252277 -0.0965001 0)
(0.252811 -0.111814 0)
(0.255225 -0.127739 0)
(0.259672 -0.144227 0)
(0.266343 -0.161222 0)
(0.275459 -0.178607 0)
(0.287221 -0.196165 0)
(0.301759 -0.213457 0)
(0.318793 -0.2297 0)
(0.338028 -0.244209 0)
(0.358144 -0.255452 0)
(0.378824 -0.263134 0)
(0.399081 -0.265688 0)
(0.601829 0.0366844 0)
(0.593129 0.0313954 0)
(0.585233 0.0252587 0)
(0.578357 0.0185242 0)
(0.572573 0.0114025 0)
(0.567906 0.00410529 0)
(0.564287 -0.00311511 0)
(0.561764 -0.0100764 0)
(0.560174 -0.0165026 0)
(0.559291 -0.0222074 0)
(0.55901 -0.0269666 0)
(0.559097 -0.0305911 0)
(0.559298 -0.0329015 0)
(0.559289 -0.0338187 0)
(0.558715 -0.0332193 0)
(0.557235 -0.0311476 0)
(0.55448 -0.0276169 0)
(0.55014 -0.0228338 0)
(0.543975 -0.0169326 0)
(0.535729 -0.0102558 0)
(0.525363 -0.00308673 0)
(0.512901 0.00424167 0)
(0.498405 0.0113291 0)
(0.482112 0.0178382 0)
(0.464322 0.0234401 0)
(0.445401 0.0278509 0)
(0.425748 0.0308427 0)
(0.405777 0.0322517 0)
(0.385886 0.031979 0)
(0.366443 0.0299888 0)
(0.347772 0.0263048 0)
(0.330143 0.0209967 0)
(0.313767 0.0141668 0)
(0.298777 0.00594389 0)
(0.285338 -0.00358472 0)
(0.273445 -0.0142402 0)
(0.263143 -0.0259486 0)
(0.254465 -0.0386224 0)
(0.247413 -0.0521814 0)
(0.241994 -0.0665482 0)
(0.238273 -0.0817234 0)
(0.236321 -0.0976745 0)
(0.236176 -0.114379 0)
(0.237943 -0.131836 0)
(0.241792 -0.150047 0)
(0.247933 -0.168983 0)
(0.25658 -0.188527 0)
(0.267865 -0.208345 0)
(0.281715 -0.227716 0)
(0.297113 -0.245567 0)
(0.313434 -0.260846 0)
(0.328736 -0.271826 0)
(0.342267 -0.27671 0)
(0.354941 -0.276627 0)
(0.596745 0.0419796 0)
(0.587115 0.0358055 0)
(0.5785 0.028733 0)
(0.571128 0.0210399 0)
(0.565073 0.0129692 0)
(0.560363 0.00476624 0)
(0.556974 -0.00332983 0)
(0.554897 -0.0110026 0)
(0.553974 -0.0181162 0)
(0.553983 -0.0243355 0)
(0.554814 -0.0294589 0)
(0.556211 -0.0332215 0)
(0.557839 -0.0355057 0)
(0.559377 -0.0361107 0)
(0.560395 -0.0350183 0)
(0.560447 -0.032127 0)
(0.559133 -0.0276104 0)
(0.55606 -0.0215809 0)
(0.550842 -0.0143065 0)
(0.543266 -0.00613437 0)
(0.533227 0.00257406 0)
(0.520662 0.0113849 0)
(0.505691 0.019875 0)
(0.488559 0.0276335 0)
(0.469604 0.0342764 0)
(0.449251 0.0394802 0)
(0.427962 0.0429892 0)
(0.406219 0.0446291 0)
(0.384488 0.044305 0)
(0.363207 0.0420012 0)
(0.342757 0.0377706 0)
(0.323452 0.0317251 0)
(0.305528 0.0240107 0)
(0.289151 0.0147886 0)
(0.274384 0.00423776 0)
(0.261427 -0.0075685 0)
(0.250097 -0.0203848 0)
(0.240479 -0.0341927 0)
(0.232564 -0.0489084 0)
(0.226317 -0.0644655 0)
(0.221776 -0.0808561 0)
(0.219015 -0.098091 0)
(0.218067 -0.116194 0)
(0.219031 -0.135196 0)
(0.22208 -0.155145 0)
(0.22742 -0.176031 0)
(0.235212 -0.197654 0)
(0.245357 -0.219362 0)
(0.257123 -0.240023 0)
(0.26852 -0.258121 0)
(0.278404 -0.271248 0)
(0.285521 -0.278973 0)
(0.288861 -0.279633 0)
(0.287902 -0.281928 0)
(0.590733 0.0479377 0)
(0.580094 0.0406807 0)
(0.570719 0.032468 0)
(0.562844 0.0236145 0)
(0.556549 0.0143988 0)
(0.551863 0.00509594 0)
(0.548772 -0.00401004 0)
(0.547227 -0.0126498 0)
(0.54708 -0.0205477 0)
(0.548166 -0.0274068 0)
(0.550314 -0.0329745 0)
(0.5532 -0.0370064 0)
(0.556514 -0.0392708 0)
(0.559833 -0.0396104 0)
(0.562703 -0.0379003 0)
(0.564598 -0.0341315 0)
(0.564931 -0.0283348 0)
(0.563292 -0.0208266 0)
(0.559214 -0.0118321 0)
(0.552339 -0.0018308 0)
(0.542595 0.00873016 0)
(0.529873 0.0194265 0)
(0.514295 0.02968 0)
(0.496131 0.0390054 0)
(0.475773 0.0469483 0)
(0.453709 0.0531376 0)
(0.430489 0.0572948 0)
(0.406676 0.0592259 0)
(0.382819 0.0588351 0)
(0.359435 0.0561328 0)
(0.336978 0.0512199 0)
(0.315817 0.0442655 0)
(0.296219 0.0354794 0)
(0.278358 0.0250824 0)
(0.262311 0.0132848 0)
(0.248113 0.000277294 0)
(0.235844 -0.0138211 0)
(0.225289 -0.0288601 0)
(0.216501 -0.0447817 0)
(0.209412 -0.0615493 0)
(0.204017 -0.0791608 0)
(0.20037 -0.097667 0)
(0.1985 -0.117141 0)
(0.198504 -0.137663 0)
(0.200538 -0.159315 0)
(0.204763 -0.182045 0)
(0.211181 -0.205385 0)
(0.219016 -0.228152 0)
(0.226348 -0.248455 0)
(0.230895 -0.263714 0)
(0.230443 -0.271035 0)
(0.22475 -0.274695 0)
(0.214485 -0.278473 0)
(0.209156 -0.28225 0)
(0.583552 0.0547036 0)
(0.57182 0.0461249 0)
(0.561647 0.0365312 0)
(0.553272 0.0262791 0)
(0.546768 0.0156855 0)
(0.54217 0.00506134 0)
(0.539443 -0.00528985 0)
(0.538565 -0.0150546 0)
(0.539404 -0.023938 0)
(0.541715 -0.0315851 0)
(0.545334 -0.0377557 0)
(0.549978 -0.0421357 0)
(0.555217 -0.0444749 0)
(0.560621 -0.0445386 0)
(0.565617 -0.0421606 0)
(0.569616 -0.0373355 0)
(0.571918 -0.0301368 0)
(0.571936 -0.0207242 0)
(0.569114 -0.00965999 0)
(0.563043 0.00258556 0)
(0.553605 0.0155245 0)
(0.540674 0.0284849 0)
(0.524306 0.040913 0)
(0.504868 0.0521748 0)
(0.482809 0.0617256 0)
(0.458713 0.0691372 0)
(0.433217 0.074095 0)
(0.406978 0.0763805 0)
(0.380657 0.0758975 0)
(0.35488 0.0726865 0)
(0.330186 0.0669144 0)
(0.307002 0.0588336 0)
(0.285623 0.0487395 0)
(0.266226 0.0369349 0)
(0.248881 0.0236961 0)
(0.233528 0.00926623 0)
(0.220338 -0.006266 0)
(0.208869 -0.0225856 0)
(0.199222 -0.0397601 0)
(0.19129 -0.0577592 0)
(0.18502 -0.0765759 0)
(0.180426 -0.0963188 0)
(0.177533 -0.117105 0)
(0.176423 -0.139077 0)
(0.177209 -0.162309 0)
(0.179926 -0.186555 0)
(0.184043 -0.210851 0)
(0.187618 -0.232984 0)
(0.187525 -0.249808 0)
(0.181453 -0.258003 0)
(0.166414 -0.262014 0)
(0.149894 -0.264832 0)
(0.142939 -0.2718 0)
(0.144533 -0.277401 0)
(0.574839 0.0624459 0)
(0.561957 0.0522652 0)
(0.550972 0.0410055 0)
(0.542117 0.0290746 0)
(0.535461 0.0168343 0)
(0.531031 0.00463151 0)
(0.528782 -0.00720733 0)
(0.528692 -0.0183215 0)
(0.530642 -0.0284051 0)
(0.534396 -0.0371033 0)
(0.539732 -0.0440343 0)
(0.546318 -0.0489492 0)
(0.553736 -0.0514335 0)
(0.561456 -0.0512333 0)
(0.5688 -0.0481066 0)
(0.575051 -0.0420389 0)
(0.579541 -0.0331242 0)
(0.581448 -0.0216082 0)
(0.579985 -0.00806835 0)
(0.574855 0.00704812 0)
(0.565682 0.0228873 0)
(0.552354 0.0385886 0)
(0.535064 0.0537892 0)
(0.514102 0.0674557 0)
(0.490064 0.0789736 0)
(0.46365 0.0878709 0)
(0.435584 0.0937936 0)
(0.406616 0.0964908 0)
(0.377529 0.0958623 0)
(0.349079 0.0919858 0)
(0.321926 0.0851117 0)
(0.29657 0.0756079 0)
(0.273342 0.0638947 0)
(0.252409 0.0503881 0)
(0.233801 0.0354533 0)
(0.217435 0.01938 0)
(0.203159 0.00241577 0)
(0.191073 -0.015389 0)
(0.180662 -0.0338887 0)
(0.171947 -0.0531091 0)
(0.164822 -0.0730862 0)
(0.159252 -0.0939866 0)
(0.155261 -0.115985 0)
(0.152895 -0.13927 0)
(0.152174 -0.163788 0)
(0.152705 -0.188898 0)
(0.153005 -0.212656 0)
(0.149488 -0.230906 0)
(0.138202 -0.239822 0)
(0.116234 -0.242205 0)
(0.0960759 -0.24533 0)
(0.0863379 -0.251835 0)
(0.083045 -0.2614 0)
(0.084368 -0.273913 0)
(0.563967 0.0712626 0)
(0.549959 0.0591655 0)
(0.53822 0.0459228 0)
(0.528968 0.032003 0)
(0.522263 0.0178164 0)
(0.518134 0.00374636 0)
(0.516498 -0.00985755 0)
(0.517351 -0.0226046 0)
(0.520572 -0.0341444 0)
(0.525933 -0.0440946 0)
(0.533128 -0.0520514 0)
(0.541808 -0.0576117 0)
(0.551473 -0.0603272 0)
(0.561462 -0.0598459 0)
(0.570996 -0.0558838 0)
(0.579296 -0.0484552 0)
(0.585654 -0.0375229 0)
(0.589276 -0.0235229 0)
(0.589498 -0.00711435 0)
(0.58537 0.0111552 0)
(0.576302 0.0305807 0)
(0.562714 0.0497378 0)
(0.544514 0.0681163 0)
(0.521837 0.0847291 0)
(0.495665 0.0987115 0)
(0.466805 0.109517 0)
(0.436054 0.11668 0)
(0.404239 0.119884 0)
(0.372268 0.119045 0)
(0.341053 0.114308 0)
(0.311389 0.106033 0)
(0.283867 0.0947418 0)
(0.258857 0.0810283 0)
(0.23651 0.0654623 0)
(0.216805 0.0485286 0)
(0.199601 0.0305968 0)
(0.184604 0.0119366 0)
(0.171978 -0.00743493 0)
(0.160875 -0.0272221 0)
(0.151443 -0.0476118 0)
(0.143508 -0.0686856 0)
(0.136977 -0.09063 0)
(0.131842 -0.113693 0)
(0.128084 -0.138015 0)
(0.12542 -0.163242 0)
(0.122557 -0.188025 0)
(0.116809 -0.208413 0)
(0.102457 -0.21729 0)
(0.0759063 -0.218556 0)
(0.0515246 -0.219716 0)
(0.0376303 -0.226314 0)
(0.0302509 -0.238635 0)
(0.0257659 -0.254973 0)
(0.0242108 -0.272556 0)
(0.549842 0.0811573 0)
(0.534937 0.0668077 0)
(0.522657 0.0512413 0)
(0.513214 0.0349992 0)
(0.506654 0.0185419 0)
(0.50302 0.00229945 0)
(0.502163 -0.0133597 0)
(0.504141 -0.0280234 0)
(0.508779 -0.041282 0)
(0.515817 -0.0527278 0)
(0.524867 -0.061872 0)
(0.535427 -0.0681095 0)
(0.546826 -0.0709525 0)
(0.558312 -0.0701384 0)
(0.568975 -0.0650668 0)
(0.57821 -0.0563152 0)
(0.585503 -0.0432391 0)
(0.590017 -0.0262687 0)
(0.591274 -0.00657315 0)
(0.588358 0.0154915 0)
(0.579881 0.0391895 0)
(0.565963 0.0625548 0)
(0.547179 0.085277 0)
(0.523424 0.104589 0)
(0.495655 0.120961 0)
(0.464836 0.133773 0)
(0.431754 0.142436 0)
(0.397384 0.14638 0)
(0.362816 0.145366 0)
(0.329112 0.139606 0)
(0.297215 0.129618 0)
(0.267832 0.11614 0)
(0.241369 0.100002 0)
(0.217953 0.081985 0)
(0.197489 0.0627279 0)
(0.179745 0.0426922 0)
(0.164362 0.0221664 0)
(0.151141 0.00130294 0)
(0.139772 -0.0198395 0)
(0.129814 -0.0413623 0)
(0.121201 -0.0634228 0)
(0.113792 -0.0862561 0)
(0.107517 -0.11013 0)
(0.102169 -0.134969 0)
(0.0966142 -0.159851 0)
(0.0883524 -0.18183 0)
(0.0741966 -0.193387 0)
(0.0445073 -0.191243 0)
(0.0150986 -0.191557 0)
(-0.00277614 -0.197891 0)
(-0.0147635 -0.211606 0)
(-0.0234363 -0.230145 0)
(-0.0299889 -0.250032 0)
(-0.0350732 -0.269267 0)
(0.530586 0.0917905 0)
(0.515402 0.0749183 0)
(0.503107 0.0567401 0)
(0.493911 0.0378824 0)
(0.487876 0.0188628 0)
(0.484983 0.000143546 0)
(0.485165 -0.0178526 0)
(0.488461 -0.0346987 0)
(0.494595 -0.0499124 0)
(0.503128 -0.0629808 0)
(0.513505 -0.0731383 0)
(0.524976 -0.0797555 0)
(0.536433 -0.0823861 0)
(0.547394 -0.0807499 0)
(0.556671 -0.0744363 0)
(0.564157 -0.0636972 0)
(0.570363 -0.0493117 0)
(0.573745 -0.0292781 0)
(0.575155 -0.00762959 0)
(0.573314 0.0177031 0)
(0.565663 0.0448602 0)
(0.553042 0.0721619 0)
(0.534177 0.102286 0)
(0.509663 0.125322 0)
(0.482384 0.145457 0)
(0.451715 0.160819 0)
(0.418128 0.17106 0)
(0.382523 0.175705 0)
(0.346331 0.174476 0)
(0.310993 0.167504 0)
(0.277652 0.155463 0)
(0.247147 0.139383 0)
(0.219931 0.120399 0)
(0.196089 0.0995541 0)
(0.17544 0.0776803 0)
(0.157646 0.0553499 0)
(0.142298 0.0328934 0)
(0.128854 0.0105148 0)
(0.117549 -0.0119917 0)
(0.107236 -0.0345244 0)
(0.0981086 -0.0573899 0)
(0.0899623 -0.0808942 0)
(0.0825746 -0.105157 0)
(0.075102 -0.12961 0)
(0.0650861 -0.151861 0)
(0.0491858 -0.165627 0)
(0.0228356 -0.163462 0)
(-0.0149267 -0.16268 0)
(-0.0372556 -0.167834 0)
(-0.0507823 -0.181549 0)
(-0.0632252 -0.200671 0)
(-0.0733687 -0.22169 0)
(-0.0825115 -0.242489 0)
(-0.0913921 -0.262047 0)
(0.503666 0.10231 0)
(0.489306 0.0827764 0)