/*--------------------------------*- C++ -*----------------------------------*\
  =========                 |
  \\      /  F ield         | OpenFOAM: The Open Source CFD Toolbox
   \\    /   O peration     | Website:  https://openfoam.org
    \\  /    A nd           | Version:  10
     \\/     M anipulation  |
\*---------------------------------------------------------------------------*/
FoamFile
{
    format      ascii;
    class       volScalarField;
    location    "0.048781";
    object      p;
}
// * * * * * * * * * * * * * * * * * * * * * * * * * * * * * * * * * * * * * //

dimensions      [1 -1 -2 0 0 0 0];

internalField   nonuniform List<scalar> 
15984
(
2.49995
2.49997
2.49999
2.50002
2.50004
2.50007
2.50009
2.50012
2.50014
2.50015
2.50016
2.50017
2.50017
2.50016
2.50016
2.50014
2.50013
2.50011
2.50009
2.50007
2.50005
2.50004
2.50003
2.50002
2.50002
2.50002
2.50002
2.50002
2.50002
2.50003
2.50004
2.50004
2.50005
2.50006
2.50006
2.50007
2.50008
2.50008
2.50009
2.5001
2.50011
2.50012
2.50014
2.50015
2.50017
2.50019
2.50021
2.50023
2.50025
2.50027
2.50029
2.50031
2.50032
2.50033
2.50004
2.50006
2.50008
2.50011
2.50014
2.50017
2.5002
2.50022
2.50024
2.50026
2.50027
2.50027
2.50026
2.50024
2.50022
2.50019
2.50016
2.50012
2.50009
2.50006
2.50003
2.5
2.49999
2.49997
2.49997
2.49996
2.49997
2.49997
2.49998
2.49999
2.5
2.50001
2.50002
2.50003
2.50004
2.50006
2.50007
2.50008
2.50009
2.5001
2.50012
2.50014
2.50016
2.50019
2.50022
2.50025
2.50029
2.50033
2.50038
2.50042
2.50046
2.50049
2.50052
2.50053
2.50012
2.50015
2.50018
2.50022
2.50026
2.50031
2.50035
2.50038
2.50041
2.50043
2.50043
2.50043
2.50041
2.50037
2.50033
2.50027
2.50021
2.50014
2.50008
2.50003
2.49998
2.49994
2.49991
2.49989
2.49988
2.49987
2.49988
2.49989
2.4999
2.49992
2.49994
2.49996
2.49998
2.5
2.50002
2.50003
2.50005
2.50007
2.50009
2.50011
2.50014
2.50017
2.50021
2.50026
2.50032
2.50038
2.50045
2.50053
2.50061
2.50069
2.50076
2.50082
2.50086
2.50088
2.50021
2.50026
2.50032
2.50038
2.50045
2.50052
2.50059
2.50064
2.50069
2.50071
2.50071
2.50069
2.50065
2.50058
2.50049
2.50039
2.50028
2.50017
2.50006
2.49996
2.49988
2.49981
2.49977
2.49974
2.49972
2.49972
2.49973
2.49975
2.49978
2.49981
2.49985
2.49988
2.49991
2.49994
2.49998
2.5
2.50003
2.50007
2.5001
2.50014
2.50019
2.50025
2.50032
2.5004
2.50051
2.50062
2.50075
2.50089
2.50102
2.50116
2.50128
2.50137
2.50143
2.50146
2.50035
2.50044
2.50054
2.50065
2.50077
2.50089
2.501
2.50109
2.50115
2.50118
2.50117
2.50113
2.50104
2.5009
2.50074
2.50056
2.50037
2.50018
2.5
2.49984
2.4997
2.4996
2.49952
2.49948
2.49946
2.49947
2.49949
2.49953
2.49958
2.49963
2.49969
2.49975
2.49981
2.49986
2.49991
2.49996
2.50001
2.50006
2.50012
2.50019
2.50028
2.50038
2.50051
2.50066
2.50084
2.50105
2.50127
2.50151
2.50174
2.50196
2.50216
2.50231
2.5024
2.50242
2.50058
2.50073
2.50092
2.50111
2.50131
2.50151
2.50169
2.50183
2.50192
2.50195
2.50192
2.50183
2.50165
2.50141
2.50113
2.50081
2.50048
2.50016
2.49986
2.4996
2.49938
2.49922
2.49911
2.49905
2.49903
2.49905
2.4991
2.49917
2.49926
2.49935
2.49945
2.49954
2.49964
2.49973
2.49981
2.49989
2.49998
2.50007
2.50017
2.5003
2.50045
2.50063
2.50085
2.50112
2.50143
2.50179
2.50217
2.50257
2.50296
2.50333
2.50364
2.50386
2.50398
2.50399
2.50097
2.50124
2.50156
2.50189
2.50223
2.50255
2.50284
2.50305
2.50319
2.50321
2.50313
2.50293
2.5026
2.50218
2.50168
2.50114
2.5006
2.50007
2.49959
2.49917
2.49884
2.49859
2.49843
2.49834
2.49833
2.49837
2.49847
2.4986
2.49875
2.49891
2.49907
2.49923
2.49938
2.49952
2.49966
2.4998
2.49994
2.50009
2.50027
2.50048
2.50074
2.50106
2.50145
2.50191
2.50245
2.50305
2.50369
2.50436
2.505
2.50558
2.50605
2.50638
2.50652
2.50647
2.50163
2.50211
2.50263
2.50319
2.50375
2.50427
2.50472
2.50504
2.50521
2.5052
2.50502
2.50462
2.50403
2.50329
2.50245
2.50156
2.50067
2.49983
2.49907
2.49843
2.49792
2.49755
2.49732
2.49722
2.49723
2.49732
2.49749
2.49771
2.49796
2.49822
2.49848
2.49874
2.49898
2.49922
2.49944
2.49966
2.4999
2.50016
2.50046
2.50082
2.50126
2.50181
2.50247
2.50325
2.50416
2.50516
2.50623
2.50731
2.50833
2.50922
2.50992
2.51035
2.51048
2.51031
2.50275
2.50355
2.50442
2.50534
2.50624
2.50705
2.50773
2.50818
2.50837
2.50827
2.50788
2.50713
2.5061
2.50485
2.50347
2.50203
2.50062
2.4993
2.49814
2.49717
2.49642
2.4959
2.49559
2.49548
2.49553
2.49571
2.49601
2.49637
2.49677
2.49719
2.49761
2.49801
2.4984
2.49877
2.49913
2.49949
2.49987
2.50029
2.50079
2.5014
2.50215
2.50307
2.50419
2.5055
2.507
2.50864
2.51036
2.51206
2.51363
2.51496
2.51593
2.51645
2.51647
2.51604
2.5046
2.50591
2.50733
2.50879
2.51019
2.51143
2.51241
2.513
2.51315
2.51286
2.51206
2.51072
2.50897
2.50693
2.50472
2.50247
2.50029
2.49829
2.49656
2.49514
2.49406
2.49334
2.49294
2.49284
2.49297
2.49331
2.4938
2.49438
2.49502
2.49567
2.49632
2.49695
2.49755
2.49812
2.49869
2.49926
2.49987
2.50057
2.5014
2.50241
2.50366
2.50519
2.50703
2.50918
2.51161
2.51423
2.51692
2.51952
2.52185
2.52372
2.52498
2.5255
2.52526
2.5243
2.50758
2.50968
2.51194
2.5142
2.51632
2.51813
2.51946
2.52016
2.52014
2.51945
2.51793
2.51562
2.51277
2.50954
2.50611
2.50267
2.49942
2.49648
2.49396
2.49194
2.49045
2.48948
2.489
2.48894
2.48921
2.4898
2.49058
2.4915
2.49248
2.49349
2.49448
2.49543
2.49634
2.49722
2.49809
2.49899
2.49997
2.50109
2.50244
2.5041
2.50615
2.50865
2.51164
2.51509
2.51893
2.52299
2.52707
2.5309
2.53418
2.53667
2.53813
2.53843
2.53767
2.53569
2.51228
2.51558
2.51904
2.52244
2.52553
2.52803
2.52972
2.53039
2.52999
2.52852
2.52577
2.522
2.5175
2.51254
2.5074
2.50234
2.49763
2.49343
2.4899
2.48711
2.48511
2.48386
2.4833
2.48334
2.48385
2.4848
2.48602
2.48741
2.48889
2.4904
2.49188
2.4933
2.49467
2.49599
2.49732
2.49871
2.50025
2.50205
2.50422
2.5069
2.5102
2.51421
2.51894
2.52433
2.53022
2.53632
2.54227
2.54763
2.55201
2.55504
2.55645
2.55614
2.55433
2.55068
2.51948
2.5245
2.52965
2.53456
2.53882
2.54209
2.54401
2.54435
2.54321
2.54031
2.53569
2.52977
2.52296
2.51564
2.5082
2.501
2.4944
2.4886
2.48379
2.48007
2.47746
2.4759
2.47531
2.47552
2.4764
2.47787
2.47971
2.48177
2.48394
2.48614
2.4883
2.49038
2.49239
2.49436
2.49635
2.49848
2.50088
2.50371
2.50716
2.51141
2.51663
2.5229
2.53021
2.53839
2.54712
2.5559
2.56415
2.57125
2.57665
2.5799
2.58071
2.57929
2.57549
2.56928
2.5302
2.53756
2.54491
2.55165
2.55722
2.56112
2.56292
2.56245
2.5599
2.55476
2.54741
2.53852
2.52863
2.51824
2.50788
2.49804
2.48908
2.48133
2.47501
2.47019
2.46687
2.465
2.46444
2.46491
2.46635
2.46853
2.47119
2.47416
2.47727
2.4804
2.48348
2.48647
2.48937
2.49225
2.49522
2.49844
2.50212
2.50652
2.5119
2.51853
2.52659
2.53616
2.54711
2.55908
2.57148
2.58352
2.5943
2.60301
2.60898
2.61173
2.61111
2.60764
2.60071
2.59094
2.54555
2.55591
2.5659
2.57462
2.58137
2.58549
2.58651
2.58462
2.57951
2.57109
2.5601
2.54737
2.5336
2.51945
2.50557
2.49259
2.48091
2.47093
2.46288
2.45682
2.45276
2.45057
2.45011
2.45096
2.45315
2.45626
2.46001
2.46415
2.46849
2.47285
2.47716
2.48136
2.48548
2.48964
2.494
2.49881
2.50439
2.51111
2.51935
2.52945
2.54159
2.55574
2.57156
2.58835
2.60509
2.62059
2.63367
2.64335
2.6489
2.64998
2.64704
2.63988
2.62869
2.61441
2.5666
2.58049
2.59328
2.60382
2.6112
2.61471
2.614
2.60963
2.6007
2.5879
2.57233
2.55495
2.5366
2.51813
2.50028
2.48381
2.46916
2.45676
2.44683
2.43945
2.43459
2.43211
2.43181
2.43317
2.4363
2.44058
2.44569
2.45132
2.45721
2.46315
2.46904
2.47485
2.48062
2.48653
2.49285
2.49995
2.50829
2.51839
2.53074
2.54573
2.56346
2.58364
2.60552
2.62785
2.6491
2.66762
2.68207
2.69137
2.69497
2.69306
2.68617
2.67388
2.65727
2.63768
2.59405
2.6116
2.62689
2.63852
2.64547
2.64711
2.64378
2.63514
2.62121
2.60308
2.58213
2.55944
2.5361
2.513
2.49103
2.4709
2.45322
2.43835
2.4265
2.41775
2.41206
2.40928
2.4092
2.41117
2.41539
2.42107
2.42782
2.43526
2.44306
2.45097
2.45888
2.46676
2.47472
2.48302
2.49207
2.50241
2.51467
2.52954
2.54762
2.56921
2.59417
2.62172
2.65043
2.67837
2.70341
2.72365
2.73768
2.74465
2.74442
2.73816
2.72512
2.70659
2.68382
2.65838
2.62776
2.64849
2.66532
2.67672
2.68171
2.68016
2.67265
2.65829
2.63825
2.61404
2.58713
2.55894
2.5305
2.50278
2.47679
2.45328
2.43274
2.41553
2.40181
2.39168
2.38513
2.38203
2.38213
2.38476
2.39018
2.39744
2.40609
2.41565
2.42574
2.43605
2.44647
2.45699
2.46781
2.47932
2.49213
2.50696
2.52465
2.54606
2.57176
2.60178
2.63544
2.67115
2.70661
2.73915
2.76619
2.7859
2.79705
2.79939
2.79393
2.78083
2.76063
2.73497
2.70566
2.67423
2.66644
2.68907
2.70585
2.71519
2.71652
2.71071
2.69681
2.67582
2.64886
2.61815
2.58534
2.55172
2.51841
2.48649
2.45702
2.43065
2.40772
2.38849
2.37308
2.36159
2.35411
2.35059
2.35077
2.35396
2.3606
2.36956
2.3803
2.39227
2.40502
2.4182
2.43168
2.44553
2.46006
2.47584
2.49371
2.51462
2.53964
2.56963
2.60492
2.64496
2.68813
2.73177
2.77268
2.80751
2.83389
2.85015
2.85586
2.85185
2.83907
2.81774
2.78954
2.75655
2.72038
2.68305
2.70743
2.73008
2.74471
2.75004
2.74652
2.73449
2.71323
2.68464
2.65091
2.61382
2.57523
2.53658
2.499
2.46362
2.43148
2.40309
2.37852
2.3578
2.34096
2.32818
2.31967
2.31549
2.31556
2.31911
2.32686
2.3375
2.35045
2.36506
2.38082
2.39735
2.41454
2.43253
2.4518
2.47319
2.49776
2.5267
2.56119
2.60187
2.64844
2.69933
2.75165
2.80164
2.84527
2.87936
2.90181
2.91182
2.91004
2.89833
2.87644
2.84641
2.81008
2.76929
2.72691
2.68462
2.74719
2.76762
2.77807
2.77791
2.76857
2.74848
2.71973
2.68401
2.64331
2.60002
2.55613
2.51312
2.47199
2.43403
2.40029
2.37097
2.34571
2.32421
2.30637
2.29242
2.28275
2.27762
2.27718
2.28084
2.28936
2.30155
2.3167
2.33411
2.3532
2.37358
2.39518
2.41829
2.44359
2.4722
2.50543
2.54462
2.59077
2.64391
2.70264
2.76393
2.82361
2.87693
2.91987
2.94972
2.96531
2.96697
2.95708
2.93554
2.90466
2.86609
2.82158
2.77372
2.7258
2.67914
2.78196
2.79806
2.80276
2.79669
2.77948
2.75231
2.71645
2.67369
2.62629
2.57709
2.52848
2.48165
2.43757
2.39783
2.3636
2.33458
2.30982
2.28847
2.27024
2.25536
2.24446
2.23806
2.23663
2.24001
2.24873
2.26219
2.27943
2.2997
2.32241
2.34717
2.374
2.40336
2.43621
2.47394
2.51805
2.56969
2.62936
2.69589
2.7663
2.83608
2.89988
2.95282
2.99147
3.01411
3.02083
3.01381
2.99415
2.96373
2.92433
2.8781
2.82575
2.77085
2.71783
2.66742
2.8086
2.81879
2.81701
2.80479
2.78108
2.74716
2.70491
2.65542
2.60119
2.54625
2.49346
2.44317
2.39601
2.35464
2.32099
2.29384
2.27105
2.25106
2.23327
2.21794
2.20585
2.19791
2.19502
2.1976
2.20584
2.22013
2.2392
2.26232
2.28889
2.3186
2.35158
2.38853
2.43066
2.47957
2.53668
2.60278
2.67698
2.75647
2.83657
2.91146
2.97546
3.02435
3.05579
3.06941
3.06692
3.05085
3.02248
2.98448
2.93831
2.88566
2.8246
2.76208
2.70516
2.65106
2.82495
2.82899
2.82242
2.80403
2.77478
2.73543
2.6881
2.63191
2.57001
2.50904
2.45246
2.39866
2.34698
2.30265
2.27039
2.24699
2.22831
2.21154
2.19568
2.18078
2.16787
2.15833
2.15352
2.1547
2.16179
2.17628
2.19679
2.22265
2.25334
2.2886
2.32878
2.37482
2.42812
2.49035
2.56247
2.64396
2.73229
2.82273
2.90909
2.985
3.04548
3.08747
3.11002
3.11428
3.10374
3.07926
3.04432
3.00069
2.94897
2.88945
2.82091
2.75059
2.69447
2.64
2.83169
2.83091
2.81992
2.79776
2.76462
2.72126
2.66969
2.6067
2.53507
2.46862
2.4089
2.3488
2.2899
2.23897
2.21167
2.19466
2.18206
2.16973
2.15731
2.14409
2.13112
2.12019
2.11324
2.11228
2.11797
2.13163
2.15318
2.18166
2.21669
2.25819
2.30672
2.36344
2.42984
2.50718
2.59532
2.69194
2.79244
2.89038
2.97881
3.05195
3.10604
3.13954
3.15309
3.14953
3.1315
3.10219
3.0636
3.01722
2.96235
2.89391
2.8205
2.73772
2.69658
2.65887
2.83057
2.82676
2.81328
2.78979
2.75542
2.71012
2.65539
2.58645
2.4978
2.43543
2.37913
2.29778
2.21757
2.14973
2.13438
2.13026
2.1279
2.12369
2.11749
2.10767
2.09588
2.08417
2.07521
2.07161
2.07547
2.08754
2.10962
2.14056
2.18018
2.22867
2.28677
2.35573
2.43678
2.53029
2.6342
2.74407
2.85334
2.95451
3.04109
3.10853
3.15467
3.1797
3.18528
3.17584
3.15326
3.12151
3.08339
3.03858
2.98695
2.92423
2.832
2.73025
2.71152
2.72224
2.82444
2.8197
2.80609
2.78301
2.75004
2.70595
2.65712
2.58129
2.46309
2.39872
2.39854
2.30795
2.18545
2.08179
2.05638
2.05491
2.06484
2.07426
2.0758
2.07119
2.06221
2.05064
2.0401
2.03391
2.03539
2.04573
2.06758
2.10091
2.14543
2.20165
2.27044
2.35292
2.44951
2.55891
2.67678
2.79654
2.91026
3.01062
3.09229
3.15244
3.1906
3.20815
3.20825
3.19463
3.171
3.14034
3.10456
3.06442
3.02332
2.97531
2.89986
2.79461
2.73104
2.69114
2.81646
2.81291
2.80191
2.77901
2.74609
2.70511
2.67377
2.61365
2.49645
2.41513
2.35756
2.29891
2.20702
2.10907
2.04525
2.02992
2.02577
2.03344
2.03888
2.03758
2.03167
2.02042
2.0087
2.00032
1.99909
2.00792
2.02908
2.06472
2.11442
2.17899
2.2593
2.35583
2.46767
2.59115
2.71965
2.84495
2.95889
3.05519
3.13025
3.18285
3.21404
3.22633
3.22348
3.20905
3.18655
3.15832
3.12644
3.09361
3.05913
3.00241
2.93462
2.87535
2.81826
2.75311
2.80913
2.80808
2.80149
2.78219
2.7399
2.71317
2.67382
2.60661
2.53978
2.46796
2.39289
2.30768
2.21927
2.13412
2.07175
2.03186
1.99823
2.00167
2.00688
2.0091
2.00414
1.99401
1.98162
1.97166
1.96849
1.97576
1.99659
2.0344
2.0895
2.16275
2.25473
2.36468
2.48993
2.62415
2.75888
2.88523
2.99587
3.08604
3.1536
3.1996
3.22637
3.23664
3.23316
3.21985
3.20021
3.17587
3.14821
3.11645
3.08274
3.03116
2.97434
2.91571
2.8555
2.78429
2.80225
2.80401
2.79478
2.79685
2.75756
2.71117
2.68328
2.62542
2.55897
2.48563
2.40465
2.31509
2.22477
2.14257
2.07732
2.02994
1.99734
1.98748
1.98591
1.9842
1.98095
1.9714
1.95923
1.94896
1.94511
1.9516
1.97276
2.01279
2.07328
2.15495
2.25764
2.37901
2.51411
2.65451
2.79066
2.91416
3.0188
3.10171
3.16339
3.20551
3.23027
3.24035
3.23799
3.22768
3.2128
3.19236
3.16777
3.15442
3.11319
3.06961
3.0201
2.9622
2.89257
2.80806
2.7866
2.80926
2.80521
2.78763
2.77394
2.74521
2.70833
2.65448
2.58666
2.50534
2.41227
2.31189
2.21378
2.12787
2.06143
2.01512
1.98511
1.96842
1.967
1.9628
1.95931
1.95197
1.94178
1.93301
1.93031
1.93772
1.96028
2.00293
2.06839
2.15717
2.26805
2.39731
2.53746
2.67889
2.81199
2.92948
3.0273
3.10445
3.16197
3.20207
3.22732
3.23881
3.23834
3.23297
3.22314
3.20677
3.20875
3.18337
3.1516
3.1136
3.06456
3.00023
2.91691
2.8164
2.78633
2.77308
2.79616
2.80236
2.79328
2.77364
2.73878
2.68443
2.61063
2.51784
2.41086
2.29723
2.18939
2.098
2.03023
1.98519
1.96035
1.94714
1.93986
1.94427
1.94041
1.93304
1.92812
1.92397
1.92499
1.93559
1.96114
2.00687
2.07613
2.16972
2.28564
2.41772
2.55729
2.69466
2.82113
2.93125
3.02249
3.09508
3.15092
3.19234
3.22054
3.2346
3.23703
3.2354
3.22702
3.24927
3.24205
3.22247
3.19526
3.15546
3.09846
3.01968
2.91846
2.80298
2.77713
2.79084
2.81078
2.81956
2.8162
2.79938
2.76358
2.7041
2.62039
2.5152
2.39567
2.27409
2.16132
2.06732
1.99743
1.95243
1.92958
1.92233
1.92296
1.92638
1.93312
1.91718
1.91861
1.92182
1.92881
1.94498
1.9752
2.02481
2.0972
2.19308
2.30894
2.43803
2.57149
2.70052
2.8181
2.92021
3.00568
3.07599
3.13331
3.17949
3.21448
3.23373
3.24543
3.22572
3.27125
3.28257
3.27974
3.2648
3.23441
3.18463
3.11106
3.01211
2.89362
2.76862
2.78456
2.80988
2.83081
2.83935
2.83611
2.81593
2.77309
2.7042
2.61029
2.49676
2.37323
2.25137
2.14114
2.04885
1.97759
1.92875
1.90263
1.89552
1.90351
1.91465
1.90699
1.90173
1.91501
1.92691
1.9426
1.96711
2.0039
2.05753
2.13116
2.22508
2.33553
2.45606
2.57884
2.69673
2.80414
2.89844
2.97935
3.04906
3.11027
3.16487
3.21061
3.23315
3.26009
3.28547
3.30832
3.31884
3.31867
3.30006
3.25845
3.19012
3.09416
2.97451
2.84388
2.72014
2.79818
2.8253
2.84431
2.85027
2.84163
2.8128
2.75995
2.68162
2.58147
2.46774
2.34997
2.23728
2.13539
2.0477
1.97624
1.92254
1.88958
1.87557
1.87706
1.88572
1.89223
1.91739
1.91475
1.93766
1.96493
1.99854
2.04259
2.10023
2.17343
2.26178
2.36245
2.47049
2.57934
2.6847
2.78145
2.86913
2.94622
3.01607
3.08142
3.14519
3.20362
3.23937
3.30318
3.32469
3.3433
3.35327
3.3484
3.31822
3.25712
3.1648
3.04437
2.90976
2.7791
2.66742
2.80616
2.83059
2.84267
2.84237
2.82449
2.78516
2.72262
2.63967
2.54228
2.43793
2.33407
2.23586
2.14571
2.06472
1.99417
1.93618
1.89418
1.8717
1.86541
1.87102
1.88467
1.90636
1.9373
1.95332
1.99238
2.03607
2.08702
2.14705
2.21777
2.29857
2.38735
2.48081
2.57496
2.66671
2.75347
2.83413
2.90883
2.97893
3.04613
3.11245
3.17714
3.23186
3.32308
3.34539
3.36752
3.37444
3.35893
3.30984
3.22419
3.10444
2.96662
2.82986
2.71099
2.61888
2.80097
2.81726
2.82116
2.81078
2.78183
2.73411
2.66892
2.59023
2.50387
2.41556
2.32951
2.24742
2.16951
2.0958
2.02732
1.96648
1.91687
1.88354
1.86815
1.86833
1.88198
1.90689
1.94083
1.98455
2.01869
2.07395
2.13052
2.19017
2.25719
2.33051
2.4072
2.48619
2.56601
2.64538
2.72304
2.79803
2.87018
2.93985
3.0091
3.07882
3.14389
3.22692
3.30122
3.34603
3.37357
3.37492
3.3431
3.26954
3.15489
3.01599
2.87383
2.74796
2.64936
2.57943
2.77607
2.78192
2.77663
2.75672
2.72178
2.6727
2.61232
2.54486
2.47456
2.40452
2.33597
2.26872
2.20199
2.13553
2.07023
2.00846
1.95389
1.91101
1.88597
1.87835
1.88809
1.9143
1.95419
2.00228
2.05718
2.10804
2.16911
2.22218
2.28757
2.35357
2.41976
2.48649
2.55419
2.62317
2.693
2.76277
2.83204
2.90169
2.97509
3.04599
3.14153
3.22644
3.29447
3.34345
3.36463
3.35252
3.29612
3.19317
3.05791
2.91259
2.78019
2.67484
2.59971
2.55037
2.73149
2.73022
2.71747
2.69306
2.65779
2.61371
2.56373
2.51085
2.45736
2.40398
2.35047
2.29571
2.23876
2.17936
2.11831
2.05766
2.0008
1.95222
1.91763
1.9021
1.90567
1.92937
1.97113
2.02136
2.0738
2.13581
2.18991
2.24555
2.30554
2.36539
2.42391
2.48189
2.54076
2.60198
2.66526
2.72986
2.79617
2.86595
2.94761
3.05026
3.15002
3.23417
3.29826
3.33503
3.34022
3.30249
3.21616
3.09036
2.94611
2.80902
2.69714
2.61634
2.56318
2.53047
2.67892
2.67183
2.6559
2.63191
2.60135
2.56621
2.52855
2.48988
2.45087
2.41103
2.36943
2.32483
2.2764
2.22388
2.16796
2.11033
2.0539
2.00293
1.96174
1.93954
1.93587
1.95322
1.99001
2.03628
2.08395
2.14152
2.20093
2.25611
2.31031
2.36629
2.4204
2.47345
2.52749
2.58293
2.64067
2.70042
2.76207
2.85358
2.9525
3.06202
3.16111
3.24171
3.29511
3.31285
3.29256
3.22346
3.11107
2.97278
2.83431
2.71717
2.63067
2.57326
2.53796
2.51753
2.62673
2.61734
2.60211
2.58211
2.55871
2.53326
2.50682
2.47987
2.45191
2.42228
2.38985
2.35354
2.3126
2.26681
2.21667
2.16353
2.10979
2.05914
2.01557
1.98751
1.97748
1.98745
2.01566
2.05601
2.10164
2.15023
2.20659
2.25745
2.30533
2.35768
2.40907
2.46088
2.51385
2.56727
2.61929
2.67397
2.75652
2.85169
2.96528
3.07452
3.17056
3.23998
3.27325
3.26945
3.21684
3.11922
2.99059
2.8546
2.73457
2.64319
2.58138
2.54319
2.52128
2.509
2.58255
2.57369
2.56144
2.54672
2.53042
2.51325
2.49549
2.47703
2.45715
2.43504
2.40969
2.38022
2.34597
2.3067
2.26272
2.21507
2.16565
2.11753
2.07454
2.04171
2.02683
2.02851
2.04728
2.07875
2.11656
2.15847
2.20492
2.25438
2.29723
2.34617
2.39633
2.44904
2.50387
2.55395
2.59902
2.66946
2.75472
2.86601
2.97862
3.08479
3.16977
3.22079
3.23145
3.19645
3.11454
2.99797
2.868
2.74804
2.65332
2.58753
2.54627
2.52265
2.50961
2.50308
2.5498
2.54286
2.53415
2.52427
2.51368
2.50261
2.49101
2.47835
2.46413
2.44754
2.42775
2.40401
2.37574
2.34267
2.30494
2.26327
2.21913
2.17493
2.13387
2.09981
2.07976
2.07411
2.08384
2.10612
2.13637
2.17053
2.20745
2.24748
2.28707
2.33455
2.3843
2.43709
2.49571
2.54076
2.59809
2.67402
2.77493
2.8827
2.99169
3.08669
3.15374
3.17852
3.16147
3.09637
2.99376
2.87274
2.75592
2.65996
2.59111
2.54688
2.52103
2.50736
2.5006
2.49782
2.52803
2.52323
2.51758
2.51137
2.50478
2.49779
2.49018
2.48152
2.47128
2.45882
2.44345
2.42456
2.40162
2.37432
2.34267
2.30714
2.26877
2.22937
2.19158
2.15852
2.134
2.12348
2.12498
2.13954
2.16404
2.19516
2.22963
2.26565
2.30209
2.34116
2.38813
2.43028
2.49699
2.54828
2.62279
2.70138
2.79969
2.90239
2.9988
3.07397
3.11116
3.11109
3.06383
2.97697
2.86754
2.75685
2.6621
2.59141
2.54444
2.51606
2.50115
2.49409
2.49169
2.49154
2.51481
2.51177
2.50832
2.50458
2.50057
2.4962
2.49117
2.48518
2.47778
2.46845
2.45665
2.44185
2.42359
2.40154
2.37561
2.34605
2.31358
2.27949
2.24584
2.21491
2.1896
2.17471
2.17052
2.17783
2.19598
2.22311
2.25668
2.29433
2.33472
2.37731
2.42437
2.47463
2.53017
2.58703
2.6585
2.73811
2.82684
2.91458
2.98994
3.03636
3.04673
3.01684
2.94711
2.85166
2.74994
2.65903
2.58822
2.53892
2.50802
2.49029
2.48228
2.47956
2.47997
2.4826
2.50735
2.50554
2.50352
2.50132
2.4989
2.49612
2.49279
2.48862
2.48328
2.47636
2.46744
2.45606
2.44183
2.42443
2.40371
2.37977
2.35306
2.32448
2.29559
2.26804
2.24431
2.22704
2.21999
2.22215
2.23451
2.25677
2.28731
2.32378
2.36454
2.40828
2.45621
2.50867
2.56547
2.62682
2.69468
2.76713
2.84185
2.90917
2.95793
2.97415
2.95773
2.90498
2.82517
2.73502
2.65047
2.58157
2.53124
2.49735
2.47617
2.465
2.46083
2.4604
2.46364
2.46923
2.5034
2.50236
2.50121
2.49992
2.49845
2.49668
2.49444
2.49155
2.48772
2.48266
2.47603
2.46748
2.45665
2.44326
2.42714
2.4083
2.38699
2.36383
2.33995
2.31656
2.2956
2.27888
2.27075
2.26988
2.27801
2.29573
2.32236
2.35638
2.39623
2.44021
2.48827
2.53993
2.59542
2.65486
2.71744
2.77969
2.83667
2.88011
2.89806
2.89096
2.85304
2.78928
2.71262
2.63689
2.57193
2.52179
2.4858
2.46106
2.4449
2.43633
2.43351
2.43477
2.4405
2.4495
2.50142
2.50084
2.50019
2.49944
2.49853
2.49738
2.49589
2.49388
2.49117
2.48754
2.48272
2.47643
2.4684
2.45838
2.4462
2.43182
2.41538
2.39728
2.37835
2.35945
2.3421
2.32771
2.31978
2.318
2.32357
2.33775
2.36043
2.39076
2.4276
2.46938
2.5154
2.56438
2.61579
2.66895
2.72192
2.76979
2.80612
2.82269
2.82121
2.79493
2.74652
2.68416
2.61911
2.56013
2.51176
2.47448
2.44662
2.42595
2.41091
2.40199
2.39895
2.4008
2.40877
2.42173
2.50048
2.50016
2.49979
2.49934
2.49878
2.49804
2.49704
2.49566
2.49378
2.49122
2.4878
2.4833
2.4775
2.47022
2.46129
2.45067
2.43842
2.42482
2.41044
2.39592
2.3824
2.37099
2.36438
2.36273
2.36692
2.3784
2.39736
2.42346
2.45586
2.49322
2.53429
2.57768
2.62208
2.66611
2.70631
2.73636
2.751
2.7525
2.73521
2.70015
2.65185
2.59845
2.54709
2.50214
2.46483
2.43445
2.40967
2.38937
2.37283
2.36123
2.35653
2.35766
2.36738
2.38482
2.50005
2.49988
2.49967
2.4994
2.49905
2.49857
2.4979
2.49698
2.49569
2.49394
2.49156
2.48843
2.48437
2.47923
2.4729
2.46532
2.45653
2.44671
2.43626
2.42567
2.41575
2.40735
2.40253
2.40147
2.40498
2.41434
2.42982
2.45133
2.47822
2.50919
2.54342
2.57891
2.61425
2.64678
2.672
2.6855
2.68842
2.67818
2.65386
2.61846
2.57662
2.53382
2.49372
2.4578
2.42606
2.39779
2.37251
2.35013
2.33066
2.31486
2.30658
2.30549
2.3159
2.33836
2.49988
2.49978
2.49966
2.4995
2.49928
2.49897
2.49853
2.49792
2.49706
2.49588
2.49428
2.49216
2.4894
2.48589
2.48155
2.47633
2.47026
2.46346
2.45621
2.44887
2.442
2.43625
2.43315
2.43273
2.43584
2.44337
2.45559
2.47248
2.49349
2.51756
2.54369
2.5703
2.5954
2.61601
2.62846
2.63232
2.62715
2.61148
2.58665
2.5555
2.52134
2.48696
2.45378
2.42205
2.39148
2.36204
2.3339
2.30798
2.28488
2.26493
2.25031
2.24501
2.25356
2.28188
2.49981
2.49976
2.49968
2.49959
2.49945
2.49925
2.49897
2.49858
2.49802
2.49724
2.4962
2.4948
2.49298
2.49066
2.48778
2.48432
2.48029
2.47578
2.47097
2.46614
2.46165
2.458
2.45627
2.45633
2.45906
2.46492
2.47414
2.48667
2.50201
2.51938
2.53779
2.55583
2.57174
2.58228
2.58652
2.58478
2.57546
2.55902
2.53678
2.51064
2.48229
2.45279
2.42244
2.39111
2.35881
2.32608
2.29372
2.26337
2.23637
2.2127
2.18989
2.17564
2.17639
2.21212
2.49979
2.49976
2.49971
2.49966
2.49957
2.49945
2.49927
2.49902
2.49866
2.49817
2.4975
2.49661
2.49545
2.49396
2.49212
2.48991
2.48734
2.48447
2.48143
2.4784
2.47564
2.47351
2.47268
2.47306
2.4753
2.47966
2.48626
2.49499
2.50539
2.51705
2.52895
2.54003
2.54841
2.55227
2.55238
2.54731
2.53693
2.52168
2.50235
2.47979
2.45451
2.42663
2.39598
2.3625
2.32651
2.28902
2.25156
2.21602
2.18454
2.15769
2.13039
2.0986
2.08081
2.11585
2.49978
2.49977
2.49974
2.49971
2.49965
2.49958
2.49947
2.49931
2.49909
2.49879
2.49837
2.49782
2.4971
2.49618
2.49505
2.49368
2.49211
2.49036
2.48852
2.48672
2.4851
2.48401
2.48367
2.48417
2.48589
2.48895
2.49341
2.49913
2.50575
2.51292
2.51991
2.52585
2.52906
2.5297
2.52716
2.52083
2.51066
2.49677
2.47935
2.45843
2.43384
2.40522
2.37227
2.33507
2.29424
2.25119
2.20819
2.16735
2.13121
2.10072
2.07078
2.02261
1.94
1.90553
2.50033
2.50033
2.50031
2.50029
2.50027
2.50023
2.5002
2.50016
2.50013
2.5001
2.50007
2.50006
2.50005
2.50005
2.50005
2.50007
2.5001
2.50014
2.50018
2.50023
2.50053
2.50052
2.5005
2.50046
2.5004
2.50035
2.50028
2.50021
2.50015
2.50009
2.50004
2.5
2.49997
2.49994
2.49993
2.49994
2.49995
2.49996
2.49999
2.50002
2.50087
2.50085
2.5008
2.50072
2.50063
2.50052
2.5004
2.50029
2.50018
2.50007
2.49998
2.4999
2.49984
2.4998
2.49977
2.49976
2.49976
2.49977
2.49978
2.49981
2.50144
2.50139
2.50129
2.50115
2.50098
2.50079
2.50059
2.50039
2.5002
2.50002
2.49987
2.49974
2.49964
2.49957
2.49952
2.49949
2.49948
2.49949
2.4995
2.49953
2.50238
2.50227
2.50207
2.50181
2.50152
2.50119
2.50085
2.50051
2.5002
2.49992
2.49967
2.49947
2.49931
2.4992
2.49912
2.49907
2.49906
2.49906
2.49908
2.49912
2.50389
2.50365
2.50329
2.50284
2.50233
2.50177
2.50121
2.50066
2.50016
2.49971
2.49932
2.49901
2.49876
2.49859
2.49848
2.49841
2.49839
2.4984
2.49844
2.49849
2.50624
2.50578
2.50514
2.50437
2.5035
2.50259
2.50168
2.50081
2.50001
2.49931
2.49872
2.49825
2.49789
2.49763
2.49747
2.49738
2.49736
2.49738
2.49744
2.49752
2.50981
2.50897
2.50786
2.50657
2.50516
2.5037
2.50226
2.5009
2.49969
2.49863
2.49775
2.49705
2.49652
2.49616
2.49593
2.49582
2.4958
2.49583
2.49593
2.49605
2.51506
2.51357
2.51172
2.50962
2.50738
2.50511
2.50291
2.50087
2.49905
2.49749
2.49621
2.4952
2.49446
2.49395
2.49364
2.49349
2.49347
2.49354
2.49368
2.49386
2.52248
2.51997
2.51698
2.51368
2.51023
2.5068
2.50353
2.50054
2.49791
2.49568
2.49386
2.49246
2.49143
2.49074
2.49032
2.49013
2.49011
2.49022
2.49042
2.49067
2.53253
2.52848
2.52382
2.51881
2.51369
2.50868
2.50398
2.49974
2.49604
2.49294
2.49045
2.48854
2.48715
2.48621
2.48566
2.48541
2.48539
2.48554
2.48581
2.48614
2.54548
2.53921
2.53225
2.52494
2.51761
2.51056
2.50403
2.49821
2.49318
2.48901
2.48568
2.48313
2.48129
2.48005
2.47932
2.47898
2.47895
2.47913
2.47946
2.47988
2.56124
2.55199
2.54201
2.53177
2.52168
2.51214
2.50341
2.49568
2.48908
2.48364
2.4793
2.47599
2.47359
2.47197
2.47099
2.47051
2.47043
2.4706
2.47097
2.47145
2.5792
2.56618
2.5525
2.53875
2.52545
2.51301
2.50178
2.49193
2.48356
2.47668
2.47119
2.46698
2.4639
2.46177
2.46043
2.45974
2.45951
2.45961
2.45995
2.46044
2.59812
2.58065
2.56274
2.5451
2.52831
2.51277
2.49891
2.48683
2.4766
2.46816
2.4614
2.45615
2.45222
2.44943
2.44759
2.44652
2.44602
2.44593
2.44612
2.44649
2.61623
2.59389
2.57153
2.5499
2.52963
2.51116
2.4947
2.48048
2.46842
2.4584
2.45026
2.44381
2.43885
2.43517
2.43262
2.43096
2.42999
2.4295
2.42936
2.42942
2.6315
2.60423
2.57751
2.55219
2.52881
2.50777
2.48924
2.4732
2.45952
2.44798
2.4384
2.43057
2.42435
2.41953
2.41597
2.41345
2.41172
2.41057
2.40979
2.40926
2.64192
2.60999
2.5795
2.55122
2.52548
2.50272
2.48283
2.46556
2.45062
2.43772
2.42667
2.41732
2.40957
2.40332
2.39842
2.39468
2.39186
2.38964
2.38786
2.38638
2.64599
2.61021
2.57675
2.54643
2.51958
2.49616
2.47589
2.45817
2.4425
2.4285
2.41602
2.40502
2.39554
2.38756
2.38099
2.37566
2.37129
2.36758
2.36434
2.36149
2.64338
2.60426
2.56862
2.53738
2.51068
2.4881
2.46869
2.45147
2.43572
2.42097
2.40719
2.39454
2.38322
2.37332
2.3648
2.35748
2.35112
2.34545
2.34028
2.33561
2.63403
2.59174
2.55454
2.52359
2.49858
2.47828
2.46102
2.44537
2.43026
2.41523
2.40047
2.3864
2.37335
2.36149
2.35079
2.34115
2.33237
2.32429
2.3168
2.30995
2.61826
2.57208
2.53335
2.5041
2.48261
2.46617
2.45239
2.43928
2.42543
2.41057
2.39533
2.38041
2.36607
2.35237
2.33938
2.32714
2.31563
2.30488
2.29492
2.28576
2.59598
2.54339
2.50244
2.47556
2.4598
2.44918
2.44105
2.43223
2.42051
2.40641
2.39149
2.37648
2.3612
2.34566
2.33015
2.31503
2.30068
2.28738
2.27519
2.26407
2.57333
2.5064
2.46204
2.43804
2.43065
2.42758
2.4265
2.42228
2.41255
2.39986
2.3871
2.3737
2.35827
2.34085
2.32244
2.30416
2.287
2.27162
2.25796
2.24539
2.5673
2.4808
2.41029
2.38625
2.38924
2.39919
2.41282
2.41385
2.40512
2.39271
2.3826
2.37084
2.3545
2.33445
2.31272
2.2913
2.27229
2.25684
2.24356
2.23054
2.61849
2.52872
2.44805
2.3838
2.34793
2.37064
2.39816
2.40291
2.39444
2.38697
2.38493
2.37543
2.35625
2.33108
2.30368
2.2771
2.25599
2.24203
2.23013
2.21666
2.64338
2.5727
2.50132
2.44114
2.41056
2.40457
2.40396
2.39449
2.37385
2.37123
2.38389
2.37624
2.35482
2.32449
2.29033
2.25881
2.24006
2.23502
2.22624
2.21047
2.67636
2.59956
2.52556
2.46409
2.42559
2.40752
2.39882
2.38829
2.37751
2.37278
2.37003
2.35887
2.33621
2.30371
2.26386
2.21808
2.20854
2.22392
2.21957
2.20234
2.70237
2.61774
2.53887
2.47422
2.42857
2.39903
2.37883
2.363
2.35201
2.34555
2.33904
2.32763
2.31
2.28642
2.25948
2.23758
2.23075
2.22767
2.22102
2.20255
2.71309
2.61842
2.53429
2.46805
2.42126
2.39
2.36857
2.3527
2.34089
2.33089
2.32023
2.30697
2.29019
2.27005
2.24929
2.23317
2.22419
2.21771
2.20792
2.19208
2.70846
2.60623
2.52028
2.45547
2.41064
2.38088
2.36088
2.34675
2.33612
2.32657
2.31643
2.30466
2.29058
2.27414
2.25652
2.23959
2.22386
2.20823
2.19095
2.17115
2.68706
2.58482
2.50429
2.44656
2.40765
2.38208
2.36491
2.35257
2.34272
2.33347
2.32363
2.31241
2.29923
2.2838
2.26645
2.24773
2.2279
2.20717
2.18564
2.16363
2.65385
2.56037
2.49136
2.44413
2.41311
2.3929
2.37915
2.36898
2.3604
2.35196
2.3427
2.33181
2.3186
2.30259
2.28372
2.26228
2.2388
2.214
2.18873
2.16394
2.61654
2.53846
2.48417
2.44843
2.42539
2.41032
2.39977
2.3916
2.38423
2.37658
2.36777
2.35705
2.34371
2.32727
2.30758
2.28483
2.25951
2.23228
2.20396
2.17547
2.58189
2.52186
2.48223
2.45694
2.44079
2.43006
2.42227
2.41587
2.40967
2.40283
2.3946
2.3843
2.37133
2.35526
2.33592
2.31339
2.28794
2.25995
2.22994
2.19866
2.55385
2.51095
2.48382
2.46688
2.45609
2.44873
2.44315
2.43822
2.4331
2.42715
2.41975
2.41034
2.39843
2.38366
2.36581
2.34481
2.32067
2.29349
2.26353
2.23138
2.53345
2.50466
2.48705
2.47622
2.46928
2.46439
2.46048
2.45676
2.45266
2.44768
2.44134
2.43322
2.4229
2.41007
2.39447
2.37586
2.35409
2.32905
2.30085
2.26987
2.5198
2.50145
2.49053
2.48388
2.47957
2.47642
2.47374
2.471
2.46783
2.46384
2.45871
2.45208
2.44362
2.43304
2.42002
2.40428
2.38553
2.36358
2.3384
2.31023
2.51118
2.5
2.49351
2.48958
2.48699
2.48503
2.48324
2.48131
2.47896
2.47595
2.47202
2.46691
2.46034
2.45202
2.44165
2.42889
2.41343
2.39503
2.37359
2.3492
2.50586
2.49938
2.4957
2.4935
2.49202
2.49086
2.48973
2.48845
2.48683
2.48472
2.48192
2.47823
2.47343
2.46726
2.4594
2.44953
2.43734
2.42255
2.40502
2.38473
2.50247