/*--------------------------------*- C++ -*----------------------------------*\
  =========                 |
  \\      /  F ield         | OpenFOAM: The Open Source CFD Toolbox
   \\    /   O peration     | Website:  https://openfoam.org
    \\  /    A nd           | Version:  10
     \\/     M anipulation  |
\*---------------------------------------------------------------------------*/
FoamFile
{
    format      ascii;
    class       surfaceScalarField;
    location    "0.048781";
    object      phi;
}
// * * * * * * * * * * * * * * * * * * * * * * * * * * * * * * * * * * * * * //

dimensions      [1 0 -1 0 0 0 0];

internalField   nonuniform List<scalar> 
31672
(
0.0003906
-6.34959e-08
0.000390599
-6.46173e-08
0.000390599
-6.57366e-08
0.000390601
-6.71532e-08
0.000390604
-6.9016e-08
0.000390607
-7.1294e-08
0.000390611
-7.37791e-08
0.000390616
-7.61185e-08
0.00039062
-7.78645e-08
0.000390625
-7.85158e-08
0.00039063
-7.76029e-08
0.000390634
-7.48017e-08
0.000390637
-7.02453e-08
0.00039064
-6.29235e-08
0.000390642
-5.35752e-08
0.000390642
-4.25538e-08
0.000390642
-3.04113e-08
0.00039064
-1.77877e-08
0.000390638
-5.28085e-09
0.000390635
6.23978e-09
0.000390631
1.64284e-08
0.000390628
2.48743e-08
0.000390625
3.13457e-08
0.000390622
3.57829e-08
0.000390619
3.82715e-08
0.000390617
3.9014e-08
0.000390616
3.83796e-08
0.000390615
3.64863e-08
0.000390615
3.37657e-08
0.000390615
3.05354e-08
0.000390615
2.70591e-08
0.000390616
2.35522e-08
0.000390617
2.01736e-08
0.000390618
1.7016e-08
0.000390618
1.41174e-08
0.000390619
1.14533e-08
0.00039062
8.94163e-09
0.000390621
6.44115e-09
0.000390621
3.75787e-09
0.000390622
6.54527e-10
0.000390622
-3.1564e-09
0.000390623
-7.98472e-09
0.000390623
-1.41424e-08
0.000390624
-2.19075e-08
0.000390624
-3.14824e-08
0.000390625
-4.29511e-08
0.000390626
-5.62322e-08
0.000390628
-7.1032e-08
0.000390631
-8.68287e-08
0.000390634
-1.02875e-07
0.000390638
-1.18228e-07
0.000390642
-1.31864e-07
0.000390647
-1.42709e-07
-1.498e-07
0.000390652
0.000390609
-5.28692e-08
0.000390608
-5.96742e-08
0.000390609
-6.74943e-08
0.00039061
-7.63202e-08
0.000390613
-8.59903e-08
0.000390617
-9.61077e-08
0.000390621
-1.06043e-07
0.000390627
-1.15004e-07
0.000390633
-1.22084e-07
0.000390639
-1.26362e-07
0.000390645
-1.27016e-07
0.00039065
-1.24046e-07
0.000390655
-1.16522e-07
0.000390658
-1.04054e-07
0.000390659
-8.77292e-08
0.000390659
-6.8291e-08
0.000390657
-4.68622e-08
0.000390653
-2.47079e-08
0.000390648
-2.83033e-09
0.000390642
1.68768e-08
0.000390636
3.42048e-08
0.000390629
4.82871e-08
0.000390623
5.87932e-08
0.000390618
6.56806e-08
0.000390614
6.91579e-08
0.00039061
6.96641e-08
0.000390608
6.78243e-08
0.000390607
6.38139e-08
0.000390607
5.85198e-08
0.000390607
5.24137e-08
0.000390608
4.59412e-08
0.000390609
3.94498e-08
0.000390611
3.31848e-08
0.000390612
2.72763e-08
0.000390614
2.17614e-08
0.000390615
1.65747e-08
0.000390616
1.15574e-08
0.000390617
6.45836e-09
0.000390618
9.36537e-10
0.000390619
-5.38852e-09
0.000390619
-1.30056e-08
0.000390619
-2.24216e-08
0.000390619
-3.41363e-08
0.000390619
-4.85873e-08
0.00039062
-6.60762e-08
0.000390621
-8.66874e-08
0.000390624
-1.10206e-07
0.000390627
-1.36054e-07
0.000390632
-1.63253e-07
0.000390638
-1.90437e-07
0.000390646
-2.15949e-07
0.000390654
-2.37979e-07
0.000390664
-2.54692e-07
-2.6447e-07
0.000390674
0.000390612
-6.08947e-08
0.000390612
-7.57748e-08
0.000390613
-9.30505e-08
0.000390615
-1.12393e-07
0.000390619
-1.33216e-07
0.000390624
-1.54555e-07
0.000390631
-1.75081e-07
0.000390639
-1.93255e-07
0.000390649
-2.07372e-07
0.000390658
-2.15804e-07
0.000390667
-2.17248e-07
0.000390676
-2.11795e-07
0.000390683
-1.97386e-07
0.000390687
-1.74542e-07
0.000390689
-1.44749e-07
0.000390687
-1.09738e-07
0.000390682
-7.1611e-08
0.000390675
-3.26266e-08
0.000390665
4.99384e-09
0.000390654
3.8862e-08
0.000390643
6.79148e-08
0.000390631
9.10392e-08
0.00039062
1.07769e-07
0.000390611
1.18159e-07
0.000390604
1.22688e-07
0.000390598
1.22288e-07
0.000390594
1.17797e-07
0.000390593
1.09945e-07
0.000390592
1.00032e-07
0.000390593
8.89264e-08
0.000390595
7.73568e-08
0.000390598
6.58845e-08
0.0003906
5.48737e-08
0.000390603
4.45171e-08
0.000390606
3.48283e-08
0.000390608
2.56546e-08
0.00039061
1.66872e-08
0.000390612
7.46305e-09
0.000390613
-2.64607e-09
0.000390613
-1.42744e-08
0.000390613
-2.83227e-08
0.000390613
-4.56506e-08
0.000390613
-6.71105e-08
0.000390613
-9.34249e-08
0.000390614
-1.25054e-07
0.000390616
-1.62049e-07
0.00039062
-2.03904e-07
0.000390626
-2.49457e-07
0.000390635
-2.96842e-07
0.000390647
-3.43508e-07
0.000390661
-3.86488e-07
0.000390677
-4.22541e-07
0.000390695
-4.48529e-07
-4.61744e-07
0.000390713
0.000390609
-9.09524e-08
0.00039061
-1.19067e-07
0.000390612
-1.51702e-07
0.000390616
-1.88034e-07
0.000390622
-2.2677e-07
0.000390632
-2.65968e-07
0.000390644
-3.03084e-07
0.000390658
-3.35276e-07
0.000390673
-3.59463e-07
0.00039069
-3.72781e-07
0.000390706
-3.73749e-07
0.00039072
-3.6148e-07
0.000390731
-3.33051e-07
0.000390738
-2.90409e-07
0.000390739
-2.36088e-07
0.000390735
-1.73421e-07
0.000390726
-1.06276e-07
0.000390711
-3.84974e-08
0.000390693
2.54297e-08
0.000390673
8.24248e-08
0.000390652
1.30316e-07
0.000390632
1.67521e-07
0.000390613
1.93501e-07
0.000390598
2.08586e-07
0.000390585
2.13752e-07
0.000390576
2.11047e-07
0.00039057
2.01227e-07
0.000390568
1.86354e-07
0.000390568
1.68357e-07
0.00039057
1.48681e-07
0.000390573
1.28515e-07
0.000390578
1.0875e-07
0.000390583
8.99214e-08
0.000390588
7.22933e-08
0.000390593
5.58131e-08
0.000390597
4.01534e-08
0.0003906
2.4723e-08
0.000390602
8.66479e-09
0.000390603
-9.11379e-09
0.000390604
-2.98097e-08
0.000390603
-5.49644e-08
0.000390603
-8.60916e-08
0.000390602
-1.24647e-07
0.000390602
-1.71822e-07
0.000390603
-2.283e-07
0.000390607
-2.93988e-07
0.000390614
-3.67773e-07
0.000390626
-4.47347e-07
0.000390642
-5.29167e-07
0.000390663
-6.08525e-07
0.000390689
-6.80129e-07
0.000390719
-7.38283e-07
0.00039075
-7.77694e-07
-7.94019e-07
0.000390781
0.000390601
-1.53074e-07
0.000390602
-2.03835e-07
0.000390605
-2.62504e-07
0.000390613
-3.2737e-07
0.000390625
-3.95877e-07
0.000390641
-4.64324e-07
0.000390662
-5.28078e-07
0.000390688
-5.81998e-07
0.000390715
-6.20718e-07
0.000390744
-6.39432e-07
0.000390772
-6.36738e-07
0.000390796
-6.0921e-07
0.000390814
-5.53835e-07
0.000390824
-4.75104e-07
0.000390825
-3.77435e-07
0.000390816
-2.6701e-07
0.000390797
-1.5078e-07
0.00039077
-3.4853e-08
0.000390738
7.16009e-08
0.000390702
1.65564e-07
0.000390665
2.42838e-07
0.00039063
3.01276e-07
0.000390599
3.40428e-07
0.000390573
3.61245e-07
0.000390552
3.65854e-07
0.000390537
3.57705e-07
0.000390529
3.37826e-07
0.000390525
3.10583e-07
0.000390526
2.78732e-07
0.000390531
2.44651e-07
0.000390537
2.10238e-07
0.000390546
1.76871e-07
0.000390554
1.45324e-07
0.000390563
1.15912e-07
0.000390571
8.84351e-08
0.000390577
6.22287e-08
0.000390582
3.61862e-08
0.000390586
8.73737e-09
0.000390588
-2.19699e-08
0.000390588
-5.81679e-08
0.000390586
-1.02496e-07
0.000390584
-1.57567e-07
0.000390582
-2.25838e-07
0.000390582
-3.09231e-07
0.000390584
-4.08693e-07
0.000390591
-5.23723e-07
0.000390604
-6.51954e-07
0.000390625
-7.88892e-07
0.000390655
-9.27916e-07
0.000390693
-1.06049e-06
0.00039074
-1.17732e-06
0.000390792
-1.26861e-06
0.000390848
-1.32568e-06
-1.34217e-06
0.000390902
0.000390582
-2.66629e-07
0.000390584
-3.56198e-07
0.000390591
-4.59056e-07
0.000390605
-5.71848e-07
0.000390627
-6.89723e-07
0.000390656
-8.05823e-07
0.000390694
-9.11959e-07
0.000390739
-9.98991e-07
0.000390788
-1.0579e-06
0.000390838
-1.08088e-06
0.000390886
-1.06724e-06
0.000390926
-1.00838e-06
0.000390956
-9.03874e-07
0.000390971
-7.60928e-07
0.000390969
-5.88568e-07
0.000390949
-3.97737e-07
0.000390914
-2.00453e-07
0.000390865
-6.6337e-09
0.000390807
1.67175e-07
0.000390745
3.18616e-07
0.000390682
4.40332e-07
0.000390623
5.29669e-07
0.000390571
5.86634e-07
0.000390527
6.13467e-07
0.000390494
6.14519e-07
0.000390471
5.9502e-07
0.000390458
5.57169e-07
0.000390455
5.08668e-07
0.000390458
4.53629e-07
0.000390466
3.95866e-07
0.000390479
3.38341e-07
0.000390493
2.8307e-07
0.000390508
2.31183e-07
0.000390522
1.82972e-07
0.000390535
1.37916e-07
0.000390546
9.47346e-08
0.000390554
5.13961e-08
0.000390559
5.0398e-09
0.000390561
-4.72744e-08
0.00039056
-1.09807e-07
0.000390557
-1.86936e-07
0.000390552
-2.83094e-07
0.000390548
-4.02343e-07
0.000390546
-5.47686e-07
0.00039055
-7.20276e-07
0.000390562
-9.186e-07
0.000390586
-1.1378e-06
0.000390624
-1.36929e-06
0.000390677
-1.60089e-06
0.000390746
-1.81755e-06
0.000390828
-2.00318e-06
0.00039092
-2.14141e-06
0.000391015
-2.21825e-06
-2.22771e-06
0.000391108
0.000390548
-4.64933e-07
0.000390552
-6.20154e-07
0.000390565
-7.97022e-07
0.00039059
-9.8914e-07
0.000390628
-1.18751e-06
0.000390682
-1.37976e-06
0.000390749
-1.55164e-06
0.000390827
-1.6874e-06
0.000390913
-1.77224e-06
0.000390999
-1.79475e-06
0.000391079
-1.75423e-06
0.000391147
-1.63543e-06
0.000391193
-1.44228e-06
0.000391214
-1.18903e-06
0.000391205
-8.91554e-07
0.000391166
-5.68957e-07
0.0003911
-2.4085e-07
0.000391015
7.28312e-08
0.000390914
3.52976e-07
0.000390807
5.90768e-07
0.000390702
7.77508e-07
0.000390603
9.10065e-07
0.000390517
9.89671e-07
0.000390448
1.02092e-06
0.000390395
1.01254e-06
0.00039036
9.70335e-07
0.000390342
9.02126e-07
0.000390338
8.18091e-07
0.000390346
7.2524e-07
0.000390362
6.29464e-07
0.000390384
5.3525e-07
0.000390408
4.45464e-07
0.000390433
3.61666e-07
0.000390457
2.83979e-07
0.000390478
2.11247e-07
0.000390495
1.41098e-07
0.000390507
6.99399e-08
0.000390515
-7.64586e-09
0.000390516
-9.55899e-08
0.000390513
-2.02414e-07
0.000390505
-3.34961e-07
0.000390495
-5.00655e-07
0.000390487
-7.06038e-07
0.000390483
-9.55591e-07
0.00039049
-1.25034e-06
0.000390511
-1.58649e-06
0.000390554
-1.95435e-06
0.000390622
-2.33792e-06
0.000390717
-2.71508e-06
0.000390838
-3.06032e-06
0.000390981
-3.34594e-06
0.000391138
-3.54594e-06
0.000391301
-3.63898e-06
-3.62345e-06
0.000391455
0.000390486
-8.02332e-07
0.000390493
-1.0666e-06
0.000390517
-1.36503e-06
0.000390561
-1.68571e-06
0.00039063
-2.01227e-06
0.000390724
-2.32293e-06
0.000390841
-2.59334e-06
0.000390977
-2.79718e-06
0.000391124
-2.91019e-06
0.000391272
-2.92276e-06
0.000391403
-2.82062e-06
0.000391513
-2.59077e-06
0.000391585
-2.2449e-06
0.00039161
-1.80726e-06
0.000391585
-1.30622e-06
0.000391512
-7.73962e-07
0.000391393
-2.40895e-07
0.000391244
2.55375e-07
0.000391073
6.94116e-07
0.000390894
1.05833e-06
0.000390719
1.33697e-06
0.000390559
1.52735e-06
0.000390421
1.63345e-06
0.000390312
1.66362e-06
0.00039023
1.63433e-06
0.000390178
1.55173e-06
0.000390154
1.43253e-06
0.000390152
1.2911e-06
0.000390168
1.13828e-06
0.000390197
9.82982e-07
0.000390234
8.31872e-07
0.000390275
6.88883e-07
0.000390316
5.56019e-07
0.000390355
4.32951e-07
0.000390388
3.17342e-07
0.000390415
2.04908e-07
0.000390433
8.93508e-08
0.000390442
-3.80759e-08
0.000390441
-1.853e-07
0.000390432
-3.6545e-07
0.000390416
-5.90287e-07
0.000390397
-8.71839e-07
0.000390381
-1.22031e-06
0.000390373
-1.64194e-06
0.000390384
-2.13668e-06
0.000390423
-2.69587e-06
0.000390499
-3.3007e-06
0.000390619
-3.92197e-06
0.000390785
-4.52077e-06
0.000390994
-5.05446e-06
0.000391239
-5.47749e-06
0.000391505
-5.74988e-06
0.000391772
-5.84264e-06
-5.75921e-06
0.000392023
0.000390377
-1.36431e-06
0.00039039
-1.80582e-06
0.000390433
-2.29938e-06
0.000390511
-2.82319e-06
0.000390632
-3.34802e-06
0.000390796
-3.83678e-06
0.000390998
-4.24863e-06
0.000391231
-4.54124e-06
0.000391477
-4.67816e-06
0.000391721
-4.65084e-06
0.000391934
-4.42812e-06
0.000392109
-3.99956e-06
0.000392215
-3.39875e-06
0.000392242
-2.66288e-06
0.000392186
-1.84088e-06
0.000392051
-9.85639e-07
0.000391842
-1.39953e-07
0.000391589
6.23513e-07
0.000391304
1.29258e-06
0.00039101
1.83511e-06
0.000390727
2.23857e-06
0.000390472
2.50218e-06
0.000390254
2.63462e-06
0.000390084
2.65389e-06
0.000389961
2.58244e-06
0.000389887
2.43074e-06
0.000389855
2.22971e-06
0.000389858
1.99821e-06
0.000389889
1.75284e-06
0.000389939
1.50673e-06
0.000390001
1.26943e-06
0.000390069
1.04627e-06
0.000390135
8.39513e-07
0.000390197
6.47879e-07
0.000390249
4.66921e-07
0.000390289
2.89119e-07
0.000390314
1.0368e-07
0.000390324
-1.03333e-07
0.000390318
-3.46788e-07
0.000390297
-6.46814e-07
0.000390266
-1.023e-06
0.000390229
-1.49433e-06
0.000390198
-2.07606e-06
0.000390185
-2.77605e-06
0.000390205
-3.59078e-06
0.000390274
-4.50179e-06
0.000390407
-5.47363e-06
0.000390616
-6.45411e-06
0.000390901
-7.37732e-06
0.000391257
-8.1733e-06
0.000391667
-8.77066e-06
0.000392106
-9.10951e-06
0.000392546
-9.16723e-06
-8.92611e-06
0.00039294
0.000390189
-2.28075e-06
0.000390214
-3.00339e-06
0.000390289
-3.80188e-06
0.000390427
-4.63726e-06
0.000390636
-5.45829e-06
0.000390915
-6.20441e-06
0.000391258
-6.80778e-06
0.000391647
-7.20379e-06
0.000392053
-7.34215e-06
0.000392445
-7.21641e-06
0.00039279
-6.7653e-06
0.000393056
-6.00623e-06
0.000393207
-4.99124e-06
0.000393226
-3.78856e-06
0.00039311
-2.47667e-06
0.000392865
-1.13722e-06
0.000392516
1.55158e-07
0.000392093
1.30961e-06
0.000391628
2.29894e-06
0.000391156
3.08328e-06
0.000390708
3.64867e-06
0.000390309
3.99892e-06
0.000389974
4.15216e-06
0.000389715
4.13866e-06
0.000389534
3.99098e-06
0.00038943
3.72853e-06
0.00038939
3.39985e-06
0.000389405
3.03112e-06
0.000389461
2.6468e-06
0.000389546
2.26578e-06
0.000389648
1.90102e-06
0.000389756
1.55979e-06
0.000389861
1.24411e-06
0.000389956
9.50824e-07
0.000390035
6.71888e-07
0.000390093
3.94445e-07
0.000390127
1.00384e-07
0.000390134
-2.3237e-07
0.000390116
-6.29544e-07
0.000390073
-1.12264e-06
0.000390013
-1.74285e-06
0.000389946
-2.51917e-06
0.00038989
-3.47324e-06
0.000389867
-4.61303e-06
0.000389903
-5.92645e-06
0.000390025
-7.3761e-06
0.000390256
-8.89715e-06
0.000390615
-1.03981e-05
0.000391097
-1.17739e-05
0.000391691
-1.29105e-05
0.000392365
-1.37038e-05
0.000393079
-1.40717e-05
0.000393773
-1.40141e-05
-1.34494e-05
0.000394379
0.000389872
-3.74165e-06
0.000389918
-4.89781e-06
0.000390049
-6.15818e-06
0.000390287
-7.45475e-06
0.000390642
-8.70091e-06
0.000391112
-9.7994e-06
0.00039168
-1.06431e-05
0.000392315
-1.11352e-05
0.00039298
-1.12353e-05
0.000393595
-1.08836e-05
0.000394132
-1.00349e-05
0.000394525
-8.73935e-06
0.000394729
-7.08395e-06
0.00039472
-5.17908e-06
0.000394496
-3.14772e-06
0.00039407
-1.10979e-06
0.000393495
8.05702e-07
0.000392809
2.50206e-06
0.000392068
3.92234e-06
0.000391328
5.02145e-06
0.000390634
5.78686e-06
0.000390023
6.23142e-06
0.00038952
6.38773e-06
0.000389132
6.3074e-06
0.000388875
6.02681e-06
0.00038873
5.59685e-06
0.000388685
5.07555e-06
0.000388722
4.50405e-06
0.000388819
3.91708e-06
0.000388958
3.34085e-06
0.00038912
2.79255e-06
0.000389288
2.28143e-06
0.000389451
1.80855e-06
0.000389594
1.36735e-06
0.000389711
9.43889e-07
0.000389792
5.16554e-07
0.000389835
5.56958e-08
0.000389833
-4.72657e-07
0.000389788
-1.11201e-06
0.000389704
-1.91083e-06
0.000389593
-2.91703e-06
0.000389475
-4.17313e-06
0.000389378
-5.70735e-06
0.00038934
-7.52329e-06
0.000389407
-9.58999e-06
0.00038962
-1.1835e-05
0.000390019
-1.41432e-05
0.000390621
-1.63622e-05
0.000391421
-1.83277e-05
0.000392391
-1.98662e-05
0.000393475
-2.08346e-05
0.00039459
-2.11376e-05
0.000395665
-2.07868e-05
-1.96786e-05
0.000396584
0.000389348
-6.01229e-06
0.000389431
-7.81538e-06
0.000389658
-9.75002e-06
0.000390062
-1.17004e-05
0.000390654
-1.35268e-05
0.000391428
-1.50763e-05
0.000392355
-1.61903e-05
0.000393376
-1.67388e-05
0.00039441
-1.66878e-05
0.000395359
-1.59017e-05
0.000396176
-1.44128e-05
0.000396743
-1.22863e-05
0.000397003
-9.67898e-06
0.000396927
-6.76035e-06
0.000396522
-3.71487e-06
0.000395804
-7.0608e-07
0.000394878
2.04666e-06
0.000393795
4.46047e-06
0.000392645
6.43775e-06
0.00039151
7.92872e-06
0.000390459
8.92739e-06
0.000389545
9.46209e-06
0.000388805
9.58733e-06
0.000388243
9.38294e-06
0.000387878
8.89674e-06
0.000387685
8.21465e-06
0.00038764
7.41418e-06
0.000387714
6.55286e-06
0.000387876
5.67892e-06
0.000388096
4.82809e-06
0.000388347
4.02218e-06
0.000388605
3.27237e-06
0.000388849
2.57739e-06
0.000389061
1.92493e-06
0.000389228
1.2916e-06
0.000389337
6.42113e-07
0.000389384
-7.22902e-08
0.000389359
-8.9971e-07
0.000389263
-1.91478e-06
0.000389107
-3.18863e-06
0.000388909
-4.79233e-06
0.000388704
-6.78474e-06
0.000388543
-9.1977e-06
0.000388488
-1.20197e-05
0.000388612
-1.51818e-05
0.000388982
-1.85498e-05
0.000389657
-2.19259e-05
0.000390649
-2.50742e-05
0.000391948
-2.77402e-05
0.00039349
-2.96862e-05
0.000395178
-3.0716e-05
0.000396935
-3.08311e-05
0.000398492
-2.9841e-05
-2.78053e-05
0.000399861
0.000388501
-9.44148e-06
0.000388651
-1.2173e-05
0.000389037
-1.5049e-05
0.000389711
-1.78774e-05
0.000390677
-2.04479e-05
0.000391926
-2.25233e-05
0.000393395
-2.38843e-05
0.000394983
-2.43865e-05
0.000396579
-2.39711e-05
0.000398013
-2.24838e-05
0.000399203
-1.99634e-05
0.000399992
-1.66261e-05
0.000400299
-1.26715e-05
0.000400091
-8.3536e-06
0.000399388
-3.93777e-06
0.000398233
3.61103e-07
0.00039678
4.1925e-06
0.000395116
7.51931e-06
0.000393373
1.01843e-05
0.000391675
1.21392e-05
0.000390121
1.33917e-05
0.000388784
1.39942e-05
0.000387713
1.40341e-05
0.000386919
1.36217e-05
0.000386414
1.28266e-05
0.000386162
1.17852e-05
0.000386126
1.05934e-05
0.000386261
9.33097e-06
0.000386521
8.0628e-06
0.00038686
6.83619e-06
0.00038724
5.67818e-06
0.000387624
4.60089e-06
0.000387981
3.59869e-06
0.000388286
2.64983e-06
0.000388518
1.71629e-06
0.000388656
7.42223e-07
0.000388696
-3.51062e-07
0.000388619
-1.6302e-06
0.000388433
-3.21746e-06
0.000388152
-5.21363e-06
0.000387812
-7.71935e-06
0.000387471
-1.08093e-05
0.000387213
-1.45087e-05
0.000387142
-1.87688e-05
0.000387372
-2.34495e-05
0.000388008
-2.83146e-05
0.000389122
-3.30436e-05
0.000390725
-3.72901e-05
0.000392777
-4.06882e-05
0.000395178
-4.29328e-05
0.000397763
-4.38316e-05
0.000400283
-4.33658e-05
0.000402613
-4.13521e-05
-3.79487e-05
0.000404562
0.000387168
-1.44514e-05
0.000387433
-1.84533e-05
0.000388083
-2.25719e-05
0.000389176
-2.65083e-05
0.000390725
-2.99505e-05
0.000392687
-3.2567e-05
0.000394972
-3.4066e-05
0.000397424
-3.43757e-05
0.000399726
-3.32024e-05
0.000401858
-3.05585e-05
0.000403543
-2.66103e-05
0.000404598
-2.15839e-05
0.000404925
-1.58118e-05
0.000404488
-9.64929e-06
0.000403309
-3.45038e-06
0.000401552
2.42404e-06
0.000399325
7.65238e-06
0.00039683
1.20779e-05
0.000394256
1.55509e-05
0.000391776
1.80246e-05
0.000389532
1.95287e-05
0.000387615
2.01516e-05
0.000386102
2.00256e-05
0.000385004
1.92933e-05
0.00038432
1.80588e-05
0.000384001
1.65233e-05
0.000383987
1.48009e-05
0.000384214
1.30012e-05
0.000384616
1.12076e-05
0.000385125
9.48129e-06
0.000385684
7.85442e-06
0.000386241
6.33837e-06
0.000386752
4.91983e-06
0.000387178
3.56221e-06
0.000387486
2.20512e-06
0.000387652
7.61876e-07
0.000387653
-8.80424e-07
0.00038748
-2.83896e-06
0.000387137
-5.27788e-06
0.000386652
-8.34504e-06
0.000386086
-1.21726e-05
0.000385538
-1.68417e-05
0.000385146
-2.23465e-05
0.000385077
-2.8561e-05
0.000385501
-3.52232e-05
0.000386576
-4.19373e-05
0.000388371
-4.824e-05
0.000390895
-5.36242e-05
0.000394051
-5.76282e-05
0.000397649
-5.98949e-05
0.000401503
-6.03915e-05
0.000405124
-5.8766e-05
0.000408414
-5.51783e-05
-4.98353e-05
0.000411059
0.000385131
-2.14928e-05
0.000385593
-2.71345e-05
0.000386663
-3.27811e-05
0.000388399
-3.80082e-05
0.000390813
-4.23605e-05
0.000393824
-4.5416e-05
0.000397244
-4.68575e-05
0.000400765
-4.65719e-05
0.000404187
-4.42429e-05
0.000407233
-3.99719e-05
0.000409546
-3.40202e-05
0.000410918
-2.67809e-05
0.000411217
-1.86873e-05
0.000410417
-1.02044e-05
0.000408549
-1.7988e-06
0.000405896
5.98234e-06
0.000402613
1.28587e-05
0.000398982
1.85639e-05
0.00039528
2.29413e-05
0.00039175
2.5961e-05
0.000388577
2.76876e-05
0.0003859
2.82555e-05
0.000383805
2.78453e-05
0.000382316
2.66499e-05
0.000381407
2.48318e-05
0.000381008
2.26369e-05
0.000381038
2.02206e-05
0.000381399
1.77228e-05
0.000381999
1.52508e-05
0.00038274
1.28786e-05
0.000383541
1.06434e-05
0.000384329
8.55302e-06
0.000385039
6.58132e-06
0.000385615
4.66932e-06
0.000386006
2.72269e-06
0.00038618
6.12553e-07
0.000386098
-1.82418e-06
0.00038575
-4.77108e-06
0.000385146
-8.44896e-06
0.000384338
-1.30579e-05
0.000383431
-1.87539e-05
0.000382588
-2.55979e-05
0.00038203
-3.35051e-05
0.000382012
-4.22093e-05
0.000382792
-5.12585e-05
0.000384554
-6.00566e-05
0.000387384
-6.7964e-05
0.000391248
-7.43227e-05
0.000395958
-7.86004e-05
0.000401268
-8.05588e-05
0.000406586
-7.99449e-05
0.000411682
-7.66325e-05
0.000416214
-7.0804e-05
-6.29794e-05
0.000419742
0.000382117
-3.09486e-05
0.000382916
-3.8558e-05
0.000384624
-4.59382e-05
0.000387321
-5.25037e-05
0.000390977
-5.76599e-05
0.000395427
-6.08976e-05
0.000400465
-6.20689e-05
0.000405482
-6.06154e-05
0.000410336
-5.65807e-05
0.000414494
-5.01187e-05
0.000417565
-4.16372e-05
0.000419289
-3.16579e-05
0.000419476
-2.07198e-05
0.000418151
-9.48741e-06
0.000415316
1.56976e-06
0.000411445
1.15209e-05
0.000406739
2.02779e-05
0.000401601
2.73958e-05
0.000396414
3.27359e-05
0.000391505
3.62899e-05
0.00038713
3.81734e-05
0.000383475
3.85759e-05
0.000380632
3.77361e-05
0.000378647
3.59166e-05
0.000377457
3.33413e-05
0.000376971
3.03033e-05
0.00037707
2.70108e-05
0.000377617
2.36376e-05
0.000378484
2.03143e-05
0.000379531
1.71315e-05
0.00038065
1.41271e-05
0.000381734
1.13014e-05
0.000382691
8.60836e-06
0.000383442
5.95597e-06
0.000383911
3.20106e-06
0.000384051
1.55827e-07
0.000383804
-3.40775e-06
0.000383159
-7.76006e-06
0.000382144
-1.31886e-05
0.000380851
-1.9938e-05
0.000379455
-2.81593e-05
0.000378223
-3.78373e-05
0.000377498
-4.87315e-05
0.00037765
-6.03535e-05
0.000379039
-7.19981e-05
0.000381852
-8.28735e-05
0.000386187
-9.21313e-05
0.000391904
-9.90594e-05
0.000398748
-0.00010313
0.00040615
-0.000104257
0.000413481
-0.000101762
0.000420441
-9.60636e-05
0.000426399
-8.74944e-05
-7.65878e-05
0.00043089
0.000377831
-4.29884e-05
0.000379173
-5.27567e-05
0.000381834
-6.19044e-05
0.000385903
-6.96748e-05
0.000391284
-7.53653e-05
0.000397735
-7.85335e-05
0.000404645
-7.8805e-05
0.000411681
-7.57681e-05
0.000418312
-6.94438e-05
0.000423887
-6.02745e-05
0.00042791
-4.87512e-05
0.000429976
-3.55028e-05
0.000429966
-2.12958e-05
0.000427848
-6.85909e-06
0.000423892
7.05441e-06
0.000418363
1.95836e-05
0.000411797
3.03451e-05
0.000404715
3.89458e-05
0.000397617
4.52439e-05
0.00039095
4.92755e-05
0.000385054
5.12055e-05
0.000380167
5.13013e-05
0.000376382
4.98691e-05
0.000373772
4.72435e-05
0.000372243
4.37183e-05
0.000371661
3.96453e-05
0.000371861
3.5285e-05
0.000372654
3.08487e-05
0.000373866
2.64921e-05
0.000375306
2.23178e-05
0.000376824
1.83656e-05
0.000378273
1.46184e-05
0.000379525
1.10005e-05
0.00038046
7.37336e-06
0.000380979
3.52791e-06
0.000381009
-8.11698e-07
0.000380465
-5.9336e-06
0.000379347
-1.2232e-05
0.000377714
-2.00472e-05
0.00037573
-2.96372e-05
0.000373685
-4.10835e-05
0.000372
-5.42027e-05
0.000371178
-6.85012e-05
0.000371748
-8.31955e-05
0.000374095
-9.73249e-05
0.000378474
-0.000109895
0.000384864
-0.000119987
0.000393012
-0.000126873
0.000402557
-0.000130354
0.000412473
-0.000129616
0.000422346
-0.00012487
0.000431507
-0.000116188
0.000439119
-0.000104234
-8.98516e-05
0.000444713
0.000371998
-5.73938e-05
0.000374171
-6.92869e-05
0.000378201
-8.00187e-05
0.000384132
-8.86812e-05
0.0003918
-9.45413e-05
0.000400719
-9.7331e-05
0.000410137
-9.60761e-05
0.000419655
-9.09562e-05
0.000428476
-8.20052e-05
0.000435717
-6.95894e-05
0.000440737
-5.45883e-05
0.00044322
-3.77316e-05
0.000442932
-1.98532e-05
0.000439804
-1.82552e-06
0.000434251
1.52278e-05
0.000426694
3.05092e-05
0.000417802
4.33817e-05
0.000408294
5.34668e-05
0.00039883
6.06568e-05
0.00038999
6.50535e-05
0.00038221
6.68932e-05
0.00037579
6.65094e-05
0.000370864
6.42891e-05
0.000367486
6.06773e-05
0.000365545
5.6009e-05
0.000364852
5.07097e-05
0.000365186
4.50918e-05
0.00036629
3.94057e-05
0.000367931
3.38317e-05
0.000369856
2.84795e-05
0.000371858
2.33844e-05
0.000373738
1.85051e-05
0.000375318
1.37205e-05
0.000376423
8.82565e-06
0.000376928
3.53263e-06
0.000376713
-2.55425e-06
0.00037568
-9.78698e-06
0.000373849
-1.86893e-05
0.000371342
-2.96166e-05
0.000368444
-4.27681e-05
0.000365626
-5.80472e-05
0.000363515
-7.49876e-05
0.000362809
-9.27634e-05
0.00036416
-0.000110254
0.000367999
-0.000126357
0.00037451
-0.000139949
0.000383564
-0.000150181
0.000394889
-0.000156657
0.000407265
-0.000158594
0.000420543
-0.000155814
0.000433465
-0.000148118
0.000445059
-0.00013596
0.000454564
-0.000120307
-0.000102065
0.000461393
0.00036443
-7.34342e-05
0.000367805
-8.71943e-05
0.000373682
-9.91091e-05
0.000382003
-0.000108234
0.000392491
-0.000114083
0.000404259
-0.000115756
0.000416876
-0.000112999
0.000429486
-0.000105415
0.000440777
-9.32672e-05
0.000449899
-7.74761e-05
0.000456191
-5.8698e-05
0.00045916
-3.79367e-05
0.000458549
-1.60582e-05
0.000454098
6.01781e-06
0.000446569
2.64134e-05
0.000436495
4.45984e-05
0.000424771
5.96044e-05
0.00041232
7.10967e-05
0.000399999
7.90435e-05
0.000388522
8.36348e-05
0.000378466
8.51876e-05
0.000370207
8.41321e-05
0.000363895
8.09328e-05
0.000359599
7.61377e-05
0.000357164
7.01487e-05
0.000356339
6.34464e-05
0.000356834
5.63975e-05
0.000358313
4.92886e-05
0.000360467
4.23221e-05
0.000362966
3.56069e-05
0.000365529
2.9164e-05
0.000367889
2.29175e-05
0.000369799
1.66813e-05
0.000371029
1.01629e-05
0.000371396
2.97774e-06
0.000370731
-5.4019e-06
0.00036895
-1.54174e-05
0.000366111
-2.76567e-05
0.000362457
-4.24221e-05
0.000358468
-5.97297e-05
0.00035487
-7.91715e-05
0.000352508
-9.99068e-05
0.000352342
-0.000120698
0.000354981
-0.000140341
0.000360895
-0.000157541
0.000370106
-0.000171355
0.000382485
-0.000181215
0.000397025
-0.000186721
0.000413397
-0.000186986
0.000430474
-0.000181716
0.000446797
-0.000171002
0.000461258
-0.000154963
0.000472727
-0.000135223
-0.000112974
0.000480843
0.000355052
-8.99337e-05
0.00036006
-0.000105066
0.0003683
-0.000117734
0.000379582
-0.000127073
0.000393158
-0.000132589
0.000408704
-0.000133169
0.000425011
-0.000128544
0.000440967
-0.000118494
0.00045527
-0.000103251
0.000466617
-8.36852e-05
0.000474382
-6.10088e-05
0.000477905
-3.60739e-05
0.000476835
-9.77761e-06
0.000471057
1.66017e-05
0.000461007
4.09278e-05
0.000447859
6.20939e-05
0.000432717
7.91871e-05
0.000416767
9.19192e-05
0.000401049
0.000100396
0.000386471
0.000104917
0.000373743
0.000105921
0.00036332
0.000103949
0.000355352
9.96016e-05
0.000349969
9.34044e-05
0.000346939
8.59538e-05
0.000345948
7.76981e-05
0.000346622
6.90748e-05
0.000348534
6.03969e-05
0.000351273
5.18827e-05
0.000354418
4.36282e-05
0.000357601
3.56317e-05
0.00036046
2.77549e-05
0.000362657
1.9735e-05
0.000363907
1.11708e-05
0.00036394
1.55024e-06
0.000362544
-9.75236e-06
0.000359693
-2.3286e-05
0.000355535
-3.95773e-05
0.000350517
-5.87566e-05
0.000345411
-8.05001e-05
0.000341199
-0.000103981
0.000339082
-0.000127892
0.000339936
-0.000150895
0.000344498
-0.000171595
0.000353012
-0.000188991
0.000365441
-0.000202384
0.000381331
-0.000211748
0.000399855
-0.000215837
0.000420391
-0.000214629
0.000441918
-0.000207516
0.000462377
-0.00019354
0.00047966
-0.000173222
0.000493323
-0.000149073
-0.000123
0.000503125
0.000343942
-0.000105386
0.000350992
-0.000121391
0.000361969
-0.000134464
0.000376612
-0.000144197
0.000393957
-0.000149051
0.000413436
-0.000148705
0.000434115
-0.00014297
0.000454252
-0.000130648
0.000471802
-0.000112112
0.000485677
-8.86351e-05
0.00049528
-6.20176e-05
0.00049965
-3.26733e-05
0.000498142
-1.34639e-06
0.000490509
3.00456e-05
0.000477503
5.88234e-05
0.000460683
8.32051e-05
0.000441535
0.000102303
0.000421502
0.000116015
0.000401876
0.000124654
0.000383747
0.000128724
0.000367952
0.000128827
0.000355024
0.000125649
0.000345171
0.000119923
0.000338509
0.000112136
0.000334764
0.000103128
0.000333561
9.31965e-05
0.000334418
8.28968e-05
0.000336798
7.25443e-05
0.000340169
6.23584e-05
0.000344008
5.24067e-05
0.000347823
4.26451e-05
0.000351145
3.28561e-05
0.000353526
2.26725e-05
0.000354606
1.15734e-05
0.000354028
-1.10857e-06
0.00035157
-1.6007e-05
0.000347304
-3.37565e-05
0.000341582
-5.46594e-05
0.000335164
-7.84951e-05
0.000329126
-0.000104478
0.000324851
-0.000131259
0.000323519
-0.000157372
0.00032609
-0.00018134
0.000333066
-0.000202066
0.000344544
-0.000218878
0.000360408
-0.000231826
0.000379701
-0.000240048
0.000402434
-0.00024378
0.000427904
-0.000242057
0.000454613
-0.000233802
0.00047951
-0.000216544
0.000499504
-0.000190945
0.000515275
-0.000162463
-0.000133451
0.000527592
0.000331277
-0.000118335
0.000340645
-0.000134871
0.000354698
-0.000148499
0.00037264
-0.000158347
0.000394003
-0.0001635
0.000418182
-0.000163062
0.000443724
-0.000156882
0.000468735
-0.00014298
0.000490061
-0.000120751
0.000506796
-9.32472e-05
0.000518939
-6.29792e-05
0.000524798
-2.90202e-05
0.000522825
8.64282e-06
0.000512818
4.63292e-05
0.000496136
8.04426e-05
0.000474902
0.000108365
0.000451038
0.000129335
0.000426315
0.000143615
0.000402276
0.00015186
0.000380194
0.000154897
0.000361002
0.000153582
0.000345269
0.000148853
0.000333301
0.000141407
0.000325161
0.000131913
0.000320601
0.000121222
0.00031913
0.000109558
0.000320148
9.75403e-05
0.000323001
8.54595e-05
0.000327011
7.35158e-05
0.000331539
6.17352e-05
0.000335942
4.9996e-05
0.000339609
3.79888e-05
0.000341993
2.52346e-05
0.000342586
1.10566e-05
0.000341069
-5.37421e-06
0.000337188
-2.44824e-05
0.000331244
-4.69866e-05
0.000323919
-7.27206e-05
0.00031632
-0.000100973
0.000309958
-0.000130386
0.000306296
-0.000159361
0.000306482
-0.000186343
0.000311316
-0.000210089
0.00032103
-0.000229952
0.000335515
-0.000245933
0.00035412
-0.000257964
0.00037709
-0.000266338
0.000404101
-0.000270297
0.000434323
-0.000270033
0.000466606
-0.000261814
0.000495711
-0.00024062
0.000517315
-0.000208187
0.000534842
-0.000175769
-0.000146393
0.000551109
0.000317242
-0.000127639
0.000329023
-0.000144698
0.000345824
-0.000159275
0.000367308
-0.000170034
0.000392866
-0.000176096
0.000421467
-0.000176624
0.000453097
-0.000172183
0.000483553
-0.000157092
0.000508352
-0.000130114
0.000528132
-9.83807e-05
0.000544397
-6.61467e-05
0.000553277
-2.7417e-05