/*--------------------------------*- C++ -*----------------------------------*\
  =========                 |
  \\      /  F ield         | OpenFOAM: The Open Source CFD Toolbox
   \\    /   O peration     | Website:  https://openfoam.org
    \\  /    A nd           | Version:  10
     \\/     M anipulation  |
\*---------------------------------------------------------------------------*/
FoamFile
{
    format      ascii;
    class       volScalarField;
    location    "0.048781";
    object      T;
}
// * * * * * * * * * * * * * * * * * * * * * * * * * * * * * * * * * * * * * //

dimensions      [0 0 0 1 0 0 0];

internalField   nonuniform List<scalar> 
15984
(
0.00871089
0.00871091
0.00871093
0.00871095
0.00871097
0.00871099
0.00871101
0.00871103
0.00871104
0.00871106
0.00871107
0.00871107
0.00871107
0.00871107
0.00871106
0.00871105
0.00871104
0.00871102
0.00871101
0.00871099
0.00871098
0.00871097
0.00871096
0.00871095
0.00871095
0.00871095
0.00871095
0.00871095
0.00871095
0.00871096
0.00871096
0.00871097
0.00871097
0.00871098
0.00871099
0.00871099
0.008711
0.008711
0.00871101
0.00871102
0.00871102
0.00871103
0.00871104
0.00871105
0.00871107
0.00871108
0.0087111
0.00871112
0.00871113
0.00871115
0.00871117
0.00871118
0.0087112
0.0087112
0.00871096
0.00871098
0.008711
0.00871102
0.00871105
0.00871107
0.00871109
0.00871112
0.00871113
0.00871115
0.00871115
0.00871115
0.00871115
0.00871113
0.00871111
0.00871109
0.00871106
0.00871103
0.008711
0.00871098
0.00871095
0.00871094
0.00871092
0.00871091
0.0087109
0.0087109
0.00871091
0.00871091
0.00871092
0.00871093
0.00871094
0.00871094
0.00871095
0.00871096
0.00871097
0.00871098
0.00871099
0.008711
0.00871101
0.00871102
0.00871103
0.00871104
0.00871106
0.00871108
0.00871111
0.00871113
0.00871117
0.0087112
0.00871124
0.00871127
0.00871131
0.00871134
0.00871136
0.00871137
0.00871103
0.00871105
0.00871108
0.00871111
0.00871115
0.00871118
0.00871122
0.00871125
0.00871127
0.00871129
0.00871129
0.00871129
0.00871127
0.00871124
0.0087112
0.00871116
0.0087111
0.00871105
0.008711
0.00871095
0.00871091
0.00871088
0.00871085
0.00871084
0.00871083
0.00871083
0.00871083
0.00871084
0.00871086
0.00871087
0.00871089
0.0087109
0.00871092
0.00871094
0.00871095
0.00871096
0.00871098
0.00871099
0.00871101
0.00871103
0.00871105
0.00871107
0.0087111
0.00871114
0.00871119
0.00871124
0.0087113
0.00871137
0.00871143
0.0087115
0.00871156
0.00871161
0.00871164
0.00871166
0.0087111
0.00871115
0.00871119
0.00871125
0.00871131
0.00871137
0.00871142
0.00871147
0.00871151
0.00871153
0.00871153
0.00871151
0.00871148
0.00871142
0.00871134
0.00871126
0.00871116
0.00871107
0.00871098
0.00871089
0.00871082
0.00871077
0.00871073
0.0087107
0.00871069
0.0087107
0.00871071
0.00871073
0.00871075
0.00871078
0.00871081
0.00871084
0.00871086
0.00871089
0.00871092
0.00871094
0.00871096
0.00871099
0.00871102
0.00871105
0.00871109
0.00871113
0.00871119
0.00871126
0.00871134
0.00871144
0.00871155
0.00871166
0.00871178
0.0087119
0.008712
0.00871209
0.00871214
0.00871217
0.00871122
0.00871129
0.00871138
0.00871148
0.00871158
0.00871168
0.00871177
0.00871185
0.00871191
0.00871193
0.00871193
0.00871189
0.00871182
0.00871171
0.00871157
0.00871141
0.00871124
0.00871107
0.00871092
0.00871078
0.00871066
0.00871057
0.00871051
0.00871048
0.00871046
0.00871047
0.00871049
0.00871053
0.00871058
0.00871063
0.00871068
0.00871073
0.00871077
0.00871082
0.00871086
0.0087109
0.00871094
0.00871099
0.00871103
0.00871109
0.00871116
0.00871125
0.00871135
0.00871148
0.00871163
0.0087118
0.00871199
0.00871219
0.0087124
0.0087126
0.00871277
0.0087129
0.00871299
0.00871301
0.00871142
0.00871155
0.0087117
0.00871187
0.00871204
0.00871222
0.00871237
0.0087125
0.00871259
0.00871262
0.00871259
0.00871252
0.00871237
0.00871216
0.00871191
0.00871163
0.00871134
0.00871105
0.00871079
0.00871056
0.00871038
0.00871023
0.00871014
0.00871009
0.00871008
0.0087101
0.00871015
0.00871021
0.00871029
0.00871038
0.00871047
0.00871055
0.00871063
0.00871071
0.00871078
0.00871085
0.00871092
0.00871099
0.00871108
0.00871118
0.0087113
0.00871145
0.00871164
0.00871186
0.00871213
0.00871243
0.00871277
0.00871312
0.00871347
0.0087138
0.00871407
0.00871428
0.00871441
0.00871441
0.00871176
0.00871199
0.00871225
0.00871255
0.00871285
0.00871314
0.00871339
0.0087136
0.00871372
0.00871374
0.00871368
0.00871353
0.00871325
0.00871286
0.00871242
0.00871194
0.00871144
0.00871097
0.00871054
0.00871017
0.00870987
0.00870965
0.00870951
0.00870945
0.00870945
0.00870949
0.00870958
0.0087097
0.00870984
0.00870999
0.00871013
0.00871027
0.00871041
0.00871053
0.00871065
0.00871076
0.00871088
0.00871101
0.00871116
0.00871133
0.00871155
0.00871181
0.00871214
0.00871254
0.00871301
0.00871353
0.0087141
0.0087147
0.00871528
0.00871581
0.00871625
0.00871656
0.00871672
0.00871664
0.00871235
0.00871275
0.00871321
0.0087137
0.00871421
0.00871468
0.00871509
0.0087154
0.00871558
0.00871555
0.00871541
0.00871512
0.00871458
0.00871391
0.00871315
0.00871234
0.00871151
0.00871075
0.00871006
0.00870947
0.00870901
0.00870869
0.00870849
0.00870841
0.00870843
0.00870852
0.00870869
0.0087089
0.00870913
0.00870938
0.00870961
0.00870984
0.00871006
0.00871026
0.00871046
0.00871065
0.00871084
0.00871106
0.00871131
0.00871161
0.00871199
0.00871245
0.00871303
0.00871371
0.00871451
0.0087154
0.00871636
0.00871734
0.00871828
0.00871911
0.00871977
0.00872021
0.00872034
0.0087202
0.00871335
0.00871403
0.00871481
0.00871563
0.00871646
0.00871722
0.00871785
0.0087183
0.0087185
0.00871841
0.00871807
0.00871753
0.00871655
0.0087154
0.00871413
0.0087128
0.00871147
0.00871027
0.00870918
0.00870829
0.0087076
0.00870713
0.00870684
0.00870679
0.00870684
0.00870701
0.00870732
0.00870767
0.00870805
0.00870844
0.00870882
0.00870919
0.00870954
0.00870987
0.00871018
0.00871049
0.00871081
0.00871117
0.0087116
0.00871211
0.00871276
0.00871356
0.00871453
0.00871569
0.00871703
0.00871852
0.00872008
0.00872167
0.00872313
0.00872439
0.00872534
0.00872591
0.00872592
0.00872558
0.00871503
0.00871617
0.00871745
0.00871879
0.00872012
0.00872128
0.00872222
0.00872284
0.008723
0.00872275
0.00872214
0.00872097
0.00871934
0.00871744
0.00871537
0.00871324
0.00871118
0.00870931
0.00870767
0.00870634
0.00870534
0.00870466
0.00870432
0.00870427
0.0087044
0.00870474
0.00870524
0.00870581
0.00870642
0.00870704
0.00870765
0.00870823
0.00870877
0.00870929
0.00870978
0.00871028
0.00871081
0.0087114
0.00871211
0.00871299
0.00871407
0.00871542
0.00871706
0.00871899
0.00872119
0.00872359
0.00872609
0.00872856
0.00873076
0.00873259
0.00873387
0.00873451
0.00873421
0.00873354
0.00871778
0.00871965
0.00872171
0.00872383
0.00872586
0.00872759
0.00872892
0.0087297
0.00872966
0.00872911
0.00872789
0.00872585
0.00872313
0.00872006
0.00871681
0.00871349
0.00871041
0.00870758
0.00870516
0.00870324
0.00870182
0.00870091
0.0087005
0.0087005
0.00870076
0.00870138
0.00870217
0.00870307
0.00870403
0.008705
0.00870593
0.00870682
0.00870766
0.00870846
0.00870924
0.00871002
0.00871087
0.00871185
0.00871302
0.00871448
0.00871628
0.00871851
0.0087212
0.00872434
0.00872787
0.00873166
0.00873552
0.0087392
0.00874239
0.0087449
0.00874648
0.00874684
0.00874642
0.00874442
0.00872217
0.00872515
0.00872836
0.00873163
0.00873459
0.00873708
0.00873883
0.00873959
0.0087392
0.00873812
0.00873577
0.00873226
0.00872796
0.00872318
0.00871824
0.00871324
0.00870876
0.00870464
0.00870119
0.00869849
0.00869655
0.00869537
0.00869491
0.008695
0.00869551
0.00869652
0.00869776
0.00869915
0.0087006
0.00870207
0.00870348
0.00870483
0.0087061
0.00870731
0.00870851
0.00870973
0.0087111
0.00871268
0.00871459
0.00871696
0.00871991
0.00872353
0.00872784
0.00873282
0.00873832
0.00874409
0.00874986
0.00875505
0.00875946
0.00876261
0.00876432
0.00876408
0.00876244
0.00875987
0.008729
0.0087336
0.00873846
0.00874326
0.00874743
0.00875077
0.00875287
0.00875327
0.00875264
0.00874962
0.00874603
0.00874033
0.0087337
0.00872656
0.00871925
0.0087121
0.00870569
0.00869992
0.00869515
0.00869148
0.00868891
0.00868743
0.00868699
0.00868721
0.00868811
0.00868969
0.00869157
0.00869365
0.00869581
0.00869796
0.00870006
0.00870205
0.00870394
0.00870576
0.00870757
0.00870948
0.00871163
0.00871413
0.0087172
0.00872102
0.00872574
0.00873147
0.00873823
0.00874589
0.00875416
0.00876264
0.00877075
0.00877783
0.00878337
0.00878705
0.00878809
0.00878697
0.00878427
0.00877817
0.00873927
0.00874614
0.00875323
0.00875988
0.0087655
0.00876959
0.00877182
0.00877135
0.00876898
0.0087653
0.00875805
0.00874966
0.00873991
0.00872966
0.00871924
0.00870948
0.00870055
0.00869273
0.00868635
0.00868151
0.00867822
0.00867637
0.00867607
0.00867651
0.00867801
0.00868037
0.00868311
0.00868614
0.00868927
0.00869237
0.00869539
0.00869828
0.00870104
0.00870373
0.00870644
0.00870936
0.00871268
0.00871663
0.00872147
0.00872748
0.00873486
0.00874372
0.00875399
0.00876536
0.00877729
0.00878922
0.00879987
0.00880885
0.00881531
0.00881871
0.00881824
0.00881588
0.00880945
0.00880106
0.00875416
0.00876402
0.00877388
0.00878255
0.00878954
0.0087942
0.00879546
0.00879399
0.00878989
0.008782
0.00877183
0.00875939
0.00874566
0.0087316
0.00871729
0.00870451
0.00869255
0.00868231
0.0086741
0.00866781
0.00866372
0.00866167
0.00866145
0.00866221
0.00866465
0.00866798
0.00867187
0.00867613
0.00868056
0.00868491
0.00868918
0.00869328
0.00869724
0.00870116
0.00870516
0.00870959
0.00871466
0.00872076
0.00872826
0.00873751
0.00874877
0.00876204
0.00877707
0.00879324
0.00880975
0.00882518
0.00883858
0.00884879
0.00885529
0.00885687
0.00885467
0.00884845
0.00883961
0.0088252
0.00877481
0.00878837
0.00880105
0.00881185
0.00881976
0.00882405
0.00882346
0.00882018
0.00881242
0.00879997
0.00878538
0.00876836
0.00874979
0.00873123
0.00871255
0.00869619
0.00868092
0.00866801
0.00865765
0.00864992
0.00864494
0.00864261
0.0086425
0.00864384
0.00864733
0.00865194
0.0086573
0.00866315
0.00866922
0.0086752
0.00868111
0.00868683
0.00869241
0.00869801
0.00870388
0.00871047
0.00871812
0.00872737
0.00873874
0.00875264
0.00876927
0.00878844
0.00880952
0.00883138
0.00885276
0.00887136
0.00888667
0.00889706
0.00890188
0.00890015
0.00889516
0.00888495
0.00886843
0.00885039
0.00880201
0.00881956
0.00883492
0.00884712
0.00885503
0.00885713
0.00885458
0.00884682
0.00883476
0.00881767
0.00879683
0.00877431
0.00875073
0.00872705
0.00870402
0.00868368
0.00866502
0.00864924
0.00863658
0.00862737
0.0086214
0.00861876
0.00861889
0.00862081
0.00862559
0.00863177
0.00863891
0.00864669
0.00865486
0.00866286
0.00867088
0.0086787
0.00868646
0.00869435
0.00870287
0.00871252
0.00872386
0.00873762
0.00875442
0.00877469
0.00879838
0.00882489
0.00885294
0.00888087
0.00890598
0.00892748
0.00894229
0.00895111
0.00895134
0.00894767
0.008935
0.00891825
0.00889775
0.00887284
0.00883578
0.00885695
0.00887417
0.00888629
0.00889273
0.00889115
0.00888559
0.00887277
0.00885403
0.00882952
0.00880384
0.00877554
0.00874667
0.00871767
0.00869067
0.00866642
0.00864436
0.0086258
0.00861085
0.00860001
0.00859309
0.00858999
0.0085903
0.00859289
0.00859907
0.0086071
0.0086163
0.00862638
0.00863705
0.00864759
0.00865821
0.00866873
0.00867936
0.00869034
0.00870258
0.00871644
0.00873297
0.00875296
0.00877711
0.00880558
0.00883794
0.00887276
0.00890783
0.00894081
0.00896881
0.0089893
0.00900297
0.00900574
0.0090019
0.00899117
0.00897324
0.00894996
0.00892085
0.00889035
0.00887492
0.00889837
0.00891556
0.0089267
0.00892815
0.00892468
0.00891112
0.00889174
0.00886668
0.00883636
0.00880421
0.0087698
0.00873649
0.0087021
0.00867193
0.00864409
0.00861905
0.0085977
0.00858081
0.00856799
0.00856015
0.00855655
0.00855702
0.00856007
0.0085677
0.00857764
0.00858922
0.00860193
0.00861549
0.00862912
0.00864294
0.00865688
0.0086712
0.00868643
0.00870356
0.00872322
0.00874683
0.00877509
0.00880862
0.00884699
0.00888905
0.00893174
0.00897356
0.00900845
0.00903627
0.00905465
0.00906201
0.00905809
0.00904886
0.00903288
0.00900009
0.00897253
0.00893749
0.00890052
0.00891602
0.00894042
0.00895637
0.0089623
0.0089591
0.00895058
0.00892992
0.00890414
0.00886913
0.00883324
0.00879464
0.00875529
0.00871883
0.00867924
0.00864734
0.00861677
0.00858932
0.00856601
0.00854676
0.00853259
0.00852334
0.00851895
0.00851926
0.00852265
0.00853158
0.00854348
0.00855753
0.00857323
0.00859003
0.00860727
0.00862506
0.00864322
0.00866224
0.0086832
0.00870669
0.00873426
0.00876699
0.00880572
0.00885033
0.0088998
0.00895073
0.00900148
0.00904462
0.00908068
0.00910439
0.00911698
0.00911481
0.00910704
0.00908773
0.00905756
0.00902659
0.00898732
0.00894395
0.00890175
0.0089562
0.00897921
0.00899091
0.0089906
0.0089843
0.00896779
0.00893447
0.00890291
0.00886391
0.00882051
0.00877654
0.00873212
0.00869381
0.00864944
0.00861714
0.00858508
0.00855605
0.00853101
0.00851051
0.00849454
0.00848379
0.00847826
0.00847785
0.00848127
0.00849113
0.00850488
0.00852137
0.00854027
0.00856068
0.00858216
0.00860457
0.00862801
0.0086531
0.00868136
0.00871321
0.00875085
0.00879502
0.00884607
0.00890297
0.00896255
0.00902242
0.0090752
0.00911949
0.00915032
0.00916869
0.00916976
0.00916416
0.00914223
0.00911481
0.00908304
0.00903575
0.00898836
0.00894694
0.00889675
0.00899066
0.00901056
0.00901587
0.00901236
0.00899336
0.0089698
0.00893524
0.00889651
0.00884279
0.00879861
0.00874745
0.00870004
0.0086607
0.00861307
0.00858198
0.00854923
0.00851974
0.00849419
0.00847286
0.0084555
0.00844277
0.0084359
0.00843369
0.00843729
0.00844689
0.00846236
0.00848103
0.00850332
0.0085276
0.00855397
0.00858184
0.00861169
0.00864477
0.00868176
0.0087246
0.00877446
0.00883205
0.00889656
0.0089649
0.00903422
0.00909748
0.0091504
0.00919074
0.00921483
0.00922156
0.00921868
0.00919595
0.00917366
0.00913277
0.00908933
0.00904379
0.00898345
0.00894262
0.00888319
0.00901783
0.00903126
0.00902939
0.00901734
0.00899836
0.00897004
0.0089209
0.00887232
0.00882029
0.00877191
0.00871232
0.00865955
0.00862043
0.00857025
0.00854114
0.00850927
0.00848078
0.00845561
0.00843423
0.00841568
0.00840197
0.00839247
0.00838856
0.00839175
0.00839967
0.00841671
0.00843718
0.00846286
0.00849127
0.00852313
0.00855745
0.00859539
0.00863783
0.00868596
0.00874185
0.00880609
0.00887835
0.00895557
0.00903455
0.00910895
0.00917133
0.0092225
0.00925355
0.00926828
0.00926744
0.00925089
0.00922567
0.00919926
0.0091262
0.0091295
0.00903007
0.00892708
0.00891309
0.00882874
0.00903211
0.00903994
0.00903484
0.00901712
0.00899417
0.00894031
0.00891814
0.00885334
0.00875774
0.00873625
0.00864683
0.00858436
0.00856074
0.00851639
0.00850479
0.00847098
0.00844198
0.00841985
0.00840058
0.00837964
0.00836411
0.00835041
0.00834435
0.00834604
0.0083513
0.00836861
0.00839088
0.00841957
0.00845247
0.00849028
0.0085324
0.00858001
0.00863345
0.00869538
0.00876626
0.0088462
0.00893237
0.00902121
0.00910692
0.00918013
0.00924268
0.00928267
0.00930762
0.0093096
0.00930257
0.00927983
0.00924119
0.0092146
0.00915068
0.00912382
0.00892739
0.00872316
0.00874321
0.00858791
0.00903708
0.00903946
0.00903265
0.00900914
0.00897751
0.00893314
0.00889295
0.00879518
0.00858348
0.00863645
0.00850343
0.00833273
0.00834316
0.00838237
0.0083814
0.00839804
0.0083826
0.00836167
0.0083455
0.00833751
0.00832318
0.00830956
0.00830265
0.00829924
0.00830494
0.00831905
0.00834282
0.00837455
0.00841216
0.00845669
0.0085079
0.00856669
0.00863333
0.00871136
0.00879817
0.00889328
0.008992
0.00908931
0.00917428
0.00924861
0.00930017
0.00933503
0.00934655
0.00934451
0.00933005
0.00929252
0.00927354
0.00923432
0.00911981
0.00909495
0.00825122
0.00801188
0.00816556
0.00717079
0.00903536
0.00903406
0.00902138
0.00900379
0.00896202
0.0088698
0.008878
0.00836239
0.00808826
0.00814421
0.00787488
0.00683116
0.00677557
0.00737516
0.00811788
0.00835253
0.00839715
0.00837046
0.00834775
0.00831692
0.00829452
0.00827902
0.00826383
0.00825665
0.00826041
0.00826984
0.00829505
0.00832872
0.00837199
0.00842376
0.00848545
0.0085567
0.0086399
0.00873347
0.00883657
0.00894523
0.00905381
0.00915153
0.00923812
0.00930288
0.00934869
0.00937287
0.00937779
0.00936549
0.00934938
0.00931991
0.00928118
0.00921056
0.00909031
0.00841943
0.00626998
0.00618855
0.00710954
0.00460904
0.00902904
0.00902589
0.00900917
0.00899989
0.00885465
0.00882686
0.00849977
0.00669452
0.00637871
0.00705491
0.00552584
0.00437629
0.00442212
0.00494878
0.00661284
0.00779141
0.00819803
0.00827886
0.00830054
0.00827976
0.00826116
0.00824347
0.00822905
0.00821981
0.00821686
0.00822604
0.00824825
0.00828446
0.00833342
0.00839348
0.0084667
0.00855246
0.00865218
0.00876167
0.00887967
0.00899902
0.00910973
0.0092091
0.0092881
0.00934685
0.00938399
0.00939844
0.00939909
0.00938548
0.00936146
0.00931698
0.00929826
0.00912048
0.00854637
0.0063266
0.00466538
0.00471945
0.00461765
0.00445629
0.00902316
0.00901135
0.00899753
0.0089551
0.00848501
0.00835437
0.00712324
0.00458232
0.00459884
0.00455182
0.00430768
0.00427334
0.00425652
0.00432194
0.00494569
0.00620563
0.00771002
0.00825626
0.00834185
0.0082777
0.00826066
0.00822835
0.00820488
0.0081859
0.00818001
0.00818744
0.00820507
0.00824455
0.00829851
0.00836848
0.00845373
0.00855581
0.00867028
0.00879553
0.00892402
0.00904757
0.00915981
0.00925379
0.00932667
0.0093768
0.00940453
0.00941186
0.0094103
0.00938671
0.00936334
0.00933733
0.00918733
0.00862491
0.00662406
0.00462304
0.0045944
0.00457965
0.00452117
0.00447135
0.00901688
0.00898146
0.00895223
0.00855968
0.007179
0.00657158
0.00446422
0.00445006
0.0044255
0.00436739
0.0042974
0.00426784
0.00421971
0.00421087
0.00423801
0.00457292
0.00600923
0.00765684
0.00810391
0.00825279
0.00823801
0.00821169
0.0081828
0.00816322
0.00815064
0.00815331
0.00817118
0.00821135
0.00827096
0.00835062
0.00844893
0.00856556
0.00869414
0.00883088
0.00896471
0.00908926
0.00919836
0.00928588
0.00934923
0.00939071
0.00941385
0.00942051
0.00941128
0.00939681
0.00937302
0.00922701
0.00868345
0.00671242
0.00465099
0.00461812
0.00459155
0.00456849
0.00452611
0.00449332
0.00899566
0.00882458
0.00875865
0.0063582
0.00469085
0.00468558
0.00445257
0.00444354
0.0043951
0.00435577
0.00431491
0.004271
0.00422105
0.00418492
0.00417377
0.00421192
0.00452025
0.00614043
0.0079068
0.00815719
0.00821405
0.00819776
0.00816879
0.00814378
0.00813041
0.00813203
0.00814784
0.00818727
0.00825412
0.00834268
0.00845449
0.00858133
0.00872207
0.00886347
0.00899865
0.0091213
0.00922232
0.00930038
0.00935909
0.00939687
0.00941595
0.00942212
0.00941019
0.00937411
0.00925104
0.00870392
0.00670672
0.00467845
0.00465398
0.00462973
0.00460825
0.00458035
0.004544
0.00450436
0.00890227
0.00816283
0.00586037
0.00459045
0.00455143
0.00451259
0.00446174
0.00444827
0.00439908
0.00436319
0.0043177
0.00426808
0.00421809
0.0041661
0.00414598
0.00413676
0.00419029
0.00452291
0.00623239
0.0079546
0.00816522
0.00817947
0.00815711
0.00813674
0.00812123
0.00812192
0.00813961
0.00817952
0.00825295
0.00834944
0.00846745
0.0086051
0.00875025
0.00889086
0.00902402
0.00913674
0.00923251
0.00930655
0.0093574
0.00939282
0.00941368
0.00941323
0.00934198
0.00921695
0.00867322
0.00657923
0.00470107
0.00468424
0.00467085
0.00464881
0.00462843
0.00459636
0.0045564
0.00450813
0.00590406
0.00495041
0.00477283
0.00451518
0.00451711
0.0045011
0.00447075
0.00445568
0.00441236
0.00436771
0.00431517
0.00425751
0.00420192
0.00415184
0.00411675
0.00410534
0.00410514
0.00418339
0.00455574
0.00645477
0.00800505
0.0081452
0.00814853
0.00813131
0.00812409
0.00812865
0.00814898
0.00818977
0.00826657
0.00836569
0.00849241
0.00863113
0.00877342
0.00891141
0.00903397
0.00914276
0.00922965
0.00929768
0.00934938
0.00938292
0.00941409
0.00934069
0.00900245
0.00848135
0.00638489
0.00473865
0.00470733
0.00470314
0.00468554
0.00466859
0.00464264
0.0046053
0.00455682
0.00450231
0.00477616
0.00457903
0.00455469
0.0045121
0.00451578
0.00450403
0.00448994
0.00446011
0.00441836
0.00436434
0.00430579
0.0042424
0.00418328
0.00413306
0.00409305
0.00407787
0.00407179
0.00408774
0.00418812
0.00464126
0.00687804
0.00799889
0.00813367
0.00813897
0.00813667
0.00814813
0.00817198
0.00821583
0.00829521
0.00840153
0.00852477
0.00865743
0.00879355
0.00891975
0.0090356
0.00913326
0.00921758
0.00928223
0.00933315
0.00937497
0.00941291
0.00895651
0.00761172
0.00598736
0.00476055
0.00473105
0.00472733
0.00471759
0.00470417
0.00468153
0.00464783
0.00460142
0.00454592
0.00448506
0.00454635
0.00451888
0.00452431
0.00452001
0.00452456
0.0045135
0.00449436
0.00445889
0.00441273
0.00435448
0.00429231
0.00422819
0.00416979
0.00412018
0.00408082
0.00405522
0.00404604
0.00404461
0.00406588
0.00416289
0.00447283
0.0080004
0.00809932
0.00814206
0.00815984
0.00818152
0.00821298
0.00825999
0.00834468
0.00844192
0.00855827
0.00868346
0.00880631
0.0089193
0.00902433
0.00911704
0.0091929
0.00925987
0.00931387
0.0093615
0.00936441
0.0074563
0.00530431
0.00476237
0.00474239
0.0047426
0.00474227
0.00473372
0.00471486
0.00468376
0.00463954
0.00458428
0.00452077
0.00446176
0.00450386
0.00451563
0.00452686
0.00452914
0.00452747
0.00451186
0.00448707
0.00444754
0.00439666
0.00433953
0.0042788
0.00421955
0.00416503
0.00411711
0.00407862
0.00404869
0.00403399
0.00402826
0.00403637
0.00408243
0.0042645
0.00519293
0.00811619
0.00815075
0.00819387
0.00822793
0.00827329
0.00832629
0.00839932
0.00849523
0.00859882
0.00870362
0.00880876
0.00891161
0.00900573
0.00909019
0.00916829
0.00923017
0.00929133
0.00933678
0.00908078
0.00619724
0.00475636
0.00475402
0.00475278
0.00475761
0.00475508
0.00474156
0.00471411
0.00467172
0.00461645
0.00455167
0.00448976
0.00443586
0.00450873
0.00451871
0.00452657
0.00452606
0.0045184
0.00449863
0.00446718
0.00442564
0.00437621
0.00432388
0.00427004
0.00421832
0.00416966
0.00412558
0.00408653
0.0040543
0.00403174
0.00402246
0.00402389
0.0040394
0.00409671
0.00435049
0.00559188
0.00819702
0.00821009
0.00826674
0.00833103
0.00838585
0.00845743
0.00854262
0.00862943
0.00872069
0.00881042
0.00889606
0.00898247
0.00906367
0.00913463
0.00920127
0.00925163
0.00924221
0.00901402
0.0068831
0.00474827
0.00476276
0.00476457
0.00476688
0.00475987
0.00473813
0.0046985
0.00464372
0.00457765
0.00451386
0.00445624
0.00441234
0.00450758
0.00451325
0.00451656
0.00451059
0.00449634
0.00447168
0.00443992
0.00440009
0.00435698
0.00431221
0.00426774
0.00422467
0.00418268
0.00414252
0.00410471
0.00407103
0.00404269
0.00402735
0.00402213
0.00403115
0.00405692
0.00414085
0.00448017
0.00599206
0.00830526
0.00831284
0.00837778
0.0084465
0.00851615
0.00858866
0.00866015
0.00873001
0.00880237
0.00888066
0.0089571
0.00903555
0.00910729
0.00916012
0.00911863
0.00874706
0.00708214
0.00519005
0.00473004
0.00475934
0.00476658
0.004767
0.00475329
0.00471965
0.00466642
0.00460027
0.00453413
0.00447351
0.00442665
0.00439301
0.00449452
0.0044952
0.00449342
0.00448286
0.00446506
0.00444117
0.00441078
0.00437712
0.00434232
0.00430682
0.00427161
0.00423629
0.00420058
0.00416434
0.00412846
0.004094
0.00406391
0.00403985
0.0040299
0.00403049
0.00404568
0.00408345
0.00420797
0.00467465
0.00662573
0.00841096
0.00845662
0.00849676
0.00854778
0.00861571
0.00867531
0.00873316
0.0087948
0.00886265
0.00893841
0.00901348
0.00906166
0.00898611
0.00840826
0.00620849
0.00496883
0.00477473
0.00472461
0.00475799
0.00476246
0.00475818
0.00473198
0.0046838
0.00461948
0.00455192
0.00448825
0.00443882
0.00440218
0.00437929
0.00447062
0.00446935
0.00446314
0.00445024
0.00443315
0.00441096
0.00438632
0.00436044
0.00433381
0.00430697
0.00427961
0.00425092
0.0042207
0.00418845
0.00415491
0.00412139
0.00408936
0.0040622
0.00404513
0.00403941
0.00404658
0.00406948
0.0041312
0.00433657
0.00510597
0.00783288
0.00843588
0.00852054
0.00858705
0.00863068
0.00868415
0.00872956
0.00878319
0.00885281
0.00892727
0.00896177
0.00884558
0.00800908
0.00568954
0.00480662
0.00472503
0.00471818
0.00472642
0.0047514
0.00475286
0.00473511
0.00469412
0.00463463
0.00456731
0.00450151
0.00444911
0.0044096
0.00438592
0.00436872
0.00444413
0.0044396
0.00443168
0.00441968
0.00440451
0.00438734
0.00436896
0.00435015
0.00433091
0.00431096
0.0042898
0.00426657
0.00424093
0.00421275
0.00418219
0.00415037
0.00411899
0.00409118
0.00406825
0.00405893
0.0040607
0.00407527
0.00411249
0.00419832
0.00448292
0.00563923
0.00813492
0.00852883
0.00857329
0.00862084
0.00867581
0.00872161
0.00877875
0.00884593
0.00887386
0.00869818
0.00762603
0.00536024
0.00473341
0.00464293
0.00468849
0.00470777
0.00473175
0.00474055
0.00473116
0.00469761
0.00464469
0.00457948
0.00451338
0.00445843
0.00441581
0.00439113
0.00437154
0.00436445
0.00441746
0.0044121
0.00440469
0.00439474
0.00438341
0.00437109
0.00435845
0.00434539
0.00433172
0.00431697
0.00430052
0.00428178
0.00426023
0.00423583
0.00420866
0.00417948
0.00414957
0.00412158
0.00409593
0.00408352
0.0040804
0.00409003
0.00411475
0.0041622
0.0042715
0.00463679
0.00591077
0.00807252
0.00855622
0.00861384
0.0086547
0.00870508
0.00876299
0.00878855
0.00853245
0.0072022
0.00511959
0.00468392
0.00458665
0.00464313
0.00467918
0.00470729
0.00472267
0.00472177
0.00469528
0.00464904
0.00458779
0.00452303
0.00446628
0.00442208
0.00439455
0.00437398
0.00436627
0.00435866
0.00439515
0.0043904
0.00438452
0.00437736
0.00436958
0.00436145
0.00435302
0.00434418
0.00433452
0.00432358
0.00431079
0.00429572
0.00427782
0.00425702
0.00423347
0.00420747
0.00418013
0.00415383
0.00412952
0.00411114
0.00410451
0.00410871
0.00412463
0.00415384
0.00420272
0.00430826
0.00466015
0.00572205
0.00787241
0.00848243
0.00861085
0.00866755
0.00868341
0.0083635
0.00693184
0.00489399
0.00464647
0.00452763
0.00460197
0.00463972
0.00467704
0.00470027
0.00470564
0.00468638
0.00464786
0.00459149
0.00452959
0.00447252
0.00442721
0.0043968
0.00437576
0.00436674
0.00435895
0.00435695
0.00437893
0.00437532
0.00437121
0.00436652
0.00436156
0.0043564
0.00435095
0.00434494
0.00433808
0.00432993
0.00432003
0.00430793
0.00429335
0.00427596
0.00425586
0.00423341
0.00420911
0.00418475
0.00416174
0.00414204
0.00413291
0.00412996
0.00413733
0.00415596
0.00418153
0.00422372
0.00429877
0.00453764
0.00519822
0.0066955
0.00812365
0.00835033
0.00815775
0.00679643
0.00471692
0.00463148
0.00449266
0.00455181
0.00459954
0.00464063
0.00467126
0.00468064
0.00467239
0.00464031
0.00459014
0.00453221
0.00447641
0.0044304
0.0043979
0.00437715
0.00436449
0.00435876
0.00435529
0.00435421
0.00436831
0.00436588
0.00436327
0.00436039
0.00435736
0.00435414
0.00435062
0.00434654
0.00434164
0.00433556
0.00432794
0.00431839
0.00430664
0.00429244
0.00427572
0.00425671
0.00423582
0.00421406
0.00419309
0.0041747
0.00415974
0.00415481
0.00415625
0.00416443
0.00418067
0.00420438
0.00423398
0.00427601
0.0043524
0.00453624
0.0049743
0.0053993
0.00548971
0.00490205
0.00449756
0.00447637
0.00449754
0.00455977
0.00459889
0.00463392
0.00464941
0.00465012
0.00462635
0.00458303
0.00453024
0.00447702
0.00443132
0.00439786
0.00437622
0.0043614
0.00435619
0.00435222
0.00435128
0.004351
0.00436197
0.00436047
0.00435892
0.00435722
0.00435541
0.00435342
0.00435111
0.00434832
0.00434481
0.0043403
0.0043345
0.00432709
0.0043178
0.00430647
0.00429288
0.00427718
0.00425973
0.0042409
0.0042224
0.00420536
0.00419023
0.00418237
0.00417986
0.00418452
0.00419644
0.00421401
0.00423598
0.00426485
0.00429852
0.00433329
0.00439306
0.00449298
0.00449869
0.00448502
0.00444974
0.00445977
0.00452931
0.00455851
0.00459572
0.00461533
0.00461977
0.00460528
0.00456989
0.00452323
0.00447412
0.0044297
0.00439715
0.00437124
0.00435987
0.00434898
0.00434701
0.00434534
0.00434537
0.00434671
0.00435845
0.00435759
0.00435669
0.00435572
0.00435464
0.0043534
0.00435188
0.00434996
0.00434745
0.00434413
0.00433979
0.00433416
0.004327
0.0043181
0.0043074
0.00429478
0.0042805
0.00426494
0.00424923
0.00423401
0.0042205
0.00420983
0.00420674
0.00420814
0.00421506
0.00422787
0.00424631
0.00426913
0.00429529
0.00432174
0.00434793
0.00438338
0.00441398
0.00443352
0.00444882
0.00448724
0.0045275
0.00455516
0.00457992
0.00458486
0.00457796
0.00455076
0.00451136
0.00446704
0.00442637
0.004393
0.00436891
0.00435263
0.00434257
0.00433784
0.00433617
0.00433562
0.00433736
0.00434013
0.00435662
0.00435614
0.00435564
0.00435508
0.00435444
0.00435365
0.00435265
0.00435133
0.00434954
0.00434715
0.00434395
0.00433976
0.00433437
0.00432761
0.00431934
0.00430954
0.00429826
0.00428573
0.00427299
0.0042601
0.00424821
0.00423818
0.00423443
0.00423381
0.00423809
0.0042481
0.00426371
0.00428456
0.00430793
0.00433221
0.00435628
0.00438521
0.00441152
0.00443447
0.00446044
0.00449597
0.00452278
0.00454209
0.00454881
0.0045462
0.00452676
0.00449456
0.00445664
0.00441994
0.0043884
0.00436422
0.00434675
0.00433454
0.00432731
0.0043233
0.00432233
0.0043228
0.00432578
0.00433023
0.00435572
0.00435546
0.00435518
0.00435486
0.00435447
0.00435397
0.00435331
0.0043524
0.00435115
0.00434945
0.00434715
0.00434411
0.00434016
0.00433515
0.00432897
0.00432157
0.00431297
0.00430329
0.0042933
0.00428305
0.00427333
0.00426485
0.00426103
0.00425997
0.0042628
0.00427035
0.0042834
0.00430108
0.00432215
0.0043445
0.00436775
0.00439469
0.00441832
0.00444208
0.00446625
0.00449033
0.00450694
0.00451248
0.00451288
0.00449855
0.00447471
0.00444316
0.00441157
0.00438277
0.00435924
0.00434101
0.00432725
0.00431688
0.00430952
0.00430575
0.00430478
0.00430548
0.00430978
0.00431606
0.0043553
0.00435516
0.00435501
0.00435482
0.00435458
0.00435426
0.00435382
0.00435321
0.00435235
0.00435117
0.00434955
0.0043474
0.00434458
0.00434099
0.00433652
0.00433111
0.00432479
0.00431761
0.00431011
0.00430233
0.0042949
0.00428829
0.004285
0.00428415
0.004286
0.00429202
0.00430283
0.00431732
0.00433554
0.00435469
0.00437612
0.00439932
0.00442057
0.00443989
0.00445971
0.00447166
0.00447826
0.00447919
0.00446966
0.00445245
0.00442787
0.00440179
0.00437655
0.00435462
0.00433613
0.00432106
0.0043085
0.00429784
0.00428914
0.00428456
0.00428312
0.00428333
0.00428876
0.00429695
0.00435511
0.00435504
0.00435495
0.00435484
0.0043547
0.00435449
0.0043542
0.00435379
0.00435322
0.00435241
0.00435131
0.00434983
0.00434788
0.00434538
0.00434225
0.00433844
0.00433396
0.00432886
0.00432348
0.00431787
0.00431252
0.00430775
0.00430531
0.00430479
0.0043062
0.00431126
0.00431962
0.00433139
0.00434598
0.00436135
0.00437971
0.00439777
0.00441552
0.00442853
0.00444125
0.00444582
0.00444772
0.00444204
0.00442965
0.00441216
0.00439138
0.00437028
0.00435074
0.00433282