/*--------------------------------*- C++ -*----------------------------------*\
  =========                 |
  \\      /  F ield         | OpenFOAM: The Open Source CFD Toolbox
   \\    /   O peration     | Website:  https://openfoam.org
    \\  /    A nd           | Version:  10
     \\/     M anipulation  |
\*---------------------------------------------------------------------------*/
FoamFile
{
    format      ascii;
    class       volVectorField;
    location    "0.048781";
    object      U;
}
// * * * * * * * * * * * * * * * * * * * * * * * * * * * * * * * * * * * * * //

dimensions      [0 1 -1 0 0 0 0];

internalField   nonuniform List<vector> 
15984
(
(0.499988 -9.89254e-05 0)
(0.499983 -9.69518e-05 0)
(0.49998 -9.44678e-05 0)
(0.499978 -9.20365e-05 0)
(0.499977 -9.00301e-05 0)
(0.499977 -8.85959e-05 0)
(0.499978 -8.7646e-05 0)
(0.49998 -8.69265e-05 0)
(0.499983 -8.60391e-05 0)
(0.499986 -8.45092e-05 0)
(0.499991 -8.18691e-05 0)
(0.499995 -7.77626e-05 0)
(0.5 -7.21495e-05 0)
(0.500005 -6.44239e-05 0)
(0.500009 -5.4789e-05 0)
(0.500012 -4.36388e-05 0)
(0.500015 -3.15708e-05 0)
(0.500016 -1.90863e-05 0)
(0.500017 -6.81109e-06 0)
(0.500016 4.58293e-06 0)
(0.500014 1.46668e-05 0)
(0.500012 2.30637e-05 0)
(0.500009 2.95528e-05 0)
(0.500006 3.40711e-05 0)
(0.500004 3.66952e-05 0)
(0.500001 3.76129e-05 0)
(0.499999 3.71727e-05 0)
(0.499997 3.55261e-05 0)
(0.499996 3.3051e-05 0)
(0.499995 3.00802e-05 0)
(0.499994 2.68789e-05 0)
(0.499994 2.36672e-05 0)
(0.499994 2.06103e-05 0)
(0.499994 1.78102e-05 0)
(0.499994 1.53107e-05 0)
(0.499994 1.30921e-05 0)
(0.499994 1.10725e-05 0)
(0.499994 9.1053e-06 0)
(0.499993 6.98627e-06 0)
(0.499992 4.45947e-06 0)
(0.499992 1.21637e-06 0)
(0.49999 -3.07851e-06 0)
(0.499989 -8.76062e-06 0)
(0.499987 -1.61286e-05 0)
(0.499985 -2.54017e-05 0)
(0.499983 -3.66787e-05 0)
(0.499982 -4.98945e-05 0)
(0.49998 -6.47504e-05 0)
(0.49998 -8.07278e-05 0)
(0.49998 -9.70737e-05 0)
(0.499981 -0.000112833 0)
(0.499984 -0.000126982 0)
(0.499988 -0.000138443 0)
(0.499993 -0.000146245 0)
(0.499986 -7.26292e-05 0)
(0.499982 -7.7608e-05 0)
(0.499978 -8.32144e-05 0)
(0.499976 -8.9621e-05 0)
(0.499974 -9.68162e-05 0)
(0.499974 -0.000104532 0)
(0.499975 -0.000112246 0)
(0.499977 -0.000119247 0)
(0.499981 -0.000124696 0)
(0.499987 -0.000127711 0)
(0.499993 -0.000127494 0)
(0.5 -0.000123857 0)
(0.500007 -0.000116287 0)
(0.500015 -0.000103944 0)
(0.500022 -8.79387e-05 0)
(0.500027 -6.89709e-05 0)
(0.50003 -4.80789e-05 0)
(0.500032 -2.64319e-05 0)
(0.500031 -5.29476e-06 0)
(0.500029 1.43202e-05 0)
(0.500026 3.14634e-05 0)
(0.500021 4.54978e-05 0)
(0.500016 5.60812e-05 0)
(0.500011 6.31507e-05 0)
(0.500006 6.68875e-05 0)
(0.500001 6.76902e-05 0)
(0.499997 6.61718e-05 0)
(0.499994 6.25182e-05 0)
(0.499992 5.75442e-05 0)
(0.499991 5.17419e-05 0)
(0.49999 4.55527e-05 0)
(0.49999 3.93274e-05 0)
(0.49999 3.33177e-05 0)
(0.49999 2.76627e-05 0)
(0.49999 2.24093e-05 0)
(0.499991 1.75013e-05 0)
(0.499991 1.27881e-05 0)
(0.49999 8.02411e-06 0)
(0.49999 2.88085e-06 0)
(0.499988 -3.03669e-06 0)
(0.499986 -1.02072e-05 0)
(0.499983 -1.91393e-05 0)
(0.49998 -3.03364e-05 0)
(0.499976 -4.42414e-05 0)
(0.499972 -6.11636e-05 0)
(0.499968 -8.12024e-05 0)
(0.499964 -0.000104167 0)
(0.499961 -0.000129508 0)
(0.49996 -0.000156287 0)
(0.49996 -0.000183187 0)
(0.499963 -0.00020859 0)
(0.499969 -0.000230736 0)
(0.499977 -0.000247823 0)
(0.499987 -0.000258251 0)
(0.499978 -7.11617e-05 0)
(0.499973 -8.47229e-05 0)
(0.499968 -0.000100402 0)
(0.499964 -0.000117979 0)
(0.499962 -0.000136984 0)
(0.499961 -0.000156565 0)
(0.499963 -0.000175501 0)
(0.499967 -0.000192342 0)
(0.499974 -0.000205468 0)
(0.499984 -0.000213299 0)
(0.499995 -0.000214523 0)
(0.500006 -0.000209221 0)
(0.50002 -0.000195493 0)
(0.500033 -0.000173462 0)
(0.500044 -0.000144732 0)
(0.500052 -0.000110834 0)
(0.500057 -7.376e-05 0)
(0.500059 -3.57063e-05 0)
(0.500057 9.77222e-07 0)
(0.500053 3.45755e-05 0)
(0.500045 6.34848e-05 0)
(0.500037 8.66829e-05 0)
(0.500027 0.000103681 0)
(0.500017 0.000114484 0)
(0.500008 0.000119516 0)
(0.5 0.00011963 0)
(0.499994 0.000115731 0)
(0.499989 0.000108377 0)
(0.499985 9.89305e-05 0)
(0.499983 8.82236e-05 0)
(0.499982 7.69893e-05 0)
(0.499982 6.57941e-05 0)
(0.499982 5.50186e-05 0)
(0.499983 4.48644e-05 0)
(0.499984 3.53636e-05 0)
(0.499984 2.638e-05 0)
(0.499984 1.76213e-05 0)
(0.499984 8.63942e-06 0)
(0.499982 -1.13691e-06 0)
(0.499979 -1.24168e-05 0)
(0.499975 -2.60092e-05 0)
(0.49997 -4.27758e-05 0)
(0.499964 -6.35571e-05 0)
(0.499956 -8.90707e-05 0)
(0.499948 -0.000119783 0)
(0.49994 -0.000155768 0)
(0.499933 -0.000196568 0)
(0.499928 -0.000241085 0)
(0.499926 -0.000287544 0)
(0.499928 -0.000333502 0)
(0.499934 -0.000376085 0)
(0.499945 -0.000412157 0)
(0.499961 -0.000438634 0)
(0.49998 -0.00045284 0)
(0.499961 -9.51491e-05 0)
(0.499953 -0.000122022 0)
(0.499945 -0.000153191 0)
(0.499939 -0.000187924 0)
(0.499935 -0.000225043 0)
(0.499935 -0.000262732 0)
(0.499939 -0.000298575 0)
(0.499947 -0.00032985 0)
(0.49996 -0.000353587 0)
(0.499978 -0.000367001 0)
(0.499997 -0.000368394 0)
(0.500019 -0.000357251 0)
(0.500043 -0.000330471 0)
(0.500066 -0.000289646 0)
(0.500084 -0.000237256 0)
(0.500098 -0.000176432 0)
(0.500105 -0.000110866 0)
(0.500107 -4.44666e-05 0)
(0.500102 1.85736e-05 0)
(0.500092 7.53172e-05 0)
(0.500078 0.000123304 0)
(0.500061 0.000160957 0)
(0.500044 0.00018765 0)
(0.500027 0.000203616 0)
(0.500011 0.000209745 0)
(0.499997 0.000207901 0)
(0.499986 0.000199065 0)
(0.499978 0.000184957 0)
(0.499972 0.000167601 0)
(0.499969 0.000148434 0)
(0.499967 0.000128655 0)
(0.499968 0.000109169 0)
(0.499969 9.05396e-05 0)
(0.49997 7.30528e-05 0)
(0.499972 5.6685e-05 0)
(0.499973 4.11365e-05 0)
(0.499973 2.58441e-05 0)
(0.499972 9.97979e-06 0)
(0.499968 -7.46965e-06 0)
(0.499963 -2.7783e-05 0)
(0.499956 -5.23818e-05 0)
(0.499946 -8.27639e-05 0)
(0.499934 -0.000120363 0)
(0.49992 -0.000166363 0)
(0.499905 -0.00022146 0)
(0.499891 -0.000285609 0)
(0.499879 -0.000357785 0)
(0.49987 -0.000435806 0)
(0.499867 -0.000516295 0)
(0.499872 -0.000594728 0)
(0.499885 -0.000665977 0)
(0.499906 -0.000724493 0)
(0.499936 -0.000765053 0)
(0.499972 -0.000783291 0)
(0.499929 -0.000153066 0)
(0.499915 -0.000202364 0)
(0.499902 -0.000259383 0)
(0.499892 -0.000322519 0)
(0.499887 -0.000389362 0)
(0.499888 -0.000456385 0)
(0.499896 -0.000519119 0)
(0.499912 -0.000572604 0)
(0.499937 -0.000611596 0)
(0.499969 -0.000631345 0)
(0.500004 -0.000630121 0)
(0.500044 -0.000605158 0)
(0.500087 -0.000552846 0)
(0.500126 -0.000477219 0)
(0.500157 -0.000382539 0)
(0.500179 -0.000274719 0)
(0.500189 -0.000160446 0)
(0.500188 -4.66502e-05 0)
(0.500177 5.98256e-05 0)
(0.500157 0.000154093 0)
(0.500131 0.000232248 0)
(0.500101 0.00029203 0)
(0.50007 0.000332817 0)
(0.500039 0.000355386 0)
(0.500013 0.000361665 0)
(0.49999 0.000355038 0)
(0.499971 0.000336663 0)
(0.499957 0.000310486 0)
(0.499948 0.000279452 0)
(0.499944 0.000245944 0)
(0.499943 0.000211891 0)
(0.499944 0.000178713 0)
(0.499946 0.000147229 0)
(0.499949 0.000117806 0)
(0.499952 9.02852e-05 0)
(0.499953 6.40478e-05 0)
(0.499953 3.80299e-05 0)
(0.49995 1.07171e-05 0)
(0.499944 -1.96654e-05 0)
(0.499934 -5.54117e-05 0)
(0.49992 -9.90213e-05 0)
(0.499902 -0.00015308 0)
(0.49988 -0.000220018 0)
(0.499855 -0.000301754 0)
(0.499829 -0.000399278 0)
(0.499804 -0.000512185 0)
(0.499783 -0.000638271 0)
(0.49977 -0.000773271 0)
(0.499767 -0.000910842 0)
(0.499778 -0.00104273 0)
(0.499804 -0.00115991 0)
(0.499846 -0.00125275 0)
(0.499902 -0.00131261 0)
(0.499966 -0.00133286 0)
(0.49987 -0.000263397 0)
(0.499847 -0.000351114 0)
(0.499825 -0.000451996 0)
(0.499809 -0.000562842 0)
(0.499802 -0.000679017 0)
(0.499805 -0.000793927 0)
(0.499823 -0.000899595 0)
(0.499855 -0.000987152 0)
(0.499902 -0.00104768 0)
(0.499959 -0.00107335 0)
(0.500023 -0.00106301 0)
(0.500096 -0.00100895 0)
(0.500171 -0.000909269 0)
(0.500236 -0.000771134 0)
(0.500287 -0.000602917 0)
(0.50032 -0.000415187 0)
(0.500333 -0.000219731 0)
(0.500327 -2.89615e-05 0)
(0.500302 0.000147627 0)
(0.500264 0.000301056 0)
(0.500216 0.000425517 0)
(0.500162 0.000518064 0)
(0.500107 0.000578403 0)
(0.500055 0.000608494 0)
(0.500011 0.000612347 0)
(0.499972 0.000595359 0)
(0.499942 0.000559552 0)
(0.49992 0.000512413 0)
(0.499907 0.000458246 0)
(0.499901 0.000400925 0)
(0.4999 0.000343492 0)
(0.499903 0.000288077 0)
(0.499908 0.000235872 0)
(0.499913 0.000187265 0)
(0.499918 0.000141804 0)
(0.499921 9.82749e-05 0)
(0.49992 5.47074e-05 0)
(0.499914 8.37995e-06 0)
(0.499902 -4.37451e-05 0)
(0.499884 -0.000105778 0)
(0.499858 -0.000182025 0)
(0.499825 -0.000276887 0)
(0.499785 -0.000394402 0)
(0.499741 -0.000537602 0)
(0.499695 -0.000707741 0)
(0.499652 -0.000903497 0)
(0.499618 -0.00112031 0)
(0.499598 -0.00134999 0)
(0.499598 -0.0015808 0)
(0.499623 -0.00179809 0)
(0.499675 -0.00198614 0)
(0.499754 -0.00212873 0)
(0.499856 -0.00221185 0)
(0.49997 -0.00222794 0)
(0.499768 -0.000459251 0)
(0.499728 -0.000612276 0)
(0.499691 -0.000786986 0)
(0.499665 -0.000977225 0)
(0.499656 -0.00117434 0)
(0.499667 -0.00136631 0)
(0.499703 -0.00153922 0)
(0.499764 -0.00167762 0)
(0.499851 -0.00176675 0)
(0.499953 -0.00179472 0)
(0.500069 -0.00176083 0)
(0.500198 -0.00164986 0)
(0.500325 -0.00146444 0)
(0.500432 -0.00121766 0)
(0.500513 -0.000924925 0)
(0.500562 -0.000604789 0)
(0.500576 -0.000277214 0)
(0.500556 3.67837e-05 0)
(0.500507 0.000322409 0)
(0.500435 0.000566047 0)
(0.500348 0.000759308 0)
(0.500254 0.000898581 0)
(0.50016 0.00098458 0)
(0.500073 0.0010215 0)
(0.499999 0.00101748 0)
(0.499937 0.000979415 0)
(0.499888 0.000913467 0)
(0.499856 0.000830847 0)
(0.499837 0.000738513 0)
(0.499829 0.000642548 0)
(0.49983 0.000547625 0)
(0.499836 0.000456815 0)
(0.499845 0.000371807 0)
(0.499855 0.000292872 0)
(0.499863 0.000218962 0)
(0.499866 0.00014779 0)
(0.499863 7.58213e-05 0)
(0.499852 -1.57076e-06 0)
(0.49983 -9.01378e-05 0)
(0.499796 -0.000196585 0)
(0.499749 -0.000328253 0)
(0.49969 -0.000492532 0)
(0.499619 -0.000695983 0)
(0.499542 -0.000943189 0)
(0.499463 -0.0012354 0)
(0.499391 -0.00156919 0)
(0.499337 -0.00193537 0)
(0.499309 -0.00231859 0)
(0.499319 -0.00269748 0)
(0.499373 -0.0030469 0)
(0.499473 -0.00333976 0)
(0.49962 -0.00354988 0)
(0.499802 -0.00365542 0)
(0.500002 -0.00365189 0)
(0.499589 -0.000795697 0)
(0.499521 -0.00105792 0)
(0.499461 -0.00135475 0)
(0.499422 -0.00167461 0)
(0.499413 -0.0020017 0)
(0.49944 -0.0023147 0)
(0.499511 -0.0025897 0)
(0.499627 -0.00280063 0)
(0.499784 -0.00292331 0)
(0.499965 -0.00294497 0)
(0.500168 -0.0028558 0)
(0.500393 -0.00263869 0)
(0.500603 -0.0023032 0)
(0.500776 -0.00187303 0)
(0.5009 -0.0013754 0)
(0.500968 -0.000842004 0)
(0.500975 -0.000305549 0)
(0.500926 0.000199694 0)
(0.500832 0.00065051 0)
(0.500701 0.00102785 0)
(0.500548 0.00132004 0)
(0.500387 0.00152328 0)
(0.50023 0.00164069 0)
(0.500088 0.00168019 0)
(0.499968 0.00165759 0)
(0.499868 0.00158031 0)
(0.499793 0.00146347 0)
(0.499745 0.00132265 0)
(0.499719 0.001169 0)
(0.49971 0.00101181 0)
(0.499715 0.000858096 0)
(0.499727 0.000712146 0)
(0.499744 0.00057621 0)
(0.499761 0.000450168 0)
(0.499773 0.000331838 0)
(0.499778 0.000217044 0)
(0.49977 9.95666e-05 0)
(0.499748 -2.84371e-05 0)
(0.499707 -0.000177094 0)
(0.499646 -0.000357531 0)
(0.499562 -0.000582 0)
(0.499457 -0.000862596 0)
(0.499334 -0.00120965 0)
(0.499201 -0.00162967 0)
(0.499069 -0.00212305 0)
(0.498952 -0.00268178 0)
(0.498868 -0.00328795 0)
(0.498835 -0.00391334 0)
(0.498869 -0.00452006 0)
(0.49898 -0.00506606 0)
(0.499171 -0.00550607 0)
(0.499438 -0.00579953 0)
(0.499754 -0.00591535 0)
(0.500099 -0.00585499 0)
(0.499283 -0.0013605 0)
(0.499172 -0.00180157 0)
(0.499075 -0.00229596 0)
(0.499019 -0.00282241 0)
(0.499016 -0.00335253 0)
(0.499079 -0.00384971 0)
(0.499217 -0.00427365 0)
(0.49943 -0.00458189 0)
(0.499706 -0.00473694 0)
(0.500021 -0.00472797 0)
(0.500375 -0.00452575 0)
(0.500751 -0.00411678 0)
(0.501091 -0.00352828 0)
(0.50136 -0.00279773 0)
(0.501544 -0.00197297 0)
(0.501631 -0.00110678 0)
(0.501617 -0.000253793 0)
(0.501512 0.000540401 0)
(0.501335 0.00123611 0)
(0.501105 0.00180602 0)
(0.500843 0.00223557 0)
(0.500574 0.00252236 0)
(0.500317 0.002674 0)
(0.50009 0.00270692 0)
(0.499899 0.00264521 0)
(0.499743 0.00249953 0)
(0.49963 0.00229945 0)
(0.499561 0.002066 0)
(0.499526 0.00181643 0)
(0.499518 0.00156461 0)
(0.49953 0.00132079 0)
(0.499554 0.00109081 0)
(0.499583 0.000877381 0)
(0.499611 0.0006795 0)
(0.49963 0.000492919 0)
(0.499634 0.00031022 0)
(0.499618 0.000120664 0)
(0.499575 -8.90002e-05 0)
(0.499501 -0.000335406 0)
(0.499391 -0.000637355 0)
(0.499244 -0.00101484 0)
(0.499062 -0.00148707 0)
(0.498852 -0.00206966 0)
(0.498628 -0.00277101 0)
(0.498411 -0.00358844 0)
(0.498226 -0.00450463 0)
(0.498105 -0.00548552 0)
(0.498076 -0.00648054 0)
(0.498165 -0.00742487 0)
(0.498386 -0.00824938 0)
(0.498739 -0.00888217 0)
(0.49921 -0.00926206 0)
(0.499746 -0.00935756 0)
(0.500333 -0.00915873 0)
(0.498771 -0.00228863 0)
(0.498591 -0.00301567 0)
(0.498442 -0.00382144 0)
(0.498366 -0.00466779 0)
(0.498385 -0.00550468 0)
(0.498519 -0.00627168 0)
(0.498779 -0.0069018 0)
(0.499163 -0.0073292 0)
(0.499638 -0.00750044 0)
(0.500176 -0.00740669 0)
(0.500779 -0.00698908 0)
(0.50139 -0.00625303 0)
(0.501922 -0.00524955 0)
(0.502331 -0.00404336 0)
(0.50259 -0.00271267 0)
(0.502686 -0.00134199 0)
(0.502622 -1.83937e-05 0)
(0.502416 0.00119542 0)
(0.502097 0.00223918 0)
(0.5017 0.00307568 0)
(0.501264 0.00368807 0)
(0.500826 0.00407763 0)
(0.500415 0.00426075 0)
(0.500059 0.00426738 0)
(0.499761 0.00413208 0)
(0.499523 0.00387348 0)
(0.49936 0.00354157 0)
(0.499262 0.0031648 0)
(0.499218 0.00276912 0)
(0.499215 0.00237477 0)
(0.499241 0.00199601 0)
(0.499284 0.00164079 0)
(0.499333 0.00131186 0)
(0.499376 0.00100643 0)
(0.499404 0.000716659 0)
(0.499405 0.000429722 0)
(0.499371 0.000127522 0)
(0.499292 -0.000211674 0)
(0.499159 -0.000615344 0)
(0.498966 -0.00111407 0)
(0.498712 -0.00173969 0)
(0.498402 -0.00252175 0)
(0.49805 -0.00348261 0)
(0.497682 -0.00463132 0)
(0.497335 -0.00595721 0)
(0.497054 -0.00742476 0)
(0.496891 -0.00897135 0)
(0.496894 -0.0105081 0)
(0.497099 -0.0119303 0)
(0.497521 -0.0131255 0)
(0.498157 -0.0139866 0)
(0.498961 -0.0144269 0)
(0.499856 -0.014433 0)
(0.500833 -0.0139399 0)
(0.49793 -0.00377987 0)
(0.497648 -0.00495172 0)
(0.497425 -0.00623354 0)
(0.497336 -0.00755846 0)
(0.497411 -0.00884112 0)
(0.497681 -0.00998451 0)
(0.498158 -0.0108812 0)
(0.498831 -0.0114324 0)
(0.499628 -0.0115829 0)
(0.500531 -0.0112901 0)
(0.501528 -0.0104881 0)
(0.50249 -0.00921854 0)
(0.5033 -0.00756254 0)
(0.503896 -0.00562972 0)
(0.504244 -0.00354396 0)
(0.504325 -0.00143435 0)
(0.504154 0.000567532 0)
(0.503769 0.00236823 0)
(0.503215 0.00388869 0)
(0.502553 0.00508033 0)
(0.501845 0.00592528 0)
(0.501147 0.0064327 0)
(0.500506 0.00663359 0)
(0.499961 0.00657915 0)
(0.499505 0.00631301 0)
(0.499152 0.00587874 0)
(0.498922 0.00534415 0)
(0.498789 0.00475201 0)
(0.498736 0.00413981 0)
(0.498745 0.00353617 0)
(0.498796 0.00296026 0)
(0.49887 0.00242254 0)
(0.498949 0.00192498 0)
(0.499015 0.00146149 0)
(0.499053 0.00101821 0)
(0.499045 0.000573394 0)
(0.498976 9.74495e-05 0)
(0.498832 -0.000444556 0)
(0.498599 -0.00109747 0)
(0.498267 -0.00190957 0)
(0.497836 -0.00292996 0)
(0.497319 -0.00420227 0)
(0.496742 -0.00575609 0)
(0.496153 -0.00759684 0)
(0.495616 -0.00969596 0)
(0.49521 -0.011984 0)
(0.495018 -0.0143497 0)
(0.495114 -0.0166431 0)
(0.495544 -0.0187013 0)
(0.496326 -0.0203498 0)
(0.497434 -0.0214397 0)
(0.498761 -0.0218619 0)
(0.500231 -0.0216246 0)
(0.50181 -0.0206092 0)
(0.496578 -0.006117 0)
(0.496152 -0.0079587 0)
(0.495839 -0.00994251 0)
(0.495758 -0.0119542 0)
(0.495957 -0.0138546 0)
(0.496476 -0.0154912 0)
(0.497328 -0.016702 0)
(0.498459 -0.0173489 0)
(0.499778 -0.017387 0)
(0.501269 -0.0166909 0)
(0.502849 -0.015259 0)
(0.504314 -0.0131489 0)
(0.505509 -0.0105096 0)
(0.506347 -0.00751055 0)
(0.506783 -0.00434167 0)
(0.506795 -0.00119584 0)
(0.506423 0.00174397 0)
(0.505736 0.00434201 0)
(0.504808 0.00649445 0)
(0.503736 0.00814134 0)
(0.502616 0.00926813 0)
(0.501533 0.00989843 0)
(0.50056 0.0100856 0)
(0.499738 0.00991281 0)
(0.49906 0.00943299 0)
(0.498553 0.00873193 0)
(0.498233 0.00789698 0)
(0.498058 0.00699095 0)
(0.498002 0.00606672 0)
(0.498035 0.00516377 0)
(0.498127 0.00430695 0)
(0.498248 0.00350925 0)
(0.498372 0.00277056 0)
(0.498469 0.00207894 0)
(0.498516 0.00141082 0)
(0.498484 0.000730266 0)
(0.498353 -9.67781e-06 0)
(0.498097 -0.000865323 0)
(0.497694 -0.0019069 0)
(0.497133 -0.00320864 0)
(0.496419 -0.00484355 0)
(0.495575 -0.00687244 0)
(0.494654 -0.00932945 0)
(0.49374 -0.0122061 0)
(0.492944 -0.0154372 0)
(0.492395 -0.0188936 0)
(0.492225 -0.0223839 0)
(0.492535 -0.0256729 0)
(0.493384 -0.0285097 0)
(0.494775 -0.0306488 0)
(0.496638 -0.0318861 0)
(0.49877 -0.0321664 0)
(0.501103 -0.0313712 0)
(0.50358 -0.0294791 0)
(0.494463 -0.00967783 0)
(0.493843 -0.0124903 0)
(0.493435 -0.0154654 0)
(0.493422 -0.0184131 0)
(0.49387 -0.0211209 0)
(0.494828 -0.0233529 0)
(0.496295 -0.0248816 0)
(0.498141 -0.0255391 0)
(0.500282 -0.0252707 0)
(0.502655 -0.0238923 0)
(0.505066 -0.0214443 0)
(0.507235 -0.0180861 0)
(0.508933 -0.0140298 0)
(0.510059 -0.00953231 0)
(0.510554 -0.00487273 0)
(0.510403 -0.000340909 0)
(0.509688 0.00385447 0)
(0.508517 0.00749828 0)
(0.507012 0.0104562 0)
(0.505325 0.0126619 0)
(0.503601 0.0141112 0)
(0.501963 0.0148515 0)
(0.50052 0.0149711 0)
(0.499308 0.0145889 0)
(0.498324 0.0137809 0)
(0.497616 0.0126884 0)
(0.49718 0.0114233 0)
(0.496958 0.0100736 0)
(0.496909 0.00871231 0)
(0.496985 0.00739242 0)
(0.497141 0.00614521 0)
(0.497333 0.00498552 0)
(0.497518 0.00390895 0)
(0.497655 0.00289385 0)
(0.497704 0.00190136 0)
(0.497624 0.000873906 0)
(0.49738 -0.000260227 0)
(0.496935 -0.00159447 0)
(0.496255 -0.00323148 0)
(0.495329 -0.00528187 0)
(0.494171 -0.00784932 0)
(0.492831 -0.0110116 0)
(0.491405 -0.0147975 0)
(0.490039 -0.0191633 0)
(0.48892 -0.0239751 0)
(0.488252 -0.0290054 0)
(0.488226 -0.0339411 0)
(0.488974 -0.0384374 0)
(0.490554 -0.042127 0)
(0.492935 -0.0446913 0)
(0.495903 -0.0458956 0)
(0.499263 -0.0457331 0)
(0.502906 -0.043963 0)
(0.506561 -0.0407192 0)
(0.491247 -0.0149293 0)
(0.490394 -0.0190851 0)
(0.489922 -0.0233867 0)
(0.490098 -0.0275351 0)
(0.49101 -0.031218 0)
(0.492707 -0.0340953 0)
(0.495133 -0.0358613 0)
(0.498062 -0.0363883 0)
(0.501416 -0.0354497 0)
(0.505086 -0.0329648 0)
(0.508645 -0.0290347 0)
(0.511718 -0.0239122 0)
(0.514052 -0.0179093 0)
(0.515493 -0.0113939 0)
(0.515963 -0.00476074 0)
(0.515515 0.00158986 0)
(0.514256 0.00737581 0)
(0.512334 0.012322 0)
(0.509969 0.01626 0)
(0.507389 0.0191185 0)
(0.504804 0.0209117 0)
(0.502391 0.0217227 0)
(0.500296 0.0216886 0)
(0.498547 0.0209706 0)
(0.497158 0.0196801 0)
(0.496195 0.0180353 0)
(0.495617 0.0161726 0)
(0.495346 0.014215 0)
(0.49532 0.0122584 0)
(0.495468 0.0103729 0)
(0.49572 0.00859639 0)
(0.496012 0.00694392 0)
(0.49628 0.00540324 0)
(0.496461 0.00393714 0)
(0.496495 0.00248317 0)
(0.496322 0.00095161 0)
(0.495884 -0.000767093 0)
(0.495124 -0.00281508 0)
(0.494005 -0.00534357 0)
(0.492514 -0.00850937 0)
(0.490686 -0.0124494 0)
(0.488622 -0.0172494 0)
(0.486495 -0.0229089 0)
(0.484551 -0.02931 0)
(0.483086 -0.036202 0)
(0.482409 -0.0432039 0)
(0.48277 -0.0498536 0)
(0.484324 -0.0556542 0)
(0.487104 -0.060127 0)
(0.49098 -0.0628854 0)
(0.495571 -0.0638008 0)
(0.500678 -0.0626319 0)
(0.50609 -0.0593718 0)
(0.511306 -0.0541919 0)
(0.486518 -0.0223863 0)
(0.485426 -0.0282989 0)
(0.484991 -0.034261 0)
(0.485583 -0.0398404 0)
(0.487296 -0.0445837 0)
(0.490169 -0.0480499 0)
(0.493985 -0.0498732 0)
(0.498535 -0.0499483 0)
(0.503686 -0.0478895 0)
(0.509049 -0.043763 0)
(0.514096 -0.0377804 0)
(0.518337 -0.0302881 0)
(0.521429 -0.0217333 0)
(0.523185 -0.0126302 0)
(0.523509 -0.00349621 0)
(0.522529 0.0051393 0)
(0.520412 0.0128673 0)
(0.517395 0.0193728 0)
(0.513805 0.0244525 0)
(0.509973 0.0280354 0)
(0.506202 0.0301652 0)
(0.502737 0.0309743 0)
(0.499765 0.0306591 0)
(0.497297 0.029436 0)
(0.495387 0.0274772 0)
(0.494107 0.0250757 0)
(0.493359 0.0224092 0)
(0.493043 0.0196417 0)
(0.493066 0.0168975 0)
(0.493323 0.0142645 0)
(0.493712 0.0117877 0)
(0.49414 0.00947899 0)
(0.494511 0.00731285 0)
(0.494734 0.0052281 0)
(0.494717 0.00312642 0)
(0.494373 0.000873003 0)
(0.493612 -0.0016978 0)
(0.492356 -0.00478939 0)
(0.490557 -0.00861946 0)
(0.488219 -0.0133968 0)
(0.485425 -0.0192835 0)
(0.482361 -0.0263465 0)
(0.479329 -0.03451 0)
(0.476725 -0.0435218 0)
(0.474998 -0.05295 0)
(0.474566 -0.0622109 0)
(0.475736 -0.0706741 0)
(0.478657 -0.0776738 0)
(0.483276 -0.0826516 0)
(0.489213 -0.0852542 0)
(0.496107 -0.0853297 0)
(0.503638 -0.0825624 0)
(0.511289 -0.0771397 0)
(0.518419 -0.069406 0)
(0.479827 -0.032516 0)
(0.47857 -0.040573 0)
(0.478386 -0.0484564 0)
(0.479762 -0.0555766 0)
(0.482777 -0.0613254 0)
(0.487389 -0.0651633 0)
(0.493203 -0.0668223 0)
(0.500011 -0.0658795 0)
(0.507561 -0.0621807 0)
(0.51515 -0.0558122 0)
(0.522075 -0.0471264 0)
(0.527719 -0.0366223 0)
(0.531665 -0.0249041 0)
(0.533688 -0.0126316 0)
(0.53368 -0.000528569 0)
(0.531852 0.0108581 0)
(0.528475 0.0209142 0)
(0.523911 0.029235 0)
(0.518627 0.0355976 0)
(0.513098 0.0399448 0)
(0.507739 0.0423681 0)
(0.502882 0.0430628 0)
(0.498755 0.0422943 0)
(0.495362 0.0403574 0)
(0.492796 0.0375078 0)
(0.491125 0.0341053 0)
(0.490182 0.0303922 0)
(0.489834 0.0265777 0)
(0.489942 0.0228193 0)
(0.490357 0.0192246 0)
(0.490934 0.0158427 0)
(0.491536 0.0126784 0)
(0.492027 0.0096844 0)
(0.492273 0.00676396 0)
(0.492137 0.00376619 0)
(0.491495 0.000495606 0)
(0.490217 -0.00328914 0)
(0.488197 -0.00787385 0)
(0.485391 -0.0135494 0)
(0.481841 -0.0205699 0)
(0.477724 -0.0290932 0)
(0.473377 -0.0391134 0)
(0.469293 -0.0504057 0)
(0.466075 -0.0625056 0)
(0.464351 -0.0747364 0)
(0.46463 -0.0863093 0)
(0.467242 -0.096395 0)
(0.472272 -0.104245 0)
(0.479439 -0.109253 0)
(0.488211 -0.111262 0)
(0.498165 -0.10967 0)
(0.508761 -0.104686 0)
(0.519136 -0.0964654 0)
(0.528489 -0.0855736 0)
(0.470767 -0.0455854 0)
(0.469545 -0.0560464 0)
(0.469992 -0.0659486 0)
(0.472692 -0.0745282 0)
(0.477673 -0.0810544 0)
(0.484624 -0.0849694 0)
(0.493212 -0.085988 0)
(0.503107 -0.0835012 0)
(0.513671 -0.0775312 0)
(0.524019 -0.0682903 0)
(0.533201 -0.0562929 0)
(0.540476 -0.0421718 0)
(0.545341 -0.0266778 0)
(0.547487 -0.0106474 0)
(0.546968 0.00500051 0)
(0.543942 0.0195246 0)
(0.538773 0.0321936 0)
(0.532072 0.042513 0)
(0.524513 0.0502421 0)
(0.516744 0.0553464 0)
(0.50932 0.0579707 0)
(0.502663 0.0583925 0)
(0.497059 0.0569626 0)
(0.492509 0.0540693 0)
(0.489133 0.0500646 0)
(0.48699 0.0453863 0)
(0.485831 0.0403526 0)
(0.48547 0.0352249 0)
(0.485712 0.0301961 0)
(0.486345 0.025394 0)
(0.487164 0.0208697 0)
(0.487979 0.0166113 0)
(0.488593 0.0125396 0)
(0.488812 0.00850621 0)
(0.488443 0.00428836 0)
(0.487311 -0.000389047 0)
(0.485234 -0.00586913 0)
(0.482085 -0.0125285 0)
(0.477849 -0.0207252 0)
(0.47266 -0.0307261 0)
(0.46686 -0.0426211 0)
(0.461019 -0.0562427 0)
(0.455896 -0.0711232 0)
(0.45234 -0.0865184 0)
(0.451125 -0.101485 0)
(0.45282 -0.115059 0)
(0.457694 -0.126286 0)
(0.465668 -0.134394 0)
(0.476107 -0.138993 0)
(0.48863 -0.139566 0)
(0.502499 -0.135804 0)
(0.516646 -0.127905 0)
(0.530209 -0.11632 0)
(0.542088 -0.101739 0)
(0.459079 -0.0614702 0)
(0.458267 -0.074366 0)
(0.459905 -0.0861534 0)
(0.464623 -0.0959135 0)
(0.472276 -0.102846 0)
(0.482372 -0.106565 0)
(0.494566 -0.106238 0)
(0.508339 -0.101738 0)
(0.522628 -0.0929316 0)
(0.536236 -0.0802767 0)
(0.548042 -0.0644268 0)
(0.557191 -0.046134 0)
(0.56306 -0.0262905 0)
(0.565201 -0.00594036 0)
(0.563801 0.013792 0)
(0.559016 0.0318128 0)
(0.551453 0.0473119 0)
(0.541962 0.0597415 0)
(0.53147 0.0688482 0)
(0.520839 0.0746428 0)
(0.510796 0.0773334 0)
(0.501881 0.0772819 0)
(0.494438 0.0749336 0)
(0.488468 0.0708194 0)
(0.484115 0.0653684 0)
(0.481415 0.0591192 0)
(0.480022 0.0524696 0)
(0.479678 0.0457409 0)
(0.480111 0.0391644 0)
(0.481029 0.0328823 0)
(0.482147 0.0269456 0)
(0.483201 0.0213143 0)
(0.483915 0.0158608 0)
(0.484012 0.0103643 0)
(0.483231 0.00451382 0)
(0.481322 -0.00207399 0)
(0.47806 -0.00985933 0)
(0.473322 -0.0192998 0)
(0.467172 -0.0307853 0)
(0.45992 -0.0445221 0)
(0.452175 -0.0604272 0)
(0.444831 -0.0780589 0)
(0.438959 -0.0966378 0)
(0.435635 -0.11509 0)
(0.435706 -0.132329 0)
(0.439688 -0.147242 0)
(0.447723 -0.158939 0)
(0.459337 -0.166792 0)
(0.474005 -0.170331 0)
(0.491107 -0.168915 0)
(0.509505 -0.162458 0)
(0.527918 -0.151171 0)
(0.544982 -0.135677 0)
(0.559644 -0.116947 0)
(0.444769 -0.0795018 0)
(0.444906 -0.0946073 0)
(0.448437 -0.10791 0)
(0.45595 -0.118429 0)
(0.46693 -0.125481 0)
(0.481097 -0.128447 0)
(0.497859 -0.126468 0)
(0.516197 -0.119458 0)
(0.534887 -0.10743 0)
(0.552265 -0.0909613 0)
(0.567093 -0.070814 0)
(0.578379 -0.0478693 0)
(0.585326 -0.0231574 0)
(0.587345 0.00196704 0)
(0.584574 0.0262287 0)
(0.577393 0.0481496 0)
(0.566689 0.0667031 0)
(0.553629 0.0813057 0)
(0.539451 0.0917406 0)
(0.525269 0.0980942 0)
(0.511994 0.10066 0)
(0.500293 0.099896 0)
(0.490621 0.09636 0)
(0.482962 0.0907352 0)
(0.477446 0.0835393 0)
(0.474101 0.0754148 0)
(0.472459 0.0668466 0)
(0.472168 0.0582197 0)
(0.472854 0.0498046 0)
(0.474123 0.0417516 0)
(0.475589 0.0341012 0)
(0.476884 0.0267756 0)
(0.477628 0.0195744 0)
(0.477446 0.0121815 0)
(0.475985 0.00418241 0)
(0.472908 -0.00493975 0)
(0.467975 -0.0157525 0)
(0.461126 -0.02876 0)
(0.452592 -0.0442967 0)
(0.44298 -0.0623871 0)
(0.433279 -0.0826443 0)
(0.424752 -0.104274 0)
(0.418787 -0.126121 0)
(0.416538 -0.146975 0)
(0.418807 -0.165634 0)
(0.425978 -0.181099 0)
(0.437838 -0.192637 0)
(0.4539 -0.199897 0)
(0.473548 -0.20186 0)
(0.496011 -0.198279 0)
(0.519712 -0.188771 0)
(0.542859 -0.173554 0)
(0.563855 -0.153863 0)
(0.581475 -0.13076 0)
(0.428123 -0.0984818 0)
(0.429867 -0.115333 0)
(0.436066 -0.129692 0)
(0.446982 -0.14061 0)
(0.46212 -0.147598 0)
(0.481171 -0.149321 0)
(0.503261 -0.145649 0)
(0.527023 -0.136036 0)
(0.550718 -0.120528 0)
(0.572417 -0.0999203 0)
(0.590711 -0.075102 0)
(0.604468 -0.0470481 0)
(0.612527 -0.0168769 0)
(0.614424 0.0137918 0)
(0.609829 0.0430621 0)
(0.599428 0.0691507 0)
(0.584628 0.0908416 0)
(0.567072 0.107546 0)
(0.548355 0.119145 0)
(0.529857 0.125828 0)
(0.512686 0.127995 0)
(0.497657 0.126231 0)
(0.485339 0.121246 0)
(0.475695 0.113786 0)
(0.46883 0.104565 0)
(0.464748 0.0942682 0)
(0.462844 0.0834884 0)
(0.462645 0.0726713 0)
(0.463645 0.0621245 0)
(0.46532 0.0519972 0)
(0.467159 0.0423079 0)
(0.468654 0.0329166 0)
(0.469293 0.0235332 0)
(0.468585 0.0137221 0)
(0.466075 0.00294294 0)
(0.461336 -0.0094455 0)
(0.454184 -0.0240686 0)
(0.444725 -0.0413991 0)
(0.433495 -0.0615787 0)
(0.421525 -0.0842978 0)
(0.410237 -0.108771 0)
(0.401287 -0.133795 0)
(0.396155 -0.158037 0)
(0.395951 -0.180266 0)
(0.401322 -0.199406 0)
(0.412318 -0.214711 0)
(0.428447 -0.22594 0)
(0.449525 -0.23214 0)
(0.474913 -0.232803 0)
(0.503353 -0.22721 0)
(0.533215 -0.214546 0)
(0.56165 -0.195085 0)
(0.586553 -0.170946 0)
(0.607458 -0.143441 0)
(0.409677 -0.116836 0)
(0.413667 -0.134892 0)
(0.423145 -0.149917 0)
(0.437961 -0.161209 0)
(0.458023 -0.167707 0)
(0.482705 -0.168677 0)
(0.510671 -0.163542 0)
(0.540708 -0.151463 0)
(0.57026 -0.132332 0)
(0.59688 -0.107263 0)
(0.619218 -0.0775226 0)
(0.635966 -0.0438675 0)
(0.645405 -0.00745038 0)
(0.646901 0.029741 0)
(0.639732 0.0647473 0)
(0.625137 0.0953315 0)
(0.605179 0.12017 0)
(0.582109 0.138771 0)
(0.557943 0.1512 0)
(0.534327 0.157826 0)
(0.512584 0.159214 0)
(0.493705 0.156105 0)
(0.47831 0.149365 0)
(0.466385 0.139754 0)
(0.458008 0.128276 0)
(0.453082 0.115536 0)
(0.4509 0.102279 0)
(0.450825 0.0890037 0)
(0.452185 0.0760439 0)
(0.454298 0.0635348 0)
(0.456485 0.0514565 0)
(0.458071 0.0395801 0)
(0.458382 0.0275063 0)
(0.456791 0.0146691 0)
(0.452762 0.000381034 0)
(0.445814 -0.0160469 0)
(0.435935 -0.0352313 0)
(0.42354 -0.0574548 0)
(0.409633 -0.0825 0)
(0.39574 -0.109612 0)
(0.383733 -0.137553 0)
(0.375407 -0.164897 0)
(0.372167 -0.190365 0)
(0.374911 -0.212851 0)
(0.383965 -0.231706 0)
(0.398892 -0.246667 0)
(0.419692 -0.257307 0)
(0.446107 -0.263016 0)
(0.477256 -0.263081 0)
(0.512617 -0.256282 0)
(0.549359 -0.240563 0)
(0.583213 -0.216316 0)
(0.612137 -0.187546 0)
(0.636735 -0.155884 0)
(0.39004 -0.132935 0)
(0.396754 -0.151745 0)
(0.409765 -0.167289 0)
(0.429105 -0.179092 0)
(0.454363 -0.185727 0)
(0.484772 -0.186522 0)
(0.519622 -0.18074 0)
(0.556974 -0.166721 0)
(0.593204 -0.143691 0)
(0.625399 -0.11382 0)
(0.652509 -0.0791382 0)
(0.673274 -0.0394133 0)
(0.684945 0.00455947 0)
(0.685659 0.0497157 0)
(0.674895 0.0915982 0)
(0.654725 0.127178 0)
(0.628227 0.155152 0)
(0.598423 0.175327 0)
(0.567797 0.188076 0)
(0.538261 0.194063 0)
(0.511321 0.194114 0)
(0.48812 0.18921 0)
(0.46925 0.180327 0)
(0.454814 0.168296 0)
(0.444771 0.15433 0)
(0.438864 0.138923 0)
(0.436388 0.122974 0)
(0.436452 0.107014 0)
(0.438188 0.0913815 0)
(0.440717 0.0761888 0)
(0.443161 0.0613433 0)
(0.444635 0.0465153 0)
(0.444289 0.0311823 0)
(0.441347 0.0146403 0)
(0.435223 -0.00388815 0)
(0.425586 -0.0251046 0)
(0.41265 -0.0494209 0)
(0.397362 -0.0767366 0)
(0.381283 -0.10635 0)
(0.366443 -0.13701 0)
(0.354917 -0.167196 0)
(0.348381 -0.195569 0)
(0.347985 -0.221004 0)
(0.354235 -0.242899 0)
(0.366933 -0.26108 0)
(0.385917 -0.275676 0)
(0.411008 -0.286185 0)
(0.442231 -0.292565 0)
(0.479317 -0.293417 0)
(0.521766 -0.287081 0)
(0.565447 -0.267912 0)
(0.604228 -0.237643 0)
(0.636209 -0.204651 0)
(0.664474 -0.170122 0)
(0.369734 -0.145339 0)
(0.379369 -0.16479 0)
(0.395899 -0.181385 0)
(0.419413 -0.194113 0)
(0.450063 -0.20195 0)
(0.486605 -0.203469 0)
(0.528572 -0.198861 0)
(0.574142 -0.183483 0)
(0.618028 -0.155869 0)
(0.6561 -0.121017 0)
(0.688889 -0.0817586 0)
(0.715906 -0.0353365 0)
(0.731938 0.0185662 0)
(0.73196 0.0744985 0)
(0.716052 0.125256 0)
(0.688319 0.166543 0)
(0.653506 0.197295 0)
(0.615529 0.218085 0)
(0.577317 0.230028 0)
(0.54103 0.234337 0)
(0.508352 0.232221 0)
(0.480465 0.224946 0)
(0.457863 0.213467 0)
(0.440766 0.198807 0)
(0.428924 0.182133 0)
(0.421931 0.163951 0)
(0.419128 0.145176 0)
(0.419308 0.126369 0)