/*--------------------------------*- C++ -*----------------------------------*\
  =========                 |
  \\      /  F ield         | OpenFOAM: The Open Source CFD Toolbox
   \\    /   O peration     | Website:  https://openfoam.org
    \\  /    A nd           | Version:  11
     \\/     M anipulation  |
\*---------------------------------------------------------------------------*/
FoamFile
{
    format      ascii;
    class       volScalarField;
    location    "5";
    object      mag(U);
}
// * * * * * * * * * * * * * * * * * * * * * * * * * * * * * * * * * * * * * //

dimensions      [0 1 -1 0 0 0 0];

internalField   nonuniform List<scalar> 
9600
(
0.968782
0.966493
0.963097
0.957091
0.952747
0.952361
0.950728
0.943185
0.934918
0.93255
0.933662
0.935407
0.930253
0.898626
0.86393
0.85208
0.851903
0.856046
0.870982
0.902958
0.928804
0.950022
0.971701
0.99369
1.01664
1.04719
1.09244
1.14787
1.19188
1.2064
1.20281
1.19029
1.16114
1.10888
1.06364
1.02921
1.00361
0.987377
0.975626
0.956943
0.971922
0.97071
0.969666
0.968176
0.965029
0.962446
0.960937
0.958951
0.956633
0.955274
0.955534
0.956794
0.957119
0.952185
0.943995
0.940769
0.941035
0.943311
0.949904
0.967444
0.989471
1.00635
1.01995
1.03588
1.05569
1.08014
1.11424
1.16136
1.21177
1.24564
1.25418
1.24837
1.22522
1.18099
1.14071
1.09898
1.07208
1.04029
1.02616
0.996843
0.970768
0.969498
0.968528
0.967368
0.964662
0.961899
0.960852
0.960251
0.958639
0.955231
0.95511
0.956461
0.959778
0.961945
0.960783
0.952624
0.950059
0.951572
0.959987
0.977015
0.996338
1.01238
1.02201
1.03424
1.05438
1.07961
1.11085
1.15423
1.20521
1.24382
1.25554
1.25271
1.23715
1.19535
1.15192
1.11033
1.0818
1.05211
1.03838
1.0188
0.970475
0.968861
0.967584
0.966003
0.963032
0.960679
0.959878
0.959089
0.956437
0.954738
0.955217
0.95647
0.961019
0.967261
0.969812
0.969729
0.970976
0.975893
0.988779
1.00074
1.01412
1.0277
1.03609
1.04293
1.05698
1.07953
1.10899
1.14671
1.193
1.23748
1.26298
1.26454
1.24931
1.21081
1.17021
1.1287
1.09858
1.06493
1.05011
1.02118
0.970075
0.968426
0.966731
0.964772
0.96226
0.960232
0.959056
0.958268
0.957766
0.956049
0.955327
0.956143
0.959969
0.971599
0.981269
0.985458
0.988106
0.992742
1.00126
1.00833
1.01703
1.02875
1.03779
1.04359
1.05548
1.07706
1.10665
1.14323
1.18727
1.23221
1.26301
1.26989
1.25902
1.22365
1.18204
1.13785
1.10682
1.07297
1.05535
1.02985
0.96949
0.96762
0.965597
0.963565
0.961354
0.959227
0.957512
0.95746
0.957233
0.955468
0.955694
0.957026
0.96135
0.973801
0.985144
0.989243
0.993353
1.00172
1.01195
1.02099
1.02903
1.03766
1.0453
1.05011
1.05771
1.0746
1.10192
1.13749
1.17964
1.22484
1.26295
1.27928
1.27217
1.23979
1.1984
1.15236
1.12057
1.08343
1.06644
1.03717
0.968748
0.966941
0.964715
0.962722
0.960437
0.958145
0.95712
0.957269
0.956509
0.95577
0.956225
0.958096
0.963432
0.976058
0.986904
0.994103
1.00112
1.01029
1.01928
1.02703
1.03315
1.03917
1.04551
1.05043
1.05689
1.07084
1.09731
1.13233
1.17412
1.21837
1.25959
1.28515
1.28462
1.25426
1.2162
1.16889
1.13502
1.09657
1.07693
1.04606
0.968002
0.966059
0.963633
0.961522
0.959189
0.957164
0.956743
0.956747
0.955682
0.955687
0.956697
0.959214
0.965104
0.977221
0.988127
0.997721
1.00467
1.01333
1.02173
1.03017
1.0379
1.04407
1.04954
1.05364
1.05891
1.06894
1.09159
1.12348
1.1654
1.21269
1.257
1.2894
1.29755
1.27292
1.23657
1.18672
1.14882
1.10703
1.08546
1.05248
0.967042
0.965115
0.962752
0.960683
0.958224
0.956653
0.956659
0.956012
0.955358
0.9558
0.957317
0.96028
0.966954
0.979065
0.9888
0.999358
1.00754
1.017
1.025
1.03215
1.03919
1.04441
1.04852
1.05324
1.05735
1.0666
1.08625
1.11658
1.15928
1.20469
1.2537
1.29005
1.30768
1.28955
1.25621
1.20643
1.16699
1.12138
1.0993
1.06453
0.96621
0.964289
0.961823
0.95943
0.957057
0.956153
0.955929
0.955177
0.95499
0.955745
0.95776
0.96105
0.968452
0.979391
0.989343
1.00181
1.0119
1.02056
1.02662
1.03238
1.03899
1.04488
1.04862
1.05231
1.05659
1.06463
1.08184
1.10798
1.14854
1.19822
1.24951
1.29171
1.31869
1.31003
1.28241
1.23282
1.19045
1.14166
1.11675
1.07671
0.965182
0.963323
0.960873
0.958423
0.956472
0.955687
0.955311
0.954653
0.954884
0.955831
0.958332
0.961735
0.968873
0.980913
0.991363
1.00239
1.0127
1.02296
1.03061
1.0366
1.04017
1.04363
1.04545
1.04713
1.05185
1.05709
1.07303
1.09852
1.13904
1.18767
1.24431
1.29134
1.32724
1.32744
1.30574
1.25514
1.21129
1.15699
1.1303
1.08796
0.964345
0.962422
0.959769
0.957261
0.955598
0.954693
0.954393
0.954032
0.954462
0.955969
0.95842
0.962269
0.970103
0.981334
0.992024
1.00267
1.01546
1.02652
1.03415
1.03902
1.04039
1.04226
1.04334
1.04318
1.04496
1.04978
1.06431
1.08598
1.12316
1.17295
1.23405
1.28976
1.33461
1.34801
1.33425
1.28926
1.24374
1.18507
1.15355
1.1072
0.963141
0.961289
0.958625
0.956331
0.954934
0.953756
0.954004
0.953621
0.954567
0.956161
0.958658
0.963419
0.970522
0.98046
0.993122
1.00531
1.01679
1.02741
1.03603
1.04285
1.04482
1.04437
1.04142
1.03777
1.03669
1.03703
1.04795
1.06683
1.10323
1.15074
1.21572
1.27973
1.33793
1.36388
1.3634
1.32084
1.27492
1.20839
1.17251
1.11944
0.962145
0.960258
0.957553
0.955269
0.953924
0.952711
0.953003
0.953332
0.954139
0.956066
0.959167
0.963417
0.97093
0.981114
0.993674
1.00652
1.01734
1.02894
1.03963
1.04658
1.04851
1.04603
1.04145
1.03564
1.03071
1.02743
1.03477
1.0482
1.07881
1.12339
1.18713
1.25933
1.33026
1.37666
1.39239
1.36082
1.31657
1.24685
1.20407
1.1463
0.960809
0.959053
0.956304
0.954253
0.953069
0.951963
0.952317
0.953184
0.95416
0.956271
0.95959
0.963604
0.9719
0.982011
0.992953
1.00732
1.0191
1.03081
1.04091
1.04782
1.05166
1.0512
1.0454
1.03587
1.02748
1.01982
1.02016
1.0266
1.05197
1.09112
1.15406
1.22667
1.31024
1.37345
1.41479
1.39869
1.36256
1.28643
1.23959
1.16647
0.959784
0.95795
0.955434
0.95309
0.951955
0.951126
0.951371
0.952177
0.954481
0.955592
0.959164
0.964784
0.971073
0.982053
0.993011
1.00752
1.02035
1.03211
1.04244
1.05048
1.05445
1.0545
1.04833
1.0378
1.02562
1.01399
1.01002
1.01084
1.02791
1.06053
1.12012
1.19195
1.28081
1.35662
1.42283
1.43393
1.41414
1.33965
1.28685
1.20313
0.958431
0.956567
0.954334
0.951881
0.951025
0.950397
0.950618
0.951776
0.953839
0.956299
0.959804
0.964829
0.971351
0.982337
0.993907
1.00918
1.02135
1.03467
1.0461
1.05377
1.05579
1.05562
1.05054
1.039
1.025
1.01119
1.00213
0.996015
1.00766
1.02966
1.08791
1.15545
1.25385
1.33388
1.41887
1.45164
1.46337
1.39672
1.34612
1.24221
0.957242
0.955341
0.953256
0.950561
0.949588
0.949052
0.950463
0.950429
0.952474
0.956638
0.959692
0.96569
0.970705
0.981622
0.99424
1.0103
1.02353
1.03794
1.04831
1.05662
1.05899
1.05827
1.05181
1.04104
1.02548
1.0072
0.99591
0.985359
0.991826
1.00235
1.05581
1.11537
1.22388
1.30858
1.4154
1.45953
1.50307
1.45416
1.41684
1.30051
0.955863
0.953878
0.952213
0.949518
0.948357
0.948279
0.949425
0.950143
0.952147
0.955855
0.960038
0.966883
0.97202
0.983511
0.994125
1.01226
1.02784
1.04187
1.05281
1.06186
1.06448
1.06263
1.05613
1.04379
1.02768
1.00597
0.993147
0.974034
0.978601
0.975209
1.02287
1.06775
1.18153
1.26778
1.41083
1.46332
1.53877
1.50644
1.49084
1.37019
0.954239
0.95214
0.95055
0.94775
0.947087
0.946507
0.947842
0.950016
0.951066
0.955438
0.958847
0.966317
0.972679
0.984412
0.996203
1.01221
1.02793
1.04349
1.05726
1.06649
1.06957
1.06786
1.06213
1.04809
1.0328
1.00726
0.991062
0.964345
0.965868
0.951454
0.986673
1.01847
1.12255
1.20947
1.38121
1.44905
1.5743
1.55489
1.57225
1.44827
0.952694
0.950819
0.948983
0.9469
0.945905
0.946252
0.946514
0.948827
0.950946
0.955889
0.959478
0.967357
0.973934
0.985857
0.999898
1.01499
1.03214
1.047
1.05993
1.07094
1.07666
1.07344
1.06866
1.05401
1.03923
1.01054
0.993727
0.959813
0.9544
0.932759
0.949723
0.973154
1.04631
1.14471
1.30976
1.39297
1.57782
1.58395
1.65585
1.54195
0.950415
0.948455
0.946798
0.945047
0.943596
0.944792
0.944675
0.947726
0.949071
0.954272
0.959944
0.967043
0.975814
0.986355
1.00126
1.01676
1.0343
1.05024
1.06341
1.07318
1.08056
1.07789
1.0743
1.05965
1.04592
1.01632
0.997894
0.960966
0.944114
0.92234
0.912654
0.934751
0.960173
1.08302
1.17907
1.30012
1.48374
1.5463
1.69469
1.64222
0.948474
0.947196
0.944736
0.944175
0.942214
0.943548
0.94364
0.946944
0.94952
0.954202
0.960414
0.967927
0.978942
0.989351
1.00559
1.02188
1.03792
1.05532
1.07119
1.0799
1.08849
1.08571
1.08202
1.06595
1.05314
1.0236
1.00198
0.96831
0.936835
0.916914
0.883616
0.90136
0.888222
1.00345
1.01432
1.17411
1.30733
1.47089
1.61326
1.67964
0.9448
0.944402
0.941367
0.941617
0.939368
0.941023
0.941434
0.943794
0.948356
0.951993
0.961369
0.967855
0.979436
0.991296
1.00745
1.02425
1.0432
1.05857
1.07606
1.08456
1.09451
1.09233
1.09
1.07341
1.05968
1.03428
1.00441
0.976509
0.935719
0.913543
0.869003
0.870164
0.836044
0.907479
0.863765
1.0338
1.20086
1.38849
1.46182
1.60382
0.942617
0.942423
0.939304
0.939552
0.938299
0.939402
0.941251
0.942708
0.948811
0.952026
0.961974
0.970751
0.982723
0.996894
1.013
1.02969
1.04999
1.06524
1.08444
1.09394
1.10274
1.10239
1.09998
1.08767
1.06781
1.04983
1.01542
0.988029
0.943236
0.914539
0.869826
0.846628
0.81139
0.820674
0.779168
0.905437
1.10113
1.23376
1.37025
1.48395
0.938146
0.938218
0.934851
0.934747
0.934696
0.934498
0.939096
0.9394
0.946483
0.951807
0.959765
0.971838
0.983036
0.998504
1.01723
1.03419
1.05533
1.07278
1.08883
1.10226
1.10896
1.11196
1.10602
1.0993
1.07701
1.05994
1.02667
0.998579
0.960781
0.915801
0.886757
0.829623
0.81156
0.770327
0.734232
0.797566
0.933738
1.09876
1.25889
1.33773
0.935999
0.935773
0.934313
0.931316
0.934266
0.932151
0.93774
0.940951
0.94551
0.954989
0.961917
0.975301
0.989462
1.00487
1.02358
1.04386
1.06191
1.08539
1.09781
1.11528
1.11987
1.1258
1.11826
1.11383
1.09291
1.07411
1.04777
1.00799
0.983125
0.927562
0.900327
0.835244
0.813521
0.762309
0.709134
0.718879
0.778575
0.943752
1.0937
1.24273
0.931175
0.928456
0.928805
0.925506
0.928268
0.929371
0.930115
0.938435
0.941877
0.951832
0.961957
0.975269
0.990225
1.00925
1.02713
1.05152
1.06893
1.09316
1.10669
1.12408
1.13022
1.13649
1.13113
1.1239
1.11138
1.08428
1.06778
1.02549
0.998746
0.944512
0.915889
0.853504
0.815308
0.774984
0.712037
0.679349
0.669229
0.772567
0.920462
1.06435
0.930603
0.926797
0.926279
0.926065
0.923624
0.92985
0.93092
0.938087
0.945069
0.954645
0.966043
0.981928
0.997133
1.01796
1.03786
1.0615
1.08277
1.10477
1.12322
1.137
1.14898
1.14883
1.15288
1.1378
1.13442
1.10551
1.09053
1.05163
1.0259
0.973592
0.939878
0.890428
0.83414
0.793978
0.741696
0.685286
0.624608
0.63778
0.710611
0.861383
0.920377
0.922021
0.917118
0.919877
0.918273
0.922242
0.926706
0.932943
0.941046
0.953362
0.965748
0.98185
1.00242
1.01996
1.04698
1.06706
1.09576
1.11176
1.13837
1.1449
1.16462
1.1602
1.16894
1.15379
1.15116
1.12581
1.11184
1.07659
1.05218
1.01134
0.960237
0.922534
0.866004
0.815127
0.774243
0.730656
0.654708
0.603584
0.580244
0.67064
0.91479
0.917618
0.916442
0.916944
0.91937
0.923375
0.928336
0.937707
0.94777
0.958343
0.977358
0.990512
1.01703
1.03349
1.06506
1.08273
1.1157
1.1301
1.15885
1.16588
1.18482
1.18293
1.19032
1.17795
1.17532
1.15501
1.13813
1.11829
1.08034
1.05602
1.0072
0.959642
0.918159
0.858378
0.799553
0.772091
0.721417
0.655578
0.592162
0.558991
0.902743
0.902647
0.901864
0.904951
0.906928
0.91352
0.921316
0.930557
0.946501
0.957647
0.980349
0.996092
1.02436
1.04453
1.07528
1.09786
1.12852
1.14771
1.17281
1.18453
1.19941
1.20347
1.20573
1.20385
1.19036
1.18687
1.16335
1.14789
1.12459
1.08839
1.05982
1.01277
0.955838
0.919827
0.857296
0.791973
0.753132
0.714439
0.670267
0.587646
0.899888
0.902118
0.901219
0.905611
0.908332
0.915656
0.926649
0.936612
0.953923
0.969811
0.991337
1.01422
1.03957
1.06623
1.09501
1.12255
1.15095
1.17427
1.19543
1.21347
1.2212
1.23433
1.22984
1.23147
1.22517
1.21174
1.20388
1.18898
1.16386
1.14741
1.11567
1.07407
1.03666
0.984168
0.927855
0.878347
0.82795
0.755621
0.724018
0.676136
0.880279
0.88579
0.886019
0.893242
0.899202
0.908466
0.921998
0.936974
0.954019
0.97848
0.998425
1.02894
1.05352
1.08498
1.11341
1.14572
1.16902
1.19956
1.21597
1.23397
1.24811
1.25108
1.25504
1.25658
1.2458
1.24132
1.23811
1.21828
1.21023
1.19814
1.16538
1.14366
1.11353
1.0544
1.02564
0.963097
0.906059
0.855271
0.806558
0.72904
0.874571
0.880431
0.885597
0.891358
0.903215
0.916946
0.931537
0.955307
0.972353
1.00368
1.02422
1.06147
1.0843
1.12278
1.15003
1.18268
1.21073
1.23625
1.25576
1.2752
1.28468
1.29103
1.29751
1.2939
1.28776
1.29287
1.27755
1.27236
1.27396
1.25466
1.24033
1.23064
1.19473
1.16792
1.1376
1.07598
1.04777
0.975218
0.938748
0.871164
0.856348
0.865009
0.872763
0.887356
0.897178
0.919736
0.937577
0.96482
0.990428
1.02161
1.05136
1.0872
1.11558
1.15713
1.18213
1.22093
1.24587
1.27239
1.29339
1.31103
1.31912
1.32882
1.33346
1.32839
1.33421
1.33009
1.33263
1.32181
1.33733
1.31308
1.32782
1.29963
1.30917
1.26834
1.26866
1.2193
1.20755
1.14408
1.12139
1.05256
0.858241
0.869151
0.887069
0.91046
0.931275
0.962723
0.986254
1.02447
1.05025
1.08969
1.12172
1.16026
1.19505
1.23319
1.26399
1.29963
1.3226
1.34932
1.36264
1.37799
1.37999
1.38572
1.38002
1.38173
1.37284
1.37854
1.37033
1.37651
1.37258
1.37624
1.37272
1.37551
1.36864
1.37096
1.359
1.36159
1.34076
1.33103
1.29686
1.26832
0.828875
0.860033
0.874636
0.901821
0.930232
0.963556
1.0018
1.03973
1.08294
1.12434
1.16723
1.2083
1.24707
1.28464
1.31729
1.34765
1.3708
1.39169
1.4003
1.41073
1.40503
1.40806
1.39167
1.39323
1.37384
1.38141
1.36564
1.37644
1.3651
1.3764
1.35714
1.35928
1.33094
1.33637
1.32097
1.34652
1.33314
1.36018
1.31848
1.35279
0.90729
0.953671
0.999326
1.0491
1.09221
1.13328
1.17841
1.21616
1.25835
1.29247
1.33003
1.35586
1.38753
1.40269
1.42797
1.43664
1.45628
1.45551
1.46667
1.45509
1.45202
1.4335
1.41449
1.39458
1.3657
1.34744
1.32247
1.31343
1.28951
1.27457
1.24217
1.19061
1.1104
1.00137
0.893691
0.817058
0.730097
0.687062
0.599528
0.620277
1.03646
1.07523
1.11218
1.15164
1.18978
1.22501
1.25668
1.2853
1.30844
1.32694
1.34748
1.34745
1.36095
1.35842
1.36239
1.35838
1.3486
1.33255
1.30842
1.28281
1.24046
1.20467
1.13747
1.08924
1.00155
0.948277
0.847609
0.774014
0.678283
0.411968
0.0984954
0.0529455
0.0396362
0.0269706
0.0651278
0.100072
0.135536
0.172668
0.199315
0.228846
0.997482
0.994618
0.979204
0.954791
0.929937
0.917781
0.931524
0.98288
1.01521
1.01751
1.01108
1.00757
1.006
1.00551
1.00638
1.00733
1.00836
1.00938
1.00977
1.0103
1.01071
1.01101
1.01119
1.01135
1.01113
1.01113
1.01099
1.01077
1.01065
1.01032
1.01033
1.01008
1.0101
1.00984
1.00978
1.00955
1.00933
1.00924
1.00935
1.01271
1.00651
0.997759
0.979268
0.95224
0.924331
0.908482
0.918833
0.976654
1.01667
1.02085
1.01407
1.00874
1.00659
1.00574
1.0065
1.00753
1.0084
1.00937
1.00982
1.01041
1.01079
1.01112
1.01135
1.01166
1.01146
1.01146
1.01131
1.01101
1.01096
1.01055
1.01059
1.01028
1.01036
1.0101
1.01006
1.00983
1.00961
1.00918
1.00855
1.00683
1.01152
0.999283
0.982043
0.951702
0.919514
0.899357
0.906884
0.971906
1.0187
1.02344
1.01624
1.00949
1.00718
1.00649
1.00686
1.00782
1.00875
1.00986
1.01033
1.01096
1.01132
1.01161
1.0117
1.01202
1.01196
1.01193
1.01182
1.01145
1.01141
1.01098
1.01103
1.01061
1.0107
1.01037
1.0104
1.01011
1.01001
1.00989
1.01032
1.01263
1.01457
1.00383
0.982923
0.950326
0.91468
0.890526
0.892315
0.96199
1.01883
1.0254
1.01877
1.01046
1.00768
1.00689
1.00684
1.0078
1.00879
1.01009
1.01053
1.01118
1.01141
1.01173
1.0118
1.01198
1.01207
1.01208
1.01215
1.01178
1.01179
1.0114
1.01146
1.01098
1.01104
1.01067
1.0107
1.0103
1.01005
1.00976
1.00908
1.00719
1.0234
1.00626
0.986412
0.951235
0.911057
0.882613
0.879322
0.95101
1.01835
1.02652
1.02031
1.01086
1.00817
1.00743
1.00722
1.00823
1.00931
1.01048
1.01086
1.01171
1.012
1.01237
1.01234
1.01233
1.01244
1.01227
1.01255
1.01217
1.01228
1.01186
1.01197
1.01143
1.01144
1.01102
1.01106
1.01077
1.01065
1.01047
1.01077
1.01224
1.02714
1.01156
0.98855
0.951802
0.907841
0.87551
0.865279
0.935076
1.01495
1.02658
1.02119
1.01127
1.00829
1.0077
1.00728
1.00825
1.00928
1.01055
1.01099
1.0118
1.01199
1.01264
1.01275
1.01263
1.01279
1.01251
1.01289
1.0125
1.01263
1.01218
1.01232
1.0118
1.01177
1.01128
1.01123
1.01087
1.01073
1.01037
1.00986
1.00824
1.03739
1.01635
0.992647
0.954673
0.905996
0.869879
0.85342
0.917202
1.00928
1.02595
1.02137
1.01103
1.00819
1.00771
1.00756
1.00873
1.00972
1.01091
1.01139
1.0122
1.01247
1.01314
1.01321
1.01313
1.0133
1.01291
1.01335
1.01292
1.01313
1.01265
1.01277
1.01228
1.01226
1.01186
1.01188
1.01151
1.01146
1.01117
1.01131
1.01219
1.04244
1.02328
0.99692
0.957425
0.904596
0.864809
0.842217
0.895313
0.99939
1.02377
1.02023
1.01034
1.00764
1.0074
1.00741
1.00868
1.00955
1.01092
1.01164
1.01236
1.01261
1.01322
1.01336
1.01347
1.01373
1.0134
1.01373
1.01334
1.01354
1.01306
1.01317
1.01273
1.01267
1.01223
1.01216
1.0117
1.01162
1.01114
1.01077
1.00944
1.05518
1.03194
1.00288
0.962041
0.904233
0.860577
0.833345
0.872852
0.985341
1.02015
1.01806
1.00859
1.00658
1.00701
1.0072
1.00894
1.00987
1.01135
1.01203
1.01286
1.01322
1.0137
1.0137
1.0139
1.01415
1.01401
1.01423
1.01388
1.01402
1.01356
1.01362
1.01325
1.01318
1.01283
1.01273
1.01231
1.01227
1.01189
1.01196
1.01235
1.06201
1.04155
1.01035
0.966846
0.903923
0.855977
0.825434
0.849113
0.965313
1.01381
1.01399
1.00588
1.00499
1.00628
1.00664
1.00871
1.00983
1.01138
1.01219
1.01323
1.01353
1.01412
1.01413
1.01441
1.01453
1.01454
1.01457
1.01429
1.01431
1.01392
1.01382
1.01341
1.01323
1.01293
1.01279
1.0124
1.01239
1.01192
1.01173
1.01074
1.07702
1.05522
1.02007
0.972666
0.904118
0.850552
0.819058
0.826218
0.940164
1.00495
1.0091
1.00204
1.00272
1.00506
1.0058
1.00864
1.00999
1.01171
1.01243
1.01383
1.01412
1.01483
1.01486
1.01524
1.01519
1.01532
1.01519
1.01505
1.01477
1.01453
1.01429
1.01395
1.01377
1.01351
1.01343
1.01316
1.01314
1.01277
1.01274
1.01274
1.08818
1.06905
1.03245
0.979281
0.904122
0.843424
0.812118
0.803643
0.909418
0.991594
1.00203
0.996713
0.999755
1.00332
1.00477
1.00832
1.00971
1.01168
1.01261
1.01408
1.0142
1.01525
1.01544
1.01592
1.01593
1.01611
1.01577
1.01582
1.01536
1.01525
1.01491
1.01458
1.01445
1.01412
1.01394
1.01354
1.01332
1.01295
1.01277
1.01211
1.1071
1.08948
1.04865
0.986819
0.90391
0.83404
0.803024
0.782579
0.874325
0.974242
0.993266
0.990196
0.996012
1.001
1.00338
1.00782
1.00969
1.01194
1.01304
1.01457
1.01475
1.01589
1.01621
1.0167
1.01672
1.01696
1.01656
1.01672
1.01618
1.01616
1.01593
1.01563
1.01547
1.01501
1.01481
1.01432
1.01408
1.01363
1.01352
1.01344
1.12666
1.11051
1.06936
0.995832
0.903318
0.821744
0.788807
0.760714
0.836554
0.952364
0.981072
0.982143
0.991228
0.99811
1.00151
1.00688
1.00924
1.01176
1.01349
1.01507
1.01546
1.01654
1.01685
1.01732
1.01738
1.01764
1.01711
1.01729
1.01667
1.01642
1.01615
1.01583
1.01574
1.01516
1.01505
1.01449
1.01428
1.0138
1.01359
1.01337
1.15295
1.14149
1.09735
1.00601
0.901224
0.805297
0.768254
0.736422
0.797924
0.927139
0.966285
0.972559
0.98554
0.994627
0.998915
1.00563
1.00892
1.01185
1.01421
1.01568
1.01641
1.01747
1.01784
1.01829
1.01823
1.01858
1.01791
1.01807
1.01745
1.01727
1.0169
1.01645
1.01637
1.01577
1.01576
1.01516
1.01514
1.01463
1.0145
1.01415
1.18655
1.17679
1.13178
1.01665
0.895009
0.782119
0.739139
0.706936
0.758026
0.898065
0.948433
0.961199
0.978988
0.990068
0.995976
1.00374
1.00781
1.0112
1.01428
1.01597
1.01728
1.0183
1.0188
1.01941
1.01923
1.0197
1.01892
1.01911
1.01832
1.01824
1.01787
1.01735
1.01723
1.0165
1.01649
1.01568
1.01564
1.01492
1.01479
1.01447
1.22676
1.22808
1.17755
1.02584
0.88062
0.749477
0.698885
0.670656
0.717548
0.867399
0.928104
0.949262
0.97215
0.985035
0.993424
1.00167
1.00686
1.01071
1.01428
1.01602
1.01784
1.01905
1.01976
1.02057
1.02029
1.02099
1.0202
1.02071
1.0198
1.02003
1.01942
1.01911
1.01887
1.01799
1.01783
1.01692
1.01687
1.01607
1.01598
1.01547
1.28336
1.29209
1.22222
1.02477
0.848768
0.701165
0.643766
0.626674
0.675863
0.836763
0.906595
0.936869
0.964672
0.979367
0.991025
0.999512
1.00597
1.00997
1.0142
1.01618
1.01847
1.01943
1.02035
1.02114
1.02089
1.02158
1.02078
1.02144
1.02039
1.02087
1.01997
1.01993
1.01938
1.01868
1.01837
1.0175
1.01736
1.01662
1.01657
1.01612
1.355
1.37215
1.24029
1.00212
0.791423
0.631891
0.572913
0.575847
0.636631
0.808599
0.885343
0.923387
0.957461
0.973826
0.989024
0.997776
1.0058
1.01012
1.01475
1.01652
1.01915
1.01976
1.02109
1.02163
1.02174
1.02238
1.02169
1.02243
1.02131
1.02199
1.02099
1.02134
1.02062
1.02024
1.01985
1.01909
1.01878
1.01798
1.01773
1.01724
1.44319
1.41632
1.23305
0.93605
0.695457
0.535263
0.489511
0.522144
0.605939
0.783442
0.864383
0.91053
0.949288
0.967714
0.987211
0.996509
1.0058
1.01054
1.01546
1.01728
1.02036
1.02073
1.02255
1.02264
1.02311
1.0235
1.02292
1.02351
1.02257
1.02321
1.02217
1.0225
1.02162
1.02138
1.02079
1.02023
1.01978
1.01915
1.01881
1.01841
1.5307
1.4438
1.17966
0.816808
0.557741
0.418863
0.409119
0.482838
0.592081
0.766946
0.847034
0.899463
0.941654
0.962759
0.985459
0.995478
1.00595
1.01157
1.01659
1.01872
1.02198
1.02259
1.02465
1.02466
1.02553
1.02547
1.02529
1.0253
1.02466
1.02492
1.02413
1.02417
1.02332
1.02294
1.0222
1.02158
1.02091
1.02043
1.01988
1.01973
1.60962
1.42491
1.0457
0.632763
0.394244
0.325773
0.374211
0.480848
0.599305
0.760948
0.835908
0.893041
0.935857
0.960084
0.98311
0.994933
1.0064
1.01224
1.01817
1.0206
1.02372
1.02434
1.02612
1.02575
1.02689
1.02624
1.02664
1.02597
1.02581
1.02518
1.02494
1.02433
1.02403
1.02342
1.02292
1.02236
1.02173
1.02148
1.02085
1.02096
1.6278
1.38222
0.86045
0.463702
0.339178
0.365307
0.434677
0.530683
0.633032
0.765612
0.833879
0.893659
0.93343
0.96051
0.982922
0.996142
1.00773
1.01386
1.01971
1.02221
1.02495
1.02565
1.02742
1.02684
1.02818
1.02708
1.02804
1.02684
1.02754
1.02616
1.02652
1.0253
1.02551
1.02444
1.02433
1.02342
1.02297
1.02255
1.02194
1.02211
1.56941
1.32232
0.815942
0.565481
0.527771
0.539063
0.56836
0.61405
0.685857
0.785295
0.84304
0.902167
0.93527
0.96562
0.985382
1.0004
1.01018
1.01746
1.02171
1.02516
1.02683
1.02796
1.02919
1.02887
1.03021
1.02914
1.03029
1.02875
1.02981
1.02806
1.02884
1.02725
1.0278
1.02633
1.02662
1.02521
1.02503
1.024
1.02348
1.02327
1.48281
1.32318
0.998778
0.872301
0.78679
0.73951
0.705489
0.704141
0.751309
0.819933
0.866722
0.919981
0.944164
0.977451
0.989907
1.00934
1.0141
1.02402
1.026
1.03106
1.03137
1.03413
1.03371
1.03477
1.03473
1.03452
1.03491
1.03376
1.03411
1.03237
1.03266
1.03092
1.0312
1.02953
1.02963
1.02783
1.0277
1.02609
1.02579
1.02517
1.41344
1.34355
1.13383
1.07036
0.942075
0.868325
0.797307
0.790191
0.822471
0.867467
0.905151
0.945618
0.9622
0.994799
0.998859
1.02247
1.02134
1.03408
1.03299
1.03976
1.03749
1.04188
1.03899
1.04168
1.03914
1.04034
1.03876
1.03886
1.03768
1.03694
1.03604
1.03501
1.03444
1.03307
1.03252
1.03078
1.0304
1.02866
1.02846
1.02745
1.34698
1.29819
1.14472
1.10699
0.975857
0.915066
0.862342
0.883127
0.895082
0.924205
0.95391
0.977451
0.99117
1.01509
1.01548
1.03599
1.03336
1.04497
1.04178
1.04871
1.04422
1.04889
1.0442
1.04736
1.04318
1.04506
1.04192
1.04274
1.0401
1.04056
1.03812
1.03852
1.03645
1.03628
1.03464
1.0339
1.03282
1.03178
1.03149
1.03066
1.22188
1.16244
1.08607
1.04445
0.931282
0.918755
0.896443
0.929085
0.957293
0.983164
1.00621
1.01862
1.02897
1.03822
1.04185
1.05023
1.05125
1.05474
1.05369
1.05599
1.05269
1.05402
1.05035
1.05113
1.04795
1.0484
1.0461
1.04613
1.044
1.04385
1.04169
1.04191
1.03946
1.03982
1.03715
1.03722
1.035
1.03482
1.0335
1.03302
1.05938
0.968296
0.956088
0.900831
0.872013
0.892462
0.90239
0.952049
0.984662
1.02942
1.05313
1.07005
1.07226
1.07429
1.0742
1.07304
1.07662
1.07038
1.07359
1.06787
1.06871
1.06375
1.06372
1.05941
1.05956
1.05582
1.05639
1.05263
1.0529
1.04987
1.04952
1.04736
1.04625
1.04489
1.0427
1.04204
1.03973
1.03961
1.03769
1.03792
0.849116
0.776573
0.782748
0.75814
0.773664
0.815957
0.865519
0.940382
0.989695
1.05273
1.08268
1.11109
1.11677
1.12148
1.11087
1.10949
1.1055
1.0995
1.09714
1.09131
1.08933
1.08316
1.0818
1.07574
1.07498
1.06912
1.06918
1.0634
1.06417
1.05888
1.05969
1.05493
1.05531
1.0511
1.05009
1.04729
1.0453
1.04397
1.04192
1.04212
0.612031
0.617349
0.607326
0.585688
0.619401
0.689733
0.781458
0.878955
0.970049
1.04805
1.09418
1.13045
1.14747
1.15599
1.14976
1.14608
1.1356
1.13289
1.12162
1.11911
1.11019
1.10676
1.09862
1.09575
1.08818
1.08562
1.07997
1.0771
1.07376
1.07053
1.06892
1.06547
1.06431
1.0605
1.05935
1.0557
1.05448
1.05205
1.05064
1.04982
0.529995
0.529251
0.479568
0.435561
0.445464
0.516745
0.622639
0.75675
0.902542
1.00745
1.08794
1.13097
1.15801
1.17508
1.17811
1.17281
1.16501
1.15944
1.14893
1.14212
1.13362
1.12767
1.11878
1.1146
1.10519
1.10277
1.09412
1.09256
1.08532
1.0844
1.07817
1.07752
1.07165
1.07064
1.06611
1.06435
1.06138
1.05957
1.05823
1.05689
0.606752
0.558772
0.526526
0.460353
0.395742
0.380682
0.411044
0.556853
0.741301
0.907818
1.03338
1.10859
1.15028
1.17893
1.19081
1.19793
1.19247
1.18719
1.18143
1.17045
1.16467
1.15479
1.148
1.13825
1.13234
1.12385
1.11815
1.11147
1.10642
1.10122
1.09565
1.09292
1.08654
1.08537
1.07885
1.07789
1.07208
1.0713
1.06775
1.06724
0.706704
0.678427
0.669742
0.648163
0.608514
0.548784
0.435841
0.383389
0.500777
0.714748
0.906873
1.04188
1.12298
1.16998
1.19737
1.21279
1.21833
1.21783
1.21309
1.20843
1.19887
1.1931
1.18324
1.17508
1.16724
1.15742
1.15022
1.14109
1.13511
1.12545
1.12109
1.11335
1.10942
1.10312
1.09939
1.09547
1.09188
1.08949
1.08647
1.08476
0.837771
0.827802
0.851941
0.862984
0.827782
0.79843
0.759816
0.685893
0.525866
0.499769
0.682849
0.89363
1.02916
1.12214
1.17174
1.20777
1.22275
1.23236
1.23474
1.23495
1.23014
1.22552
1.2212
1.21616
1.21013
1.20452
1.19466
1.18917
1.17911
1.17276
1.16394
1.15743
1.14831
1.14132
1.13426
1.12686
1.12155
1.11331
1.10942
1.10532
1.05139
1.05179
1.03954
0.99951
0.947997
0.930369
0.921605
0.91557
0.868913
0.756745
0.612319
0.568284
0.707777
0.898468
1.01798
1.10209
1.15546
1.19432
1.2175
1.23359
1.23918
1.24075
1.23936
1.23624
1.23308
1.22955
1.22646
1.2228
1.21983
1.21571
1.21216
1.20873
1.20368
1.19935
1.19304
1.18628
1.17714
1.16821
1.15803
1.15063
1.22772
1.16012
1.09231
1.02626
0.942941
0.859261
0.819454
0.817048
0.815237
0.824366
0.81693
0.769618
0.627788
0.500088
0.5403
0.686907
0.857762
0.969403
1.06613
1.13125
1.17572
1.20068
1.21647
1.22437
1.23103
1.23332
1.23448
1.235
1.23485
1.23325
1.23194
1.23081
1.22915
1.22783
1.22672
1.22249
1.2202
1.2149
1.20907
1.20301
1.26374
1.14034
1.00209
0.862311
0.740566
0.635854
0.545086
0.506011
0.511407
0.523673
0.527585
0.507142
0.482906
0.468462
0.39826
0.295608
0.245018
0.359841
0.519546
0.683594
0.839361
0.958813
1.04872
1.09945
1.14741
1.17638
1.20554
1.21642
1.22743
1.22977
1.23192
1.2314
1.22981
1.22732
1.23296
1.23089
1.23416
1.23452
1.23912
1.24352
0.465114
0.27409
0.127618
0.0322987
0.0541307
0.107153
0.15079
0.202579
0.250277
0.290527
0.31983
0.326598
0.304043
0.279671
0.281345
0.276106
0.256428
0.17477
0.113852
0.00963228
0.108715
0.25924
0.399487
0.558598
0.662665
0.747922
0.820204
0.884267
0.941407
0.993972
1.04235
1.07906
1.11404
1.1411
1.16268
1.18619
1.20564
1.22238
1.2341
1.23962
0.26834
0.309279
0.336574
0.359374
0.377142
0.392609
0.405787
0.415031
0.416222
0.408616
0.386731
0.354014
0.327779
0.291304
0.244896
0.194483
0.147111
0.116369
0.106315
0.0960752
0.0984129
0.166765
0.176555
0.088334
0.336286
0.499811
0.568898
0.627558
0.674191
0.714961
0.750331
0.787468
0.824817
0.865403
0.904149
0.944047
0.98407
1.0314
1.0816
1.13647
1.01871
1.01849
1.01985
1.02001
1.02076
1.02065
1.02114
1.02077
1.02106
1.02053
1.02048
1.01945
1.019
1.01722
1.01548
1.01267
1.0087
1.00419
0.997522
0.99106
0.984653
0.98305
0.985349
0.992906
1.00176
1.00936
1.01092
1.01041
1.01028
1.01022
1.0102
1.01029
1.01028
1.01016
1.01001
1.00981
1.0096
1.00936
1.0091
1.00894
1.00133
1.00186
1.00088
1.00138
1.00078
1.00141
1.00104
1.00177
1.00136
1.00235
1.00225
1.00343
1.00421
1.00578
1.00809
1.01066
1.0147
1.01843
1.02294
1.02668
1.02842
1.0287
1.02738
1.02288
1.0152
1.01186
1.01133
1.01145
1.01154
1.01157
1.01156
1.01147
1.01125
1.01102
1.01079
1.01044
1.01013
1.00987
1.00957
1.00947
1.01702
1.01736
1.01873
1.01895
1.01976
1.01957
1.01997
1.0194
1.01943
1.01837
1.01818
1.01673
1.01569
1.01396
1.01177
1.0095
1.00647
1.00418
1.00148
1.00197
1.00297
1.00607
1.00775
1.0092
1.00971
1.01016
1.01042
1.01069
1.01082
1.01098
1.01118
1.01132
1.01128
1.01107
1.01092
1.01077
1.01044
1.01019
1.00999
1.00984
1.00326
1.00401
1.00346
1.00389
1.00351
1.00416
1.00409
1.00512
1.00524
1.00651
1.00712
1.00869
1.00999
1.01192
1.01421
1.01643
1.01915
1.02148
1.0235
1.02458
1.02493
1.02465
1.02296
1.02041
1.01778
1.01571
1.01424
1.01325
1.01287
1.01257
1.01239
1.01217
1.01181
1.01161
1.01124
1.01091
1.01071
1.01041
1.01028
1.01024
1.01546
1.01611
1.01711
1.01733
1.01788
1.01767
1.01776
1.0172
1.01694
1.01604
1.01547
1.0143
1.01302
1.01176
1.00997
1.00868
1.00715
1.00664
1.00634
1.00746
1.00807
1.0095
1.00984
1.01067
1.01139
1.01185
1.01185
1.01182
1.01174
1.01187
1.01208
1.01203
1.01187
1.01178
1.01164
1.01125
1.01095
1.0107
1.01049
1.01042
1.00547
1.00603
1.00584
1.00643
1.00643
1.00728
1.00747
1.00855
1.00901
1.01005
1.01093
1.01217
1.01334
1.01459
1.0159
1.01712
1.01825
1.01931
1.02002
1.02091
1.02123
1.0211
1.02012
1.01847
1.01722
1.0166
1.01563
1.01427
1.01365
1.01333
1.0131
1.01266
1.01226
1.012
1.01162
1.01143
1.01118
1.01095
1.01088
1.01083
1.01452
1.01514
1.01579
1.01602
1.01625
1.01607
1.01594
1.01558
1.01519
1.01459
1.01381
1.0132
1.01211
1.01141
1.01044
1.00997
1.00939
1.00949
1.00935
1.00988
1.01041
1.01116
1.01137
1.01192
1.01248
1.01272
1.01281
1.01282
1.01279
1.01289
1.01289
1.01279
1.01273
1.01243
1.01201
1.01169
1.01142
1.01117
1.01111
1.01098
1.00764
1.00812
1.00829
1.0089
1.00925
1.00995
1.01049
1.0112
1.01178
1.01258
1.01327
1.01406
1.01482
1.01547
1.0162
1.01682
1.01738
1.01791
1.01843
1.019
1.01908
1.01872
1.01779
1.01688
1.01656
1.01634
1.01541
1.01449
1.01409
1.01386
1.01352
1.01304
1.01288
1.01258
1.01225
1.01197
1.01165
1.01151
1.01146
1.01137
1.01385
1.0144
1.01474
1.01497
1.01501
1.01512
1.01496
1.01487
1.01444
1.01417
1.01362
1.01339
1.01296
1.01283
1.01252
1.01257
1.01249
1.01245
1.01196
1.01208
1.01238
1.01257
1.0127
1.01309
1.01357
1.01375
1.01381
1.01377
1.01376
1.01378
1.0137
1.01359
1.01331
1.01292
1.01262
1.01225
1.01191
1.01171
1.01166
1.01155
1.00969
1.01024
1.01057
1.01124
1.01165
1.01223
1.01275