/*--------------------------------*- C++ -*----------------------------------*\
  =========                 |
  \\      /  F ield         | OpenFOAM: The Open Source CFD Toolbox
   \\    /   O peration     | Website:  https://openfoam.org
    \\  /    A nd           | Version:  11
     \\/     M anipulation  |
\*---------------------------------------------------------------------------*/
FoamFile
{
    format      ascii;
    class       volScalarField;
    location    "5";
    object      p;
}
// * * * * * * * * * * * * * * * * * * * * * * * * * * * * * * * * * * * * * //

dimensions      [0 2 -2 0 0 0 0];

internalField   nonuniform List<scalar> 
9600
(
0.0516791
0.0522045
0.0530619
0.0541522
0.0553694
0.0566494
0.0577419
0.0582941
0.058089
0.0572937
0.055337
0.0521501
0.0469238
0.0397475
0.0295796
0.0166796
0.00401582
-0.00953613
-0.0225064
-0.0317916
-0.0363708
-0.0354174
-0.0284526
-0.0163744
-0.00236492
0.00997047
0.0165735
0.0141629
0.00188161
-0.0161187
-0.0350688
-0.0451912
-0.0438906
-0.0368656
-0.029826
-0.0238125
-0.019352
-0.0162822
-0.0143232
-0.0131317
0.052023
0.0527438
0.0537947
0.0549698
0.0562391
0.0575014
0.058417
0.0586879
0.0581479
0.0569812
0.0546942
0.0511593
0.0456533
0.0378849
0.0270632
0.0144005
0.00187251
-0.011119
-0.0234444
-0.0323346
-0.0369416
-0.0362673
-0.0298756
-0.0184842
-0.00482208
0.00790487
0.0160842
0.0159395
0.00644579
-0.0102376
-0.0296948
-0.0437989
-0.046699
-0.0418153
-0.0348002
-0.0280509
-0.0226168
-0.0187583
-0.0159105
-0.0141746
0.0522727
0.0530228
0.0540992
0.0552398
0.0564191
0.057494
0.0581955
0.05825
0.0575799
0.0563674
0.053919
0.0501261
0.0445011
0.0363756
0.025967
0.0138946
0.00171168
-0.0114614
-0.0236203
-0.0326035
-0.0370034
-0.0363622
-0.0301626
-0.0189355
-0.00532364
0.00744555
0.0161305
0.0171564
0.0086987
-0.00712705
-0.0258708
-0.041759
-0.0464285
-0.0419674
-0.0349298
-0.0282048
-0.0226342
-0.0187199
-0.0160785
-0.0143191
0.0525786
0.0533925
0.0545929
0.0558147
0.0570234
0.0580875
0.0586944
0.058638
0.0578927
0.0564334
0.0537545
0.0496474
0.0437297
0.0352463
0.0247338
0.0129346
-3.10358e-05
-0.012893
-0.0245885
-0.0335546
-0.0381208
-0.0377995
-0.0318935
-0.0209263
-0.00735697
0.00591979
0.0155937
0.0181717
0.0114204
-0.00326368
-0.0218474
-0.0399804
-0.0483603
-0.046295
-0.0398692
-0.0326618
-0.0263261
-0.0215464
-0.0180855
-0.0154022
0.0529411
0.0538185
0.0550985
0.0563422
0.0574786
0.0583372
0.0586846
0.0582959
0.057365
0.0556104
0.0526964
0.048468
0.0423065
0.0337585
0.0231162
0.0116807
-0.000857971
-0.01371
-0.0254593
-0.0343047
-0.0388058
-0.0384533
-0.0326842
-0.0219383
-0.00844308
0.00506125
0.0153943
0.0193614
0.0142409
0.000746014
-0.0176593
-0.0356483
-0.0476902
-0.0479743
-0.0421215
-0.0346475
-0.0277582
-0.0225008
-0.0189778
-0.0166264
0.0533614
0.0542883
0.055612
0.0568622
0.0579199
0.0586117
0.0588057
0.0583879
0.0574634
0.0555417
0.0525379
0.0481398
0.0415782
0.0328535
0.0223478
0.0108248
-0.00193408
-0.0147946
-0.0265515
-0.0354787
-0.0402006
-0.0401394
-0.0346348
-0.0239373
-0.0103342
0.00366732
0.0150326
0.0205126
0.0170902
0.00477996
-0.013819
-0.0329221
-0.0472023
-0.0507239
-0.0462184
-0.0387879
-0.0313768
-0.025393
-0.0211273
-0.0183139
0.053835
0.0547895
0.0561356
0.0573806
0.0583497
0.0588999
0.0589106
0.0584147
0.0572195
0.0550107
0.0516948
0.0470237
0.0402364
0.0313886
0.0209701
0.00935674
-0.00316557
-0.0160766
-0.027896
-0.0368754
-0.0416418
-0.0415993
-0.036163
-0.0255352
-0.0119312
0.00243156
0.0146808
0.0215737
0.0198614
0.00901583
-0.00907615
-0.0290946
-0.0456401
-0.0527892
-0.050318
-0.0430753
-0.0349111
-0.0280226
-0.0230875
-0.0201032
0.0543596
0.055324
0.0566725
0.0578932
0.0587787
0.0591979
0.0590227
0.0583941
0.0569892
0.0546508
0.0511936
0.0463708
0.0393936
0.0305526
0.0201036
0.00842958
-0.00431236
-0.0173283
-0.0292601
-0.0383718
-0.0433789
-0.0435931
-0.0383606
-0.0277588
-0.0139278
0.000900935
0.0140984
0.0225262
0.0227162
0.0134236
-0.00418988
-0.0253111
-0.0441163
-0.0543701
-0.0543754
-0.047838
-0.0392543
-0.0315754
-0.0258447
-0.0223241
0.0549211
0.0558775
0.057214
0.0584019
0.0592021
0.0594736
0.059175
0.0583496
0.0567903
0.0542851
0.0506176
0.0455165
0.0383452
0.0293463
0.0189891
0.00716024
-0.0057216
-0.0188662
-0.0309289
-0.0402297
-0.0454244
-0.0457892
-0.040664
-0.0300643
-0.0160509
-0.000782417
0.0134254
0.0233686
0.0254739
0.0179544
0.00118248
-0.0203791
-0.0414661
-0.0552049
-0.0583846
-0.053231
-0.0445118
-0.0358933
-0.029126
-0.025028
0.0555185
0.0564518
0.0577702
0.0589149
0.0596287
0.0597535
0.0593173
0.0583239
0.0565885
0.053906
0.0500491
0.0446882
0.037383
0.0283598
0.0179165
0.00588949
-0.00715515
-0.020454
-0.0327085
-0.0422401
-0.0476751
-0.0483078
-0.0433581
-0.0327541
-0.0184816
-0.00273115
0.0124922
0.0240176
0.0282459
0.0227411
0.00698559
-0.0150495
-0.0383507
-0.0556371
-0.0624691
-0.0592896
-0.0506164
-0.0409983
-0.0331602
-0.028211
0.0561352
0.0570511
0.0583396
0.0594307
0.0600604
0.0600555
0.0594532
0.0582988
0.0563885
0.0535315
0.0495046
0.0439243
0.0364746
0.0273438
0.0167671
0.00454465
-0.00870434
-0.0222411
-0.0347866
-0.0446284
-0.0503096
-0.0511476
-0.0464268
-0.0357806
-0.0210879
-0.00501704
0.0112801
0.0244003
0.030802
0.0275705
0.0132533
-0.00870933
-0.0340017
-0.0549976
-0.0660584
-0.0656911
-0.0577057
-0.0473738
-0.0381256
-0.0321632
0.0567836
0.0576774
0.058927
0.0599658
0.0605
0.0603575
0.0595996
0.0582791
0.0562015
0.0531864
0.0490002
0.0431808
0.0355649
0.0263327
0.0155945
0.00309333
-0.0104545
-0.0242628
-0.0370727
-0.0472108
-0.0531808
-0.0542857
-0.0499506
-0.0394137
-0.0242062
-0.00759891
0.00964702
0.024388
0.0331663
0.0325145
0.0201305
-0.00153438
-0.0286042
-0.0532445
-0.0692277
-0.0727423
-0.0662807
-0.0552992
-0.0445483
-0.0372967
0.0574766
0.0583344
0.059539
0.0605084
0.0609411
0.0606704
0.0597633
0.0582729
0.0560369
0.0528909
0.0485157
0.0424651
0.0346989
0.0253103
0.0142993
0.00148531
-0.0123222
-0.0264379
-0.0396035
-0.0501534
-0.0564798
-0.0578353
-0.0536807
-0.0434606
-0.0281055
-0.0103946
0.00761329
0.023819
0.035008
0.0371738
0.027372
0.00664246
-0.021672
-0.0500075
-0.0713897
-0.0799197
-0.075911
-0.0649306
-0.0525988
-0.0436165
0.0582182
0.0590232
0.060173
0.0610608
0.0613991
0.0610106
0.059953
0.0582968
0.0559187
0.0526413
0.0480581
0.0417935
0.0338276
0.0242088
0.0129258
-0.000199193
-0.0143788
-0.0288991
-0.0424818
-0.0534486
-0.0601021
-0.0616802
-0.0577447
-0.0477755
-0.0326842
-0.014033
0.00484727
0.0224412
0.0362409
0.0414935
0.0349753
0.0158675
-0.0131523
-0.0450042
-0.0722886
-0.086945
-0.0871132
-0.0769924
-0.0630787
-0.0521745
0.058991
0.0597323
0.0608239
0.0616349
0.061884
0.0613945
0.06018
0.0583744
0.0558494
0.0524105
0.047659
0.0411274
0.0329371
0.0230962
0.0114454
-0.00209263
-0.0167114
-0.0316447
-0.0456202
-0.0570432
-0.0641743
-0.0660857
-0.0623284
-0.0525057
-0.0376309
-0.0185474
0.00149888
0.0202382
0.03649
0.0448731
0.0423431
0.0259197
-0.00252017
-0.0376917
-0.0708644
-0.0932154
-0.099374
-0.0915146
-0.0765241
-0.0631235
0.0597894
0.0604748
0.0615079
0.062252
0.0624128
0.0618212
0.0604645
0.0585104
0.0558525
0.052232
0.0472467
0.04048
0.0320497
0.021872
0.00978522
-0.00418466
-0.0192197
-0.0346443
-0.04916
-0.0611026
-0.0686729
-0.0708844
-0.0673997
-0.0578203
-0.0429354
-0.0238223
-0.00297234
0.0169697
0.0356579
0.0472669
0.0491059
0.0364257
0.0102511
-0.0275349
-0.0664336
-0.0978534
-0.112077
-0.109043
-0.0940406
-0.078181
0.0606269
0.0612653
0.0622495
0.062935
0.0630083
0.06231
0.0608019
0.0587059
0.055944
0.052074
0.0468707
0.0398867
0.0310711
0.0205321
0.00799346
-0.00649045
-0.0220336
-0.0380438
-0.0531164
-0.0655544
-0.0735799
-0.076203
-0.073099
-0.0637716
-0.0489231
-0.0299337
-0.0084516
0.0130386
0.0337014
0.0482091
0.0546389
0.0466139
0.0245711
-0.0139874
-0.057682
-0.0992481
-0.124031
-0.129054
-0.116491
-0.0983983
0.0615208
0.0621193
0.0630594
0.0636904
0.0636861
0.0628638
0.0612298
0.0589971
0.0560693
0.0519933
0.046499
0.0392372
0.0300547
0.019076
0.00600188
-0.00906707
-0.0252058
-0.0418342
-0.0574303
-0.0704849
-0.0791471
-0.08212
-0.0793372
-0.0704276
-0.055637
-0.0366824
-0.0147356
0.00773014
0.0301563
0.0476864
0.0586016
0.0560787
0.0394155
0.00263429
-0.0439224
-0.0961429
-0.133363
-0.150348
-0.144283
-0.126246
0.0625072
0.0630716
0.0639695
0.0645438
0.0644374
0.0634898
0.0617719
0.0593775
0.0562495
0.0519976
0.0461631
0.0385411
0.0289135
0.0174212
0.00378385
-0.0119913
-0.0287059
-0.046011
-0.0623159
-0.0759963
-0.0852041
-0.0886004
-0.0862106
-0.0778102
-0.0631356
-0.0443283
-0.0220732
0.00120566
0.0253954
0.045443
0.0602798
0.0639066
0.0536669
0.0218842
-0.02538
-0.0876419
-0.136938
-0.17093
-0.176123
-0.162388
0.0636052
0.0641236
0.0649893
0.0655043
0.0652977
0.0642414
0.0624125
0.0598724
0.0565271
0.0520048
0.0458316
0.0377943
0.0276456
0.0155495
0.00127738
-0.0152039
-0.0326162
-0.0507454
-0.0677977
-0.0820186
-0.0918625
-0.0958857
-0.0938799
-0.0860412
-0.0716538
-0.052921
-0.030246
-0.00651986
0.0185726
0.0411418
0.0593476
0.0692685
0.0656391
0.0427961
-0.00231851
-0.0716397
-0.13505
-0.188984
-0.210249
-0.207799
0.0648305
0.0653125
0.0661385
0.0665773
0.0662892
0.0651277
0.0631836
0.0605065
0.0568773
0.0520494
0.0454021
0.0368816
0.0262533
0.0133903
-0.00153925
-0.0188299
-0.0371183
-0.0560144
-0.0738139
-0.0887859
-0.09933
-0.103927
-0.102251
-0.0950244
-0.0810269
-0.0624871
-0.039805
-0.0157237
0.0101135
0.0348556
0.0553734
0.0710854
0.0739045
0.0626547
0.0236062
-0.0424896
-0.121908
-0.203296
-0.246516
-0.261862
0.0662097
0.066658
0.0674457
0.0678113
0.0674439
0.0662139
0.0641118
0.0612193
0.0572909
0.052095
0.0449584
0.0358526
0.0246073
0.010962
-0.00472056
-0.0229729
-0.0421477
-0.0618463
-0.0805886
-0.0963073
-0.107417
-0.112786
-0.111569
-0.104901
-0.0914439
-0.0732007
-0.0506155
-0.0260066
-0.000297947
0.0260718
0.0481375
0.0685966
0.077255
0.0776164
0.0492834
-0.000545296
-0.0880554
-0.195084
-0.278734
-0.318409
0.0677716
0.0681864
0.0689554
0.0692497
0.068778
0.0674773
0.0651975
0.0620336
0.0577402
0.0520308
0.0443951
0.0346057
0.0227105
0.00814598
-0.0085095
-0.0275707
-0.0478545
-0.0685447
-0.0881248
-0.104624
-0.116399
-0.122636
-0.122032
-0.115835
-0.102966
-0.0851229
-0.0629753
-0.0378829
-0.0125016
0.0145928
0.038437
0.0608677
0.0745547
0.0847778
0.067901
0.0410069
-0.0400967
-0.139652
-0.274024
-0.366339
0.0695373
0.0699333
0.070722
0.0709798
0.070361
0.0688799
0.0664353
0.0629145
0.0582127
0.0519708
0.0436702
0.0331208
0.020522
0.00488338
-0.0128446
-0.0328073
-0.0543827
-0.0760772
-0.0965068
-0.113878
-0.126357
-0.133473
-0.133237
-0.127799
-0.115844
-0.0983494
-0.076795
-0.0518691
-0.0261462
0.000660954
0.0262827
0.0488362
0.067707
0.0812416
0.0771757
0.0608342
0.00329208
-0.0537976
-0.20869
-0.312195
0.0716252
0.0720049
0.0727684
0.0729727
0.0722355
0.0704739
0.0677748
0.0638878
0.0586311
0.0517602
0.0427949
0.0312836
0.0176983
0.00114549
-0.017871
-0.0389909
-0.0617402
-0.0845029
-0.105959
-0.124352
-0.137341
-0.145412
-0.1469
-0.141095
-0.130084
-0.113313
-0.0922595
-0.0677446
-0.0413414
-0.0148855
0.011464
0.0346699
0.0558707
0.0711778
0.0764441
0.065959
0.0342944
-0.00708108
-0.117241
-0.185329
0.0741071
0.0744461
0.0751563
0.0752019
0.0743861
0.0723795
0.0691906
0.0648912
0.059079
0.0513467
0.0416369
0.0290741
0.0143507
-0.00326297
-0.0238241
-0.0460821
-0.0701524
-0.0941533
-0.116495
-0.135896
-0.149791
-0.158269
-0.160833
-0.156007
-0.145727
-0.129908
-0.109536
-0.085629
-0.0591831
-0.0324794
-0.00552771
0.0185894
0.0397028
0.0577448
0.0674132
0.0640975
0.0476793
0.0114508
-0.0512973
-0.13573
0.0770494
0.0772665
0.0779802
0.0778816
0.0767374
0.074449
0.0708539
0.0658368
0.0593619
0.0506716
0.0399582
0.0263974
0.0101146
-0.0086328
-0.0307259
-0.0544124
-0.0798276
-0.105163
-0.128488
-0.148684
-0.163734
-0.172681
-0.176064
-0.172539
-0.163074
-0.148367
-0.128891
-0.105617
-0.079745
-0.0527681
-0.0254001
-9.09586e-05
0.0212045
0.0405688
0.0539734
0.0576364
0.0511843
0.0315463
-0.009778
-0.0898725
0.0805665
0.0806177
0.0811833
0.0809371
0.0794401
0.0766825
0.0725641
0.066765
0.05934
0.0497474
0.0375756
0.0230042
0.00508896
-0.0153133
-0.0387966
-0.0643136
-0.0910213
-0.117665
-0.14212
-0.162994
-0.179208
-0.188845
-0.192913
-0.190694
-0.182298
-0.168773
-0.150504
-0.128285
-0.10304
-0.0757723
-0.0488004
-0.0218608
0.000837564
0.0197988
0.0360676
0.0456794
0.045923
0.0379579
0.00880196
-0.0521039
0.0846798
0.0844904
0.0847759
0.0843386
0.0825437
0.0790729
0.0741017
0.0676288
0.0588355
0.0481956
0.0346407
0.0182093
-0.00104095
-0.0234559
-0.0485576
-0.0758668
-0.1041
-0.131961
-0.157692
-0.179283
-0.196364
-0.207025
-0.211728
-0.210813
-0.203532
-0.19137
-0.17466
-0.15363
-0.129955
-0.102431
-0.0752603
-0.0481531
-0.0225334
-0.00249215
0.0143268
0.0278653
0.0332973
0.030585
0.0159937
-0.0237452
0.0893849
0.0889499
0.0890428
0.0881037
0.0857389
0.0816817
0.0755568
0.068059
0.0579793
0.0454967
0.0306258
0.0121008
-0.00905751
-0.0333276
-0.06047
-0.0896201
-0.119457
-0.14867
-0.175257
-0.197885
-0.215499
-0.227466
-0.232706
-0.232897
-0.227221
-0.216079
-0.201688
-0.182193
-0.160176
-0.134323
-0.105354
-0.0782939
-0.0512962
-0.0270757
-0.00917771
0.00589485
0.0163651
0.0163107
0.0106351
-0.0101368
0.0952118
0.094305
0.0937706
0.0922903
0.0890286
0.0841627
0.0771248
0.0677656
0.0562953
0.0418008
0.0248374
0.00433221
-0.019197
-0.0457075
-0.0748508
-0.106204
-0.137421
-0.168112
-0.195596
-0.219044
-0.237427
-0.249889
-0.256749
-0.256953
-0.253432
-0.243907
-0.230906
-0.214953
-0.194064
-0.170575
-0.143013
-0.113487
-0.0857329
-0.0586011
-0.0351778
-0.0179577
-0.00451731
0.00373206
0.0033439
-0.00626201
0.101796
0.100492
0.099238
0.0966915
0.0924145
0.0860546
0.0774379
0.0663215
0.0527716
0.0360126
0.0165801
-0.00626636
-0.0323556
-0.0613536
-0.0928735
-0.126028
-0.159305
-0.190633
-0.219595
-0.243185
-0.262386
-0.275471
-0.282937
-0.284682
-0.281445
-0.274909
-0.263952
-0.250351
-0.233389
-0.212204
-0.186634
-0.157727
-0.127992
-0.0984281
-0.0711635
-0.0480975
-0.0296121
-0.0169691
-0.00840855
-0.00310053
0.109498
0.107165
0.105255
0.101781
0.0960757
0.0881409
0.0773544
0.0637053
0.0475229
0.0279631
0.00526837
-0.0203588
-0.0494765
-0.0810568
-0.115365
-0.150133
-0.185339
-0.217628
-0.246923
-0.271814
-0.290553
-0.304622
-0.312216
-0.314794
-0.312989
-0.308121
-0.30015
-0.289806
-0.276832
-0.25886
-0.237858
-0.211378
-0.181045
-0.151081
-0.120196
-0.0916601
-0.0682871
-0.0480769
-0.0326222
-0.023183
0.11797
0.114219
0.110441
0.105136
0.0973238
0.0866103
0.0735698
0.0570691
0.0376807
0.0149943
-0.0113388
-0.0403741
-0.0725095
-0.107183
-0.14371
-0.180715
-0.216654
-0.250221
-0.279747
-0.30481
-0.32383
-0.337646
-0.345816
-0.348417
-0.348254
-0.344547
-0.339936
-0.333318
-0.3243
-0.31221
-0.295098
-0.274062
-0.248483
-0.217713
-0.186903
-0.155232
-0.124144
-0.0990074
-0.0769984
-0.0599904
0.129206
0.123835
0.118122
0.110404
0.099767
0.0853606
0.0680253
0.0472995
0.0232786
-0.00348111
-0.0338457
-0.0669243
-0.102424
-0.140258
-0.179126
-0.217788
-0.254976
-0.288576
-0.31861
-0.342967
-0.361822
-0.375011
-0.383077
-0.386236
-0.38703
-0.386362
-0.3832
-0.380774
-0.377577
-0.369605
-0.359742
-0.346649
-0.325693
-0.302954
-0.274687
-0.242231
-0.210559
-0.178341
-0.149071
-0.128224
0.134794
0.125876
0.116422
0.104918
0.0910609
0.0730988
0.0516738
0.026658
-0.00195468
-0.0335565
-0.0680623
-0.104706
-0.143705
-0.183966
-0.224336
-0.26428
-0.301306
-0.334669
-0.363586
-0.387125
-0.403801
-0.415782
-0.422562
-0.425401
-0.427583
-0.430265
-0.430855
-0.433395
-0.434829
-0.434287
-0.431736
-0.426497
-0.41763
-0.403904
-0.385503
-0.363591
-0.336311
-0.304303
-0.272008
-0.244799
0.157063
0.144487
0.128129
0.107134
0.0832455
0.0556713
0.0247106
-0.00885911
-0.0443821
-0.0823656
-0.12276
-0.164392
-0.207687
-0.250855
-0.292988
-0.333227
-0.369248
-0.400047
-0.424953
-0.443355
-0.45476
-0.4613
-0.464324
-0.465739
-0.467334
-0.470942
-0.475685
-0.481673
-0.488068
-0.493867
-0.499171
-0.503724
-0.506907
-0.509062
-0.511162
-0.510781
-0.503442
-0.486935
-0.460318
-0.426652
0.116421
0.0936948
0.0727237
0.0489744
0.0217438
-0.00961902
-0.0447624
-0.0830459
-0.124557
-0.168204
-0.21416
-0.260351
-0.307733
-0.353381
-0.3978
-0.438733
-0.475201
-0.504735
-0.527718
-0.542008
-0.54849
-0.549009
-0.545074
-0.540304
-0.536739
-0.538127
-0.544383
-0.554203
-0.565761
-0.575966
-0.583004
-0.582206
-0.581773
-0.592905
-0.620208
-0.659201
-0.700855
-0.732047
-0.748341
-0.752834
0.18449
0.146899
0.104824
0.0618161
0.0198167
-0.0227845
-0.0684115
-0.115568
-0.164435
-0.213648
-0.263043
-0.310434
-0.356341
-0.397866
-0.436051
-0.470991
-0.500355
-0.523261
-0.539392
-0.54694
-0.547924
-0.541479
-0.530861
-0.518815
-0.507635
-0.50446
-0.511671
-0.534087
-0.567082
-0.607372
-0.633493
-0.626324
-0.596885
-0.573992
-0.572139
-0.59138
-0.619283
-0.649422
-0.67927
-0.704952
-0.136821
-0.174638
-0.218687
-0.273768
-0.333698
-0.392478
-0.451594
-0.50933
-0.566546
-0.619662
-0.66542
-0.702557
-0.734328
-0.764467
-0.790474
-0.812016
-0.825331
-0.830587
-0.827549
-0.817152
-0.799411
-0.772335
-0.738109
-0.698688
-0.661079
-0.627535
-0.605488
-0.596918
-0.604565
-0.634563
-0.646718
-0.642764
-0.63987
-0.636543
-0.635046
-0.636365
-0.640128
-0.646179
-0.653096
-0.66215
-0.0115484
-0.0101693
-0.00899473
-0.00748544
-0.0057048
-0.00428679
-0.00421544
-0.00295769
-0.00225056
-0.00100638
8.15509e-05
0.000276378
0.000207867
-6.55677e-05
-0.000322579
-0.000456343
-0.000602148
-0.000565189
-0.000451099
-0.000280457
-0.000147878
2.02941e-05
0.000203464
0.000430934
0.000728158
0.00102073
0.00127477
0.00153391
0.00178797
0.00199272
0.00216577
0.00228975
0.00242272
0.00252873
0.00264892
0.00274495
0.00292731
0.0030842
0.00326121
0.0026515
-0.0109978
-0.0111135
-0.00989729
-0.00810136
-0.00637803
-0.00478129
-0.004808
-0.00383948
-0.00222464
-0.00110229
0.000149069
0.000381803
0.000311628
1.24532e-05
-0.000341226
-0.000549606
-0.000689461
-0.000644159
-0.000524725
-0.000406922
-0.000278384
-9.57062e-05
7.05162e-05
0.000270337
0.00055947
0.000847373
0.0011558
0.00145854
0.001739
0.00197366
0.00213743
0.0022734
0.00240338
0.00251921
0.00263828
0.00276656
0.00294625
0.00305431
0.00276443
0.00151999
-0.0119029
-0.0119297
-0.0109266
-0.00886552
-0.00710942
-0.0053904
-0.0052736
-0.0049716
-0.00225574
-0.00107201
0.00025334
0.000504962
0.000420122
7.69105e-05
-0.000327414
-0.000578242
-0.00071184
-0.000762385
-0.00069492
-0.000581605
-0.000415837
-0.00019004
-1.00123e-05
0.000189902
0.000445219
0.000699582
0.0010109
0.00132023
0.00161513
0.00185713
0.00203013
0.00220111
0.00234121
0.00247559
0.00259368
0.00274308
0.00293423
0.00316459
0.0034287
0.00372148
-0.0125445
-0.012696
-0.0121112
-0.00988223
-0.0079741
-0.00612161
-0.00565348
-0.00611761
-0.00238811
-0.000843833
0.000449456
0.00073079
0.000517277
0.000183483
-0.000252959
-0.00058219
-0.000778338
-0.000908114
-0.000872732
-0.000763234
-0.000554709
-0.000299464
-8.35397e-05
0.000172381
0.000412579
0.000637403
0.000896651
0.00117132
0.00144665
0.00167689
0.0018707
0.00207572
0.00224602
0.00240567
0.00254741
0.0027225
0.00290751
0.00301419
0.00289429
0.00228185
-0.0140297
-0.0136567
-0.0135464
-0.0112203
-0.00904039
-0.00697993
-0.00596014
-0.00707069
-0.00244906
-0.0004375
0.00082612
0.00107947
0.000647833
0.000315221
-0.000188287
-0.000616018
-0.000855327
-0.000980215
-0.000986776
-0.000900409
-0.00069259
-0.000470849
-0.000223513
0.000104299
0.00036198
0.000600835
0.000796804
0.00102713
0.00127177
0.00149357
0.00170855
0.00194526
0.00214749
0.00234471
0.00251458
0.002698
0.00288099
0.00307086
0.003383
0.00381783
-0.0153991
-0.0148421
-0.0152049
-0.0129349
-0.0103999
-0.0080421
-0.00616649
-0.00780419
-0.00226223
0.000116661
0.00139063
0.0015458
0.00088496
0.00042225
-8.97754e-05
-0.000606299
-0.000894327
-0.00103036
-0.0010755
-0.000969632
-0.000797013
-0.00066377
-0.000411574
-4.60796e-05
0.000239522
0.000507521
0.000668787
0.000889826
0.00111038
0.00133641
0.00156633
0.00181969
0.00205076
0.00227713
0.00244779
0.00263354
0.00280012
0.00292168
0.00292404
0.00267006
-0.01716
-0.0164742
-0.0172841
-0.0151712
-0.0121639
-0.00936349
-0.00624707
-0.00815898
-0.00185201
0.000840535
0.00209083
0.0020877
0.00129201
0.000616007
2.88845e-05
-0.000532765
-0.00090676
-0.00106711
-0.0011477
-0.00102299
-0.000909746
-0.000801385
-0.000533284
-0.000201466
7.14409e-05
0.000348369
0.000507876
0.000739828
0.000943939
0.00118237
0.00141188
0.00166665
0.00190561
0.00212788
0.00229497
0.00250065
0.00268048
0.00288438
0.00321813
0.00363897
-0.0191361
-0.0184848
-0.0199159
-0.0180909
-0.0144542
-0.0110182
-0.00629568
-0.00799147
-0.0012499
0.0018344
0.00300076
0.00271953
0.0018848
0.000940083
0.000203488
-0.000363558
-0.000846048
-0.00109805
-0.00123635
-0.00112415
-0.00104185
-0.000870801
-0.000589031
-0.000334075
-0.000101171
0.000148507
0.000313566
0.000555027
0.000763139
0.00101495
0.00123816
0.00148599
0.00171493
0.00193469
0.00213478
0.00237495
0.00257303
0.00276274
0.00285262
0.00280201
-0.0215904
-0.0212102
-0.0232584
-0.0219891
-0.0174463
-0.0130865
-0.00642936
-0.00721007
-0.000426506
0.00327801
0.00421289
0.00353203
0.00262591
0.0013875
0.000500923
-0.000148302
-0.000776413
-0.00113838
-0.00129803
-0.00126438
-0.00121271
-0.000990529
-0.000690113
-0.000478348
-0.000274673
-7.31047e-05
0.000108371
0.000371503
0.000602103
0.000872865
0.00110199
0.00136589
0.00161069
0.00184032
0.00206581
0.00231246
0.0025178
0.00274754
0.00303486
0.00335846
-0.0243262
-0.0245878
-0.0275197
-0.0270307
-0.0213735
-0.015645
-0.00707612
-0.0053976
0.000747189
0.00511835
0.00568137
0.00453059
0.00351234
0.00197714
0.000897686
9.39946e-05
-0.000673185
-0.00112417
-0.00131886
-0.00143422
-0.00142025
-0.00121266
-0.000923613
-0.000729837
-0.000510173
-0.000329718
-0.000102594
0.000184222
0.000455925
0.000764584
0.00103918
0.00134284
0.00160029
0.00182463
0.00204649
0.00225351
0.00243363
0.00264273
0.00279151
0.00286505
-0.027796
-0.0291557
-0.0330979
-0.0335097
-0.0266209
-0.0187808
-0.00802901
-0.00273219
0.00226291
0.00725943
0.00729164
0.00575963
0.00451566
0.00272948
0.00142767
0.000342123
-0.0005128
-0.00107001
-0.00129755
-0.00156803
-0.00158688
-0.00146303
-0.00125481
-0.00109491
-0.00085116
-0.000672081
-0.000387513
-8.33565e-05
0.000248158
0.000585617
0.00090848
0.00122083
0.00146317
0.00166502
0.0018635
0.00203961
0.00224745
0.00249792
0.00277246
0.0030657
-0.0320561
-0.0349863
-0.040558
-0.0418725
-0.0336259
-0.0226991
-0.00952158
0.000330873
0.004536
0.009941
0.00905024
0.00726136
0.00560865
0.00361076
0.00195803
0.000578909
-0.000331891
-0.0010069
-0.00127378
-0.00162238
-0.00165753
-0.00167808
-0.00160484
-0.00150453
-0.0012771
-0.00107713
-0.000750818
-0.000449722
-9.01649e-05
0.000241881
0.000569027
0.000844528
0.00106298
0.00128427
0.00152156
0.00175726
0.00204361
0.00231944
0.00257903
0.00277839
-0.0373676
-0.042775
-0.050838
-0.0528731
-0.0429827
-0.0277387
-0.0115549
0.00316082
0.00791236
0.0132458
0.011102
0.00900453
0.00683688
0.00453103
0.00249783
0.000880379
-0.000162666
-0.000941557
-0.00129741
-0.00170733
-0.00179688
-0.00195233
-0.00195348
-0.00188377
-0.00169051
-0.00145733
-0.00112431
-0.000822375
-0.000471906
-0.000124443
0.000190454
0.000448213
0.000701071
0.000996311
0.00129233
0.00158549
0.00190763
0.00219894
0.00251073
0.00278877
-0.0442131
-0.052919
-0.0650045
-0.0676621
-0.055554
-0.0345106
-0.0141444
0.00546518
0.0120364
0.0169977
0.0136724
0.0110678
0.00829588
0.00547439
0.00318044
0.00125858
6.84812e-06
-0.000923097
-0.00147023
-0.00195372
-0.00211399
-0.00231106
-0.00230398
-0.00225277
-0.00207212
-0.00180064
-0.00145343
-0.00110676
-0.000729219
-0.000328238
-7.61982e-06
0.000290096
0.000578462
0.00091356
0.00122075
0.00152583
0.00182925
0.00210048
0.00241022
0.00262903
-0.0528257
-0.0668966
-0.0846785
-0.0878851
-0.0723456
-0.0436757
-0.0173468
0.0069842
0.0163099
0.0210573
0.0169242
0.0136642
0.010022
0.00656
0.00408646
0.00173925
0.000237533
-0.000901149
-0.00168765
-0.00223146
-0.00251901
-0.00275088
-0.00274581
-0.00271427
-0.00251238
-0.00221976
-0.00183147
-0.00142425
-0.00100529
-0.000573805
-0.000251381
9.7018e-05
0.000403582
0.000753276
0.00104836
0.001362
0.00163448
0.00189706
0.00218412
0.00242205
-0.0646333
-0.086594
-0.112426
-0.116062
-0.0948883
-0.0560944
-0.0215087
0.00781956
0.0204669
0.0253137
0.0207532
0.0166838
0.0118798
0.00786652
0.00505566
0.00233245
0.000664691
-0.000758743
-0.00177054
-0.00242858
-0.00288983
-0.00320243
-0.0032471
-0.0032692
-0.00305691
-0.00279504
-0.00238004
-0.00197069
-0.00154236
-0.00115289
-0.000831422
-0.000446633
-0.000143679
0.000250922
0.00060017
0.000987853
0.00130528
0.00162923
0.00196878
0.00219269
-0.080479
-0.115278
-0.154989
-0.156591
-0.125294
-0.0728479
-0.0270732
0.00793446
0.024532
0.0295222
0.0247601
0.0194725
0.0136705
0.00924592
0.00588688
0.00299811
0.00114575
-0.000529346
-0.00174798
-0.00257874
-0.00317858
-0.00358324
-0.00369073
-0.00375594
-0.00352598
-0.00333827
-0.0029391
-0.00260152
-0.00219639
-0.0018871
-0.00154309
-0.00116708
-0.000815207
-0.000318479
0.00011785
0.000591661
0.000963627
0.00132466
0.00163812
0.00183504
-0.104442
-0.158813
-0.216694
-0.217548
-0.166291
-0.0950399
-0.0346604
0.00706056
0.0285855
0.0333342
0.0281845
0.0218151
0.0153054
0.0105387
0.006613
0.00358805
0.00138793
-0.000410786
-0.00188563
-0.00284977
-0.00350403
-0.00387932
-0.0039801
-0.00400249
-0.0037758
-0.00363037
-0.00326323
-0.00301443
-0.00262389
-0.00236054
-0.00198768
-0.00165844
-0.00124919
-0.000753
-0.000307789
0.000179229
0.000569868
0.00095416
0.00124853
0.00142986
-0.13984
-0.225045
-0.305729
-0.298947
-0.219339
-0.123297
-0.0449342
0.00511764
0.0321131
0.0365735
0.0308858
0.0240622
0.0168363
0.011842
0.00734017
0.00394186
0.00125603
-0.000633594
-0.00230413
-0.00325362
-0.00397136
-0.00424561
-0.00435901
-0.00430403
-0.00410131
-0.00392942
-0.00357703
-0.00336699
-0.0029801
-0.00276378
-0.00241524
-0.00215293
-0.00172599
-0.00130571
-0.000859843
-0.000389106
3.25228e-05
0.000464614
0.000790145
0.000982748
-0.192611
-0.314159
-0.426897
-0.397708
-0.281574
-0.156665
-0.0581426
0.00195125
0.0343041
0.0387903
0.0329146
0.0260157
0.0185499
0.0133158
0.00800789
0.00417912
0.00104554
-0.00108142
-0.00287601
-0.00385646
-0.0047117
-0.00501285
-0.00527595
-0.00516341
-0.00496987
-0.00471498
-0.00435147
-0.00410817
-0.003725
-0.00352683
-0.0031592
-0.00288563
-0.00241492
-0.00200889
-0.0014982
-0.00101383
-0.000514048
-4.70332e-05
0.000310628
0.000498546
-0.278685
-0.432585
-0.58082
-0.510806
-0.347122
-0.191875
-0.0733956
-0.00295285
0.0342406
0.0390934
0.0338619
0.0273023
0.0199763
0.0144311
0.00870264
0.00465522
0.0010834
-0.00142843
-0.00342111
-0.00466281
-0.00571482
-0.0061527
-0.00653523
-0.00639084
-0.00619937
-0.00580195
-0.00539518
-0.00503637
-0.0046347
-0.00433265
-0.00388802
-0.00351181
-0.00295903
-0.0025206
-0.0019511
-0.00145474
-0.000908113
-0.000469407
-0.00010218
3.89168e-05
-0.406521
-0.595009
-0.757554
-0.619893
-0.4069
-0.222634
-0.0895307
-0.00970919
0.0307102
0.0369143
0.0332449
0.0272848
0.0201913
0.0147855
0.00920658
0.0050388
0.00120582
-0.00153056
-0.00383842
-0.00529962
-0.00645453
-0.00692843
-0.00731727
-0.00710814
-0.00696703
-0.00647108
-0.00606156
-0.00558127
-0.00516966
-0.00473028
-0.00425212
-0.00377018
-0.00324335
-0.00278542
-0.00223374
-0.00176701
-0.00124733
-0.000872435
-0.000521572
-0.000450702
-0.534733
-0.778173
-0.908351
-0.688776
-0.445582
-0.245297
-0.102448
-0.0181212
0.022495
0.0316441
0.0303712
0.0251458
0.0190064
0.0140956
0.00860549
0.00463362
0.00075485
-0.00177632
-0.00408237
-0.00545321
-0.00659511
-0.00701382
-0.00744218
-0.00723279
-0.00722665
-0.00673306
-0.00650244
-0.00603333
-0.00567727
-0.00518261
-0.00476901
-0.00427184
-0.0038359
-0.0033341
-0.00284907
-0.00235215
-0.00186669
-0.00147974
-0.00111763
-0.0010644
-0.599763
-0.84912
-0.927466
-0.682169
-0.446606
-0.250034
-0.110676
-0.0288304
0.00920998
0.0216962
0.0243735
0.020189
0.0160151
0.0114082
0.00647604
0.00298351
-0.000673564
-0.00271645
-0.0047856
-0.00597479
-0.00711934
-0.00760677
-0.00809179
-0.00807056
-0.00822134
-0.00784699
-0.00782346
-0.00738199
-0.00713623
-0.00659769
-0.00621186
-0.00568992
-0.00522602
-0.00467251
-0.00416829
-0.00353737
-0.00299759
-0.00241981
-0.00198055
-0.00187721
-0.614029
-0.717864
-0.752921
-0.572202
-0.401954
-0.23595
-0.115937
-0.0446484
-0.00862362
0.00729937
0.0138498
0.0117578
0.0104334
0.00616576
0.00296898
-0.000308961
-0.00319622
-0.00500838
-0.00688674
-0.00819052
-0.00924338
-0.00997303
-0.0104257
-0.0105613
-0.0106135
-0.0104036
-0.010286
-0.00981904
-0.00953564
-0.00890836
-0.00845539
-0.00780302
-0.00729864
-0.00662789
-0.00598048
-0.00517046
-0.00441145
-0.00360333
-0.00309583
-0.00292137
-0.419697
-0.516205
-0.510714
-0.42189
-0.321702
-0.205942
-0.125003
-0.0673218
-0.0326799
-0.011766
-0.00233207
-6.98249e-05
0.00139847
-0.00122385
-0.00210774
-0.00508543
-0.00670681
-0.00885934
-0.010238
-0.0117115
-0.0124437
-0.0133156
-0.0134161
-0.0135887
-0.0132958
-0.0131289
-0.012628
-0.0121768
-0.0115647
-0.0109687
-0.0103639
-0.00970521
-0.00910384
-0.00829862
-0.00752131
-0.00657175
-0.00577323
-0.00494535
-0.00439389
-0.004112
-0.24018
-0.322598
-0.325154
-0.299222
-0.247865
-0.187126
-0.141236
-0.0963136
-0.0638144
-0.037786
-0.024941
-0.0158894
-0.0118684
-0.0104828
-0.00931968
-0.0107205
-0.0109938
-0.0129116
-0.0133276
-0.0147136
-0.0148738
-0.0155477
-0.0152414
-0.0154431
-0.0148365
-0.0145602
-0.013872
-0.0134013
-0.0126028
-0.0122183
-0.0114535
-0.0109745
-0.01021
-0.00952011
-0.00863907
-0.00773832
-0.00692943
-0.00616399
-0.00573173
-0.00542061
-0.115011
-0.175623
-0.199579
-0.214477
-0.200046
-0.183789
-0.159288
-0.128085
-0.0997346
-0.0724531
-0.0548648
-0.0387519
-0.030579
-0.0236053
-0.0203133
-0.0179429
-0.0171208
-0.0167985
-0.0165782
-0.0169158
-0.0167311
-0.0169103
-0.0165771
-0.0165476
-0.0160786
-0.0158519
-0.0153332
-0.0149145
-0.0142298
-0.0137859
-0.0131069
-0.0126235
-0.0118134
-0.0112483
-0.01023
-0.00943455
-0.00844979
-0.00769877
-0.00710802
-0.00684317
-0.0512524
-0.0959689
-0.128174
-0.155081
-0.171453
-0.186137
-0.179044
-0.165307
-0.14187
-0.116316
-0.0921142
-0.0718433
-0.0566897
-0.0448757
-0.0370156
-0.0303585
-0.0274689
-0.0240966