/*--------------------------------*- C++ -*----------------------------------*\
  =========                 |
  \\      /  F ield         | OpenFOAM: The Open Source CFD Toolbox
   \\    /   O peration     | Website:  https://openfoam.org
    \\  /    A nd           | Version:  11
     \\/     M anipulation  |
\*---------------------------------------------------------------------------*/
FoamFile
{
    format      ascii;
    class       volScalarField;
    location    "7.5";
    object      mag(U);
}
// * * * * * * * * * * * * * * * * * * * * * * * * * * * * * * * * * * * * * //

dimensions      [0 1 -1 0 0 0 0];

internalField   nonuniform List<scalar> 
9600
(
0.96491
0.961669
0.9576
0.954509
0.949873
0.942483
0.936577
0.934527
0.930442
0.924244
0.919625
0.919435
0.921581
0.924903
0.929785
0.937374
0.945813
0.958602
0.979421
0.999429
1.00806
1.00753
1.00255
0.986328
0.953168
0.922601
0.894835
0.869583
0.847186
0.831339
0.823074
0.823313
0.837725
0.871413
0.916286
0.984461
1.09005
1.23407
1.3399
1.30758
0.967669
0.966553
0.964385
0.961337
0.958522
0.956032
0.952276
0.949811
0.948103
0.947015
0.947211
0.948141
0.95044
0.954568
0.963602
0.973071
0.982004
0.996716
1.01415
1.03398
1.05497
1.06607
1.06675
1.06389
1.05628
1.0395
1.01139
0.98102
0.951087
0.925515
0.907084
0.896614
0.894148
0.89749
0.919865
0.976104
1.06626
1.17839
1.36166
1.38672
0.966088
0.965237
0.963236
0.960133
0.957593
0.955642
0.952407
0.949624
0.948052
0.947132
0.947053
0.948343
0.9511
0.954978
0.963452
0.974255
0.985564
0.999199
1.01361
1.03019
1.0511
1.06999
1.07859
1.07872
1.07432
1.06217
1.03341
1.00069
0.968055
0.938118
0.914015
0.900757
0.897834
0.901247
0.920133
0.95922
1.04046
1.11052
1.27421
1.36124
0.96584
0.964772
0.96249
0.959126
0.956688
0.954653
0.951453
0.948931
0.947758
0.946817
0.946888
0.948177
0.951392
0.955873
0.964288
0.974936
0.986087
1.0006
1.01623
1.03045
1.04721
1.06671
1.08121
1.08606
1.08436
1.07651
1.0562
1.02877
1.00078
0.971066
0.944494
0.918081
0.90508
0.900733
0.913772
0.939148
1.02273
1.08846
1.22733
1.35317
0.964869
0.963718
0.961234
0.957986
0.955918
0.953754
0.951061
0.949087
0.947914
0.947223
0.947419
0.948743
0.951628
0.957602
0.963925
0.973909
0.987061
1.00235
1.01881
1.03271
1.04545
1.06122
1.07842
1.0898
1.0935
1.09003
1.07847
1.05284
1.0226
0.988304
0.956962
0.927748
0.911305
0.904485
0.912095
0.923767
0.979595
1.04158
1.14209
1.29701
0.964154
0.962859
0.960427
0.957308
0.954861
0.952931
0.950716
0.948587
0.947554
0.947017
0.947035
0.94834
0.95141
0.958581
0.964816
0.974076
0.98778
1.00269
1.01841
1.03327
1.04719
1.06099
1.07677
1.08998
1.09739
1.09587
1.08779
1.06626
1.04138
1.00902
0.979704
0.944077
0.921256
0.903512
0.906971
0.90766
0.949768
1.01927
1.10904
1.2642
0.962984
0.961653
0.959164
0.956036
0.95375
0.952024
0.949926
0.948204
0.947172
0.946979
0.947269
0.949195
0.952244
0.958514
0.96511
0.974899
0.988661
1.00289
1.01878
1.03462
1.04976
1.06132
1.07564
1.08788
1.099
1.09959
1.0957
1.07954
1.05806
1.02403
0.995755
0.958451
0.932951
0.907513
0.904956
0.901314
0.917499
0.98266
1.0323
1.19597
0.962153
0.960791
0.958231
0.95524
0.95306
0.951313
0.949388
0.947874
0.946901
0.946879
0.947197
0.949017
0.952328
0.958692
0.966203
0.975624
0.988962
1.00283
1.01955
1.03466
1.05107
1.06202
1.07554
1.08659
1.10012
1.1025
1.10074
1.08683
1.07123
1.03756
1.01186
0.971816
0.947249
0.913218
0.903295
0.894134
0.893155
0.944591
0.982211
1.13632
0.960885
0.95951
0.95687
0.95409
0.951884
0.950416
0.948543
0.947289
0.946517
0.946543
0.94708
0.949437
0.952732
0.958904
0.966944
0.97618
0.989924
1.00346
1.02051
1.03443
1.05275
1.06414
1.0774
1.08558
1.09978
1.10382
1.10591
1.09371
1.08084
1.05018
1.0262
0.984265
0.959457
0.921085
0.903542
0.89286
0.879508
0.910626
0.926487
1.06385
0.959973
0.958516
0.955963
0.953317
0.951066
0.949785
0.947894
0.946738
0.946045
0.946501
0.946883
0.949587
0.953276
0.958903
0.967545
0.977098
0.990329
1.00367
1.02121
1.0352
1.05318
1.06508
1.07888
1.08568
1.09831
1.10426
1.11017
1.10041
1.0906
1.06302
1.03971
0.995268
0.970688
0.934048
0.90781
0.890459
0.863581
0.881891
0.883722
0.996806
0.958619
0.957162
0.954492
0.952222
0.950078
0.94865
0.947044
0.946144
0.945278
0.946143
0.947075
0.949294
0.953774
0.959099
0.968811
0.977566
0.991109
1.00343
1.02339
1.036
1.05366
1.06508
1.08082
1.0876
1.09941
1.10406
1.11297
1.10576
1.09947
1.07414
1.05406
1.01112
0.981796
0.947864
0.910575
0.890684
0.856217
0.864954
0.852918
0.934828
0.957622
0.956111
0.953474
0.951212
0.949277
0.94766
0.946225
0.945617
0.944503
0.945641
0.947205
0.949026
0.954154
0.959253
0.969062
0.978124
0.992938
1.00375
1.02294
1.03647
1.05533
1.06603
1.08232
1.0887
1.10056
1.10363
1.11457
1.11014
1.10731
1.08537
1.06835
1.03167
0.988669
0.964059
0.921796
0.898192
0.853008
0.849596
0.827755
0.880523
0.95624
0.954676
0.952198
0.949788
0.948035
0.946803
0.945017
0.944849
0.944582
0.944464
0.947203
0.949207
0.954831
0.958774
0.969965
0.978481
0.994662
1.00482
1.02335
1.03666
1.05725
1.06708
1.08362
1.08952
1.1025
1.10481
1.11648
1.11381
1.11482
1.09804
1.07654
1.05377
1.00514
0.978372
0.932768
0.907719
0.860197
0.843395
0.820148
0.84355
0.955161
0.953507
0.950903
0.948826
0.946842
0.945748
0.944437
0.943442
0.943799
0.943961
0.946423
0.948683
0.955297
0.958968
0.970757
0.978485
0.995167
1.00589
1.02523
1.03692
1.05756
1.0673
1.08527
1.09087
1.10521
1.10653
1.11844
1.11743
1.11851
1.11241
1.08612
1.06803
1.02635
0.998362
0.950504
0.916362
0.88283
0.839836
0.818339
0.812485
0.953699
0.952101
0.949235
0.947717
0.945343
0.944315
0.943667
0.942669
0.942853
0.943193
0.946749
0.947835
0.955695
0.959462
0.97142
0.979113
0.996073
1.00707
1.02702
1.03816
1.05825
1.06753
1.08675
1.09262
1.10727
1.10956
1.11775
1.1249
1.12011
1.1213
1.09997
1.08489
1.04504
1.01593
0.977518
0.9299
0.903866
0.851779
0.82081
0.807442
0.952449
0.950811
0.947793
0.946196
0.944138
0.943042
0.941944
0.941565
0.941838
0.94175
0.946035
0.947208
0.955517
0.95942
0.971882
0.979861
0.997198
1.00835
1.02857
1.0394
1.05949
1.06825
1.0864
1.09485
1.10624
1.11611
1.11747
1.12918
1.1253
1.12989
1.11085
1.09905
1.06491
1.03275
1.00135
0.950282
0.920289
0.888581
0.834485
0.808102
0.950572
0.949098
0.946069
0.944721
0.942607
0.941961
0.941127
0.939931
0.94147
0.940637
0.945861
0.946783
0.955683
0.959761
0.972536
0.980603
0.998428
1.00983
1.03028
1.04188
1.06004
1.07163
1.08357
1.09886
1.1049
1.12021
1.12129
1.13251
1.12964
1.13826
1.12295
1.11315
1.08596
1.04866
1.0241
0.980304
0.935266
0.910403
0.86738
0.822212
0.949305
0.947629
0.944323
0.943084
0.94057
0.940092
0.939626
0.937681
0.940407
0.939012
0.944611
0.945781
0.955359
0.959574
0.973006
0.981458
0.998911
1.01211
1.02979
1.04693
1.05865
1.07629
1.08342
1.0989
1.10542
1.12118
1.12389
1.1376
1.13383
1.14517
1.13498
1.12455
1.10827
1.06901
1.04103
1.01001
0.959021
0.926812
0.890789
0.847046
0.947681
0.945961
0.942804
0.940952
0.939792
0.937716
0.938693
0.936122
0.939453
0.938032
0.944079
0.945029
0.954835
0.960758
0.972688
0.985211
0.997301
1.0178
1.0285
1.05094
1.06028
1.07782
1.08563
1.10025
1.10566
1.1209
1.12513
1.14066
1.1444
1.14642
1.15104
1.13683
1.12843
1.09687
1.06076
1.03453
0.989155
0.952671
0.918302
0.869546
0.945725
0.943858
0.941082
0.938264
0.937863
0.935017
0.936566
0.933763
0.937482
0.936108
0.942658
0.944756
0.952036
0.962885
0.97003
0.988157
0.998222
1.01937
1.03095
1.05252
1.0624
1.07975
1.08698
1.1004
1.10759
1.11688
1.13163
1.13593
1.15557
1.15172
1.16259
1.15232
1.14304
1.12089
1.08941
1.06172
1.01841
0.976063
0.94816
0.895087
0.943868
0.941448
0.939349
0.936057
0.935964
0.932649
0.934853
0.932117
0.935953
0.935902
0.93968
0.947293
0.950361
0.963836
0.971214
0.989071
0.999708
1.022
1.03368
1.05493
1.06514
1.08213
1.08991
1.09948
1.11128
1.11531
1.13228
1.13755
1.15588
1.16268
1.17087
1.16613
1.16532
1.14433
1.11415
1.08789
1.05498
1.00698
0.981049
0.927104
0.941325
0.938671
0.936791
0.932915
0.933132
0.929509
0.931403
0.930112
0.930988
0.936123
0.935751
0.945594
0.949427
0.963568
0.971064
0.989797
1.00116
1.02372
1.03539
1.05764
1.06737
1.08294
1.09346
1.09919
1.11254
1.11632
1.12825
1.14128
1.15184
1.16854
1.18285
1.17758
1.18277
1.17186
1.14263
1.11331
1.09034
1.04055
1.01526
0.96109
0.938942
0.936212
0.934456
0.930447
0.930621
0.928876
0.927025
0.930291
0.927958
0.934986
0.935094
0.945422
0.949144
0.964041
0.97225
0.991983
1.00328
1.02674
1.03826
1.06025
1.07143
1.08487
1.09627
1.10152
1.11096
1.11824
1.1247
1.14238
1.15312
1.16625
1.1916
1.19252
1.19605
1.19507
1.18051
1.1428
1.12461
1.07741
1.05386
0.996905
0.935451
0.932329
0.930413
0.927958
0.924221
0.926504
0.922619
0.92705
0.924694
0.931296
0.932431
0.944026
0.947947
0.963543
0.97216
0.992939
1.00486
1.02855
1.0418
1.06203
1.07462
1.08719
1.0976
1.1047
1.10978
1.11829
1.12477
1.13594
1.15409
1.16497
1.18879
1.20704
1.213
1.21088
1.21445
1.17972
1.16193
1.11501
1.09432
1.03765
0.931856
0.930537
0.926373
0.92567
0.92207
0.922753
0.92255
0.923318
0.925773
0.92967
0.93283
0.943516
0.948641
0.965498
0.975276
0.99623
1.00904
1.03113
1.04793
1.06595
1.0793
1.09174
1.10073
1.10682
1.11206
1.11725
1.12289
1.13141
1.14888
1.16728
1.18544
1.20693
1.23162
1.22842
1.24365
1.21829
1.20568
1.15908
1.13881
1.08194
0.92598
0.92508
0.921219
0.918312
0.918831
0.915595
0.918755
0.91737
0.922402
0.925926
0.93036
0.942466
0.948269
0.965058
0.976467
0.996896
1.01332
1.03398
1.05138
1.06879
1.08535
1.09365
1.10423
1.11042
1.11382
1.11602
1.121
1.12944
1.14006
1.15805
1.18534
1.20384
1.23942
1.24305
1.2661
1.25314
1.25442
1.20895
1.19153
1.13094
0.923467
0.919806
0.918514
0.914051
0.915863
0.912427
0.914798
0.918364
0.91721
0.928102
0.92959
0.942695
0.950788
0.968354
0.981558
1.00049
1.02094
1.03866
1.05818
1.07603
1.0887
1.10193
1.10819
1.11474
1.11619
1.11755
1.12135
1.12399
1.13368
1.14797
1.17649
1.19574
1.23842
1.25317
1.29099
1.28092
1.29782
1.26307
1.25105
1.18975
0.917777
0.912963
0.911595
0.906827
0.905658
0.908797
0.904449
0.912738
0.912015
0.920954
0.926908
0.938475
0.950159
0.965923
0.98333
1.0025
1.02231
1.04407
1.06107
1.08136
1.09245
1.10574
1.11252
1.11832
1.11913
1.11768
1.11829
1.11864
1.12454
1.13452
1.16039
1.18159
1.23048
1.24776
1.30212
1.30534
1.33725
1.31593
1.31725
1.2586
0.913536
0.910644
0.906102
0.906523
0.901358
0.905676
0.904376
0.909067
0.913495
0.920816
0.929499
0.939912
0.955266
0.970671
0.989597
1.00808
1.03199
1.04863
1.07189
1.08499
1.10189
1.10928
1.12144
1.1219
1.12301
1.1229
1.11844
1.11628
1.11553
1.12113
1.14019
1.16053
1.20613
1.23098
1.29576
1.31534
1.37306
1.36434
1.38709
1.33544
0.900403
0.90139
0.895683
0.896679
0.895007
0.89412
0.899496
0.900043
0.909262
0.914086
0.928439
0.937274
0.956915
0.969429
0.995985
1.01168
1.03789
1.0541
1.08068
1.09004
1.10954
1.11831
1.12644
1.12868
1.12902
1.12782
1.12047
1.11405
1.10856
1.10996
1.1164
1.13291
1.16958
1.20058
1.26957
1.29701
1.38278
1.39572
1.45474
1.41602
0.895984
0.89356
0.892452
0.88918
0.892678
0.891484
0.898854
0.899509
0.912292
0.916119
0.934806
0.943412
0.965932
0.979059
1.00649
1.02167
1.05188
1.06681
1.09121
1.10238
1.1212
1.12899
1.13575
1.14006
1.13904
1.13696
1.12952
1.11884
1.10721
1.10113
1.09683
1.10514
1.12658
1.15605
1.21837
1.25987
1.35217
1.38309
1.48584
1.49127
0.883475
0.879216
0.879382
0.873607
0.880495
0.876583
0.888023
0.889649
0.902892
0.911763
0.929359
0.942747
0.966525
0.982028
1.01147
1.02742
1.05706
1.07462
1.09796
1.11105
1.12723
1.13611
1.14348
1.1477
1.14748
1.14511
1.13829
1.12892
1.11217
1.0987
1.08348
1.07961
1.08258
1.10311
1.14183
1.19138
1.26528
1.33121
1.40394
1.49479
0.878014
0.873291
0.87579
0.871213
0.876219
0.879124
0.887558
0.894556
0.908537
0.920385
0.939318
0.95869
0.977677
1.00173
1.02621
1.0494
1.0733
1.09335
1.11375
1.12899
1.14239
1.15268
1.15839
1.165
1.164
1.16548
1.15765
1.14944
1.13334
1.11682
1.08958
1.07248
1.05182
1.05521
1.05687
1.0976
1.12247
1.19583
1.21637
1.26821
0.858991
0.855363
0.858749
0.857874
0.863347
0.870544
0.877133
0.893944
0.902401
0.924352
0.93977
0.965851
0.985259
1.01336
1.03582
1.0634
1.08533
1.10819
1.1263
1.14234
1.15352
1.16628
1.17043
1.17901
1.1803
1.18453
1.17968
1.17693
1.16025
1.14607
1.11684
1.09182
1.0523
1.02226
0.992123
0.972858
0.968219
0.952288
0.897466
0.726479
0.83843
0.846669
0.844132
0.851598
0.856164
0.868186
0.881239
0.897714
0.91664
0.938268
0.960528
0.985927
1.01077
1.03792
1.06482
1.08965
1.11328
1.13401
1.15236
1.16652
1.17849
1.18891
1.19483
1.20354
1.20686
1.21418
1.21239
1.21347
1.20096
1.18718
1.16463
1.12792
1.09261
1.02893
0.976168
0.899032
0.830068
0.734879
0.521838
0.280375
0.817414
0.823953
0.831246
0.835595
0.849929
0.860215
0.88297
0.897209
0.926021
0.94546
0.976869
0.99999
1.03219
1.05694
1.08767
1.11067
1.13719
1.15487
1.17449
1.18551
1.19916
1.20522
1.21456
1.21944
1.22509
1.22911
1.23252
1.23249
1.2264
1.21394
1.19091
1.15563
1.11618
1.05879
0.99289
0.918886
0.795679
0.678294
0.452404
0.184315
0.811981
0.815817
0.836165
0.847072
0.872521
0.890775
0.920555
0.94228
0.973353
0.999105
1.03181
1.05998
1.09209
1.12036
1.14909
1.17332
1.19444
1.21021
1.22182
1.22756
1.22951
1.22943
1.23054
1.22936
1.23322
1.23593
1.23804
1.23739
1.2321
1.21768
1.19927
1.15752
1.12532
1.04774
0.984079
0.904054
0.796004
0.718579
0.565727
0.429267
0.781053
0.793285
0.821298
0.832318
0.863599
0.882987
0.923288
0.95051
0.993801
1.02438
1.06644
1.09612
1.13318
1.15838
1.18772
1.2053
1.22333
1.23045
1.23526
1.2331
1.22708
1.22194
1.2124
1.2135
1.21913
1.21331
1.21099
1.1883
1.16375
1.11744
1.06515
1.00578
0.934193
0.848668
0.714744
0.616936
0.469667
0.363955
0.26953
0.437459
0.829001
0.86199
0.911108
0.946657
0.992504
1.02504
1.06819
1.09866
1.13795
1.16311
1.19673
1.21329
1.23808
1.24474
1.2628
1.26268
1.2717
1.25827
1.25537
1.22905
1.21543
1.17943
1.16291
1.12553
1.10567
1.06089
1.02925
0.941491
0.813314
0.641901
0.482379
0.348103
0.237502
0.156624
0.10997
0.121441
0.138688
0.242734
0.324528
0.413117
0.934393
0.972007
1.00576
1.04157
1.0762
1.1078
1.13593
1.16052
1.17885
1.19325
1.20765
1.19989
1.20962
1.193
1.19788
1.17052
1.16418
1.11962
1.0991
1.0339
0.998205
0.907084
0.853303
0.74052
0.683621
0.536297
0.151528
0.0324267
0.0501325
0.118491
0.150682
0.179893
0.196548
0.202616
0.199518
0.20648
0.212827
0.221411
0.229487
0.233889
1.50601
1.53034
1.26749
0.769395
0.553325
0.585778
0.701201
0.815907
0.932494
0.976611
0.997106
1.00863
1.0126
1.0171
1.01764
1.02025
1.01989
1.02072
1.02024
1.02032
1.02012
1.01972
1.01951
1.019
1.01871
1.01803
1.01764
1.01707
1.01684
1.01644
1.01627
1.01569
1.01546
1.01492
1.01467
1.01418
1.01387
1.01366
1.01403
1.0153
1.54769
1.53257
1.20451
0.678526
0.50064
0.565364
0.692143
0.807784
0.924973
0.973221
0.997407
1.00931
1.01322
1.01866
1.01828
1.02129
1.02079
1.02157
1.02088
1.02105
1.02063
1.02034
1.02002
1.01968
1.01924
1.01872
1.01816
1.0177
1.01728
1.01705
1.01681
1.01647
1.01608
1.01557
1.01515
1.01465
1.01436
1.01397
1.01342
1.01078
1.54915
1.54179
1.20214
0.651325
0.480559
0.55972
0.697804
0.821022
0.930095
0.974591
1.0002
1.01276
1.01517
1.02106
1.01979
1.02283
1.02163
1.02279
1.02172
1.02214
1.02143
1.02123
1.02053
1.02039
1.01965
1.01939
1.01856
1.01828
1.01763
1.01748
1.01712
1.01693
1.0165
1.01599
1.01549
1.01498
1.01484
1.01459
1.01495
1.01631
1.54367
1.54022
1.17098
0.634328
0.493013
0.57666
0.709715
0.822924
0.929781
0.976565
1.00241
1.01515
1.01697
1.02309
1.02104
1.02421
1.02259
1.02388
1.02246
1.0232
1.02186
1.02209
1.02093
1.02104
1.02004
1.02015
1.01896
1.01888
1.01792
1.01795
1.01739
1.01741
1.01682
1.01649
1.01588
1.01541
1.01506
1.01467
1.01416
1.0126
1.50313
1.53791
1.20632
0.702797
0.556698
0.614864
0.738129
0.848537
0.941316
0.982859
1.00744
1.0196
1.02009
1.02592
1.0231
1.02616
1.0237
1.02536
1.0234
1.02437
1.02266
1.02315
1.02171
1.02209
1.02083
1.02115
1.01985
1.01986
1.01872
1.01873
1.01799
1.01803
1.01741
1.01718
1.0165
1.01616
1.01572
1.01545
1.01529
1.01581
1.46486
1.51508
1.22602
0.785136
0.638365
0.665222
0.770423
0.86162
0.950675
0.991191
1.01335
1.02397
1.02328
1.0287
1.02512
1.02787
1.0249
1.02644
1.0241
1.02525
1.02324
1.02384
1.02233
1.02273
1.0215
1.02185
1.02062
1.02073
1.01954
1.0196
1.01866
1.01886
1.01809
1.01795
1.01698
1.01666
1.01593
1.0157
1.01515
1.0143
1.39728
1.4771
1.25919
0.879418
0.732564
0.724038
0.812664
0.895106
0.969698
1.00398
1.02261
1.0308
1.02825
1.03268
1.02794
1.03026
1.02685
1.02812
1.02544
1.02644
1.02426
1.0248
1.02306
1.02333
1.02211
1.02239
1.0212
1.02129
1.02009
1.02005
1.01913
1.01925
1.01855
1.01857
1.01781
1.01755
1.01667
1.01654
1.01591
1.01571
1.33043
1.40973
1.25029
0.949837
0.802917
0.777552
0.848876
0.915307
0.989158
1.02133
1.03364
1.03877
1.03376
1.03679
1.0309
1.03256
1.02887
1.02985
1.02681
1.02766
1.02515
1.02559
1.0237
1.02392
1.02257
1.02278
1.02161
1.02169
1.02047
1.0204
1.01949
1.01955
1.0188
1.01892
1.01813
1.01806
1.01717
1.01701
1.01646
1.01591
1.23968
1.33165
1.22056
0.985923
0.849047
0.824784
0.886976
0.952941
1.01431
1.04249
1.04783
1.04921
1.0408
1.0421
1.03478
1.03576
1.03161
1.03206
1.02879
1.02939
1.02672
1.02705
1.02497
1.02516
1.0237
1.02388
1.02264
1.02267
1.02146
1.02133
1.02033
1.02032
1.01968
1.01982
1.01925
1.01912
1.01821
1.01787
1.01709
1.01654
1.14527
1.24065
1.16735
0.993378
0.867107
0.858258
0.917852
0.979975
1.04312
1.06746
1.06495
1.06096
1.04886
1.04771
1.0388
1.03844
1.03409
1.03396
1.03065
1.0311
1.02837
1.02873
1.02658
1.02673
1.0251
1.02524
1.02396
1.02399
1.02272
1.02252
1.02136
1.02109
1.02018
1.02012
1.01965
1.01947
1.01887
1.01849
1.018
1.01761
1.0469
1.14629
1.10275
0.971256
0.873857
0.878537
0.947463
1.01886
1.07551
1.09414
1.08675
1.075
1.05899
1.05449
1.04362
1.04171
1.03711
1.03592
1.03278
1.03285
1.03013
1.03029
1.0281
1.02805
1.02634
1.02624
1.02487
1.02473
1.02342
1.02316
1.02217
1.02177
1.02099
1.02071
1.02026
1.01999
1.01964
1.01926
1.0184
1.01797
0.942935
1.03172
1.02666
0.923975
0.866656
0.881334
0.952542
1.04162
1.11523
1.12444
1.113
1.0905
1.07065
1.06234
1.04899
1.04494
1.04014
1.03757
1.03447
1.03392
1.03127
1.03113
1.02903
1.02858
1.02703
1.02657
1.02541
1.02502
1.02392
1.02339
1.02262
1.02193
1.02132
1.0207
1.02044
1.02002
1.01999
1.01965
1.0193
1.01899
0.845738
0.925016
0.944387
0.872483
0.844349
0.868617
0.948839
1.05902
1.15368
1.1596
1.14252
1.10907
1.08419
1.07283
1.05606
1.04982
1.04456
1.04009
1.03701
1.03543
1.03291
1.03222
1.03051
1.0295
1.02843
1.02737
1.02662
1.02572
1.02525
1.02427
1.02397
1.02287
1.02264
1.02157
1.02137
1.02063
1.0207
1.02006
1.01995
1.01926
0.759142
0.828209
0.866989
0.817859
0.79844
0.83362
0.92329
1.0567
1.17635
1.2008
1.17471
1.13126
1.09778
1.08474
1.06394
1.05537
1.04972
1.04358
1.04058
1.03804
1.03565
1.03434
1.03316
1.03148
1.031
1.02919
1.02896
1.02742
1.02737
1.02578
1.02553
1.02428
1.0241
1.023
1.02274
1.02165
1.02138
1.02068
1.02051
1.02022
0.724889
0.773718
0.800757
0.764934
0.74175
0.780724
0.875697
1.03485
1.18384
1.24067
1.21141
1.15708
1.11137
1.09642
1.07242
1.06137
1.05508
1.04773
1.04456
1.04109
1.03883
1.03696
1.03587
1.03378
1.03327
1.03114
1.03081
1.02917
1.02893
1.02752
1.02716
1.02596
1.02564
1.02461
1.02432
1.02326
1.02264
1.02158
1.02119
1.02057
0.732206
0.762195
0.761708
0.720025
0.69174
0.723427
0.813281
0.982231
1.17285
1.25947
1.2527
1.18265
1.12605
1.10558
1.08071
1.0661
1.05873
1.05079
1.04707
1.04305
1.04039
1.0384
1.0369
1.03487
1.03413
1.03203
1.03144
1.02987
1.02939
1.02819
1.02765
1.02667
1.02619
1.02532
1.02494
1.0242
1.02351
1.02253
1.02187
1.02155
0.767336
0.785531
0.769232
0.717844
0.681219
0.703184
0.769091
0.921711
1.13688
1.25445
1.28404
1.21359
1.14342
1.11471
1.09096
1.07172
1.06289
1.05435
1.04942
1.04536
1.04157
1.04017
1.03749
1.03613
1.03472
1.03306
1.03191
1.03075
1.0297
1.02907
1.02803
1.02745
1.02659
1.02602
1.0253
1.02487
1.02424
1.02371
1.02268
1.02235
0.808557
0.815011
0.798849
0.761016
0.732741
0.75422
0.788514
0.900569
1.07917
1.23217
1.28454
1.24684
1.16054
1.12294
1.10113
1.07945
1.06848
1.05974
1.05399
1.04935
1.04505
1.04357
1.04009
1.03868
1.0371
1.03569
1.03384
1.03296
1.03103
1.03048
1.02894
1.02841
1.02744
1.02697
1.02612
1.02555
1.02478
1.02442
1.02379
1.02354
0.843013
0.845909
0.83792
0.808566
0.804106
0.841127
0.876676
0.943326
1.02863
1.16549
1.25481
1.26221
1.17469
1.12897
1.10816
1.08765
1.07391
1.06533
1.05818
1.0538
1.04947
1.04663
1.04442
1.04178
1.04064
1.03897
1.03746
1.03651
1.03461
1.03366
1.03194
1.03085
1.02977
1.02879
1.02813
1.02707
1.02648
1.02544
1.02501
1.02449
0.877129
0.874787
0.876397
0.855815
0.855078
0.884891
0.925766
0.964406
1.01107
1.07197
1.18774
1.23586
1.18406
1.12898
1.10825
1.09185
1.07532
1.06823
1.05987
1.05527
1.05152
1.04796
1.04619
1.0431
1.04204
1.04022
1.03905
1.03791
1.03659
1.03563
1.03442
1.03318
1.03208
1.03072
1.0301
1.02864
1.02811
1.02674
1.02638
1.02562
0.912605
0.90698
0.914996
0.902202
0.896755
0.913859
0.94153
0.961222
0.988489
1.01481
1.08709
1.17693
1.1839
1.12627
1.10372
1.09277
1.07601
1.06932
1.06165
1.0559
1.05278
1.04922
1.04708
1.04411
1.04264
1.04105
1.03975
1.03873
1.03747
1.03666
1.03558
1.03471
1.03368
1.03238
1.03165
1.03017
1.02953
1.02839
1.02788
1.02724
0.952687
0.944071
0.953431
0.949675
0.936545
0.938231
0.951591
0.949683
0.957662
0.958012
0.983515
1.09097
1.15234
1.1167
1.09376
1.09176
1.07743
1.0704
1.06571
1.05864
1.05598
1.05146
1.04949
1.0466
1.04392
1.04277
1.04057
1.0398
1.03813
1.03757
1.03633
1.03574
1.03467
1.03372
1.03284
1.03148
1.03094
1.02962
1.02919
1.0284
0.992147
0.990546
0.99684
1.00092
0.980898
0.964867
0.956662
0.937449
0.923975
0.906288
0.896815
0.981406
1.0888
1.09624
1.0783
1.08249
1.07681
1.06919
1.06908
1.06196
1.05972
1.0561
1.05376
1.05168
1.04854
1.04692
1.04409
1.04285
1.04078
1.03996
1.03824
1.03766
1.0362
1.03542
1.03447
1.03327
1.03268
1.03139
1.03091
1.0302
1.03217
1.03872
1.04495
1.0536
1.02932
1.0039
0.966474
0.924839
0.88542
0.857523
0.81395
0.86358
1.00482
1.06085
1.05239
1.06073
1.06767
1.06227
1.06656
1.06145
1.06006
1.05785
1.05528
1.05414
1.05183
1.05046
1.04837
1.04684
1.04451
1.04326
1.04156
1.04029
1.03905
1.03753
1.03679
1.03521
1.03454
1.03306
1.03231
1.03161
1.07931
1.09249
1.10369
1.10832
1.08769
1.05082
0.97879
0.906787
0.834505
0.797026
0.737677
0.75461
0.915661
1.00117
1.01742
1.03316
1.05127
1.05004
1.05854
1.0572
1.05725
1.05747
1.05564
1.05499
1.05346
1.05205
1.05058
1.04951
1.04793
1.04663
1.04525
1.04357
1.0426
1.04083
1.04003
1.03829
1.0373
1.03581
1.03478
1.03433
1.13501
1.15543
1.17729
1.17229
1.16487
1.07506
0.969498
0.868064
0.76289
0.710703
0.657899
0.646866
0.812734
0.933991
0.979843
1.00193
1.02747
1.0327
1.04593
1.05024
1.05194
1.05514
1.05498
1.05521
1.05441
1.05361
1.05204
1.05105
1.04975
1.04857
1.04753
1.04626
1.04497
1.0437
1.04235
1.04087
1.0395
1.03804
1.03668
1.03604
1.19747
1.23094
1.26079
1.26193
1.1958
1.07354
0.923113
0.78829
0.659237
0.591262
0.558887
0.548592
0.713162
0.866638
0.928172
0.965023
0.999167
1.01448
1.03141
1.04087
1.04511
1.05077
1.05245
1.05419
1.05455
1.05459
1.05379
1.05231
1.05166
1.05058
1.04969
1.04859
1.04756
1.0463
1.04525
1.04387
1.04264
1.04126
1.04006
1.03959
1.27191
1.31691
1.3426
1.32911
1.19889
1.02656
0.823585
0.648003
0.509333
0.439001
0.442562
0.474002
0.641976
0.797416
0.86295
0.929415
0.967589
0.993568
1.01442
1.02836
1.03666
1.04428
1.04823
1.0519
1.05362
1.05477
1.05525
1.05498
1.05394
1.05317
1.05212
1.05094
1.04983
1.04866
1.04753
1.04628
1.04492
1.04358
1.0426
1.04191
1.37144
1.42331
1.42906
1.34684
1.1443
0.883941
0.630718
0.432504
0.322533
0.299017
0.36485
0.444621
0.599802
0.744026
0.811003
0.890804
0.931449
0.964876
0.993698
1.01132
1.02637
1.03593
1.04377
1.04881
1.05183
1.05428
1.05551
1.05643
1.05635
1.05613
1.05498
1.05426
1.0531
1.05201
1.05082
1.04928
1.04837
1.04681
1.04617
1.0456
1.49672
1.52553
1.46704
1.28187
0.949429
0.611477
0.349051
0.239828
0.289057
0.350699
0.424232
0.475386
0.591959
0.714571
0.776058
0.850671
0.900415
0.937313
0.971578
0.991608
1.01409
1.02469
1.03534
1.0428
1.04709
1.05161
1.05362
1.05586
1.05611
1.05685
1.05605
1.05568
1.05501
1.05351
1.05262
1.05074
1.05001
1.04832
1.04772
1.04711
1.57905
1.53378
1.36278
1.05385
0.710025
0.51807
0.504119
0.545534
0.583355
0.588457
0.573284
0.563537
0.631575
0.707416
0.767542
0.835967
0.874042
0.918313
0.948286
0.970918
0.993069
1.00959
1.0204
1.03249
1.03824
1.04528
1.04824
1.05293
1.05432
1.05713
1.05782
1.05803
1.05856
1.05712
1.0571
1.05526
1.05489
1.05306
1.05255
1.05201
1.46663
1.28296
1.00934
0.927271
0.918761
0.930839
0.93476
0.912157
0.845481
0.765295
0.701557
0.676657
0.713965
0.745213
0.794894
0.83828
0.872822
0.907684
0.934858
0.961048
0.976151
0.99851
1.00955
1.02249
1.03169
1.03967
1.04486
1.05035
1.05359
1.05628
1.05919
1.05898
1.06112
1.05994
1.06097
1.05929
1.05947
1.05756
1.05749
1.05703
1.09073
0.932912
0.930293
1.01607
1.03828
1.05608
1.04909
0.988409
0.9068
0.859289
0.824581
0.816589
0.830444
0.833503
0.858616
0.878956
0.908266
0.925507
0.947228
0.971352
0.981874
1.0022
1.01301
1.02586
1.03476
1.04301
1.04865
1.05362
1.05848
1.05966
1.06399
1.06323
1.06563
1.06464
1.06597
1.06425
1.06487
1.0632
1.06292
1.06253
0.67034
0.777097
0.829358
0.917277
0.941205
0.962146
0.960964
0.914581
0.897555
0.889419
0.872231
0.884637
0.896353
0.918111
0.933034
0.951606
0.967129
0.975499
0.989147
0.999823
1.00844
1.01968
1.02683
1.03605
1.04116
1.04929
1.05187
1.0575
1.05968
1.06288
1.06445
1.0664
1.06639
1.068
1.06763
1.0681
1.06705
1.06713
1.0679
1.06848
0.417565
0.483508
0.556491
0.635402
0.695231
0.747925
0.781084
0.808932
0.838986
0.853975
0.869074
0.89132
0.909754
0.940959
0.962657
0.987263
1.0088
1.02182
1.03608
1.04137
1.04471
1.04882
1.05024
1.05409
1.05818
1.06049
1.06614
1.06775
1.07218
1.07432
1.07536
1.0789
1.07685
1.08065
1.07849
1.08225
1.08016
1.0805
1.07956
1.07928
0.101501
0.0652216
0.20372
0.295499
0.388889
0.476867
0.553116
0.62752
0.690956
0.755448
0.80584
0.856908
0.900009
0.93844
0.967021
0.996965
1.02164
1.03842
1.05995
1.07255
1.08277
1.0935
1.09268
1.09695
1.09504
1.09583
1.09775
1.09693
1.10315
1.10211
1.10704
1.10562
1.10762
1.10724
1.10809
1.10844
1.10758
1.10193
1.10031
1.09607
0.318375
0.319232
0.215531
0.0934287
0.141417
0.202311
0.271273
0.351219
0.43072
0.538586
0.642548
0.715722
0.793307
0.864339
0.913463
0.966136
1.00569
1.0358
1.06407
1.08405
1.10162
1.11934
1.13036
1.1418
1.14775
1.15391
1.15545
1.15554
1.15342
1.15311
1.15611
1.1548
1.15943
1.15523
1.15912
1.15489
1.15537
1.15424
1.15127
1.14862
0.547259
0.595748
0.571307
0.486687
0.371835
0.246655
0.14796
0.0627809
0.0868556
0.186067
0.30028
0.415181
0.514613
0.60167
0.705723
0.790804
0.873232
0.942461
0.999456
1.04704
1.08432
1.11206
1.13577
1.1508
1.16034
1.1694
1.17273
1.17777
1.17921
1.18038
1.18305
1.18163
1.18117
1.17949
1.17815
1.17776
1.17748
1.18138
1.18645
1.19558
0.482087
0.516717
0.533023
0.535902
0.526785
0.529638
0.524068
0.530716
0.518413
0.482238
0.474263
0.553187
0.583553
0.46442
0.376778
0.371476
0.411856
0.464783
0.532377
0.607625
0.686408
0.768977
0.840405
0.902705
0.958929
1.01123
1.05533
1.09581
1.12847
1.15461
1.17686
1.20123
1.21856
1.23883
1.25073
1.26518
1.27169
1.27882
1.27888
1.287
0.262672
0.279546
0.319199
0.356372
0.399619
0.449801
0.499572
0.552835
0.596439
0.633102
0.663176
0.679314
0.679061
0.665092
0.638833
0.617636
0.586395
0.549975
0.499006
0.457025
0.353124
0.112352
0.408945
0.547174
0.582971
0.630903
0.667261
0.709118
0.743627
0.792101
0.832939
0.884769
0.92886
0.977438
1.01837
1.06245
1.10519
1.16048
1.21714
1.27824
1.02136
1.02098
1.02052
1.01917
1.0179
1.01503
1.01233
1.00754
1.00252
0.995889
0.991094
0.987965
0.988976
0.993176
1.00144
1.00954
1.01546
1.01602
1.01591
1.01534
1.01507
1.01499
1.01492
1.01486
1.01477
1.01464
1.01448
1.01431
1.01412
1.01392
1.01369
1.01343
1.01314
1.01283
1.0125
1.01216
1.0118
1.01141
1.01097
1.01065
1.00591
1.00701
1.00787
1.01008
1.0118
1.01524
1.01809
1.02242
1.02577
1.02948
1.03046
1.0308
1.02996
1.02713
1.02174
1.017
1.01571
1.01567
1.01594
1.01621
1.01637
1.01643
1.01644
1.01633
1.01609
1.01583
1.01562
1.0154
1.01516
1.0149
1.01463
1.01432
1.01398
1.01365
1.01328
1.01285
1.01238
1.01185
1.01143
1.01124
1.01956
1.01892
1.01796
1.01649
1.01484
1.01242
1.01031
1.00758
1.00651
1.00654
1.00854
1.00994
1.01199
1.01311
1.01385
1.01414
1.01458
1.01526
1.01573
1.01599
1.01614
1.01618
1.01625
1.01627
1.01617
1.01596
1.0157
1.01555
1.01537
1.01517
1.01484
1.01458
1.01424
1.0139
1.01352
1.01323
1.01279
1.01237
1.01205
1.0119
1.01021
1.01251
1.01387
1.01639
1.01844
1.02122
1.02338
1.02604
1.0272
1.02791
1.02803
1.02775
1.02641
1.02429
1.02201
1.01965
1.01817
1.01765
1.01753
1.01748
1.01735
1.0172
1.01707
1.01688
1.01662
1.01637
1.01614
1.01588
1.01566
1.01541
1.01516
1.01493
1.01457
1.01418
1.01378
1.01339
1.01299
1.01251
1.01229
1.01216
1.01711
1.01619
1.01516
1.01393
1.01272
1.01164
1.011
1.01094
1.01181
1.01259
1.01349
1.01392
1.0146
1.01516
1.0157
1.01587
1.0161
1.01623
1.01655
1.01648
1.01652
1.01662
1.01667
1.01665
1.01643
1.01632
1.01619
1.01607
1.01578
1.01557
1.01535
1.01515
1.01476
1.01446
1.01408
1.01383
1.01341
1.01306
1.0128
1.01269
1.01364
1.01587
1.01684
1.01885
1.01987
1.02154
1.02247
1.02379
1.02431
1.02471
1.02475
1.02435
1.02353
1.02247
1.02139
1.02025
1.0195
1.01916
1.01885
1.01833
1.01799
1.01775
1.01766
1.01746
1.01707
1.01676
1.01647
1.01623
1.01601
1.01575
1.01562
1.01535
1.01491
1.0145
1.01409
1.01379
1.01347
1.01313
1.01294
1.01274
1.0157
1.01493
1.01442
1.01393
1.01358
1.0135
1.01366
1.01422
1.01489
1.01549
1.01585
1.0161
1.01647
1.0168
1.01696
1.01712
1.01722
1.01733
1.01733
1.01733
1.01726
1.01731
1.01723
1.01713
1.01702
1.01687
1.01671
1.01654
1.01627
1.0161
1.01583
1.01561
1.01526
1.01487
1.01452
1.01425
1.01396
1.01364
1.01336
1.01323
1.01583
1.01746
1.01816
1.01942
1.02002
1.02105
1.02153
1.02219
1.02243
1.0226
1.02241
1.02215
1.0217
1.02131
1.0207
1.02031
1.02008
1.01986
1.01938
1.01876
1.01854
1.01849
1.01831
1.01785
1.01749
1.01725
1.01693
1.01673
1.01653
1.01641
1.01614
1.01574
1.01536
1.01487
1.01445
1.01425
1.014
1.01371
1.01343
1.01322
1.01599
1.01597
1.01588
1.01609
1.0162
1.01643
1.01664
1.01691
1.01708
1.01733
1.0175
1.01781
1.018
1.01814
1.01816
1.0183
1.0184
1.01845
1.01835
1.01826
1.0182
1.01812
1.01804
1.01793
1.01775
1.0176
1.0174
1.01707
1.01681
1.01671
1.01652
1.01624
1.01587
1.01543