/*--------------------------------*- C++ -*----------------------------------*\
  =========                 |
  \\      /  F ield         | OpenFOAM: The Open Source CFD Toolbox
   \\    /   O peration     | Website:  https://openfoam.org
    \\  /    A nd           | Version:  11
     \\/     M anipulation  |
\*---------------------------------------------------------------------------*/
FoamFile
{
    format      ascii;
    class       volScalarField;
    location    "7.5";
    object      p;
}
// * * * * * * * * * * * * * * * * * * * * * * * * * * * * * * * * * * * * * //

dimensions      [0 2 -2 0 0 0 0];

internalField   nonuniform List<scalar> 
9600
(
0.0689058
0.0702946
0.0724982
0.0753377
0.0785534
0.0819132
0.0852396
0.0884476
0.0914612
0.0940512
0.0959559
0.0971592
0.097007
0.0950071
0.0909015
0.0847048
0.0763178
0.0658581
0.0539842
0.0420553
0.031121
0.0224376
0.0163617
0.0140323
0.0135085
0.0146915
0.0177711
0.02194
0.0267694
0.0328522
0.0397109
0.0483797
0.0584507
0.0688132
0.0764524
0.0796472
0.0709111
0.0440622
-0.00465198
-0.0520292
0.0696721
0.0716373
0.0743379
0.0774683
0.0807883
0.0840955
0.0872692
0.0902918
0.0930567
0.0953598
0.0969213
0.0976262
0.0969028
0.0943695
0.089993
0.0836413
0.0751329
0.0647528
0.0531522
0.0415667
0.031086
0.0227539
0.0167808
0.0140112
0.0133629
0.0142622
0.0168773
0.0204889
0.0246397
0.0299966
0.0360779
0.0429278
0.0526669
0.063704
0.073704
0.0803086
0.0799817
0.0650963
0.0301388
-0.0279621
0.0702654
0.0723947
0.0751852
0.078167
0.0812645
0.0843724
0.0874102
0.0903122
0.092962
0.0950964
0.0965327
0.097119
0.0964085
0.0940065
0.0895595
0.0831621
0.0747258
0.0644535
0.0529469
0.0415252
0.031036
0.022711
0.0169141
0.0138808
0.0129905
0.013706
0.0162555
0.0200551
0.0243579
0.0299436
0.0363505
0.0435289
0.0512389
0.0617428
0.0714385
0.0774916
0.0797309
0.0674425
0.0411797
-0.0123371
0.0710679
0.0734394
0.0764796
0.0796534
0.0828753
0.0860452
0.0890739
0.0919035
0.0944133
0.0963999
0.0976449
0.0979792
0.0967612
0.0936997
0.0890681
0.0825736
0.0740184
0.0636996
0.0522465
0.0409376
0.0306604
0.0225006
0.0166577
0.0137494
0.0127523
0.0132539
0.0154727
0.018847
0.02247
0.0272941
0.0329049
0.0394277
0.0468549
0.0575551
0.0683454
0.0759605
0.0821021
0.0757522
0.0559075
0.0143997
0.0720182
0.0745825
0.0777843
0.0809524
0.084019
0.0869444
0.0897197
0.0923189
0.0946144
0.0963387
0.0972755
0.097324
0.096156
0.093333
0.0885596
0.0819672
0.073369
0.0631039
0.051728
0.0405763
0.0303982
0.0223557
0.0165184
0.0135576
0.0124772
0.0127694
0.0145389
0.0177443
0.0215427
0.0265004
0.0324191
0.0387658
0.0450343
0.0535898
0.0642059
0.0728258
0.0807728
0.0805843
0.063264
0.0341858
0.0730858
0.0757971
0.0790955
0.0822555
0.0852371
0.0880765
0.0908225
0.0934132
0.0956576
0.0973272
0.0982258
0.0981621
0.0965342
0.0931886
0.0881788
0.0814673
0.0727891
0.0624896
0.0511182
0.0400019
0.0298787
0.0219091
0.0161655
0.0130228
0.0119855
0.0122991
0.0137262
0.0165812
0.0199023
0.0242244
0.0296158
0.0356669
0.0421702
0.0497933
0.0593044
0.0698926
0.0784266
0.0838214
0.0707331
0.0504089
0.0742515
0.0770685
0.0804314
0.0835841
0.0864851
0.0892307
0.0918763
0.0942868
0.0963057
0.0976938
0.0982044
0.0978118
0.0961416
0.092871
0.0877653
0.0809219
0.0721549
0.061811
0.0504169
0.039344
0.029311
0.0214213
0.0157875
0.0126099
0.0115435
0.0118095
0.0128614
0.0152367
0.0183231
0.0225963
0.0279877
0.0340123
0.0401922
0.0466526
0.0545607
0.0654731
0.0738557
0.0834118
0.0767671
0.0628355
0.0755065
0.0783949
0.0818013
0.0849238
0.0877399
0.0903937
0.0929122
0.095172
0.0970442
0.098328
0.0988121
0.0983912
0.0963774
0.092786
0.0874618
0.0804574
0.0715588
0.0611133
0.0496648
0.0386144
0.0286634
0.0207934
0.0152281
0.0120201
0.0109653
0.0111518
0.0120652
0.0140718
0.016748
0.0204893
0.0255255
0.0312202
0.0373532
0.0436383
0.0505715
0.0602847
0.0688855
0.08083
0.0808659
0.071559
0.0768388
0.079775
0.0831924
0.0862696
0.0890105
0.091563
0.0939626
0.096093
0.097834
0.0989755
0.0992518
0.0984645
0.0962961
0.0925745
0.0871117
0.0799458
0.0708944
0.0603369
0.0488315
0.0377386
0.0278335
0.0199938
0.0145716
0.011343
0.0103727
0.0104257
0.0113359
0.0128394
0.0149856
0.0182593
0.0231871
0.0288076
0.0347681
0.0409044
0.0470589
0.0548752
0.0633934
0.0751755
0.0808386
0.0760785
0.0782427
0.0812011
0.0846022
0.0876309
0.0902964
0.0927529
0.0950442
0.0970464
0.0986552
0.0996457
0.0997259
0.09881
0.0964446
0.0925094
0.086844
0.0794712
0.0702503
0.0595338
0.0479247
0.0367355
0.0268911
0.019077
0.0137981
0.0106617
0.00963824
0.0096229
0.0105253
0.0116614
0.0134388
0.016164
0.0205958
0.0259478
0.0317343
0.0377094
0.0434214
0.0501668
0.0584574
0.0686916
0.0779685
0.0778148
0.0797088
0.08267
0.086039
0.0890169
0.091606
0.0939723
0.0961566
0.0980414
0.0995109
0.100359
0.100267
0.0991608
0.096581
0.0924316
0.0865537
0.0789762
0.0695569
0.0586321
0.0469098
0.0355987
0.0258088
0.0179746
0.012828
0.00982065
0.00877761
0.00873556
0.00976047
0.010563
0.0118757
0.0138963
0.0177055
0.0228043
0.0285717
0.0345247
0.0399698
0.0461236
0.0536443
0.0615354
0.0714854
0.0761484
0.0812369
0.0841786
0.0875042
0.0904313
0.0929518
0.0952307
0.0973068
0.0990947
0.100417
0.101121
0.100865
0.099553
0.0967645
0.0924034
0.0863021
0.0784646
0.0688191
0.0576438
0.045787
0.0343218
0.0245625
0.0167034
0.0116976
0.00882284
0.00792315
0.0079459
0.00892409
0.00942212
0.0103899
0.0116907
0.0148145
0.0195586
0.0250852
0.03092
0.0364021
0.0422425
0.0487749
0.0549157
0.0633441
0.0702892
0.0828221
0.085727
0.0890109
0.0918879
0.0943399
0.0965343
0.0985172
0.100199
0.10139
0.101951
0.101507
0.100008
0.0969997
0.0924044
0.086039
0.0779276
0.0680229
0.0565532
0.0445427
0.0328737
0.0231348
0.0152493
0.0103648
0.00765468
0.00693098
0.00721647
0.00798302
0.00835467
0.00894483
0.00965611
0.0118371
0.0159164
0.0212041
0.0270086
0.032707
0.0385045
0.0441124
0.0491426
0.0548968
0.0611664
0.0844694
0.0873236
0.0905716
0.093396
0.0957861
0.0978979
0.0997842
0.101376
0.102453
0.102845
0.102221
0.100521
0.0972721
0.0924134
0.0857903
0.0773576
0.0671538
0.0553518
0.0431496
0.0312583
0.021493
0.0135924
0.00880483
0.00636063
0.00581102
0.00649073
0.00701286
0.00738299
0.00742264
0.00765305
0.00888089
0.0121581
0.0171703
0.0227527
0.0285647
0.0344329
0.0395392
0.0439856
0.0473774
0.0518793
0.0861784
0.088981
0.0921812
0.0949633
0.0973045
0.0993323
0.101134
0.102643
0.103597
0.10381
0.103003
0.101079
0.0976101
0.0924261
0.0855221
0.0767331
0.0661985
0.0540151
0.0415906
0.0294699
0.0195838
0.011728
0.00701373
0.00483818
0.0045654
0.00562333
0.00590774
0.00670443
0.00603679
0.00575021
0.00615596
0.00830014
0.0127755
0.0181141
0.0238708
0.0300429
0.0349119
0.0392861
0.041948
0.0447311
0.0879688
0.0907091
0.0938557
0.0966065
0.0989007
0.100853
0.10259
0.104002
0.10483
0.104868
0.10386
0.101701
0.0979882
0.0924474
0.0852144
0.076041
0.0651179
0.0525381
0.0398323
0.0274743
0.0174283
0.00961015
0.00494469
0.00310495
0.00306197
0.00458051
0.00531206
0.00600931
0.0047586
0.00388839
0.00358795
0.0045033
0.00805433
0.0131462
0.0187278
0.025132
0.0301023
0.0344176
0.0375722
0.0382369
0.0898245
0.0925078
0.0956165
0.0983396
0.100601
0.10249
0.104151
0.105471
0.10619
0.10601
0.104816
0.102369
0.0984016
0.0924483
0.0848548
0.0752629
0.0638935
0.0508817
0.0378617
0.0252402
0.0149709
0.0072453
0.0025381
0.00108171
0.00148996
0.00341715
0.00473321
0.00509446
0.00395206
0.00228514
0.00110678
0.000835326
0.00324699
0.00789868
0.0129163
0.0193632
0.0250833
0.0293343
0.0331425
0.0346123
0.0917663
0.0943877
0.0974755
0.100186
0.102428
0.104258
0.10586
0.10706
0.107623
0.107269
0.105868
0.103094
0.0988405
0.0924682
0.084426
0.0743479
0.0624809
0.0490583
0.0356283
0.022738
0.012181
0.00455624
-2.23882e-05
-0.00130398
-0.000343439
0.00193473
0.00404112
0.00446537
0.00336132
0.00106601
-0.00104966
-0.00248665
-0.00177417
0.00224521
0.00681463
0.0128598
0.0192171
0.0237948
0.0277643
0.0303491
0.0938221
0.0963792
0.0994679
0.102171
0.104411
0.106184
0.107703
0.108803
0.109192
0.108647
0.10698
0.103878
0.0992625
0.0924559
0.0838933
0.0733011
0.0608785
0.0469847
0.033107
0.019961
0.00904546
0.00151551
-0.00294579
-0.00420371
-0.00243804
0.000339204
0.00320408
0.00395208
0.00292817
0.000406811
-0.00280828
-0.00553663
-0.00659349
-0.00381282
0.000297248
0.00575441
0.012403
0.017421
0.021817
0.0251177
0.0960019
0.0985113
0.101623
0.104328
0.106568
0.10833
0.109714
0.110675
0.110931
0.110161
0.108192
0.104667
0.0996412
0.0923696
0.0832426
0.0721062
0.0590148
0.044677
0.0301641
0.0168781
0.00558799
-0.00202888
-0.0062981
-0.00735684
-0.00502749
-0.00155835
0.00206931
0.00381431
0.0028272
9.76208e-05
-0.00395869
-0.00809507
-0.0110045
-0.0100194
-0.00670146
-0.00217546
0.00462379
0.0105832
0.0151244
0.0181166
0.0983581
0.100842
0.103978
0.106701
0.108919
0.110673
0.11196
0.112731
0.112789
0.111764
0.109461
0.105445
0.0999413
0.0922953
0.0823733
0.0706845
0.0568841
0.0420653
0.0268085
0.0133632
0.00175805
-0.00616706
-0.0100225
-0.0109086
-0.00838496
-0.00347901
0.00066187
0.00355058
0.00325629
0.000122602
-0.00430783
-0.00974865
-0.0150462
-0.0164561
-0.0137437
-0.0105575
-0.00441705
0.00230984
0.0073178
0.0103807
0.100929
0.103401
0.106561
0.109326
0.111565
0.113234
0.114368
0.115012
0.11479
0.113292
0.110688
0.106372
0.100136
0.0920012
0.0813864
0.0690114
0.0543774
0.039061
0.0231928
0.00912135
-0.00234099
-0.0108056
-0.0145567
-0.0148201
-0.0121709
-0.00609491
-0.000954745
0.00297608
0.0041664
0.000954732
-0.00409825
-0.0103785
-0.0176063
-0.0225265
-0.0216714
-0.0193055
-0.0145419
-0.00771207
-0.00158354
0.00185433
0.103764
0.106236
0.109431
0.112222
0.114408
0.116116
0.117061
0.117357
0.1169
0.115239
0.111955
0.107166
0.100328
0.0915283
0.0801025
0.0669653
0.0516171
0.0353744
0.0192445
0.0043999
-0.00718259
-0.0157931
-0.0199167
-0.019439
-0.0165365
-0.00969784
-0.00251613
0.0019798
0.00495498
0.00328757
-0.00289621
-0.010504
-0.0182811
-0.0268715
-0.030238
-0.0288515
-0.0253051
-0.0193338
-0.0126441
-0.0082355
0.106933
0.109424
0.112604
0.115486
0.117643
0.119135
0.119983
0.119994
0.119138
0.117137
0.113309
0.107919
0.100354
0.0907014
0.0786405
0.0644265
0.0483704
0.0312083
0.0147036
-0.000800546
-0.0128339
-0.0212369
-0.0260229
-0.0251226
-0.0213451
-0.0142945
-0.00499202
0.00137435
0.00534002
0.00588004
0.000281732
-0.00898916
-0.0182578
-0.0290782
-0.0373221
-0.0395023
-0.0372452
-0.0323397
-0.0258714
-0.0207189
0.11044
0.112976
0.116245
0.119078
0.121217
0.122541
0.123109
0.122851
0.121492
0.119075
0.114621
0.108492
0.100278
0.0895571
0.0766407
0.0614313
0.0446024
0.0264079
0.00938352
-0.00641251
-0.0193578
-0.0275603
-0.0325599
-0.0320057
-0.0272285
-0.0195288
-0.00859127
0.000159225
0.00579786
0.00807372
0.00509976
-0.00478508
-0.0166776
-0.0295527
-0.0417677
-0.0493615
-0.0505609
-0.0474207
-0.0413669
-0.0358327
0.114441
0.116992
0.120337
0.123166
0.125128
0.126289
0.126568
0.125911
0.124083
0.120978
0.115902
0.108911
0.099804
0.0880502
0.0741983
0.0577629
0.0400845
0.0211335
0.00296786
-0.0127077
-0.026449
-0.0352044
-0.0397486
-0.0398469
-0.0346031
-0.0260107
-0.0137095
-0.00233531
0.00643686
0.0106641
0.00988174
0.00198994
-0.0109228
-0.0274492
-0.0432506
-0.0568679
-0.0639519
-0.0645302
-0.0601295
-0.0544967
0.119029
0.121557
0.12487
0.127652
0.129539
0.130431
0.130239
0.12913
0.126687
0.122907
0.117026
0.109039
0.0989736
0.0859239
0.0710218
0.0535518
0.0344807
0.0151313
-0.00417284
-0.0203433
-0.033996
-0.0439398
-0.0482344
-0.0485931
-0.0433855
-0.0340584
-0.0208521
-0.00653755
0.00581954
0.0133888
0.0154933
0.0107386
-0.0014084
-0.0205437
-0.0405609
-0.060239
-0.0747534
-0.0824632
-0.0826085
-0.0777434
0.124252
0.126683
0.130008
0.132725
0.134279
0.134841
0.134258
0.132602
0.129371
0.124644
0.117963
0.108698
0.0974499
0.0833417
0.0668003
0.0484435
0.0280851
0.00769113
-0.0117777
-0.0293984
-0.042793
-0.0533257
-0.058196
-0.0586679
-0.0537682
-0.0437836
-0.0302331
-0.0132474
0.00286972
0.0149051
0.0212536
0.0208413
0.0116275
-0.00671677
-0.030741
-0.0578573
-0.0816145
-0.0980318
-0.107322
-0.107424
0.130258
0.132645
0.135791
0.138306
0.139589
0.139724
0.138589
0.13601
0.13208
0.126221
0.118381
0.107899
0.0950533
0.0796894
0.0618046
0.0417417
0.0207017
-0.00112648
-0.0207388
-0.0391919
-0.053192
-0.0637189
-0.0695922
-0.0700868
-0.0660079
-0.0559247
-0.0416447
-0.0233863
-0.00389152
0.0134398
0.025641
0.0312878
0.0271886
0.0134823
-0.010528
-0.0434311
-0.0779715
-0.110318
-0.13246
-0.143936
0.137127
0.139413
0.142429
0.144592
0.145524
0.144989
0.143088
0.139575
0.13448
0.127382
0.118137
0.106007
0.0917961
0.0746446
0.0553616
0.0336405
0.0116762
-0.0110679
-0.0316815
-0.0497975
-0.0651405
-0.0755377
-0.0823809
-0.0835526
-0.0800996
-0.0709435
-0.0562808
-0.0370111
-0.0151778
0.00682465
0.026141
0.0396429
0.0436677
0.0376616
0.0189326
-0.0120274
-0.0526115
-0.100265
-0.143238
-0.17717
0.145137
0.147098
0.149901
0.151666
0.151933
0.150531
0.147783
0.142966
0.136688
0.127953
0.116916
0.103075
0.086858
0.0681697
0.0469021
0.0239972
0.000354927
-0.0224423
-0.0442316
-0.0623666
-0.0782189
-0.0892379
-0.0966174
-0.0990581
-0.0964841
-0.0889761
-0.0753228
-0.0556863
-0.0321106
-0.00607947
0.0198895
0.0419942
0.0567644
0.061904
0.053526
0.0317096
-0.0051471
-0.0556114
-0.116369
-0.178529
0.154352
0.155805
0.158212
0.159417
0.158869
0.156213
0.152024
0.145779
0.137567
0.127262
0.113974
0.0982161
0.079667
0.0593807
0.0359039
0.0119192
-0.0129233
-0.0365023
-0.0585257
-0.0770132
-0.0928559
-0.104609
-0.112429
-0.11643
-0.115489
-0.109948
-0.0987058
-0.0808034
-0.0568568
-0.0279262
0.00345921
0.0343121
0.0604901
0.0794669
0.0862301
0.080091
0.0556701
0.0171837
-0.0392219
-0.103299
0.165282
0.165933
0.167652
0.167903
0.166254
0.162481
0.156438
0.148311
0.137451
0.124857
0.10897
0.0907731
0.070217
0.0471787
0.0221719
-0.00331074
-0.0289767
-0.0531502
-0.0750474
-0.0938789
-0.109528
-0.121618
-0.129964
-0.135571
-0.136974
-0.134315
-0.126437
-0.11189
-0.0906486
-0.0620393
-0.0276374
0.0105816
0.0477074
0.0810417
0.10605
0.119237
0.117684
0.0981415
0.0619571
0.0143578
0.177539
0.177051
0.177319
0.176103
0.172451
0.166891
0.15851
0.147598
0.134493
0.118727
0.100288
0.0792598
0.0562313
0.030847
0.00428663
-0.0226198
-0.0487443
-0.0730368
-0.094649
-0.113129
-0.128254
-0.140581
-0.14925
-0.156076
-0.160389
-0.161499
-0.158447
-0.149291
-0.132956
-0.108611
-0.075818
-0.0362367
0.00891788
0.0544767
0.0978141
0.132397
0.156159
0.163541
0.154492
0.110921
0.192598
0.190758
0.189262
0.186202
0.180227
0.171246
0.159771
0.145283
0.128134
0.108641
0.0870188
0.0629585
0.0371858
0.00962979
-0.0186054
-0.046336
-0.0725271
-0.0965047
-0.117306
-0.134606
-0.148756
-0.160246
-0.16937
-0.177356
-0.184329
-0.189958
-0.192814
-0.191136
-0.182529
-0.166328
-0.140486
-0.106103
-0.0629036
-0.0128035
0.0412838
0.0945197
0.141032
0.173996
0.190944
0.167217
0.204983
0.200076
0.195403
0.1889
0.180051
0.167559
0.152402
0.134592
0.113719
0.0904911
0.0652809
0.0382816
0.00990041
-0.0192596
-0.0484647
-0.076359
-0.102098
-0.124654
-0.143784
-0.158819
-0.170745
-0.180551
-0.189845
-0.199012
-0.208601
-0.218756
-0.228055
-0.234908
-0.236502
-0.231614
-0.218204
-0.196076
-0.16438
-0.123093
-0.074846
-0.0192521
0.0400877
0.095458
0.143231
0.159372
0.23059
0.222289
0.212336
0.198734
0.181436
0.160847
0.137617
0.112735
0.0859377
0.0573426
0.0273096
-0.00353511
-0.0348558
-0.0659112
-0.0957184
-0.123058
-0.146827
-0.166173
-0.180978
-0.191145
-0.198324
-0.204525
-0.212079
-0.221587
-0.234159
-0.24865
-0.263573
-0.278
-0.290402
-0.299202
-0.303196
-0.301093
-0.289458
-0.266051
-0.235304
-0.199506
-0.161594
-0.116131
-0.0661511
-0.025144
0.209899
0.192802
0.176428
0.159272
0.139903
0.116783
0.0902556
0.0608942
0.0294893
-0.00354042
-0.0373414
-0.0712453
-0.104372
-0.13612
-0.165294
-0.190751
-0.21086
-0.224869
-0.232756
-0.235329
-0.234646
-0.2338
-0.236305
-0.244696
-0.259517
-0.277735
-0.296994
-0.312792
-0.327673
-0.34664
-0.372656
-0.396325
-0.407486
-0.402726
-0.392079
-0.377686
-0.362423
-0.337736
-0.308967
-0.270079
0.273965
0.2454
0.213406
0.180925
0.147816
0.113875
0.0783913
0.0419887
0.00500364
-0.0318238
-0.0676572
-0.101509
-0.132075
-0.159092
-0.182449
-0.201206
-0.213995
-0.220011
-0.219826
-0.214196
-0.205128
-0.195269
-0.189242
-0.193026
-0.211422
-0.247485
-0.292768
-0.306535
-0.300809
-0.30814
-0.335332
-0.364495
-0.386478
-0.399868
-0.40634
-0.409096
-0.411764
-0.403716
-0.394935
-0.380021
0.0305076
-0.000947552
-0.0361493
-0.0795911
-0.126993
-0.17345
-0.219351
-0.263287
-0.306026
-0.344478
-0.37483
-0.397068
-0.412915
-0.42559
-0.434432
-0.43747
-0.433336
-0.421632
-0.402307
-0.377012
-0.345929
-0.310937
-0.276386
-0.251123
-0.242545
-0.263708
-0.291204
-0.297541
-0.302056
-0.308366
-0.316875
-0.325061
-0.331688
-0.33533
-0.335588
-0.333432
-0.32963
-0.322401
-0.312762
-0.300607
-0.0911905
-0.171248
-0.379036
-0.350066
-0.163661
-0.0590024
-0.00833039
0.0110247
0.01212
0.00908746
0.00651452
0.00492869
0.00314387
0.00237586
0.00111337
0.000584219
-0.000189426
-0.000369067
-0.000757157
-0.000755603
-0.000913525
-0.000819103
-0.000840648
-0.000638606
-0.000563344
-0.000239155
-7.05667e-05
0.00025574
0.000430675
0.000700489
0.000835326
0.00103474
0.00111238
0.00125677
0.0013905
0.00158612
0.00168998
0.00161415
0.00110071
0.00149771
-0.0947902
-0.187913
-0.449073
-0.388911
-0.177219
-0.0633096
-0.00872586
0.0111024
0.0127231
0.00984358
0.00657426
0.00516301
0.00339307
0.00236082
0.00120953
0.000483511
-0.000244391
-0.000478658
-0.000804389
-0.000832324
-0.000986992
-0.00089291
-0.000912682
-0.000745953
-0.000609201
-0.000335471
-0.000155418
0.000129781
0.000323109
0.00055502
0.000708163
0.000877951
0.000979244
0.00116165
0.00134481
0.0015785
0.00167758
0.00161309
0.00127404
0.000987554
-0.0937618
-0.204575
-0.4994
-0.409056
-0.1844
-0.0654988
-0.00967137
0.00996571
0.012824
0.0101778
0.00697682
0.00521903
0.00362369
0.00240601
0.0013122
0.000410966
-0.000259554
-0.000621228
-0.000932692
-0.00103999
-0.00113665
-0.00103114
-0.00097333
-0.000807205
-0.000616801
-0.000405009
-0.000191136
5.68787e-05
0.00028717
0.000495647
0.000662581
0.000812973
0.000947716
0.00115397
0.00135748
0.00157721
0.00165984
0.00171259
0.00168
0.00181566
-0.0829698
-0.214194
-0.517243
-0.403261
-0.185032
-0.0665483
-0.0112761
0.00790158
0.0123363
0.00992309
0.00747508
0.00532404
0.00391007
0.00258006
0.00149867
0.000411596
-0.000209439
-0.000760793
-0.00105928
-0.00127378
-0.00127921
-0.00124019
-0.00106832
-0.000942959
-0.000705301
-0.000562395
-0.000298094
-7.34023e-05
0.000202216
0.000390073
0.00059764
0.000750239
0.000928436
0.00112753
0.00132064
0.00150944
0.00159598
0.00170244
0.00167187
0.00170291
-0.0639435
-0.212899
-0.490981
-0.368137
-0.17581
-0.0664904
-0.0137824
0.00449153
0.0108052
0.00910837
0.00782039
0.00550598
0.00425337
0.00283579
0.00172822
0.00051422
-6.52179e-05
-0.000796834
-0.00106631
-0.00139475
-0.00138887
-0.00143856
-0.00125557
-0.00119433
-0.000944607
-0.000843798
-0.000566059
-0.000363751
-9.25686e-05
9.6966e-05
0.000376882
0.000546885
0.000759409
0.000955958
0.00118685
0.00137834
0.00152209
0.00166897
0.00168349
0.00179816
-0.0402545
-0.188629
-0.425853
-0.313206
-0.160697
-0.0658459
-0.0179555
-0.000240024
0.00793939
0.00779767
0.0076787
0.00556903
0.00446879
0.00307035
0.00193386
0.000702172
0.000105799
-0.00068508
-0.00101488
-0.00140297
-0.00146326
-0.0015483
-0.00145153
-0.00136739
-0.00117901
-0.00105438
-0.000817859
-0.000638432
-0.000407801
-0.000189503
0.0001081
0.000296416
0.000545537
0.000781064
0.00105042
0.00124427
0.00147329
0.00163928
0.00174077
0.00198614
-0.0145031
-0.147164
-0.335333
-0.249035
-0.142742
-0.0649018
-0.024278
-0.00662252
0.00383925
0.00574128
0.00676913
0.00533959
0.00445815
0.00317151
0.00205868
0.000864953
0.000212368
-0.000622418
-0.00103145
-0.00138524
-0.00150637
-0.00157248
-0.00151605
-0.00139825
-0.00126254
-0.00108444
-0.00088457
-0.00068299
-0.000475121
-0.000250896
-2.05325e-05
0.000185926
0.000460395
0.000694733
0.000939988
0.00115335
0.00139517
0.00150492
0.00153102
0.00159002
0.0115757
-0.103802
-0.241795
-0.189873
-0.121976
-0.0643068
-0.0331488
-0.0150579
-0.00163332
0.00283761
0.00523311
0.00474824
0.00429419
0.00317179
0.00212262
0.000900899
0.000178395
-0.000724249
-0.00111855
-0.0014502
-0.00157355
-0.0016265
-0.00158352
-0.00149441
-0.00136546
-0.00117604
-0.000965552
-0.000726477
-0.000495618
-0.000282162
-0.00010232
0.000104522
0.000345932
0.000534565
0.000760424
0.000963065
0.00119994
0.00138113
0.0016381
0.00198429
0.0345805
-0.0627003
-0.159026
-0.139057
-0.100627
-0.0657001
-0.0447299
-0.0258129
-0.00906195
-0.00108918
0.00335153
0.00395706
0.0040939
0.00318434
0.00215807
0.00086447
0.000128372
-0.000866779
-0.00126438
-0.00164578
-0.00180055
-0.0019092
-0.00190151
-0.0018905
-0.00177078
-0.00161194
-0.00137759
-0.0011121
-0.000847161
-0.000615762
-0.000408151
-0.000198642
2.3593e-05
0.00023534
0.000464317
0.000695276
0.000960622
0.00115025
0.00131337
0.00145262
0.0544495
-0.0298587
-0.0944729
-0.0987675
-0.0838378
-0.07064
-0.0614777
-0.0401259
-0.0191139
-0.00615179
0.00108566
0.00299588
0.00384821
0.00334714
0.00230306
0.00103148
0.000247804
-0.000895356
-0.00137412
-0.00190217
-0.00214602
-0.00236642
-0.00241085
-0.00248519
-0.00235325
-0.0022356
-0.0019614
-0.0016892
-0.00134858
-0.00106531
-0.000775622
-0.00052299
-0.000240221
-1.39644e-05
0.000227305
0.000501023
0.000770814
0.00101183
0.00138043
0.00181832
0.0681346
-0.00833303
-0.0517623
-0.0690526
-0.0731685
-0.0806013
-0.0798001
-0.0561769
-0.0317225
-0.012731
-0.00191418
0.00175076
0.00354241
0.0036873
0.0026187
0.00147071
0.000569166
-0.000695481
-0.00128696
-0.00196493
-0.00229298
-0.00259261
-0.0026716
-0.0027695
-0.00260997
-0.00252282
-0.00220229
-0.00193221
-0.00152872
-0.0012257
-0.000882715
-0.000597921
-0.000299873
-8.82269e-05
0.000176232
0.000433263
0.000673165
0.000878004
0.00111616
0.00132677
0.0731561
0.00232578
-0.0289766
-0.0475834
-0.0689227
-0.0920001
-0.0974596
-0.0775041
-0.0506197
-0.0218578
-0.00622919
0.000372016
0.00306311
0.00379186
0.00283081
0.00188512
0.00088885
-0.000333223
-0.00100247
-0.00175483
-0.00213473
-0.0024352
-0.00255829
-0.00262771
-0.0025079
-0.00244248
-0.00214455
-0.00189508
-0.00153411
-0.00126149
-0.000938731
-0.000620789
-0.000335826
-8.98648e-05
0.000154613
0.000382528
0.000549276
0.000787979
0.00119169
0.00156377
0.0704434
0.00252499
-0.0175405
-0.0346766
-0.0695504
-0.103457
-0.119018
-0.106515
-0.0721363
-0.0333689
-0.0117606
-0.00145285
0.00225156
0.0032438
0.00271998
0.00187955
0.000857266
-0.0001776
-0.000960351
-0.0017228
-0.0021926
-0.00246111
-0.00268883
-0.00273616
-0.00275087
-0.002664
-0.00247744
-0.00223361
-0.00200571
-0.00170871
-0.00139361
-0.000998349
-0.000716288
-0.000412653
-0.000154797
7.68022e-05
0.000241395
0.000550141
0.000846941
0.00105293
0.0583543
0.00181079
-0.0112865
-0.0272848
-0.0718378
-0.115734
-0.143766
-0.139207
-0.0943363
-0.0501209
-0.0184082
-0.00411346
0.00153724
0.00244216
0.00262634
0.00160416
0.000519256
-0.000437898
-0.00148077
-0.00223674
-0.00288521
-0.00316173
-0.00357393
-0.00357009
-0.00369707
-0.00351669
-0.00341783
-0.00315803
-0.00297002
-0.00260779
-0.0022603
-0.00184316
-0.00153944
-0.00116797
-0.00085429
-0.00054498
-0.000238384
0.000150408
0.000601407
0.00105681
0.0476865
0.00144344
-0.0121068
-0.0216124
-0.0739803
-0.127776
-0.16805
-0.17326
-0.12268
-0.0699002
-0.0270914
-0.00629372
0.00156152
0.0024136
0.00323255
0.00184284
0.00057829
-0.000507958
-0.0018637
-0.00267363
-0.00355412
-0.00389937
-0.00441074
-0.00433604
-0.0044652
-0.00423324
-0.00416209
-0.00389615
-0.00366811
-0.00328956
-0.00298821
-0.00261624
-0.00227756
-0.00187231
-0.00150321
-0.00111383
-0.000717681
-0.0002817
0.000132117
0.000521236
0.0400487
0.00321176
-0.00949139
-0.0234418
-0.0755888
-0.137197
-0.188264
-0.204827
-0.158135
-0.0854819
-0.0376981
-0.0068179
0.00177696
0.00331483
0.00445046
0.00296715
0.00144003
0.000200528
-0.0013263
-0.00239047
-0.00329976
-0.00381435
-0.00429346
-0.00430767
-0.00436566
-0.00420356
-0.00409139
-0.00385876
-0.00364637
-0.00336193
-0.00311718
-0.00279916
-0.00249316
-0.00212724
-0.00176213
-0.00136542
-0.000928773
-0.000502739
-9.40261e-05
0.000218593
0.0371382
0.00741448
-0.0112607
-0.0310321
-0.0781041
-0.140956
-0.19756
-0.225272
-0.1909
-0.0990023
-0.0463212
-0.00746182
0.00181141
0.00432723
0.00550471
0.00411529
0.00223786
0.0009651
-0.00070641
-0.00206755
-0.00286449
-0.00373477
-0.00400367
-0.00423863
-0.00418931
-0.00418396
-0.00398631
-0.0038258
-0.00359433
-0.00335843
-0.003077
-0.00278739
-0.00247758
-0.00217664
-0.0018327
-0.00148699
-0.00107071
-0.000682808
-0.000296698
-0.000137019
0.031718
0.0076581
-0.0110433
-0.0375267
-0.0834751
-0.139261
-0.189918
-0.218803
-0.19762
-0.109126
-0.0477715
-0.00962844
0.00338759
0.0059268
0.00624532
0.00458562
0.00241363
0.000841045
-0.00123789
-0.00263278
-0.00359319
-0.00452778
-0.00482436
-0.00519565
-0.00515008
-0.0052252
-0.0049214
-0.00480102
-0.00441314
-0.00408632
-0.00365751
-0.00330594
-0.00295558
-0.00263211
-0.00226139
-0.00187491
-0.00143549
-0.00102258
-0.00066521
-0.000598225
0.0259994
0.00478752
-0.0161876
-0.037814
-0.0766382
-0.127353
-0.165745
-0.192681
-0.182869
-0.0942994
-0.0396097
-0.0104093
0.00937242
0.00960102
0.00782755
0.00576492
0.00311706
0.00075348
-0.00152803
-0.00308264
-0.00432837
-0.00524304
-0.00592021
-0.00634588
-0.00653177
-0.00654984
-0.00639534
-0.00621937
-0.0058038
-0.00543941
-0.00497535
-0.00452601
-0.00409568
-0.003633
-0.00321041
-0.00270653
-0.00221757
-0.00165823
-0.0012048
-0.00106161
0.0189841
0.00102447
-0.0227928
-0.0430457
-0.0724231
-0.110764
-0.139377
-0.15195
-0.140742
-0.078286
-0.0293697
-0.000758618
0.0159546
0.0153941
0.0116021
0.00908338
0.0055626
0.00243421
-1.97968e-05
-0.00214692
-0.00349851
-0.00476522
-0.00574467
-0.00630336
-0.00674181
-0.0068763
-0.00702267
-0.00692867
-0.0067599
-0.00644067
-0.00606857
-0.00561873
-0.00518348
-0.00469886
-0.0042233
-0.00361179
-0.00299352
-0.00236
-0.00188118
-0.00164241
0.0107559
-0.00439682
-0.0300698
-0.0511744
-0.0753765
-0.103252
-0.121752
-0.123094
-0.106363
-0.053378
-0.0165679
0.0153076
0.020618
0.0224437
0.0173518
0.0130197
0.008711
0.00456619
0.00180269
-0.000735988
-0.00253125
-0.00401221
-0.00500555
-0.00571307
-0.00621172
-0.00654383
-0.00680705
-0.00683951
-0.00682262
-0.00666846
-0.00645397
-0.00615753
-0.00580228
-0.00534366
-0.00485799
-0.0042456
-0.00365361
-0.00309464
-0.00260456
-0.00234835
0.00107344
-0.0121316
-0.038826
-0.0624517
-0.0825631
-0.103714
-0.115392
-0.105092
-0.0790835
-0.0376359
0.00554229
0.0292634
0.0302555
0.030366
0.0237286
0.0159736
0.010959
0.00582651
0.00240102
-0.000654554
-0.0029479
-0.0044546
-0.00554244
-0.00619101
-0.00662412
-0.00696529
-0.00708935
-0.00710944
-0.0070557
-0.00698934
-0.0067881
-0.00658501
-0.00623457
-0.00583499
-0.00536645
-0.00483261
-0.00433858
-0.0038336
-0.0033659
-0.0031052
-0.00918944
-0.0229429
-0.0501834
-0.0779894
-0.0955564
-0.109779
-0.113024
-0.0948464
-0.0607279
-0.020871
0.0228699
0.0428821
0.0462108
0.0377469
0.0303888
0.0202702
0.0133697
0.0074278
0.00261919
-0.00116501
-0.00387938
-0.00581434
-0.00700773
-0.00766936
-0.00822894
-0.00855751
-0.00855702
-0.00849189
-0.00834443
-0.00813196
-0.00783059
-0.00756965
-0.00713587
-0.006704
-0.00619968
-0.00571339
-0.00520712
-0.00467953
-0.0041886
-0.00393989
-0.0215626
-0.0378273
-0.0658809
-0.098896
-0.117705
-0.124963
-0.115201
-0.0909798
-0.051428
-0.00902745
0.0334395
0.0554023
0.0602852
0.0467689
0.0393469
0.0277052
0.0177744
0.0104916
0.00446065
8.56716e-05
-0.00342646
-0.00611508
-0.00791085
-0.00901777
-0.0097635
-0.0102705
-0.0104481
-0.0104581
-0.0102758
-0.00999865
-0.00966422
-0.00925114
-0.00874894
-0.00819888
-0.0076434
-0.00706615
-0.00643536
-0.00579929
-0.00522579
-0.00499795
-0.0373735
-0.058065
-0.0903492
-0.128329
-0.153284
-0.155531
-0.136346
-0.0978899
-0.0485359
-0.00112824
0.0400347
0.0637779
0.0709457
0.059468
0.0484611
0.0354367
0.0235752
0.0153782
0.00854807
0.00305937
-0.00142692
-0.00501639
-0.00773704
-0.00952121
-0.0106661
-0.0114306
-0.0119361
-0.0121218
-0.0120615
-0.0118946
-0.0115905
-0.011176
-0.0106622
-0.0100791
-0.00945669
-0.00871791
-0.00793289
-0.00713328
-0.00651747
-0.00632798
-0.0574429
-0.0844523
-0.128392
-0.171344
-0.207455
-0.205382
-0.175813
-0.119876
-0.055698
0.00185558
0.0430982
0.0704497
0.0806379
0.0687787
0.0542183
0.0423203
0.0302119
0.0211761
0.0128404
0.00615921
0.000762609
-0.00363552
-0.00701212
-0.00941147
-0.01095
-0.011957
-0.0127317
-0.0131427
-0.0133236
-0.0133604
-0.0132387
-0.0129551
-0.0124925
-0.0119303
-0.0112347
-0.0104439
-0.00959983
-0.00869982
-0.00796446
-0.00775534
-0.0818635
-0.11793
-0.180539
-0.237821
-0.283189
-0.282026
-0.232939
-0.156752
-0.0758106
-0.00419337
0.0421077
0.0741019
0.0857962
0.0736527
0.060518
0.0484553
0.035382
0.0250489
0.0155368
0.00821822
0.00234487
-0.00255038
-0.00623576
-0.00908606
-0.0110509
-0.0124967
-0.0134852
-0.0141078
-0.0145738
-0.0148414
-0.0148801
-0.0146849
-0.0142988
-0.013764
-0.013108
-0.0123455
-0.0114958
-0.0105909
-0.00983943
-0.00965456
-0.115819
-0.166568
-0.249721
-0.338026
-0.393523
-0.385684
-0.313587
-0.208633
-0.108718
-0.0220628
0.0341432
0.0705444
0.0842646
0.076581
0.0656313
0.0514564
0.0378342
0.0271963
0.0174467
0.00945784
0.00315062
-0.00216225
-0.00619448
-0.00954128
-0.0119192
-0.0137441
-0.0150364
-0.0158924
-0.0164536
-0.0168008
-0.0168989
-0.0167043
-0.016379
-0.0159398
-0.01535
-0.0145835
-0.0136941
-0.0128267
-0.0121467
-0.0119213
-0.171871
-0.24699
-0.358513
-0.481124
-0.552073
-0.525597
-0.418239
-0.276562
-0.152512
-0.052817
0.01602
0.058322
0.0760816
0.0733487
0.0643232
0.0516938
0.0395814
0.0289273
0.0185788
0.0102193
0.00305365
-0.00279683
-0.00735044
-0.0110226
-0.0136852
-0.0156732
-0.0171447
-0.0180733
-0.0187151
-0.0190323
-0.0190666
-0.018933
-0.0187103
-0.0182584
-0.0175891
-0.016771
-0.0158931
-0.0150606
-0.0143582
-0.0140902
-0.246719
-0.353039
-0.501233
-0.660657
-0.728276
-0.675972
-0.526755
-0.35258
-0.205965
-0.0918584
-0.0132809
0.0361868
0.0583945
0.0602397
0.0569742
0.0476662
0.037796
0.0280873
0.0178956
0.0100408
0.00257776
-0.00304599
-0.00768761
-0.0116003
-0.014677
-0.0169205
-0.0186332