/*--------------------------------*- C++ -*----------------------------------*\
  =========                 |
  \\      /  F ield         | OpenFOAM: The Open Source CFD Toolbox
   \\    /   O peration     | Website:  https://openfoam.org
    \\  /    A nd           | Version:  11
     \\/     M anipulation  |
\*---------------------------------------------------------------------------*/
FoamFile
{
    format      ascii;
    class       volVectorField;
    location    "7.5";
    object      U;
}
// * * * * * * * * * * * * * * * * * * * * * * * * * * * * * * * * * * * * * //

dimensions      [0 1 -1 0 0 0 0];

internalField   nonuniform List<vector> 
9600
(
(0.964908 0.00180225 5.98068e-21)
(0.961666 0.00252267 0)
(0.957595 0.00301901 0)
(0.9545 0.00416453 1.07369e-22)
(0.949859 0.00522051 0)
(0.942466 0.00558206 -1.18018e-22)
(0.936562 0.00532442 -3.97307e-21)
(0.93451 0.00565209 3.99346e-21)
(0.930423 0.00594832 -4.28543e-21)
(0.924226 0.00569346 4.30432e-21)
(0.919616 0.00402112 0)
(0.919431 0.00276886 -4.49859e-21)
(0.921578 0.0021654 4.54167e-21)
(0.924902 0.00162231 -6.86308e-23)
(0.929785 0.000668384 2.08997e-21)
(0.937374 -0.000863439 -2.07155e-21)
(0.945811 -0.0021427 0)
(0.958595 -0.00361608 -7.10113e-22)
(0.979411 -0.00448629 7.10705e-22)
(0.999424 -0.00317192 -1.93809e-24)
(1.00806 -0.000837501 1.42737e-24)
(1.00753 -0.00013648 2.23499e-22)
(1.00255 0.00143176 -2.26484e-22)
(0.986319 0.00421241 0)
(0.953154 0.0052405 0)
(0.922593 0.00393565 3.77519e-22)
(0.894833 0.00203119 8.52653e-23)
(0.869583 0.00025452 -4.81331e-22)
(0.847182 -0.0026685 1.87801e-23)
(0.831316 -0.0062368 -2.28738e-23)
(0.823006 -0.0105688 0)
(0.823199 -0.0137149 2.49301e-21)
(0.83753 -0.0180862 -2.44823e-21)
(0.871154 -0.0212641 -3.32111e-21)
(0.916098 -0.0185368 3.3022e-21)
(0.984412 -0.00986622 1.12959e-22)
(1.09005 -5.95722e-06 0)
(1.23391 0.0199906 1.76054e-21)
(1.33899 0.0492499 -1.74283e-21)
(1.30684 0.0440257 -5.38081e-23)
(0.967669 5.26574e-06 2.94798e-22)
(0.966553 0.000240532 0)
(0.964385 -0.000254847 0)
(0.961336 -0.00127678 -3.33171e-22)
(0.95852 -0.00177675 -7.62319e-21)
(0.956029 -0.0023877 1.2018e-20)
(0.952271 -0.00319416 -4.00701e-21)
(0.949803 -0.00379679 -1.32663e-22)
(0.948097 -0.00350157 -1.37341e-22)
(0.947008 -0.00361751 0)
(0.947204 -0.00366462 -1.41741e-22)
(0.948134 -0.0036147 -4.75756e-21)
(0.950434 -0.00349945 6.87846e-21)
(0.954561 -0.00368429 -2.30018e-21)
(0.963595 -0.0036539 -3.40822e-23)
(0.973066 -0.00321633 0)
(0.982 -0.00290698 -7.90856e-22)
(0.996709 -0.00364612 8.48804e-22)
(1.01414 -0.00377014 -2.87535e-22)
(1.03398 -0.00248668 2.89636e-22)
(1.05497 -0.000521872 1.62083e-22)
(1.06607 0.00139441 -1.57042e-22)
(1.06675 0.00299816 0)
(1.06388 0.00511401 -3.28356e-22)
(1.05625 0.00745672 3.30122e-22)
(1.03948 0.00690953 5.45425e-24)
(1.01136 0.00783455 -4.37396e-22)
(0.980985 0.00827059 4.34038e-22)
(0.951029 0.0105077 -5.58539e-23)
(0.925446 0.0113357 -1.50679e-21)
(0.906975 0.014079 1.62205e-21)
(0.896526 0.0125809 -2.29214e-21)
(0.894082 0.0108654 2.22834e-21)
(0.897485 0.00304528 -9.04369e-23)
(0.919848 -0.0055681 7.31494e-21)
(0.975495 -0.0344739 -7.21506e-21)
(1.06499 -0.0519296 0)
(1.17513 -0.0875366 4.33078e-21)
(1.36011 -0.0648479 -4.39548e-21)
(1.38598 -0.0452077 1.11765e-22)
(0.966088 0.000450527 6.22033e-21)
(0.965236 0.00118348 -2.08947e-22)
(0.963234 0.00189315 0)
(0.960129 0.00289428 2.2832e-22)
(0.957586 0.00378569 0)
(0.955632 0.00430096 -4.33392e-21)
(0.952397 0.0043967 -1.42041e-22)
(0.949613 0.00464399 4.40924e-21)
(0.94804 0.00480884 1.405e-22)
(0.947122 0.00429114 0)
(0.947048 0.00299006 4.43091e-22)
(0.948341 0.00170055 -4.73949e-21)
(0.951099 0.00101055 4.90654e-21)
(0.954978 -0.000632615 2.17135e-22)
(0.963449 -0.00234355 -1.37931e-22)
(0.974248 -0.00373278 6.41662e-23)
(0.985549 -0.0054601 -8.64182e-22)
(0.999164 -0.00838253 1.35364e-22)
(1.01356 -0.0099263 7.50689e-22)
(1.03014 -0.00965312 -4.00908e-24)
(1.05108 -0.00645634 3.00013e-24)
(1.06999 -0.00271735 2.42102e-22)
(1.07859 0.0014945 -2.46291e-22)
(1.07871 0.00538978 -3.33021e-22)
(1.07428 0.00946254 3.31798e-22)
(1.0621 0.0124979 0)
(1.0333 0.0148732 -1.27485e-23)
(1.0006 0.0134277 6.10354e-23)
(0.967993 0.0109162 3.75067e-23)
(0.93811 0.00396484 -1.32931e-22)
(0.914013 -0.00209064 -1.60037e-22)
(0.90071 -0.00918006 2.41614e-21)
(0.897764 -0.0112488 4.3454e-22)
(0.90108 -0.0173507 -2.57039e-21)
(0.919976 -0.0169815 -2.13764e-22)
(0.958624 -0.033816 0)
(1.03992 -0.0335895 -2.36931e-22)
(1.10856 -0.066001 5.01928e-21)
(1.27347 -0.0434795 -5.05006e-21)
(1.36122 -0.00757476 -5.7157e-23)
(0.965839 0.00108904 4.17325e-22)
(0.964771 0.00155968 -2.20049e-22)
(0.962487 0.00239277 0)
(0.959123 0.00234544 0)
(0.956687 0.00168799 -7.66172e-21)
(0.954652 0.00102596 7.95455e-21)
(0.951453 0.000175042 4.15551e-21)
(0.948931 -0.00083382 -4.17068e-21)
(0.947757 -0.00124079 4.72098e-21)
(0.946815 -0.00206316 -4.4457e-21)
(0.946883 -0.00322098 -3.0289e-22)
(0.948168 -0.00409273 -1.52936e-22)
(0.951379 -0.00503743 -1.51851e-22)
(0.955848 -0.00697792 -1.48172e-22)
(0.964252 -0.00837988 2.45544e-21)
(0.974895 -0.00893856 -1.26231e-22)
(0.986041 -0.00952964 -2.92754e-21)
(1.00054 -0.01134 8.77465e-22)
(1.01616 -0.0116576 -2.09654e-23)
(1.03039 -0.0115494 8.17426e-24)
(1.04717 -0.00888523 -1.72691e-22)
(1.0667 -0.00436281 4.19233e-22)
(1.08121 0.00112409 -2.62716e-22)
(1.08604 0.00584567 -2.17184e-23)
(1.0843 0.0113 0)
(1.07641 0.0145118 0)
(1.05603 0.018936 -4.32602e-22)
(1.0286 0.0188174 4.59152e-22)
(1.00054 0.0219299 -1.24852e-21)
(0.970854 0.020291 1.33237e-21)
(0.944227 0.0224718 1.07604e-22)
(0.917934 0.016428 -1.28259e-22)
(0.904996 0.0123437 1.41228e-22)
(0.900728 -0.00301211 -3.05649e-21)
(0.913729 -0.00884557 9.96667e-21)
(0.938049 -0.0454193 -1.45232e-20)
(1.02089 -0.0613197 7.32968e-21)
(1.08331 -0.105798 -4.63055e-22)
(1.21895 -0.143181 4.96101e-22)
(1.35069 -0.0819369 -1.41529e-22)
(0.964869 0.000905952 6.42884e-21)
(0.963717 0.00146285 -7.06089e-24)
(0.961231 0.00245052 0)
(0.957982 0.00275551 0)
(0.955914 0.00272441 -5.16182e-22)
(0.95375 0.00287955 8.14194e-22)
(0.951056 0.00293556 -4.28122e-21)
(0.949083 0.00289357 9.01099e-21)
(0.947909 0.00292305 -4.7381e-21)
(0.947221 0.00215857 -3.06922e-22)
(0.947419 0.000827173 0)
(0.948743 -0.000747892 -9.95304e-21)
(0.951627 -0.00138865 9.97557e-21)
(0.957592 -0.0043949 -2.65323e-21)
(0.963899 -0.00704638 2.21751e-21)
(0.97387 -0.00867954 -2.66798e-22)
(0.987008 -0.0102004 -1.0094e-21)
(1.00226 -0.0135069 1.41373e-22)
(1.01871 -0.0142912 7.50929e-22)
(1.03261 -0.0142592 -4.16686e-24)
(1.04538 -0.0123165 -1.72643e-22)
(1.06118 -0.00903149 4.26758e-22)
(1.07842 -0.00215142 -2.40473e-22)
(1.08979 0.00400199 2.22712e-23)
(1.09345 0.0108532 1.99112e-23)
(1.0899 0.0165988 3.54233e-22)
(1.07819 0.0245626 -3.07318e-22)
(1.05252 0.0258967 -3.65489e-24)
(1.02224 0.0271512 -6.66159e-23)
(0.988115 0.0193261 0)
(0.956836 0.0155381 -9.87301e-23)
(0.927738 0.00438351 0)
(0.911304 0.00126733 -4.19538e-22)
(0.904427 -0.01023 0)
(0.912019 -0.0118058 0)
(0.922903 -0.0399325 -7.52615e-21)
(0.977992 -0.0560221 8.02387e-21)
(1.03864 -0.0782488 7.98468e-21)
(1.13194 -0.151918 -7.31619e-21)
(1.29266 -0.106097 1.44579e-22)
(0.964152 0.00173947 0)
(0.962857 0.00218672 -7.62157e-24)
(0.96042 0.00358477 0)
(0.9573 0.00390191 0)
(0.954854 0.00356936 -8.78738e-21)
(0.952925 0.00339535 3.72272e-21)
(0.950712 0.00281354 9.32336e-21)
(0.948586 0.00154547 -4.75913e-21)
(0.947554 0.000787153 0)
(0.947017 -0.000708623 0)
(0.947031 -0.00268534 0)
(0.948329 -0.00459817 -4.49072e-21)
(0.951385 -0.00685175 4.83445e-21)
(0.958527 -0.0101642 2.71699e-21)
(0.964743 -0.0118784 -2.70877e-21)
(0.973974 -0.0141218 -1.92459e-21)
(0.987653 -0.0158578 1.28197e-21)
(1.00251 -0.018859 9.07171e-22)
(1.01824 -0.0187355 -3.05821e-22)
(1.03311 -0.0184573 3.05937e-22)
(1.04707 -0.0156002 6.21189e-24)
(1.06092 -0.0125959 1.81816e-23)
(1.07676 -0.00534046 -2.67898e-23)
(1.08998 0.000867295 0)
(1.09734 0.0101923 -2.04324e-23)
(1.09575 0.0160853 -3.46334e-22)
(1.08748 0.0259873 2.53802e-22)
(1.0659 0.0277906 9.07677e-22)
(1.04082 0.0341705 -2.05805e-21)
(1.00854 0.0312732 1.08203e-21)
(0.979076 0.0350652 1.99398e-21)
(0.943723 0.0258471 -1.46975e-21)
(0.921 0.0217174 2.81598e-22)
(0.903511 0.00158543 2.80097e-21)
(0.906964 -0.00360447 3.78421e-21)
(0.907121 -0.0312807 -6.06552e-21)
(0.947244 -0.0691991 0)
(1.01574 -0.0847572 7.71998e-21)
(1.09294 -0.188316 -1.19471e-21)
(1.25305 -0.167524 -6.24201e-21)
(0.962983 0.00166363 8.32534e-21)
(0.961651 0.00217119 -8.14761e-24)
(0.959157 0.00375363 0)
(0.956028 0.00397176 0)
(0.953743 0.00370952 8.56378e-21)
(0.952018 0.00333876 -8.60728e-21)
(0.949923 0.00253992 4.90231e-21)
(0.948203 0.00166082 7.44985e-22)
(0.947171 0.00117209 -5.07886e-21)
(0.946979 -0.00011439 5.24808e-21)
(0.947267 -0.00172309 -4.61322e-21)
(0.949187 -0.0038231 -5.58089e-21)
(0.952229 -0.00531478 5.92056e-21)
(0.958469 -0.00923741 0)
(0.965038 -0.011783 2.60866e-21)
(0.974779 -0.0153166 -4.69289e-21)
(0.98851 -0.0172974 1.18407e-21)
(1.00267 -0.0207846 1.49713e-22)
(1.01858 -0.0204117 4.21223e-22)
(1.03443 -0.0198436 3.09599e-22)
(1.04962 -0.0168365 1.68612e-22)
(1.06122 -0.0148127 8.11601e-23)
(1.07561 -0.00769636 -2.28709e-22)
(1.08788 -0.00150543 -3.32185e-22)
(1.09896 0.00905524 3.315e-22)
(1.09948 0.0157433 3.37274e-22)
(1.09532 0.028866 -3.3308e-22)
(1.079 0.0341505 -4.97452e-23)
(1.05721 0.0422932 0)
(1.02339 0.0362529 -1.42941e-21)
(0.99508 0.0366472 1.16307e-21)
(0.95813 0.0248082 1.74574e-21)
(0.932702 0.0215352 -1.96604e-21)
(0.907506 0.00360657 -2.96238e-21)
(0.904949 -0.00346707 2.29929e-21)
(0.901067 -0.021117 -3.10602e-23)
(0.915311 -0.0633207 0)
(0.980124 -0.0705515 7.08749e-21)
(1.01956 -0.161692 -2.00008e-21)
(1.18112 -0.187895 -5.76508e-21)
(0.962149 0.00260727 6.74308e-21)
(0.960786 0.00311898 -5.16768e-22)
(0.958219 0.00472005 8.73806e-21)
(0.955227 0.0049095 -8.8136e-21)
(0.953049 0.00463852 5.80123e-22)
(0.951305 0.0039457 -6.02577e-22)
(0.949383 0.00322118 0)
(0.947872 0.00207818 3.93208e-21)
(0.9469 0.00120875 -5.25674e-21)
(0.946879 -0.000625352 0)
(0.947193 -0.0028879 4.09014e-21)
(0.948997 -0.0062286 -4.79978e-21)
(0.952286 -0.00890009 2.67122e-25)
(0.958596 -0.0135506 0)
(0.966074 -0.0158059 2.36154e-21)
(0.975424 -0.0197433 -2.08371e-21)
(0.988715 -0.022111 -9.37715e-22)
(1.0025 -0.0255825 1.5499e-22)
(1.01924 -0.025053 5.16571e-22)
(1.03435 -0.0251784 3.29883e-22)
(1.05086 -0.0211712 0)
(1.06185 -0.0192513 2.18471e-22)
(1.07547 -0.0118874 -2.28587e-22)
(1.08657 -0.00628713 0)
(1.1001 0.00589741 -3.76119e-23)
(1.10242 0.0136065 0)
(1.10037 0.0284467 -2.81422e-22)
(1.08631 0.0337434 1.2759e-21)
(1.0703 0.0446971 -9.66317e-22)
(1.03666 0.0431458 2.82732e-22)
(1.01069 0.0485958 1.39422e-21)
(0.97097 0.0405439 -3.63375e-21)
(0.946497 0.0377333 2.10941e-21)
(0.913021 0.0189806 -2.52563e-21)
(0.903263 0.00756632 8.50171e-21)
(0.894114 -0.00592209 -6.29625e-21)
(0.891452 -0.0551247 0)
(0.941947 -0.07062 8.94588e-21)
(0.969158 -0.159596 3.09068e-23)
(1.11725 -0.207279 -8.64892e-21)
(0.960882 0.00256904 0)
(0.959505 0.00308893 1.04129e-21)
(0.956859 0.00467827 0)
(0.954077 0.00501456 1.17877e-21)
(0.951873 0.00464936 8.64401e-21)
(0.950409 0.00374887 -4.83667e-21)
(0.948538 0.00297417 -5.1458e-21)
(0.947288 0.00157992 6.6748e-22)
(0.946517 0.000501942 0)
(0.946541 -0.00170406 0)
(0.947072 -0.00401054 6.32667e-21)
(0.949409 -0.00728571 -6.35444e-21)
(0.952681 -0.00981779 -1.03749e-21)
(0.958788 -0.014932 -3.33438e-22)
(0.966786 -0.0174983 2.41571e-21)
(0.975919 -0.0225551 -2.13371e-21)
(0.989615 -0.0247446 -9.53749e-22)
(1.00305 -0.028692 1.6063e-22)
(1.02013 -0.0278209 4.8025e-22)
(1.03406 -0.0277816 3.15283e-22)
(1.0525 -0.0228498 1.24732e-23)
(1.06394 -0.0206985 2.70559e-22)
(1.07732 -0.0130538 -2.7879e-22)
(1.08555 -0.00869417 -1.99755e-23)
(1.09977 0.00387494 7.49044e-23)
(1.10375 0.012126 0)
(1.10554 0.0284802 -3.90553e-22)
(1.0931 0.0366058 2.59117e-22)
(1.07962 0.0513988 1.1315e-22)
(1.04892 0.0513611 -2.59588e-22)
(1.0247 0.0554536 1.72172e-22)
(0.983136 0.047133 1.99801e-21)
(0.958422 0.0445599 -2.25947e-21)
(0.920661 0.0279497 5.65627e-22)
(0.903453 0.0126864 3.35977e-22)
(0.892853 0.00349709 -7.14463e-21)
(0.878602 -0.0399206 6.35231e-21)
(0.908816 -0.057392 8.32241e-21)
(0.917579 -0.128168 -8.26176e-21)
(1.04448 -0.202091 0)
(0.959966 0.00361358 0)
(0.958508 0.00403484 0)
(0.955946 0.00576844 1.06711e-20)
(0.953299 0.00592085 -2.07019e-20)
(0.95105 0.00544129 9.96745e-21)
(0.949775 0.00431748 0)
(0.947888 0.00338487 5.47318e-21)
(0.946736 0.00170089 1.03587e-22)
(0.946045 0.000362856 -4.93332e-21)
(0.946498 -0.00219987 0)
(0.946871 -0.00480011 -7.3097e-22)
(0.949547 -0.0087305 7.27364e-22)
(0.953202 -0.0118517 3.50182e-21)
(0.958738 -0.0177634 -2.45901e-21)
(0.967327 -0.0205526 0)
(0.976754 -0.0259249 2.23317e-21)
(0.98992 -0.0284717 -3.47276e-21)
(1.00314 -0.0327564 1.88898e-21)
(1.02073 -0.0314458 -8.06477e-22)
(1.03469 -0.0323347 -5.02337e-25)
(1.05284 -0.0268615 -1.978e-22)
(1.06479 -0.0247377 1.72502e-22)
(1.07875 -0.0166824 -2.49432e-23)
(1.08561 -0.0126647 2.05456e-23)
(1.09831 -0.000961986 -3.72803e-23)
(1.10423 0.00863845 0)
(1.10986 0.0263516 0)
(1.0998 0.0365648 9.04296e-23)
(1.08936 0.0519477 -8.68566e-22)
(1.06156 0.0556843 9.89647e-22)
(1.03787 0.061762 0)
(0.993547 0.0585018 -1.84244e-21)
(0.969063 0.0561456 1.89368e-21)
(0.932974 0.0447743 -2.59151e-21)
(0.907428 0.0263349 2.2939e-21)
(0.890253 0.0191426 -5.33918e-21)
(0.863381 -0.0185979 6.02053e-21)
(0.88089 -0.0420105 0)
(0.87752 -0.104516 0)
(0.978725 -0.188996 1.03295e-21)
(0.958612 0.00355918 -1.61603e-22)
(0.957154 0.00396133 1.01585e-20)
(0.954475 0.00573835 -1.20691e-21)
(0.952205 0.00575191 -1.28219e-21)
(0.950063 0.00526395 -1.07203e-20)
(0.948642 0.00380958 1.63113e-20)
(0.947039 0.0029538 -5.57011e-21)
(0.946143 0.000999954 5.82951e-21)
(0.945278 -0.000694658 -7.34292e-21)
(0.946136 -0.00351685 -6.74834e-21)
(0.947054 -0.00635355 1.27937e-20)
(0.94923 -0.0109814 -1.27074e-20)
(0.953667 -0.0143106 5.95234e-21)
(0.958874 -0.0207685 0)
(0.968523 -0.0236305 0)
(0.977111 -0.0298092 -2.89114e-21)
(0.990587 -0.0321655 1.83782e-21)
(1.00275 -0.0369809 9.88143e-22)
(1.02278 -0.0353123 3.63813e-22)
(1.03538 -0.0358116 -3.36708e-22)
(1.05323 -0.0299865 1.27421e-23)
(1.06472 -0.0277438 2.38206e-22)
(1.08066 -0.0187791 -2.12197e-22)
(1.0875 -0.014625 -2.86611e-22)
(1.0994 -0.00368875 2.85871e-22)
(1.10405 0.00544631 0)
(1.11272 0.0236066 0)
(1.10518 0.0357063 7.59437e-23)
(1.09816 0.0537498 -7.78706e-22)
(1.07233 0.0622822 7.74515e-22)
(1.05172 0.0702598 1.33216e-21)
(1.00878 0.0687697 5.03607e-22)
(0.979598 0.0656608 -1.51615e-21)
(0.946046 0.0586774 -2.18232e-21)
(0.909813 0.0372561 7.16992e-21)
(0.890198 0.0294241 -4.32107e-21)
(0.856217 0.00028475 -7.30631e-22)
(0.864623 -0.023942 7.51867e-21)
(0.849624 -0.074889 -6.48306e-21)
(0.920353 -0.163869 -5.19307e-23)
(0.957611 0.00463227 -9.33128e-21)
(0.956098 0.00498039 1.80275e-20)
(0.95345 0.00671639 3.63561e-22)
(0.951189 0.00657451 -2.12533e-20)
(0.949258 0.00597111 1.36256e-20)
(0.94765 0.00428825 0)
(0.94622 0.00316645 0)
(0.945617 0.000943817 1.51297e-21)
(0.944502 -0.00119535 7.64324e-22)
(0.945631 -0.00438574 -4.66208e-21)
(0.947174 -0.00762742 6.26153e-21)
(0.948941 -0.0126761 -6.12097e-21)
(0.954015 -0.0162777 9.11615e-21)
(0.958964 -0.0235336 -2.25035e-21)
(0.968695 -0.0266548 2.60368e-21)
(0.977558 -0.0332697 -4.63521e-21)
(0.992302 -0.035524 1.06108e-21)
(1.00291 -0.0411671 6.76629e-23)
(1.0222 -0.0388393 5.49191e-22)
(1.03571 -0.0396828 3.19611e-22)
(1.0548 -0.0335179 0)
(1.06557 -0.0312624 1.94643e-22)
(1.08209 -0.0222912 -2.26178e-22)
(1.08856 -0.0176558 0)
(1.10053 -0.00777552 0)
(1.10363 0.00156046 -2.66327e-22)
(1.11441 0.0191272 5.53799e-22)
(1.10961 0.0343239 -4.35314e-22)
(1.10602 0.0535074 7.52487e-23)
(1.08342 0.0650197 0)
(1.06571 0.0750785 -1.18375e-21)
(1.02862 0.079226 1.05149e-21)
(0.985898 0.0739681 -3.51385e-22)
(0.961226 0.0738541 0)
(0.920162 0.0548549 0)
(0.897044 0.0454028 -6.0495e-21)
(0.852726 0.0219202 6.09897e-21)
(0.849596 0.000273757 6.11828e-21)
(0.826809 -0.0395533 -8.59304e-21)
(0.871708 -0.124284 -1.03385e-21)
(0.956229 0.00451887 -9.76979e-21)
(0.954664 0.00478043 1.11577e-20)
(0.952176 0.0064847 0)
(0.949768 0.00619463 2.77752e-21)
(0.948019 0.00550787 -2.87775e-21)
(0.946796 0.00361273 7.49919e-21)
(0.945014 0.00235958 -7.59201e-21)
(0.944849 -0.000246253 1.78432e-23)
(0.944579 -0.00229739 -6.40898e-21)
(0.944441 -0.00654802 1.12948e-20)
(0.947154 -0.00958627 -4.87508e-21)
(0.949083 -0.0153256 7.14046e-21)
(0.954634 -0.0193736 -3.30703e-21)
(0.958388 -0.0271919 -3.8257e-21)
(0.969489 -0.0303939 0)
(0.977752 -0.0377689 0)
(0.993869 -0.0397164 0)
(1.0038 -0.0452302 -8.31048e-22)
(1.02243 -0.0433998 6.48977e-22)
(1.03572 -0.044197 0)
(1.05659 -0.0373596 1.58104e-22)
(1.06651 -0.0348278 5.60739e-23)
(1.08331 -0.0257106 -4.27465e-23)
(1.08933 -0.0203987 -1.478e-22)
(1.10245 -0.010815 0)
(1.10481 -0.00187082 2.75184e-22)
(1.11639 0.0144935 1.84495e-23)
(1.11339 0.0304989 -2.55807e-22)
(1.11364 0.0512247 -1.1928e-23)
(1.09596 0.0675874 0)
(1.07371 0.0779558 -8.81144e-22)
(1.0499 0.0902389 8.74109e-22)
(1.00143 0.086297 6.6137e-22)
(0.974649 0.0852696 -1.46726e-21)
(0.930149 0.0698434 5.74913e-21)
(0.905616 0.0617599 -4.34384e-21)
(0.859267 0.0399891 0)
(0.843155 0.0201185 7.00532e-21)
(0.820111 -0.00784247 -6.02039e-21)
(0.839445 -0.0831191 -8.18905e-22)
(0.955144 0.00561725 0)
(0.95349 0.00576895 1.07772e-20)
(0.950874 0.00740697 3.73795e-22)
(0.948801 0.00694929 -1.4353e-20)
(0.946823 0.00603536 1.21451e-20)
(0.94574 0.00391299 -1.22581e-20)
(0.944434 0.00231511 1.58561e-21)
(0.943442 -0.000610401 4.95075e-21)
(0.943794 -0.00306963 -8.30351e-21)
(0.943929 -0.00771217 8.40325e-21)
(0.946356 -0.0112382 -1.3439e-20)
(0.948515 -0.0178294 5.89723e-21)
(0.955055 -0.0215004 3.16546e-21)
(0.958487 -0.0303668 -3.17867e-21)
(0.970171 -0.0337133 -3.46649e-21)
(0.977591 -0.0418284 5.19847e-21)
(0.994222 -0.0433674 -3.48667e-21)
(1.00468 -0.0492379 9.24393e-22)
(1.02415 -0.0470339 9.32377e-23)
(1.03579 -0.0483242 -1.61466e-23)
(1.05675 -0.0414311 1.49288e-22)
(1.06662 -0.0379578 -1.1859e-22)
(1.08488 -0.0291898 -3.56003e-24)
(1.09063 -0.0229593 -2.29958e-22)
(1.10511 -0.0148585 2.0566e-22)
(1.10652 -0.00549832 -7.96723e-23)
(1.1184 0.00913555 -5.40312e-23)
(1.11712 0.0263848 6.56342e-23)
(1.11754 0.0464603 -5.68218e-22)
(1.11022 0.0697195 -4.80483e-23)
(1.08315 0.0802931 5.41594e-22)
(1.06368 0.0962528 9.52664e-22)
(1.02167 0.0978627 -1.25437e-21)
(0.993398 0.099434 -1.71274e-21)
(0.946684 0.0851344 2.5278e-21)
(0.913119 0.0770234 0)
(0.880446 0.0648297 0)
(0.838827 0.041157 6.26879e-21)
(0.817912 0.0264452 -4.76899e-21)
(0.811986 -0.0284731 1.55878e-21)
(0.953684 0.00530272 -1.68612e-22)
(0.952086 0.00535726 9.52612e-21)
(0.949211 0.00670563 1.47384e-21)
(0.947695 0.00639393 1.50951e-21)
(0.945329 0.00522951 1.589e-20)
(0.944311 0.0028839 -7.91609e-21)
(0.943666 0.00120014 -8.29476e-21)
(0.942666 -0.0022097 0)
(0.94284 -0.00503967 1.72948e-21)
(0.943138 -0.0101534 5.24046e-21)
(0.946646 -0.0139771 -8.79522e-21)
(0.947601 -0.0210518 -6.80958e-21)
(0.955364 -0.0251695 7.69287e-21)
(0.958839 -0.03456 0)
(0.970674 -0.0380747 3.57031e-21)
(0.978009 -0.0464836 -2.83472e-21)
(0.994905 -0.0482216 -1.05339e-21)
(1.00562 -0.0539662 4.53333e-22)
(1.02572 -0.0517462 1.15388e-21)
(1.03683 -0.0525611 -2.96039e-22)
(1.05725 -0.0460266 -1.01776e-23)
(1.06671 -0.0418533 0)
(1.08623 -0.0334711 -1.7358e-23)
(1.0923 -0.0264855 2.45298e-23)
(1.10712 -0.0179959 -1.66479e-23)
(1.10952 -0.00956425 2.53553e-22)
(1.11774 0.00335111 -3.62632e-22)
(1.12466 0.023244 2.17534e-22)
(1.11941 0.0395859 0)
(1.11922 0.0682551 0)
(1.0969 0.0821054 -4.88939e-22)
(1.08032 0.0994874 4.84552e-22)
(1.03966 0.105934 0)
(1.0097 0.112315 -5.94741e-22)
(0.97199 0.10381 -3.60579e-21)
(0.925394 0.091432 -7.15338e-22)
(0.899825 0.0853709 4.15978e-21)
(0.849462 0.0627796 4.4883e-21)
(0.819426 0.0476502 -5.09201e-21)
(0.807442 0.000694581 -1.04824e-22)
(0.952427 0.00640858 -1.1319e-20)
(0.95079 0.00632081 1.14753e-20)
(0.947763 0.00751219 -1.51958e-21)
(0.94617 0.00695126 0)
(0.944121 0.00563269 -1.49838e-20)
(0.943037 0.00292705 2.03478e-20)
(0.941944 0.000716542 -5.19891e-21)
(0.94156 -0.0029714 0)
(0.941819 -0.00596533 1.63741e-20)
(0.941671 -0.0122004 -8.2971e-21)
(0.945903 -0.0157907 -7.35169e-21)
(0.946899 -0.0241765 -7.08024e-21)
(0.955107 -0.0279974 9.65228e-21)
(0.958656 -0.0382927 -2.58638e-21)
(0.970985 -0.0417579 3.67189e-21)
(0.978543 -0.0507985 -3.2591e-21)
(0.995817 -0.0524543 -1.06751e-21)
(1.00667 -0.0581833 2.26487e-22)
(1.02705 -0.0558706 6.23612e-22)
(1.03788 -0.0561604 2.91851e-22)
(1.0583 -0.0502999 1.97718e-23)
(1.06729 -0.0453061 1.32691e-22)
(1.08574 -0.0377765 -1.40965e-22)
(1.09446 -0.0293537 -1.11972e-22)
(1.10601 -0.022784 1.28848e-22)
(1.11605 -0.0113476 -1.78334e-22)
(1.11747 -0.00256089 1.31853e-22)
(1.12906 0.0164577 0)
(1.12477 0.0343934 -3.45446e-22)
(1.12819 0.0619215 6.84303e-23)
(1.10779 0.0823598 -6.23622e-23)
(1.09425 0.102609 2.80693e-22)
(1.05887 0.113234 0)
(1.02551 0.122049 -8.19826e-22)
(0.994114 0.12013 7.16206e-22)
(0.94418 0.10752 3.71408e-22)
(0.91423 0.105433 -4.55911e-22)
(0.884237 0.0877556 0)
(0.830256 0.0839076 0)
(0.807293 0.0361566 -1.23503e-21)
(0.950555 0.00574274 -1.18909e-20)
(0.949081 0.00569948 1.20586e-20)
(0.946046 0.00665897 0)
(0.944703 0.00590019 0)
(0.942596 0.00451214 0)
(0.94196 0.0014721 0)
(0.941126 -0.00109148 0)
(0.939918 -0.0049611 0)
(0.941431 -0.00853053 -1.14285e-20)
(0.940514 -0.0152327 1.34509e-20)
(0.945664 -0.0192882 7.55846e-21)
(0.946365 -0.028136 -1.17819e-21)
(0.955131 -0.0324838 -3.89173e-21)
(0.958798 -0.0429851 -4.40888e-21)
(0.971405 -0.0468929 -3.78743e-21)
(0.979005 -0.0559661 7.47856e-22)
(0.996747 -0.0579155 1.53861e-21)
(1.00784 -0.0632946 1.23675e-22)
(1.02848 -0.0609425 3.62026e-22)
(1.0401 -0.060796 2.99927e-22)
(1.0586 -0.0552368 -1.5524e-24)
(1.07052 -0.0488673 1.06432e-22)
(1.0827 -0.0433881 -1.23618e-22)
(1.09838 -0.0324164 3.46471e-23)
(1.10456 -0.0273668 0)
(1.12008 -0.0167801 2.48984e-23)
(1.12127 -0.00675503 4.66106e-23)
(1.13247 0.00923808 0)
(1.12927 0.0287234 -1.8927e-22)
(1.13694 0.0548417 1.9952e-22)
(1.12015 0.0791895 4.23598e-23)
(1.10843 0.102413 0)
(1.07955 0.117821 0)
(1.04069 0.129024 -7.32865e-22)
(1.01506 0.135735 7.25621e-22)
(0.972394 0.124285 -1.05928e-22)
(0.927192 0.122627 9.29394e-23)
(0.904455 0.103902 3.76022e-21)
(0.860287 0.110696 -4.14296e-21)
(0.819747 0.0636132 5.92637e-22)
(0.949281 0.0068144 0)
(0.947607 0.00643417 0)
(0.944295 0.00721126 0)
(0.943063 0.00631939 0)
(0.940559 0.00458883 0)
(0.940091 0.00114787 9.48154e-21)
(0.939625 -0.00160488 -7.66068e-21)
(0.937659 -0.00645881 -7.90828e-21)
(0.94035 -0.0103164 1.79239e-20)
(0.938845 -0.0177271 -4.05338e-21)
(0.944359 -0.0218063 -9.04569e-21)
(0.945248 -0.0317602 1.95996e-21)
(0.954683 -0.0359361 9.49117e-22)
(0.958422 -0.0469976 -8.92077e-22)
(0.971642 -0.0515107 3.07943e-21)
(0.979585 -0.0606037 -3.4527e-21)
(0.996936 -0.0627855 -1.09026e-21)
(1.00984 -0.0676833 1.09318e-21)
(1.02767 -0.0660673 -1.12027e-22)
(1.04497 -0.0639836 3.01531e-22)
(1.05694 -0.0600824 -1.82072e-24)
(1.07507 -0.0513123 -1.44655e-23)
(1.08238 -0.0473506 6.11204e-24)
(1.09826 -0.037376 4.50497e-23)
(1.10497 -0.0314033 -3.20739e-23)
(1.12098 -0.0211287 -3.68387e-23)
(1.12383 -0.011804 1.6376e-22)
(1.1376 0.00210035 -1.62805e-22)
(1.13364 0.02054 2.99435e-23)
(1.14422 0.0465998 0)
(1.13258 0.073794 1.32544e-22)
(1.12006 0.100357 -2.89871e-22)
(1.10167 0.120772 1.56995e-22)
(1.06044 0.13511 0)
(1.03062 0.146864 0)
(1.00016 0.140678 -2.57531e-21)
(0.948245 0.143363 2.93138e-21)
(0.919029 0.119856 -3.49007e-21)
(0.881123 0.130871 3.54163e-21)
(0.841358 0.0979953 4.65878e-22)
(0.947662 0.00594655 0)
(0.945946 0.0052806 0)
(0.942785 0.00593693 1.45304e-20)
(0.94094 0.00482366 -1.66006e-20)
(0.939787 0.00296722 1.55581e-20)
(0.937716 -0.000888217 -1.9713e-20)
(0.938684 -0.00421557 -1.02138e-20)
(0.936076 -0.00931318 -2.145e-21)
(0.939355 -0.0135772 1.04925e-20)
(0.937784 -0.0215637 0)
(0.943716 -0.0261877 2.09899e-21)
(0.944328 -0.0363929 -1.00875e-20)
(0.953928 -0.0416055 7.10753e-21)
(0.959332 -0.0523282 9.27086e-22)
(0.970978 -0.0576526 8.42484e-22)
(0.983001 -0.0659497 5.67876e-24)
(0.994892 -0.0692702 -7.91679e-22)
(1.01518 -0.0729606 2.83032e-22)
(1.02597 -0.0721447 4.5865e-22)
(1.0487 -0.0686234 2.70896e-22)
(1.05826 -0.0653508 -6.77147e-24)
(1.07636 -0.0561282 -1.45797e-23)
(1.0844 -0.0515985 1.4557e-23)
(1.09948 -0.0412677 -1.40431e-23)
(1.10508 -0.0358517 0)
(1.12056 -0.0277921 1.1378e-23)
(1.12499 -0.0179015 -1.43314e-22)
(1.14065 -0.00399772 4.16366e-22)
(1.14434 0.0119005 -1.71237e-22)
(1.14582 0.0371833 -3.46262e-23)
(1.14928 0.0636723 -4.17793e-22)
(1.13287 0.094836 7.89227e-22)
(1.12193 0.120946 -6.31312e-22)
(1.08821 0.137547 0)
(1.0491 0.156826 0)
(1.02333 0.151808 0)
(0.975401 0.164381 -1.33112e-22)
(0.942361 0.139781 3.19907e-21)
(0.906035 0.149597 -2.7881e-21)
(0.861229 0.119975 -8.57044e-22)
(0.9457 0.006858 -1.40894e-20)
(0.943841 0.0056723 1.43284e-20)
(0.941062 0.00618007 0)
(0.938252 0.00481961 1.95241e-21)
(0.93786 0.00242943 0)
(0.935016 -0.0016148 4.19369e-21)
(0.936549 -0.00560426 -1.72982e-20)
(0.933694 -0.0113279 1.30428e-20)
(0.937347 -0.0159137 -4.41165e-21)
(0.935792 -0.0243356 6.68858e-21)
(0.942191 -0.0296638 1.26664e-23)
(0.943897 -0.0402884 1.05622e-20)
(0.95089 -0.0466991 -8.47225e-21)
(0.961233 -0.0563832 -9.63521e-22)
(0.967939 -0.0636533 -8.76e-22)
(0.985627 -0.0706688 6.89605e-24)
(0.995375 -0.0753316 -3.17034e-22)
(1.01642 -0.0774764 -7.93974e-22)
(1.02804 -0.0773638 1.04631e-21)
(1.05001 -0.072676 -2.50448e-22)
(1.06011 -0.0697335 -2.13923e-23)
(1.07811 -0.0594759 -6.9604e-23)
(1.08557 -0.0552579 -5.65839e-23)
(1.09946 -0.045504 1.44539e-22)
(1.10685 -0.0406125 -3.54187e-23)
(1.11643 -0.0317611 -1.58799e-23)
(1.13135 -0.0251677 -1.05601e-23)
(1.13586 -0.0122973 -3.81127e-23)
(1.15556 0.00340629 -3.12614e-23)
(1.15143 0.0257199 -2.56318e-24)
(1.16131 0.0545964 8.36199e-23)
(1.14921 0.0845602 0)
(1.13698 0.117583 1.74693e-22)
(1.11236 0.137994 0)
(1.07691 0.164527 -1.98515e-22)
(1.04943 0.161047 0)
(1.00203 0.181947 -1.61655e-22)
(0.96264 0.161316 1.91778e-21)
(0.932926 0.169285 3.48359e-22)
(0.882529 0.149407 -2.25331e-21)
(0.943852 0.00552702 1.28837e-20)
(0.94144 0.00399026 0)
(0.939339 0.00427803 2.03466e-21)
(0.936053 0.00267756 -1.90227e-20)
(0.935964 -0.00027327 1.71041e-20)
(0.932638 -0.00447099 -4.4426e-21)
(0.934811 -0.00884677 2.05021e-20)
(0.931992 -0.0152566 -2.31292e-20)
(0.93573 -0.0204181 2.33066e-21)
(0.93546 -0.0287723 2.33587e-21)
(0.938994 -0.0358894 -1.15636e-21)
(0.946218 -0.0451104 -1.12595e-21)
(0.948822 -0.0540688 4.14497e-21)
(0.961829 -0.0621671 -3.17211e-21)
(0.968602 -0.0711788 0)
(0.986052 -0.0772254 8.51728e-24)
(0.996346 -0.0819172 -3.0691e-22)
(1.01855 -0.0838447 0)
(1.03025 -0.0840946 -2.22922e-22)
(1.05204 -0.0780387 2.2315e-22)
(1.06252 -0.0747297 2.54187e-24)
(1.08018 -0.0649553 0)
(1.08834 -0.058465 0)
(1.09832 -0.0504776 0)
(1.11038 -0.0447279 9.35493e-23)
(1.11466 -0.0379511 2.74634e-23)
(1.13183 -0.0319756 9.09633e-23)
(1.13736 -0.0209679 -5.10566e-23)
(1.15586 -0.00640245 7.23271e-23)
(1.16261 0.0127227 -5.75345e-24)
(1.17012 0.0418354 5.04073e-22)
(1.16391 0.0718733 -1.8271e-21)
(1.16018 0.109348 1.02124e-21)
(1.13666 0.132276 -1.23043e-21)
(1.10122 0.169275 3.37834e-21)
(1.07475 0.168567 -1.93123e-21)
(1.0373 0.192349 1.49036e-24)
(0.99039 0.182007 6.90829e-22)
(0.962629 0.189215 8.28157e-22)
(0.910617 0.174063 -1.16204e-21)
(0.941306 0.0059559 1.93249e-21)
(0.938661 0.00443683 -2.06998e-21)
(0.936782 0.00402958 5.46798e-23)
(0.932912 0.00229581 2.19225e-21)
(0.933131 -0.00105555 0)
(0.929491 -0.0058436 -4.77145e-21)
(0.931338 -0.0110097 9.65089e-21)
(0.929958 -0.0169422 1.23032e-20)
(0.930666 -0.024481 -9.97696e-21)
(0.935585 -0.0317268 2.50745e-21)
(0.934828 -0.0415471 0)
(0.944316 -0.0491473 -8.03061e-21)
(0.947522 -0.0601197 1.47775e-20)
(0.961195 -0.0675793 -3.32283e-21)
(0.967976 -0.0773748 -9.22522e-22)
(0.986333 -0.0827374 3.23574e-21)
(0.997226 -0.0887004 -2.52662e-21)
(1.01982 -0.0893018 0)
(1.03157 -0.0888385 0)
(1.05426 -0.0844828 0)
(1.0646 -0.076842 3.47228e-24)
(1.08059 -0.0712775 0)
(1.09175 -0.0610983 -3.40287e-22)
(1.09787 -0.0538858 9.62449e-22)
(1.11147 -0.0488701 -6.79682e-22)
(1.11554 -0.0418563 -9.03347e-23)
(1.12762 -0.03781 0)
(1.14084 -0.0317562 0)
(1.15172 -0.0163818 9.4942e-24)
(1.16854 -0.00175011 -1.32763e-22)
(1.18252 0.0278627 -5.73696e-22)
(1.17625 0.0560529 6.19502e-22)
(1.17863 0.0989087 3.85051e-22)
(1.16556 0.121359 2.39029e-21)
(1.13012 0.168617 -1.84432e-21)
(1.09945 0.1751 -4.9784e-22)
(1.07188 0.199763 0)
(1.02123 0.199607 5.48576e-23)
(0.993345 0.20983 2.04732e-23)
(0.940505 0.197851 1.59055e-22)
(0.938934 0.00389851 -1.88732e-20)
(0.93621 0.00201313 2.15197e-21)
(0.934455 0.0012146 -2.2485e-21)
(0.930447 -0.000914309 2.40552e-21)
(0.930608 -0.00486908 -2.49377e-21)
(0.928838 -0.00835959 1.78052e-20)
(0.926877 -0.0165377 -2.05775e-20)
(0.930031 -0.0219832 0)
(0.927437 -0.0310912 2.66407e-21)
(0.934254 -0.0369852 7.77584e-21)
(0.933848 -0.0482487 -1.05222e-20)
(0.94373 -0.0565297 -1.09518e-20)
(0.946711 -0.0679189 1.3123e-20)
(0.9611 -0.0752411 -4.56527e-21)
(0.968491 -0.0854073 1.64396e-23)
(0.987787 -0.0911477 0)
(0.998747 -0.0953 -1.35299e-21)
(1.02203 -0.0982728 5.94226e-22)
(1.03402 -0.0937317 6.64159e-22)
(1.05623 -0.0922113 0)
(1.06825 -0.0824714 -3.63831e-24)
(1.08224 -0.0754248 -4.34256e-22)
(1.09423 -0.0668766 5.72693e-22)
(1.10001 -0.0575775 -1.34839e-22)
(1.10969 -0.0530819 0)
(1.11721 -0.0479886 2.38422e-22)
(1.12388 -0.0429951 0)
(1.14161 -0.0418544 0)
(1.1528 -0.0270144 -1.13534e-22)
(1.16612 -0.0174902 0)
(1.19156 0.00964993 7.97888e-23)
(1.19198 0.0358774 -1.0665e-21)
(1.19308 0.0842603 4.76855e-22)
(1.19005 0.109473 -5.45282e-22)
(1.17012 0.156303 5.14529e-21)
(1.12871 0.178923 -4.5622e-21)
(1.10586 0.204522 0)
(1.05709 0.208274 -5.40061e-22)
(1.02939 0.225797 2.10925e-21)