/*--------------------------------*- C++ -*----------------------------------*\
  =========                 |
  \\      /  F ield         | OpenFOAM: The Open Source CFD Toolbox
   \\    /   O peration     | Website:  https://openfoam.org
    \\  /    A nd           | Version:  10
     \\/     M anipulation  |
\*---------------------------------------------------------------------------*/
FoamFile
{
    format      ascii;
    class       volScalarField;
    location    "0.698552";
    object      p;
}
// * * * * * * * * * * * * * * * * * * * * * * * * * * * * * * * * * * * * * //

dimensions      [1 -1 -2 0 0 0 0];

internalField   nonuniform List<scalar> 
15984
(
2.48869
2.48733
2.48645
2.48605
2.48609
2.48652
2.48741
2.48868
2.49026
2.49213
2.49426
2.4966
2.49912
2.50178
2.50454
2.50739
2.51028
2.5132
2.51611
2.51899
2.52183
2.52461
2.52731
2.52992
2.53244
2.53484
2.53714
2.53932
2.54139
2.54333
2.54515
2.54685
2.54844
2.54991
2.55126
2.55251
2.55365
2.55469
2.55564
2.55649
2.55725
2.55794
2.55855
2.55911
2.5596
2.56004
2.56043
2.56079
2.5611
2.56136
2.56157
2.56172
2.56179
2.56178
2.48982
2.48826
2.48721
2.48664
2.48653
2.48682
2.48757
2.48876
2.49029
2.49214
2.49427
2.49665
2.49924
2.502
2.50491
2.50792
2.511
2.51413
2.51727
2.5204
2.5235
2.52654
2.5295
2.53237
2.53514
2.53778
2.54029
2.54267
2.5449
2.54698
2.5489
2.55067
2.55227
2.55372
2.55501
2.55613
2.5571
2.55792
2.55858
2.5591
2.55947
2.55969
2.55979
2.55976
2.55963
2.55938
2.55903
2.55859
2.55808
2.55747
2.5568
2.55604
2.5552
2.55429
2.49073
2.48899
2.48775
2.48702
2.48676
2.48694
2.48757
2.48867
2.49015
2.49198
2.49412
2.49655
2.49922
2.5021
2.50515
2.50834
2.51162
2.51498
2.51836
2.52175
2.52512
2.52843
2.53167
2.5348
2.53783
2.54072
2.54346
2.54604
2.54845
2.55067
2.55271
2.55456
2.5562
2.55764
2.55888
2.55991
2.56073
2.56134
2.56174
2.56194
2.56193
2.56173
2.56133
2.56075
2.55999
2.55907
2.55799
2.55677
2.55541
2.55394
2.55235
2.55066
2.54887
2.54702
2.49143
2.4895
2.48809
2.48719
2.4868
2.48687
2.48738
2.48839
2.48984
2.49167
2.49383
2.49632
2.49908
2.50208
2.50529
2.50866
2.51215
2.51574
2.51938
2.52303
2.52667
2.53027
2.53379
2.5372
2.5405
2.54364
2.54662
2.54942
2.55202
2.55441
2.55658
2.55852
2.56022
2.56168
2.56288
2.56383
2.56452
2.56495
2.56512
2.56503
2.56468
2.56405
2.56318
2.56207
2.56071
2.55913
2.55733
2.55532
2.55313
2.55077
2.54826
2.54562
2.54285
2.54
2.4919
2.48979
2.48821
2.48716
2.48664
2.48661
2.48702
2.48795
2.48937
2.4912
2.4934
2.49595
2.49881
2.50194
2.50531
2.50887
2.51259
2.51641
2.52031
2.52424
2.52817
2.53205
2.53586
2.53956
2.54314
2.54655
2.54978
2.5528
2.55561
2.55818
2.56049
2.56254
2.56432
2.56581
2.567
2.5679
2.56849
2.56876
2.56873
2.56838
2.56769
2.56668
2.56535
2.56374
2.5618
2.5596
2.55708
2.55429
2.55127
2.54802
2.54457
2.54094
2.53716
2.53327
2.4921
2.48983
2.4881
2.48692
2.48627
2.48615
2.48648
2.48734
2.48874
2.49058
2.49282
2.49545
2.49841
2.50169
2.50522
2.50898
2.51292
2.51699
2.52116
2.52537
2.52958
2.53376
2.53787
2.54187
2.54573
2.54942
2.55291
2.55618
2.55921
2.56197
2.56445
2.56663
2.5685
2.57004
2.57125
2.57211
2.57262
2.57277
2.57257
2.57198
2.57099
2.56962
2.56788
2.56577
2.56329
2.56045
2.55725
2.55371
2.54985
2.54571
2.5413
2.53665
2.53182
2.52683
2.49204
2.48962
2.48775
2.48644
2.48569
2.48549
2.48576
2.48656
2.48794
2.4898
2.4921
2.49481
2.49789
2.5013
2.50502
2.50898
2.51315
2.51747
2.52191
2.5264
2.53092
2.5354
2.53982
2.54412
2.54828
2.55225
2.55602
2.55954
2.5628
2.56577
2.56843
2.57076
2.57274
2.57437
2.57562
2.57648
2.57694
2.57699
2.57665
2.57584
2.57458
2.57289
2.57077
2.5682
2.56519
2.56175
2.55786
2.5536
2.54891
2.54385
2.53847
2.53279
2.52685
2.52072
2.49169
2.48913
2.48714
2.48572
2.48488
2.4846
2.48483
2.4856
2.48697
2.48886
2.49122
2.49402
2.49722
2.50079
2.50468
2.50886
2.51326
2.51784
2.52255
2.52734
2.53216
2.53695
2.54168
2.54629
2.55076
2.55503
2.55908
2.56287
2.56638
2.56958
2.57244
2.57494
2.57706
2.57879
2.58011
2.58099
2.58143
2.58142
2.58096
2.57998
2.57848
2.5765
2.57401
2.57103
2.56749
2.56352
2.55894
2.55397
2.54847
2.54246
2.53613
2.52936
2.5223
2.51497
2.491
2.48833
2.48624
2.48474
2.48383
2.4835
2.4837
2.48445
2.48582
2.48775
2.49018
2.49308
2.49641
2.50013
2.50421
2.5086
2.51324
2.51808
2.52308
2.52816
2.53328
2.5384
2.54344
2.54838
2.55316
2.55774
2.56209
2.56617
2.56994
2.57338
2.57646
2.57916
2.58145
2.58331
2.58471
2.58565
2.5861
2.58606
2.58553
2.5844
2.58271
2.58046
2.57765
2.57427
2.57028
2.56572
2.56052
2.55483
2.5485
2.54163
2.53427
2.52648
2.51818
2.50967
2.48994
2.48718
2.48502
2.48346
2.48251
2.48215
2.48234
2.48308
2.48448
2.48646
2.48897
2.49197
2.49544
2.49932
2.5036
2.5082
2.51308
2.51819
2.52347
2.52885
2.53429
2.53972
2.5451
2.55037
2.55547
2.56038
2.56504
2.56941
2.57347
2.57718
2.5805
2.58342
2.5859
2.58792
2.58945
2.59048
2.59097
2.59093
2.59035
2.58912
2.58726
2.5848
2.58167
2.57796
2.57351
2.56841
2.56265
2.55617
2.54911
2.54133
2.53294
2.52408
2.51455
2.50478
2.48848
2.48567
2.48348
2.48188
2.48091
2.48055
2.48074
2.4815
2.48294
2.48498
2.48758
2.49069
2.4943
2.49835
2.50281
2.50764
2.51276
2.51814
2.5237
2.52939
2.53515
2.54091
2.54662
2.55223
2.55767
2.56291
2.5679
2.5726
2.57696
2.58095
2.58455
2.58771
2.59041
2.59262
2.59431
2.59546
2.59604
2.59603
2.59544
2.59415
2.59217
2.58951
2.58615
2.58208
2.57723
2.57163
2.56527
2.55813
2.55023
2.54162
2.53221
2.52226
2.51151
2.50029
2.48657
2.48374
2.48157
2.47998
2.479
2.47866
2.47889
2.47969
2.48117
2.48329
2.48599
2.48923
2.49297
2.4972
2.50186
2.5069
2.51227
2.51792
2.52377
2.52977
2.53585
2.54195
2.548
2.55395
2.55975
2.56534
2.57067
2.57571
2.5804
2.5847
2.58859
2.59203
2.59498
2.59742
2.5993
2.60061
2.60131
2.60137
2.60081
2.5995
2.59744
2.59463
2.59106
2.58668
2.58145
2.57539
2.56848
2.56062
2.55202
2.54247
2.53213
2.52102
2.50916
2.4966
2.48417
2.4814
2.47925
2.47772
2.47681
2.47653
2.47679
2.47767
2.47922
2.48142
2.48421
2.48757
2.49146
2.49585
2.5007
2.50596
2.51156
2.51749
2.52363
2.52993
2.53634
2.54279
2.54919
2.55551
2.56167
2.56763
2.57333
2.57872
2.58377
2.58842
2.59263
2.59638
2.59962
2.60231
2.60443
2.60593
2.60679
2.60696
2.60647
2.60519
2.60308
2.60016
2.5964
2.59179
2.5862
2.57972
2.57223
2.56375
2.55439
2.54388
2.53276
2.52044
2.50809
2.49374
2.48131
2.47865
2.47661
2.47519
2.47437
2.47419
2.47452
2.47547
2.47711
2.4794
2.48229
2.48577
2.48979
2.49434
2.49938
2.50485
2.51069
2.51687
2.5233
2.5299
2.53664
2.54343
2.5502
2.55688
2.56342
2.56976
2.57584
2.58163
2.58705
2.59207
2.59665
2.60074
2.6043
2.60729
2.60968
2.61142
2.61248
2.61281
2.61242
2.61121
2.6091
2.60611
2.60222
2.59736
2.59151
2.58458
2.57659
2.5675
2.55736
2.54604
2.53403
2.52063
2.50751
2.4915
2.47797
2.47548
2.4736
2.47231
2.47165
2.47156
2.47198
2.47306
2.4748
2.47718
2.48018
2.48377
2.48793
2.49265
2.49786
2.50354
2.5096
2.51606
2.52277
2.52966
2.53674
2.54389
2.55102
2.55809
2.56502
2.57175
2.57823
2.58441
2.59024
2.59566
2.60064
2.60511
2.60903
2.61237
2.61507
2.61709
2.61839
2.61892
2.61867
2.61758
2.61551
2.6125
2.60851
2.60346
2.59735
2.59005
2.58159
2.57186
2.56106
2.54882
2.53613
2.52156
2.50744
2.4911
2.47406
2.47181
2.47015
2.46907
2.46857
2.46863
2.46919
2.47039
2.47225
2.47473
2.47783
2.48153
2.48583
2.49069
2.49608
2.50194
2.50826
2.51491
2.52193
2.52916
2.53658
2.54408
2.5516
2.55907
2.56642
2.57358
2.5805
2.58711
2.59337
2.5992
2.60459
2.60947
2.6138
2.61752
2.62058
2.62293
2.62452
2.6253
2.62523
2.6243
2.62233
2.61933
2.61528
2.61009
2.60378
2.59607
2.58719
2.57691
2.56554
2.55223
2.53904
2.5233
2.5025
2.49066
2.46954
2.46764
2.46628
2.46546
2.46518
2.46541
2.46616
2.46752
2.46949
2.47207
2.47527
2.47907
2.48348
2.48847
2.49401
2.50007
2.50659
2.51349
2.52077
2.52832
2.53608
2.54396
2.55189
2.55978
2.56758
2.57521
2.5826
2.58969
2.59642
2.60272
2.60855
2.61386
2.61861
2.62275
2.62621
2.62893
2.63086
2.63193
2.6321
2.63136
2.62952
2.6266
2.62253
2.61726
2.61073
2.60281
2.59347
2.58267
2.57094
2.55662
2.54166
2.5265
2.50662
2.48784
2.46442
2.46295
2.46197
2.46149
2.46149
2.46194
2.46292
2.46444
2.46653
2.4692
2.47248
2.47637
2.48088
2.48598
2.49164
2.49787
2.50459
2.51168
2.51924
2.52711
2.53522
2.5435
2.55184
2.56019
2.56846
2.57659
2.58449
2.5921
2.59935
2.60618
2.61251
2.6183
2.6235
2.62806
2.63195
2.63508
2.6374
2.63881
2.63927
2.63873
2.6371
2.63427
2.63023
2.62492
2.61822
2.61007
2.6004
2.58924
2.57654
2.56274
2.54495
2.52768
2.50806
2.48747
2.45877
2.45779
2.45728
2.45721
2.45753
2.45828
2.45948
2.46117
2.46338
2.46613
2.46948
2.47343
2.478
2.48317
2.48895
2.4953
2.50216
2.50953
2.51728
2.52547
2.53397
2.54263
2.55144
2.56026
2.56904
2.57769
2.58615
2.59432
2.60214
2.60953
2.61642
2.62276
2.62847
2.6335
2.63781
2.64137
2.64411
2.64591
2.64669
2.64642
2.64502
2.64234
2.63836
2.63304
2.62625
2.61789
2.60783
2.59636
2.58256
2.56816
2.55137
2.53131
2.50998
2.48757
2.45263
2.45225
2.45228
2.45265
2.45338
2.45445
2.45589
2.45775
2.46006
2.46289
2.46627
2.47025
2.47483
2.48003
2.48588
2.49235
2.4993
2.50687
2.51491
2.52341
2.53225
2.54135
2.55061
2.55994
2.56927
2.5785
2.58755
2.59633
2.60476
2.61276
2.62026
2.62718
2.63347
2.63905
2.64385
2.64783
2.65096
2.65318
2.65434
2.65436
2.65322
2.65073
2.64687
2.64158
2.63475
2.62621
2.61579
2.60363
2.59081
2.57467
2.55614
2.53566
2.51348
2.48989
2.44614
2.4464
2.44705
2.44797
2.44912
2.45052
2.45221
2.45422
2.45663
2.45949
2.46286
2.46681
2.47137
2.47656
2.48238
2.4889
2.49601
2.5037
2.51202
2.52083
2.53003
2.53957
2.54933
2.55922
2.56913
2.57898
2.58868
2.59811
2.6072
2.61585
2.62399
2.63155
2.63846
2.64463
2.64999
2.65445
2.65798
2.66057
2.66212
2.66249
2.66162
2.65938
2.65568
2.65048
2.64361
2.63477
2.6242
2.6129
2.59823
2.58125
2.56219
2.54097
2.51785
2.49312
2.43946
2.44038
2.44177
2.44328
2.44486
2.44658
2.4485
2.45065
2.45311
2.45596
2.45927
2.46313
2.46759
2.47268
2.47847
2.48498
2.49215
2.50003
2.50858
2.51771
2.52724
2.53724
2.54756
2.55802
2.56858
2.5791
2.5895
2.59963
2.60942
2.61876
2.62758
2.63582
2.64338
2.65018
2.65613
2.66113
2.6651
2.66804
2.66996
2.67068
2.67011
2.66815
2.66468
2.65962
2.65265
2.64359
2.63427
2.62158
2.60643
2.58904
2.56935
2.54734
2.52324
2.49731
2.43192
2.43438
2.43675
2.43876
2.44071
2.44273
2.44485
2.44709
2.44956
2.45232
2.4555
2.45919
2.46346
2.4684
2.47405
2.48051
2.48772
2.49575
2.50449
2.51392
2.5239
2.53437
2.5452
2.5563
2.56756
2.57882
2.58996
2.60085
2.61137
2.62143
2.63097
2.6399
2.64815
2.65561
2.66218
2.66774
2.67221
2.67551
2.67772
2.67881
2.67856
2.67691
2.67375
2.66887
2.662
2.65395
2.64385
2.63101
2.61574
2.59793
2.57751
2.55459
2.52938
2.5023
2.4237
2.42821
2.43185
2.43436
2.43668
2.43899
2.44128
2.44358
2.44597
2.44858
2.45153
2.45496
2.45896
2.46364
2.4691
2.47545
2.48267
2.49078
2.49972
2.50943
2.51983
2.53082
2.54228
2.55405
2.56599
2.57814
2.59009
2.60175
2.61305
2.62386
2.6341
2.64373
2.65267
2.6608
2.668
2.67413
2.67911
2.68285
2.68536
2.6867
2.68678
2.68548
2.68264
2.67798
2.67209
2.6644
2.65407
2.64134
2.62586
2.60752
2.58635
2.56248
2.53622
2.50796
2.41859
2.4222
2.42667
2.43007
2.43286
2.43543
2.43784
2.44012
2.44236
2.44471
2.44734
2.4504
2.45403
2.45835
2.46353
2.46974
2.4769
2.48509
2.49417
2.50423
2.51507
2.52653
2.5388
2.55125
2.56401
2.5769
2.58985
2.60226
2.61447
2.62602
2.63692
2.64721
2.65682
2.66562
2.67344
2.68014
2.68561
2.68978
2.69262
2.69422
2.69465
2.69369
2.69114
2.68689
2.68245
2.67494
2.665
2.6522
2.63642
2.61758
2.59569
2.57093
2.54361
2.51423
2.41353
2.41835
2.42133
2.42595
2.42928
2.43206
2.43451
2.43666
2.43865
2.44065
2.44286
2.44546
2.44862
2.45245
2.45724
2.46338
2.4705
2.47872
2.48789
2.49809
2.50947
2.52143
2.53408
2.54732
2.56096
2.57489
2.58873
2.60203
2.61551
2.62793
2.63945
2.65032
2.66054
2.66995
2.67836
2.68559
2.69153
2.69612
2.69934
2.70124
2.70197
2.70136
2.69942
2.69606
2.69244
2.6857
2.67596
2.66317
2.64719
2.62793
2.60541
2.5798
2.55146
2.521
2.40865
2.41404
2.41755
2.42229
2.42593
2.42887
2.43127
2.4332
2.43481
2.43634
2.43801
2.44007
2.44274
2.44596
2.45047
2.45588
2.4629
2.47107
2.48008
2.4902
2.50272
2.51539
2.52897
2.54319
2.55785
2.57351
2.58727
2.60248
2.61673
2.62975
2.64181
2.65311
2.6638
2.67372
2.68261
2.69031
2.69668
2.70168
2.70527
2.70748
2.70857
2.70815
2.70776
2.70535
2.70208
2.69598
2.68667
2.67408
2.65806
2.63852
2.61545
2.58904
2.55974
2.52825
2.40486
2.41003
2.41489
2.41927
2.42293
2.42584
2.42802
2.42958
2.43071
2.43169
2.43267
2.43401
2.4361
2.43827
2.44215
2.44844
2.45516
2.46322
2.47241
2.483
2.49329
2.5061
2.52023
2.53553
2.55139
2.5678
2.58451
2.60184
2.61724
2.63129
2.6437
2.65542
2.66651
2.6768
2.68607
2.69414
2.70089
2.70631
2.71032
2.7128
2.7144
2.7129
2.71382
2.7139
2.71134
2.70578
2.69698
2.68474
2.66887
2.64919
2.62568
2.59854
2.5683
2.53584
2.40155
2.4075
2.41264
2.41691
2.42028
2.42288
2.42466
2.42557
2.42593
2.4263
2.42679
2.42844
2.43014
2.43212
2.43506
2.43717
2.44211
2.44918
2.45807
2.46877
2.4809
2.49489
2.51012
2.52639
2.54397
2.56193
2.58084
2.59945
2.61717
2.63182
2.64525
2.65724
2.66849
2.67901
2.68855
2.6969
2.70398
2.70978
2.71431
2.71733
2.71849
2.72168
2.72284
2.72224
2.71996
2.71492
2.70667
2.69491
2.67932
2.65965
2.63585
2.60812
2.57711
2.54391
2.40092
2.40617
2.41059
2.41422
2.41714
2.41948
2.42137
2.42311
2.42373
2.42336
2.42198
2.41909
2.41783
2.41772
2.41878
2.42126
2.42616
2.43324
2.44263
2.45403
2.46734
2.48243
2.49901
2.51672
2.53557
2.55512
2.57552
2.59609
2.61573
2.63136
2.6456
2.65792
2.66937
2.68004
2.68971
2.69825
2.70565
2.7118
2.71653
2.71979
2.72389
2.72719
2.72905
2.72929
2.72756
2.72315
2.71555
2.70435
2.68916
2.66967
2.64576
2.61766
2.58615
2.55253
2.40058
2.40577
2.41038
2.41412
2.41684
2.41929
2.41925
2.41714
2.4145
2.41157
2.40858
2.40534
2.40353
2.40291
2.40322
2.40525
2.40985
2.41714
2.42711
2.43932
2.45377
2.47019
2.48824
2.50709
2.52705
2.54777
2.56944
2.59168
2.61297
2.62998
2.64444
2.65704
2.66871
2.6795
2.68925
2.69798
2.70558
2.71189
2.71713
2.72242
2.72752
2.73163
2.73424
2.73505
2.73392
2.73022
2.72334
2.71279
2.69814
2.67901
2.65523
2.62702
2.5951
2.56115
2.40308
2.40686
2.40904
2.4101
2.41055
2.41016
2.40896
2.40663
2.4034
2.39923
2.39439
2.38931
2.38694
2.38547
2.38542
2.38737
2.39191
2.3995
2.40975
2.42259
2.43813
2.45715
2.47719
2.49712
2.51779
2.54019
2.56295
2.58625
2.60896
2.62692
2.64143
2.65448
2.66639
2.67732
2.68722
2.69605
2.70358
2.71002
2.71684
2.72385
2.72989
2.73479
2.7381
2.73942
2.73888
2.73592
2.72979
2.71998
2.70597
2.68736
2.66393
2.63586
2.60382
2.56925
2.39273
2.39612
2.39915
2.40125
2.40183
2.40117
2.39911
2.39629
2.39316
2.38924
2.3849
2.38085
2.37681
2.3747
2.37449
2.37656
2.38147
2.38939
2.40007
2.41355
2.42908
2.4456
2.46441
2.48609
2.5093
2.53271
2.55621
2.58032
2.60585
2.62242
2.63713
2.65042
2.66255
2.67364
2.68356
2.69196
2.69912
2.7076
2.71603
2.72418
2.73089
2.73649
2.74048
2.74231
2.74229
2.74001
2.73465
2.72562
2.71239
2.6945
2.67168
2.64404
2.61233
2.57824
2.38526
2.38809
2.39046
2.3921
2.39262
2.39245
2.39092
2.38853
2.38504
2.38137
2.37696
2.3723
2.36799
2.36518
2.36397
2.3654
2.37019
2.3786
2.39022
2.40462
2.42084
2.43831
2.45757
2.47788
2.50215
2.52701
2.55252
2.57916
2.59654
2.6158
2.63153
2.64532
2.65782
2.66892
2.67744
2.68444
2.6943
2.70443
2.71473
2.72321
2.73054
2.73669
2.74132
2.74375
2.7441
2.74229
2.73771
2.72953
2.71722
2.7003
2.67842
2.65167
2.62075
2.58729
2.37763
2.38033
2.38263
2.3848
2.38554
2.38535
2.38439
2.38238
2.37934
2.3752
2.37025
2.365
2.36012
2.35648
2.3553
2.35688
2.36233
2.3714
2.38318
2.39801
2.41485
2.43249
2.45164
2.47496
2.49863
2.523
2.54926
2.57023
2.59204
2.61037
2.62621
2.64041
2.65252
2.66101
2.66622
2.67727
2.68925
2.70176
2.71224
2.72103
2.72888
2.73548
2.74062
2.74362
2.74439
2.7429
2.73886
2.73144
2.72004
2.7042
2.68359
2.6581
2.62823
2.59524
2.37135
2.37454
2.37691
2.37872
2.38
2.38053
2.37994
2.37798
2.37474
2.3704
2.36522
2.35962
2.35469
2.35119
2.34997
2.35251
2.35883
2.36868
2.38055
2.3959
2.41412
2.43378
2.45305
2.47485
2.50121
2.52558
2.54326
2.56928
2.58822
2.60564
2.62171
2.63619
2.64577
2.65123
2.65405
2.67042
2.68596
2.6983
2.70859
2.71773
2.72592
2.73292
2.73846
2.74195
2.74313
2.74193
2.7381
2.73133
2.72075
2.70596
2.68668
2.6628
2.6345
2.60257
2.36708
2.36987
2.37246
2.37449
2.37621
2.37682
2.37639
2.37473
2.3719
2.36801
2.36325
2.35779
2.3542
2.35143
2.35095
2.35419
2.36125
2.37174
2.38536
2.40122
2.41682
2.43537
2.45547
2.47806
2.50107
2.52102
2.54481
2.56702
2.58561
2.60239
2.6174
2.62648
2.62731
2.63434
2.65153
2.66841
2.68262
2.69403
2.7042
2.71354
2.7219
2.72914
2.73496
2.73883
2.74034
2.73954
2.73579
2.72929
2.71945
2.70551
2.68751
2.66518
2.63877
2.60882
2.36346
2.36668
2.36909
2.37145
2.37308
2.37409
2.37412
2.37306
2.37093
2.36793
2.36431
2.36047
2.35701
2.35551
2.35671
2.36052
2.36791
2.37845
2.39163
2.4072
2.42468
2.44429
2.46304
2.48224
2.49997
2.52672
2.54768
2.56581
2.58488
2.59929
2.61059
2.62508
2.61656
2.63519
2.65012
2.66609
2.6785
2.68923
2.69927
2.70861
2.71704
2.72437
2.73034
2.73442
2.73613
2.7357
2.7323
2.72581
2.7162
2.70306
2.68614
2.66505
2.64035
2.61246
2.36087
2.36402
2.36677
2.36878
2.37107
2.37256
2.37319
2.37295
2.37188
2.37016
2.36809
2.36606
2.36446
2.36436
2.36584
2.37135
2.37946
2.39088
2.40423
2.42014
2.43676
2.45315
2.46878
2.49073
2.5115
2.53177
2.55167
2.56896
2.58479
2.58771
2.60789
2.61495
2.62343
2.63021
2.64921
2.66267
2.67385
2.68418
2.69399
2.70317
2.7115
2.71878
2.7248
2.72894
2.73074
2.73048
2.72742
2.72122
2.71165
2.69884
2.6826
2.6626
2.63924
2.613
2.35895
2.36183
2.3648
2.36744
2.36997
2.37201
2.37343
2.37415
2.37431
2.37407
2.37369
2.37351
2.37388
2.3754
2.37835
2.38362
2.39246
2.40364
2.41575
2.42966
2.44538
2.46355
2.48281
2.50047
2.51979
2.53827
2.55499
2.5684
2.58436
2.58668
2.59915
2.61352
2.61984
2.63583
2.6482
2.6592
2.66936
2.67918
2.68862
2.69743
2.70548
2.71257
2.71843
2.72254
2.7243
2.72408
2.72118
2.71528
2.70603
2.69335
2.67744
2.65827
2.63591
2.6108
2.35735
2.36049
2.36363
2.36669
2.36966
2.3723
2.37453
2.37632
2.37776
2.37902
2.38032
2.38193
2.38416
2.38746
2.3924
2.39879
2.40869
2.42034
2.43303
2.44688
2.46149
2.47839
2.49495
2.51051
2.52697
2.54307
2.55792
2.575
2.58166
2.59025
2.60234
2.61321
2.62301
2.63643
2.64634
2.656
2.66533
2.67449
2.68329
2.69157
2.69917
2.70589
2.71145
2.71527
2.7169
2.71659
2.71371
2.70795
2.69902
2.68671
2.67104
2.65232
2.63077
2.60666
2.35649
2.35958
2.36308
2.36648
2.36992
2.37321
2.37629
2.37913
2.38182
2.3845
2.38737
2.39063
2.39453
2.39938
2.40582
2.41361
2.42371
2.43545
2.44824
2.46231
2.47695
2.49188
2.50695
2.52192
2.53666
2.55124
2.56129
2.57698
2.58401
2.59248
2.60898
2.61839
2.62631
2.63627
2.64506
2.65362
2.662
2.67027
2.67824
2.68579
2.69273
2.69886
2.70391
2.70723
2.70857
2.70802
2.70499
2.69923
2.69047
2.67854
2.66337
2.64509
2.62407
2.60074
2.35576
2.35924
2.36294
2.36668
2.37063
2.37452
2.37844
2.38228
2.38615
2.39017
2.39449
2.39928
2.40477
2.41123
2.41896
2.42801
2.43858
2.45044
2.46332
2.47694
2.49074
2.50491
2.51991
2.5344
2.55006
2.56778
2.56788
2.58268
2.59245
2.6015
2.61518
2.62266
2.63043
2.63772
2.64516
2.65241
2.65965
2.66679
2.6737
2.68027
2.68633
2.69165
2.6959
2.6985
2.69936
2.69837
2.69506
2.68919
2.68051
2.66888
2.65425
2.63663
2.61624
2.59352
2.35551
2.35913
2.36297
2.36714
2.37153
2.37608
2.38077
2.38554
2.39049
2.39571
2.40135
2.40754
2.41446
2.4223
2.43123
2.44131
2.45249
2.4645
2.47713
2.49031
2.5038
2.51863
2.53646
2.55122
2.56381
2.57417
2.58346
2.59503
2.60516
2.61186
2.62252
2.62885
2.635
2.64088
2.64674
2.65266
2.65852
2.66427
2.66987
2.67519
2.68007
2.68428
2.68746
2.68909
2.6893
2.68765
2.68392
2.67782
2.66915
2.6578
2.64368
2.62679
2.60723
2.58525
2.35567
2.3588
2.3632
2.36765
2.37255
2.3777
2.38309
2.3887
2.3946
2.4009
2.40769
2.41511
2.42327
2.43226
2.44215
2.45295
2.46457
2.4767
2.4896
2.5043
2.52055
2.53723
2.55156
2.56759
2.57841
2.59112
2.59947
2.61071
2.6193
2.62568
2.63231
2.63728
2.64184
2.64604
2.65024
2.65443
2.65874
2.6629
2.66693
2.67072
2.6741
2.67688
2.67862
2.67916
2.67836
2.67587
2.67153
2.66511
2.65644
2.64539
2.63189
2.61583
2.59719
2.57606
2.35627
2.35809
2.36348
2.36806
2.37351
2.37925
2.38528
2.39163
2.39837
2.40562
2.41344
2.4219
2.43106
2.44095
2.45161
2.46317
2.47604
2.49022
2.50565
2.52152
2.53793
2.5541
2.56895
2.5826
2.59785
2.60824
2.61959
2.62781
2.63504
2.64021
2.64465
2.6481
2.65102
2.65352
2.65585
2.65814
2.66048
2.66286
2.66499
2.66694
2.66854
2.66945
2.66958
2.66868
2.66658
2.66304
2.65791
2.65109
2.64241
2.63178
2.61906
2.60406
2.58652
2.56633
2.35653
2.35956
2.36456
2.36804
2.37442
2.38064
2.38733
2.39435
2.40184
2.40991
2.41861
2.42796
2.43804
2.44892
2.46083
2.47379
2.48792
2.50377
2.52112
2.53958
2.55759
2.57225
2.5889
2.60426
2.61645
2.62909
2.6381
2.64588
2.65181
2.65606
2.65907
2.66109
2.66237
2.66317
2.66362
2.66386
2.66405
2.66422
2.66428
2.66404
2.66347
2.6623
2.66043
2.65771
2.654
2.64918
2.64315
2.63587
2.62727
2.61724
2.60564
2.5921
2.57604
2.5569
2.35886
2.35896
2.36372
2.36869
2.37551
2.38192
2.38912
2.39672
2.40484
2.4136
2.42314
2.43344
2.44461
2.457
2.47075
2.48598
2.50258
2.51999
2.53806
2.55815
2.57591
2.59307
2.60916
2.62466
2.63717
2.64888
2.65769
2.66478
2.67001
2.67329
2.67519
2.67592
2.67574
2.67485
2.6734
2.67159
2.6695
2.66725
2.66487
2.66214
2.65901
2.65539
2.65119
2.64633
2.64077
2.63448
2.62752
2.61981
2.6115
2.60235
2.59238
2.58093
2.56698
2.54919
2.3555
2.36049
2.3615
2.36857
2.37582
2.38323
2.39045
2.39845
2.40737
2.41697
2.42754
2.43923
2.45205
2.46622
2.4818
2.49884
2.5175
2.53635
2.55567
2.57491
2.594
2.61222
2.62876
2.64406
2.6572
2.66856
2.67748
2.68429
2.68909
2.69174
2.69277
2.69247
2.69093
2.68842
2.68511
2.6812
2.67682
2.672
2.66686
2.66142
2.65547
2.64907
2.64223
2.63493
2.62732
2.61945
2.61143
2.60351
2.59573
2.58815
2.58027
2.57183
2.56109
2.54523
2.35204
2.35666
2.36121
2.36758
2.37562
2.38464
2.38985
2.39967
2.40986
2.42059
2.4324
2.4455
2.45993
2.47568
2.49272
2.51094
2.53134
2.55102
2.57141
2.59144
2.61097
2.62983
2.64698
2.66262
2.67631
2.68789
2.69714
2.70417
2.70873
2.71098
2.71148
2.71031
2.70763
2.70365
2.69857
2.69258
2.68582
2.67839
2.67041
2.66194
2.65297
2.64353
2.63378
2.62385
2.61396
2.60449
2.59571
2.58793
2.58128
2.57571
2.57082
2.56631
2.56046
2.54802
2.34882
2.35362
2.35913
2.36595
2.37379
2.38231
2.39113
2.39985
2.41119
2.42353
2.43674
2.45122
2.4671
2.48427
2.5025
2.52177
2.54352
2.56403
2.58543
2.60626
2.62656
2.64587
2.66382
2.68014
2.69447
2.7066
2.71643
2.72382
2.7285
2.7306
2.73083
2.72908
2.72547
2.72022
2.71351
2.70552
2.69641
2.6863
2.67534
2.66369
2.65149
2.63889
2.626
2.61332
2.60126
2.59029
2.58098
2.57377
2.56883
2.56635
2.56573
2.56667
2.56729
2.5607
2.34557
2.3505
2.35638
2.36333
2.3712
2.37988
2.38963
2.40002
2.4118
2.4254
2.43993
2.45574
2.47291
2.49126
2.51101
2.53167
2.55336
2.57528
2.59741
2.61921
2.64033
2.66047
2.67928
2.69638
2.71155
2.72446
2.73498
2.74291
2.74798
2.75025
2.7504
2.74836
2.74406
2.73775
2.72957
2.71974
2.70836
2.69565
2.68174
2.66684
2.65132
2.63521
2.6192
2.60373
2.58951
2.57731
2.56763
2.56164
2.55952
2.56114
2.5654
2.56966
2.57319
2.57927
2.34197
2.3469
2.35287
2.35991
2.36798
2.37711
2.3874
2.3989
2.41188
2.42629
2.44185
2.45884
2.47724
2.49681
2.51759
2.53935
2.56186
2.58475
2.60774
2.63042
2.65246
2.67354
2.69324
2.71135
2.72736
2.74118
2.75253
2.76119
2.76686
2.76952
2.76984
2.76763
2.76292
2.75573
2.74643
2.73489
2.72141
2.70617
2.68937
2.67128
2.65224
2.63281
2.61348
2.59516
2.57874
2.56503
2.55529
2.55084
2.55126
2.55663
2.56504
2.57179
2.57194
2.56661
2.33786
2.3427
2.34864
2.35572
2.36402
2.3736
2.38454
2.39688
2.41068
2.42596
2.44258
2.46062
2.47999
2.5007
2.52258
2.54528
2.56871
2.59251
2.6164
2.64002
2.66303
2.68505
2.70575
2.72479
2.74182
2.7566
2.76889
2.7784
2.78485
2.78806
2.78868
2.78659
2.78163
2.77395
2.76351
2.75054
2.73518
2.71764
2.6981
2.67691
2.65451
2.63158
2.60888
2.58751
2.56854
2.55309
2.54308
2.53935
2.54155
2.54891
2.55748
2.56331
2.56098
2.53688
2.56166
2.5614
2.56097
2.56034
2.5594
2.55818
2.55669
2.55494
2.55294
2.55071
2.54828
2.5457
2.54305
2.5404
2.53781
2.53537
2.53316
2.53129
2.52979
2.52875
2.55329
2.55219
2.55097
2.54965
2.54812
2.54636
2.5444
2.54229
2.54003
2.53768
2.53526
2.53283
2.53046
2.52821
2.52617
2.52442
2.52301
2.52206
2.52159
2.5217
2.54509
2.54308
2.54101
2.53888
2.53669
2.53436
2.53188
2.52931
2.52674
2.52421
2.52174
2.51944
2.51733
2.51549
2.51401
2.51295
2.51239
2.5124
2.51298
2.51431
2.53708
2.53411
2.5311
2.52809
2.52509
2.52212
2.51905
2.51601
2.51304
2.51022
2.50771
2.50547
2.50357
2.50216
2.50124
2.5009
2.50117
2.50217
2.50401
2.5066
2.52929
2.52528
2.52126
2.51727
2.51335
2.50957
2.50587
2.5023
2.49886
2.4957
2.49304
2.49081
2.48914
2.48811
2.48775
2.48809
2.48925
2.49143
2.4945
2.49846
2.52175
2.51661
2.51148
2.50642
2.50147
2.49674
2.49225
2.48803
2.48408
2.48057
2.47763
2.4754
2.47387
2.47322
2.47338
2.47438
2.47663
2.47998
2.48437
2.48972
2.51446
2.50811
2.50177
2.49552
2.48937
2.48359
2.4781
2.4731
2.46864
2.4646
2.46144
2.45901
2.45765
2.45731
2.45787
2.45972
2.46309
2.46768
2.4734
2.48023
2.50744
2.49978
2.4921
2.4845
2.47708
2.47003
2.46346
2.45751
2.45227
2.44776
2.44411
2.44153
2.44016
2.4401
2.44115
2.44384
2.44843
2.45416
2.46146
2.46981
2.50074
2.49166
2.48251
2.47343
2.46454
2.45608
2.44829
2.44124
2.43498
2.42978
2.42562
2.42264
2.42115
2.42141
2.42291
2.42639
2.43221
2.43961
2.44822
2.45866
2.49442
2.48383
2.47314
2.4624
2.45181
2.4418
2.4328
2.42435
2.41668
2.41061
2.40574
2.40205
2.40039
2.40112
2.40297
2.40744
2.41434
2.42328
2.43393
2.44593
2.48849
2.47661
2.46403
2.45165
2.43931
2.42737
2.41793
2.40752
2.3979
2.39071
2.38446
2.37963
2.37753
2.37782
2.38194
2.38689
2.39523
2.40563
2.41774
2.43232
2.48323
2.47006
2.45589
2.44146
2.42816
2.41475
2.40265
2.39082
2.37989
2.37102
2.36464
2.35543
2.35384
2.35249
2.35788
2.36233
2.37387
2.38582
2.39982
2.41721
2.47914
2.46401
2.44785
2.4323
2.41588
2.39969
2.38503
2.37194
2.3605
2.35023
2.34101
2.33274
2.32392
2.32282
2.33463
2.33592
2.35664
2.35762
2.38082
2.40268
2.47535
2.46053
2.43688
2.41956
2.40437
2.38807
2.37097
2.35457
2.3396
2.32628
2.3157
2.30253
2.29902
2.29679
2.29884
2.31612
2.32861
2.32892
2.34641
2.38074
2.46855
2.44904
2.43134
2.41229
2.3931
2.37354
2.35427
2.33586
2.31928
2.30414
2.29187
2.27916
2.27161
2.27227
2.27776
2.29131
2.2859
2.28657
2.30663
2.3764
2.47004
2.44786
2.426
2.4042
2.38258
2.36131
2.34066
2.32113
2.30285
2.28672
2.27183
2.25906
2.25004
2.24685
2.2484
2.25471
2.26233
2.28132
2.31174
2.36461
2.46666
2.44441
2.42131
2.39788
2.37462
2.35185
2.32989
2.30896
2.28963
2.27123
2.25443
2.23993
2.22911
2.22348
2.21997
2.22829
2.24092
2.26177
2.28363
2.32878
2.46477
2.44089
2.41663
2.39226
2.36809
2.34409
2.32101
2.29944
2.27822
2.25848
2.24014
2.22399
2.21107
2.20283
2.19976
2.20317
2.21718
2.23815
2.26564
2.30087
2.46394
2.43931
2.41402
2.3886
2.36322
2.33834
2.31434
2.29139
2.26944
2.24859
2.22894
2.21115
2.19611
2.18572
2.18159
2.18446
2.19545
2.21825
2.24518
2.27972
2.46503
2.43914
2.41272
2.38606
2.35968
2.33393
2.30906
2.28533
2.26275
2.24122
2.22063
2.20171
2.18447
2.17209
2.16591
2.16786
2.17835
2.1986
2.22727
2.26216
2.46701
2.43997
2.4124
2.38472
2.35734
2.33073
2.30518
2.28093
2.25794
2.23598
2.21489
2.19499
2.17611
2.16134
2.1534
2.15444
2.16461
2.18453
2.21229
2.24959
2.46999
2.44173
2.41304
2.38437
2.35618
2.32877
2.30261
2.27797
2.25478
2.23257
2.21125
2.19164
2.17194
2.15321
2.14411
2.14442
2.15453
2.17483
2.20272
2.23971
2.47377
2.44435
2.41458
2.38497
2.35598
2.32798
2.30132
2.27633
2.25308
2.23109
2.21008
2.19118
2.16951
2.14937
2.13863
2.1382
2.14888
2.1697
2.19786
2.23452
2.47828
2.44775
2.41699
2.38653
2.3568
2.32829
2.3014
2.27581
2.25169
2.22963
2.20986
2.19267
2.16963
2.14826
2.13663
2.13622
2.1479
2.16927
2.19794
2.23416
2.48341
2.45188
2.42028
2.38915
2.35895
2.33006
2.30075
2.27421
2.24999
2.22815
2.20876
2.19223
2.17103
2.14931
2.13736
2.13824
2.15149
2.17315
2.20214
2.23794
2.48913
2.45669
2.42444
2.39303
2.36211
2.33055
2.30118
2.27358
2.24894
2.2273
2.2087
2.19225
2.1737
2.15345
2.14293
2.14553
2.15953
2.18161
2.21072
2.24627
2.49542
2.46218
2.42963
2.39831
2.36559
2.33375
2.3031
2.27433
2.24864
2.22718
2.20953
2.19429
2.17783
2.16128
2.15377
2.15788
2.17166
2.19377
2.2228
2.25763
2.50228
2.46879
2.43609
2.40363
2.3714
2.33864
2.30642
2.27654
2.25042
2.22915
2.21214
2.19896
2.18548
2.17264
2.16802
2.17325
2.18719
2.2093
2.23796
2.27137
2.50997
2.47691
2.44427
2.41193
2.37879
2.34492
2.3114
2.28116
2.25488
2.23442
2.21928
2.20719
2.19659
2.18782
2.18552
2.19063
2.20537
2.2271
2.25496
2.28596
2.51874
2.48715
2.45401
2.42148
2.38728
2.35337
2.32104
2.28861
2.26365
2.24422
2.22986
2.21887
2.21171
2.20423
2.20492
2.21023
2.2246
2.24509
2.2714
2.30202
2.52776
2.49745
2.46126
2.43054
2.39706
2.36301
2.32949
2.30076
2.27639
2.25722
2.24281
2.23324
2.22867
2.22357
2.22434
2.23193
2.24585
2.26541
2.28931
2.31723
2.53586
2.5057
2.47072
2.44046
2.40793
2.37378
2.34328
2.3166
2.29045
2.27152
2.25765
2.2486
2.24416
2.2428
2.24634
2.25257
2.26593
2.28504
2.30695
2.33078
2.54516
2.51482
2.47825
2.45016
2.41928
2.38647
2.3568
2.33026
2.30707
2.28786
2.27392
2.2652
2.26149
2.26174
2.26526
2.27337
2.28535
2.30246
2.3229
2.34531
2.55402
2.52396
2.48767
2.45815
2.43015
2.39951
2.36767
2.3422
2.32824
2.30591
2.29097
2.28229
2.27891
2.27947
2.28341
2.29213
2.30363
2.319
2.33879
2.3588
2.56108
2.52772
2.49704
2.47314
2.43715
2.40835
2.38345
2.35977
2.33916
2.32168
2.3085
2.29983
2.29604
2.29648
2.30092
2.3088
2.31955
2.33488
2.3529
2.37189
2.56852
2.53481
2.50201
2.48053
2.44961
2.41523
2.39578
2.36995
2.35235
2.33471
2.32468
2.31625
2.31187
2.31224
2.31691
2.32347
2.33478
2.34945
2.36607
2.3836
2.57628
2.54249
2.50999
2.48135
2.44712
2.42837
2.40947
2.37719
2.36825
2.34811
2.33795
2.32901
2.32555
2.32637
2.33058
2.33739
2.34845
2.36229
2.37779
2.39494
2.58201
2.55012
2.51792
2.4868
2.45619
2.4304
2.40832
2.38676
2.37701
2.36192
2.35083
2.34187
2.33775
2.33959
2.34324
2.35039
2.36118
2.3745
2.38909
2.40507
2.58418
2.55414
2.52369
2.49374
2.46484
2.43883
2.41427
2.39298
2.37663
2.36447
2.35704
2.35127
2.3474
2.35021
2.35543
2.35911
2.37183
2.3847
2.39744
2.41237
2.58346
2.55477
2.52576
2.49688
2.46951
2.44448
2.422
2.40269
2.38686
2.37374
2.36331
2.35711
2.35479
2.35543
2.36055
2.36885
2.381
2.38973
2.40426
2.4207
2.58049
2.55302