/*--------------------------------*- C++ -*----------------------------------*\
  =========                 |
  \\      /  F ield         | OpenFOAM: The Open Source CFD Toolbox
   \\    /   O peration     | Website:  https://openfoam.org
    \\  /    A nd           | Version:  10
     \\/     M anipulation  |
\*---------------------------------------------------------------------------*/
FoamFile
{
    format      ascii;
    class       surfaceScalarField;
    location    "0.698552";
    object      phi;
}
// * * * * * * * * * * * * * * * * * * * * * * * * * * * * * * * * * * * * * //

dimensions      [1 0 -1 0 0 0 0];

internalField   nonuniform List<scalar> 
31672
(
0.000409474
-6.62973e-05
0.000406368
-6.70444e-05
0.000403024
-6.77437e-05
0.000399445
-6.84065e-05
0.000395628
-6.90286e-05
0.000391593
-6.96034e-05
0.000387377
-7.00908e-05
0.000382981
-7.05271e-05
0.000378445
-7.0882e-05
0.000373797
-7.11826e-05
0.000369045
-7.13834e-05
0.000364232
-7.15317e-05
0.000359377
-7.16054e-05
0.000354519
-7.16159e-05
0.000349689
-7.15706e-05
0.000344907
-7.14768e-05
0.000340198
-7.13447e-05
0.000335595
-7.11828e-05
0.000331115
-7.10044e-05
0.000326784
-7.08187e-05
0.000322628
-7.06387e-05
0.000318663
-7.04754e-05
0.000314907
-7.03368e-05
0.000311375
-7.02336e-05
0.000308084
-7.0173e-05
0.000305055
-7.01625e-05
0.000302299
-7.02069e-05
0.000299834
-7.03099e-05
0.000297668
-7.04722e-05
0.000295814
-7.06922e-05
0.000294284
-7.09665e-05
0.000293086
-7.12886e-05
0.000292232
-7.16485e-05
0.000291729
-7.20346e-05
0.000291585
-7.24314e-05
0.000291818
-7.28184e-05
0.000292427
-7.31797e-05
0.000293418
-7.34819e-05
0.000294808
-7.37e-05
0.000296599
-7.38005e-05
0.000298796
-7.37485e-05
0.000301403
-7.35033e-05
0.000304411
-7.30068e-05
0.000307824
-7.22186e-05
0.000311646
-7.10981e-05
0.000315861
-6.95846e-05
0.000320477
-6.76335e-05
0.000325455
-6.51802e-05
0.000330832
-6.21849e-05
0.000336522
-5.85777e-05
0.000342572
-5.43317e-05
0.000348892
-4.93677e-05
0.000355483
-4.36861e-05
-3.72026e-05
0.000362284
0.000408712
-6.19218e-05
0.000405646
-6.24388e-05
0.000402366
-6.29157e-05
0.00039884
-6.33731e-05
0.000395076
-6.38044e-05
0.000391114
-6.42085e-05
0.000386938
-6.45603e-05
0.000382626
-6.48515e-05
0.000378159
-6.50959e-05
0.000373551
-6.52958e-05
0.000368863
-6.54419e-05
0.000364118
-6.55451e-05
0.00035934
-6.55959e-05
0.000354562
-6.56058e-05
0.000349799
-6.55775e-05
0.000345077
-6.5522e-05
0.00034042
-6.54468e-05
0.000335854
-6.53623e-05
0.000331402
-6.52794e-05
0.000327087
-6.52086e-05
0.000322932
-6.51605e-05
0.000318956
-6.5146e-05
0.000315175
-6.51729e-05
0.000311613
-6.52523e-05
0.000308286
-6.53904e-05
0.000305211
-6.55945e-05
0.000302407
-6.58699e-05
0.000299887
-6.62198e-05
0.000297668
-6.66456e-05
0.000295762
-6.71463e-05
0.000294184
-6.77178e-05
0.000292944
-6.83558e-05
0.000292056
-6.90487e-05
0.000291534
-6.97879e-05
0.000291388
-7.05557e-05
0.000291639
-7.13338e-05
0.000292289
-7.21051e-05
0.000293349
-7.28362e-05
0.000294839
-7.35035e-05
0.000296761
-7.40703e-05
0.000299129
-7.45128e-05
0.000301936
-7.47663e-05
0.000305188
-7.47758e-05
0.000308891
-7.45248e-05
0.000313053
-7.39396e-05
0.000317653
-7.29809e-05
0.000322705
-7.1573e-05
0.000328167
-6.96926e-05
0.000334058
-6.7221e-05
0.000340318
-6.41626e-05
0.000346979
-6.04049e-05
0.000353911
-5.5947e-05
0.000361197
-5.06747e-05
-4.46013e-05
0.000368658
0.000408264
-5.74044e-05
0.0004052
-5.77019e-05
0.000401906
-5.79706e-05
0.000398406
-5.82277e-05
0.000394687
-5.84774e-05
0.000390754
-5.87247e-05
0.000386626
-5.89472e-05
0.000382325
-5.91211e-05
0.000377888
-5.9289e-05
0.000373348
-5.94158e-05
0.000368724
-5.95124e-05
0.00036405
-5.95794e-05
0.000359335
-5.96161e-05
0.00035461
-5.96278e-05
0.000349894
-5.96249e-05
0.000345211
-5.96072e-05
0.000340583
-5.95932e-05
0.000336032
-5.95833e-05
0.000331585
-5.95925e-05
0.000327267
-5.96294e-05
0.000323098
-5.97058e-05
0.000319097
-5.98299e-05
0.000315286
-6.00134e-05
0.000311683
-6.02631e-05
0.000308303
-6.05883e-05
0.000305169
-6.09951e-05
0.000302299
-6.14901e-05
0.000299711
-6.20765e-05
0.000297421
-6.27562e-05
0.000295444
-6.35299e-05
0.000293797
-6.43932e-05
0.000292498
-6.53433e-05
0.000291562
-6.63697e-05
0.000291005
-6.74641e-05
0.000290841
-6.8609e-05
0.000291091
-6.97874e-05
0.000291763
-7.09804e-05
0.000292877
-7.21574e-05
0.000294446
-7.32946e-05
0.000296491
-7.4366e-05
0.000299012
-7.53097e-05
0.000302002
-7.60837e-05
0.000305486
-7.66521e-05
0.000309473
-7.69695e-05
0.000313953
-7.69728e-05
0.000318935
-7.65986e-05
0.000324401
-7.58057e-05
0.000330366
-7.45011e-05
0.000336758
-7.2652e-05
0.000343631
-7.01604e-05
0.000350881
-6.69904e-05
0.000358559
-6.30493e-05
0.000366485
-5.82878e-05
-5.26457e-05
0.000374735
0.000408028
-5.27313e-05
0.000404987
-5.28214e-05
0.000401656
-5.28769e-05
0.000398105
-5.29492e-05
0.000394365
-5.30418e-05
0.000390425
-5.31471e-05
0.000386333
-5.32487e-05
0.000382092
-5.33409e-05
0.000377714
-5.34238e-05
0.000373228
-5.34939e-05
0.000368652
-5.35521e-05
0.000364008
-5.35993e-05
0.000359323
-5.36331e-05
0.000354625
-5.36601e-05
0.000349933
-5.36855e-05
0.00034527
-5.37153e-05
0.000340658
-5.37586e-05
0.000336111
-5.38236e-05
0.000331663
-5.3921e-05
0.000327331
-5.40609e-05
0.000323136
-5.42532e-05
0.000319101
-5.45079e-05
0.000315242
-5.48365e-05
0.000311578
-5.52454e-05
0.000308134
-5.5745e-05
0.000304926
-5.63431e-05
0.000301977
-5.70455e-05
0.000299303
-5.78574e-05
0.000296925
-5.87819e-05
0.000294861
-5.98202e-05
0.000293131
-6.09702e-05
0.000291754
-6.22293e-05
0.000290748
-6.35891e-05
0.000290134
-6.50403e-05
0.000289929
-6.6569e-05
0.000290156
-6.81566e-05
0.000290831
-6.9785e-05
0.000291973
-7.14255e-05
0.000293604
-7.30554e-05
0.000295736
-7.4645e-05
0.000298376
-7.61167e-05
0.000301544
-7.74617e-05
0.000305239
-7.86107e-05
0.000309504
-7.95515e-05
0.000314286
-8.0166e-05
0.000319637
-8.04455e-05
0.00032554
-8.02947e-05
0.000331967
-7.96529e-05
0.000338916
-7.84584e-05
0.000346375
-7.66236e-05
0.000354311
-7.40825e-05
0.000362664
-7.07435e-05
0.000371421
-6.65519e-05
-6.14141e-05
0.000380496
0.000408017
-4.78648e-05
0.000404892
-4.77306e-05
0.000401542
-4.75982e-05
0.00039797
-4.75101e-05
0.000394222
-4.74562e-05
0.000390281
-4.74378e-05
0.000386182
-4.7446e-05
0.000381936
-4.7458e-05
0.000377564
-4.74855e-05
0.000373086
-4.7514e-05
0.000368532
-4.7551e-05
0.000363918
-4.75906e-05
0.000359263
-4.76333e-05
0.000354591
-4.76836e-05
0.000349918
-4.77444e-05
0.000345267
-4.78234e-05
0.000340654
-4.79266e-05
0.000336105
-4.80644e-05
0.00033164
-4.82468e-05
0.000327283
-4.84828e-05
0.000323051
-4.87838e-05
0.000318968
-4.91598e-05
0.000315052
-4.96215e-05
0.000311317
-5.01788e-05
0.00030779
-5.08405e-05
0.000304493
-5.16171e-05
0.000301443
-5.25147e-05
0.000298667
-5.35406e-05
0.000296183
-5.46997e-05
0.000294011
-5.59943e-05
0.000292178
-5.74246e-05
0.000290702
-5.89886e-05
0.000289604
-6.0681e-05
0.000288909
-6.24915e-05
0.00028864
-6.44101e-05
0.000288819
-6.64164e-05
0.000289472
-6.84938e-05
0.000290613
-7.06148e-05
0.00029228
-7.27638e-05
0.000294465
-7.48775e-05
0.00029722
-7.69302e-05
0.000300532
-7.88698e-05
0.000304423
-8.0653e-05
0.000308919
-8.22327e-05
0.00031399
-8.35228e-05
0.000319726
-8.45024e-05
0.000326027
-8.50534e-05
0.000332938
-8.51376e-05
0.000340442
-8.46666e-05
0.000348509
-8.35533e-05
0.000357118
-8.17152e-05
0.000366245
-7.90621e-05
0.000375818
-7.55076e-05
-7.09476e-05
0.000385754
0.00040808
-4.27931e-05
0.000404929
-4.24439e-05
0.000401552
-4.21289e-05
0.000397963
-4.18822e-05
0.000394174
-4.16987e-05
0.000390219
-4.15721e-05
0.000386112
-4.14999e-05
0.000381854
-4.14572e-05
0.000377475
-4.14443e-05
0.000373
-4.14499e-05
0.000368449
-4.14808e-05
0.000363839
-4.15269e-05
0.000359193
-4.15912e-05
0.000354526
-4.16728e-05
0.000349854
-4.17775e-05
0.000345199
-4.19097e-05
0.000340579
-4.20759e-05
0.000336015
-4.2287e-05
0.000331525
-4.25506e-05
0.00032713
-4.28772e-05
0.000322854
-4.32787e-05
0.000318709
-4.37658e-05
0.00031472
-4.43497e-05
0.000310905
-4.50416e-05
0.000307286
-4.58532e-05
0.000303884
-4.67938e-05
0.00030072
-4.78741e-05
0.000297822
-4.91018e-05
0.000295211
-5.04845e-05
0.000292912
-5.20263e-05
0.000290948
-5.37298e-05
0.000289347
-5.55945e-05
0.00028813
-5.76176e-05
0.000287328
-5.97899e-05
0.000286965
-6.21031e-05
0.000287067
-6.45379e-05
0.000287663
-6.7078e-05
0.00028878
-6.96971e-05
0.000290432
-7.23786e-05
0.000292663
-7.50519e-05
0.000295487
-7.77165e-05
0.000298918
-8.02832e-05
0.000302983
-8.27419e-05
0.000307692
-8.5013e-05
0.00031307
-8.70331e-05
0.000319105
-8.87628e-05
0.000325809
-9.00756e-05
0.0003332
-9.09584e-05
0.000341242
-9.12722e-05
0.000349934
-9.09563e-05
0.000359265
-8.99126e-05
0.000369165
-8.80231e-05
0.000379598
-8.52024e-05
-8.13076e-05
0.00039049
0.000408395
-3.7482e-05
0.000405172
-3.69209e-05
0.000401723
-3.64301e-05
0.000398066
-3.60378e-05
0.000394219
-3.57417e-05
0.000390214
-3.55238e-05
0.000386066
-3.53862e-05
0.000381772
-3.53118e-05
0.000377368
-3.52733e-05
0.000372878
-3.52794e-05
0.000368316
-3.53205e-05
0.000363706
-3.53912e-05
0.000359059
-3.54904e-05
0.00035439
-3.56155e-05
0.000349721
-3.57716e-05
0.000345058
-3.59622e-05
0.000340426
-3.61945e-05
0.00033584
-3.64757e-05
0.000331316
-3.68165e-05
0.000326879
-3.72279e-05
0.000322545
-3.77207e-05
0.000318335
-3.83078e-05
0.000314262
-3.90013e-05
0.000310351
-3.98146e-05
0.000306623
-4.07605e-05
0.000303099
-4.18512e-05
0.000299807
-4.30993e-05
0.000296771
-4.4515e-05
0.000294016
-4.61085e-05
0.000291567
-4.78867e-05
0.000289451
-4.98546e-05
0.000287697
-5.20145e-05
0.000286332
-5.43652e-05
0.000285387
-5.69005e-05
0.000284894
-5.96126e-05
0.000284884
-6.24858e-05
0.000285386
-6.55022e-05
0.000286441
-6.8639e-05
0.000288056
-7.18724e-05
0.000290291
-7.51441e-05
0.000293146
-7.84332e-05
0.000296648
-8.16877e-05
0.000300861
-8.48373e-05
0.000305751
-8.78734e-05
0.00031138
-9.06479e-05
0.000317734
-9.32169e-05
0.000324824
-9.53461e-05
0.000332666
-9.71037e-05
0.000341257
-9.82676e-05
0.000350584
-9.88512e-05
0.000360611
-9.86796e-05
0.000371324
-9.76617e-05
0.000382668
-9.56716e-05
-9.25362e-05
0.000394552
0.000408893
-3.18884e-05
0.000405569
-3.11212e-05
0.000402022
-3.04612e-05
0.000398271
-2.99385e-05
0.00039434
-2.95417e-05
0.000390243
-2.92629e-05
0.000386024
-2.90855e-05
0.000381677
-2.89917e-05
0.00037724
-2.89576e-05
0.000372721
-2.89844e-05
0.000368148
-2.90552e-05
0.000363534
-2.91699e-05
0.00035888
-2.93171e-05
0.000354209
-2.94987e-05
0.000349527
-2.97133e-05
0.000344853
-2.99671e-05
0.000340203
-3.02663e-05
0.000335587
-3.06179e-05
0.000331028
-3.10318e-05
0.000326542
-3.152e-05
0.000322145
-3.20946e-05
0.000317854
-3.27693e-05
0.000313693
-3.35585e-05
0.000309678
-3.44778e-05
0.000305831
-3.55414e-05
0.000302175
-3.67656e-05
0.000298734
-3.81643e-05
0.000295536
-3.97518e-05
0.000292609
-4.15408e-05
0.000289979
-4.35421e-05
0.000287679
-4.57635e-05
0.000285738
-4.82108e-05
0.000284187
-5.0885e-05
0.000283063
-5.37837e-05
0.000282402
-5.68995e-05
0.000282243
-6.02205e-05
0.000282612
-6.37271e-05
0.000283559
-6.7399e-05
0.000285101
-7.12069e-05
0.000287294
-7.51117e-05
0.000290162
-7.9069e-05
0.000293724
-8.30373e-05
0.000297996
-8.69355e-05
0.000303062
-9.0768e-05
0.000308857
-9.43812e-05
0.000315513
-9.7806e-05
0.000322969
-0.00010082
0.000331235
-0.000103566
0.000340429
-0.000105629
0.000350313
-0.000107287
0.000361058
-0.000107974
0.000372646
-0.00010808
0.000384853
-0.0001069
-0.000104659
0.000397722
0.00040955
-2.59789e-05
0.00040606
-2.50094e-05
0.000402357
-2.41967e-05
0.000398473
-2.35594e-05
0.000394424
-2.30861e-05
0.000390248
-2.27618e-05
0.000385964
-2.25685e-05
0.00038158
-2.24793e-05
0.00037711
-2.24781e-05
0.000372562
-2.25469e-05
0.000367974
-2.26696e-05
0.000363339
-2.28461e-05
0.000358669
-2.30558e-05
0.000353981
-2.33055e-05
0.000349279
-2.35899e-05
0.000344587
-2.39133e-05
0.000339912
-2.42814e-05
0.000335269
-2.47022e-05
0.000330669
-2.51838e-05
0.00032613
-2.57406e-05
0.000321667
-2.63849e-05
0.000317294
-2.71338e-05
0.000313035
-2.80027e-05
0.000308903
-2.90099e-05
0.000304921
-3.01728e-05
0.000301113
-3.151e-05
0.000297504
-3.30402e-05
0.000294122
-3.47799e-05
0.000290995
-3.67473e-05
0.000288154
-3.89559e-05
0.000285633
-4.14183e-05
0.000283468
-4.41435e-05
0.000281696
-4.71365e-05
0.000280354
-5.03972e-05
0.000279484
-5.39209e-05
0.000279132
-5.76972e-05
0.000279324
-6.171e-05
0.000280112
-6.59345e-05
0.000281545
-7.03428e-05
0.000283645
-7.49102e-05
0.00028645
-7.95553e-05
0.000290016
-8.42915e-05
0.000294345
-8.89763e-05
0.00029952
-9.36766e-05
0.000305535
-9.81508e-05
0.000312434
-0.000102559
0.000320194
-0.000106539
0.000328911
-0.000110296
0.000338518
-0.000113421
0.000349071
-0.000116145
0.000360411
-0.000117924
0.000372786
-0.000119018
0.000385751
-0.000118794
-0.000117584
0.000399672
0.000410344
-1.97075e-05
0.000406699
-1.85443e-05
0.000402852
-1.7586e-05
0.000398786
-1.68594e-05
0.00039458
-1.63314e-05
0.00039027
-1.59943e-05
0.00038587
-1.58126e-05
0.000381406
-1.57562e-05
0.000376871
-1.58129e-05
0.000372293
-1.59507e-05
0.000367671
-1.61533e-05
0.00036301
-1.64067e-05
0.000358326
-1.67021e-05
0.000353626
-1.70321e-05
0.000348927
-1.73994e-05
0.00034423
-1.77982e-05
0.00033954
-1.82367e-05
0.00033487
-1.8724e-05
0.000330231
-1.92652e-05
0.000325636
-1.98813e-05
0.000321101
-2.05798e-05
0.000316645
-2.13879e-05
0.000312281
-2.23168e-05
0.000308027
-2.33918e-05
0.0003039
-2.46324e-05
0.000299927
-2.60599e-05
0.000296128
-2.7698e-05
0.000292533
-2.95677e-05
0.00028918
-3.16922e-05
0.000286095
-3.40895e-05
0.000283319
-3.6777e-05
0.000280893
-3.97685e-05
0.000278855
-4.30727e-05
0.000277249
-4.66929e-05
0.000276123
-5.06271e-05
0.000275524
-5.48667e-05
0.00027549
-5.93978e-05
0.000276075
-6.41933e-05
0.00027733
-6.92334e-05
0.000279283
-7.44784e-05
0.000281999
-7.98706e-05
0.000285514
-8.53968e-05
0.000289855
-9.09451e-05
0.000295111
-9.65299e-05
0.00030123
-0.000101991
0.000308309
-0.000107365
0.00031639
-0.000112412
0.000325442
-0.00011729
0.000335514
-0.000121531
0.000346637
-0.000125427
0.000358612
-0.000128327
0.000371594
-0.00013051
0.000385243
-0.000131271
-0.000130894
0.000399563
0.00041129
-1.3022e-05
0.000407362
-1.16742e-05
0.00040327
-1.05974e-05
0.000399032
-9.79772e-06
0.000394677
-9.25312e-06
0.000390241
-8.92586e-06
0.000385746
-8.79479e-06
0.000381195
-8.81362e-06
0.000376587
-8.95069e-06
0.000371944
-9.1891e-06
0.000367266
-9.49677e-06
0.000362582
-9.85356e-06
0.000357902
-1.0252e-05
0.000353225
-1.06782e-05
0.000348555
-1.11372e-05
0.000343855
-1.16139e-05
0.00033914
-1.2121e-05
0.00033443
-1.26745e-05
0.000329737
-1.32645e-05
0.000325092
-1.39356e-05
0.000320491
-1.46697e-05
0.000315954
-1.55241e-05
0.000311481
-1.64906e-05
0.000307093
-1.7609e-05
0.000302807
-1.89003e-05
0.000298647
-2.03907e-05
0.000294635
-2.21083e-05
0.000290804
-2.40814e-05
0.000287191
-2.63374e-05
0.000283828
-2.89005e-05
0.000280757
-3.17936e-05
0.000278021
-3.50351e-05
0.000275665
-3.86391e-05
0.00027374
-4.26137e-05
0.000272298
-4.69599e-05
0.000271394
-5.16714e-05
0.000271079
-5.67347e-05
0.000271406
-6.21261e-05
0.000272407
-6.7813e-05
0.000274185
-7.37689e-05
0.000276762
-7.99601e-05
0.000280169
-8.63149e-05
0.000284457
-9.27669e-05
0.000289706
-9.93135e-05
0.000295917
-0.000105786
0.000303148
-0.000112238
0.000311442
-0.000118424
0.000320813
-0.000124453
0.000331263
-0.000129963
0.000342766
-0.000134994
0.000355192
-0.000139059
0.000368495
-0.000142191
0.00038234
-0.000143763
-0.00014412
0.00039661
0.000412385
-5.86728e-06
0.000408181
-4.3557e-06
0.000403845
-3.18244e-06
0.000399328
-2.3431e-06
0.000394783
-1.80714e-06
0.000390142
-1.53995e-06
0.000385512
-1.48139e-06
0.000380846
-1.6157e-06
0.000376145
-1.88247e-06
0.000371434
-2.25148e-06
0.000366741
-2.69274e-06
0.000362051
-3.18434e-06
0.000357389
-3.70573e-06
0.00035269
-4.25025e-06
0.000347975
-4.79892e-06
0.000343259
-5.36479e-06
0.00033854
-5.94085e-06
0.000333836
-6.5639e-06
0.000329141
-7.1944e-06
0.000324493
-7.90686e-06
0.000319858
-8.65576e-06
0.000315252
-9.53507e-06
0.000310668
-1.05096e-05
0.000306126
-1.16413e-05
0.000301651
-1.29521e-05
0.000297272
-1.44725e-05
0.000293018
-1.62384e-05
0.000288921
-1.82841e-05
0.000285013
-2.06429e-05
0.000281334
-2.33454e-05
0.000277928
-2.64211e-05
0.000274839
-2.98947e-05
0.000272119
-3.37857e-05
0.000269823
-3.81069e-05
0.000268011
-4.28634e-05
0.000266742
-4.80514e-05
0.000266082
-5.36591e-05
0.000266079
-5.96636e-05
0.0002668
-6.60316e-05
0.000268319
-7.2741e-05
0.000270672
-7.97477e-05
0.000273868
-8.69734e-05
0.000278111
-9.4391e-05
0.000283266
-0.000101944
0.000289521
-0.000109517
0.00029682
-0.000117099
0.00030534
-0.000124543
0.000314908
-0.000131772
0.00032566
-0.000138549
0.00033726
-0.000144546
0.000349871
-0.000149895
0.000362739
-0.000153364
0.000376275
-0.000155992
-0.000156302
0.000389894
0.000413599
1.82676e-06
0.000409028
3.47748e-06
0.000404341
4.71094e-06
0.000399574
5.54878e-06
0.000394772
6.02723e-06
0.000389968
6.19354e-06
0.000385166
6.1208e-06
0.000380372
5.83629e-06
0.000375584
5.40113e-06
0.000370831
4.85786e-06
0.000366104
4.24779e-06
0.000361398
3.59706e-06
0.000356701
2.92852e-06
0.000352021
2.25569e-06
0.000347319
1.5901e-06
0.00034269
9.33581e-07
0.000337946
2.64461e-07
0.000333306
-3.81122e-07
0.00032856
-1.06945e-06
0.00032384
-1.76149e-06
0.000319153
-2.54179e-06
0.000314451
-3.38908e-06
0.000309767
-4.3585e-06
0.000305091
-5.47203e-06
0.000300439
-6.76857e-06
0.000295836
-8.28306e-06
0.000291318
-1.006e-05
0.000286923
-1.21431e-05
0.000282688
-1.4569e-05
0.000278652
-1.73798e-05
0.00027486
-2.06097e-05
0.000271365
-2.42917e-05
0.000268225
-2.84523e-05
0.000265499
-3.31094e-05
0.000263251
-3.82724e-05
0.000261551
-4.39406e-05
0.000260473
-5.01051e-05
0.000260073
-5.6745e-05
0.000260424
-6.38179e-05
0.000261619
-7.13105e-05
0.000263674
-7.91741e-05
0.000266686
-8.73362e-05
0.000270676
-9.5766e-05
0.000275756
-0.000104364
0.000281931
-0.000113138
0.000289282
-0.000121876
0.000297876
-0.000130656
0.000307478
-0.000139062
0.000318407
-0.000147142
0.000329813
-0.000153937
0.000342059
-0.000160213
0.000353474
-0.00016318
0.000366544
-0.000167238
-0.000165611
0.000377514
0.000414843
1.01119e-05
0.000409878
1.18776e-05
0.000404828
1.31355e-05
0.000399741
1.39219e-05
0.000394637
1.42787e-05
0.000389616
1.43069e-05
0.000384632
1.4036e-05
0.00037973
1.35459e-05
0.000374866
1.2893e-05
0.000370058
1.21352e-05
0.000365305
1.13176e-05
0.000360591
1.04765e-05
0.000355913
9.63466e-06
0.000351258
8.8134e-06
0.000346606
8.02246e-06
0.000341953
7.26795e-06
0.000337296
6.54482e-06
0.000332642
5.83314e-06
0.000327965
5.12956e-06
0.000323236
4.44589e-06
0.000318455
3.69429e-06
0.000313658
2.87101e-06
0.000308833
1.95928e-06
0.000304
9.00477e-07
0.00029917
-3.39627e-07
0.000294346
-1.79898e-06
0.000289572
-3.55282e-06
0.000284863
-5.62011e-06
0.000280262
-8.07046e-06
0.000275817
-1.09491e-05
0.000271576
-1.42969e-05
0.000267605
-1.8158e-05
0.000263968
-2.25662e-05
0.000260732
-2.75457e-05
0.00025797
-3.31112e-05
0.000255765
-3.9265e-05
0.000254192
-4.60001e-05
0.000253324
-5.32937e-05
0.000253238
-6.11009e-05
0.000254021
-6.94102e-05
0.000255744
-7.81774e-05
0.000258421
-8.73206e-05
0.000262205
-9.67961e-05
0.000267044
-0.000106556
0.000273139
-0.000116496
0.000280458
-0.000126593
0.000288931
-0.000136617
0.000298625
-0.000146281
0.000309183
-0.000155407
0.000319822
-0.000162435
0.000330987
-0.000169325
0.000341021
-0.000171367
0.000352626
-0.000176881
-0.000174283
0.000362918
0.000416112
1.9053e-05
0.000410693
2.08987e-05
0.000405212
2.21261e-05
0.000399741
2.28035e-05
0.000394375
2.29986e-05
0.000389058
2.27934e-05
0.000383883
2.22854e-05
0.000378826
2.15246e-05
0.000373871
2.05968e-05
0.000369018
1.95736e-05
0.000364261
1.85051e-05
0.000359575
1.74353e-05
0.000354944
1.63925e-05
0.000350363
1.54019e-05
0.000345757
1.44719e-05
0.000341226
1.3622e-05
0.000336549
1.2797e-05
0.000331952
1.21107e-05
0.000327306
1.13804e-05
0.000322541
1.07151e-05
0.000317777
9.9899e-06
0.000312928
9.28578e-06
0.000308018
8.4522e-06
0.000303026
7.49903e-06
0.000297974
6.36444e-06
0.000292889
4.99556e-06
0.000287789
3.3307e-06
0.00028272
1.31757e-06
0.000277714
-1.10347e-06
0.000272818
-3.99966e-06
0.000268082
-7.42383e-06
0.000263573
-1.14273e-05
0.000259367
-1.60557e-05
0.000255541
-2.134e-05
0.000252183
-2.73006e-05
0.000249387
-3.39437e-05
0.000247239
-4.1263e-05
0.000245822
-4.92334e-05
0.000245235
-5.78169e-05
0.000245533
-6.69744e-05
0.000246789
-7.66784e-05
0.000249116
-8.68533e-05
0.000252561
-9.74607e-05
0.000257147
-0.000108376
0.00026302
-0.000119652
0.000270094
-0.000130966
0.000278491
-0.000142347
0.000287749
-0.000153011
0.000297481
-0.000162746
0.000306443
-0.000169149
0.000315825
-0.000176543
0.000323833
-0.000177037
0.000333779
-0.000184025
-0.00021086
0.000372153
0.00041705
2.86758e-05
0.000411129
3.0535e-05
0.000405229
3.17011e-05
0.000399392
3.22081e-05
0.000393688
3.21575e-05
0.000388164
3.16877e-05
0.000382804
3.08403e-05
0.000377617
2.97497e-05
0.00037259
2.84941e-05
0.000367713
2.71472e-05
0.000362971
2.57834e-05
0.000358332
2.44452e-05
0.000353789
2.31708e-05
0.000349253
2.19888e-05
0.000344825
2.09091e-05
0.000340283
1.99323e-05
0.000335846
1.90907e-05
0.000331211
1.83201e-05
0.000326613
1.76631e-05
0.000321924
1.70255e-05
0.00031709
1.64357e-05
0.000312203
1.57996e-05
0.000307195
1.51114e-05
0.000302062
1.4309e-05
0.000296809
1.33337e-05
0.000291459
1.21226e-05
0.000286033
1.06072e-05
0.000280564
8.7177e-06
0.0002751
6.38021e-06
0.000269693
3.51833e-06
0.000264395
6.97422e-08
0.000259275
-4.02791e-06
0.000254422
-8.84209e-06
0.000249925
-1.44075e-05
0.000245885
-2.07527e-05
0.000242413
-2.78883e-05
0.000239601
-3.58047e-05
0.000237542
-4.4477e-05
0.000236344
-5.38683e-05
0.000236077
-6.39076e-05
0.000236809
-7.46055e-05
0.000238697
-8.5861e-05
0.000241661
-9.76266e-05
0.000245884
-0.00010982
0.000251471
-0.000122348
0.000258338
-0.000135128
0.000266159
-0.000147553
0.000274378
-0.000158717
0.00028253
-0.000168445
0.000288984
-0.000173372
0.00029702
-0.000181937
0.000322062
-0.000197574
0.000372651
-0.000230325
-0.00025705
0.000436003
0.000417173
3.8853e-05
0.000410871
4.07413e-05
0.000404601
4.17776e-05
0.000398405
4.20649e-05
0.000392449
4.17401e-05
0.000386695
4.08986e-05
0.000381208
3.96734e-05
0.000375944
3.81843e-05
0.000370892
3.65294e-05
0.000366035
3.4812e-05
0.000361348
3.3102e-05
0.0003568
3.14613e-05
0.000352364
2.99255e-05
0.000347992
2.85314e-05
0.000343644
2.73066e-05
0.000339302
2.62064e-05
0.000334936
2.5306e-05
0.000330462
2.45502e-05
0.000325934
2.39223e-05
0.000321272
2.33663e-05
0.000316494
2.29006e-05
0.000311577
2.24098e-05
0.00030648
2.19136e-05
0.0003012
2.13264e-05
0.000295739
2.05764e-05
0.000290108
1.95923e-05
0.00028433
1.82962e-05
0.000278436
1.66023e-05
0.000272481
1.44246e-05
0.000266506
1.16745e-05
0.000260574
8.26711e-06
0.000254775
4.11557e-06
0.000249185
-8.37502e-07
0.00024391
-6.65049e-06
0.00023907
-1.33615e-05
0.000234798
-2.09938e-05
0.000231205
-2.9524e-05
0.000228403
-3.89281e-05
0.000226499
-4.91622e-05
0.000225581
-6.01357e-05
0.000225726
-7.1884e-05
0.000226987
-8.4253e-05
0.000229522
-9.72354e-05
0.000233345
-0.000110742
0.000238509
-0.000124675
0.000244796
-0.000138617
0.000251555
-0.000151601
0.000258015
-0.000162535
0.000263821
-0.000171902
0.00027138
-0.000178016
0.00029571
-0.000201484
0.000346501
-0.000236969
0.000398457
-0.000271984
-0.000286773
0.000436115
0.000415478
4.92883e-05
0.000408976
5.12188e-05
0.00040254
5.21454e-05
0.000396258
5.21955e-05
0.000390153
5.15374e-05
0.000384357
5.03024e-05
0.000378825
4.86466e-05
0.000373557
4.67079e-05
0.000368552
4.46185e-05
0.000363792
4.2482e-05
0.000359258
4.03858e-05
0.000354889
3.8405e-05
0.000350621
3.65899e-05
0.000346505
3.4964e-05
0.000342295
3.3559e-05
0.000338186
3.2394e-05
0.000334028
3.14375e-05
0.000329703
3.06691e-05
0.000325296
3.01196e-05
0.000320719
2.97063e-05
0.000316005
2.93377e-05
0.000311047
2.91426e-05
0.000305901
2.88471e-05
0.000300499
2.85417e-05
0.000294845
2.80863e-05
0.000288936
2.74096e-05
0.000282789
2.64164e-05
0.000276434
2.50068e-05
0.000269921
2.30772e-05
0.000263304
2.05225e-05
0.000256643
1.72367e-05
0.000250025
1.31165e-05
0.000243571
8.07335e-06
0.000237417
2.03513e-06
0.000231679
-5.02483e-06
0.000226504
-1.31458e-05
0.000222024
-2.23126e-05
0.000218369
-3.24865e-05
0.000215658
-4.36118e-05
0.000213988
-5.55865e-05
0.000213414
-6.84074e-05
0.000214088
-8.19873e-05
0.000216022
-9.62486e-05
0.000219331
-0.000111121
0.000223885
-0.000126368
0.000229211
-0.000141101
0.000234224
-0.000153871
0.000239306
-0.000164763
0.000242712
-0.000172408
0.000271055
-0.000201269
0.000325555
-0.00024411
0.000372287
-0.000272693
0.00039649
-0.000287796
-0.000294597
0.000409007
0.000410322
5.94276e-05
0.000404061
6.14402e-05
0.000397869
6.22943e-05
0.000391808
6.21646e-05
0.000385971
6.11925e-05
0.000380383
5.95814e-05
0.000375071
5.74993e-05
0.000370039
5.51093e-05
0.000365288
5.25648e-05
0.000360786
4.99917e-05
0.000356507
4.74978e-05
0.00035243
4.51597e-05
0.000348471
4.3049e-05
0.000344591
4.12069e-05
0.000340782
3.96242e-05
0.000336857
3.83734e-05
0.000332952
3.73694e-05
0.000328904
3.66838e-05
0.000324668
3.61933e-05
0.000320214
3.59545e-05
0.000315593
3.58198e-05
0.000310706
3.58378e-05
0.000305476
3.59127e-05
0.000299946
3.5938e-05
0.000294086
3.58605e-05
0.000287884
3.55792e-05
0.000281343
3.49868e-05
0.000274484
3.39644e-05
0.000267349
3.23881e-05
0.00026001
3.01311e-05
0.000252541
2.70656e-05
0.000245034
2.30609e-05
0.000237614
1.80008e-05
0.000230433
1.17919e-05
0.000223671
4.37664e-06
0.000217456
-4.22608e-06
0.000211959
-1.40497e-05
0.00020735
-2.50515e-05
0.000203739
-3.71173e-05
0.000201237
-5.01639e-05
0.000199917
-6.41246e-05
0.000199852
-7.89526e-05
0.000201138
-9.45582e-05
0.000203768
-0.000110822
0.000207494
-0.000127158
0.000211423
-0.000142157
0.000214643
-0.000154321
0.000218235
-0.00016517
0.000245545
-0.000195447
0.000295006
-0.000238479
0.000327573
-0.000265088
0.000344007
-0.000280749
0.000352338
-0.000290947
-0.000299378
0.000360569
0.000400166
6.87247e-05
0.000394399
7.07892e-05
0.000388881
7.15882e-05
0.000383593
7.12949e-05
0.0003785
7.01136e-05
0.000373608
6.82164e-05
0.000368934
6.57811e-05
0.000364516
6.29933e-05
0.000360345
6.00312e-05
0.000356411
5.70512e-05
0.000352667
5.41785e-05
0.00034907
5.15063e-05
0.000345628
4.91202e-05
0.000342142
4.70582e-05
0.000338778
4.53798e-05
0.000335271
4.40338e-05
0.000331661
4.30637e-05
0.000327961
4.24508e-05
0.00032396
4.20993e-05
0.000319741
4.20497e-05
0.000315174
4.22633e-05
0.000310385
4.25443e-05
0.00030517
4.30196e-05
0.000299514
4.34997e-05
0.000293423
4.38969e-05
0.000286888
4.41199e-05
0.000279915
4.4039e-05
0.000272513
4.35174e-05
0.000264713
4.24142e-05
0.000256578
4.05774e-05
0.000248189
3.78496e-05
0.000239657
3.40663e-05
0.00023113
2.90746e-05
0.000222785
2.27508e-05
0.000214818
1.5021e-05
0.000207461
5.86933e-06
0.000200817
-4.62031e-06
0.000195131
-1.6511e-05
0.000190519
-2.95951e-05
0.000187101
-4.37947e-05
0.000184929
-5.89686e-05
0.00018411
-7.51167e-05
0.00018467
-9.21317e-05
0.000186536
-0.000109702
0.000189036
-0.000126747
0.000190853
-0.00014103
0.000192864
-0.000153538
0.000215148
-0.000182787
0.000255328
-0.000225118
0.000282214
-0.000252839
0.000294281
-0.000269142
0.000301046
-0.000282438
0.000308666
-0.000295005
-0.000305824
0.000317809
0.000385323
7.74194e-05
0.000379415
7.91061e-05
0.000374511
7.95465e-05
0.000370235
7.90218e-05
0.00036631
7.76591e-05
0.000362628
7.55641e-05
0.000359143
7.28853e-05
0.000355825
6.98075e-05
0.000352696
6.65265e-05
0.000349736
6.32182e-05
0.00034689
6.00356e-05
0.000344147
5.70978e-05
0.000341429
5.44986e-05
0.000338779
5.2303e-05
0.000335936
5.05223e-05
0.0003331
4.92135e-05
0.000330039
4.83261e-05
0.000326686
4.78098e-05
0.000323049
4.77128e-05
0.000319105
4.79488e-05
0.00031475
4.85115e-05
0.000309897
4.93162e-05
0.000304661
5.01971e-05
0.000298878
5.12503e-05
0.000292541
5.22363e-05
0.000285624
5.30825e-05
0.000278129
5.36323e-05
0.000270089
5.37324e-05
0.000261532
5.32266e-05
0.000252507
5.19383e-05
0.0002431
4.96781e-05
0.000233434
4.62366e-05
0.000223672
4.14114e-05
0.000214023
3.50345e-05
0.000204734
2.70064e-05
0.000196061
1.73089e-05
0.00018826
6.00198e-06
0.000181431
-6.80607e-06
0.000175797
-2.10311e-05
0.000171447
-3.6473e-05
0.00016845
-5.29631e-05
0.000166853
-7.04968e-05
0.000166636
-8.89069e-05
0.000167503
-0.000107581
0.000168184
-0.000124478
0.000168134
-0.000138063
0.00018297
-0.000164607
0.000216699
-0.000206957
0.000237615
-0.000235083
0.000244482
-0.00025261
0.00024969
-0.000269265
0.000257404
-0.000286068
0.000266924
-0.000301356
-0.000313283
0.000277037
0.000369868
8.82852e-05
0.000360841
8.77507e-05
0.00035513
8.66044e-05
0.000351302
8.52686e-05
0.000348507
8.34913e-05
0.000346277
8.11315e-05
0.000344375
7.82454e-05
0.000342684
7.49572e-05
0.00034112
7.14619e-05
0.000339631
6.79422e-05
0.00033818
6.45645e-05
0.000336722
6.14714e-05
0.000335244
5.87691e-05
0.000333572
5.65358e-05
0.000331801
5.48213e-05
0.000329729
5.36022e-05
0.000327365
5.29329e-05
0.000324599
5.26823e-05
0.00032147
5.29521e-05
0.000317809
5.36172e-05
0.000313594
5.46327e-05
0.000308855
5.59979e-05
0.000303406
5.75986e-05
0.000297333
5.93169e-05
0.000290599
6.09988e-05
0.000283157
6.25929e-05
0.000275034
6.38807e-05
0.000266256
6.47075e-05
0.000256847
6.49041e-05
0.000246841
6.42834e-05
0.000236312
6.26191e-05
0.000225413
5.96448e-05
0.000214348
5.50837e-05
0.000203353
4.87074e-05
0.000192711
4.03796e-05
0.000182722
3.00821e-05
0.000173679
1.78871e-05
0.000165795
3.97712e-06
0.000159201
-1.1496e-05
0.000154005
-2.82922e-05
0.000150264
-4.62032e-05
0.000147913
-6.51271e-05
0.00014685
-8.48275e-05
0.000146242
-0.00010398
0.000144932
-0.000120282
0.000150986
-0.000141063
0.000177613
-0.000183689
0.000192456
-0.000211957
0.000195183
-0.000230418
0.000198888
-0.000250891
0.00020642
-0.000272326
0.000216298
-0.000292285
0.000227069
-0.000308796
-0.000321104
0.00023756
0.000364365
0.000103552
0.000345134
9.90221e-05
0.000334225
9.43572e-05
0.000328458
9.08962e-05
0.00032566
8.7889e-05
0.000324496
8.48537e-05
0.000324206
8.15653e-05
0.00032438