/*--------------------------------*- C++ -*----------------------------------*\
  =========                 |
  \\      /  F ield         | OpenFOAM: The Open Source CFD Toolbox
   \\    /   O peration     | Website:  https://openfoam.org
    \\  /    A nd           | Version:  10
     \\/     M anipulation  |
\*---------------------------------------------------------------------------*/
FoamFile
{
    format      ascii;
    class       volVectorField;
    location    "0.698552";
    object      U;
}
// * * * * * * * * * * * * * * * * * * * * * * * * * * * * * * * * * * * * * //

dimensions      [0 1 -1 0 0 0 0];

internalField   nonuniform List<vector> 
15984
(
(0.52801 -0.0879492 0)
(0.524443 -0.0891057 0)
(0.520459 -0.0901709 0)
(0.516077 -0.0911701 0)
(0.511339 -0.0921011 0)
(0.506236 -0.0929311 0)
(0.50078 -0.0936453 0)
(0.495035 -0.0942513 0)
(0.489062 -0.0947482 0)
(0.482883 -0.0951417 0)
(0.476551 -0.0954077 0)
(0.470106 -0.0955634 0)
(0.46357 -0.0956114 0)
(0.457006 -0.0955589 0)
(0.450447 -0.0954159 0)
(0.443934 -0.0951946 0)
(0.437504 -0.0949093 0)
(0.431195 -0.0945743 0)
(0.425042 -0.0942047 0)
(0.419076 -0.0938163 0)
(0.413329 -0.0934241 0)
(0.407827 -0.0930426 0)
(0.402597 -0.0926858 0)
(0.397662 -0.0923656 0)
(0.393045 -0.0920931 0)
(0.388765 -0.0918767 0)
(0.38484 -0.0917231 0)
(0.381288 -0.091636 0)
(0.378125 -0.0916167 0)
(0.375364 -0.0916635 0)
(0.373019 -0.0917713 0)
(0.371104 -0.0919318 0)
(0.369631 -0.0921333 0)
(0.36861 -0.0923599 0)
(0.368054 -0.0925923 0)
(0.367973 -0.0928062 0)
(0.368376 -0.0929735 0)
(0.36927 -0.0930635 0)
(0.370667 -0.093037 0)
(0.372569 -0.0928515 0)
(0.374983 -0.0924668 0)
(0.377919 -0.0918297 0)
(0.381383 -0.0908756 0)
(0.385362 -0.0895476 0)
(0.389855 -0.0877942 0)
(0.394857 -0.0855456 0)
(0.400362 -0.0827424 0)
(0.406354 -0.0793126 0)
(0.412825 -0.0752002 0)
(0.419751 -0.0703409 0)
(0.427108 -0.0646758 0)
(0.434864 -0.0581504 0)
(0.442978 -0.0507227 0)
(0.451397 -0.0423466 0)
(0.526948 -0.0823966 0)
(0.523421 -0.0832495 0)
(0.519487 -0.0840257 0)
(0.515166 -0.0847506 0)
(0.510498 -0.0854218 0)
(0.505495 -0.0860373 0)
(0.500136 -0.0865505 0)
(0.494492 -0.086991 0)
(0.488611 -0.0873266 0)
(0.482536 -0.0876003 0)
(0.47631 -0.0877722 0)
(0.469948 -0.0878722 0)
(0.463505 -0.0878859 0)
(0.457019 -0.0878273 0)
(0.45053 -0.0877068 0)
(0.444073 -0.0875351 0)
(0.437687 -0.0873256 0)
(0.431407 -0.087092 0)
(0.425267 -0.0868487 0)
(0.419299 -0.0866104 0)
(0.413534 -0.0863914 0)
(0.408 -0.0862053 0)
(0.402725 -0.0860652 0)
(0.397733 -0.0859828 0)
(0.393048 -0.0859683 0)
(0.388693 -0.0860302 0)
(0.384688 -0.0861748 0)
(0.381052 -0.086406 0)
(0.377805 -0.0867251 0)
(0.374964 -0.0871306 0)
(0.372547 -0.0876181 0)
(0.37057 -0.0881795 0)
(0.369049 -0.0888038 0)
(0.368 -0.0894757 0)
(0.367439 -0.090176 0)
(0.367381 -0.0908805 0)
(0.367838 -0.0915626 0)
(0.368823 -0.0921895 0)
(0.370352 -0.0927231 0)
(0.372429 -0.0931211 0)
(0.375064 -0.0933464 0)
(0.378284 -0.0933363 0)
(0.382093 -0.093016 0)
(0.38647 -0.0923478 0)
(0.39142 -0.0912615 0)
(0.396946 -0.0896977 0)
(0.403044 -0.0875723 0)
(0.409698 -0.0848303 0)
(0.416891 -0.0813806 0)
(0.424608 -0.0771713 0)
(0.432817 -0.0721252 0)
(0.44148 -0.0661791 0)
(0.450554 -0.0592761 0)
(0.459969 -0.0513569 0)
(0.526212 -0.0766703 0)
(0.522719 -0.0772259 0)
(0.518819 -0.0777359 0)
(0.514538 -0.0782048 0)
(0.509908 -0.0786393 0)
(0.504965 -0.0790505 0)
(0.499687 -0.0793978 0)
(0.494122 -0.0796727 0)
(0.488315 -0.079901 0)
(0.482298 -0.0800625 0)
(0.476136 -0.0801735 0)
(0.469846 -0.0802224 0)
(0.463464 -0.0802152 0)
(0.457032 -0.0801598 0)
(0.450586 -0.0800675 0)
(0.444161 -0.0799481 0)
(0.437794 -0.0798145 0)
(0.431519 -0.0796797 0)
(0.42537 -0.0795573 0)
(0.419378 -0.0794612 0)
(0.413575 -0.0794053 0)
(0.407989 -0.0794027 0)
(0.402649 -0.0794661 0)
(0.397582 -0.0796072 0)
(0.392811 -0.0798363 0)
(0.388362 -0.0801618 0)
(0.384257 -0.0805904 0)
(0.380518 -0.0811266 0)
(0.377168 -0.0817722 0)
(0.374227 -0.0825266 0)
(0.371715 -0.0833862 0)
(0.369654 -0.0843438 0)
(0.368063 -0.0853892 0)
(0.366962 -0.0865079 0)
(0.366373 -0.0876816 0)
(0.366313 -0.0888868 0)
(0.366799 -0.0900969 0)
(0.36785 -0.0912788 0)
(0.369484 -0.0923956 0)
(0.371706 -0.0934147 0)
(0.374538 -0.0942751 0)
(0.378029 -0.094916 0)
(0.382158 -0.095278 0)
(0.386909 -0.0953179 0)
(0.392301 -0.0949553 0)
(0.398343 -0.094127 0)
(0.405026 -0.092749 0)
(0.412342 -0.0907466 0)
(0.420278 -0.0880395 0)
(0.428803 -0.0845488 0)
(0.437897 -0.0801965 0)
(0.447516 -0.0749046 0)
(0.457607 -0.0685897 0)
(0.468101 -0.0611984 0)
(0.525777 -0.0707543 0)
(0.5223 -0.0710362 0)
(0.518407 -0.0712752 0)
(0.514158 -0.0715086 0)
(0.509547 -0.0717329 0)
(0.504631 -0.071954 0)
(0.499408 -0.0721463 0)
(0.493882 -0.0722933 0)
(0.488112 -0.0724206 0)
(0.48215 -0.0725057 0)
(0.476031 -0.0725555 0)
(0.469782 -0.0725737 0)
(0.463439 -0.0725594 0)
(0.457036 -0.0725199 0)
(0.450609 -0.0724639 0)
(0.444193 -0.0724027 0)
(0.437824 -0.0723471 0)
(0.431533 -0.0723099 0)
(0.425356 -0.0723041 0)
(0.419321 -0.0723434 0)
(0.413462 -0.0724413 0)
(0.407807 -0.072611 0)
(0.402385 -0.0728652 0)
(0.397224 -0.0732161 0)
(0.392349 -0.0736741 0)
(0.387787 -0.0742485 0)
(0.383563 -0.0749468 0)
(0.379702 -0.0757743 0)
(0.376227 -0.0767344 0)
(0.373163 -0.0778274 0)
(0.370534 -0.0790512 0)
(0.368364 -0.0804 0)
(0.366677 -0.0818648 0)
(0.365497 -0.0834323 0)
(0.36485 -0.0850853 0)
(0.364758 -0.0868012 0)
(0.365244 -0.0885535 0)
(0.366329 -0.0903095 0)
(0.368028 -0.0920363 0)
(0.370368 -0.0937061 0)
(0.373387 -0.0952235 0)
(0.37711 -0.0965558 0)
(0.381522 -0.0976524 0)
(0.386624 -0.0984469 0)
(0.392439 -0.098864 0)
(0.398976 -0.0988222 0)
(0.406242 -0.0982628 0)
(0.414221 -0.097069 0)
(0.422897 -0.0951765 0)
(0.432255 -0.0924869 0)
(0.442264 -0.0889087 0)
(0.452889 -0.0843519 0)
(0.464063 -0.0787199 0)
(0.475708 -0.0719353 0)
(0.525669 -0.0646211 0)
(0.522175 -0.0646353 0)
(0.518277 -0.0646112 0)
(0.514008 -0.0646236 0)
(0.509388 -0.064656 0)
(0.504474 -0.0647097 0)
(0.499266 -0.0647695 0)
(0.493763 -0.0648162 0)
(0.488013 -0.0648543 0)
(0.482068 -0.06488 0)
(0.475967 -0.064897 0)
(0.469735 -0.0649012 0)
(0.463407 -0.0648944 0)
(0.457014 -0.0648826 0)
(0.450588 -0.0648724 0)
(0.444164 -0.0648742 0)
(0.437775 -0.0648985 0)
(0.431453 -0.0649575 0)
(0.425231 -0.0650645 0)
(0.419139 -0.0652325 0)
(0.413208 -0.0654752 0)
(0.407468 -0.0658061 0)
(0.401948 -0.0662385 0)
(0.396676 -0.0667849 0)
(0.391679 -0.0674572 0)
(0.386986 -0.0682655 0)
(0.382623 -0.0692188 0)
(0.378617 -0.0703241 0)
(0.374995 -0.0715861 0)
(0.371783 -0.0730073 0)
(0.36901 -0.0745871 0)
(0.366703 -0.0763217 0)
(0.36489 -0.0782038 0)
(0.363599 -0.080222 0)
(0.362862 -0.08236 0)
(0.362705 -0.0845968 0)
(0.363155 -0.0869059 0)
(0.364235 -0.089256 0)
(0.365959 -0.0916218 0)
(0.368392 -0.093954 0)
(0.371562 -0.0961715 0)
(0.375472 -0.0982452 0)
(0.380135 -0.100122 0)
(0.385558 -0.101721 0)
(0.391777 -0.102971 0)
(0.398785 -0.10379 0)
(0.406608 -0.104097 0)
(0.415245 -0.103803 0)
(0.424667 -0.102807 0)
(0.434867 -0.101007 0)
(0.445821 -0.0983015 0)
(0.457487 -0.094577 0)
(0.469803 -0.0897339 0)
(0.482688 -0.0836492 0)
(0.525844 -0.0582522 0)
(0.522311 -0.0579821 0)
(0.518372 -0.0577242 0)
(0.514062 -0.0575261 0)
(0.509407 -0.057381 0)
(0.504462 -0.0572857 0)
(0.499244 -0.0572347 0)
(0.493736 -0.0571947 0)
(0.487981 -0.0571785 0)
(0.482032 -0.057166 0)
(0.475927 -0.0571686 0)
(0.469694 -0.0571768 0)
(0.463362 -0.0571926 0)
(0.45696 -0.0572195 0)
(0.45052 -0.0572641 0)
(0.444072 -0.0573345 0)
(0.43765 -0.0574419 0)
(0.431283 -0.0575974 0)
(0.425003 -0.0578136 0)
(0.41884 -0.058104 0)
(0.412824 -0.0584824 0)
(0.406985 -0.0589632 0)
(0.401351 -0.0595605 0)
(0.395953 -0.0602879 0)
(0.390818 -0.0611587 0)
(0.385975 -0.062185 0)
(0.381453 -0.0633776 0)
(0.377279 -0.0647457 0)
(0.373484 -0.0662962 0)
(0.370098 -0.068034 0)
(0.367151 -0.069961 0)
(0.364675 -0.0720757 0)
(0.362702 -0.0743728 0)
(0.361266 -0.0768429 0)
(0.3604 -0.0794715 0)
(0.360138 -0.0822396 0)
(0.360511 -0.0851205 0)
(0.361539 -0.0880852 0)
(0.363255 -0.0911121 0)
(0.365739 -0.0941306 0)
(0.36901 -0.0970964 0)
(0.373066 -0.099954 0)
(0.377941 -0.102647 0)
(0.383655 -0.105113 0)
(0.390233 -0.107252 0)
(0.397693 -0.109009 0)
(0.406053 -0.110259 0)
(0.415316 -0.110947 0)
(0.425481 -0.11094 0)
(0.436532 -0.11013 0)
(0.44845 -0.108401 0)
(0.461198 -0.105629 0)
(0.474716 -0.101683 0)
(0.488923 -0.0964133 0)
(0.526316 -0.0516003 0)
(0.522711 -0.0510521 0)
(0.51869 -0.0505598 0)
(0.514304 -0.0501649 0)
(0.509581 -0.0498625 0)
(0.504574 -0.0496397 0)
(0.499311 -0.0494955 0)
(0.49377 -0.0494029 0)
(0.487988 -0.0493481 0)
(0.482016 -0.0493237 0)
(0.475886 -0.0493334 0)
(0.469635 -0.0493647 0)
(0.463283 -0.0494212 0)
(0.45686 -0.0495013 0)
(0.450393 -0.0496119 0)
(0.443911 -0.0497595 0)
(0.437445 -0.0499534 0)
(0.431024 -0.0502056 0)
(0.424676 -0.0505281 0)
(0.418432 -0.0509345 0)
(0.412321 -0.0514395 0)
(0.406371 -0.0520582 0)
(0.400612 -0.0528062 0)
(0.395073 -0.053699 0)
(0.389782 -0.0547517 0)
(0.38477 -0.0559788 0)
(0.380067 -0.0573936 0)
(0.375702 -0.059008 0)
(0.371708 -0.060832 0)
(0.368118 -0.0628734 0)
(0.364965 -0.065137 0)
(0.362284 -0.0676243 0)
(0.360113 -0.0703327 0)
(0.358489 -0.0732554 0)
(0.357452 -0.0763799 0)
(0.35704 -0.0796892 0)
(0.357289 -0.0831576 0)
(0.358218 -0.0867583 0)
(0.359882 -0.0904648 0)
(0.362365 -0.0942107 0)
(0.365682 -0.0979543 0)
(0.369848 -0.101648 0)
(0.374883 -0.105206 0)
(0.380836 -0.108588 0)
(0.387739 -0.111688 0)
(0.395609 -0.114445 0)
(0.404474 -0.116747 0)
(0.414342 -0.11848 0)
(0.425236 -0.119582 0)
(0.437134 -0.119836 0)
(0.450024 -0.119238 0)
(0.463878 -0.117521 0)
(0.478652 -0.114624 0)
(0.494249 -0.110315 0)
(0.527094 -0.0446112 0)
(0.523352 -0.0437922 0)
(0.519212 -0.0430759 0)
(0.514712 -0.042502 0)
(0.509888 -0.0420623 0)
(0.504789 -0.0417434 0)
(0.499443 -0.0415331 0)
(0.493843 -0.0414102 0)
(0.488015 -0.041343 0)
(0.481994 -0.0413344 0)
(0.475825 -0.0413743 0)
(0.46954 -0.0414522 0)
(0.463157 -0.0415684 0)
(0.456702 -0.0417164 0)
(0.450199 -0.0419038 0)
(0.443677 -0.0421347 0)
(0.437161 -0.0424186 0)
(0.430679 -0.0427663 0)
(0.424259 -0.0431903 0)
(0.417927 -0.0437047 0)
(0.411712 -0.0443251 0)
(0.405642 -0.0450683 0)
(0.399746 -0.0459513 0)
(0.394053 -0.0469918 0)
(0.388591 -0.0482078 0)
(0.383391 -0.0496164 0)
(0.378485 -0.0512343 0)
(0.373903 -0.0530768 0)
(0.36968 -0.0551575 0)
(0.365852 -0.0574877 0)
(0.362456 -0.060076 0)
(0.359531 -0.0629271 0)
(0.357119 -0.066042 0)
(0.355261 -0.0694165 0)
(0.354003 -0.073041 0)
(0.353391 -0.0769008 0)
(0.353464 -0.0809715 0)
(0.354242 -0.0852285 0)
(0.355799 -0.0896402 0)
(0.358228 -0.0941496 0)
(0.36153 -0.0987171 0)
(0.365745 -0.103273 0)
(0.370903 -0.107772 0)
(0.377043 -0.112117 0)
(0.384212 -0.116263 0)
(0.392436 -0.120072 0)
(0.401785 -0.123505 0)
(0.412215 -0.126397 0)
(0.423823 -0.128685 0)
(0.436543 -0.130178 0)
(0.450387 -0.130787 0)
(0.465377 -0.130331 0)
(0.48138 -0.128587 0)
(0.4984 -0.12537 0)
(0.528156 -0.0372517 0)
(0.524232 -0.0361654 0)
(0.519922 -0.0352361 0)
(0.515262 -0.0345014 0)
(0.51029 -0.0339449 0)
(0.50506 -0.0335544 0)
(0.499605 -0.0333082 0)
(0.493921 -0.0331741 0)
(0.488022 -0.0331316 0)
(0.481939 -0.0331662 0)
(0.475718 -0.0332602 0)
(0.469388 -0.033412 0)
(0.462968 -0.0336036 0)
(0.456478 -0.0338383 0)
(0.449937 -0.0341147 0)
(0.443371 -0.0344376 0)
(0.436803 -0.034816 0)
(0.430258 -0.0352599 0)
(0.423761 -0.0357814 0)
(0.417338 -0.0363962 0)
(0.411014 -0.03712 0)
(0.404817 -0.0379726 0)
(0.398774 -0.0389728 0)
(0.392914 -0.0401413 0)
(0.387265 -0.0414993 0)
(0.381858 -0.0430675 0)
(0.376724 -0.0448664 0)
(0.371898 -0.0469157 0)
(0.367414 -0.0492331 0)
(0.363312 -0.0518346 0)
(0.359632 -0.054733 0)
(0.356418 -0.0579376 0)
(0.353716 -0.0614529 0)
(0.351574 -0.0652782 0)
(0.350041 -0.0694068 0)
(0.349171 -0.0738258 0)
(0.34901 -0.0785146 0)
(0.34958 -0.0834463 0)
(0.350969 -0.0885909 0)
(0.353271 -0.0938991 0)
(0.35651 -0.099331 0)
(0.360713 -0.104799 0)
(0.365921 -0.110282 0)
(0.372186 -0.115665 0)
(0.379582 -0.12091 0)
(0.388123 -0.125875 0)
(0.397864 -0.13052 0)
(0.408836 -0.134677 0)
(0.421086 -0.138263 0)
(0.434613 -0.141143 0)
(0.449366 -0.143083 0)
(0.465428 -0.143993 0)
(0.482684 -0.143543 0)
(0.500971 -0.141542 0)
(0.529488 -0.0294536 0)
(0.525337 -0.0281063 0)
(0.520802 -0.0269816 0)
(0.515935 -0.0261087 0)
(0.510776 -0.0254679 0)
(0.505376 -0.0250363 0)
(0.49978 -0.0247865 0)
(0.493979 -0.0246783 0)
(0.487982 -0.0246965 0)
(0.481824 -0.0248067 0)
(0.475537 -0.024988 0)
(0.469156 -0.0252348 0)
(0.462694 -0.025525 0)
(0.456163 -0.0258624 0)
(0.449585 -0.0262412 0)
(0.442977 -0.0266653 0)
(0.436359 -0.0271405 0)
(0.429754 -0.0276784 0)
(0.423183 -0.0282898 0)
(0.416669 -0.0289943 0)
(0.410236 -0.0298061 0)
(0.403907 -0.0307508 0)
(0.397711 -0.0318475 0)
(0.391673 -0.0331212 0)
(0.385822 -0.0345961 0)
(0.380188 -0.036297 0)
(0.374804 -0.0382492 0)
(0.369703 -0.040478 0)
(0.364925 -0.0430066 0)
(0.36051 -0.0458564 0)
(0.356502 -0.0490455 0)
(0.352949 -0.0525881 0)
(0.349903 -0.056494 0)
(0.347419 -0.060767 0)
(0.345552 -0.0654037 0)
(0.344361 -0.0703933 0)
(0.343901 -0.0757185 0)
(0.3442 -0.0813475 0)
(0.345349 -0.0872563 0)
(0.347458 -0.093404 0)
(0.350562 -0.0997239 0)
(0.354685 -0.106176 0)
(0.359882 -0.112684 0)
(0.366212 -0.119181 0)
(0.37375 -0.125575 0)
(0.382525 -0.131812 0)
(0.392635 -0.137739 0)
(0.404077 -0.1433 0)
(0.416904 -0.148295 0)
(0.431171 -0.152647 0)
(0.446792 -0.156105 0)
(0.46379 -0.158399 0)
(0.482005 -0.159373 0)
(0.501247 -0.158616 0)
(0.531115 -0.0211526 0)
(0.526649 -0.0195553 0)
(0.521825 -0.0182471 0)
(0.51669 -0.0172708 0)
(0.51129 -0.0165702 0)
(0.505683 -0.0161358 0)
(0.499917 -0.015919 0)
(0.493973 -0.015881 0)
(0.48786 -0.0159878 0)
(0.481617 -0.0162113 0)
(0.475262 -0.0165193 0)
(0.468828 -0.0168897 0)
(0.462325 -0.0173136 0)
(0.45576 -0.0177728 0)
(0.44915 -0.0182776 0)
(0.442509 -0.0188073 0)
(0.43585 -0.0193836 0)
(0.429192 -0.0200157 0)
(0.422551 -0.0207091 0)
(0.415948 -0.0214918 0)
(0.409404 -0.0223732 0)
(0.402941 -0.0233899 0)
(0.396585 -0.0245573 0)
(0.39036 -0.0259098 0)
(0.384295 -0.0274751 0)
(0.378417 -0.029283 0)
(0.372759 -0.0313644 0)
(0.367354 -0.0337498 0)
(0.362244 -0.036468 0)
(0.357472 -0.0395461 0)
(0.353087 -0.0430083 0)
(0.349141 -0.0468746 0)
(0.34569 -0.051159 0)
(0.342796 -0.0558699 0)
(0.340522 -0.0610085 0)
(0.338938 -0.0665686 0)
(0.338107 -0.0725368 0)
(0.338061 -0.0788822 0)
(0.338893 -0.0855768 0)
(0.340743 -0.0925886 0)
(0.343632 -0.0998562 0)
(0.347598 -0.107323 0)
(0.352708 -0.114928 0)
(0.359033 -0.122584 0)
(0.366637 -0.130247 0)
(0.375592 -0.137772 0)
(0.385959 -0.145123 0)
(0.397797 -0.152125 0)
(0.411156 -0.158723 0)
(0.425999 -0.16458 0)
(0.442336 -0.169675 0)
(0.459945 -0.17335 0)
(0.478611 -0.175774 0)
(0.498101 -0.175999 0)
(0.533012 -0.0122812 0)
(0.528171 -0.010455 0)
(0.52298 -0.00901426 0)
(0.517522 -0.00796634 0)
(0.511838 -0.00727217 0)
(0.505974 -0.00688652 0)
(0.499998 -0.00675466 0)
(0.493885 -0.0068387 0)
(0.487634 -0.00707691 0)
(0.481279 -0.00744342 0)
(0.474849 -0.00789932 0)
(0.468358 -0.00841696 0)
(0.461818 -0.00898046 0)
(0.455222 -0.00957618 0)
(0.448592 -0.0101973 0)
(0.441934 -0.0108405 0)
(0.435236 -0.01151 0)
(0.428539 -0.0122467 0)
(0.421842 -0.0129972 0)
(0.415167 -0.0138681 0)
(0.408526 -0.0147799 0)
(0.401936 -0.0158681 0)
(0.395426 -0.0170753 0)
(0.389007 -0.0184801 0)
(0.382712 -0.0201028 0)
(0.376566 -0.021977 0)
(0.370602 -0.024142 0)
(0.364858 -0.0266368 0)
(0.359374 -0.0294998 0)
(0.354199 -0.0327662 0)
(0.349384 -0.036468 0)
(0.344988 -0.040633 0)
(0.341073 -0.0452836 0)
(0.337706 -0.0504335 0)
(0.334958 -0.0560869 0)
(0.332905 -0.062238 0)
(0.331622 -0.0688733 0)
(0.331152 -0.0759657 0)
(0.331589 -0.0834789 0)
(0.333075 -0.0913921 0)
(0.33567 -0.0996498 0)
(0.3394 -0.108184 0)
(0.344349 -0.116936 0)
(0.350563 -0.125843 0)
(0.358174 -0.134808 0)
(0.367207 -0.143773 0)
(0.377779 -0.152604 0)
(0.389879 -0.161176 0)
(0.403627 -0.16937 0)
(0.418864 -0.176758 0)
(0.435528 -0.18337 0)
(0.45306 -0.188206 0)
(0.471207 -0.19175 0)
(0.489698 -0.192305 0)
(0.535167 -0.00282433 0)
(0.529842 -0.00078726 0)
(0.524218 0.000778264 0)
(0.518359 0.00189507 0)
(0.512319 0.00257481 0)
(0.506167 0.00288873 0)
(0.499944 0.00289638 0)
(0.493637 0.00264243 0)
(0.487245 0.00219577 0)
(0.480786 0.00160936 0)
(0.474284 0.0009317 0)
(0.46775 0.000194183 0)
(0.461182 -0.000570536 0)
(0.454576 -0.00135107 0)
(0.447939 -0.00212447 0)
(0.441275 -0.00290999 0)
(0.434552 -0.00369425 0)
(0.427842 -0.00449526 0)
(0.421099 -0.0053268 0)
(0.414364 -0.0062089 0)
(0.407632 -0.00717134 0)
(0.400899 -0.00824797 0)
(0.394246 -0.00946201 0)
(0.387614 -0.0108594 0)
(0.381078 -0.0124812 0)
(0.374649 -0.0143728 0)
(0.368355 -0.0165851 0)
(0.362237 -0.0191587 0)
(0.35634 -0.0221389 0)
(0.350713 -0.0255695 0)
(0.345414 -0.0294891 0)
(0.340504 -0.0339313 0)
(0.336054 -0.038924 0)
(0.332138 -0.0444879 0)
(0.328836 -0.0506347 0)
(0.326232 -0.0573653 0)
(0.324413 -0.0646687 0)
(0.323433 -0.0725238 0)
(0.323383 -0.0808845 0)
(0.324425 -0.0897446 0)
(0.32663 -0.0990232 0)
(0.330038 -0.108687 0)
(0.334708 -0.118647 0)
(0.340758 -0.128868 0)
(0.348246 -0.139237 0)
(0.357276 -0.149698 0)
(0.367947 -0.160097 0)
(0.380225 -0.170359 0)
(0.394232 -0.180091 0)
(0.409391 -0.188912 0)
(0.425734 -0.196681 0)
(0.441976 -0.201842 0)
(0.458065 -0.205699 0)
(0.473224 -0.205001 0)
(0.537532 0.00754329 0)
(0.53164 0.00977283 0)
(0.525482 0.011403 0)
(0.519149 0.012462 0)
(0.512697 0.0130175 0)
(0.506203 0.0131497 0)
(0.499705 0.0129437 0)
(0.493179 0.0124568 0)
(0.486629 0.0117702 0)
(0.48007 0.010946 0)
(0.473506 0.0100415 0)
(0.46694 0.00909183 0)
(0.460366 0.0081263 0)
(0.453773 0.00716797 0)
(0.447155 0.0062303 0)
(0.440509 0.00531792 0)
(0.433818 0.00442493 0)
(0.427098 0.00354617 0)
(0.420344 0.00264897 0)
(0.413557 0.0017536 0)
(0.406732 0.000770441 0)
(0.399894 -0.000312092 0)
(0.393066 -0.00152236 0)
(0.386244 -0.00291725 0)
(0.379461 -0.00453969 0)
(0.372731 -0.00643434 0)
(0.366084 -0.00865035 0)
(0.359563 -0.011248 0)
(0.353207 -0.0142846 0)
(0.34707 -0.0178182 0)
(0.341216 -0.0219025 0)
(0.335713 -0.0265828 0)
(0.330641 -0.0318962 0)
(0.326084 -0.0378691 0)
(0.322134 -0.0445167 0)
(0.318886 -0.0518425 0)
(0.316435 -0.0598366 0)
(0.314857 -0.0684799 0)
(0.314228 -0.0777177 0)
(0.314729 -0.0875512 0)
(0.316454 -0.0979191 0)
(0.319432 -0.108742 0)
(0.323757 -0.119984 0)
(0.329496 -0.131542 0)
(0.336808 -0.14343 0)
(0.345737 -0.15543 0)
(0.356349 -0.167523 0)
(0.368637 -0.179354 0)
(0.382551 -0.190664 0)
(0.396949 -0.20034 0)
(0.412033 -0.208765 0)
(0.425081 -0.213107 0)
(0.436853 -0.215681 0)
(0.446285 -0.215498 0)
(0.539973 0.0185983 0)
(0.53341 0.0209408 0)
(0.526654 0.0225595 0)
(0.519789 0.0235308 0)
(0.51288 0.0239103 0)
(0.506015 0.0238198 0)
(0.499209 0.0233381 0)
(0.492448 0.0225461 0)
(0.485735 0.0215357 0)
(0.479073 0.0203898 0)
(0.472462 0.0191701 0)
(0.465888 0.0179325 0)
(0.459338 0.0167104 0)
(0.45279 0.015533 0)
(0.44623 0.0144142 0)
(0.439641 0.0133694 0)
(0.432982 0.0123528 0)
(0.426296 0.0114473 0)
(0.419564 0.010501 0)
(0.412767 0.00963039 0)
(0.405871 0.00866277 0)
(0.398931 0.00768227 0)
(0.39198 0.00655981 0)
(0.384941 0.00527123 0)
(0.377892 0.00375761 0)
(0.370842 0.00194843 0)
(0.363818 -0.000214695 0)
(0.356853 -0.0028043 0)
(0.349995 -0.00588174 0)
(0.343292 -0.00949216 0)
(0.336815 -0.0137057 0)
(0.330641 -0.0185856 0)
(0.32486 -0.0241841 0)
(0.31957 -0.0305378 0)
(0.314871 -0.0376696 0)
(0.310874 -0.0455873 0)
(0.307686 -0.0542823 0)
(0.305404 -0.0637332 0)
(0.304097 -0.0738885 0)
(0.303939 -0.0847294 0)
(0.305083 -0.0962202 0)
(0.307546 -0.108279 0)
(0.311412 -0.120828 0)
(0.316755 -0.133854 0)
(0.323736 -0.147228 0)
(0.332447 -0.160932 0)
(0.342915 -0.174631 0)
(0.354823 -0.188035 0)
(0.36814 -0.200421 0)
(0.380476 -0.210055 0)
(0.392287 -0.217787 0)
(0.399877 -0.220727 0)
(0.401265 -0.21405 0)
(0.406677 -0.214685 0)
(0.542185 0.0305912 0)
(0.534916 0.0330108 0)
(0.527513 0.0345902 0)
(0.520078 0.0353826 0)
(0.512684 0.0355058 0)
(0.505429 0.0350915 0)
(0.49831 0.0342323 0)
(0.491317 0.0330479 0)
(0.484458 0.0316416 0)
(0.477723 0.0301101 0)
(0.471096 0.0285342 0)
(0.464551 0.0269691 0)
(0.458063 0.0254597 0)
(0.451599 0.0240364 0)
(0.44514 0.0227207 0)
(0.438624 0.0215126 0)
(0.432099 0.0204131 0)
(0.425474 0.0194454 0)
(0.418774 0.0185143 0)
(0.411984 0.0176488 0)
(0.405062 0.0167518 0)
(0.398076 0.0158654 0)
(0.390941 0.0148455 0)
(0.383722 0.0136909 0)
(0.376416 0.0123203 0)
(0.369036 0.0106629 0)
(0.361603 0.00863902 0)
(0.354152 0.0061738 0)
(0.346729 0.00318082 0)
(0.3394 -0.000438375 0)
(0.332239 -0.00476111 0)
(0.325316 -0.00981917 0)
(0.318732 -0.0156721 0)
(0.312601 -0.0223815 0)
(0.307042 -0.0299842 0)
(0.30218 -0.0384946 0)
(0.298139 -0.0479049 0)
(0.295036 -0.0581904 0)
(0.292941 -0.0693029 0)
(0.29203 -0.0811935 0)
(0.29246 -0.0938439 0)
(0.294305 -0.107192 0)
(0.297597 -0.121139 0)
(0.302451 -0.135654 0)
(0.309006 -0.150641 0)
(0.317356 -0.165991 0)
(0.327362 -0.181307 0)
(0.338323 -0.195787 0)
(0.350153 -0.208344 0)
(0.358457 -0.216784 0)
(0.363346 -0.220034 0)
(0.368356 -0.222562 0)
(0.358637 -0.213749 0)
(0.348041 -0.204862 0)
(0.543374 0.04348 0)
(0.535498 0.0459333 0)
(0.527533 0.0473841 0)
(0.519585 0.0479235 0)
(0.511772 0.0477011 0)
(0.504166 0.0468672 0)
(0.496776 0.0455373 0)
(0.489608 0.0438725 0)
(0.482652 0.0419876 0)
(0.475896 0.0399972 0)
(0.469309 0.0379948 0)
(0.462848 0.0360469 0)
(0.456479 0.0342037 0)
(0.45016 0.0325075 0)
(0.443848 0.0309812 0)
(0.437506 0.0295968 0)
(0.431115 0.0284366 0)
(0.424623 0.0273811 0)
(0.418009 0.0265303 0)
(0.411263 0.0256723 0)
(0.404354 0.0249653 0)
(0.397291 0.0241549 0)
(0.390066 0.0233513 0)
(0.382667 0.0224045 0)
(0.3751 0.0212498 0)
(0.367374 0.0198068 0)
(0.35951 0.0179844 0)
(0.35154 0.0156882 0)
(0.343512 0.0128224 0)
(0.335487 0.00929307 0)
(0.327532 0.0050137 0)
(0.319758 -0.000139748 0)
(0.312283 -0.00624608 0)
(0.305199 -0.0133029 0)
(0.298652 -0.0213633 0)
(0.292789 -0.0304618 0)
(0.287761 -0.0405984 0)
(0.283703 -0.0517469 0)
(0.280707 -0.0638531 0)
(0.278924 -0.0768372 0)
(0.278529 -0.0907206 0)
(0.279624 -0.105384 0)
(0.282264 -0.120791 0)
(0.28651 -0.136853 0)
(0.292515 -0.153505 0)
(0.300278 -0.170475 0)
(0.309475 -0.18696 0)
(0.318532 -0.201727 0)
(0.326668 -0.211816 0)
(0.329712 -0.219021 0)
(0.322166 -0.215002 0)
(0.315252 -0.211128 0)
(0.310078 -0.207868 0)
(0.304976 -0.199329 0)
(0.54202 0.0569927 0)
(0.533862 0.0594824 0)
(0.525644 0.0607678 0)
(0.517464 0.0609989 0)
(0.509446 0.0603662 0)
(0.501675 0.059026 0)
(0.49418 0.0571565 0)
(0.486975 0.054928 0)
(0.480044 0.0524882 0)
(0.473377 0.0499736 0)
(0.466929 0.0474831 0)
(0.460647 0.0451054 0)
(0.454491 0.0428977 0)
(0.448408 0.040902 0)
(0.442314 0.0391434 0)
(0.436206 0.0376323 0)
(0.430048 0.0363573 0)
(0.423755 0.0353158 0)
(0.417279 0.0344605 0)
(0.410638 0.0337779 0)
(0.403771 0.0331363 0)
(0.396688 0.0326237 0)
(0.389407 0.0320212 0)
(0.381821 0.0313713 0)
(0.373999 0.0305166 0)
(0.365926 0.0293798 0)
(0.357611 0.0278566 0)
(0.349082 0.0258348 0)
(0.340386 0.0231986 0)
(0.331586 0.0198308 0)
(0.322766 0.0156173 0)
(0.314025 0.0104553 0)
(0.305478 0.00425575 0)
(0.297308 -0.00311755 0)
(0.289659 -0.0116649 0)
(0.282661 -0.021355 0)
(0.276501 -0.0322325 0)
(0.271347 -0.0442753 0)
(0.267325 -0.0574199 0)
(0.264541 -0.0715636 0)
(0.26321 -0.0867201 0)
(0.263473 -0.102783 0)
(0.265322 -0.11968 0)
(0.268868 -0.13738 0)
(0.27418 -0.155688 0)
(0.281196 -0.174006 0)
(0.288614 -0.190747 0)
(0.294852 -0.203933 0)
(0.294558 -0.210497 0)
(0.288378 -0.209643 0)
(0.276885 -0.205417 0)
(0.266185 -0.196464 0)
(0.262882 -0.193837 0)
(0.263988 -0.193366 0)
(0.535304 0.0705561 0)
(0.527725 0.073161 0)
(0.519945 0.0743414 0)
(0.512131 0.0742838 0)
(0.504426 0.073219 0)
(0.49692 0.0713473 0)
(0.489687 0.0688955 0)
(0.482747 0.066054 0)
(0.476108 0.0630125 0)
(0.46975 0.0599183 0)
(0.463634 0.0568988 0)
(0.457706 0.0540479 0)
(0.451908 0.0514477 0)
(0.446182 0.0491368 0)
(0.440464 0.0471324 0)
(0.434693 0.045492 0)
(0.428832 0.0441389 0)
(0.422811 0.0431176 0)
(0.416587 0.0423314 0)
(0.410076 0.0418122 0)
(0.403338 0.0413618 0)
(0.396307 0.0411376 0)
(0.388923 0.040863 0)
(0.381238 0.0405586 0)
(0.373145 0.0401013 0)
(0.364708 0.0393779 0)
(0.355911 0.0382659 0)
(0.346778 0.0366336 0)
(0.33735 0.034344 0)
(0.327693 0.0312572 0)
(0.317894 0.0272329 0)
(0.308066 0.0221336 0)
(0.298352 0.015839 0)
(0.288908 0.00826896 0)
(0.279946 -0.000677682 0)
(0.271704 -0.0110505 0)
(0.264264 -0.0227009 0)
(0.257865 -0.0356743 0)
(0.252686 -0.0499041 0)
(0.248806 -0.0652816 0)
(0.246422 -0.0817582 0)
(0.245734 -0.0992756 0)
(0.246719 -0.11775 0)
(0.249436 -0.137098 0)
(0.253976 -0.156976 0)
(0.259757 -0.17594 0)
(0.264046 -0.19162 0)
(0.263083 -0.20059 0)
(0.254262 -0.201676 0)
(0.238816 -0.194358 0)
(0.228808 -0.189603 0)
(0.226207 -0.186432 0)
(0.226716 -0.187725 0)
(0.230733 -0.191241 0)
(0.519827 0.082943 0)
(0.513971 0.0858931 0)
(0.507713 0.0871334 0)
(0.501232 0.0869283 0)
(0.494675 0.0855393 0)
(0.488185 0.0832341 0)
(0.481852 0.080253 0)
(0.475732 0.076833 0)
(0.469848 0.0731974 0)
(0.464203 0.0695267 0)
(0.458764 0.0659725 0)
(0.453487 0.0626507 0)
(0.448318 0.0596547 0)
(0.443173 0.0570358 0)
(0.438009 0.0548396 0)
(0.432752 0.0530333 0)
(0.427353 0.0516844 0)
(0.421739 0.0506797 0)
(0.415824 0.0500618 0)
(0.409562 0.0496788 0)
(0.402986 0.0496334 0)
(0.396049 0.049621 0)
(0.388634 0.0498364 0)
(0.380789 0.0499783 0)
(0.372455 0.0500208 0)
(0.363628 0.0498246 0)
(0.354306 0.0492472 0)
(0.344508 0.0481353 0)
(0.334274 0.0463281 0)
(0.323666 0.0436577 0)
(0.312771 0.0399511 0)
(0.301713 0.0350354 0)
(0.290653 0.0287523 0)
(0.279796 0.020976 0)
(0.269355 0.0116445 0)
(0.259576 0.000718407 0)
(0.250798 -0.0118579 0)
(0.243026 -0.0258158 0)
(0.236551 -0.0411912 0)
(0.231469 -0.0578791 0)
(0.227972 -0.0757542 0)
(0.226267 -0.0947986 0)
(0.22633 -0.114915 0)
(0.228189 -0.135938 0)
(0.231731 -0.156944 0)
(0.234995 -0.175331 0)
(0.233039 -0.187761 0)
(0.221277 -0.190306 0)
(0.205209 -0.183596 0)
(0.194581 -0.177944 0)
(0.189984 -0.175885 0)
(0.190435 -0.180253 0)
(0.194838 -0.187327 0)
(0.201557 -0.194886 0)
(0.4927 0.092764 0)
(0.489816 0.0963893 0)
(0.486219 0.097973 0)
(0.482187 0.0978681 0)
(0.477851 0.0964094 0)
(0.473332 0.0938746 0)
(0.468754 0.0905358 0)
(0.464221 0.0866714 0)
(0.459787 0.0825376 0)
(0.455466 0.0783623 0)
(0.451247 0.0743302 0)
(0.447099 0.0705907 0)
(0.442966 0.067244 0)
(0.438793 0.0643667 0)
(0.434477 0.0619993 0)
(0.43 0.060149 0)
(0.425284 0.0587999 0)
(0.420223 0.0579186 0)
(0.414774 0.0574545 0)
(0.40889 0.0574013 0)
(0.402516 0.0576882 0)
(0.395653 0.0582036 0)
(0.388269 0.0588469 0)
(0.380216 0.0596213 0)
(0.371563 0.060292 0)
(0.362273 0.0607628 0)
(0.352338 0.0608571 0)
(0.341779 0.0604061 0)
(0.330637 0.0592287 0)
(0.318969 0.0571263 0)
(0.306857 0.0538894 0)
(0.294428 0.0492967 0)
(0.281866 0.043138 0)
(0.269414 0.0352461 0)
(0.257352 0.0255219 0)
(0.245956 0.0139574 0)
(0.235517 0.00058656 0)
(0.226456 -0.0145853 0)
(0.218636 -0.0312178 0)
(0.212358 -0.0493142 0)
(0.207754 -0.0686899 0)
(0.205007 -0.0893423 0)
(0.204129 -0.111152 0)
(0.205106 -0.133702 0)
(0.206997 -0.154988 0)
(0.20478 -0.170914 0)
(0.191804 -0.176905 0)
(0.174059 -0.170525 0)
(0.161688 -0.163494 0)
(0.155983 -0.163574 0)
(0.156134 -0.170204 0)
(0.160464 -0.179871 0)
(0.167195 -0.190169 0)
(0.175251 -0.199494 0)
(0.453839 0.0994567 0)
(0.454496 0.103641 0)
(0.454144 0.105626 0)
(0.453339 0.105917 0)
(0.452067 0.104696 0)
(0.450392 0.102212 0)
(0.448444 0.098766 0)
(0.44634 0.0946713 0)
(0.444155 0.0902286 0)
(0.441924 0.0857131 0)
(0.439639 0.0813452 0)
(0.437266 0.0773103 0)
(0.434762 0.0737331 0)
(0.432051 0.0707112 0)
(0.42907 0.0682862 0)
(0.425733 0.0664777 0)
(0.421978 0.0652765 0)
(0.417714 0.064592 0)
(0.412897 0.0644798 0)
(0.407468 0.0648211 0)
(0.401358 0.0655959 0)
(0.394526 0.0667127 0)
(0.386978 0.0680627 0)
(0.378671 0.0695451 0)
(0.369503 0.0709606 0)
(0.359573 0.0722737 0)
(0.34885 0.0732041 0)
(0.33739 0.0735645 0)
(0.32523 0.073169 0)
(0.312417 0.0717902 0)
(0.299012 0.0691757 0)
(0.285128 0.065043 0)
(0.270966 0.0591144 0)
(0.256821 0.0511682 0)
(0.24304 0.0410739 0)
(0.22999 0.0288064 0)
(0.217976 0.0144584 0)
(0.207351 -0.0018675 0)
(0.198469 -0.0200172 0)
(0.191094 -0.0396463 0)
(0.185473 -0.0606271 0)
(0.181784 -0.082925 0)
(0.180078 -0.106409 0)
(0.179977 -0.129967 0)
(0.177927 -0.150149 0)
(0.165495 -0.160722 0)
(0.145271 -0.155618 0)
(0.130714 -0.147573 0)
(0.123756 -0.148455 0)
(0.123112 -0.157235 0)
(0.126968 -0.169755 0)
(0.133497 -0.182877 0)
(0.141444 -0.194877 0)
(0.150039 -0.20505 0)
(0.405664 0.10209 0)
(0.409381 0.107955 0)
(0.412317 0.110202 0)
(0.41503 0.11082 0)
(0.417135 0.10991 0)
(0.418739 0.107613 0)
(0.419976 0.10422 0)
(0.420957 0.100065 0)
(0.42174 0.0954918 0)
(0.422331 0.0908153 0)
(0.422705 0.0862945 0)
(0.422817 0.0821418 0)
(0.422597 0.0785189 0)
(0.421969 0.0755326 0)
(0.420804 0.0732517 0)
(0.419065 0.0716577 0)
(0.416585 0.070796 0)
(0.413335 0.070552 0)
(0.409249 0.0709957 0)
(0.404219 0.0719704 0)
(0.398233 0.0734401 0)
(0.391263 0.0753259 0)
(0.383315 0.0775519 0)
(0.374265 0.0799204 0)
(0.364332 0.0823173 0)
(0.353504 0.084476 0)
(0.341725 0.086344 0)
(0.329194 0.0875952 0)
(0.31596 0.0880797 0)
(0.302031 0.087578 0)
(0.287411 0.0857852 0)
(0.27216 0.0823022 0)
(0.256479 0.0767386 0)
(0.240714 0.068794 0)
(0.2253 0.0583021 0)
(0.210694 0.0452434 0)
(0.197321 0.0297285 0)
(0.185421 0.0120171 0)
(0.17559 -0.00775851 0)
(0.167531 -0.0290891 0)
(0.161254 -0.0518003 0)
(0.156852 -0.0757045 0)
(0.154446 -0.100483 0)
(0.15183 -0.123797 0)
(0.140964 -0.140011 0)
(0.119862 -0.139327 0)
(0.101724 -0.129595 0)
(0.0928632 -0.130372 0)
(0.0911457 -0.14121 0)
(0.0942966 -0.156578 0)
(0.100243 -0.172486 0)
(0.107699 -0.187227 0)
(0.115961 -0.200113 0)
(0.124609 -0.210897 0)
(0.355217 0.103277 0)
(0.359531 0.109686 0)
(0.363191 0.111933 0)
(0.36884 0.112627 0)
(0.374134 0.11187 0)
(0.379015 0.109721 0)
(0.383627 0.106397 0)
(0.388044 0.102253 0)
(0.392272 0.0976595 0)
(0.396254 0.0929684 0)
(0.399897 0.0884697 0)
(0.403108 0.084405 0)
(0.405771 0.0809639 0)