/*--------------------------------*- C++ -*----------------------------------*\
  =========                 |
  \\      /  F ield         | OpenFOAM: The Open Source CFD Toolbox
   \\    /   O peration     | Website:  https://openfoam.org
    \\  /    A nd           | Version:  10
     \\/     M anipulation  |
\*---------------------------------------------------------------------------*/
FoamFile
{
    format      ascii;
    class       volScalarField;
    location    "0.10055";
    object      p;
}
// * * * * * * * * * * * * * * * * * * * * * * * * * * * * * * * * * * * * * //

dimensions      [1 -1 -2 0 0 0 0];

internalField   nonuniform List<scalar> 
16320
(
0.459378
0.438616
0.418653
0.397234
0.377449
0.364112
0.358463
0.352375
0.347928
0.347792
0.350423
0.359738
0.372436
0.391955
0.441041
0.513379
0.608211
0.625438
0.524359
0.458164
0.417007
0.394287
0.390699
0.399716
0.418702
0.442748
0.482215
0.553175
0.61292
0.673129
0.71225
0.737799
0.711987
0.590032
0.478271
0.42347
0.406152
0.406798
0.414269
0.438318
0.461924
0.476551
0.468167
0.454747
0.447883
0.454677
0.47211
0.490667
0.502708
0.508222
0.509303
0.506088
0.498225
0.481444
0.461939
0.441048
0.41772
0.39984
0.374405
0.374518
0.403819
0.451754
0.502043
0.536541
0.562465
0.582285
0.60666
0.632689
0.662493
0.685984
0.704435
0.713764
0.714448
0.712901
0.70691
0.695857
0.711297
0.695928
0.660455
0.592286
0.455171
0.345284
0.273951
0.227652
0.201131
0.194127
0.204392
0.225097
0.245107
0.257426
0.27885
0.327478
0.415568
0.49216
0.535889
0.529824
0.491103
0.464385
0.45496
0.487612
0.585989
0.639368
0.594045
0.492205
0.451112
0.463372
0.516268
0.596969
0.699757
0.822591
0.94004
1.04329
1.12294
0.44999
0.431061
0.414167
0.39993
0.383329
0.372304
0.362654
0.357193
0.354388
0.353915
0.357253
0.364184
0.376267
0.403407
0.462366
0.571371
0.701342
0.687043
0.56209
0.487291
0.439018
0.408987
0.395572
0.396038
0.410692
0.427384
0.459338
0.529005
0.591822
0.658098
0.729205
0.78442
0.769336
0.629673
0.489565
0.422101
0.399115
0.393359
0.402403
0.433675
0.449378
0.429165
0.411598
0.415147
0.439149
0.454203
0.46792
0.484471
0.496491
0.503938
0.507274
0.506714
0.501516
0.489125
0.472187
0.45131
0.432409
0.405759
0.377133
0.376639
0.405768
0.454478
0.507752
0.545818
0.574362
0.596769
0.618081
0.641105
0.665006
0.686792
0.70575
0.713911
0.715822
0.715669
0.711251
0.707976
0.712253
0.702563
0.670034
0.599531
0.462841
0.352495
0.278576
0.230048
0.201981
0.19233
0.194572
0.205529
0.223648
0.2416
0.26176
0.290704
0.343915
0.437639
0.499615
0.498916
0.448634
0.416682
0.401085
0.424847
0.508584
0.590096
0.553277
0.496397
0.477005
0.502234
0.55601
0.625434
0.708163
0.808653
0.924933
1.02317
1.10431
0.440707
0.424803
0.411175
0.401297
0.393605
0.384623
0.37767
0.372965
0.3693
0.37203
0.374899
0.380984
0.394593
0.429889
0.507799
0.650362
0.777399
0.708992
0.581639
0.508932
0.458205
0.423359
0.404508
0.40098
0.409492
0.423006
0.45356
0.52348
0.596114
0.679165
0.785901
0.874396
0.879629
0.723786
0.530285
0.432888
0.397713
0.384731
0.40094
0.418591
0.424913
0.370838
0.346394
0.351457
0.411564
0.45974
0.463916
0.480543
0.493078
0.50222
0.507817
0.50938
0.50785
0.499076
0.485168
0.467245
0.448829
0.407922
0.378719
0.376365
0.404845
0.452784
0.507335
0.550495
0.583777
0.607262
0.626478
0.646395
0.667625
0.687944
0.703649
0.710305
0.714602
0.716371
0.712048
0.710726
0.71265
0.706121
0.678724
0.61245
0.471399
0.357684
0.281695
0.231567
0.201128
0.185817
0.178367
0.180452
0.190257
0.207043
0.231
0.248321
0.288197
0.367438
0.445023
0.45256
0.402063
0.369251
0.356305
0.378367
0.460804
0.568038
0.539269
0.522172
0.521595
0.559679
0.616377
0.67642
0.750809
0.830231
0.921003
1.01561
1.09774
0.431716
0.419766
0.409772
0.40337
0.400458
0.399005
0.397345
0.39694
0.399684
0.402385
0.408705
0.419804
0.437916
0.482296
0.581748
0.743388
0.815511
0.708534
0.589041
0.518575
0.469079
0.433849
0.412889
0.408324
0.413614
0.42499
0.453786
0.525459
0.615799
0.709927
0.82944
0.932126
0.966851
0.872878
0.627893
0.468809
0.406513
0.38631
0.394936
0.399496
0.38479
0.326128
0.299147
0.29808
0.357438
0.445011
0.453367
0.477174
0.491075
0.502352
0.510297
0.514461
0.514808
0.508756
0.495369
0.48139
0.456152
0.404113
0.369174
0.36253
0.388873
0.442229
0.504116
0.566846
0.598786
0.617393
0.634276
0.652442
0.672155
0.68894
0.702681
0.706244
0.711807
0.715944
0.712648
0.717457
0.720249
0.714514
0.690356
0.625871
0.479024
0.361881
0.284132
0.231853
0.198911
0.180006
0.169285
0.168178
0.174767
0.189816
0.210592
0.216861
0.242134
0.31959
0.389855
0.398445
0.356307
0.328711
0.323817
0.346519
0.429151
0.554253
0.562433
0.572738
0.592167
0.637993
0.694424
0.742699
0.807438
0.881311
0.955438
1.03036
1.10225
0.424107
0.416253
0.409832
0.40675
0.406209
0.408167
0.411679
0.414936
0.417524
0.428056
0.449819
0.484908
0.517439
0.576098
0.685457
0.810169
0.799598
0.682882
0.587056
0.520731
0.473682
0.441326
0.418985
0.414038
0.417396
0.428459
0.45355
0.524698
0.625056
0.734298
0.843635
0.922557
0.97537
0.968717
0.788162
0.553773
0.436461
0.393762
0.383932
0.374949
0.330613
0.283964
0.263063
0.264193
0.318767
0.393587
0.458959
0.473772
0.490694
0.50398
0.514396
0.521253
0.522965
0.517381
0.503732
0.489591
0.458992
0.393371
0.356199
0.349754
0.382113
0.44807
0.519735
0.579407
0.605385
0.622123
0.639972
0.658199
0.674413
0.688285
0.699943
0.703558
0.709301
0.715277
0.712141
0.722767
0.723895
0.720196
0.69679
0.634507
0.486021
0.366033
0.285904
0.231197
0.198084
0.177729
0.165629
0.163438
0.170056
0.185703
0.208758
0.209883
0.231766
0.290099
0.349231
0.354987
0.321567
0.298879
0.30611
0.342081
0.434583
0.557725
0.603473
0.647531
0.676062
0.714343
0.755288
0.806578
0.869454
0.943129
1.01389
1.07862
1.13189
0.417914
0.413849
0.411416
0.410962
0.412438
0.416183
0.422001
0.429159
0.438271
0.454841
0.490879
0.548241
0.599051
0.659208
0.75112
0.798896
0.735201
0.644388
0.570274
0.515807
0.475072
0.446378
0.423566
0.417654
0.418972
0.429825
0.451964
0.514336
0.621014
0.738157
0.847807
0.893589
0.940596
0.961394
0.917322
0.706077
0.512494
0.416338
0.37589
0.346961
0.286576
0.251672
0.240177
0.253242
0.308129
0.363012
0.41814
0.471014
0.49046
0.507198
0.520069
0.52884
0.532591
0.528137
0.516607
0.499688
0.452839
0.38358
0.35008
0.346234
0.382596
0.454704
0.528532
0.586243
0.607508
0.623776
0.64319
0.661346
0.676046
0.688398
0.697034
0.700749
0.706391
0.713409
0.710436
0.723232
0.723131
0.720325
0.698069
0.640421
0.494932
0.370667
0.287186
0.231601
0.198031
0.177257
0.16477
0.162427
0.169934
0.188146
0.213114
0.214444
0.235375
0.272508
0.316642
0.32269
0.300121
0.29162
0.308095
0.349535
0.453911
0.580747
0.668937
0.728056
0.753869
0.761537
0.785433
0.845762
0.919704
1.00172
1.07819
1.14054
1.17205
0.4132
0.412776
0.413755
0.416041
0.41962
0.424841
0.431839
0.441322
0.455393
0.480072
0.534005
0.598304
0.638524
0.680084
0.729239
0.713232
0.656014
0.600166
0.551004
0.510698
0.476
0.449726
0.427623
0.419845
0.419182
0.427957
0.449176
0.500583
0.607693
0.728206
0.839572
0.878615
0.907175
0.934122
0.934995
0.850247
0.664729
0.477125
0.378816
0.297525
0.246041
0.228602
0.229767
0.251227
0.305394
0.361148
0.402959
0.457503
0.491636
0.513569
0.530691
0.541716
0.545383
0.540713
0.527725
0.504161
0.450132
0.378164
0.347675
0.349662
0.397566
0.479059
0.546599
0.590544
0.605094
0.623853
0.643998
0.661362
0.675205
0.687269
0.693584
0.697492
0.70297
0.710249
0.708197
0.724928
0.723032
0.718101
0.696649
0.643331
0.502649
0.375144
0.288766
0.233426
0.198866
0.178011
0.165495
0.164182
0.174292
0.197993
0.208217
0.221429
0.243471
0.270936
0.294793
0.303593
0.296738
0.295211
0.3166
0.370086
0.491148
0.637199
0.748057
0.792606
0.791755
0.778655
0.796897
0.864888
0.953531
1.04401
1.13263
1.19851
1.20806
0.409279
0.412707
0.417082
0.422303
0.428076
0.434849
0.443376
0.455514
0.476144
0.51255
0.583135
0.616177
0.619713
0.632008
0.649356
0.627821
0.599932
0.572587
0.540346
0.508779
0.478506
0.45387
0.432305
0.42156
0.418771
0.424898
0.445268
0.486876
0.582393
0.709273
0.816109
0.871999
0.89607
0.913863
0.922405
0.904635
0.822217
0.621352
0.41012
0.283684
0.232229
0.220717
0.228918
0.274447
0.33038
0.380782
0.425692
0.467418
0.50057
0.527125
0.547036
0.558831
0.561826
0.554628
0.537089
0.506655
0.450689
0.381559
0.357135
0.370569
0.428368
0.503443
0.556361
0.588262
0.601612
0.621453
0.643184
0.659598
0.673845
0.683608
0.689977
0.693949
0.699336
0.706173
0.706327
0.713635
0.713299
0.709956
0.691472
0.643186
0.509398
0.380038
0.291997
0.236778
0.202158
0.181791
0.169824
0.168563
0.175508
0.198304
0.209003
0.225484
0.248519
0.27584
0.296257
0.303485
0.300161
0.305638
0.340046
0.41472
0.555439
0.714822
0.81634
0.828696
0.783022
0.749388
0.778596
0.878211
0.977074
1.07591
1.16562
1.23283
1.22891
0.405713
0.413566
0.421714
0.42994
0.437996
0.446678
0.457498
0.474065
0.504621
0.5558
0.597242
0.582747
0.567114
0.577681
0.593399
0.585239
0.575626
0.562081
0.537459
0.510581
0.482427
0.458329
0.436825
0.422722
0.417858
0.420332
0.435856
0.475125
0.559316
0.685029
0.797679
0.867058
0.89202
0.909782
0.920209
0.918557
0.896976
0.833113
0.526214
0.313217
0.241954
0.225321
0.235961
0.300545
0.367851
0.40999
0.455655
0.493354
0.524518
0.552401
0.572095
0.581864
0.581664
0.570137
0.546015
0.510779
0.455697
0.395009
0.376476
0.398917
0.461092
0.519858
0.560756
0.578958
0.59795
0.618482
0.640219
0.656693
0.671933
0.679348
0.685824
0.689743
0.695138
0.700973
0.702553
0.71257
0.71209
0.705625
0.686122
0.640781
0.515255
0.385888
0.297811
0.242154
0.207898
0.188104
0.176374
0.172744
0.175498
0.191399
0.206114
0.224456
0.248216
0.275428
0.298501
0.310324
0.315837
0.335357
0.388391
0.487675
0.641745
0.78222
0.815761
0.764196
0.717441
0.697889
0.760956
0.887629
1.0002
1.09957
1.17833
1.25095
1.2375
0.399316
0.413476
0.425967
0.437432
0.447411
0.457493
0.470013
0.490732
0.526648
0.559312
0.557705
0.541354
0.541231
0.555283
0.573542
0.573731
0.571709
0.563803
0.543043
0.517291
0.488907
0.464026
0.440901
0.42453
0.417315
0.4147
0.42162
0.459538
0.535501
0.661797
0.787653
0.864383
0.893879
0.914988
0.928381
0.936249
0.938812
0.942819
0.798732
0.413334
0.275409
0.243033
0.248405
0.314369
0.402917
0.451548
0.492821
0.528773
0.559717
0.586529
0.60317
0.609406
0.604631
0.586635
0.557351
0.517425
0.463941
0.410911
0.397559
0.419541
0.48001
0.52717
0.561248
0.572608
0.593995
0.615392
0.635746
0.652554
0.666673
0.674531
0.681068
0.685046
0.690413
0.694642
0.695253
0.701747
0.706218
0.702416
0.68507
0.641021
0.520873
0.39404
0.306263
0.250161
0.21592
0.196145
0.183828
0.175596
0.174453
0.183745
0.197246
0.217031
0.242717
0.271317
0.297388
0.316436
0.335215
0.372041
0.448532
0.573689
0.717322
0.760605
0.723153
0.68028
0.672211
0.671702
0.75539
0.894284
1.01628
1.11019
1.1836
1.25739
1.23946
0.386114
0.408675
0.426095
0.439834
0.450644
0.459788
0.469928
0.485694
0.504595
0.516333
0.521883
0.524265
0.539762
0.564009
0.5839
0.587075
0.58633
0.577003
0.55745
0.532835
0.502714
0.473316
0.444657
0.42793
0.417415
0.411583
0.414451
0.441283
0.507547
0.635758
0.778426
0.866023
0.902402
0.926917
0.944678
0.95686
0.961283
0.961172
0.980382
0.670754
0.361395
0.281992
0.27195
0.318356
0.418731
0.492089
0.535049
0.57004
0.599874
0.623925
0.636469
0.637851
0.627553
0.60336
0.568047
0.524839
0.471121
0.420509
0.408677
0.427682
0.487418
0.527769
0.553496
0.568985
0.590724
0.612023
0.63105
0.647204
0.660572
0.668968
0.675787
0.679823
0.685443
0.689537
0.69129
0.704728
0.704624
0.701352
0.68487
0.642783
0.528784
0.406298
0.317607
0.261282
0.225702
0.204032
0.187602
0.17666
0.173449
0.176265
0.184224
0.199846
0.224822
0.256604
0.288689
0.317774
0.348886
0.40333
0.49593
0.607457
0.656476
0.659242
0.647015
0.640159
0.650628
0.663946
0.769923
0.907088
1.02063
1.10286
1.17173
1.24082
1.22712
0.364924
0.392389
0.415687
0.430011
0.437187
0.43702
0.43602
0.440458
0.455953
0.486817
0.510585
0.538696
0.572866
0.598179
0.613388
0.615017
0.612933
0.600927
0.578467
0.550094
0.516748
0.485128
0.454174
0.435605
0.421251
0.403135
0.407643
0.428252
0.478581
0.584902
0.752551
0.866534
0.914193
0.943499
0.964023
0.976711
0.979926
0.980761
0.975166
0.86677
0.474524
0.316554
0.280405
0.312896
0.424211
0.538323
0.577514
0.613234
0.640786
0.659842
0.667643
0.664357
0.648286
0.617761
0.576943
0.528986
0.47345
0.423562
0.411856
0.424282
0.479496
0.519269
0.546813
0.566557
0.589026
0.609572
0.627065
0.641842
0.654196
0.663244
0.670219
0.674089
0.679562
0.682616
0.684827
0.702916
0.705411
0.702181
0.684933
0.643763
0.53815
0.422686
0.333426
0.275523
0.235284
0.206304
0.188528
0.17897
0.174072
0.171753
0.173796
0.181568
0.196921
0.220639
0.25119
0.287502
0.327392
0.383335
0.45346
0.517179
0.575127
0.600866
0.603488
0.631082
0.658235
0.682359
0.791583
0.912401
1.00831
1.08611
1.14828
1.20802
1.1996
0.340591
0.366432
0.38544
0.394037
0.391437
0.383924
0.382965
0.39744
0.43413
0.484656
0.531367
0.574034
0.614174
0.638717
0.650087
0.650347
0.646677
0.62879
0.602194
0.56919
0.531751
0.496687
0.463351
0.442637
0.42587
0.406056
0.407144
0.416294
0.448595
0.525376
0.682619
0.856484
0.925543
0.963509
0.986432
0.997765
0.999247
0.999565
1.00649
0.869766
0.440222
0.288692
0.260919
0.313396
0.424207
0.566201
0.628806
0.666111
0.683489
0.694454
0.696457
0.688212
0.665776
0.629747
0.583145
0.53021
0.472296
0.419288
0.398834
0.402424
0.454716
0.505258
0.543816
0.56593
0.589219
0.608786
0.624183
0.636802
0.648097
0.657481
0.664478
0.66804
0.673425
0.675908
0.674283
0.687213
0.69003
0.688611
0.675256
0.640764
0.550771
0.443993
0.355131
0.291684
0.239086
0.204883
0.189712
0.183669
0.175789
0.170753
0.169106
0.171408
0.178142
0.189138
0.204975
0.227036
0.257986
0.306223
0.382688
0.473379
0.54417
0.5728
0.608286
0.64287
0.67701
0.705948
0.802725
0.899902
0.977154
1.05861
1.12169
1.16662
1.15907
0.319829
0.339398
0.349888
0.349436
0.341458
0.338842
0.350311
0.384686
0.440116
0.50777
0.563064
0.612131
0.654146
0.675179
0.685359
0.686102
0.680221
0.658541
0.62771
0.589778
0.547646
0.506766
0.472697
0.448003
0.427461
0.403566
0.399481
0.404909
0.425563
0.478578
0.599403
0.81713
0.931188
0.983444
1.01122
1.02192
1.02166
1.01784
1.07487
0.829524
0.353692
0.247541
0.234137
0.308764
0.446499
0.599
0.677318
0.71147
0.72456
0.72945
0.724608
0.709895
0.681136
0.639179
0.584945
0.524256
0.463597
0.404927
0.368275
0.363071
0.405896
0.475316
0.53979
0.566822
0.591145
0.60962
0.622577
0.632564
0.64279
0.65193
0.658377
0.661949
0.66711
0.669822
0.668812
0.679064
0.681393
0.678971
0.665077
0.634235
0.560792
0.470299
0.381874
0.305067
0.238048
0.20353
0.19492
0.186425
0.177899
0.171968
0.168596
0.168031
0.169642
0.173094
0.180253
0.194855
0.223233
0.278634
0.372541
0.477773
0.544845
0.588448
0.627977
0.665308
0.698554
0.7233
0.806389
0.876518
0.94049
1.02401
1.08875
1.12234
1.12592
0.305184
0.315933
0.317706
0.311162
0.308387
0.316171
0.344416
0.395044
0.462751
0.536419
0.593976
0.647583
0.688503
0.708199
0.717184
0.718799
0.711721
0.687702
0.653608
0.610925
0.562675
0.513358
0.482884
0.453908
0.428452
0.402071
0.391135
0.392174
0.403403
0.438175
0.525589
0.715952
0.92443
1.00045
1.03872
1.05165
1.05051
1.0399
1.09813
0.86365
0.346297
0.226913
0.223738
0.309129
0.504768
0.666137
0.728849
0.756752
0.767153
0.765831
0.753514
0.73085
0.69398
0.642725
0.581128
0.512822
0.44592
0.376562
0.332207
0.321995
0.351369
0.433027
0.53091
0.575092
0.592412
0.610857
0.621883
0.629778
0.638904
0.647478
0.651328
0.655705
0.660639
0.664455
0.663733
0.670812
0.67246
0.669467
0.655063
0.628504
0.573641
0.502876
0.410665
0.308144
0.235745
0.209885
0.199044
0.188953
0.180228
0.174163
0.170359
0.168455
0.167708
0.168598
0.174106
0.18881
0.223108
0.297372
0.406784
0.504875
0.567431
0.614656
0.656105
0.690512
0.718781
0.73561
0.805739
0.855882
0.913795
0.990895
1.04961
1.07831
1.08863
0.29516
0.297328
0.291979
0.28897
0.292963
0.314096
0.355937
0.41586
0.487642
0.562733
0.620744
0.675174
0.711542
0.729587
0.7401
0.742634
0.736353
0.712816
0.67817
0.632038
0.575039
0.524192
0.491873
0.460424
0.431999
0.407342
0.390748
0.382535
0.38715
0.406382
0.463923
0.605512
0.881137
1.01866
1.06886
1.0878
1.08598
1.06975
1.08154
0.971147
0.433233
0.235093
0.221617
0.300574
0.550521
0.752968
0.780849
0.8082
0.814136
0.805333
0.785338
0.753903
0.706942
0.646918
0.574721
0.492005
0.410022
0.338234
0.305121
0.298908
0.31753
0.378512
0.501185
0.576373
0.593764
0.611112
0.621397
0.627994
0.635781
0.641725
0.644955
0.649339
0.653997
0.657552
0.656991
0.659654
0.660135
0.656505
0.642616
0.625451
0.594805
0.542583
0.437646
0.30589
0.235729
0.215915
0.202087
0.19115
0.182584
0.176581
0.172678
0.169995
0.168566
0.16999
0.17765
0.197091
0.243534
0.334093
0.445674
0.535756
0.600305
0.645995
0.684344
0.714542
0.736053
0.745545
0.806394
0.842702
0.895879
0.966165
1.01447
1.04117
1.05573
0.28793
0.281494
0.2772
0.277847
0.292213
0.324767
0.374554
0.437575
0.508421
0.580848
0.635355
0.689613
0.723698
0.740104
0.750263
0.752501
0.748304
0.728448
0.697273
0.651862
0.58838
0.53738
0.500347
0.466503
0.435569
0.409977
0.389674
0.376052
0.376529
0.388108
0.42668
0.529247
0.765088
1.02456
1.10504
1.12688
1.11709
1.08386
1.06321
1.00525
0.679284
0.288482
0.232715
0.289501
0.532226
0.852719
0.840661
0.864018
0.863692
0.847426
0.821689
0.780059
0.724157
0.652703
0.551921
0.444987
0.35501
0.305537
0.289761
0.289099
0.303774
0.349089
0.468604
0.563963
0.59821
0.607607
0.619148
0.625804
0.632603
0.634708
0.638504
0.642909
0.647371
0.650796
0.651428
0.654485
0.654266
0.649963
0.638499
0.628791
0.621086
0.585976
0.455671
0.301415
0.241517
0.221614
0.205284
0.193526
0.184891
0.178818
0.174664
0.171641
0.170835
0.17445
0.185885
0.212814
0.274035
0.376017
0.486152
0.572623
0.629409
0.674902
0.709006
0.736822
0.751727
0.761445
0.806846
0.835649
0.885934
0.94347
0.982235
1.00154
1.00859
0.280113
0.271227
0.268984
0.276853
0.300837
0.340839
0.393913
0.455755
0.522498
0.588432
0.641172
0.696201
0.72903
0.744055
0.751749
0.751556
0.747101
0.73022
0.704984
0.664087
0.601761
0.552086
0.50979
0.473112
0.438883
0.411184
0.387687
0.370642
0.362072
0.369267
0.395979
0.470413
0.659265
1.01611
1.1577
1.16708
1.14564
1.10405
1.06522
1.01884
0.873274
0.452922
0.286696
0.294765
0.423565
0.910964
0.917343
0.923227
0.912167
0.890447
0.865196
0.814465
0.741902
0.626242
0.481665
0.368182
0.310974
0.288234
0.281916
0.285687
0.299462
0.340484
0.454081
0.543015
0.592716
0.60484
0.615096
0.622279
0.625977
0.62857
0.631992
0.636222
0.640305
0.642648
0.644184
0.64618
0.646848
0.645703
0.638927
0.640925
0.648945
0.628807
0.467689
0.298976
0.249819
0.225124
0.207819
0.195982
0.187126
0.180683
0.175931
0.173587
0.174463
0.181249
0.198588
0.237591
0.314213
0.416377
0.517267
0.595449
0.652809
0.697721
0.729588
0.755462
0.767505
0.777457
0.811565
0.834035
0.872701
0.91445
0.94413
0.955631
0.960424
0.274063
0.266086
0.266339
0.282459
0.313816
0.357812
0.410806
0.468943
0.528698
0.589784
0.641976
0.698259
0.729966
0.741292
0.74577
0.743188
0.739082
0.723987
0.701052
0.664105
0.610232
0.563308
0.517375
0.474744
0.43781
0.408136
0.382721
0.362486
0.349672
0.354586
0.374078
0.431535
0.595687
0.975993
1.20893
1.19659
1.15694
1.11018
1.04828
1.03517
0.892201
0.518303
0.318617
0.307954
0.378939
0.739739
1.07417
0.998624
0.958092
0.938952
0.911261
0.843573
0.709412
0.522354
0.378856
0.313682
0.289061
0.280784
0.279271
0.289519
0.305025
0.34508
0.452054
0.526221
0.568542
0.593541
0.607078
0.6154
0.618809
0.621798
0.625008
0.62898
0.632754
0.634579
0.643706
0.645928
0.644779
0.64501
0.644905
0.657437
0.679552
0.665432
0.476761
0.300705
0.260579
0.229011
0.210411
0.198191
0.188971
0.18184
0.177151
0.175998
0.179652
0.191162
0.217604
0.270695
0.351247
0.445202
0.540944
0.615354
0.671424
0.713889
0.744218
0.76886
0.781067
0.789603
0.817434
0.835113
0.857576
0.87529
0.894077
0.899494
0.89578
0.271871
0.263892
0.268803
0.291426
0.327454
0.372864
0.423716
0.476087
0.529273
0.585437
0.63595
0.692279
0.723227
0.730753
0.732497
0.72544
0.720649
0.707632
0.689339
0.657312
0.610046
0.566327
0.519341
0.47486
0.435595
0.402245
0.375529
0.355247
0.338373
0.338559
0.351036
0.397516
0.543152
0.922611
1.24409
1.20649
1.15289
1.11101
1.04697
1.02301
0.851769
0.47626
0.324656
0.315953
0.366491
0.606972
1.07448
1.0812
1.006
0.990054
0.948058
0.806993
0.571999
0.390765
0.314177
0.288199
0.280229
0.278745
0.281662
0.298037
0.319057
0.365062
0.463144
0.521524
0.551415
0.579274
0.597802
0.609206
0.611178
0.614291
0.6174
0.621176
0.624655
0.625373
0.639681
0.643975
0.644962
0.648
0.654735
0.675822
0.71025
0.694388
0.481993
0.315147
0.270624
0.23256
0.212688
0.19978
0.18989
0.182217
0.178913
0.179606
0.187278
0.205744
0.243367
0.302075
0.37594
0.46753
0.556753
0.626672
0.67998
0.720749
0.750497
0.77453
0.786668
0.791907
0.814479
0.823829
0.826692
0.815801
0.81974
0.813527
0.809945
0.273143
0.264374
0.273134
0.300587
0.339116
0.384032
0.431347
0.478098
0.52514
0.574863
0.622624
0.677531
0.708408
0.714763
0.714706
0.702754
0.696033
0.682566
0.666395
0.640064
0.603572
0.563455
0.517634
0.473363
0.432757
0.397785
0.369888
0.34802
0.329625
0.325096
0.335507
0.376685
0.512688
0.890233
1.25698
1.18942
1.13616
1.1112
1.0714
1.0168
0.706596
0.393045
0.326387
0.332331
0.38806
0.575343
0.944785
1.14352
1.06899
1.03335
0.911713
0.630786
0.407781
0.316136
0.287101
0.278775
0.277689
0.281415
0.287735
0.307916
0.335857
0.387662
0.477398
0.526975
0.548474
0.572588
0.589806
0.600644
0.603867
0.6064
0.609589
0.613463
0.617098
0.61739
0.631524
0.635313
0.638848
0.647095
0.662584
0.69312
0.736784
0.713658
0.486389
0.335644
0.278536
0.235613
0.214189
0.200502
0.189946
0.183014
0.181123
0.185135
0.197802
0.224518
0.267521
0.324341
0.401423
0.485475
0.564667
0.62993
0.681258
0.72175
0.751549
0.775023
0.786209
0.786887
0.798959
0.798209
0.788791
0.773632
0.750577
0.731346
0.720648
0.277019
0.266384
0.277267
0.307469
0.346664
0.390024
0.433857
0.476519
0.517915
0.561304
0.604496
0.656021
0.688127
0.694494
0.692754
0.677909
0.668799
0.65479
0.637475
0.614011
0.587697
0.554682
0.512478
0.469043
0.428542
0.393434
0.365105
0.342089
0.322857
0.316663
0.326212
0.364751
0.495254
0.869024
1.25395
1.15283
1.09806
1.10384
1.06214
0.996346
0.535611
0.360106
0.339664
0.354856
0.416962
0.570342
0.852663
1.13588
1.09455
0.979721
0.689739
0.431167
0.32164
0.286939
0.277394
0.276002
0.279863
0.28706
0.295158
0.31767
0.352407
0.407386
0.484273
0.527922
0.54788
0.56887
0.584595
0.594003
0.595901
0.598624
0.602008
0.606338
0.610767
0.612806
0.624358
0.629049
0.635724
0.64909
0.673107
0.710738
0.758737
0.724985
0.493962
0.366022
0.288186
0.238297
0.214764
0.200259
0.189668
0.184726
0.184696
0.192508
0.210973
0.244653
0.289776
0.351638
0.423682
0.497752
0.56605
0.627014
0.675907
0.715472
0.746184
0.768266
0.777311
0.778065
0.777837
0.765603
0.746461
0.728406
0.704354
0.690376
0.681429
0.28382
0.269837
0.279592
0.310022
0.349148
0.390905
0.432525
0.472379
0.509529
0.546844
0.584266
0.629746
0.663466
0.672172
0.667016
0.652406
0.641015
0.626412
0.608085
0.586918
0.566107
0.539023
0.50181
0.461103
0.422282
0.388028
0.359751
0.336192
0.317153
0.309698
0.318659
0.35569
0.48346
0.853855
1.23495
1.11399
1.06081
1.07123
1.04561
0.958947
0.532612
0.373675
0.363072
0.381307
0.443881
0.581058
0.814222
1.05356
0.998881
0.743578
0.467263
0.334708
0.290424
0.277349
0.27468
0.277611
0.2842
0.292841
0.302387
0.325699
0.369287
0.427154
0.489364
0.526654
0.547878
0.56608
0.579997
0.587908
0.587876
0.591217
0.595088
0.600102
0.605292
0.608871
0.614171
0.619228
0.628941
0.64892
0.681852
0.726769
0.77231
0.734069
0.511355
0.391867
0.297834
0.240714
0.214741
0.199347
0.190105
0.187045
0.189638
0.201331
0.22639
0.266848
0.314309
0.376685
0.441602
0.503644
0.562352
0.616738
0.663467
0.701874
0.733454
0.754332
0.762988
0.7664
0.751537
0.732479
0.70604
0.684695
0.661947
0.652912
0.646979
0.292934
0.273758
0.279073
0.30915
0.347844
0.388718
0.428708
0.466318
0.49993
0.532728
0.565012
0.604048
0.635707
0.646207
0.641895
0.62625
0.612353
0.596571
0.577828
0.558731
0.542044
0.519165
0.486522
0.4495
0.413261
0.380192
0.352824
0.329204
0.310522
0.302559
0.31165
0.349767
0.481503
0.859113
1.20495
1.0707
1.01614
0.99326
0.983342
0.905801
0.644256
0.453469
0.398634
0.406078
0.456761
0.590302
0.830237
0.967212
0.818619
0.53963
0.367556
0.301782
0.280513
0.275025
0.275934
0.280927
0.287976
0.297149
0.308656
0.330768
0.381532
0.450173
0.500352
0.528036
0.547527
0.56351
0.575265
0.580604
0.581518
0.584637
0.588897
0.594484
0.600131
0.604891
0.605902
0.609509
0.62114
0.644769
0.68534
0.738113
0.77715
0.740472
0.540829
0.415296
0.308339
0.243424
0.214586
0.198975
0.191394
0.189968
0.195811
0.212681
0.244465
0.287612
0.339294
0.398088
0.454883
0.507024
0.556012
0.602703
0.646356
0.682903
0.714566
0.736173
0.745242
0.748511
0.726663
0.70389
0.673689
0.647042
0.62201
0.617158
0.614301
0.304153
0.277413
0.277125
0.304775
0.342687
0.382319
0.421413
0.457647
0.489536
0.519576
0.548453
0.582748
0.610505
0.620454
0.617445
0.599355
0.582266
0.564661
0.545611
0.528456
0.514726
0.495248
0.466968
0.433483
0.400325
0.370912
0.343252
0.32117
0.304205
0.297251
0.30625
0.346899
0.486903
0.878275
1.1765
1.01828
0.977681
0.950997
0.947674
0.88913
0.74925
0.532006
0.442579
0.443576
0.480006
0.596862
0.840776
0.907023
0.689115
0.446553
0.331692
0.290688
0.278074
0.275741
0.27899
0.28444
0.291883
0.301608
0.314449
0.333812
0.386047
0.463241
0.516505
0.532396
0.548379
0.561289
0.571592
0.5733
0.575595
0.578492
0.583073
0.589224
0.595098
0.600281
0.602268
0.606871
0.620641
0.648219
0.69137
0.745289
0.776059
0.744921
0.574414
0.44264
0.323657
0.247388
0.214582
0.199568
0.193952
0.194004
0.203424
0.226557
0.264817
0.306141
0.361886
0.416718
0.465633
0.508575
0.548809
0.588494
0.627217
0.66175
0.692617
0.715384
0.724549
0.726457
0.703845
0.677718
0.643347
0.609909
0.587521
0.578732
0.578649
0.319659
0.280248
0.275429
0.294302
0.334409
0.372168
0.411126
0.447327
0.47816
0.50717
0.534751
0.566696
0.590831
0.598863
0.595425
0.573761
0.552433
0.532006
0.512118
0.495864
0.48435
0.467373
0.44279
0.413378
0.383332
0.356581
0.330619
0.309091
0.292575
0.288349
0.298095
0.343391
0.500378
0.911166
1.14891
0.967347
0.944145
0.92655
0.914709
0.868541
0.758316
0.555611
0.483122
0.486388
0.526614
0.633276
0.840093
0.86474
0.618167
0.406335
0.317508
0.286671
0.278052
0.278038
0.282199
0.28784
0.29544
0.305396
0.318831
0.33588
0.386426
0.46626
0.523916
0.543364
0.550302
0.559285
0.567051
0.567866
0.570188
0.573139
0.577698
0.583967
0.589518
0.594621
0.599144
0.605132
0.620621
0.651642
0.694472
0.74493
0.771876
0.746907
0.608307
0.475495
0.342884
0.252688
0.215469
0.201198
0.197184
0.199201
0.212528
0.240987
0.282563
0.327207
0.381615
0.431574
0.473032
0.509435
0.543037
0.576238
0.609618
0.641718
0.671184
0.69455
0.70387
0.704483
0.684173
0.652563
0.612683
0.575326
0.550846
0.539072
0.543195
0.335354
0.28167
0.271714
0.282758
0.324594
0.360527
0.399697
0.436164
0.466597
0.495517
0.523543
0.554761
0.575928
0.582229
0.576881
0.551239
0.525153
0.501196
0.47946
0.462265
0.451801
0.436343
0.414842
0.390031
0.363144
0.338349
0.314807
0.295339
0.280109
0.278835
0.289702
0.339998
0.516323
0.946683
1.10776
0.935113
0.915664
0.923625
0.906262
0.850862
0.694265
0.539506
0.511911
0.519961
0.558157
0.656223
0.829768
0.828538
0.566378
0.380466
0.308722
0.284732
0.278699
0.281027
0.285347
0.291135
0.298696
0.308398
0.321551
0.337865
0.382677
0.463633
0.528582
0.545248
0.551999
0.557568
0.561006
0.562679
0.565046
0.568364
0.573039
0.578237
0.582589
0.586016
0.593274
0.600058
0.618683
0.656757
0.697717
0.741256
0.768756
0.745492
0.643094
0.514227
0.366249
0.259836
0.217709
0.203698
0.200708
0.205256
0.222454
0.255186
0.297461
0.345538
0.397631
0.441887
0.478846
0.510509
0.539685
0.568497
0.597786
0.62656
0.654188
0.677176
0.685955
0.685779
0.666472
0.626864
0.577668
0.535837
0.510637
0.499155
0.505666
0.349327
0.279939
0.265245
0.277174
0.314817
0.35027
0.39025
0.426871
0.457514
0.48633
0.514918
0.545752
0.565636
0.570673
0.561301
0.532989
0.502333
0.47437
0.449445
0.430836
0.419124
0.404062
0.38447
0.362976
0.340049
0.316115
0.296075
0.278791
0.265755
0.267282
0.280222
0.336999
0.534437
0.983882
1.06262
0.909896
0.887393
0.911041
0.874165
0.790673
0.585365
0.529105
0.524332
0.542129
0.596121
0.681753
0.832098
0.792526
0.517678
0.357952
0.300724
0.282811
0.27931
0.283279
0.28834
0.294524
0.30234
0.312257
0.325058
0.339941
0.379957
0.454692
0.524646
0.543574
0.548418
0.551614
0.554429
0.556954
0.5601
0.563721
0.567863
0.571783
0.574442
0.5747
0.586482
0.597417
0.619174
0.659238
0.697076
0.734457
0.761837
0.740807
0.67482
0.556777
0.396757
0.270139
0.221459
0.206756
0.204428
0.211297
0.232309
0.268865
0.308301
0.359661
0.408476
0.449621
0.483756
0.512483
0.538809
0.565236
0.592309
0.618832
0.643732
0.663737
0.671709
0.670863
0.648434
0.598665
0.538532
0.494859
0.470507
0.459191
0.46357
0.383386
0.281997
0.260284
0.277595
0.3057
0.345612
0.385569
0.421444
0.452559
0.480982
0.509759
0.539486
0.558589
0.563069
0.550334
0.519283
0.484687
0.452417
0.423178
0.402382
0.387787
0.372006
0.35346
0.334451
0.314163
0.295157
0.277989
0.262521
0.251538
0.254499
0.270837
0.335643
0.563607
1.01951
1.01645
0.87991
0.854476
0.873552
0.825195
0.734774
0.571591
0.530091
0.534232
0.557727
0.612901
0.688621
0.824569
0.743052
0.471468
0.337779
0.293468
0.280539
0.279769
0.284575
0.29032
0.297443
0.305879
0.316384
0.329497
0.344837
0.380497
0.44776
0.510705
0.533605
0.540966
0.541231
0.545778
0.550404
0.555078
0.559135
0.561964
0.564521
0.565411
0.563195
0.570244
0.58283
0.607548
0.648696
0.685324
0.719276
0.753415
0.736206
0.695805
0.605355
0.432387
0.28311
0.226045
0.209965
0.20788
0.21671
0.240661
0.278752
0.318571
0.369028
0.416366
0.455222
0.487741
0.515349
0.540455
0.56515
0.590931
0.616303
0.63979
0.656
0.661723
0.658922
0.628878
0.567297
0.499244
0.455125
0.432496
0.424319
0.43083
0.43984
0.290104
0.261033
0.280018
0.304337
0.345445
0.38394
0.419343
0.450643
0.478797
0.507705
0.535981
0.553977
0.557358
0.542115
0.509071
0.471412
0.435811
0.401389
0.377545
0.359011
0.341197
0.323664
0.305797
0.288688
0.271612
0.256851
0.244496
0.237884
0.24185
0.262015
0.339908
0.606524
1.04239
0.970732
0.850605
0.833069