/*--------------------------------*- C++ -*----------------------------------*\
  =========                 |
  \\      /  F ield         | OpenFOAM: The Open Source CFD Toolbox
   \\    /   O peration     | Website:  https://openfoam.org
    \\  /    A nd           | Version:  10
     \\/     M anipulation  |
\*---------------------------------------------------------------------------*/
FoamFile
{
    format      ascii;
    class       volScalarField;
    location    "0.10055";
    object      rho;
}
// * * * * * * * * * * * * * * * * * * * * * * * * * * * * * * * * * * * * * //

dimensions      [1 -3 0 0 0 0 0];

internalField   nonuniform List<scalar> 
16320
(
0.275886
0.28097
0.303586
0.364044
0.492145
0.561838
0.545324
0.476651
0.480014
0.625491
0.699468
0.709374
0.620624
0.435687
0.356827
0.39208
0.513868
0.603805
0.568997
0.524391
0.480095
0.411365
0.328752
0.282393
0.249321
0.246384
0.414999
0.565066
0.635177
0.545634
0.433318
0.428746
0.419929
0.370502
0.319748
0.294031
0.287513
0.310119
0.439104
0.827091
1.11892
1.19308
1.10149
0.797982
0.417152
0.188291
0.150728
0.143327
0.143413
0.145287
0.154383
0.191473
0.255569
0.279694
0.280572
0.283751
0.367964
0.618654
0.662896
0.675207
0.644337
0.523271
0.354554
0.222258
0.167339
0.138913
0.133658
0.136781
0.147059
0.168643
0.184532
0.173903
0.144586
0.134982
0.136519
0.173469
0.602931
1.13203
1.33758
1.30307
1.09528
0.899609
0.760666
0.666586
0.609722
0.59221
0.613586
0.659197
0.707982
0.730789
0.765009
0.824616
0.815052
0.788424
0.873036
0.901466
0.838317
0.939538
0.929006
0.89608
0.972482
1.01565
0.983412
0.845697
0.965357
1.11988
1.26735
1.26
1.29099
1.51692
1.74364
1.86115
1.82202
0.270291
0.268144
0.272367
0.296325
0.369893
0.469982
0.49995
0.466688
0.457115
0.533039
0.632107
0.663666
0.615666
0.495468
0.413037
0.479363
0.607457
0.65526
0.603125
0.549317
0.498695
0.431025
0.33963
0.285955
0.250538
0.244634
0.454093
0.649916
0.735276
0.682048
0.488249
0.455506
0.443844
0.387118
0.324646
0.296513
0.3022
0.386411
0.682177
1.04434
1.20883
1.17385
1.1134
0.923643
0.569369
0.249507
0.152988
0.14028
0.141851
0.144667
0.154684
0.191734
0.255891
0.283988
0.290449
0.313575
0.436668
0.640835
0.666317
0.656038
0.584865
0.453595
0.308868
0.205147
0.15958
0.13953
0.13462
0.138427
0.153547
0.183291
0.190973
0.166473
0.138771
0.134534
0.13982
0.198113
0.629744
1.14652
1.35439
1.31807
1.10534
0.911117
0.769009
0.670652
0.610156
0.5898
0.593132
0.616064
0.656149
0.69251
0.717215
0.743567
0.779921
0.836027
0.922535
0.940988
0.831678
0.886121
0.822953
0.78327
0.857619
0.911899
0.752211
0.778674
0.984556
1.15134
1.30156
1.34085
1.29308
1.41526
1.66774
1.79102
1.74481
0.268091
0.262321
0.258765
0.267833
0.303112
0.375882
0.442376
0.455514
0.449772
0.492761
0.566534
0.596741
0.588365
0.542496
0.507078
0.563635
0.663942
0.679467
0.622731
0.567867
0.515419
0.447157
0.349141
0.292369
0.253375
0.245567
0.470063
0.687268
0.798298
0.774813
0.624513
0.5077
0.485569
0.423994
0.344112
0.312695
0.338157
0.477039
0.811437
1.09371
1.22548
1.16034
1.1197
1.05677
0.785976
0.378907
0.153815
0.139853
0.141217
0.144217
0.154145
0.188642
0.25325
0.290958
0.313425
0.349929
0.478007
0.650409
0.663304
0.643691
0.566533
0.447061
0.327601
0.243437
0.179018
0.148742
0.144173
0.152635
0.183939
0.203639
0.191361
0.151282
0.135869
0.133965
0.143647
0.262934
0.710023
1.18964
1.37713
1.33412
1.11813
0.919236
0.774214
0.672615
0.607826
0.573532
0.556156
0.565099
0.584382
0.608125
0.614886
0.541908
0.650622
0.764846
0.900276
0.924262
0.795969
0.801623
0.730054
0.689437
0.760103
0.736712
0.55885
0.72938
0.986843
1.20676
1.38219
1.47116
1.37481
1.42696
1.60928
1.73589
1.69168
0.265104
0.258769
0.254616
0.256513
0.272047
0.310372
0.368225
0.420458
0.444578
0.458609
0.469415
0.476961
0.482197
0.496758
0.519655
0.586039
0.694852
0.692324
0.630627
0.576213
0.525614
0.456279
0.354598
0.298608
0.260067
0.24766
0.473852
0.703546
0.850752
0.855288
0.691543
0.541561
0.514529
0.476878
0.387466
0.336256
0.369478
0.524705
0.830879
1.07658
1.18184
1.14093
1.1111
1.10311
0.993609
0.624951
0.174396
0.14357
0.141553
0.14444
0.153171
0.181209
0.239055
0.289951
0.314328
0.327811
0.484316
0.649437
0.651317
0.627787
0.574016
0.523689
0.483201
0.378289
0.23355
0.178521
0.166587
0.179901
0.206388
0.213897
0.181561
0.142732
0.132991
0.133338
0.149484
0.388577
0.903248
1.28922
1.41083
1.35554
1.1305
0.925968
0.778383
0.67278
0.603025
0.560573
0.537027
0.536666
0.545084
0.557805
0.485118
0.336882
0.485063
0.668007
0.812173
0.834051
0.718938
0.711245
0.657771
0.606804
0.650384
0.579358
0.528296
0.723945
1.04383
1.30909
1.50743
1.62049
1.49315
1.45415
1.65153
1.74949
1.69287
0.262429
0.257088
0.254139
0.253621
0.259744
0.277972
0.309308
0.346562
0.380748
0.375817
0.361073
0.342236
0.346189
0.373589
0.447755
0.598779
0.704665
0.682362
0.630688
0.576778
0.526668
0.45145
0.349984
0.302806
0.268525
0.249439
0.454044
0.702448
0.859854
0.916173
0.720621
0.525314
0.507908
0.502751
0.448531
0.380255
0.38958
0.523689
0.782549
0.999727
1.10925
1.09734
1.06488
1.04595
1.01987
0.886013
0.417765
0.161502
0.144931
0.146375
0.154655
0.179714
0.215677
0.261921
0.27968
0.28913
0.499559
0.642828
0.648493
0.647784
0.667764
0.694713
0.643483
0.459694
0.256053
0.202585
0.200303
0.217437
0.229478
0.217929
0.164524
0.13604
0.131784
0.133126
0.152944
0.47797
1.01312
1.33827
1.43057
1.36948
1.1417
0.932798
0.781896
0.671668
0.601142
0.556185
0.530773
0.525062
0.531295
0.51253
0.341651
0.259144
0.356101
0.576191
0.721107
0.737086
0.644488
0.633224
0.605761
0.565794
0.564949
0.509945
0.523716
0.691744
1.0355
1.33695
1.57029
1.7277
1.62564
1.53276
1.71931
1.79828
1.67346
0.259361
0.256851
0.254737
0.254445
0.257043
0.265841
0.280093
0.298872
0.315836
0.314255
0.307572
0.302702
0.320879
0.364794
0.488757
0.638209
0.689366
0.66443
0.619315
0.570215
0.519268
0.435641
0.338865
0.304447
0.273147
0.256447
0.393736
0.701611
0.843126
0.929124
0.75791
0.497989
0.473403
0.485182
0.486447
0.445402
0.430802
0.528503
0.785301
1.05187
1.09805
1.03963
1.00079
0.996635
0.929528
0.851041
0.584017
0.270833
0.162482
0.153904
0.161919
0.185203
0.208319
0.230563
0.245423
0.297897
0.515332
0.648209
0.672496
0.681067
0.722582
0.76128
0.683615
0.468954
0.254888
0.211206
0.222117
0.239473
0.243138
0.212932
0.148097
0.132815
0.131118
0.133061
0.152728
0.499762
1.02828
1.34088
1.42754
1.37506
1.15427
0.940946
0.783955
0.672516
0.60107
0.556333
0.530044
0.521849
0.516939
0.443523
0.298473
0.248465
0.297549
0.46278
0.617887
0.64355
0.583231
0.590925
0.576633
0.513835
0.487094
0.491835
0.55041
0.702055
1.01192
1.29238
1.54394
1.73399
1.69268
1.58956
1.80774
1.87896
1.66169
0.256945
0.257453
0.255731
0.256445
0.25851
0.263616
0.270444
0.279371
0.288857
0.293898
0.305551
0.318774
0.342377
0.411244
0.551367
0.641096
0.65808
0.639163
0.603652
0.56385
0.506907
0.417816
0.329732
0.302628
0.274026
0.271545
0.329822
0.649939
0.843442
0.947881
0.807093
0.510032
0.452197
0.459175
0.4748
0.484207
0.498163
0.602627
0.902604
1.0658
1.00767
0.956574
0.928408
0.903922
0.734494
0.545206
0.42624
0.261941
0.180518
0.17162
0.182448
0.201734
0.212859
0.224578
0.241763
0.311644
0.521591
0.645647
0.678149
0.697004
0.753394
0.789143
0.662373
0.405659
0.231401
0.214222
0.235802
0.251697
0.245165
0.191021
0.139161
0.131488
0.130669
0.133122
0.149198
0.471488
0.985939
1.30381
1.40741
1.37377
1.16455
0.947936
0.786998
0.676271
0.603118
0.559373
0.532173
0.519584
0.489938
0.346668
0.243493
0.24772
0.277758
0.35703
0.481446
0.533065
0.522834
0.529148
0.514959
0.449443
0.458716
0.510766
0.602913
0.728873
0.948539
1.19579
1.47598
1.69261
1.66219
1.61457
1.87293
1.93638
1.60123
0.255405
0.257667
0.257269
0.259113
0.261914
0.265904
0.270315
0.276907
0.2864
0.299028
0.322362
0.328112
0.34675
0.421837
0.557527
0.61563
0.629127
0.620331
0.59228
0.553463
0.483342
0.388073
0.317107
0.295728
0.273361
0.293702
0.319438
0.524785
0.787325
0.937965
0.875407
0.556188
0.446665
0.44389
0.454507
0.482206
0.551599
0.775974
1.04209
1.01166
0.921311
0.892012
0.893225
0.949247
0.738246
0.410394
0.293417
0.234348
0.190008
0.190766
0.204995
0.218653
0.223145
0.228282
0.242185
0.302993
0.487566
0.619413
0.672725
0.712281
0.776708
0.752439
0.553813
0.307049
0.215769
0.216649
0.246809
0.260068
0.238929
0.161222
0.136422
0.130772
0.130319
0.13328
0.147622
0.386988
0.866096
1.23291
1.37613
1.36607
1.17224
0.955542
0.793033
0.683113
0.610717
0.569908
0.539998
0.516438
0.418284
0.301136
0.240611
0.248318
0.271473
0.311886
0.377201
0.422283
0.432201
0.44075
0.446946
0.431354
0.475656
0.55698
0.644762
0.727875
0.825575
1.02297
1.34185
1.62362
1.62669
1.62549
1.89414
1.95358
1.50666
0.255709
0.257626
0.259526
0.262713
0.266223
0.270372
0.275275
0.28267
0.295911
0.314416
0.326857
0.318044
0.331488
0.410353
0.544346
0.599319
0.615875
0.611678
0.586843
0.540356
0.462538
0.369557
0.309587
0.287947
0.272824
0.323547
0.342269
0.440419
0.691843
0.867463
0.912865
0.660165
0.459065
0.437904
0.444094
0.465368
0.53492
0.882921
1.20138
1.05898
0.940345
0.909017
0.929158
1.01858
0.802644
0.393655
0.232277
0.215174
0.202745
0.210902
0.223247
0.230788
0.23264
0.233336
0.239968
0.287125
0.451836
0.612973
0.688496
0.743119
0.795472
0.679059
0.443642
0.246387
0.211875
0.218552
0.246675
0.254951
0.217426
0.149874
0.135336
0.130134
0.129981
0.133941
0.152299
0.369786
0.832656
1.20591
1.35881
1.35808
1.17971
0.96466
0.803839
0.693712
0.623614
0.584507
0.54726
0.490897
0.308459
0.229776
0.232968
0.247419
0.266753
0.293882
0.328611
0.358077
0.372962
0.392682
0.418019
0.443375
0.515407
0.595499
0.646854
0.641219
0.65121
0.824569
1.19506
1.55237
1.62364
1.62924
1.85583
1.94373
1.40099
0.253177
0.257452
0.261722
0.266331
0.270741
0.275397
0.280678
0.289732
0.304009
0.315132
0.308624
0.302765
0.322045
0.404125
0.538912
0.597233
0.61641
0.614251
0.591324
0.543672
0.463303
0.370531
0.310246
0.28772
0.275207
0.391741
0.450702
0.551
0.693578
0.84541
0.919885
0.745006
0.49861
0.443602
0.443462
0.455163
0.500018
0.775856
1.40575
1.24319
1.03185
0.968256
0.981036
1.11157
1.03128
0.515646
0.232252
0.216311
0.21701
0.227099
0.237038
0.241747
0.241363
0.237859
0.240791
0.282145
0.439401
0.623639
0.712751
0.762779
0.782245
0.600374
0.368124
0.226884
0.211415
0.220238
0.237381
0.237644
0.195584
0.147411
0.134721
0.129623
0.12955
0.135373
0.17558
0.417599
0.850073
1.20682
1.35739
1.35763
1.18705
0.977795
0.81945
0.709715
0.641847
0.598799
0.547418
0.421562
0.23416
0.214946
0.225132
0.241136
0.261254
0.284073
0.307763
0.328656
0.349255
0.379006
0.421691
0.479293
0.55757
0.592249
0.555291
0.487532
0.47038
0.655056
1.06146
1.45762
1.60736
1.58254
1.76324
1.92014
1.28187
0.246348
0.255444
0.262181
0.267941
0.272765
0.276634
0.280824
0.287272
0.295079
0.296174
0.291426
0.295966
0.320594
0.410363
0.548277
0.610218
0.630642
0.627702
0.606924
0.568637
0.498341
0.4092
0.32603
0.29828
0.290853
0.525836
0.680883
0.731605
0.804079
0.911636
0.962835
0.783354
0.534839
0.458201
0.449807
0.454216
0.472385
0.592021
1.24458
1.56348
1.25668
1.12067
1.11207
1.23568
1.33449
0.941682
0.292696
0.23022
0.232445
0.242191
0.249324
0.250659
0.24803
0.242518
0.244427
0.283189
0.436003
0.626197
0.719254
0.759873
0.740475
0.504682
0.290658
0.214645
0.211808
0.220292
0.229616
0.223619
0.187819
0.146893
0.135038
0.12931
0.128895
0.136578
0.242798
0.591287
0.994434
1.27432
1.38183
1.36441
1.19953
0.997956
0.840399
0.732263
0.663076
0.606711
0.513804
0.304869
0.211055
0.208889
0.215267
0.227608
0.247442
0.271122
0.294652
0.319368
0.345522
0.383536
0.436136
0.496561
0.525598
0.488843
0.3912
0.32308
0.349395
0.563695
0.996482
1.37872
1.55961
1.51489
1.63546
1.85852
1.15289
0.236499
0.248312
0.257856
0.263948
0.267062
0.266802
0.266388
0.268875
0.274489
0.281917
0.285092
0.299452
0.329806
0.422635
0.565515
0.631225
0.652029
0.647517
0.624393
0.58528
0.514092
0.416398
0.346649
0.329798
0.392033
0.608143
0.733641
0.77268
0.836205
0.93357
1.00534
0.842089
0.575708
0.478709
0.460977
0.457149
0.464026
0.511257
0.867372
1.57255
1.46639
1.2367
1.19733
1.26773
1.43664
1.24394
0.402076
0.242573
0.246179
0.254351
0.257303
0.257096
0.253757
0.248035
0.25062
0.28972
0.437144
0.62528
0.718939
0.746093
0.707134
0.460337
0.264034
0.210899
0.211919
0.220684
0.227782
0.21993
0.186743
0.148636
0.136212
0.128896
0.128136
0.135652
0.281548
0.694884
1.08678
1.32031
1.39588
1.3682
1.21337
1.02481
0.869546
0.76117
0.680022
0.587933
0.429009
0.232413
0.20758
0.205402
0.20668
0.213446
0.226211
0.244385
0.266217
0.295026
0.324844
0.361596
0.406448
0.43942
0.428204
0.339807
0.268146
0.273267
0.32904
0.549141
0.983347
1.33779
1.50482
1.45157
1.51451
1.72161
0.987921
0.225472
0.236646
0.244973
0.248705
0.247497
0.24405
0.24375
0.250115
0.264107
0.279074
0.292058
0.312219
0.342705
0.430199
0.582448
0.65599
0.678172
0.66883
0.642068
0.600031
0.525822
0.420993
0.346176
0.326156
0.339253
0.407107
0.605153
0.721348
0.774163
0.860374
0.980097
0.963502
0.68796
0.52349
0.480224
0.466018
0.465884
0.500084
0.898456
1.67555
1.49748
1.22301
1.16875
1.27537
1.42056
1.36417
0.701587
0.287673
0.258951
0.262528
0.26375
0.26362
0.259803
0.254455
0.25916
0.300477
0.436781
0.613451
0.699811
0.719827
0.678455
0.456763
0.275497
0.216005
0.215688
0.222711
0.22877
0.220829
0.189368
0.153561
0.137737
0.128275
0.127228
0.133571
0.280985
0.69264
1.0729
1.29795
1.3771
1.35879
1.23031
1.05895
0.909073
0.79322
0.676361
0.525977
0.306623
0.224145
0.208697
0.204714
0.202729
0.204984
0.210475
0.220541
0.23464
0.249814
0.273449
0.309801
0.354508
0.368877
0.313155
0.25115
0.250456
0.26941
0.328834
0.524802
0.939211
1.28182
1.43728
1.38306
1.41819
1.52054
0.8504
0.215546
0.224257
0.229092
0.228962
0.225106
0.223763
0.228944
0.244197
0.265911
0.286704
0.305178
0.328827
0.36099
0.440481
0.591772
0.6806
0.702184
0.687985
0.656351
0.60728
0.52526
0.416094
0.359187
0.343683
0.406654
0.586454
0.694425
0.745167
0.775064
0.833413
0.937195
1.02951
0.798342
0.569703
0.500635
0.47723
0.474613
0.523259
1.2144
1.98006
1.39285
1.10902
1.05682
1.16853
1.22347
1.04356
0.659583
0.316839
0.270482
0.269497
0.270408
0.270785
0.266081
0.260608
0.265479
0.301598
0.41645
0.579401
0.664822
0.694071
0.705678
0.580263
0.397453
0.246948
0.228113
0.230381
0.233399
0.225936
0.196628
0.161673
0.138174
0.127422
0.126332
0.130343
0.251078
0.627112
1.0067
1.24354
1.34056
1.3393
1.24028
1.10091
0.957756
0.816035
0.640718
0.420029
0.240243
0.218587
0.209217
0.205183
0.20225
0.202296
0.203459
0.206487
0.214884
0.226539
0.249041
0.285793
0.315652
0.297042
0.248608
0.24099
0.252974
0.275411
0.335171
0.521013
0.900287
1.191
1.32797
1.29611
1.3198
1.25074
0.803106
0.208462
0.213449
0.214222
0.211132
0.209691
0.213003
0.226262
0.248515
0.275225
0.298343
0.318571
0.344488
0.378961
0.45832
0.604939
0.700573
0.72452
0.707865
0.672854
0.620317
0.538319
0.424296
0.370001
0.350235
0.402033
0.494194
0.579136
0.65048
0.692257
0.73684
0.822063
0.969239
0.966734
0.655948
0.528854
0.490464
0.486057
0.576323
1.4957
2.0677
1.28639
0.966032
0.987105
1.14243
1.23852
0.889881
0.52911
0.319968
0.278103
0.277136
0.27963
0.277893
0.271005
0.262424
0.264733
0.287648
0.367488
0.509779
0.608697
0.660959
0.724622
0.791137
0.70268
0.386336
0.255665
0.246435
0.245884
0.238067
0.210633
0.16752
0.137279
0.126305
0.12547
0.128798
0.19043
0.486074
0.8618
1.14459
1.2828
1.31355
1.25066
1.15352
1.00979
0.808696
0.566452
0.328056
0.231992
0.218207
0.211054
0.206218
0.203784
0.203163
0.202216
0.202675
0.209807
0.223374
0.24763
0.278505
0.27992
0.244749
0.235873
0.245713
0.260766
0.284991
0.348505
0.540896
0.889657
1.12702
1.24509
1.19577
1.18734
1.12042
0.824259
0.203662
0.204592
0.201914
0.200309
0.202237
0.211986
0.231425
0.257509
0.285724
0.309086
0.329928
0.356419
0.392598
0.475452
0.619939
0.713639
0.742227
0.727884
0.693008
0.642179
0.558323
0.44773
0.38298
0.354176
0.363135
0.369166
0.380811
0.400863
0.440408
0.517312
0.603884
0.754057
0.960804
0.831247
0.577025
0.509656
0.499612
0.578286
1.36488
2.11697
1.45027
0.983933
0.983574
1.14687
1.27812
0.857192
0.434029
0.310697
0.288995
0.290928
0.290929
0.28452
0.275103
0.263222
0.259912
0.269099
0.306359
0.413166
0.540912
0.627555
0.69559
0.817135
0.916578
0.691013
0.324282
0.26949
0.262226
0.253087
0.225245
0.168428
0.135412
0.124872
0.124749
0.12785
0.166866
0.407385
0.765117
1.07178
1.23574
1.29498
1.27487
1.21716
1.05585
0.768876
0.466341
0.273333
0.231444
0.220128
0.213454
0.208227
0.206486
0.204462
0.203385
0.205304
0.213368
0.228103
0.251498
0.266943
0.248731
0.235588
0.241693
0.253382
0.268851
0.295875
0.368818
0.582514
0.887448
1.06445
1.15776
1.12621
1.13155
1.08109
0.940852
0.200022
0.196763
0.194532
0.195028
0.201781
0.217007
0.239809
0.266785
0.294301
0.316133
0.335726
0.362469
0.400564
0.491053
0.631328
0.716479
0.748595
0.742328
0.713965
0.666202
0.595729
0.513274
0.421354
0.368318
0.35478
0.360973
0.361925
0.362954
0.376276
0.42106
0.488207
0.590878
0.803112
0.924136
0.704059
0.546301
0.515245
0.544319
1.03625
1.85169
1.8798
1.14418
1.01224
1.14855
1.40585
1.0421
0.466067
0.330218
0.308003
0.308516
0.303188
0.290584
0.277931
0.26513
0.250134
0.242121
0.254985
0.323156
0.465002
0.585064
0.675392
0.787317
0.947181
0.909271
0.555434
0.308796
0.279628
0.266753
0.230232
0.164528
0.130514
0.123552
0.124064
0.129055
0.167167
0.396423
0.745588
1.05148
1.22276
1.29551
1.30831
1.28716
1.07629
0.69574
0.36405
0.253201
0.232311
0.222102
0.215512
0.210643
0.207973
0.205009
0.205152
0.210521
0.220834
0.23698
0.256464
0.256639
0.238956
0.237221
0.244493
0.259299
0.276055
0.305563
0.383482
0.61298
0.878182
1.00746
1.08404
1.13659
1.21972
1.25329
1.20761
0.196207
0.191689
0.190608
0.19453
0.205867
0.224539
0.248477
0.274691
0.300295
0.319245
0.33634
0.363383
0.40365
0.503174
0.644055
0.716427
0.744087
0.741399
0.723141
0.687741
0.632924
0.573506
0.508471
0.431064
0.401202
0.395208
0.39617
0.387431
0.384842
0.416502
0.465234
0.537945
0.69589
0.937095
0.859858
0.632533
0.53949
0.531758
0.697967
1.40616
2.02388
1.56251
1.18919
1.18411
1.3475
1.3831
0.648203
0.394893
0.346325
0.335537
0.314202
0.299225
0.279616
0.256663
0.225011
0.206545
0.221193
0.282198
0.414019
0.545501
0.653383
0.773744
0.930968
0.939772
0.73158
0.397067
0.304825
0.283027
0.228261
0.150483
0.127802
0.12235
0.123436
0.133297
0.204017
0.438447
0.773009
1.06465
1.23116
1.31612
1.34959
1.35536
1.06436
0.604318
0.313408
0.24997
0.232708
0.224605
0.216593
0.21347
0.209381
0.207767
0.209389
0.216999
0.228693
0.242196
0.244232
0.225518
0.221312
0.232059
0.248227
0.2645
0.281472
0.311428
0.391461
0.624309
0.870145
0.992549
1.08274
1.21111
1.37875
1.40995
1.37996
0.192942
0.189044
0.189537
0.19724
0.212286
0.232334
0.255865
0.280415
0.303011
0.31969
0.335757
0.362602
0.401399
0.504178
0.646575
0.71257
0.737466
0.735644
0.720342
0.692033
0.650821
0.610601
0.56256
0.507074
0.469564
0.447769
0.432109
0.433312
0.446682
0.485647
0.512766
0.571076
0.698786
0.953035
0.926311
0.668211
0.548958
0.524956
0.586108
1.26472
1.9558
1.73258
1.32691
1.26258
1.29913
1.36858
0.957696
0.588853
0.429612
0.354799
0.321242
0.304502
0.269361
0.224231
0.186834
0.178994
0.200736
0.263512
0.388593
0.527335
0.644854
0.775787
0.903278
0.858487
0.734937
0.518223
0.38436
0.308803
0.203429
0.141092
0.125884
0.121553
0.122835
0.142616
0.305493
0.601594
0.920877
1.15593
1.28164
1.35207
1.40211
1.41256
1.02166
0.498136
0.293069
0.249511
0.235708
0.225995
0.218178
0.214174
0.211423
0.211416
0.21547
0.223062
0.231924
0.229914
0.209522
0.203156
0.218423
0.236061
0.253773
0.269796
0.285357
0.311814
0.385515
0.610462
0.845899
0.961035
1.03735
1.16371
1.37907
1.42451
1.41117
0.191985
0.188164
0.190929
0.201491
0.21866
0.239329
0.261615
0.283388
0.303358
0.317976
0.332417
0.358823
0.394547
0.491599
0.638082
0.701507
0.723932
0.723033
0.711548
0.687744
0.653537
0.622588
0.583103
0.535832
0.496859
0.467385
0.447527
0.452874
0.480638
0.524204
0.544128
0.595189
0.712082
0.9522
0.933711
0.661633
0.54079
0.521216
0.611384
1.40627
2.03768
1.75315
1.38566
1.30066
1.23063
1.18731
1.07447
0.749292
0.474963
0.364732
0.329545
0.292651
0.231782
0.181919
0.161344
0.162944
0.184512
0.240824
0.366359
0.525554
0.661462
0.801076
0.87995
0.730513
0.501314
0.448858
0.374877
0.292637
0.179566
0.135715
0.124282
0.120762
0.122159
0.14812
0.365485
0.698055
1.00729
1.21021
1.31858
1.38679
1.45542
1.4467
0.955965
0.416148
0.287139
0.251625
0.237792
0.227457
0.220775
0.216078
0.213946
0.214922
0.219922
0.223803
0.218025
0.191585
0.181725
0.199783
0.2204
0.239279
0.256788
0.272124
0.286969
0.310763
0.376041
0.586737
0.813289
0.898282
0.924431
0.978724
1.15428
1.19038
1.23869
0.192635
0.188684
0.193269
0.20622
0.224188
0.2443
0.264822
0.284565
0.301618
0.314708
0.327584
0.352795
0.384659
0.470149
0.620523
0.685878
0.707232
0.705308
0.693705
0.674234
0.649213
0.619982
0.593926
0.545295
0.50275
0.469774
0.447577
0.449413
0.477891
0.520134
0.539048
0.585971
0.697304
0.931224
0.89949
0.616084
0.519502
0.593348
1.11301
2.14161
2.16878
1.60473
1.34779
1.18989
0.971557
0.777912
0.826379
0.789434
0.493283
0.367722
0.320592
0.246426
0.18306
0.156386
0.149637
0.155335
0.175092
0.225303
0.342111
0.512386
0.667097
0.82104
0.889069
0.719388
0.450962
0.388723
0.346242
0.24972
0.157886
0.1324
0.123937
0.120369
0.121382
0.146398
0.364188
0.696819
1.00306
1.20693
1.32821
1.4032
1.49648
1.45021
0.87969
0.402921
0.290391
0.253976
0.238879
0.227842
0.221926
0.217437
0.215963
0.217436
0.216595
0.209977
0.182936
0.165161
0.181829
0.202232
0.222478
0.240865
0.257903
0.273014
0.287077
0.30965
0.370853
0.570806
0.791112
0.868638
0.862312
0.796558
0.833646
0.832021
0.893563
0.194673
0.189873
0.194941
0.209371
0.227992
0.247626
0.26619
0.284001
0.298685
0.310453
0.322515
0.34653
0.375581
0.448028
0.593432
0.665762
0.687346
0.68489
0.672188
0.653532
0.63652
0.612072
0.586795
0.550864
0.505676
0.469538
0.445029
0.439419
0.460194
0.501708
0.520471
0.564813
0.671487
0.904201
0.879241
0.580249
0.50025
0.804819
1.88636
2.59805
1.8489
1.40516
1.30377
1.18044
0.948081
0.723555
0.748731
0.773
0.484095
0.350088
0.26571
0.189695
0.155335
0.145493
0.144744
0.150468
0.167988
0.212925
0.322797
0.500714
0.664925
0.815036
0.874076
0.738642
0.474172
0.365873
0.301988
0.208812
0.150306
0.132047
0.125446
0.120722
0.120868
0.138869
0.314218
0.623938
0.93124
1.15748
1.31286
1.40935
1.52931
1.43054
0.770172
0.378227
0.293391
0.256615
0.240102
0.229285
0.222997
0.218492
0.21667
0.212307
0.203013
0.187314
0.158444
0.169175
0.185129
0.20421
0.222964
0.24104
0.257479
0.27199
0.285697
0.307057
0.368685
0.565169
0.755391
0.822292
0.814788
0.723793
0.674121
0.653239
0.640392
0.19756
0.19092
0.195272
0.210382
0.229223
0.247971
0.266566
0.283364
0.294848
0.305635
0.316709
0.338582
0.368063
0.432747
0.563189
0.642746
0.665373
0.662769
0.649431
0.632418
0.622269
0.599994
0.569032
0.536305
0.511611
0.47334
0.445574
0.43394
0.449452
0.47854
0.493518
0.534356
0.638713
0.873699
0.868586
0.564357
0.486583
0.76836
1.91809
2.55351
1.82259
1.40775
1.35428
1.26326
1.0365
0.761303
0.738395
0.723767
0.441578
0.288023
0.20388
0.159866
0.144727
0.141432
0.141932
0.14673
0.159952
0.194511
0.286331
0.470605
0.656015
0.8056
0.807303
0.694319
0.488976
0.363039
0.278108
0.194624
0.149232
0.135365
0.128869
0.122087
0.120676
0.129179
0.226015
0.475711
0.780519
1.04997
1.26669
1.39825
1.54097
1.40278
0.713582
0.381167
0.298055
0.259082
0.239983
0.229208
0.221541
0.217808
0.213226
0.203379
0.191864
0.172566
0.156618
0.172412
0.18746
0.205259
0.222399
0.239737
0.25516
0.268833
0.282131
0.302847
0.370281
0.570641
0.714547
0.755794
0.747636
0.675667
0.601218
0.574004
0.561918
0.201361
0.1918
0.193299
0.207982
0.227129
0.246732
0.264781
0.281024
0.291759
0.300691
0.310793
0.330138
0.361217
0.42771
0.543411
0.620971
0.643961
0.64089
0.627069
0.611623
0.602136
0.583434
0.551738
0.517917
0.49867
0.490472
0.464394
0.445542
0.450073
0.469072
0.481476
0.518971
0.618372
0.853673
0.844691
0.553429
0.473767
0.591082
1.54256
2.2598
2.04226
1.62683
1.46156
1.38773
1.18148
0.861047
0.772929
0.673707
0.376593
0.23033
0.173342
0.149711
0.141324
0.140166
0.141472
0.145529
0.154501
0.177389
0.244333
0.423588
0.639054
0.820095
0.75958
0.577486
0.47017
0.360957
0.267204
0.192977
0.151762
0.142187
0.13481
0.124674
0.121218
0.126084
0.174158
0.373506
0.668366
0.968391
1.22453
1.39873
1.53931
1.3584
0.687501
0.391849
0.305912
0.261563
0.240876
0.229604
0.222277
0.218587
0.211211
0.200288
0.182109
0.157638
0.15884
0.174862
0.19074
0.206607
0.221743
0.237141
0.251422
0.264056
0.276877
0.297599
0.370633
0.569889
0.685085
0.697808
0.675681
0.62169
0.552074
0.53006
0.524813
0.210329
0.1978
0.198044
0.206598
0.223232
0.244732
0.260299
0.27603
0.290101
0.296155
0.305438
0.322652
0.353697
0.426692
0.537299
0.602047
0.620208
0.615289
0.600796
0.58743
0.584427
0.570509
0.533661
0.499813
0.477506
0.487592
0.495222
0.489955
0.481424
0.476794
0.483778
0.517342
0.612297
0.822437
0.795246
0.526801
0.456801
0.485054
1.06008
1.87184
2.13412
1.89138
1.64711
1.54081
1.26472
0.890711
0.788996
0.641621
0.332682
0.201897
0.162185
0.146558
0.140659
0.140476
0.142408
0.14604
0.153457
0.171857
0.221835
0.379695
0.603319
0.812655
0.760377
0.491137
0.397294
0.34911
0.267007
0.195303
0.159543
0.154069
0.142972
0.127361
0.122263
0.125987
0.165582
0.354918
0.647445
0.957809
1.22363
1.41162
1.526
1.29773
0.64883
0.404883
0.317687
0.265903
0.242123
0.229637
0.223778
0.218789
0.209999
0.196902
0.170485
0.150336
0.164841
0.179873
0.194468
0.207872
0.220831
0.234245
0.246969
0.258902
0.271818
0.294133
0.372058
0.562084
0.661498
0.657466
0.619219
0.552065
0.513774
0.494903
0.494314
0.23287
0.214883
0.209704
0.201708
0.222999
0.244163
0.256341
0.270478
0.285415
0.29296
0.300662
0.31645
0.344584
0.423332
0.536355
0.586964
0.597904
0.590388
0.575504
0.564125
0.559195
0.547661
0.515889
0.481861
0.457846
0.464101
0.485092
0.494476
0.491451
0.483487
0.489484
0.522015
0.619286
0.799201
0.71426
0.490997
0.439522
0.467315
1.04386
1.89942
2.33436
2.04427
1.79782
1.59125
1.16589
0.811933
0.766104
0.613914
0.307955
0.189461
0.157774
0.145755
0.140931
0.14094
0.143016
0.146296
0.152234
0.167148
0.207949
0.342351
0.564371
0.787517
0.838407
0.642398
0.396724
0.34555
0.272408
0.209125
0.185308
0.173963
0.150721
0.128362
0.122902
0.127988
0.176513
0.371598
0.665324
0.9768
1.23816
1.42547
1.5066
1.25077
0.641748
0.423797
0.331099
0.270076
0.241842
0.228794
0.222874
0.213238
0.202275
0.185608
0.161481
0.154163
0.169839
0.183856
0.196661
0.208561
0.22006
0.231628
0.242727
0.254234
0.267961
0.294101
0.378075
0.552469
0.637598
0.625621
0.576052
0.507153
0.479594
0.463809
0.466964
0.29349
0.266709
0.243412
0.213118
0.235249
0.255335
0.255471
0.265202
0.279639
0.289318
0.296553
0.311574
0.335917
0.414129
0.535143
0.577593
0.579193
0.566188
0.548075
0.532094
0.525692
0.512966
0.495586
0.469495
0.442549
0.438015
0.461513
0.474403
0.474961
0.471414
0.477871
0.515915
0.624849
0.787601
0.649543
0.452375
0.433346
0.580344
1.55576
2.32247
2.40549
2.00083
1.71458
1.25399
0.771815
0.657551
0.705496
0.582165
0.290756
0.182942
0.155971
0.146371
0.141655
0.142214
0.144072
0.146937
0.151726
0.163132
0.19503
0.305623
0.523234
0.75188
0.85349
0.761499
0.4662
0.355082
0.293431
0.241959
0.216378
0.190414
0.154402
0.127919
0.123496
0.134893
0.239522
0.48318
0.785528
1.0673
1.28699
1.43551
1.488
1.20041
0.645744
0.448702
0.347351
0.274932
0.240046
0.225858
0.213674
0.197383
0.184637
0.170779
0.152551
0.158016
0.173792
0.186719
0.198888
0.209833
0.220194
0.230336
0.24004
0.250648
0.264018
0.294354
0.387208
0.541356
0.610817
0.590103
0.535845
0.470673
0.446257
0.435204
0.441228
0.389216
0.345184
0.306946
0.251392
0.263447
0.281135
0.26148
0.261859
0.275764
0.286619
0.29353
0.307902
0.328513
0.399501
0.524291
0.568484
0.563999
0.547137
0.526625
0.509616
0.496146
0.479162
0.461931
0.457356
0.439241
0.422572
0.437047
0.449942
0.4502
0.450351
0.4604
0.504025
0.629367
0.783164
0.606766
0.433606
0.483782
1.15493
2.26498
2.48951
2.00164
1.80437
1.60105
1.17729
0.754279
0.661416
0.697416
0.558671
0.278033
0.179699
0.155442
0.147375
0.142534
0.143316
0.145233
0.14821
0.152645
0.16284
0.190807
0.283695
0.488105
0.69777
0.82316
0.822419
0.626741
0.419181
0.346762
0.29224
0.253364
0.203792
0.155236
0.126454
0.123687
0.148456
0.313544
0.575305
0.863896
1.11022
1.30163
1.4269
1.45808
1.11708
0.638064
0.475215
0.366809
0.28091
0.23992
0.223849
0.205351
0.186852
0.17348
0.159844
0.147783
0.161848
0.176409
0.189525
0.201303
0.211589
0.220949
0.230146
0.239173
0.24864
0.260477
0.290969
0.389062
0.530241
0.583127
0.554991
0.4981
0.439657
0.419374
0.409772
0.419763
0.520303
0.449757
0.409045
0.333171
0.292672
0.304009
0.270068
0.260795
0.274607
0.285448
0.291995
0.305201
0.323159
0.38618
0.509768
0.559703
0.550553
0.528859
0.50429
0.488259
0.472015
0.447716
0.429309
0.425223
0.433799
0.430106
0.429964
0.431355
0.426915
0.428783
0.439122
0.486927
0.624538
0.753184
0.563319
0.418438
0.488283
1.3865
2.31782
2.36716
1.88842
1.75507
1.61399
1.23923
0.796422
0.671802
0.689937
0.540411
0.275111
0.180959
0.157878
0.148828
0.143843
0.144259
0.146079
0.149222
0.153678
0.163422
0.190524
0.278492
0.466001
0.641811
0.756024
0.793061
0.675183
0.485156
0.392459
0.336512
0.269554
0.201517
0.15055
0.123857
0.122463
0.150991
0.319219
0.57436
0.854441
1.09022
1.27435
1.39241
1.42096
1.07482
0.642366
0.505234
0.388588
0.289949
0.24314
0.224539
0.203108
0.184623
0.169686
0.155108
0.148456
0.163844
0.179415
0.192468
0.204216
0.2141
0.222659
0.230974
0.239145
0.24786
0.258364
0.286753
0.380755
0.513211
0.552653
0.521333
0.464542
0.41886
0.404497
0.405222
0.445441
0.667596
0.583084
0.541422
0.475236
0.366759
0.332574
0.280939
0.260559
0.274796
0.285395
0.291813
0.303492
0.319309
0.378049
0.495565
0.553412
0.541291
0.515146
0.485627
0.46584
0.447596
0.423696
0.403193
0.394676
0.40972
0.418788
0.420072
0.416125
0.407237
0.40896
0.42096
0.470556
0.61565
0.706615
0.524569
0.401923
0.463744
1.30348
2.1648
2.29923
1.91175
1.79326
1.68223
1.32361
0.841962
0.681275
0.676888
0.526514
0.287271
0.188859
0.16368
0.149565
0.145115
0.145245
0.146676
0.149981
0.154786
0.164172
0.191466
0.277604
0.448398
0.610247
0.693054
0.727339
0.65213
0.482909
0.399118
0.340389