/*--------------------------------*- C++ -*----------------------------------*\
  =========                 |
  \\      /  F ield         | OpenFOAM: The Open Source CFD Toolbox
   \\    /   O peration     | Website:  https://openfoam.org
    \\  /    A nd           | Version:  10
     \\/     M anipulation  |
\*---------------------------------------------------------------------------*/
FoamFile
{
    format      ascii;
    class       volScalarField;
    location    "0.10055";
    object      T;
}
// * * * * * * * * * * * * * * * * * * * * * * * * * * * * * * * * * * * * * //

dimensions      [0 0 0 1 0 0 0];

internalField   nonuniform List<scalar> 
16320
(
0.00580168
0.00543925
0.00480492
0.00380195
0.00267226
0.00225807
0.00229036
0.00257584
0.00252551
0.00193737
0.00174557
0.00176695
0.00209092
0.00313455
0.0043066
0.00456223
0.00412398
0.00360912
0.00321094
0.00304425
0.00302643
0.00333964
0.00414083
0.00493188
0.00585141
0.0062612
0.00404863
0.00341096
0.00336219
0.00429844
0.00572716
0.00599587
0.00590758
0.0055488
0.0052117
0.00501815
0.00492204
0.00457051
0.00328722
0.0018465
0.00143842
0.00139173
0.00148093
0.0019856
0.00374097
0.00841373
0.0109135
0.0119281
0.0122135
0.0121882
0.0114945
0.00920944
0.00679252
0.00599759
0.0057366
0.00541579
0.00395543
0.00225192
0.00196793
0.00193263
0.00218367
0.00300808
0.00493369
0.00841122
0.0117115
0.0146051
0.0158148
0.0161167
0.0156965
0.014173
0.013301
0.0143008
0.0172171
0.0184021
0.018042
0.0139769
0.00411052
0.00214201
0.00172043
0.00158372
0.00144799
0.00133733
0.00125485
0.00118995
0.00114937
0.00114215
0.00116065
0.00118978
0.00120628
0.00122736
0.00127004
0.00138371
0.00177652
0.00217501
0.00213873
0.00204784
0.00204116
0.00172218
0.00170635
0.00189601
0.00209953
0.00219341
0.00210474
0.00202789
0.00162821
0.00144169
0.00141935
0.0016508
0.00188859
0.00188944
0.00187847
0.00195315
0.00214742
0.00580076
0.00560126
0.00529827
0.00470251
0.00361085
0.00276014
0.00252743
0.0026668
0.00270127
0.00231342
0.00196924
0.00191199
0.00212944
0.00283689
0.00390041
0.00415305
0.0040228
0.00365329
0.00324722
0.00309086
0.00306734
0.00330613
0.0040582
0.00482561
0.00571159
0.00608716
0.00352453
0.00283607
0.0028045
0.00336194
0.00520382
0.00600024
0.00603947
0.00566742
0.00525429
0.00496005
0.0046017
0.00354694
0.00205531
0.0014469
0.00129527
0.00127388
0.00128806
0.00156607
0.0026874
0.0063428
0.0106568
0.0120334
0.0121954
0.0121373
0.0114264
0.00920827
0.00682878
0.00600114
0.00566445
0.00501474
0.0034503
0.00220615
0.0019721
0.00200037
0.00241733
0.00349107
0.00572786
0.00927038
0.0125407
0.0149023
0.0159974
0.016137
0.0150903
0.0130556
0.0128763
0.0149422
0.017973
0.018535
0.0177243
0.0124514
0.0039408
0.00213509
0.00172372
0.00158485
0.00145898
0.00134801
0.00126219
0.00119519
0.00115341
0.00113621
0.00114299
0.00116242
0.00118762
0.00121558
0.00127165
0.00136221
0.00153644
0.00182394
0.00188698
0.00184738
0.00187953
0.00163842
0.00169815
0.00188988
0.00206625
0.00225471
0.00256281
0.0022212
0.00168809
0.00151991
0.00148845
0.00162524
0.00190819
0.00199086
0.0019324
0.00199048
0.00220523
0.00572772
0.00564245
0.0055365
0.00522054
0.00452451
0.00356531
0.00297465
0.00285286
0.00286089
0.00263061
0.0023057
0.00222451
0.00233677
0.00276105
0.00348924
0.00402042
0.00407969
0.00363569
0.00325437
0.00312268
0.00309752
0.00329885
0.00403684
0.00477866
0.00563113
0.00600194
0.00336196
0.00265392
0.00260183
0.00305416
0.00438471
0.00600088
0.00631194
0.00594791
0.00536938
0.00482357
0.00409794
0.00281007
0.00172162
0.00133353
0.00120812
0.00111356
0.00107791
0.0011588
0.00182449
0.0042276
0.0105089
0.0119723
0.0121658
0.0121337
0.0114787
0.00940842
0.00698716
0.00597654
0.00539353
0.00465242
0.00327161
0.00218526
0.00198938
0.00203726
0.00248988
0.00352889
0.0053959
0.0078792
0.0113622
0.0142251
0.0151403
0.0147556
0.0126465
0.0117708
0.012812
0.0163596
0.0183255
0.018632
0.0172714
0.00941822
0.00349718
0.00206814
0.00171725
0.00159951
0.00146896
0.00135577
0.00126774
0.00119957
0.00115294
0.00112886
0.00111746
0.00111263
0.00113438
0.00118627
0.00130898
0.00159662
0.00154339
0.00167388
0.00172235
0.00170606
0.00176
0.00160496
0.00170052
0.0019122
0.00211231
0.00268654
0.00336221
0.00249444
0.00184162
0.00161597
0.00155379
0.00160203
0.00190284
0.00202722
0.00199408
0.00203853
0.00226097
0.00567408
0.00565208
0.00560752
0.00547909
0.00512893
0.0044793
0.00375983
0.00328939
0.00313244
0.00305712
0.00303366
0.00306675
0.00316432
0.00338285
0.00390062
0.0044198
0.00408932
0.00356587
0.00325452
0.00313576
0.00310952
0.00331301
0.00405705
0.0047645
0.00554144
0.00597911
0.00333674
0.00260232
0.00252203
0.00289211
0.00417907
0.0059971
0.00654733
0.00637764
0.00564633
0.0048578
0.00383354
0.00256528
0.00165616
0.00129295
0.00113444
0.000995964
0.000938094
0.000941515
0.00125343
0.00248107
0.00905792
0.0115805
0.0120877
0.0121181
0.0116081
0.00989203
0.00750345
0.00611363
0.00549112
0.00511667
0.00328167
0.0021681
0.00197493
0.00201208
0.00236047
0.0029423
0.0036351
0.00522102
0.00893317
0.0120499
0.0132664
0.0126364
0.0113475
0.0112225
0.013485
0.0172404
0.0186489
0.0187085
0.0166109
0.00643328
0.00277837
0.00193107
0.00170495
0.00160874
0.00147639
0.00136171
0.00127186
0.00120075
0.00114931
0.00111884
0.00109834
0.00109189
0.00111714
0.00118567
0.00151254
0.00224294
0.00173929
0.00166696
0.00167251
0.00166452
0.00172682
0.00161031
0.00171529
0.00198972
0.00229908
0.0033333
0.00370944
0.00275654
0.00197664
0.00169809
0.0016051
0.00159691
0.00188417
0.00211171
0.00201572
0.00205206
0.00226867
0.00563091
0.00564145
0.00561888
0.005588
0.00544902
0.00511624
0.00463747
0.00417172
0.00382083
0.0039686
0.00434066
0.00493682
0.00520787
0.00537299
0.00533401
0.00471436
0.0039537
0.00348694
0.00324324
0.00314571
0.00313375
0.00340615
0.00417123
0.0047642
0.00541597
0.00598493
0.0034805
0.00260261
0.00253284
0.0027926
0.00407907
0.00611911
0.00669112
0.00671364
0.00612262
0.00507424
0.00390357
0.00261984
0.00170945
0.00130679
0.0010385
0.000901649
0.000860744
0.000880082
0.00108904
0.0015478
0.00382787
0.0102213
0.0117967
0.0119966
0.011589
0.010106
0.00844856
0.00688263
0.00627556
0.00590004
0.00320135
0.00213216
0.00191382
0.00188125
0.0019938
0.00224726
0.00281423
0.00439166
0.00823788
0.0107
0.0111323
0.0105472
0.01024
0.0110044
0.0148233
0.0180197
0.0187535
0.0187209
0.0162236
0.00526879
0.00248959
0.00187508
0.00169709
0.00161434
0.00148326
0.00136724
0.00127404
0.00119934
0.00114812
0.0011134
0.00108728
0.00108457
0.00111525
0.00126245
0.00212899
0.00282195
0.00226772
0.00175426
0.00168744
0.00167806
0.00173848
0.00164457
0.00176072
0.00210661
0.00268026
0.00381075
0.00401491
0.00326159
0.00227485
0.00186168
0.0016759
0.00162664
0.00186353
0.00214393
0.0020547
0.0020899
0.00235669
0.00561431
0.00561405
0.00562735
0.00562758
0.00559071
0.00545478
0.00524959
0.00500318
0.00483498
0.00504303
0.00556087
0.0063106
0.00650483
0.00629634
0.00535465
0.00436156
0.00371595
0.00337919
0.00320838
0.00315182
0.00318773
0.00357016
0.00435521
0.00477991
0.00534445
0.00583995
0.00399957
0.00255426
0.00256639
0.00276815
0.00389756
0.00625219
0.00692287
0.00690416
0.00657053
0.0055235
0.00414501
0.00274481
0.00166778
0.00114929
0.000909353
0.00084347
0.000836181
0.000885348
0.00115501
0.00148622
0.00249465
0.00605962
0.0105175
0.0114826
0.0111912
0.00994926
0.00890796
0.00798126
0.00733429
0.00584448
0.00306176
0.00206184
0.00181381
0.00177131
0.00184488
0.00208113
0.00269385
0.00435574
0.00830456
0.0102905
0.0100895
0.00962246
0.00968805
0.0112645
0.0163992
0.0183836
0.0187713
0.0186811
0.0162077
0.0050423
0.00245029
0.00187177
0.00170382
0.00162277
0.001494
0.00137256
0.0012764
0.00119992
0.00114795
0.00111015
0.00108313
0.00108449
0.0011454
0.00147807
0.00248783
0.0030072
0.00275623
0.00205172
0.00178556
0.0017471
0.00179296
0.00171949
0.00186166
0.00237018
0.00324692
0.00411416
0.00423461
0.00361333
0.00259575
0.00205312
0.00177252
0.00169948
0.00189316
0.00219575
0.00207813
0.00211499
0.0024576
0.00560318
0.00558639
0.00563734
0.00565271
0.00565578
0.00561525
0.00556362
0.00550412
0.00549309
0.00569146
0.00608943
0.00653962
0.00649811
0.00576204
0.00460832
0.00387634
0.00347335
0.0032717
0.0031804
0.00315583
0.00327184
0.00375039
0.00451871
0.00483386
0.00532997
0.00549128
0.00474516
0.00268359
0.0025104
0.00267679
0.0036245
0.00600227
0.00699001
0.00708826
0.0068614
0.00611826
0.0046493
0.00275866
0.00146233
0.000972662
0.00085075
0.000832676
0.00086231
0.000968388
0.00144873
0.00230801
0.00329397
0.00608562
0.00948935
0.0104266
0.0101348
0.00935636
0.00892738
0.00838906
0.00760558
0.00563669
0.00300693
0.0020408
0.00178634
0.00174794
0.00183866
0.00211518
0.00287528
0.0050723
0.00911111
0.0101469
0.00951592
0.00915534
0.009596
0.012536
0.0173659
0.0184828
0.0187446
0.0185898
0.0165388
0.0053572
0.00255518
0.00191904
0.00172468
0.00163167
0.0015039
0.0013789
0.00127846
0.00120266
0.00114888
0.00110882
0.00108354
0.00110099
0.00123951
0.00198999
0.0029795
0.0031145
0.00305419
0.00264409
0.00213346
0.00198438
0.00197753
0.00194388
0.00214216
0.00286908
0.00373063
0.00434677
0.00432309
0.00378895
0.00290837
0.00226883
0.0018812
0.00178039
0.00199879
0.00225299
0.00210707
0.00215658
0.00262874
0.00558346
0.0055808
0.0056487
0.00567871
0.00569476
0.00569807
0.00571499
0.00573168
0.00579268
0.00597226
0.00630287
0.00654331
0.00622713
0.00522026
0.00405818
0.00355329
0.0033226
0.00321612
0.00317877
0.00320298
0.00344942
0.00407504
0.00475006
0.00496685
0.0053377
0.00504071
0.00485679
0.00323259
0.00257737
0.00263476
0.00324827
0.00546271
0.00698995
0.00717332
0.00707123
0.00653665
0.0051937
0.00279
0.00137126
0.000977042
0.000878262
0.000862142
0.000892963
0.00100738
0.00155929
0.00323288
0.00505503
0.00694958
0.00917922
0.0096278
0.00929793
0.00890508
0.00877262
0.00846532
0.00772703
0.00582632
0.00322076
0.00214633
0.00184973
0.00181272
0.00192164
0.00233127
0.00350032
0.00667541
0.00971495
0.0099946
0.00908005
0.00883702
0.00982663
0.0147739
0.0176224
0.0184895
0.0186978
0.0184612
0.0166713
0.00642529
0.00286959
0.00200638
0.00175077
0.0016405
0.0015141
0.00138577
0.00128293
0.00120771
0.00115336
0.00111143
0.00109577
0.00113725
0.00146198
0.00229447
0.00302657
0.00316388
0.00318968
0.0030816
0.00273659
0.00250408
0.00241982
0.00241618
0.00265091
0.00334992
0.00406872
0.00447169
0.00441149
0.00396691
0.0033047
0.00255246
0.00202173
0.00188464
0.00209285
0.00230625
0.00214417
0.0021988
0.00284197
0.00552823
0.00559332
0.00566175
0.00570216
0.00573242
0.00575634
0.00579076
0.00584349
0.00594181
0.00615925
0.00636658
0.00638421
0.00596097
0.00490506
0.00379827
0.00340243
0.00325658
0.00320177
0.00319108
0.0032923
0.00363411
0.00432124
0.00491631
0.00511512
0.00533654
0.00452657
0.004437
0.00375886
0.00281685
0.00275152
0.00304464
0.00457625
0.0067704
0.0072389
0.0072198
0.00687739
0.00584259
0.00328773
0.00152615
0.00103056
0.00089652
0.000863661
0.000884838
0.00102809
0.00159685
0.00362887
0.00683509
0.00798881
0.00901414
0.00912616
0.00892887
0.0087846
0.00871168
0.00851357
0.00792801
0.00619834
0.00351406
0.00224533
0.00190524
0.00187042
0.00201965
0.00266742
0.00440408
0.00818736
0.0098333
0.00986022
0.00904312
0.00897468
0.0107678
0.0157935
0.0176568
0.0184675
0.0186339
0.0182349
0.0160729
0.00671415
0.00297977
0.00203879
0.00175937
0.00164399
0.00152181
0.0013938
0.00129088
0.00121626
0.00116158
0.0011213
0.00112293
0.00122611
0.00198239
0.00290235
0.00308265
0.00316091
0.00324216
0.00326549
0.00316502
0.00301963
0.00295062
0.00297564
0.00323734
0.00383242
0.00433836
0.0045768
0.00439411
0.00415253
0.00383866
0.00294899
0.00221862
0.00199227
0.00214641
0.00235153
0.0022123
0.00224242
0.0030777
0.00549549
0.00559587
0.00567086
0.00572274
0.00575793
0.00578813
0.00583466
0.00590149
0.00603599
0.00618409
0.00629636
0.00623003
0.00585572
0.00478754
0.00370818
0.00334718
0.00323162
0.00319812
0.00319979
0.00331521
0.00367684
0.00436347
0.00495164
0.00514105
0.00528347
0.0036885
0.00325946
0.00290592
0.00269017
0.00272754
0.00298342
0.00404259
0.00624643
0.00718681
0.00729431
0.00716702
0.00654195
0.0042341
0.00197973
0.00115846
0.000929981
0.000874557
0.000882244
0.000985412
0.0013613
0.00305117
0.00739339
0.00851734
0.00898674
0.00899889
0.00886615
0.00878333
0.00872836
0.00859335
0.00806496
0.00638982
0.00367888
0.00229577
0.00194347
0.00191641
0.00213807
0.00305945
0.0053122
0.00879361
0.00978951
0.00973581
0.00933151
0.0095676
0.0118766
0.0159436
0.0176144
0.0184142
0.0185688
0.017879
0.0137969
0.00585511
0.00289465
0.00202798
0.0017585
0.00164515
0.00152889
0.00140413
0.00130223
0.00122815
0.00117213
0.00114133
0.00117005
0.00145133
0.00259586
0.00297851
0.00305271
0.00313598
0.00323707
0.00332783
0.00336683
0.00335474
0.00334422
0.00342025
0.00370607
0.00417051
0.00448258
0.00447475
0.00453757
0.00486181
0.00497933
0.00357283
0.00247959
0.00213769
0.00220301
0.0024443
0.00233888
0.00228165
0.00336903
0.00546111
0.00557437
0.00566264
0.00571957
0.00575651
0.00579116
0.00583056
0.00589092
0.00595825
0.00607431
0.00623963
0.00617196
0.00586625
0.00478886
0.00371067
0.00335214
0.00323946
0.00320286
0.00320026
0.00326492
0.00351486
0.00403023
0.00475205
0.00499876
0.00500046
0.00272722
0.00212087
0.00210162
0.00219933
0.00242988
0.00281695
0.00385199
0.00587882
0.00704853
0.00731766
0.00734006
0.00709038
0.00565689
0.00274464
0.00149481
0.00100201
0.000876745
0.000852057
0.000897677
0.00109329
0.00182076
0.00636928
0.00862731
0.00899193
0.00897614
0.00889462
0.00886645
0.00881578
0.00866856
0.00809745
0.00645749
0.00376493
0.0023398
0.00197976
0.00196107
0.00229353
0.00364367
0.00663507
0.0092362
0.00971754
0.00968017
0.0095758
0.0100843
0.0122545
0.0158678
0.0174368
0.018318
0.0185289
0.017591
0.0099204
0.00415276
0.00246885
0.00191766
0.00172691
0.00164147
0.00153596
0.00141856
0.0013168
0.00124324
0.00118601
0.00117174
0.0012722
0.00201901
0.00286345
0.00294011
0.00298184
0.00305929
0.00316578
0.00329772
0.00341377
0.0034669
0.00351821
0.0036641
0.00396198
0.00426242
0.0043519
0.00469882
0.00576275
0.00690385
0.00648829
0.00410395
0.0026921
0.00229239
0.00228016
0.00253662
0.00249633
0.00232624
0.00370862
0.00537635
0.00550595
0.00561697
0.00567643
0.00570385
0.00570724
0.00570303
0.00570779
0.00578774
0.0060167
0.00624018
0.00626803
0.00605214
0.00493151
0.00377925
0.00339482
0.00327537
0.00323359
0.00322801
0.00327482
0.00350229
0.00405941
0.00456506
0.00460213
0.00374396
0.00230972
0.00193602
0.00193114
0.00199414
0.00218298
0.00260817
0.00358543
0.00553285
0.00686727
0.00728655
0.00744427
0.0073581
0.00668402
0.0039173
0.00192049
0.00112752
0.000891861
0.000815993
0.000859974
0.00102884
0.00150784
0.00500459
0.00880842
0.00906934
0.00903898
0.00904093
0.00900367
0.0089015
0.00867804
0.00802103
0.00636179
0.00377367
0.00236024
0.00199603
0.00198142
0.00236264
0.00393034
0.00721595
0.00936017
0.00968451
0.00962428
0.00959195
0.0101685
0.0122061
0.0155476
0.0171442
0.0182219
0.0184787
0.0175333
0.00847506
0.00352457
0.0022616
0.00185305
0.00170968
0.00163942
0.00154534
0.00143711
0.00133604
0.00126122
0.00120554
0.00122263
0.00153117
0.00268308
0.00292185
0.00291348
0.00292992
0.0029639
0.00303315
0.00314573
0.0032876
0.00339543
0.00351162
0.00369376
0.0038873
0.00410086
0.00467979
0.00616111
0.00784171
0.0080466
0.00697022
0.00432955
0.00280481
0.00237635
0.00233467
0.00260704
0.00264174
0.00244487
0.00423085
0.00526325
0.00539521
0.00548217
0.00552036
0.00551068
0.00548126
0.0054743
0.00553662
0.00572735
0.00605101
0.00633927
0.00640608
0.00624431
0.00517313
0.00388891
0.00345431
0.00332248
0.0032757
0.0032679
0.0033052
0.00352357
0.00411075
0.00466367
0.00472864
0.00437388
0.00347529
0.00234421
0.0020108
0.002019
0.00212763
0.00242674
0.00309728
0.00468756
0.00641301
0.00715709
0.00746002
0.00747324
0.00696437
0.00390323
0.00180866
0.00102429
0.000822465
0.000777854
0.00085619
0.00104048
0.00144615
0.00312284
0.00806792
0.00919663
0.00921683
0.00920061
0.00909616
0.00892891
0.0086232
0.0078401
0.00614824
0.0037676
0.00238147
0.00198575
0.00194792
0.00233525
0.00385422
0.00687779
0.00912879
0.00951841
0.00952438
0.00950663
0.0100476
0.0119247
0.0149182
0.016809
0.0181457
0.0184426
0.0176315
0.00836127
0.00345699
0.00224091
0.00184854
0.00170851
0.00164309
0.00155981
0.00146088
0.00136114
0.00128125
0.00123166
0.00135723
0.00215578
0.00285509
0.00293487
0.00290626
0.00290642
0.00291357
0.00294904
0.00298815
0.00304379
0.00316658
0.00328726
0.00344404
0.00376126
0.00447137
0.00605465
0.00794666
0.00846232
0.00831426
0.00717351
0.00468696
0.00297795
0.00244614
0.00236885
0.00266691
0.00275583
0.00267329
0.00474899
0.00517001
0.00527324
0.0053215
0.00531763
0.00528523
0.00527622
0.00533138
0.00548882
0.00576693
0.00617088
0.00642863
0.0064862
0.00631383
0.0053408
0.00403531
0.00351245
0.0033753
0.00333517
0.00333225
0.00338387
0.00363279
0.00424356
0.00458539
0.00454189
0.00366256
0.0023977
0.0020044
0.00189329
0.00191311
0.00200081
0.00222845
0.0027655
0.00406408
0.00601471
0.00703785
0.00746107
0.00750031
0.00677761
0.00308395
0.0014597
0.000884779
0.000777714
0.000771941
0.00092066
0.00127158
0.00199996
0.00357797
0.00782405
0.00933362
0.00943096
0.00933681
0.00913447
0.00891938
0.00854573
0.00767714
0.00605659
0.00387875
0.00243507
0.00193011
0.00182264
0.00200411
0.00285412
0.00473209
0.00799753
0.00902939
0.00921988
0.0092941
0.00975514
0.0113904
0.01405
0.0166021
0.0181006
0.0183992
0.0179055
0.0092813
0.00377293
0.00235837
0.00190242
0.00172862
0.00165001
0.00157542
0.00148845
0.00138925
0.00130257
0.00129453
0.00168835
0.00282697
0.00297162
0.00296273
0.00292024
0.00290451
0.00289413
0.00290516
0.00292081
0.00292276
0.00299697
0.00312322
0.003397
0.00411224
0.00560425
0.00763609
0.00850793
0.00864934
0.00841697
0.00726184
0.00483708
0.00312088
0.00256426
0.00246763
0.00275282
0.0028743
0.00312657
0.00488482
0.00510092
0.00515722
0.00516745
0.00513508
0.00512425
0.00517192
0.00530379
0.00553869
0.00585831
0.00626473
0.00649647
0.0065499
0.00633031
0.00538394
0.00413079
0.00357493
0.00342273
0.00338504
0.00338463
0.00343153
0.00364193
0.00421565
0.00454731
0.00451567
0.00371325
0.00283478
0.0023532
0.00210067
0.00203042
0.00207199
0.00222769
0.00257375
0.00333182
0.00531422
0.0068435
0.00747099
0.00753054
0.00628697
0.00255814
0.00145534
0.000937971
0.00081843
0.000789753
0.000942809
0.00142005
0.00260823
0.00479961
0.00824065
0.00961149
0.00962839
0.00938906
0.00916358
0.00892243
0.00853368
0.00764854
0.00621183
0.00422792
0.00257376
0.00190161
0.00169742
0.00168953
0.00190712
0.00263256
0.00518664
0.00807359
0.00863674
0.00881238
0.00921728
0.0105688
0.013467
0.0165314
0.0180884
0.0183458
0.0179751
0.0121443
0.00480853
0.00271878
0.00203794
0.00177925
0.00166715
0.00159814
0.00151897
0.001417
0.00132764
0.00145009
0.0022292
0.00298944
0.00301717
0.00297539
0.00294268
0.00291279
0.00288904
0.00288971
0.00289845
0.0028914
0.00294516
0.00313925
0.00372032
0.00506342
0.00718748
0.00838201
0.00871601
0.0087667
0.00844217
0.00718623
0.00473857
0.00315563
0.00264603
0.00255718
0.00288732
0.0030801
0.00335335
0.00460181
0.00504966
0.00506361
0.00503848
0.00502651
0.00504739
0.00516261
0.00535891
0.00562689
0.00594659
0.00634362
0.00655552
0.00660038
0.00631489
0.00534667
0.00415964
0.00362586
0.00345671
0.00341216
0.00340968
0.00342926
0.00358861
0.00407932
0.00447498
0.00452952
0.00414505
0.0038446
0.00357521
0.00332498
0.00306294
0.00273713
0.00267674
0.0027979
0.00319538
0.00426987
0.00645417
0.00743683
0.00757364
0.00644546
0.00276097
0.0015984
0.00104084
0.000832508
0.000785075
0.000913166
0.00150077
0.00306064
0.00626848
0.0090635
0.00981568
0.00964503
0.00940554
0.00923243
0.00895369
0.00856329
0.0077045
0.00637047
0.00466327
0.00285238
0.00196544
0.00165958
0.00159055
0.00161399
0.00190521
0.00290624
0.00637977
0.00790117
0.00825671
0.0086457
0.00983482
0.0132754
0.0165954
0.0181184
0.0182664
0.0179203
0.0137185
0.0056419
0.00300621
0.00213426
0.00181192
0.00168285
0.00162563
0.00155322
0.00144423
0.00138619
0.00176126
0.00275236
0.00304234
0.00302561
0.00298039
0.00295475
0.0029138
0.00289693
0.00288779
0.00288497
0.00290103
0.00301058
0.00337396
0.00436077
0.00624313
0.00792371
0.00865409
0.00888315
0.00886905
0.0084146
0.00695362
0.00445945
0.00316605
0.00275844
0.00269615
0.00298913
0.00312376
0.00335561
0.00390973
0.00501561
0.00498473
0.00496496
0.0049639
0.00504585
0.00521449
0.00544205
0.00571486
0.0060193
0.00640186
0.00659395
0.006629
0.00629506
0.00525144
0.00414068
0.00365946
0.00348293
0.00341914
0.00340283
0.00340929
0.0034413
0.00364792
0.0041375
0.00441311
0.00427772
0.0039573
0.00375143
0.00361002
0.00348663
0.00321161
0.00304517
0.00312086
0.00331932
0.00386291
0.0054687
0.00718721
0.00755422
0.00693797
0.00357492
0.00189157
0.00125908
0.000878494
0.000801045
0.00087824
0.00131908
0.00285108
0.00628473
0.00911666
0.00977053
0.00957059
0.00944298
0.00935341
0.0090784
0.00857768
0.00768808
0.00640367
0.0048511
0.00329431
0.0021712
0.0017217
0.00156714
0.0015449
0.0017238
0.00216108
0.00375262
0.00685591
0.00771486
0.00817417
0.00957368
0.0134415
0.017046
0.0181306
0.0181812
0.0175704
0.0135778
0.00575248
0.00305752
0.00215378
0.00181941
0.00169114
0.00165408
0.00158621
0.00147516
0.0015095
0.00231153
0.00304961
0.00307893
0.00303598
0.00298922
0.00295786
0.00292625
0.00291717
0.00290145
0.00288728
0.00293286
0.00312898
0.003723
0.00510503
0.00708871
0.00841064
0.00896973
0.00906889
0.00894887
0.00840187
0.00683014
0.00432819
0.00320126
0.00289007
0.00284754
0.00289227
0.00280588
0.00278439
0.00291007
0.00497431
0.00493005
0.00491699
0.00495881
0.00509166
0.00528897
0.00552368
0.00578097
0.00606249
0.00642224
0.00664217
0.0066755
0.00629296
0.0051523
0.0040669
0.00365513
0.0034984
0.00343175
0.0033968
0.00336445
0.00331273
0.00335415
0.00349333
0.00382416
0.00381153
0.00362514
0.00340968
0.0033333
0.00327813
0.00308913
0.00296561
0.00304688
0.00330091
0.0037781
0.00469118
0.00642883
0.00739909
0.00723417
0.00531764
0.00252456
0.00150341
0.00100999
0.000840013
0.000867356
0.00109523
0.00229488
0.004931
0.00814598
0.00917709
0.00924658
0.00959444
0.00948394
0.00924481
0.00850143
0.00745855
0.00621099
0.00489854
0.00355881
0.00237254
0.00182477
0.00159694
0.00153325
0.00169947
0.00201328
0.00282292
0.00530751
0.00703081
0.00766075
0.00955521
0.0145539
0.0172301
0.0181183
0.0180742
0.0167984
0.0110017
0.00513512
0.00291563
0.0021132
0.00180821
0.00169678
0.00167541
0.0016165
0.00153102
0.00172379
0.00277734
0.00313797
0.00311163
0.00304025
0.00301025
0.00294914
0.00292765
0.00291109
0.00290311
0.00291026
0.00302562
0.00341805
0.00448266
0.0064331
0.00814376
0.00894047
0.00916327
0.00919118
0.00903143
0.00845217
0.00683136
0.00433901
0.00324972
0.00292783
0.00280839
0.0026308
0.00238595
0.00236157
0.00242499
0.00494924
0.00490424
0.00489615
0.0049897
0.00515071
0.00536606
0.00559422
0.00582682
0.00607945
0.00642803
0.00666205
0.00670966
0.00633636
0.00512294
0.00401883
0.003634
0.00349192
0.00342908
0.00339098
0.00334367
0.00326698
0.00321441
0.00320443
0.00326214
0.00324866
0.00317589
0.00308605
0.00291477
0.00272757
0.00254399
0.00254189
0.00263291
0.00297022
0.00356822
0.00454736
0.00623945
0.00734318
0.00736858
0.00623177
0.00285188
0.00158947
0.00104233
0.000836648
0.000849846
0.00101632
0.00188331
0.00390805
0.00590894
0.00777042
0.00922094
0.00988382
0.00965264
0.00917651
0.00811678
0.00706534
0.00610613
0.00501738
0.00371267
0.00250406
0.00191295
0.00164812
0.00154986
0.00174374
0.00213574
0.00269542
0.00399069
0.00550325
0.00694368
0.0105988
0.0153554
0.0172993
0.0180296
0.0179484
0.0155035
0.00734177
0.00374106
0.00243962
0.00194424
0.00175325
0.00169422
0.0016887
0.00164139
0.00162595
0.00210332
0.00309801
0.00319802
0.00311035
0.00305562
0.00301785
0.00295825
0.00291948
0.00290058
0.00290509
0.00298599
0.00326916
0.0041023
0.00584115
0.00763558
0.00862915
0.00908268
0.00921861
0.00921953
0.0090871
0.00859143
0.00705928
0.00450675
0.00336704
0.00302775
0.00288045
0.00262072
0.00225892
0.00220013
0.00221174
0.0049341
0.00488656
0.00490541
0.0050395
0.00521789
0.00542835
0.0056432
0.00585353
0.00607908
0.00641505
0.00666584
0.00672224
0.00638689
0.00517933
0.00399984
0.00360316
0.00346849
0.00341007
0.00337554
0.00333011
0.00325242
0.00316942
0.00310328
0.00308781
0.00305466
0.00299868
0.00292374
0.00273317
0.00245297
0.00225034
0.00224784
0.00232709
0.0026577
0.00337601
0.00464251
0.00635364
0.00742803
0.00742701
0.0059667
0.00253469
0.00145646
0.000946542
0.00081636
0.000846393
0.00103765
0.00178122
0.00348432
0.00502769
0.00737994
0.00945801
0.0100238
0.00960801
0.00859863
0.00748431
0.00678477
0.00616264
0.00529178
0.00403295
0.00267877
0.00197591
0.00168065
0.00158784
0.00183389
0.00248749
0.00383251
0.00449665
0.00555627
0.00725354
0.0118593
0.015771
0.017309
0.0179224
0.0178167
0.0147109
0.00609828
0.00321435
0.00223096
0.00186564
0.00173011
0.00169799
0.00170034
0.00167239
0.00175676
0.00263864
0.00328388
0.0032203
0.00311644
0.00306032
0.00299686
0.00293827
0.00291375
0.00291175
0.00296711
0.00320314
0.00388928
0.00549373
0.00720805
0.0081539
0.00880168
0.00912534
0.00922645
0.0092285
0.00911229
0.00868407
0.00728904
0.00470267
0.00348938
0.0031955
0.0031159
0.00290428
0.00247446
0.00238122
0.00227828
0.00494047
0.00488202
0.00492412
0.00507872
0.00527046
0.00547718
0.00567526
0.00585395
0.0060664
0.00636459
0.00662242
0.00669146
0.00641684
0.00529712
0.00401313
0.00357001
0.00342911
0.00337194
0.00334711
0.00330771
0.00323934
0.00316661
0.00303672
0.00302466
0.0029992
0.00295035
0.00287949
0.00269819
0.00240328
0.00217776
0.00216864
0.00223983
0.0025618
0.00333092
0.00486907
0.00672681
0.00762021
0.00652522
0.00335405
0.00165427
0.00113519
0.000853404
0.000843772
0.000973142
0.0013917
0.00257698
0.00398353
0.00504711
0.00755078
0.00979133
0.00990877
0.00891886
0.00776154
0.00704351
0.00668515
0.00625314
0.00552596
0.00435205
0.00293049
0.00209387
0.0017542
0.00164514
0.00187094
0.00255235
0.0042377
0.00513235
0.0059353
0.00838064
0.0133264
0.0159582
0.0171376
0.0177577
0.0177139
0.014694
0.00604196
0.00317674
0.00221915
0.00186809
0.00173815
0.00172109
0.00171547
0.00171465
0.0019265
0.0029025
0.00334205
0.00323236
0.00312416
0.00306619
0.0029822
0.00293269
0.00292219
0.00296668
0.00318196
0.00372557
0.00509532
0.00684241
0.00769225
0.0083643
0.00884339
0.0091124
0.00920383
0.0092112
0.00912163
0.00872084
0.00738669
0.00480328
0.00351885
0.00320178
0.00318721
0.00338401
0.00313709
0.00306269
0.00281004
0.00495812
0.00488831
0.00495574
0.00511681
0.00529789
0.00548795
0.00567897
0.00584621
0.0060417
0.00629965
0.00653066
0.00659616
0.00638379
0.00540104
0.00406745
0.00354786
0.00339027
0.00333115
0.00330435
0.00327358
0.00321703
0.00315759
0.003043
0.00296676
0.0029528
0.00291954
0.00285854
0.00271253
0.00244446
0.00219918
0.00218383
0.00225012
0.00256983
0.00334873
0.0049692
0.00692255
0.00764806
0.00477885
0.00196187
0.00133622
0.00100937
0.000892933
0.000907743
0.00104743
0.00153237
0.00274649
0.00396795
0.00511997
0.00787808
0.00975079
0.00904463
0.00791959
0.00721464
0.00687168
0.00667747
0.00639119
0.00580473
0.00469744
0.00318595
0.00221055
0.00184666
0.00174158
0.00193044
0.00249029
0.00402591
0.00541747
0.00674496
0.00991167
0.0138138
0.0157957
0.0167209
0.0175002
0.0176067
0.0153756
0.00692334
0.00351283
0.0023786
0.00195391
0.0017864
0.00175713
0.00172866
0.0017658
0.0022347
0.00337185
0.00342247
0.00323556
0.00311659
0.00304319
0.00296353
0.00294583
0.0029701
0.00315935
0.0036209
0.00455086
0.00637236
0.00724227
0.00797406
0.00849279
0.00884573
0.00906364
0.0091466
0.00916545
0.00910027
0.0087178
0.00734605
0.0047968
0.00358782
0.00324408
0.0031921
0.0035065
0.00364055
0.00368237
0.00370756
0.00500562
0.00492452
0.00498881
0.00513449
0.00530719
0.00549268
0.00565353
0.00580845
0.00602123
0.00623411
0.00642782
0.00648061
0.00628074
0.00541203
0.00412663
0.00353665
0.00335673
0.00329315
0.00326246
0.0032336
0.00316982
0.00313022
0.00307267
0.00299571
0.00287592
0.0028563
0.00281317
0.00269943
0.00245866
0.00225494
0.00224976
0.00231929
0.00263736
0.00340515
0.00495394
0.00687768
0.00759616
0.00485771
0.00189939
0.00130849
0.00101821
0.000924874
0.000934109
0.00105171
0.00149215
0.00265935
0.00384209
0.00507194
0.00788171
0.00899525
0.00798548
0.00729498
0.00699192
0.00683272
0.0067431
0.00659222
0.00619082
0.00524568
0.00367966
0.00241143
0.00196139
0.00184748
0.00211207
0.0026429
0.00390401
0.00543298
0.00726651
0.0105251
0.0137258
0.0152179
0.0160897
0.0171266
0.0174766
0.0164228
0.00946816
0.00453546
0.00280763
0.00215341
0.00187556
0.00181102
0.00174628
0.00182332
0.00249685
0.0035821
0.00348171
0.00323727
0.0031178
0.00303036
0.00298987
0.00299217
0.00309884
0.00344919
0.00411129
0.00538793
0.00699244
0.00761244
0.00820797
0.00854941
0.00881027
0.00896355
0.00905985
0.00909683
0.00905808
0.00867866
0.00717959
0.00467958
0.00366465
0.0033768
0.00329043
0.00353084
0.00383623
0.00396327
0.00401172
0.00506884
0.00497314
0.00503039
0.00517913
0.00533613
0.00548937
0.00564142
0.00578167
0.00597035
0.00617303
0.00633433
0.00637515
0.006132
0.00526425
0.00411575
0.00351391
0.00331327
0.00324334
0.00321068
0.00318297
0.00313656
0.00310047
0.00307244
0.00302401
0.00288752
0.00270087
0.00264719
0.00257448
0.00240393
0.00224742
0.00225531
0.00234828
0.00271309
0.00350649
0.00497031
0.00674094
0.00747316
0.00585503
0.00222114
0.00139662
0.00109916
0.000971226
0.000950324
0.00101958
0.00134703
0.0023887
0.00374262
0.00500224
0.00757398
0.0081632
0.00738811
0.00702351
0.00691593
0.00683662
0.00679593
0.00672603
0.0064944
0.00583663
0.00440155
0.00272078
0.00208021
0.00191262
0.00229518
0.00318593
0.00405755
0.00543951
0.00750135
0.0104831
0.013351
0.0143265
0.0152206
0.0166141
0.0172501
0.0167159
0.0121219
0.00568587
0.00323809
0.00231989
0.00195006
0.00183866
0.00175911
0.0018993
0.00274095
0.00369277
0.00351192
0.00324266
0.003104
0.00301948
0.00300019
0.0030281
0.00323023
0.00369987
0.00467732
0.0063571
0.00744272
0.00793225
0.00830944
0.00855061
0.00873672
0.00885545
0.00895741
0.00901109
0.00899227
0.0086191
0.00700595
0.00457638
0.00369575
0.00351466