/*--------------------------------*- C++ -*----------------------------------*\
  =========                 |
  \\      /  F ield         | OpenFOAM: The Open Source CFD Toolbox
   \\    /   O peration     | Website:  https://openfoam.org
    \\  /    A nd           | Version:  10
     \\/     M anipulation  |
\*---------------------------------------------------------------------------*/
FoamFile
{
    format      ascii;
    class       volVectorField;
    location    "0.10055";
    object      U;
}
// * * * * * * * * * * * * * * * * * * * * * * * * * * * * * * * * * * * * * //

dimensions      [0 1 -1 0 0 0 0];

internalField   nonuniform List<vector> 
16320
(
(-0.179176 0.109913 0)
(-0.194662 0.148015 0)
(-0.201339 0.209783 0)
(-0.214281 0.306186 0)
(-0.237652 0.439396 0)
(-0.238725 0.56893 0)
(-0.207989 0.694907 0)
(-0.15554 0.807996 0)
(-0.110859 0.84108 0)
(-0.0789794 0.765642 0)
(-0.0367751 0.665526 0)
(0.0116019 0.578751 0)
(0.0394794 0.555448 0)
(0.0584868 0.603358 0)
(0.0659559 0.559019 0)
(0.0065689 0.241838 0)
(-0.0757932 -0.223427 0)
(-0.150864 -0.550445 0)
(-0.104039 -0.613839 0)
(-0.0742841 -0.629021 0)
(-0.063371 -0.652277 0)
(-0.0468874 -0.709142 0)
(-0.0403286 -0.797171 0)
(-0.0512256 -0.852265 0)
(-0.0669021 -0.895743 0)
(-0.104976 -0.916275 0)
(-0.0991682 -0.621913 0)
(-0.137062 -0.395648 0)
(-0.0948692 -0.243225 0)
(-0.0235957 -0.0331837 0)
(0.0813727 0.234725 0)
(0.148748 0.34887 0)
(0.0836875 0.408828 0)
(-0.138742 0.463422 0)
(-0.369772 0.485426 0)
(-0.507981 0.465407 0)
(-0.546799 0.413503 0)
(-0.505812 0.340624 0)
(-0.425537 0.253658 0)
(-0.355613 0.167374 0)
(-0.310229 0.105034 0)
(-0.280443 0.0322093 0)
(-0.272587 -0.0852029 0)
(-0.277704 -0.17337 0)
(-0.294532 -0.209009 0)
(-0.311333 -0.0609132 0)
(-0.192084 0.337035 0)
(-0.147194 0.49182 0)
(-0.137486 0.505842 0)
(-0.141905 0.480953 0)
(-0.162575 0.460156 0)
(-0.181308 0.454197 0)
(-0.190472 0.448865 0)
(-0.175876 0.430541 0)
(-0.154218 0.365341 0)
(-0.107056 0.225504 0)
(-0.0438737 0.00429132 0)
(0.0314244 -0.234148 0)
(-0.0146451 -0.294734 0)
(-0.0465213 -0.336943 0)
(-0.0984974 -0.366138 0)
(-0.131078 -0.373886 0)
(-0.154514 -0.374056 0)
(-0.174561 -0.400577 0)
(-0.149396 -0.442005 0)
(-0.115477 -0.454981 0)
(-0.0820911 -0.353546 0)
(-0.0524304 -0.255111 0)
(-0.011591 -0.224662 0)
(0.0503273 -0.311462 0)
(0.106586 -0.480034 0)
(0.166079 -0.705595 0)
(0.228822 -0.960782 0)
(0.310684 -1.14914 0)
(0.295535 -1.19826 0)
(0.216707 -0.969781 0)
(0.242324 -0.649888 0)
(0.289408 -0.56311 0)
(0.325098 -0.530745 0)
(0.332418 -0.511017 0)
(0.283263 -0.493417 0)
(0.205604 -0.467168 0)
(0.144157 -0.433642 0)
(0.10047 -0.397026 0)
(0.0653228 -0.355863 0)
(0.0333367 -0.307344 0)
(-0.0035009 -0.247687 0)
(-0.0433673 -0.168821 0)
(-0.0654089 -0.077402 0)
(-0.0727109 0.0192693 0)
(0.000907504 0.215271 0)
(0.0273069 0.45779 0)
(0.00174524 0.650718 0)
(-0.0682399 0.764643 0)
(-0.115698 0.784864 0)
(-0.0558682 0.762861 0)
(-0.06225 0.753831 0)
(-0.0150317 0.711614 0)
(-0.097435 0.726229 0)
(-0.0359107 0.747716 0)
(-0.0486111 0.677266 0)
(-0.0908959 0.414979 0)
(-0.146073 -0.0226366 0)
(-0.221031 -0.342073 0)
(-0.293232 -0.45618 0)
(-0.289599 -0.505088 0)
(-0.250566 -0.519067 0)
(-0.219351 -0.524194 0)
(-0.183555 -0.543558 0)
(-0.124885 -0.548846 0)
(-0.0664668 -0.548925 0)
(0.0264049 -0.49233 0)
(0.0936428 -0.421253 0)
(-0.227662 0.153665 0)
(-0.241384 0.17869 0)
(-0.244991 0.231512 0)
(-0.232772 0.311827 0)
(-0.223937 0.425211 0)
(-0.215022 0.558439 0)
(-0.185384 0.684859 0)
(-0.134214 0.796964 0)
(-0.0740425 0.855529 0)
(-0.0243376 0.784628 0)
(0.0305778 0.66911 0)
(0.0870074 0.572313 0)
(0.12313 0.508247 0)
(0.154651 0.480801 0)
(0.149685 0.38285 0)
(0.079243 0.0998175 0)
(-0.0359191 -0.298474 0)
(-0.118894 -0.490499 0)
(-0.0758507 -0.51836 0)
(-0.0521164 -0.534882 0)
(-0.0350702 -0.560718 0)
(-0.00993859 -0.616854 0)
(0.00654674 -0.70854 0)
(-0.00787782 -0.773093 0)
(-0.0303294 -0.830247 0)
(-0.0900863 -0.87849 0)
(-0.10238 -0.59731 0)
(-0.163034 -0.378735 0)
(-0.164073 -0.232446 0)
(-0.155442 -0.0847494 0)
(-0.0401615 0.131628 0)
(0.0962987 0.258011 0)
(0.088053 0.341295 0)
(-0.108147 0.441245 0)
(-0.356815 0.50074 0)
(-0.509198 0.491611 0)
(-0.533418 0.434494 0)
(-0.467863 0.349901 0)
(-0.391302 0.252079 0)
(-0.327951 0.167756 0)
(-0.277029 0.0865792 0)
(-0.266736 -0.0395896 0)
(-0.283182 -0.16185 0)
(-0.303254 -0.236133 0)
(-0.328571 -0.266245 0)
(-0.343189 -0.179595 0)
(-0.304996 0.201825 0)
(-0.198831 0.417313 0)
(-0.180194 0.466867 0)
(-0.165127 0.464277 0)
(-0.171871 0.448786 0)
(-0.1759 0.441057 0)
(-0.174334 0.427643 0)
(-0.152953 0.389589 0)
(-0.118652 0.301065 0)
(-0.060687 0.147336 0)
(0.0294033 -0.0745615 0)
(0.0201657 -0.226358 0)
(-0.036496 -0.272685 0)
(-0.0743087 -0.310004 0)
(-0.133719 -0.334702 0)
(-0.181844 -0.346138 0)
(-0.225876 -0.367298 0)
(-0.24837 -0.42845 0)
(-0.223503 -0.483475 0)
(-0.175464 -0.480245 0)
(-0.143472 -0.419911 0)
(-0.125094 -0.358561 0)
(-0.0932471 -0.321683 0)
(-0.0427638 -0.36488 0)
(0.0194282 -0.509123 0)
(0.0941295 -0.738348 0)
(0.180412 -0.974638 0)
(0.270635 -1.13077 0)
(0.241821 -1.12744 0)
(0.205128 -0.862749 0)
(0.245685 -0.604645 0)
(0.292918 -0.53026 0)
(0.332321 -0.50183 0)
(0.345434 -0.483778 0)
(0.30474 -0.46327 0)
(0.23458 -0.438362 0)
(0.177859 -0.408783 0)
(0.138066 -0.376025 0)
(0.108527 -0.339201 0)
(0.0831055 -0.299498 0)
(0.0593809 -0.252189 0)
(0.0358386 -0.18897 0)
(0.0164115 -0.106458 0)
(0.00150564 -0.0140797 0)
(0.0238389 0.124401 0)
(0.0454135 0.394006 0)
(0.0378389 0.64316 0)
(-0.039348 0.801136 0)
(-0.110164 0.853566 0)
(-0.0464178 0.858668 0)
(-0.0388565 0.872335 0)
(0.0420773 0.834676 0)
(-0.0370458 0.843475 0)
(0.0306966 0.844511 0)
(0.00989577 0.743855 0)
(-0.0539754 0.358846 0)
(-0.177686 -0.138521 0)
(-0.291551 -0.355369 0)
(-0.326128 -0.423008 0)
(-0.302009 -0.458204 0)
(-0.244858 -0.468966 0)
(-0.196019 -0.469602 0)
(-0.147039 -0.499188 0)
(-0.0756958 -0.522799 0)
(-0.0077343 -0.53982 0)
(0.0850007 -0.504786 0)
(0.158261 -0.449762 0)
(-0.264475 0.195463 0)
(-0.27551 0.21034 0)
(-0.28005 0.2521 0)
(-0.267995 0.320263 0)
(-0.237041 0.409612 0)
(-0.203241 0.52498 0)
(-0.165795 0.645024 0)
(-0.112022 0.755257 0)
(-0.0455032 0.826933 0)
(0.0268288 0.761851 0)
(0.0992627 0.641936 0)
(0.172474 0.539448 0)
(0.228033 0.454192 0)
(0.263882 0.380867 0)
(0.242342 0.246584 0)
(0.142918 -0.0169489 0)
(-0.00375589 -0.289975 0)
(-0.102845 -0.390445 0)
(-0.0722326 -0.411174 0)
(-0.0592877 -0.433711 0)
(-0.0331602 -0.464433 0)
(0.00545394 -0.518974 0)
(0.0313788 -0.606003 0)
(0.017875 -0.674146 0)
(-0.00695679 -0.73443 0)
(-0.084961 -0.796763 0)
(-0.12089 -0.523662 0)
(-0.196124 -0.312655 0)
(-0.213524 -0.1965 0)
(-0.182869 -0.111721 0)
(-0.0954052 0.021235 0)
(0.0722457 0.107755 0)
(0.128049 0.214468 0)
(-0.0245131 0.352392 0)
(-0.29854 0.477509 0)
(-0.48077 0.504582 0)
(-0.504112 0.451255 0)
(-0.439101 0.355271 0)
(-0.357691 0.245074 0)
(-0.282482 0.141737 0)
(-0.223882 0.0155583 0)
(-0.222458 -0.123019 0)
(-0.232388 -0.218806 0)
(-0.249039 -0.277525 0)
(-0.275326 -0.291488 0)
(-0.266723 -0.248286 0)
(-0.298163 0.0788162 0)
(-0.220119 0.314228 0)
(-0.186175 0.415429 0)
(-0.15951 0.436287 0)
(-0.159785 0.428689 0)
(-0.158299 0.419172 0)
(-0.154656 0.399997 0)
(-0.132635 0.344322 0)
(-0.0950734 0.23736 0)
(-0.0292112 0.061293 0)
(0.033405 -0.160463 0)
(-0.00312131 -0.215478 0)
(-0.0600882 -0.249153 0)
(-0.101511 -0.280563 0)
(-0.157782 -0.303829 0)
(-0.200025 -0.329284 0)
(-0.224549 -0.382763 0)
(-0.226913 -0.480526 0)
(-0.219204 -0.536837 0)
(-0.190063 -0.498795 0)
(-0.174982 -0.408664 0)
(-0.169938 -0.326965 0)
(-0.14101 -0.294613 0)
(-0.109366 -0.3548 0)
(-0.0389608 -0.531599 0)
(0.0520206 -0.778175 0)
(0.147668 -0.988704 0)
(0.237218 -1.11601 0)
(0.197191 -1.06619 0)
(0.197137 -0.778431 0)
(0.246968 -0.57173 0)
(0.294904 -0.505181 0)
(0.338122 -0.47897 0)
(0.359341 -0.461488 0)
(0.326836 -0.440056 0)
(0.261765 -0.415812 0)
(0.208775 -0.388434 0)
(0.171579 -0.359499 0)
(0.142351 -0.331083 0)
(0.118441 -0.306596 0)
(0.102285 -0.275123 0)
(0.0907646 -0.235952 0)
(0.075394 -0.178484 0)
(0.051281 -0.101185 0)
(0.0564189 0.0188969 0)
(0.0345555 0.32393 0)
(0.0271436 0.640038 0)
(-0.0444657 0.823816 0)
(-0.121204 0.909553 0)
(-0.0517941 0.947595 0)
(-0.0288133 0.97799 0)
(0.0796344 0.947799 0)
(0.0190065 0.949321 0)
(0.0771442 0.929876 0)
(0.0432692 0.802664 0)
(-0.0550476 0.349858 0)
(-0.283889 -0.163072 0)
(-0.379866 -0.329279 0)
(-0.36353 -0.382055 0)
(-0.313522 -0.408699 0)
(-0.24052 -0.414101 0)
(-0.177301 -0.406682 0)
(-0.118971 -0.437771 0)
(-0.029911 -0.481496 0)
(0.0426792 -0.518164 0)
(0.130209 -0.509331 0)
(0.206952 -0.47441 0)
(-0.291471 0.236648 0)
(-0.296837 0.248067 0)
(-0.299891 0.281156 0)
(-0.291678 0.3363 0)
(-0.261687 0.41124 0)
(-0.213673 0.501765 0)
(-0.159811 0.602812 0)
(-0.102689 0.702726 0)
(-0.0306374 0.777897 0)
(0.0604484 0.714632 0)
(0.141208 0.583583 0)
(0.241358 0.456275 0)
(0.326399 0.349937 0)
(0.364077 0.247792 0)
(0.306194 0.094518 0)
(0.146105 -0.124745 0)
(-0.0241306 -0.249899 0)
(-0.107001 -0.291431 0)
(-0.0842897 -0.323818 0)
(-0.0756567 -0.347075 0)
(-0.0436286 -0.375551 0)
(0.00640961 -0.427538 0)
(0.0409472 -0.505324 0)
(0.0316178 -0.565872 0)
(0.00786698 -0.619727 0)
(-0.0732374 -0.692472 0)
(-0.125374 -0.435546 0)
(-0.190229 -0.231347 0)
(-0.220176 -0.126198 0)
(-0.191564 -0.0704311 0)
(-0.143859 -0.0208226 0)
(0.0402371 -0.00756552 0)
(0.160274 0.0940413 0)
(0.0977643 0.217625 0)
(-0.170363 0.387506 0)
(-0.406827 0.47998 0)
(-0.464427 0.453058 0)
(-0.40924 0.356029 0)
(-0.32548 0.239369 0)
(-0.235342 0.108998 0)
(-0.168246 -0.04396 0)
(-0.180107 -0.159706 0)
(-0.177798 -0.243781 0)
(-0.166541 -0.297505 0)
(-0.174768 -0.295013 0)
(-0.159881 -0.240401 0)
(-0.241338 -0.114773 0)
(-0.223258 0.192365 0)
(-0.154642 0.356222 0)
(-0.129188 0.400738 0)
(-0.129869 0.402423 0)
(-0.125244 0.392161 0)
(-0.12132 0.370375 0)
(-0.100992 0.309958 0)
(-0.0607712 0.193553 0)
(0.0251426 -0.00301909 0)
(0.0251784 -0.173812 0)
(-0.028102 -0.202285 0)
(-0.0782102 -0.235564 0)
(-0.11391 -0.268002 0)
(-0.148447 -0.303926 0)
(-0.168284 -0.352882 0)
(-0.158576 -0.425695 0)
(-0.14683 -0.508011 0)
(-0.154093 -0.538968 0)
(-0.157628 -0.474771 0)
(-0.187771 -0.370882 0)
(-0.206161 -0.296885 0)
(-0.185749 -0.286059 0)
(-0.145351 -0.365482 0)
(-0.0677611 -0.564215 0)
(0.0340171 -0.814522 0)
(0.120193 -0.995504 0)
(0.201702 -1.09889 0)
(0.140378 -1.0119 0)
(0.186695 -0.726393 0)
(0.247099 -0.5571 0)
(0.297123 -0.49386 0)
(0.345325 -0.464812 0)
(0.374305 -0.444857 0)
(0.349562 -0.422274 0)
(0.288483 -0.397403 0)
(0.236912 -0.371628 0)
(0.197553 -0.347837 0)
(0.162041 -0.330759 0)
(0.136597 -0.318943 0)
(0.124824 -0.300849 0)
(0.117273 -0.279937 0)
(0.102549 -0.243178 0)
(0.0768095 -0.179476 0)
(0.0532757 -0.0756232 0)
(-0.00275555 0.199322 0)
(-0.0443281 0.61166 0)
(-0.0881927 0.828031 0)
(-0.142079 0.949342 0)
(-0.064077 1.0224 0)
(-0.0279187 1.0669 0)
(0.0999326 1.04517 0)
(0.0590662 1.0363 0)
(0.104677 0.990861 0)
(0.0475476 0.832514 0)
(-0.0823833 0.386658 0)
(-0.32037 -0.103244 0)
(-0.406488 -0.291852 0)
(-0.355506 -0.343806 0)
(-0.294428 -0.361863 0)
(-0.220681 -0.359965 0)
(-0.153796 -0.345469 0)
(-0.0936961 -0.367237 0)
(-0.00201867 -0.420146 0)
(0.0725787 -0.480076 0)
(0.160008 -0.498802 0)
(0.235355 -0.483699 0)
(-0.308508 0.27703 0)
(-0.306279 0.288827 0)
(-0.305433 0.316827 0)
(-0.297843 0.360889 0)
(-0.272324 0.421526 0)
(-0.227965 0.493837 0)
(-0.169506 0.571086 0)
(-0.103598 0.647215 0)
(-0.0337414 0.713098 0)
(0.0515794 0.64328 0)
(0.108715 0.480469 0)
(0.218849 0.276571 0)
(0.333279 0.155268 0)
(0.350951 0.0523631 0)
(0.224017 -0.0662853 0)
(0.0431498 -0.138807 0)
(-0.125807 -0.175299 0)
(-0.147049 -0.198826 0)
(-0.121929 -0.246938 0)
(-0.0994153 -0.276045 0)
(-0.0615065 -0.302931 0)
(-0.00277265 -0.348239 0)
(0.0419616 -0.414428 0)
(0.0421868 -0.459915 0)
(0.0216577 -0.501733 0)
(-0.0442515 -0.578312 0)
(-0.106535 -0.352824 0)
(-0.137915 -0.161026 0)
(-0.188461 -0.0610958 0)
(-0.148176 -0.00985612 0)
(-0.153907 -0.0140733 0)
(-0.0114684 -0.069604 0)
(0.138319 0.0301949 0)
(0.176738 0.123708 0)
(-0.000259454 0.252143 0)
(-0.267375 0.393993 0)
(-0.393702 0.426718 0)
(-0.369943 0.352779 0)
(-0.296594 0.231455 0)
(-0.205347 0.0844993 0)
(-0.164381 -0.0594708 0)
(-0.189623 -0.169985 0)
(-0.170328 -0.247959 0)
(-0.125985 -0.308746 0)
(-0.0764836 -0.305571 0)
(-0.0548965 -0.231584 0)
(-0.0887424 -0.156387 0)
(-0.132049 0.0948936 0)
(-0.0910871 0.296415 0)
(-0.0860479 0.364497 0)
(-0.0910141 0.372155 0)
(-0.0847457 0.362241 0)
(-0.0729263 0.334106 0)
(-0.0508835 0.267121 0)
(-0.0122173 0.126428 0)
(0.0671764 -0.0884835 0)
(0.00436574 -0.181076 0)
(-0.0538706 -0.20405 0)
(-0.0945751 -0.24178 0)
(-0.117554 -0.280578 0)
(-0.117777 -0.331992 0)
(-0.121056 -0.386991 0)
(-0.0969214 -0.442574 0)
(-0.0782082 -0.489594 0)
(-0.0943527 -0.49387 0)
(-0.13123 -0.414494 0)
(-0.191034 -0.305106 0)
(-0.217596 -0.239801 0)
(-0.210241 -0.25227 0)
(-0.16106 -0.362015 0)
(-0.081529 -0.584746 0)
(0.020305 -0.835233 0)
(0.095711 -0.992186 0)
(0.16835 -1.06952 0)
(0.076473 -0.948227 0)
(0.174848 -0.672127 0)
(0.252679 -0.539963 0)
(0.306839 -0.48475 0)
(0.359249 -0.454301 0)
(0.392959 -0.432989 0)
(0.373775 -0.408798 0)
(0.31523 -0.382515 0)
(0.261469 -0.358225 0)
(0.214715 -0.340299 0)
(0.1711 -0.332255 0)
(0.145369 -0.326745 0)
(0.134908 -0.316223 0)
(0.129247 -0.304013 0)
(0.111923 -0.272386 0)
(0.0713116 -0.210217 0)
(-0.000768583 -0.0984776 0)
(-0.139134 0.179643 0)
(-0.150258 0.523167 0)
(-0.150703 0.800783 0)
(-0.167356 0.973538 0)
(-0.0796988 1.07884 0)
(-0.0332844 1.13278 0)
(0.104214 1.11356 0)
(0.0738546 1.09203 0)
(0.102834 1.01992 0)
(0.0296574 0.829205 0)
(-0.108018 0.418922 0)
(-0.311044 -0.0319327 0)
(-0.370996 -0.248345 0)
(-0.300286 -0.309465 0)
(-0.246972 -0.319441 0)
(-0.194218 -0.317162 0)
(-0.138331 -0.297227 0)
(-0.0785988 -0.3001 0)
(0.00710326 -0.345323 0)
(0.0786864 -0.425235 0)
(0.16808 -0.469755 0)
(0.243933 -0.472347 0)
(-0.316187 0.316816 0)
(-0.306663 0.328925 0)
(-0.299704 0.354207 0)
(-0.289619 0.389985 0)
(-0.266817 0.435749 0)
(-0.230394 0.489122 0)
(-0.180256 0.544983 0)
(-0.119212 0.594598 0)
(-0.0555014 0.629028 0)
(0.0150994 0.553895 0)
(0.0404796 0.344434 0)
(0.0766936 -0.0155137 0)
(0.150158 -0.106082 0)
(0.117216 -0.0929548 0)
(-0.0330701 -0.100924 0)
(-0.202177 -0.116879 0)
(-0.235706 -0.116074 0)
(-0.208478 -0.146966 0)
(-0.174852 -0.19064 0)
(-0.133265 -0.218388 0)
(-0.0831399 -0.24315 0)
(-0.0162753 -0.278842 0)
(0.0377198 -0.331954 0)
(0.051616 -0.363038 0)
(0.0369694 -0.39523 0)
(-0.00163975 -0.461695 0)
(-0.0768846 -0.279899 0)
(-0.0666007 -0.101869 0)
(-0.121379 0.00785834 0)
(-0.0937593 0.0769688 0)
(-0.087779 0.0295215 0)
(-0.0437636 -0.0637927 0)
(0.081573 0.0124344 0)
(0.166762 0.103986 0)
(0.11398 0.164174 0)
(-0.088617 0.267955 0)
(-0.26641 0.345578 0)
(-0.314274 0.326495 0)
(-0.289498 0.218711 0)
(-0.248872 0.0937127 0)
(-0.248138 -0.0401524 0)
(-0.255397 -0.152252 0)
(-0.210055 -0.240686 0)
(-0.158934 -0.329254 0)
(-0.0477241 -0.333754 0)
(0.00638711 -0.235533 0)
(0.0249111 -0.13897 0)
(-0.0226317 0.0354044 0)
(-0.0290386 0.260389 0)
(-0.0490667 0.346262 0)
(-0.0617175 0.3482 0)
(-0.0511619 0.329693 0)
(-0.0339823 0.291864 0)
(-0.00830609 0.207124 0)
(0.0371263 0.0492941 0)
(0.0566899 -0.113836 0)
(-0.0356102 -0.17962 0)
(-0.0890436 -0.215375 0)
(-0.107344 -0.256027 0)
(-0.117352 -0.299191 0)
(-0.095537 -0.354876 0)
(-0.103082 -0.404049 0)
(-0.0833299 -0.442545 0)
(-0.0699396 -0.457234 0)
(-0.0969638 -0.431152 0)
(-0.161109 -0.340186 0)
(-0.227242 -0.233413 0)
(-0.244375 -0.182614 0)
(-0.223783 -0.221829 0)
(-0.169859 -0.35778 0)
(-0.08701 -0.592748 0)
(0.00518118 -0.840817 0)
(0.0773362 -0.980256 0)
(0.149427 -1.02689 0)
(0.045852 -0.880147 0)
(0.174627 -0.617849 0)
(0.265904 -0.518779 0)
(0.322877 -0.473461 0)
(0.376415 -0.445242 0)
(0.413234 -0.423723 0)
(0.400407 -0.398392 0)
(0.342554 -0.370906 0)
(0.282742 -0.348034 0)
(0.225508 -0.335629 0)
(0.174282 -0.332365 0)
(0.148434 -0.330581 0)
(0.137174 -0.32462 0)
(0.133511 -0.314785 0)
(0.109259 -0.282339 0)
(0.0469424 -0.21904 0)
(-0.0621239 -0.0464942 0)
(-0.219263 0.161035 0)
(-0.249675 0.420441 0)
(-0.222459 0.731014 0)
(-0.193715 0.96871 0)
(-0.100926 1.10204 0)
(-0.0512657 1.15943 0)
(0.0899692 1.14238 0)
(0.0726214 1.10959 0)
(0.0830205 1.01158 0)
(-0.006172 0.790745 0)
(-0.138692 0.404974 0)
(-0.276717 0.00625063 0)
(-0.263639 -0.195096 0)
(-0.210659 -0.278927 0)
(-0.193433 -0.287058 0)
(-0.177208 -0.285624 0)
(-0.139401 -0.261303 0)
(-0.08245 -0.244933 0)
(-0.00685322 -0.27129 0)
(0.0618754 -0.368416 0)
(0.15598 -0.433892 0)
(0.233703 -0.44641 0)
(-0.317326 0.352078 0)
(-0.301514 0.365789 0)
(-0.287843 0.388825 0)
(-0.273241 0.417562 0)
(-0.250144 0.45034 0)
(-0.218609 0.485604 0)
(-0.17794 0.520683 0)
(-0.12797 0.546123 0)
(-0.0755825 0.54886 0)
(-0.0281635 0.462483 0)
(0.00854536 0.218626 0)
(-0.0192099 -0.217883 0)
(-0.0470151 -0.2964 0)
(-0.159524 -0.191936 0)
(-0.289101 -0.138205 0)
(-0.331158 -0.113817 0)
(-0.309155 -0.11087 0)
(-0.268478 -0.135139 0)
(-0.217105 -0.156379 0)
(-0.163 -0.170965 0)
(-0.103688 -0.189834 0)
(-0.0312468 -0.21802 0)
(0.0296276 -0.258219 0)
(0.058499 -0.278611 0)
(0.0553525 -0.305189 0)
(0.0460176 -0.351724 0)
(-0.0297242 -0.211245 0)
(-0.00502394 -0.0643854 0)
(-0.0459762 0.046395 0)
(-0.0493857 0.113954 0)
(-0.0103905 0.0835498 0)
(-0.0250784 -0.0154218 0)
(0.0258919 0.0286496 0)
(0.11938 0.124769 0)
(0.143265 0.166197 0)
(0.0610434 0.181287 0)
(-0.0873171 0.223452 0)
(-0.214034 0.260339 0)
(-0.276147 0.208721 0)
(-0.310382 0.110614 0)
(-0.336382 -0.0343717 0)
(-0.307291 -0.142599 0)
(-0.259334 -0.247044 0)
(-0.216292 -0.370818 0)
(-0.113148 -0.393115 0)
(-0.0495676 -0.288306 0)
(0.0161208 -0.137665 0)
(-0.0181016 0.0733299 0)
(-0.0456902 0.275548 0)
(-0.0554242 0.338367 0)
(-0.0582599 0.32638 0)
(-0.0377311 0.29634 0)
(-0.0160469 0.244944 0)
(0.0119387 0.152924 0)
(0.0363332 0.00898535 0)
(0.00821311 -0.1221 0)
(-0.0770301 -0.187548 0)
(-0.118062 -0.233456 0)
(-0.119017 -0.271051 0)
(-0.126531 -0.31565 0)
(-0.103853 -0.372333 0)
(-0.124739 -0.414816 0)
(-0.101274 -0.441347 0)
(-0.0934341 -0.429186 0)
(-0.138662 -0.367794 0)
(-0.218755 -0.26593 0)
(-0.273309 -0.165869 0)
(-0.276667 -0.133372 0)
(-0.238815 -0.196504 0)
(-0.182815 -0.352982 0)
(-0.0916622 -0.601655 0)
(-0.0108708 -0.838176 0)
(0.0680045 -0.965133 0)
(0.141286 -0.98035 0)
(0.0462135 -0.826325 0)
(0.181866 -0.574358 0)
(0.283565 -0.499555 0)
(0.342856 -0.46311 0)
(0.397249 -0.437447 0)
(0.436115 -0.415246 0)
(0.427992 -0.389715 0)
(0.369815 -0.361962 0)
(0.300942 -0.3407 0)
(0.231518 -0.333188 0)
(0.17358 -0.333664 0)
(0.146298 -0.336104 0)
(0.13273 -0.333651 0)
(0.130395 -0.320802 0)
(0.0924704 -0.283552 0)
(0.00802082 -0.189442 0)
(-0.191304 0.0354392 0)
(-0.281903 0.16774 0)
(-0.319172 0.345349 0)
(-0.286884 0.625351 0)
(-0.221204 0.909341 0)
(-0.127534 1.06788 0)
(-0.0730096 1.1313 0)
(0.0668688 1.12345 0)
(0.0575107 1.07685 0)
(0.0486202 0.943205 0)
(-0.0482633 0.68917 0)
(-0.165985 0.325926 0)
(-0.210951 0.00417047 0)
(-0.169748 -0.185888 0)
(-0.153212 -0.262352 0)
(-0.164034 -0.257382 0)
(-0.175362 -0.249154 0)
(-0.157772 -0.225382 0)
(-0.110081 -0.197971 0)
(-0.0399918 -0.208141 0)
(0.0290451 -0.323109 0)
(0.128358 -0.405086 0)
(0.208285 -0.419136 0)
(-0.313611 0.378301 0)
(-0.293555 0.395733 0)
(-0.274312 0.416859 0)
(-0.254325 0.43953 0)
(-0.229458 0.461468 0)
(-0.200716 0.480678 0)
(-0.167755 0.494965 0)
(-0.130595 0.494202 0)
(-0.0941259 0.45973 0)
(-0.0748466 0.342394 0)
(-0.0127806 0.0778654 0)
(-0.116527 -0.400503 0)
(-0.232785 -0.452934 0)
(-0.359538 -0.296582 0)
(-0.414933 -0.198437 0)
(-0.400876 -0.149353 0)
(-0.356797 -0.130158 0)
(-0.301654 -0.126408 0)
(-0.240889 -0.125104 0)
(-0.182926 -0.127923 0)
(-0.120068 -0.138641 0)
(-0.0453337 -0.160212 0)
(0.0202576 -0.191293 0)
(0.0617986 -0.20784 0)
(0.0741461 -0.232811 0)
(0.0899938 -0.259658 0)
(0.0473803 -0.133114 0)
(0.0481163 -0.0136197 0)
(0.0197875 0.0798167 0)
(-0.0100554 0.139372 0)
(0.0268595 0.133832 0)
(0.00274413 0.061935 0)
(-0.000332951 0.0543822 0)
(0.0903692 0.147996 0)
(0.139856 0.205927 0)
(0.130546 0.187684 0)
(0.0806436 0.148013 0)
(-0.07883 0.189755 0)
(-0.217857 0.223168 0)
(-0.303319 0.160656 0)
(-0.347709 0.0584803 0)
(-0.32214 -0.0663146 0)
(-0.283166 -0.214105 0)
(-0.238801 -0.370153 0)
(-0.166161 -0.401758 0)
(-0.126023 -0.33226 0)
(-0.0587364 -0.158603 0)
(-0.0642102 0.0777167 0)
(-0.0831141 0.261925 0)
(-0.0851543 0.305901 0)
(-0.0692703 0.287693 0)
(-0.0410461 0.254035 0)
(-0.0139871 0.199547 0)
(0.0160058 0.11352 0)
(0.0198814 -0.00857866 0)
(-0.00886125 -0.129491 0)
(-0.0894152 -0.205529 0)
(-0.133847 -0.255339 0)
(-0.137203 -0.285345 0)
(-0.150988 -0.326641 0)
(-0.135313 -0.381613 0)
(-0.164603 -0.416465 0)
(-0.145321 -0.431848 0)
(-0.155397 -0.389859 0)
(-0.210666 -0.304591 0)
(-0.283737 -0.194632 0)
(-0.307415 -0.10124 0)
(-0.293841 -0.0851797 0)
(-0.24658 -0.168708 0)
(-0.201375 -0.350088 0)
(-0.0964071 -0.611045 0)
(-0.0196679 -0.830803 0)
(0.0671935 -0.94945 0)
(0.135566 -0.93712 0)
(0.0812954 -0.785416 0)
(0.200547 -0.545021 0)
(0.302607 -0.482109 0)
(0.363148 -0.45134 0)
(0.418316 -0.428223 0)
(0.459521 -0.406675 0)
(0.455727 -0.381992 0)
(0.396522 -0.354956 0)
(0.316144 -0.336378 0)
(0.232398 -0.333343 0)
(0.167327 -0.338346 0)
(0.137131 -0.345546 0)
(0.121887 -0.343465 0)
(0.124146 -0.319796 0)
(0.0780222 -0.27897 0)
(-0.0216444 -0.13155 0)
(-0.208872 0.0739654 0)
(-0.284421 0.18199 0)
(-0.339739 0.310353 0)
(-0.328616 0.528034 0)
(-0.251575 0.795929 0)
(-0.150528 0.968642 0)
(-0.0872827 1.03934 0)
(0.0341145 1.03822 0)
(0.0296686 0.972664 0)
(0.00725517 0.800837 0)
(-0.0858388 0.524435 0)
(-0.160536 0.210721 0)
(-0.125688 -0.0552595 0)
(-0.112669 -0.236655 0)
(-0.125032 -0.273556 0)
(-0.173988 -0.241287 0)
(-0.206668 -0.215657 0)
(-0.196927 -0.185755 0)
(-0.149957 -0.148768 0)
(-0.0812321 -0.155507 0)
(-0.00625425 -0.289254 0)
(0.0940495 -0.389422 0)
(0.172707 -0.396958 0)
(-0.305666 0.393708 0)
(-0.284141 0.41521 0)
(-0.262035 0.435632 0)
(-0.237687 0.4533 0)
(-0.211695 0.465676 0)
(-0.186508 0.470086 0)
(-0.163003 0.46328 0)
(-0.144161 0.431929 0)
(-0.135604 0.351907 0)
(-0.123769 0.179677 0)
(-0.161573 -0.204876 0)
(-0.287771 -0.593465 0)
(-0.402304 -0.614867 0)
(-0.483622 -0.410556 0)
(-0.478741 -0.254927 0)
(-0.43023 -0.1713 0)
(-0.373829 -0.126605 0)
(-0.314415 -0.103205 0)
(-0.254787 -0.0888528 0)
(-0.197242 -0.0840608 0)
(-0.13321 -0.0881275 0)
(-0.0611319 -0.102514 0)
(0.00459029 -0.12861 0)
(0.0583061 -0.148784 0)
(0.0866621 -0.173318 0)
(0.121892 -0.18941 0)
(0.121596 -0.0635386 0)
(0.112455 0.0537149 0)
(0.0859604 0.124475 0)
(0.0412569 0.176053 0)
(0.07046 0.180936 0)
(0.0576966 0.136519 0)
(0.0262398 0.098057 0)
(0.0870241 0.161327 0)
(0.145663 0.233939 0)
(0.160135 0.229309 0)
(0.173617 0.141964 0)
(0.0820008 0.100682 0)
(-0.0988926 0.158691 0)
(-0.235865 0.155129 0)
(-0.303199 0.0898326 0)
(-0.287076 -0.0179927 0)
(-0.270824 -0.175535 0)
(-0.232217 -0.343307 0)
(-0.187889 -0.365876 0)
(-0.186704 -0.357233 0)
(-0.137846 -0.198429 0)
(-0.119921 0.0467657 0)
(-0.113951 0.212082 0)
(-0.109544 0.25023 0)
(-0.0782127 0.233134 0)
(-0.0461474 0.202191 0)
(-0.0137969 0.15593 0)
(0.0178981 0.0826949 0)
(0.0218613 -0.0247555 0)
(0.0043313 -0.140728 0)
(-0.0821497 -0.224363 0)
(-0.141356 -0.269427 0)
(-0.156326 -0.292548 0)
(-0.179348 -0.327343 0)
(-0.178141 -0.378396 0)
(-0.215684 -0.414497 0)
(-0.20795 -0.41868 0)
(-0.238072 -0.345358 0)
(-0.290123 -0.249263 0)
(-0.341352 -0.136562 0)
(-0.338599 -0.0536811 0)
(-0.306898 -0.0516725 0)
(-0.251295 -0.145351 0)
(-0.208068 -0.354512 0)
(-0.0998712 -0.613071 0)
(-0.0244152 -0.820449 0)
(0.0715967 -0.933597 0)
(0.125657 -0.901019 0)
(0.115085 -0.746825 0)
(0.224265 -0.53186 0)
(0.320336 -0.471524 0)
(0.380789 -0.44227 0)
(0.437133 -0.419945 0)
(0.481362 -0.398536 0)
(0.481909 -0.374974 0)
(0.421038 -0.350085 0)
(0.327187 -0.335777 0)
(0.228023 -0.337239 0)
(0.155032 -0.346991 0)
(0.122302 -0.35801 0)
(0.108366 -0.349312 0)
(0.112823 -0.307356 0)
(0.0600716 -0.263517 0)
(-0.0953637 -0.0492861 0)
(-0.200048 0.105546 0)
(-0.249677 0.183413 0)
(-0.311002 0.289739 0)
(-0.322573 0.454528 0)
(-0.266079 0.671215 0)
(-0.167855 0.83038 0)
(-0.100651 0.895948 0)
(-0.00628902 0.895264 0)
(-0.0090129 0.811077 0)
(-0.0453727 0.610861 0)
(-0.107214 0.346414 0)
(-0.0964014 0.0712381 0)
(-0.103073 -0.224901 0)
(-0.130811 -0.334019 0)
(-0.179594 -0.339542 0)
(-0.226533 -0.27098 0)
(-0.25585 -0.207574 0)
(-0.234279 -0.16033 0)
(-0.178207 -0.112619 0)
(-0.110925 -0.116095 0)
(-0.0354701 -0.260827 0)
(0.0591388 -0.383774 0)
(0.137101 -0.377271 0)
(-0.292659 0.39552 0)
(-0.274099 0.420545 0)
(-0.251164 0.441564 0)
(-0.225379 0.455568 0)
(-0.201547 0.45844 0)
(-0.183727 0.447452 0)
(-0.175467 0.416442 0)
(-0.183394 0.347 0)
(-0.207296 0.207787 0)
(-0.266758 -0.0788494 0)
(-0.360333 -0.471537 0)
(-0.467727 -0.778498 0)
(-0.522542 -0.749551 0)
(-0.540684 -0.490165 0)
(-0.500121 -0.277791 0)
(-0.434215 -0.163785 0)
(-0.372331 -0.103048 0)
(-0.311401 -0.0684819 0)
(-0.25096 -0.046518 0)
(-0.192743 -0.0347956 0)
(-0.128782 -0.0357604 0)
(-0.0612771 -0.0510393 0)
(-0.00189141 -0.0748271 0)
(0.0546081 -0.0968492 0)
(0.0832587 -0.11685 0)
(0.123856 -0.135662 0)
(0.151045 -0.0324202 0)
(0.15906 0.0718378 0)
(0.135519 0.142707 0)
(0.0939537 0.196099 0)
(0.105449 0.216605 0)
(0.105127 0.194965 0)
(0.0830988 0.161687 0)
(0.104334 0.185613 0)
(0.159106 0.24725 0)
(0.185227 0.256047 0)
(0.19011 0.168618 0)
(0.199983 0.0662265 0)
(0.0728515 0.0449674 0)
(-0.0802406 0.0979978 0)
(-0.21456 0.0995851 0)
(-0.224871 0.0220824 0)
(-0.218021 -0.133997 0)
(-0.175286 -0.309312 0)
(-0.163964 -0.311028 0)
(-0.150773 -0.359536 0)
(-0.127734 -0.256637 0)
(-0.142401 0.00737262 0)
(-0.123337 0.157886 0)
(-0.116037 0.192946 0)
(-0.0791306 0.179224 0)
(-0.045912 0.15401 0)
(-0.00848772 0.114945 0)
(0.0253227 0.0521741 0)
(0.0350848 -0.0443759 0)
(0.0215303 -0.151347 0)
(-0.0707437 -0.233909 0)
(-0.139318 -0.270197 0)
(-0.164749 -0.288888 0)
(-0.203753 -0.321319 0)
(-0.231097 -0.369193 0)
(-0.272309 -0.40726 0)
(-0.27109 -0.396165 0)
(-0.307699 -0.308931 0)
(-0.355306 -0.20151 0)
(-0.38049 -0.0886137 0)
(-0.361663 -0.0157688 0)
(-0.318672 -0.0270186 0)
(-0.265758 -0.132454 0)
(-0.206536 -0.359944 0)
(-0.0970757 -0.610758 0)
(-0.0254659 -0.807578 0)
(0.0770977 -0.91555 0)
(0.111252 -0.873055 0)
(0.144815 -0.710987 0)
(0.242598 -0.532652 0)
(0.329049 -0.468123 0)
(0.392402 -0.437146 0)
(0.453119 -0.414172 0)
(0.502052 -0.392669 0)
(0.506145 -0.370597 0)
(0.441815 -0.349087 0)
(0.332775 -0.339424 0)
(0.218036 -0.345781 0)
(0.136213 -0.360012 0)
(0.103596 -0.37124 0)
(0.0946249 -0.346491 0)
(0.095001 -0.285972 0)
(0.0332413 -0.217695 0)
(-0.108402 -0.0173961 0)
(-0.144135 0.0919936 0)
(-0.191848 0.166162 0)
(-0.245808 0.273062 0)
(-0.270052 0.404744 0)
(-0.245837 0.570329 0)
(-0.171422 0.695056 0)
(-0.114201 0.742317 0)
(-0.0529843 0.72817 0)
(-0.0624882 0.62565 0)
(-0.0931138 0.42398 0)
(-0.0942236 0.139322 0)
(-0.156259 -0.228662 0)
(-0.208114 -0.387394 0)
(-0.258314 -0.441785 0)
(-0.307923 -0.404993 0)
(-0.328433 -0.302226 0)
(-0.330548 -0.212632 0)
(-0.277116 -0.154023 0)
(-0.200126 -0.0969369 0)
(-0.133156 -0.0899297 0)
(-0.0558035 -0.23773 0)
(0.0281211 -0.376456 0)
(0.108035 -0.351106 0)
(-0.27196 0.37805 0)
(-0.260866 0.409193 0)
(-0.240578 0.431175 0)
(-0.218389 0.440366 0)
(-0.202858 0.431788 0)
(-0.199509 0.401001 0)
(-0.21721 0.333517 0)
(-0.265359 0.207724 0)
(-0.357442 -0.0200571 0)
(-0.46909 -0.345426 0)
(-0.549301 -0.695575 0)
(-0.600502 -0.917463 0)
(-0.598767 -0.836416 0)
(-0.561164 -0.531708 0)
(-0.496999 -0.275039 0)
(-0.424743 -0.141091 0)
(-0.360131 -0.0718979 0)
(-0.296806 -0.0317269 0)
(-0.230947 -0.00549172 0)
(-0.165951 0.0119266 0)
(-0.100293 0.0197446 0)
(-0.0357451 0.0149204 0)
(0.0187435 -0.00309594 0)
(0.0683894 -0.024456 0)
(0.0653638 -0.0721763 0)
(0.0807779 -0.0671259 0)
(0.121074 0.0470362 0)
(0.167991 0.10418 0)
(0.177241 0.155604 0)
(0.151097 0.209148 0)
(0.140216 0.246888 0)
(0.130059 0.24568 0)
(0.118657 0.220752 0)
(0.131157 0.220198 0)
(0.171199 0.258187 0)
(0.207599 0.270432 0)
(0.218735 0.200225 0)
(0.222325 0.0900866 0)
(0.207144 -0.00108807 0)
(0.116765 0.00602381 0)
(-0.0907958 0.0543641 0)
(-0.148112 0.0198789 0)
(-0.102122 -0.0915285 0)
(-0.0465585 -0.280498 0)
(-0.0995303 -0.257837 0)
(-0.0522108 -0.293002 0)
(-0.0513045 -0.245649 0)
(-0.105365 -0.00550801 0)
(-0.113513 0.133843 0)
(-0.107655 0.158443 0)
(-0.0723102 0.142294 0)
(-0.0376424 0.116851 0)
(0.00457634 0.0799548 0)
(0.0403415 0.0238139 0)
(0.0517326 -0.0593012 0)
(0.0363561 -0.154021 0)
(-0.0555409 -0.230745 0)
(-0.131089 -0.262719 0)
(-0.172924 -0.281344 0)
(-0.233055 -0.310152 0)
(-0.282663 -0.350908 0)
(-0.33157 -0.384187 0)
(-0.348791 -0.366646 0)
(-0.388312 -0.2842 0)
(-0.408485 -0.170908 0)
(-0.402572 -0.0549371 0)
(-0.374993 0.0100198 0)
(-0.323214 -0.0111457 0)
(-0.267931 -0.129734 0)
(-0.197238 -0.360227 0)
(-0.0887407 -0.604306 0)
(-0.0227992 -0.789964 0)
(0.0801503 -0.889872 0)
(0.0902908 -0.843869 0)
(0.153785 -0.685262 0)
(0.254139 -0.540692 0)
(0.334704 -0.473305 0)
(0.40015 -0.437339 0)
(0.465782 -0.411993 0)
(0.520027 -0.390622 0)
(0.527135 -0.370931 0)
(0.458436 -0.353269 0)
(0.332908 -0.3478 0)
(0.201799 -0.358902 0)
(0.111998 -0.375561 0)
(0.085185 -0.378249 0)
(0.0796004 -0.33085 0)
(0.0658863 -0.255261 0)
(-0.00228784 -0.132847 0)
(-0.0690336 -0.0213589 0)
(-0.0792454 0.0463517 0)
(-0.11469 0.115661 0)
(-0.156501 0.217678 0)
(-0.190889 0.333657 0)
(-0.200741 0.465267 0)
(-0.164044 0.555839 0)
(-0.131027 0.579952 0)
(-0.104035 0.540427 0)
(-0.113413 0.402942 0)
(-0.147462 0.110745 0)
(-0.255235 -0.236159 0)
(-0.334228 -0.410389 0)
(-0.382389 -0.493044 0)
(-0.456264 -0.510715 0)
(-0.490611 -0.455074 0)
(-0.47385 -0.334466 0)
(-0.420722 -0.233304 0)
(-0.324599 -0.164665 0)
(-0.22156 -0.0969355 0)
(-0.146605 -0.0774236 0)
(-0.0598542 -0.217575 0)
(0.0058268 -0.363194 0)
(0.0828075 -0.314341 0)
(-0.241625 0.340563 0)
(-0.240866 0.375854 0)