/*--------------------------------*- C++ -*----------------------------------*\
  =========                 |
  \\      /  F ield         | OpenFOAM: The Open Source CFD Toolbox
   \\    /   O peration     | Website:  https://openfoam.org
    \\  /    A nd           | Version:  10
     \\/     M anipulation  |
\*---------------------------------------------------------------------------*/
FoamFile
{
    format      ascii;
    class       surfaceScalarField;
    location    "0.34949";
    object      phi;
}
// * * * * * * * * * * * * * * * * * * * * * * * * * * * * * * * * * * * * * //

dimensions      [1 0 -1 0 0 0 0];

internalField   nonuniform List<scalar> 
32368
(
-2.70243e-05
9.5954e-06
-2.09113e-05
1.72781e-05
-8.08496e-06
3.67912e-05
7.18358e-06
5.93501e-05
2.35196e-05
7.17317e-05
3.99058e-05
7.87978e-05
5.57612e-05
8.22958e-05
7.13406e-05
8.47865e-05
8.86539e-05
8.82064e-05
0.000107941
9.33318e-05
0.000127983
0.000100067
0.000146447
0.000107452
0.000162717
0.000114047
0.000177076
0.000119219
0.000190303
0.000123421
0.000202016
0.000127093
0.000211708
0.000131081
0.000219336
0.000134459
0.000226643
0.000134877
0.000237348
0.000129574
0.000254526
0.000118485
0.000278378
0.000101011
0.000305916
7.71078e-05
0.0003285
4.86306e-05
0.000334501
1.65233e-05
0.000340957
-1.32852e-05
0.0003508
-3.88086e-05
0.000358252
-6.07517e-05
0.000366023
-8.10519e-05
0.000387172
-9.46564e-05
0.000402524
-0.000103564
0.000396562
-0.000104695
-9.29761e-05
0.000362983
-2.37686e-05
2.57576e-05
-1.71176e-05
2.96497e-05
-4.8595e-06
3.99077e-05
1.08797e-05
5.8504e-05
2.82654e-05
6.93004e-05
4.57706e-05
7.64331e-05
6.26862e-05
8.08042e-05
7.93534e-05
8.39579e-05
9.65601e-05
8.73564e-05
0.00011438
9.14003e-05
0.00013278
9.60357e-05
0.000151348
0.000100801
0.000169386
0.000105997
0.000186385
0.000111104
0.000201846
0.00011562
0.000214884
0.000119435
0.00022513
0.000121015
0.0002328
0.000121754
0.000240628
0.000119116
0.000252241
0.000111272
0.000271328
9.79354e-05
0.000295059
8.06535e-05
0.00031425
5.78454e-05
0.000324979
3.2395e-05
0.000335918
7.16108e-06
0.000349933
-1.63235e-05
0.000361907
-3.64043e-05
0.000372973
-5.49522e-05
0.000398181
-6.95386e-05
0.000420425
-8.12097e-05
0.000431934
-8.70883e-05
0.000422786
-8.59496e-05
-7.45564e-05
0.000391911
-2.66834e-05
2.38873e-05
-1.35087e-05
4.26445e-05
-6.6234e-07
4.56652e-05
1.62422e-05
5.74095e-05
3.46548e-05
6.64e-05
5.33646e-05
7.31801e-05
7.15615e-05
7.80117e-05
8.94234e-05
8.16425e-05
0.000107345
8.52052e-05
0.000125085
8.88636e-05
0.000142398
9.23532e-05
0.000158949
9.57449e-05
0.000174803
9.87612e-05
0.000191156
0.000101512
0.00020699
0.000103188
0.000221147
0.00010424
0.000232078
0.000103407
0.000239851
9.99726e-05
0.000248261
9.451e-05
0.000259516
8.57189e-05
0.000276521
7.41799e-05
0.000294812
5.89526e-05
0.000309939
4.12605e-05
0.000326408
2.21917e-05
0.000344078
2.95967e-06
0.000359543
-1.51396e-05
0.000374647
-3.10051e-05
0.000402646
-4.46147e-05
0.000433278
-5.73037e-05
0.000450654
-6.66216e-05
0.000456608
-7.15225e-05
0.000445385
-7.03303e-05
-6.18923e-05
0.000416894
-4.46208e-05
1.17355e-05
-1.73954e-05
3.98982e-05
2.84399e-06
5.26748e-05
2.24706e-05
5.98272e-05
4.16346e-05
6.56691e-05
6.12192e-05
7.07e-05
8.08229e-05
7.50415e-05
9.9989e-05
7.87566e-05
0.000118849
8.23372e-05
0.000137134
8.5755e-05
0.000154438
8.88211e-05
0.000170393
9.14436e-05
0.000185081
9.31254e-05
0.000199773
9.3993e-05
0.000213417
9.3622e-05
0.000225411
9.19792e-05
0.000234102
8.80134e-05
0.000241278
8.20204e-05
0.000249555
7.50297e-05
0.000262976
6.71341e-05
0.000280842
5.76183e-05
0.000297921
4.63022e-05
0.000318057
3.32121e-05
0.000337213
1.86004e-05
0.000355167
4.63421e-06
0.000374411
-8.75065e-06
0.000404254
-2.1402e-05
0.00043741
-3.38423e-05
0.000461222
-4.55972e-05
0.00047376
-5.46897e-05
0.000475156
-6.20013e-05
0.000465184
-6.55509e-05
-6.4284e-05
0.00044028
-7.56802e-05
-7.49145e-06
-3.62301e-05
2.5397e-05
-3.55327e-06
4.6133e-05
2.45118e-05
5.49223e-05
4.69279e-05
6.42616e-05
6.83478e-05
6.89878e-05
8.93855e-05
7.26924e-05
0.000109928
7.62097e-05
0.000129661
7.9624e-05
0.000148521
8.26681e-05
0.000166335
8.52385e-05
0.000182548
8.71894e-05
0.000197261
8.8116e-05
0.000211034
8.76414e-05
0.000224204
8.57844e-05
0.000234881
8.18622e-05
0.00024298
7.58995e-05
0.000250792
6.89366e-05
0.000261278
6.22615e-05
0.000275018
5.60881e-05
0.000290718
4.95257e-05
0.000309918
4.13614e-05
0.000329664
3.16978e-05
0.000349388
2.15194e-05
0.000371694
1.1319e-05
0.000402051
-3.21618e-08
0.000433111
-1.1622e-05
0.000460998
-2.40872e-05
0.000480427
-3.78405e-05
0.00048985
-5.31939e-05
0.000492121
-6.8979e-05
0.00048479
-8.19172e-05
-9.06167e-05
0.000463193
-0.000117584
-2.99914e-05
-6.88159e-05
2.02253e-06
-2.26903e-05
2.60469e-05
1.42185e-05
4.15138e-05
4.43058e-05
5.49073e-05
6.94577e-05
6.34177e-05
9.32999e-05
6.75516e-05
0.000116066
7.15918e-05
0.000137411
7.54978e-05
0.000157071
7.88241e-05
0.000175113
8.12727e-05
0.000191593
8.27445e-05
0.000206901
8.30368e-05
0.000220957
8.17103e-05
0.000233488
7.85978e-05
0.000243647
7.33239e-05
0.000251934
6.68717e-05
0.000261059
6.06356e-05
0.000271852
5.56746e-05
0.000285093
5.15716e-05
0.000302122
4.71437e-05
0.000320668
4.20487e-05
0.000341373
3.57875e-05
0.000364325
2.85096e-05
0.0003923
1.95321e-05
0.000422104
8.85358e-06
0.00044942
-4.03397e-06
0.000475481
-2.13726e-05
0.000494334
-4.50903e-05
0.000504622
-7.33778e-05
0.000507966
-0.000101533
0.000502022
-0.000124289
-0.000137079
0.000482099
-0.000144235
-4.60379e-05
-9.70597e-05
-2.44834e-05
-4.92893e-05
1.66101e-07
-5.73836e-06
1.91434e-05
3.24395e-05
3.7277e-05
6.40833e-05
5.17115e-05
9.23669e-05
5.86708e-05
0.000118153
6.45964e-05
0.000141469
6.97958e-05
0.000162323
7.38774e-05
0.000180893
7.66119e-05
0.000197498
7.79315e-05
0.000213378
7.78331e-05
0.000227547
7.59886e-05
0.000239688
7.22563e-05
0.000249607
6.6968e-05
0.000259287
6.12274e-05
0.000269543
5.70532e-05
0.000281141
5.40922e-05
0.00029617
5.19739e-05
0.000313545
4.9889e-05
0.000333242
4.72989e-05
0.000357298
4.337e-05
0.000384722
3.72274e-05
0.000413699
2.83689e-05
0.000441101
1.50051e-05
0.000469535
-7.05782e-06
0.000493028
-3.73476e-05
0.000509181
-7.78698e-05
0.000518234
-0.000121487
0.000519796
-0.000156077
0.000511216
-0.000175047
-0.000179207
0.000487141
-0.000136349
-5.34454e-05
-0.000100884
-3.76928e-05
-5.90586e-05
-1.98986e-05
-1.69935e-05
-8.98769e-07
2.32695e-05
1.85093e-05
6.11976e-05
3.446e-05
9.37195e-05
4.64102e-05
0.000122014
5.55361e-05
0.000146774
6.26954e-05
0.000168638
6.81029e-05
0.000187487
7.16638e-05
0.00020395
7.31921e-05
0.00021997
7.31871e-05
0.000234282
7.137e-05
0.000246836
6.78155e-05
0.000258415
6.38435e-05
0.000270579
6.04542e-05
0.000284138
5.85792e-05
0.000299667
5.77537e-05
0.000317661
5.77902e-05
0.000339873
5.77502e-05
0.000365708
5.65261e-05
0.000391602
5.27233e-05
0.000415991
4.48425e-05
0.000439731
3.05063e-05
0.000464069
5.49946e-06
0.000485525
-3.28238e-05
0.000503363
-8.23379e-05
0.000514048
-0.000137471
0.000517577
-0.00018035
0.000512991
-0.000201782
0.000497829
-0.000199353
-0.000180799
0.000466534
-9.01536e-05
-5.70517e-05
-6.13109e-05
-4.27069e-05
-3.12988e-05
-2.66715e-05
7.47467e-07
-1.11137e-05
3.72136e-05
3.40493e-06
7.28496e-05
1.93111e-05
0.000104933
3.40357e-05
0.000133013
4.594e-05
0.000157462
5.52436e-05
0.000178726
6.19559e-05
0.000196869
6.6338e-05
0.000212945
6.8434e-05
0.000228123
6.89597e-05
0.000241953
6.75847e-05
0.00025494
6.51077e-05
0.00026807
6.2915e-05
0.000281879
6.19954e-05
0.000296975
6.17597e-05
0.000313698
6.27786e-05
0.000332276
6.39257e-05
0.000353429
6.41432e-05
0.000376526
6.19354e-05
0.000399426
5.48922e-05
0.000420526
3.91495e-05
0.000441329
1.15542e-05
0.000461608
-3.15589e-05
0.000478892
-8.66598e-05
0.000490043
-0.000145787
0.000495565
-0.000191343
0.000493157
-0.000208747
0.000480504
-0.000201589
0.000457975
-0.000181278
-0.000157419
0.000418159
-4.05746e-05
-6.06074e-05
-1.38007e-05
-4.82092e-05
1.45392e-05
-3.45389e-05
4.19995e-05
-1.86087e-05
6.87983e-05
-3.74332e-06
9.6156e-05
1.0333e-05
0.000122976
2.3894e-05
0.000147772
3.59033e-05
0.000169782
4.57245e-05
0.000188837
5.31625e-05
0.000205278
5.84969e-05
0.000220364
6.17425e-05
0.000234076
6.32006e-05
0.000246272
6.297e-05
0.000258452
6.24554e-05
0.000270674
6.24614e-05
0.00028326
6.29137e-05
0.000296199
6.38821e-05
0.000310194
6.48524e-05
0.000325489
6.48948e-05
0.00034258
6.24129e-05
0.000360853
5.47138e-05
0.000380084
3.72128e-05
0.000399107
7.94656e-06
0.000417628
-3.46989e-05
0.000433454
-8.76381e-05
0.000445586
-0.000139937
0.00045541
-0.00017869
0.000456874
-0.000194088
0.000446015
-0.000188493
0.000426813
-0.000169981
0.000390372
-0.000146774
-0.000129541
0.000344157
-4.39656e-06
-6.74245e-05
2.17091e-05
-5.60834e-05
4.77006e-05
-4.2291e-05
7.37149e-05
-2.66706e-05
9.80763e-05
-1.05426e-05
0.000120605
4.73612e-06
0.000141728
1.86365e-05
0.000161002
3.09382e-05
0.000177785
4.10786e-05
0.000192065
4.87151e-05
0.000204325
5.39406e-05
0.000215729
5.73354e-05
0.000225786
5.90644e-05
0.000235154
5.9727e-05
0.000244394
6.03052e-05
0.000254106
6.13202e-05
0.000263422
6.21626e-05
0.00027233
6.25817e-05
0.000281144
6.1815e-05
0.000290101
5.83991e-05
0.00029897
4.91622e-05
0.000309144
3.13124e-05
0.000320659
2.16859e-06
0.000334536
-3.54645e-05
0.000351033
-7.87928e-05
0.000372576
-0.000120179
0.000391169
-0.000150553
0.00040072
-0.000165732
0.000396294
-0.000163685
0.000380081
-0.000147951
0.000347059
-0.000126803
0.000302323
-0.000113777
-0.000110875
0.000280384
2.76603e-05
-7.49328e-05
5.17349e-05
-6.35735e-05
7.65153e-05
-4.9955e-05
0.00010108
-3.39897e-05
0.000124135
-1.66198e-05
0.000144755
3.90299e-07
0.000163162
1.54297e-05
0.000178968
2.88623e-05
0.000191953
4.00426e-05
0.000202417
4.84131e-05
0.000210969
5.41953e-05
0.000218791
5.80375e-05
0.000226148
6.02213e-05
0.000233193
6.19115e-05
0.0002404
6.31346e-05
0.000247497
6.38654e-05
0.000254259
6.41282e-05
0.000260367
6.26802e-05
0.00026587
5.76873e-05
0.000270927
4.75011e-05
0.000273966
2.91803e-05
0.000273132
7.78745e-08
0.000270475
-3.48217e-05
0.000270833
-7.10461e-05
0.000283398
-9.73504e-05
0.000312046
-0.000118204
0.000332197
-0.000132519
0.000336399
-0.000133161
0.000324599
-0.000119625
0.000297954
-9.95538e-05
0.000255522
-8.94748e-05
0.000238024
-9.49727e-05
-0.000110393
0.000241808
5.64112e-05
-8.31358e-05
8.03544e-05
-7.17754e-05
0.000104339
-5.74544e-05
0.000127505
-4.05191e-05
0.000148384
-2.155e-05
0.000166065
-2.30647e-06
0.000181236
1.39055e-05
0.000193415
2.86265e-05
0.000202658
4.08278e-05
0.000209518
4.98433e-05
0.000215301
5.64034e-05
0.000220564
6.04184e-05
0.000225453
6.33008e-05
0.000230704
6.4989e-05
0.000236041
6.5756e-05
0.000240697
6.53796e-05
0.000245027
6.26853e-05
0.000249172
5.66673e-05
0.000252434
4.5239e-05
0.000252527
2.56558e-05
0.000247438
-2.51545e-06
0.000236126
-3.30489e-05
0.000228271
-5.96873e-05
0.000223344
-7.91329e-05
0.000232463
-8.82443e-05
0.000258344
-9.71232e-05
0.000271797
-0.000100183
0.000266345
-8.96753e-05
0.000247115
-7.14769e-05
0.0002088
-6.02586e-05
0.000194021
-7.06185e-05
0.000202058
-9.57419e-05
-0.000123019
0.000220045
8.53849e-05
-9.54912e-05
0.000108128
-8.20552e-05
0.000129985
-6.5361e-05
0.000150856
-4.59389e-05
0.000169532
-2.50947e-05
0.000183213
-2.80455e-06
0.000194702
1.41533e-05
0.000202855
3.01082e-05
0.000207936
4.29367e-05
0.000211336
5.24367e-05
0.000214289
5.87941e-05
0.000216862
6.30801e-05
0.000220287
6.53431e-05
0.000223177
6.59964e-05
0.000225858
6.50617e-05
0.00022849
6.16876e-05
0.000230176
5.43774e-05
0.00023114
4.13927e-05
0.000228558
2.14102e-05
0.000219985
-3.85715e-06
0.000205902
-2.93693e-05
0.000193902
-4.80209e-05
0.000183508
-5.83348e-05
0.00017871
-6.22466e-05
0.00019108
-6.57502e-05
0.000207817
-6.78805e-05
0.000208218
-6.09265e-05
0.000194734
-4.50943e-05
0.000165969
-3.02087e-05
0.000150585
-4.18048e-05
0.000161453
-7.25479e-05
0.000183343
-0.000110027
-0.000140011
0.000209082
0.000114932
-0.000118145
0.000134833
-9.9902e-05
0.000154233
-7.80304e-05
0.000172059
-5.40633e-05
0.000187401
-2.79003e-05
0.000197936
-6.60539e-07
0.000204898
1.73516e-05
0.000207967
3.40498e-05
0.000208272
4.639e-05
0.000208162
5.51442e-05
0.000207582
6.07288e-05
0.000208156
6.36641e-05
0.000208663
6.46776e-05
0.000209042
6.34992e-05
0.000209105
5.92598e-05
0.000208615
5.10269e-05
0.000206235
3.71051e-05
0.000200267
1.8139e-05
0.000188734
-1.5994e-06
0.000173313
-2.17494e-05
0.000159759
-3.40842e-05
0.000147849
-3.87481e-05
0.000138774
-3.88173e-05
0.0001375
-3.78361e-05
0.000150357
-3.64337e-05
0.000153469
-3.23945e-05
0.000144408
-2.10697e-05
0.000123278
-6.51892e-06
0.000108599
-1.04577e-05
0.000120451
-4.32118e-05
0.000145595
-8.86905e-05
0.000174498
-0.000129174
-0.00015439
0.000195567
0.000144278
-0.000158358
0.000161598
-0.00013445
0.00017489
-0.000104395
0.000186299
-7.1016e-05
0.000196857
-3.76051e-05
0.000205035
-4.39468e-06
0.000207288
2.00404e-05
0.000204988
3.70634e-05
0.000200057
4.85516e-05
0.000195644
5.53953e-05
0.000192444
5.92158e-05
0.000189904
6.06262e-05
0.000187828
5.95282e-05
0.000185137
5.5228e-05
0.00018164
4.69716e-05
0.000176057
3.43832e-05
0.000167177
1.87049e-05
0.000153927
3.6998e-06
0.000138168
-9.46674e-06
0.000125369
-1.70432e-05
0.000113167
-1.84682e-05
0.00010253
-1.66333e-05
9.53618e-05
-1.20693e-05
9.86037e-05
-9.42639e-06
0.000101299
-5.06393e-06
9.53811e-05
2.24247e-06
8.23157e-05
1.22028e-05
6.72012e-05
1.6744e-05
7.8154e-05
-1.01605e-05
0.000105964
-6.03442e-05
0.000137772
-0.000110096
0.000161891
-0.000145034
-0.000161943
0.000175121
0.000159666
-0.000196866
0.000170087
-0.000173696
0.000175771
-0.000144307
0.00017722
-0.000108139
0.000177656
-6.86225e-05
0.00018058
-3.01669e-05
0.000180162
5.5486e-06
0.000176708
2.58725e-05
0.000171027
4.00443e-05
0.000165692
4.70266e-05
0.000161093
5.08195e-05
0.000157578
5.12043e-05
0.000153261
4.89788e-05
0.000147352
4.30787e-05
0.000139616
3.43481e-05
0.00012907
2.3701e-05
0.000116012
1.32994e-05
0.000101425
5.83286e-06
8.96049e-05
2.13618e-06
7.82334e-05
2.10124e-06
6.75055e-05
4.68567e-06
5.82583e-05
9.37239e-06
5.36364e-05
1.52548e-05
5.32401e-05
2.08813e-05
4.80549e-05
2.5995e-05
4.10599e-05
3.36014e-05
2.88305e-05
3.86591e-05
3.47629e-05
2.32629e-05
6.38642e-05
-2.7218e-05
9.8062e-05
-8.37541e-05
0.000126399
-0.000128348
0.000142687
-0.000154232
-0.000161743
0.00014779
0.000149597
-0.000216801
0.000151968
-0.000197931
0.000149891
-0.00017527
0.000144021
-0.000149209
0.000133312
-0.000119027
0.000119365
-8.31383e-05
0.000109195
-4.72774e-05
0.000104287
-1.846e-05
0.000102873
5.70032e-06
0.000103857
2.04924e-05
0.000105045
3.1009e-05
0.000104678
3.57513e-05
0.000101249
3.65036e-05
9.42451e-05
3.4491e-05
8.47508e-05
3.02895e-05
7.34172e-05
2.55909e-05
6.13319e-05
2.1872e-05
5.07837e-05
2.1701e-05
4.08244e-05
2.2827e-05
3.02726e-05
2.68017e-05
1.9724e-05
3.19903e-05
1.07644e-05
3.78819e-05
6.53372e-06
4.27944e-05
2.58895e-06
4.70272e-05
-1.89681e-06
5.08366e-05
-6.89834e-06
5.44255e-05
-3.89366e-06
4.85302e-05
1.97417e-05
1.27132e-05
5.62957e-05
-5.23402e-05
8.91845e-05
-0.000105677
0.000110183
-0.000140462
0.00011912
-0.000156126
-0.000158966
0.000122038
0.000126476
-0.000225598
0.000124158
-0.000210265
0.000116989
-0.000194604
0.000101692
-0.000176532
8.35251e-05
-0.000158925
6.1184e-05
-0.00014054
3.06029e-05
-0.000118587
3.41557e-06
-8.94091e-05
-4.35634e-06
-5.54586e-05
3.61797e-06
-2.65134e-05
1.59655e-05
-4.31208e-06
2.48919e-05
1.14464e-05
2.78125e-05
2.20618e-05
2.58265e-05
2.8547e-05
2.02942e-05
3.21262e-05
1.26538e-05
3.44276e-05
4.49383e-06
3.65507e-05
-3.45539e-06
4.04543e-05
-1.24309e-05
4.47942e-05
-2.16002e-05
4.95977e-05
-3.06914e-05
5.50499e-05
-3.75554e-05
5.93459e-05
-4.18772e-05
6.39519e-05
-4.43503e-05
6.61151e-05
-4.42635e-05
6.71921e-05
-3.79309e-05
6.08706e-05
-2.25787e-05
4.52047e-05
1.24136e-05
-1.03959e-05
4.90259e-05
-7.85751e-05
7.59709e-05
-0.000121292
9.11365e-05
-0.00014562
9.66707e-05
-0.000153549
-0.000157066
0.000101791
9.40079e-05
-0.000231625
8.61629e-05
-0.000221066
7.31122e-05
-0.000210419
5.85403e-05
-0.000202624
4.28825e-05
-0.000197533
2.24655e-05
-0.00019158
-1.12141e-05
-0.000182111
-5.50817e-05
-0.000162865
-8.44638e-05
-0.000130402
-8.8201e-05
-8.5957e-05
-7.81714e-05
-4.64335e-05
-6.67456e-05
-1.63792e-05
-5.78822e-05
3.73486e-06
-5.35309e-05
2.01034e-05
-5.21518e-05
3.175e-05
-5.22881e-05
3.97059e-05
-5.56003e-05
4.67853e-05
-6.06585e-05
5.34205e-05
-6.61303e-05
5.91558e-05
-7.24349e-05
6.48934e-05
-8.10587e-05
7.04327e-05
-8.80742e-05
7.42873e-05
-8.73028e-05
7.67926e-05
-8.22499e-05
7.67738e-05
-7.2114e-05
7.11892e-05
-5.7151e-05
5.77299e-05
-3.17929e-05
3.02604e-05
7.25101e-06
-3.91179e-05
3.94316e-05
-9.87569e-05
6.16612e-05
-0.000131557
7.31044e-05
-0.000145508
8.08356e-05
-0.000151199
-0.000153986
8.70653e-05
5.26439e-05
-0.00024149
3.72594e-05
-0.000236068
2.55673e-05
-0.000238883
1.49739e-05
-0.000239772
2.47189e-06
-0.000239038
-1.5554e-05
-0.000235911
-4.48408e-05
-0.000228528
-8.49217e-05
-0.000215807
-0.000122812
-0.000185973
-0.000140904
-0.000142241
-0.000138573
-9.22286e-05
-0.000127888
-4.84429e-05
-0.000117628
-1.59025e-05
-0.000110715
7.43507e-06
-0.000106846
2.54515e-05
-0.000105969
3.94679e-05
-0.000107294
5.07763e-05
-0.00011058
6.01745e-05
-0.000115502
6.78794e-05
-0.000123629
7.48735e-05
-0.000132252
7.80489e-05
-0.000130396
8.16966e-05
-0.000123293
8.28527e-05
-0.000107771
7.82217e-05
-9.03213e-05
6.63923e-05
-6.89666e-05
4.66497e-05
-3.71896e-05
7.81316e-06
1.06666e-06
-6.6231e-05
2.86147e-05
-0.000113332
4.85275e-05
-0.000137333
6.05783e-05
-0.000145413
7.06462e-05
-0.000148861
-0.000147366
7.79492e-05
-2.25824e-06
-0.000255851
-1.35868e-05
-0.000263599
-2.25876e-05
-0.000266202
-3.05166e-05
-0.000268228
-4.19695e-05
-0.000267028
-5.90811e-05
-0.000264834
-8.41798e-05
-0.000259076
-0.000115401
-0.000241976
-0.000144986
-0.000209935
-0.000164953
-0.000166633
-0.000172382
-0.000118666
-0.000169327
-7.40208e-05
-0.000161621
-3.58304e-05
-0.00015452
-5.14367e-06
-0.000151615
1.8009e-05
-0.000151521
3.62106e-05
-0.000152872
5.03642e-05
-0.000156746
6.1918e-05
-0.000164825
7.15712e-05
-0.000172921
7.64873e-05
-0.000170796
8.11265e-05
-0.000162053
8.34068e-05
-0.000144191
8.13513e-05
-0.000121641
7.3012e-05
-0.000102774
5.75416e-05
-7.5962e-05
2.9052e-05
-4.00259e-05
-1.96702e-05
-7.07845e-06
-8.7253e-05
1.93009e-05
-0.000124399
3.9487e-05
-0.000140601
5.40042e-05
-0.000146971
6.44968e-05
-0.000143437
-0.000135663
7.2829e-05
-5.4254e-05
-0.000276082
-6.10695e-05
-0.000282312
-6.84108e-05
-0.000283208
-7.80299e-05
-0.000283853
-8.94995e-05
-0.000283675
-0.000105208
-0.00028043
-0.000126175
-0.00027114
-0.000150134
-0.000252158
-0.000170167
-0.000219281
-0.000182946
-0.000174493
-0.00018923
-0.000128898
-0.000191146
-8.59299e-05
-0.000190343
-4.77691e-05
-0.000189531
-1.62733e-05
-0.000189845
8.9662e-06
-0.000190329
2.96824e-05
-0.000194477
4.622e-05
-0.000203368
5.92567e-05
-0.000210563
6.78676e-05
-0.000206979
7.54407e-05
-0.000197217
7.98771e-05
-0.000177813
8.02713e-05
-0.00015274
7.53064e-05
-0.000133093
6.35626e-05
-0.000110345
4.29882e-05
-8.07625e-05
6.57767e-06
-4.36162e-05
-4.65235e-05
-1.38847e-05
-0.000102968
1.31457e-05
-0.000131506
3.46852e-05
-0.000145163
5.11586e-05
-0.000150227
6.19584e-05
-0.000142595
-0.000132517
7.03526e-05
-9.86644e-05
-0.000289459
-0.000108271
-0.000291017
-0.000117355
-0.00029323
-0.000127443
-0.000295617
-0.000139861
-0.000295314
-0.000155197
-0.000290251
-0.000172355
-0.000277351
-0.000188573
-0.00025357
-0.000200802
-0.000218442
-0.000208121
-0.000176684
-0.000210408
-0.000132713
-0.000212263
-9.10623e-05
-0.000216367
-5.60882e-05
-0.000220509
-2.64278e-05
-0.000223434
-5.08698e-07
-0.000229185
2.1215e-05
-0.000238773
3.84755e-05
-0.000243674
5.20634e-05
-0.000239067
6.3488e-05
-0.000228971
7.13585e-05
-0.000209114
7.51914e-05
-0.000181127
7.3567e-05
-0.00016041
6.51136e-05
-0.00014053
5.10634e-05
-0.000115309
2.45032e-05
-8.31644e-05
-1.75608e-05
-4.81856e-05
-6.93838e-05
-1.6987e-05
-0.00011524
1.00956e-05
-0.000141079
3.38401e-05
-0.000157806
5.14837e-05
-0.000160322
6.30319e-05
-0.000149607
-0.000137536
7.17151e-05
-0.000145968
-0.000292292
-0.000154718
-0.000292934
-0.000163918
-0.000294609
-0.000174932
-0.000296903
-0.000188032
-0.000296157
-0.000202758
-0.00029026
-0.000216689
-0.000275986
-0.000227388
-0.000251218
-0.000233843
-0.000217171
-0.000235854
-0.000177076
-0.000236396
-0.000136164
-0.000241587
-9.99248e-05
-0.000247716
-6.70272e-05
-0.000252832
-3.69328e-05
-0.000261144
-1.12124e-05
-0.000270553
1.02589e-05
-0.000273038
2.96645e-05
-0.000267211
4.57536e-05
-0.000256674
5.78342e-05
-0.000236433
6.54713e-05
-0.00020731
6.74114e-05
-0.000184961
6.29476e-05
-0.000167098
5.42691e-05
-0.00014527
3.54394e-05
-0.000117926
3.67292e-06
-8.41207e-05
-4.11206e-05
-4.94672e-05
-8.79399e-05
-1.87088e-05
-0.000126145
9.01939e-06
-0.000156987
3.36738e-05
-0.000172919
5.10413e-05
-0.000171222
6.18135e-05
-0.000157071
-0.000144749
6.97022e-05
-0.000186625
-0.000287463
-0.000193168
-0.000283414
-0.0002038
-0.000285139
-0.00021706
-0.0002884
-0.000232251
-0.000288461
-0.000248096
-0.000283933
-0.000261478
-0.000271373
-0.000269929
-0.000248853
-0.000273482
-0.000218192
-0.00027389
-0.000182977
-0.000276127
-0.000147116
-0.000282225
-0.00011366
-0.000287054
-8.0997e-05
-0.000292901
-5.00959e-05
-0.000299031
-2.33628e-05
-0.000297589
1.66303e-06
-0.000291492
2.24014e-05
-0.000280126
3.92543e-05
-0.000259954
5.09045e-05
-0.000230749
5.68067e-05
-0.000206951
5.71042e-05
-0.000190142
5.30508e-05
-0.000171227
4.072e-05
-0.00014742
1.75846e-05
-0.000117469
-1.82131e-05
-8.26963e-05
-6.22111e-05
-4.88689e-05
-0.000104008
-1.92863e-05
-0.000141463
8.99463e-06
-0.000173694
3.24923e-05
-0.000186193
4.80715e-05
-0.000179706
5.76274e-05
-0.000165788
-0.00015778
6.48838e-05
-0.000217109
-0.000273592
-0.000223209
-0.000265456
-0.000236504
-0.000268502
-0.000251946
-0.000271672
-0.000269777
-0.000272589
-0.00028824
-0.000270363
-0.000303286
-0.000261038
-0.000312365
-0.000242823
-0.000315943
-0.000216063
-0.000317482
-0.000184902
-0.000318747
-0.000153022
-0.000320408
-0.000121143
-0.000321096
-8.96969e-05
-0.000320865
-5.93761e-05
-0.000318335
-3.10735e-05
-0.000312466
-5.84408e-06
-0.000299716
1.55451e-05
-0.000279069
3.1294e-05
-0.000250852
4.16132e-05
-0.000226167
4.68903e-05
-0.00021005
4.7248e-05
-0.000193186
4.0847e-05
-0.000172505
2.50501e-05
-0.000146316
-1.96702e-06
-0.000113557
-3.98567e-05
-7.96422e-05
-8.12374e-05
-4.75103e-05
-0.000120482
-1.81147e-05
-0.000156878
8.58346e-06
-0.00018879
2.98024e-05
-0.000194617
4.27754e-05
-0.00018564
5.14346e-05
-0.000177957
-0.000179499
6.01884e-05
-0.000238818
-0.000255147
-0.000244851
-0.000243569
-0.000259834
-0.000247491
-0.000276372
-0.000249075
-0.000296593
-0.000249554
-0.000318737
-0.000249419
-0.000336413
-0.000243424
-0.000347348
-0.000229441
-0.000351463
-0.000208973
-0.000350226
-0.000182971
-0.000348824
-0.000153978
-0.000347134
-0.000124458
-0.000344381
-9.50065e-05
-0.000339698
-6.59897e-05
-0.000331
-3.87092e-05
-0.000315674
-1.40359e-05
-0.000293322
6.25841e-06
-0.000265986
2.11946e-05
-0.000242652
3.13078e-05
-0.00022702
3.62341e-05
-0.000211846
3.50623e-05
-0.000193456
2.5983e-05
-0.000170191
7.13508e-06
-0.000140904
-2.24153e-05
-0.000107748
-6.00127e-05
-7.50489e-05
-9.92344e-05
-4.38846e-05
-0.000135685
-1.64747e-05
-0.00017028
8.00478e-06
-0.000197382
2.50013e-05
-0.000196539
3.48775e-05
-0.000189311
4.31898e-05
-0.000190445
-0.000194605
4.912e-05
-0.000258346
-0.000245129
-0.000257764
-0.000223031
-0.000276287
-0.000224448
-0.00029133
-0.00022786
-0.00031107
-0.00022486
-0.000335074
-0.00022297
-0.000356467
-0.000219435
-0.000370905
-0.000209911
-0.000378983
-0.000193389
-0.000380455
-0.000173415
-0.000376456
-0.000149376
-0.000370264
-0.000123231
-0.00036113
-9.67262e-05
-0.000347564
-7.04659e-05
-0.000328956
-4.55725e-05
-0.000304961
-2.34172e-05
-0.000278238
-4.34933e-06
-0.000256404
9.4096e-06
-0.000241267
1.89705e-05
-0.000226575
2.30366e-05
-0.000209719
2.03251e-05
-0.000188803
9.108e-06
-0.000162652
-1.18578e-05
-0.000131729
-4.23728e-05
-9.95673e-05
-7.8295e-05
-6.80162e-05
-0.000114492
-3.9171e-05
-0.00014697
-1.37487e-05
-0.000177896
5.90141e-06
-0.000197957
1.78076e-05
-0.000193116
2.52617e-05
-0.000191106
2.94084e-05
-0.00019977
-0.000192565
3.48404e-05
-0.000281875
-0.000228889
-0.000277823
-0.000216151
-0.000292498
-0.000214572
-0.000307831
-0.000212952
-0.000322214
-0.000209785
-0.000340577
-0.000202021
-0.000361933
-0.00019371
-0.000379011
-0.000184768
-0.000387117
-0.000171676
-0.000389034
-0.00015491
-0.000384469
-0.000136045
-0.000373374
-0.000114959
-0.000357725
-9.27395e-05
-0.000336597
-7.13286e-05
-0.000312203
-5.05925e-05
-0.000287177
-3.23076e-05
-0.00026822
-1.70718e-05
-0.000253503
-4.38492e-06
-0.000238613
4.17506e-06
-0.000222018
7.32547e-06
-0.000202157
3.42554e-06
-0.000178061
-9.02362e-06
-0.000149775
-3.07086e-05
-0.000119042
-6.02609e-05
-8.82898e-05
-9.32889e-05
-5.91154e-05
-0.000124737
-3.3668e-05
-0.000152712
-1.23317e-05
-0.000178125
1.83396e-06
-0.000187726
8.41084e-06
-0.000184726
1.13066e-05
-0.000191077
1.46074e-05
-0.000193657
-0.000186363
2.2023e-05
-0.000301012
-0.000221037
-0.000299163
-0.000200771
-0.000315218
-0.000200994
-0.000329845
-0.000202914
-0.000341424
-0.000197003
-0.000350887
-0.000189149
-0.000360354
-0.00017786
-0.000370198
-0.000165427
-0.000375265
-0.000151151
-0.000374839
-0.000135952
-0.000368385
-0.000120357
-0.000354631
-0.000104092
-0.000336748
-8.75464e-05
-0.000317049
-7.17727e-05
-0.000297198
-5.65114e-05
-0.000280117
-4.24171e-05
-0.000264503
-2.96949e-05
-0.000248461
-1.90911e-05
-0.000231014
-1.19363e-05
-0.000211002
-9.75612e-06
-0.000187682
-1.43606e-05
-0.000161188
-2.69951e-05
-0.000132417
-4.79572e-05
-0.000102944
-7.4676e-05
-7.48034e-05
-0.000102849
-5.00159e-05
-0.00012797
-2.89502e-05
-0.000151289
-1.22752e-05
-0.000168851
-5.35247e-06
-0.000170626
-4.83897e-06
-0.000174402
-5.55019e-06
-0.000186367
-3.05907e-07
-0.000182268
-0.000179131
9.91397e-06
-0.000321529
-0.000206411
-0.00031512
-0.000191733
-0.000330679
-0.000188354
-0.000345742
-0.000187835
-0.000356999
-0.00018414
-0.000364617
-0.0001764
-0.000369628
-0.00016643
-0.000371512
-0.000153995
-0.000370621
-0.000141489
-0.000365701
-0.000128127
-0.000356838
-0.000114878
-0.000344042
-0.000101921
-0.000328409
-8.89735e-05
-0.000311222
-7.67242e-05
-0.00029318
-6.47628e-05
-0.000275277
-5.31963e-05
-0.000256703
-4.24849e-05
-0.000237017
-3.35553e-05
-0.000215765
-2.76353e-05
-0.000192458
-2.62782e-05
-0.000167007
-3.10767e-05
-0.000139806
-4.30113e-05
-0.000111765
-6.14882e-05
-8.48477e-05
-8.33578e-05
-6.14862e-05
-0.000104568
-4.21286e-05
-0.000123509
-2.64581e-05
-0.000141276
-1.56793e-05
-0.000150298
-1.605e-05
-0.000153176
-2.13318e-05
-0.000165701
-2.10348e-05
-0.000169921
-1.4462e-05
-0.000169703
-0.000165173
-5.70096e-06
-0.000335499
-0.000194881
-0.000327413
-0.000176993
-0.000340996
-0.000173173
-0.000355909
-0.000173693
-0.000366951
-0.000170196
-0.00037411
-0.000163837
-0.000377018
-0.000155271
-0.000376337
-0.000145092
-0.000372706
-0.00013418
-0.000365582
-0.00012351
-0.000355169
-0.000112779
-0.000341542
-0.000102764
-0.000325175
-9.2871e-05
-0.000306818
-8.33289e-05
-0.000286843
-7.38719e-05
-0.00026547
-6.44544e-05
-0.000242855
-5.54833e-05
-0.00021909
-4.7825e-05
-0.000194332
-4.25879e-05
-0.000168604
-4.12534e-05
-0.000142005
-4.5167e-05
-0.000114791
-5.50253e-05
-8.88872e-05
-6.88359e-05
-6.7263e-05
-8.33275e-05
-5.07154e-05
-9.69505e-05
-3.77548e-05
-0.000110796
-2.72687e-05
-0.000122454
-2.44463e-05
-0.000126793
-3.12906e-05
-0.000134189
-3.90774e-05
-0.000151618
-3.71583e-05
-0.000152009
-2.91047e-05
-0.000152202
-0.000155011
-2.83289e-05
-0.000351407
-0.00018146
-0.000334899
-0.000164826
-0.000345176
-0.000158105
-0.000360122
-0.000157803
-0.000370335
-0.000156337
-0.000377105
-0.000151178
-0.000379547
-0.000144433
-0.000377815
-0.000136412
-0.000372581
-0.000127844
-0.000363962
-0.000119548
-0.000352001
-0.000111659
-0.000337121
-0.00010423
-0.000318979
-9.73112e-05
-0.000298377
-9.03076e-05
-0.000275275
-8.33461e-05
-0.000250085
-7.58253e-05
-0.00022358
-6.83544e-05
-0.000196019
-6.14392e-05
-0.00016802
-5.60458e-05
-0.000140111
-5.35484e-05
-0.000112893
-5.49956e-05
-8.77196e-05
-6.00242e-05
-6.766e-05
-6.64066e-05
-5.41967e-05
-7.29921e-05
-4.48855e-05
-8.1303e-05
-3.80319e-05
-9.11341e-05
-3.37002e-05
-9.69634e-05
-3.92472e-05
-0.00010298
-5.16228e-05
-0.000116898
-5.6945e-05
-0.000127689
-5.32529e-05
-0.000132538
-5.09602e-05
-0.000135254
-0.000139672
-5.79519e-05
-0.000364616
-0.000168878
-0.000341121
-0.000149638
-0.000347614
-0.000142834
-0.000361018
-0.000142847
-0.000370888
-0.00014169
-0.000376562
-0.000138445
-0.000377892
-0.000133469
-0.000375258
-0.000127625
-0.000368623
-0.000121413
-0.000358708
-0.000115588
-0.000345183
-0.00011041
-0.000328238
-0.00010601
-0.000307663
-0.000101711
-0.000283653
-9.74396e-05
-0.000256805
-9.30552e-05
-0.000227633
-8.7774e-05
-0.000197012
-8.14357e-05
-0.00016608
-7.4259e-05
-0.00013601
-6.73429e-05
-0.000107755
-6.21772e-05
-8.33943e-05
-5.89024e-05
-6.5767e-05
-5.70797e-05
-5.51622e-05
-5.63522e-05
-4.91887e-05
-5.73085e-05
-4.60746e-05
-6.11893e-05
-4.42356e-05
-6.66292e-05
-4.85612e-05
-7.02913e-05
-5.91036e-05
-7.83479e-05
-7.43024e-05
-9.74499e-05
-7.64867e-05
-0.000103707
-7.32153e-05
-0.000110361
-7.74047e-05
-0.000118289
-0.000121265
-9.4005e-05
-0.000382796
-0.000153572
-0.000347764
-0.00013759
-0.000345938
-0.000126521
-0.000358776
-0.000126373
-0.000367501
-0.000127124
-0.000372414
-0.000125118
-0.000372543
-0.000121998
-0.00036821
-0.000118181
-0.000359747
-0.000114112
-0.000347206
-0.000110816
-0.000330989
-0.000108474
-0.00031061
-0.00010726
-0.000287496
-0.000107319
-0.000261666
-0.000107563
-0.000232664
-0.000106661
-0.000201479
-0.000103524
-0.00016921
-9.80738e-05
-0.000137182
-9.02183e-05
-0.00010824
-8.01235e-05
-8.50199e-05
-6.92593e-05
-6.84444e-05
-5.86676e-05
-5.83175e-05
-4.94265e-05
-5.38713e-05
-4.18202e-05
-5.33602e-05
-3.74035e-05
-5.55026e-05
-3.63617e-05
-5.93555e-05
-3.62689e-05
-6.96176e-05