/*--------------------------------*- C++ -*----------------------------------*\
  =========                 |
  \\      /  F ield         | OpenFOAM: The Open Source CFD Toolbox
   \\    /   O peration     | Website:  https://openfoam.org
    \\  /    A nd           | Version:  10
     \\/     M anipulation  |
\*---------------------------------------------------------------------------*/
FoamFile
{
    format      ascii;
    class       volScalarField;
    location    "0.34949";
    object      T;
}
// * * * * * * * * * * * * * * * * * * * * * * * * * * * * * * * * * * * * * //

dimensions      [0 0 0 1 0 0 0];

internalField   nonuniform List<scalar> 
16320
(
0.00296957
0.00330244
0.00335987
0.00344876
0.00348862
0.00348643
0.00347423
0.00344061
0.00335852
0.00319226
0.00298726
0.00284826
0.0027776
0.00274602
0.00273343
0.00273914
0.00275707
0.00279344
0.00284407
0.00291088
0.0029542
0.00299966
0.00301516
0.00305168
0.00319098
0.00341092
0.00352439
0.00354661
0.00352457
0.003374
0.00310481
0.0028932
0.0028331
0.00255784
0.00317264
0.00336316
0.00345278
0.00349335
0.00349192
0.00348168
0.00345542
0.00339695
0.00330623
0.00318957
0.00306785
0.00294561
0.00285677
0.00280728
0.00279083
0.00280129
0.00283119
0.00288104
0.00294774
0.00300751
0.00304787
0.00311583
0.00327161
0.00346201
0.003557
0.00357053
0.00355008
0.00341993
0.00313942
0.00293849
0.00279005
0.00277685
0.00249055
0.00273947
0.00327539
0.00342949
0.00348213
0.00348552
0.0034787
0.00345897
0.00341641
0.00335769
0.00329366
0.0032294
0.00316344
0.00309392
0.00303646
0.00297899
0.00298021
0.003
0.0030492
0.00312024
0.00321913
0.00328189
0.00341739
0.00354789
0.00360397
0.00360075
0.00357669
0.00344695
0.00315649
0.00294586
0.00280191
0.00272674
0.00273385
0.0024956
0.0025294
0.00286341
0.00324494
0.00340288
0.00344919
0.00345553
0.00344695
0.00342002
0.00337999
0.0033452
0.0033052
0.00327804
0.00324337
0.00322235
0.00321252
0.00322642
0.00326894
0.00332147
0.00341014
0.00344771
0.00353466
0.00359321
0.00360673
0.00358948
0.00355989
0.00341008
0.00316687
0.00293243
0.00280972
0.00272087
0.00270142
0.00271827
0.0024928
0.00250568
0.00264958
0.00295118
0.00317962
0.00330927
0.00336627
0.00338699
0.00338625
0.00337435
0.00335278
0.00332693
0.00331202
0.00330419
0.00330501
0.00331665
0.00334724
0.00339603
0.00345916
0.00349355
0.00356514
0.0035799
0.00357739
0.00354885
0.00349756
0.00334176
0.00314615
0.00296211
0.00280466
0.00273651
0.00270069
0.00270957
0.00273744
0.00259729
0.00258392
0.00268171
0.00293661
0.00312982
0.00324077
0.00330735
0.00333752
0.00334551
0.00334838
0.0033459
0.00333431
0.00332316
0.0033243
0.00333345
0.00335702
0.00339349
0.00344895
0.00348654
0.00354361
0.0035503
0.00354485
0.00350979
0.00344257
0.00331934
0.00315381
0.0030016
0.00286117
0.00275582
0.00272587
0.00273386
0.00275791
0.00280513
0.00307707
0.00301563
0.002993
0.00309498
0.00319139
0.00325632
0.00330848
0.00332791
0.00333363
0.00333699
0.00333749
0.00333286
0.00332673
0.00333104
0.00334432
0.00337193
0.00341265
0.00344511
0.00348687
0.00349745
0.00349077
0.00345261
0.00338244
0.00326467
0.00312474
0.00298308
0.00287101
0.00276776
0.00274366
0.00275504
0.0027876
0.00282979
0.00289213
0.00329273
0.00328762
0.00327329
0.00326832
0.003281
0.00329088
0.00331117
0.00331576
0.00331557
0.0033118
0.00330902
0.00331157
0.00330875
0.00331199
0.00332289
0.00333549
0.00336114
0.00336334
0.00335934
0.00333497
0.00328051
0.00317988
0.0030637
0.00296981
0.00288189
0.00281513
0.00275348
0.00275599
0.00277389
0.00281954
0.00286957
0.00291287
0.00297358
0.00339067
0.0034161
0.00341407
0.00338808
0.00336941
0.00335523
0.00334012
0.00333122
0.00332148
0.00331315
0.00330363
0.00330514
0.00330132
0.00330356
0.00330749
0.00330785
0.00330186
0.00329029
0.0032592
0.00320829
0.00314035
0.00305024
0.00296137
0.00289241
0.00285633
0.00282384
0.00282893
0.00284719
0.00288348
0.00291272
0.00294326
0.00297617
0.00307478
0.00373106
0.00375598
0.0037629
0.0037537
0.00371501
0.00365414
0.00358758
0.00353217
0.00348017
0.00344685
0.00341454
0.00340092
0.00338392
0.00338351
0.00338155
0.00337765
0.0033659
0.00335559
0.00332964
0.00328879
0.00323299
0.00317027
0.0031058
0.00306922
0.00304759
0.00303037
0.00302544
0.0030109
0.00297681
0.00297388
0.00298955
0.0030673
0.00332573
0.00386666
0.00387368
0.00387063
0.00386769
0.00386435
0.00385515
0.00383471
0.00380357
0.00376869
0.00374341
0.00371831
0.00369691
0.00368239
0.00367958
0.00367922
0.00367322
0.00366931
0.00366616
0.00366546
0.00365559
0.00365823
0.00366764
0.00366751
0.00363645
0.00357039
0.00343823
0.00326095
0.00311248
0.00303246
0.00302268
0.00308449
0.00336454
0.00371862
0.00389241
0.00389598
0.00388738
0.00387306
0.00385958
0.00384748
0.00383505
0.00381876
0.00380541
0.0037944
0.00379006
0.00378816
0.00378726
0.00378663
0.00378653
0.0037897
0.0037917
0.00379783
0.00381416
0.00384466
0.00390841
0.00399353
0.00410426
0.0041233
0.00402646
0.00367994
0.00333502
0.00312998
0.00306755
0.00310932
0.0033846
0.0037784
0.00388022
0.00386649
0.0038392
0.00381803
0.0038041
0.00379844
0.00379794
0.00379914
0.00380048
0.00380126
0.00380403
0.00381043
0.00381336
0.00381674
0.00382233
0.00382062
0.00382368
0.00383197
0.00384883
0.00388325
0.00394938
0.00405619
0.00418597
0.00433442
0.00431303
0.00415696
0.00367566
0.00328351
0.00311734
0.00313048
0.00334747
0.00380918
0.00391422
0.00390181
0.00375742
0.00373916
0.00373045
0.0037292
0.0037334
0.00374651
0.00376491
0.00378329
0.00380005
0.00382315
0.00383336
0.00385356
0.00385559
0.0038632
0.0038697
0.003877
0.00389842
0.003935
0.00399878
0.00409654
0.00421816
0.00435076
0.00442393
0.00435609
0.00406089
0.00348259
0.00317529
0.00314687
0.0032847
0.0037691
0.00394027
0.00392632
0.00381676
0.00356953
0.00355393
0.0035515
0.0035571
0.00357687
0.00361077
0.003661
0.00371361
0.00377011
0.0038116
0.00386312
0.00389029
0.00391987
0.00393861
0.00395646
0.00397702
0.00401925
0.0040859
0.0041726
0.00427056
0.00435076
0.00444265
0.00442271
0.00427726
0.00373429
0.00325265
0.00313855
0.00322998
0.00368123
0.00394373
0.00394264
0.00384093
0.0037845
0.00323753
0.00323175
0.00325081
0.0032934
0.00334766
0.00341775
0.00349405
0.00357533
0.00367411
0.00378086
0.00386994
0.00395165
0.0040014
0.00405272
0.00410346
0.00414803
0.00421794
0.00428865
0.00434818
0.00438225
0.00441329
0.0044372
0.00435911
0.00400378
0.00337926
0.00313926
0.00318174
0.00352918
0.00392269
0.00395513
0.0038551
0.00380462
0.00384209
0.00292242
0.00295373
0.00301903
0.00311228
0.00323329
0.00332228
0.00342066
0.00354577
0.00366762
0.00380448
0.00392204
0.00403767
0.00411557
0.00421246
0.00428804
0.00435235
0.00441438
0.00443444
0.00442523
0.00440733
0.00440876
0.00436026
0.00415621
0.00352013
0.00314466
0.00311758
0.00337046
0.00383802
0.0039598
0.00388886
0.00381082
0.00384994
0.00400472
0.00279405
0.00283378
0.00291262
0.00301874
0.00313967
0.00331717
0.00349136
0.0036545
0.00381092
0.00395403
0.004075
0.00418446
0.00426978
0.00438701
0.00446506
0.00451789
0.00451601
0.004472
0.00441049
0.0043717
0.00432609
0.0041877
0.00368754
0.00316942
0.00304081
0.00322747
0.00370884
0.00393218
0.00390763
0.00378607
0.0038125
0.00395139
0.00427042
0.00273385
0.00276275
0.00279694
0.00284473
0.00294317
0.00307015
0.0032911
0.00358361
0.00384979
0.0040553
0.00419906
0.00431359
0.00441125
0.00449869
0.00454803
0.00452117
0.00445829
0.0043835
0.00431894
0.00426571
0.0041469
0.00378019
0.00318872
0.00303635
0.00308812
0.00355477
0.00383944
0.00391122
0.00377082
0.00375436
0.00384829
0.00417669
0.00439679
0.00270446
0.00268111
0.00263271
0.00259847
0.00260412
0.00266282
0.00282288
0.00310777
0.00346879
0.00380564
0.00405312
0.00423886
0.00437573
0.00443575
0.00443992
0.0043673
0.0042974
0.00423658
0.00416965
0.00405548
0.00376279
0.003219
0.00302007
0.00302473
0.00334731
0.00375216
0.00384373
0.00379645
0.00368982
0.00374837
0.00400686
0.00434215
0.00446461
0.0025995
0.0024913
0.00237138
0.00229845
0.00228224
0.00232356
0.00243064
0.0026254
0.00290262
0.00323706
0.00358895
0.00386952
0.00404133
0.00411874
0.0041354
0.00412862
0.00411058
0.00404318
0.00392327
0.0036792
0.00321927
0.00300598
0.00298542
0.003175
0.00364579
0.00378565
0.00380718
0.00365433
0.0036777
0.0038292
0.00423585
0.00446935
0.00459303
0.00238799
0.00223868
0.00216101
0.00212779
0.00213151
0.00217544
0.00226892
0.00242554
0.00265669
0.00294381
0.00322977
0.00348305
0.00367087
0.00380779
0.00388703
0.00390757
0.00388479
0.0037713
0.00354724
0.00316968
0.00298319
0.00295292
0.00307414
0.00350628
0.00371601
0.00375164
0.00370463
0.00362372
0.00371934
0.00402997
0.00438184
0.00471186
0.00494309
0.00218766
0.00211282
0.00208929
0.00208312
0.00209769
0.00214332
0.00223064
0.00237716
0.00259346
0.00285793
0.00312267
0.00335677
0.00353671
0.00365181
0.00368499
0.00368057
0.00359386
0.00337875
0.00307166
0.00293177
0.00290885
0.0030116
0.00335777
0.00364002
0.00369576
0.0036863
0.00361253
0.0036543
0.00390129
0.00430982
0.00463665
0.00509913
0.00544175
0.00210647
0.00209041
0.0020802
0.00208331
0.00210729
0.0021531
0.00223436
0.00237062
0.0025776
0.00283434
0.00309228
0.00331434
0.00343527
0.00346841
0.00346471
0.00338271
0.00319089
0.00296496
0.00287697
0.00286402
0.00294904
0.00323258
0.00356028
0.00364415
0.00365451
0.00362022
0.00361198
0.00378246
0.0041777
0.00444647
0.00476524
0.00524456
0.00558691
0.00210574
0.0021146
0.00214552
0.00216586
0.00218896
0.00222429
0.0022936
0.00241368
0.00259154
0.00282467
0.00306869
0.00320873
0.00324321
0.00324245
0.00316179
0.003
0.00285523
0.00281211
0.00281126
0.00290344
0.00315272
0.00348823
0.00359451
0.00361537
0.003608
0.00360194
0.00369399
0.00400735
0.00427279
0.00447361
0.00479011
0.00525985
0.00555698
0.00215734
0.00224724
0.00229115
0.00230329
0.0023051
0.00231078
0.00234719
0.00243162
0.00255826
0.00271967
0.00286722
0.00291697
0.00293575
0.00292059
0.00282296
0.00276286
0.00275293
0.00277067
0.00287006
0.00309999
0.00342949
0.00355339
0.00358678
0.00359402
0.0035969
0.00365664
0.00383853
0.00410261
0.00427745
0.00446443
0.00478919
0.00518431
0.00525402
0.00231648
0.00244499
0.00248938
0.00249025
0.0024616
0.00242428
0.00241309
0.00244402
0.0025251
0.00261052
0.00267142
0.00271215
0.00271807
0.00272211
0.00270999
0.00271259
0.0027518
0.00286187
0.00307572
0.00338316
0.00352039
0.0035656
0.00358461
0.003595
0.00363398
0.00375042
0.00390928
0.00410791
0.00423232
0.00445327
0.00474334
0.0048817
0.00465465
0.00251658
0.0026984
0.00274277
0.00273985
0.00268541
0.00258752
0.00252696
0.00250906
0.00252578
0.00258778
0.00263672
0.00266186
0.00268077
0.00269452
0.00272021
0.00278192
0.00290761
0.00311162
0.00337911
0.0035051
0.00355506
0.00357519
0.00359195
0.00361795
0.00369118
0.00377732
0.00392144
0.00407192
0.00420346
0.00446821
0.00461844
0.00443407
0.00393269
0.00264858
0.00303053
0.00301458
0.00302516
0.0029778
0.0028526
0.00272667
0.00265421
0.00262881
0.00262128
0.00265217
0.00269331
0.00272652
0.00278704
0.00287039
0.0030072
0.00319484
0.00341609
0.00351648
0.00355839
0.00357694
0.00359024
0.0036096
0.00364422
0.00371489
0.00377459
0.0039153
0.00403261
0.00421142
0.00448563
0.0044139
0.00395245
0.00364759
0.00278564
0.00307455
0.00324358
0.00320217
0.00320639
0.00315511
0.00303164
0.00289486
0.00284491
0.00281794
0.00281705
0.00286035
0.00293012
0.00302206
0.00317405
0.00333106
0.00348948
0.0035487
0.00357582
0.00359154
0.00359856
0.00361449
0.00363255
0.00366309
0.00370452
0.00377047
0.00390469
0.00402953
0.00430177
0.00447021
0.00414847
0.00365351
0.00359233
0.00280169
0.00321446
0.00325337
0.00330042
0.00328907
0.00329425
0.00327731
0.00323219
0.00318494
0.00316113
0.00315857
0.00319524
0.00328519
0.00336944
0.00347445
0.00355227
0.0035836
0.0036007
0.00360858
0.00361403
0.00362284
0.00363521
0.00364651
0.00366911
0.00369997
0.00378696
0.00390354
0.00408119
0.00446243
0.00438254
0.00379167
0.00358398
0.00361946
0.00283665
0.00319363
0.0033492
0.00333629
0.00335816
0.0033633
0.00337234
0.003383
0.00338215
0.00339715
0.00341252
0.00344504
0.00349187
0.00353235
0.0035746
0.00360369
0.0036147
0.00362389
0.00362763
0.00363104
0.00363539
0.0036375
0.00364147
0.00366728
0.00371381
0.00381884
0.00394824
0.00421921
0.00452691
0.00414569
0.00364478
0.00359011
0.00380687
0.00282374
0.00323233
0.00337276
0.00340293
0.00339823
0.00340718
0.00341341
0.00343469
0.00344858
0.00346503
0.00348927
0.0035101
0.00354215
0.00356578
0.00358777
0.00360007
0.00361155
0.00361824
0.00362197
0.00362269
0.003622
0.00362285
0.00364416
0.00369397
0.00376656
0.00387595
0.00405831
0.00442516
0.00449277
0.0038342
0.00362524
0.00370455
0.00395129
0.00278206
0.00322149
0.00343315
0.00344894
0.0034538
0.00345213
0.00345191
0.00345724
0.00347611
0.00348584
0.00350919
0.00352263
0.00354051
0.00355945
0.00356616
0.00357993
0.00358578
0.00359176
0.00359894
0.0036056
0.00361861
0.00365147
0.00371357
0.00378328
0.00386695
0.00398008
0.00425722
0.00450447
0.00428175
0.00371625
0.00365933
0.00388455
0.00395633
0.00270176
0.00320078
0.00342973
0.0034957
0.00348637
0.00348715
0.00348412
0.00348573
0.00349415
0.00350939
0.00351658
0.00353532
0.0035429
0.00356362
0.00357233
0.00358588
0.00359921
0.00361981
0.00364388
0.0036726
0.00371306
0.00377284
0.0038253
0.00387326
0.00395026
0.00410578
0.00440581
0.00448521
0.00396404
0.00370717
0.00377413
0.00392325
0.00385217
0.00262217
0.00309788
0.00345121
0.00351486
0.00352858
0.00352211
0.00352065
0.00352282
0.00353888
0.00355371
0.00357966
0.00359916
0.00361379
0.00361626
0.00361606
0.00361579
0.00362366
0.00364742
0.00368856
0.00373241
0.00376479
0.00380535
0.00384149
0.00388812
0.00397365
0.00420653
0.00442703
0.00429793
0.00381189
0.00374755
0.00387003
0.00388522
0.00361386
0.00255739
0.00300203
0.00339365
0.003536
0.00354429
0.00355361
0.003556
0.00357433
0.00361462
0.00365451
0.00367239
0.00366494
0.00364339
0.00360642
0.00354915
0.00347258
0.00340737
0.00337906
0.00337714
0.00340235
0.00345624
0.0035296
0.00362561
0.00375625
0.00397418
0.00428932
0.00436591
0.00400344
0.00379336
0.00382604
0.00388549
0.00375066
0.00336055
0.00248982
0.00287218
0.00334014
0.00353637
0.00357262
0.00358865
0.00361589
0.00366023
0.00371611
0.00373435
0.00371491
0.00365541
0.00353983
0.00336885
0.00320659
0.00312053
0.00309292
0.00309144
0.00310583
0.00313243
0.00316912
0.00323561
0.00336713
0.00360545
0.00405147
0.00427167
0.00417054
0.00385502
0.00382137
0.00387368
0.00383491
0.0035253
0.00320293
0.00244062
0.00273467
0.00322931
0.00354008
0.00361321
0.00364387
0.00369392
0.00375078
0.00377798
0.00376326
0.00368765
0.00352554
0.00328916
0.00312275
0.00306268
0.00305052
0.00305408
0.00307205
0.00309581
0.00312179
0.00315683
0.00323893
0.00344271
0.00383329
0.00415074
0.00416698
0.00391089
0.00383515
0.00386606
0.00387363
0.00369868
0.003316
0.00311592
0.00241815
0.00261715
0.00305666
0.00350965
0.00365717
0.00370493
0.00376
0.00379373
0.0037971
0.00374404
0.00359096
0.00334408
0.0031473
0.00307803
0.00306406
0.00307897
0.00313002
0.00319533
0.00323877
0.00325811
0.00329553
0.00344089
0.00381152
0.00407129
0.00410079
0.00393682
0.00385376
0.00386444
0.00389245
0.003805
0.00351409
0.00318498
0.00306179
0.00243446
0.00252415
0.00284054
0.00339226
0.00368418
0.00375197
0.00379118
0.00380166
0.00378378
0.00368601
0.00348437
0.00324433
0.003134
0.00311302
0.00313258
0.00321695
0.00334781
0.00346108
0.0035237
0.00354866
0.00365875
0.00394446
0.00405114
0.00406365
0.00394474
0.00387111
0.00387362
0.00390692
0.00386881
0.00367338
0.00335974
0.00310431
0.00301439
0.00249167
0.00249223
0.00266989
0.00313709
0.00362877
0.00376426
0.00379396
0.0037961
0.00375414
0.00363133
0.00341435
0.00323055
0.00317921
0.00318381
0.00326384
0.00343941
0.00366026
0.00383751
0.00392594
0.00402066
0.00409076
0.00412315
0.00406767
0.00393984
0.00388956
0.0038882
0.00391896
0.00390508
0.00376888
0.00351299
0.00323311
0.00303572
0.00295831
0.00256948
0.00252112
0.00256523
0.0028574
0.00345544
0.00374439
0.00378998
0.00379433
0.00374289
0.00360684
0.00338991
0.00325972
0.0032376
0.00327432
0.00342364
0.00369685
0.00404876
0.00425344
0.00429537
0.00429387
0.00423876
0.0040894
0.00397447
0.0039132
0.00390976
0.00393784
0.00393857
0.00383996
0.00362792
0.00337719
0.00315682
0.00297578
0.00288576
0.00269248
0.00258101
0.00255082
0.00266325
0.00312281
0.00365583
0.00377641
0.00378717
0.00374226
0.00359929
0.00339417
0.00330516
0.00329856
0.00336848
0.00356971
0.00390459
0.00427766
0.00443365
0.0044521
0.00438382
0.0041725
0.00401594
0.00395164
0.00393859
0.00396776
0.00397776
0.0039153
0.0037554
0.00354526
0.00333715
0.00315264
0.0029654
0.00283588
0.00278775
0.00270199
0.00259559
0.00258645
0.00279207
0.00340937
0.00373782
0.00377244
0.00374433
0.00360618
0.00342065
0.00335711
0.00336116
0.00345103
0.00367037
0.00401696
0.00436083
0.00447096
0.00446859
0.00431557
0.00407524
0.0040026
0.00398815
0.00399481
0.00401983
0.00398687
0.00387974
0.00372284
0.00354595
0.00337397
0.00321384
0.00305801
0.00291797
0.00284756
0.00283392
0.00269742
0.00260793
0.00264064
0.00300836
0.00360257
0.00374131
0.00373853
0.00362843
0.00346137
0.00340943
0.00341858
0.00350851
0.00370986
0.00405801
0.00436548
0.0044442
0.00442111
0.00418498
0.00405209
0.00402736
0.00404139
0.00405482
0.00405109
0.00399147
0.003889
0.00376621
0.00364474
0.00353282
0.003412
0.00328475
0.0031688
0.00287908
0.00291452
0.00286189
0.00268356
0.00261822
0.00272525
0.00324844
0.00366872
0.00370597
0.00364923
0.00350707
0.00345833
0.00346543
0.00353663
0.00370175
0.0040066
0.00429611
0.00436455
0.00430773
0.00409928
0.00405027
0.00406044
0.00408774
0.00410039
0.00407063
0.00401263
0.00394363
0.00388164
0.00381255
0.00372426
0.00362156
0.00352477
0.00344587
0.00288442
0.00296466
0.00297506
0.00285451
0.00266408
0.00263487
0.00285739
0.00345019
0.00364897
0.00364558
0.00355701
0.00350984
0.00350953
0.00354476
0.00362741
0.00382192
0.00410667
0.004201
0.00418861
0.00407487
0.00405072
0.00408944
0.00412029
0.00412864
0.00409191
0.00405669
0.00402659
0.00400082
0.00396381
0.00389767
0.00380037
0.0036913
0.00358844
0.00286598
0.00299133
0.00304164
0.00301249
0.00280549
0.00264841
0.00267498
0.0030426
0.00352238
0.00359981
0.00358965
0.00355503
0.00354651
0.00355564
0.0035961
0.00371369
0.0039583
0.00407719
0.00409147
0.00404738
0.00403617
0.00408488
0.00412195
0.00413458
0.00410634
0.00409641
0.00410664
0.00412201
0.00412148
0.00410871
0.00406215
0.00396962
0.00384324
0.00284512
0.00298617
0.00307591
0.00309009
0.00297552
0.00269711
0.00260157
0.00271743
0.00324704
0.00354867
0.00357812
0.00357775
0.00356035
0.00353104
0.00352731
0.00358242
0.00377701
0.00393408
0.00397071
0.00398171
0.00398146
0.00404714
0.00409282
0.00410868
0.00408546
0.0040777
0.00410401
0.00417844
0.00426677
0.0043059
0.00432677
0.00433175
0.0043077
0.00282406
0.00296659
0.00309542
0.00313755
0.00308547
0.00279723
0.00257508
0.00256154
0.0028871
0.00343143
0.00355881
0.00357972
0.0035763
0.00352211
0.00346356
0.00346549
0.00357978
0.00377235
0.00385635
0.00389005
0.00390609
0.00395214
0.0039882
0.00400471
0.0039901
0.00398353
0.00402016
0.00411522
0.00423721
0.00434157
0.00442389
0.00451821
0.00457546
0.00279389
0.00293765
0.00310305
0.00318202
0.00318009
0.00294886
0.00259505
0.00250267
0.00264313
0.00321841
0.00353488
0.00358873
0.00359434
0.00353865
0.0034145
0.00337886
0.00342774
0.00357703
0.00368932
0.00373774
0.00377005
0.00379301
0.0038308
0.003862
0.00386372
0.00386195
0.00390981
0.00401384
0.00414686
0.00426252
0.00436609
0.00450825
0.00466596
0.00275791
0.00290407
0.00308383
0.00322038
0.00325904
0.00311953
0.00269368
0.00249492
0.00252302
0.00293446
0.00346924
0.00358527
0.00359662
0.00354062
0.00336673
0.00328674
0.00329503
0.00339394
0.00352447
0.00359053
0.00362596
0.00364122
0.00365866
0.00371767
0.00378031
0.00380749
0.00384729
0.00392781
0.00407306
0.0042098
0.00431783
0.00444372
0.0046357
0.0027216
0.00286322
0.00304357
0.00323818
0.00332408
0.00327456
0.00288939
0.00252449
0.00247278
0.00271198
0.00334042
0.00357105
0.00359259
0.00354227
0.00335697
0.00319076
0.00315952
0.00320106
0.00331259
0.00339947
0.00345884
0.00349534
0.00351844
0.00354488
0.00365582
0.00375388
0.00382938
0.00391344
0.00404546
0.00419183
0.00430258
0.00441147
0.00459351
0.00268923
0.00282331
0.00299676
0.00321378
0.00337236
0.00339433
0.0031208
0.00261979
0.00246701
0.00257312
0.00313643
0.00353638
0.00357923
0.00354624
0.00339239
0.00316761
0.00306996
0.00306229
0.0031148
0.00320388
0.00327433
0.00333232
0.00340006
0.00343204
0.00349856
0.00363322
0.00378789
0.00393635
0.00409829
0.00426545
0.00436379
0.00446014
0.00461419
0.00266301
0.00278649
0.00294976
0.00315654
0.00339609
0.00348711
0.0033568
0.00279567
0.00249489
0.002493
0.00290025
0.00346046
0.00355825
0.00354236
0.00341887
0.0032108
0.00305009
0.00299015
0.00297856
0.00300964
0.00307239
0.00313096
0.00319906
0.00330358
0.00339016
0.00351767
0.00369009
0.00389124
0.00407968
0.00426526
0.004405
0.00449353
0.00460688
0.0026443
0.00275652
0.00290889
0.00310145
0.00336091
0.00354531
0.00353411
0.00308114
0.00256546
0.00247037
0.00269625
0.00331997
0.00351474
0.00351582
0.00341753
0.00324719
0.00310493
0.00302683
0.00294352
0.00289112
0.00288775
0.00291669
0.00295163
0.0030201
0.00315521
0.00331706
0.00350931
0.0037372
0.00397892
0.00419624
0.00435314
0.00444648
0.00457595
0.00263429
0.00273322
0.00287486
0.00305214
0.00328354
0.00356364
0.00365239
0.00340886
0.0027261
0.00248748
0.00255704
0.00312198
0.00344702
0.00345775
0.00337963
0.00324231
0.00317792
0.00314205
0.00305084
0.00292309
0.00284437
0.00279725
0.00278097
0.00278302
0.00282236
0.00292859
0.00310055
0.00334122
0.00366464
0.00399255
0.00423095
0.00436283
0.00450178
0.00262947
0.00271856
0.0028505
0.00301398
0.00321851
0.00350573
0.00370277
0.00365616
0.00304421
0.00254421
0.00250275
0.00287593
0.00336454
0.00340531
0.00330122
0.00320549
0.00318345
0.00317749
0.00317085
0.00311907
0.00300438
0.00287832
0.00277594
0.00272057
0.00270095
0.00270509
0.0027491
0.00285768
0.00304975
0.00338153
0.00378753
0.0041522
0.00437965
0.00262775
0.00270888
0.00283425
0.00298983
0.00317111
0.00341259
0.00371598
0.00379419
0.0034857
0.00271955
0.0025028
0.00263889
0.00319925
0.00334886
0.00326278
0.00315552
0.00313546
0.00313836
0.00316
0.00318322
0.00318977
0.00316854
0.00304625
0.00290159
0.00280232
0.00273005
0.00269855
0.00269387
0.00272631
0.00283262
0.00306518
0.00344342
0.00397496
0.0026307
0.00270261
0.00282363
0.00297719
0.00314582
0.00334623
0.00364039
0.00384944
0.00382485
0.00313098
0.0025478
0.00251837
0.00289881
0.00328436
0.00327309
0.00314503
0.00305045
0.00302732
0.00304227
0.00308776
0.00314111
0.00321267
0.00325042
0.00324755
0.00318489
0.00309241
0.00298583
0.00287135
0.00276068
0.00271906
0.00273786
0.00287494
0.00317559
0.00263727
0.00269776
0.00281155
0.00296627
0.00313426
0.00331669
0.0035325
0.00381534
0.00393627
0.0036843
0.00274966
0.00249378
0.00260599
0.00312113
0.00326186
0.00317875
0.00304498
0.00297143
0.00289788
0.00285853
0.00287771
0.00294771
0.00304529
0.00319695
0.00330139
0.003326
0.00332564
0.00330102
0.00320295
0.00295448
0.00272019
0.00271525
0.00280276
0.0026438
0.002695
0.00279792
0.00294887
0.00312237
0.00330763
0.00348076
0.00368493
0.00391596
0.00397529
0.00329501
0.00254516
0.00247452
0.00280383
0.00323041
0.00322371
0.0030838
0.00298253
0.00290014
0.00277539
0.00263833
0.00258974
0.00260149
0.0026705
0.00284848
0.00314665
0.00330512
0.00336089
0.00337621
0.00333129
0.00302268
0.00272561
0.00272244
0.0026515
0.00269367
0.00278634
0.00292806
0.00310783
0.00330235
0.00346096
0.00359675
0.00379898
0.00402082
0.0039649
0.00281237
0.0024547
0.00252127
0.00304052
0.00322501
0.00316912
0.0030501
0.00295453
0.00282036
0.00264883
0.00245832
0.00233006
0.00230425
0.00231687
0.00242444
0.00275495
0.00317352
0.00334882
0.00340252
0.00336143
0.00291183
0.00273405
0.00266292
0.00269711
0.00277692
0.00290212
0.00308324
0.00329225
0.00345213
0.00355416
0.00367509
0.00393692
0.00417512
0.00351745
0.00254049
0.00240605
0.00266345
0.0031558
0.00320793
0.00315275
0.00308769
0.00296892
0.00278218
0.00253684
0.00230747
0.00213537
0.0020795
0.00207537
0.00215555
0.00249007
0.00306157
0.0033273
0.00339267
0.00329931
0.00283382
0.00267489
0.00270216
0.00277208
0.00287783
0.00304894
0.00326592
0.00343622
0.00353309
0.00360923
0.00376588
0.00411757
0.0041593
0.00292819
0.00241272
0.0024226
0.00286427
0.00318487
0.00319686
0.00317726
0.00311298
0.0029849
0.00276333
0.00245528
0.00216268
0.00199671
0.00193575
0.00193537
0.00205987
0.00243736
0.0031134
0.00338366
0.00343384
0.00315544
0.00268497
0.0027099
0.00277062
0.00286573
0.00301445
0.00322044
0.00340382
0.00351546
0.00358353
0.00367196
0.00392197
0.0043861
0.00372662
0.00253486
0.0023526
0.00251373
0.003008
0.00318321
0.00320406
0.00317297
0.00308593
0.00290987
0.00263468
0.00229765
0.00201791
0.00189159
0.00186178
0.0018992
0.00210872
0.00261321
0.00324914
0.00344105
0.00339239
0.0026959
0.00272109
0.00277836
0.00286364
0.00299133
0.00316133
0.00334843
0.00349076
0.00356854
0.00363357
0.00379386
0.00436269
0.00424133
0.00301589
0.00237961
0.0023416
0.00261744
0.0030466
0.00317928
0.00317034
0.00309654
0.00294548
0.00268497
0.00235749
0.00205349
0.00189082
0.00183779
0.0018618
0.00197735
0.00230858
0.00298098
0.00340423
0.00346194
0.00270124
0.00273138
0.00279346
0.00287698
0.00298401
0.00311338
0.0032766
0.00344538
0.00355305
0.0036187
0.00371766
0.00413566
0.00449566
0.00383835
0.00250428
0.00233206
0.0023959
0.00268391
0.00301167
0.00308607
0.00304151
0.00290874
0.00265353
0.00233567
0.00204663
0.00188843
0.00183848
0.0018621
0.00194805
0.0021863
0.00272456
0.00330306
0.00347168
0.00270296
0.00274181
0.00281618
0.0029005
0.00299083
0.00308969
0.00321039
0.00337722
0.0035206
0.00361039
0.00368814
0.00391924
0.00456726
0.0043289
0.00294562
0.00234666
0.00233644
0.00244117
0.00265532
0.00279324
0.00279831
0.0027053
0.00247973
0.00219878
0.00198894
0.00188407
0.00185298
0.00188443
0.00197929
0.00217446
0.00260387
0.00321027
0.00346204
0.00270261
0.00275043
0.00284154
0.00293058
0.00300931
0.00308409
0.00317221
0.00330064
0.0034664
0.00359202
0.00368014
0.00385229
0.00451512
0.00463118
0.00375331
0.00251353
0.00233794
0.00235849
0.00243366
0.00249698
0.0024846
0.00241334
0.00223598
0.00205403
0.00194939
0.00189035
0.00189459
0.00195997
0.00209121
0.00225867
0.00266514
0.00320441
0.00347176
0.00270135
0.0027606
0.00286579
0.00296196
0.00303311
0.0030956
0.00315857
0.00325325
0.00340101
0.00355705
0.0036782
0.00383645
0.00437947
0.00483449
0.00435232
0.00284482
0.00237376
0.00232366
0.00232494
0.00231873
0.00228063
0.00219947
0.00208731
0.00200651
0.00195233
0.00193929
0.00200297
0.00212003
0.00223508
0.00244695
0.00296905
0.00333692
0.00350099
0.00270145
0.002773
0.00288821
0.0029824
0.00305638
0.003117
0.00317178
0.00323538
0.00335523
0.00351515
0.00366794
0.00383705
0.00431871
0.00492546
0.00473547
0.00345133
0.00248872
0.0023288
0.00228317
0.0022378
0.00217822
0.00211977
0.00206397
0.00202144
0.00202087
0.00209363
0.00218648
0.00231271
0.00255281
0.00303982
0.00342715
0.0035109
0.00351723
0.00270948
0.00279475
0.0029102
0.00299877
0.00306742
0.00312788
0.00318348
0.0032381
0.00333437
0.00348216
0.00365011
0.00383691
0.00432396
0.00496115
0.00496012
0.00400315
0.00278138
0.00237327
0.00228447
0.00223235
0.00217649
0.00213056
0.00211169
0.00213449
0.00220974
0.00232251
0.00250425
0.00291241
0.00336608
0.00352966
0.00356059
0.00351433
0.00345824
0.00272957
0.00283067
0.00293625
0.00301474
0.00307876
0.00313424
0.00318809
0.00324509
0.00332902
0.00346383
0.00362819
0.00383155
0.00434968
0.00501234
0.0050833
0.00438623
0.00311837
0.00250155
0.00232833
0.00226304
0.00222716
0.00224193
0.00229728
0.00238805
0.00255961
0.00294789
0.0033894
0.0035716
0.00357502
0.00353732
0.00348291
0.00338613
0.0033127
0.00276333
0.00288022
0.00297494
0.00303932
0.0030951
0.00314253
0.00319484
0.00325489
0.00333539
0.00345541
0.00360828
0.0038251
0.00441103
0.00505661
0.00509887
0.00450403
0.00336243
0.00269696
0.00247158
0.00244032
0.00247159
0.00258463
0.00273146
0.00301324
0.00337357
0.00356159
0.0036124
0.00364368
0.00364829
0.00363836
0.00355591
0.00341358
0.00328838
0.00281019
0.00293759
0.00302132
0.00307844
0.00311322
0.00315067
0.00320338
0.00326879
0.00334836
0.00345639
0.00359458
0.00383221
0.00451801
0.00509014
0.0050871
0.00453051
0.00360197
0.00312419
0.00295802
0.00295725
0.00305672
0.00321378
0.0033789
0.00357034
0.00368965
0.00380813
0.00386793
0.00387165
0.00386433
0.00388508
0.00388457
0.0036586
0.00335192
0.00287217
0.00300263
0.00307425
0.00311491
0.00313137
0.00315877
0.0032103
0.00328315
0.00336329
0.00346048
0.00358861
0.00386172
0.00465887
0.00512054
0.00506932
0.00458296
0.00403286
0.00377484
0.00361219
0.00355126
0.00358264
0.00364582
0.0037609
0.00393935
0.00400105
0.00397415
0.00388802
0.00385327
0.00385066
0.00393005
0.00400763
0.0039855
0.00360624
0.00294059
0.00306755
0.00312464
0.00314529
0.00314965
0.00316621
0.00321388
0.00329558
0.0033781
0.00347042
0.00360112
0.00393348
0.00481649
0.00516069
0.00508722
0.00473525
0.00446748
0.00421739
0.00396856
0.00390191
0.00392063
0.00401716
0.00407833
0.00405954
0.00391813
0.00378138
0.00374178
0.0037347
0.00378203
0.00388089
0.00405734
0.00411618
0.00403252
0.00301202
0.00312581
0.00316829
0.00317463
0.00316068
0.00317278
0.00322135
0.00331302
0.00339528
0.00348356
0.00363116
0.00405863
0.00497173
0.00522157
0.005152
0.00494024
0.00470024
0.00435308
0.00416689
0.00413051
0.00412288
0.00409028
0.0039745
0.00373405
0.00359642
0.00356132
0.00354729
0.00359802
0.00366266
0.00376149
0.00395567
0.00415568
0.00419007
0.00307713
0.00317547
0.00320236
0.00319851
0.00316373
0.00317748
0.0032364
0.00334111
0.00342151
0.00350778
0.00368205
0.00423788
0.00510668
0.00528163
0.00523507
0.00503218
0.00470823
0.00437744
0.00423705
0.00418635
0.00408431
0.00389257
0.00362637
0.00349072
0.00341912
0.00333632
0.00331948
0.00333146
0.00343824
0.00358788
0.00371936
0.0040038
0.00423161
0.00313982
0.00321749
0.00322482
0.00321265
0.00316142
0.00318003
0.00326568
0.0033857
0.0034566
0.0035427
0.00375925
0.00444556
0.00521364
0.0053307
0.00526587
0.00502499
0.00464108
0.00435239
0.00426719
0.00415243
0.00396738