/*--------------------------------*- C++ -*----------------------------------*\
  =========                 |
  \\      /  F ield         | OpenFOAM: The Open Source CFD Toolbox
   \\    /   O peration     | Website:  https://openfoam.org
    \\  /    A nd           | Version:  10
     \\/     M anipulation  |
\*---------------------------------------------------------------------------*/
FoamFile
{
    format      ascii;
    class       volVectorField;
    location    "0.34949";
    object      U;
}
// * * * * * * * * * * * * * * * * * * * * * * * * * * * * * * * * * * * * * //

dimensions      [0 1 -1 0 0 0 0];

internalField   nonuniform List<vector> 
16320
(
(-0.0567772 0.00595965 0)
(-0.0637891 0.0313484 0)
(-0.0419967 0.086501 0)
(-0.0029311 0.150834 0)
(0.040311 0.186952 0)
(0.0826447 0.205212 0)
(0.124068 0.212939 0)
(0.163785 0.216659 0)
(0.201769 0.220413 0)
(0.236669 0.224663 0)
(0.267869 0.230154 0)
(0.296818 0.236133 0)
(0.324161 0.242002 0)
(0.349517 0.247778 0)
(0.372402 0.253314 0)
(0.390809 0.258352 0)
(0.40183 0.262029 0)
(0.404305 0.261725 0)
(0.401092 0.253896 0)
(0.399076 0.237218 0)
(0.406856 0.211824 0)
(0.428422 0.179088 0)
(0.462614 0.138824 0)
(0.505372 0.0924924 0)
(0.549681 0.0405037 0)
(0.592654 -0.0172103 0)
(0.634127 -0.0720006 0)
(0.665275 -0.119005 0)
(0.675856 -0.156829 0)
(0.668662 -0.178017 0)
(0.648 -0.18139 0)
(0.611889 -0.171696 0)
(0.558122 -0.149284 0)
(-0.05036 0.0427249 0)
(-0.0497441 0.0589328 0)
(-0.0338089 0.091814 0)
(0.00621384 0.146495 0)
(0.0490115 0.178172 0)
(0.0935794 0.196849 0)
(0.13748 0.207134 0)
(0.179717 0.213655 0)
(0.219774 0.219432 0)
(0.257424 0.224795 0)
(0.292278 0.2306 0)
(0.323925 0.236975 0)
(0.352499 0.242974 0)
(0.378391 0.247918 0)
(0.401422 0.251729 0)
(0.4197 0.253666 0)
(0.429839 0.25258 0)
(0.429771 0.246859 0)
(0.423675 0.233418 0)
(0.421079 0.212521 0)
(0.431431 0.185697 0)
(0.457792 0.153642 0)
(0.496173 0.115277 0)
(0.541555 0.0711549 0)
(0.588695 0.0207146 0)
(0.632311 -0.028613 0)
(0.668603 -0.0719001 0)
(0.69101 -0.108759 0)
(0.69855 -0.135395 0)
(0.692765 -0.147428 0)
(0.672902 -0.149023 0)
(0.640392 -0.140722 0)
(0.593708 -0.120687 0)
(-0.0621217 0.0475818 0)
(-0.0417467 0.0777127 0)
(-0.0215012 0.0962703 0)
(0.0173906 0.136492 0)
(0.0603382 0.164729 0)
(0.10728 0.183656 0)
(0.153619 0.196025 0)
(0.198293 0.204751 0)
(0.240853 0.212258 0)
(0.281247 0.219083 0)
(0.319165 0.225351 0)
(0.353775 0.230948 0)
(0.384524 0.235427 0)
(0.411981 0.238442 0)
(0.435578 0.23961 0)
(0.453072 0.238044 0)
(0.460985 0.232018 0)
(0.457528 0.219661 0)
(0.449157 0.20132 0)
(0.44796 0.178393 0)
(0.462269 0.15215 0)
(0.492644 0.122118 0)
(0.533984 0.0872828 0)
(0.580902 0.0480609 0)
(0.625284 0.00735453 0)
(0.662238 -0.0309665 0)
(0.690215 -0.0635171 0)
(0.70754 -0.0900866 0)
(0.71306 -0.106608 0)
(0.706202 -0.116007 0)
(0.687868 -0.11795 0)
(0.659498 -0.111565 0)
(0.618705 -0.0949157 0)
(-0.095074 0.032178 0)
(-0.0549125 0.0756279 0)
(-0.017313 0.100869 0)
(0.0258127 0.126808 0)
(0.0698131 0.149837 0)
(0.118893 0.167624 0)
(0.167975 0.181092 0)
(0.215368 0.191441 0)
(0.260728 0.200387 0)
(0.303971 0.208336 0)
(0.344614 0.215129 0)
(0.381557 0.220311 0)
(0.414206 0.223202 0)
(0.443094 0.223769 0)
(0.46727 0.221188 0)
(0.483971 0.214652 0)
(0.489123 0.202413 0)
(0.483625 0.183888 0)
(0.476664 0.162935 0)
(0.479409 0.141176 0)
(0.49876 0.118657 0)
(0.530986 0.0936989 0)
(0.571375 0.0657828 0)
(0.612323 0.0353245 0)
(0.647397 0.0046418 0)
(0.67651 -0.0227876 0)
(0.699761 -0.0469118 0)
(0.713924 -0.065931 0)
(0.71734 -0.0800489 0)
(0.710222 -0.0897653 0)
(0.693788 -0.0942781 0)
(0.66851 -0.0926442 0)
(0.631694 -0.0829925 0)
(-0.152499 0.00240672 0)
(-0.0924479 0.0569965 0)
(-0.0375372 0.0920446 0)
(0.0203134 0.117528 0)
(0.070581 0.139444 0)
(0.122872 0.154753 0)
(0.175438 0.167126 0)
(0.226363 0.17773 0)
(0.275091 0.187222 0)
(0.321318 0.195569 0)
(0.364346 0.202419 0)
(0.402944 0.206873 0)
(0.436952 0.208378 0)
(0.46672 0.20674 0)
(0.490971 0.201231 0)
(0.506096 0.190392 0)
(0.509579 0.173264 0)
(0.505698 0.152621 0)
(0.503406 0.132554 0)
(0.511405 0.114699 0)
(0.531619 0.0973754 0)
(0.561847 0.0782972 0)
(0.595948 0.0575847 0)
(0.628535 0.0349675 0)
(0.657911 0.012923 0)
(0.682792 -0.00801312 0)
(0.701278 -0.0275 0)
(0.712325 -0.0451065 0)
(0.714357 -0.0610008 0)
(0.706565 -0.0751831 0)
(0.689457 -0.0871014 0)
(0.664279 -0.0942973 0)
(0.62859 -0.0952859 0)
(-0.233709 -0.0250216 0)
(-0.152726 0.031921 0)
(-0.083116 0.0744371 0)
(-0.012338 0.100621 0)
(0.0602713 0.127105 0)
(0.115959 0.142635 0)
(0.173146 0.153825 0)
(0.228609 0.164265 0)
(0.281214 0.174087 0)
(0.330471 0.182696 0)
(0.375487 0.189283 0)
(0.415273 0.192771 0)
(0.450093 0.192895 0)
(0.480129 0.18929 0)
(0.503274 0.181179 0)
(0.516522 0.167099 0)
(0.520377 0.148581 0)
(0.520473 0.129716 0)
(0.524244 0.1137 0)
(0.535869 0.100693 0)
(0.556776 0.0885576 0)
(0.584245 0.0757417 0)
(0.613764 0.0608439 0)
(0.642141 0.0444476 0)
(0.66695 0.0268258 0)
(0.686671 0.00764102 0)
(0.701146 -0.0120306 0)
(0.708214 -0.0329484 0)
(0.705172 -0.0562371 0)
(0.691334 -0.0816987 0)
(0.669465 -0.105851 0)
(0.641168 -0.124001 0)
(0.605242 -0.133489 0)
(-0.308156 -0.0706247 0)
(-0.22178 -0.0199347 0)
(-0.136476 0.0301372 0)
(-0.0582599 0.067326 0)
(0.0288188 0.100676 0)
(0.0991482 0.12428 0)
(0.163471 0.136848 0)
(0.224846 0.148504 0)
(0.281853 0.159533 0)
(0.333986 0.168896 0)
(0.380336 0.175517 0)
(0.420615 0.178376 0)
(0.455657 0.177375 0)
(0.485139 0.172228 0)
(0.50667 0.162102 0)
(0.5192 0.146922 0)
(0.525763 0.12991 0)
(0.53173 0.115089 0)
(0.541054 0.103826 0)
(0.556704 0.095626 0)
(0.578738 0.0886052 0)
(0.604413 0.0807919 0)
(0.630623 0.0705439 0)
(0.654404 0.0573226 0)
(0.673664 0.0403284 0)
(0.687737 0.0201806 0)
(0.694929 -0.00470143 0)
(0.691918 -0.0369738 0)
(0.677302 -0.0760482 0)
(0.653892 -0.117028 0)
(0.626434 -0.150441 0)
(0.597575 -0.170489 0)
(0.566544 -0.176378 0)
(-0.299312 -0.103763 0)
(-0.232559 -0.0681485 0)
(-0.159448 -0.0270614 0)
(-0.0799125 0.0180687 0)
(0.00290329 0.0583097 0)
(0.0902818 0.0922396 0)
(0.160103 0.111635 0)
(0.226239 0.127782 0)
(0.286252 0.141724 0)
(0.339673 0.15284 0)
(0.386042 0.160136 0)
(0.425721 0.162986 0)
(0.460002 0.161691 0)
(0.488105 0.155962 0)
(0.508314 0.145429 0)
(0.521873 0.132071 0)
(0.533072 0.119122 0)
(0.545395 0.109179 0)
(0.560873 0.102936 0)
(0.580307 0.0993526 0)
(0.602618 0.0957666 0)
(0.625629 0.0899157 0)
(0.646209 0.0807532 0)
(0.662308 0.0668408 0)
(0.673006 0.0470011 0)
(0.676373 0.0188128 0)
(0.668549 -0.0205247 0)
(0.648752 -0.0710606 0)
(0.620951 -0.125469 0)
(0.592254 -0.170309 0)
(0.567223 -0.196005 0)
(0.545057 -0.201767 0)
(0.524399 -0.193389 0)
(-0.209931 -0.113782 0)
(-0.150854 -0.0855541 0)
(-0.0927158 -0.0544526 0)
(-0.0383717 -0.020795 0)
(0.0402865 0.0215704 0)
(0.113186 0.0570062 0)
(0.182948 0.0860378 0)
(0.248125 0.108889 0)
(0.306884 0.126925 0)
(0.358332 0.140359 0)
(0.402071 0.148709 0)
(0.439251 0.152132 0)
(0.471232 0.151405 0)
(0.49685 0.146267 0)
(0.516187 0.137406 0)
(0.531769 0.127957 0)
(0.546956 0.120274 0)
(0.563897 0.115505 0)
(0.582847 0.113756 0)
(0.602817 0.112828 0)
(0.622564 0.110593 0)
(0.640184 0.104318 0)
(0.653171 0.0916983 0)
(0.659564 0.070686 0)
(0.656756 0.0382107 0)
(0.64188 -0.00903974 0)
(0.6142 -0.0695667 0)
(0.579818 -0.131825 0)
(0.548828 -0.180691 0)
(0.526596 -0.206529 0)
(0.509907 -0.210432 0)
(0.495512 -0.198852 0)
(0.480263 -0.18351 0)
(-0.118226 -0.123384 0)
(-0.0617046 -0.0955601 0)
(-0.00294364 -0.0646423 0)
(0.0668021 -0.0287175 0)
(0.120065 -0.00147241 0)
(0.180982 0.0323674 0)
(0.241178 0.0645226 0)
(0.298198 0.0915816 0)
(0.34997 0.113058 0)
(0.394871 0.128904 0)
(0.43271 0.139085 0)
(0.465062 0.144237 0)
(0.492744 0.14505 0)
(0.514856 0.141776 0)
(0.533087 0.136308 0)
(0.550059 0.131173 0)
(0.56783 0.128207 0)
(0.587153 0.127576 0)
(0.606967 0.127779 0)
(0.625676 0.126791 0)
(0.641352 0.121748 0)
(0.651072 0.10973 0)
(0.652006 0.0859496 0)
(0.641307 0.0476171 0)
(0.615996 -0.0072701 0)
(0.578012 -0.0732504 0)
(0.537774 -0.134943 0)
(0.505823 -0.180497 0)
(0.484847 -0.202984 0)
(0.469279 -0.204989 0)
(0.455057 -0.192845 0)
(0.440967 -0.176673 0)
(0.42737 -0.166806 0)
(-0.0387216 -0.139936 0)
(0.0193393 -0.113962 0)
(0.0796494 -0.084093 0)
(0.137381 -0.0516303 0)
(0.196623 -0.0173993 0)
(0.252986 0.0160904 0)
(0.307857 0.0478077 0)
(0.358383 0.0761798 0)
(0.403011 0.0996772 0)
(0.440549 0.117477 0)
(0.471194 0.1294 0)
(0.496902 0.136459 0)
(0.518455 0.139038 0)
(0.53615 0.138341 0)
(0.552158 0.136804 0)
(0.569106 0.136315 0)
(0.587664 0.137346 0)
(0.606731 0.138919 0)
(0.624382 0.138998 0)
(0.637949 0.134698 0)
(0.644361 0.121443 0)
(0.638386 0.0937675 0)
(0.616601 0.0468274 0)
(0.57936 -0.0157222 0)
(0.532316 -0.083087 0)
(0.491749 -0.138671 0)
(0.4621 -0.17337 0)
(0.440561 -0.188984 0)
(0.423981 -0.189142 0)
(0.408785 -0.177604 0)
(0.393707 -0.162115 0)
(0.379643 -0.152968 0)
(0.373268 -0.152739 0)
(0.0367869 -0.154547 0)
(0.0910085 -0.130799 0)
(0.146447 -0.10223 0)
(0.202535 -0.0684316 0)
(0.258719 -0.031907 0)
(0.312104 0.00480657 0)
(0.362784 0.0391329 0)
(0.407937 0.0699784 0)
(0.445974 0.0957297 0)
(0.476186 0.115051 0)
(0.49996 0.128024 0)
(0.519498 0.136088 0)
(0.535747 0.139925 0)
(0.549999 0.141754 0)
(0.56452 0.14339 0)
(0.580243 0.145559 0)
(0.596575 0.147335 0)
(0.611918 0.146715 0)
(0.623031 0.140783 0)
(0.625249 0.125175 0)
(0.613425 0.0937279 0)
(0.582907 0.041991 0)
(0.534894 -0.0269046 0)
(0.481188 -0.0934648 0)
(0.434676 -0.140523 0)
(0.408604 -0.163391 0)
(0.391281 -0.170447 0)
(0.374592 -0.167245 0)
(0.359446 -0.155657 0)
(0.34428 -0.139362 0)
(0.328475 -0.129434 0)
(0.320323 -0.134016 0)
(0.328471 -0.150057 0)
(0.102355 -0.168929 0)
(0.154273 -0.144355 0)
(0.206992 -0.115223 0)
(0.260261 -0.0815507 0)
(0.312794 -0.0438073 0)
(0.362186 -0.00411796 0)
(0.407638 0.0334953 0)
(0.446868 0.0678071 0)
(0.477649 0.0965667 0)
(0.500011 0.117973 0)
(0.516615 0.132869 0)
(0.529829 0.142165 0)
(0.541289 0.147775 0)
(0.552449 0.151539 0)
(0.564053 0.154262 0)
(0.576148 0.155386 0)
(0.587016 0.153308 0)
(0.593425 0.145167 0)
(0.591004 0.125931 0)
(0.573504 0.0905727 0)
(0.53755 0.0372997 0)
(0.484962 -0.0293066 0)
(0.4319 -0.0892227 0)
(0.386497 -0.131477 0)
(0.350791 -0.149539 0)
(0.334257 -0.148224 0)
(0.322033 -0.141648 0)
(0.30772 -0.129457 0)
(0.293639 -0.112361 0)
(0.27733 -0.0987506 0)
(0.266008 -0.103978 0)
(0.275038 -0.131765 0)
(0.299669 -0.165977 0)
(0.165111 -0.185068 0)
(0.212389 -0.156259 0)
(0.260245 -0.123837 0)
(0.309045 -0.0879711 0)
(0.358175 -0.0494433 0)
(0.403323 -0.00850578 0)
(0.442671 0.0320451 0)
(0.475254 0.0695876 0)
(0.498022 0.100652 0)
(0.512264 0.123791 0)
(0.521415 0.139888 0)
(0.528478 0.150249 0)
(0.535351 0.156875 0)
(0.54214 0.160153 0)
(0.548742 0.160511 0)
(0.553853 0.156518 0)
(0.554691 0.145028 0)
(0.546051 0.12209 0)
(0.522391 0.0838206 0)
(0.481999 0.0303599 0)
(0.428212 -0.0302337 0)
(0.378203 -0.0799873 0)
(0.338163 -0.110649 0)
(0.301658 -0.125035 0)
(0.277516 -0.122659 0)
(0.265585 -0.111504 0)
(0.253711 -0.100063 0)
(0.240933 -0.0838211 0)
(0.226502 -0.0668201 0)
(0.212881 -0.0665514 0)
(0.220617 -0.10064 0)
(0.250815 -0.15039 0)
(0.286023 -0.193059 0)
(0.225935 -0.216564 0)
(0.265225 -0.177398 0)
(0.304311 -0.134848 0)
(0.343763 -0.0910062 0)
(0.384968 -0.0467994 0)
(0.425445 -0.0038832 0)
(0.460093 0.0393002 0)
(0.48621 0.078513 0)
(0.501133 0.10958 0)
(0.507612 0.132533 0)
(0.510102 0.147969 0)
(0.511766 0.157673 0)
(0.513052 0.162471 0)
(0.513891 0.162258 0)
(0.513285 0.15625 0)
(0.507665 0.14185 0)
(0.492618 0.115458 0)
(0.463761 0.0757349 0)
(0.420648 0.0250197 0)
(0.367973 -0.0279998 0)
(0.321562 -0.0669945 0)
(0.285218 -0.0869988 0)
(0.253646 -0.0932439 0)
(0.222817 -0.089651 0)
(0.207813 -0.0778272 0)
(0.19836 -0.0673028 0)
(0.187559 -0.0543983 0)
(0.17519 -0.0367693 0)
(0.159898 -0.0264288 0)
(0.164195 -0.0589518 0)
(0.199581 -0.121463 0)
(0.241913 -0.181704 0)
(0.278795 -0.222662 0)
(0.283754 -0.286718 0)
(0.314007 -0.233822 0)
(0.339766 -0.173285 0)
(0.363772 -0.110354 0)
(0.389398 -0.0491421 0)
(0.418759 0.00553166 0)
(0.446878 0.0527167 0)
(0.465019 0.0905304 0)
(0.47205 0.11877 0)
(0.47223 0.1384 0)
(0.469631 0.151071 0)
(0.466891 0.157743 0)
(0.463778 0.158273 0)
(0.458514 0.152007 0)
(0.448119 0.136171 0)
(0.4281 0.109047 0)
(0.396582 0.0707166 0)
(0.354072 0.0254256 0)
(0.30502 -0.0181429 0)
(0.262317 -0.0473759 0)
(0.229926 -0.0588483 0)
(0.201112 -0.0593114 0)
(0.170232 -0.0520422 0)
(0.149317 -0.0406986 0)
(0.139203 -0.030894 0)
(0.130541 -0.022399 0)
(0.121791 -0.0072434 0)
(0.107128 0.00882237 0)
(0.1042 -0.00932713 0)
(0.142394 -0.079755 0)
(0.192378 -0.157218 0)
(0.235349 -0.215256 0)
(0.268333 -0.252353 0)
(0.330235 -0.391578 0)
(0.356006 -0.333555 0)
(0.369218 -0.260905 0)
(0.372183 -0.176427 0)
(0.371515 -0.0891242 0)
(0.375118 -0.00999211 0)
(0.385958 0.0534829 0)
(0.392865 0.0952053 0)
(0.392925 0.120248 0)
(0.389382 0.134204 0)
(0.385861 0.142155 0)
(0.38273 0.144713 0)
(0.377557 0.140568 0)
(0.366508 0.127922 0)
(0.346519 0.105026 0)
(0.31657 0.0731951 0)
(0.278187 0.0370792 0)
(0.236445 0.00329442 0)
(0.199213 -0.0181751 0)
(0.169113 -0.0241755 0)
(0.142195 -0.0208193 0)
(0.115988 -0.0115524 0)
(0.0879446 0.000676836 0)
(0.0772825 0.00920693 0)
(0.0688152 0.0142483 0)
(0.0647937 0.0230146 0)
(0.0533444 0.0384864 0)
(0.0427336 0.0388044 0)
(0.075414 -0.0256186 0)
(0.134988 -0.11904 0)
(0.184924 -0.194747 0)
(0.222935 -0.247021 0)
(0.250648 -0.278855 0)
(0.349386 -0.495916 0)
(0.373522 -0.451438 0)
(0.381284 -0.387498 0)
(0.369322 -0.303442 0)
(0.339251 -0.206522 0)
(0.29931 -0.10359 0)
(0.261304 -0.0142356 0)
(0.239732 0.0518241 0)
(0.23511 0.0929972 0)
(0.236452 0.113753 0)
(0.243144 0.123362 0)
(0.248546 0.124692 0)
(0.247652 0.1187 0)
(0.23624 0.104855 0)
(0.2147 0.0838797 0)
(0.185324 0.058796 0)
(0.152295 0.0351695 0)
(0.12246 0.0202258 0)
(0.0953015 0.0183675 0)
(0.0704408 0.0243124 0)
(0.0473254 0.0337801 0)
(0.0225515 0.0463376 0)
(0.0102741 0.051515 0)
(0.00531981 0.0511719 0)
(0.00044733 0.0537088 0)
(-0.00595728 0.0647806 0)
(-0.0143108 0.0760488 0)
(0.00214777 0.038944 0)
(0.0689996 -0.0686305 0)
(0.126459 -0.161961 0)
(0.170297 -0.228396 0)
(0.202785 -0.274184 0)
(0.22583 -0.299979 0)
(0.329841 -0.576577 0)
(0.347086 -0.553906 0)
(0.347979 -0.518042 0)
(0.32644 -0.469596 0)
(0.281701 -0.403973 0)
(0.214289 -0.319147 0)
(0.127455 -0.221672 0)
(0.0411531 -0.128577 0)
(-0.0103757 -0.0550786 0)
(-0.0100707 0.0035 0)
(0.0185387 0.0469656 0)
(0.0468085 0.0734087 0)
(0.0625502 0.0845719 0)
(0.0648397 0.0867821 0)
(0.0552133 0.0806426 0)
(0.0384778 0.0714971 0)
(0.0179498 0.0633543 0)
(-0.000232109 0.0634246 0)
(-0.0175249 0.0706769 0)
(-0.038961 0.0800367 0)
(-0.0565248 0.0906228 0)
(-0.0704926 0.0937037 0)
(-0.0664309 0.085278 0)
(-0.0692517 0.0842152 0)
(-0.0676617 0.0877238 0)
(-0.0730921 0.099581 0)
(-0.0642234 0.0910756 0)
(-0.0134255 0.00624404 0)
(0.0628278 -0.118629 0)
(0.111043 -0.19848 0)
(0.149585 -0.255773 0)
(0.177787 -0.294294 0)
(0.198073 -0.314971 0)
(0.270421 -0.632231 0)
(0.268301 -0.630577 0)
(0.248458 -0.630614 0)
(0.211863 -0.625109 0)
(0.166607 -0.602718 0)
(0.110105 -0.556773 0)
(0.0266596 -0.480155 0)
(-0.0847313 -0.370226 0)
(-0.17565 -0.25261 0)
(-0.213261 -0.152284 0)
(-0.208703 -0.076311 0)
(-0.185646 -0.0175065 0)
(-0.15857 0.0261584 0)
(-0.140339 0.0548696 0)
(-0.130694 0.0705558 0)
(-0.125318 0.0800678 0)
(-0.126918 0.0923075 0)
(-0.134061 0.105661 0)
(-0.143885 0.11631 0)
(-0.152245 0.124755 0)
(-0.155321 0.126983 0)
(-0.150966 0.115442 0)
(-0.141969 0.111068 0)
(-0.137947 0.112207 0)
(-0.135724 0.118739 0)
(-0.127507 0.115405 0)
(-0.0950054 0.0777257 0)
(-0.0167218 -0.0480459 0)
(0.0482548 -0.161083 0)
(0.091481 -0.228015 0)
(0.127301 -0.276682 0)
(0.155087 -0.309077 0)
(0.175025 -0.323671 0)
(0.167402 -0.679087 0)
(0.135175 -0.703012 0)
(0.0964414 -0.723177 0)
(0.0626451 -0.73105 0)
(0.0288986 -0.719743 0)
(-0.014676 -0.691129 0)
(-0.0794863 -0.638463 0)
(-0.167394 -0.550161 0)
(-0.255859 -0.428617 0)
(-0.316074 -0.299223 0)
(-0.337809 -0.184065 0)
(-0.330694 -0.0912783 0)
(-0.310962 -0.0203514 0)
(-0.288736 0.0316806 0)
(-0.271394 0.0691793 0)
(-0.261441 0.0963699 0)
(-0.258317 0.11701 0)
(-0.257208 0.13251 0)
(-0.255928 0.144013 0)
(-0.249909 0.146751 0)
(-0.23988 0.137697 0)
(-0.225254 0.131691 0)
(-0.213999 0.132413 0)
(-0.204822 0.135011 0)
(-0.195178 0.135655 0)
(-0.163872 0.108624 0)
(-0.109589 0.0416796 0)
(-0.0217823 -0.102623 0)
(0.0291749 -0.194922 0)
(0.0719161 -0.253229 0)
(0.109111 -0.294671 0)
(0.140096 -0.321272 0)
(0.162022 -0.329866 0)
(0.0192655 -0.734076 0)
(-0.0255853 -0.763772 0)
(-0.0546108 -0.776996 0)
(-0.0790674 -0.778757 0)
(-0.10564 -0.769938 0)
(-0.143348 -0.746945 0)
(-0.196042 -0.704188 0)
(-0.262404 -0.633391 0)
(-0.330358 -0.531821 0)
(-0.385393 -0.408073 0)
(-0.417666 -0.281434 0)
(-0.426403 -0.168623 0)
(-0.41794 -0.0767911 0)
(-0.402375 -0.00407109 0)
(-0.389373 0.0525431 0)
(-0.38163 0.0945962 0)
(-0.374068 0.125004 0)
(-0.362957 0.144291 0)
(-0.348757 0.152093 0)
(-0.332161 0.147724 0)
(-0.313363 0.14323 0)
(-0.294988 0.145528 0)
(-0.281169 0.14908 0)
(-0.264337 0.150313 0)
(-0.235281 0.131148 0)
(-0.182879 0.0807993 0)
(-0.11236 -0.0122844 0)
(-0.035106 -0.14741 0)
(0.0107095 -0.225929 0)
(0.0568033 -0.277875 0)
(0.0989313 -0.313628 0)
(0.134427 -0.333113 0)
(0.161834 -0.334554 0)
(-0.13658 -0.775 0)
(-0.164791 -0.7901 0)
(-0.18901 -0.799851 0)
(-0.21287 -0.800557 0)
(-0.239265 -0.792009 0)
(-0.272122 -0.768767 0)
(-0.314893 -0.726573 0)
(-0.366227 -0.661033 0)
(-0.41732 -0.570852 0)
(-0.459911 -0.461377 0)
(-0.489237 -0.342329 0)
(-0.505215 -0.224057 0)
(-0.509544 -0.118357 0)
(-0.505908 -0.0314907 0)
(-0.497196 0.0350207 0)
(-0.484729 0.0847883 0)
(-0.467471 0.119258 0)
(-0.44623 0.137015 0)
(-0.42369 0.142162 0)
(-0.400226 0.144613 0)
(-0.3772 0.149837 0)
(-0.357335 0.15529 0)
(-0.335868 0.158734 0)
(-0.305675 0.147329 0)
(-0.257638 0.1083 0)
(-0.191277 0.0382209 0)
(-0.115874 -0.0680023 0)
(-0.0511367 -0.185304 0)
(-0.00298524 -0.255905 0)
(0.0490654 -0.304469 0)
(0.0972796 -0.335563 0)
(0.138839 -0.348434 0)
(0.172421 -0.343555 0)
(-0.265251 -0.786046 0)
(-0.292919 -0.800895 0)
(-0.316966 -0.80938 0)
(-0.339315 -0.808761 0)
(-0.363905 -0.795641 0)
(-0.393185 -0.767398 0)
(-0.428277 -0.721792 0)
(-0.467232 -0.65642 0)
(-0.506763 -0.571122 0)
(-0.542487 -0.471212 0)
(-0.568109 -0.362868 0)
(-0.584171 -0.251897 0)
(-0.592455 -0.148647 0)
(-0.592405 -0.0603151 0)
(-0.582099 0.0115729 0)
(-0.562601 0.064904 0)
(-0.538477 0.0982311 0)
(-0.512044 0.117305 0)
(-0.484745 0.13111 0)
(-0.458125 0.143581 0)
(-0.432895 0.153465 0)
(-0.406148 0.1602 0)
(-0.374294 0.154939 0)
(-0.329369 0.127125 0)
(-0.267875 0.0726307 0)
(-0.196017 -0.0114387 0)
(-0.12507 -0.116727 0)
(-0.0647319 -0.218558 0)
(-0.0101513 -0.287816 0)
(0.0477848 -0.336448 0)
(0.0994471 -0.363734 0)
(0.144587 -0.371445 0)
(0.180861 -0.361656 0)
(-0.384717 -0.787169 0)
(-0.410204 -0.800663 0)
(-0.432525 -0.804962 0)
(-0.454234 -0.799521 0)
(-0.476741 -0.780799 0)
(-0.502337 -0.747173 0)
(-0.530767 -0.697897 0)
(-0.560436 -0.632789 0)
(-0.590489 -0.552586 0)
(-0.618009 -0.460005 0)
(-0.638681 -0.35922 0)
(-0.653375 -0.257288 0)
(-0.659863 -0.163535 0)
(-0.654418 -0.0816194 0)
(-0.638999 -0.0140058 0)
(-0.616741 0.0362164 0)
(-0.590346 0.0724797 0)
(-0.561469 0.100834 0)
(-0.532795 0.123715 0)
(-0.504957 0.140942 0)
(-0.4751 0.153175 0)
(-0.441382 0.15435 0)
(-0.397545 0.136335 0)
(-0.339781 0.0959493 0)
(-0.271876 0.0299949 0)
(-0.200309 -0.0604394 0)
(-0.133971 -0.158558 0)
(-0.073006 -0.251125 0)
(-0.0121257 -0.325236 0)
(0.0480468 -0.37264 0)
(0.0997667 -0.394095 0)
(0.143581 -0.394404 0)
(0.176307 -0.377248 0)
(-0.489766 -0.777148 0)
(-0.512987 -0.786253 0)
(-0.535375 -0.786892 0)
(-0.556975 -0.776984 0)
(-0.577452 -0.753255 0)
(-0.598846 -0.715207 0)
(-0.620512 -0.663613 0)
(-0.641018 -0.599677 0)
(-0.659657 -0.525216 0)
(-0.675419 -0.441664 0)
(-0.687016 -0.352186 0)
(-0.694773 -0.263427 0)
(-0.696045 -0.178918 0)
(-0.687799 -0.103121 0)
(-0.67203 -0.0401171 0)
(-0.650134 0.0117523 0)
(-0.624228 0.0547785 0)
(-0.597005 0.0898728 0)
(-0.568955 0.116558 0)
(-0.53854 0.136003 0)
(-0.5041 0.145067 0)
(-0.461002 0.136961 0)
(-0.406311 0.10947 0)
(-0.34241 0.0589406 0)
(-0.272843 -0.0148518 0)
(-0.203125 -0.105852 0)
(-0.137771 -0.197699 0)
(-0.0750277 -0.287061 0)
(-0.0116934 -0.363683 0)
(0.0473625 -0.406151 0)
(0.0955488 -0.418473 0)
(0.133168 -0.408681 0)
(0.156673 -0.382524 0)
(-0.579736 -0.754239 0)
(-0.602538 -0.760486 0)
(-0.627637 -0.759393 0)
(-0.649243 -0.746496 0)
(-0.66677 -0.719327 0)
(-0.683116 -0.678262 0)
(-0.697154 -0.625835 0)
(-0.708034 -0.563917 0)
(-0.715392 -0.494331 0)
(-0.71832 -0.419695 0)
(-0.717968 -0.342318 0)
(-0.715214 -0.265347 0)
(-0.709095 -0.190412 0)
(-0.699553 -0.120616 0)
(-0.685689 -0.0582923 0)
(-0.667961 -0.0035074 0)
(-0.646211 0.0424185 0)
(-0.62081 0.0793624 0)
(-0.592026 0.107239 0)
(-0.558219 0.124714 0)
(-0.516823 0.127063 0)
(-0.465965 0.111871 0)
(-0.406176 0.0756648 0)
(-0.339793 0.0178815 0)
(-0.269856 -0.0604703 0)
(-0.200523 -0.149042 0)
(-0.134602 -0.236136 0)
(-0.0709981 -0.322309 0)
(-0.00969391 -0.396981 0)
(0.0442669 -0.431056 0)
(0.0858516 -0.431851 0)
(0.113107 -0.410934 0)
(0.124213 -0.377599 0)
(-0.654827 -0.71877 0)
(-0.680571 -0.728573 0)
(-0.709843 -0.724181 0)
(-0.731335 -0.710265 0)
(-0.745905 -0.681602 0)
(-0.757329 -0.639874 0)
(-0.764543 -0.588004 0)
(-0.76618 -0.528921 0)
(-0.763566 -0.46488 0)
(-0.757102 -0.397571 0)
(-0.747405 -0.328818 0)
(-0.736478 -0.260245 0)
(-0.725115 -0.193402 0)
(-0.712994 -0.129859 0)
(-0.698851 -0.0709652 0)
(-0.6813 -0.0186694 0)
(-0.659427 0.026528 0)
(-0.632958 0.0625941 0)
(-0.601097 0.0886999 0)
(-0.562191 0.102079 0)
(-0.515208 0.0994532 0)
(-0.459992 0.0781895 0)
(-0.397511 0.036511 0)
(-0.329474 -0.0260349 0)
(-0.258677 -0.10505 0)
(-0.189232 -0.189156 0)
(-0.124474 -0.270857 0)
(-0.0637138 -0.351225 0)
(-0.00743825 -0.420339 0)
(0.038578 -0.443594 0)
(0.069961 -0.431476 0)
(0.0845072 -0.399715 0)
(0.0875876 -0.363405 0)
(-0.717679 -0.679434 0)
(-0.747449 -0.685012 0)
(-0.778183 -0.683127 0)
(-0.803714 -0.668145 0)
(-0.816473 -0.640246 0)
(-0.824431 -0.600839 0)
(-0.826297 -0.551518 0)
(-0.822031 -0.495679 0)
(-0.812163 -0.437422 0)
(-0.797701 -0.376904 0)
(-0.781152 -0.315671 0)
(-0.763857 -0.254923 0)
(-0.746074 -0.195712 0)
(-0.727919 -0.139026 0)
(-0.708467 -0.0859682 0)
(-0.686448 -0.0377548 0)
(-0.66077 0.00439278 0)
(-0.630464 0.0376181 0)
(-0.59416 0.0610695 0)
(-0.550686 0.0710838 0)
(-0.499806 0.0647221 0)
(-0.441819 0.0399022 0)
(-0.377474 -0.00498796 0)
(-0.308426 -0.0693161 0)
(-0.237892 -0.145888 0)
(-0.170844 -0.222992 0)
(-0.110076 -0.29739 0)
(-0.0543309 -0.369728 0)
(-0.00608006 -0.431265 0)
(0.0287869 -0.442188 0)
(0.0481581 -0.416894 0)
(0.0524119 -0.379655 0)
(0.0548627 -0.345271 0)
(-0.75988 -0.63181 0)
(-0.793343 -0.640208 0)
(-0.835638 -0.638956 0)
(-0.860432 -0.62277 0)
(-0.875695 -0.596707 0)
(-0.883411 -0.559596 0)
(-0.881917 -0.513726 0)
(-0.87364 -0.462959 0)
(-0.859059 -0.409896 0)
(-0.838058 -0.355551 0)
(-0.814299 -0.301691 0)
(-0.789341 -0.248688 0)
(-0.763501 -0.197284 0)
(-0.737106 -0.148264 0)
(-0.709544 -0.102349 0)
(-0.679843 -0.0605483 0)
(-0.648101 -0.0238317 0)
(-0.613114 0.00715498 0)
(-0.572184 0.0281259 0)
(-0.525128 0.0355971 0)
(-0.471397 0.027045 0)
(-0.411207 0.000143548 0)
(-0.345446 -0.0461427 0)
(-0.276761 -0.10871 0)
(-0.208507 -0.178979 0)
(-0.147508 -0.24708 0)
(-0.0938795 -0.3126 0)
(-0.0463574 -0.376076 0)
(-0.00820232 -0.427586 0)
(0.0139947 -0.425313 0)
(0.0196853 -0.390048 0)
(0.0210884 -0.355004 0)
(0.0288646 -0.33163 0)
(-0.794071 -0.580225 0)
(-0.828602 -0.59076 0)
(-0.865081 -0.589211 0)
(-0.896525 -0.575658 0)
(-0.913232 -0.55077 0)
(-0.922124 -0.516948 0)
(-0.923408 -0.475554 0)
(-0.915879 -0.430088 0)
(-0.898374 -0.381191 0)
(-0.873075 -0.332688 0)
(-0.843381 -0.285891 0)
(-0.810649 -0.240993 0)
(-0.775942 -0.198481 0)
(-0.739781 -0.158116 0)
(-0.702551 -0.120008 0)
(-0.664212 -0.0845477 0)
(-0.624193 -0.0528128 0)
(-0.581886 -0.0259435 0)
(-0.536135 -0.00803947 0)
(-0.485405 -0.00233779 0)
(-0.428977 -0.012012 0)
(-0.36739 -0.039234 0)
(-0.302715 -0.0836709 0)
(-0.237062 -0.140741 0)
(-0.174895 -0.201283 0)
(-0.123156 -0.258905 0)
(-0.0793941 -0.314862 0)
(-0.0411602 -0.369361 0)
(-0.0156736 -0.407358 0)
(-0.00880587 -0.392853 0)
(-0.0113927 -0.356927 0)
(-0.00845842 -0.330814 0)
(0.00621123 -0.327126 0)
(-0.808819 -0.528507 0)
(-0.842556 -0.535144 0)
(-0.884764 -0.535687 0)
(-0.912699 -0.523885 0)
(-0.92956 -0.501963 0)
(-0.939398 -0.473055 0)
(-0.94101 -0.438099 0)
(-0.933522 -0.398489 0)
(-0.916627 -0.356176 0)
(-0.891407 -0.314599 0)
(-0.858587 -0.274633 0)
(-0.820257 -0.236849 0)
(-0.777808 -0.201365 0)
(-0.732403 -0.167961 0)
(-0.685555 -0.13654 0)
(-0.637759 -0.106872 0)
(-0.589063 -0.0798851 0)
(-0.539149 -0.0578241 0)
(-0.487238 -0.043226 0)
(-0.432369 -0.0393116 0)
(-0.374261 -0.0491868 0)
(-0.313788 -0.0746677 0)
(-0.252547 -0.114416 0)
(-0.193058 -0.162329 0)
(-0.141797 -0.210283 0)
(-0.101819 -0.25684 0)
(-0.069545 -0.303856 0)
(-0.0413136 -0.348485 0)
(-0.0317866 -0.371854 0)
(-0.0410394 -0.350142 0)
(-0.043365 -0.322483 0)
(-0.0350453 -0.314187 0)
(-0.0182407 -0.324453 0)
(-0.815758 -0.473869 0)
(-0.846596 -0.482606 0)
(-0.883676 -0.482341 0)
(-0.913601 -0.471259 0)
(-0.93002 -0.453582 0)
(-0.938237 -0.42867 0)
(-0.93825 -0.399744 0)
(-0.929408 -0.367249 0)
(-0.911418 -0.333641 0)
(-0.884528 -0.299742 0)
(-0.849543 -0.266963 0)
(-0.807668 -0.235973 0)
(-0.76032 -0.206695 0)
(-0.708921 -0.179242 0)
(-0.654782 -0.153163 0)
(-0.599164 -0.128422 0)
(-0.542889 -0.105969 0)
(-0.48615 -0.0875419 0)
(-0.428798 -0.0753454 0)
(-0.370799 -0.0720358 0)
(-0.312541 -0.0803328 0)
(-0.255117 -0.101541 0)
(-0.199964 -0.133295 0)
(-0.150398 -0.169429 0)
(-0.114372 -0.204166 0)
(-0.0876265 -0.24034 0)
(-0.0666981 -0.279319 0)
(-0.0515285 -0.313103 0)
(-0.0612984 -0.323513 0)
(-0.0761382 -0.305054 0)
(-0.0739299 -0.290914 0)
(-0.0632711 -0.299313 0)
(-0.0544691 -0.316593 0)
(-0.811037 -0.421689 0)
(-0.838659 -0.428757 0)
(-0.874138 -0.429242 0)
(-0.902862 -0.42202 0)
(-0.918142 -0.40754 0)
(-0.924314 -0.387041 0)
(-0.922324 -0.363078 0)
(-0.911493 -0.336934 0)
(-0.891767 -0.310097 0)
(-0.863006 -0.283619 0)
(-0.825733 -0.25816 0)
(-0.780863 -0.234169 0)
(-0.729675 -0.211553 0)
(-0.67334 -0.19004 0)
(-0.613384 -0.169158 0)
(-0.55135 -0.148913 0)
(-0.488615 -0.129848 0)
(-0.426165 -0.113292 0)
(-0.364634 -0.101353 0)
(-0.305041 -0.0966541 0)
(-0.248865 -0.101666 0)
(-0.197292 -0.116654 0)
(-0.152138 -0.137837 0)
(-0.117942 -0.159261 0)
(-0.0977598 -0.182253 0)
(-0.0836795 -0.209918 0)
(-0.074023 -0.24041 0)
(-0.0764452 -0.264438 0)
(-0.102365 -0.267339 0)
(-0.112172 -0.259256 0)
(-0.105251 -0.262612 0)
(-0.100674 -0.280939 0)
(-0.104718 -0.29471 0)
(-0.800775 -0.370688 0)
(-0.822917 -0.3751 0)
(-0.853569 -0.378425 0)
(-0.884193 -0.374012 0)
(-0.898392 -0.363558 0)
(-0.902509 -0.348008 0)
(-0.898647 -0.329346 0)
(-0.885966 -0.309224 0)
(-0.864569 -0.28885 0)
(-0.833985 -0.269151 0)
(-0.794635 -0.250611 0)
(-0.747072 -0.233459 0)
(-0.692369 -0.216902 0)
(-0.631563 -0.200903 0)
(-0.566238 -0.184901 0)
(-0.498441 -0.168243 0)
(-0.430269 -0.151383 0)
(-0.363427 -0.135695 0)
(-0.299769 -0.123164 0)
(-0.241557 -0.116308 0)
(-0.190867 -0.116211 0)
(-0.149378 -0.12122 0)
(-0.119199 -0.126697 0)
(-0.102385 -0.13256 0)
(-0.0955798 -0.145615 0)
(-0.0923202 -0.166737 0)
(-0.0967417 -0.189268 0)
(-0.117882 -0.205339 0)
(-0.146066 -0.211896 0)
(-0.149913 -0.215153 0)
(-0.144437 -0.23299 0)
(-0.147255 -0.254234 0)
(-0.163665 -0.253458 0)
(-0.783311 -0.3225 0)
(-0.802021 -0.322933 0)
(-0.829655 -0.328148 0)
(-0.857965 -0.327145 0)
(-0.872868 -0.320964 0)
(-0.875968 -0.310344 0)
(-0.870641 -0.297103 0)
(-0.856653 -0.283122 0)
(-0.833855 -0.269321 0)
(-0.801689 -0.256354 0)
(-0.760159 -0.24467 0)
(-0.709245 -0.234332 0)
(-0.650168 -0.22524 0)
(-0.584818 -0.215929 0)
(-0.514538 -0.205199 0)
(-0.442262 -0.192471 0)
(-0.371365 -0.178435 0)
(-0.304446 -0.163603 0)
(-0.243955 -0.148364 0)
(-0.192569 -0.133879 0)
(-0.152731 -0.120001 0)
(-0.12543 -0.106516 0)
(-0.11002 -0.0962233 0)
(-0.105433 -0.0935365 0)
(-0.109158 -0.0989786 0)
(-0.117163 -0.112255 0)
(-0.136719 -0.127954 0)
(-0.172689 -0.141884 0)
(-0.192163 -0.158011 0)
(-0.189416 -0.17514 0)
(-0.190956 -0.200197 0)
(-0.200954 -0.215969 0)
(-0.223883 -0.2045 0)
(-0.764657 -0.27728 0)
(-0.777922 -0.273723 0)
(-0.799487 -0.278879 0)
(-0.828239 -0.280478 0)
(-0.843293 -0.278499 0)
(-0.845579 -0.272825 0)
(-0.839487 -0.265236 0)
(-0.82447 -0.257595 0)
(-0.800015 -0.250291 0)
(-0.765365 -0.244936 0)
(-0.720596 -0.241878 0)
(-0.666444 -0.240399 0)
(-0.603561 -0.239646 0)
(-0.533476 -0.237874 0)
(-0.459843 -0.234111 0)
(-0.387381 -0.226826 0)
(-0.319626 -0.213187 0)
(-0.258133 -0.192931 0)
(-0.205964 -0.167648 0)
(-0.166473 -0.138394 0)
(-0.140155 -0.107966 0)
(-0.126028 -0.0809855 0)
(-0.12245 -0.0602802 0)
(-0.128082 -0.0486034 0)
(-0.140342 -0.0460158 0)
(-0.160426 -0.0491902 0)
(-0.195723 -0.0611505 0)
(-0.23175 -0.0830484 0)
(-0.240563 -0.107269 0)
(-0.237823 -0.136692 0)
(-0.2434 -0.16379 0)
(-0.256607 -0.170661 0)
(-0.27613 -0.156293 0)
(-0.742911 -0.236821 0)
(-0.753427 -0.225256 0)
(-0.768821 -0.23046 0)
(-0.793792 -0.233726 0)
(-0.810647 -0.235244 0)
(-0.81293 -0.234788 0)
(-0.805912 -0.233189 0)
(-0.788998 -0.232095 0)
(-0.762286 -0.232576 0)
(-0.725749 -0.23696 0)
(-0.678196 -0.243653 0)
(-0.619987 -0.251237 0)
(-0.553802 -0.257901 0)
(-0.484195 -0.262634 0)
(-0.414819 -0.259933 0)
(-0.347137 -0.248091 0)
(-0.283923 -0.22779 0)
(-0.229743 -0.199369 0)
(-0.187914 -0.164519 0)
(-0.160187 -0.125056 0)
(-0.146457 -0.0851272 0)
(-0.144188 -0.0502016 0)
(-0.153478 -0.01903 0)
(-0.17568 0.00627532 0)
(-0.203079 0.0233226 0)
(-0.237736 0.02359 0)
(-0.274586 0.00272094 0)
(-0.292396 -0.0300499 0)
(-0.291904 -0.0647093 0)
(-0.292289 -0.100962 0)
(-0.298101 -0.124969 0)
(-0.310134 -0.126465 0)
(-0.319497 -0.110167 0)
(-0.720292 -0.20137 0)
(-0.727326 -0.180924 0)