/*--------------------------------*- C++ -*----------------------------------*\
  =========                 |
  \\      /  F ield         | OpenFOAM: The Open Source CFD Toolbox
   \\    /   O peration     | Website:  https://openfoam.org
    \\  /    A nd           | Version:  11
     \\/     M anipulation  |
\*---------------------------------------------------------------------------*/
FoamFile
{
    format      ascii;
    class       volScalarField;
    location    "5";
    object      mag(U);
}
// * * * * * * * * * * * * * * * * * * * * * * * * * * * * * * * * * * * * * //

dimensions      [0 1 -1 0 0 0 0];

internalField   nonuniform List<scalar> 
9600
(
0.097818174
0.097269202
0.097243765
0.097986027
0.099526266
0.10074044
0.10125955
0.10157534
0.10178589
0.10191918
0.10200987
0.10207756
0.10213076
0.102174
0.10220996
0.10224005
0.10226513
0.10228553
0.10230127
0.10231226
0.10231816
0.10231907
0.10231529
0.10230681
0.10229374
0.10227642
0.10225529
0.10223009
0.10220109
0.10216639
0.10212864
0.10207107
0.1020322
0.10190069
0.10190799
0.10159226
0.10163864
0.10048781
0.10161787
0.094671263
0.10225746
0.10311541
0.10317909
0.10225875
0.10161153
0.1012658
0.10088097
0.1006741
0.10057706
0.10052349
0.10049867
0.10049233
0.10049524
0.10050272
0.1005125
0.10052324
0.10053388
0.10054363
0.1005517
0.10055732
0.10056008
0.10055965
0.10055572
0.10054878
0.10053947
0.10052789
0.10051456
0.1005
0.1004853
0.10047125
0.10046153
0.10044656
0.10045251
0.10042486
0.10047001
0.10040956
0.10066607
0.10050397
0.10087737
0.10264656
0.099964594
0.10026535
0.10007659
0.09975814
0.099956416
0.10061501
0.10097723
0.10128056
0.10154195
0.1017322
0.1018741
0.10198513
0.1020727
0.10214232
0.10219851
0.10224431
0.10228142
0.10231125
0.10233389
0.10235025
0.10236019
0.10236297
0.10236005
0.10235104
0.10233556
0.10231435
0.10228753
0.10225442
0.10221496
0.10216514
0.10211163
0.10202584
0.10197062
0.10179037
0.10174223
0.10139796
0.10127815
0.10056939
0.10067234
0.099733515
0.10257695
0.10280616
0.10270306
0.10214557
0.10200806
0.10188307
0.10151673
0.10128453
0.10112717
0.10099606
0.10089859
0.10083033
0.10078326
0.10075209
0.10073219
0.10072002
0.10071306
0.10070966
0.10070817
0.10070727
0.10070702
0.10070604
0.10070327
0.10070028
0.10069777
0.10069539
0.10069391
0.10069437
0.10069858
0.10070621
0.10072545
0.10074247
0.10080069
0.10082265
0.10094945
0.1009981
0.10126947
0.10131426
0.10167999
0.10266539
0.10038214
0.10053319
0.1005957
0.10025901
0.10034356
0.10071945
0.10087912
0.10109956
0.10132163
0.1015011
0.10164951
0.10177364
0.10187607
0.10196055
0.10203083
0.10208894
0.10213647
0.10217438
0.10220385
0.10222567
0.10223864
0.10224418
0.10224332
0.10223474
0.10221833
0.10219457
0.10216297
0.10212227
0.10207234
0.10200836
0.10193769
0.10183188
0.1017481
0.10155953
0.10145996
0.10112889
0.10099668
0.10047033
0.10054102
0.099924733
0.10201098
0.1022315
0.10218492
0.10187745
0.10187291
0.10187877
0.10171772
0.10155583
0.1014428
0.10132492
0.10122085
0.10113628
0.10106798
0.10101418
0.10097295
0.10094251
0.10092098
0.10090643
0.10089668
0.10089051
0.10088803
0.10088682
0.10088616
0.1008877
0.10089135
0.10089675
0.10090471
0.10091622
0.10093344
0.10095514
0.10099239
0.10102596
0.10110293
0.10114385
0.10127164
0.10132324
0.10153874
0.10150076
0.10183822
0.10222929
0.10060388
0.10070711
0.10082257
0.10061763
0.10066126
0.10091134
0.10096714
0.10107647
0.10125915
0.10139936
0.10152338
0.10163721
0.10173687
0.10182157
0.10189342
0.10195468
0.10200684
0.10204917
0.10208373
0.10210923
0.10212585
0.10213633
0.10213745
0.10212917
0.1021122
0.10208615
0.10205078
0.10200438
0.10194762
0.10187654
0.10179726
0.10168828
0.10159203
0.10142541
0.1013136
0.10103554
0.10095707
0.10057222
0.10067308
0.10030564
0.10157825
0.10183299
0.10187978
0.10171803
0.10171948
0.10178931
0.10173255
0.10165232
0.10159635
0.10151781
0.10144048
0.10137042
0.10130672
0.10125105
0.10120515
0.10116767
0.10113898
0.10111872
0.10110456
0.10109592
0.10109242
0.10109192
0.10109389
0.10109839
0.1011057
0.10111468
0.10112671
0.10114316
0.10116504
0.10119046
0.10122907
0.101264
0.10132679
0.10136754
0.10143992
0.10145608
0.10159625
0.10148651
0.10173439
0.10183989
0.10082282
0.10091769
0.1010483
0.1009052
0.10091017
0.10109286
0.10112141
0.10116816
0.10129485
0.10140383
0.10149524
0.10158473
0.10166701
0.10173997
0.10180413
0.10186094
0.10191106
0.10195407
0.10198981
0.10201782
0.10203788
0.10204991
0.10205211
0.1020452
0.1020285
0.10200213
0.10196629
0.10191897
0.10186139
0.1017903
0.10171368
0.1016131
0.10152728
0.10138797
0.10129396
0.10108082
0.10104137
0.10075895
0.10086823
0.10065306
0.1013633
0.10156764
0.10170613
0.10160356
0.10160688
0.10171074
0.10170135
0.10167729
0.10166925
0.10163124
0.10158674
0.10154144
0.10149564
0.10145178
0.10141176
0.10137786
0.10135132
0.10133223
0.10131907
0.10131147
0.10130926
0.10130978
0.10131403
0.10132026
0.10132735
0.10133592
0.10134688
0.10136016
0.10137759
0.10139688
0.10142528
0.1014484
0.10148755
0.10150217
0.10153332
0.10150596
0.10157971
0.10143924
0.10160458
0.10159476
0.10101702
0.10109554
0.10124135
0.10113023
0.10111576
0.10126272
0.10128458
0.10130256
0.10137744
0.10147608
0.10153922
0.10160168
0.10166361
0.1017207
0.10177245
0.10181973
0.10186367
0.10190338
0.10193779
0.10196563
0.10198755
0.10200176
0.1020049
0.10199828
0.10198263
0.1019574
0.10192237
0.1018774
0.10182412
0.10176013
0.10169297
0.10160903
0.10153757
0.10143161
0.10135906
0.10119584
0.10117649
0.10096708
0.1010675
0.10094433
0.10129237
0.10143045
0.10162454
0.10154635
0.10154653
0.10166623
0.10168889
0.10168828
0.10171371
0.10170991
0.1016929
0.10167207
0.10164739
0.10162052
0.10159422
0.10157076
0.1015538
0.10154215
0.10153328
0.10152957
0.10152987
0.10153251
0.10153829
0.10154399
0.10154856
0.10155303
0.10155818
0.10156391
0.10157136
0.10157805
0.10158938
0.10159254
0.10160813
0.10159553
0.10160145
0.10153323
0.10156007
0.1014142
0.10151984
0.1014777
0.10118089
0.10124792
0.10140914
0.10132325
0.1012956
0.10141236
0.10144332
0.10145241
0.10150047
0.1015846
0.10162962
0.10167158
0.10171581
0.1017578
0.10179699
0.10183519
0.10187284
0.10190765
0.10193865
0.10196487
0.10198743
0.10200278
0.10200583
0.10199933
0.1019848
0.10196142
0.10192941
0.10188905
0.1018422
0.10178717
0.10173101
0.10166297
0.101606
0.10152536
0.10146804
0.10133653
0.10132321
0.1011601
0.10124204
0.10116707
0.10130249
0.1013952
0.10161191
0.10155007
0.10154365
0.10165527
0.10171435
0.10171774
0.10176161
0.10178283
0.10178657
0.10178567
0.10178033
0.10177105
0.1017609
0.10175336
0.10174888
0.10174664
0.10174575
0.1017482
0.10175238
0.10175696
0.10176323
0.1017671
0.10176717
0.10176514
0.10176176
0.10175682
0.10175138
0.1017428
0.10173668
0.10172029
0.10171476
0.10168187
0.10166621
0.10157007
0.10156514
0.10142516
0.10149191
0.10144081
0.10130992
0.10136891
0.10155087
0.10149193
0.10146152
0.10155678
0.10161095
0.10161485
0.10164488
0.10171497
0.10175163
0.10178137
0.10181341
0.10184492
0.10187706
0.10191056
0.10194326
0.10197331
0.10200055
0.10202467
0.10204688
0.10206224
0.10206443
0.1020573
0.10204352
0.10202181
0.10199261
0.10195644
0.10191521
0.10186747
0.10181994
0.10176233
0.10171601
0.10164841
0.10160029
0.10148532
0.10146623
0.10132953
0.10138433
0.1013459
0.1013559
0.10141764
0.10163404
0.10159942
0.10158835
0.10168354
0.10177812
0.1017783
0.10182689
0.10186796
0.10188673
0.10190044
0.10191125
0.1019203
0.10192987
0.10193934
0.10194769
0.10195523
0.10196219
0.10197073
0.10197934
0.10198593
0.10199182
0.10199287
0.1019874
0.10197779
0.1019649
0.10194855
0.10192992
0.10190644
0.10188407
0.10185002
0.10182692
0.10177475
0.10174435
0.10163622
0.10160619
0.10146985
0.10150578
0.10145291
0.10139709
0.10145209
0.10165772
0.10163174
0.10160773
0.10168703
0.10177676
0.10177856
0.10180528
0.10186353
0.10189526
0.10192191
0.10195253
0.10198547
0.10201818
0.10204936
0.10207822
0.10210463
0.10212904
0.10215151
0.10217295
0.10218751
0.10218855
0.10218023
0.10216586
0.10214433
0.10211613
0.10208173
0.10204314
0.10199847
0.10195508
0.10190059
0.10185957
0.10179292
0.10174991
0.10163988
0.10160522
0.10147666
0.10150293
0.10146635
0.10145697
0.1015098
0.10171875
0.10170879
0.10169149
0.10176262
0.10188225
0.10188402
0.10191663
0.10197034
0.10200593
0.10203708
0.10206821
0.10209675
0.10212194
0.10214392
0.10216283
0.10217948
0.10219389
0.10220806
0.10222092
0.10222949
0.10223378
0.10223066
0.10221934
0.10220207
0.1021798
0.10215238
0.10212156
0.10208438
0.10204834
0.10199864
0.10196274
0.10189408
0.10185411
0.10173944
0.10169199
0.1015538
0.10156545
0.10152012
0.10152265
0.10157037
0.10177898
0.10178438
0.10176794
0.10182542
0.10194605
0.10194953
0.10197068
0.10202603
0.10207049
0.10211032
0.10214956
0.10218672
0.1022209
0.10225237
0.10228086
0.1023064
0.1023295
0.10235131
0.10237234
0.10238575
0.10238567
0.10237573
0.10235908
0.10233536
0.1023052
0.10226886
0.10222859
0.10218159
0.10213677
0.10207801
0.10203629
0.10196115
0.10191781
0.10180481
0.10175227
0.1016144
0.1016168
0.10157371
0.10158674
0.10162887
0.10183366
0.10185978
0.10184973
0.10189774
0.10202437
0.10203473
0.10206333
0.10212536
0.10217931
0.10222777
0.10227318
0.10231452
0.10235176
0.10238459
0.10241273
0.10243703
0.10245798
0.10247759
0.10249495
0.10250518
0.10250645
0.10249814
0.10248084
0.10245597
0.10242465
0.10238689
0.10234501
0.10229539
0.10224796
0.10218426
0.10213919
0.1020562
0.10200988
0.10189146
0.10183116
0.10168541
0.10167913
0.10163478
0.10165106
0.101691
0.10189095
0.10194187
0.10193819
0.10198148
0.10211096
0.10212792
0.10216627
0.10223518
0.10229647
0.1023502
0.10240054
0.10244688
0.10248818
0.10252472
0.10255672
0.10258504
0.10260966
0.10263236
0.10265354
0.1026659
0.10266472
0.10265226
0.1026312
0.10260237
0.10256662
0.10252385
0.10247683
0.10242135
0.10236896
0.10229824
0.1022492
0.10215797
0.10210812
0.1019856
0.10191856
0.10176304
0.1017477
0.10170086
0.10172168
0.10176231
0.1019581
0.10203378
0.10204003
0.10207994
0.10221092
0.10223954
0.10228584
0.10236309
0.10243188
0.10249267
0.10254931
0.10260142
0.10264843
0.10269013
0.1027261
0.10275711
0.10278383
0.10280788
0.10282892
0.10284049
0.10283846
0.10282419
0.1028002
0.10276757
0.10272739
0.10267945
0.10262705
0.10256496
0.10250691
0.10242785
0.10237408
0.10227329
0.10221917
0.1020912
0.1020175
0.10184959
0.10182404
0.10177328
0.10180777
0.1018512
0.10204197
0.10214288
0.10215938
0.10219714
0.10232856
0.10237274
0.10242564
0.1025122
0.10259001
0.10265812
0.1027219
0.10278055
0.10283297
0.10287917
0.10291899
0.10295346
0.10298267
0.10300838
0.10303093
0.10304269
0.10303889
0.10302164
0.10299388
0.10295672
0.10291139
0.10285742
0.10279884
0.10272913
0.10266494
0.10257603
0.10251692
0.10240446
0.10234488
0.10220973
0.10212915
0.10194671
0.10190815
0.10185314
0.10190175
0.10194983
0.1021339
0.10226242
0.10229038
0.10233192
0.10246523
0.10253012
0.102589
0.10268433
0.10277181
0.10284834
0.10292018
0.10298661
0.10304604
0.10309835
0.10314304
0.10318106
0.10321292
0.10324056
0.10326403
0.10327535
0.10326982
0.10324952
0.10321759
0.10317523
0.10312387
0.10306278
0.10299686
0.10291765
0.10284583
0.10274508
0.10267973
0.10255482
0.10248855
0.10234475
0.10225676
0.10205803
0.10200208
0.10194208
0.10200673
0.10206173
0.10224085
0.10239924
0.10243765
0.10248688
0.10262404
0.10271194
0.10277824
0.10288418
0.10298516
0.10307291
0.10315355
0.10322811
0.10329521
0.10335386
0.10340382
0.10344615
0.103481
0.10351039
0.10353475
0.10354578
0.10353791
0.1035138
0.1034769
0.10342837
0.10337027
0.10330095
0.10322672
0.10313718
0.10305669
0.10294224
0.10286778
0.10272738
0.1026522
0.10249907
0.10240256
0.10218435
0.10210732
0.10204185
0.10212612
0.10219007
0.10236945
0.10256135
0.10261286
0.10267059
0.10281451
0.10292713
0.10300372
0.10311955
0.10323351
0.10333341
0.10342622
0.10351139
0.10358691
0.10365299
0.10370924
0.10375649
0.10379502
0.10382654
0.10385175
0.10386182
0.10385141
0.10382284
0.10377989
0.10372443
0.1036578
0.10357804
0.10349416
0.1033909
0.10330096
0.10317017
0.10308683
0.1029317
0.10284172
0.10267831
0.10257554
0.10233848
0.10222899
0.10215462
0.10227147
0.10234413
0.10252505
0.10275202
0.10282129
0.10288753
0.1030388
0.10317475
0.1032678
0.10339972
0.10353138
0.10364571
0.10375034
0.10384662
0.10393253
0.10400751
0.10407097
0.10412381
0.1041662
0.10419997
0.1042257
0.10423477
0.10422099
0.10418699
0.10413744
0.10407313
0.10399603
0.10390545
0.1038093
0.10369096
0.10358986
0.10343865
0.10334504
0.10316685
0.10307065
0.10288564
0.10277098
0.10251661
0.10237234
0.10228213
0.10242923
0.10251956
0.10271179
0.10297002
0.10306164
0.10313864
0.10330522
0.10347017
0.10358558
0.10373301
0.1038821
0.10401352
0.10413371
0.10424427
0.10434282
0.10442856
0.10450092
0.10456073
0.10460814
0.10464454
0.10467021
0.10467709
0.10465928
0.10461905
0.10456114
0.10448648
0.10439848
0.1042931
0.10418293
0.10404693
0.10392923
0.10375763
0.10364714
0.10344459
0.10333513
0.10312032
0.10299237
0.10272441
0.10254193
0.10242885
0.10258706
0.10271027
0.10292791
0.10322168
0.10334319
0.10343202
0.1036199
0.10381479
0.10395729
0.10412753
0.10430097
0.10445511
0.10459512
0.10472305
0.10483636
0.10493407
0.1050156
0.10508213
0.10513455
0.10517485
0.10520436
0.10521216
0.10518985
0.10514151
0.10507276
0.10498474
0.10488197
0.10475919
0.10463164
0.10447355
0.10433664
0.10413902
0.1040084
0.10377688
0.10364807
0.10340112
0.10325605
0.10297221
0.10274285
0.1026042
0.10279213
0.10295633
0.10319181
0.1035287
0.10369159
0.10379428
0.10400641
0.10423957
0.10441591
0.10461241
0.10481435
0.10499558
0.10515956
0.1053093
0.10544246
0.10555774
0.10565386
0.10573103
0.10578878
0.10582769
0.10584817
0.1058449
0.10581455
0.10575823
0.10567977
0.10557929
0.10546162
0.10531951
0.10517245
0.10498809
0.10482941
0.10459897
0.10444588
0.10417664
0.10402617
0.10373852
0.10357026
0.10326743
0.10298438
0.10281146
0.10298677
0.10320323
0.10347022
0.10387315
0.10410039
0.10422454
0.10446959
0.10475408
0.1049696
0.10519311
0.10542647
0.10563818
0.10582748
0.1059988
0.10615047
0.10628149
0.10639123
0.10648134
0.10655291
0.10660766
0.10664751
0.10665899
0.10662982
0.10656357
0.10646853
0.10634595
0.10620326
0.10603056
0.10585405
0.10563154
0.10544301
0.10516748
0.10498604
0.10466648
0.1044885
0.104151
0.10394727
0.10362549
0.10327696
0.10306136
0.10337844
0.10360766
0.10387664
0.10435005
0.1046682
0.10483056
0.10511038
0.10546562
0.10573558
0.10599431
0.10627149
0.10652849
0.10675572
0.10695847
0.10713579
0.10728539
0.10740563
0.10749659
0.1075579
0.10759028
0.10759352
0.10756598
0.10750995
0.10742586
0.10731647
0.10717906
0.10702222
0.10683013
0.10663639
0.10638339
0.10617291
0.10585124
0.10564342
0.10526428
0.10505416
0.10465904
0.10440029
0.10405925
0.10363114
0.10335187
0.10365331
0.103942
0.10419738
0.10472945
0.10519646
0.10541318
0.1057447
0.1062051
0.10653524
0.10681484
0.10713772
0.10745126
0.10772427
0.10796528
0.10817879
0.10836357
0.10851889
0.10864665
0.10874915
0.1088273
0.10888308
0.10890297
0.10886954
0.10878333
0.10865683
0.10848974
0.10829621
0.10805365
0.10781115
0.10748882
0.10722584
0.10681802
0.10655735
0.10608393
0.10581225
0.10534063
0.10498783
0.10460711
0.10409197
0.10371032
0.10455972
0.10487218
0.1051635
0.10575758
0.10639886
0.10669547
0.10708621
0.10764535
0.10805718
0.10836847
0.10871066
0.10905741
0.1093595
0.10961496
0.10982952
0.11000212
0.11013162
0.11021902
0.11026465
0.11027043
0.11023625
0.11016421
0.11006545
0.10994027
0.10978955
0.10960135
0.10939543
0.10913315
0.10888579
0.10853146
0.10826667
0.10780505
0.10753472
0.10699214
0.10667342
0.10614457
0.10568824
0.10524324
0.10465157
0.10411111
0.10408987
0.10450864
0.10512872
0.10590853
0.10677808
0.10728498
0.10786288
0.10858478
0.10916252
0.10963611
0.11011433
0.11057158
0.11096594
0.11130149
0.11159296
0.11184378
0.11205305
0.11222216
0.11235667
0.11245858
0.1125287
0.11255513
0.11251959
0.11241449
0.11225826
0.11204138
0.11180025
0.11147009
0.11116699
0.11070202
0.1103692
0.1097592
0.1093989
0.10870037
0.10823841
0.10758155
0.10694115
0.1063432
0.10560885
0.10484412
0.10712203
0.10776879
0.10813978
0.10876412
0.10977409
0.11047079
0.11106954
0.11177874
0.11238093
0.11284502
0.11326161
0.113629
0.11391963
0.11413637
0.11429214
0.1143912
0.11444089
0.11444262
0.11440533
0.11432083
0.11420258
0.11405592
0.11390102
0.11373347
0.11355913
0.11333565
0.11311869
0.11279653
0.11255116
0.11208784
0.11182308
0.11120278
0.11087131
0.11016651
0.10965131
0.1089693
0.10822814
0.10748962
0.10663127
0.10551773
0.10393682
0.1049882
0.10716767
0.10876635
0.11006337
0.11124495
0.11247146
0.11374652
0.11484966
0.11572045
0.11643713
0.11703192
0.11750171
0.11785991
0.11812849
0.11832614
0.11846651
0.11856568
0.11863054
0.11867645
0.1186958
0.1186728
0.11860672
0.11847089
0.11830801
0.11804959
0.11783276
0.11741677
0.11717635
0.11652945
0.11627632
0.11538888
0.11504821
0.11402184
0.11347374
0.1123947
0.11165107
0.1105322
0.10968535
0.1082902
0.11693624
0.11720775
0.11781884
0.1188972
0.12035517
0.12155435
0.12203441
0.12215493
0.12223891
0.1222668
0.12217841
0.12198505
0.1217114
0.12137195
0.12100349
0.12063292
0.12028058
0.11995625
0.11966177
0.11941047
0.11920264
0.11903875
0.11891841
0.11882418
0.11878165
0.1187068
0.11871482
0.11857437
0.11860836
0.11835775
0.11832722
0.11797935
0.11765945
0.11728991
0.11654354
0.11596317
0.11490018
0.11397346
0.11243954
0.11039228
0.10686142
0.11383221
0.11983282
0.12279537
0.12499442
0.12714734
0.12893315
0.13043295
0.131663
0.13257467
0.13316757
0.13347918
0.1334519
0.1330706
0.13245023
0.1317192
0.13097366
0.13026997
0.12965199
0.12911126
0.12867382
0.1282871
0.12802988
0.1277442
0.12766059
0.12734882
0.12748172
0.12696901
0.12732872
0.1265223
0.12691647
0.12574919
0.12607018
0.12431498
0.1243976
0.12176971
0.12158258
0.11768115
0.11726899
0.10729256
0.17890591
0.16102049
0.14516703
0.14389428
0.13971415
0.13363468
0.12856086
0.12480878
0.12185921
0.11941892
0.11750065
0.11610362
0.11529101
0.11505494
0.11519706
0.11553474
0.11596252
0.11646588
0.11700507
0.11763078
0.1182272
0.11900835
0.11961502
0.12066156
0.12123941
0.12263642
0.12329558
0.12503655
0.12582279
0.12810826
0.12907615
0.13209136
0.13329944
0.13732507
0.13886456
0.14423095
0.1459888
0.15314094
0.15439232
0.1653926
0.10027625
0.10098712
0.10126827
0.10116587
0.10114094
0.10107039
0.10103809
0.10101628
0.10098858
0.10094653
0.10089976
0.10086833
0.10082644
0.1007713
0.10072209
0.10065456
0.10056904
0.10046232
0.10034547
0.10018902
0.09999476
0.09977017
0.099520733
0.099260464
0.098998668
0.098755417
0.098553695
0.098410635
0.098346592
0.098361647
0.098458158
0.098665184
0.098852255
0.099217107
0.099324306
0.099806497
0.099606385
0.10050739
0.099771808
0.0995078
0.10212489
0.10152216
0.10130254
0.10116313
0.10112199
0.10107486
0.10103372
0.10101646
0.10099261
0.10096683
0.10092583
0.10089723
0.10085639
0.10078333
0.10071226
0.10062636
0.1005335
0.10043169
0.1003154
0.10015386
0.099950716
0.099718119
0.099461369
0.099189696
0.098916176
0.098662376
0.098450375
0.098312264
0.098251757
0.098270336
0.098382665
0.098585199
0.098795338
0.099124827
0.099304759
0.099733589
0.099615561
0.10051028
0.10005141
0.10091122
0.10064379
0.10111819
0.10113311
0.10113658
0.10112482
0.1010753
0.1010507
0.10104013
0.10102243
0.10100882
0.1009654
0.10092276
0.10088879
0.10085052
0.10078093
0.10068929
0.10058837
0.100484
0.10035757
0.10019229
0.099982693
0.099737099
0.099464221
0.099174552
0.098881828
0.098612065
0.098390524
0.098234884
0.098162109
0.098172515
0.098288677
0.098494787
0.098730266
0.099045355
0.09930038
0.099679767
0.099654717
0.10043485
0.10002742
0.10061989
0.1017075
0.10136165
0.10117567
0.10115844
0.10115164
0.10109666
0.1010821
0.10108689
0.10106468
0.10103572
0.1009985
0.10095804
0.10091697
0.10085352
0.10078015
0.1006984
0.1006036
0.10048486
0.10032552
0.10013609
0.099907107
0.099642721
0.09935369
0.09905051
0.0987512
0.098474142
0.098250323
0.098100708
0.098037105
0.098063409
0.098190656
0.098408002
0.098666622
0.09897355
0.099284172
0.099624053
0.099685211
0.10041889
0.10014676
0.10120437
0.10059581
0.10107056
0.10111904
0.10114586
0.10116486
0.10110192
0.10108341
0.10110643
0.10109193
0.10105487
0.10102142
0.1009721
0.10093068
0.10088684
0.10082865
0.1007535
0.10065009
0.10051286
0.10033732
0.10013678
0.099903013
0.099632418
0.099333858
0.099018043
0.098701212
0.098406246
0.098158705
0.09799334
0.097928201
0.097959782
0.098102013
0.098327351
0.098606366
0.098923843
0.099278221
0.09959051
0.099706479
0.10040619
0.10012083
0.10077668
0.10151259
0.10131337
0.10118859
0.10119293
0.10120042
0.10114085
0.10112085
0.10114366
0.1011215
0.10107053
0.10102034
0.10097581
0.10093214
0.10087947
0.1008143
0.10073266
0.10062055
0.1004716
0.10029133
0.10008063
0.09982881
0.099539754
0.099223428
0.09889005
0.098559527
0.098257008
0.098016797
0.097856096
0.097789857
0.097830892
0.097979214
0.098218497
0.098513879
0.098827926
0.099211566
0.099532778
0.099731057
0.10042207
0.10021132
0.1013112
0.10070418
0.10108028
0.10115638
0.10117839
0.10120358
0.10114899
0.10115852
0.10118617
0.10116244
0.10109875
0.10102254
0.10099362
0.1009611
0.10091704
0.10085321
0.10076227
0.10064118
0.10048902
0.10029398
0.1000601
0.09979515
0.099496444
0.099167745
0.0988214
0.09847549
0.098155304
0.09788961
0.097715226
0.097654863
0.097706159
0.097873297
0.098128601
0.098450412
0.098783952
0.099211676
0.099509586
0.099732295
0.10041225
0.10017062
0.10085171
0.10138091
0.10128453
0.10123812
0.10123204
0.10122891
0.10116205
0.10117626
0.10120179
0.10117108
0.10112011
0.10101474
0.10098997
0.10096218
0.10090836
0.10083394
0.10073702
0.10061036
0.10044447
0.10024319
0.10000368
0.0997266
0.099411755
0.099064077
0.098698568
0.098334852
0.098002534
0.097736766
0.097563176
0.097500775
0.09755916
0.097735457
0.098006169
0.098345109
0.098684066
0.099163077
0.099443056
0.099728216
0.10043408
0.10029381
0.10127479
0.10086806
0.10114143
0.10121317
0.10122135
0.10122982
0.10117545
0.10120575
0.10123654
0.10121288
0.10117406
0.10105648
0.10100023
0.10099269
0.10094084
0.10085793
0.10075106
0.10061346
0.10044164
0.10022591
0.099967427
0.099673012
0.099341442
0.098976943
0.098594321
0.098212719
0.097863367
0.097578625
0.097395484
0.097338179
0.097406603
0.097601212
0.097892893
0.098257877
0.098626495
0.099167296
0.099427457
0.099735149
0.10041065
0.100226
0.10089557
0.10132946
0.10128573
0.10129528
0.10128586
0.10127255
0.10124032
0.10122974
0.10125171
0.10122941
0.10117572
0.10109073
0.10099375
0.1009897
0.10093898
0.10084638
0.10073261
0.10058806
0.10040467
0.10017903
0.099910786
0.099602345
0.099252014
0.098867409
0.098463983
0.098061627
0.09769598
0.097402381
0.097216265
0.097159219
0.097236646
0.097444839
0.09775618
0.098140667
0.098535103
0.099103585
0.099369829
0.099736167
0.10044045
0.10037629
0.10117762
0.10104362
0.10120513
0.10127874
0.1012823
0.10128144
0.10127151
0.10122838
0.10124089
0.10125311
0.1012072
0.10115344
0.10103603
0.10101536
0.10096202
0.10085794
0.10073398
0.10057916
0.1003839
0.10014278
0.0998595
0.099531446
0.099160785
0.098754888
0.098329704
0.097905982
0.097521168
0.097212223
0.097018775
0.096964676
0.097053786
0.097279938
0.097615092
0.098024908
0.098453739
0.099048424
0.099334013
0.09973032
0.10039181
0.10028058
0.10091996
0.10132518
0.1013079
0.10135217
0.10134957
0.10134098
0.10131964
0.10125925
0.1012273
0.10123391
0.10122487
0.10117059
0.10107193
0.10102055
0.10095843
0.10085142
0.10072072
0.10055641
0.10034877
0.10009434
0.099797186
0.099449509
0.099056718
0.098627815
0.098178263
0.097730509
0.097325395
0.097003261
0.096804132
0.096752496
0.096851941
0.097096817
0.097455898
0.097890428
0.09835246
0.098969934
0.099279163
0.099739031
0.10042199
0.10045141
0.10107526
0.10119048
0.10125912
0.1013497
0.10134936
0.10135137
0.10133398
0.10126996
0.1012628
0.10123404
0.1012506
0.1012218
0.10113224
0.10104131
0.10096306
0.1008549
0.10071662
0.10053859
0.10031558
0.10004508
0.099729415
0.099360014
0.098943145
0.098489581
0.098013857
0.097539509
0.097112348
0.096774566
0.096568023
0.096520342
0.096631373
0.096897944
0.097283748
0.097746777
0.098242795
0.098886569
0.09922296
0.099725979
0.10035803
0.10037061
0.10088754
0.10134185
0.10134533
0.10142602
0.1014261
0.10141266
0.10138159
0.10133464
0.10128553
0.1012841
0.10126837
0.10124013
0.10115653
0.10104755
0.10095775
0.10085138
0.10070584
0.10051355
0.1002741
0.099987537
0.099652911
0.099259431
0.098817447
0.098336402
0.097831391
0.097327944
0.096876502
0.09652273
0.096308733
0.096264449
0.096389605
0.096679076
0.097093569
0.097587952
0.098121056
0.098792305
0.099159392
0.099725017
0.10037813
0.10048608
0.10099654
0.101289
0.10130991
0.10141816
0.10142497
0.10141712
0.10141058
0.10136435
0.10132914
0.10131788
0.10129435
0.10123305
0.10116701
0.10106159
0.10096256
0.10084986
0.10069327
0.10048462
0.10022917
0.09992336
0.099567632
0.099147012
0.09867742
0.098166891
0.097629497
0.0970944
0.096616256
0.096244503
0.096022517
0.095982982
0.096123166
0.096438806
0.096884913
0.097414342
0.09798845
0.098688225
0.099081374
0.099700634
0.10032412
0.10043476
0.10084236
0.10138416
0.10139258
0.1014824
0.10149716
0.10147985
0.10147207
0.10142397
0.10137636
0.10133861
0.10129665
0.10124874
0.10118337
0.1010803
0.10097356
0.10084529
0.10067443
0.10044946
0.1001759
0.099851127
0.099471249
0.099020654
0.09852132
0.097978584
0.097404878
0.096834876
0.096327351
0.095935897
0.095705811
0.095671486
0.095829446
0.096173834
0.096654781
0.097222494
0.097839388
0.098575127
0.099004944
0.099680585
0.1003187
0.1004757
0.1008672
0.10138153
0.10138872
0.10148719
0.10151853
0.1015057
0.10150476
0.10147057
0.10140438
0.10137454
0.1013297
0.10127244
0.10118459
0.10110185
0.10098389
0.10083795
0.10064688
0.10040716
0.10011609
0.099770716
0.099362958
0.098879806
0.098351043
0.097772478
0.097155069
0.096545998
0.096005258
0.095592278
0.095353854
0.095325708
0.095504378
0.095881006
0.096401159
0.097011033
0.097672706
0.098446911
0.09891635
0.099638879
0.10026961
0.10044384
0.10080092
0.1014441
0.10145275
0.10154477
0.10157939
0.10156141
0.10155951
0.10152104
0.10146299
0.10139908
0.10134842
0.10129244
0.10121211
0.10112084
0.1009843
0.10082492
0.10061793
0.10036003
0.10005002
0.099680566
0.099240868
0.098726606
0.098167931
0.097545005
0.09687741
0.096222152
0.095644487
0.095207791
0.094961077
0.09494089
0.095143107
0.095556419
0.09612126
0.096778086
0.097490566
0.098303802
0.098827089
0.099598208
0.10023462
0.10043231
0.1007693
0.1014925
0.1014951
0.10157638
0.10161501
0.10159817
0.1015971
0.10158176
0.10149513
0.10143781
0.10139069
0.10131676
0.1012316
0.10112262
0.10098272
0.10081458
0.10058776
0.10030705
0.099974358
0.099577985
0.099101459
0.098556709
0.097956377
0.097272944
0.096561277
0.095856762
0.095238124
0.094775732
0.094521133
0.094510601
0.094740881
0.095195578
0.095811431
0.096519842
0.097286537
0.098139354
0.098732457
0.099540537
0.10018114
0.10040362
0.1007203
0.10155425
0.10154741
0.10162283
0.10166551
0.10164899
0.10165127
0.10162837
0.10155275
0.10149121
0.10142145
0.10135212
0.1012549
0.10114534
0.10098447
0.10080141
0.10054854
0.10024682
0.099887558
0.099458475
0.098941077
0.098356525
0.09767872
0.096931898
0.09618281
0.095442726
0.094779021
0.094288464
0.094026127
0.094027571
0.094291013
0.094793236
0.095467703
0.096233889
0.097057299
0.097948975
0.098639559
0.099476215
0.10011919
0.10037487
0.10067246
0.10162053
0.10159948
0.10167117
0.10171662
0.10169862
0.10169371
0.10168569
0.10162005
0.10153534
0.1014767
0.10137765
0.10128282
0.1011501
0.10097789
0.10077529
0.10050156
0.10017726
0.099788204
0.099317161
0.098756275
0.098112306
0.097339688
0.096555214
0.095740286
0.094972099
0.094260896
0.093736382
0.093466685
0.093482652
0.093785833
0.094342929
0.09508525
0.095917195
0.096805433
0.097738123
0.098536534
0.099402682
0.10004141
0.10033436
0.10062592
0.10169329
0.10165966
0.1017283
0.10177976
0.10175417
0.10174576
0.10174861
0.10168249
0.1016126
0.10151786
0.10142104
0.10131519
0.10114925
0.10098077
0.10074102
0.10045115
0.10010131
0.099675476
0.099156148
0.09854321
0.097823116
0.097000614
0.096158176
0.095260441
0.094436861
0.093674259
0.093106611
0.092830391
0.092865586
0.093216038
0.093837188
0.094657544
0.095564624
0.096524905
0.09750749
0.098419285
0.099326552
0.099943228
0.10028436
0.10058477
0.10177181
0.10172884
0.10179196
0.10184979
0.1018167
0.10179932
0.10180188
0.10176321
0.10167826
0.10156996
0.10147296
0.10132203
0.10116121
0.10096787
0.100701
0.10038948
0.10001223
0.09954362
0.098975241
0.098295558
0.097510033
0.096639839
0.095704781
0.094733599
0.093819564
0.093003549
0.092383697
0.092101548
0.092162178
0.092570546
0.093267534
0.094178774
0.09517375
0.096216694
0.097261227
0.098278779
0.099240764
0.099826913
0.10022137
0.1005476
0.10185714
0.10180765
0.10186287
0.10192939
0.10188856
0.10185213
0.10186555
0.10184307
0.10175348
0.1016409
0.10150549
0.10135248
0.10117736
0.10095409
0.10065964
0.10031563
0.099901423
0.099384159
0.098758603
0.098009934
0.097178306
0.096217069
0.095184587
0.094128258
0.09308797
0.092224545
0.091552173
0.091260125
0.091353733
0.091835683
0.092623681
0.093641766
0.094738964
0.095877131
0.097006822
0.098110374
0.099147919
0.099693676
0.10015121
0.10051705
0.10195224
0.10189988
0.10194374
0.10202367
0.10197239
0.10191738
0.10193011
0.10191921
0.10183997
0.10170638
0.10156008
0.10138761
0.10118648
0.10094634
0.10062095
0.10025097
0.099776785
0.099189259
0.098487584
0.097684571
0.096780636
0.095732839
0.094576371
0.093413752
0.09223372
0.09130004
0.090590364
0.090283321
0.090421354
0.090993151
0.091893681
0.093038459
0.094256527
0.09550403
0.096742303
0.097912533
0.099035099
0.099552772
0.10007703
0.10049927
0.10205831
0.10200903
0.10203854
0.10213122
0.10207708
0.10199247
0.10199149
0.10199733
0.10192454
0.1017986
0.10161519
0.10142841
0.1011907
0.10092118
0.10055568
0.10015826
0.099631299
0.098973814
0.098204959
0.097338814
0.096320888
0.09519607
0.093864133
0.092550494
0.091269461
0.090184694
0.089449374
0.089138354
0.089336401
0.090020259
0.091062912
0.092361074
0.093722976
0.095101496
0.096460752
0.097695864
0.098878948
0.099404832
0.099996378
0.10049071
0.10217779
0.10213374
0.10214528
0.10225055
0.10220612
0.10208195