/*--------------------------------*- C++ -*----------------------------------*\
  =========                 |
  \\      /  F ield         | OpenFOAM: The Open Source CFD Toolbox
   \\    /   O peration     | Website:  https://openfoam.org
    \\  /    A nd           | Version:  11
     \\/     M anipulation  |
\*---------------------------------------------------------------------------*/
FoamFile
{
    format      ascii;
    class       volVectorField;
    location    "5";
    object      U;
}
// * * * * * * * * * * * * * * * * * * * * * * * * * * * * * * * * * * * * * //

dimensions      [0 1 -1 0 0 0 0];

internalField   nonuniform List<vector> 
9600
(
(0.09780181 0.001789187 0)
(0.097268721 0.00030588844 0)
(0.097196466 -0.0030326193 0)
(0.097894044 -0.0042447159 0)
(0.099439489 -0.0041552008 -4.6379814e-24)
(0.10068221 -0.0034247623 1.1331325e-24)
(0.10122211 -0.0027532668 3.5057817e-24)
(0.10154979 -0.0022779805 1.3534885e-24)
(0.10176748 -0.0019357594 -2.5072688e-24)
(0.10190545 -0.0016726809 1.8705084e-25)
(0.10199942 -0.0014599941 9.6672917e-25)
(0.10206953 -0.0012801888 0)
(0.10212459 -0.0011227939 0)
(0.10216929 -0.00098131284 0)
(0.10220641 -0.00085140427 -4.6420911e-26)
(0.10223744 -0.00072999955 4.6420912e-26)
(0.10226328 -0.00061475276 -5.6583181e-26)
(0.10228429 -0.00050406205 5.6583178e-26)
(0.1023005 -0.00039653717 0)
(0.10231185 -0.00029126866 0)
(0.10231799 -0.00018748344 -9.2369804e-26)
(0.10231904 -8.4330625e-05 -1.1515992e-25)
(0.10231529 1.8556751e-05 -1.850122e-26)
(0.10230674 0.0001213878 2.2603094e-25)
(0.10229349 0.00022504187 5.003428e-25)
(0.10227589 0.00033028732 -5.003428e-25)
(0.10225435 0.00043783381 0)
(0.10222862 0.00054852227 0)
(0.10219893 0.00066379573 0)
(0.10216337 0.00078498128 9.6625573e-25)
(0.10212453 0.00091671228 -9.6625573e-25)
(0.10206559 0.0010572706 0)
(0.1020248 0.0012285071 0)
(0.10189118 0.0013920103 0)
(0.10189444 0.0016619499 0)
(0.10157491 0.0018777417 -1.2155983e-24)
(0.10160815 0.0024894716 1.2147229e-24)
(0.10045332 0.0026325145 0)
(0.10152061 0.0044449601 -8.0709553e-24)
(0.094475923 0.0060784871 8.0814578e-24)
(0.10225744 6.7974066e-05 -2.8587608e-24)
(0.10311541 -6.9257381e-06 0)
(0.10317868 0.0002894099 0)
(0.10225189 0.0011846898 0)
(0.10159432 0.0018702534 0)
(0.1012431 0.0021442457 0)
(0.10085831 0.0021381991 0)
(0.10065474 0.0019744812 0)
(0.10056132 0.0017790398 6.5552759e-25)
(0.10051089 0.001591468 -6.5552791e-25)
(0.10048868 0.0014167325 -4.3883717e-25)
(0.10048448 0.0012560346 4.3883725e-25)
(0.10048913 0.0011085888 0)
(0.10049802 0.00097215942 0)
(0.10050895 0.00084454619 0)
(0.10052063 0.0007239778 1.0651886e-25)
(0.10053204 0.00060902681 -1.0651887e-25)
(0.10054239 0.00049848237 -1.1285891e-25)
(0.10055094 0.00039116758 4.3390087e-26)
(0.10055691 0.00028666225 6.9468839e-26)
(0.10055991 0.00018394895 0)
(0.10055962 8.1669738e-05 0)
(0.10055572 -2.0417756e-05 2.0529242e-25)
(0.10054871 -0.00012245013 2.1729306e-25)
(0.10053922 -0.00022555732 -4.2258543e-25)
(0.10052735 -0.00033050795 -4.2226102e-25)
(0.10051361 -0.0004379885 4.2226099e-25)
(0.1004985 -0.00054895231 0)
(0.1004831 -0.00066436713 0)
(0.10046818 -0.00078546421 6.6715802e-25)
(0.10045737 -0.00091391276 -6.6715796e-25)
(0.10044105 -0.001051815 -4.7901259e-25)
(0.10044539 -0.0011963002 1.1373561e-24)
(0.10041546 -0.0013740221 -6.5834377e-25)
(0.10045875 -0.0015042991 -3.0301402e-25)
(0.10039321 -0.001811798 3.0294966e-25)
(0.10064642 -0.0019889873 -1.9380957e-24)
(0.10047795 -0.0022867517 1.9365194e-24)
(0.10086412 -0.0016349644 -5.7614451e-24)
(0.10261935 -0.0023631657 3.0168838e-24)
(0.09996454 0.00010430525 1.3449894e-23)
(0.10026329 -0.00064203768 -3.7439198e-24)
(0.1000617 -0.0017261824 -9.7303252e-24)
(0.099733281 -0.0022269365 7.6504368e-24)
(0.099926988 -0.0024253041 -7.6474003e-24)
(0.10058484 -0.0024637015 0)
(0.10095067 -0.0023156838 0)
(0.10125818 -0.0021288922 0)
(0.10152365 -0.0019276228 0)
(0.10171755 -0.001726389 0)
(0.10186251 -0.0015364043 0)
(0.10197604 -0.0013614434 0)
(0.10206564 -0.0012009185 0)
(0.1021369 -0.0010524362 0)
(0.10219443 -0.00091359195 -1.2752087e-25)
(0.10224132 -0.00078247407 1.275209e-25)
(0.10227931 -0.0006574682 0)
(0.10230984 -0.00053713554 0)
(0.10233303 -0.00042027377 0)
(0.10234979 -0.00030569291 0)
(0.10236001 -0.00019263824 -1.0311855e-25)
(0.10236294 -7.9773131e-05 -1.3615366e-25)
(0.10236004 3.3217384e-05 2.3927218e-25)
(0.10235093 0.00014697219 0)
(0.10233522 0.00026255484 6.2753905e-25)
(0.10231364 0.00038071167 -6.2753894e-25)
(0.1022863 0.00050220984 0)
(0.10225249 0.00062792083 0)
(0.10221214 0.0007590902 1.454512e-24)
(0.10216121 0.00089640296 -1.4545117e-24)
(0.10210631 0.0010418354 0)
(0.10201887 0.00119255 0)
(0.10196146 0.0013668781 0)
(0.10177903 0.001519693 0)
(0.10172657 0.0017851438 2.887818e-24)
(0.10138014 0.0019007528 -2.8875401e-24)
(0.10125109 0.0023412175 0)
(0.1005409 0.0023934738 0)
(0.10063327 0.0028044121 -4.4409854e-24)
(0.099694723 0.0027814145 1.6047202e-24)
(0.10257657 -0.00027851095 0)
(0.10280616 1.9064948e-05 0)
(0.10270295 0.00014957378 0)
(0.10214385 0.00059305404 0)
(0.10200297 0.0010190038 0)
(0.10187574 0.0012221032 0)
(0.1015075 0.0013686209 -1.8467785e-25)
(0.10127478 0.0014051684 1.8468296e-25)
(0.1011179 0.00136897 1.849301e-26)
(0.10098774 0.0012961487 2.1415152e-26)
(0.10089141 0.0012033191 -3.9908199e-26)
(0.10082433 0.0011002634 0)
(0.10077837 0.0009929048 0)
(0.10074821 0.00088447025 0)
(0.10072919 0.00077707569 0)
(0.10071778 0.00067176724 0)
(0.10071145 0.00056865465 -1.4025086e-25)
(0.10070857 0.00046767982 1.4025088e-25)
(0.1007075 0.0003685258 8.9358657e-26)
(0.10070691 0.00027079733 -8.9358674e-26)
(0.10070687 0.00017425178 0)
(0.10070601 7.8645982e-05 0)
(0.10070327 -1.6128813e-05 -2.1816124e-25)
(0.10070022 -0.00011088879 2.1816119e-25)
(0.10069756 -0.00020596238 4.2801086e-25)
(0.10069494 -0.00030164574 -4.2801076e-25)
(0.10069312 -0.00039852185 0)
(0.10069314 -0.00049738223 0)
(0.1006968 -0.00059897363 0)
(0.10070375 -0.00070443233 -5.1040536e-25)
(0.10072217 -0.00081308251 5.104052e-25)
(0.10073818 -0.0009298665 0)
(0.10079533 -0.0010398298 -7.7868109e-26)
(0.10081573 -0.0011810775 7.7868117e-26)
(0.10094163 -0.0012561482 -9.9831338e-25)
(0.10098762 -0.0014551667 9.9766539e-25)
(0.10125885 -0.001466524 0)
(0.10130255 -0.0015404972 0)
(0.10167171 -0.0012979214 0)
(0.10265999 -0.0010529603 0)
(0.10038173 -0.00028824488 0)
(0.10053114 -0.00064146488 0)
(0.10059071 -0.0010016798 0)
(0.1002509 -0.0012751955 8.8488675e-24)
(0.10033339 -0.0014284767 -1.6543542e-23)
(0.10070591 -0.0016514481 1.1549557e-24)
(0.10086477 -0.001701243 7.0059849e-25)
(0.10108541 -0.0016914785 5.8435277e-24)
(0.10130849 -0.0016319517 -2.213885e-24)
(0.10148948 -0.0015357549 4.0927788e-24)
(0.1016396 -0.0014196951 -3.4467712e-24)
(0.10176541 -0.0012940079 1.5678784e-24)
(0.10186941 -0.001164521 0)
(0.1019553 -0.0010349987 0)
(0.10202679 -0.00090756218 2.2070742e-25)
(0.10208594 -0.00078290039 -1.2908187e-25)
(0.10213433 -0.00066071862 -9.1625648e-26)
(0.10217295 -0.00054056127 7.5448503e-26)
(0.10220298 -0.00042190284 -9.5702288e-27)
(0.10222522 -0.00030427806 -6.5878315e-26)
(0.10223847 -0.00018678189 0)
(0.10224416 -6.8971918e-05 2.7975188e-25)
(0.10224331 4.9361008e-05 4.1950115e-26)
(0.1022346 0.0001689813 3.9708984e-25)
(0.10221792 0.00029018702 -7.1879141e-25)
(0.10219374 0.00041309264 0)
(0.10216155 0.00053792311 0)
(0.10212011 0.00066472483 1.8718109e-24)
(0.10206926 0.00079357004 -1.8718102e-24)
(0.10200417 0.00092405277 0)
(0.10193221 0.0010573989 0)
(0.10182495 0.0011875834 0)
(0.1017394 0.0013303222 -4.0084504e-24)
(0.10154937 0.0014363852 4.0084506e-24)
(0.10144728 0.0016041765 0)
(0.10111522 0.00166288 3.8569031e-24)
(0.10098055 0.0018048402 -3.8553046e-24)
(0.10045582 0.0017071911 0)
(0.10052563 0.001759203 0)
(0.099914069 0.0014598265 0)
(0.10201029 -0.0003760129 1.972318e-24)
(0.1022315 -1.9786721e-05 -4.1562382e-24)
(0.10218486 0.0001122642 2.1816921e-24)
(0.10187678 0.00036909886 0)
(0.10187162 0.00051362867 0)
(0.10187677 0.00063864571 0)
(0.10171493 0.00075343598 0)
(0.1015522 0.00085917202 0)
(0.1014387 0.00091204385 0)
(0.10132073 0.00092112642 6.2560736e-25)
(0.10121688 0.00089671293 -6.2560774e-25)
(0.10113269 0.00085189812 0)
(0.10106486 0.000793762 6.784825e-25)
(0.10101157 0.00072589047 -6.784828e-25)
(0.10097085 0.00065106743 3.8499592e-25)
(0.10094089 0.00057196145 -3.8499607e-25)
(0.10091979 0.00049052983 -2.1938729e-25)
(0.1009056 0.00040808878 2.1938735e-25)
(0.10089616 0.00032526352 1.2196318e-25)
(0.10089022 0.00024237922 -1.2196322e-25)
(0.1008879 0.00016018243 0)
(0.10088679 7.8935553e-05 0)
(0.10088616 -2.316334e-06 0)
(0.10088767 -8.3240559e-05 0)
(0.10089122 -0.0001635104 4.9617562e-25)
(0.10089646 -0.00024351319 -9.6232746e-25)
(0.10090419 -0.00032377696 4.6615185e-25)
(0.10091541 -0.00040466688 0)
(0.10093227 -0.0004856774 0)
(0.10095355 -0.00056738378 -4.8419308e-25)
(0.10099032 -0.0006465725 8.0949676e-25)
(0.10102333 -0.00072874033 -3.2530377e-25)
(0.10109982 -0.00079262934 1.2219842e-25)
(0.10114008 -0.00087336082 -1.2218504e-25)
(0.10126758 -0.00090716056 0)
(0.10131879 -0.00094961946 0)
(0.1015349 -0.00088360841 0)
(0.10149686 -0.00088939818 -2.5048196e-24)
(0.1018359 -0.00068685843 4.6501763e-24)
(0.10222842 -0.00042113981 -2.1425063e-24)
(0.10060338 -0.00031594963 1.1231024e-23)
(0.10070603 -0.00046596071 -1.1242941e-23)
(0.10082025 -0.000684624 0)
(0.10061423 -0.00082752371 -8.9130476e-24)
(0.10065664 -0.00096389469 8.9181429e-24)
(0.10090441 -0.0011822806 0)
(0.10095934 -0.001255077 0)
(0.10106822 -0.0012910394 0)
(0.10125079 -0.0013012057 0)
(0.10139139 -0.0012712783 0)
(0.10151612 -0.0012144485 0)
(0.10163083 -0.0011386072 0)
(0.10173146 -0.0010487423 -1.1830457e-24)
(0.10181715 -0.0009492052 1.1830463e-24)
(0.10188992 -0.00084395775 0)
(0.10195203 -0.00073573467 0)
(0.10200492 -0.00062559386 -6.9151712e-27)
(0.10204788 -0.00051372715 6.9151737e-27)
(0.10208294 -0.00040061012 0)
(0.10210883 -0.00028635077 0)
(0.10212571 -0.00017077838 -1.3806571e-25)
(0.10213632 -5.4566111e-05 1.380657e-25)
(0.10213743 6.2959591e-05 -3.9002913e-25)
(0.10212901 0.00018174219 3.9002894e-25)
(0.10211176 0.00030103071 0)
(0.10208529 0.00042016975 0)
(0.10204936 0.00053898372 0)
(0.10200227 0.00065661851 0)
(0.1019447 0.00077211637 0)
(0.10187271 0.00088395428 2.4275773e-24)
(0.10179241 0.00099317763 1.8167808e-26)
(0.10168243 0.0010910057 -2.4457431e-24)
(0.10158504 0.0011920729 0)
(0.10141771 0.0012500498 0)
(0.10130479 0.0013363338 4.4558583e-24)
(0.10102697 0.0013157603 -4.4558594e-24)
(0.10094827 0.001332653 0)
(0.1005652 0.0011881964 0)
(0.10066608 0.001186841 0)
(0.1003014 0.00092253281 2.6181571e-24)
(0.10157766 -0.00034767378 -2.7150721e-25)
(0.10183293 -0.00010860001 2.7165543e-25)
(0.10187978 7.616652e-07 0)
(0.10171795 0.0001264057 -1.1035835e-24)
(0.10171933 0.00017309681 2.8034975e-24)
(0.10178899 0.00025512477 -1.6981876e-24)
(0.10173204 0.00032271289 0)
(0.10165139 0.00043555274 0)
(0.1015951 0.00050360315 -1.0773942e-24)
(0.10151633 0.00054887003 -1.1778164e-26)
(0.10143888 0.00056924927 1.0891737e-24)
(0.10136883 0.00056838479 0)
(0.10130522 0.0005515023 1.1443268e-24)
(0.1012497 0.00052191415 -5.5828088e-25)
(0.101204 0.00048258497 -5.8604688e-25)
(0.10116673 0.00043509153 -6.177639e-25)
(0.10113826 0.00038133216 6.177642e-25)
(0.1011182 0.00032345001 0)
(0.10110422 0.00026329769 0)
(0.10109572 0.00020201124 0)
(0.10109232 0.0001397031 1.7257022e-25)
(0.10109189 7.7974171e-05 -1.725702e-25)
(0.10109389 1.7183435e-05 -3.4177955e-25)
(0.10109838 -4.3254138e-05 3.4177936e-25)
(0.10110565 -0.0001035997 6.3543228e-25)
(0.10111455 -0.0001630844 -6.3543193e-25)
(0.10112647 -0.0002216012 1.0787785e-24)
(0.10114277 -0.00027933034 -1.2955129e-25)
(0.10116449 -0.0003349755 -9.492262e-25)
(0.10118972 -0.00038770111 6.3611797e-25)
(0.10122814 -0.00043315188 -6.3611764e-25)
(0.10126288 -0.00047672361 0)
(0.10132557 -0.00049762239 0)
(0.10136616 -0.00052954858 -3.8135291e-25)
(0.10143863 -0.000511943 3.8135261e-25)
(0.10145494 -0.00048158479 -1.3442812e-24)
(0.10159548 -0.000395149 -4.379156e-25)
(0.10148576 -0.00038895368 1.7798296e-24)
(0.1017342 -0.00019851126 0)
(0.10183988 -3.7680564e-05 0)
(0.1008222 -0.0003541156 0)
(0.10091691 -0.00039764537 0)
(0.10104678 -0.00055359858 0)
(0.10090327 -0.00062356145 8.0559695e-24)
(0.10090752 -0.00073188747 -8.0620693e-24)
(0.10108881 -0.00090510461 -6.6189159e-24)
(0.10111671 -0.00097542051 4.6435306e-25)
(0.1011632 -0.0010017993 6.1560335e-24)
(0.10128961 -0.0010299098 -2.4757168e-24)
(0.10139859 -0.0010305835 2.4763533e-24)
(0.10149026 -0.0010051293 -1.8346536e-24)
(0.10158018 -0.00096093912 3.3516493e-24)
(0.10166302 -0.0009010881 -1.5169956e-24)
(0.10173659 -0.00082884604 0)
(0.10180139 -0.00074705874 0)
(0.10185882 -0.00065775737 -1.082261e-25)
(0.10190951 -0.00056286241 1.0822616e-25)
(0.10195302 -0.00046355426 -1.0883091e-25)
(0.10198917 -0.00036075811 2.0317194e-25)
(0.1020175 -0.00025504242 -9.4341018e-26)
(0.10203777 -0.00014656772 0)
(0.1020499 -3.6930466e-05 4.1200182e-25)
(0.10205208 7.4188133e-05 6.4808716e-26)
(0.10204503 0.00018608731 5.9263646e-25)
(0.10202807 0.00029738299 -1.0694458e-24)
(0.10200132 0.00040702852 0)
(0.101965 0.00051356581 -2.644171e-24)
(0.10191711 0.00061616513 2.6441695e-24)
(0.10185889 0.00071428293 -2.8041955e-24)
(0.10178712 0.0008049954 2.804194e-24)
(0.1017098 0.00088859529 0)
(0.1016086 0.00095660638 0)
(0.10152216 0.0010200981 0)
(0.10138256 0.0010475999 0)
(0.10128816 0.0010838378 0)
(0.10107551 0.0010357754 4.5116812e-24)
(0.10103619 0.0010232257 -4.5088831e-24)
(0.100755 0.00089263401 0)
(0.10086424 0.00089735661 0)
(0.10065053 0.00071314505 0)
(0.10136257 -0.00038455218 0)
(0.10156739 -0.00022401825 0)
(0.10170602 -0.00015064246 0)
(0.10160353 -7.6508454e-05 3.3232431e-25)
(0.10160686 -6.0434644e-05 -3.3238969e-25)
(0.10171074 -2.3014732e-05 0)
(0.10170135 1.2313152e-05 0)
(0.10167724 9.8687532e-05 0)
(0.10166912 0.00016459879 1.3112883e-24)
(0.10163099 0.00022490667 -1.3112891e-24)
(0.10158639 0.00026801673 0)
(0.10154102 0.00029356301 0)
(0.10149518 0.00030549732 0)
(0.10145132 0.00030610009 0)
(0.10141133 0.00029632492 0)
(0.10137748 0.00027789906 0)
(0.101351 0.00025277823 -4.3140174e-25)
(0.10133199 0.00022250632 4.3140198e-25)
(0.10131889 0.00018863171 0)
(0.10131136 0.00015243456 0)
(0.10130919 0.00011482969 0)
(0.10130975 7.7534832e-05 0)
(0.10131402 4.027988e-05 0)
(0.10132026 3.0279283e-06 0)
(0.10132734 -3.349493e-05 8.5554911e-25)
(0.1013359 -6.9194929e-05 -8.5554853e-25)
(0.10134683 -0.00010329869 0)
(0.10136007 -0.00013469644 0)
(0.10137746 -0.0001623716 0)
(0.10139671 -0.00018598019 0)
(0.10142508 -0.00020099745 8.2589948e-25)
(0.10144818 -0.00021259985 -1.9082189e-25)
(0.10148735 -0.00020305756 -6.350539e-25)
(0.10150198 -0.00019667389 0)
(0.1015332 -0.0001575331 -1.5190301e-25)
(0.10150591 -0.00010241468 1.5187397e-25)
(0.10157971 -1.9962707e-05 0)
(0.10143924 -1.3920652e-05 0)
(0.10160447 0.00014861867 4.9613359e-25)
(0.1015945 0.00023060607 -4.7750888e-25)
(0.10101609 -0.00043433905 7.3837998e-24)
(0.1010947 -0.00041276959 -7.3896712e-24)
(0.10124007 -0.00050908967 0)
(0.10112876 -0.00054458963 0)
(0.10111381 -0.00062721301 0)
(0.1012599 -0.0007557109 0)
(0.10128136 -0.00080718243 0)
(0.10129925 -0.00081935884 0)
(0.10137397 -0.00083880587 0)
(0.10147254 -0.00084754336 0)
(0.10153581 -0.00083255205 0)
(0.10159851 -0.00080306196 1.2491987e-24)
(0.10166076 -0.00076066754 -1.2491994e-24)
(0.10171825 -0.00070651766 -3.1226156e-25)
(0.10177042 -0.00064227258 3.1226177e-25)
(0.10181814 -0.00056956664 0)
(0.10186249 -0.00048957018 0)
(0.10190258 -0.00040308509 0)
(0.10193731 -0.00031158805 1.3542892e-25)
(0.1019654 -0.00021628081 -1.3542902e-25)
(0.10198748 -0.00011782466 -2.2058407e-25)
(0.10200176 -1.7316677e-05 2.2058397e-25)
(0.10200487 8.4454507e-05 -5.9046535e-25)
(0.10199811 0.00018622928 5.904649e-25)
(0.10198223 0.00028642276 1.4082345e-24)
(0.10195668 0.00038376045 -1.4082335e-24)
(0.10192125 0.00047688918 0)
(0.10187584 0.00056443197 0)
(0.10182207 0.00064538624 0)
(0.1017576 0.00071721266 -3.2236542e-24)
(0.10168997 0.00078047094 3.2236522e-24)
(0.10160566 0.00082809498 3.0862029e-24)
(0.10153386 0.00086759686 -8.984874e-24)
(0.10142777 0.00088231419 5.8986712e-24)
(0.10135506 0.00090005715 0)
(0.10119223 0.00085534273 0)
(0.10117295 0.00084617868 0)
(0.10096431 0.00074791731 0)
(0.10106457 0.00076933465 0)
(0.10094217 0.0006597817 0)
(0.10129134 -0.00045701557 0)
(0.10142988 -0.00034151949 0)
(0.10162407 -0.00030846861 -1.1696183e-24)
(0.10154602 -0.00025841143 1.1696187e-24)
(0.10154621 -0.00025614692 0)
(0.10166592 -0.00025231151 0)
(0.10168864 -0.00022553977 0)
(0.10168815 -0.00016093854 1.191008e-24)
(0.10171366 -9.7949508e-05 2.0924453e-25)
(0.1017099 -4.1068295e-05 -1.40053e-24)
(0.1016929 8.1499495e-06 0)
(0.10167206 4.7026096e-05 0)
(0.10164736 7.6828936e-05 0)
(0.10162047 9.833058e-05 0)
(0.10159416 0.00011174287 0)
(0.10157069 0.00011854985 0)
(0.10155373 0.00011917976 0)
(0.10154208 0.00011565496 -5.7666715e-25)
(0.10153322 0.00010883797 5.7666763e-25)
(0.10152952 9.9164795e-05 0)
(0.10152983 8.8030444e-05 0)
(0.10153248 7.6718793e-05 6.1592886e-25)
(0.10153827 6.5202136e-05 -2.4403069e-27)
(0.10154398 5.3381506e-05 5.9316248e-25)
(0.10154855 4.2021564e-05 -1.206649e-24)
(0.10155303 3.1671055e-05 -1.1179087e-24)
(0.10155818 2.3028245e-05 1.1179078e-24)
(0.10156391 1.6900631e-05 0)
(0.10157136 1.4493447e-05 0)
(0.10157805 1.6107685e-05 1.6238651e-24)
(0.10158938 2.5146535e-05 -1.623864e-24)
(0.10159253 3.723009e-05 0)
(0.10160811 6.6396683e-05 0)
(0.10159549 8.6189164e-05 0)
(0.10160136 0.00013883809 1.11006e-24)
(0.10153305 0.0001916377 -1.11002e-24)
(0.10155973 0.00026164153 5.6254098e-25)
(0.10141386 0.00026170051 -5.6205061e-25)
(0.1015191 0.0003880772 6.3244588e-25)
(0.10147677 0.00043393431 2.0806067e-26)
(0.10117951 -0.00052859882 0)
(0.10124683 -0.0004705242 0)
(0.10140778 -0.00052570212 0)
(0.10132184 -0.00053414244 0)
(0.10129384 -0.00059655464 0)
(0.10141007 -0.00068219109 0)
(0.10144079 -0.00071672508 0)
(0.10144986 -0.00071941662 0)
(0.10149786 -0.00072839862 0)
(0.10158198 -0.00072977347 0)
(0.10162712 -0.0007129825 0)
(0.10166926 -0.00068644104 6.9155871e-25)
(0.10171373 -0.00065091799 -6.9155918e-25)
(0.101756 -0.0006059388 -4.9892911e-26)
(0.10179549 -0.00055226738 4.9892949e-26)
(0.10183401 -0.0004901929 0)
(0.10187197 -0.00042030427 -2.2852574e-25)
(0.10190707 -0.00034411633 2.2852592e-25)
(0.10193831 -0.0002627793 2.0523556e-25)
(0.10196472 -0.0001769487 -2.0523574e-25)
(0.10198739 -8.7809348e-05 -2.9530181e-25)
(0.10200278 3.467026e-06 2.9530161e-25)
(0.10200579 9.5473878e-05 -7.4459092e-25)
(0.10199916 0.00018704843 7.4459024e-25)
(0.10198443 0.0002764722 1.7063703e-24)
(0.10196078 0.00036237267 -1.7063688e-24)
(0.10192845 0.00044349267 0)
(0.10188773 0.00051851786 0)
(0.10184051 0.00058649528 0)
(0.10178512 0.00064551557 0)
(0.10172863 0.00069650153 0)
(0.10166032 0.00073367051 3.4629313e-24)
(0.10160311 0.00076697792 -3.4629289e-24)
(0.10152239 0.00077615431 0)
(0.10146496 0.00079092182 5.4497459e-24)
(0.10133365 0.00076429571 -5.4497446e-24)
(0.10132031 0.00076608417 0)
(0.1011577 0.000696812 3.7897772e-24)
(0.10123942 0.00072880737 -7.1167072e-24)
(0.10116478 0.00068062096 1.2531714e-24)
(0.10130083 -0.00057964883 0)
(0.10139406 -0.00047987499 0)
(0.10161088 -0.00045748819 0)
(0.10154921 -0.00041844667 -1.4648128e-24)
(0.10154278 -0.00042050582 1.4648111e-24)
(0.10165433 -0.00043805711 -6.5572578e-25)
(0.10171348 -0.00042056083 6.564902e-25)
(0.10171707 -0.00036896175 1.0953376e-24)
(0.10176112 -0.00031552611 -1.0955873e-24)
(0.10178249 -0.00026342389 0)
(0.10178635 -0.0002130571 0)
(0.10178553 -0.00016766194 0)
(0.10178025 -0.00012729299 0)
(0.10177101 -9.1735607e-05 0)
(0.10176088 -6.073799e-05 0)
(0.10175335 -3.3069077e-05 0)
(0.10174888 -8.633512e-06 -7.0934961e-25)
(0.10174664 1.2556706e-05 7.0935024e-25)
(0.10174575 3.1041973e-05 0)
(0.10174819 4.7290427e-05 0)
(0.10175236 6.2518689e-05 0)
(0.10175693 7.7190636e-05 0)
(0.10176319 9.1507675e-05 0)
(0.10176705 0.00010517501 0)
(0.1017671 0.00011886998 1.5940811e-24)
(0.10176505 0.00013309209 -1.5940795e-24)
(0.10176165 0.00014840923 0)
(0.10175669 0.00016532831 0)
(0.10175121 0.00018479201 0)
(0.10174259 0.00020652163 -2.484351e-24)
(0.10173641 0.00023368059 4.7841744e-24)
(0.10171996 0.0002597927 -2.2998238e-24)
(0.10171431 0.00030233146 0)
(0.10168136 0.00032350998 0)
(0.10166549 0.00038293993 2.8744745e-24)
(0.1015692 0.00042159906 -5.4025813e-24)
(0.10156399 0.000483377 2.5254208e-24)
(0.10142405 0.0004740122 0)
(0.10149033 0.00056608506 -1.9858471e-24)
(0.10143904 0.00059877336 1.9858471e-24)
(0.10130784 -0.00064935112 0)
(0.10136732 -0.0005685092 4.2016685e-24)
(0.10154919 -0.0005838436 -4.1980107e-24)
(0.10149034 -0.00056741904 3.7042039e-24)
(0.10145968 -0.00061037561 -3.9470084e-25)
(0.1015546 -0.00066513288 -3.3104433e-24)
(0.1016086 -0.00069103449 0)
(0.10161255 -0.00068406227 -8.8200925e-25)
(0.10164257 -0.0006856529 8.8179573e-25)
(0.10171273 -0.00067458005 0)
(0.10174955 -0.0006501736 -9.8838143e-26)
(0.10177948 -0.0006203629 -5.8654715e-26)
(0.10181173 -0.00058486074 1.5749306e-25)
(0.10184348 -0.00054237076 0)
(0.10187587 -0.00049156012 0)
(0.10190964 -0.00043267281 0)
(0.1019426 -0.00036704874 0)
(0.10197288 -0.00029595805 0)
(0.10200031 -0.00022037534 0)
(0.10202457 -0.00014096676 0)
(0.10204686 -5.8669414e-05 0)
(0.10206224 2.5749793e-05 0)
(0.10206437 0.00011042121 0)
(0.10205712 0.00019417351 0)
(0.10204315 0.00027555447 2.1038236e-24)
(0.1020212 0.00035330975 5.6897659e-26)
(0.10199172 0.00042638438 -6.5457823e-24)
(0.10195524 0.00049369701 4.3850611e-24)
(0.1019137 0.00055463228 0)
(0.10186566 0.00060763882 0)
(0.10181784 0.00065427098 0)
(0.10176 0.00068858082 0)
(0.10171344 0.00072305761 0)
(0.10164577 0.00073280243 0)
(0.1015975 0.00075316465 6.2606083e-24)
(0.10148258 0.00074531103 -6.4981921e-25)
(0.1014634 0.00075798721 -6.5197402e-25)
(0.10132704 0.00071103414 -5.6795863e-25)
(0.10138158 0.00074663665 -4.3776041e-24)
(0.10134322 0.00073728719 0)
(0.10135336 -0.00071685309 -6.443381e-25)
(0.10141574 -0.0006203657 -4.517211e-24)
(0.10163226 -0.00060206034 0)
(0.10159784 -0.00056748646 0)
(0.10158676 -0.00056851974 0)
(0.1016818 -0.00059517174 0)
(0.10177641 -0.00058919226 0)
(0.10177682 -0.00054864318 1.0099213e-24)
(0.10182566 -0.0005010619 -1.010897e-24)
(0.10186695 -0.00045374861 0)
(0.10188592 -0.00040510396 2.0785984e-24)
(0.10189981 -0.0003571447 -2.0786e-24)
(0.10191078 -0.00031025008 0)
(0.10191996 -0.00026328238 0)
(0.10192964 -0.00021594199 0)
(0.1019392 -0.00016934086 0)
(0.10194761 -0.00012427052 0)
(0.1019552 -8.1015821e-05 0)
(0.10196218 -3.9282234e-05 0)
(0.10197073 1.1264747e-06 0)
(0.10197933 4.1020487e-05 0)
(0.1019859 8.0295879e-05 0)
(0.10199175 0.00011909367 -1.0868598e-24)
(0.10199275 0.00015725943 1.0868585e-24)
(0.10198721 0.00019477399 2.1595485e-24)
(0.10197753 0.00023192034 -2.1595461e-24)
(0.10196455 0.00026902078 0)
(0.10194809 0.00030625034 0)
(0.10192934 0.00034410924 0)
(0.10190572 0.0003820514 -3.6685789e-24)
(0.10188319 0.0004223742 3.6685757e-24)
(0.10184898 0.00045918977 3.2889981e-24)
(0.10182566 0.00050661653 -3.2889952e-24)
(0.10177335 0.00053359029 -5.7003458e-24)
(0.10174265 0.00058779376 5.6983904e-24)
(0.10163436 0.00061465372 0)
(0.10160397 0.00067161322 0)
(0.10146773 0.00065648891 0)
(0.10150323 0.0007201862 -4.0320335e-24)
(0.10145021 0.00073970396 4.0320459e-24)
(0.10139392 -0.00080178603 0)
(0.1014497 -0.0006970296 0)
(0.10165539 -0.00068823045 0)
(0.1016296 -0.00065936856 -2.3425518e-24)
(0.10160548 -0.00067600661 4.0704854e-24)
(0.10168453 -0.00071236683 -1.7296405e-24)
(0.10177417 -0.0007264205 0)
(0.10177608 -0.00071097071 0)
(0.10180287 -0.0007010857 0)
(0.10186127 -0.00067903246 0)
(0.1018932 -0.00064741237 -2.028929e-24)
(0.10192008 -0.0006110898 2.0289307e-24)
(0.10195094 -0.00056921244 0)
(0.10198414 -0.00051992174 0)
(0.10201713 -0.00046391044 0)
(0.10204857 -0.00040223372 0)
(0.10207767 -0.00033565311 0)
(0.10210429 -0.00026467424 0)
(0.10212886 -0.00018994824 4.6733079e-25)
(0.10215145 -0.00011212239 -4.6733149e-25)
(0.10217295 -3.1934131e-05 0)
(0.1021875 5.0102314e-05 0)
(0.10218846 0.00013212488 0)
(0.10218001 0.00021241906 0)
(0.10216545 0.00029030498 0)
(0.10214368 0.00036480256 0)
(0.1021152 0.00043501676 0)
(0.10208051 0.000500077 0)
(0.10204161 0.00055966139 0)
(0.10199663 0.00061252739 5.1393639e-24)
(0.10195294 0.00066051476 -1.7017528e-25)
(0.1018982 0.00069782526 -2.1362694e-25)
(0.1018569 0.00073781406 -4.7555485e-24)
(0.10179013 0.00075392867 -8.3657761e-24)
(0.10174688 0.00078479892 1.598357e-23)
(0.10163681 0.0007905325 -7.6201911e-24)
(0.10160192 0.00081895667 0)
(0.1014736 0.00078782295 0)
(0.10149958 0.00082439773 -5.2995111e-24)
(0.101463 0.00082446111 5.3031645e-24)
(0.1014531 -0.0008866168 0)
(0.10150686 -0.00077215531 3.1125067e-24)
(0.10171594 -0.00075596114 -3.1088066e-24)
(0.10170622 -0.00072358039 1.6519991e-24)
(0.10168893 -0.00072225527 -8.3314962e-25)
(0.10175987 -0.00074836548 -8.1884794e-25)
(0.10187952 -0.00074618944 0)
(0.1018815 -0.0007172059 1.1708072e-24)
(0.10191439 -0.00067635844 -1.1713521e-24)
(0.10196838 -0.00063272295 -2.0341624e-24)
(0.10200426 -0.00058357588 4.4840045e-24)
(0.10203571 -0.00052962814 -2.4498439e-24)
(0.10206712 -0.0004721302 0)
(0.10209592 -0.00041196468 0)
(0.10212134 -0.00035023162 0)
(0.10214351 -0.00028768848 -2.1492805e-24)
(0.10216258 -0.0002247204 9.9951861e-25)
(0.10217935 -0.00016170746 1.149764e-24)
(0.10219384 -9.8878647e-05 0)
(0.10220805 -3.6493521e-05 0)
(0.10222092 2.6097408e-05 0)
(0.10222945 8.8243734e-05 0)
(0.10223367 0.00014980398 0)
(0.10223044 0.00021073838 0)
(0.10221898 0.00027031938 2.9049331e-24)
(0.10220154 0.00032845205 -2.9049307e-24)
(0.10217907 0.00038514484 -5.6651822e-24)
(0.10215143 0.00044029169 1.1205724e-23)
(0.10212036 0.0004940517 -1.5154768e-25)
(0.10208292 0.00054549524 -5.3889964e-24)
(0.1020466 0.00059669915 0)
(0.10199662 0.00064156536 0)
(0.10196038 0.00069323885 0)
(0.10189151 0.00072417147 0)
(0.10185116 0.00077454291 7.9814417e-24)
(0.10173634 0.00079451761 -6.1912228e-25)
(0.10168844 0.00084985022 -5.7927261e-25)
(0.10155038 0.00083403425 -3.4963856e-25)
(0.10156165 0.00087873922 -6.4142029e-24)
(0.10151623 0.00088907162 0)
(0.10151806 -0.00096528032 0)
(0.10156677 -0.00085489526 0)
(0.10177555 -0.00083603485 0)
(0.10178122 -0.00080252538 1.1647034e-24)
(0.10176481 -0.0007987087 -1.1628216e-24)
(0.10182209 -0.00082366883 0)
(0.10194266 -0.00083077696 0)
(0.1019463 -0.00081174249 0)
(0.10196767 -0.00078291671 0)
(0.10202331 -0.00074502071 2.0036419e-24)
(0.10206808 -0.00070085523 -2.0036419e-24)
(0.10210824 -0.00065124157 0)
(0.10214782 -0.00059678238 0)
(0.10218531 -0.00053744681 0)
(0.10221981 -0.00047308075 0)
(0.10225157 -0.00040410865 0)
(0.10228032 -0.00033099276 0)
(0.10230608 -0.00025440312 0)
(0.10232935 -0.00017489361 6.7879206e-25)
(0.10235127 -9.2824228e-05 -6.7879207e-25)
(0.10237234 -8.6582922e-06 0)
(0.10238572 7.7214624e-05 0)
(0.10238554 0.00016256141 -1.6538339e-24)
(0.10237544 0.00024562844 1.6538335e-24)
(0.10235856 0.00032625003 3.4107858e-24)
(0.10233456 0.00040365169 -3.4107829e-24)
(0.10230409 0.00047711772 0)
(0.1022674 0.00054597139 0)
(0.10222677 0.00061004786 0)
(0.10217941 0.00066815477 -6.4006647e-24)
(0.10213421 0.00072251765 6.4006612e-24)
(0.10207513 0.00076706327 5.9273579e-24)
(0.10203303 0.00081550002 -5.927361e-24)
(0.10195768 0.00084162937 -1.0584911e-23)
(0.10191397 0.00088467544 1.0582191e-23)
(0.10180087 0.00089588782 0)
(0.10174787 0.00094610212 0)
(0.10161015 0.00092909354 7.7200579e-24)
(0.10161221 0.00096539786 -1.5121825e-23)
(0.10156905 0.0009727701 7.4154099e-24)
(0.1015814 -0.0010418364 -3.5173391e-24)
(0.10162442 -0.00095100665 1.0606972e-24)
(0.1018294 -0.00093166696 2.4586616e-24)
(0.10185587 -0.000892072 6.2223328e-25)
(0.10184589 -0.00088420841 -6.2119351e-25)
(0.10189373 -0.00090385234 0)
(0.10202028 -0.00091366462 -2.7323135e-24)
(0.10203088 -0.00088664743 2.733326e-24)
(0.10205981 -0.00084714066 0)
(0.10212224 -0.0007978876 2.7489791e-24)
(0.10217662 -0.00074123599 5.2423038e-25)
(0.10222551 -0.00067935347 -3.2732096e-24)
(0.10227134 -0.00061309071 0)
(0.10231308 -0.00054245617 -2.3809369e-24)
(0.10235069 -0.00046815194 2.380937e-24)
(0.10238384 -0.00039081124 0)
(0.10241226 -0.00031126794 0)
(0.10243677 -0.0002300071 0)
(0.10245787 -0.00014748828 0)
(0.10247757 -6.4431328e-05 0)
(0.10249495 1.9367591e-05 0)
(0.10250513 0.00010296406 0)
(0.10250628 0.000185966 0)
(0.10249779 0.00026814526 0)
(0.10248025 0.00034828489 0)
(0.10245508 0.00042589548 0)
(0.10242343 0.0005006554 -7.6595261e-24)
(0.10238529 0.00057210776 7.659526e-24)
(0.10234301 0.00064024055 -7.3727525e-24)
(0.10229297 0.00070375621 1.454778e-23)
(0.1022451 0.00076488149 -2.2771402e-25)
(0.10218099 0.00081698862 -6.9473136e-24)
(0.10213546 0.00087341398 -1.2786634e-23)
(0.10205216 0.00090780624 6.6681148e-25)
(0.10200537 0.00095903834 1.2117336e-23)
(0.10188682 0.00097275659 0)
(0.10182593 0.0010319877 0)
(0.10168029 0.0010205205 -9.1163945e-24)
(0.10167366 0.001054533 9.1132452e-24)
(0.10162922 0.0010629223 0)
(0.10164474 -0.0011336996 -4.274852e-24)
(0.10168545 -0.001062096 0)
(0.10188559 -0.0010452766 0)
(0.10193697 -0.00099977307 0)
(0.10193345 -0.00098255681 0)
(0.1019766 -0.00099788519 0)
(0.10210595 -0.0010117339 0)
(0.10212324 -0.00097785893 0)
(0.10216203 -0.00093061419 0)
(0.10223141 -0.00087840356 0)
(0.10229319 -0.00081868086 0)
(0.10234743 -0.00075333556 0)
(0.10239826 -0.00068351849 0)
(0.10244507 -0.00060904662 0)
(0.10248681 -0.0005300526 0)
(0.10252375 -0.00044706977 -3.2429435e-24)
(0.10255609 -0.00036053829 3.2429434e-24)
(0.10258468 -0.00027105272 0)
(0.1026095 -0.00017901261 9.6159754e-25)
(0.10263232 -8.4862218e-05 -9.6159755e-25)
(0.10265354 1.0942374e-05 0)
(0.10266584 0.00010806327 0)
(0.10266452 0.00020454559 0)
(0.10265183 0.00029862689 0)
(0.10263046 0.00038989279 4.4899423e-24)
(0.10260126 0.0004778735 -4.4899423e-24)