/*--------------------------------*- C++ -*----------------------------------*\
  =========                 |
  \\      /  F ield         | OpenFOAM: The Open Source CFD Toolbox
   \\    /   O peration     | Website:  https://openfoam.org
    \\  /    A nd           | Version:  11
     \\/     M anipulation  |
\*---------------------------------------------------------------------------*/
FoamFile
{
    format      ascii;
    class       volScalarField;
    location    "8";
    object      Ccx;
}
// * * * * * * * * * * * * * * * * * * * * * * * * * * * * * * * * * * * * * //

dimensions      [0 1 0 0 0 0 0];

internalField   nonuniform List<scalar> 
9600
(
-3.07527
-2.82821
-2.58113
-2.33404
-2.08696
-1.83987
-1.59276
-1.34566
-1.09855
-0.851435
-0.604315
-0.357191
-0.110063
0.137063
0.3842
0.631331
0.878474
1.12561
1.37275
1.61989
1.86703
2.11417
2.36131
2.60844
2.85559
3.10272
3.34985
3.59698
3.84411
4.09123
4.33835
4.58546
4.83258
5.07968
5.32678
5.57388
5.82096
6.06805
6.31512
6.56219
-2.96206
-2.72088
-2.47969
-2.23847
-1.99723
-1.75598
-1.51471
-1.27343
-1.03213
-0.790817
-0.549497
-0.308163
-0.0668183
0.174535
0.415892
0.657263
0.898627
1.14001
1.38139
1.62277
1.86415
2.10553
2.34691
2.58829
2.82965
3.07103
3.31238
3.55373
3.79508
4.03641
4.27773
4.51905
4.76035
5.00163
5.2429
5.48415
5.72539
5.96661
6.2078
6.44898
-2.84886
-2.61357
-2.37824
-2.14289
-1.90751
-1.6721
-1.43666
-1.2012
-0.965711
-0.730207
-0.49468
-0.259134
-0.0235771
0.212003
0.447591
0.683185
0.918796
1.15441
1.39003
1.62565
1.86127
2.09689
2.33251
2.56812
2.80373
3.03932
3.27491
3.51049
3.74605
3.98159
4.21712
4.45263
4.68811
4.92357
5.15901
5.39442
5.62981
5.86515
6.10048
6.33577
-2.73565
-2.50624
-2.2768
-2.04731
-1.81778
-1.58821
-1.35861
-1.12896
-0.899298
-0.669593
-0.439858
-0.21011
0.0196721
0.249471
0.479282
0.709112
0.938953
1.16881
1.39866
1.62853
1.85839
2.08826
2.31811
2.54796
2.7778
3.00763
3.23745
3.46725
3.69703
3.92677
4.15651
4.38621
4.61588
4.84552
5.07513
5.3047
5.53423
5.76372
5.99316
6.22256
-2.62244
-2.39893
-2.17536
-1.95173
-1.72806
-1.50433
-1.28056
-1.05674
-0.832875
-0.608979
-0.385045
-0.161079
0.062917
0.286934
0.510981
0.735038
0.959119
1.1832
1.4073
1.6314
1.85551
2.07961
2.30371
2.52779
2.75188
2.97593
3.19998
3.424
3.64799
3.87196
4.09589
4.31979
4.54365
4.76747
4.99125
5.21497
5.43865
5.66227
5.88584
6.10935
-2.50923
-2.29161
-2.07391
-1.85616
-1.63834
-1.42044
-1.20251
-0.98451
-0.766461
-0.548362
-0.330228
-0.112051
0.106162
0.324405
0.542668
0.760973
0.979272
1.1976
1.41594
1.63428
1.85263
2.07097
2.28931
2.50764
2.72594
2.94425
3.16251
3.38075
3.59897
3.81715
4.03528
4.25338
4.47143
4.68942
4.90736
5.12525
5.34307
5.56083
5.77853
5.99614
-2.39602
-2.18429
-1.97247
-1.76058
-1.5486
-1.33656
-1.12445
-0.912277
-0.70004
-0.487752
-0.27541
-0.0630192
0.149403
0.361869
0.57437
0.786891
0.999441
1.212
1.42458
1.63716
1.84975
2.06233
2.27491
2.48747
2.70003
2.91255
3.12505
3.33751
3.54994
3.76233
3.97467
4.18696
4.39919
4.61137
4.82348
5.03552
5.2475
5.45939
5.6712
5.88293
-2.28281
-2.07697
-1.87103
-1.665
-1.45888
-1.25268
-1.0464
-0.840046
-0.633623
-0.427139
-0.220594
-0.0139951
0.192651
0.399336
0.606065
0.812818
1.0196
1.2264
1.43322
1.64004
1.84687
2.05369
2.26051
2.46732
2.6741
2.88085
3.08758
3.29427
3.50091
3.70751
3.91405
4.12054
4.32696
4.53332
4.7396
4.9458
5.15192
5.35795
5.56388
5.76973
-2.1696
-1.96965
-1.76959
-1.56942
-1.36916
-1.1688
-0.968349
-0.767817
-0.567209
-0.366523
-0.165777
0.0350321
0.235892
0.43681
0.637756
0.838748
1.03976
1.2408
1.44186
1.64292
1.84399
2.04505
2.24611
2.44715
2.64817
2.84916
3.0501
3.25102
3.45188
3.6527
3.85344
4.05413
4.25473
4.45527
4.65571
4.85607
5.05634
5.25651
5.45657
5.65652
-2.05639
-1.86233
-1.66815
-1.47385
-1.27943
-1.08492
-0.890295
-0.69559
-0.500789
-0.305913
-0.110957
0.0840562
0.27914
0.47427
0.669454
0.86467
1.05993
1.2552
1.4505
1.6458
1.84111
2.03642
2.23172
2.42699
2.62225
2.81746
3.01264
3.20777
3.40286
3.59787
3.79283
3.98771
4.18251
4.37721
4.57183
4.76634
4.96076
5.15507
5.34925
5.54331
-1.94319
-1.75501
-1.5667
-1.37827
-1.18971
-1.00103
-0.812248
-0.623358
-0.434372
-0.245301
-0.0561442
0.133086
0.322384
0.51174
0.701145
0.890597
1.08009
1.2696
1.45913
1.64869
1.83823
2.02779
2.21732
2.40683
2.59632
2.78577
2.97518
3.16453
3.35383
3.54306
3.73222
3.92129
4.11027
4.29916
4.48795
4.67663
4.86518
5.05362
5.24193
5.4301
-1.82998
-1.6477
-1.46527
-1.2827
-1.09998
-0.917152
-0.734198
-0.551127
-0.367959
-0.184685
-0.00133097
0.182113
0.365628
0.549204
0.732842
0.916522
1.10025
1.284
1.46777
1.65156
1.83536
2.01915
2.20292
2.38667
2.57039
2.75407
2.93771
3.12129
3.3048
3.48825
3.6716
3.85487
4.03804
4.22111
4.40407
4.5869
4.76961
4.95218
5.13461
5.31689
-1.71678
-1.54038
-1.36382
-1.18712
-1.01027
-0.833269
-0.656145
-0.478903
-0.301542
-0.124073
0.0534878
0.23114
0.408872
0.586673
0.764533
0.942452
1.1204
1.2984
1.47641
1.65444
1.83248
2.01051
2.18852
2.36651
2.54446
2.72238
2.90024
3.07804
3.25578
3.43343
3.61099
3.78846
3.96582
4.14306
4.32018
4.49718
4.67403
4.85074
5.02729
5.20369
-1.60357
-1.43307
-1.26238
-1.09154
-0.920541
-0.74939
-0.578097
-0.406673
-0.235124
-0.0634639
0.108303
0.280166
0.452115
0.624137
0.79623
0.968374
1.14057
1.31279
1.48506
1.65732
1.8296
2.00186
2.17413
2.34635
2.51854
2.69068
2.86278
3.0348
3.20675
3.37861
3.55038
3.72204
3.89359
4.06501
4.23631
4.40745
4.57846
4.7493
4.91998
5.09048
-1.49036
-1.32574
-1.16094
-0.995967
-0.830817
-0.665507
-0.500048
-0.334444
-0.168709
-0.00285237
0.163119
0.329192
0.495356
0.661606
0.827924
0.9943
1.16073
1.3272
1.49369
1.6602
1.82672
1.99323
2.15972
2.32619
2.49262
2.65899
2.82531
2.99156
3.15772
3.3238
3.48977
3.65563
3.82136
3.98697
4.15242
4.31773
4.48289
4.64786
4.81266
4.97728
-1.37715
-1.21843
-1.0595
-0.900389
-0.741095
-0.581629
-0.421999
-0.262217
-0.102295
0.0577613
0.217934
0.378218
0.538601
0.699072
0.859615
1.02023
1.18089
1.34159
1.50233
1.66308
1.82384
1.98459
2.14533
2.30603
2.46669
2.6273
2.78785
2.94832
3.1087
3.26898
3.42915
3.58921
3.74913
3.90891
4.06855
4.22801
4.38731
4.54642
4.70535
4.86407
-1.26395
-1.11111
-0.958067
-0.804816
-0.651375
-0.497745
-0.34395
-0.189991
-0.0358785
0.11837
0.272751
0.427241
0.581844
0.736535
0.891308
1.04615
1.20105
1.356
1.51097
1.66596
1.82096
1.97595
2.13092
2.28587
2.44076
2.59561
2.75038
2.90507
3.05967
3.21416
3.36854
3.52279
3.67691
3.83087
3.98466
4.13829
4.29173
4.44499
4.59803
4.75087
-1.15074
-1.0038
-0.856628
-0.709243
-0.561651
-0.413869
-0.265901
-0.117763
0.0305356
0.17898
0.327563
0.476269
0.625086
0.774002
0.923001
1.07208
1.22121
1.37039
1.5196
1.66884
1.81808
1.96731
2.11653
2.2657
2.41484
2.56391
2.71291
2.86183
3.01065
3.15935
3.30794
3.45638
3.60468
3.75282
3.90079
4.04857
4.19616
4.34354
4.49071
4.63766
-1.03754
-0.896484
-0.755189
-0.613669
-0.471931
-0.32999
-0.187854
-0.0455349
0.0969475
0.23959
0.382376
0.525293
0.668328
0.811465
0.954695
1.098
1.24137
1.38478
1.52824
1.67172
1.8152
1.95867
2.10213
2.24554
2.38891
2.53222
2.67545
2.81859
2.96162
3.10454
3.24733
3.38997
3.53245
3.67477
3.81691
3.95885
4.10058
4.2421
4.3834
4.52446
-0.924337
-0.78917
-0.653754
-0.518096
-0.382211
-0.24611
-0.109807
0.0266889
0.163361
0.300201
0.43719
0.574318
0.711568
0.848934
0.986387
1.12393
1.26152
1.39919
1.53688
1.6746
1.81232
1.95003
2.08772
2.22539
2.36299
2.50053
2.63798
2.77535
2.9126
3.04973
3.18672
3.32355
3.46023
3.59672
3.73303
3.86913
4.00501
4.14067
4.27608
4.41125
-0.811134
-0.681857
-0.552316
-0.422523
-0.292492
-0.162233
-0.0317589
0.0989124
0.229775
0.360809
0.492003
0.623344
0.754809
0.886393
1.01808
1.14985
1.28169
1.41358
1.54552
1.67748
1.80944
1.94139
2.07333
2.20522
2.33707
2.46884
2.60052
2.73211
2.86357
2.99491
3.12611
3.25714
3.388
3.51867
3.64915
3.7794
3.90944
4.03923
4.16877
4.29805
-0.697932
-0.574544
-0.45088
-0.326951
-0.202774
-0.0783552
0.0462856
0.171138
0.296187
0.421417
0.546815
0.672365
0.798051
0.923857
1.04977
1.17577
1.30185
1.42798
1.55416
1.68035
1.80656
1.93275
2.05893
2.18507
2.31114
2.43715
2.56306
2.68886
2.81455
2.9401
3.0655
3.19073
3.31578
3.44063
3.56527
3.68969
3.81387
3.9378
4.06146
4.18485
-0.58473
-0.467232
-0.349445
-0.231382
-0.113054
0.00551977
0.12433
0.243362
0.362597
0.482026
0.601628
0.721385
0.841291
0.961322
1.08146
1.2017
1.32201
1.44238
1.56279
1.68323
1.80368
1.92412
2.04453
2.16491
2.28522
2.40546
2.52559
2.64563
2.76553
2.88529
3.00489
3.12432
3.24356
3.36259
3.4814
3.59997
3.7183
3.83636
3.95415
4.07164
-0.47153
-0.359921
-0.248011
-0.135811
-0.0233386
0.0893959
0.202375
0.315583
0.429009
0.542631
0.656437
0.770409
0.884531
0.998781
1.11315
1.22762
1.34217
1.45678
1.57143
1.68611
1.80081
1.91548
2.03014
2.14475
2.25929
2.37376
2.48813
2.60239
2.71651
2.83048
2.94428
3.05791
3.17133
3.28454
3.39752
3.51025
3.62273
3.73493
3.84683
3.95845
-0.35833
-0.252612
-0.146578
-0.0402428
0.0663777
0.173269
0.280418
0.387806
0.495418
0.603237
0.711247
0.81943
0.927768
1.03625
1.14484
1.25354
1.36233
1.47117
1.58007
1.68899
1.79793
1.90685
2.01575
2.12459
2.23337
2.34207
2.45067
2.55915
2.66749
2.77567
2.88368
2.9915
3.09911
3.2065
3.31365
3.42054
3.52716
3.63349
3.73953
3.84525
-0.245132
-0.145303
-0.0451459
0.0553244
0.156092
0.257143
0.358459
0.460026
0.561826
0.663841
0.766055
0.86845
0.971005
1.07371
1.17653
1.27946
1.38248
1.48557
1.58871
1.69187
1.79505
1.89821
2.00135
2.10443
2.20745
2.31038
2.41321
2.51591
2.61847
2.72086
2.82308
2.92509
3.02689
3.12846
3.22977
3.33082
3.43159
3.53206
3.63222
3.73205
-0.131935
-0.0379952
0.0562846
0.15089
0.245806
0.341014
0.4365
0.532246
0.628231
0.724445
0.820863
0.917469
1.01424
1.11117
1.20822
1.30538
1.40264
1.49997
1.59734
1.69475
1.79217
1.88958
1.98695
2.08428
2.18153
2.2787
2.37575
2.47267
2.56945
2.66605
2.76247
2.85868
2.95467
3.05042
3.1459
3.24111
3.33603
3.43063
3.52491
3.61885
-0.01874
0.0693098
0.157714
0.246455
0.335517
0.424884
0.514538
0.604462
0.694638
0.785046
0.875669
0.966485
1.05748
1.14862
1.23991
1.33131
1.4228
1.51436
1.60598
1.69763
1.78929
1.88094
1.97256
2.06412
2.15561
2.24701
2.33829
2.42944
2.52043
2.61125
2.70187
2.79228
2.88245
2.97238
3.06203
3.1514
3.24046
3.3292
3.4176
3.50566
0.094454
0.176615
0.259141
0.342017
0.425227
0.508752
0.592575
0.676678
0.761042
0.845646
0.930473
1.0155
1.10071
1.18608
1.2716
1.35723
1.44295
1.52876
1.61462
1.70051
1.78641
1.8723
1.95816
2.04397
2.12969
2.21532
2.30083
2.3862
2.47142
2.55645
2.64127
2.72587
2.81024
2.89434
2.97816
3.06169
3.1449
3.22777
3.3103
3.39246
0.207646
0.283916
0.360567
0.437577
0.514934
0.592618
0.67061
0.748891
0.827442
0.906244
0.985274
1.06451
1.14395
1.22354
1.30328
1.38314
1.46311
1.54315
1.62326
1.70339
1.78353
1.86366
1.94377
2.02381
2.10378
2.18364
2.26337
2.34297
2.4224
2.50164
2.58067
2.65947
2.73802
2.8163
2.8943
2.97198
3.04934
3.12635
3.203
3.27927
0.320835
0.391216
0.461987
0.533137
0.604639
0.676481
0.748642
0.821101
0.893841
0.966839
1.04008
1.11353
1.18717
1.26099
1.33496
1.40906
1.48326
1.55754
1.63189
1.70626
1.78065
1.85503
1.92937
2.00365
2.07786
2.15196
2.22592
2.29974
2.37339
2.44684
2.52008
2.59307
2.66581
2.73827
2.81044
2.88228
2.95378
3.02493
3.0957
3.16608
0.434021
0.498513
0.563408
0.62869
0.694341
0.760341
0.82667
0.893309
0.960235
1.02743
1.09487
1.16253
1.2304
1.29844
1.36664
1.43497
1.50341
1.57193
1.64052
1.70914
1.77777
1.84639
1.91498
1.9835
2.05194
2.12027
2.18847
2.25651
2.32438
2.39204
2.45949
2.52668
2.59361
2.66025
2.72658
2.79257
2.85823
2.92351
2.9884
3.05289
0.547205
0.605804
0.664825
0.724241
0.784039
0.844196
0.904695
0.965513
1.02663
1.08802
1.14966
1.21154
1.27362
1.33589
1.39832
1.46088
1.52356
1.58633
1.64915
1.71202
1.7749
1.83776
1.90058
1.96335
2.02603
2.08859
2.15102
2.21329
2.27537
2.33725
2.39889
2.46029
2.5214
2.58222
2.64272
2.70288
2.76268
2.82209
2.88111
2.93971
0.660384
0.713095
0.766235
0.819787
0.873732
0.928048
0.982713
1.03771
1.09302
1.1486
1.20445
1.26054
1.31685
1.37334
1.42999
1.48679
1.54371
1.60071
1.65779
1.7149
1.77202
1.82912
1.8862
1.9432
2.00012
2.05692
2.11358
2.17007
2.22638
2.28246
2.33831
2.3939
2.4492
2.5042
2.55887
2.61319
2.66713
2.72068
2.77382
2.82653
0.773559
0.820379
0.867639
0.91533
0.963422
1.01189
1.06073
1.1099
1.15939
1.20918
1.25923
1.30953
1.36006
1.41078
1.46167
1.5127
1.56386
1.6151
1.66642
1.71777
1.76914
1.82049
1.87181
1.92306
1.97421
2.02525
2.07614
2.12686
2.17738
2.22768
2.27774
2.32752
2.37701
2.42619
2.47502
2.5235
2.57158
2.61927
2.66654
2.71336
0.886728
0.927657
0.969046
1.01086
1.0531
1.09573
1.13873
1.18209
1.22576
1.26974
1.31401
1.35852
1.40326
1.44821
1.49333
1.5386
1.584
1.62949
1.67505
1.72065
1.76626
1.81186
1.85743
1.90292
1.94832
1.99359
2.03871
2.08365
2.12839
2.17291
2.21717
2.26115
2.30483
2.34818
2.39118
2.43381
2.47605
2.51787
2.55926
2.60019
0.999889
1.03493
1.07044
1.10639
1.14277
1.17956
1.21673
1.25426
1.29213
1.3303
1.36877
1.4075
1.44646
1.48563
1.52498
1.56449
1.60413
1.64387
1.68367
1.72353
1.76339
1.80324
1.84305
1.88279
1.92242
1.96194
2.00129
2.04046
2.07942
2.11815
2.15661
2.19479
2.23266
2.27019
2.30735
2.34414
2.38053
2.41648
2.45199
2.48703
1.11304
1.14219
1.17182
1.2019
1.23243
1.26337
1.29471
1.32642
1.35847
1.39085
1.42352
1.45645
1.48964
1.52304
1.55662
1.59037
1.62425
1.65824
1.6923
1.7264
1.76052
1.79462
1.82868
1.86266
1.89654
1.93029
1.96388
1.99728
2.03046
2.0634
2.09607
2.12845
2.1605
2.1922
2.22354
2.25448
2.28502
2.3151
2.34473
2.37387
1.22618
1.24944
1.27318
1.2974
1.32207
1.34717
1.37267
1.39856
1.42479
1.45136
1.47824
1.50539
1.53279
1.56042
1.58824
1.61624
1.64436
1.6726
1.70091
1.72927
1.75765
1.78601
1.81432
1.84255
1.87068
1.89867
1.92649
1.95412
1.98152
2.00868
2.03555
2.06212
2.08836
2.11424
2.13975
2.16485
2.18951
2.21374
2.23748
2.26073
1.33931
1.35667
1.37453
1.39288
1.41169
1.43094
1.45061
1.47066
1.49109
1.51185
1.53292
1.55429
1.57591
1.59777
1.61983
1.64206
1.66445
1.68694
1.70951
1.73214
1.75478
1.77741
1.79998
1.82247
1.84485
1.86708
1.88915
1.911
1.93263
1.954
1.97507
1.99583
2.01625
2.03631
2.05598
2.07522
2.09404
2.11238
2.13024
2.1476
6.6857
6.68586
6.68602
6.68617
6.68632
6.68645
6.68658
6.6867
6.68681
6.68691
6.68701
6.68709
6.68717
6.68723
6.68729
6.68734
6.68737
6.6874
6.68742
6.68743
6.68743
6.68742
6.6874
6.68737
6.68733
6.68728
6.68723
6.68716
6.68708
6.687
6.6869
6.6868
6.68669
6.68657
6.68644
6.6863
6.68615
6.686
6.68584
6.68568
6.56971
6.57021
6.57068
6.57114
6.57157
6.57198
6.57237
6.57273
6.57306
6.57337
6.57365
6.5739
6.57413
6.57433
6.5745
6.57464
6.57476
6.57484
6.5749
6.57493
6.57493
6.5749
6.57484
6.57475
6.57464
6.5745
6.57432
6.57412
6.57389
6.57364
6.57336
6.57305
6.57271
6.57235
6.57197
6.57155
6.57112
6.57067
6.57019
6.56969
6.45372
6.45456
6.45535
6.45611
6.45683
6.45751
6.45815
6.45875
6.45931
6.45982
6.46029
6.46072
6.4611
6.46143
6.46172
6.46196
6.46215
6.46229
6.46238
6.46243
6.46243
6.46238
6.46228
6.46214
6.46195
6.46171
6.46142
6.46109
6.46071
6.46028
6.45981
6.4593
6.45874
6.45814
6.4575
6.45681
6.45609
6.45533
6.45453
6.4537
6.33773
6.3389
6.34002
6.34108
6.34209
6.34305
6.34394
6.34478
6.34556
6.34628
6.34694
6.34753
6.34806
6.34853
6.34893
6.34926
6.34953
6.34973
6.34987
6.34994
6.34993
6.34986
6.34973
6.34953
6.34926
6.34892
6.34852
6.34805
6.34752
6.34692
6.34626
6.34555
6.34477
6.34393
6.34303
6.34207
6.34106
6.34
6.33888
6.33771
6.22175
6.22325
6.22469
6.22605
6.22735
6.22858
6.22973
6.23081
6.23181
6.23274
6.23358
6.23435
6.23503
6.23563
6.23614
6.23657
6.23692
6.23718
6.23735
6.23744
6.23744
6.23735
6.23717
6.23691
6.23657
6.23614
6.23562
6.23502
6.23433
6.23357
6.23272
6.2318
6.2308
6.22971
6.22856
6.22733
6.22603
6.22466
6.22323
6.22173
6.10577
6.1076
6.10936
6.11102
6.11261
6.11411
6.11552
6.11684
6.11807
6.1192
6.12023
6.12116
6.12199
6.12273
6.12336
6.12388
6.1243
6.12462
6.12483
6.12494
6.12494
6.12483
6.12462
6.1243
6.12388
6.12335
6.12272
6.12198
6.12115
6.12021
6.11918
6.11805
6.11682
6.1155
6.11409
6.11259
6.111
6.10933
6.10758
6.10574
5.98979
5.99195
5.99402
5.996
5.99787
5.99964
6.00131
6.00287
6.00432
6.00565
6.00687
6.00798
6.00896
6.00983
6.01057
6.01119
6.01169
6.01207
6.01232
6.01244
6.01244
6.01231
6.01206
6.01168
6.01119
6.01056
6.00982
6.00895
6.00796
6.00686
6.00564
6.0043
6.00285
6.00129
5.99962
5.99785
5.99597
5.994
5.99192
5.98976
5.8738
5.8763
5.87869
5.88097
5.88313
5.88517
5.8871
5.8889
5.89057
5.89211
5.89352
5.89479
5.89593
5.89692
5.89779
5.89851
5.89908
5.89951
5.8998
5.89994
5.89994
5.8998
5.89951
5.89907
5.8985
5.89778
5.89691
5.89592
5.89478
5.89351
5.89209
5.89055
5.88888
5.88708
5.88515
5.88311
5.88095
5.87866
5.87627
5.87377
5.75782
5.76065
5.76336
5.76594
5.76839
5.77071
5.77289
5.77493
5.77682
5.77857
5.78016
5.78161
5.78289
5.78403
5.785
5.78582
5.78647
5.78695
5.78728
5.78745
5.78745
5.78728
5.78695
5.78646
5.78581
5.78499
5.78401
5.78288
5.78159
5.78015
5.77855
5.7768
5.77491
5.77287
5.77069
5.76837
5.76592
5.76333
5.76062
5.75779
5.64184
5.645
5.64803
5.65091
5.65365
5.65625
5.65868
5.66096
5.66308
5.66503
5.66681
5.66842
5.66986
5.67113
5.67222
5.67313
5.67385
5.6744
5.67477
5.67495
5.67495
5.67476
5.6744
5.67385
5.67312
5.67221
5.67111
5.66985
5.66841
5.66679
5.66501
5.66305
5.66094
5.65866
5.65622
5.65363
5.65089
5.648
5.64497
5.64181
5.52586
5.52935
5.5327
5.53589
5.53892
5.54178
5.54448
5.54699
5.54933
5.55149
5.55346
5.55524
5.55683
5.55823
5.55943
5.56044
5.56124
5.56185
5.56225
5.56245
5.56245
5.56225
5.56184
5.56123
5.56043
5.55942
5.55822
5.55682
5.55523
5.55344
5.55147
5.54931
5.54697
5.54445
5.54175
5.53889
5.53586
5.53267
5.52932
5.52582
5.40987
5.41371
5.41737
5.42087
5.42418
5.42732
5.43027
5.43302
5.43559
5.43795
5.44011
5.44206
5.44381
5.44534
5.44665
5.44775
5.44863
5.4493
5.44974
5.44996
5.44996
5.44973
5.44929
5.44862
5.44774
5.44664
5.44532
5.44379
5.44204
5.44009
5.43793
5.43556
5.433
5.43024
5.42729
5.42415
5.42084
5.41734
5.41367
5.40984
5.29389
5.29806
5.30204
5.30584
5.30944
5.31285
5.31606
5.31906
5.32184
5.32441
5.32676
5.32888
5.33077
5.33244
5.33387
5.33507
5.33602
5.33675
5.33722
5.33746
5.33746
5.33722
5.33674
5.33602
5.33506
5.33386
5.33242
5.33076
5.32886
5.32674
5.32439
5.32182
5.31903
5.31603
5.31282
5.30941
5.30581
5.30201
5.29802
5.29386
5.17791
5.18241
5.18671
5.19082
5.19471
5.19839
5.20185
5.20509
5.2081
5.21087
5.2134
5.21569
5.21774
5.21954
5.22109
5.22238
5.22341
5.22419
5.22471
5.22497
5.22497
5.22471
5.22419
5.2234
5.22237
5.22108
5.21953
5.21773
5.21567
5.21338
5.21085
5.20807
5.20506
5.20182
5.19836
5.19468
5.19078
5.18668
5.18237
5.17787
5.06193
5.06676
5.07138
5.07579
5.07998
5.08393
5.08765
5.09112
5.09435
5.09733
5.10006
5.10252
5.10472
5.10665
5.10831
5.1097
5.1108
5.11164
5.1122
5.11248
5.11248
5.11219
5.11163
5.1108
5.10968
5.1083
5.10663
5.1047
5.10249
5.10003
5.09731
5.09432
5.09109
5.08761
5.08389
5.07994
5.07575
5.07135
5.06672
5.06189
4.94596
4.95112
4.95606
4.96077
4.96524
4.96947
4.97344
4.97716
4.98061
4.98379
4.98671
4.98934
4.99169
4.99375
4.99553
4.99701
4.9982
4.99909
4.99969
4.99998
4.99998
4.99968
4.99908
4.99819
4.997
4.99551
4.99374
4.99167
4.98932
4.98668
4.98377
4.98058
4.97713
4.97341
4.96943
4.9652
4.96073
4.95602
4.95107
4.94591
4.82998
4.83547
4.84073
4.84575
4.85051
4.85501
4.85924
4.86319
4.86687
4.87026
4.87336
4.87616
4.87866
4.88086
4.88275
4.88433
4.88559
4.88654
4.88717
4.88749
4.88749
4.88717
4.88653
4.88558
4.88431
4.88273
4.88084
4.87864
4.87614
4.87333
4.87023
4.86684
4.86316
4.8592
4.85497
4.85046
4.8457
4.84069
4.83543
4.82993
4.714
4.71983
4.72541
4.73073
4.73578
4.74055
4.74503
4.74923
4.75313
4.75672
4.76001
4.76298
4.76564
4.76797
4.76997
4.77164
4.77299
4.77399
4.77466
4.775
4.775
4.77466
4.77399
4.77298
4.77163
4.76995
4.76795
4.76561
4.76296
4.75998
4.75669
4.75309
4.74919
4.74499
4.7405
4.73573
4.73068
4.72536
4.71978
4.71395
4.59803
4.60419
4.61009
4.61571
4.62105
4.62609
4.63083
4.63527
4.63939
4.64319
4.64667
4.64981
4.65261
4.65508
4.65719
4.65896
4.66038
4.66145
4.66216
4.66251
4.66251
4.66215
4.66144
4.66037
4.65895
4.65717
4.65505
4.65259
4.64978
4.64663
4.64316
4.63935
4.63523
4.63079
4.62604
4.621
4.61566
4.61003
4.60414
4.59797
4.48206
4.48855
4.49477
4.50069
4.50632
4.51164
4.51664
4.52131
4.52565
4.52966
4.53332
4.53663
4.53959
4.54219
4.54442
4.54628
4.54778
4.5489
4.54966
4.55003
4.55003
4.54965
4.5489
4.54777
4.54627
4.5444
4.54216
4.53956
4.5366
4.53329
4.52962
4.52561
4.52126
4.51659
4.51159
4.50626
4.50064
4.49471
4.48849
4.48199
4.36608
4.37291
4.37945
4.38567
4.39159
4.39718
4.40244
4.40735
4.41192
4.41613
4.41998
4.42346
4.42657
4.4293
4.43164
4.43361
4.43518
4.43636
4.43715
4.43755
4.43754
4.43715
4.43635
4.43517
4.43359
4.43162
4.42927
4.42654
4.42343
4.41994
4.41609
4.41187
4.4073
4.40239
4.39713
4.39153
4.38561
4.37938
4.37285
4.36601
4.25011
4.25728
4.26413
4.27066
4.27686
4.28273
4.28824
4.29339
4.29819
4.3026
4.30664
4.31029
4.31355
4.31641
4.31887
4.32093
4.32258
4.32382
4.32465
4.32506
4.32506
4.32464
4.32381
4.32257
4.32091
4.31885
4.31638
4.31352
4.31025
4.3066
4.30256
4.29814
4.29334
4.28818
4.28267
4.2768
4.27059
4.26406
4.2572
4.25004
4.13415
4.14164
4.14881
4.15565
4.16214
4.16828
4.17404
4.17944
4.18445
4.18908
4.1933
4.19713
4.20053
4.20353
4.2061
4.20826
4.20998
4.21128
4.21215
4.21258
4.21258
4.21214
4.21127
4.20997
4.20823
4.20608
4.2035
4.2005
4.19708
4.19325
4.18903
4.1844
4.17938
4.17398
4.16821
4.16207
4.15558
4.14874
4.14157
4.13407
4.01818
4.02601
4.0335
4.04064
4.04742
4.05383
4.05985
4.06549
4.07073
4.07555
4.07997
4.08396
4.08752
4.09065
4.09334
4.09559
4.09739
4.09874
4.09965
4.1001
4.1001
4.09964
4.09873
4.09737
4.09556
4.09331
4.09061
4.08748
4.08391
4.07992
4.0755
4.07067
4.06543
4.05979
4.05376
4.04735
4.04056
4.03342
4.02592
4.01809
3.90222
3.91038
3.91819
3.92563
3.9327
3.93938
3.94567
3.95154
3.957
3.96203
3.96663
3.97079
3.97451
3.97777
3.98058
3.98292
3.9848
3.98621
3.98715
3.98762
3.98762
3.98714
3.98619
3.98478
3.98289
3.98054
3.97773
3.97446
3.97074
3.96658
3.96197
3.95693
3.95147
3.94559
3.9393
3.93262
3.92555
3.9181
3.91028
3.90212
3.78626
3.79475
3.80288
3.81064
3.81799
3.82495
3.83148
3.8376
3.84328
3.84852
3.85331
3.85763
3.8615
3.8649
3.86782
3.87026
3.87221
3.87368
3.87466
3.87515
3.87515
3.87465
3.87366
3.87219
3.87022
3.86778
3.86485
3.86145
3.85758
3.85324
3.84845
3.8432
3.83752
3.8314
3.82486
3.8179
3.81054
3.80278
3.79465
3.78615
3.67031
3.67913
3.68758
3.69564
3.70328
3.71051
3.7173
3.72366
3.72956
3.73501
3.73998
3.74448
3.7485
3.75203
3.75506
3.7576
3.75963
3.76116
3.76217
3.76268
3.76268
3.76216
3.76114
3.7596
3.75756
3.75502
3.75198
3.74844
3.74442
3.73991
3.73493
3.72947
3.72357
3.71721
3.71041
3.70318
3.69552
3.68747
3.67901
3.67018
3.55436
3.56352
3.57228
3.58064
3.58857
3.59607
3.60313
3.60972
3.61585
3.6215
3.62666
3.63133
3.6355
3.63917
3.64231
3.64494
3.64705
3.64863
3.64969
3.65022
3.65021
3.64968
3.64861
3.64702
3.6449
3.64226
3.63911
3.63544
3.63126
3.62659
3.62141
3.61576
3.60962
3.60302
3.59596
3.58846
3.58052
3.57215
3.56338
3.55422
3.43841
3.44791
3.45699
3.46566
3.47388
3.48165
3.48896
3.49579
3.50215
3.508
3.51335
3.51819
3.52252
3.52631
3.52957
3.53229
3.53448
3.53612
3.53721
3.53776
3.53775
3.5372
3.5361
3.53444
3.53225
3.52951
3.52624
3.52244
3.51811
3.51326
3.5079
3.50204
3.49568
3.48884
3.48152
3.47374
3.46551
3.45685
3.44776
3.43825
3.32247
3.3323
3.34171
3.35068
3.35919
3.36723
3.3748
3.38188
3.38845
3.39451
3.40005
3.40506
3.40953
3.41346
3.41683
3.41965
3.42192
3.42361
3.42474
3.42531
3.4253
3.42472
3.42358
3.42187
3.4196
3.41677
3.41338
3.40944
3.40496
3.39994
3.39439
3.38832
3.38174
3.37466
3.36708
3.35903
3.35052
3.34154
3.33213
3.3223
3.20655
3.21671
3.22644
3.23571
3.24451
3.25283
3.26065
3.26796
3.27476
3.28102
3.28675
3.29193
3.29656
3.30062
3.30411
3.30702
3.30936
3.31112
3.31228
3.31287
3.31286
3.31226
3.31108
3.30931
3.30696
3.30403
3.30053
3.29645
3.29182
3.28663
3.28089
3.27461
3.26781
3.26048
3.25265
3.24433
3.23552
3.22624
3.21651
3.20634
3.09063
3.10113
3.11118
3.12075
3.12984
3.13843
3.14651
3.15407
3.16109
3.16756
3.17347
3.17882
3.1836
3.18779
3.1914
3.19441
3.19682
3.19863
3.19984
3.20044
3.20043
3.19981
3.19859
3.19676
3.19433
3.19131
3.18768
3.18348
3.17868
3.17333
3.1674
3.16091
3.15388
3.14632
3.13823
3.12962
3.12053
3.11095
3.1009
3.09039
2.97474
2.98557
2.99593
3.00581
3.01519
3.02406
3.03239
3.04019
3.04743
3.05411
3.06021
3.06573
3.07066
3.07498
3.0787
3.0818
3.0843
3.08617
3.0874
3.08802
3.08801
3.08737
3.08611
3.08423
3.08171
3.07859
3.07485
3.07051
3.06557
3.06003
3.05391
3.04722
3.03996
3.03216
3.02381
3.01494
3.00554
2.99566
2.98529
2.97445
2.85886
2.87002
2.88071
2.8909
2.90056
2.9097
2.9183
2.92633
2.9338
2.94069
2.94698
2.95266
2.95774
2.9622
2.96603
2.96923
2.97179
2.97372
2.975
2.97563
2.97562
2.97496
2.97365
2.97171
2.96912
2.96589
2.96204
2.95756
2.95246
2.94675
2.94044
2.93355
2.92606
2.91801
2.9094
2.90025
2.89058
2.88038
2.86969
2.85852
2.74301
2.75451
2.76552
2.77601
2.78597
2.79538
2.80423
2.81251
2.8202
2.82729
2.83377
2.83963
2.84486
2.84945
2.85339
2.85669
2.85933
2.8613
2.86262
2.86327
2.86325
2.86257
2.86122
2.85921
2.85654
2.85322
2.84924
2.84463
2.83938
2.83349
2.82699
2.81988
2.81217
2.80388
2.79501
2.78558
2.77561
2.76511
2.7541
2.74259
2.6272
2.63904
2.65037
2.66117
2.67142
2.68111
2.69022
2.69874
2.70665
2.71395
2.72062
2.72665
2.73202
2.73674
2.7408
2.74419
2.7469
2.74894
2.75028
2.75094
2.75092
2.75022
2.74883
2.74675
2.744
2.74057
2.73648
2.73172
2.72631
2.72025
2.71356
2.70624
2.6983
2.68976
2.68063
2.67094
2.66066
2.64985
2.63852
2.62667
2.51146
2.52364
2.5353
2.5464
2.55695
2.56692
2.57628
2.58505
2.59318
2.60069
2.60754
2.61374
2.61927
2.62412
2.62829
2.63177
2.63455
2.63663
2.63801
2.63869
2.63866
2.63792
2.63648
2.63434
2.63151
2.62797
2.62375
2.61886
2.61328
2.60705
2.60015
2.59263
2.58446
2.57567
2.56628
2.5563
2.54574
2.53462
2.52296
2.51077
2.39582
2.40835
2.42033
2.43176
2.4426
2.45284
2.46248
2.47149
2.47985
2.48757
2.49461
2.50097
2.50665
2.51163
2.51591
2.51947
2.52232
2.52445
2.52586
2.52654
2.52649
2.52572
2.52424
2.52202
2.51909
2.51545
2.5111
2.50605
2.50032
2.4939
2.48681
2.47905
2.47065
2.46162
2.45196
2.44169
2.43084
2.41941
2.40743
2.3949
2.28038
2.29326
2.30559
2.31733
2.32848
2.33902
2.34892
2.35818
2.36679
2.37471
2.38194
2.38848
2.39429
2.3994
2.40377
2.40742
2.41033
2.41249
2.41391
2.41458
2.41451
2.41369
2.41214
2.40984
2.4068
2.40304
2.39855
2.39335
2.38744
2.38083
2.37353
2.36555
2.35692
2.34762
2.33769
2.32714
2.31598
2.30424
2.29192
2.27905
2.16535
2.17862
2.19131
2.20341
2.21489
2.22575
2.23595
2.24548
2.25432
2.26246
2.26989
2.27659
2.28255
2.28775
2.29222
2.29591
2.29884
2.30102
2.3024
2.30305
2.30291
2.30202
2.30035
2.29794
2.29477
2.29085
2.28621
2.28082
2.27472
2.2679
2.26037
2.25216
2.24327
2.23371
2.22349
2.21265
2.20118
2.18911
2.17647
2.16325
6.5621
6.31503
6.06796
5.82088
5.57379
5.3267
5.0796
4.8325
4.58539
4.33828
4.09117
3.84405
3.59693
3.34981
3.10268
2.85555
2.60842
2.36129
2.11416
1.86703
1.61989
1.37276
1.12563
0.878496
0.631365
0.384237
0.137112
-0.110012
-0.357133
-0.604251
-0.851365
-1.09847
-1.34558
-1.59268
-1.83978
-2.08687
-2.33396
-2.58104
-2.82811
-3.07518
6.44889
6.20771
5.96651
5.7253
5.48406
5.24281
5.00155
4.76027
4.51897
4.27766
4.03635
3.79502
3.55368
3.31234
3.07099
2.82962
2.58826
2.34689
2.10552
1.86415
1.62277
1.3814
1.14003
0.898657
0.657293
0.415933
0.174579
-0.0667678
-0.308105
-0.549434
-0.790751
-1.03206
-1.27335
-1.51463
-1.75589
-1.99715
-2.23838
-2.4796
-2.72079
-2.96197
6.33568
6.10039
5.86507
5.62972
5.39434
5.15893
4.92349
4.68804
4.45256
4.21705
3.98153
3.74599
3.51044
3.27487
3.03929
2.8037
2.5681
2.33249
2.09688
1.86127
1.62565
1.39004
1.15443
0.918819
0.683219
0.447628
0.212047
-0.023522
-0.259077
-0.494616
-0.730138
-0.96564
-1.20112
-1.43658
-1.67201
-1.90742
-2.1428
-2.37816
-2.61348
-2.84876
6.22247
5.99307
5.76363
5.53414
5.30461
5.07505
4.84544
4.61581
4.38614
4.15644
3.92671
3.69697
3.46719
3.2374
3.00759
2.77777
2.54793
2.31809
2.08824
1.85839
1.62853
1.39867
1.16882
0.93898
0.709145
0.479323
0.249515
0.0197231
-0.210049
-0.439799
-0.669524
-0.899223
-1.12889
-1.35853
-1.58813
-1.8177
-2.04723
-2.27671
-2.50616
-2.73556
6.10926
5.88575
5.66219
5.43856
5.21489
4.99116
4.76739
4.54358
4.31972
4.09583
3.8719
3.64794
3.42395
3.19993
2.9759
2.75184
2.52777
2.30369
2.0796
1.85551
1.63141
1.40731
1.18322
0.959142
0.735072
0.511018
0.286981
0.0629678
-0.161022
-0.384981
-0.608911
-0.832805
-1.05666
-1.28048
-1.50425
-1.72797
-1.95165
-2.17527
-2.39884
-2.62235
5.99606
5.77844
5.56075
5.34299
5.12516
4.90728
4.68934
4.47135
4.2533
4.03521
3.81708
3.59891
3.3807
3.16247
2.9442
2.72592
2.50761
2.28929
2.07096
1.85263
1.63429
1.41595
1.19762
0.979302
0.760999
0.542712
0.324449
0.106212
-0.111993
-0.330166
-0.548297
-0.766388
-0.984432
-1.20243
-1.42037
-1.63825
-1.85607
-2.07383
-2.29152
-2.50914
5.88285
5.67112
5.45931
5.24741
5.03544
4.8234
4.61129
4.39912
4.18689
3.9746
3.76226
3.54988
3.33746
3.125
2.91251
2.69999
2.48745
2.27489
2.06232
1.84975
1.63717
1.42459
1.21202
0.999463
0.786925
0.574407
0.361916
0.149457
-0.0629667
-0.275348
-0.487685
-0.69997
-0.912202
-1.12438
-1.33648
-1.54852
-1.76049
-1.97239
-2.1842
-2.39594
5.76965
5.5638
5.35786
5.15184
4.94572
4.73952
4.53324
4.32689
4.12047
3.91399
3.70745
3.50085
3.29421
3.08753
2.88081
2.67407
2.46729
2.26049
2.05368
1.84687
1.64005
1.43323
1.22642
1.01962
0.812852
0.606102
0.399383
0.192701
-0.0139388
-0.220532
-0.427072
-0.633555
-0.839973
-1.04632
-1.2526
-1.4588
-1.66492
-1.87095
-2.07689
-2.28273
5.65644
5.45649
5.25643
5.05626
4.85599
4.65564
4.45519
4.25466
4.05405
3.85338
3.65263
3.45183
3.25097
3.05006
2.84912
2.64814
2.44713
2.24609
2.04504
1.84399
1.64293
1.44187
1.24082
1.03979
0.838777
0.637796
0.436851
0.235945
0.0350887
-0.165716
-0.366459
-0.567137
-0.767744
-0.968273
-1.16872
-1.36908
-1.56934
-1.76951
-1.96957
-2.16952
5.54324
5.34917
5.15499
4.96068
4.76627
4.57175
4.37714
4.18243
3.98764
3.79276
3.59781
3.4028
3.20772
3.0126
2.81742
2.62221
2.42697
2.2317
2.03641
1.84111
1.64581
1.45051
1.25522
1.05995
0.864704
0.669491
0.474317
0.27919
0.0841147
-0.110899
-0.305847
-0.500721
-0.695516
-0.890223
-1.08484
-1.27936
-1.47377
-1.66807
-1.86226
-2.05632
5.43003
5.24186