/*--------------------------------*- C++ -*----------------------------------*\
  =========                 |
  \\      /  F ield         | OpenFOAM: The Open Source CFD Toolbox
   \\    /   O peration     | Website:  https://openfoam.org
    \\  /    A nd           | Version:  11
     \\/     M anipulation  |
\*---------------------------------------------------------------------------*/
FoamFile
{
    format      ascii;
    class       volScalarField;
    location    "8";
    object      mag(U);
}
// * * * * * * * * * * * * * * * * * * * * * * * * * * * * * * * * * * * * * //

dimensions      [0 1 -1 0 0 0 0];

internalField   nonuniform List<scalar> 
9600
(
0.964267
0.961739
0.957397
0.952475
0.949145
0.945242
0.93759
0.931707
0.928945
0.926576
0.921007
0.917973
0.919009
0.92191
0.926353
0.93301
0.94392
0.953289
0.964014
0.980626
1.00024
1.00843
1.00732
1.00342
0.994386
0.97236
0.935745
0.90357
0.873501
0.846805
0.824329
0.809813
0.802993
0.805644
0.826772
0.858116
0.917831
0.96633
1.1259
1.22046
0.967197
0.965847
0.964057
0.961698
0.958123
0.955813
0.953185
0.950186
0.947804
0.94599
0.946158
0.94711
0.949467
0.953539
0.95889
0.969852
0.98065
0.99173
1.00516
1.01721
1.03092
1.04931
1.06149
1.06337
1.06228
1.05819
1.04885
1.02886
1.00035
0.968491
0.937034
0.910728
0.89164
0.879403
0.876462
0.879415
0.910579
0.959469
1.06575
1.22403
0.965432
0.964361
0.962762
0.960676
0.95729
0.954934
0.953018
0.950369
0.947911
0.946429
0.946399
0.947066
0.949809
0.954145
0.959685
0.96928
0.980786
0.993866
1.00798
1.01975
1.02955
1.04258
1.05849
1.06943
1.07323
1.07273
1.06867
1.05666
1.02737
0.992154
0.955764
0.923454
0.898833
0.885588
0.883112
0.885336
0.902133
0.954488
1.00874
1.16274
0.96554
0.964073
0.962158
0.959722
0.956211
0.953869
0.952094
0.949436
0.947344
0.946231
0.946296
0.947411
0.950297
0.955052
0.960746
0.970246
0.981682
0.993716
1.00801
1.02221
1.03229
1.04072
1.05312
1.06638
1.07535
1.07849
1.07777
1.07111
1.05206
1.02296
0.992419
0.959203
0.929916
0.901271
0.888998
0.88104
0.890778
0.937716
0.986944
1.12618
0.964635
0.963064
0.961069
0.958296
0.955262
0.953283
0.951475
0.949256
0.947497
0.946727
0.947086
0.948235
0.950607
0.955438
0.96251
0.970555
0.981095
0.993561
1.00795
1.02319
1.03556
1.04251
1.04996
1.06037
1.07226
1.08067
1.08578
1.08416
1.0749
1.05044
1.01733
0.980024
0.945643
0.913698
0.897948
0.887261
0.887896
0.915804
0.941115
1.06379
0.964129
0.962385
0.959962
0.957498
0.95471
0.95234
0.950667
0.948712
0.946976
0.946461
0.946699
0.948425
0.950818
0.955575
0.963682
0.97148
0.981523
0.994256
1.00862
1.0221
1.03498
1.04373
1.05108
1.05858
1.06998
1.08009
1.08843
1.08915
1.0847
1.06646
1.04093
1.00466
0.97022
0.930947
0.907753
0.888842
0.880726
0.899178
0.915781
1.02636
0.963036
0.96115
0.958671
0.956244
0.953462
0.95135
0.949641
0.948119
0.946677
0.946472
0.947181
0.948867
0.95167
0.956374
0.964117
0.971648
0.982356
0.994947
1.00948
1.02126
1.03541
1.04464
1.05346
1.05846
1.06755
1.07687
1.08845
1.0925
1.09283
1.08011
1.05898
1.02358
0.991158
0.950602
0.920418
0.897682
0.880473
0.887197
0.888266
0.962416
0.962274
0.960293
0.957732
0.955266
0.952723
0.950765
0.949062
0.947771
0.946419
0.946354
0.947007
0.948914
0.951939
0.956564
0.964722
0.97243
0.983965
0.995034
1.0103
1.02123
1.03521
1.04429
1.0542
1.05911
1.06643
1.07455
1.08804
1.09395
1.09738
1.08724
1.074
1.0416
1.01107
0.971524
0.935006
0.910622
0.877455
0.876387
0.867873
0.926006
0.960911
0.959026
0.956325
0.954032
0.951517
0.94975
0.948193
0.947046
0.945942
0.946141
0.946912
0.949
0.952756
0.956978
0.965462
0.972805
0.985155
0.995309
1.01167
1.02185
1.03537
1.04368
1.05503
1.0603
1.0676
1.07384
1.08532
1.09323
1.10193
1.09429
1.08462
1.05691
1.02741
0.991789
0.948803
0.923713
0.884651
0.876163
0.855984
0.880417
0.960151
0.958177
0.955257
0.953167
0.950716
0.949085
0.947577
0.946662
0.945413
0.945852
0.947107
0.948753
0.953221
0.957686
0.965939
0.97335
0.986495
0.996281
1.01194
1.02228
1.03626
1.04346
1.05477
1.06016
1.06777
1.07324
1.08313
1.09147
1.1043
1.10016
1.09493
1.07285
1.04214
1.00913
0.964411
0.940776
0.896101
0.878857
0.844218
0.855608
0.958696
0.956791
0.953886
0.951739
0.949575
0.94823
0.946606
0.945983
0.945096
0.945035
0.947149
0.948482
0.953971
0.957643
0.967091
0.973774
0.988262
0.997137
1.01269
1.02265
1.03779
1.04382
1.05454
1.05909
1.06801
1.07338
1.08345
1.09012
1.10461
1.10451
1.10391
1.08913
1.05525
1.0291
0.981808
0.957205
0.906777
0.886376
0.845945
0.843045
0.957856
0.955861
0.952959
0.950633
0.948675
0.947542
0.945674
0.945205
0.944871
0.944212
0.94699
0.948354
0.954309
0.958022
0.96802
0.974657
0.988407
0.998376
1.01496
1.02324
1.03756
1.04354
1.05511
1.05905
1.06788
1.07274
1.08292
1.08903
1.10312
1.10938
1.10708
1.10149
1.07557
1.04786
0.998913
0.974423
0.924859
0.901019
0.851994
0.839831
0.95637
0.954382
0.95158
0.949462
0.947232
0.946419
0.945204
0.94366
0.944552
0.943847
0.946882
0.948058
0.954716
0.958543
0.968879
0.975495
0.989394
0.999243
1.01664
1.0249
1.03861
1.04383
1.05523
1.05885
1.06725
1.07189
1.08147
1.09023
1.09923
1.11464
1.11288
1.11291
1.08943
1.06967
1.02031
0.993443
0.94499
0.91417
0.866006
0.841898
0.955408
0.95341
0.950434
0.948259
0.946402
0.944968
0.944461
0.943005
0.943648
0.942976
0.94669
0.947775
0.954494
0.958544
0.969543
0.97655
0.990949
1.00024
1.01749
1.02582
1.04062
1.04488
1.05501
1.05789
1.06538
1.07175
1.07856
1.09279
1.09941
1.11427
1.11744
1.12406
1.10369
1.08534
1.04973
1.01027
0.968127
0.935379
0.884641
0.853089
0.953689
0.951933
0.948914
0.946775
0.945423
0.943692
0.94329
0.94192
0.943276
0.942254
0.946234
0.947525
0.954895
0.958899
0.970207
0.977441
0.992441
1.00176
1.01919
1.0275
1.04209
1.04675
1.05483
1.05845
1.06213
1.07144
1.07794
1.09086
1.09966
1.11549
1.12116
1.12774
1.12332
1.09703
1.077
1.03379
0.993246
0.962381
0.913481
0.863381
0.952513
0.950694
0.947693
0.945487
0.94387
0.942542
0.942195
0.940331
0.94225
0.941209
0.945538
0.946881
0.954621
0.958828
0.970721
0.978195
0.993678
1.00326
1.02039
1.03072
1.0419
1.05087
1.05356
1.05963
1.06184
1.06789
1.07429
1.08936
1.09887
1.1157
1.12649
1.13068
1.13809
1.1147
1.09336
1.06608
1.01743
0.981262
0.94429
0.891688
0.95081
0.948951
0.946003
0.943794
0.942538
0.94063
0.94136
0.939265
0.941506
0.940441
0.945232
0.946513
0.954812
0.95918
0.971556
0.979798
0.994112
1.0073
1.01948
1.03556
1.04185
1.05346
1.05594
1.05987
1.06132
1.06533
1.07107
1.0858
1.09716
1.11332
1.1321
1.13487
1.1466
1.13893
1.10867
1.08892
1.05061
1.00706
0.975053
0.918184
0.949377
0.947521
0.944263
0.942133
0.941077
0.938604
0.939806
0.937444
0.940062
0.938943
0.944321
0.945672
0.953913
0.960159
0.970129
0.983289
0.992526
1.01163
1.02092
1.03728
1.04477
1.05475
1.05741
1.06077
1.06185
1.06297
1.06735
1.0788
1.09546
1.10879
1.13371
1.14331
1.14928
1.15696
1.13368
1.10891
1.07924
1.03502
1.00691
0.946999
0.947608
0.9457
0.94335
0.940078
0.939636
0.937024
0.938595
0.936023
0.939051
0.938009
0.943089
0.947451
0.951504
0.962961
0.969499
0.985131
0.994876
1.01358
1.02383
1.03999
1.04767
1.0571
1.05964
1.06152
1.06155
1.06152
1.06515
1.07162
1.0891
1.10587
1.12854
1.15197
1.15581
1.16885
1.15771
1.13627
1.11054
1.06369
1.03831
0.979933
0.945725
0.943279
0.941538
0.93794
0.937745
0.934691
0.936515
0.933918
0.936681
0.938095
0.939297
0.947722
0.95111
0.962974
0.969808
0.986224
0.99629
1.01497
1.02684
1.04155
1.05198
1.05776
1.06364
1.06264
1.06093
1.06013
1.06164
1.06664
1.08052
1.10087
1.12111
1.1522
1.16464
1.17975
1.18088
1.1595
1.14326
1.09764
1.07335
1.01296
0.943675
0.941153
0.939479
0.935932
0.935951
0.932855
0.934201
0.933927
0.93285
0.938584
0.93873
0.947235
0.950828
0.963861
0.971302
0.988216
0.998884
1.01708
1.03121
1.04326
1.05673
1.06005
1.06629
1.06552
1.06156
1.05863
1.05833
1.06066
1.07229
1.08992
1.11345
1.14842
1.16899
1.18667
1.20364
1.18495
1.17653
1.13314
1.11228
1.05071
0.941114
0.938424
0.936777
0.933138
0.932852
0.931614
0.929156
0.932739
0.930464
0.936086
0.936319
0.946199
0.950062
0.963619
0.971325
0.989172
1.00106
1.01865
1.03496
1.046
1.05961
1.06399
1.06856
1.06755
1.06259
1.05741
1.05489
1.0538
1.06318
1.07957
1.10042
1.13585
1.17184
1.18756
1.21962
1.21252
1.21168
1.16993
1.15317
1.09148
0.938687
0.935864
0.934211
0.93193
0.928697
0.930545
0.927215
0.931111
0.928911
0.93542
0.935755
0.946164
0.95042
0.964772
0.973545
0.991334
1.00489
1.02196
1.03823
1.05173
1.06258
1.0691
1.07201
1.0712
1.06514
1.05761
1.05243
1.04796
1.05329
1.06664
1.08799
1.11574
1.16511
1.1874
1.22674
1.23213
1.24894
1.21275
1.19972
1.13603
0.935027
0.933398
0.929205
0.928646
0.924775
0.92685
0.923296
0.927776
0.925684
0.933217
0.933821
0.944536
0.949926
0.964387
0.975295
0.992248
1.00784
1.02617
1.04133
1.05567
1.06733
1.0733
1.07631
1.07505
1.06818
1.05877
1.05076
1.04238
1.04393
1.04851
1.07321
1.09666
1.14322
1.17722
1.23161
1.24229
1.27925
1.25496
1.25263
1.18723
0.931263
0.930379
0.926548
0.925347
0.923159
0.923644
0.921615
0.926037
0.924476
0.932345
0.934562
0.945204
0.952621
0.966193
0.979571
0.99583
1.01274
1.03074
1.04887
1.06135
1.07391
1.0795
1.0824
1.08073
1.07432
1.06233
1.05188
1.03769
1.03659
1.03191
1.05169
1.07186
1.12126
1.1535
1.22369
1.24363
1.30119
1.29236
1.30804
1.24595
0.926875
0.923691
0.922548
0.918562
0.918735
0.917495
0.916621
0.921843
0.920877
0.928199
0.932813
0.942504
0.952906
0.966344
0.981061
0.999143
1.01806
1.03374
1.05325
1.06886
1.07826
1.08583
1.08909
1.08591
1.07979
1.0667
1.05456
1.03658
1.02926
1.0183
1.03046
1.04186
1.08719
1.12065
1.19659
1.22825
1.31098
1.3172
1.3621
1.30782
0.924738
0.920577
0.919141
0.916499
0.912452
0.916843
0.913748
0.918981
0.921061
0.927324
0.933488
0.943365
0.956182
0.969278
0.985099
1.0049
1.02203
1.0435
1.05912
1.07629
1.087
1.09418
1.09743
1.09375
1.08831
1.07423
1.06029
1.03915
1.02544
1.00779
1.00848
1.01325
1.04514
1.07716
1.15124
1.19197
1.29419
1.3184
1.40692
1.36944
0.918034
0.915954
0.910621
0.911328
0.906714
0.908923
0.909332
0.911725
0.916594
0.922396
0.931307
0.940747
0.955384
0.969604
0.988485
1.00676
1.02767
1.04756
1.06544
1.08195
1.09318
1.10122
1.10499
1.10154
1.09528
1.08249
1.06619
1.04493
1.02438
1.00219
0.989156
0.984608
1.00013
1.02425
1.08691
1.13629
1.24272
1.28509
1.40981
1.41737
0.911944
0.912279
0.907142
0.90755
0.906189
0.905795
0.909039
0.910394
0.918982
0.922046
0.935811
0.942585
0.962741
0.97463
0.998014
1.01483
1.0383
1.05801
1.07707
1.09253
1.10421
1.11391
1.11608
1.114
1.10684
1.09622
1.07797
1.05575
1.03028
1.00479
0.980465
0.963674
0.960296
0.972535
1.00947
1.05946
1.15165
1.22341
1.34305
1.4347
0.901034
0.899359
0.898643
0.894301
0.898255
0.895161
0.904116
0.90288
0.915084
0.918458
0.934722
0.943563
0.963481
0.978258
1.00198
1.02239
1.04449
1.06713
1.08546
1.10115
1.1144
1.12435
1.12622
1.1268
1.12038
1.11116
1.09329
1.07208
1.04446
1.01459
0.980515
0.954705
0.929034
0.927854
0.931843
0.976875
1.02904
1.13393
1.20733
1.2993
0.899164
0.895148
0.89541
0.890397
0.895689
0.892502
0.901266
0.904115
0.914238
0.923809
0.938527
0.951532
0.9718
0.989682
1.01299
1.03453
1.05876
1.08118
1.09868
1.11664
1.12804
1.13856
1.14137
1.14308
1.13749
1.13037
1.11323
1.095
1.06533
1.0374
0.994656
0.963515
0.918134
0.900886
0.873116
0.893513
0.911238
0.987802
1.03058
0.911419
0.88656
0.881029
0.88299
0.879238
0.881671
0.884847
0.891475
0.896888
0.909716
0.918567
0.936881
0.953754
0.972804
0.995707
1.01885
1.04478
1.0665
1.09159
1.10862
1.12919
1.13899
1.15111
1.15402
1.15861
1.15248
1.14984
1.13386
1.12144
1.09138
1.06657
1.02167
0.985382
0.934371
0.894116
0.85523
0.824501
0.830153
0.827076
0.817009
0.628455
0.879389
0.878099
0.878075
0.878129
0.879903
0.885944
0.890995
0.904561
0.913984
0.930493
0.947491
0.968993
0.990012
1.01643
1.03775
1.06735
1.08767
1.11463
1.12986
1.14986
1.16023
1.17215
1.17542
1.1821
1.17719
1.17801
1.16653
1.15661
1.13403
1.1087
1.07469
1.02667
0.987489
0.924582
0.886557
0.818869
0.789845
0.752485
0.69824
0.513299
0.854159
0.86128
0.857376
0.864203
0.866824
0.876179
0.885896
0.900145
0.914573
0.933738
0.953892
0.977266
1.00079
1.02837
1.0533
1.08104
1.10375
1.1277
1.14633
1.16353
1.17515
1.18586
1.19263
1.19677
1.2015
1.20021
1.20148
1.18899
1.18436
1.15475
1.13566
1.0875
1.05126
0.991492
0.93801
0.880884
0.818946
0.752389
0.715234
0.581603
0.848119
0.850563
0.852686
0.855598
0.86467
0.873003
0.89017
0.90547
0.927006
0.947197
0.972787
0.997636
1.0257
1.05213
1.08192
1.10771
1.13473
1.15532
1.17702
1.18908
1.20621
1.21026
1.2238
1.22376
1.23343
1.23799
1.24002
1.24457
1.2363
1.23007
1.20583
1.18097
1.14266
1.09021
1.04545
0.963767
0.918742
0.836439
0.77335
0.69516
0.829739
0.831925
0.842582
0.845919
0.860147
0.873005
0.892359
0.912416
0.937185
0.963155
0.991567
1.02067
1.05114
1.08023
1.11194
1.13697
1.166
1.18344
1.20649
1.2168
1.22987
1.23788
1.24169
1.25414
1.25078
1.272
1.26679
1.28573
1.28358
1.28452
1.28435
1.25652
1.24567
1.20197
1.16074
1.10775
1.03651
0.972338
0.894864
0.810749
0.81633
0.824644
0.843739
0.858646
0.883753
0.906389
0.934148
0.960939
0.989964
1.02059
1.05172
1.08464
1.11579
1.14844
1.17712
1.20452
1.2276
1.24537
1.26016
1.26723
1.27234
1.27329
1.27221
1.27663
1.27275
1.28444
1.28211
1.30283
1.29576
1.32129
1.30538
1.32276
1.28594
1.28826
1.23007
1.21156
1.13452
1.10913
1.01601
0.997552
0.791019
0.803008
0.831055
0.846326
0.875944
0.901954
0.937677
0.971588
1.01123
1.0486
1.08792
1.12423
1.15893
1.19106
1.21878
1.24334
1.2618
1.27438
1.2815
1.28164
1.27896
1.27179
1.2662
1.25896
1.25829
1.2646
1.26458
1.26327
1.25301
1.24576
1.2177
1.21625
1.18007
1.17536
1.11249
1.09333
1.00921
0.997427
0.900047
0.927996
0.845172
0.878136
0.930057
0.965247
1.01259
1.04699
1.09093
1.12369
1.16391
1.19291
1.22653
1.24947
1.27334
1.28853
1.30259
1.31177
1.3195
1.31788
1.31322
1.30014
1.28195
1.26227
1.23298
1.21139
1.18062
1.16226
1.12308
1.09344
1.02302
0.895439
0.737728
0.58276
0.444983
0.360213
0.273714
0.258578
0.196068
0.195769
0.13972
0.192551
0.955198
0.993364
1.02846
1.06541
1.10135
1.13432
1.16402
1.18986
1.21024
1.22551
1.24112
1.24143
1.25185
1.24374
1.24804
1.22989
1.22088
1.19023
1.16395
1.12001
1.0745
1.0156
0.941485
0.87375
0.766668
0.720312
0.549509
0.159591
0.0116357
0.0290558
0.060921
0.117222
0.155062
0.188415
0.209868
0.23399
0.249841
0.267136
0.281786
0.272317
1.43938
1.53735
1.30865
0.736899
0.562889
0.634132
0.76619
0.878353
0.966457
1.00083
1.01873
1.0238
1.02409
1.02714
1.02382
1.02596
1.02333
1.02421
1.02238
1.02297
1.02142
1.02187
1.02079
1.02098
1.01983
1.01974
1.01864
1.01867
1.01791
1.01795
1.0172
1.01706
1.01623
1.01605
1.0153
1.0151
1.01458
1.01446
1.01485
1.01532
1.40885
1.48585
1.26749
0.798066
0.642608
0.676406
0.790026
0.889291
0.974317
1.00606
1.02316
1.02826
1.02689
1.02994
1.02592
1.02791
1.02478
1.02575
1.02351
1.02403
1.02236
1.02265
1.0213
1.02161
1.02033
1.02038
1.01911
1.01915
1.01824
1.01843
1.01767
1.01772
1.01678
1.01662
1.01579
1.01563
1.01507
1.01493
1.01437
1.01191
1.31676
1.44635
1.31318
0.879221
0.71089
0.720101
0.825838
0.915937
0.992798
1.0197
1.03194
1.03408
1.03101
1.03295
1.02802
1.0298
1.02621
1.02698
1.02457
1.02505
1.02315
1.02347
1.02201
1.02228
1.02093
1.02106
1.01974
1.0197
1.01874
1.01887
1.01807
1.01821
1.01719
1.01701
1.01616
1.0161
1.01553
1.01552
1.01561
1.01655
1.28181
1.37135
1.25969
0.931217
0.784327
0.768146
0.854332
0.932489
1.00829
1.03269
1.03976
1.03975
1.03505
1.03601
1.03033
1.03177
1.02784
1.02836
1.02573
1.0261
1.02404
1.02429
1.02282
1.02308
1.02185
1.02195
1.02062
1.02053
1.01957
1.01963
1.01889
1.01898
1.01809
1.01785
1.01678
1.01652
1.01583
1.01572
1.0151
1.01427
1.16924
1.31014
1.25696
0.966914
0.82735
0.806544
0.888772
0.966769
1.03431
1.05261
1.05259
1.04801
1.04054
1.03982
1.03305
1.0337
1.02948
1.02959
1.02701
1.02719
1.02502
1.02519
1.02356
1.02374
1.02248
1.02257
1.02135
1.02126
1.02021
1.02018
1.01945
1.01955
1.01873
1.01846
1.01749
1.01729
1.01651
1.0163
1.01585
1.01583
1.12055
1.21242
1.18157
0.974691
0.849345
0.838191
0.912348
0.987515
1.05818
1.07402
1.06634
1.05655
1.04682
1.04388
1.03597
1.03593
1.03142
1.03099
1.02835
1.02814
1.02588
1.02591
1.02411
1.02421
1.02287
1.02288
1.02166
1.02155
1.02049
1.02045
1.01971
1.01979
1.01915
1.01898
1.01795
1.01756
1.01694
1.01671
1.01623
1.01591
1.00918
1.13917
1.13536
0.969286
0.857699
0.857192
0.938501
1.027
1.09241
1.09972
1.0862
1.06788
1.0547
1.04917
1.03977
1.03853
1.03381
1.03276
1.03012
1.02942
1.02713
1.02689
1.02495
1.02494
1.02354
1.0235
1.02229
1.02206
1.02104
1.0209
1.02016
1.02017
1.01966
1.01966
1.01906
1.01859
1.0178
1.01741
1.01675
1.01585
0.953177
1.03441
1.04186
0.931714
0.852911
0.8616
0.942694
1.04616
1.12506
1.12727
1.10776
1.07941
1.06344
1.0547
1.04377
1.04153
1.03634
1.03429
1.03202
1.0307
1.02867
1.02818
1.02625
1.02617
1.02474
1.0246
1.02348
1.02314
1.0222
1.02188
1.0211
1.02085
1.0204
1.0201
1.01969
1.01919
1.01866
1.01805
1.01787
1.01732
0.850087
0.949183
0.980885
0.888158
0.841539
0.853514
0.940405
1.06276
1.16572
1.16051
1.13412
1.09325
1.07335
1.06123
1.04816
1.04464
1.03909
1.03608
1.03424
1.03233
1.0307
1.02988
1.0281
1.02774
1.02641
1.02591
1.02499
1.02419
1.02348
1.02281
1.02218
1.02151
1.02119
1.02068
1.02041
1.01989
1.01955
1.01874
1.01824
1.01721
0.800718
0.85459
0.895174
0.838502
0.807976
0.826598
0.920058
1.06397
1.19182
1.1988
1.16165
1.10811
1.08286
1.06787
1.05229
1.04737
1.04144
1.03726
1.03581
1.03316
1.03194
1.03065
1.02911
1.02829
1.0272
1.0263
1.02569
1.0245
1.02405
1.02307
1.02272
1.02167
1.02155
1.0208
1.02069
1.02006
1.01998
1.01944
1.01931
1.01882
0.750607
0.794683
0.8386
0.795967
0.765756
0.785005
0.880162
1.05153
1.20332
1.23911
1.19396
1.12685
1.09307
1.07601
1.05752
1.05095
1.04427
1.03891
1.0374
1.03408
1.03302
1.03127
1.02995
1.02878
1.02784
1.02666
1.02626
1.02482
1.0246
1.02345
1.02333
1.02221
1.02195
1.02113
1.02105
1.02055
1.02044
1.0197
1.01952
1.01875
0.753177
0.77023
0.787573
0.754138
0.720306
0.735036
0.826983
1.01376
1.19763
1.266
1.23057
1.14734
1.10351
1.08462
1.06349
1.05482
1.04769
1.04144
1.03923
1.03567
1.0345
1.03238
1.03138
1.02991
1.02908
1.02778
1.0274
1.02604
1.02579
1.02452
1.02423
1.02311
1.02273
1.02172
1.02142
1.02095
1.02089
1.02048
1.02026
1.01997
0.767707
0.782368
0.782234
0.739524
0.701225
0.707516
0.788556
0.969797
1.17842
1.26582
1.26635
1.16926
1.11524
1.09282
1.07041
1.05902
1.05197
1.04517
1.04205
1.03871
1.03715
1.03496
1.03372
1.03254
1.03109
1.03008
1.02928
1.02813
1.0276
1.02649
1.02597
1.0252
1.02447
1.02365
1.02283
1.02207
1.02152
1.02099
1.02066
1.02009
0.800435
0.811334
0.80348
0.76723
0.721194
0.73279
0.798228
0.952307
1.14487
1.24976
1.27759
1.19142
1.12467
1.09736
1.07609
1.06158
1.05464
1.04778
1.04393
1.04061
1.03855
1.03665
1.03481
1.0341
1.03222
1.03134
1.03027
1.02929
1.02837
1.02763
1.02673
1.02631
1.0254
1.02511
1.02409
1.02346
1.02244
1.02201
1.0213
1.02109
0.834253
0.846165
0.838205
0.809747
0.790291
0.821228
0.878074
0.991021
1.10247
1.20914
1.25775
1.20866
1.13271
1.09995
1.08146
1.06409
1.05565
1.04965
1.04485
1.04169
1.03932
1.03751
1.03553
1.03476
1.03289
1.03183
1.0308
1.0298
1.02891
1.02832
1.02732
1.02703
1.02597
1.02582
1.0249
1.02447
1.02324
1.0227
1.02194
1.02138
0.86973
0.873388
0.872975
0.851142
0.84389
0.882064
0.938757
1.01038
1.07697
1.14086
1.20844
1.21121
1.13912
1.10072
1.08522
1.0673
1.05698
1.05201
1.04644
1.04369
1.04076
1.03887
1.03676
1.03564
1.03418
1.0326
1.03172
1.03035
1.02935
1.02864
1.02761
1.02726
1.02633
1.02606
1.0253
1.02491
1.0242
1.02337
1.02287
1.02239
0.901535
0.903851
0.908506
0.892375
0.887399
0.913435
0.954525
1.00606
1.04804
1.0762
1.13562
1.18794
1.13876
1.09853
1.08598
1.07155
1.05952
1.05542
1.04942
1.04684
1.04391
1.04154
1.03964
1.03807
1.03704
1.03513
1.03439
1.03276
1.03155
1.03033
1.02918
1.02844
1.02751
1.02686
1.02624
1.02555
1.02512
1.02427
1.02377
1.02316
0.934586
0.933323
0.943784
0.933355
0.921882
0.933559
0.958112
0.984685
1.01319
1.01763
1.05518
1.13266
1.12803
1.09044
1.0807
1.07177
1.05974
1.05646
1.05055
1.04777
1.04544
1.04283
1.04123
1.03949
1.03854
1.03715
1.03621
1.03517
1.03399
1.03283
1.03144
1.03052
1.02946
1.02866
1.02768
1.02685
1.02623
1.02542
1.02495
1.02425
0.971728
0.972631
0.982939
0.978271
0.959305
0.949767
0.956121
0.959114
0.972665
0.957426
0.978017
1.06041
1.10701
1.07775
1.06951
1.06771
1.05646
1.05458
1.05008
1.04705
1.04624
1.04332
1.04205
1.04007
1.03924
1.03804
1.03705
1.03627
1.03519
1.03444
1.03318
1.03248
1.03121
1.03068
1.02933
1.0286
1.02737
1.02672
1.02603
1.0255
1.01073
1.01573
1.02501
1.02602
0.999188
0.968772
0.952124
0.936181
0.928614
0.906476
0.900152
0.985239
1.06515
1.05806
1.0539
1.06057
1.05291
1.05153
1.04974
1.04662
1.04629
1.04405
1.04295
1.04071
1.03971
1.0387
1.03752
1.03693
1.03573
1.03527
1.03403
1.03353
1.03221
1.0317
1.03041
1.02989
1.02864
1.02793
1.02716
1.02648
1.049
1.06307
1.07367
1.07808
1.04272
0.997641
0.947181
0.912562
0.878859
0.858784
0.824362
0.903872
1.00915
1.03551
1.03593
1.05082
1.04867
1.04792
1.04996
1.04683
1.04705
1.04558
1.04488
1.04304
1.041
1.03994
1.03848
1.03766
1.03654
1.03598
1.03496
1.03449
1.03333
1.0327
1.0315
1.03084
1.02989
1.02915
1.02856
1.02795
1.09296
1.11463
1.12988
1.13448
1.09492
1.01873
0.939104
0.876828
0.822514
0.801273
0.754174
0.82065
0.952604
1.00406
1.01165
1.03339
1.04045
1.04217
1.04748
1.04611
1.04709
1.04592
1.04557
1.04493
1.04368
1.04246
1.04118
1.03972
1.03866
1.03753
1.03665
1.03574
1.03479
1.03385
1.03294
1.03198
1.03107
1.03012
1.02956
1.02886
1.14395
1.17702
1.2009
1.20379
1.14473
1.02226
0.909616
0.822303
0.749541
0.72336
0.687846
0.750559
0.900124
0.959917
0.983766
1.01153
1.02769
1.03325
1.04154
1.04281
1.04559
1.04549
1.04559
1.04537
1.04482
1.04413
1.04349
1.04262
1.04146
1.04033
1.03911
1.03809
1.03697
1.03598
1.0351
1.03394
1.03319
1.03199
1.03146
1.03081
1.20384
1.25212
1.28712
1.27892
1.15405
0.997108
0.841064
0.735572
0.650663
0.623941
0.616716
0.685167
0.845926
0.916299
0.957057
0.989489
1.01088
1.02142
1.03243
1.03684
1.04209
1.04412
1.04508
1.04563
1.04561
1.0451
1.04443
1.04408
1.04318
1.04257
1.04135
1.04041
1.03934
1.03821
1.03716
1.03592
1.03464
1.0336
1.03258
1.03204
1.27421
1.33771
1.37751
1.31582
1.13376
0.918223
0.724569
0.60473
0.52609
0.513986
0.55256
0.630896
0.802083
0.878965
0.927288
0.966356
0.990225
1.00856
1.02109
1.02991
1.03696
1.04132
1.04332
1.04501
1.04555
1.04559
1.04491
1.04478
1.04404
1.04382
1.04313
1.04233
1.04151
1.04051
1.03942
1.03845
1.03689
1.03603
1.03503
1.03452
1.36398
1.43783
1.4412
1.30662
1.0343
0.755326
0.543251
0.437739
0.405103
0.433553
0.514993
0.612921
0.766246
0.840904
0.896784
0.945113
0.970302
0.997419
1.01011
1.02294
1.03045
1.03639
1.04055
1.0432
1.04487
1.0457
1.04563
1.04567
1.04537
1.04505
1.04451
1.04405
1.04304
1.0425
1.0412
1.04028
1.03885
1.03785
1.03694
1.0362
1.47908
1.5203
1.44981
1.22183
0.833681
0.516189
0.350449
0.338344
0.389379
0.448182
0.536715
0.632602
0.74884
0.813985
0.87708
0.926211
0.954198
0.985265
1.00004
1.01426
1.02455
1.03182
1.03799
1.0413
1.04447
1.04585
1.04682
1.04753
1.04723
1.04745
1.04665
1.04665
1.04564
1.04537
1.04385
1.04327
1.04167
1.04092
1.03986
1.03943
1.54995
1.51812
1.36021
1.07464
0.730816
0.527534
0.485276
0.517066
0.55243
0.561794
0.605481
0.674308
0.754978
0.809955
0.866299
0.910748
0.941647
0.972406
0.991688
1.00855
1.0202
1.02854
1.03647
1.04043
1.04488
1.04674
1.04762
1.04916
1.04856
1.04907
1.04799
1.04816
1.04687
1.0467
1.04503
1.04466
1.04314
1.04247
1.04156
1.04121
1.45375
1.34415
1.17574
1.10293
0.978506
0.905161
0.853136
0.798993
0.740034
0.688106
0.694802
0.726677
0.781146
0.825818
0.868961
0.905191
0.938496
0.962782
0.984093
1.00346
1.01409
1.02439
1.03235
1.03727
1.0414
1.04581
1.04639
1.04907
1.04858
1.04989
1.04895
1.04952
1.0483
1.04836
1.04671
1.0465
1.04552
1.04488
1.04479
1.04435
1.2067
1.14898
1.12589
1.15531
1.08694
1.06155
0.988182
0.912221
0.846311
0.797667
0.797032
0.801898
0.833533
0.861055
0.891249
0.912662
0.943933
0.961329
0.978648
0.996528
1.00808
1.01735
1.02704
1.03327
1.03686
1.0431
1.04392
1.04795
1.04802
1.05031
1.05002
1.05121
1.04993
1.05044
1.04887
1.04844
1.04754
1.04645
1.04602
1.04536
0.9281
1.01298
1.03588
1.08098
1.04769
1.04237
0.975769
0.932328
0.905264
0.890198
0.895905
0.90164
0.913312
0.921727
0.935604
0.943846
0.961195
0.974735
0.986798
0.999149
1.01203
1.01811
1.02788
1.03333
1.03931
1.04356
1.04783
1.05031
1.05296
1.05405
1.05522
1.0562
1.05574
1.05623
1.05535
1.05475
1.05422
1.05255
1.05205
1.0511
0.738394
0.804057
0.837425
0.88094
0.899444
0.905836
0.894185
0.907172
0.921118
0.92423
0.944512
0.961697
0.979227
0.997273
1.00504
1.00323
1.00509
1.00923
1.01457
1.01997
1.02815
1.03375
1.04026
1.04367
1.04938
1.05003
1.05558
1.05475
1.05856
1.05786
1.05885
1.05947
1.05849
1.05933
1.05784
1.05777
1.05689
1.05558
1.05534
1.05514
0.535009
0.534149
0.572747
0.636138
0.680577
0.724571
0.7829
0.837146
0.886455
0.919002
0.953253
0.98144
1.00494
1.03193
1.04865
1.06091
1.06557
1.05792
1.05558
1.05669
1.05262
1.05927
1.0558
1.06022
1.06059
1.0608
1.06425
1.06228
1.06515
1.06379
1.06456
1.06469
1.06356
1.06393
1.06209
1.06166
1.06062
1.05956
1.0599
1.05971
0.42455
0.326297
0.320016
0.36051
0.419838
0.508354
0.605057
0.707415
0.795446
0.87123
0.932611
0.981933
1.01217
1.03957
1.06513
1.08196
1.09848
1.10396
1.1063
1.09774
1.09172
1.08686
1.08164
1.07987
1.07733
1.07677
1.07694
1.07574
1.07687
1.07505
1.07595
1.07458
1.07371
1.07227
1.07148
1.06977
1.06899
1.06789
1.06964
1.06783
0.539405
0.417712
0.342659
0.219075
0.152505
0.223007
0.351811
0.489271
0.625573
0.755714
0.858961
0.935862
0.998487
1.03913
1.06864
1.09004
1.11038
1.12258
1.13575
1.13996
1.14436
1.13737
1.13102
1.12393
1.11706
1.11466
1.11182
1.10955
1.10829
1.10558
1.10457
1.10202
1.10026
1.09829
1.09639
1.0945
1.09118
1.0886
1.08568
1.08462
0.702002
0.582266
0.578897
0.566837
0.431787
0.236741
0.0936037
0.158514
0.34213
0.524197
0.676497
0.818358
0.915491
0.992084
1.04779
1.08557
1.11259
1.1328
1.14702
1.15721
1.16877
1.17457
1.18007
1.17917
1.17795
1.17123
1.16615
1.15968
1.15621
1.15169
1.14886
1.14691
1.14431
1.14272
1.14041
1.13754
1.13116
1.12578
1.11786
1.11378
0.839629
0.731465
0.722081
0.781168
0.797387
0.720467
0.552426
0.379016
0.207447
0.222288
0.394714
0.587759
0.731513
0.85525
0.933606
1.00845
1.05897
1.10207
1.13376
1.15601
1.17298
1.18623
1.19619
1.20255
1.20753
1.20984
1.21267
1.21068
1.20981
1.20675
1.2039
1.20125
1.19814
1.1948
1.19104
1.19055
1.18578
1.18294
1.17796
1.17221
0.788987
0.616489
0.507194
0.603668
0.707541
0.740136
0.738118
0.706673
0.615112
0.51615
0.387038
0.318062
0.382317
0.49331
0.59431
0.69342
0.781742
0.878675
0.957908
1.03069
1.08181
1.12716
1.15699
1.18278
1.19833
1.21142
1.21752
1.22124
1.22213
1.22223
1.21981
1.2146
1.21727
1.2152
1.21271
1.21341
1.21284
1.21388
1.21715
1.22354
0.107914
0.237611
0.355334
0.473162
0.550135
0.588838
0.596562
0.584644
0.553062
0.540271
0.538627
0.55851
0.587761
0.570455
0.55852
0.585915
0.537237
0.420317
0.415234
0.44904
0.510904
0.585444
0.685917
0.76857
0.840631
0.90643
0.962852
1.01603
1.05935
1.10292
1.1325
1.16654
1.18254
1.2101
1.22393
1.24413
1.2575
1.2702
1.27607
1.27785
0.256978
0.2833
0.286561
0.276706
0.277458
0.277463
0.288105
0.307266
0.336476
0.367438
0.412377
0.470381
0.522552
0.566267
0.595858
0.620432
0.63798
0.638177
0.644824
0.628712
0.589703
0.46665
0.257106
0.417828
0.545625
0.597145
0.644331
0.686907
0.724055
0.762352
0.800597
0.842078
0.886026
0.92759
0.969853
1.01051
1.05186
1.10225
1.15698
1.21689
1.02051
1.0195
1.0178
1.01541
1.0124
1.00793
1.003
0.996451
0.991841
0.988628
0.989567
0.993275
1.00117
1.00929
1.01589
1.0168
1.01679
1.01617
1.01575
1.01564
1.01561
1.01554
1.01548
1.01537
1.01523
1.01506
1.01489
1.0147
1.01448
1.01425
1.01399
1.01371
1.01341
1.01308
1.01274
1.01239
1.01202
1.01161
1.01114
1.01077
1.00798
1.01029
1.01238
1.01568
1.01876
1.02297
1.02636
1.0298
1.03066
1.03098
1.03016
1.02749
1.02244
1.0177
1.01632
1.01621
1.01648
1.01684
1.01709
1.01716
1.01716
1.01712
1.01696
1.01671
1.01646
1.01626
1.01605
1.01579
1.0155
1.01519
1.01489
1.01457
1.01424
1.0139
1.01349
1.01302
1.01249
1.01198
1.01163
1.01139
1.01843
1.01678
1.01503
1.01281
1.01043
1.008
1.00687
1.00724
1.00919
1.01052
1.01248
1.01354
1.01445
1.01477
1.01516
1.01588
1.01643
1.01679
1.01698
1.01701
1.01701
1.01703
1.017
1.01682
1.01659
1.01636
1.01617
1.01599
1.01572
1.01545
1.01514
1.01488
1.0145
1.01417
1.01382
1.01345
1.01292
1.01254
1.01224
1.01212
1.01338
1.01684
1.0185
1.0219
1.02393
1.02672
1.02767
1.02831
1.02839
1.02809
1.02677
1.02468
1.02243
1.02011
1.01866
1.01819
1.01812
1.01814
1.01806
1.0179
1.01773
1.01759
1.01746
1.01728
1.01706
1.01681
1.01652
1.01624
1.01599
1.01574
1.01551
1.01518
1.01476
1.0144
1.01401
1.01361
1.01312
1.01271
1.0125
1.01233
1.01576
1.01418
1.01316
1.01193
1.01138
1.01151
1.01232
1.01325
1.01404
1.01455
1.01505
1.01562
1.01635
1.01658
1.01677
1.01686
1.0172
1.01738
1.0175
1.01738
1.01744
1.01732
1.01726
1.01713
1.01698
1.01687
1.01663
1.0164
1.0161
1.01595
1.01573
1.01545
1.01505
1.01476
1.01438
1.01405
1.01356
1.01326
1.01301
1.01288
1.01642
1.01892
1.02001
1.02213
1.02296
1.02436
1.02479
1.02515
1.02517
1.02472
1.02392
1.02285
1.02182
1.02083
1.01997
1.01948
1.01934
1.01922
1.01881
1.01838
1.01815
1.01804
1.01804
1.01774
1.01741
1.01713
1.01682
1.01659
1.01634
1.01613
1.01593
1.01552
1.01512
1.01471
1.01433
1.01403
1.01363
1.01333
1.01313
1.0129
1.01501
1.0143
1.01413
1.01392
1.01425
1.01481
1.01552
1.01612
1.01642
1.01669
1.01694
1.0174
1.0177
1.01782
1.01788
1.01796
1.0181
1.01822
1.01815
1.01803
1.01793
1.01791
1.01777
1.0177
1.01753
1.01733
1.0171
1.01683
1.01662
1.01647
1.01622
1.01597
1.01554
1.01514
1.01478
1.01448
1.0141
1.01379
1.01362
1.0134
1.01784
1.01953
1.02029
1.02144
1.02197
1.02262
1.02283
1.02302
1.02276
1.02253
1.02208
1.0218
1.02135
1.02087
1.0204
1.0202
1.02008
1.0198
1.01926
1.01891
1.01886
1.01874
1.01845
1.01809
1.01788
1.01758
1.01729
1.01708
1.01686
1.01668
1.01633
1.016
1.01553
1.01505
1.01479
1.01452
1.01416
1.01388
1.01364
1.01335
1.01641
1.01656
1.01658
1.01694
1.01711
1.01745
1.01763
1.01788
1.01806
1.01833
1.01858
1.01882
1.0189
1.01893
1.01895
1.01913
1.01917
1.01913
1.01895
1.01885
1.01876
1.01871
1.0186
1.01841
1.0182
1.01797
1.01764
1.01737
1.01726
1.01714
1.01691
1.01658
1.01608
1.01565
1.01533
1.01499