/*--------------------------------*- C++ -*----------------------------------*\
  =========                 |
  \\      /  F ield         | OpenFOAM: The Open Source CFD Toolbox
   \\    /   O peration     | Website:  https://openfoam.org
    \\  /    A nd           | Version:  10
     \\/     M anipulation  |
\*---------------------------------------------------------------------------*/
FoamFile
{
    format      ascii;
    class       volScalarField;
    location    "0.651551";
    object      T;
}
// * * * * * * * * * * * * * * * * * * * * * * * * * * * * * * * * * * * * * //

dimensions      [0 0 0 1 0 0 0];

internalField   nonuniform List<scalar> 
16320
(
0.00511631
0.005279
0.00563725
0.00602711
0.00656058
0.00737566
0.00840122
0.00938644
0.00986944
0.00997855
0.00996192
0.00971802
0.00880024
0.00663292
0.00470037
0.00417853
0.00427391
0.00500147
0.00657481
0.00922567
0.0113867
0.0121711
0.0124158
0.012478
0.0124847
0.0124631
0.0123955
0.0122878
0.012152
0.0119702
0.0117553
0.0114526
0.0111104
0.0106226
0.0100872
0.00943241
0.00869758
0.00788734
0.00708931
0.00631767
0.00555746
0.00482542
0.00418202
0.00373846
0.00356037
0.00356463
0.00372637
0.00423652
0.00569611
0.00816762
0.0105348
0.011875
0.0120911
0.0116505
0.010128
0.00863682
0.00778079
0.00743125
0.0069647
0.00640808
0.00633199
0.00695189
0.00832688
0.00861366
0.00812327
0.00649961
0.00497879
0.0041162
0.00354545
0.00323787
0.00308347
0.00306771
0.00312397
0.00345904
0.00471711
0.00827701
0.0114716
0.0121676
0.0115777
0.00843403
0.00492154
0.0032706
0.00255403
0.00225589
0.00219738
0.00219343
0.00228632
0.00234813
0.00217461
0.00218553
0.00228648
0.00233691
0.00244275
0.00236367
0.0021324
0.0021986
0.00285052
0.00377368
0.00381242
0.00373255
0.00393711
0.00448466
0.00554087
0.00637291
0.00655668
0.00622112
0.0040876
0.0029462
0.00246985
0.0022981
0.00226851
0.00230129
0.00249837
0.0046348
0.00469558
0.0049031
0.00518017
0.00567862
0.00654113
0.00772926
0.00906192
0.00972154
0.00989855
0.00991646
0.00978502
0.00920574
0.0076227
0.00532906
0.00443294
0.00431358
0.00476934
0.00605466
0.00827578
0.0108864
0.0120118
0.0123854
0.0124996
0.012526
0.0125252
0.0124973
0.012427
0.0123574
0.0122708
0.0121437
0.0119717
0.0117219
0.0114381
0.0110425
0.0105726
0.010011
0.00937029
0.00869263
0.00799512
0.00726647
0.00650828
0.00583352
0.005413
0.0053009
0.00536055
0.00568019
0.00658488
0.0084758
0.0105411
0.0118758
0.0121965
0.0118947
0.0106
0.00905441
0.00800904
0.00753661
0.00720042
0.00657106
0.00627786
0.00647465
0.00778939
0.0088754
0.00876179
0.00797246
0.00602356
0.00491904
0.00413546
0.00355003
0.00320194
0.00303385
0.00300955
0.00305012
0.00327972
0.00411069
0.0066166
0.0102445
0.0117402
0.0116597
0.00975752
0.00562886
0.00357747
0.00268373
0.00230725
0.0022203
0.00221409
0.00224909
0.00243477
0.00237845
0.00221731
0.00225816
0.00234414
0.00244543
0.00243416
0.00226268
0.0022092
0.00251837
0.00336612
0.00348077
0.00332084
0.0032923
0.00351194
0.00435124
0.00589552
0.00659735
0.00663518
0.00506577
0.00335165
0.00268434
0.0024076
0.00233972
0.00235925
0.00254115
0.00439738
0.00443662
0.00456735
0.00473222
0.00505936
0.00574996
0.00678256
0.00815768
0.0092265
0.00956196
0.00962412
0.00959732
0.00921913
0.00800606
0.00580711
0.00467114
0.00444961
0.00469045
0.00577291
0.00776619
0.0105293
0.0118894
0.0123366
0.0124924
0.0125527
0.0125709
0.0125709
0.0125562
0.0125348
0.0125019
0.0124439
0.0123556
0.0122472
0.0120842
0.011878
0.0116004
0.0112496
0.0108241
0.0103374
0.00981338
0.0092303
0.00858641
0.00803946
0.0077608
0.00774213
0.00788514
0.00838985
0.00955093
0.0110182
0.012038
0.0123065
0.0120661
0.0109174
0.00940705
0.00826835
0.00763803
0.00734708
0.00678421
0.00630373
0.0062567
0.00695996
0.00873705
0.00913061
0.00878912
0.00720635
0.00582887
0.00493877
0.00420415
0.00358108
0.00320332
0.00302715
0.00299889
0.00303362
0.0032285
0.00389235
0.00583755
0.0093786
0.0114462
0.0116153
0.0102256
0.00613171
0.0038274
0.00281154
0.00236436
0.00224679
0.00224268
0.00226966
0.00243835
0.00255508
0.00236682
0.00228706
0.00233572
0.00244058
0.00248143
0.00240066
0.00224414
0.00234837
0.00285185
0.00317532
0.00305262
0.00292469
0.0030123
0.00350074
0.00478443
0.00657544
0.00695351
0.00589997
0.00376481
0.00290233
0.00254739
0.00244425
0.00244735
0.00261202
0.00426077
0.0043108
0.00441401
0.00453124
0.00475739
0.00525042
0.00605307
0.00728152
0.00859976
0.00907575
0.00917673
0.00918444
0.00892366
0.00794711
0.0060481
0.00487107
0.00460655
0.00471703
0.00565451
0.00756681
0.0101377
0.0116849
0.012229
0.012445
0.0125516
0.0126061
0.0126412
0.0126525
0.0126543
0.012652
0.0126521
0.0126397
0.0126079
0.0125563
0.0124828
0.0123625
0.0121913
0.0119664
0.0116899
0.0113802
0.0110156
0.0106032
0.010295
0.0101888
0.0102268
0.0104356
0.0109682
0.0117389
0.0122919
0.0123993
0.0121439
0.011092
0.0096279
0.00849209
0.00775187
0.00742866
0.00697579
0.00639603
0.00617432
0.00645399
0.00807487
0.00928253
0.00921953
0.00845775
0.00663555
0.0057884
0.00516497
0.00439469
0.00368101
0.00324427
0.00305052
0.00301896
0.0030513
0.00323289
0.0038446
0.00556528
0.00898393
0.0112817
0.0115828
0.0104246
0.0064839
0.00408068
0.00297649
0.00245637
0.00228839
0.00228152
0.00230986
0.00243723
0.00270341
0.002642
0.00237896
0.00234779
0.00241151
0.00251262
0.00248908
0.00233385
0.00233941
0.00249863
0.00275188
0.00273919
0.00267984
0.00278684
0.0031374
0.00395408
0.00616296
0.0071001
0.0065838
0.00420549
0.00309936
0.00268422
0.00256283
0.0025596
0.0027238
0.00416717
0.00423177
0.00432807
0.0044284
0.00461001
0.00498262
0.00559533
0.00661053
0.00799408
0.00856781
0.00868402
0.00869178
0.00844407
0.00759485
0.00600038
0.00496481
0.00472696
0.00480739
0.00562747
0.00744375
0.00954416
0.0111929
0.0119386
0.0123154
0.0125529
0.0126442
0.0126861
0.012716
0.0127447
0.012773
0.0127952
0.0128122
0.0128261
0.0128334
0.0128209
0.0127956
0.0127419
0.0126588
0.0125431
0.0124054
0.0122377
0.012045
0.0119325
0.0119219
0.0119726
0.0121294
0.0123789
0.0125405
0.0124857
0.0121152
0.0110574
0.00971421
0.00864142
0.00784538
0.00743882
0.00709451
0.00652324
0.00615979
0.00618079
0.00711038
0.00912085
0.00948734
0.00922615
0.0076301
0.00646058
0.00592714
0.0054815
0.0045276
0.00372996
0.00328854
0.00311199
0.00309789
0.00314988
0.00335692
0.00394414
0.00553428
0.00884582
0.0112174
0.0115791
0.0105328
0.00684397
0.00442534
0.00323718
0.00261681
0.00237022
0.00234686
0.00237844
0.00252609
0.00286414
0.00285979
0.00260694
0.00238649
0.00239222
0.00249257
0.00253422
0.00247062
0.00236144
0.00238335
0.00246429
0.00246302
0.00248327
0.00266286
0.00297931
0.00359325
0.00549974
0.00718173
0.00698181
0.00470642
0.00326612
0.00279773
0.0026779
0.00268435
0.0028987
0.00410407
0.00417688
0.00428138
0.00439027
0.00454079
0.00480426
0.00522085
0.00602951
0.00739286
0.00805405
0.00817577
0.00816145
0.00785165
0.0070803
0.00582767
0.00504316
0.00486493
0.00494138
0.0056555
0.00737244
0.00922448
0.0105184
0.011473
0.0123169
0.012586
0.0126856
0.012735
0.0127676
0.0127902
0.0128102
0.0128405
0.0128604
0.0128968
0.0129122
0.0129261
0.0129392
0.0129389
0.0129271
0.0129026
0.0128659
0.0128112
0.0127498
0.0127108
0.0127003
0.012709
0.0127201
0.0126977
0.0125605
0.0120877
0.0109479
0.00971291
0.00869915
0.00793895
0.00742536
0.00712212
0.00664586
0.00619197
0.00605059
0.00646862
0.00847574
0.009524
0.00953042
0.00890576
0.0071417
0.00643665
0.00621601
0.00561493
0.00457224
0.00374808
0.00331578
0.00319325
0.00320986
0.00335591
0.00370225
0.00435775
0.00586482
0.00893336
0.0112328
0.0116387
0.0107227
0.00739554
0.00500742
0.00367916
0.00289003
0.0025088
0.00243826
0.00246489
0.00265958
0.00301913
0.00310899
0.00297881
0.00253125
0.0024081
0.00245294
0.00256108
0.00255106
0.00242781
0.00238516
0.00237156
0.00235951
0.00239271
0.00260895
0.00292454
0.00342121
0.00507588
0.00719424
0.0072471
0.00518299
0.00340108
0.0028794
0.00277028
0.00280136
0.00312879
0.00406428
0.00413894
0.00425687
0.00438449
0.00452455
0.00472557
0.00498907
0.00559547
0.00679536
0.00754532
0.00767702
0.00760474
0.00717685
0.00647721
0.00561394
0.00515042
0.00505073
0.00514398
0.00577864
0.00722456
0.0087964
0.00983328
0.0115574
0.0124077
0.0126512
0.0127338
0.0127632
0.0127751
0.0127827
0.012796
0.0128223
0.0128371
0.0128659
0.0128741
0.0128973
0.0129178
0.0129292
0.0129384
0.0129457
0.0129459
0.0129369
0.0129199
0.0128918
0.0128365
0.012764
0.0126864
0.0125133
0.012027
0.0108967
0.00971119
0.00872653
0.00797856
0.00744023
0.00709346
0.00672807
0.00625583
0.00600461
0.00607367
0.00734919
0.00924178
0.00961855
0.00948957
0.00823746
0.0069878
0.00663716
0.00634739
0.00567062
0.00465477
0.00382151
0.00338033
0.00327856
0.0033212
0.00357518
0.00416033
0.00493121
0.00657397
0.0094427
0.011501
0.0118856
0.0111847
0.00839826
0.00600978
0.0044203
0.00333452
0.00273089
0.00255679
0.00256041
0.00275845
0.0031351
0.00332812
0.00325889
0.00283184
0.0024676
0.00245424
0.00253725
0.00258899
0.002547
0.00241967
0.00236827
0.0023556
0.00239369
0.00261897
0.00291752
0.00336616
0.00486989
0.00719233
0.00744738
0.00556319
0.00348759
0.00294072
0.002845
0.00291499
0.0033971
0.00403761
0.00410639
0.00424302
0.00443233
0.0045921
0.0047002
0.00486006
0.00527041
0.00624284
0.00708673
0.00724699
0.00709095
0.00647024
0.00580368
0.00537742
0.00520039
0.00516534
0.00527886
0.0058281
0.00697066
0.00834064
0.00980116
0.0117529
0.0124884
0.0126787
0.0127314
0.0127431
0.0127371
0.0126852
0.0126288
0.0125966
0.0124982
0.0124446
0.01239
0.0123829
0.0124232
0.0125101
0.0126179
0.0127334
0.0128122
0.0128586
0.0128617
0.0128313
0.0127211
0.0123956
0.0119981
0.0113876
0.0104967
0.00955972
0.00871492
0.00798905
0.00744116
0.00703843
0.00675257
0.00632566
0.00600087
0.00592049
0.0063191
0.00834083
0.00944225
0.00959028
0.00926296
0.00772439
0.00696933
0.00682437
0.00653231
0.00585659
0.00501345
0.00416297
0.00358332
0.00337263
0.00339356
0.00362763
0.00425065
0.0051392
0.00701126
0.0097753
0.0117727
0.0122539
0.0117881
0.00978486
0.0076164
0.00564766
0.00404434
0.00306814
0.00271048
0.00266869
0.00285423
0.00323939
0.0034806
0.00344934
0.00323083
0.00262543
0.00246921
0.00249794
0.00260967
0.00261292
0.00251509
0.00239724
0.00238644
0.00245454
0.0027699
0.00300277
0.00335648
0.00480698
0.00717
0.00752266
0.00578073
0.00352625
0.00297441
0.00290558
0.0030347
0.00367525
0.00401177
0.00407234
0.00420888
0.00445196
0.00465837
0.00473543
0.00481513
0.00506939
0.00576297
0.00672214
0.00697765
0.00685212
0.00612336
0.00544739
0.00523843
0.00518596
0.0051854
0.00532793
0.00582369
0.00681321
0.0082099
0.0100283
0.0119437
0.0125275
0.012646
0.0126617
0.0126162
0.0124139
0.0120392
0.011512
0.0107349
0.00944538
0.00822231
0.00780136
0.00766774
0.0078444
0.00831815
0.00912908
0.0104279
0.011475
0.0121088
0.0123984
0.0124503
0.012264
0.011576
0.0104809
0.00965385
0.00901694
0.00843059
0.00786772
0.00738925
0.00698891
0.00668507
0.00637818
0.00602255
0.00584752
0.00590131
0.006835
0.00873395
0.00945352
0.00945146
0.00889952
0.00751908
0.00710287
0.00694396
0.00678435
0.00649425
0.00606978
0.00516825
0.00417805
0.00364533
0.00354424
0.00365867
0.00409424
0.00507212
0.00709092
0.00985659
0.0118614
0.0124983
0.0123854
0.0115927
0.0101252
0.00761166
0.00500252
0.00345209
0.00288009
0.00278231
0.0029493
0.00334545
0.0035622
0.00356655
0.00345417
0.00292445
0.00252074
0.00250146
0.00258807
0.00265145
0.00262039
0.00249802
0.00250187
0.00264014
0.00295286
0.00307693
0.00337661
0.00489863
0.00724957
0.00756372
0.00589019
0.00353841
0.00298889
0.00296112
0.00318455
0.00395498
0.00398221
0.00402935
0.00415186
0.00441137
0.00467711
0.00478626
0.00482917
0.00495408
0.00537852
0.00636888
0.006817
0.00679011
0.00606793
0.00536555
0.00517838
0.00514982
0.00517722
0.00534932
0.00583422
0.00680502
0.00829172
0.0104549
0.0121046
0.0124694
0.0125047
0.0123479
0.0117475
0.0104923
0.00816731
0.00524242
0.0039298
0.00330039
0.00303343
0.00294136
0.00293852
0.00303642
0.00330079
0.00366611
0.00424361
0.00548678
0.00756166
0.00985267
0.0110365
0.0111384
0.0105056
0.00951594
0.00864801
0.00798984
0.00755602
0.00719063
0.00685891
0.00658908
0.00634349
0.00604684
0.00582391
0.00576132
0.00594492
0.00720145
0.00875965
0.00930862
0.00924999
0.00841686
0.00746345
0.00716986
0.0071772
0.00734108
0.007607
0.00756482
0.00710024
0.00555878
0.00430611
0.00383491
0.00379532
0.00398395
0.00469164
0.00655677
0.00947336
0.0116481
0.0125154
0.0126923
0.0125924
0.0121836
0.00896001
0.00543147
0.00360458
0.00298076
0.0028741
0.00304457
0.00344351
0.00358776
0.00364018
0.00357992
0.00319998
0.00262405
0.0025114
0.00255329
0.00267724
0.00268163
0.00264673
0.00267876
0.00288048
0.00305434
0.00311629
0.00344972
0.00523111
0.00733958
0.0075696
0.00593279
0.0035307
0.00299383
0.00300658
0.00335323
0.00408906
0.00392245
0.00398047
0.00406366
0.00430345
0.00465955
0.00479576
0.00485511
0.00490448
0.00512752
0.00587575
0.00669646
0.00681167
0.0062339
0.00540277
0.00517131
0.00514105
0.00517828
0.00537164
0.00587435
0.0068748
0.00858599
0.0110714
0.0120977
0.0122172
0.0118479
0.0103793
0.00728089
0.00418841
0.00296598
0.00252108
0.00238988
0.00237442
0.00250891
0.00293482
0.00343088
0.00366999
0.00371189
0.00371937
0.00365879
0.00365106
0.0041424
0.00543805
0.00741877
0.0086475
0.00897779
0.00858688
0.00801324
0.00742698
0.00697109
0.00666909
0.00644722
0.00623992
0.0060429
0.00581591
0.00569007
0.00569148
0.00599421
0.00724648
0.00865674
0.00906476
0.00895297
0.00815319
0.00747419
0.00740197
0.00749977
0.0078721
0.00807876
0.00808804
0.00798688
0.00735102
0.00551895
0.00437445
0.00402735
0.00405304
0.00438173
0.00556859
0.00823918
0.0107591
0.0122026
0.0127146
0.012804
0.0122209
0.00942348
0.0054772
0.00361478
0.00302262
0.00294713
0.00316183
0.00352326
0.00359522
0.00365624
0.00362511
0.00337324
0.00276528
0.00253251
0.00254564
0.00267139
0.0027394
0.00276426
0.00284891
0.00306156
0.0031019
0.00313335
0.00356159
0.0055886
0.00740415
0.007559
0.00589389
0.00345858
0.00299442
0.00306558
0.00354718
0.00414088
0.00381681
0.00390813
0.00396355
0.00413745
0.00451966
0.00477659
0.00485254
0.00488503
0.00496836
0.005361
0.00647699
0.00694701
0.00678343
0.00571107
0.00525358
0.00518165
0.00521137
0.0054287
0.00599384
0.00715059
0.00938082
0.0114386
0.0118081
0.0113523
0.00918518
0.00526752
0.00321517
0.00254966
0.00239524
0.00239841
0.00265903
0.00344745
0.00523852
0.00689575
0.00749316
0.00765717
0.00733722
0.00653517
0.00538676
0.00418037
0.00368048
0.00394301
0.00512999
0.00647644
0.00743367
0.00759335
0.00735607
0.00700534
0.00665255
0.00634023
0.00612837
0.00597414
0.00580939
0.00566232
0.00559873
0.00564018
0.00599736
0.00719746
0.00848355
0.00876665
0.00861233
0.00790677
0.00757818
0.00758159
0.00779129
0.00805095
0.00817307
0.00819284
0.00816651
0.00797193
0.00697515
0.00518153
0.00435814
0.00419363
0.00430673
0.0048948
0.00667408
0.00935349
0.0113433
0.0124735
0.0126297
0.0121678
0.00921162
0.00524734
0.00352854
0.00304222
0.00302842
0.00332104
0.00355389
0.00357982
0.00362514
0.00361218
0.00343029
0.00287336
0.00256135
0.00255098
0.00265703
0.00277403
0.00286116
0.00302263
0.00313391
0.0031033
0.00313681
0.00377975
0.00616518
0.00744682
0.00747463
0.00565442
0.00337191
0.00299393
0.00315096
0.00369472
0.00414163
0.00359362
0.00379813
0.0038518
0.00392175
0.00420003
0.00464436
0.00480847
0.00486148
0.0048911
0.00505061
0.00574069
0.00701826
0.00732083
0.00666925
0.00563634
0.00538965
0.00537453
0.00559175
0.00630012
0.00786999
0.010489
0.0113506
0.0111178
0.00892322
0.00491951
0.00306496
0.00253692
0.0024551
0.00258422
0.00330411
0.00534409
0.00656976
0.00685917
0.00707065
0.00735935
0.00755947
0.00762722
0.00758771
0.00710892
0.00559586
0.00387042
0.00361859
0.00420251
0.00525812
0.00613261
0.00660718
0.0066598
0.00652311
0.00633155
0.00613072
0.00594282
0.00578549
0.00565057
0.00556235
0.00552606
0.00560911
0.0059825
0.00715693
0.00827037
0.00845523
0.00827267
0.00779998
0.00771691
0.00776904
0.00794548
0.00808755
0.00817923
0.00820375
0.00818327
0.0081072
0.00770645
0.00617388
0.00483113
0.00436467
0.00435276
0.00460187
0.00558497
0.00782342
0.0102222
0.011735
0.0121088
0.0115739
0.008329
0.00471668
0.00336206
0.00307047
0.00313733
0.00345704
0.00355637
0.00352298
0.0035537
0.00356755
0.00340615
0.00286584
0.00258399
0.00256252
0.00264908
0.00280836
0.00297412
0.00313105
0.00316095
0.0030576
0.0031475
0.00419412
0.00667989
0.00745044
0.007333
0.00534771
0.00326836
0.00300107
0.00325151
0.0037519
0.00407513
0.00307169
0.0035944
0.00368724
0.00370145
0.00379852
0.00421637
0.0046576
0.00480571
0.00485621
0.00491441
0.00516069
0.00623556
0.00761501
0.00785925
0.00688956
0.00607574
0.00593531
0.00607869
0.0070124
0.00931036
0.0108708
0.0109777
0.0094114
0.00545233
0.00322523
0.00260611
0.00251679
0.00268925
0.00360473
0.00488374
0.00522505
0.00537921
0.00608206
0.00703022
0.00722873
0.00718896
0.00696183
0.0067559
0.00658619
0.00544756
0.00395014
0.00363382
0.00396158
0.00465964
0.00531469
0.00570268
0.00593972
0.00601543
0.00598279
0.00589504
0.00578885
0.00566698
0.00554875
0.00548798
0.00547771
0.00557304
0.00597185
0.00721605
0.00807511
0.00816364
0.00801485
0.00783064
0.00781759
0.0078677
0.00798617
0.00808025
0.00812589
0.00813531
0.00813359
0.00810306
0.0079405
0.00712917
0.00547627
0.00464029
0.00445192
0.00454315
0.00505204
0.00656105
0.00902369
0.010851
0.0112159
0.0104671
0.00685262
0.00401045
0.00321504
0.00312575
0.00333254
0.00352371
0.00350112
0.00339358
0.00344132
0.00351055
0.00332939
0.00282042
0.00259146
0.00257509
0.00265572
0.00287476
0.00307784
0.00315849
0.00313976
0.00301768
0.00326994
0.004972
0.00693883
0.00729333
0.00707526
0.00496327
0.003164
0.00301767
0.00335593
0.00377036
0.00403681
0.0024913
0.00310505
0.00345594
0.00350033
0.00350892
0.00365941
0.00416908
0.00462381
0.00480725
0.00487522
0.00494836
0.00528642
0.00683801
0.00836968
0.00861612
0.00781745
0.0074116
0.00741945
0.00842961
0.01032
0.010791
0.0100736
0.00678921
0.00371013
0.00273949
0.0025588
0.00263608
0.00323715
0.00402114
0.00426684
0.00441283
0.00522755
0.00678184
0.00718255
0.00712655
0.00658311
0.00578937
0.00530366
0.00509741
0.00468005
0.00398484
0.00379742
0.00396327
0.0044328
0.00485557
0.00511012
0.00531475
0.00548517
0.0055884
0.00561542
0.00558192
0.00551912
0.00545459
0.00542181
0.00543468
0.00556438
0.00612716
0.00744967
0.00794108
0.00796607
0.00788978
0.00784117
0.00784377
0.0078867
0.00796643
0.00798011
0.00795946
0.00795581
0.00796708
0.00798782
0.00794642
0.00763858
0.00634976
0.00508268
0.00461922
0.00460509
0.00484059
0.00577783
0.00800535
0.00996397
0.0102358
0.00903442
0.00523747
0.00350761
0.00316999
0.00323667
0.00348279
0.00350636
0.00336819
0.00324042
0.00333949
0.00342218
0.00315082
0.00272411
0.00259486
0.00259631
0.00268726
0.00297023
0.00311571
0.00314332
0.00302391
0.00301269
0.00363123
0.00592383
0.00704233
0.00709435
0.00674378
0.00454107
0.00307554
0.00305379
0.00347273
0.0037614
0.00394812
0.00222202
0.00249935
0.00294114
0.00315975
0.00322148
0.00324919
0.00340535
0.00400086
0.00462581
0.00485741
0.0049187
0.00497237
0.0054326
0.00757775
0.00924755
0.00949624
0.00924485
0.0092009
0.00988021
0.0106184
0.0105104
0.00859317
0.00474829
0.00298965
0.00255779
0.00252025
0.00275634
0.00331791
0.00354028
0.00361173
0.00411887
0.00585705
0.0071134
0.00725818
0.0069587
0.00609353
0.00515692
0.00470008
0.00450721
0.00434155
0.00412703
0.00407389
0.00408339
0.00436911
0.00461016
0.00480161
0.00496144
0.00512103
0.00526441
0.00535187
0.00539028
0.00539137
0.00537576
0.00535926
0.00541343
0.00568653
0.00673994
0.00767105
0.00787417
0.00787291
0.00783637
0.00781894
0.00781515
0.00782527
0.00780009
0.00773215
0.00767227
0.00766035
0.0076852
0.00779343
0.00783802
0.00774901
0.00713062
0.00567274
0.00487541
0.00470758
0.00481352
0.00540869
0.00726836
0.00920323
0.00926608
0.00737402
0.00413921
0.0033041
0.00323887
0.00348822
0.00353594
0.00339059
0.00309161
0.00309683
0.00326359
0.00331325
0.00291975
0.00266029
0.00260214
0.00262159
0.00278892
0.00303332
0.00310922
0.00307294
0.00290133
0.00308215
0.00462055
0.00654161
0.00690624
0.00680914
0.00632897
0.00413819
0.00301387
0.00312174
0.0035722
0.00372797
0.00385001
0.00218401
0.002226
0.00244611
0.00271898
0.0028488
0.00290763
0.00294615
0.00315435
0.00393006
0.00475419
0.00497189
0.00495169
0.00496759
0.00569388
0.00847522
0.010102
0.0104003
0.0104636
0.0106385
0.0106901
0.00984782
0.00676138
0.00366724
0.00264891
0.00244831
0.00246658
0.00273501
0.00294763
0.00297876
0.00318248
0.00415622
0.00628397
0.00720234
0.0072637
0.00687634
0.00605926
0.00528221
0.00478007
0.00453562
0.00440689
0.00431899
0.00428867
0.00428658
0.0043793
0.00453488
0.00467004
0.00482042
0.00495558
0.00508811
0.00519554
0.00526471
0.00529596
0.0053109
0.00534307
0.00551722
0.00626888
0.00742812
0.00778737
0.00783503
0.0078133
0.00776627
0.00771521
0.00765206
0.00754926
0.0074307
0.00730156
0.00725613
0.00726117
0.00731827
0.0075666
0.00771064
0.0077033
0.00745781
0.00632143
0.00519076
0.0048287
0.00485593
0.00525731
0.00686119
0.00850184
0.00827603
0.00565034
0.00358812
0.00325326
0.00339198
0.00359672
0.00346076
0.0030066
0.00290696
0.00303359
0.00317498
0.0030939
0.00276132
0.00264006
0.00261911
0.0026755
0.00289989
0.00304378
0.00305543
0.00290082
0.00289033
0.00354973
0.00578361
0.00668739
0.0066095
0.00640833
0.00590872
0.00380337
0.00297917
0.00321907
0.00360512
0.003682
0.00373889
0.00224301
0.00218572
0.00221422
0.00234983
0.00250653
0.00257593
0.00261045
0.00269137
0.00305289
0.00420679
0.005028
0.00511937
0.00490746
0.00499997
0.00630409
0.00948004
0.0106453
0.0108349
0.0108394
0.0105004
0.00887911
0.00529617
0.00308209
0.00245009
0.00234562
0.00237886
0.00247814
0.0024837
0.00252948
0.00291985
0.00414257
0.00627582
0.00700996
0.00704411
0.00675526
0.00622898
0.00577379
0.00550665
0.00522941
0.00479707
0.00459631
0.00451322
0.00448258
0.00448388
0.00455765
0.00466677
0.00479789
0.00492501
0.00502483
0.00512685
0.00520608
0.00526527
0.00533012
0.00549674
0.00616618
0.00734789
0.00772679
0.0078065
0.00777725
0.00769287
0.00755122
0.00739407
0.00720273
0.00700698
0.00686401
0.00682885
0.00686252
0.0069082
0.00715733
0.00743607
0.00761855
0.00764659
0.00753379
0.00678321
0.0054764
0.00493015
0.00489977
0.00520942
0.00668588
0.00785878
0.00719814
0.00438299
0.00333662
0.00331453
0.00366731
0.00361511
0.00310222
0.0027645
0.00281222
0.00296799
0.00300948
0.00287157
0.00268552
0.00264069
0.00264461
0.00278476
0.00293655
0.00300674
0.00289905
0.0027781
0.00309972
0.00502862
0.00637814
0.00637849
0.00610746
0.00605129
0.00559141
0.00352422
0.00295956
0.00327979
0.0036063
0.00363419
0.00365094
0.00256192
0.00222957
0.00217792
0.00218127
0.00224255
0.00232949
0.0023668
0.00241852
0.00261473
0.00336843
0.00494656
0.00539873
0.00509029
0.00482677
0.00524438
0.00748686
0.0102835
0.0108265
0.0108234
0.0102198
0.00801778
0.00443078
0.00274974
0.0022687
0.00217322
0.00216056
0.00215292
0.00214941
0.00224744
0.00268788
0.00380475
0.00534087
0.00575367
0.00564063
0.005321
0.00522926
0.00531556
0.00558975
0.00574993
0.00580377
0.00565147
0.0053049
0.00502274
0.00484326
0.00478675
0.00479323
0.00485231
0.00494437
0.00506461
0.00515555
0.00526188
0.00540224
0.00568257
0.00640866
0.00741517
0.00772007
0.00777061
0.00770686
0.00754774
0.00728831
0.00701169
0.00673524
0.00654522
0.00644295
0.00646667
0.00653957
0.00660498
0.00682421
0.00706549
0.00733833
0.00754019
0.00759394
0.00751886
0.00694563
0.005612
0.00496867
0.00491126
0.00520443
0.00660681
0.00723237
0.00599243
0.00366923
0.00326375
0.00345839
0.00375725
0.00342316
0.00276659
0.0026889
0.00277549
0.00285791
0.00286063
0.00273449
0.00266352
0.00264803
0.00270438
0.00282964
0.00292118
0.00285904
0.0027368
0.00285718
0.00431051
0.00607034
0.00619849
0.00585964
0.00578525
0.00582482
0.00520634
0.00336509
0.00294656
0.00329718
0.0035886
0.00359042
0.00358017
0.00355444
0.00247173
0.00220627
0.00215098
0.00213929
0.00215872
0.0022018
0.00224755
0.00239114
0.00298596
0.00478482
0.00566934
0.0055143
0.00485635
0.0048351
0.00588238
0.00905919
0.0106165
0.0106865
0.0097711
0.00706509
0.00388243
0.00252506
0.00211022
0.00199047
0.00194539
0.0019289
0.00193205
0.00203023
0.00234582
0.0029639
0.00326856
0.00322588
0.00293878
0.00262994
0.00253372
0.00255778
0.00280695
0.00340752
0.0043567
0.00544268
0.0060703
0.00625529
0.00621711
0.00602782
0.00566574
0.00545128
0.00540799
0.00543243
0.00552528
0.00585588
0.00632089
0.00701282
0.00758032
0.00774027
0.00773224
0.00758192
0.00727711
0.00686152
0.00650747
0.00626208
0.00615839
0.00613614
0.00617848
0.00628186
0.00634838
0.00649106
0.00663713
0.00687111
0.00715066
0.00738767
0.00747536
0.0074234
0.00693229
0.0056356
0.00496257
0.00489469
0.00521234
0.00650506
0.00663546
0.00482131
0.00335929
0.00326163
0.00383922
0.00375911
0.00292878
0.00266677
0.00267065
0.00274887
0.00277479
0.00275335
0.0026782
0.0026552
0.00266693
0.0027436
0.00281758
0.00280296
0.00269877
0.00275142
0.00365165
0.00583596
0.00615239
0.00550991
0.00538856
0.00560162
0.00565955
0.00491804
0.00331465
0.00292759
0.00328019
0.0035663
0.00355034
0.00351946
0.00495747
0.00320768
0.00236953
0.00217237
0.00212206
0.00210663
0.00211265
0.00215611
0.00231155
0.00286419
0.00472218
0.00594374
0.00593277
0.00508746
0.00472758
0.00512645
0.00725205
0.00992838
0.0103113
0.00933166
0.00651671
0.00355943
0.00235085
0.00195829
0.00183271
0.00178807
0.00177518
0.00177707
0.00183203
0.00197324
0.00206467
0.00205696
0.00196749
0.00181327
0.00164232
0.00155093
0.0015297
0.00154874
0.00163267
0.00182356
0.00221258
0.00287386
0.00399906
0.00565022
0.00677132
0.00711756
0.00715185
0.00709593
0.00705256
0.00707496
0.00732423
0.00763778
0.00774558
0.0077412
0.00761239
0.00728009
0.00671032
0.00627786
0.00608256
0.00596989
0.00590975
0.00590953
0.00591498
0.00595491
0.00597321
0.00602827
0.00608223
0.00621318
0.00645279
0.00676676
0.00707089
0.00721889
0.00719093
0.00677556
0.00555864
0.0049066
0.00485412
0.00523657
0.00633068
0.00610829
0.00407922
0.00320769
0.0033547
0.00403867
0.00347573
0.00271471
0.00264611
0.00266517
0.00271228
0.00271754
0.0026887
0.00265741
0.00265276
0.00268202
0.00272967
0.00272068
0.00266848
0.00272502
0.00330503
0.00567873
0.00607845
0.00520996
0.00483066
0.00517266
0.00543202
0.00541672
0.00479734
0.00332542
0.00290642
0.00314435
0.00352088
0.00351944
0.00346938
0.00566066
0.00430402
0.0028579
0.00230209
0.00214491
0.00210768
0.00210689
0.00215608
0.00233161
0.00304901
0.0053185
0.00619274
0.00619556
0.00549971
0.00473157
0.00477465
0.00595525
0.00873191
0.00959408
0.00898684
0.00644017
0.00354227
0.00228508
0.00186654
0.00174288
0.00170882
0.00170236
0.00171339
0.0017489
0.0017722
0.00176945
0.00174376
0.00168173
0.00156853
0.0014499
0.00137136
0.00133405
0.00132731
0.00133987
0.00137233
0.00146389
0.00165497
0.00195545
0.00243803
0.0033566
0.00514328
0.00681746
0.00741985
0.00761204
0.0076689
0.00768088
0.00764833
0.00750538
0.0071716
0.00658133
0.00600938
0.00581995
0.00582688
0.00579898
0.00575717
0.00569315
0.00558832
0.00547894
0.0053842
0.00534775
0.00534182
0.00538239
0.00550633
0.00576237
0.00612396
0.00652149
0.00676886
0.00677894
0.00644634
0.00538551
0.00483118
0.0048132
0.00528451
0.00609092
0.00553007
0.00358733
0.00313107
0.00357554
0.0040953
0.00301604
0.00265966
0.00263749
0.00266612
0.00268442
0.00267999
0.00265641
0.00264653
0.0026455
0.00266242
0.00264837
0.0026476
0.00271577
0.0032367
0.00567601
0.00611725
0.00487537
0.00444436
0.00456547
0.00500687
0.00519425
0.00521577
0.00477471
0.00342299
0.00289526
0.00295082
0.00344879
0.0034901
0.00341272
0.00573597
0.00470609
0.00331614
0.00254257
0.00222528
0.00213173
0.00213021
0.00221297
0.00256784
0.00407203
0.00597982
0.00638557
0.00634345
0.00582182
0.00483011
0.00463247
0.00522294
0.00745919
0.00890128
0.00869111
0.00653892
0.003622
0.00229604
0.00184443
0.00170625
0.00167566
0.00167338
0.00170106
0.001749
0.00179324
0.00180825
0.00181265
0.00175954
0.00162229
0.0015028
0.00141864
0.00133534
0.00131312
0.00131278
0.00132841
0.00138337
0.00152279
0.00172103
0.00193166
0.00216913
0.00257408
0.00348866
0.00495684
0.00607933
0.00649294
0.00656794
0.00640875
0.00603551
0.00557223
0.00543024
0.00549914
0.00564471
0.00570576
0.00563354
0.00544677
0.00514196
0.00485513
0.00466788
0.00458766
0.0045735
0.0045831
0.00463121
0.00476076
0.00497657
0.0053056
0.00574566
0.00610153
0.00618715
0.00597231
0.00516802
0.00474461
0.00476058
0.00530784
0.00583659
0.00497609
0.00332887
0.00308722
0.00380538
0.00398461
0.00283927
0.00264149
0.00264068
0.00266418
0.00266803
0.00266062
0.0026342
0.00261995
0.00260635
0.00259964
0.00263877
0.00272688
0.00325099
0.00525034
0.00600155
0.00471755
0.00427191
0.004222
0.004316
0.00467959
0.00497192
0.00504377
0.00483202
0.00374894
0.00291518
0.00282511
0.00329866
0.00344615
0.00336766
0.00552788
0.00461102
0.00336326
0.00261983
0.00230874
0.00221798
0.00225508
0.00255128
0.00367771
0.00572491
0.0064165
0.00651027
0.00638076
0.00594536
0.00501159
0.00456839
0.00482029
0.00635116
0.00823145
0.00837159
0.00676119
0.00383971
0.00236102
0.00185096
0.00170159
0.00166817
0.00166968
0.00172391
0.00184796
0.00206403
0.00226274
0.00236102
0.00240097
0.00230104
0.00207602
0.00184963
0.00153612
0.00138228
0.00133435
0.00133208
0.00138281
0.00155256
0.00184783
0.00204805
0.00212424
0.00224494
0.00251737
0.00299812
0.00368671
0.00428775
0.00457522
0.00469022
0.00477455
0.0049689
0.00523566
0.00549815
0.0056199
0.00552331
0.00510557
0.00470703
0.00446996
0.00434118
0.00426442
0.00421953
0.00421315
0.00422185
0.00423917
0.00427833
0.00435007
0.00450759
0.00484621
0.00526712
0.00547588
0.00540889
0.00493635
0.00465286
0.00470029
0.00527899
0.00561535
0.00456535
0.00320533
0.00307105
0.00390864
0.00386325
0.00276367
0.002634
0.00264107
0.00265648
0.00265234
0.00262916
0.00258258
0.00256735
0.00256699
0.00261359
0.00275324
0.00330157
0.00498318
0.00564805
0.00480921
0.00420204
0.00414406
0.0041465
0.00420441
0.0043503
0.00468621
0.00485766
0.00485219
0.00422376
0.00308007
0.00276614
0.00294072
0.00334088
0.00333527
0.00489886
0.00410063
0.00326127
0.00271303
0.00251318
0.00249615
0.00284348
0.00406933
0.00583782
0.00647235