/*--------------------------------*- C++ -*----------------------------------*\
  =========                 |
  \\      /  F ield         | OpenFOAM: The Open Source CFD Toolbox
   \\    /   O peration     | Website:  https://openfoam.org
    \\  /    A nd           | Version:  10
     \\/     M anipulation  |
\*---------------------------------------------------------------------------*/
FoamFile
{
    format      ascii;
    class       volVectorField;
    location    "0.651551";
    object      U;
}
// * * * * * * * * * * * * * * * * * * * * * * * * * * * * * * * * * * * * * //

dimensions      [0 1 -1 0 0 0 0];

internalField   nonuniform List<vector> 
16320
(
(-0.318934 -0.110056 0)
(-0.371725 -0.130388 0)
(-0.413424 -0.148575 0)
(-0.443854 -0.165369 0)
(-0.461343 -0.181009 0)
(-0.467011 -0.194604 0)
(-0.461419 -0.204749 0)
(-0.442819 -0.208274 0)
(-0.41647 -0.199128 0)
(-0.386462 -0.17228 0)
(-0.350047 -0.124158 0)
(-0.308653 -0.0536794 0)
(-0.262121 0.0342064 0)
(-0.238349 0.12902 0)
(-0.233771 0.204563 0)
(-0.226647 0.236857 0)
(-0.227255 0.247739 0)
(-0.235997 0.237619 0)
(-0.247006 0.206825 0)
(-0.263333 0.158483 0)
(-0.280432 0.108689 0)
(-0.286509 0.0734414 0)
(-0.276235 0.0594252 0)
(-0.258102 0.0622359 0)
(-0.237162 0.0738316 0)
(-0.214238 0.0895189 0)
(-0.189671 0.107631 0)
(-0.163181 0.127512 0)
(-0.13428 0.148744 0)
(-0.102509 0.171201 0)
(-0.067461 0.194911 0)
(-0.0302194 0.219441 0)
(0.0102674 0.244423 0)
(0.0509187 0.268177 0)
(0.0910049 0.29126 0)
(0.130442 0.31365 0)
(0.168151 0.334894 0)
(0.203523 0.354889 0)
(0.235773 0.373101 0)
(0.264319 0.389686 0)
(0.288885 0.405645 0)
(0.309573 0.421113 0)
(0.326983 0.434994 0)
(0.341896 0.445644 0)
(0.355133 0.451088 0)
(0.372379 0.449746 0)
(0.395893 0.430891 0)
(0.416682 0.391073 0)
(0.428954 0.305914 0)
(0.442509 0.218279 0)
(0.456662 0.128948 0)
(0.445093 0.0566659 0)
(0.39648 0.0148331 0)
(0.325487 0.00485882 0)
(0.259536 0.0226279 0)
(0.205013 0.0408313 0)
(0.160803 0.0473296 0)
(0.1273 0.0413907 0)
(0.100318 0.0284598 0)
(0.0781757 0.0137818 0)
(0.0672567 -0.0165647 0)
(0.0719061 -0.0689266 0)
(0.0835401 -0.13445 0)
(0.090924 -0.188326 0)
(0.0938997 -0.223884 0)
(0.10332 -0.237208 0)
(0.115299 -0.240943 0)
(0.130381 -0.242054 0)
(0.146874 -0.243564 0)
(0.163123 -0.244295 0)
(0.17822 -0.24151 0)
(0.192015 -0.234002 0)
(0.203972 -0.222545 0)
(0.214224 -0.209376 0)
(0.218022 -0.198987 0)
(0.205231 -0.191247 0)
(0.195033 -0.211275 0)
(0.194611 -0.246643 0)
(0.175106 -0.278993 0)
(0.167059 -0.297882 0)
(0.1707 -0.295675 0)
(0.164927 -0.27833 0)
(0.14925 -0.251637 0)
(0.126194 -0.217742 0)
(0.102198 -0.178984 0)
(0.0911981 -0.136459 0)
(0.0945825 -0.0902844 0)
(0.0984402 -0.0258396 0)
(0.113164 0.0388992 0)
(0.138858 0.0971647 0)
(0.15468 0.1474 0)
(0.157047 0.179626 0)
(0.148317 0.184488 0)
(0.116738 0.169973 0)
(0.0834594 0.141251 0)
(0.0515888 0.116767 0)
(0.0233982 0.0980784 0)
(-0.0165505 0.0514044 0)
(-0.0740795 -0.00338825 0)
(-0.121739 -0.0732232 0)
(-0.158306 -0.151537 0)
(-0.190821 -0.240588 0)
(-0.215653 -0.340189 0)
(-0.228806 -0.438349 0)
(-0.222312 -0.492696 0)
(-0.183203 -0.480326 0)
(-0.132957 -0.394497 0)
(-0.102415 -0.318763 0)
(-0.0783886 -0.267732 0)
(-0.0561127 -0.229529 0)
(-0.0355892 -0.200615 0)
(-0.0151737 -0.179619 0)
(0.00568625 -0.166455 0)
(-0.320988 -0.155995 0)
(-0.369581 -0.179892 0)
(-0.408613 -0.199847 0)
(-0.438631 -0.216825 0)
(-0.457967 -0.232462 0)
(-0.467139 -0.247735 0)
(-0.466967 -0.261448 0)
(-0.454339 -0.26971 0)
(-0.434423 -0.26323 0)
(-0.411259 -0.238931 0)
(-0.380496 -0.18954 0)
(-0.346175 -0.115329 0)
(-0.308711 -0.021748 0)
(-0.278829 0.0823334 0)
(-0.272969 0.176335 0)
(-0.263673 0.223089 0)
(-0.25507 0.243374 0)
(-0.257633 0.240781 0)
(-0.262966 0.2154 0)
(-0.272254 0.168421 0)
(-0.286616 0.110108 0)
(-0.295328 0.0664646 0)
(-0.290527 0.0458611 0)
(-0.277364 0.0449696 0)
(-0.26049 0.0549541 0)
(-0.241212 0.0700115 0)
(-0.220145 0.0875192 0)
(-0.197292 0.106364 0)
(-0.172391 0.125843 0)
(-0.144848 0.145915 0)
(-0.114183 0.167007 0)
(-0.0807903 0.189225 0)
(-0.0447483 0.2127 0)
(-0.00612931 0.236493 0)
(0.0331399 0.260192 0)
(0.0718393 0.283335 0)
(0.109908 0.306172 0)
(0.146658 0.328363 0)
(0.181325 0.349379 0)
(0.213387 0.369051 0)
(0.242677 0.387781 0)
(0.269337 0.405104 0)
(0.293649 0.41934 0)
(0.316156 0.428673 0)
(0.339205 0.430947 0)
(0.366691 0.424426 0)
(0.397789 0.398538 0)
(0.424262 0.345646 0)
(0.445239 0.271435 0)
(0.462444 0.194617 0)
(0.459677 0.125439 0)
(0.423678 0.0762286 0)
(0.359045 0.0543751 0)
(0.29098 0.0604494 0)
(0.231762 0.0748181 0)
(0.181824 0.0813012 0)
(0.143522 0.0780735 0)
(0.112664 0.0664091 0)
(0.0878016 0.051939 0)
(0.0685765 0.0316787 0)
(0.0671051 -0.0109127 0)
(0.0774867 -0.0722605 0)
(0.0865328 -0.134295 0)
(0.0892238 -0.184576 0)
(0.0926129 -0.217497 0)
(0.101556 -0.232924 0)
(0.114721 -0.238278 0)
(0.130809 -0.240003 0)
(0.147886 -0.240898 0)
(0.165007 -0.2404 0)
(0.181771 -0.237062 0)
(0.197737 -0.229257 0)
(0.212018 -0.217012 0)
(0.224026 -0.203168 0)
(0.232728 -0.1928 0)
(0.226876 -0.190333 0)
(0.214666 -0.210031 0)
(0.222545 -0.246275 0)
(0.213719 -0.284946 0)
(0.199736 -0.305224 0)
(0.204524 -0.30917 0)
(0.204026 -0.294796 0)
(0.190414 -0.272226 0)
(0.16505 -0.241431 0)
(0.133014 -0.2041 0)
(0.109139 -0.162982 0)
(0.106933 -0.118146 0)
(0.113509 -0.06024 0)
(0.124653 0.0126416 0)
(0.146625 0.0753635 0)
(0.167214 0.129346 0)
(0.175395 0.171603 0)
(0.173066 0.190826 0)
(0.150185 0.187598 0)
(0.116101 0.165191 0)
(0.0852631 0.139297 0)
(0.0541855 0.119683 0)
(0.0213593 0.0885223 0)
(-0.0328656 0.0377309 0)
(-0.0802774 -0.0320425 0)
(-0.116595 -0.115764 0)
(-0.144575 -0.205514 0)
(-0.171385 -0.306138 0)
(-0.190966 -0.417874 0)
(-0.19793 -0.49992 0)
(-0.174613 -0.505682 0)
(-0.130325 -0.430305 0)
(-0.0968641 -0.341123 0)
(-0.0755168 -0.281995 0)
(-0.0534594 -0.238353 0)
(-0.0338723 -0.204885 0)
(-0.0144554 -0.181499 0)
(0.00586266 -0.166601 0)
(-0.316936 -0.191951 0)
(-0.360604 -0.218494 0)
(-0.39675 -0.240335 0)
(-0.425601 -0.258194 0)
(-0.446165 -0.273959 0)
(-0.458487 -0.29009 0)
(-0.463178 -0.306361 0)
(-0.45588 -0.31888 0)
(-0.442581 -0.317798 0)
(-0.427707 -0.296022 0)
(-0.403624 -0.245728 0)
(-0.37622 -0.168248 0)
(-0.346364 -0.0689344 0)
(-0.317923 0.0414189 0)
(-0.311956 0.143661 0)
(-0.301617 0.204984 0)
(-0.285712 0.234505 0)
(-0.281233 0.239693 0)
(-0.281563 0.219393 0)
(-0.28579 0.175386 0)
(-0.295632 0.114266 0)
(-0.303543 0.0642116 0)
(-0.302791 0.038104 0)
(-0.293268 0.0335329 0)
(-0.279368 0.0411513 0)
(-0.262722 0.0549435 0)
(-0.244307 0.071743 0)
(-0.224316 0.0896923 0)
(-0.202568 0.107772 0)
(-0.178514 0.125845 0)
(-0.151651 0.144498 0)
(-0.121837 0.164359 0)
(-0.0894362 0.185544 0)
(-0.0546422 0.207708 0)
(-0.0179454 0.230936 0)
(0.0200474 0.254922 0)
(0.0572055 0.27856 0)
(0.0939559 0.302219 0)
(0.12965 0.325356 0)
(0.163814 0.347536 0)
(0.196426 0.368551 0)
(0.227568 0.387423 0)
(0.257647 0.402245 0)
(0.287539 0.410882 0)
(0.320064 0.410939 0)
(0.355683 0.398395 0)
(0.390864 0.366319 0)
(0.420735 0.312288 0)
(0.442447 0.249075 0)
(0.448221 0.187121 0)
(0.425993 0.13707 0)
(0.374266 0.107495 0)
(0.312437 0.102636 0)
(0.254573 0.110267 0)
(0.202284 0.114961 0)
(0.160456 0.112786 0)
(0.126701 0.102938 0)
(0.098463 0.0881812 0)
(0.0756851 0.0717174 0)
(0.0641492 0.0407113 0)
(0.0700445 -0.0139272 0)
(0.0802235 -0.0757815 0)
(0.085546 -0.133282 0)
(0.084755 -0.179567 0)
(0.0889324 -0.211996 0)
(0.0995581 -0.229241 0)
(0.113581 -0.236214 0)
(0.130726 -0.238389 0)
(0.148632 -0.238188 0)
(0.166316 -0.235911 0)
(0.183948 -0.231454 0)
(0.201554 -0.223166 0)
(0.217845 -0.210587 0)
(0.231923 -0.196749 0)
(0.243152 -0.186605 0)
(0.241575 -0.189232 0)
(0.232688 -0.210866 0)
(0.245177 -0.248739 0)
(0.243648 -0.291846 0)
(0.226112 -0.317456 0)
(0.23152 -0.32224 0)
(0.236182 -0.311158 0)
(0.225904 -0.294261 0)
(0.201272 -0.269633 0)
(0.163722 -0.236681 0)
(0.128259 -0.198296 0)
(0.115201 -0.154575 0)
(0.122459 -0.10257 0)
(0.134533 -0.0271533 0)
(0.154138 0.048893 0)
(0.17756 0.107002 0)
(0.190966 0.155482 0)
(0.19356 0.187527 0)
(0.17918 0.196432 0)
(0.149599 0.184395 0)
(0.117481 0.160634 0)
(0.0866424 0.136818 0)
(0.0584964 0.114235 0)
(0.0127951 0.0714316 0)
(-0.0303608 0.00575956 0)
(-0.0677988 -0.0821858 0)
(-0.0943859 -0.1746 0)
(-0.119314 -0.272761 0)
(-0.138837 -0.383655 0)
(-0.159816 -0.494287 0)
(-0.154432 -0.522089 0)
(-0.120859 -0.458616 0)
(-0.0870888 -0.362946 0)
(-0.070106 -0.296779 0)
(-0.0499832 -0.248607 0)
(-0.0322733 -0.210258 0)
(-0.0144321 -0.183773 0)
(0.00456255 -0.166734 0)
(-0.310908 -0.217717 0)
(-0.350239 -0.247231 0)
(-0.38339 -0.27168 0)
(-0.410514 -0.291217 0)
(-0.431069 -0.307636 0)
(-0.445418 -0.32396 0)
(-0.45391 -0.340997 0)
(-0.452024 -0.356166 0)
(-0.444953 -0.362183 0)
(-0.437321 -0.342251 0)
(-0.421333 -0.292275 0)
(-0.401077 -0.21226 0)
(-0.377743 -0.108631 0)
(-0.354917 0.00583683 0)
(-0.34913 0.111102 0)
(-0.337345 0.183262 0)
(-0.316254 0.222117 0)
(-0.305433 0.234552 0)
(-0.301403 0.219264 0)
(-0.301088 0.179064 0)
(-0.305768 0.119766 0)
(-0.312211 0.0650588 0)
(-0.313525 0.034466 0)
(-0.30609 0.0260321 0)
(-0.293869 0.0310271 0)
(-0.27873 0.0433395 0)
(-0.262119 0.0594319 0)
(-0.244179 0.0766585 0)
(-0.224583 0.0935708 0)
(-0.202901 0.109957 0)
(-0.178775 0.126427 0)
(-0.151833 0.143921 0)
(-0.121981 0.162908 0)
(-0.0900384 0.183075 0)
(-0.0561692 0.204738 0)
(-0.0205764 0.227999 0)
(0.0159155 0.252369 0)
(0.0516419 0.276642 0)
(0.0870272 0.300875 0)
(0.12163 0.324444 0)
(0.15559 0.346656 0)
(0.189348 0.366228 0)
(0.223282 0.38119 0)
(0.258439 0.388746 0)
(0.296048 0.386091 0)
(0.334475 0.368535 0)
(0.369433 0.334411 0)
(0.396859 0.286784 0)
(0.410677 0.236202 0)
(0.401723 0.190597 0)
(0.366039 0.158978 0)
(0.317183 0.146815 0)
(0.266727 0.147714 0)
(0.217493 0.148468 0)
(0.175648 0.145436 0)
(0.141009 0.13663 0)
(0.110695 0.122601 0)
(0.0853535 0.106789 0)
(0.0656536 0.08484 0)
(0.0644861 0.0388993 0)
(0.0737965 -0.0192387 0)
(0.0801379 -0.0790481 0)
(0.0805074 -0.130825 0)
(0.0798063 -0.173583 0)
(0.0865274 -0.207414 0)
(0.0968055 -0.225467 0)
(0.111721 -0.233792 0)
(0.130049 -0.236924 0)
(0.148629 -0.236067 0)
(0.166787 -0.232144 0)
(0.185224 -0.226345 0)
(0.204184 -0.217304 0)
(0.222123 -0.204214 0)
(0.237882 -0.190884 0)
(0.250615 -0.18231 0)
(0.252168 -0.188351 0)
(0.24825 -0.212361 0)
(0.263776 -0.25263 0)
(0.265649 -0.299249 0)
(0.247241 -0.329454 0)
(0.252806 -0.333869 0)
(0.259928 -0.326612 0)
(0.252101 -0.314954 0)
(0.229873 -0.297532 0)
(0.191011 -0.271987 0)
(0.147092 -0.238779 0)
(0.122778 -0.198719 0)
(0.124489 -0.146793 0)
(0.141126 -0.0745637 0)
(0.161836 0.0139336 0)
(0.184035 0.0837167 0)
(0.202953 0.137293 0)
(0.210659 0.17736 0)
(0.203884 0.19793 0)
(0.179994 0.196752 0)
(0.148424 0.178108 0)
(0.118825 0.152339 0)
(0.0912113 0.129247 0)
(0.0573984 0.094777 0)
(0.0224661 0.0391412 0)
(-0.0096881 -0.0475792 0)
(-0.0411213 -0.143833 0)
(-0.0671493 -0.24072 0)
(-0.0863403 -0.346957 0)
(-0.112226 -0.472807 0)
(-0.122641 -0.527731 0)
(-0.104433 -0.477725 0)
(-0.075251 -0.38234 0)
(-0.0620873 -0.309814 0)
(-0.0453587 -0.258599 0)
(-0.0301333 -0.216249 0)
(-0.0145707 -0.186788 0)
(0.00244244 -0.167003 0)
(-0.303765 -0.232127 0)
(-0.340189 -0.265034 0)
(-0.371113 -0.293094 0)
(-0.396354 -0.315695 0)
(-0.416026 -0.333894 0)
(-0.431213 -0.350614 0)
(-0.442344 -0.367406 0)
(-0.445973 -0.38365 0)
(-0.443856 -0.394986 0)
(-0.442155 -0.377554 0)
(-0.435826 -0.329249 0)
(-0.422505 -0.247707 0)
(-0.405231 -0.14086 0)
(-0.388051 -0.0246459 0)
(-0.382216 0.0816774 0)
(-0.368309 0.160057 0)
(-0.343839 0.20708 0)
(-0.328584 0.225199 0)
(-0.32007 0.215355 0)
(-0.315341 0.179227 0)
(-0.315559 0.123792 0)
(-0.318808 0.0684507 0)
(-0.319306 0.0344031 0)
(-0.312981 0.0220804 0)
(-0.302562 0.0233528 0)
(-0.289017 0.0343301 0)
(-0.274011 0.0499302 0)
(-0.257697 0.0664301 0)
(-0.239626 0.0821071 0)
(-0.219416 0.096793 0)
(-0.196728 0.11114 0)
(-0.171324 0.126296 0)
(-0.142869 0.143065 0)
(-0.112314 0.161419 0)
(-0.0800379 0.181458 0)
(-0.0462207 0.2035 0)
(-0.0113146 0.227508 0)
(0.0234512 0.25219 0)
(0.0574904 0.276652 0)
(0.0910859 0.300452 0)
(0.124502 0.322553 0)
(0.158282 0.341386 0)
(0.192883 0.354711 0)
(0.229133 0.359776 0)
(0.26669 0.354009 0)
(0.302851 0.335379 0)
(0.333633 0.305292 0)
(0.3536 0.268812 0)
(0.355266 0.232151 0)
(0.335695 0.2031 0)
(0.303119 0.188147 0)
(0.264135 0.183959 0)
(0.222658 0.181002 0)
(0.184956 0.175999 0)
(0.152754 0.167214 0)
(0.123398 0.153993 0)
(0.0967499 0.138381 0)
(0.0735066 0.12118 0)
(0.0614629 0.0872105 0)
(0.0676789 0.0295224 0)
(0.0737769 -0.0266094 0)
(0.078906 -0.0826818 0)
(0.0755775 -0.127403 0)
(0.077014 -0.16999 0)
(0.0848537 -0.202889 0)
(0.0941211 -0.222444 0)
(0.109332 -0.232632 0)
(0.128083 -0.236772 0)
(0.14753 -0.23493 0)
(0.166438 -0.22896 0)
(0.185932 -0.22155 0)
(0.206725 -0.211688 0)
(0.226121 -0.198098 0)
(0.2428 -0.185921 0)
(0.257127 -0.179952 0)
(0.262166 -0.189101 0)
(0.262599 -0.21435 0)
(0.279337 -0.256152 0)
(0.282076 -0.305888 0)
(0.263571 -0.33994 0)
(0.269079 -0.346067 0)
(0.2778 -0.342976 0)
(0.271166 -0.335668 0)
(0.250137 -0.323228 0)
(0.211586 -0.304103 0)
(0.162814 -0.276941 0)
(0.131065 -0.242158 0)
(0.125968 -0.190489 0)
(0.141671 -0.119957 0)
(0.16431 -0.0262781 0)
(0.188746 0.0607555 0)
(0.210009 0.121413 0)
(0.222423 0.167189 0)
(0.222735 0.195442 0)
(0.20526 0.203539 0)
(0.177849 0.191898 0)
(0.147964 0.167372 0)
(0.120464 0.140925 0)
(0.0924906 0.10669 0)
(0.0645927 0.0549393 0)
(0.0439702 -0.0190175 0)
(0.0145745 -0.109203 0)
(-0.0152873 -0.20877 0)
(-0.0361349 -0.312388 0)
(-0.0626635 -0.439872 0)
(-0.0847923 -0.52241 0)
(-0.0824663 -0.487752 0)
(-0.0628852 -0.39677 0)
(-0.0519473 -0.319508 0)
(-0.0402681 -0.26656 0)
(-0.0279208 -0.221973 0)
(-0.0148931 -0.190458 0)
(-0.000728906 -0.167374 0)
(-0.295499 -0.234884 0)
(-0.330507 -0.271493 0)
(-0.36039 -0.303527 0)
(-0.384386 -0.330013 0)
(-0.402876 -0.351199 0)
(-0.418058 -0.369071 0)
(-0.430989 -0.385412 0)
(-0.439351 -0.401869 0)
(-0.44098 -0.415238 0)
(-0.444579 -0.402586 0)
(-0.447982 -0.356832 0)
(-0.440804 -0.274701 0)
(-0.428641 -0.165856 0)
(-0.416243 -0.0499195 0)
(-0.409661 0.0550254 0)
(-0.393583 0.137341 0)
(-0.36791 0.18992 0)
(-0.349417 0.212592 0)
(-0.33631 0.208067 0)
(-0.32767 0.175464 0)
(-0.324757 0.123894 0)
(-0.323378 0.0720392 0)
(-0.320111 0.037123 0)
(-0.315084 0.0192851 0)
(-0.306333 0.0175578 0)
(-0.294058 0.0278159 0)
(-0.280822 0.0427863 0)
(-0.26588 0.0581808 0)
(-0.248754 0.0723427 0)
(-0.229186 0.0852168 0)
(-0.206914 0.0973988 0)
(-0.181724 0.110126 0)
(-0.153368 0.124445 0)
(-0.122765 0.141004 0)
(-0.0908743 0.159514 0)
(-0.0576078 0.180638 0)
(-0.0238619 0.204277 0)
(0.00965887 0.229152 0)
(0.04188 0.254005 0)
(0.0732525 0.27779 0)
(0.104157 0.299141 0)
(0.135271 0.316381 0)
(0.167171 0.327378 0)
(0.200283 0.329946 0)
(0.233656 0.322735 0)
(0.26443 0.306451 0)
(0.287599 0.283903 0)
(0.296714 0.259102 0)
(0.289856 0.23676 0)
(0.272456 0.222907 0)
(0.246478 0.216056 0)
(0.215508 0.210494 0)
(0.185383 0.204064 0)
(0.158287 0.194626 0)
(0.133266 0.181995 0)
(0.108319 0.166839 0)
(0.0852361 0.151286 0)
(0.0640011 0.129038 0)
(0.0618061 0.0786371 0)
(0.0710989 0.0215291 0)
(0.0756587 -0.0370351 0)
(0.0761402 -0.0851143 0)
(0.0732218 -0.125183 0)
(0.0776611 -0.167847 0)
(0.0832873 -0.199749 0)
(0.0911791 -0.220733 0)
(0.106833 -0.233771 0)
(0.126635 -0.238365 0)
(0.146689 -0.234916 0)
(0.166466 -0.22685 0)
(0.18737 -0.217548 0)
(0.210687 -0.206884 0)
(0.231908 -0.192856 0)
(0.249187 -0.180963 0)
(0.264783 -0.177255 0)
(0.273391 -0.190212 0)
(0.278206 -0.2165 0)
(0.29335 -0.258872 0)
(0.294467 -0.31101 0)
(0.276403 -0.348763 0)
(0.280814 -0.358869 0)
(0.2894 -0.360884 0)
(0.283669 -0.357564 0)
(0.263921 -0.348256 0)
(0.226415 -0.333358 0)
(0.17484 -0.311045 0)
(0.139814 -0.280539 0)
(0.129105 -0.230759 0)
(0.139254 -0.159043 0)
(0.164781 -0.0643157 0)
(0.191215 0.036179 0)
(0.212402 0.109525 0)
(0.228746 0.160597 0)
(0.233886 0.193098 0)
(0.224393 0.208084 0)
(0.201581 0.203111 0)
(0.172988 0.181778 0)
(0.147479 0.152599 0)
(0.122493 0.116306 0)
(0.098539 0.0649958 0)
(0.0819399 -0.0027051 0)
(0.0592458 -0.0857028 0)
(0.0313953 -0.176893 0)
(0.0100382 -0.27912 0)
(-0.0164298 -0.404216 0)
(-0.0461085 -0.50648 0)
(-0.0569781 -0.489255 0)
(-0.0499262 -0.403361 0)
(-0.0411625 -0.324668 0)
(-0.0356479 -0.271035 0)
(-0.0262117 -0.22586 0)
(-0.0157402 -0.193312 0)
(-0.00529446 -0.166388 0)
(-0.286197 -0.226516 0)
(-0.32081 -0.266829 0)
(-0.350515 -0.30312 0)
(-0.37431 -0.333726 0)
(-0.392472 -0.358686 0)
(-0.407504 -0.378831 0)
(-0.421479 -0.39495 0)
(-0.432697 -0.410675 0)
(-0.437481 -0.424541 0)
(-0.44638 -0.417931 0)
(-0.457378 -0.375421 0)
(-0.45514 -0.29409 0)
(-0.446863 -0.184814 0)
(-0.437974 -0.0716811 0)
(-0.429652 0.0298924 0)
(-0.412007 0.114218 0)
(-0.387009 0.170175 0)
(-0.366431 0.196807 0)
(-0.349852 0.19651 0)
(-0.337648 0.168256 0)
(-0.330559 0.121674 0)
(-0.32426 0.0748579 0)
(-0.319218 0.0390928 0)
(-0.313469 0.016233 0)
(-0.304596 0.0137203 0)
(-0.293809 0.0236664 0)
(-0.281994 0.0378984 0)
(-0.267879 0.0518608 0)
(-0.251071 0.064139 0)
(-0.231537 0.0748657 0)
(-0.20909 0.0844554 0)
(-0.183569 0.0940005 0)
(-0.15471 0.105523 0)
(-0.123949 0.12104 0)
(-0.0919735 0.139339 0)
(-0.0587062 0.160919 0)
(-0.0256331 0.185109 0)
(0.007022 0.210796 0)
(0.0373965 0.236968 0)
(0.0656268 0.260622 0)
(0.0924784 0.281021 0)
(0.118715 0.296554 0)
(0.144762 0.305451 0)
(0.170971 0.305731 0)
(0.196636 0.297101 0)
(0.218788 0.283712 0)
(0.232609 0.26918 0)
(0.235453 0.256749 0)
(0.229687 0.248195 0)
(0.215993 0.241798 0)
(0.196211 0.235289 0)
(0.17536 0.228224 0)
(0.155522 0.218632 0)
(0.136763 0.206201 0)
(0.117077 0.191713 0)
(0.0965987 0.176637 0)
(0.0761703 0.16067 0)
(0.0609759 0.128346 0)
(0.0678428 0.0664821 0)
(0.0714714 0.00672781 0)
(0.0787348 -0.0478689 0)
(0.0750464 -0.0867986 0)
(0.0747022 -0.126189 0)
(0.0795704 -0.165576 0)
(0.0831659 -0.197212 0)
(0.0910578 -0.221029 0)
(0.107271 -0.235723 0)
(0.127054 -0.240609 0)
(0.1476 -0.235795 0)
(0.168314 -0.226106 0)
(0.190723 -0.215237 0)
(0.217084 -0.204786 0)
(0.241332 -0.192767 0)
(0.258821 -0.180344 0)
(0.273244 -0.176318 0)
(0.28389 -0.189985 0)
(0.292951 -0.217583 0)
(0.305601 -0.260623 0)
(0.30435 -0.314225 0)
(0.286887 -0.356241 0)
(0.288327 -0.372804 0)
(0.294834 -0.380307 0)
(0.288486 -0.378875 0)
(0.269065 -0.370644 0)
(0.234087 -0.358097 0)
(0.184074 -0.339005 0)
(0.15034 -0.31031 0)
(0.137892 -0.262678 0)
(0.142498 -0.189714 0)
(0.165788 -0.0942739 0)
(0.189458 0.0125502 0)
(0.211701 0.101481 0)
(0.228471 0.158047 0)
(0.23733 0.194872 0)
(0.234792 0.213579 0)
(0.21833 0.213609 0)
(0.194144 0.195452 0)
(0.169701 0.165267 0)
(0.148199 0.126521 0)
(0.127578 0.0749249 0)
(0.111553 0.0114919 0)
(0.0909975 -0.0663418 0)
(0.0654889 -0.154998 0)
(0.0481978 -0.254567 0)
(0.0247808 -0.368754 0)
(-0.00989542 -0.480058 0)
(-0.0301352 -0.481563 0)
(-0.0363383 -0.402092 0)
(-0.0312916 -0.324924 0)
(-0.0324048 -0.271185 0)
(-0.0257295 -0.2267 0)
(-0.0176589 -0.193655 0)
(-0.0115557 -0.162299 0)
(-0.275646 -0.207722 0)
(-0.310643 -0.251498 0)
(-0.340697 -0.291967 0)
(-0.365063 -0.327471 0)
(-0.384461 -0.356539 0)
(-0.399997 -0.379682 0)
(-0.414138 -0.396424 0)
(-0.427333 -0.410457 0)
(-0.435005 -0.424368 0)
(-0.447258 -0.423971 0)
(-0.463485 -0.385718 0)
(-0.4652 -0.30803 0)
(-0.45931 -0.200669 0)
(-0.451626 -0.09223 0)
(-0.440211 0.00716762 0)
(-0.421637 0.0909009 0)
(-0.398825 0.148373 0)
(-0.377506 0.178269 0)
(-0.35844 0.181754 0)
(-0.343251 0.159112 0)
(-0.332839 0.11866 0)
(-0.321774 0.0747036 0)
(-0.31315 0.0372832 0)
(-0.306085 0.0134034 0)
(-0.295707 0.0111095 0)
(-0.285278 0.0209385 0)
(-0.274015 0.0338515 0)
(-0.260295 0.0450798 0)
(-0.243662 0.0534576 0)
(-0.2249 0.0597814 0)
(-0.204869 0.064064 0)
(-0.18343 0.0669122 0)
(-0.160017 0.0715719 0)
(-0.134305 0.0798073 0)
(-0.105486 0.089289 0)
(-0.0717416 0.106421 0)
(-0.036917 0.129833 0)
(-0.00142692 0.159498 0)
(0.0289326 0.201057 0)
(0.0553153 0.235502 0)
(0.0797215 0.262446 0)
(0.101882 0.280531 0)
(0.121139 0.290965 0)
(0.137627 0.291607 0)
(0.153346 0.283105 0)
(0.167414 0.272831 0)
(0.17696 0.265375 0)
(0.180208 0.261296 0)
(0.1763 0.258368 0)
(0.166962 0.253508 0)
(0.155424 0.247156 0)
(0.143636 0.238271 0)
(0.131997 0.226271 0)
(0.119562 0.212534 0)
(0.104366 0.197926 0)
(0.0886615 0.183586 0)
(0.0707817 0.165077 0)
(0.0634441 0.117621 0)
(0.0742948 0.0504181 0)
(0.0783378 -0.0104346 0)
(0.0819815 -0.0573557 0)
(0.0781997 -0.0901592 0)
(0.0803005 -0.128812 0)
(0.0836118 -0.164487 0)
(0.0870021 -0.195859 0)
(0.095486 -0.2214 0)
(0.111101 -0.237945 0)
(0.130508 -0.24245 0)
(0.151647 -0.237072 0)
(0.173531 -0.227005 0)
(0.196588 -0.215486 0)
(0.223502 -0.20548 0)
(0.250619 -0.19737 0)
(0.270908 -0.1865 0)
(0.284821 -0.181005 0)
(0.294453 -0.191156 0)
(0.303842 -0.218097 0)
(0.313965 -0.260865 0)
(0.31111 -0.314238 0)
(0.294981 -0.360837 0)
(0.291676 -0.385353 0)
(0.293584 -0.396891 0)
(0.284556 -0.39831 0)
(0.264257 -0.387165 0)
(0.233701 -0.374008 0)
(0.190114 -0.357176 0)
(0.161896 -0.329018 0)
(0.150681 -0.283084 0)
(0.150164 -0.209705 0)
(0.16747 -0.114185 0)
(0.188709 -0.00642026 0)
(0.209792 0.0936072 0)
(0.223836 0.158474 0)
(0.234092 0.2001 0)
(0.235682 0.221396 0)
(0.226979 0.224656 0)
(0.207749 0.20869 0)
(0.186623 0.178655 0)
(0.167942 0.137611 0)
(0.150333 0.0853407 0)
(0.135378 0.0229328 0)
(0.116316 -0.0530577 0)
(0.092228 -0.137419 0)
(0.0777225 -0.234078 0)
(0.0573028 -0.343186 0)
(0.023553 -0.448611 0)
(-0.00593187 -0.46563 0)
(-0.0233178 -0.394467 0)
(-0.0230317 -0.320331 0)
(-0.0307321 -0.266961 0)
(-0.0268257 -0.223882 0)
(-0.0212342 -0.190169 0)
(-0.0197942 -0.154486 0)
(-0.262939 -0.179246 0)
(-0.299016 -0.226156 0)
(-0.330356 -0.27046 0)
(-0.355615 -0.311153 0)
(-0.377117 -0.345214 0)
(-0.395027 -0.371737 0)
(-0.408939 -0.389877 0)
(-0.422821 -0.402802 0)
(-0.433501 -0.414973 0)
(-0.446578 -0.420824 0)
(-0.465861 -0.388144 0)
(-0.471945 -0.317342 0)
(-0.467514 -0.214676 0)
(-0.456986 -0.109777 0)
(-0.441149 -0.0124763 0)
(-0.423233 0.068783 0)
(-0.402493 0.126298 0)
(-0.381633 0.158754 0)
(-0.361632 0.165909 0)
(-0.344502 0.148402 0)
(-0.330758 0.113042 0)
(-0.314987 0.0709539 0)
(-0.30087 0.0308504 0)
(-0.290025 0.00836341 0)
(-0.277985 0.00753078 0)
(-0.268311 0.0171817 0)
(-0.259946 0.0287821 0)
(-0.252424 0.037744 0)
(-0.246428 0.0422329 0)
(-0.243868 0.0438507 0)
(-0.241955 0.0471514 0)
(-0.230959 0.0530376 0)
(-0.20914 0.0559277 0)
(-0.182181 0.0582901 0)
(-0.151264 0.0649061 0)
(-0.11633 0.0764934 0)
(-0.079196 0.092374 0)
(-0.0350693 0.114151 0)
(0.0103405 0.143972 0)
(0.0338393 0.177238 0)
(0.0560179 0.219583 0)
(0.0777568 0.255582 0)
(0.0953495 0.27983 0)
(0.105785 0.287468 0)
(0.114222 0.282439 0)
(0.121403 0.273626 0)
(0.126925 0.268285 0)
(0.129874 0.265682 0)
(0.129862 0.263136 0)
(0.127296 0.259036 0)
(0.123485 0.252217 0)
(0.119003 0.241879 0)
(0.113683 0.22887 0)
(0.105942 0.214949 0)
(0.0953373 0.201339 0)
(0.0839147 0.187056 0)
(0.0699635 0.163653 0)
(0.0724364 0.0998337 0)
(0.0800481 0.0299121 0)
(0.0880384 -0.0267186 0)
(0.0877509 -0.0664032 0)
(0.0863237 -0.0958512 0)
(0.0897195 -0.131338 0)
(0.0922112 -0.164272 0)
(0.0966119 -0.196085 0)
(0.105003 -0.221221 0)
(0.119034 -0.236415 0)
(0.137843 -0.23932 0)
(0.159494 -0.235352 0)
(0.182895 -0.228324 0)
(0.20672 -0.217526 0)
(0.232153 -0.207346 0)
(0.25963 -0.201237 0)
(0.282807 -0.195131 0)
(0.297823 -0.189236 0)
(0.306315 -0.193385 0)
(0.314213 -0.218794 0)
(0.321849 -0.261244 0)
(0.316921 -0.313383 0)
(0.302387 -0.361991 0)
(0.29597 -0.393028 0)
(0.283511 -0.409106 0)
(0.268745 -0.409141 0)
(0.251021 -0.396176 0)
(0.225754 -0.381295 0)
(0.192085 -0.365902 0)
(0.172965 -0.337985 0)
(0.165079 -0.292512 0)
(0.160645 -0.219344 0)
(0.171318 -0.123835 0)
(0.187805 -0.0172675 0)
(0.202187 0.0868723 0)
(0.215753 0.162252 0)
(0.225484 0.207256 0)
(0.229323 0.231266 0)
(0.226141 0.23611 0)
(0.213608 0.222024 0)
(0.197849 0.192036 0)
(0.182422 0.148689 0)
(0.169125 0.0948341 0)
(0.155768 0.031384 0)
(0.135097 -0.0423245 0)
(0.113792 -0.123819 0)
(0.101971 -0.218405 0)
(0.0825626 -0.32256 0)
(0.049565 -0.421872 0)
(0.0148555 -0.444123 0)
(-0.0119096 -0.382307 0)
(-0.0169712 -0.311033 0)
(-0.0306508 -0.258549 0)
(-0.0294385 -0.217001 0)
(-0.0274323 -0.181924 0)
(-0.0304474 -0.142387 0)
(-0.246072 -0.142243 0)
(-0.284504 -0.191952 0)
(-0.317845 -0.239411 0)
(-0.34482 -0.284396 0)
(-0.368694 -0.32494 0)
(-0.389374 -0.355411 0)
(-0.404304 -0.375874 0)
(-0.418245 -0.389101 0)
(-0.43159 -0.398792 0)
(-0.44306 -0.40639 0)
(-0.461582 -0.38339 0)
(-0.473891 -0.322104 0)
(-0.47086 -0.227845 0)
(-0.458006 -0.124757 0)
(-0.438411 -0.0308054 0)
(-0.419529 0.0480514 0)
(-0.399811 0.10517 0)
(-0.379538 0.139336 0)
(-0.359505 0.149367 0)
(-0.340871 0.135476 0)
(-0.32336 0.102676 0)
(-0.302226 0.0615207 0)
(-0.281244 0.0189195 0)
(-0.266956 -0.000481225 0)
(-0.257866 0.00276203 0)
(-0.256869 0.0169148 0)
(-0.264162 0.0326193 0)
(-0.276811 0.0420122 0)
(-0.281565 0.0485314 0)
(-0.270251 0.0548671 0)
(-0.255059 0.056214 0)
(-0.237673 0.056338 0)
(-0.217 0.0568723 0)
(-0.191355 0.0605847 0)
(-0.162405 0.0685887 0)
(-0.132372 0.0799439 0)
(-0.100827 0.0940293 0)
(-0.0689919 0.112802 0)
(-0.0357041 0.133607 0)
(0.00341694 0.162476 0)
(0.0370227 0.198297 0)
(0.0597386 0.238655 0)
(0.0733933 0.270845 0)
(0.0767342 0.287575 0)
(0.0791851 0.286093 0)
(0.082124 0.277135 0)
(0.0853553 0.270499 0)
(0.0889844 0.266517 0)
(0.0931183 0.263631 0)
(0.0963918 0.259253 0)
(0.0986008 0.251584 0)
(0.0998332 0.240705 0)
(0.0992331 0.227727 0)
(0.0954353 0.214336 0)
(0.0895417 0.201406 0)
(0.0818206 0.186425 0)
(0.0749183 0.154554 0)
(0.0851314 0.0780544 0)
(0.0907565 0.00994566 0)
(0.0987516 -0.0422937 0)
(0.0977031 -0.0761419 0)
(0.0986772 -0.104861 0)
(0.103403 -0.13611 0)
(0.106993 -0.167276 0)
(0.113069 -0.196515 0)
(0.121768 -0.219136 0)
(0.134991 -0.232746 0)
(0.151409 -0.236207 0)
(0.169657 -0.231837 0)
(0.194947 -0.225335 0)
(0.221034 -0.21912 0)
(0.244176 -0.20987 0)
(0.268566 -0.202916 0)
(0.294267 -0.199929 0)
(0.314459 -0.196992 0)
(0.319876 -0.197151 0)
(0.319879 -0.216596 0)
(0.325746 -0.260539 0)
(0.322787 -0.314129 0)
(0.313804 -0.366264 0)
(0.303921 -0.407381 0)
(0.276123 -0.433547 0)
(0.248354 -0.427227 0)
(0.23262 -0.406958 0)
(0.215591 -0.387707 0)
(0.192053 -0.369469 0)
(0.183145 -0.339867 0)
(0.178658 -0.292636 0)
(0.170914 -0.219346 0)
(0.175146 -0.124292 0)
(0.18545 -0.0193748 0)
(0.192452 0.0856948 0)
(0.20329 0.170181 0)
(0.211078 0.21766 0)
(0.216008 0.24347 0)
(0.217161 0.248325 0)
(0.211703 0.235034 0)
(0.201172 0.203722 0)
(0.191137 0.159022 0)
(0.181983 0.103342 0)
(0.171162 0.0377069 0)
(0.148779 -0.0333941 0)
(0.131117 -0.114835 0)
(0.121967 -0.207714 0)
(0.102315 -0.30809 0)
(0.0704944 -0.398969 0)
(0.0297759 -0.4202 0)
(-0.00303438 -0.365344 0)
(-0.0124182 -0.29723 0)
(-0.0319585 -0.246215 0)
(-0.0334933 -0.205995 0)
(-0.0365664 -0.168667 0)
(-0.0428868 -0.126398 0)
(-0.221126 -0.0980156 0)
(-0.264849 -0.150203 0)
(-0.301039 -0.200087 0)
(-0.330872 -0.248336 0)
(-0.356655 -0.294914 0)
(-0.379953 -0.33092 0)
(-0.39788 -0.355966 0)
(-0.412139 -0.370448 0)
(-0.425377 -0.377677 0)
(-0.435081 -0.382248 0)
(-0.451598 -0.373262 0)
(-0.469083 -0.32296 0)
(-0.469199 -0.240348 0)
(-0.45476 -0.13976 0)
(-0.432604 -0.0492501 0)
(-0.411669 0.0279047 0)
(-0.391898 0.0850948 0)
(-0.372073 0.120278 0)
(-0.352083 0.131954 0)
(-0.331949 0.119706 0)
(-0.308978 0.0872029 0)
(-0.281936 0.0446384 0)
(-0.258685 0.00315612 0)
(-0.248743 -0.00604021 0)
(-0.254665 0.0115383 0)
(-0.275068 0.0412117 0)
(-0.296881 0.0520252 0)
(-0.301381 0.0608885 0)
(-0.296205 0.0644318 0)
(-0.286488 0.0629747 0)
(-0.271702 0.0585904 0)
(-0.251272 0.056469 0)
(-0.22558 0.0566883 0)
(-0.192676 0.0609162 0)
(-0.153046 0.0688684 0)
(-0.113143 0.0840183 0)
(-0.0806298 0.105168 0)
(-0.0502627 0.130944 0)
(-0.0270726 0.156966 0)
(-0.00974432 0.180757 0)
(0.0103 0.205289 0)
(0.0282183 0.239865 0)
(0.0419439 0.27225 0)
(0.0477019 0.28963 0)
(0.0475626 0.290011 0)
(0.0484108 0.280486 0)
(0.0522019 0.271999 0)
(0.0575434 0.265946 0)
(0.0644993 0.260828 0)
(0.071926 0.255128 0)
(0.0788332 0.247005 0)
(0.0842153 0.236047 0)
(0.0873045 0.223595 0)
(0.0871869 0.210896 0)
(0.0857256 0.197621 0)
(0.0810196 0.18088 0)
(0.0835864 0.135139 0)
(0.0974215 0.0547683 0)
(0.105129 -0.00958716 0)
(0.111927 -0.0579792 0)
(0.112021 -0.088068 0)
(0.115432 -0.114811 0)
(0.121515 -0.143701 0)
(0.127814 -0.171934 0)
(0.135765 -0.198407 0)
(0.144653 -0.219534 0)
(0.156638 -0.235932 0)
(0.17279 -0.243766 0)
(0.191936 -0.238462 0)
(0.211384 -0.225576 0)
(0.234982 -0.219994 0)
(0.259221 -0.21218 0)
(0.280426 -0.203946 0)
(0.303613 -0.19972 0)
(0.326347 -0.201171 0)
(0.334862 -0.204605 0)
(0.327827 -0.214327 0)
(0.324917 -0.257145 0)
(0.322398 -0.315121 0)
(0.314332 -0.374007 0)
(0.301206 -0.424664 0)
(0.262224 -0.455514 0)
(0.22895 -0.447914 0)
(0.220015 -0.415442 0)
(0.209727 -0.391047 0)
(0.194804 -0.368858 0)
(0.19334 -0.335448 0)
(0.190163 -0.285416 0)
(0.178614 -0.210437 0)
(0.176747 -0.115861 0)
(0.180305 -0.0127287 0)
(0.180384 0.0915329 0)
(0.186108 0.180772 0)
(0.191553 0.231116 0)
(0.195793 0.257795 0)
(0.200325 0.262204 0)
(0.201493 0.247367 0)
(0.19718 0.213991 0)
(0.193246 0.167482 0)
(0.187898 0.110157 0)
(0.179044 0.0444938 0)
(0.157948 -0.0271925 0)
(0.145445 -0.110173 0)
(0.13887 -0.200701 0)
(0.117715 -0.298056 0)
(0.0870577 -0.378573 0)
(0.0404338 -0.394981 0)
(0.003622 -0.342427 0)
(-0.00946721 -0.279506 0)
(-0.0347257 -0.230259 0)
(-0.0393173 -0.19062 0)
(-0.0486604 -0.150049 0)
(-0.0578407 -0.106091 0)
(-0.18141 -0.0462794 0)
(-0.236929 -0.101349 0)
(-0.277666 -0.15376 0)
(-0.311098 -0.204311 0)
(-0.338561 -0.254418 0)
(-0.364454 -0.298181 0)
(-0.386148 -0.329484 0)
(-0.400856 -0.347738 0)
(-0.413104 -0.354308 0)
(-0.423425 -0.354961 0)
(-0.43484 -0.352939 0)
(-0.452715 -0.318034 0)
(-0.460239 -0.250117 0)
(-0.447537 -0.155632 0)
(-0.424751 -0.0676756 0)
(-0.400098 0.0080399 0)
(-0.379293 0.0655567 0)
(-0.359482 0.101303 0)
(-0.339072 0.113371 0)
(-0.316323 0.100389 0)
(-0.286837 0.0672936 0)
(-0.256354 0.01983 0)