/*--------------------------------*- C++ -*----------------------------------*\
  =========                 |
  \\      /  F ield         | OpenFOAM: The Open Source CFD Toolbox
   \\    /   O peration     | Website:  https://openfoam.org
    \\  /    A nd           | Version:  10
     \\/     M anipulation  |
\*---------------------------------------------------------------------------*/
FoamFile
{
    format      ascii;
    class       volScalarField;
    location    "0.149786";
    object      p;
}
// * * * * * * * * * * * * * * * * * * * * * * * * * * * * * * * * * * * * * //

dimensions      [1 -1 -2 0 0 0 0];

internalField   nonuniform List<scalar> 
15984
(
2.4876
2.47919
2.47005
2.46032
2.45017
2.4398
2.4294
2.41918
2.40936
2.40018
2.39188
2.38471
2.37891
2.37474
2.37241
2.37214
2.37367
2.37769
2.38448
2.39386
2.40577
2.42017
2.43691
2.45574
2.47627
2.49807
2.52057
2.54313
2.56511
2.58584
2.60474
2.62135
2.63533
2.64646
2.65473
2.66028
2.66333
2.66418
2.66333
2.661
2.65766
2.65368
2.64949
2.64552
2.64221
2.63999
2.63921
2.64008
2.6429
2.64788
2.65498
2.66393
2.67433
2.68556
2.48856
2.47878
2.46841
2.45762
2.44659
2.43548
2.42449
2.41379
2.4036
2.39411
2.38555
2.37815
2.37216
2.3678
2.36534
2.365
2.36654
2.3707
2.37791
2.38808
2.40119
2.41721
2.436
2.45727
2.48054
2.5052
2.53051
2.55564
2.57975
2.60208
2.62197
2.63894
2.6527
2.66314
2.67032
2.67453
2.67605
2.67538
2.67285
2.66883
2.66375
2.65808
2.65224
2.64661
2.64155
2.63743
2.6346
2.63336
2.63386
2.63619
2.6406
2.64693
2.65491
2.66404
2.48792
2.47694
2.46554
2.45388
2.44213
2.43046
2.41902
2.40799
2.39756
2.3879
2.37923
2.37176
2.36572
2.36138
2.35898
2.35879
2.36056
2.36519
2.37312
2.38437
2.39895
2.41682
2.43783
2.46159
2.48752
2.51479
2.54246
2.56951
2.595
2.61807
2.63807
2.65456
2.66736
2.67649
2.68215
2.68468
2.6845
2.68223
2.67795
2.6723
2.66571
2.65861
2.65136
2.64432
2.63783
2.63221
2.62776
2.62474
2.62335
2.62369
2.62572
2.62966
2.63531
2.64235
2.48565
2.4737
2.46148
2.44915
2.43688
2.4248
2.41308
2.40187
2.39133
2.38164
2.37299
2.36559
2.35968
2.35552
2.35341
2.35357
2.35585
2.36132
2.37036
2.38303
2.3994
2.4194
2.44283
2.46917
2.49759
2.52709
2.55651
2.58472
2.61067
2.63354
2.65274
2.66795
2.67913
2.68644
2.6902
2.6908
2.68898
2.68484
2.67898
2.67184
2.6639
2.65555
2.64714
2.63898
2.63138
2.62461
2.61891
2.6145
2.61154
2.61019
2.61047
2.61228
2.61579
2.62077
2.48179
2.46911
2.4563
2.44352
2.43092
2.41863
2.40678
2.39553
2.38502
2.37542
2.36693
2.35974
2.35411
2.35032
2.34873
2.34941
2.35261
2.35927
2.36982
2.38432
2.40286
2.42535
2.4514
2.48027
2.51093
2.54213
2.57256
2.60103
2.62649
2.64821
2.66576
2.67897
2.68799
2.69308
2.69466
2.69341
2.68963
2.6838
2.67639
2.66794
2.65883
2.64945
2.64011
2.6311
2.62267
2.61504
2.60839
2.60292
2.59874
2.59598
2.59471
2.59493
2.59651
2.59954
2.47639
2.46325
2.4501
2.43709
2.42436
2.41203
2.40023
2.38908
2.37873
2.36935
2.36114
2.3543
2.34911
2.34591
2.34508
2.3465
2.35098
2.35924
2.37171
2.38852
2.40968
2.43496
2.46373
2.495
2.52747
2.5597
2.59031
2.61807
2.64209
2.66181
2.67697
2.68764
2.69408
2.69669
2.6961
2.69281
2.68715
2.67965
2.67089
2.66127
2.65119
2.64099
2.63093
2.62127
2.61222
2.60395
2.59661
2.59033
2.5852
2.58131
2.57874
2.5775
2.5776
2.57884
2.46962
2.45625
2.443
2.42998
2.41731
2.40512
2.39351
2.38261
2.37256
2.36352
2.35571
2.34938
2.34482
2.34244
2.34255
2.34501
2.3511
2.36143
2.37635
2.39595
2.42012
2.4484
2.47987
2.51323
2.54693
2.5794
2.60924
2.63537
2.6571
2.67408
2.68631
2.69404
2.69768
2.69775
2.695
2.6896
2.68213
2.67318
2.66322
2.65262
2.64174
2.63087
2.62026
2.61012
2.60062
2.59188
2.58401
2.5771
2.57122
2.56643
2.56277
2.56027
2.55894
2.55878
2.46162
2.44828
2.43515
2.42231
2.4099
2.39801
2.38674
2.37622
2.36659
2.35802
2.35074
2.34508
2.34138
2.34001
2.34108
2.34516
2.35328
2.36617
2.38403
2.40686
2.43435
2.46571
2.49967
2.53461
2.56878
2.60059
2.62873
2.65232
2.67109
2.68483
2.69379
2.69839
2.69914
2.69689
2.69178
2.68441
2.67537
2.66516
2.65417
2.64275
2.63122
2.61984
2.6088
2.59829
2.58844
2.57933
2.57104
2.56362
2.55712
2.55156
2.54698
2.54339
2.54081
2.53923
2.45261
2.43951
2.42669
2.41423
2.40223
2.39079
2.38
2.36998
2.36089
2.35293
2.34636
2.34154
2.33884
2.33867
2.34098
2.34708
2.35779
2.37373
2.39501
2.42146
2.45243
2.48675
2.52276
2.55856
2.59231
2.62252
2.64813
2.66864
2.6838
2.69393
2.69945
2.70091
2.6991
2.69429
2.68706
2.67799
2.6676
2.65631
2.64448
2.6324
2.62036
2.60856
2.59719
2.58637
2.57622
2.56679
2.55813
2.55026
2.5432
2.53696
2.53156
2.52699
2.52327
2.52042
2.44279
2.43012
2.41779
2.40586
2.39442
2.38356
2.37338
2.36399
2.35557
2.34834
2.34264
2.33882
2.33736
2.33839
2.34258
2.35112
2.36491
2.38438
2.40952
2.43982
2.47425
2.51116
2.54853
2.58429
2.61665
2.64435
2.66667
2.68344
2.69483
2.70129
2.70342
2.70206
2.69757
2.6905
2.68144
2.67095
2.65945
2.6473
2.63479
2.6222
2.60975
2.59762
2.58596
2.57488
2.56444
2.55469
2.54566
2.53734
2.52974
2.52285
2.51667
2.51118
2.50641
2.50237
2.43238
2.4203
2.4086
2.39734
2.38659
2.37643
2.36696
2.35832
2.35069
2.34436
2.33965
2.33703
2.337
2.33948
2.34603
2.35756
2.37492
2.39838
2.42767
2.46188
2.49947
2.53833
2.57616
2.61086
2.64088
2.66529
2.68378
2.69653
2.70403
2.7069
2.706
2.70187
2.69497
2.68598
2.67545
2.66382
2.65145
2.63863
2.62563
2.61265
2.59989
2.58749
2.57558
2.56422
2.55348
2.54339
2.53394
2.52515
2.51699
2.50943
2.50247
2.49608
2.49029
2.48511
2.42159
2.41023
2.39929
2.38881
2.37886
2.36951
2.36087
2.35309
2.3464
2.34109
2.33755
2.33638
2.33769
2.34238
2.35165
2.36665
2.38803
2.41585
2.44943
2.48734
2.52751
2.56741
2.60464
2.63727
2.66408
2.68459
2.69893
2.7076
2.71129
2.71091
2.70719
2.70054
2.69164
2.68113
2.66946
2.65698
2.64398
2.63071
2.61737
2.60413
2.59114
2.57851
2.56634
2.5547
2.54362
2.53313
2.52323
2.5139
2.50511
2.49685
2.48907
2.48177
2.47494
2.46862
2.41063
2.4001
2.39002
2.38042
2.37137
2.36294
2.35525
2.34845
2.34281
2.33868
2.33654
2.33694
2.33996
2.34713
2.35971
2.37865
2.40444
2.43678
2.47452
2.51564
2.55752
2.59738
2.6329
2.66249
2.6854
2.70165
2.71173
2.71642
2.71664
2.71338
2.70705
2.69831
2.68786
2.67622
2.66373
2.65069
2.63732
2.62379
2.61026
2.59687
2.58371
2.57088
2.55846
2.5465
2.53504
2.52409
2.51366
2.50373
2.49426
2.48521
2.47657
2.46829
2.46038
2.45289
2.39973
2.39012
2.38099
2.37237
2.36432
2.35691
2.35027
2.34458
2.34014
2.33737
2.33683
2.33867
2.34414
2.35423
2.37046
2.39366
2.42409
2.46094
2.50244
2.54594
2.58842
2.62707
2.65982
2.68558
2.70415
2.71598
2.7219
2.72292
2.72018
2.7142
2.70573
2.69541
2.68385
2.67144
2.65846
2.64513
2.6316
2.61799
2.60441
2.59095
2.57768
2.56468
2.55199
2.53969
2.5278
2.51634
2.50532
2.49471
2.48448
2.47459
2.46499
2.45566
2.4466
2.43785
2.38911
2.38049
2.3724
2.36485
2.35789
2.35161
2.34614
2.34172
2.33866
2.33747
2.33845
2.34234
2.35036
2.3638
2.38401
2.41174
2.44679
2.4878
2.53231
2.57713
2.61898
2.65525
2.68434
2.70573
2.71977
2.72727
2.72932
2.72728
2.72171
2.71354
2.70343
2.69201
2.67973
2.6669
2.65373
2.64035
2.62686
2.61333
2.59982
2.58637
2.57303
2.55987
2.54692
2.53425
2.52189
2.50987
2.4982
2.48685
2.47579
2.46497
2.45433
2.44384
2.43351
2.42339
2.37899
2.37145
2.36449
2.35811
2.35236
2.34734
2.3432
2.34022
2.33874
2.33918
2.34183
2.3481
2.35902
2.37602
2.40037
2.4326
2.472
2.51651
2.56301
2.60787
2.64786
2.68074
2.70553
2.72232
2.73188
2.73534
2.73416
2.72925
2.72147
2.71158
2.70032
2.68823
2.6756
2.66267
2.64955
2.63634
2.62307
2.60975
2.59639
2.58302
2.56966
2.55635
2.54314
2.53008
2.51723
2.50461
2.49224
2.48009
2.46814
2.4563
2.44452
2.43276
2.42101
2.40936
2.3696
2.36324
2.35751
2.35241
2.348
2.34439
2.34174
2.34033
2.34063
2.34265
2.34763
2.35623
2.37026
2.39086
2.41928
2.45569
2.4988
2.54585
2.59308
2.63671
2.67373
2.70249
2.72266
2.73486
2.74028
2.74024
2.73627
2.72908
2.71958
2.70853
2.6966
2.68417
2.67151
2.65874
2.64591
2.63304
2.62011
2.6071
2.59398
2.58073
2.56737
2.55392
2.54045
2.52701
2.51365
2.50042
2.48733
2.47436
2.46144
2.4485
2.43547
2.42226
2.40891
2.39552
2.3612
2.35611
2.35173
2.34805
2.34514
2.34311
2.34215
2.34249
2.34443
2.34873
2.35579
2.36706
2.384
2.40808
2.44007
2.48011
2.52588
2.57428
2.62095
2.66213
2.69536
2.7196
2.73516
2.7431
2.74485
2.74214
2.7358
2.72688
2.71623
2.70456
2.69237
2.67995
2.6675
2.65511
2.64274
2.63035
2.61786
2.60523
2.59238
2.57929
2.56595
2.55239
2.53866
2.52482
2.51095
2.4971
2.48328
2.46945
2.45554
2.44145
2.42703
2.41221
2.39699
2.38158
2.35401
2.35031
2.34743
2.34534
2.34409
2.34388
2.34468
2.34687
2.35095
2.3572
2.3666
2.38039
2.40007
2.42695
2.46202
2.50426
2.55176
2.5999
2.64479
2.68267
2.71164
2.73136
2.74264
2.74688
2.74588
2.74093
2.73292
2.7229
2.71166
2.69982
2.68774
2.67564
2.66363
2.65176
2.63997
2.62814
2.61616
2.60394
2.5914
2.57848
2.56517
2.55149
2.53751
2.52329
2.50892
2.49446
2.47992
2.46525
2.45033
2.435
2.41905
2.40239
2.38495
2.36721
2.34829
2.34614
2.34489
2.34459
2.34515
2.34681
2.34975
2.35407
2.36008
2.36849
2.38001
2.39581
2.41754
2.4466
2.48323
2.52681
2.57402
2.62096
2.66285
2.69696
2.72166
2.73724
2.74491
2.7464
2.74335
2.73685
2.72787
2.71737
2.70609
2.69447
2.68282
2.67127
2.65988
2.64864
2.6375
2.62629
2.61485
2.60306
2.59082
2.57807
2.56478
2.55099
2.53676
2.52218
2.50734
2.49232
2.4771
2.46161
2.44569
2.42916
2.41156
2.39296
2.37289
2.35274
2.34425
2.34381
2.34435
2.3459
2.34864
2.35247
2.35757
2.36398
2.3722
2.38253
2.39568
2.41272
2.43554
2.46504
2.50217
2.54483
2.59085
2.63498
2.67358
2.70373
2.72462
2.7369
2.74211
2.74175
2.7374
2.73019
2.72093
2.71056
2.69968
2.68865
2.67769
2.66688
2.65624
2.64573
2.63526
2.62468
2.61377
2.6024
2.59045
2.57785
2.56457
2.55064
2.53616
2.52124
2.50597
2.49045
2.47464
2.45844
2.44158
2.42378
2.40488
2.38407
2.36161
2.33909
2.34205
2.34339
2.34597
2.34978
2.35468
2.36088
2.3683
2.37692
2.3871
2.39902
2.41311
2.43041
2.45246
2.48084
2.51556
2.55617
2.59893
2.6397
2.67494
2.70188
2.72014
2.73032
2.73416
2.73295
2.72835
2.72121
2.71239
2.7027
2.69265
2.6825
2.67242
2.6625
2.65269
2.64295
2.63317
2.6232
2.61281
2.60182
2.59011
2.57761
2.56429
2.55021
2.53547
2.52022
2.5046
2.48868
2.47243
2.45569
2.43816
2.41946
2.39997
2.37829
2.35236
2.32722
2.34179
2.34518
2.34996
2.35607
2.36349
2.37214
2.38191
2.39267
2.40463
2.41753
2.43138
2.44725
2.46656
2.49116
2.5213
2.5574
2.59604
2.63267
2.66592
2.69065
2.70757
2.71719
2.72096
2.72019
2.71638
2.71024
2.70257
2.69406
2.68516
2.67612
2.6671
2.65813
2.64921
2.64026
2.63115
2.62175
2.61182
2.60116
2.58963
2.57717
2.56376
2.54947
2.53446
2.5189
2.50299
2.48681
2.47033
2.45343
2.43563
2.41682
2.39542
2.37387
2.34548
2.31784
2.34369
2.34921
2.35635
2.36494
2.37497
2.38616
2.3983
2.41103
2.42432
2.43731
2.44984
2.46252
2.4768
2.49391
2.51545
2.54405
2.57712
2.61201
2.64357
2.66828
2.68582
2.69702
2.70256
2.70379
2.70199
2.69774
2.69178
2.68485
2.67738
2.66962
2.66174
2.65379
2.64576
2.63758
2.62911
2.62023
2.61071
2.6003
2.58888
2.57637
2.56278
2.54822
2.53288
2.51704
2.50092
2.48467
2.4682
2.45164
2.43411
2.41598
2.39125
2.37063
2.348
2.32413
2.34763
2.35546
2.36508
2.37631
2.38899
2.40266
2.41717
2.43187
2.44573
2.45902
2.46981
2.47773
2.48575
2.49251
2.50025
2.5164
2.54043
2.57528
2.60783
2.63456
2.65504
2.66976
2.6794
2.68438
2.68554
2.68401
2.68032
2.67529
2.66942
2.66305
2.65635
2.64942
2.64227
2.63483
2.62697
2.61856
2.60936
2.59913
2.58773
2.57507
2.56119
2.54625
2.53052
2.51439
2.49819
2.48201
2.46582
2.44998
2.43325
2.41325
2.39251
2.36723
2.3459
2.32462
2.35361
2.36375
2.37593
2.38988
2.4053
2.4213
2.43786
2.45508
2.46955
2.48499
2.49325
2.49681
2.49878
2.49367
2.48201
2.47155
2.48507
2.5225
2.5583
2.58968
2.616
2.63695
2.65251
2.66254
2.66781
2.66945
2.66842
2.66551
2.66137
2.65641
2.6509
2.64498
2.63867
2.63193
2.62462
2.61662
2.60768
2.59755
2.58606
2.57314
2.55883
2.54337
2.52716
2.51071
2.49445
2.47853
2.46296
2.44741
2.4286
2.40988
2.38301
2.35945
2.33962
2.32171
2.3614
2.37387
2.38863
2.4052
2.4231
2.44214
2.46047
2.47872
2.49623
2.51401
2.53101
2.54051
2.5386
2.52304
2.49056
2.45447
2.44347
2.46334
2.50651
2.54202
2.57371
2.60174
2.62399
2.63966
2.64947
2.65463
2.65633
2.65563
2.65324
2.64967
2.64532
2.64037
2.63485
2.62876
2.62195
2.6143
2.60556
2.59545
2.58378
2.57048
2.55558
2.53938
2.52257
2.5057
2.48943
2.47381
2.45795
2.44116
2.41678
2.39323
2.36856
2.34837
2.33277
2.32031
2.37064
2.38541
2.40295
2.42214
2.4408
2.46199
2.48589
2.50299
2.5316
2.5577
2.57253
2.57113
2.56089
2.53459
2.49048
2.43799
2.40989
2.41938
2.45745
2.49762
2.53534
2.5693
2.59701
2.61757
2.63153
2.64005
2.6444
2.64572
2.64499
2.64279
2.63953
2.63547
2.63069
2.62519
2.61884
2.61148
2.60289
2.59274
2.58081
2.56699
2.5513
2.53417
2.51654
2.49918
2.48286
2.46608
2.44463
2.42309
2.39693
2.37279
2.35277
2.33795
2.32817
2.32185
2.38074
2.39734
2.417
2.43928
2.46141
2.47472
2.50893
2.55221
2.56817
2.58411
2.59533
2.59207
2.57482
2.54091
2.49158
2.43537
2.39697
2.39923
2.42897
2.46777
2.50734
2.54376
2.57439
2.59816
2.61513
2.62628
2.63283
2.63598
2.63667
2.63568
2.63341
2.63016
2.62605
2.62107
2.61512
2.60802
2.59956
2.58936
2.57713
2.56263
2.54597
2.52763
2.50901
2.49041
2.47289
2.44701
2.4242
2.39791
2.3733
2.35316
2.33835
2.32968
2.32638
2.32663
2.39305
2.41086
2.42779
2.44465
2.49279
2.51388
2.53256
2.56383
2.59064
2.60655
2.61245
2.60549
2.58387
2.54694
2.49702
2.4417
2.40169
2.40254
2.42266
2.45552
2.49188
2.52684
2.55764
2.58247
2.60094
2.61372
2.62185
2.62639
2.62828
2.62829
2.62689
2.62433
2.62077
2.61623
2.61062
2.60374
2.59544
2.58523
2.57272
2.55756
2.53984
2.51963
2.49946
2.47681
2.45155
2.42606
2.39605
2.37042
2.34992
2.33493
2.32647
2.32417
2.32718
2.33425
2.39703
2.41998
2.46017
2.47118
2.4923
2.53286
2.56542
2.58994
2.61046
2.6221
2.62369
2.613
2.58897
2.55228
2.50594
2.45701
2.42028
2.41196
2.42717
2.45504
2.48635
2.51778
2.54669
2.57061
2.58912
2.60255
2.61157
2.61704
2.61983
2.62061
2.61987
2.61783
2.6147
2.6105
2.60515
2.59854
2.59035
2.58019
2.56758
2.55199
2.53298
2.50852
2.48327
2.45973
2.42941
2.39486
2.36704
2.34456
2.32842
2.31925
2.31698
2.32109
2.33069
2.34436
2.42198
2.42109
2.44998
2.49066
2.52063
2.55265
2.58236
2.60641
2.62356
2.63105
2.62904
2.61572
2.59097
2.55634
2.51516
2.47405
2.44158
2.42922
2.43922
2.4605
2.48672
2.51418
2.53996
2.56198
2.57953
2.5927
2.60196
2.60793
2.61128
2.61261
2.61228
2.61055
2.60769
2.60368
2.59848
2.59202
2.58404
2.57405
2.56152
2.54519
2.52173
2.49335
2.4657
2.42978
2.39679
2.36523
2.33945
2.32086
2.30987
2.3063
2.31011
2.32062
2.33653
2.35627
2.42321
2.44393
2.47119
2.50556
2.53758
2.56811
2.59519
2.61666
2.63021
2.63446
2.62982
2.61497
2.5907
2.55905
2.52347
2.48955
2.46313
2.45156
2.45378
2.46913
2.49015
2.51353
2.53602
2.55568
2.57175
2.58409
2.59307
2.59912
2.60271
2.6043
2.60416
2.60235
2.5996
2.59565
2.59037
2.58401
2.57616
2.56635
2.55304
2.53316
2.50863
2.47601
2.43662
2.40028
2.36601
2.33631
2.31379
2.29991
2.29419
2.29615
2.30605
2.32261
2.34425
2.36939
2.43319
2.45936
2.48794
2.51876
2.54953
2.57831
2.60279
2.62141
2.63171
2.63366
2.62712
2.61186
2.58914
2.56125
2.53113
2.50304
2.48065
2.46929
2.46937
2.4771
2.49463
2.51423
2.53347
2.55062
2.56503
2.57636
2.58478
2.59058
2.59406
2.59553
2.59526
2.59344
2.59037
2.58614
2.58082
2.57441
2.56653
2.55607
2.54121
2.52113
2.48506
2.44684
2.40791
2.37042
2.33665
2.30951
2.29113
2.28227
2.28114
2.28895
2.30461
2.32664
2.35337
2.38324
2.44465
2.47029
2.49871
2.52816
2.5571
2.58365
2.60557
2.62164
2.62926
2.62966
2.62227
2.60793
2.58777
2.56419
2.53941
2.5165
2.49767
2.48574
2.48336
2.48453
2.49998
2.51577
2.53156
2.5462
2.55887
2.56908
2.57678
2.58215
2.58528
2.58642
2.58578
2.58352
2.57989
2.5751
2.56941
2.56295
2.55481
2.54202
2.52492
2.49689
2.45867
2.41828
2.37842
2.34102
2.30902
2.28549
2.27187
2.26727
2.27136
2.28452
2.30545
2.33231
2.36345
2.39728
2.45328
2.4781
2.50528
2.53321
2.56024
2.58456
2.60414
2.61805
2.62406
2.62375
2.61685
2.60441
2.58777
2.56882
2.54947
2.53111
2.51488
2.50234
2.49542
2.49757
2.50581
2.51728
2.53002
2.54203
2.55288
2.56189
2.56882
2.57362
2.57625
2.57689
2.57565
2.57266
2.56816
2.56238
2.55562
2.54808
2.53898
2.52438
2.50757
2.47319
2.43097
2.38884
2.34882
2.3127
2.2836
2.26446
2.25563
2.25544
2.26471
2.28284
2.30826
2.33924
2.3741
2.41119
2.45892
2.48238
2.50793
2.53408
2.55918
2.58128
2.59918
2.61176
2.61726
2.61742
2.61232
2.60301
2.59059
2.57669
2.56222
2.54744
2.53306
2.51978
2.51049
2.50883
2.50896
2.51926
2.52794
2.53752
2.54672
2.55457
2.56071
2.56488
2.56689
2.5669
2.5649
2.56099
2.55542
2.54848
2.54045
2.53127
2.51981
2.50207
2.48161
2.4428
2.40014
2.35855
2.31957
2.28585
2.26085
2.24673
2.24218
2.24659
2.2609
2.28362
2.31299
2.34738
2.38508
2.42471
2.46137
2.48308
2.50684
2.53114
2.55442
2.575
2.5917
2.60374
2.61019
2.61197
2.60991
2.60449
2.59711
2.5882
2.57821
2.56613
2.55291
2.53844
2.52452
2.51646
2.51598
2.51834
2.52441
2.53183
2.53982
2.54684
2.55226
2.55576
2.55715
2.55645
2.55358
2.54864
2.54191
2.53382
2.52452
2.51272
2.49829
2.4783
2.44734
2.40928
2.36759
2.32767
2.29112
2.26107
2.24103
2.23188
2.23135
2.24064
2.25955
2.28635
2.31925
2.35649
2.3965
2.43798
2.4607
2.48046
2.50218
2.52471
2.54651
2.56613
2.58255
2.5951
2.60363
2.60836
2.61007
2.60958
2.60726
2.60308
2.59673
2.58659
2.57337
2.55714
2.53945
2.524
2.51673
2.51794
2.51868
2.52426
2.53159
2.53818
2.54319
2.54609
2.54687
2.54546
2.54177
2.53581
2.52785
2.51844
2.50811
2.49396
2.47131
2.4462
2.41217
2.3743
2.33473
2.29737
2.26426
2.23888
2.22434
2.21931
2.2234
2.2373
2.26036
2.29074
2.32662
2.36631
2.40824
2.45105
2.45706
2.47463
2.49438
2.51539
2.53616
2.55553
2.57262
2.58687
2.59822
2.60691
2.61325
2.61789
2.62044
2.62029
2.61671
2.60798
2.59392
2.57524
2.55352
2.53236
2.5178
2.51529
2.51048
2.51433
2.52222
2.52858
2.5333
2.53569
2.53591
2.53386
2.52956
2.52257
2.51301
2.50227
2.48734
2.46475
2.43842
2.41003
2.37601
2.33991
2.30297
2.26844
2.2397
2.21985
2.21041
2.20932
2.21811
2.23633
2.26305
2.29651
2.33489
2.37655
2.41994
2.46366
2.45084
2.46616
2.48416
2.50394
2.52424
2.54409
2.5627
2.57957
2.59452
2.60754
2.61867
2.62819
2.63524
2.63778
2.63592
2.62751
2.61243
2.59102
2.56568
2.53958
2.51775
2.50588
2.50399
2.50866
2.51282
2.51795
2.52234
2.52433
2.52398
2.52133
2.51687
2.50862
2.49679
2.47694
2.4579
2.43184
2.40474
2.37407
2.34121
2.30667
2.27239
2.24195
2.21822
2.20406
2.19896
2.20223
2.21536
2.23749
2.26744
2.30348
2.3439
2.38707
2.43144
2.47552
2.44265
2.45588
2.47235
2.49125
2.51163
2.53262
2.55342
2.57345
2.59231
2.60966
2.62522
2.63884
2.64898
2.65296
2.65182
2.64303
2.62644
2.60282
2.57424
2.54481
2.51809
2.5016
2.49715
2.49713
2.49964
2.50549
2.50991
2.51183
2.51055
2.50703
2.50426
2.48913
2.47157
2.4491
2.42587
2.39878
2.37024
2.34004
2.30782
2.2754
2.24473
2.2186
2.20038
2.19147
2.19016
2.19786
2.21498
2.24055
2.27323
2.31142
2.35346
2.39771
2.44257
2.48642
2.4334
2.44477
2.45997
2.4784
2.49931
2.52182
2.54509
2.56835
2.59087
2.61194
2.63098
2.64745
2.6588
2.66295
2.66136
2.65157
2.63359
2.60853
2.57885
2.54732
2.51825
2.49742
2.49152
2.49175
2.48079
2.49047
2.49478
2.49764
2.49545
2.48957
2.48272
2.46518
2.4418
2.41967
2.3933
2.36656
2.33723
2.30803
2.27719
2.24719
2.2204
2.19916
2.18636
2.18175
2.18434
2.19618
2.21676
2.24524
2.28019
2.32009
2.36331
2.40819
2.45302
2.49595
2.4242
2.43399
2.44822
2.46649
2.48811
2.51217
2.53773
2.56377
2.58919
2.61292
2.6341
2.65182
2.66286
2.66631
2.66317
2.65202
2.63269
2.60718
2.57774
2.54736
2.51874
2.4956
2.4847
2.48837
2.4777
2.47042
2.47774
2.4852
2.47961
2.47008
2.45742
2.43449
2.41237
2.38851
2.36205
2.33512
2.30642
2.27792
2.24944
2.22278
2.20006
2.18402
2.17606
2.17484
2.18155
2.19696
2.22053
2.25134
2.28805
2.32917
2.3731
2.4181
2.46229
2.5036
2.41614
2.4247
2.43823
2.45641
2.47857
2.50379
2.53097
2.55883
2.58596
2.61101
2.63285
2.65011
2.65884
2.66071
2.65526
2.64189
2.6215
2.59653
2.5688
2.54146
2.51596
2.49391
2.48046
2.47556
2.47906
2.47298
2.47438
2.46783
2.45819
2.44563
2.42735
2.40511
2.38254
2.35814
2.33234
2.30534
2.27823
2.2512
2.22554
2.20226
2.18417
2.17311
2.16909
2.17122
2.18153
2.19988
2.22593
2.25852
2.29644
2.33825
2.38233
2.42684
2.46966
2.50842
2.41038
2.41795
2.43083
2.44867
2.47085
2.49642
2.52411
2.55244
2.57973
2.6045
2.62532
2.63989
2.64554
2.64519
2.63707
2.62187
2.60112
2.577
2.55201
2.52816
2.50665
2.48853
2.47451
2.46575
2.4619
2.45626
2.45265
2.44222
2.43155
2.41987
2.39725
2.37704
2.35353
2.32971
2.30406
2.27856
2.25294
2.22832
2.20572
2.18645
2.17306
2.16624
2.16522
2.17083
2.18403
2.2049
2.23267
2.26643
2.30495
2.34681
2.39035
2.43366
2.47431
2.50927
2.40755
2.41427
2.42628
2.44329
2.46468
2.48947
2.51628
2.54346
2.56921
2.59194
2.6101
2.62034
2.62334
2.62003
2.60967
2.59349
2.57334
2.55133
2.5294
2.50923
2.4914
2.47656
2.46419
2.4546
2.44677
2.43851
2.43039
2.41916
2.40573
2.38942
2.36996
2.34896
2.32623
2.30269
2.27852
2.25448
2.23128
2.20962
2.1904
2.17544
2.16646
2.16315
2.16494
2.17336
2.18906
2.21164
2.24049
2.27473
2.31312
2.35425
2.39639
2.43757
2.47511
2.50503
2.40789
2.41363
2.42436
2.43984
2.45946
2.48219
2.50661
2.53103
2.55364
2.57287
2.5866
2.59251
2.59294
2.58699
2.57528
2.55923
2.5407
2.5215
2.50301
2.48624
2.47156
2.45895
2.4479
2.43821
2.42891
2.41913
2.40841
2.39558
2.38052
2.36307
2.34362
2.32273
2.30079
2.27836
2.25597
2.2342
2.21377
2.19532
2.18
2.1695
2.16425
2.16351
2.16794
2.17904
2.19645
2.22002
2.2492
2.28315
2.32055
2.35995
2.39958
2.43751
2.47072
2.49426
2.41101
2.41547
2.42441
2.43759
2.45441
2.47382
2.49448
2.51476
2.53293
2.54752
2.55599
2.55864
2.5564
2.54879
2.53688
2.52211
2.50605
2.49002
2.47491
2.46125
2.4491
2.43818
2.42795
2.41816
2.40807
2.39715
2.38494
2.37097
2.35513
2.33746
2.3183
2.29818
2.27756
2.25695
2.23688
2.21797
2.20074
2.18588
2.17478
2.1683
2.16593
2.16762
2.17492
2.18778
2.20622
2.23003
2.25876
2.29152
2.32698
2.36347
2.39931
2.43263
2.45917
2.47459
2.41614
2.41893
2.42552
2.43568
2.44878
2.46387
2.47974
2.49492
2.50797
2.51715
2.52104
2.52116
2.5169
2.50872
2.49769
2.48499
2.47175
2.45883
2.4467
2.43556
2.42533
2.4155
2.40587
2.39595
2.38535
2.37371
2.36074
2.34625
2.33027
2.31296
2.29468
2.27593
2.25719
2.23895
2.22172
2.20602
2.19234
2.18159
2.17464
2.17152
2.17168
2.17642
2.18582
2.19991
2.21869
2.24194
2.26926
2.29988
2.33246
2.36471
2.39473
2.42013
2.43848
2.44624
2.42217
2.42298
2.42674
2.43327
2.44205
2.45222
2.46278
2.47251
2.48022
2.48426
2.48511
2.48296
2.47775
2.47001
2.46055
2.45022
2.43974
2.42954
2.41981
2.41056
2.40154
2.39248
2.38306
2.37299
2.36203
2.34997
2.3367
2.32221
2.3066
2.29017
2.27329
2.25644
2.24009
2.22468
2.21072
2.19857
2.18887
2.18229
2.17922
2.1792
2.18274
2.19
2.20103
2.21588
2.23438
2.25629
2.28123
2.30855
2.33667
2.36299
2.38389
2.39765
2.40688
2.40979
2.42798
2.42664
2.42718
2.42989
2.43408
2.43925
2.44457
2.44907
2.45175
2.45225
2.45064
2.44711
2.44183
2.43514
2.42751
2.41943
2.41127
2.4032
2.3952
2.38714
2.37888
2.37013
2.36071
2.35045
2.33922
2.32698
2.31373
2.2996
2.28479
2.26964
2.25457
2.24005
2.2265
2.21432
2.20393
2.19573
2.19036
2.18811
2.18872
2.19239
2.19902
2.20866
2.22119
2.2364
2.25404
2.2737
2.29494
2.31736
2.33963
2.35706
2.36441
2.36369
2.36185
2.35965
2.43292
2.42903
2.4265
2.42544
2.42529
2.42577
2.4263
2.4264
2.42548
2.4233
2.42001
2.41596
2.41117
2.4057
2.39973
2.39348
2.38705
2.38044
2.37346
2.36609
2.3581
2.34935
2.33975
2.32925
2.31783
2.30556
2.29257
2.27906
2.26533
2.25178
2.23884
2.22697
2.21654
2.20789
2.20144
2.19771
2.19671
2.19879
2.20356
2.21094
2.22075
2.23279
2.24676
2.26221
2.27852
2.29518
2.31147
2.32682
2.33945
2.34519
2.33982
2.31659
2.29629
2.2944
2.43638
2.43015
2.42473
2.42019
2.41631
2.41289
2.40971
2.4065
2.403
2.39908
2.39496
2.39087
2.38673
2.38231
2.37761
2.37263
2.36731
2.36146
2.355
2.3478
2.33974
2.33076
2.32086
2.31008
2.29851
2.28632
2.27373
2.26103
2.24859
2.23684
2.22626
2.21726
2.21022
2.20545
2.20347
2.20403
2.20784
2.21441
2.22349
2.2348
2.24796
2.26254
2.27797
2.29355
2.30841
2.32129
2.33141
2.33607
2.33568
2.32639
2.3009
2.24851
2.18891
2.16948
2.69687
2.70747
2.71653
2.72337
2.72746
2.72845
2.72659
2.72149
2.71297
2.70158
2.68779
2.67195
2.65448
2.63579
2.6163
2.59634
2.57626
2.55639
2.53702
2.51845
2.67377
2.68341
2.69223
2.69953
2.70473
2.70736
2.7072
2.70456
2.69869
2.68983
2.67847
2.66501
2.64977
2.63308
2.61531
2.59686
2.57807
2.55926
2.54072
2.52275
2.65031
2.65865
2.66677
2.674
2.67975
2.68352
2.68492
2.68401
2.68054
2.6742
2.66525
2.65416
2.64123
2.62674
2.611
2.59432
2.57705
2.55956
2.54216
2.52512
2.6269
2.63371
2.64075
2.64744
2.65324
2.65762
2.66016
2.66058
2.65901
2.655
2.64836
2.63958
2.62896
2.61671
2.60311
2.58844
2.57304
2.55717
2.54116
2.52535
2.60382
2.60901
2.61471
2.62049
2.62586
2.63035
2.63352
2.63502
2.63472
2.63262
2.62819
2.62157
2.61318
2.60319
2.59178
2.57923
2.56582
2.55185
2.53761
2.52338
2.58133
2.58484
2.58907
2.59367
2.59824
2.6024
2.60572
2.60785
2.60851
2.60771
2.60519
2.60056
2.59428
2.58647
2.57727
2.5669
2.55562
2.54369
2.53141
2.51907
2.55956
2.56143
2.56411
2.56735
2.57087
2.57435
2.5774
2.57972
2.58102
2.58108
2.57994
2.57717
2.57279
2.56701
2.55995
2.55178
2.54271
2.53297
2.52285
2.51263
2.53862
2.53891
2.54003
2.54183
2.54414
2.54666
2.54913
2.55127
2.55281
2.55352
2.55327
2.55198
2.5493
2.54539
2.54037
2.53436
2.52752
2.52007
2.51226
2.50437
2.51843
2.51728
2.51694
2.5173
2.51825
2.51968
2.52134
2.52303
2.5245
2.52555
2.526
2.52567
2.52451
2.52228
2.51916
2.51522
2.5106
2.50548
2.5001
2.49473
2.49908
2.49655
2.49478
2.49374
2.4934
2.49362
2.49433
2.49538
2.49657
2.49772
2.49863
2.49912
2.49902
2.49837
2.497
2.49503
2.49259
2.48982
2.48695
2.48422
2.48056
2.4767
2.47356
2.47116
2.4695
2.46855
2.46829
2.46859
2.46938
2.47046
2.47166
2.47279
2.47369
2.47431
2.47455
2.47448
2.47418
2.47375
2.47343
2.47347
2.46284
2.45768
2.45319
2.44946
2.44652
2.44442
2.44318
2.44279
2.44314
2.44407
2.44549
2.44716
2.44894
2.45078
2.45253
2.45427
2.45604
2.45794
2.4602
2.46298
2.44585
2.43937
2.43355
2.42849
2.42432
2.42111
2.41895
2.41791
2.41794
2.41874
2.42038
2.42258
2.42525
2.42827
2.43153
2.43502
2.43883
2.44306
2.4479
2.45352
2.42949
2.42163
2.41443
2.40805
2.40266
2.3984
2.39543
2.39386
2.39368
2.39454
2.39647
2.39933
2.403
2.40724
2.41201
2.41728
2.42314
2.42971
2.43713
2.44561
2.41359
2.40426
2.3956
2.38785
2.38124
2.37599
2.37234
2.37043
2.37026
2.37131
2.37385
2.37762
2.38242
2.38804
2.39442
2.40156
2.40951
2.41842
2.42842
2.43969
2.39795
2.38698
2.37673
2.3675
2.35964
2.35347
2.3493
2.34731
2.34742
2.34902
2.35251
2.35755
2.36376
2.37099
2.37915
2.38825
2.39837
2.40963
2.42217
2.43613
2.38227
2.36942
2.35736
2.34649
2.33731
2.33029
2.32584
2.32414
2.32479
2.3275
2.33253
2.33925
2.34725
2.35636
2.36651
2.37772
2.39007
2.40368
2.41868
2.43515
2.36618
2.35115
2.33696
2.32418
2.31354
2.30575
2.30131
2.3004
2.30208
2.30664
2.31393
2.32288
2.33311
2.34443
2.35683
2.3703
2.38492
2.40084
2.41813
2.43673
2.34929
2.33164
2.31487
2.29979
2.2874
2.27889
2.27495
2.27537
2.27895
2.28653
2.29683
2.30865
2.32161
2.33556
2.35044
2.36627
2.38318
2.40123
2.42042
2.44092
2.33196
2.31118
2.29101
2.2727
2.25783
2.24856
2.24587
2.24823
2.25538
2.26726
2.28143
2.2969
2.3132
2.33013
2.34769
2.36592
2.38487
2.40476
2.42575
2.44761
2.31549
2.2912
2.2665
2.24336
2.22404
2.21414
2.21337
2.21848
2.23133
2.24893
2.26825
2.28825
2.30846
2.32869
2.34887
2.36925
2.39021
2.41182
2.43397
2.45644
2.30141
2.27315
2.24203
2.21443
2.18777
2.17603
2.178
2.18743
2.20781
2.23263
2.25828
2.28366
2.3081
2.33147
2.35426
2.37689
2.39953
2.42219
2.44477
2.46704
2.2891
2.25852
2.22693
2.19128
2.15328
2.12974
2.1401
2.15642
2.18643
2.21992
2.2532
2.28435
2.31289
2.33947
2.3647
2.38897
2.41256
2.43554
2.45779
2.47901
2.29729
2.26597
2.23042
2.19155
2.15066
2.11425
2.11053
2.12974
2.17048
2.21448
2.25541
2.29179
2.32419
2.35341
2.3802
2.4053
2.42917
2.45181
2.47293
2.4922
2.30002
2.2718
2.23844
2.20065
2.15588
2.11728
2.10637
2.12271
2.1686
2.22059
2.26779
2.30841
2.34296
2.37292
2.39994
2.42506
2.4486
2.47029
2.4896
2.50606
2.30277
2.28075
2.25425
2.2215
2.18223
2.14376
2.1239
2.14082
2.18591
2.24033
2.2918
2.33398
2.36829
2.39754
2.42388
2.44851
2.47142
2.49172
2.50839
2.52086
2.30809
2.29417
2.27663
2.2538
2.2248
2.19577
2.18073
2.18442
2.21716
2.26768
2.32159
2.36433
2.39617
2.42259
2.44713
2.4711
2.49406
2.51362
2.52798
2.53618
2.31708
2.31156
2.30389
2.29243
2.27648
2.25926
2.25037
2.25432
2.2802
2.31334
2.34257
2.37458
2.40783
2.4381
2.46722
2.49391
2.5188
2.53806
2.54998
2.55404
2.32908
2.33184
2.33343
2.33297
2.33009
2.32699
2.32736
2.33571
2.35551
2.38159
2.40998
2.43922
2.46607
2.48865
2.50664
2.5207
2.53426
2.54772
2.55468
2.55181
2.34375
2.35396
2.3636
2.37201
2.37903
2.38582
2.39449
2.40695
2.42437
2.44536
2.46831
2.49133
2.51242
2.53056
2.54602
2.56037
2.57537
2.58759
2.59265
2.58941
2.36044
2.3774
2.39402
2.40965
2.42415
2.43806
2.45229
2.46781
2.48491
2.50306
2.52131
2.53846
2.55367
2.56679
2.57857
2.58997
2.60119
2.60906
2.61139
2.60656
2.37827
2.40112
2.42371
2.44534
2.46572
2.48487
2.50307
2.52057
2.53734
2.55305
2.56737
2.57992
2.59081
2.60051
2.6096
2.61848
2.62661
2.63082
2.63088
2.62405
2.39655
2.42442
2.45193
2.47836
2.50326
2.52634
2.54739
2.5662
2.58246
2.59596
2.60665
2.61499
2.62183
2.62805
2.63414
2.64028
2.64548
2.64758
2.64631
2.63925
2.41477
2.44679
2.47827
2.50844
2.53666
2.56248
2.5853
2.60457
2.61989
2.63102
2.63828
2.64279
2.64593
2.64887
2.65205
2.65548
2.65829
2.65911
2.65732
2.65106
2.43245
2.4678
2.50237
2.53532
2.56589
2.59343
2.61706
2.63599
2.64956
2.65799
2.6615
2.6619
2.66116
2.66085
2.66133
2.66253
2.66393
2.66434
2.66306
2.65888
2.44923
2.48716
2.52397
2.55881
2.59077
2.61896
2.64237
2.65978
2.67094
2.67529
2.67481
2.6709
2.66674
2.66399
2.66279
2.66274
2.66364
2.66437
2.66414
2.66227
2.46498
2.50473
2.54299
2.57878
2.61115
2.63884
2.66074
2.67548
2.68224
2.6829
2.67802
2.6703
2.66312
2.65837
2.65601
2.65557
2.65676
2.65882
2.66085
2.66198
2.47968
2.52048
2.55936
2.59511
2.62665
2.65262
2.67125
2.68187
2.68464
2.68033
2.6706
2.65918
2.64979
2.64403
2.64161
2.64162
2.64424
2.64849
2.65344
2.65844
2.49352
2.5345
2.57297
2.60758
2.63695
2.65939
2.67396
2.6793
2.67669
2.66643
2.652
2.63773
2.62748
2.62189
2.62022
2.62198
2.6271
2.63443
2.64307
2.65238
2.5064
2.54683
2.5838
2.61592
2.64148
2.65933
2.66745
2.66704
2.65734
2.64105
2.62256
2.60697
2.59716
2.59316
2.59314
2.5979
2.60642
2.61757