/*--------------------------------*- C++ -*----------------------------------*\
  =========                 |
  \\      /  F ield         | OpenFOAM: The Open Source CFD Toolbox
   \\    /   O peration     | Website:  https://openfoam.org
    \\  /    A nd           | Version:  10
     \\/     M anipulation  |
\*---------------------------------------------------------------------------*/
FoamFile
{
    format      ascii;
    class       surfaceScalarField;
    location    "0.149786";
    object      phi;
}
// * * * * * * * * * * * * * * * * * * * * * * * * * * * * * * * * * * * * * //

dimensions      [1 0 -1 0 0 0 0];

internalField   nonuniform List<scalar> 
31672
(
0.000413706
-8.42787e-05
0.000414234
-8.22968e-05
0.000414452
-7.97716e-05
0.000414339
-7.68664e-05
0.000413904
-7.36162e-05
0.000413135
-7.00618e-05
0.000412051
-6.62273e-05
0.000410669
-6.21414e-05
0.000408993
-5.78191e-05
0.000407043
-5.32739e-05
0.000404829
-4.85148e-05
0.000402362
-4.35522e-05
0.000399649
-3.83941e-05
0.000396698
-3.30574e-05
0.000393501
-2.75655e-05
0.000390118
-2.19555e-05
0.000386555
-1.62818e-05
0.000382746
-1.06017e-05
0.000378725
-5.025e-06
0.000374515
3.28444e-07
0.000370148
5.26417e-06
0.000365677
9.62088e-06
0.000361136
1.3239e-05
0.000356626
1.59526e-05
0.000352246
1.76486e-05
0.000348114
1.82475e-05
0.000344363
1.77291e-05
0.000341113
1.6145e-05
0.000338504
1.35921e-05
0.000336625
1.02253e-05
0.000335557
6.2021e-06
0.000335335
1.70846e-06
0.00033597
-3.09405e-06
0.00033744
-8.05285e-06
0.000339672
-1.30534e-05
0.000342592
-1.80097e-05
0.00034611
-2.28579e-05
0.000350136
-2.7599e-05
0.000354508
-3.20957e-05
0.000359199
-3.64442e-05
0.000364055
-4.04549e-05
0.000369048
-4.42045e-05
0.000374042
-4.75977e-05
0.000378907
-5.05572e-05
0.000383563
-5.30376e-05
0.000387945
-5.49328e-05
0.000391943
-5.61449e-05
0.000395514
-5.65936e-05
0.000398698
-5.61424e-05
0.000401415
-5.4674e-05
0.000403645
-5.20926e-05
0.00040551
-4.83886e-05
0.000407097
-4.35801e-05
-3.76961e-05
0.000408529
0.000415527
-7.86896e-05
0.000416333
-7.65137e-05
0.000416797
-7.38073e-05
0.000416918
-7.07149e-05
0.000416697
-6.72841e-05
0.000416146
-6.35447e-05
0.000415266
-5.9531e-05
0.000414086
-5.52626e-05
0.000412619
-5.07739e-05
0.000410874
-4.60765e-05
0.000408864
-4.11926e-05
0.000406598
-3.61412e-05
0.000404071
-3.09453e-05
0.000401285
-2.56339e-05
0.000398221
-2.02454e-05
0.00039492
-1.48276e-05
0.000391392
-9.42569e-06
0.00038754
-4.16382e-06
0.000383329
8.65134e-07
0.000378833
5.53344e-06
0.000374043
9.65703e-06
0.00036899
1.31033e-05
0.00036378
1.56942e-05
0.000358495
1.7322e-05
0.000353276
1.79078e-05
0.000348297
1.74198e-05
0.00034372
1.59052e-05
0.000339727
1.34654e-05
0.000336466
1.02542e-05
0.000334063
6.44171e-06
0.000332585
2.2085e-06
0.000332074
-2.2769e-06
0.000332516
-6.86585e-06
0.000333871
-1.145e-05
0.000336045
-1.59609e-05
0.000338954
-2.03516e-05
0.000342489
-2.46092e-05
0.000346561
-2.87454e-05
0.00035102
-3.27053e-05
0.000355796
-3.64337e-05
0.000360832
-4.00084e-05
0.000365989
-4.33261e-05
0.00037119
-4.63829e-05
0.000376388
-4.91413e-05
0.000381468
-5.15001e-05
0.000386351
-5.33878e-05
0.000390959
-5.47077e-05
0.000395213
-5.53455e-05
0.000399076
-5.52151e-05
0.000402615
-5.42141e-05
0.000405716
-5.21946e-05
0.000408426
-4.90618e-05
0.000410801
-4.48813e-05
-3.95965e-05
0.000412932
0.000417338
-7.24546e-05
0.000418443
-7.01271e-05
0.00041918
-6.72858e-05
0.000419559
-6.40593e-05
0.000419583
-6.04904e-05
0.000419261
-5.66163e-05
0.000418608
-5.24623e-05
0.000417642
-4.8062e-05
0.000416379
-4.34348e-05
0.000414831
-3.86178e-05
0.000413007
-3.36321e-05
0.000410906
-2.85094e-05
0.000408522
-2.32863e-05
0.000405843
-1.80072e-05
0.00040284
-1.2729e-05
0.00039954
-7.49693e-06
0.000395944
-2.38343e-06
0.000391944
2.42706e-06
0.000387475
6.88557e-06
0.000382564
1.08044e-05
0.000377237
1.40466e-05
0.000371564
1.64633e-05
0.000365609
1.7923e-05
0.000359518
1.83478e-05
0.000353479
1.7715e-05
0.000347701
1.60697e-05
0.000342397
1.35268e-05
0.000337771
1.02482e-05
0.000334008
6.42748e-06
0.000331225
2.25632e-06
0.000329487
-2.08753e-06
0.00032881
-6.45464e-06
0.000329159
-1.074e-05
0.000330464
-1.48812e-05
0.00033262
-1.88552e-05
0.000335527
-2.26581e-05
0.000339102
-2.6383e-05
0.000343152
-2.98697e-05
0.000347609
-3.32288e-05
0.000352456
-3.64977e-05
0.000357529
-3.9581e-05
0.000362816
-4.25409e-05
0.000368228
-4.53272e-05
0.000373653
-4.787e-05
0.000379055
-5.01351e-05
0.000384357
-5.20189e-05
0.000389475
-5.34281e-05
0.000394356
-5.42563e-05
0.000398939
-5.43843e-05
0.00040313
-5.37156e-05
0.000407077
-5.21691e-05
0.000410632
-4.95966e-05
0.000413828
-4.59187e-05
-4.12155e-05
0.000416718
0.000419111
-6.57486e-05
0.000420534
-6.33146e-05
0.000421573
-6.03852e-05
0.000422233
-5.70731e-05
0.000422525
-5.34202e-05
0.000422456
-4.94554e-05
0.000422048
-4.52115e-05
0.000421311
-4.0715e-05
0.000420256
-3.59953e-05
0.000418903
-3.10831e-05
0.000417246
-2.60213e-05
0.000415282
-2.08462e-05
0.000412996
-1.56085e-05
0.000410363
-1.03698e-05
0.000407354
-5.2061e-06
0.000403973
-1.53615e-07
0.000400228
4.61855e-06
0.000395949
9.00603e-06
0.000391096
1.28281e-05
0.000385663
1.59651e-05
0.000379709
1.825e-05
0.000373305
1.95589e-05
0.000366545
1.98051e-05
0.000359637
1.89534e-05
0.000352804
1.7061e-05
0.000346305
1.42571e-05
0.000340396
1.07256e-05
0.000335295
6.68543e-06
0.000331193
2.3588e-06
0.000328195
-2.05632e-06
0.000326343
-6.39965e-06
0.000325621
-1.05629e-05
0.000325962
-1.44861e-05
0.000327272
-1.81571e-05
0.000329447
-2.1595e-05
0.000332381
-2.49099e-05
0.00033585
-2.79761e-05
0.000339867
-3.09418e-05
0.000344352
-3.38392e-05
0.000349159
-3.6599e-05
0.00035429
-3.93358e-05
0.00035962
-4.19885e-05
0.000365118
-4.45366e-05
0.000370749
-4.6947e-05
0.000376403
-4.91258e-05
0.000382036
-5.10114e-05
0.000387608
-5.25045e-05
0.000393028
-5.34885e-05
0.000398236
-5.38488e-05
0.000403197
-5.34634e-05
0.000407822
-5.22385e-05
0.000412217
-5.01027e-05
0.00041625
-4.69233e-05
-4.26337e-05
0.000419936
0.000420812
-5.87538e-05
0.000422578
-5.62604e-05
0.000423937
-5.32945e-05
0.000424908
-4.99494e-05
0.000425491
-4.62595e-05
0.000425704
-4.22567e-05
0.000425562
-3.79651e-05
0.000425069
-3.34141e-05
0.000424239
-2.86353e-05
0.000423073
-2.36637e-05
0.000421575
-1.85452e-05
0.000419724
-1.33364e-05
0.0004175
-8.0976e-06
0.000414856
-2.90585e-06
0.000411782
2.12596e-06
0.000408261
7.00086e-06
0.000404248
1.1437e-05
0.000399553
1.53572e-05
0.000394179
1.8523e-05
0.000388108
2.08191e-05
0.000381393
2.21079e-05
0.000374165
2.22416e-05
0.000366563
2.12254e-05
0.000358825
1.90911e-05
0.000351254
1.59684e-05
0.000344151
1.20772e-05
0.000337779
7.67102e-06
0.000332375
3.00468e-06
0.000328112
-1.68445e-06
0.00032506
-6.2094e-06
0.000323229
-1.04566e-05
0.000322561
-1.43555e-05
0.000322962
-1.78954e-05
0.000324325
-2.11112e-05
0.000326516
-2.4104e-05
0.000329364
-2.68672e-05
0.000332834
-2.94809e-05
0.000336811
-3.2007e-05
0.00034119
-3.44359e-05
0.000345966
-3.68874e-05
0.000351039
-3.93355e-05
0.000356377
-4.17686e-05
0.000361938
-4.417e-05
0.000367657
-4.64745e-05
0.000373513
-4.86289e-05
0.000379457
-5.05397e-05
0.000385398
-5.21106e-05
0.000391313
-5.32226e-05
0.000397133
-5.37669e-05
0.000402763
-5.36135e-05
0.00040818
-5.26507e-05
0.000413288
-5.07846e-05
0.000418173
-4.79641e-05
-4.40718e-05
0.000422697
0.000422409
-5.166e-05
0.000424534
-4.91538e-05
0.000426246
-4.62041e-05
0.000427541
-4.28754e-05
0.000428453
-3.92005e-05
0.000428978
-3.52045e-05
0.000429119
-3.09086e-05
0.000428894
-2.63416e-05
0.000428303
-2.15364e-05
0.000427338
-1.6533e-05
0.000425988
-1.13813e-05
0.000424234
-6.15482e-06
0.000422036
-9.26897e-07
0.000419342
4.19854e-06
0.000416119
9.12703e-06
0.000412367
1.37892e-05
0.00040796
1.79226e-05
0.000402734
2.12889e-05
0.000396672
2.37804e-05
0.000389857
2.51953e-05
0.000382285
2.54276e-05
0.000374117
2.4395e-05
0.000365643
2.21128e-05
0.000357123
1.87459e-05
0.00034889
1.45025e-05
0.000341308
9.67012e-06
0.000334656
4.55916e-06
0.000329127
-5.48665e-07
0.000324859
-5.42504e-06
0.000321899
-9.9472e-06
0.000320196
-1.40136e-05
0.000319655
-1.7618e-05
0.000320167
-2.07904e-05
0.000321573
-2.36224e-05
0.000323779
-2.62175e-05
0.000326595
-2.85798e-05
0.000329984
-3.08187e-05
0.000333838
-3.29672e-05
0.000338134
-3.51444e-05
0.000342794
-3.73819e-05
0.000347778
-3.96477e-05
0.000353071
-4.19789e-05
0.000358625
-4.43011e-05
0.000364441
-4.65919e-05
0.000370452
-4.87616e-05
0.000376641
-5.07238e-05
0.00038295
-5.23822e-05
0.000389307
-5.36132e-05
0.000395682
-5.42953e-05
0.000401992
-5.43114e-05
0.000408146
-5.35378e-05
0.000414089
-5.18698e-05
0.000419716
-4.92234e-05
-4.55811e-05
0.000425097
0.000423878
-4.46433e-05
0.000426385
-4.21789e-05
0.00042845
-3.92915e-05
0.000430117
-3.60327e-05
0.000431379
-3.24197e-05
0.00043224
-2.84736e-05
0.0004327
-2.42155e-05
0.000432769
-1.96684e-05
0.000432433
-1.48666e-05
0.000431683
-9.85471e-06
0.00043048
-4.69019e-06
0.000428817
5.31466e-07
0.000426617
5.74401e-06
0.000423805
1.08026e-05
0.000420346
1.56775e-05
0.000416298
2.0061e-05
0.000411385
2.38126e-05
0.000405504
2.66734e-05
0.000398643
2.84344e-05
0.000390857
2.89516e-05
0.000382337
2.81067e-05
0.000373231
2.59019e-05
0.000363834
2.24488e-05
0.000354584
1.79617e-05
0.000345834
1.27675e-05
0.000337928
7.20959e-06
0.000331143
1.62168e-06
0.000325647
-3.70928e-06
0.000321526
-8.6301e-06
0.00031877
-1.30374e-05
0.000317272
-1.68703e-05
0.000316902
-2.01779e-05
0.000317516
-2.30343e-05
0.000319034
-2.56214e-05
0.000321176
-2.78684e-05
0.000323942
-2.99538e-05
0.000327205
-3.19282e-05
0.000330952
-3.39039e-05
0.000335107
-3.59718e-05
0.000339607
-3.80987e-05
0.000344481
-4.0346e-05
0.000349677
-4.2653e-05
0.000355224
-4.50195e-05
0.000361074
-4.736e-05
0.000367221
-4.96104e-05
0.000373637
-5.16681e-05
0.000380293
-5.34304e-05
0.000387107
-5.47725e-05
0.000394023
-5.55684e-05
0.000400976
-5.56943e-05
0.000407871
-5.5031e-05
0.000414618
-5.34686e-05
0.00042112
-5.09167e-05
-4.731e-05
0.000427285
0.000425186
-3.78726e-05
0.000428073
-3.54938e-05
0.000430546
-3.27247e-05
0.000432602
-2.95804e-05
0.000434239
-2.60759e-05
0.000435467
-2.22251e-05
0.000436288
-1.80418e-05
0.000436676
-1.35486e-05
0.000436619
-8.77893e-06
0.0004361
-3.78305e-06
0.000435071
1.36418e-06
0.000433465
6.59567e-06
0.00043122
1.17788e-05
0.00042827
1.67793e-05
0.000424613
2.15293e-05
0.000420113
2.56817e-05
0.000414527
2.90558e-05
0.000407823
3.13417e-05
0.000400016
3.23579e-05
0.00039122
3.19506e-05
0.000381593
3.00615e-05
0.00037147
2.67578e-05
0.000361255
2.22422e-05
0.000351348
1.68458e-05
0.000342191
1.0941e-05
0.000334137
4.90962e-06
0.000327419
-9.2845e-07
0.000322079
-6.2283e-06
0.00031819
-1.10688e-05
0.000315707
-1.53006e-05
0.000314449
-1.88741e-05
0.000314268
-2.1915e-05
0.000315037
-2.46261e-05
0.000316519
-2.69333e-05
0.000318646
-2.90095e-05
0.000321318
-3.09449e-05
0.000324475
-3.2851e-05
0.000328056
-3.48234e-05
0.000332016
-3.68995e-05
0.000336362
-3.90954e-05
0.000341076
-4.1423e-05
0.000346188
-4.38546e-05
0.000351677
-4.635e-05
0.000357568
-4.88333e-05
0.000363851
-5.12386e-05
0.000370493
-5.34396e-05
0.000377483
-5.53372e-05
0.000384757
-5.6798e-05
0.000392237
-5.76902e-05
0.000399846
-5.78874e-05
0.000407493
-5.72644e-05
0.000415055
-5.5711e-05
0.000422423
-5.31376e-05
-4.94827e-05
0.000429483
0.000426302
-3.14824e-05
0.000429606
-2.92473e-05
0.000432482
-2.66405e-05
0.000434941
-2.36612e-05
0.000436998
-2.0312e-05
0.000438643
-1.65982e-05
0.000439836
-1.25291e-05
0.000440581
-8.12238e-06
0.000440842
-3.41168e-06
0.000440588
1.53555e-06
0.000439718
6.66862e-06
0.000438182
1.18894e-05
0.000435897
1.70226e-05
0.000432722
2.20425e-05
0.000428799
2.65963e-05
0.000423696
3.05315e-05
0.000417351
3.34689e-05
0.0004097
3.51663e-05
0.000400809
3.54278e-05
0.000390842
3.41239e-05
0.000380117
3.12518e-05
0.000369007
2.69821e-05
0.000357984
2.16221e-05
0.000347574
1.55622e-05
0.000338189
9.23379e-06
0.000330116
3.01798e-06
0.00032351
-2.79772e-06
0.000318494
-8.0099e-06
0.000314961
-1.26003e-05
0.000312742
-1.65579e-05
0.000311701
-1.9892e-05
0.000311729
-2.28509e-05
0.000312531
-2.53766e-05
0.000314027
-2.75731e-05
0.00031611
-2.96151e-05
0.000318665
-3.1585e-05
0.000321657
-3.3588e-05
0.000325058
-3.5711e-05
0.000328821
-3.79531e-05
0.000332981
-4.03625e-05
0.000337535
-4.29084e-05
0.00034254
-4.55831e-05
0.000347982
-4.83191e-05
0.000353916
-5.10442e-05
0.000360334
-5.36769e-05
0.000367215
-5.60838e-05
0.000374569
-5.81612e-05
0.000382311
-5.97652e-05
0.000390382
-6.07561e-05
0.000398692
-6.10018e-05
0.000407113
-6.0367e-05
0.000415527
-5.87402e-05
0.000423795
-5.6033e-05
-5.21852e-05
0.000431757
0.000427218
-2.55935e-05
0.000430925
-2.35485e-05
0.000434229
-2.11602e-05
0.000437136
-1.83955e-05
0.000439634
-1.52497e-05
0.000441707
-1.17186e-05
0.00044334
-7.80466e-06
0.000444485
-3.52263e-06
0.000445107
1.08675e-06
0.000445116
5.99125e-06
0.000444437
1.1094e-05
0.000442967
1.62781e-05
0.000440617
2.14035e-05
0.000437276
2.6365e-05
0.000432905
3.08031e-05
0.000427171
3.44505e-05
0.000419889
3.69586e-05
0.000411145
3.80721e-05
0.000401058
3.75978e-05
0.000389881
3.54537e-05
0.000377988
3.17354e-05
0.00036592
2.67077e-05
0.000354257
2.07597e-05
0.000343467
1.43543e-05
0.000333976
7.91207e-06
0.000326029
1.77884e-06
0.000319699
-3.81378e-06
0.000314989
-8.76241e-06
0.000311755
-1.30563e-05
0.000309798
-1.67288e-05
0.000309013
-2.00014e-05
0.000309127
-2.28196e-05
0.000309966
-2.52893e-05
0.000311448
-2.75435e-05
0.000313431
-2.97074e-05
0.000315852
-3.18807e-05
0.000318671
-3.41504e-05
0.000321856
-3.65665e-05
0.000325417
-3.91409e-05
0.000329384
-4.1894e-05
0.000333793
-4.48093e-05
0.000338677
-4.7837e-05
0.000344095
-5.09317e-05
0.000350081
-5.39991e-05
0.00035665
-5.69437e-05
0.000363801
-5.96345e-05
0.000371539
-6.19504e-05
0.000379802
-6.37389e-05
0.000388517
-6.4852e-05
0.000397576
-6.51428e-05
0.000406846
-6.44667e-05
0.000416173
-6.27027e-05
0.000425384
-5.97625e-05
-5.55842e-05
0.0004343
0.000427865
-2.02842e-05
0.000431997
-1.84955e-05
0.000435762
-1.63776e-05
0.000439124
-1.3885e-05
0.000442098
-1.09968e-05
0.000444654
-7.69966e-06
0.000446757
-3.98711e-06
0.000448355
1.25683e-07
0.000449365
4.61963e-06
0.000449698
9.43999e-06
0.000449237
1.44911e-05
0.000447862
1.96271e-05
0.000445383
2.48238e-05
0.000441908
2.96588e-05
0.000437016
3.39697e-05
0.00043043
3.73548e-05
0.000422141
3.94435e-05
0.000412208
3.99931e-05
0.000400829
3.88558e-05
0.000388348
3.60093e-05
0.000375352
3.16444e-05
0.000362464
2.61324e-05
0.000350236
1.99346e-05
0.00033922
1.35125e-05
0.000329779
7.25871e-06
0.000322032
1.44979e-06
0.000315985
-3.76045e-06
0.000311581
-8.35576e-06
0.000308579
-1.22921e-05
0.000306902
-1.58823e-05
0.000306257
-1.90368e-05
0.000306393
-2.18316e-05
0.000307246
-2.43945e-05
0.000308661
-2.68577e-05
0.000310508
-2.93125e-05
0.000312759
-3.18514e-05
0.000315391
-3.45458e-05
0.000318357
-3.73989e-05
0.000321716
-4.04562e-05
0.000325494
-4.36927e-05
0.00032975
-4.71023e-05
0.000334543
-5.06147e-05
0.000339949
-5.41812e-05
0.000346008
-5.76891e-05
0.000352763
-6.10478e-05
0.000360229
-6.41114e-05
0.000368401
-6.67443e-05
0.000377231
-6.8784e-05
0.000386657
-7.00652e-05
0.000396552
-7.0425e-05
0.000406748
-6.97005e-05
0.000417086
-6.77575e-05
0.000427342
-6.44989e-05
-5.98609e-05
0.000437291
0.000428242
-1.56257e-05
0.000432802
-1.41557e-05
0.00043701
-1.23737e-05
0.000440876
-1.02181e-05
0.000444361
-7.65081e-06
0.000447448
-4.64861e-06
0.000450076
-1.19659e-06
0.000452159
2.70557e-06
0.000453619
7.03371e-06
0.000454324
1.1746e-05
0.000454111
1.6721e-05
0.000452837
2.18542e-05
0.000450394
2.70038e-05
0.000446583
3.18659e-05
0.000441062
3.60121e-05
0.000433615
3.91328e-05
0.000424162
4.08525e-05
0.000412922
4.09503e-05
0.000400182
3.92735e-05
0.00038646
3.59344e-05
0.00037244
3.12176e-05
0.000358781
2.55719e-05
0.000346193
1.94758e-05
0.000335086
1.33749e-05
0.000325711
7.58215e-06
0.000318197
2.28083e-06
0.000312428
-2.45022e-06
0.00030825
-6.64262e-06
0.000305498
-1.03731e-05
0.000303975
-1.38617e-05
0.000303312
-1.69897e-05
0.000303466
-1.99067e-05
0.000304252
-2.27256e-05
0.000305527
-2.55551e-05
0.00030722
-2.84587e-05
0.000309293
-3.15252e-05
0.000311692
-3.47693e-05
0.000314449
-3.82195e-05
0.000317603
-4.18871e-05
0.000321212
-4.57527e-05
0.000325325
-4.97692e-05
0.000330067
-5.38967e-05
0.000335466
-5.80418e-05
0.000341625
-6.21082e-05
0.000348612
-6.59868e-05
0.000356427
-6.95267e-05
0.000365099
-7.25766e-05
0.000374581
-7.49611e-05
0.000384795
-7.64895e-05
0.00039562
-7.69749e-05
0.000406878
-7.62268e-05
0.000418351
-7.40896e-05
0.000429768
-7.04402e-05
-6.52215e-05
0.000440871
0.000428307
-1.1656e-05
0.000433274
-1.05824e-05
0.000437969
-9.21608e-06
0.000442345
-7.4728e-06
0.000446382
-5.30665e-06
0.000450041
-2.6762e-06
0.000453241
4.41162e-07
0.000455895
4.07122e-06
0.000457875
8.18865e-06
0.000459008
1.27423e-05
0.000459082
1.76216e-05
0.000457901
2.28328e-05
0.000455551
2.78936e-05
0.000451379
3.26921e-05
0.000445175
3.68049e-05
0.000436694
3.97448e-05
0.000426052
4.12061e-05
0.000413438
4.09741e-05
0.000399325
3.90178e-05
0.000384387
3.54911e-05
0.000369407
3.0794e-05
0.000355221
2.53985e-05
0.000342332
1.97834e-05
0.000331186
1.42996e-05
0.000321967
9.1771e-06
0.000314618
4.49895e-06
0.000309039
2.70634e-07
0.000304997
-3.57689e-06
0.000302405
-7.20244e-06
0.000300786
-1.0633e-05
0.000300119
-1.38939e-05
0.000300201
-1.70865e-05
0.000300843
-2.03251e-05
0.000301945
-2.36691e-05
0.000303454
-2.71834e-05
0.000305298
-3.09034e-05
0.00030747
-3.48364e-05
0.000310026
-3.90242e-05
0.000312983
-4.34292e-05
0.000316424
-4.804e-05
0.000320441
-5.27992e-05
0.000325114
-5.76433e-05
0.000330558
-6.24896e-05
0.000336858
-6.72342e-05
0.000344088
-7.17509e-05
0.000352313
-7.58871e-05
0.000361548
-7.94828e-05
0.000371762
-8.23343e-05
0.00038289
-8.42253e-05
0.000394788
-8.49362e-05
0.000407252
-8.4228e-05
0.000420024
-8.19144e-05
0.000432785
-7.78248e-05
-7.191e-05
0.000445203
0.000427963
-8.40213e-06
0.00043338
-7.81846e-06
0.000438547
-6.9591e-06
0.000443461
-5.72858e-06
0.000448092
-4.0604e-06
0.000452379
-1.89735e-06
0.000456247
7.85046e-07
0.000459526
4.06584e-06
0.000462091
7.89438e-06
0.000463722
1.22338e-05
0.000464171
1.70881e-05
0.000463393
2.21447e-05
0.000460877
2.73317e-05
0.000456307
3.21848e-05
0.000449394
3.62178e-05
0.000439861
3.91284e-05
0.000427876
4.05439e-05
0.000413901
4.02687e-05
0.000398438
3.83443e-05
0.000382381
3.50405e-05
0.000366675
3.07971e-05
0.000351948
2.60782e-05
0.000338875
2.12785e-05
0.000327738
1.66558e-05
0.000318558
1.23343e-05
0.000311288
8.31521e-06
0.000305754
4.5464e-06
0.000301818
8.6227e-07
0.00029905
-2.67244e-06
0.000297362
-6.22687e-06
0.00029657
-9.76735e-06
0.000296472
-1.34186e-05
0.000296903
-1.72294e-05
0.000297787
-2.12414e-05
0.000299062
-2.5498e-05
0.000300658
-2.99941e-05
0.000302621
-3.47652e-05
0.000304958
-3.97937e-05
0.000307741
-4.5068e-05
0.000311037
-5.0532e-05
0.000314957
-5.61449e-05
0.000319607
-6.18269e-05
0.000325103
-6.74907e-05
0.000331574
-7.30293e-05
0.000339095
-7.83217e-05
0.000347762
-8.31918e-05
0.000357634
-8.74884e-05
0.000368668
-9.09693e-05
0.000380825
-9.33857e-05
0.000393953
-9.44675e-05
0.000407838
-9.39207e-05
0.000422136
-9.14888e-05
0.000436471
-8.69403e-05
-8.02164e-05
0.000450427
0.000427221
-5.8798e-06
0.000433023
-5.89568e-06
0.000438679
-5.6613e-06
0.000444179
-5.06257e-06
0.000449449
-4.01831e-06
0.000454424
-2.45173e-06
0.000458979
-3.02461e-07
0.000463012
2.48648e-06
0.000466278
5.93312e-06
0.000468528
1.00376e-05
0.000469476
1.47559e-05
0.000468956
1.98473e-05
0.000466541
2.50391e-05
0.000461604
2.99802e-05
0.000453822
3.42527e-05
0.000443214
3.73535e-05
0.000429996
3.89878e-05
0.000414557
3.90581e-05
0.00039785
3.76554e-05
0.000380822
3.50705e-05
0.000364328
3.17535e-05
0.000349285
2.81026e-05
0.000336006
2.441e-05
0.000324742
2.08032e-05
0.000315551
1.73224e-05
0.000308208
1.39113e-05
0.000302556
1.04157e-05
0.000298348
6.8813e-06
0.00029541
3.196e-06
0.000293524
-6.32802e-07
0.000292496
-4.67554e-06
0.000292118
-8.93354e-06
0.000292289
-1.34765e-05
0.000292917
-1.83021e-05
0.000293905
-2.34119e-05
0.000295265
-2.88228e-05
0.000297004
-3.45409e-05
0.000299149
-4.05316e-05
0.000301761
-4.67658e-05
0.000304931
-5.3204e-05
0.000308772
-5.97669e-05
0.000313421
-6.64017e-05
0.000318981
-7.29916e-05
0.000325636
-7.94568e-05
0.000333465
-8.56658e-05
0.000342607
-9.14301e-05
0.000353167
-9.66057e-05
0.000365116
-0.000100922
0.000378431
-0.000104089
0.000392986
-0.000105754
0.000408529
-0.00010556
0.000424643
-0.000103118
0.000440874
-9.81339e-05
-9.04903e-05
0.000456658
0.000425908
-4.09421e-06
0.000432124
-4.84405e-06
0.000438311
-5.37519e-06
0.000444387
-5.56007e-06
0.000450315
-5.29673e-06
0.00045606
-4.48571e-06
0.000461445
-3.03251e-06
0.000466321
-9.01239e-07
0.000470398
2.08295e-06
0.000473372
5.9225e-06
0.000475152
1.03193e-05
0.000475019
1.54909e-05
0.00047254
2.08561e-05
0.000467222
2.61288e-05
0.000458821
3.07651e-05
0.000447114
3.44465e-05
0.00043246
3.68293e-05
0.000415823
3.77647e-05
0.00039792
3.74454e-05
0.000379914
3.61434e-05
0.000362903
3.42443e-05
0.000347354
3.20104e-05
0.000333788
2.96221e-05
0.00032231
2.70956e-05
0.000312835
2.43895e-05
0.000305201
2.14201e-05
0.000299221
1.80908e-05
0.000294665
1.44348e-05
0.000291386
1.04271e-05
0.000289157
6.0978e-06
0.000287735
1.38822e-06
0.000287029
-3.68384e-06
0.000286882
-9.10201e-06
0.000287178
-1.48553e-05
0.000287892
-2.09562e-05
0.000289014
-2.74001e-05
0.000290523
-3.4153e-05
0.000292474
-4.12089e-05
0.000294939
-4.8507e-05
0.000297989
-5.60015e-05
0.00030178
-6.36159e-05
0.000306401
-7.1299e-05
0.000312048
-7.89168e-05
0.00031888
-8.64496e-05
0.00032702
-9.36984e-05
0.000336651
-0.000100563
0.000347915
-0.000106838
0.000360862
-0.000112248
0.000375479
-0.000116442
0.00039166
-0.000118985
0.000409129
-0.000119417
0.000427388
-0.000117147
0.000445871
-0.000111797
-0.000103143
0.000463834
0.000424029
-3.0485e-06
0.000430613
-4.68924e-06
0.00043726
-6.15748e-06
0.000443965
-7.30926e-06
0.00045064
-8.02414e-06
0.000457212
-8.18077e-06
0.000463538
-7.6505e-06
0.000469313
-6.28682e-06
0.000474403
-3.92156e-06
0.000478519
-7.25825e-07
0.000481049
3.6909e-06
0.000481454
8.76083e-06
0.000479298
1.45062e-05
0.000473693
2.03214e-05
0.000464502
2.59841e-05
0.000451733
3.06108e-05
0.000435999
3.44445e-05
0.000417982
3.68637e-05
0.000398974
3.83461e-05
0.000380213
3.89269e-05
0.000362358
3.88927e-05
0.000346361
3.83499e-05
0.0003323
3.73642e-05
0.000320283
3.58509e-05
0.000310339
3.38036e-05
0.000302203
3.09805e-05
0.000295632
2.75946e-05
0.000290545
2.35902e-05
0.00028676
1.90226e-05
0.000284051
1.39205e-05
0.000282174
8.37652e-06
0.000281056
2.30706e-06
0.000280514
-4.11592e-06
0.000280486
-1.09498e-05
0.000280921
-1.81549e-05
0.000281771
-2.57051e-05
0.000283075
-3.36071e-05
0.000284845
-4.18002e-05
0.00028716
-5.0248e-05
0.000290112
-5.88791e-05
0.000293839
-6.76297e-05
0.000298449
-7.64387e-05
0.000304133
-8.52118e-05
0.000311118
-9.38921e-05
0.000319526
-0.000102358
0.000329638
-0.000110502
0.000341601
-0.000118109
0.000355557
-0.000124911
0.000371543
-0.000130496
0.000389518
-0.000134313
0.000409161
-0.000135731
0.000429887
-0.000133891
0.00045099
-0.000128286
-0.000118591
0.000471537
0.000421338
-2.74134e-06
0.00042827
-5.44772e-06
0.000435467
-8.06075e-06
0.000442796
-1.04005e-05
0.000450208
-1.23327e-05
0.000457687
-1.37259e-05
0.000465029
-1.43299e-05
0.000471993
-1.4009e-05
0.000478417
-1.26608e-05
0.000483727
-9.86785e-06
0.000487422
-5.88696e-06
0.000488659
-5.48613e-07
0.000486621
5.73862e-06
0.000481379
1.2678e-05
0.000471379
1.95336e-05
0.000457901
2.64557e-05
0.000440806
3.20338e-05
0.000421642
3.72659e-05
0.00040161
4.10783e-05
0.000381696
4.4145e-05
0.000363205
4.63739e-05
0.000346282
4.76781e-05
0.000331416
4.80619e-05
0.000318631
4.74314e-05
0.000307855
4.56228e-05
0.000298812
4.28466e-05
0.000291493
3.90378e-05
0.000285731
3.43558e-05
0.000281318
2.89246e-05
0.000278
2.28304e-05
0.000275641
1.61796e-05
0.000274021
9.01755e-06
0.000273094
1.4091e-06
0.000272736
-6.60895e-06
0.000272852
-1.50031e-05
0.000273464
-2.37695e-05
0.000274552
-3.28825e-05
0.000276164
-4.2297e-05
0.000278354
-5.19578e-05
0.000281203
-6.17918e-05
0.000284842
-7.17432e-05
0.000289425
-8.174e-05
0.000295138
-9.1746e-05
0.000302158
-0.000101672
0.000310779
-0.000111487
0.000321237
-0.000121084
0.000333792
-0.000130282
0.000348697
-0.000138803
0.000366045
-0.000146208
0.000385834
-0.000151712
0.000407698
-0.000154528
0.000430939
-0.000153381
0.000454722
-0.000147645
-0.000137044
0.000478081
0.000417795
-3.14524e-06
0.000425017
-7.13891e-06
0.000432674
-1.11235e-05
0.000440614
-1.49202e-05
0.000448828
-1.83433e-05
0.000457293
-2.12348e-05
0.000465866
-2.34121e-05
0.00047427
-2.45241e-05
0.000482202
-2.4177e-05
0.000489067
-2.23515e-05
0.000494247
-1.86016e-05
0.00049671
-1.299e-05
0.000495833
-5.66438e-06
0.000490057
2.90202e-06
0.000480498
1.22874e-05
0.000465642
2.16669e-05
0.000447823
3.09634e-05
0.000427335
3.91675e-05
0.000405896
4.66899e-05
0.000385041
5.25926e-05
0.000365097
5.73592e-05
0.000347094
6.05536e-05
0.000331034
6.21548e-05
0.000316966
6.19951e-05
0.000305065
6.02886e-05
0.000294947
5.70011e-05
0.000286669
5.24026e-05
0.000280059
4.67241e-05
0.000274868
4.01172e-05
0.000270891
3.2758e-05
0.000267954
2.4794e-05
0.000265864
1.63565e-05
0.00026452
7.44499e-06
0.000263793
-1.85462e-06
0.000263615
-1.15343e-05
0.000263989
-2.15908e-05
0.0002649
-3.19901e-05
0.000266356
-4.2682e-05
0.000268424
-5.36081e-05
0.000271184
-6.47001e-05
0.00027473
-7.5889e-05
0.000279241
-8.71281e-05
0.000284867
-9.83973e-05
0.000291845
-0.000109639
0.000300504
-0.000120901
0.00031112
-0.000132099
0.000324039
-0.000143115
0.000339642
-0.000153653
0.000358046
-0.000163248
0.000379266
-0.000170748
0.000402854
-0.000175365
0.000427983
-0.000175063
0.000453809
-0.000169401
-0.000158542
0.000479749
0.000413176
-4.28117e-06
0.000420622
-9.77482e-06
0.000428677
-1.53568e-05
0.000437215
-2.08549e-05
0.000446259
-2.61923e-05
0.000455846
-3.10425e-05
0.000465703
-3.50764e-05
0.000475818
-3.79523e-05
0.000485576
-3.92786e-05
0.000494574
-3.84759e-05
0.000501727
-3.50597e-05
0.000506167
-2.89234e-05
0.000506184
-2.00774e-05
0.000501771
-8.69639e-06
0.000491463
3.75573e-06
0.000476619
1.77871e-05
0.00045713
3.10454e-05
0.000435668
4.42016e-05
0.000412721
5.5578e-05
0.000389904
6.52161e-05
0.000368527
7.26292e-05
0.000348609
7.75859e-05
0.000330739
8.00335e-05
0.000315167
8.00304e-05
0.000301615
7.77619e-05
0.000290176
7.35372e-05
0.000280768
6.77255e-05
0.000273184
6.0628e-05
0.000267169
5.25179e-05
0.000262481
4.36331e-05
0.000258939
3.41578e-05
0.000256386
2.42424e-05
0.000254623
1.39362e-05
0.000253559
3.25261e-06
0.000253139
-7.79983e-06
0.000253299
-1.92006e-05
0.000254037
-3.09376e-05
0.000255371
-4.29599e-05
0.000257335
-5.51918e-05
0.000259983
-6.75611e-05
0.000263419
-8.00002e-05
0.000267785
-9.24895e-05
0.000273222
-0.000105011
0.000280003
-0.000117582
0.000288437
-0.00013031
0.000298872
-0.000143172
0.000311708
-0.000156106
0.000327428
-0.000168809
0.000345915
-0.000180694
0.000367422
-0.000190076
0.000390877
-0.000196596
0.00041612
-0.000196776
0.000442333
-0.000192249
-0.000182646
0.000469908
0.00040724
-6.0483e-06
0.000414841
-1.326e-05
0.000423243
-2.07492e-05
0.00043233
-2.83885e-05
0.000442165
-3.5897e-05
0.000452874
-4.30906e-05
0.000464245
-4.95846e-05
0.000476256
-5.48526e-05
0.000488325
-5.82251e-05
0.000499804
-5.88115e-05
0.000510098
-5.59609e-05
0.000516651
-4.9016e-05
0.000519727
-3.77013e-05
0.000515612
-2.29629e-05
0.000506549
-4.78118e-06
0.000490715
1.41668e-05
0.000470348
3.42635e-05
0.000446775
5.28928e-05
0.000421644
6.93909e-05
0.000396784
8.28096e-05
0.00037277
9.28395e-05
0.000350524
9.93342e-05
0.00033038
0.000102132
0.000312596
0.000101615
0.000297177
9.82969e-05
0.000284174
9.25452e-05
0.000273475
8.49745e-05
0.000264834
7.5988e-05
0.000257952
6.60052e-05
0.000252592
5.53137e-05
0.000248504
4.41411e-05
0.000245478
3.26129e-05
0.000243344
2.07958e-05
0.000241996
8.63152e-06
0.000241334
-3.83473e-06
0.000241319
-1.66384e-05
0.000241934
-2.97627e-05
0.000243169
-4.3143e-05
0.000245042
-5.66984e-05
0.000247592
-7.03511e-05
0.000250883
-8.40246e-05
0.000255025
-9.77188e-05
0.000260139
-0.000111423
0.000266482
-0.000125238
0.000274339
-0.000139315
0.000284054
-0.000153745
0.000296003
-0.000168435
0.00031068
-0.000183065
0.000327456
-0.000196758
0.000346473
-0.000207352
0.000366882
-0.000215134
0.000389184
-0.00021644
0.00041507
-0.000216935
-0.00021183
0.00044286
0.000399727
-8.41843e-06
0.000407508
-1.76401e-05
0.000416064
-2.726e-05
0.000425559
-3.72579e-05
0.000436138
-4.74893e-05
0.000447864
-5.75502e-05
0.000460741
-6.69754e-05
0.000474734
-7.51856e-05
0.000489367
-8.11807e-05
0.000503938
-8.37264e-05
0.000517265
-8.15967e-05
0.000527787
-7.35925e-05
0.000533589
-5.95103e-05
0.000532745
-3.9517e-05
0.000524404
-1.40978e-05
0.000508598
1.22461e-05
0.000486888
4.05762e-05
0.000461127
6.64978e-05
0.00043301
8.87612e-05
0.000404843
0.000106182
0.000377566
0.000118842
0.000351949
0.000126208
0.000328932
0.000128845
0.000308545
0.000127161
0.000290981
0.000121947
0.000276313
0.000113985
0.000264297
0.000103967
0.000254609
9.2647e-05
0.000246951
8.04113e-05
0.000240978
6.76486e-05
0.000236432
5.45751e-05
0.000233061
4.13201e-05
0.000230633
2.79162e-05
0.000229027
1.42285e-05
0.000228181
2.82702e-07
0.000228038
-1.39581e-05
0.000228555
-2.84984e-05
0.000229733
-4.32679e-05
0.00023155
-5.81517e-05
0.000234004
-7.3064e-05
0.000237135
-8.79163e-05
0.000240977
-0.000102727
0.00024562
-0.000117448
0.000251213
-0.000132282
0.000257966
-0.000147373
0.000266138
-0.000162966
0.000275934
-0.000178762
0.000287517
-0.000194539
0.000299708
-0.000208643
0.000312264
-0.000218757
0.000325442
-0.000228258
0.000347724
-0.000238454
0.000374755
-0.000252662
-0.000254113
0.000398945
0.000390689
-1.13535e-05
0.000398288
-2.26661e-05
0.00040686
-3.47588e-05
0.000416575
-4.74923e-05
0.000427523
-6.07223e-05
0.000439889
-7.40157e-05
0.000453913
-8.67544e-05
0.000469305
-9.83133e-05
0.000485624
-0.000107175
0.000502474
-0.000112072
0.00051891
-0.000111395