/*--------------------------------*- C++ -*----------------------------------*\
  =========                 |
  \\      /  F ield         | OpenFOAM: The Open Source CFD Toolbox
   \\    /   O peration     | Website:  https://openfoam.org
    \\  /    A nd           | Version:  10
     \\/     M anipulation  |
\*---------------------------------------------------------------------------*/
FoamFile
{
    format      ascii;
    class       volScalarField;
    location    "0.149786";
    object      rho;
}
// * * * * * * * * * * * * * * * * * * * * * * * * * * * * * * * * * * * * * //

dimensions      [1 -3 0 0 0 0 0];

internalField   nonuniform List<scalar> 
15984
(
0.996376
0.993953
0.991303
0.988534
0.985616
0.982671
0.979661
0.976729
0.973909
0.971261
0.968875
0.9668
0.965127
0.963924
0.963257
0.963138
0.963612
0.964759
0.966786
0.969506
0.972926
0.977102
0.98194
0.987321
0.99322
0.999431
1.00585
1.01224
1.01846
1.02432
1.02964
1.03432
1.03823
1.04135
1.04368
1.04524
1.0461
1.04637
1.04611
1.04551
1.04453
1.04339
1.04229
1.04115
1.04027
1.03961
1.0394
1.03964
1.04043
1.0418
1.04385
1.04623
1.04925
1.05226
0.996647
0.993863
0.99085
0.987769
0.984587
0.981412
0.978259
0.975168
0.972232
0.9695
0.967021
0.964885
0.963151
0.961883
0.961182
0.961044
0.961508
0.962751
0.964834
0.967788
0.971655
0.97623
0.981652
0.987781
0.994415
1.00147
1.00867
1.01577
1.02259
1.02888
1.03448
1.03924
1.0431
1.04602
1.04805
1.04923
1.04969
1.04948
1.04885
1.04765
1.0463
1.04471
1.04307
1.04151
1.04009
1.03892
1.03813
1.03775
1.03788
1.03854
1.0398
1.04151
1.0438
1.0463
0.996477
0.993336
0.990049
0.986681
0.983316
0.979965
0.976666
0.973501
0.970486
0.967691
0.965187
0.963025
0.961271
0.960015
0.959323
0.959227
0.959768
0.961137
0.963432
0.966787
0.97094
0.976134
0.982196
0.989002
0.996431
1.00418
1.01206
1.01968
1.02687
1.03337
1.03899
1.04362
1.0472
1.04976
1.05135
1.05208
1.05207
1.05142
1.05023
1.04871
1.04685
1.0448
1.04285
1.04085
1.03902
1.03743
1.03619
1.03529
1.03494
1.03502
1.03553
1.03671
1.0382
1.04027
0.995845
0.992407
0.988896
0.98533
0.981809
0.978323
0.974954
0.971722
0.968683
0.965875
0.963372
0.961223
0.959504
0.958298
0.957677
0.957688
0.958409
0.959986
0.962632
0.966403
0.971058
0.976886
0.983623
0.991157
0.999309
1.00767
1.01603
1.02396
1.03126
1.0377
1.04309
1.04736
1.05049
1.05255
1.0536
1.05384
1.05331
1.05215
1.05059
1.04852
1.04634
1.04402
1.04159
1.03936
1.03721
1.03529
1.03366
1.03247
1.03157
1.03119
1.03126
1.03172
1.03278
1.03408
0.994721
0.991114
0.987408
0.983719
0.980087
0.976535
0.973129
0.969889
0.966845
0.964069
0.961595
0.959511
0.957861
0.956775
0.956281
0.956477
0.957434
0.959398
0.962462
0.966782
0.972049
0.97857
0.98609
0.99434
1.00307
1.01193
1.02055
1.02853
1.03569
1.0418
1.04673
1.05045
1.05297
1.0544
1.0549
1.05455
1.05346
1.05196
1.04979
1.04748
1.04491
1.04229
1.03967
1.03713
1.03473
1.03257
1.03073
1.02907
1.02802
1.02716
1.02679
1.02685
1.02724
1.02816
0.99319
0.989406
0.985653
0.981863
0.978171
0.974641
0.971225
0.967998
0.965009
0.96229
0.959903
0.957907
0.956391
0.955469
0.955194
0.955637
0.956903
0.959412
0.963021
0.967884
0.974135
0.981287
0.989571
0.998538
1.00776
1.01685
1.02554
1.03332
1.04005
1.0456
1.04987
1.05287
1.05468
1.05546
1.0553
1.05437
1.05288
1.05071
1.04831
1.04561
1.04277
1.03993
1.03705
1.03436
1.03179
1.02942
1.02739
1.02557
1.02407
1.02302
1.02226
1.02189
1.02191
1.02221
0.991185
0.987464
0.983572
0.979817
0.976134
0.972633
0.969263
0.966108
0.963202
0.960572
0.958314
0.956448
0.955137
0.954442
0.95442
0.955172
0.956991
0.959978
0.964427
0.970015
0.976971
0.98525
0.994146
1.00367
1.01325
1.02243
1.0308
1.03814
1.04424
1.04902
1.05248
1.05467
1.05572
1.05577
1.05499
1.05355
1.05146
1.04887
1.04622
1.04315
1.04017
1.03702
1.0341
1.03118
1.02851
1.02598
1.02377
1.02183
1.02011
1.01875
1.0177
1.01698
1.01659
1.0165
0.988939
0.985103
0.981331
0.977603
0.974023
0.970536
0.967302
0.964256
0.961456
0.958951
0.956852
0.955179
0.954133
0.953675
0.954002
0.955194
0.957587
0.961345
0.96656
0.973184
0.981126
0.990059
0.999807
1.00972
1.01936
1.02833
1.03628
1.04288
1.04814
1.05202
1.05457
1.05589
1.05618
1.05551
1.05415
1.05209
1.04952
1.04672
1.0436
1.04043
1.03715
1.03395
1.03083
1.0278
1.02506
1.02242
1.02007
1.01796
1.01612
1.01449
1.01319
1.01216
1.01141
1.01096
0.986282
0.982611
0.978882
0.975283
0.971737
0.968486
0.965334
0.962413
0.959779
0.957462
0.955562
0.954137
0.95338
0.953245
0.953934
0.955755
0.958828
0.963562
0.969733
0.977342
0.986209
0.996118
1.00629
1.01644
1.02596
1.03451
1.04166
1.0474
1.05169
1.05457
1.05616
1.05664
1.05618
1.05479
1.05284
1.05031
1.04733
1.04424
1.04089
1.03752
1.03408
1.03074
1.02755
1.02438
1.0216
1.01882
1.01638
1.01416
1.0121
1.01034
1.00876
1.00743
1.00637
1.00557
0.983499
0.97988
0.976338
0.972839
0.969537
0.966347
0.963398
0.960672
0.958211
0.956108
0.954453
0.953351
0.952888
0.953174
0.954364
0.95685
0.960968
0.966537
0.973857
0.982589
0.992466
1.00293
1.01355
1.0237
1.03273
1.04058
1.04681
1.05153
1.05476
1.05664
1.05733
1.05698
1.05571
1.0538
1.05127
1.0483
1.0451
1.04168
1.03817
1.03458
1.03112
1.0276
1.02434
1.02112
1.01822
1.01536
1.01279
1.01042
1.00825
1.00627
1.00449
1.0029
1.00153
1.00034
0.980489
0.976982
0.973702
0.970397
0.967245
0.964277
0.961515
0.959009
0.956787
0.954962
0.953558
0.952804
0.952724
0.95344
0.955314
0.958753
0.963701
0.970621
0.979059
0.988876
0.99951
1.01062
1.02134
1.03103
1.0395
1.04645
1.05157
1.05514
1.05732
1.05825
1.05803
1.05694
1.05498
1.05253
1.0496
1.04625
1.04286
1.03922
1.03557
1.03188
1.02829
1.02471
1.02133
1.01808
1.01503
1.01212
1.00943
1.00689
1.00454
1.00241
1.00039
0.998523
0.996898
0.995352
0.977267
0.97416
0.970942
0.967944
0.964992
0.962272
0.959751
0.957488
0.955502
0.953981
0.952918
0.952563
0.952925
0.954241
0.956949
0.961273
0.967577
0.975463
0.985255
0.995998
1.00749
1.01878
1.02916
1.03853
1.0459
1.05175
1.05581
1.05826
1.05938
1.05935
1.0584
1.05657
1.05409
1.05118
1.04784
1.04439
1.04072
1.03698
1.03319
1.02948
1.02573
1.02213
1.01872
1.01527
1.01219
1.00915
1.00632
1.00365
1.00112
0.99873
0.996493
0.994385
0.992431
0.990548
0.974191
0.971188
0.968287
0.965535
0.962827
0.960385
0.958101
0.95611
0.954467
0.953289
0.952598
0.952677
0.95343
0.955667
0.95917
0.964758
0.9721
0.981585
0.99225
1.00406
1.0158
1.02704
1.03721
1.04529
1.05194
1.05646
1.05938
1.06071
1.06086
1.06006
1.05835
1.05593
1.05305
1.04975
1.04627
1.04261
1.0388
1.03499
1.03117
1.02734
1.0236
1.01993
1.01636
1.01295
1.00964
1.00649
1.00352
1.00068
0.997936
0.995379
0.992839
0.990471
0.988138
0.985973
0.970953
0.968285
0.965721
0.963146
0.960808
0.958585
0.956686
0.955007
0.953666
0.952857
0.952584
0.953177
0.954744
0.957525
0.962265
0.969035
0.977685
0.988165
1.00031
1.01228
1.02453
1.0354
1.04442
1.05185
1.05708
1.06044
1.06215
1.06256
1.06188
1.0603
1.05798
1.05512
1.05193
1.04836
1.04479
1.04099
1.03715
1.03331
1.02946
1.02562
1.02183
1.01809
1.01445
1.0109
1.00755
1.00416
1.00108
0.998032
0.995063
0.992232
0.989411
0.986785
0.984024
0.981544
0.967926
0.965556
0.963162
0.960999
0.958956
0.957097
0.955462
0.954108
0.953253
0.952814
0.953111
0.954161
0.956276
0.960427
0.966055
0.973945
0.984125
0.995926
1.00824
1.02126
1.03284
1.04295
1.05149
1.05717
1.06146
1.06363
1.0643
1.0637
1.06233
1.06008
1.05735
1.05416
1.05068
1.04716
1.0434
1.03959
1.03578
1.03195
1.02809
1.02428
1.02039
1.01669
1.01292
1.00925
1.00579
1.00219
0.998921
0.995687
0.992446
0.989305
0.986221
0.983216
0.980088
0.977228
0.964999
0.962836
0.960912
0.959097
0.957328
0.9558
0.954641
0.953678
0.953243
0.953237
0.953982
0.955799
0.958906
0.96357
0.970623
0.980035
0.991023
1.00352
1.01725
1.02929
1.04088
1.0502
1.05695
1.06199
1.06471
1.06588
1.06556
1.06435
1.06226
1.05955
1.05654
1.05302
1.04957
1.04592
1.04217
1.03843
1.03467
1.03088
1.02705
1.02325
1.01934
1.01563
1.01164
1.00803
1.00431
1.00057
0.99706
0.993566
0.990142
0.986597
0.983257
0.979743
0.976266
0.972851
0.962338
0.960583
0.958874
0.957387
0.956112
0.954975
0.954211
0.953702
0.953685
0.954253
0.955552
0.958134
0.961777
0.968116
0.975585
0.98638
0.998115
1.01219
1.02464
1.03767
1.04785
1.0557
1.06212
1.06506
1.06725
1.06726
1.0662
1.0643
1.06172
1.05871
1.05539
1.05194
1.04839
1.04475
1.04113
1.03744
1.03378
1.03006
1.02629
1.02249
1.01856
1.01485
1.01066
1.00702
1.00301
0.999246
0.995465
0.991727
0.987911
0.984023
0.98032
0.976297
0.972409
0.968428
0.95994
0.958387
0.957188
0.956263
0.95526
0.95461
0.954258
0.954254
0.954869
0.955793
0.957892
0.961061
0.965933
0.971657
0.982925
0.991475
1.00716
1.01827
1.03338
1.04365
1.05379
1.06079
1.06497
1.06773
1.06833
1.06782
1.06604
1.06372
1.06082
1.05765
1.05419
1.05076
1.04715
1.04374
1.04019
1.03662
1.03308
1.02943
1.02577
1.02194
1.01808
1.01407
1.01018
1.00608
1.00204
0.998046
0.993955
0.989887
0.985794
0.981555
0.977451
0.972853
0.968315
0.963685
0.957949
0.956732
0.955981
0.95542
0.954916
0.954841
0.954999
0.955607
0.95645
0.958383
0.960718
0.964767
0.969893
0.978499
0.985858
1.00134
1.01066
1.02794
1.03759
1.05003
1.05775
1.0634
1.06741
1.06844
1.0688
1.06752
1.06534
1.0626
1.05957
1.05629
1.05288
1.04946
1.0461
1.04274
1.03932
1.03591
1.03253
1.02898
1.02534
1.0216
1.01771
1.01364
1.00969
1.00532
1.00117
0.9969
0.992559
0.988073
0.98388
0.979101
0.974731
0.969491
0.964136
0.959092
0.956354
0.95562
0.955198
0.955189
0.955245
0.955741
0.956344
0.957391
0.959353
0.961222
0.964663
0.968771
0.975282
0.982012
0.994256
1.00363
1.02012
1.02929
1.04568
1.05196
1.06074
1.06512
1.06764
1.06844
1.06795
1.06644
1.06392
1.06108
1.05801
1.05482
1.05147
1.0482
1.04499
1.04181
1.03856
1.03538
1.03205
1.02865
1.02506
1.02131
1.01733
1.01329
1.0091
1.00462
1.00029
0.995696
0.991089
0.986271
0.98212
0.976284
0.972579
0.965251
0.961244
0.957283
0.955131
0.95497
0.955076
0.955579
0.956157
0.957256
0.958643
0.960271
0.96265
0.965266
0.968531
0.974426
0.978177
0.990507
0.994732
1.0129
1.02016
1.03633
1.04471
1.05498
1.06066
1.06504
1.06713
1.0672
1.06662
1.06471
1.06199
1.05929
1.0563
1.05311
1.05007
1.04696
1.0439
1.04094
1.03783
1.03482
1.03163
1.02835
1.02477
1.02106
1.01701
1.01287
1.00846
1.0038
0.999266
0.994425
0.989574
0.984484
0.980567
0.97363
0.971419
0.962937
0.967288
0.974855
0.954502
0.954756
0.955584
0.956544
0.95794
0.959638
0.961534
0.963958
0.966875
0.969957
0.973649
0.977792
0.983949
0.991595
1.00071
1.01271
1.02286
1.03624
1.04565
1.05329
1.0594
1.06243
1.06436
1.06447
1.06386
1.06192
1.05972
1.05695
1.05421
1.05137
1.0484
1.04568
1.0429
1.04012
1.03719
1.0343
1.03127
1.028
1.0245
1.0207
1.01658
1.01231
1.00759
1.0029
0.998007
0.993165
0.988065
0.983131
0.979462
0.972107
0.977664
0.976857
1.02421
1.06223
0.954499
0.955447
0.956737
0.958457
0.960486
0.962612
0.96507
0.968546
0.971554
0.97466
0.978534
0.982926
0.989525
0.993674
1.00677
1.00707
1.02568
1.02992
1.04423
1.04967
1.0556
1.05916
1.06111
1.06142
1.06097
1.05942
1.05684
1.05477
1.05214
1.04961
1.04689
1.04437
1.04188
1.03926
1.03647
1.0338
1.03081
1.02763
1.02405
1.02028
1.01588
1.01153
1.00644
1.00182
0.996654
0.992223
0.986777
0.983006
0.980408
0.979269
1.01459
1.10158
1.2318
1.30071
0.955048
0.956549
0.958614
0.960818
0.963899
0.966425
0.969366
0.973772
0.976984
0.980885
0.986587
0.993888
1.00325
1.00788
1.01759
1.01506
1.01937
1.02692
1.03479
1.0418
1.0477
1.0522
1.05515
1.05629
1.05663
1.05564
1.05408
1.05188
1.04987
1.04763
1.04537
1.04311
1.04082
1.03841
1.03586
1.03318
1.03037
1.02712
1.02344
1.01955
1.01492
1.01035
1.00522
1.00064
0.995587
0.991405
0.986456
0.98704
0.989982
1.04309
1.16688
1.51299
1.62114
1.67813
0.955998
0.958342
0.960686
0.964056
0.967595
0.971251
0.975157
0.981457
0.985211
0.999244
1.01929
1.05575
1.09408
1.10763
1.10521
1.07802
1.04191
1.02874
1.02984
1.03343
1.03926
1.04458
1.04873
1.05093
1.05212
1.05187
1.05054
1.04941
1.04768
1.04567
1.04371
1.0417
1.03984
1.0376
1.03516
1.03257
1.02971
1.02644
1.0226
1.01854
1.01363
1.00886
1.00405
0.9995
0.994807
0.991647
0.990357
1.00519
1.05374
1.26269
1.66197
1.80567
1.8308
1.85816
0.95764
0.960516
0.963854
0.967825
0.971201
0.97732
0.983124
0.997553
1.00718
1.08229
1.22403
1.34461
1.46998
1.54771
1.53348
1.43739
1.26915
1.09745
1.03736
1.0243
1.02675
1.03398
1.04072
1.04487
1.04725
1.04796
1.04741
1.04613
1.04491
1.04361
1.04209
1.04043
1.03868
1.03661
1.03431
1.03181
1.02892
1.02551
1.02145
1.01709
1.01212
1.00743
1.00305
0.998992
0.995782
0.997397
1.01115
1.07295
1.32381
1.72156
1.88614
1.89809
1.89804
1.89229
0.959842
0.963596
0.966942
0.971441
0.976869
0.987196
1.00397
1.03862
1.16725
1.49114
1.76882
1.85981
1.91912
1.94039
1.90108
1.85811
1.68751
1.43494
1.16609
1.05434
1.02497
1.02335
1.03056
1.03724
1.04126
1.04297
1.04357
1.04356
1.04293
1.04161
1.04025
1.03917
1.03756
1.03561
1.03345
1.03083
1.02789
1.0242
1.01999
1.01552
1.01061
1.00606
1.0034
1.00128
1.00422
1.02166
1.0922
1.34901
1.77605
1.90887
1.916
1.91075
1.90314
1.89513
0.962583
0.966271
0.970898
0.977499
0.986459
1.01803
1.07733
1.31739
1.71465
1.94258
2.02426
2.02984
2.02034
1.99001
1.93166
1.8355
1.70875
1.47455
1.21224
1.07999
1.02909
1.02004
1.024
1.03126
1.03624
1.03873
1.03958
1.03999
1.03989
1.0395
1.03855
1.03761
1.03627
1.03444
1.03219
1.0297
1.02643
1.02264
1.01834
1.01394
1.00938
1.00655
1.00959
1.01463
1.03737
1.11758
1.40099
1.79215
1.91741
1.92063
1.9122
1.90635
1.90071
1.89636
0.965219
0.969979
0.977387
0.989163
1.04044
1.157
1.54912
1.94603
2.02302
2.04306
2.05108
2.04656
2.03085
1.99007
1.91731
1.78779
1.59722
1.35131
1.16403
1.05851
1.0163
1.01094
1.01708
1.02419
1.03084
1.03454
1.03623
1.03728
1.0375
1.03715
1.03671
1.03593
1.03482
1.03295
1.03087
1.02811
1.0248
1.02094
1.01669
1.01257
1.01019
1.01652
1.03704
1.06342
1.16238
1.48011
1.82099
1.92045
1.92168
1.91192
1.90497
1.9005
1.89851
1.89863
0.970538
0.97862
0.995279
1.03185
1.38836
1.88287
1.98385
2.02451
2.04687
2.0545
2.05798
2.05262
2.03394
1.99241
1.91408
1.76729
1.52923
1.19929
1.09107
1.03122
1.00481
1.00333
1.01099
1.01927
1.02606
1.03009
1.03222
1.03381
1.03459
1.03499
1.03467
1.03422
1.03304
1.03132
1.02911
1.02625
1.02287
1.01914
1.01544
1.01377
1.02288
1.06503
1.12512
1.23716
1.58966
1.86141
1.92306
1.92043
1.90961
1.90165
1.89852
1.89793
1.89966
1.90371
0.981462
0.998169
1.23205
1.8088
1.91091
1.99529
2.02865
2.0459
2.05865
2.06414
2.06469
2.05653
2.03642
1.99588
1.92077
1.77651
1.52373
1.19986
1.03554
1.00591
0.995078
0.99797
1.0067
1.0152
1.02175
1.02595
1.02867
1.03084
1.03197
1.03235
1.03247
1.03212
1.03087
1.0293
1.02691
1.02411
1.02081
1.01739
1.01612
1.02856
1.08972
1.23096
1.3971
1.7079
1.90072
1.92497
1.9183
1.90576
1.89652
1.89313
1.89254
1.89601
1.90135
1.90954
1.26697
1.52627
1.80315
1.95577
1.99474
2.02364
2.04218
2.05614
2.06641
2.06999
2.0681
2.05827
2.03802
2.00395
1.94598
1.8358
1.61668
1.26951
1.03432
0.995954
0.99057
0.99515
1.00394
1.0121
1.01869
1.02261
1.02542
1.02801
1.029
1.02993
1.03011
1.02968
1.02862
1.02676
1.02446
1.02145
1.0186
1.01714
1.02905
1.10977
1.3443
1.63988
1.82979
1.91789
1.92539
1.91734
1.90168
1.89161
1.88656
1.88534
1.8892
1.89516
1.90486
1.91617
1.73028
1.8709
1.95036
1.99206
2.01435
2.03512
2.0501
2.06341
2.07052
2.07241
2.0688
2.05835
2.03937
2.00934
1.96073
1.87783
1.72137
1.45696
1.10353
0.99968
0.991185
0.994558
1.00203
1.00961
1.01559
1.01925
1.02215
1.02489
1.02624
1.0271
1.02749
1.02729
1.02583
1.02395
1.02147
1.01885
1.01691
1.02652
1.10568
1.41543
1.77586
1.91165
1.92716
1.93164
1.91505
1.89992
1.88654
1.87944
1.87771
1.8797
1.88657
1.89656
1.90913
1.92377
1.90846
1.95514
1.98219
2.00613
2.02265
2.04175
2.05525
2.06638
2.07176
2.07232
2.06755
2.05675
2.03903
2.01236
1.97112
1.90197
1.77543
1.57037
1.28092
1.03602
0.995104
0.995212
1.00116
1.00761
1.01271
1.0163
1.01939
1.02225
1.02344
1.02453
1.02473
1.02413
1.02281
1.02075
1.01824
1.01637
1.02159
1.07826
1.35165
1.77688
1.93113
1.94153
1.93628
1.91596
1.89922
1.88268
1.87408
1.87
1.86948
1.87635
1.88533
1.89886
1.91444
1.93149
1.95449
1.97559
1.99484
2.01256
2.02847
2.04538
2.05754
2.06676
2.07064
2.07033
2.0652
2.05477
2.03863
2.01585
1.98124
1.92101
1.80669
1.61698
1.35186
1.08392
1.00002
0.9987
1.0003
1.00586
1.01017
1.01379
1.01687
1.01929
1.02037
1.02158
1.02174
1.02101
1.01927
1.01713
1.01504
1.0159
1.04021
1.17532
1.59107
1.88637
1.95064
1.93767
1.92316
1.89865
1.88215
1.86961
1.86296
1.86125
1.86499
1.8733
1.88592
1.90201
1.92006
1.93986
1.96842
1.9826
2.00049
2.01632
2.03168
2.04626
2.05724
2.06504
2.06793
2.06724
2.06269
2.05361
2.04059
2.02324
1.99773
1.95617
1.8772
1.73143
1.48833
1.18154
1.02868
0.997533
1.002
1.00386
1.00787
1.01118
1.01409
1.01657
1.01769
1.01847
1.01846
1.01738
1.01569
1.01323
1.01119
1.01446
1.04638
1.19686
1.61562
1.88587
1.9397
1.92338
1.90563
1.88197
1.86798
1.85789
1.8537
1.85461
1.86141
1.87204
1.88785
1.90566
1.92652
1.94755
1.97329
1.98728
2.0023
2.01772
2.03171
2.04474
2.05483
2.06159
2.06434
2.06408
2.06017
2.05323
2.04323
2.03053
2.01115
1.97899
1.91968
1.80963
1.622
1.35138
1.0798
1.01132
1.00092
1.00338
1.00562
1.00867
1.01145
1.01357
1.01458
1.0154
1.01519
1.01385
1.01165
1.00952
1.01053
1.0247
1.08539
1.2871
1.70657
1.90293
1.92531
1.9107
1.88549
1.86906
1.85444
1.84762
1.8464
1.84951
1.8595
1.87246
1.89043
1.91079
1.93228
1.95577
1.97608
1.98877
2.00215
2.01649
2.02951
2.04153
2.05081
2.05715
2.06047
2.06129
2.05957
2.05468
2.04853
2.03985
2.02539
1.99982
1.95556
1.87379
1.73097
1.51138
1.2349
1.03412
1.00668
1.00248
1.00423
1.00621
1.00868
1.01067
1.01159
1.01208
1.01171
1.01022
1.00885
1.01211
1.03094
1.08881
1.25819
1.67527
1.83799
1.92831
1.9057
1.89545
1.86871
1.85508
1.84347
1.84005
1.84123
1.84529
1.85934
1.87385
1.89447
1.91553
1.93942
1.9633
1.97649
1.98809
1.99998
2.01307
2.02547
2.03672
2.04578
2.05248
2.05715
2.05951
2.05994
2.05817
2.0555
2.04989
2.03866
2.0178
1.98008
1.91151
1.79418
1.61317
1.37656
1.13011
1.00721
1.00604
1.00245
1.0038
1.00571
1.00747
1.00835
1.00886
1.00892
1.00931
1.01791
1.05027
1.14569
1.41166
1.71136
1.84539
1.91327
1.90941
1.89896
1.87215
1.85578
1.84295
1.83451
1.83274
1.83706
1.84338
1.86007
1.87635
1.89863
1.92157
1.94634
1.97092
1.97486
1.98498
1.99584
2.00799
2.01991
2.03084
2.04033
2.04803
2.05432
2.05915
2.06202
2.06372
2.06439
2.06217
2.05383
2.03704
2.0055
1.94811
1.85051
1.6947
1.47986
1.2309
1.05417
0.998272
1.00442
1.00171
1.00293
1.00444
1.00579
1.0072
1.01124
1.02741
1.08181
1.25856
1.55392
1.78748
1.8518
1.91432
1.90447
1.90267
1.87422
1.85921
1.84182
1.83232
1.82685
1.82701
1.83471
1.84282
1.86149
1.88011
1.90347
1.92767
1.95319
1.9783
1.97154
1.98028
1.99019
2.00179
2.01341
2.02455
2.03477
2.04408
2.05262
2.05974
2.06536
2.07039
2.07417
2.07374
2.06776
2.05276
2.02326
1.9701
1.88367
1.74963
1.56155
1.33493
1.11
1.0216
1.00064
1.00297
1.00139
1.00189
1.00516
1.01311
1.04049
1.12673
1.4029
1.65119
1.84677
1.86555
1.91616
1.90253
1.90323
1.8756
1.8631
1.84216
1.83156
1.82314
1.82039
1.82339
1.83262
1.84431
1.86384
1.88442
1.90875
1.93409
1.96005
1.98522
1.96689
1.9745
1.98369
1.99487
2.00634
2.0181
2.02961
2.04106
2.05157
2.0612
2.06925
2.07682
2.08315
2.08436
2.08143
2.07058
2.0483
2.00644
1.93364
1.81809
1.64896
1.43796
1.21731
1.04559
1.01012
1.00254
1.00341
1.00599
1.01802
1.05731
1.18413
1.51724
1.72728
1.87377
1.88809
1.91566
1.90596
1.90097
1.87976
1.86292
1.84488
1.8307
1.82148
1.81627
1.81558
1.8216
1.83178
1.84693
1.86703
1.88938
1.91434
1.93988
1.96633
1.9915
1.96161
1.9683
1.97692
1.98769
1.99944
2.01208
2.02518
2.03821
2.05116
2.06271
2.07294
2.08235
2.08954
2.09133
2.0884
2.07886
2.05928
2.02578
1.9682
1.87571
1.73679
1.5461
1.32983
1.13683
0.993103
1.02757
1.01413
1.02804
1.08134
1.26942
1.57645
1.83624
1.85349
1.91845
1.89862
1.91382
1.89021
1.88509
1.85975
1.85014
1.83052
1.82051
1.8136
1.81109
1.81254
1.8209
1.83264
1.85027
1.87101
1.89465
1.92005
1.94678
1.97224
1.99745
1.95639
1.96217
1.97038
1.98092
1.99324
2.00669
2.02109
2.03602
2.05024
2.06312
2.07465
2.08568
2.09203
2.09452
2.09181
2.08508
2.07015
2.04747
2.01308
1.95625
1.86364
1.72322
1.53176
1.31217
1.16779
1.08246
1.1094
1.17019
1.40542
1.6573
1.87083
1.86686
1.92074
1.9052
1.91213
1.88912
1.88431
1.8639
1.84797
1.83359
1.82109
1.81185
1.80758
1.8075
1.81126
1.82146
1.83508
1.85401
1.87562
1.90013
1.92603
1.95214
1.97803
2.00124
1.95187
1.95707
1.96483
1.97532
1.98777
2.00202
2.01751
2.03336
2.04846
2.06219
2.07422
2.0843
2.09021
2.09086
2.08749
2.07977
2.06759
2.04947
2.02779
2.00086
1.96179
1.9051
1.82251
1.70661
1.57871
1.54247
1.53015
1.58409
1.74516
1.90846
1.89945
1.92737
1.91032
1.91036
1.89227
1.88348
1.86321
1.85126
1.83394
1.82376
1.81177
1.80591
1.80381
1.8055
1.8117
1.8232
1.83865
1.85842
1.88097
1.9059
1.93153
1.95713
1.98257
2.00409
1.94865
1.95332
1.96066
1.97089
1.9834
1.99793
2.01382
2.02975
2.04497
2.0585
2.07034
2.07878
2.08266
2.08189
2.07745
2.0687
2.05634
2.04196
2.02524
2.00723
1.98941
1.9671
1.94078
1.90522
1.86301
1.84465
1.83487
1.84995
1.9004
1.94229
1.91953
1.92227
1.90257
1.89758
1.87696
1.86952
1.8497
1.83879
1.82433
1.81392
1.8058
1.80218
1.80188
1.80534
1.81363
1.82622
1.84285
1.86339
1.88574
1.91052
1.9362
1.96114
1.98461
2.00487
1.94711
1.95121
1.95815
1.96786
1.9799
1.99417
2.00926
2.02473
2.03904
2.05152
2.06158
2.06819
2.06983
2.06757
2.06185
2.05259
2.04072
2.02741
2.01349
2.00047
1.98728
1.97549
1.96429
1.95334
1.94038
1.93265
1.92529
1.9254
1.93212
1.93164
1.91847
1.90709
1.89263
1.88151
1.86595
1.85488
1.83932
1.8277
1.81671
1.80755
1.80262
1.80102
1.8017
1.8073
1.81704
1.83023
1.84796
1.86802
1.8905
1.91488
1.93944
1.9634
1.98488
2.00239
1.94738
1.95092
1.95705
1.96582
1.97705
1.98992
2.00397
2.0177
2.03025
2.04074
2.04866
2.05247
2.05249
2.04911
2.04249
2.03295
2.02234
2.01071
1.99923
1.98859
1.97834
1.9696
1.96257
1.95604
1.949
1.943
1.93688
1.9312
1.92583
1.91747
1.90581
1.89288
1.88042
1.86799
1.85526
1.84314
1.82992
1.82023
1.81092
1.80455
1.80184
1.8016
1.80354
1.81133
1.82127
1.83559
1.85317
1.87308
1.89499
1.91819
1.94088
1.96351
1.98217
1.99639
1.94926
1.95194
1.95703
1.9646
1.97405
1.98524
1.99706
2.00863
2.01855
2.02633
2.03167
2.03323
2.03189
2.02745
2.02062
2.01205
2.00262
1.99307
1.98365
1.97496
1.96687
1.95964
1.9537
1.94713
1.9411
1.9349
1.92832
1.92117
1.91327
1.90377
1.89246
1.88031
1.86849
1.85676
1.84505
1.8337
1.8229
1.81498
1.80831
1.80428
1.803
1.80448
1.80797
1.81679
1.82715
1.84173
1.85857
1.8776
1.8988
1.92012
1.94045
1.95996
1.97573
1.98474
1.95218
1.95394
1.95765
1.96343
1.97083
1.97964
1.98871
1.9972
2.00444
2.00938
2.01193
2.01187
2.00957
2.00462
1.9983
1.99101
1.98314
1.97538
1.96778
1.96075
1.95411
1.94818
1.94216
1.93584
1.92967
1.92296
1.91575
1.90793
1.89951
1.88997
1.87938
1.86814
1.85745
1.84708
1.83672
1.82689
1.81883
1.81259
1.80833
1.80651
1.80672
1.80982
1.8148
1.82404
1.83495
1.849
1.86511
1.88279
1.90157
1.91972
1.93748
1.95288
1.9634
1.968
1.95569
1.95616
1.95834
1.96195
1.96708
1.97296
1.97897
1.98452
1.98874
1.99082
1.99132
1.99012
1.98727
1.98261
1.9772
1.97107
1.96483
1.95866
1.9526
1.94678
1.94132
1.93574
1.92974
1.9237
1.91724
1.91027
1.90266
1.89467
1.88614
1.87704
1.86725
1.85735
1.848
1.83905
1.83039
1.82304
1.81754
1.81314
1.81134
1.81169
1.81303
1.8179
1.82418
1.83333
1.84432
1.8573
1.87168
1.88697
1.90363
1.91933
1.93031
1.93843
1.94337
1.94996
1.95901
1.95828
1.95846
1.96002
1.96255
1.96546
1.96846
1.97116
1.97255
1.97257
1.97166
1.96969
1.96669
1.96271
1.9582
1.95343
1.94851
1.94363
1.93857
1.93369
1.92876
1.92326
1.91752
1.91143
1.90478
1.89759
1.88996
1.88199
1.87378
1.86532
1.85667
1.84818
1.84031
1.83295
1.82678
1.82183
1.81837
1.81702
1.81711
1.81981
1.82262
1.82922
1.83656
1.8467
1.85625
1.86848
1.88024
1.89302
1.9054
1.9134
1.91756
1.91893
1.91984
1.91473
1.96185
1.95963
1.95802
1.95746
1.95742
1.95769
1.95801
1.95812
1.95757
1.95592
1.95413
1.9518
1.94903
1.94573
1.94226
1.93848
1.93448
1.93052
1.92628
1.92193
1.91689
1.91158
1.90583
1.89961
1.89283
1.88561
1.8781
1.87046
1.86279
1.85511
1.84757
1.84068
1.83464
1.82956
1.82516
1.82303
1.82251
1.82363
1.82602
1.83048
1.83574
1.84339
1.85173
1.86112
1.87106
1.88053
1.89009
1.89724
1.90341
1.90584
1.90327
1.88838
1.88256
1.87863
1.9638
1.96022
1.95697
1.95446
1.95223
1.95026
1.94844
1.94663
1.9446
1.94207
1.93966
1.93732
1.93492
1.93225
1.92943
1.92641
1.92309
1.91963
1.9158
1.91137
1.90647
1.90111
1.89517
1.88875
1.88192
1.8747
1.86744
1.86014
1.85307
1.84644
1.84031
1.83528
1.83084
1.82784
1.82636
1.827
1.82925
1.83264
1.83791
1.84439
1.85209
1.8611
1.8703
1.8796
1.88897
1.89623
1.8992
1.90136
1.89964
1.89193
1.87161
1.8348
1.80347
1.80524
1.05551
1.05834
1.06093
1.06278
1.0639
1.06423
1.06375
1.06221
1.05996
1.05668
1.0529
1.04847
1.04357
1.03836
1.03291
1.02725
1.02161
1.01597
1.01045
1.00518
1.04904
1.05168
1.05418
1.05615
1.05763
1.05834
1.05835
1.05758
1.05595
1.05345
1.05032
1.0465
1.04224
1.03755
1.03261
1.0274
1.02211
1.01676
1.01151
1.00639
1.04239
1.04481
1.04699
1.04904
1.05062
1.05166
1.05208
1.05182
1.05091
1.04907
1.04653
1.04344
1.03983
1.03576
1.03135
1.02664
1.02178
1.01683
1.0119
1.00705
1.03589
1.03772
1.03971
1.04158
1.04319
1.04442
1.04512
1.04525
1.04484
1.0437
1.04172
1.03934
1.03636
1.03293
1.0291
1.02497
1.02061
1.01612
1.0116
1.0071
1.0293
1.03078
1.03238
1.03397
1.03549
1.03671
1.03763
1.03804
1.03799
1.03743
1.03605
1.03424
1.0319
1.0291
1.02588
1.02235
1.01856
1.0146
1.01055
1.00651
1.02298
1.02389
1.02511
1.02638
1.02769
1.02883
1.02975
1.03038
1.03056
1.0304
1.02959
1.0283
1.02655
1.02436
1.02176
1.01884
1.01565
1.01227
1.00878
1.00527
1.01673
1.01724
1.01801
1.01891
1.01991
1.02088
1.02172
1.02241
1.02277
1.02283
1.0225
1.02166
1.02045
1.01883
1.01685
1.01454
1.01197
1.00921
1.00633
1.00344
1.01074
1.01084
1.01111
1.01162
1.01228
1.01298
1.01367
1.0143
1.01475
1.01495
1.01493
1.01453
1.01376
1.01269
1.01128
1.00958
1.00764
1.00553
1.00332
1.00107
1.00496
1.00464
1.0045
1.00459
1.00487
1.00525
1.00572
1.00622
1.00666
1.00697
1.00711
1.00705
1.0067
1.0061
1.00524
1.00412
1.00283
1.00138
0.999839
0.998311
0.999391
0.998658
0.998105
0.99782
0.997685
0.997741
0.997944
0.998266
0.998634
0.998987
0.999258
0.999422
0.999436
0.99926
0.9989
0.998361
0.997683
0.996899
0.996093
0.995312
0.994063
0.992887
0.991958
0.991269
0.990758
0.990459
0.9904
0.990509
0.990774
0.991107
0.991495
0.99184
0.992149
0.99236
0.992479
0.992479
0.992421
0.992316
0.992229
0.992243
0.988919
0.987342
0.986032
0.98494
0.984043
0.983397
0.983072
0.982989
0.983122
0.983447
0.983915
0.984417
0.985
0.985581
0.986148
0.986705
0.987218
0.987813
0.988431
0.989257
0.983914
0.981945
0.980249
0.978747
0.977476
0.976517
0.975922
0.975664
0.975726
0.976027
0.976576
0.977262
0.978143
0.979086
0.980095
0.981151
0.982299
0.983517
0.984976
0.98652
0.979034
0.976671
0.974576
0.972644
0.971002
0.969714
0.96891
0.968486
0.968547
0.968851
0.969517
0.970475
0.971639
0.97299
0.974453
0.976043
0.9778
0.979717
0.981834
0.984363
0.974222
0.971401
0.968873
0.966486
0.964477
0.96289
0.96191
0.961393
0.961556
0.961881
0.962784
0.964047
0.965567
0.967442
0.969353
0.971524
0.973848
0.976512
0.979409
0.982535
0.969334
0.966035
0.963011
0.960176
0.957763
0.955935
0.954752
0.954414
0.954522
0.955097
0.956361
0.958025
0.960171
0.962379
0.96494
0.967649
0.970692
0.973996
0.977586
0.981694
0.964314
0.96046
0.956893
0.953504
0.950715
0.94856
0.947439
0.947256
0.94742
0.948458
0.950226
0.952636
0.955135
0.958084
0.96129
0.96465
0.968271
0.972343
0.976655
0.981359
0.958877
0.954348
0.950208
0.946234
0.942993
0.940574
0.939851
0.939572
0.940191
0.941905
0.944617
0.94749
0.951024
0.954576
0.958402
0.962492
0.966923
0.971451
0.9766
0.981845
0.953751
0.948711
0.943802
0.938847
0.934515
0.931877
0.931314
0.931402
0.932603
0.935541
0.93907
0.943172
0.947461
0.951917
0.956565
0.96141
0.966362
0.971724
0.977153
0.983228
0.952844
0.948651
0.943741
0.936478
0.929664
0.924517
0.922943
0.922527
0.924639
0.929021
0.934008
0.939435
0.944812
0.950314
0.95575
0.961301
0.966939
0.972703
0.978905
0.984962
0.973572
0.976478
0.970276
0.957548
0.945173
0.928741
0.920569
0.916961
0.917941
0.922885
0.929342
0.936276
0.943159
0.949695
0.956075
0.96227
0.968527
0.974885
0.98111
0.987747
1.06647
1.09887
1.0949
1.08303
1.03503
0.98999
0.945775
0.923868
0.917083
0.919738
0.926337
0.93444
0.942536
0.950299
0.957573
0.964442
0.971278
0.977782
0.984406
0.990622
1.36454
1.45459
1.45987
1.43499
1.33363
1.24507
1.08139
0.978356
0.93642
0.925189
0.927278
0.93479
0.943228
0.951824
0.960062
0.967735
0.974765
0.981606
0.987926
0.994013
1.73614
1.75789
1.72971
1.65761
1.61299
1.46066
1.29968
1.12052
1.00794
0.955809
0.939412
0.940534
0.947716
0.956007
0.964143
0.972041
0.979307
0.985937
0.992127
0.997495
1.85827
1.83764
1.79419
1.73315
1.61018
1.43448
1.2697
1.14369
1.04626
0.990134
0.964081
0.955815
0.957179
0.963037
0.970251
0.977115
0.984611
0.990797
0.996536
1.00119
1.87822
1.85849
1.82907
1.7585
1.65033
1.41403
1.17493
1.05559
1.00538
0.97827
0.966229
0.963311
0.965746
0.970614
0.976242
0.982325
0.988538
0.994739
0.999436
1.0044
1.88626
1.8754
1.8583
1.83149
1.78126
1.68559
1.49634
1.24073
1.0696
1.01114
0.99017
0.98363
0.985553
0.986326
0.992077
0.995706
1.00042
1.00481
1.00779
1.00939
1.89468
1.8911
1.88439
1.87264
1.85603
1.83015
1.78204
1.69449
1.57613
1.501
1.45631
1.44033
1.41488
1.37461
1.29469
1.25597
1.18138
1.11693
1.07524
1.0499
1.89923
1.90027
1.90236
1.9046
1.90361
1.89961
1.89774
1.89954
1.90618
1.91551
1.92657
1.93055
1.91688
1.87341
1.79207
1.67859
1.56711
1.52997
1.5173
1.50607
1.90936
1.91505
1.9193
1.92347
1.92792
1.93327
1.93854
1.94635
1.95657
1.96879
1.98055
1.99206
2.00279
2.01158
2.0175
2.02218
2.02509
2.02101
2.00552
1.97607
1.91848
1.9283
1.93774
1.9467
1.95488
1.96272
1.97122
1.98051
1.99082
2.00085
2.01132
2.0208
2.02889
2.03608
2.0427
2.04732
2.05134
2.05135
2.04592
2.03095
1.92894
1.94194
1.95505
1.96727
1.97932
1.99036
2.00091
2.01094
2.02054
2.0295
2.03731
2.04423
2.05028
2.05572
2.06066
2.06589
2.06918
2.06925
2.0654
2.05615
1.93932
1.95543
1.97111
1.98639
2.00069
2.01401
2.02601
2.03687
2.04626
2.054
2.05997
2.06441
2.06828
2.07177
2.07499
2.07808
2.08051
2.08048
2.07778
2.07046
1.95
1.96808
1.98635
2.00353
2.01977
2.03452
2.04744
2.05843
2.06732
2.0736
2.07756
2.07974
2.08146
2.08343
2.08529
2.08703
2.08843
2.08816
2.08611
2.08069
1.95988
1.98032
2.00008