/*--------------------------------*- C++ -*----------------------------------*\
  =========                 |
  \\      /  F ield         | OpenFOAM: The Open Source CFD Toolbox
   \\    /   O peration     | Website:  https://openfoam.org
    \\  /    A nd           | Version:  10
     \\/     M anipulation  |
\*---------------------------------------------------------------------------*/
FoamFile
{
    format      ascii;
    class       volScalarField;
    location    "0.149786";
    object      T;
}
// * * * * * * * * * * * * * * * * * * * * * * * * * * * * * * * * * * * * * //

dimensions      [0 0 0 1 0 0 0];

internalField   nonuniform List<scalar> 
15984
(
0.00869902
0.00869078
0.00868188
0.00867188
0.00866169
0.00865087
0.00864046
0.00862994
0.00861981
0.00861038
0.00860174
0.00859435
0.00858832
0.00858394
0.00858147
0.00858156
0.00858286
0.00858716
0.00859365
0.00860324
0.00861565
0.00863017
0.00864705
0.00866636
0.00868695
0.00870895
0.0087313
0.00875383
0.00877559
0.00879588
0.00881441
0.00883053
0.00884411
0.00885487
0.00886273
0.00886802
0.00887085
0.00887138
0.00887074
0.00886811
0.0088653
0.00886163
0.00885707
0.00885342
0.00884987
0.00884806
0.00884715
0.00884804
0.00885083
0.00885581
0.00886206
0.00887175
0.00888074
0.00889253
0.00870004
0.00869012
0.00868007
0.00866908
0.00865806
0.00864664
0.00863535
0.00862451
0.00861402
0.0086042
0.00859542
0.00858773
0.00858149
0.00857703
0.00857435
0.00857437
0.00857582
0.00857981
0.00858729
0.00859769
0.00861049
0.00862731
0.00864638
0.00866774
0.00869145
0.00871605
0.00874126
0.00876634
0.00879006
0.00881189
0.00883119
0.00884762
0.00886083
0.00887085
0.00887761
0.00888156
0.0088827
0.00888232
0.00887923
0.00887601
0.00887054
0.00886515
0.00885962
0.008854
0.00884917
0.00884532
0.00884257
0.00884158
0.00884221
0.00884438
0.00884845
0.00885511
0.00886228
0.00887153
0.00869928
0.00868828
0.00867699
0.00866543
0.00865346
0.00864154
0.00862992
0.0086185
0.00860783
0.00859792
0.00858892
0.00858117
0.00857496
0.0085704
0.00856787
0.00856806
0.00856964
0.00857421
0.00858248
0.00859324
0.00860879
0.00862679
0.00864807
0.00867228
0.00869828
0.00872576
0.00875305
0.0087801
0.00880514
0.00882755
0.00884687
0.0088627
0.00887494
0.00888364
0.0088889
0.00889117
0.00889063
0.00888858
0.00888453
0.00887861
0.00887245
0.00886612
0.00885851
0.00885198
0.00884579
0.00884046
0.00883607
0.00883356
0.00883193
0.00883238
0.00883486
0.00883803
0.00884437
0.00885031
0.00869686
0.00868503
0.00867282
0.00866061
0.0086481
0.00863591
0.00862386
0.00861233
0.00860144
0.00859151
0.00858254
0.00857491
0.0085688
0.00856447
0.00856234
0.00856282
0.00856467
0.00857047
0.00857962
0.00859183
0.00860936
0.00862936
0.00865325
0.00868005
0.00870834
0.00873811
0.00876705
0.00879514
0.00882058
0.00884267
0.00886106
0.00887555
0.00888617
0.00889304
0.00889655
0.00889657
0.00889498
0.0088911
0.00888485
0.00887867
0.00887075
0.00886259
0.00885507
0.00884678
0.0088396
0.00883321
0.00882793
0.00882314
0.00882091
0.00881958
0.0088199
0.00882206
0.0088249
0.00883062
0.00869314
0.00868021
0.0086676
0.00865485
0.0086421
0.00862968
0.00861748
0.00860585
0.00859507
0.00858513
0.00857644
0.00856895
0.00856323
0.00855917
0.00855777
0.0085585
0.00856161
0.00856827
0.00857919
0.0085931
0.00861299
0.00863566
0.00866187
0.00869118
0.00872205
0.00875309
0.00878304
0.00881137
0.0088361
0.00885689
0.00887356
0.00888605
0.00889454
0.00889931
0.0089003
0.00889917
0.00889584
0.00888925
0.00888304
0.00887446
0.008866
0.00885693
0.00884791
0.00883935
0.00883145
0.00882413
0.00881739
0.00881307
0.00880797
0.00880599
0.00880485
0.00880505
0.0088071
0.0088095
0.00868763
0.00867455
0.00866111
0.00864837
0.00863567
0.00862287
0.00861085
0.00859943
0.00858871
0.00857901
0.00857053
0.00856353
0.00855819
0.00855478
0.00855422
0.00855543
0.00856043
0.00856802
0.00858105
0.00859844
0.00861894
0.00864587
0.00867481
0.00870602
0.00873861
0.00877098
0.00880064
0.008828
0.00885128
0.00887007
0.0088843
0.00889423
0.00890026
0.00890233
0.00890176
0.00889868
0.00889254
0.00888604
0.00887731
0.00886816
0.00885867
0.00884859
0.00883943
0.00882991
0.00882129
0.00881359
0.00880612
0.00880042
0.00879584
0.00879168
0.00878938
0.00878841
0.00878852
0.00879015
0.00868138
0.00866693
0.00865429
0.00864114
0.00862855
0.00861593
0.00860415
0.00859293
0.0085825
0.00857321
0.008565
0.00855866
0.00855379
0.00855131
0.00855193
0.00855416
0.00856005
0.00857094
0.00858527
0.00860623
0.00863115
0.00865864
0.00869145
0.00872478
0.00875822
0.0087902
0.00881966
0.00884499
0.00886585
0.00888186
0.00889318
0.00890024
0.00890343
0.00890318
0.00890071
0.00889498
0.00888791
0.0088802
0.0088695
0.00886017
0.00884911
0.00883947
0.00882871
0.00881946
0.00881008
0.00880216
0.00879435
0.0087875
0.00878223
0.00877759
0.00877409
0.00877173
0.00877059
0.00877078
0.00867293
0.00865952
0.00864616
0.0086334
0.00862072
0.008609
0.0085972
0.00858634
0.00857643
0.0085677
0.00856
0.00855435
0.0085502
0.00854932
0.0085503
0.00855449
0.00856266
0.00857592
0.00859402
0.00861727
0.00864514
0.00867751
0.00871125
0.00874629
0.00878036
0.00881157
0.00883859
0.00886148
0.0088794
0.00889213
0.0089002
0.00890431
0.00890431
0.0089026
0.00889712
0.00889021
0.00888193
0.00887164
0.00886151
0.00885028
0.00883956
0.00882854
0.00881795
0.00880831
0.00879835
0.00879008
0.008782
0.0087748
0.00876843
0.00876338
0.00875887
0.00875539
0.00875305
0.00875151
0.00866447
0.00865038
0.0086377
0.00862505
0.0086135
0.00860125
0.00859039
0.0085802
0.00857075
0.00856252
0.00855557
0.00855077
0.00854769
0.00854829
0.00855053
0.0085565
0.00856799
0.00858353
0.00860536
0.00863265
0.00866446
0.00869833
0.00873507
0.00877055
0.0088038
0.00883276
0.00885783
0.00887749
0.00889155
0.00890074
0.0089055
0.00890631
0.00890423
0.00890006
0.00889258
0.00888391
0.00887465
0.00886324
0.00885216
0.00884038
0.00882921
0.00881788
0.00880672
0.00879716
0.00878646
0.00877823
0.00876961
0.00876176
0.00875533
0.00874903
0.00874406
0.00873978
0.00873614
0.00873325
0.0086542
0.00864111
0.00862843
0.00861674
0.00860498
0.00859424
0.0085837
0.00857401
0.0085654
0.00855793
0.00855193
0.00854787
0.00854669
0.00854787
0.00855251
0.00856142
0.00857472
0.00859551
0.00862083
0.00865167
0.00868644
0.00872407
0.00876106
0.00879597
0.0088282
0.00885437
0.00887597
0.00889169
0.00890205
0.00890757
0.00890871
0.00890726
0.00890314
0.00889584
0.00888728
0.00887762
0.00886641
0.00885488
0.00884283
0.00883111
0.0088187
0.00880774
0.00879616
0.00878602
0.00877538
0.00876667
0.00875777
0.00874969
0.00874227
0.00873556
0.00872956
0.00872439
0.00871975
0.00871601
0.00864376
0.0086317
0.00861891
0.00860783
0.00859715
0.00858691
0.00857728
0.00856828
0.00856041
0.00855367
0.00854905
0.00854623
0.00854683
0.00854949
0.00855659
0.00856781
0.00858659
0.00860959
0.00863962
0.00867441
0.00871314
0.0087513
0.00878848
0.00882323
0.00885192
0.00887445
0.00889243
0.00890453
0.00891086
0.00891249
0.00891131
0.00890693
0.00890069
0.0088916
0.00888152
0.00887123
0.00885871
0.00884675
0.0088342
0.00882199
0.00880952
0.00879819
0.00878659
0.00877583
0.00876527
0.00875573
0.00874647
0.0087381
0.00873027
0.00872253
0.00871588
0.00870994
0.00870389
0.00869926
0.00863378
0.00862068
0.00861
0.00859893
0.00858931
0.00857976
0.00857093
0.00856288
0.00855627
0.0085505
0.00854712
0.00854603
0.00854758
0.00855288
0.00856245
0.00857831
0.00859942
0.00862926
0.00866223
0.00870144
0.00874111
0.00878071
0.00881823
0.00884808
0.00887503
0.00889369
0.00890673
0.00891468
0.00891743
0.00891642
0.00891217
0.00890566
0.00889717
0.00888701
0.00887652
0.00886415
0.00885197
0.0088393
0.00882675
0.00881375
0.00880177
0.00878974
0.00877755
0.00876744
0.00875598
0.00874608
0.00873647
0.00872726
0.0087188
0.0087108
0.00870316
0.00869602
0.00868918
0.00868346
0.00862185
0.00861072
0.00860026
0.00859014
0.00858154
0.00857279
0.00856525
0.00855831
0.00855245
0.00854791
0.00854628
0.00854706
0.00855132
0.00855747
0.00857191
0.00859066
0.0086182
0.00864973
0.00868928
0.00872978
0.00877252
0.00881172
0.00884466
0.00887496
0.00889472
0.00891029
0.00891886
0.00892306
0.00892255
0.00891852
0.00891207
0.00890373
0.0088935
0.00888283
0.00887078
0.00885829
0.00884595
0.00883301
0.00881996
0.00880745
0.00879481
0.00878265
0.00877094
0.00875932
0.00874848
0.00873791
0.00872759
0.00871775
0.00870868
0.0086994
0.0086913
0.00868296
0.00867559
0.00866814
0.00861149
0.00860063
0.00859053
0.00858232
0.00857398
0.00856694
0.00855979
0.00855406
0.00854988
0.008547
0.00854747
0.00854888
0.00855483
0.00856669
0.00858324
0.00860671
0.00863902
0.00867733
0.00871649
0.00876314
0.00880284
0.00884049
0.00887341
0.00889609
0.00891329
0.00892393
0.00892891
0.00892887
0.00892557
0.00891921
0.00891086
0.00890097
0.0088897
0.00887864
0.00886572
0.00885347
0.00884076
0.00882779
0.00881484
0.00880212
0.0087895
0.00877727
0.00876522
0.0087536
0.0087416
0.00873132
0.00871981
0.00870943
0.00869959
0.00868967
0.00868065
0.00867079
0.00866305
0.00865387
0.00860018
0.0085902
0.0085823
0.00857423
0.00856721
0.00856099
0.00855569
0.00855169
0.00854817
0.00854774
0.00854868
0.00855346
0.00856376
0.00857552
0.00859846
0.008628
0.00866286
0.00870368
0.00875116
0.00879254
0.0088351
0.00887062
0.008895
0.00891773
0.00892775
0.00893415
0.00893521
0.00893359
0.00892683
0.00891888
0.00890859
0.00889779
0.00888661
0.00887375
0.00886175
0.00884935
0.00883654
0.00882368
0.00881099
0.00879802
0.00878605
0.00877293
0.00876105
0.0087491
0.00873637
0.00872599
0.00871384
0.00870244
0.00869203
0.0086815
0.00867106
0.0086604
0.00865132
0.00864056
0.00858972
0.00858175
0.0085737
0.00856673
0.00856164
0.00855702
0.00855231
0.00855004
0.00854853
0.0085502
0.00855319
0.0085598
0.00857177
0.00859172
0.00861671
0.00864854
0.00869117
0.00873749
0.00877882
0.00882796
0.00886356
0.00889399
0.00891897
0.00893169
0.00894017
0.00894164
0.00894048
0.00893459
0.00892657
0.00891691
0.00890519
0.00889498
0.00888226
0.00887016
0.00885825
0.00884579
0.00883325
0.00882074
0.00880828
0.00879547
0.00878359
0.00876999
0.0087591
0.00874527
0.00873316
0.00872179
0.00870927
0.00869732
0.00868534
0.00867473
0.00866245
0.00865168
0.00864058
0.00862918
0.0085795
0.00857209
0.00856654
0.00856129
0.00855664
0.00855364
0.00855082
0.00855024
0.00855149
0.00855377
0.0085603
0.00856851
0.00858688
0.0086048
0.00864042
0.00867448
0.00872299
0.00876366
0.0088178
0.00885356
0.00889063
0.00891947
0.00893169
0.00894697
0.0089463
0.00894608
0.00894199
0.00893445
0.00892494
0.00891399
0.00890256
0.00889065
0.00887869
0.00886703
0.0088549
0.00884315
0.00883092
0.00881878
0.00880664
0.00879424
0.00878243
0.0087684
0.00875827
0.00874342
0.008732
0.00871874
0.00870604
0.00869329
0.0086813
0.00866979
0.00865622
0.00864477
0.0086315
0.00861879
0.00857042
0.0085658
0.00856058
0.00855546
0.00855383
0.00855227
0.00855192
0.00855318
0.00855474
0.00856216
0.00856908
0.00858169
0.00859952
0.00863521
0.00864958
0.00871573
0.00873831
0.00880864
0.00883716
0.00888772
0.00891202
0.00893287
0.00894867
0.0089515
0.00895217
0.00894756
0.00894182
0.00893208
0.00892147
0.00890981
0.00889877
0.00888665
0.00887585
0.00886346
0.00885229
0.00884113
0.0088293
0.00881787
0.00880571
0.00879405
0.00878174
0.00876985
0.00875624
0.00874403
0.00873107
0.00871764
0.00870507
0.00869218
0.00867911
0.00866656
0.00865154
0.00863936
0.00862507
0.00861079
0.0085621
0.0085595
0.00855574
0.00855313
0.0085531
0.00855301
0.0085545
0.00855706
0.00856437
0.0085698
0.00858307
0.00859688
0.00862211
0.008642
0.00870143
0.0087139
0.0087973
0.00881262
0.00888136
0.0089018
0.0089323
0.00894941
0.0089526
0.00895786
0.00895158
0.00894614
0.00893823
0.00892848
0.00891704
0.00890568
0.00889452
0.00888335
0.00887187
0.00886074
0.00885038
0.00883973
0.00882823
0.00881736
0.00880603
0.00879425
0.00878226
0.00877052
0.00875656
0.00874537
0.00873164
0.00871845
0.00870554
0.00869332
0.00867755
0.00866533
0.00864717
0.00863402
0.00861898
0.00859984
0.00855551
0.00855426
0.00855347
0.00855248
0.00855401
0.00855564
0.00856095
0.00856729
0.00857162
0.00858541
0.00859639
0.00861678
0.0086369
0.00868082
0.00870227
0.0087723
0.00879169
0.00887227
0.00887283
0.0089328
0.00894001
0.00895424
0.00895812
0.00895632
0.00895045
0.00894185
0.0089336
0.00892307
0.00891183
0.00890038
0.00889016
0.00887945
0.00886875
0.0088583
0.00884859
0.00883807
0.0088279
0.00881722
0.0088065
0.00879528
0.0087842
0.00877177
0.00875906
0.00874755
0.00873379
0.00872148
0.00870852
0.00869635
0.00867662
0.00866949
0.00863945
0.00863792
0.00860117
0.00856344
0.00855175
0.00855158
0.00855262
0.00855375
0.00855858
0.00856269
0.00856884
0.00857758
0.00858611
0.00860014
0.00861847
0.00862723
0.00867546
0.00867122
0.00876443
0.00875399
0.00884885
0.00885915
0.0089169
0.00892959
0.00895042
0.00895377
0.00895324
0.0089515
0.00894212
0.00893458
0.00892714
0.00891574
0.0089051
0.0088956
0.00888496
0.00887536
0.00886593
0.00885595
0.00884731
0.00883744
0.00882789
0.00881753
0.00880774
0.00879672
0.00878623
0.00877427
0.00876259
0.00875146
0.00873795
0.00872608
0.0087132
0.00870093
0.00867577
0.00867387
0.00862583
0.0086265
0.0085068
0.0083603
0.00854936
0.00855196
0.00855395
0.00855926
0.00856462
0.00857197
0.00858193
0.00859152
0.00860229
0.00861778
0.00863553
0.00866056
0.00868446
0.00871723
0.00875868
0.00879463
0.00885303
0.00887578
0.00891332
0.00893778
0.00894632
0.00895417
0.00895054
0.00894565
0.00893569
0.00892859
0.00891816
0.00890961
0.00889948
0.00888995
0.00888161
0.00887164
0.00886258
0.0088536
0.00884578
0.00883692
0.00882772
0.00881857
0.00880888
0.00879902
0.00878897
0.00877759
0.00876776
0.00875577
0.00874416
0.00873096
0.00871871
0.00870314
0.00867337
0.00867197
0.00855322
0.00848296
0.00800252
0.00763365
0.00854841
0.0085523
0.0085582
0.00856504
0.00857388
0.00858625
0.00859963
0.00860747
0.00862372
0.00864237
0.00865749
0.00867503
0.00868519
0.00873518
0.00872588
0.00884815
0.00881891
0.00890648
0.00889535
0.00893137
0.00893702
0.00893861
0.00893464
0.00892948
0.00892078
0.00891363
0.00891013
0.00889942
0.00889225
0.00888365
0.00887666
0.00886819
0.00885957
0.00885189
0.0088451
0.00883624
0.00882833
0.0088195
0.00881117
0.00880115
0.00879322
0.00878185
0.00877432
0.00876067
0.0087504
0.00873266
0.00872268
0.00869622
0.00865602
0.00859916
0.00822634
0.00750853
0.00663442
0.00620891
0.00855046
0.00855712
0.00856465
0.00857617
0.008585
0.0086029
0.00862044
0.00862699
0.00864601
0.00865777
0.00865198
0.00863287
0.00860191
0.00862159
0.00861305
0.00873272
0.00880883
0.00886237
0.00890125
0.008924
0.00893213
0.00893101
0.00892434
0.00891876
0.0089099
0.00890423
0.00889775
0.00889336
0.00888565
0.00887884
0.00887171
0.0088644
0.00885705
0.00885013
0.00884343
0.00883643
0.00882835
0.008821
0.00881377
0.00880466
0.00879818
0.00878778
0.00877947
0.00876444
0.00875257
0.00873235
0.00871798
0.00865437
0.00856696
0.00807023
0.00714026
0.00545935
0.0050465
0.00482556
0.0085563
0.00856386
0.00857785
0.00858845
0.00860268
0.00861937
0.00863667
0.00863344
0.00864952
0.0085744
0.00844264
0.00817723
0.00791629
0.00784073
0.00788226
0.00813328
0.00849553
0.00872235
0.00882313
0.0088826
0.00890144
0.0089052
0.00890198
0.00889987
0.00889367
0.00889071
0.00888974
0.00888262
0.00887771
0.00887359
0.00886787
0.0088618
0.0088537
0.00884787
0.00884226
0.00883598
0.00882942
0.00882286
0.0088171
0.008809
0.00880394
0.008794
0.00878155
0.00876525
0.00874984
0.00872088
0.00867527
0.0084924
0.00804581
0.00665918
0.00501584
0.00456788
0.00446459
0.00435896
0.0085634
0.00857455
0.00858887
0.00860388
0.00862927
0.00863227
0.00864002
0.00857519
0.0085433
0.00800007
0.00709721
0.00646998
0.00592287
0.00561389
0.00563947
0.00599112
0.00682244
0.00800864
0.00859287
0.0088091
0.00887742
0.00888593
0.0088805
0.00887864
0.00887599
0.00887542
0.00887668
0.0088779
0.00887439
0.00886888
0.00886342
0.00885778
0.00885152
0.00884649
0.00884162
0.00883599
0.00883053
0.00882549
0.00882132
0.00881488
0.0088089
0.00879649
0.00877857
0.00875685
0.00872819
0.00865843
0.00848705
0.00794766
0.00639209
0.0048774
0.00440215
0.00433121
0.00429491
0.00427498
0.00857204
0.00858373
0.00860723
0.00862679
0.00864271
0.0086195
0.00853909
0.00831541
0.00745135
0.00587439
0.00498569
0.00475955
0.004609
0.00453052
0.00456468
0.00460258
0.00504516
0.00598143
0.00748948
0.00840066
0.00874906
0.0088584
0.00887164
0.0088671
0.00886574
0.00886839
0.00886899
0.00886672
0.00886413
0.00886345
0.00886045
0.00885301
0.00884828
0.00884441
0.00883996
0.00883656
0.00883221
0.00882958
0.00882623
0.00881939
0.00881086
0.00879464
0.00875956
0.00871938
0.00863742
0.00843675
0.00784126
0.00630517
0.00474129
0.0043684
0.00430728
0.0042823
0.00427087
0.004266
0.00858106
0.00860157
0.00862352
0.00863369
0.00862117
0.00842636
0.00803988
0.00662004
0.00514438
0.00458758
0.004428
0.00441344
0.00441651
0.00443779
0.00449227
0.00462799
0.00491397
0.00571686
0.00706331
0.00805783
0.00858415
0.00877633
0.00883667
0.00884391
0.00884832
0.00885576
0.00886304
0.00886402
0.00886237
0.00885837
0.00885546
0.00884989
0.00884526
0.00884239
0.00884021
0.0088367
0.00883568
0.00883384
0.00883032
0.00882112
0.00880686
0.00877234
0.00868507
0.00858227
0.00833938
0.00768851
0.00607982
0.00471094
0.00435566
0.00430457
0.00428707
0.00427313
0.00426788
0.00426606
0.00859409
0.00861156
0.00861638
0.00859227
0.00824294
0.00745257
0.00564309
0.00456962
0.00442321
0.004407
0.00440883
0.00441302
0.00441756
0.00444873
0.00452789
0.00474638
0.00522892
0.00618628
0.00727063
0.00812317
0.00859614
0.00876728
0.00881928
0.00883895
0.00883927
0.00884519
0.00885284
0.00885445
0.00885483
0.00885451
0.00885063
0.0088464
0.00884202
0.00884122
0.00883897
0.00883861
0.00883839
0.00883707
0.00883206
0.00881813
0.00878142
0.00866384
0.00842988
0.00815983
0.00741262
0.00576047
0.00463847
0.00435055
0.00430313
0.00428841
0.00427696
0.00427113
0.00426955
0.00426973
0.0085912
0.00858366
0.00849923
0.00825496
0.00625599
0.00465198
0.00444801
0.00441248
0.00440992
0.00442053
0.00442305
0.00442276
0.00442636
0.00445404
0.00454543
0.00481392
0.00547214
0.00698008
0.00773667
0.0082967
0.0086409
0.008775
0.00881471
0.0088279
0.00883228
0.0088409
0.00885012
0.0088518
0.00885149
0.00884809
0.00884618
0.00884139
0.0088395
0.00883885
0.00883883
0.00884016
0.00884102
0.00883847
0.00882777
0.00879021
0.00865157
0.00824305
0.00774036
0.00697561
0.0053734
0.00454122
0.00434127
0.00430073
0.00428767
0.00427817
0.00426968
0.00426679
0.00426842
0.00427228
0.0085097
0.00844737
0.00695744
0.00476025
0.00454438
0.00442301
0.00440622
0.00441082
0.00441823
0.00442612
0.00442763
0.00442709
0.0044297
0.00445562
0.0045458
0.00481895
0.00553441
0.0070041
0.0081667
0.00850386
0.00870602
0.00879052
0.00881436
0.00882263
0.00882916
0.00883867
0.0088458
0.00884573
0.00884542
0.00884485
0.00884131
0.0088374
0.00883754
0.00883683
0.00883927
0.00884092
0.00884156
0.00883645
0.00880427
0.00864498
0.00809898
0.00710046
0.00619313
0.0050181
0.00445345
0.00433481
0.00429936
0.00428653
0.00427778
0.00426857
0.0042657
0.00426545
0.00427106
0.0042777
0.00666066
0.00552705
0.00473417
0.00443722
0.00440289
0.00439514
0.00440593
0.00441676
0.00442373
0.00442867
0.00442936
0.00442796
0.00442962
0.00444473
0.0045034
0.00469567
0.00526212
0.00666723
0.00821696
0.00860791
0.00874692
0.00880281
0.00881519
0.00881995
0.00882294
0.00883393
0.00884121
0.00883917
0.00884202
0.00883856
0.00883586
0.00883374
0.00883311
0.00883553
0.00883766
0.00884174
0.00883911
0.0088176
0.00867313
0.007991
0.00653607
0.00529767
0.00469519
0.00441425
0.00433735
0.00429822
0.00428639
0.00427495
0.0042661
0.00426226
0.00426058
0.0042665
0.00427388
0.00428455
0.00487965
0.00455147
0.00441474
0.00438245
0.00438934
0.00439682
0.00441071
0.0044185
0.00442614
0.00442925
0.00442916
0.00442651
0.00442623
0.00443751
0.00448429
0.00461933
0.00498569
0.00586286
0.00774759
0.00860589
0.00875356
0.00880578
0.00881833
0.00881998
0.0088232
0.00883362
0.00883921
0.00883618
0.00883675
0.00883475
0.00883086
0.00882644
0.00882969
0.00883249
0.00883588
0.0088369
0.00882688
0.00871087
0.00804533
0.00623572
0.00492202
0.00451292
0.00440539
0.00432961
0.00430477
0.00428459
0.00427337
0.00426378
0.00425711
0.00425623
0.004259
0.00426702
0.0042784
0.00429138
0.0044423
0.00438288
0.00437329
0.00437463
0.00439191
0.00439995
0.00441254
0.00442017
0.004426
0.00442808
0.00442729
0.00442468
0.00442433
0.00443465
0.00447419
0.00458541
0.00486829
0.00547879
0.00671702
0.00833086
0.00873477
0.00880245
0.0088171
0.00882
0.00882511
0.00883283
0.0088348
0.0088299
0.00883142
0.00882704
0.00882443
0.00882338
0.00882429
0.00882766
0.00883122
0.00882549
0.00875352
0.00825969
0.00655072
0.00494369
0.00448373
0.00439114
0.00433296
0.00431075
0.0042868
0.00427422
0.00425967
0.00425245
0.00425154
0.00425046
0.00425918
0.00426923
0.00428314
0.0042992
0.0043581
0.00435678
0.00436437
0.00437693
0.00439232
0.00440123
0.00441235
0.00441973
0.00442428
0.00442562
0.00442414
0.00442228
0.00442284
0.00443207
0.00446592
0.00456438
0.00481688
0.0053563
0.00640061
0.00798657
0.00871051
0.00877707
0.00881803
0.00882002
0.00882606
0.00882962
0.0088293
0.0088267
0.00882802
0.00882145
0.00881793
0.00881649
0.00881912
0.00882128
0.00881988
0.00879031
0.00855763
0.0075359
0.00552934
0.00461198
0.00439176
0.0043485
0.00430911
0.00429609
0.00427452
0.00425935
0.00424907
0.00424437
0.00424349
0.00424914
0.00425939
0.00427255
0.0042889
0.00430588
0.00434253
0.00435509
0.00436348
0.0043775
0.00439075
0.00440089
0.00441055
0.00441737
0.00442132
0.00442228
0.00442038
0.0044188
0.0044186
0.00442385
0.00444659
0.00450837
0.00466788
0.00503564
0.00584195
0.00736519
0.00848755
0.00879263
0.00879774
0.00882308
0.00882546
0.00882765
0.00882616
0.00882108
0.00882038
0.00881575
0.00881166
0.00881073
0.00880997
0.00881146
0.00880594
0.00875172
0.00845444
0.00734895
0.00540791
0.0045694
0.00436676
0.00432747
0.00429463
0.00428175
0.00425954
0.00424676
0.00423978
0.00423732
0.0042392
0.00424888
0.00426022
0.00427703
0.00429376
0.00431376
0.00434178
0.00435234
0.00436414
0.00437596
0.00438886
0.00439858
0.00440732
0.00441412
0.00441753
0.00441835
0.00441811
0.00441726
0.00441769
0.00442148
0.004439
0.00448512
0.0045976
0.00485163
0.00539288
0.00646856
0.00809592
0.00867953
0.0088
0.00881162
0.00882394
0.00882437
0.00882124
0.00881717
0.00881529
0.00880815
0.00880311
0.00880133
0.00880128
0.00879586
0.00875946
0.00860703
0.00808904
0.0067733
0.00506668
0.0044728
0.00434361
0.00430097
0.00428644
0.00426126
0.00424789
0.00423695
0.00423116
0.00423235
0.00423643
0.00424936
0.00426312
0.0042804
0.00430078
0.00431972
0.00433997
0.00435031
0.00436258
0.00437354
0.00438546
0.00439475
0.00440326
0.00441007
0.00441387
0.00441512
0.00441532
0.00441664
0.00441735
0.00442094
0.00443531
0.00447095
0.00454862
0.0047202
0.00508163
0.00580137
0.00709884
0.00848513
0.00873738
0.0087998
0.00881213
0.00881911
0.0088163
0.00881099
0.00880775
0.00880104
0.00879447
0.00879032
0.00877908
0.0087229
0.0085322
0.00804091
0.00691846
0.00515446
0.00463943
0.00435334
0.00432878
0.00427883
0.00427188
0.00424684
0.00423571
0.00422625
0.00422253
0.0042308
0.00423425
0.0042513
0.00426553
0.00428638
0.00430546
0.00432672
0.00433789
0.00434719
0.00435919
0.00436984
0.00438062
0.00438997
0.0043985
0.00440544
0.0044099
0.00441284
0.00441481
0.00441778
0.00441958
0.00442457
0.00443809
0.00446645
0.00452828
0.00466115
0.0049316
0.0054516
0.00637021
0.00776315
0.00871302
0.00874249
0.00879923
0.00881028
0.00881092
0.00880555
0.00880058
0.00879125
0.00877796
0.00875395
0.00865277
0.00835499
0.00762768
0.00615565
0.00503155
0.00461867
0.00439284
0.00433262
0.00428385
0.00427568
0.00425123
0.00423283
0.0042247
0.00421922
0.00421703
0.00422888
0.00423413
0.00425378
0.00426973
0.00429072
0.00431117
0.00433308
0.00433505
0.00434379
0.00435464
0.00436474
0.00437481
0.00438449
0.00439328
0.004401
0.00440679
0.00441116
0.00441574
0.00441993
0.0044228
0.0044273
0.0044392
0.00446086
0.00450659
0.00460595
0.00480798
0.00520649
0.00592809
0.00711999
0.00829776
0.00877582
0.00874946
0.00879526
0.00880099
0.00879601
0.00878498
0.00876555
0.00871577
0.00855485
0.00809386
0.00692745
0.00557726
0.00480448
0.00458805
0.00438654
0.00434698
0.00428498
0.00428135
0.0042512
0.00423699
0.0042212
0.00421584
0.00421337
0.00421239
0.00422831
0.00423592
0.00425598
0.00427399
0.00429563
0.00431692
0.00433913
0.00433135
0.00433918
0.00434909
0.00435832
0.0043683
0.00437842
0.00438831
0.00439707
0.00440415
0.00441096
0.00441773
0.00442302
0.00442681
0.00443198
0.00444167
0.00445985
0.00449891
0.00458243
0.00474581
0.00505745
0.00561785
0.00654055
0.00786004
0.0085561
0.00874977
0.00874725
0.0087764
0.0087789
0.00874914
0.00867131
0.00842821
0.00775762
0.00620109
0.00522676
0.00463731
0.00454195
0.0043727
0.00434786
0.0042861
0.00428508
0.00424972
0.00424046
0.00421984
0.00421229
0.00420888
0.0042082
0.00421197
0.0042271
0.00423879
0.00425912
0.00427862
0.00430033
0.00432226
0.00434482
0.00432708
0.00433375
0.0043426
0.00435128
0.00436179
0.0043726
0.00438351
0.00439313
0.00440265
0.00441142
0.00442046
0.00442719
0.00443071
0.00443478
0.0044391
0.00444758
0.00446775
0.00451992
0.00463859
0.00487701
0.00532078
0.00606156
0.00714754
0.00832132
0.00862219
0.00870769
0.00871552
0.0086998
0.00859264
0.00826173
0.00736873
0.00571619
0.00498568
0.00455411
0.00447671
0.00436301
0.00433304
0.00428905
0.00427774
0.00425576
0.00423946
0.00422255
0.00420907
0.00420406
0.00420314
0.00420399
0.00421317
0.00422686
0.00424234
0.00426259
0.00428353
0.00430662
0.00432818
0.00435017
0.0043223
0.00432773
0.00433566
0.00434447
0.00435538
0.00436701
0.00437879
0.00439055
0.0044011
0.00441203
0.00442226
0.00442986
0.00443353
0.00443665
0.00444021
0.00444418
0.00445601
0.00448661
0.00456531
0.00473186
0.00505203
0.00562818
0.00652803
0.00763698
0.00870382
0.0084447
0.00857137
0.00846513
0.00804081
0.00683337
0.00548735
0.0046777
0.00459021
0.00439461
0.00439211
0.00430855
0.00430831
0.00426603
0.00426638
0.00423203
0.00422639
0.00420899
0.00420045
0.00419738
0.00419901
0.0042024
0.00421458
0.00422806
0.0042463
0.00426667
0.00428866
0.00431012
0.00433365
0.00435385
0.00431745
0.0043221
0.00432926
0.00433837
0.00434934
0.00436197
0.00437497
0.00438743
0.00440022
0.00441281
0.00442385
0.00443008
0.00443501
0.00443546
0.004436
0.00443168
0.0044311
0.00443677
0.00446162
0.00453712
0.00470906
0.005046
0.00565194
0.00660752
0.00739262
0.00795195
0.00778184
0.00739979
0.00614739
0.00519306
0.00457677
0.0045437
0.00437612
0.00436817
0.00430412
0.00430689
0.00426482
0.00425824
0.00424124
0.00422385
0.00420936
0.00419999
0.00419456
0.00419241
0.0041966
0.00420259
0.00421615
0.004231
0.00425046
0.00427102
0.00429305
0.00431595
0.0043373
0.00435893
0.00431306
0.00431684
0.00432379
0.0043329
0.00434459
0.00435757
0.00437106
0.00438471
0.00439854
0.00441159
0.00442269
0.00443014
0.00443217
0.00443391
0.00443196
0.00442602
0.00441773
0.00441434
0.00441389
0.0044257
0.00446853
0.00456118
0.00474216
0.00505421
0.0054714
0.00558622
0.00563438
0.00542813
0.00490787
0.00446501
0.00445266
0.00434793
0.00434557
0.00430099
0.00429459
0.00426469
0.0042604
0.00423702
0.0042283
0.0042074
0.00420047
0.00419276
0.00418989
0.00419006
0.00419556
0.00420415
0.00421819
0.00423442
0.00425391
0.00427468
0.00429749
0.00432052
0.00434032
0.00436112
0.00430988
0.00431309
0.00431983
0.00432894
0.00434061
0.00435363
0.00436719
0.00438153
0.00439543
0.00440848
0.00441829
0.00442479
0.004426
0.00442703
0.00442289
0.00441599
0.00440736
0.00439726
0.00439055
0.00438854
0.00439019
0.00440788
0.00444249
0.00450941
0.00460436
0.00463953
0.0046574
0.00459981
0.00445812
0.00434104
0.00435143
0.0043086
0.00431016
0.00427774
0.00427715
0.00424664
0.00424387
0.00422238
0.00421269
0.00419986
0.00419291
0.00418815
0.00418687
0.00418968
0.00419589
0.00420678
0.00422132
0.00423791
0.00425886
0.00427996
0.00430157
0.00432379
0.00434402
0.00436088
0.00430823
0.00431118
0.00431726
0.00432609
0.00433742
0.00434968
0.00436351
0.00437696
0.00439024
0.00440213
0.00441135
0.00441449
0.00441605
0.00441531
0.00441005
0.00440247
0.00439368
0.00438469
0.00437704
0.0043704
0.00436817
0.00436805
0.00437102
0.00437841
0.00439359
0.00439626
0.00439839
0.00437782
0.00433836
0.00431003
0.00430428
0.0042916
0.00428255
0.00426425
0.00425468
0.00423492
0.00422679
0.00421237
0.00420098
0.00419346
0.00418754
0.00418485
0.00418675
0.00419003
0.00419766
0.00421041
0.0042244
0.0042429
0.00426319
0.00428376
0.00430522
0.00432575
0.00434484
0.00435892
0.00430825
0.00431066
0.00431628
0.00432445
0.00433448
0.00434624
0.00435822
0.00437073
0.00438253
0.00439282
0.0043992
0.00440105
0.00440175
0.0043989
0.00439317
0.00438628
0.00437737
0.00436942
0.00436227
0.00435625
0.00435297
0.00434997
0.00434594
0.00434318
0.00434222
0.00433811
0.00433251
0.00432213
0.00430693
0.00429399
0.00428471
0.00427551
0.00426321
0.00424973
0.00423685
0.00422357
0.00421517
0.00420228
0.00419441
0.00418893
0.0041851
0.00418422
0.00418828
0.00419163
0.00420205
0.00421401
0.0042289
0.00424709
0.00426677
0.00428672
0.00430774
0.00432542
0.00434306
0.00435321
0.00430966
0.0043117
0.00431641
0.00432315
0.00433215
0.0043418
0.00435214
0.00436224
0.00437218
0.00438047
0.00438348
0.00438467
0.00438372
0.00438023
0.0043745
0.00436756
0.00436019
0.00435305
0.00434718
0.00434223
0.00433857
0.00433514
0.00433008
0.00432717
0.0043225
0.00431668
0.00430936
0.00430006
0.00428897
0.00427804
0.00426831
0.00425862
0.0042471
0.00423527
0.00422423
0.00421446
0.0042065
0.00419631
0.0041904
0.00418726
0.00418565
0.00418548
0.00419147
0.00419579
0.00420716
0.00421888
0.00423452
0.00425239
0.00427
0.00428879
0.00430822
0.00432457
0.00433687
0.00434424
0.00431238
0.00431345
0.00431701
0.00432234
0.00432925
0.00433656
0.0043446
0.00435261
0.00435957
0.00436475
0.00436596
0.00436632
0.00436393
0.00436049
0.00435503
0.00434874
0.00434276
0.00433703
0.0043323
0.00432804
0.00432449
0.00432009
0.00431621
0.00431243
0.00430708
0.00430102
0.00429361
0.00428476
0.00427443
0.00426408
0.00425422
0.00424487
0.00423414
0.0042235
0.00421463
0.00420736
0.00419982
0.0041936
0.00419011
0.00418829
0.00418813
0.00419008
0.00419663
0.00420227
0.00421295
0.00422475
0.00423931
0.00425615
0.00427381
0.00429195