/*--------------------------------*- C++ -*----------------------------------*\
  =========                 |
  \\      /  F ield         | OpenFOAM: The Open Source CFD Toolbox
   \\    /   O peration     | Website:  https://openfoam.org
    \\  /    A nd           | Version:  10
     \\/     M anipulation  |
\*---------------------------------------------------------------------------*/
FoamFile
{
    format      ascii;
    class       volScalarField;
    location    "0.048781";
    object      rho;
}
// * * * * * * * * * * * * * * * * * * * * * * * * * * * * * * * * * * * * * //

dimensions      [1 -3 0 0 0 0 0];

internalField   nonuniform List<scalar> 
15984
(
0.999962
0.999967
0.999973
0.999981
0.999988
0.999996
1
1.00001
1.00002
1.00002
1.00003
1.00003
1.00003
1.00003
1.00002
1.00002
1.00001
1.00001
1
0.999997
0.999992
0.999988
0.999984
0.999982
0.999981
0.99998
0.99998
0.999981
0.999982
0.999984
0.999986
0.999988
0.99999
0.999992
0.999994
0.999997
0.999999
1
1
1.00001
1.00001
1.00001
1.00002
1.00002
1.00003
1.00003
1.00004
1.00005
1.00005
1.00006
1.00007
1.00007
1.00007
1.00008
0.999988
0.999994
1
1.00001
1.00002
1.00003
1.00004
1.00004
1.00005
1.00005
1.00006
1.00006
1.00005
1.00005
1.00004
1.00003
1.00002
1.00001
1
0.999993
0.999984
0.999977
0.999971
0.999967
0.999965
0.999964
0.999965
0.999966
0.999969
0.999972
0.999975
0.999978
0.999982
0.999985
0.999989
0.999992
0.999995
0.999999
1
1.00001
1.00001
1.00002
1.00002
1.00003
1.00004
1.00005
1.00006
1.00008
1.00009
1.0001
1.00012
1.00013
1.00013
1.00014
1.00001
1.00002
1.00003
1.00004
1.00006
1.00007
1.00008
1.00009
1.0001
1.00011
1.00011
1.00011
1.0001
1.00009
1.00007
1.00006
1.00004
1.00002
1
0.999984
0.999969
0.999957
0.999947
0.999941
0.999938
0.999937
0.999938
0.999942
0.999946
0.999951
0.999957
0.999963
0.999969
0.999975
0.99998
0.999986
0.999991
0.999997
1
1.00001
1.00002
1.00003
1.00004
1.00006
1.00007
1.00009
1.00011
1.00014
1.00016
1.00019
1.00021
1.00022
1.00024
1.00024
1.00004
1.00005
1.00007
1.00009
1.00011
1.00013
1.00015
1.00017
1.00018
1.00019
1.00019
1.00019
1.00017
1.00015
1.00012
1.00009
1.00006
1.00003
0.999994
0.999965
0.99994
0.99992
0.999905
0.999896
0.999891
0.999891
0.999894
0.9999
0.999909
0.999918
0.999928
0.999938
0.999948
0.999958
0.999967
0.999976
0.999986
0.999995
1.00001
1.00002
1.00003
1.00005
1.00007
1.0001
1.00013
1.00017
1.0002
1.00025
1.00029
1.00033
1.00036
1.00039
1.00041
1.00042
1.00008
1.00011
1.00014
1.00017
1.00021
1.00025
1.00028
1.0003
1.00032
1.00033
1.00033
1.00032
1.00029
1.00025
1.0002
1.00015
1.00009
1.00003
0.999976
0.999927
0.999887
0.999855
0.999832
0.999819
0.999813
0.999814
0.999822
0.999833
0.999848
0.999864
0.999882
0.999899
0.999916
0.999932
0.999947
0.999963
0.999978
0.999995
1.00001
1.00004
1.00006
1.00009
1.00013
1.00018
1.00023
1.00029
1.00036
1.00043
1.0005
1.00057
1.00063
1.00067
1.0007
1.00071
1.00015
1.0002
1.00025
1.00031
1.00037
1.00043
1.00048
1.00053
1.00055
1.00056
1.00055
1.00052
1.00047
1.0004
1.00031
1.00022
1.00012
1.00002
0.999936
0.999858
0.999793
0.999744
0.99971
0.999691
0.999685
0.99969
0.999704
0.999725
0.999751
0.999779
0.999808
0.999837
0.999865
0.999891
0.999917
0.999943
0.999969
0.999997
1.00003
1.00007
1.00011
1.00017
1.00024
1.00032
1.00041
1.00052
1.00063
1.00075
1.00087
1.00098
1.00107
1.00113
1.00117
1.00117
1.00027
1.00035
1.00045
1.00055
1.00065
1.00074
1.00083
1.00089
1.00093
1.00094
1.00091
1.00085
1.00075
1.00062
1.00048
1.00032
1.00015
0.999998
0.999855
0.999732
0.999632
0.999558
0.999509
0.999483
0.999479
0.999491
0.999518
0.999555
0.999599
0.999646
0.999694
0.999741
0.999787
0.99983
0.999872
0.999914
0.999957
1
1.00006
1.00012
1.0002
1.0003
1.00042
1.00055
1.00072
1.0009
1.00109
1.00129
1.00148
1.00165
1.00179
1.00188
1.00192
1.00191
1.00047
1.00061
1.00077
1.00093
1.0011
1.00125
1.00138
1.00148
1.00153
1.00152
1.00147
1.00134
1.00117
1.00095
1.0007
1.00044
1.00018
0.999927
0.999703
0.999514
0.999363
0.999254
0.999185
0.999154
0.999154
0.999182
0.99923
0.999294
0.999366
0.999443
0.99952
0.999596
0.999669
0.999738
0.999806
0.999874
0.999945
1.00002
1.00011
1.00022
1.00036
1.00052
1.00072
1.00096
1.00123
1.00153
1.00184
1.00216
1.00246
1.00272
1.00292
1.00305
1.00308
1.00303
1.0008
1.00104
1.0013
1.00157
1.00183
1.00207
1.00227
1.0024
1.00245
1.00242
1.00231
1.00207
1.00177
1.0014
1.001
1.00057
1.00016
0.999773
0.999433
0.999148
0.998927
0.998772
0.998681
0.998643
0.998657
0.99871
0.998794
0.998899
0.999016
0.999138
0.999261
0.99938
0.999495
0.999605
0.999712
0.999821
0.999936
1.00006
1.00022
1.0004
1.00063
1.0009
1.00124
1.00163
1.00207
1.00256
1.00307
1.00356
1.00402
1.00441
1.00468
1.00483
1.00483
1.0047
1.00134
1.00174
1.00216
1.00259
1.003
1.00336
1.00364
1.00381
1.00385
1.00376
1.00351
1.00311
1.0026
1.002
1.00135
1.0007
1.00006
0.999477
0.998971
0.998557
0.998242
0.99803
0.99791
0.997875
0.997911
0.998008
0.998147
0.998315
0.9985
0.998691
0.998882
0.999066
0.999243
0.999414
0.999582
0.999754
0.999939
1.00015
1.0004
1.0007
1.00108
1.00154
1.00208
1.00272
1.00344
1.00421
1.005
1.00575
1.00642
1.00696
1.00731
1.00745
1.00739
1.00708
1.00222
1.00285
1.00351
1.00417
1.00478
1.00531
1.00568
1.00587
1.00587
1.00566
1.00519
1.0045
1.00368
1.00274
1.00174
1.00075
0.999803
0.99895
0.998221
0.997634
0.9972
0.996916
0.996769
0.996746
0.996823
0.996987
0.997211
0.997474
0.997758
0.99805
0.998339
0.998619
0.998888
0.999148
0.999407
0.999676
0.999969
1.00031
1.00071
1.00121
1.00182
1.00257
1.00345
1.00447
1.00559
1.00678
1.00796
1.00906
1.01
1.0107
1.0111
1.01118
1.01092
1.01037
1.00359
1.00457
1.00558
1.00656
1.00745
1.00816
1.00863
1.00881
1.0087
1.00824
1.00741
1.00631
1.00501
1.00358
1.0021
1.00065
0.999277
0.998069
0.997049
0.996245
0.995663
0.995297
0.995126
0.995131
0.995277
0.995543
0.995889
0.996288
0.996715
0.99715
0.997579
0.997995
0.998396
0.998787
0.999181
0.999596
1.00006
1.00059
1.00124
1.00204
1.00302
1.00421
1.0056
1.00718
1.00889
1.01066
1.01236
1.01389
1.01512
1.01596
1.01633
1.01623
1.0157
1.01455
1.00568
1.00716
1.00865
1.01005
1.01127
1.01218
1.0127
1.01279
1.01241
1.0116
1.01018
1.00848
1.00653
1.00443
1.0023
1.00024
0.998336
0.996676
0.995296
0.994225
0.99347
0.993013
0.992829
0.992886
0.993139
0.993548
0.994068
0.994656
0.995281
0.995914
0.996538
0.997144
0.997731
0.998311
0.998902
0.999536
1.00025
1.00109
1.00212
1.00338
1.00492
1.00676
1.0089
1.01127
1.01379
1.0163
1.01864
1.02064
1.02214
1.02299
1.02319
1.02276
1.02157
1.01981
1.00877
1.01091
1.01302
1.01493
1.0165
1.01757
1.01803
1.01789
1.01716
1.01554
1.01346
1.01089
1.00807
1.00511
1.00217
0.999358
0.996794
0.994587
0.992779
0.991399
0.990445
0.989902
0.989713
0.989852
0.990258
0.990865
0.991621
0.992463
0.993354
0.994256
0.995144
0.99601
0.996856
0.997701
0.998579
0.999532
1.00062
1.00193
1.00352
1.00548
1.00784
1.01063
1.01381
1.01725
1.02079
1.02418
1.0272
1.02961
1.03121
1.0319
1.03171
1.03062
1.02863
1.02574
1.01317
1.01615
1.01897
1.02143
1.02329
1.02438
1.02464
1.02406
1.02251
1.02009
1.0169
1.01329
1.00939
1.00537
1.00147
0.997746
0.994439
0.991608
0.989308
0.987593
0.986424
0.985778
0.985617
0.985875
0.986478
0.987351
0.988412
0.98959
0.990826
0.992081
0.993319
0.994534
0.995735
0.99695
0.998235
0.999655
1.0013
1.00329
1.00572
1.00868
1.01221
1.01631
1.02085
1.02562
1.03032
1.03464
1.03823
1.04084
1.04226
1.0425
1.0416
1.03952
1.03615
1.0322
1.01914
1.02308
1.02667
1.02957
1.03157
1.03245
1.03224
1.0309
1.02827
1.02466
1.02019
1.01526
1.01011
1.00489
0.999903
0.995184
0.991056
0.987546
0.984732
0.982639
0.981245
0.98051
0.980403
0.980799
0.981664
0.982865
0.984312
0.985911
0.987587
0.989294
0.990985
0.992661
0.994337
0.996064
0.997922
1.00001
1.00246
1.00543
1.00905
1.01341
1.01854
1.02432
1.03052
1.03678
1.04264
1.04773
1.05159
1.054
1.05484
1.0543
1.05219
1.04858
1.044
1.03842
1.02686
1.03175
1.03598
1.03914
1.04094
1.04134
1.04033
1.03784
1.03376
1.0286
1.02274
1.01636
1.0098
1.00332
0.997178
0.991439
0.986462
0.982272
0.978931
0.976443
0.974818
0.973995
0.973948
0.974528
0.975691
0.977286
0.9792
0.981315
0.983531
0.985805
0.988072
0.990344
0.992652
0.995076
0.997726
1.00076
1.00435
1.0087
1.01396
1.02019
1.02733
1.03512
1.04314
1.05082
1.05766
1.06301
1.06671
1.06837
1.06826
1.06626
1.06269
1.05744
1.05096
1.04392
1.03623
1.04191
1.04649
1.04954
1.05073
1.05031
1.04802
1.0439
1.03822
1.03155
1.02391
1.01601
1.00804
1.00031
0.993002
0.986326
0.980567
0.975723
0.971867
0.968988
0.967111
0.966204
0.96621
0.966983
0.968484
0.970521
0.97298
0.975705
0.978571
0.981533
0.984522
0.987556
0.990691
0.994054
0.997785
1.00213
1.00729
1.01351
1.02092
1.0295
1.039
1.04895
1.05869
1.06746
1.07463
1.07982
1.0825
1.08307
1.08142
1.07764
1.07195
1.06474
1.05677
1.04808
1.04684
1.05295
1.05747
1.0598
1.06014
1.05829
1.05446
1.04854
1.04091
1.03237
1.02315
1.01381
1.00439
0.99558
0.987204
0.979753
0.973333
0.967956
0.963601
0.960373
0.958208
0.957175
0.957197
0.958156
0.960003
0.962529
0.965588
0.969011
0.972641
0.976426
0.980301
0.984297
0.988509
0.993107
0.998306
1.0044
1.01166
1.02031
1.03039
1.04169
1.05368
1.06567
1.07658
1.08589
1.09272
1.09676
1.09806
1.09699
1.09319
1.0869
1.07994
1.07044
1.06054
1.05033
1.05804
1.06398
1.06777
1.06914
1.06815
1.06449
1.05865
1.05053
1.04143
1.03103
1.02026
1.00947
0.998672
0.989023
0.97972
0.971715
0.964854
0.95905
0.954347
0.950714
0.948266
0.947045
0.947038
0.948116
0.950287
0.953305
0.957009
0.961196
0.965709
0.970463
0.975406
0.98061
0.98621
0.992411
0.999565
1.00796
1.0179
1.02952
1.04266
1.05679
1.07114
1.08446
1.09609
1.10482
1.11053
1.11283
1.11241
1.10888
1.10284
1.09496
1.0847
1.07362
1.06232
1.0508
1.06876
1.07394
1.0766
1.07657
1.07371
1.06787
1.06065
1.05043
1.03905
1.02706
1.01479
1.00279
0.99072
0.980508
0.970544
0.962266
0.955246
0.949268
0.944249
0.940303
0.937524
0.93603
0.935893
0.937017
0.939427
0.942901
0.947272
0.952278
0.957778
0.963656
0.969893
0.976587
0.983945
0.992225
1.00189
1.01318
1.02637
1.04138
1.05771
1.07451
1.09042
1.10456
1.1156
1.1232
1.12688
1.12738
1.1243
1.11879
1.11035
1.09944
1.08803
1.07522
1.06153
1.04925
1.07813
1.08198
1.08316
1.08123
1.07685
1.06912
1.05928
1.04714
1.03483
1.02054
1.00714
0.993876
0.980658
0.970007
0.959621
0.951472
0.944637
0.938723
0.933587
0.929376
0.926276
0.924386
0.92404
0.925039
0.927585
0.931432
0.936464
0.942318
0.94891
0.956074
0.96386
0.972397
0.981919
0.992875
1.00562
1.02041
1.03729
1.05583
1.07515
1.09381
1.11064
1.12437
1.13409
1.13969
1.14139
1.1391
1.13446
1.12567
1.11567
1.10329
1.08867
1.07469
1.05894
1.04625
1.08518
1.0875
1.08704
1.08377
1.07687
1.06709
1.05647
1.04282
1.02755
1.01139
0.997199
0.983043
0.968441
0.957293
0.946827
0.939259
0.933052
0.927588
0.922594
0.918279
0.914763
0.912503
0.911729
0.91245
0.915008
0.919073
0.924718
0.93143
0.939219
0.947852
0.95748
0.96823
0.980468
0.994653
1.01106
1.02984
1.05057
1.07244
1.09396
1.11367
1.13041
1.14261
1.15061
1.1539
1.15307
1.14908
1.14151
1.13039
1.12182
1.10132
1.08988
1.07805
1.0575
1.04625
1.08977
1.09038
1.08847
1.0835
1.07493
1.06607
1.05023
1.03581
1.02248
1.00068
0.988231
0.973588
0.955238
0.942075
0.930145
0.924231
0.919699
0.915175
0.910696
0.906776
0.903085
0.900581
0.899227
0.899541
0.901929
0.906097
0.91221
0.919805
0.928874
0.93921
0.950981
0.964398
0.979942
0.997899
1.01849
1.04139
1.0658
1.09023
1.11301
1.13295
1.14808
1.15889
1.16423
1.16558
1.16251
1.15616
1.14783
1.13464
1.12288
1.10345
1.10098
1.09867
1.07378
1.0711
1.09177
1.09118
1.08777
1.08203
1.07298
1.0614
1.04599
1.03267
1.02906
0.995939
0.987046
0.982138
0.956311
0.930668
0.919427
0.910549
0.906987
0.90412
0.900689
0.896025
0.89214
0.889017
0.886842
0.886804
0.88858
0.892793
0.899251
0.907693
0.918144
0.930411
0.944685
0.961272
0.980649
1.0028
1.02781
1.05467
1.08204
1.108
1.13132
1.14978
1.16367
1.17183
1.17544
1.17436
1.16945
1.16319
1.15107
1.13846
1.13179
1.10866
1.19103
1.19061
1.15065
1.29194
1.09155
1.09024
1.08656
1.07959
1.07126
1.0646
1.04214
1.07767
1.07601
1.04193
1.05266
1.172
1.14037
1.01561
0.916099
0.888647
0.882945
0.884008
0.883826
0.882987
0.88042
0.877139
0.874973
0.874213
0.875447
0.879532
0.886131
0.895495
0.907357
0.921838
0.93899
0.959254
0.982702
1.00948
1.03867
1.06885
1.09808
1.12488
1.14699
1.16427
1.17576
1.18203
1.18348
1.18152
1.17514
1.16699
1.15755
1.14947
1.14489
1.21016
1.57377
1.53719
1.32888
2.05793
1.08995
1.08849
1.08525
1.07744
1.08214
1.06814
1.08923
1.34348
1.34543
1.18468
1.51239
1.83753
1.72196
1.46573
1.0835
0.918949
0.877587
0.872983
0.871353
0.871599
0.869774
0.866748
0.863805
0.862151
0.863091
0.866507
0.873404
0.883605
0.897028
0.913945
0.934352
0.958582
0.986432
1.01761
1.05034
1.08278
1.11311
1.13908
1.16002
1.17516
1.18467
1.18936
1.18932
1.18598
1.18023
1.1744
1.16335
1.1707
1.23258
1.63861
2.16573
2.06322
2.06073
2.10415
1.08757
1.08763
1.08504
1.08127
1.12765
1.1282
1.30786
1.98735
1.89142
1.84871
1.90692
1.87442
1.80662
1.70031
1.44089
1.13974
0.91548
0.858147
0.851615
0.857669
0.856942
0.855543
0.853014
0.851425
0.851515
0.854498
0.861651
0.872586
0.887781
0.907241
0.931194
0.959395
0.991671
1.02647
1.06186
1.09561
1.12553
1.15036
1.16941
1.1827
1.19077
1.19439
1.19354
1.19118
1.18578
1.17855
1.1857
1.24976
1.60912
2.26285
2.22555
2.18762
2.17192
2.14535
1.0855
1.08937
1.09037
1.13251
1.3298
1.43854
2.0869
2.04091
1.99962
1.96893
1.94013
1.884
1.83248
1.76588
1.7033
1.54815
1.15862
0.910873
0.862861
0.848231
0.847655
0.846075
0.843788
0.841559
0.841503
0.844335
0.851369
0.863247
0.880238
0.902406
0.929835
0.961903
0.997872
1.03538
1.07228
1.10603
1.13482
1.15796
1.17529
1.18717
1.19416
1.19711
1.197
1.1939
1.18963
1.19927
1.26324
1.61769
2.30943
2.28695
2.25707
2.22374
2.19822
2.15904
1.08539
1.10713
1.11179
1.53267
2.04827
2.01607
2.09975
2.05865
2.02867
1.98832
1.94176
1.88865
1.83645
1.78386
1.73416
1.67926
1.53958
1.12777
0.875129
0.847539
0.840292
0.837903
0.835682
0.833853
0.833575
0.836193
0.843619
0.856589
0.875188
0.900006
0.930423
0.96595
1.00434
1.04351
1.08055
1.11319
1.14053
1.16202
1.17769
1.18858
1.19533
1.19828
1.19892
1.1997
1.21006
1.27794
1.64573
2.34926
2.33075
2.31016
2.28349
2.25336
2.21799
2.17214
1.09066
1.19913
1.66784
2.1159
2.12356
2.11965
2.11501
2.07922
2.04876
2.00068
1.94665
1.88734
1.82865
1.77963
1.73243
1.69728
1.65065
1.5164
1.09967
0.859748
0.836082
0.831501
0.829426
0.827744
0.82817
0.831279
0.839128
0.8532
0.873245
0.900203
0.933286
0.970692
1.0104
1.04985
1.08574
1.11715
1.14248
1.16228
1.17738
1.18782
1.19453
1.19884
1.20781
1.22216
1.29483
1.69827
2.37822
2.3679
2.35098
2.33365
2.307
2.27433
2.23057
2.17677
1.64436
1.9518
2.04127
2.16253
2.1546
2.14707
2.13447
2.09919
2.06152
2.00857
1.94665
1.88002
1.81547
1.76068
1.71832
1.68487
1.66387
1.62175
1.48363
1.04952
0.844583
0.826899
0.824457
0.824425
0.825596
0.829678
0.838531
0.853809
0.875069
0.903684
0.937758
0.976005
1.0156
1.05359
1.08808
1.11709
1.14102
1.15988
1.17427
1.18545
1.19197
1.20658
1.25285
1.32916
1.76101
2.38916
2.39971
2.38734
2.37608
2.355
2.32539
2.28464
2.23155
2.16919
2.02596
2.12361
2.15021
2.17729
2.17293
2.16558
2.1446
2.11248
2.06642
2.00802
1.9386
1.86772
1.80018
1.74281
1.70035
1.66823
1.65117
1.63855
1.5998
1.44617
0.97928
0.835115
0.821891
0.822728
0.825954
0.831709
0.842166
0.858709
0.880901
0.909517
0.94372
0.981215
1.01891
1.05489
1.08671
1.11405
1.13616
1.15464
1.16974
1.18168
1.18987
1.25799
1.48561
1.87718
2.39425
2.41752
2.41734
2.41129
2.39567
2.3702
2.33224
2.28083
2.21786
2.15085
2.13406
2.16656
2.18008
2.18874
2.18404
2.17381
2.14986
2.11312
2.06108
1.99781
1.92647
1.85527
1.78914
1.73264
1.68851
1.6572
1.63847
1.63292
1.63123
1.60254
1.48552
0.828232
0.82383
0.824598
0.8295
0.837739
0.850136
0.867922
0.889857
0.91837
0.950854
0.985507
1.02034
1.05347
1.08268
1.10771
1.12923
1.14729
1.16354
1.17794
1.1946
1.51083
2.14148
2.40374
2.43066
2.43828
2.43832
2.42903
2.408
2.37316
2.32371
2.26078
2.19186
2.12422
2.16474
2.18002
2.18924
2.19272
2.18688
2.17219
2.14315
2.10083
2.04578
1.9814
1.91362
1.84743
1.78637
1.73296
1.68827
1.65453
1.63209
1.6223
1.62032
1.60943
1.54604
1.28651
0.822006
0.828314
0.835551
0.846322
0.860235
0.87888
0.901605
0.927663
0.957278
0.989
1.02025
1.04967
1.07614
1.09974
1.11967
1.13853
1.15554
1.17372
1.22922
1.82128
2.41976
2.43671
2.45099
2.4558
2.45354
2.43836
2.4074
2.36039
2.29775
2.22741
2.15673
2.09521
2.16857
2.18261
2.18812
2.18813
2.17806
2.15717
2.12358
2.0782
2.02413
1.96454
1.90457
1.84679
1.79302
1.74378
1.70029
1.66396
1.63698
1.62128
1.61526
1.6139
1.60292
1.52679
1.20713
0.830291
0.845548
0.858168
0.872856
0.892093
0.913676
0.937522
0.963938
0.991189
1.01833
1.04446
1.06807
1.08951
1.10954
1.12804
1.14721
1.17339
1.22809
1.63599
2.43848
2.44738
2.46264
2.4665
2.45878
2.43396
2.39098
2.32933
2.25805
2.18439
2.1197
2.06805
2.16511
2.17496
2.17638
2.17123
2.15569
2.13039
2.09447
2.05112
2.00235
1.95178
1.90187
1.85355
1.80726
1.76279
1.72089
1.68306
1.6521
1.62955
1.61834
1.61488
1.61634
1.60454
1.50941
1.15398
0.846898
0.869288
0.886074
0.903471
0.923503
0.945451
0.968501
0.992279
1.01572
1.0379
1.05926
1.07898
1.09808
1.11825
1.1498
1.22641
1.54674
2.16636
2.43178
2.44961
2.46603
2.46679
2.45058
2.41374
2.35567
2.28434
2.20842
2.14031
2.08535
2.04586
2.15209
2.1563
2.15305
2.14265
2.12393
2.09685
2.0636
2.02577
1.98559
1.9453
1.90541
1.86599
1.8265
1.78679
1.74721
1.70934
1.67521
1.6482
1.63063
1.6238
1.62609
1.63342
1.61811
1.49242
1.08181
0.873267
0.893713
0.911253
0.93247
0.951808
0.971855
0.992039
1.01191
1.03128
1.04976
1.06799
1.08894
1.12511
1.23284
1.70945
2.20293
2.35445
2.42959
2.44842
2.46162
2.45496
2.42702
2.3754
2.30646
2.22946
2.1583
2.09964
2.05765
2.02914
2.12885
2.12847
2.12148
2.10852
2.08892
2.06461
2.03651
2.00634
1.97566
1.94479
1.91366
1.88169
1.84815
1.81297
1.7764
1.73958
1.70475
1.67449
1.65176
1.6407
1.64087
1.65193
1.66247
1.62409
1.41515
0.950071
0.904503
0.918267
0.935496
0.95493
0.972532
0.990611
1.00792
1.02409
1.04024
1.06135
1.10141
1.24681
1.80512
2.21111
2.32286
2.38837
2.43146
2.44564
2.44869
2.43011
2.38725
2.32332
2.24751
2.17425
2.11224
2.06733
2.03626
2.01819
2.10033
2.0969
2.08813
2.07489
2.05786
2.03801
2.01654
1.99429
1.97177
1.94869
1.92451
1.89857
1.87025
1.83933
1.80618
1.77165
1.73741
1.70581
1.68015
1.66495
1.66107
1.66997
1.68602
1.68996
1.61972
1.32317
0.942686
0.921691
0.938938
0.956384
0.972058
0.988144
1.00316
1.01738
1.03685
1.08173
1.26197
1.85489
2.17335
2.29789
2.3492
2.39924
2.4264
2.43494
2.42482
2.39089
2.33382
2.26184
2.18806
2.12348
2.07573
2.04184
2.02285
2.00983
2.07185
2.06694
2.05837
2.04718
2.03386
2.01932
2.00403
1.98845
1.97223
1.95506
1.93626
1.91519
1.89139
1.86462
1.83514
1.80366
1.77154
1.74075
1.71458
1.69586
1.68859
1.6931
1.70682
1.72114
1.71432
1.61578
1.30074
0.97437
0.938783
0.953681
0.969866
0.984991
0.99954
1.01781
1.0696
1.29362
1.87603
2.12132
2.2526
2.30717
2.36092
2.3982
2.41493
2.41259
2.38716
2.33774
2.27127
2.19902
2.13333
2.08265
2.04669
2.02589
2.01198
2.00568
2.04733
2.04252
2.03552
2.02713
2.01775
2.00779
1.99747
1.98672
1.97517
1.96235
1.94768
1.93062
1.91079
1.88799
1.86229
1.83434
1.80514
1.77621
1.7504
1.7304
1.72056
1.72023
1.72944
1.74368
1.75474
1.74565
1.64857
1.37274
1.01674
0.963724
0.969647
0.984496
1.0047
1.06399
1.3064
1.90052
2.06571
2.20557
2.2552
2.31658
2.36141
2.38756
2.39272
2.37654
2.33483
2.27503
2.20615
2.14084
2.08821
2.05052
2.02752
2.01286
2.00603
2.00173
2.02886
2.02501
2.01997
2.01426
2.00809
2.00161
1.99483
1.98743
1.97915
1.96953
1.95808
1.94438
1.92805
1.90893
1.88706
1.86278
1.83699
1.81088
1.78652
1.76636
1.75336
1.74984
1.75492
1.76573
1.78014
1.79054
1.78921
1.72576
1.53298
1.21488
1.02264
1.01691
1.06595
1.30256
1.91915
2.01168
2.1521
2.20663
2.2663
2.31756
2.35237
2.3661
2.35757
2.32498
2.2725
2.20852
2.14512
2.09193
2.05283
2.02735
2.01261
2.00432
2.00051
1.99878
2.01643
2.01372
2.01041
2.00678
2.0029
1.99879
1.99432
1.98924
1.98327
1.97603
1.96715
1.95625
1.94303
1.9273
1.90904
1.88848
1.86623
1.8433
1.82111
1.80154
1.78749
1.78078
1.78143
1.79011
1.80357
1.8192
1.83484
1.84616
1.84292
1.79825
1.67278
1.56831
1.58483
1.81127
2.03189
2.10268
2.16895
2.21782
2.272
2.31135
2.33151
2.33111
2.30749
2.26326
2.20548
2.14555
2.09317
2.05309
2.02585
2.01006
2.00054
1.99671
1.99522
1.99522
2.0088
2.00706
2.00502
2.00281
2.00043
1.99785
1.99488
1.99136
1.98704
1.98161
1.97478
1.96624
1.95573
1.94304
1.92815
1.91115
1.89242
1.87281
1.85325
1.83513
1.82071
1.81173
1.80932
1.8134
1.82331
1.83814
1.85622
1.87442
1.89247
1.91153
1.92285
1.91907
1.95964
2.00979
2.08169
2.13921
2.17462
2.22775
2.26685
2.29227
2.29788
2.2825
2.24701
2.19667
2.14156
2.09152
2.0509
2.02375
2.00434
1.99515
1.98964
1.98822
1.98854
1.99003
2.00446
2.0034
2.0022
2.00089
1.99945
1.9978
1.99582
1.99337
1.99024
1.98621
1.98103
1.97446
1.96627
1.95628
1.94438
1.93067
1.91537
1.89901
1.88234
1.86643
1.85282
1.84322
1.83874
1.83991
1.84711
1.85986
1.87684
1.89658
1.91809
1.94161
1.96832
1.99411
2.02512
2.06441
2.11045
2.14865
2.18704
2.22525
2.25032
2.26022
2.25113
2.2242
2.18198
2.13332
2.08636
2.04756
2.01871
1.99914
1.98677
1.97996
1.97738
1.97729
1.97909
1.98232
2.00214
2.00153
2.00083
2.00006
1.99918
1.99812
1.9968
1.99508
1.99284
1.98988
1.98603
1.98108
1.97483
1.96714
1.95791
1.94712
1.93496
1.92179
1.90805
1.89469
1.8828
1.87351
1.86848
1.86804
1.87284
1.88295
1.89782
1.91625
1.93809
1.9626
1.9902
2.01811
2.04991
2.08599
2.12274
2.15421
2.18533
2.20936
2.21985
2.21568
2.19601
2.16232
2.12078
2.07869
2.04205
2.01334
1.99258
1.9783
1.9686
1.96352
1.96169
1.96248
1.96575
1.97097
2.00097
2.00062
2.00023
1.99978
1.99923
1.99854
1.99765
1.99646
1.99487
1.99274
1.98993
1.98628
1.98164
1.97587
1.96889
1.96066
1.95129
1.94103
1.93018
1.91943
1.90964
1.90169
1.89691
1.89592
1.89922
1.90743
1.92007
1.93675
1.957
1.98044
2.00661
2.03314
2.06281
2.09348
2.12347
2.14923
2.16939
2.17953
2.17819
2.16478
2.13861
2.1049
2.06859
2.0353
2.00762
1.98613
1.97001
1.95805
1.94924
1.94373
1.94171
1.94289
1.9474
1.95503
2.00041
2.00022
1.99999
1.99972
1.99938
1.99893
1.99833
1.99752
1.9964
1.9949
1.9929
1.99028
1.98692
1.98272
1.97759
1.97151
1.96453
1.95681
1.94859
1.94036
1.93275
1.92646
1.92256
1.9216
1.92417
1.9308
1.9413
1.95585
1.97367
1.99488
2.01782
2.04154
2.06672
2.09228
2.11439
2.13215
2.1404
2.14113
2.13221
2.11301
2.08674
2.05683
2.0278
2.00205
1.98061
1.96302
1.9487
1.93708
1.92758
1.92019
1.91702
1.91784
1.92331
1.93379
2.00016
2.00005
1.99992
1.99976
1.99954
1.99925
1.99885
1.9983
1.99754
1.9965
1.99511
1.99327
1.99091
1.98794
1.98429
1.97994
1.97493
1.96935
1.96338
1.95739
1.9518
1.94716
1.94437
1.94374
1.94594
1.95123
1.95994
1.97192
1.98685
2.00459
2.02343
2.04323
2.06291
2.08244
2.09626
2.10468
2.10607
2.10074
2.08748
2.0678
2.04439
2.02013
1.99709
1.97647
1.95813
1.94189
1.92734
1.91452
1.9035
1.89341
1.88776
1.88704
1.89309
1.90692
2.00005
1.99999
1.99991
1.99982
1.99968
1.99949
1.99923
1.99886
1.99835
1.99765
1.99671
1.99546
1.99385
1.99181
1.9893
1.9863
1.98282
1.97895
1.97481
1.97064
1.96678
1.9636
1.9618
1.9616
1.96346
1.96776
1.97465
1.98411
1.9959
2.0097
2.02406
2.03916
2.0532
2.06577
2.07288
2.07506
2.07231
2.06375
2.04986
2.03233
2.01278
1.99309
1.97396
1.95569
1.93816
1.9212
1.90501
1.89022
1.87711
1.86463
1.8543
1.85049
1.85603
1.874
2.00001
1.99998
1.99993
1.99987
1.99979
1.99967
1.9995
1.99926
1.99892
1.99846
1.99784
1.99702
1.99595
1.99459
1.99292
1.99092
1.98861
1.98603
1.98328
1.98053
1.978
1.97598
1.97497
1.97505
1.97667
1.98003
1.98523
1.99232
2.00104
2.01092
2.02121
2.03151
2.04054
2.04711
2.04954
2.04851
2.04342
2.03415
2.0215
2.00652
1.99022
1.97321
1.95571
1.9377
1.91921
1.90028
1.8815
1.86411
1.84887
1.83457
1.81841
1.80751
1.80887
1.83253
2
1.99998
1.99995
1.99991
1.99986
1.99979
1.99968
1.99953
1.99931
1.99902
1.99862
1.99809
1.9974
1.99653
1.99546
1.99418
1.99269
1.99104
1.98929
1.98757
1.98601
1.98483
1.98433
1.9846
1.98593
1.9884
1.99218
1.99713
2.00316
2.00971
2.0165
2.02271
2.02796
2.03025
2.03014
2.0274
2.02148
2.01275
2.00162
1.9886
1.97401
1.95791
1.94027
1.92096
1.90029
1.87863
1.85681
1.83625
1.81844
1.80207
1.7813
1.75904
1.7464
1.78188
1.99999
1.99998
1.99997
1.99994
1.99991
1.99987
1.9998
1.9997
1.99957
1.99939
1.99914
1.99881
1.99838
1.99784
1.99717
1.99638
1.99547
1.99445
1.99339
1.99236
1.99146
1.99083
1.99063
1.99098
1.99196
1.99373
1.99629
1.99958
2.00342
2.00749
2.01153
2.01487
2.017
2.01726
2.01582
2.0122
2.00633
1.9983
1.98821
1.97611
1.9619
1.94537
1.92635
1.90481
1.88114
1.85613
1.83072
1.8066
1.7859
1.7702
1.75121
1.71677
1.64846
1.63633
1.00008
1.00008
1.00007
1.00006
1.00006
1.00005
1.00004
1.00003
1.00002
1.00001
0.999998
0.999993
0.99999
0.999989
0.999992
0.999998
1.00001
1.00002
1.00003
1.00005
1.00014
1.00013
1.00013
1.00011
1.0001
1.00008
1.00006
1.00004
1.00002
1
0.999988
0.999975
0.999966
0.999959
0.999956
0.999956
0.999959
0.999965
0.999973
0.999982
1.00024
1.00023
1.00022
1.00019
1.00017
1.00013
1.0001
1.00006
1.00003
0.999998
0.999971
0.999948
0.999929
0.999916
0.999907
0.999903
0.999902
0.999905
0.99991
0.999917
1.00041
1.0004
1.00036
1.00032
1.00027
1.00021
1.00015
1.00009
1.00004
0.999985
0.999939
0.999901
0.99987
0.999848
0.999832
0.999824
0.99982
0.999822
0.999826
0.999833
1.00069
1.00066
1.0006
1.00052
1.00043
1.00033
1.00023
1.00013
1.00004
0.999954
0.999881
0.99982
0.999772
0.999737
0.999713
0.9997
0.999694
0.999695
0.999701
0.999711
1.00114
1.00106
1.00096
1.00082
1.00067
1.00051
1.00034
1.00018
1.00003
0.999893
0.999779
0.999685
0.999612
0.99956
0.999525
0.999505
0.999497
0.9995
0.999509
0.999523
1.00183
1.00169
1.0015
1.00127
1.00102
1.00075
1.00048
1.00022
0.999988
0.999781
0.999606
0.999465
0.999357
0.999281
0.99923
0.999203
0.999194
0.999199
0.999215
0.999237
1.00288
1.00262
1.0023
1.00192
1.0015
1.00107
1.00065
1.00025
0.999896
0.999584
0.999325
0.999118
0.998962
0.998853
0.998783
0.998746
0.998737
0.998746
0.998771
0.998805
1.0044
1.00396
1.00342
1.0028
1.00215
1.00148
1.00084
1.00025
0.999714
0.999258
0.998882
0.998587
0.998367
0.998214
0.998121
0.998071
0.998063
0.998078
0.998115
0.998165
1.00653
1.00579
1.00493
1.00397
1.00296
1.00197
1.00102
1.00016
0.999391
0.998742
0.998213
0.997803
0.997498
0.99729
0.997165
0.9971
0.997092
0.997116
0.997168
0.997237
1.00938
1.00822
1.00687
1.00543
1.00395
1.00251
1.00115
0.999929
0.998862
0.997966
0.997242
0.996683
0.996278
0.995993
0.995829
0.995742
0.995734
0.995766
0.995836
0.995927
1.01305
1.01125
1.00925
1.00716
1.00506
1.00304
1.00117
0.999497
0.998055
0.996853
0.99589
0.995149
0.994613
0.994236
0.994021
0.993901
0.993886
0.993924
0.994009
0.994122
1.01744
1.01481
1.01198
1.00906
1.00621
1.00347
1.00099
0.998784
0.996898
0.995337
0.994089
0.993129
0.992434
0.991939
0.991654
0.991485
0.99145
0.991483
0.991573
0.991701
1.02241
1.01873
1.01486
1.01098
1.00724
1.00369
1.00052
0.997723
0.995343
0.993376
0.991815
0.990583
0.989695
0.989047
0.988665
0.98842
0.988337
0.988346
0.988424
0.988547
1.02756
1.02266
1.01764
1.01272
1.00797
1.0036
0.99969
0.996281
0.993386
0.990983
0.989067
0.987529
0.986408
0.985555
0.985035
0.984667
0.984497
0.984449
0.984478
0.98456
1.03244
1.02622
1.01996
1.01399
1.00825
1.00309
0.998479
0.994481
0.991087
0.98824
0.985939
0.984063
0.982641
0.981531
0.980786
0.980267
0.979939
0.979769
0.979702
0.979685
1.03645
1.02889
1.02149
1.0145
1.00793
1.00207
0.996902
0.992415
0.988572
0.985309
0.982603
0.980334
0.978564
0.977109
0.97607
0.975291
0.974762
0.974368
0.974118
0.973933
1.03914
1.03028
1.02196
1.01404
1.00689
1.00056
0.995036
0.990226
0.986049
0.982391
0.979293
0.976583
0.974371
0.972531
0.971073
0.969972
0.969093
0.968406
0.96785
0.96739
1.04017
1.03013
1.02113
1.01248
1.00507
0.998606
0.993
0.988062
0.983728
0.979747
0.976252
0.973065
0.970364
0.968065
0.966098
0.964508
0.963214
0.962105
0.961126
0.96024
1.03936
1.02836
1.01869
1.00973
1.00239
0.996193
0.990845
0.986074
0.98172
0.977501
0.973701
0.970016
0.966796
0.963932
0.961475
0.959286
0.957395
0.955716
0.954187
0.952827
1.0366
1.02473
1.01436
1.00555
0.998751
0.993252
0.988523
0.984208
0.980029
0.975767
0.971575
0.967629
0.96385
0.960454
0.957363
0.954537
0.951928
0.94964
0.947337
0.945357
1.03256
1.01943
1.0078
0.999472
0.993939
0.98961
0.985869
0.98232
0.978414
0.974235
0.969871
0.965684
0.96157
0.957717
0.953915
0.950373
0.94709
0.943778
0.941019
0.938252
1.03461
1.01757
1.00166
0.991521
0.986466
0.98428
0.982396
0.98013
0.976876
0.972776
0.968469
0.964305
0.959902
0.955576
0.951019
0.946731
0.942464
0.938639
0.935225
0.931782
1.08675
1.0542
1.02538
0.993927
0.982036
0.978572
0.978144
0.976737
0.974237
0.970546
0.967053
0.963145
0.958912
0.953767
0.948773
0.943182
0.938283
0.933958
0.92965
0.926367
1.4676
1.41199
1.30191
1.10817
1.00684
0.977258
0.974064
0.975019
0.971868
0.967793
0.965226
0.962313
0.957677
0.952116
0.945612
0.939475
0.933612
0.929454
0.925486
0.921746
2.04646
1.96937
1.8449
1.64645
1.42578
1.09467
1.02789
0.997479
0.977245
0.968192
0.9669
0.964105
0.958502
0.951394
0.942657
0.934917
0.928338
0.924724
0.920703
0.917399
2.07833
2.03768
1.99527
1.9481
1.91766
1.86145
1.72778
1.5421
1.32638
1.08131
1.05274
1.03163
1.015
0.989361
0.956025
0.933429
0.924275
0.922111
0.920871
0.916597
2.09688
2.05684
2.01191
1.97681
1.95574
1.94511
1.94239
1.93537
1.92683
1.92106
1.90279
1.8797
1.83056
1.73022
1.54975
1.33506
1.02865
0.978134
0.957824
0.934754
2.11364
2.06611
2.02116
1.98356
1.959
1.93865
1.92855
1.91819
1.91437
1.91108
1.90915
1.90189
1.89026
1.87532
1.85586
1.83885
1.82226
1.76563
1.68404
1.58728
2.11975
2.06687
2.01915
1.98156
1.95425
1.93635
1.92327
1.9152
1.90787
1.90286
1.89723
1.88925
1.87854
1.86502
1.85174
1.84275
1.83888
1.8351
1.82747
1.81211
2.11733
2.06045
2.01187
1.97488
1.94918
1.93145
1.91984
1.91214
1.90562
1.90042
1.8945
1.8877
1.8791
1.86898
1.85802
1.84791
1.83888
1.82942
1.81914
1.80701
2.10583
2.04863
2.00308
1.97002
1.94759
1.93268
1.92273
1.91554
1.9098
1.90444
1.89881
1.8922
1.88421
1.87495
1.86437
1.85345
1.8418
1.82944
1.81631
1.80262
2.08742
2.03501
1.99574
1.96865
1.9507
1.93888
1.93097
1.925
1.91996
1.9151
1.90975
1.90337
1.89555
1.8861
1.87495
1.86245
1.84866
1.83398
1.81878
1.80346
2.06675
2.02252
1.99152
1.97093
1.95757
1.94876
1.94278
1.93786
1.93363
1.92919
1.92411
1.91787
1.91008