/*--------------------------------*- C++ -*----------------------------------*\
  =========                 |
  \\      /  F ield         | OpenFOAM: The Open Source CFD Toolbox
   \\    /   O peration     | Website:  https://openfoam.org
    \\  /    A nd           | Version:  10
     \\/     M anipulation  |
\*---------------------------------------------------------------------------*/
FoamFile
{
    format      ascii;
    class       volVectorField;
    location    "0.849234";
    object      U;
}
// * * * * * * * * * * * * * * * * * * * * * * * * * * * * * * * * * * * * * //

dimensions      [0 1 -1 0 0 0 0];

internalField   nonuniform List<vector> 
16320
(
(-0.242369 -0.2179 0)
(-0.229178 -0.209045 0)
(-0.213595 -0.191074 0)
(-0.195731 -0.162431 0)
(-0.176183 -0.123873 0)
(-0.156337 -0.0774624 0)
(-0.137284 -0.0261697 0)
(-0.119046 0.0249982 0)
(-0.104066 0.0749959 0)
(-0.1066 0.132222 0)
(-0.106813 0.166471 0)
(-0.108383 0.177851 0)
(-0.117335 0.180817 0)
(-0.127816 0.170335 0)
(-0.142595 0.145955 0)
(-0.161254 0.122889 0)
(-0.164919 0.120987 0)
(-0.148154 0.132282 0)
(-0.123776 0.148555 0)
(-0.093615 0.167369 0)
(-0.0594024 0.188708 0)
(-0.0231007 0.212087 0)
(0.0139795 0.2348 0)
(0.0481645 0.25401 0)
(0.0797725 0.271635 0)
(0.111116 0.288771 0)
(0.141722 0.305278 0)
(0.171417 0.321108 0)
(0.199278 0.33646 0)
(0.225265 0.350935 0)
(0.250724 0.365094 0)
(0.275596 0.378747 0)
(0.299199 0.391802 0)
(0.32165 0.403626 0)
(0.34297 0.413968 0)
(0.363467 0.423281 0)
(0.383443 0.432216 0)
(0.403364 0.440996 0)
(0.423195 0.449453 0)
(0.443776 0.457822 0)
(0.464759 0.466599 0)
(0.486759 0.475735 0)
(0.509881 0.483961 0)
(0.532793 0.49393 0)
(0.554785 0.500053 0)
(0.573277 0.506148 0)
(0.585651 0.509669 0)
(0.591554 0.510763 0)
(0.589248 0.510436 0)
(0.576525 0.509773 0)
(0.554722 0.50953 0)
(0.521756 0.509027 0)
(0.471777 0.507171 0)
(0.417485 0.497936 0)
(0.375798 0.467962 0)
(0.347174 0.421495 0)
(0.330784 0.346903 0)
(0.327462 0.257657 0)
(0.322585 0.16075 0)
(0.313745 0.0519243 0)
(0.302737 -0.0735805 0)
(0.293993 -0.192669 0)
(0.281602 -0.268084 0)
(0.26831 -0.296453 0)
(0.262486 -0.305212 0)
(0.258417 -0.319789 0)
(0.250361 -0.34838 0)
(0.238455 -0.376427 0)
(0.228576 -0.394921 0)
(0.223209 -0.399995 0)
(0.220593 -0.396145 0)
(0.220578 -0.385065 0)
(0.224358 -0.369954 0)
(0.229862 -0.352591 0)
(0.234613 -0.33367 0)
(0.23749 -0.314217 0)
(0.241041 -0.297031 0)
(0.247027 -0.285818 0)
(0.251362 -0.283619 0)
(0.242225 -0.288481 0)
(0.226883 -0.304294 0)
(0.222055 -0.325557 0)
(0.212413 -0.340324 0)
(0.195663 -0.340559 0)
(0.183911 -0.327448 0)
(0.186258 -0.314116 0)
(0.190461 -0.294338 0)
(0.190783 -0.26821 0)
(0.187704 -0.235025 0)
(0.182528 -0.193636 0)
(0.177008 -0.142874 0)
(0.17246 -0.0845415 0)
(0.167312 -0.0238659 0)
(0.158593 0.0277306 0)
(0.141416 0.0640741 0)
(0.115076 0.0846283 0)
(0.0866795 0.0879374 0)
(0.0615987 0.0757024 0)
(0.0292298 0.0397003 0)
(-0.0383631 -0.0481461 0)
(-0.103639 -0.138152 0)
(-0.144458 -0.224207 0)
(-0.177276 -0.314994 0)
(-0.203288 -0.418153 0)
(-0.227114 -0.542858 0)
(-0.246636 -0.611318 0)
(-0.230429 -0.575417 0)
(-0.191944 -0.458063 0)
(-0.166765 -0.371607 0)
(-0.147387 -0.316008 0)
(-0.132761 -0.26678 0)
(-0.122363 -0.211605 0)
(-0.120512 -0.149939 0)
(-0.250161 -0.237343 0)
(-0.240915 -0.22986 0)
(-0.229703 -0.212972 0)
(-0.216974 -0.185707 0)
(-0.202599 -0.148978 0)
(-0.185563 -0.103558 0)
(-0.167885 -0.052569 0)
(-0.152053 0.00281703 0)
(-0.137417 0.056678 0)
(-0.132416 0.109781 0)
(-0.139425 0.161282 0)
(-0.135105 0.180447 0)
(-0.136724 0.185166 0)
(-0.142654 0.178453 0)
(-0.151026 0.15698 0)
(-0.167614 0.125504 0)
(-0.179778 0.108954 0)
(-0.172699 0.108792 0)
(-0.151867 0.119015 0)
(-0.125343 0.132443 0)
(-0.0935264 0.148812 0)
(-0.0581753 0.167956 0)
(-0.0211755 0.18855 0)
(0.0170131 0.209945 0)
(0.0539454 0.231427 0)
(0.0897182 0.25417 0)
(0.122963 0.276927 0)
(0.154936 0.298851 0)
(0.184273 0.319877 0)
(0.211809 0.341105 0)
(0.238982 0.361447 0)
(0.265169 0.379546 0)
(0.289505 0.395253 0)
(0.311809 0.407809 0)
(0.332782 0.418396 0)
(0.353136 0.427917 0)
(0.372819 0.436544 0)
(0.391789 0.444205 0)
(0.410265 0.45145 0)
(0.429309 0.458792 0)
(0.448662 0.466647 0)
(0.468466 0.474959 0)
(0.489116 0.48318 0)
(0.510193 0.491452 0)
(0.531153 0.499397 0)
(0.550227 0.50545 0)
(0.564963 0.509313 0)
(0.57385 0.510839 0)
(0.574172 0.51082 0)
(0.564012 0.509769 0)
(0.544873 0.508661 0)
(0.514849 0.506938 0)
(0.467096 0.504422 0)
(0.41222 0.495641 0)
(0.374968 0.468745 0)
(0.354197 0.42506 0)
(0.343385 0.356892 0)
(0.345386 0.272116 0)
(0.344227 0.178727 0)
(0.336534 0.0735507 0)
(0.324395 -0.053211 0)
(0.315844 -0.172074 0)
(0.302607 -0.24622 0)
(0.287187 -0.274669 0)
(0.280129 -0.285907 0)
(0.274021 -0.303589 0)
(0.263528 -0.335152 0)
(0.25059 -0.364243 0)
(0.240374 -0.384454 0)
(0.234223 -0.393069 0)
(0.230145 -0.394955 0)
(0.229887 -0.390296 0)
(0.23496 -0.380251 0)
(0.243643 -0.366448 0)
(0.252378 -0.349467 0)
(0.258738 -0.331328 0)
(0.265027 -0.314276 0)
(0.273283 -0.303377 0)
(0.280784 -0.300355 0)
(0.275697 -0.304032 0)
(0.262165 -0.314153 0)
(0.257493 -0.333789 0)
(0.250605 -0.351574 0)
(0.239731 -0.359959 0)
(0.223692 -0.35207 0)
(0.21508 -0.333085 0)
(0.218599 -0.315641 0)
(0.22043 -0.291282 0)
(0.217362 -0.261741 0)
(0.210372 -0.225214 0)
(0.201237 -0.180104 0)
(0.192098 -0.12627 0)
(0.184003 -0.0659556 0)
(0.174515 -0.00741715 0)
(0.159791 0.0381053 0)
(0.136739 0.0669692 0)
(0.108958 0.0784305 0)
(0.0838378 0.0726411 0)
(0.0603448 0.0478829 0)
(0.0233699 -0.00810748 0)
(-0.0377412 -0.0972365 0)
(-0.0886423 -0.185003 0)
(-0.125228 -0.275456 0)
(-0.156441 -0.378149 0)
(-0.178673 -0.504422 0)
(-0.207339 -0.61573 0)
(-0.210333 -0.602154 0)
(-0.18311 -0.479194 0)
(-0.16052 -0.382266 0)
(-0.143051 -0.3242 0)
(-0.130859 -0.271513 0)
(-0.121408 -0.21087 0)
(-0.119017 -0.144035 0)
(-0.261479 -0.254305 0)
(-0.257089 -0.248199 0)
(-0.250997 -0.231999 0)
(-0.243714 -0.205021 0)
(-0.234958 -0.168632 0)
(-0.223135 -0.124653 0)
(-0.208172 -0.074246 0)
(-0.194736 -0.0169173 0)
(-0.182063 0.0404053 0)
(-0.173378 0.0957308 0)
(-0.180264 0.147221 0)
(-0.173345 0.176534 0)
(-0.165731 0.184657 0)
(-0.165088 0.18091 0)
(-0.167967 0.163025 0)
(-0.177654 0.131333 0)
(-0.190674 0.101706 0)
(-0.189565 0.0910095 0)
(-0.172157 0.0932495 0)
(-0.148268 0.101098 0)
(-0.119217 0.112894 0)
(-0.0862906 0.128794 0)
(-0.0508984 0.147745 0)
(-0.013768 0.16926 0)
(0.0241706 0.191763 0)
(0.0609602 0.21356 0)
(0.0968948 0.236687 0)
(0.132392 0.260824 0)
(0.167919 0.285921 0)
(0.201691 0.312882 0)
(0.232356 0.339512 0)
(0.260182 0.364059 0)
(0.284013 0.385676 0)
(0.305698 0.405438 0)
(0.327081 0.422307 0)
(0.347271 0.435993 0)
(0.365619 0.445947 0)
(0.383205 0.452568 0)
(0.400843 0.457869 0)
(0.419306 0.462553 0)
(0.437839 0.466894 0)
(0.456149 0.472109 0)
(0.474996 0.478155 0)
(0.49425 0.485051 0)
(0.513301 0.492288 0)
(0.530883 0.498103 0)
(0.545285 0.502109 0)
(0.554936 0.50392 0)
(0.556844 0.503965 0)
(0.548884 0.502367 0)
(0.532439 0.500241 0)
(0.505455 0.496902 0)
(0.460227 0.4924 0)
(0.405458 0.483834 0)
(0.370996 0.461451 0)
(0.357344 0.421797 0)
(0.35394 0.361752 0)
(0.360324 0.284492 0)
(0.363424 0.196575 0)
(0.357322 0.0951925 0)
(0.345389 -0.031721 0)
(0.338924 -0.148952 0)
(0.324477 -0.220835 0)
(0.306492 -0.249398 0)
(0.298193 -0.263615 0)
(0.28973 -0.284851 0)
(0.27683 -0.319239 0)
(0.263471 -0.349526 0)
(0.25358 -0.371321 0)
(0.248007 -0.383526 0)
(0.24363 -0.39116 0)
(0.243096 -0.39305 0)
(0.247949 -0.38812 0)
(0.258572 -0.379148 0)
(0.271045 -0.364857 0)
(0.281173 -0.349238 0)
(0.289488 -0.333688 0)
(0.299055 -0.323143 0)
(0.309383 -0.320443 0)
(0.309354 -0.324686 0)
(0.29804 -0.327863 0)
(0.290675 -0.341777 0)
(0.28508 -0.360352 0)
(0.27744 -0.37443 0)
(0.268423 -0.377381 0)
(0.25174 -0.360637 0)
(0.245452 -0.335782 0)
(0.248257 -0.313261 0)
(0.245267 -0.285242 0)
(0.237444 -0.252651 0)
(0.225207 -0.213057 0)
(0.211078 -0.164917 0)
(0.19748 -0.10848 0)
(0.185592 -0.0473344 0)
(0.171525 0.00645068 0)
(0.150685 0.0438795 0)
(0.124703 0.0631874 0)
(0.0989923 0.0648666 0)
(0.0775498 0.0478578 0)
(0.0530458 0.00748455 0)
(0.0121336 -0.0619651 0)
(-0.038875 -0.148459 0)
(-0.0766901 -0.236389 0)
(-0.11023 -0.33795 0)
(-0.135985 -0.46286 0)
(-0.165686 -0.603234 0)
(-0.179279 -0.618494 0)
(-0.170678 -0.495032 0)
(-0.151452 -0.388929 0)
(-0.136689 -0.329184 0)
(-0.128127 -0.274079 0)
(-0.121827 -0.209392 0)
(-0.120525 -0.138629 0)
(-0.276528 -0.26603 0)
(-0.277913 -0.261047 0)
(-0.27787 -0.245401 0)
(-0.276728 -0.219083 0)
(-0.273396 -0.183738 0)
(-0.266291 -0.140488 0)
(-0.255358 -0.0908511 0)
(-0.245369 -0.0337948 0)
(-0.234244 0.024982 0)
(-0.221916 0.081878 0)
(-0.223593 0.131416 0)
(-0.213643 0.163388 0)
(-0.198874 0.178602 0)
(-0.191749 0.178091 0)
(-0.190017 0.163351 0)
(-0.193328 0.133084 0)
(-0.200308 0.0972896 0)
(-0.199136 0.0772256 0)
(-0.185132 0.0711325 0)
(-0.163651 0.0728779 0)
(-0.137243 0.0800104 0)
(-0.107137 0.093041 0)
(-0.0744821 0.110825 0)
(-0.0401361 0.131843 0)
(-0.00407102 0.155251 0)
(0.0323233 0.178957 0)
(0.0684297 0.203214 0)
(0.105061 0.228485 0)
(0.142158 0.254687 0)
(0.17884 0.280742 0)
(0.214066 0.307139 0)
(0.247354 0.333382 0)
(0.279285 0.35898 0)
(0.308019 0.384783 0)
(0.331628 0.408069 0)
(0.350781 0.427144 0)
(0.366111 0.442589 0)
(0.381019 0.455165 0)
(0.396581 0.464088 0)
(0.412315 0.469002 0)
(0.428637 0.470437 0)
(0.445823 0.471629 0)
(0.463632 0.473644 0)
(0.481857 0.476335 0)
(0.499105 0.479949 0)
(0.514591 0.483849 0)
(0.527477 0.487262 0)
(0.536477 0.489611 0)
(0.538418 0.490123 0)
(0.531632 0.488591 0)
(0.517102 0.485809 0)
(0.492347 0.480825 0)
(0.450415 0.473518 0)
(0.398442 0.464511 0)
(0.367177 0.447622 0)
(0.359213 0.414186 0)
(0.36145 0.362182 0)
(0.371347 0.294541 0)
(0.378335 0.212635 0)
(0.37461 0.114806 0)
(0.364537 -0.00971018 0)
(0.361733 -0.123449 0)
(0.345589 -0.191937 0)
(0.324859 -0.220508 0)
(0.315545 -0.238271 0)
(0.305077 -0.264366 0)
(0.290295 -0.301507 0)
(0.27743 -0.333718 0)
(0.269028 -0.356892 0)
(0.265915 -0.373456 0)
(0.263531 -0.386261 0)
(0.263989 -0.394272 0)
(0.265945 -0.394517 0)
(0.275128 -0.387269 0)
(0.289469 -0.379352 0)
(0.301978 -0.365821 0)
(0.312875 -0.353305 0)
(0.322505 -0.34282 0)
(0.332368 -0.339779 0)
(0.33836 -0.344161 0)
(0.333544 -0.347311 0)
(0.322692 -0.35526 0)
(0.31496 -0.368277 0)
(0.3086 -0.385805 0)
(0.303381 -0.396372 0)
(0.293703 -0.390272 0)
(0.276153 -0.361267 0)
(0.271093 -0.334826 0)
(0.269425 -0.304652 0)
(0.260847 -0.274402 0)
(0.246531 -0.240858 0)
(0.227868 -0.199136 0)
(0.208833 -0.148246 0)
(0.191087 -0.0886174 0)
(0.175652 -0.0288071 0)
(0.156945 0.0182696 0)
(0.133005 0.0460923 0)
(0.108069 0.0549147 0)
(0.0863679 0.0450539 0)
(0.0662328 0.0137008 0)
(0.0378155 -0.0420308 0)
(-0.0012468 -0.115624 0)
(-0.0377357 -0.201008 0)
(-0.0694117 -0.301003 0)
(-0.0979416 -0.424895 0)
(-0.124603 -0.574326 0)
(-0.144594 -0.621856 0)
(-0.156092 -0.502966 0)
(-0.140393 -0.390592 0)
(-0.128963 -0.329773 0)
(-0.124562 -0.273245 0)
(-0.123105 -0.205593 0)
(-0.12408 -0.1325 0)
(-0.294375 -0.271911 0)
(-0.301749 -0.267828 0)
(-0.308149 -0.253595 0)
(-0.312992 -0.228314 0)
(-0.314538 -0.193982 0)
(-0.311754 -0.151828 0)
(-0.305128 -0.103236 0)
(-0.298189 -0.048563 0)
(-0.289031 0.00871315 0)
(-0.274114 0.0648597 0)
(-0.2666 0.111765 0)
(-0.250944 0.14642 0)
(-0.231521 0.167011 0)
(-0.219361 0.170051 0)
(-0.213476 0.157461 0)
(-0.211642 0.128838 0)
(-0.211293 0.092018 0)
(-0.205986 0.0642608 0)
(-0.192563 0.051271 0)
(-0.173398 0.0476007 0)
(-0.14987 0.0506848 0)
(-0.123162 0.0612584 0)
(-0.0940108 0.0778299 0)
(-0.0629707 0.0982906 0)
(-0.0304469 0.121221 0)
(0.00448647 0.146273 0)
(0.0399565 0.17155 0)
(0.0761682 0.197673 0)
(0.113444 0.224927 0)
(0.151217 0.252927 0)
(0.188838 0.281488 0)
(0.225707 0.310167 0)
(0.261364 0.338177 0)
(0.294987 0.363375 0)
(0.324798 0.386315 0)
(0.35113 0.406745 0)
(0.373928 0.425616 0)
(0.391652 0.442938 0)
(0.403969 0.456413 0)
(0.413734 0.465791 0)
(0.424994 0.472125 0)
(0.438742 0.474594 0)
(0.453404 0.473919 0)
(0.4687 0.472271 0)
(0.484361 0.471119 0)
(0.4989 0.471372 0)
(0.510907 0.472354 0)
(0.518837 0.473623 0)
(0.51975 0.473745 0)
(0.513108 0.472111 0)
(0.499618 0.468683 0)
(0.475971 0.462503 0)
(0.437413 0.453367 0)
(0.391524 0.44402 0)
(0.364956 0.432066 0)
(0.36074 0.405171 0)
(0.367529 0.361474 0)
(0.379801 0.301419 0)
(0.389004 0.225397 0)
(0.388503 0.131528 0)
(0.381738 0.0123555 0)
(0.381693 -0.0958148 0)
(0.363887 -0.160063 0)
(0.341069 -0.188542 0)
(0.33083 -0.210062 0)
(0.319143 -0.242877 0)
(0.303416 -0.283429 0)
(0.292267 -0.318428 0)
(0.28675 -0.343224 0)
(0.287825 -0.364942 0)
(0.28926 -0.38365 0)
(0.291291 -0.398508 0)
(0.294231 -0.405457 0)
(0.294893 -0.40013 0)
(0.305122 -0.392391 0)
(0.320361 -0.383215 0)
(0.332287 -0.37086 0)
(0.342857 -0.361687 0)
(0.351268 -0.356803 0)
(0.358361 -0.359264 0)
(0.358581 -0.366459 0)
(0.352994 -0.373379 0)
(0.343573 -0.386344 0)
(0.333383 -0.397576 0)
(0.32991 -0.412322 0)
(0.324431 -0.412527 0)
(0.305749 -0.390505 0)
(0.294957 -0.358031 0)
(0.290129 -0.324989 0)
(0.277645 -0.293852 0)
(0.261287 -0.263156 0)
(0.240338 -0.227298 0)
(0.216432 -0.182393 0)
(0.192953 -0.127145 0)
(0.173036 -0.0631904 0)
(0.155681 -0.00781493 0)
(0.133989 0.0296177 0)
(0.110234 0.045907 0)
(0.0883378 0.041967 0)
(0.0688528 0.017092 0)
(0.0449725 -0.0312329 0)
(0.0178864 -0.0926467 0)
(-0.0115358 -0.17282 0)
(-0.0387913 -0.269218 0)
(-0.0643782 -0.391542 0)
(-0.0865969 -0.540957 0)
(-0.112257 -0.614056 0)
(-0.139917 -0.500109 0)
(-0.128677 -0.386323 0)
(-0.120854 -0.32558 0)
(-0.121121 -0.268028 0)
(-0.125341 -0.198734 0)
(-0.128925 -0.125254 0)
(-0.312692 -0.271491 0)
(-0.326642 -0.269112 0)
(-0.338854 -0.256891 0)
(-0.347653 -0.233401 0)
(-0.352843 -0.20136 0)
(-0.353498 -0.16154 0)
(-0.349605 -0.115204 0)
(-0.343935 -0.0637697 0)
(-0.334916 -0.00931301 0)
(-0.318359 0.044882 0)
(-0.302578 0.0883338 0)
(-0.28289 0.126892 0)
(-0.261595 0.150586 0)
(-0.245879 0.156183 0)
(-0.234676 0.145878 0)
(-0.227461 0.118622 0)
(-0.220763 0.0829632 0)
(-0.210755 0.0498771 0)
(-0.196542 0.0326854 0)
(-0.179024 0.0255576 0)
(-0.158269 0.0256655 0)
(-0.134808 0.034221 0)
(-0.109386 0.0495668 0)
(-0.0820746 0.0691593 0)
(-0.0529734 0.0911578 0)
(-0.0218815 0.115132 0)
(0.0125446 0.141003 0)
(0.0477653 0.167099 0)
(0.0845199 0.19461 0)
(0.122587 0.223628 0)
(0.161364 0.253969 0)
(0.20012 0.285061 0)
(0.238019 0.316056 0)
(0.274314 0.345437 0)
(0.307974 0.372246 0)
(0.338805 0.395905 0)
(0.366439 0.415363 0)
(0.38977 0.4301 0)
(0.408522 0.442057 0)
(0.423866 0.452201 0)
(0.434018 0.461475 0)
(0.440029 0.467285 0)
(0.447479 0.470234 0)
(0.458222 0.470956 0)
(0.470759 0.468952 0)
(0.483109 0.465999 0)
(0.493474 0.463533 0)
(0.500139 0.461625 0)
(0.499912 0.459392 0)
(0.492987 0.456694 0)
(0.480107 0.452556 0)
(0.457755 0.445783 0)
(0.423275 0.436168 0)
(0.385299 0.427307 0)
(0.364702 0.418397 0)
(0.363225 0.397023 0)
(0.371547 0.359553 0)
(0.385057 0.306197 0)
(0.396693 0.235719 0)
(0.399221 0.146639 0)
(0.395811 0.0328649 0)
(0.397239 -0.0666436 0)
(0.377601 -0.125713 0)
(0.354304 -0.154264 0)
(0.342988 -0.180403 0)
(0.330181 -0.221337 0)
(0.315153 -0.266146 0)
(0.307643 -0.304178 0)
(0.306069 -0.332274 0)
(0.309659 -0.358899 0)
(0.313197 -0.383486 0)
(0.3161 -0.403305 0)
(0.320288 -0.415663 0)
(0.322633 -0.418238 0)
(0.323466 -0.407459 0)
(0.334683 -0.398106 0)
(0.348836 -0.388358 0)
(0.358347 -0.378708 0)
(0.36583 -0.372945 0)
(0.370402 -0.372813 0)
(0.373318 -0.379653 0)
(0.370704 -0.389942 0)
(0.367378 -0.404222 0)
(0.359378 -0.418195 0)
(0.34907 -0.428816 0)
(0.345298 -0.430271 0)
(0.325809 -0.411956 0)
(0.310184 -0.378657 0)
(0.304334 -0.345648 0)
(0.290152 -0.313502 0)
(0.270371 -0.282277 0)
(0.246556 -0.249655 0)
(0.219497 -0.209451 0)
(0.192333 -0.158096 0)
(0.165659 -0.0952046 0)
(0.146176 -0.031417 0)
(0.128051 0.0154037 0)
(0.105607 0.0392128 0)
(0.0839448 0.0403876 0)
(0.0644132 0.02007 0)
(0.0436463 -0.0215799 0)
(0.0232354 -0.0771394 0)
(0.00274015 -0.150685 0)
(-0.0187121 -0.244802 0)
(-0.0379665 -0.362595 0)
(-0.054478 -0.509171 0)
(-0.0814276 -0.596241 0)
(-0.123671 -0.486758 0)
(-0.118463 -0.376085 0)
(-0.113474 -0.316655 0)
(-0.118622 -0.258404 0)
(-0.128451 -0.188605 0)
(-0.13404 -0.117103 0)
(-0.329621 -0.265232 0)
(-0.349898 -0.265145 0)
(-0.366975 -0.255044 0)
(-0.379617 -0.234315 0)
(-0.386905 -0.204644 0)
(-0.387303 -0.168038 0)
(-0.382947 -0.125112 0)
(-0.376514 -0.0782634 0)
(-0.366359 -0.0272857 0)
(-0.350999 0.0235642 0)
(-0.331042 0.066714 0)
(-0.308667 0.10589 0)
(-0.286994 0.129766 0)
(-0.267856 0.137632 0)
(-0.251713 0.12995 0)
(-0.238276 0.104075 0)
(-0.226481 0.0684283 0)
(-0.213328 0.0332721 0)
(-0.197219 0.0153425 0)
(-0.180164 0.00574601 0)
(-0.16133 0.00387193 0)
(-0.14052 0.0106854 0)
(-0.118475 0.0252859 0)
(-0.0949259 0.0440575 0)
(-0.0694313 0.0648405 0)
(-0.0417362 0.0873385 0)
(-0.0109666 0.111148 0)
(0.0235472 0.13704 0)
(0.0590883 0.164021 0)
(0.0965318 0.192995 0)
(0.135302 0.223939 0)
(0.174589 0.256415 0)
(0.213493 0.289608 0)
(0.251285 0.322318 0)
(0.287052 0.353366 0)
(0.320291 0.381569 0)
(0.35043 0.405707 0)
(0.376806 0.424414 0)
(0.399022 0.438305 0)
(0.417856 0.446776 0)
(0.432337 0.450698 0)
(0.443107 0.454132 0)
(0.45099 0.458287 0)
(0.455514 0.461268 0)
(0.460613 0.462605 0)
(0.468042 0.461671 0)
(0.47548 0.458864 0)
(0.479773 0.454863 0)
(0.4784 0.450152 0)
(0.471779 0.446435 0)
(0.459857 0.44149 0)
(0.438863 0.43397 0)
(0.408874 0.424845 0)
(0.379593 0.417317 0)
(0.365233 0.40995 0)
(0.365505 0.39126 0)
(0.374687 0.359708 0)
(0.388234 0.312369 0)
(0.401287 0.248771 0)
(0.405745 0.156832 0)
(0.404073 0.0515775 0)
(0.406257 -0.0360151 0)
(0.384668 -0.0891901 0)
(0.362847 -0.118975 0)
(0.35074 -0.151268 0)
(0.337491 -0.201137 0)
(0.325397 -0.250124 0)
(0.322264 -0.29107 0)
(0.324311 -0.324036 0)
(0.329172 -0.354332 0)
(0.334038 -0.382125 0)
(0.337485 -0.403948 0)
(0.340737 -0.418762 0)
(0.34414 -0.425988 0)
(0.346028 -0.423436 0)
(0.347162 -0.411005 0)
(0.356908 -0.401561 0)
(0.368584 -0.394199 0)
(0.374742 -0.387445 0)
(0.378193 -0.385558 0)
(0.379643 -0.389823 0)
(0.380336 -0.402327 0)
(0.379096 -0.417395 0)
(0.374733 -0.43359 0)
(0.367751 -0.444764 0)
(0.358098 -0.443829 0)
(0.337482 -0.426991 0)
(0.317138 -0.394248 0)
(0.308841 -0.359281 0)
(0.295105 -0.328278 0)
(0.273283 -0.298624 0)
(0.246584 -0.2672 0)
(0.217291 -0.229537 0)
(0.187074 -0.180718 0)
(0.156184 -0.12033 0)
(0.131974 -0.050539 0)
(0.11488 0.0043713 0)
(0.0940372 0.03489 0)
(0.0731818 0.0405503 0)
(0.0543375 0.0231951 0)
(0.0367562 -0.0143235 0)
(0.021349 -0.0664445 0)
(0.00844866 -0.136168 0)
(-0.00613259 -0.227755 0)
(-0.0175981 -0.340477 0)
(-0.0299329 -0.480599 0)
(-0.0562694 -0.569439 0)
(-0.108773 -0.465545 0)
(-0.109772 -0.360331 0)
(-0.107612 -0.303006 0)
(-0.11762 -0.2447 0)
(-0.132444 -0.175682 0)
(-0.139204 -0.108282 0)
(-0.342972 -0.25348 0)
(-0.368285 -0.256178 0)
(-0.390487 -0.249123 0)
(-0.406315 -0.232045 0)
(-0.41536 -0.204934 0)
(-0.416234 -0.17146 0)
(-0.411624 -0.132069 0)
(-0.403337 -0.0893104 0)
(-0.390719 -0.042883 0)
(-0.374328 0.00352424 0)
(-0.353148 0.0477335 0)
(-0.329444 0.0837842 0)
(-0.305966 0.107111 0)
(-0.283813 0.116694 0)
(-0.26411 0.110522 0)
(-0.245416 0.0858363 0)
(-0.228327 0.0483034 0)
(-0.211048 0.0160004 0)
(-0.19229 -0.0023143 0)
(-0.173479 -0.0126082 0)
(-0.153905 -0.0153886 0)
(-0.134889 -0.0090879 0)
(-0.11664 0.00448672 0)
(-0.0977085 0.02218 0)
(-0.0760492 0.0421859 0)
(-0.0519772 0.0638584 0)
(-0.0248972 0.0858148 0)
(0.00759343 0.110888 0)
(0.0417171 0.137476 0)
(0.0773462 0.166193 0)
(0.114718 0.197386 0)
(0.152995 0.230433 0)
(0.191342 0.264367 0)
(0.229067 0.29843 0)
(0.265365 0.33141 0)
(0.299575 0.362466 0)
(0.330939 0.390363 0)
(0.358841 0.413686 0)
(0.382826 0.432053 0)
(0.403074 0.444718 0)
(0.419395 0.45103 0)
(0.431804 0.453394 0)
(0.441485 0.452249 0)
(0.449425 0.450568 0)
(0.455088 0.451043 0)
(0.458022 0.451428 0)
(0.459432 0.450395 0)
(0.459071 0.448045 0)
(0.456184 0.44461 0)
(0.449704 0.440832 0)
(0.437903 0.435549 0)
(0.419377 0.427926 0)
(0.39556 0.419847 0)
(0.374479 0.413614 0)
(0.364849 0.406723 0)
(0.367182 0.390398 0)
(0.377002 0.361964 0)
(0.389387 0.320044 0)
(0.397051 0.255924 0)
(0.401424 0.165812 0)
(0.410932 0.0691578 0)
(0.40687 -0.00417787 0)
(0.383078 -0.0512576 0)
(0.365382 -0.0846833 0)
(0.353318 -0.125226 0)
(0.340721 -0.183174 0)
(0.334243 -0.235942 0)
(0.335115 -0.280475 0)
(0.3398 -0.317964 0)
(0.345473 -0.350851 0)
(0.350436 -0.379641 0)
(0.353893 -0.402192 0)
(0.356329 -0.41795 0)
(0.357977 -0.427074 0)
(0.359533 -0.429954 0)
(0.360638 -0.424924 0)
(0.360982 -0.412212 0)
(0.368637 -0.403852 0)
(0.377048 -0.398788 0)
(0.379931 -0.396002 0)
(0.38069 -0.400079 0)
(0.382161 -0.412445 0)
(0.38626 -0.430315 0)
(0.382946 -0.446301 0)
(0.373394 -0.45824 0)
(0.362056 -0.454644 0)
(0.33842 -0.437463 0)
(0.319762 -0.404893 0)
(0.3088 -0.370442 0)
(0.291259 -0.340722 0)
(0.267923 -0.311704 0)
(0.239978 -0.279923 0)
(0.209578 -0.242498 0)
(0.177308 -0.195057 0)
(0.143553 -0.13604 0)
(0.11348 -0.0648249 0)
(0.0952649 -0.00250813 0)
(0.0762854 0.0333716 0)
(0.0564625 0.0420496 0)
(0.0393347 0.026259 0)
(0.025613 -0.00879887 0)
(0.0145852 -0.0596671 0)
(0.00838019 -0.128308 0)
(0.000562504 -0.217925 0)
(-0.00265141 -0.326399 0)
(-0.0122041 -0.45752 0)
(-0.037986 -0.535529 0)
(-0.0961432 -0.43694 0)
(-0.102707 -0.339418 0)
(-0.103771 -0.284751 0)
(-0.118464 -0.22746 0)
(-0.137217 -0.160855 0)
(-0.144292 -0.09863 0)
(-0.350052 -0.235865 0)
(-0.379605 -0.242893 0)
(-0.406645 -0.23973 0)
(-0.425927 -0.227528 0)
(-0.436956 -0.204805 0)
(-0.438952 -0.175043 0)
(-0.434423 -0.140043 0)
(-0.425469 -0.100689 0)
(-0.411725 -0.0584451 0)
(-0.393151 -0.015508 0)
(-0.369962 0.0263486 0)
(-0.344693 0.0601181 0)
(-0.319074 0.0830034 0)
(-0.294063 0.0927609 0)
(-0.270189 0.0864216 0)
(-0.246736 0.0621396 0)
(-0.224004 0.0256826 0)
(-0.201324 -0.003726 0)
(-0.178312 -0.0218898 0)
(-0.156163 -0.0336957 0)
(-0.135525 -0.0357094 0)
(-0.119022 -0.0264841 0)
(-0.105806 -0.0104453 0)
(-0.0911774 0.00507194 0)
(-0.0728971 0.0197621 0)
(-0.0537209 0.0377447 0)
(-0.0310932 0.0495473 0)
(-0.00310387 0.0685877 0)
(0.0278209 0.092233 0)
(0.0607498 0.118797 0)
(0.0964351 0.151438 0)
(0.132921 0.190665 0)
(0.1697 0.23238 0)
(0.20619 0.273246 0)
(0.241959 0.31018 0)
(0.276539 0.343882 0)
(0.308763 0.373948 0)
(0.337821 0.400022 0)
(0.362976 0.421497 0)
(0.384029 0.437773 0)
(0.401089 0.448171 0)
(0.414226 0.453491 0)
(0.424298 0.454185 0)
(0.432158 0.451519 0)
(0.438102 0.446962 0)
(0.441726 0.443038 0)
(0.442809 0.440615 0)
(0.440469 0.439237 0)
(0.434666 0.438139 0)
(0.426484 0.436096 0)
(0.415532 0.43227 0)
(0.399976 0.426121 0)
(0.382198 0.41947 0)
(0.368781 0.413772 0)
(0.364058 0.406723 0)
(0.366712 0.390982 0)
(0.375277 0.365377 0)
(0.382785 0.319431 0)
(0.389678 0.261783 0)
(0.399426 0.171868 0)
(0.405975 0.0899341 0)
(0.39547 0.0278478 0)
(0.372065 -0.0132433 0)
(0.360537 -0.0524436 0)
(0.35082 -0.104965 0)
(0.341012 -0.168265 0)
(0.340358 -0.224818 0)
(0.344203 -0.273191 0)
(0.350718 -0.313668 0)
(0.357028 -0.348013 0)
(0.361857 -0.376418 0)
(0.364547 -0.398237 0)
(0.365341 -0.413758 0)
(0.36495 -0.423904 0)
(0.364108 -0.429024 0)
(0.3639 -0.429247 0)
(0.363414 -0.423144 0)
(0.363788 -0.41077 0)
(0.369455 -0.405673 0)
(0.374076 -0.40375 0)
(0.374851 -0.409016 0)
(0.377691 -0.422658 0)
(0.383213 -0.442019 0)
(0.381875 -0.461651 0)
(0.372431 -0.470136 0)
(0.355432 -0.46443 0)
(0.331682 -0.44529 0)
(0.315567 -0.41172 0)
(0.30131 -0.380239 0)
(0.281412 -0.350382 0)
(0.256693 -0.320068 0)
(0.22725 -0.286757 0)
(0.195761 -0.247961 0)
(0.161861 -0.200824 0)
(0.126092 -0.142493 0)
(0.0918936 -0.0723144 0)
(0.0708932 -0.00428314 0)
(0.0527043 0.0350198 0)
(0.034263 0.0446406 0)
(0.0200011 0.0290513 0)
(0.0108906 -0.00582515 0)
(0.00481031 -0.0567585 0)
(0.00469013 -0.124653 0)
(0.00357683 -0.214909 0)
(0.00701059 -0.318333 0)
(0.000524061 -0.437115 0)
(-0.0262913 -0.495935 0)
(-0.0866812 -0.402994 0)
(-0.0976294 -0.314335 0)
(-0.102562 -0.262675 0)
(-0.12145 -0.207464 0)
(-0.141873 -0.144702 0)
(-0.148825 -0.0883851 0)
(-0.348998 -0.212998 0)
(-0.381909 -0.224768 0)
(-0.413005 -0.226765 0)
(-0.436484 -0.220044 0)
(-0.449728 -0.203371 0)
(-0.453439 -0.178113 0)
(-0.448988 -0.148247 0)
(-0.438927 -0.11325 0)
(-0.424245 -0.0750279 0)
(-0.404826 -0.0356809 0)
(-0.3805 0.00212526 0)
(-0.352912 0.0343654 0)
(-0.324723 0.0560493 0)
(-0.29638 0.0646053 0)
(-0.268224 0.0572205 0)
(-0.240116 0.0339055 0)
(-0.21185 0.0014172 0)
(-0.184001 -0.0267385 0)
(-0.158131 -0.047488 0)
(-0.136146 -0.0581419 0)
(-0.121482 -0.0550234 0)
(-0.114552 -0.0401211 0)
(-0.111992 -0.0197281 0)
(-0.110968 -0.00523194 0)
(-0.122228 0.0111701 0)
(-0.130226 0.0263495 0)
(-0.11913 0.0372031 0)
(-0.0950452 0.0497549 0)
(-0.0651624 0.0634329 0)
(-0.0282949 0.0793634 0)
(0.019975 0.100562 0)
(0.0735378 0.128635 0)
(0.123038 0.167731 0)
(0.166762 0.214984 0)
(0.206596 0.265296 0)
(0.243883 0.314245 0)
(0.278166 0.353724 0)
(0.309495 0.385338 0)
(0.337033 0.409817 0)
(0.36014 0.428608 0)
(0.378492 0.441781 0)
(0.392395 0.449708 0)
(0.402836 0.4529 0)
(0.41041 0.452052 0)
(0.415704 0.448268 0)
(0.418537 0.443409 0)
(0.419077 0.43886 0)
(0.416753 0.435525 0)
(0.411334 0.434182 0)
(0.40365 0.433516 0)
(0.393549 0.431117 0)
(0.381273 0.426621 0)
(0.369146 0.421347 0)
(0.361742 0.415963 0)
(0.359965 0.40714 0)
(0.363549 0.392353 0)
(0.365961 0.361184 0)
(0.37533 0.322586 0)
(0.383051 0.256412 0)
(0.38225 0.177454 0)
(0.389778 0.113638 0)
(0.371996 0.0601535 0)
(0.355831 0.0204976 0)
(0.348746 -0.0255734 0)
(0.342824 -0.0910537 0)
(0.338842 -0.158087 0)
(0.342366 -0.217778 0)
(0.348639 -0.268477 0)
(0.356485 -0.310294 0)
(0.362793 -0.344531 0)
(0.366661 -0.371531 0)
(0.367635 -0.391671 0)
(0.366163 -0.40618 0)
(0.36333 -0.416507 0)
(0.360222 -0.423447 0)
(0.357423 -0.42725 0)
(0.355659 -0.425865 0)
(0.353564 -0.418495 0)
(0.355183 -0.412096 0)
(0.359203 -0.411566 0)
(0.361185 -0.418254 0)
(0.365523 -0.433496 0)
(0.371627 -0.453234 0)
(0.370032 -0.472962 0)
(0.358816 -0.480113 0)
(0.338319 -0.471402 0)
(0.318914 -0.447476 0)
(0.304719 -0.41629 0)
(0.287039 -0.38568 0)
(0.264802 -0.354732 0)
(0.238009 -0.322462 0)
(0.206958 -0.286987 0)
(0.174393 -0.245945 0)
(0.139214 -0.198017 0)
(0.102149 -0.139778 0)
(0.0655215 -0.07126 0)
(0.041708 -0.00124251 0)
(0.0234454 0.0390265 0)
(0.00690874 0.0470333 0)
(-0.00273986 0.0289967 0)
(-0.00697647 -0.00651594 0)
(-0.00694188 -0.0578342 0)
(-0.00158495 -0.125757 0)
(0.00516652 -0.217756 0)
(0.0122249 -0.314954 0)
(0.00936736 -0.41665 0)
(-0.0215394 -0.453041 0)
(-0.0815516 -0.365545 0)
(-0.0944604 -0.286498 0)
(-0.10379 -0.237701 0)
(-0.125666 -0.185561 0)
(-0.145905 -0.127724 0)
(-0.152307 -0.0785808 0)
(-0.33781 -0.185995 0)
(-0.374053 -0.200522 0)
(-0.407265 -0.209581 0)
(-0.435386 -0.209372 0)
(-0.452459 -0.199784 0)
(-0.458934 -0.180424 0)
(-0.454637 -0.155193 0)
(-0.441737 -0.124905 0)
(-0.424587 -0.0909383 0)
(-0.403857 -0.0561002 0)
(-0.379249 -0.0224593 0)
(-0.351188 0.00646643 0)
(-0.320845 0.0262855 0)
(-0.289673 0.0333624 0)
(-0.258192 0.0256769 0)
(-0.226399 0.00370731 0)
(-0.194294 -0.0250432 0)
(-0.165862 -0.052933 0)
(-0.145333 -0.0694112 0)
(-0.138284 -0.0647167 0)
(-0.145744 -0.0431564 0)
(-0.165864 -0.0243464 0)
(-0.191867 -0.00627547 0)
(-0.195367 0.0135219 0)
(-0.188599 0.0248512 0)
(-0.178924 0.0330567 0)
(-0.163523 0.040884 0)
(-0.14386 0.0488338 0)
(-0.121051 0.0597197 0)
(-0.0929404 0.0737768 0)
(-0.0605449 0.0918248 0)
(-0.0229066 0.112037 0)
(0.0255299 0.137192 0)
(0.0810501 0.170392 0)
(0.140887 0.211009 0)
(0.192992 0.256817 0)
(0.233857 0.308381 0)
(0.269332 0.357525 0)
(0.300094 0.392707 0)
(0.326981 0.417467 0)
(0.348598 0.434012 0)
(0.364768 0.443946 0)
(0.37639 0.448981 0)
(0.384435 0.449752 0)
(0.389755 0.447325 0)
(0.392285 0.443356 0)
(0.392564 0.43935 0)
(0.39051 0.436033 0)
(0.38585 0.434344 0)
(0.378944 0.433488 0)
(0.371188 0.431561 0)
(0.362443 0.427925 0)
(0.354973 0.423408 0)
(0.351538 0.41671 0)
(0.353005 0.408377 0)
(0.350443 0.386164 0)
(0.356213 0.358209 0)
(0.361223 0.314325 0)
(0.356677 0.244029 0)
(0.370294 0.192181 0)
(0.359448 0.135375 0)
(0.342825 0.0916178 0)
(0.336075 0.046351 0)
(0.33286 -0.00860158 0)
(0.330131 -0.0823185 0)
(0.333509 -0.152212 0)
(0.340252 -0.213736 0)
(0.347934 -0.264983 0)
(0.355828 -0.30666 0)
(0.360991 -0.339432 0)
(0.362738 -0.363932 0)
(0.361087 -0.381803 0)
(0.357046 -0.395192 0)
(0.351986 -0.405753 0)
(0.346435 -0.41434 0)
(0.341858 -0.420981 0)
(0.338048 -0.422609 0)
(0.331933 -0.419678 0)
(0.331743 -0.416176 0)
(0.336843 -0.417228 0)
(0.34057 -0.427478 0)
(0.346609 -0.44494 0)
(0.350378 -0.465381 0)
(0.345758 -0.482548 0)
(0.333535 -0.485248 0)
(0.316492 -0.473079 0)
(0.301111 -0.447986 0)
(0.284384 -0.418999 0)
(0.264103 -0.38831 0)
(0.239795 -0.355638 0)
(0.211143 -0.320488 0)
(0.178915 -0.281615 0)
(0.145305 -0.237659 0)
(0.10883 -0.187601 0)
(0.07103 -0.129065 0)
(0.0330633 -0.0618382 0)
(0.00731062 0.00757324 0)
(-0.0113974 0.0442679 0)
(-0.0226571 0.0464162 0)
(-0.026248 0.0262446 0)
(-0.0257553 -0.0108653 0)
(-0.0189219 -0.0632675 0)
(-0.00827854 -0.132916 0)
(0.00679816 -0.225541 0)
(0.0155044 -0.313903 0)
(0.014686 -0.3955 0)
(-0.0241658 -0.408069 0)
(-0.080266 -0.325907 0)
(-0.0932225 -0.256769 0)
(-0.107005 -0.210671 0)
(-0.130525 -0.162755 0)
(-0.149175 -0.111117 0)
(-0.154512 -0.0697351 0)
(-0.314317 -0.156029 0)
(-0.354363 -0.172088 0)
(-0.390027 -0.185689 0)
(-0.419457 -0.193209 0)
(-0.441198 -0.192339 0)
(-0.452766 -0.181902 0)
(-0.451591 -0.160829 0)
(-0.437338 -0.134541 0)
(-0.416323 -0.10593 0)
(-0.391923 -0.0756514 0)
(-0.365101 -0.0459381 0)
(-0.336603 -0.0206309 0)
(-0.306078 -0.00328499 0)
(-0.274131 0.00251193 0)
(-0.241612 -0.00545481 0)
(-0.208364 -0.0246702 0)
(-0.178756 -0.0495655 0)
(-0.158992 -0.0687593 0)
(-0.156687 -0.0631415 0)
(-0.175939 -0.0435354 0)
(-0.207679 -0.0242837 0)
(-0.226398 -0.0020923 0)
(-0.229686 0.0114513 0)
(-0.223651 0.0181513 0)
(-0.213072 0.0225533 0)
(-0.198133 0.0284839 0)
(-0.177446 0.0349528 0)
(-0.151203 0.0423485 0)
(-0.121287 0.0535011 0)