/*--------------------------------*- C++ -*----------------------------------*\
  =========                 |
  \\      /  F ield         | OpenFOAM: The Open Source CFD Toolbox
   \\    /   O peration     | Website:  https://openfoam.org
    \\  /    A nd           | Version:  11
     \\/     M anipulation  |
\*---------------------------------------------------------------------------*/
FoamFile
{
    format      ascii;
    class       surfaceScalarField;
    location    "1.5";
    object      phi;
}
// * * * * * * * * * * * * * * * * * * * * * * * * * * * * * * * * * * * * * //

dimensions      [0 3 -1 0 0 0 0];

internalField   nonuniform List<scalar> 
18960
(
0.0476113
0.00098156
-0.0485929
0.0455788
0.00203247
0.0423234
0.0032554
0.0402133
0.00211008
0.0403769
-0.000163541
0.041951
-0.00157409
0.0444039
-0.00245289
0.046548
-0.00214414
0.047824
-0.00127602
0.0484575
-0.000633515
0.0487343
-0.000276734
0.0488995
-0.000165265
0.0490847
-0.000185183
0.0492861
-0.000201363
0.0495848
-0.000298728
0.0499869
-0.00040207
0.0504818
-0.000494954
0.050989
-0.00050715
0.0513256
-0.000336629
0.0514678
-0.000142181
0.0514048
6.30168e-05
0.0510022
0.00040259
0.0504693
0.000532875
0.0497214
0.000747866
0.048929
0.000792428
0.0482639
0.000665125
0.0478467
0.000417196
0.0476519
0.000194762
0.0476272
2.47494e-05
0.0477636
-0.000136452
0.0480267
-0.000263031
0.0483365
-0.000309863
0.0487472
-0.000410674
0.0493384
-0.000591203
0.0499882
-0.000649822
0.0508841
-0.000895851
0.0518016
-0.000917561
0.0527781
-0.000976466
0.0543319
-0.00155382
-3.77817e-05
0.0543697
0.0473404
0.00172794
-0.0480868
0.0462376
0.0031353
0.0450276
0.0044654
0.0442766
0.00286104
0.0440943
1.87558e-05
0.0443166
-0.00179637
0.0441176
-0.00225394
0.043355
-0.0013815
0.042757
-0.00067805
0.0426599
-0.000536415
0.0430307
-0.000647555
0.0438022
-0.00093672
0.0447617
-0.00114467
0.0457838
-0.00122344
0.0468669
-0.00138192
0.0479696
-0.00150474
0.0490258
-0.00155118
0.0500435
-0.00152483
0.0508684
-0.00116153
0.0513742
-0.000647926
0.0515608
-0.000123571
0.0514925
0.000470837
0.0511036
0.000921741
0.05054
0.00131155
0.0497843
0.00154806
0.0489054
0.00154404
0.0479954
0.00132725
0.0470762
0.00111391
0.0463229
0.000778029
0.045663
0.000523495
0.0451728
0.000227142
0.0448192
4.37261e-05
0.0444848
-7.62546e-05
0.0441967
-0.000303072
0.0437785
-0.000231674
0.0433369
-0.000454253
0.0429049
-0.00048557
0.0425307
-0.00060225
0.0416235
-0.000646596
-0.0015075
0.0430932
0.0471402
0.0026873
-0.0480996
0.045823
0.00445254
0.0444451
0.00584327
0.0440367
0.00326943
0.0448564
-0.000800946
0.0459363
-0.00287621
0.0471402
-0.00345785
0.0483366
-0.00257791
0.0492319
-0.00157332
0.0497427
-0.00104726
0.049995
-0.00089984
0.050098
-0.00103973
0.0501689
-0.00121559
0.0502822
-0.00133666
0.0504851
-0.00158487
0.0507793
-0.00179892
0.0511477
-0.00191958
0.0515147
-0.00189187
0.0518166
-0.00146343
0.0519788
-0.000810052
0.0519789
-0.000123751
0.0516645
0.000785285
0.051187
0.0013992
0.0505833
0.0019153
0.0499793
0.00215209
0.0494454
0.00207789
0.0490717
0.00170094
0.0488276
0.00135807
0.0487583
0.000847332
0.048856
0.000425742
0.0490068
7.63117e-05
0.0493331
-0.000282562
0.0497101
-0.000453257
0.0502192
-0.000812188
0.0509105
-0.000922942
0.0517789
-0.00132267
0.0526068
-0.00131344
0.0537803
-0.00177572
0.0546579
-0.00152423
-0.000786839
0.0539372
0.0471517
0.00370292
-0.0481673
0.0459666
0.00563765
0.0458099
0.00599989
0.0468621
0.00221728
0.0478396
-0.00177847
0.0481688
-0.00320539
0.047484
-0.00277302
0.0459898
-0.0010838
0.0445732
-0.000156688
0.0439618
-0.000435815
0.0439998
-0.000937848
0.044449
-0.00148901
0.0452698
-0.00203636
0.0462662
-0.00233307
0.0473063
-0.0026249
0.0483611
-0.00285377
0.0493573
-0.00291577
0.0502678
-0.0028024
0.0510365
-0.00223211
0.0515054
-0.00127894
0.0516244
-0.000242722
0.0517013
0.000708342
0.0514141
0.00168635
0.0509215
0.00240789
0.0502691
0.0028045
0.049476
0.00287104
0.0486148
0.00256214
0.0477368
0.00223609
0.0468601
0.00172405
0.0461168
0.00116902
0.0454256
0.00076747
0.0450242
0.000118898
0.0445816
-1.07138e-05
0.0441346
-0.000365206
0.043733
-0.000521327
0.0433149
-0.000904507
0.0430047
-0.0010033
0.0425921
-0.00136313
0.0426836
-0.00161575
-0.00225693
0.0441537
0.0470673
0.00479492
-0.0481593
0.046351
0.00635396
0.0467698
0.00558103
0.0477871
0.00120004
0.0478783
-0.00186968
0.0473682
-0.00269528
0.0471541
-0.00255891
0.047779
-0.00170871
0.0488445
-0.00122218
0.0496126
-0.00120397
0.0500645
-0.00138972
0.050315
-0.00173947
0.0504491
-0.00217051
0.0505225
-0.00240644
0.0506817
-0.00278409
0.0509369
-0.00310899
0.0512345
-0.00321341
0.051524
-0.00309191
0.0517705
-0.00247856
0.0518902
-0.0013986
0.0519734
-0.000325931
0.051706
0.000975718
0.0513682
0.00202414
0.050876
0.00290014
0.0503364
0.00334405
0.0498479
0.00335951
0.0494789
0.00293118
0.049232
0.00248296
0.0491302
0.00182587
0.0492092
0.00109006
0.0493831
0.000593529
0.0495959
-9.39288e-05
0.0499877
-0.000402461
0.0504963
-0.000873846
0.0510427
-0.0010677
0.0517907
-0.00165254
0.052638
-0.00185055
0.0534405
-0.0021657
0.0537644
-0.00193962
-0.00152376
0.0530312
0.0469765
0.00583042
-0.048012
0.0466541
0.0066763
0.0476471
0.00458808
0.0489005
-5.34013e-05
0.049318
-0.00228718
0.049331
-0.00270828
0.0488249
-0.00205275
0.0478544
-0.000738218
0.0463846
0.000247594
0.0454533
-0.000272682
0.0452526
-0.00118899
0.0454703
-0.00195717
0.0460268
-0.00272703
0.0468599
-0.00323953
0.0478315
-0.00375574
0.0488268
-0.00410428
0.0497239
-0.00411051
0.0505296
-0.00389757
0.0512481
-0.00319703
0.0517194
-0.00186997
0.0518032
-0.000409749
0.0518984
0.00088054
0.0516622
0.00226036
0.0512675
0.00329478
0.050729
0.00388258
0.0500845
0.004004
0.0493133
0.00370236
0.0485036
0.00329265
0.0475721
0.00275744
0.0467395
0.0019226
0.0458906
0.00144248
0.0453542
0.000442414
0.0449297
2.21113e-05
0.0445057
-0.000449859
0.0441046
-0.000666606
0.0437267
-0.00127464
0.0433698
-0.00149366
0.0432685
-0.00206439
0.0436575
-0.00232859
-0.00294177
0.0450755
0.0470005
0.00656062
-0.0477307
0.0472465
0.00643031
0.0487091
0.00312543
0.0495031
-0.000847397
0.0492938
-0.00207787
0.0485046
-0.00191904
0.0475109
-0.00105905
0.0474128
-0.000640077
0.0482731
-0.000612705
0.049242
-0.00124162
0.0498854
-0.00183243
0.0503123
-0.00238401
0.0505733
-0.0029881
0.0506994
-0.00336562
0.0508507
-0.00390704
0.0510721
-0.00432559
0.0513445
-0.00438299
0.0516163
-0.00416931
0.0517752
-0.003356
0.0518899
-0.00198464
0.0520557
-0.000575538
0.0518307
0.00110552
0.051601
0.00249013
0.0512119
0.00368383
0.0507356
0.00435895
0.0502659
0.0044737
0.0498601
0.00410808
0.0496211
0.00353166
0.0494579
0.0029207
0.0495408
0.00183971
0.0497312
0.00125203
0.0498833
0.000290315
0.0501607
-0.000255276
0.0506459
-0.000935023
0.0510983
-0.001119
0.0516665
-0.00184293
0.0522565
-0.00208356
0.0526406
-0.0024485
0.0526947
-0.00238273
-0.00218
0.0519329
0.0472438
0.00689878
-0.047582
0.0480404
0.00563368
0.0496115
0.00155436
0.0500858
-0.00132172
0.0499526
-0.00194461
0.04949
-0.00145647
0.0489441
-0.000513107
0.0483609
-5.68946e-05
0.0476592
8.89559e-05
0.0468925
-0.000474937
0.0466016
-0.00154152
0.0466862
-0.00246856
0.0470151
-0.00331703
0.0476003
-0.00395082
0.0484625
-0.00476927
0.0493324
-0.00519548
0.050135
-0.00518554
0.0508624
-0.00489671
0.0514967
-0.00399034
0.0519483
-0.00243628
0.0520093
-0.000636444
0.0521768
0.000937925
0.0519763
0.00269072
0.0516146
0.00404551
0.051169
0.00480455
0.0506392
0.00500348
0.0499975
0.00474972
0.0492942
0.00423501
0.0484216
0.00379333
0.0475119
0.00274937
0.0465873
0.00217667
0.0458804
0.000997204
0.0453995
0.000225586
0.0449791
-0.000514615
0.0446947
-0.00083456
0.0443278
-0.00147607
0.0441649
-0.00192068
0.0442428
-0.00252632
0.0447023
-0.00284222
-0.00351058
0.0460328
0.0476551
0.00678734
-0.0475437
0.0490771
0.00421172
0.0503952
0.000236221
0.050457
-0.00138349
0.0499793
-0.00146688
0.0490705
-0.000547696
0.0482048
0.000352538
0.0477824
0.000365555
0.0481919
-0.000320519
0.0489471
-0.00123022
0.0496427
-0.00223707
0.0501516
-0.00297747
0.0505329
-0.00369836
0.0508041
-0.00422198
0.0509794
-0.00494459
0.0512266
-0.00544264
0.0514773
-0.00543623
0.0517419
-0.00516133
0.0518875
-0.00413596
0.0519654
-0.00251412
0.0521897
-0.000860837
0.0520344
0.00109327
0.0518919
0.00283321
0.0516274
0.00431006
0.0512103
0.00522158
0.0507537
0.00546009
0.0502643
0.00523917
0.0499771
0.00452218
0.0497981
0.00397231
0.0498451
0.00270237
0.0500326
0.00198919
0.0502105
0.00081932
0.0503381
9.7934e-05
0.0506845
-0.000860995
0.0510276
-0.0011777
0.0514261
-0.00187454
0.0517
-0.00219453
0.0517783
-0.00260471
0.0515873
-0.00265117
-0.00273625
0.050813
0.0484087
0.00607617
-0.0476975
0.0501358
0.00248457
0.0507971
-0.000425074
0.0505311
-0.0011175
0.0499313
-0.000867019
0.0492869
9.66801e-05
0.0489992
0.000640265
0.0488439
0.000520795
0.048377
0.000146447
0.0479079
-0.000761125
0.0477267
-0.00205587
0.0477802
-0.00303102
0.0480488
-0.00396694
0.0484883
-0.00466144
0.0491686
-0.00562493
0.0499032
-0.00617725
0.0505979
-0.00613097
0.0511897
-0.00575307
0.0517483
-0.00469455
0.0521818
-0.00294766
0.0522523
-0.000931317
0.0524113
0.00093428
0.0523082
0.00293625
0.0520113
0.004607
0.0516233
0.0056096
0.0511779
0.00590543
0.0506359
0.00578119
0.0500682
0.00508986
0.0493333
0.00470725
0.0484258
0.00360982
0.0474827
0.00293237
0.046618
0.001684
0.0461248
0.000591133
0.0456438
-0.000380021
0.0454125
-0.000946434
0.0451881
-0.00165009
0.0451257
-0.0021321
0.0453333
-0.0028123
0.0459181
-0.00323603
-0.00383011
0.047012
0.049498
0.00472847
-0.0481503
0.0509142
0.00106834
0.0510149
-0.000525772
0.0505846
-0.00068723
0.0499306
-0.000212944
0.0493105
0.000716758
0.0488874
0.00106334
0.0485597
0.000848456
0.0485656
0.000140576
0.0489733
-0.00116876
0.0495314
-0.00261397
0.0500393
-0.00353894
0.0504846
-0.00441232
0.0508555
-0.00503231
0.0511062
-0.00587565
0.0513866
-0.00645764
0.0516391
-0.0063834
0.0519152
-0.00602923
0.0520812
-0.00486054
0.0521592
-0.00302561
0.0523816
-0.00115379
0.0523395
0.000976422
0.0522417
0.00303401
0.0520587
0.00479
0.0517339
0.00593438
0.0513545
0.00628488
0.050832
0.00630372
0.0504285
0.00549337
0.0501726
0.00496316
0.0501555
0.0036269
0.0503618
0.00272607
0.050499
0.0015468
0.050564
0.000526094
0.0507119
-0.000527905
0.0508878
-0.00112229
0.0510739
-0.00183623
0.0510902
-0.00214845
0.0509578
-0.0026799
0.0506635
-0.00294168
-0.00325582
0.0500892
0.0506546
0.00307476
-0.0490009
0.0513445
0.000378391
0.0510305
-0.000211729
0.050477
-0.000133718
0.0498688
0.000395213
0.0494245
0.00116105
0.0491994
0.00128845
0.049186
0.000861903
0.0491153
0.000211204
0.0489135
-0.000966963
0.048708
-0.00240839
0.0487363
-0.00356723
0.0489952
-0.00467127
0.0493842
-0.00542131
0.0499412
-0.00643265
0.0505423
-0.0070587
0.0511162
-0.00695737
0.0516004
-0.00651339
0.0520363
-0.00529644
0.0524504
-0.00343974
0.0525405
-0.0012439
0.0527045
0.000812419
0.0526622
0.00307635
0.052427
0.0050252
0.0520708
0.00629063
0.0516915
0.00666415
0.0512678
0.00672745
0.0508248
0.00593632
0.0502216
0.00556636
0.0494176
0.00443086
0.0485208
0.00362291
0.0476226
0.00244501
0.0469713
0.00117742
0.0465696
-0.000126286
0.0462816
-0.000834291
0.0461633
-0.00171787
0.0462426
-0.00222772
0.046538
-0.00297532
0.0470936
-0.00349733
-0.00409631
0.0479341
0.0515304
0.00187981
-0.0503354
0.0514189
0.000489838
0.0509332
0.000273994
0.0503265
0.000472921
0.0498323
0.000889471
0.0495517
0.00144166
0.049395
0.00144514
0.0492072
0.00104966
0.0491198
0.000298686
0.0493013
-0.00114849
0.0496987
-0.00280581
0.0501219
-0.00399038
0.0505535
-0.00510292
0.0509828
-0.00585062
0.051303
-0.00675279
0.0516333
-0.00738902
0.0518951
-0.00721925
0.0521604
-0.00677865
0.0523836
-0.00551965
0.0524638
-0.00351992
0.0526754
-0.00145551
0.0527321
0.000755721
0.0526693
0.00313912
0.0525601
0.00513438
0.0522886
0.00656215
0.0519646
0.00698815
0.0515329
0.00715922
0.0510589
0.00641032
0.0507004
0.0059248
0.0505479
0.00458337
0.0506606
0.00351023
0.0508182
0.00228745
0.0508417
0.00115383
0.0507319
-1.6391e-05
0.050774
-0.000876485
0.0507543
-0.00169814
0.0506098
-0.00208324
0.0503953
-0.00276075
0.0500566
-0.00315866
-0.00369089
0.0496512
0.0517528
0.00155954
-0.0514325
0.0513266
0.000915975
0.0507777
0.000822918
0.0502108
0.00103984
0.0498526
0.00124764
0.0497156
0.00157868
0.0495991
0.00156159
0.0494958
0.00115305
0.0495697
0.00022475
0.0496994
-0.00127819
0.0496687
-0.00277513
0.0496887
-0.00401038
0.0499068
-0.00532105
0.0502679
-0.00621171
0.0507374
-0.00722231
0.0512168
-0.00786842
0.051682
-0.00768437
0.0520538
-0.00715052
0.0523868
-0.00585257
0.0527409
-0.00387407
0.0529006
-0.00161516
0.0530295
0.000626737
0.0530528
0.00311587
0.0528844
0.00530273
0.0526215
0.00682512
0.0523021
0.0073075
0.0519329
0.00752843
0.0515583
0.00678493
0.0510938
0.00638926
0.0504211
0.0052561
0.0496218
0.00430951
0.0487238
0.00318551
0.0479624
0.00191521
0.0475431
0.000402924
0.0472601
-0.000593469
0.0472102
-0.00164824
0.0473955
-0.0022686
0.0477069
-0.00307215
0.0482252
-0.00367692
-0.00418055
0.0487148
0.0516782
0.00178963
-0.0519083
0.0511594
0.00143473
0.0506086
0.00137372
0.0501132
0.00153521
0.0498611
0.00149975
0.0498207
0.00161909
0.0497797
0.00160264
0.0498056
0.00112716
0.0498061
0.000224203
0.049858
-0.00133011
0.0500591
-0.0029762
0.0504266
-0.00437791
0.0508233
-0.00571771
0.0512611
-0.00664952
0.0516263
-0.0075875
0.0519446
-0.00818672
0.052217
-0.00795679
0.0524726
-0.00740607
0.0527149
-0.00609494
0.0528597
-0.00401879
0.0530546
-0.0018101
0.0531799
0.000501439
0.0531587
0.00313703
0.0530938
0.00536763
0.0528794
0.00703959
0.0526303
0.00755652
0.0523092
0.00784954
0.0518851
0.00720904
0.0514436
0.00683077
0.0511365
0.00556325
0.0510563
0.00438964
0.0511739
0.00306793
0.0511525
0.00193663
0.0509482
0.0006072
0.0507198
-0.000365083
0.050536
-0.00146441
0.0502731
-0.00200574
0.0500463
-0.00284527
0.0497833
-0.00341399
-0.00401656
0.0496193
0.0515351
0.00221503
-0.0519605
0.0510115
0.00195836
0.0505201
0.00186515
0.0501393
0.00191599
0.0499415
0.00169756
0.0499525
0.00160811
0.0500361
0.00151902
0.0500976
0.00106562
0.0501739
0.000147892
0.0503215
-0.00147764
0.0504411
-0.00309586
0.0505763
-0.00451303
0.0508047
-0.00594615
0.0511421
-0.00698696
0.0515146
-0.00796001
0.0518979
-0.00857002
0.0522299
-0.00828869
0.0525381
-0.00771436
0.0528125
-0.00636934
0.0531038
-0.00431009
0.0533355
-0.0020418
0.0534444
0.000392598
0.0534899
0.00309149
0.0534606
0.0053969
0.0532749
0.00722533
0.0530538
0.00777757
0.0527082
0.0081952
0.0523541
0.00756308
0.0520129
0.00717202
0.0514711
0.00610502
0.0507563
0.00510446
0.0499615
0.00386278
0.0491933
0.00270481
0.0487016
0.00109891
0.0484252
-8.86902e-05
0.0483082
-0.00134744
0.0484903
-0.0021878
0.048772
-0.003127
0.0491101
-0.00375205
-0.00427771
0.0493712
0.0514597
0.00264099
-0.0518857
0.0510062
0.00241192
0.0505623
0.00230902
0.0502466
0.00223165
0.0500891
0.00185514
0.0501514
0.00154577
0.0503017
0.0013687
0.0504202
0.00094711
0.0505732
-5.12244e-06
0.0506274
-0.00153178
0.0507247
-0.00319315
0.0509584
-0.00474676
0.0513018
-0.0062895
0.0516895
-0.00737467
0.0520211
-0.0082916
0.0523527
-0.00890165
0.0526203
-0.00855631
0.0528531
-0.00794715
0.053131
-0.00664723
0.0533644
-0.0045435
0.0535304
-0.00220783
0.0536752
0.000247828
0.0537236
0.00304307
0.0537492
0.00537128
0.0536257
0.00734881
0.05342
0.00798333
0.0531482
0.00846696
0.0527851
0.00792621
0.0523844
0.00757274
0.0519691
0.00652032
0.0516634
0.00541016
0.0516122
0.00391396
0.051569
0.00274796
0.0513518
0.00131613
0.0509319
0.000331182
0.0506093
-0.00102482
0.0501874
-0.00176586
0.0499269
-0.00286649
0.049791
-0.00361623
-0.00429704
0.0498104
0.0512544
0.00306822
-0.0516816
0.0509171
0.00274917
0.050597
0.00262915
0.0503575
0.00247115
0.0502619
0.00195071
0.0503344
0.00147329
0.0505425
0.0011606
0.0507454
0.000744186
0.0509083
-0.000167994
0.0510083
-0.00163183
0.0511674
-0.00335217
0.051381
-0.00496039
0.0516181
-0.00652662
0.051913
-0.00766951
0.0521708
-0.00854946
0.0524927
-0.00922357
0.0528515
-0.00891507
0.0530989
-0.00819455
0.0533701
-0.0069184
0.0536426
-0.00481604
0.0538274
-0.0023926
0.0539451
0.000130111
0.0540675
0.00292061
0.0541307
0.00530815
0.0540764
0.00740305
0.0538889
0.00817087
0.0536062
0.00874967
0.0532348
0.0082976
0.0529054
0.00790217
0.0525585
0.00686719
0.0519518
0.00601689
0.0512732
0.00459251
0.0505221
0.00349906
0.0499899
0.0018483
0.0497104
0.000610684
0.0495173
-0.000831663
0.0495783
-0.00182691
0.0496418
-0.00292999
0.0497111
-0.00368545
-0.00444279
0.0498568
0.0510981
0.00345436
-0.0514842
0.0508474
0.00299987
0.0506517
0.00282484
0.0504869
0.00263589
0.0504339
0.00200373
0.0505599
0.00134725
0.0508195
0.000901058
0.051088
0.000475673
0.0513026
-0.000382637
0.0514709
-0.00180008
0.0516009
-0.00348216
0.0517517
-0.0051112
0.0519518
-0.00672679
0.0522897
-0.00800732
0.0526192
-0.00887902
0.0529171
-0.00952146
0.0532741
-0.00927205
0.0534917
-0.00841215
0.0537064
-0.00713314
0.0539481
-0.00505771
0.0541311
-0.00257563
0.0542772
-1.5927e-05
0.0543906
0.00280717
0.0544943
0.00520451
0.0545188
0.00737846
0.0543781
0.00831159
0.0541071
0.00902068
0.0537775
0.00862726
0.0534103
0.00826931
0.0530048
0.0072727
0.0525773
0.00644439
0.0522989
0.00487089
0.0521288
0.00366918
0.0518632
0.00211387
0.0514376
0.00103633
0.0510404
-0.000434468
0.0506132
-0.00139967
0.0503309
-0.00264775
0.050159
-0.00351354
-0.00446789
0.0501841
0.0510345
0.00378146
-0.0513616
0.0508538
0.0031805
0.0507276
0.00295106
0.0506397
0.00272382
0.0506341
0.0020093
0.0508043
0.0011771
0.0510861
0.000619249
0.051405
0.000156793
0.0516973
-0.000674961
0.0519107
-0.00201345
0.0520633
-0.0036348
0.0522467
-0.00529457
0.0524119
-0.00689207
0.052728
-0.00832339
0.0530062
-0.00915717
0.0532462
-0.0097615
0.0535732
-0.00959909
0.0538419
-0.00868081
0.054025
-0.00731621
0.0542739
-0.00530663
0.0544539
-0.00275559
0.054632
-0.000194041
0.0547506
0.00268855
0.054908
0.00504713
0.0549841
0.00730232
0.0549264
0.0083693
0.0546645
0.00928256
0.0543519
0.00893992
0.0539786
0.00864262
0.0536495
0.00760176
0.0532637
0.00683019
0.0526714
0.00546323
0.0519986
0.00434194
0.0514673
0.00264516
0.0510813
0.00142239
0.0508236
-0.000176834
0.0506665
-0.00124254
0.0505632
-0.00254443
0.0504039
-0.00335424
-0.00446931
0.0504053
0.0510714
0.00406256
-0.0513525
0.0509181
0.00333386
0.0508653
0.00300384
0.0508533
0.00273575
0.0508818
0.00198088
0.0510461
0.00101272
0.0513608
0.000304616
0.0517393
-0.000221704
0.0521083
-0.00104398
0.0523734
-0.00227861
0.052584
-0.00384535
0.0527857
-0.00549624
0.0529333
-0.00703974
0.0531859
-0.00857598
0.0534664
-0.00943762
0.053658
-0.0099531
0.0539673
-0.00990839
0.0542493
-0.00896286
0.0543971
-0.007464
0.0546185
-0.005528
0.0548043
-0.00294144
0.0550159
-0.00040556
0.0551702
0.00253423
0.0553208
0.00489651
0.0554635
0.00715962
0.0554763
0.00835646
0.0553357
0.00942322
0.0550335
0.0092421
0.0546702
0.00900587
0.0543175
0.00795454
0.0539092
0.00723843
0.0534517
0.00592077
0.0530625
0.00473113
0.0526553
0.00305238
0.0522279
0.00184974
0.0517963
0.000254832
0.0514075
-0.000853783
0.0511568
-0.00229369
0.0509224
-0.0031199
-0.00437082
0.0508239
0.051202
0.00427143
-0.0514108
0.0510577
0.00347815
0.051044
0.00301755
0.0511006
0.00267908
0.0511304
0.00195114
0.051317
0.000826132
0.0516651
-4.35547e-05
0.0520977
-0.000654304
0.052516
-0.00146228
0.052851
-0.00261359
0.0531197
-0.00411407
0.0533723
-0.00574878
0.0535733
-0.00724073
0.0537604
-0.00876314
0.0540129
-0.00969015
0.0541894
-0.0101296
0.054374
-0.010093
0.0546554
-0.00924426
0.054818
-0.00762659
0.0550042
-0.00571428
0.0552034
-0.00314063
0.0553886
-0.000590695
0.055601
0.00232183
0.0558126
0.00468489
0.055981
0.00699128
0.0560742
0.00826319
0.0560528
0.00944468
0.0558121
0.00948272
0.0554412
0.00937682
0.0550458
0.00834993
0.0546988
0.00758547
0.054331
0.00628857
0.0537893
0.00527277
0.0531579
0.00368382
0.0525762
0.00243143
0.0521744
0.000656633
0.0517899
-0.000469289
0.0515308
-0.00203462
0.0513123
-0.00290141
-0.00424411
0.0511856
0.0514168
0.00448025
-0.0516256
0.0512708
0.00362411
0.0512783
0.00301006
0.0513653
0.00259206
0.0514626
0.00185389
0.0516508
0.000637975
0.0519886
-0.000381429
0.052432
-0.00109773
0.0529128
-0.00194307
0.0533787
-0.00307943
0.0537385
-0.00447387
0.0540265
-0.0060368
0.0542722
-0.00748639
0.0544249
-0.0089159
0.0546151
-0.0098803
0.0547948
-0.0103093
0.0549066
-0.0102047
0.0551188
-0.0094565
0.0552908
-0.00779852
0.0554245
-0.00584803
0.0556097
-0.0033258
0.0558395
-0.000820514
0.056062
0.00209929
0.056324
0.00442291
0.0565565
0.00675876
0.0567057
0.00811399
0.0567649
0.00938551
0.0566583
0.00958935
0.0563554
0.00967965
0.0559071
0.00879829
0.0554861
0.00800646
0.0551089
0.00666579
0.0546743
0.00570738
0.0542173
0.00414081
0.0536792
0.00296949
0.0530968
0.00123906
0.0526126
1.489e-05
0.0522443
-0.00166633
0.0519219
-0.00257899
-0.00406011
0.0517379
0.0516229
0.00462835
-0.051771
0.0515134
0.00373356
0.0515467
0.00297676
0.0517054
0.00243342
0.0518407
0.00171859
0.0520034
0.00047523
0.0523311
-0.000709153
0.0528306
-0.00159721
0.0533811
-0.00249353
0.0539438
-0.00364211
0.0543748
-0.00490489
0.0547412
-0.00640322
0.05506
-0.00780514
0.0551992
-0.0090551
0.0553391
-0.0100203
0.0554982
-0.0104684
0.0555521
-0.0102587
0.0556538
-0.00955815
0.0557898
-0.00793459
0.0559274
-0.00598557
0.056064
-0.0034624
0.0563073
-0.00106386
0.0565819
0.00182469
0.0568811
0.0041237
0.0571642
0.00647573
0.0573944
0.00788373
0.0575277
0.00925223
0.0575071
0.00960991
0.0573388
0.009848
0.0569761
0.00916097
0.0564915
0.00849102
0.0560112
0.00714615
0.0555999
0.00611871
0.0551799
0.00456079
0.0546734
0.00347601
0.0540932
0.00181919
0.0534726
0.00063546
0.0529607
-0.00115436
0.0525003
-0.00211856
-0.00378035
0.0522205
0.0520807
0.00474399
-0.0521963
0.051976
0.00383822
0.0519675
0.00298523
0.052103
0.00229796
0.0522773
0.00154428
0.0524173
0.000335259
0.0527375
-0.00102941
0.0532638
-0.00212345
0.0538292
-0.00305897
0.0544713
-0.00428424
0.0550127
-0.0054462
0.0554193
-0.00680983
0.0557972
-0.00818305
0.0560384
-0.00929633
0.0561548
-0.0101367
0.0562572
-0.0105707
0.0562976
-0.0102991
0.0563122
-0.0095727
0.0563423
-0.0079647
0.0565167
-0.00616003
0.0566348
-0.00358044
0.0568338
-0.00126291
0.0571576
0.00150088
0.0575171
0.00376421
0.0578394
0.00615349
0.0581515
0.00757157
0.0583983
0.00900546
0.0584648
0.00954343
0.0583589
0.00995385
0.0581054
0.00941451
0.0577153
0.00888115
0.0572126
0.00764882
0.0566654
0.00666587
0.0561744
0.00505185
0.0557223
0.00392805
0.0552662
0.00227536
0.0546954
0.00120624
0.054161
-0.000620001
0.0536196
-0.00157719
-0.00334432
0.0531836
0.0523825
0.00476104
-0.0523996
0.0523292
0.00389157
0.0523558
0.00295861
0.0524956
0.0021582
0.0527317
0.00130816
0.0529523
0.000114664
0.0532682
-0.00134531
0.0537474
-0.00260264
0.0542899
-0.00360153
0.0549277
-0.00492201
0.0555802
-0.00609868
0.0560985
-0.00732816
0.0565091
-0.00859366
0.0568665
-0.00965373
0.057027
-0.0102971
0.0570968
-0.0106405
0.057099
-0.0103013
0.0570965
-0.00957022
0.0570608
-0.00792896
0.0571522
-0.00625141
0.0573094
-0.00373766
0.0574704
-0.00142389
0.0577416
0.00122969
0.0581782
0.00332756
0.0586108
0.00572093
0.0589503
0.00723203
0.0592739
0.0086819
0.0595297
0.0092876
0.0595579
0.00992559
0.0593745
0.00959798
0.0590234
0.00923225
0.05857
0.00810219
0.0580356
0.00720023
0.0574938
0.00559366
0.0569476
0.00447428
0.0564288
0.00279417
0.0558779
0.0017571
0.0553007
-4.2747e-05
0.0547626
-0.00103911
-0.00285323
0.0542715
0.0530876
0.00478107
-0.0531076
0.0530558
0.00392339
0.0530839
0.00293046
0.053199
0.00204315
0.0534269
0.00108029
0.0536471
-0.000105589
0.0538939
-0.00159206
0.0543068
-0.0030156
0.0548442
-0.00413892
0.055402
-0.00547977
0.056035
-0.00673172
0.0567122
-0.00800536
0.0572005
-0.00908192
0.0576113
-0.0100646
0.057837
-0.0105228
0.0579761
-0.0107796
0.0579584
-0.0102836
0.0579917
-0.00960351
0.0579463
-0.00788356
0.0579318
-0.00623694
0.0580513
-0.00385706
0.0582505
-0.00162318
0.0584784
0.00100186
0.0588835
0.00292248
0.0594158
0.00518856
0.0598923
0.00675559
0.0602416
0.00833262
0.0605442
0.00898492
0.0607778
0.00969205
0.0608176
0.00955814
0.0605854
0.00946447
0.0601974
0.00849014
0.0596352
0.0077625
0.0589874
0.00624139
0.058338
0.00512369
0.0577578
0.00337436
0.0571989
0.00231601
0.0565944
0.000561758
0.0560071
-0.000451759
-0.00232624
0.0554801
0.0534185
0.00474504
-0.0533825
0.0535476
0.00379428
0.0536697
0.00280837
0.0538745
0.0018384
0.0541425
0.000812286
0.0543921
-0.000355152
0.0546739
-0.00187386
0.0550062
-0.00334791
0.055494
-0.00462673
0.0560358
-0.0060216
0.0565759
-0.0072718
0.0572148
-0.00864425
0.0577485
-0.00961571
0.0582098
-0.0105258
0.0585012
-0.0108143
0.0587786
-0.011057
0.0588331
-0.0103381
0.0588539
-0.00962428
0.0588846
-0.00791428
0.0588836
-0.00623591
0.0589199
-0.00389335
0.0591411
-0.0018444
0.0594171
0.00072584
0.0597292
0.00261037
0.0602394
0.00467834
0.0608869
0.00610812
0.0614519
0.0077676
0.0618204
0.00861639
0.0620689
0.00944358
0.0622531
0.00937398
0.0622899
0.00942766
0.062098
0.008682
0.0616841
0.00817643
0.0610521
0.00687336
0.0602607
0.00591514
0.0594676
0.00416746
0.0587396
0.00304395
0.0581084
0.00119297
0.0574249
0.000231771
-0.00174651
0.0568452
0.0545359
0.00466817
-0.054459
0.0546979
0.00363222
0.0548233
0.00268302
0.054979
0.00168267
0.0551988
0.000592544
0.0554622
-0.000618548
0.0557137
-0.00212537
0.0560879
-0.00372218
0.0564664
-0.00500522
0.0568915
-0.00644672
0.0573247
-0.00770491
0.0578349
-0.00915446
0.0582791
-0.0100599
0.0587484
-0.0109951
0.0590633
-0.0111292
0.0593561
-0.0113498
0.0595448
-0.0105268
0.0596543
-0.00973381
0.0597177
-0.00797765
0.0598484
-0.00636659
0.0599478
-0.00399275
0.0601301
-0.00202679
0.0604438
0.000412229
0.0608276
0.00222651
0.061292
0.00421398
0.0618827
0.0055174
0.0625907
0.00705959
0.063236
0.00797108
0.0636775
0.00900214
0.0639218
0.00912965
0.0640312
0.00931821
0.0640226
0.00869059
0.063852
0.00834703
0.0634586
0.00726685
0.0627894
0.00658426
0.0619904
0.00496646
0.0610844
0.00394995
0.0602745
0.00200292
0.0594337
0.00107255
-0.000977783
0.058665
0.0550994
0.00451345
-0.0549447
0.0553042
0.00342743
0.0555331
0.00245407
0.0558601
0.00135571
0.0562283
0.00022429
0.0566211
-0.00101135
0.0568838
-0.00238806
0.057284
-0.0041223
0.0576816
-0.00540284
0.0580603
-0.0068254
0.0583557
-0.0080003
0.0587408
-0.00953963
0.059057
-0.0103761
0.0593976
-0.0113357
0.0596518
-0.0113835
0.0598649
-0.0115629
0.0600445
-0.0107065
0.0602192
-0.00990849
0.0603947
-0.00815308
0.0605926
-0.00656451
0.0608513
-0.00425145
0.0611702
-0.00234569
0.0616009
-1.84498e-05
0.0620566
0.00177073
0.0626108
0.00365984
0.0632197
0.00490844
0.0638635
0.00641582
0.0646039
0.00723068
0.0653603
0.00824574
0.0658975
0.00859251
0.0661492
0.00906645
0.0662107
0.00862909
0.0661257
0.00843205
0.0659706
0.00742197
0.0655916
0.00696328
0.0650153
0.00554273
0.0641533
0.00481191
0.0632415
0.00291474
0.0622163
0.00209777
0.000100817
0.0611377
0.0567879
0.00435493
-0.0566294
0.0570021
0.00321329
0.0572634
0.0021927
0.0575885
0.0010306
0.0579388
-0.000125967
0.0583512
-0.00142374
0.0585993
-0.00263615
0.0588884
-0.00441147
0.0592534
-0.00576776
0.0596889
-0.00726098
0.0599227
-0.00823408
0.0601211
-0.00973802
0.0603082
-0.0105632
0.0604674
-0.0114949
0.0605422
-0.0114583
0.0606112
-0.0116318
0.0606444
-0.0107398
0.0607132
-0.00997727
0.0608677
-0.00830756
0.0611339
-0.00683074
0.0615109
-0.00462843
0.0620068
-0.00284163
0.0626387
-0.000650351
0.0633327
0.00107675
0.0640395
0.00295306
0.0648168
0.00413115
0.0656102
0.00562244
0.0663549
0.00648601
0.0670891
0.0075115
0.0678626
0.00781898
0.0684987
0.0084304
0.0688953
0.00823243
0.0689482
0.00837918
0.0688507
0.00751952
0.068588
0.0072259
0.0682785
0.00585224
0.0677216
0.00536882
0.0669549
0.00368148
0.0659646
0.00308808
0.00120709
0.0648583
0.0576254
0.00400795
-0.0572784
0.0580383
0.0028003
0.05843
0.00180103
0.0588781
0.000582498
0.0592443
-0.000492136
0.0598178
-0.00199727
0.0602805
-0.00309882
0.0607068
-0.00483779
0.0610741
-0.00613503
0.061525
-0.00771194
0.0618535
-0.00856253
0.062048
-0.00993254
0.062059
-0.0105741
0.0620486
-0.0114846
0.0619704
-0.0113801
0.0618263
-0.0114876
0.0617222
-0.0106357
0.0616218
-0.00987693
0.0615774
-0.00826316
0.0616979
-0.00695122
0.0620194
-0.00494995
0.0625408
-0.00336301
0.063239
-0.00134857
0.0641964
0.000119341
0.0652688
0.00188063
0.0663614
0.00303862
0.0674001
0.00458366
0.0685023
0.00538389
0.0694483
0.00656547
0.070316
0.00695127
0.0710317
0.00771475
0.071717
0.00754711
0.0722075
0.00788868
0.072414
0.007313
0.0723083
0.00733157
0.0719387
0.00622183
0.0715125
0.00579506
0.0708171
0.00437688
0.0701079
0.00379729
0.0024115
0.0689035
0.060198
0.00376366
-0.0599537
0.0605504
0.0024479
0.0608681
0.00148331
0.061364
8.66901e-05
0.061794
-0.000922203
0.0623111
-0.00251435
0.0628328
-0.00362057
0.0633087
-0.00531364
0.0636273
-0.00645365
0.0639866
-0.00807122
0.0642493
-0.00882523
0.0643339
-0.0100172
0.0643005
-0.0105407
0.0641246
-0.0113087
0.0639361
-0.0111916
0.0636558
-0.0112073
0.0633602
-0.01034
0.063126
-0.00964269
0.0629925
-0.00812967
0.0629196
-0.00687838
0.0630337
-0.00506406
0.0634105
-0.00373973
0.0639546
-0.00189267
0.0648333
-0.000759367
0.0659616
0.000752347
0.0673811
0.00161911
0.0688396
0.00312509
0.0704293
0.00379425
0.0718904
0.00510433
0.073301
0.00554071
0.074384
0.00663177
0.075326
0.00660509
0.0760898
0.00712489
0.0767417
0.00666108
0.0771746
0.00689863
0.0772641
0.00613232
0.0771317
0.00592747
0.0766687
0.00483994
0.0761546
0.0043114
0.00318909
0.075377
0.0620537
0.00311091
-0.061401
0.0626738
0.00182782
0.0632047
0.000952399
0.0637029
-0.000411476
0.0642946
-0.00151389
0.0649039
-0.00312369
0.0654754
-0.00419205
0.0659396
-0.00577784
0.0662651
-0.00677921
0.0665005
-0.00830658
0.0667462
-0.00907093
0.0667698
-0.0100407
0.0666883
-0.0104593
0.0664016
-0.011022
0.0661082
-0.0108981
0.065709
-0.0108082
0.0653429
-0.00997393
0.0649437
-0.00924349
0.0646772
-0.00786316
0.064592
-0.00679315
0.0646346
-0.00510665
0.0648884
-0.0039935
0.0653845
-0.00238877
0.0661673
-0.00154219
0.0671141
-0.000194434
0.0683455
0.000387655
0.0698528
0.00161778
0.0715367
0.00211037
0.0733935
0.00324752
0.0751915
0.00374275
0.0770047