/*--------------------------------*- C++ -*----------------------------------*\
  =========                 |
  \\      /  F ield         | OpenFOAM: The Open Source CFD Toolbox
   \\    /   O peration     | Website:  https://openfoam.org
    \\  /    A nd           | Version:  11
     \\/     M anipulation  |
\*---------------------------------------------------------------------------*/
FoamFile
{
    format      ascii;
    class       volVectorField;
    location    "1.5";
    object      U;
}
// * * * * * * * * * * * * * * * * * * * * * * * * * * * * * * * * * * * * * //

dimensions      [0 1 -1 0 0 0 0];

internalField   nonuniform List<vector> 
9600
(
(0.978904 0.00248597 3.83977e-21)
(0.973824 0.00793896 0)
(0.940167 0.0168944 0)
(0.853565 0.0121063 6.77549e-23)
(0.819779 -0.0030828 0)
(0.821754 -0.0153647 -6.80946e-23)
(0.845333 -0.033571 -2.22938e-21)
(0.88225 -0.0531884 2.25324e-21)
(0.912069 -0.0644167 -2.10807e-21)
(0.936584 -0.0692461 2.11765e-21)
(0.957108 -0.0694722 0)
(0.974753 -0.0675433 -1.50859e-21)
(0.991694 -0.0649718 1.53315e-21)
(1.00846 -0.0623105 -1.24509e-23)
(1.02524 -0.0589561 -2.34277e-23)
(1.04374 -0.0557217 2.5032e-23)
(1.06269 -0.052237 0)
(1.08091 -0.0488788 6.37254e-22)
(1.09829 -0.0438245 -6.37844e-22)
(1.10877 -0.04017 3.6698e-24)
(1.11576 -0.0345559 -4.17139e-24)
(1.11409 -0.0292594 -1.13263e-21)
(1.10744 -0.0266998 1.13893e-21)
(1.09464 -0.0232734 0)
(1.0768 -0.0181679 0)
(1.05761 -0.0119842 -1.47999e-21)
(1.03833 -0.0058391 2.73035e-22)
(1.02326 0.00087431 1.2612e-21)
(1.01096 0.00759915 -2.83069e-23)
(1.00121 0.011638 2.26059e-23)
(0.995019 0.0175671 0)
(0.988642 0.0196091 -8.21888e-22)
(0.984977 0.0239577 8.02682e-22)
(0.981694 0.0266939 5.15635e-22)
(0.979841 0.0313747 -5.1345e-22)
(0.978633 0.0335323 -1.21666e-23)
(0.98044 0.0388324 0)
(0.980635 0.041673 -7.04878e-22)
(0.979636 0.0443772 7.02636e-22)
(0.969083 0.0636303 -9.74198e-24)
(0.976317 0.00326617 1.91339e-22)
(0.970907 0.00747046 0)
(0.949035 0.00914958 0)
(0.915193 0.00343015 -2.0634e-22)
(0.908547 -0.000862443 -4.30258e-21)
(0.914769 -0.00135361 6.69159e-21)
(0.943631 0.00911547 -2.21465e-21)
(0.968921 0.0310002 -7.05206e-23)
(0.977711 0.0499042 -6.83042e-23)
(0.9817 0.0606299 0)
(0.986023 0.06431 -5.75306e-23)
(0.994122 0.0636105 -1.41175e-21)
(1.00678 0.0609499 1.82058e-21)
(1.02018 0.0581538 -4.7374e-22)
(1.03566 0.0540114 -1.58911e-24)
(1.05217 0.0498478 0)
(1.0685 0.0457756 4.55548e-22)
(1.08557 0.0424842 -4.78606e-22)
(1.09929 0.0394196 4.4192e-22)
(1.10876 0.0379752 -4.45901e-22)
(1.11208 0.0345659 -5.60316e-22)
(1.11004 0.0320693 5.35379e-22)
(1.1033 0.0306429 0)
(1.08867 0.0287315 2.13327e-21)
(1.07259 0.0241487 -2.13066e-21)
(1.05459 0.0170861 -2.68711e-23)
(1.03558 0.00941435 1.27755e-21)
(1.01874 0.00134557 -1.28049e-21)
(1.00372 -0.00618908 9.00406e-23)
(0.992932 -0.0114952 1.29984e-21)
(0.98583 -0.0179829 -1.40656e-21)
(0.977347 -0.019981 8.84413e-22)
(0.975744 -0.0248532 -8.65275e-22)
(0.970516 -0.0287122 2.09916e-23)
(0.969336 -0.033566 -9.18092e-22)
(0.965036 -0.0373761 8.91229e-22)
(0.966359 -0.0425521 0)
(0.965589 -0.0455011 -6.20377e-22)
(0.968982 -0.0525518 6.26287e-22)
(0.962551 -0.0608384 2.9633e-23)
(0.97907 0.0062498 4.12709e-21)
(0.976507 0.0128985 -1.37367e-22)
(0.96223 0.0218681 0)
(0.928377 0.0148666 1.39635e-22)
(0.914364 -0.00298937 0)
(0.917778 -0.0153148 -2.5122e-21)
(0.92717 -0.0288004 -1.34582e-24)
(0.939781 -0.0433253 2.46812e-21)
(0.953576 -0.0566497 6.98843e-23)
(0.968162 -0.0662033 0)
(0.983196 -0.070392 1.72629e-22)
(0.997276 -0.0713905 -1.47483e-21)
(1.01173 -0.069899 1.51903e-21)
(1.02686 -0.0673191 3.29725e-23)
(1.04249 -0.0639621 -1.19638e-24)
(1.05951 -0.0604303 -1.10812e-23)
(1.07733 -0.0565674 4.63538e-22)
(1.09413 -0.0528869 2.16651e-22)
(1.10965 -0.0468753 -7.08435e-22)
(1.12013 -0.0414497 7.7924e-24)
(1.12584 -0.0345196 -8.8342e-24)
(1.12754 -0.026569 -1.18482e-21)
(1.12214 -0.0208192 1.20209e-21)
(1.10889 -0.0149602 2.19439e-21)
(1.09229 -0.00809259 -2.19017e-21)
(1.07437 -0.000917589 0)
(1.05632 0.00501997 4.71258e-23)
(1.04057 0.0105618 -1.56743e-22)
(1.02771 0.014812 -6.2522e-23)
(1.0179 0.0179969 1.54764e-22)
(1.01121 0.0223266 1.24921e-22)
(1.00445 0.0234226 -1.08796e-21)
(1.00228 0.0274588 1.80202e-22)
(0.996287 0.0290922 8.08699e-22)
(0.993198 0.0349408 3.48089e-23)
(0.99192 0.0367578 0)
(0.989667 0.0417539 2.57644e-23)
(0.990112 0.0438179 -8.41532e-22)
(0.990697 0.0508235 8.32508e-22)
(0.983024 0.0541078 -1.99384e-23)
(0.98413 0.00878769 2.79891e-22)
(0.981439 0.0169118 -1.40762e-22)
(0.970073 0.0209025 0)
(0.95815 0.00655614 0)
(0.95762 -0.011849 -4.3267e-21)
(0.96838 -0.0188636 4.47677e-21)
(0.988209 -0.0110851 2.10792e-21)
(1.00376 0.0108576 -2.13013e-21)
(1.00124 0.0336636 2.02809e-21)
(0.997191 0.0490836 -1.9089e-21)
(0.998219 0.0551853 -1.1631e-22)
(1.0008 0.0552981 -4.60096e-23)
(1.00897 0.0524841 -3.74105e-23)
(1.02359 0.0490796 -2.1501e-23)
(1.0382 0.0437389 -2.44241e-22)
(1.05488 0.0386234 -4.16785e-22)
(1.07136 0.0342194 1.2149e-21)
(1.08825 0.0313499 -5.42281e-22)
(1.10107 0.0301983 2.61621e-23)
(1.11344 0.0314753 -1.60262e-23)
(1.11462 0.0326897 6.0924e-22)
(1.11271 0.0324181 -1.83273e-21)
(1.10721 0.0327219 1.32498e-21)
(1.09496 0.0315423 1.50333e-22)
(1.07961 0.0274743 0)
(1.06349 0.0208116 0)
(1.04515 0.0131599 1.46539e-21)
(1.02864 0.00597247 -1.54854e-21)
(1.01314 -0.00205191 1.92364e-21)
(0.999234 -0.00840297 -2.02288e-21)
(0.991268 -0.0158773 -8.61362e-23)
(0.980821 -0.0190247 6.93015e-23)
(0.977323 -0.0236901 -6.13766e-23)
(0.974045 -0.0276784 6.27097e-22)
(0.973637 -0.0338424 -1.62712e-21)
(0.970805 -0.0383463 1.81151e-21)
(0.968737 -0.0427331 -7.77817e-22)
(0.969773 -0.04807 5.19608e-23)
(0.976821 -0.0532378 -7.35398e-23)
(0.97862 -0.0526996 4.43217e-23)
(0.98771 0.011724 4.26022e-21)
(0.987246 0.0206789 1.35955e-24)
(0.983545 0.0203509 0)
(0.975598 0.00316574 0)
(0.971676 -0.0120148 -2.96351e-22)
(0.965515 -0.0158915 4.5382e-22)
(0.957485 -0.0184706 -2.32154e-21)
(0.955606 -0.0253996 4.79047e-21)
(0.961907 -0.0408863 -2.47392e-21)
(0.973811 -0.0573692 -1.3271e-22)
(0.987568 -0.0664879 0)
(1.00153 -0.0703927 -2.85152e-21)
(1.01578 -0.071268 2.86622e-21)
(1.03077 -0.0694507 -2.0609e-22)
(1.04553 -0.0657682 1.74572e-22)
(1.06226 -0.062016 5.46243e-23)
(1.07933 -0.0575385 5.80728e-22)
(1.0947 -0.0531276 2.20601e-22)
(1.10983 -0.0468223 -7.47348e-22)
(1.12005 -0.0394252 8.2442e-24)
(1.12383 -0.0330017 6.10172e-22)
(1.12655 -0.0231813 -1.88988e-21)
(1.12259 -0.0143715 1.19765e-21)
(1.11013 -0.00586949 -1.54327e-22)
(1.09364 0.00197859 -1.43312e-22)
(1.07586 0.00847895 -1.84766e-21)
(1.05858 0.0130942 1.62778e-21)
(1.04233 0.0171666 -5.70234e-24)
(1.03048 0.0208381 1.47345e-22)
(1.01917 0.0225617 0)
(1.01316 0.0272275 9.78906e-23)
(1.0066 0.0264941 0)
(1.00401 0.0306005 1.929e-22)
(0.998087 0.0313473 0)
(0.994303 0.0364574 0)
(0.99013 0.0375344 1.21126e-21)
(0.987562 0.0414808 -1.26131e-21)
(0.988897 0.043912 -1.06963e-21)
(0.986695 0.0476485 9.95243e-22)
(0.979205 0.0453867 -4.47946e-23)
(0.991751 0.0153231 0)
(0.992415 0.0221793 1.41826e-24)
(0.988099 0.0166971 0)
(0.981535 -0.00509418 0)
(0.982046 -0.0182551 -4.91189e-21)
(0.987259 -0.0220435 2.17828e-21)
(0.996955 -0.0185217 4.79834e-21)
(1.01544 -0.0039945 -2.37737e-21)
(1.01994 0.016053 0)
(1.01328 0.0335391 0)
(1.01086 0.0419401 0)
(1.01224 0.0431596 -9.91263e-22)
(1.01585 0.0407405 1.11479e-21)
(1.02729 0.0372852 6.2025e-23)
(1.04127 0.0306505 -1.2939e-23)
(1.05761 0.0245828 7.32951e-22)
(1.07375 0.0202342 -2.14276e-22)
(1.09102 0.0179041 -6.07814e-22)
(1.10392 0.0184759 5.20741e-22)
(1.11666 0.0223696 -5.21258e-22)
(1.11999 0.0286687 -1.95548e-23)
(1.11742 0.0311108 -8.33147e-23)
(1.11113 0.0332292 1.69226e-22)
(1.09991 0.0333994 0)
(1.08597 0.0310896 1.47018e-22)
(1.07088 0.0268854 1.94368e-21)
(1.05355 0.0203958 -1.49107e-21)
(1.03687 0.0140128 -2.51149e-21)
(1.02177 0.00577905 4.71128e-21)
(1.00623 -0.00189497 -2.03943e-21)
(0.996153 -0.0104552 -1.68283e-21)
(0.985788 -0.016435 1.1874e-21)
(0.979925 -0.0217599 -1.33242e-22)
(0.97714 -0.0253624 -7.28041e-22)
(0.97666 -0.0312933 -4.65393e-22)
(0.974369 -0.0365108 1.09996e-21)
(0.973798 -0.0414521 0)
(0.975389 -0.0460027 -7.88088e-22)
(0.982047 -0.047825 -4.99316e-23)
(0.983784 -0.044463 8.05033e-22)
(0.997172 0.0197173 5.30189e-21)
(0.996613 0.0215928 1.49413e-24)
(0.992415 0.00954964 0)
(0.990316 -0.0115205 0)
(0.990812 -0.0179 4.69329e-21)
(0.99049 -0.0165327 -4.68544e-21)
(0.984444 -0.0122739 2.50579e-21)
(0.973997 -0.0135517 2.80921e-22)
(0.971982 -0.0237053 -2.51965e-21)
(0.978388 -0.044784 2.13921e-21)
(0.990085 -0.0590802 -1.92674e-21)
(1.00403 -0.0659577 -1.46044e-21)
(1.01897 -0.069188 1.49974e-21)
(1.03431 -0.069122 0)
(1.04911 -0.06602 -3.17255e-22)
(1.06527 -0.0620601 1.11168e-21)
(1.08163 -0.0570394 -1.38149e-22)
(1.09698 -0.0517665 2.28841e-22)
(1.11183 -0.0450447 -2.54605e-22)
(1.12085 -0.0358669 -5.16694e-22)
(1.12406 -0.0296499 -6.34856e-22)
(1.12731 -0.018661 -7.24278e-22)
(1.12401 -0.00737707 1.20098e-21)
(1.11231 0.00328361 2.58903e-21)
(1.09631 0.0116575 -2.58289e-21)
(1.0788 0.0169387 -2.04666e-21)
(1.06162 0.0201631 2.04752e-21)
(1.04498 0.0224563 2.01562e-22)
(1.03301 0.0257836 0)
(1.02148 0.0261148 2.24333e-21)
(1.01463 0.0309107 -1.87073e-21)
(1.00901 0.0300532 -1.33206e-21)
(1.00494 0.0333321 1.50319e-21)
(1.00008 0.0326248 1.1568e-21)
(0.994786 0.0370551 -9.17265e-22)
(0.989932 0.0368699 -5.41694e-24)
(0.986698 0.0403606 0)
(0.985551 0.0402934 -9.50768e-22)
(0.982636 0.0410114 2.81483e-22)
(0.974877 0.0357732 7.29252e-22)
(1.00027 0.0207446 4.23469e-21)
(0.99911 0.0183091 -3.02695e-22)
(0.995059 0.000149642 5.09997e-21)
(0.99514 -0.016515 -5.18209e-21)
(0.997854 -0.0205821 3.21198e-22)
(0.998585 -0.0196783 -3.22047e-22)
(0.999861 -0.0154053 0)
(1.00764 -0.00977415 1.68297e-21)
(1.02034 0.00074403 -2.32326e-21)
(1.02215 0.0154141 0)
(1.02094 0.0248417 1.05546e-21)
(1.02328 0.027459 -1.33517e-21)
(1.02603 0.0258471 -4.92726e-24)
(1.03341 0.0231408 0)
(1.04549 0.0157681 -4.4919e-22)
(1.061 0.00925376 3.76463e-22)
(1.07692 0.00514428 6.8019e-22)
(1.09399 0.00333737 2.35844e-22)
(1.10846 0.00619423 -4.13093e-22)
(1.11926 0.0117018 -6.0712e-22)
(1.12519 0.0222769 0)
(1.12389 0.0283109 -1.28617e-21)
(1.11722 0.0327081 1.27942e-21)
(1.10609 0.0348976 0)
(1.09233 0.0345077 3.2995e-22)
(1.07703 0.0327377 0)
(1.06063 0.0287391 1.34013e-21)
(1.04343 0.0234293 -5.10071e-21)
(1.0291 0.0164658 3.40583e-21)
(1.01317 0.00729588 -5.79535e-22)
(1.00135 -0.00181123 -1.33118e-21)
(0.990626 -0.010819 3.02585e-21)
(0.983179 -0.0183045 -1.41631e-21)
(0.980004 -0.0217757 8.68664e-22)
(0.979747 -0.0269801 -2.27717e-21)
(0.97859 -0.0321798 1.50979e-21)
(0.979023 -0.0368711 0)
(0.980756 -0.0394095 -9.98466e-22)
(0.983669 -0.0394572 -5.02478e-24)
(0.984486 -0.034033 9.44171e-22)
(1.002 0.0199123 0)
(1.00048 0.0120272 6.22571e-22)
(0.997905 -0.00948389 0)
(0.999212 -0.0196938 6.71414e-22)
(1.00169 -0.0205943 4.63324e-21)
(1.00471 -0.0155427 -2.72914e-21)
(1.00256 -0.00885609 -2.65307e-21)
(0.996737 -0.00861206 3.13915e-22)
(0.987378 -0.0156129 0)
(0.986517 -0.0329445 0)
(0.994031 -0.0497151 1.99944e-21)
(1.00638 -0.0594252 -1.95857e-21)
(1.02093 -0.064548 -1.7244e-22)
(1.03691 -0.0664485 -1.49496e-23)
(1.05223 -0.065286 -4.29587e-22)
(1.06806 -0.0617909 3.41922e-22)
(1.0848 -0.0564561 6.91956e-22)
(1.09967 -0.050356 2.41181e-22)
(1.1146 -0.043074 -3.62153e-22)
(1.12416 -0.0317905 -5.75493e-22)
(1.12646 -0.0248958 -4.47102e-23)
(1.12913 -0.0135979 -1.59332e-21)
(1.12656 -8.38527e-05 1.6861e-21)
(1.11587 0.0123935 1.86851e-22)
(1.10072 0.0215773 -6.86409e-22)
(1.08301 0.0261867 0)
(1.06529 0.0278014 2.21609e-21)
(1.04819 0.0278225 -1.49467e-21)
(1.03534 0.0301688 -3.66922e-22)
(1.02445 0.0295393 6.22031e-22)
(1.0159 0.0337047 -2.51303e-22)
(1.01111 0.0334347 -1.98533e-21)
(1.00635 0.0365623 2.11173e-21)
(1.00145 0.0334418 -2.91815e-22)
(0.994534 0.0363126 -1.17919e-22)
(0.989862 0.0359688 1.87789e-21)
(0.985883 0.0372601 -1.64701e-21)
(0.984184 0.034905 -1.19268e-21)
(0.978621 0.0337815 1.18471e-21)
(0.971914 0.0252964 0)
(1.00364 0.0173361 0)
(1.00145 0.00160867 0)
(0.99962 -0.0164439 6.19039e-21)
(1.00077 -0.0211232 -1.16066e-20)
(1.00322 -0.0199519 5.4785e-21)
(1.00611 -0.014314 0)
(1.00724 -0.0105977 2.6083e-21)
(1.00973 -0.0097379 -1.82088e-22)
(1.01597 -0.00878926 -2.15588e-21)
(1.02047 -0.00147994 0)
(1.02308 0.00560307 -2.24277e-22)
(1.02812 0.0091491 1.72037e-22)
(1.03354 0.00833793 3.37616e-22)
(1.04126 0.00659518 -2.08087e-22)
(1.05132 -0.000381354 0)
(1.0652 -0.00673671 -1.04222e-21)
(1.08127 -0.00995543 1.96679e-21)
(1.0975 -0.0111981 -1.90281e-21)
(1.11298 -0.0060017 1.02177e-21)
(1.12356 0.000990309 -1.17898e-24)
(1.13058 0.0141567 8.76884e-22)
(1.12992 0.0242472 -7.832e-22)
(1.12345 0.0313345 2.0244e-22)
(1.11331 0.0362103 -1.92312e-22)
(1.09998 0.0381762 3.57315e-22)
(1.08377 0.03821 0)
(1.06694 0.0371648 0)
(1.04899 0.0330686 -4.69968e-22)
(1.03544 0.0282586 2.88543e-21)
(1.01953 0.018607 -3.19952e-21)
(1.00725 0.00934797 0)
(0.995964 -0.00186763 1.70058e-21)
(0.987032 -0.01276 -1.64188e-21)
(0.983063 -0.0161086 1.16745e-21)
(0.982909 -0.0208998 -1.00591e-21)
(0.982626 -0.0258153 1.25441e-21)
(0.982775 -0.0292429 -1.45607e-21)
(0.983006 -0.0299076 0)
(0.983889 -0.0288957 0)
(0.984171 -0.022416 -1.1949e-22)
(1.00517 0.0109344 -9.01129e-23)
(1.0016 -0.0094226 6.14602e-21)
(1.00005 -0.0205367 -7.10077e-22)
(1.00056 -0.0214533 -7.06658e-22)
(1.00429 -0.0186658 -5.55332e-21)
(1.01008 -0.0124728 8.43158e-21)
(1.01094 -0.00860861 -2.7402e-21)
(1.01071 -0.00852128 2.48932e-21)
(1.00773 -0.0114122 -3.12652e-21)
(1.00111 -0.0243389 -2.37383e-21)
(1.0012 -0.0411242 4.07757e-21)
(1.01027 -0.0524359 -3.10717e-21)
(1.02334 -0.0593888 1.20669e-21)
(1.03921 -0.0628615 0)
(1.05514 -0.0639061 0)
(1.07109 -0.0618076 1.28653e-21)
(1.08856 -0.0566572 -6.167e-22)
(1.10327 -0.049828 -8.07359e-22)
(1.11817 -0.041888 -7.22015e-22)
(1.12916 -0.028533 6.90807e-22)
(1.13139 -0.0196619 -4.86162e-23)
(1.13299 -0.00809094 -1.65753e-21)
(1.13064 0.0071188 1.4449e-21)
(1.12071 0.0209938 3.17269e-21)
(1.10604 0.0311463 -3.16259e-21)
(1.08879 0.0361689 0)
(1.07138 0.0374166 0)
(1.05298 0.0347104 -5.19484e-22)
(1.03837 0.0352429 3.19249e-21)
(1.02683 0.0334748 -3.17307e-21)
(1.01761 0.0363106 -2.66587e-21)
(1.01283 0.0365663 5.33086e-23)
(1.0064 0.0396185 2.02762e-21)
(1.00232 0.0352285 1.43063e-21)
(0.995684 0.0351507 -3.75806e-21)
(0.989157 0.0338306 2.06449e-21)
(0.984317 0.0338527 2.08949e-22)
(0.980109 0.0291495 -1.34779e-21)
(0.975586 0.0259774 1.18182e-21)
(0.973479 0.0168152 -6.75474e-24)
(1.00484 0.000960091 -5.64219e-21)
(1.00094 -0.0179085 1.08893e-20)
(0.9995 -0.021994 -3.61245e-23)
(0.9999 -0.0211566 -1.15025e-20)
(1.00523 -0.0170689 7.2932e-21)
(1.01158 -0.0113066 0)
(1.01365 -0.00964336 0)
(1.0142 -0.0106011 6.52884e-22)
(1.01778 -0.0131474 3.13003e-22)
(1.02146 -0.0146369 -1.38392e-21)
(1.02344 -0.0128449 1.93948e-21)
(1.02927 -0.0102404 -9.63601e-22)
(1.03694 -0.0107596 1.12658e-21)
(1.04664 -0.0117591 -1.6105e-22)
(1.05753 -0.0175716 -7.07115e-22)
(1.07096 -0.0231149 1.81333e-21)
(1.08727 -0.0245693 -1.61383e-22)
(1.10292 -0.0249033 3.91719e-22)
(1.11835 -0.0177087 -5.37127e-22)
(1.12948 -0.00888942 -6.99034e-22)
(1.13651 0.00545623 0)
(1.13665 0.0192159 -1.56762e-21)
(1.13085 0.0295369 1.78574e-21)
(1.12111 0.0376019 0)
(1.10776 0.0426515 0)
(1.09023 0.0439882 2.74134e-21)
(1.07358 0.0449384 -5.10505e-21)
(1.05562 0.0420633 3.45517e-21)
(1.04107 0.0399353 -4.69381e-22)
(1.02541 0.0309508 0)
(1.01324 0.0217126 2.51752e-21)
(1.00126 0.0103698 -2.18944e-21)
(0.991303 -0.0033186 4.59141e-22)
(0.986765 -0.00854687 0)
(0.986658 -0.0126646 0)
(0.98551 -0.0171241 2.0413e-21)
(0.984606 -0.0191749 -1.96171e-21)
(0.984355 -0.0189652 -1.12261e-21)
(0.984794 -0.0177703 1.61137e-21)
(0.983945 -0.0120824 1.32687e-22)
(1.00219 -0.0119471 -5.98429e-21)
(0.999785 -0.0214545 6.86183e-21)
(0.998422 -0.0220121 0)
(0.998606 -0.0199983 1.48598e-21)
(1.00456 -0.0160229 -1.4907e-21)
(1.01319 -0.0114386 3.63568e-21)
(1.01761 -0.00980624 -3.6371e-21)
(1.01967 -0.0108723 -6.77682e-24)
(1.01939 -0.0132552 -2.35219e-21)
(1.01636 -0.0208101 3.87627e-21)
(1.01429 -0.0343745 -1.61938e-21)
(1.01833 -0.0463063 1.23635e-21)
(1.02808 -0.055236 -8.96555e-22)
(1.04272 -0.0601622 -1.78159e-22)
(1.0591 -0.0631641 0)
(1.07511 -0.0627147 0)
(1.09333 -0.0581012 0)
(1.10868 -0.0508047 1.21639e-21)
(1.12313 -0.0419785 -8.78707e-22)
(1.13536 -0.0271478 0)
(1.13848 -0.0150509 -8.95532e-22)
(1.13918 -0.00296107 -9.59216e-22)
(1.13715 0.0138843 -2.48296e-22)
(1.12679 0.0292164 1.85805e-21)
(1.11319 0.0401125 0)
(1.09574 0.0452065 -3.33239e-21)
(1.0778 0.0480927 3.8133e-22)
(1.05984 0.0448091 2.55284e-21)
(1.04295 0.0427626 -2.12926e-23)
(1.03004 0.0391171 0)
(1.01942 0.0397413 2.67369e-21)
(1.01409 0.0395997 -2.65672e-21)
(1.00731 0.0422709 -9.70626e-22)
(1.00257 0.0382963 1.26193e-21)
(0.995909 0.0353444 -4.01084e-21)
(0.988145 0.0315731 2.66859e-21)
(0.98239 0.0303662 0)
(0.978395 0.0241056 -1.73112e-21)
(0.976129 0.01974 1.52757e-21)
(0.976133 0.010677 1.54096e-22)
(1.00007 -0.0182473 0)
(0.998378 -0.0219103 6.17222e-21)
(0.997058 -0.0214123 -6.18395e-23)
(0.997244 -0.0186853 -7.72997e-21)
(1.00323 -0.0158316 6.05606e-21)
(1.01425 -0.0121379 -6.16768e-21)
(1.02025 -0.0111338 7.36844e-22)
(1.02182 -0.0120811 1.95462e-21)
(1.02128 -0.0158172 -3.30046e-21)
(1.02321 -0.0234066 2.58432e-21)
(1.02659 -0.0280572 -3.57449e-21)
(1.03201 -0.0281852 1.35721e-21)
(1.03968 -0.0298 8.17988e-23)
(1.05055 -0.0308405 -8.21627e-23)
(1.06362 -0.0352868 1.03839e-21)
(1.07766 -0.0395416 -2.32956e-21)
(1.09431 -0.0387781 2.47067e-21)
(1.11028 -0.0373481 -8.73567e-22)
(1.12492 -0.0286174 -1.7859e-22)
(1.13649 -0.0173847 5.41104e-23)
(1.14382 -0.00255469 -9.75802e-22)
(1.14431 0.0139008 7.3149e-22)
(1.1399 0.0279211 -7.8713e-24)
(1.1296 0.0394191 4.30808e-21)
(1.11601 0.0481024 -3.80353e-21)
(1.09886 0.0518049 1.26255e-21)
(1.08089 0.0536763 7.47573e-22)
(1.06278 0.0498965 -6.16336e-22)
(1.04727 0.0503367 4.45305e-21)
(1.03135 0.0434974 -6.47549e-22)
(1.0188 0.0347495 -3.23142e-21)
(1.0063 0.0242203 -2.10106e-21)
(0.996004 0.0102417 2.59933e-21)
(0.990212 1.67801e-05 1.43209e-21)
(0.989548 -0.00310247 -2.17416e-21)
(0.987596 -0.00660912 0)
(0.986235 -0.00812611 0)
(0.98546 -0.00789665 -1.79585e-21)
(0.985429 -0.00670748 1.36873e-21)
(0.983185 -0.00303913 -3.24929e-22)
(0.99784 -0.0201725 5.25397e-23)
(0.996479 -0.0216329 5.61698e-21)
(0.995141 -0.0205391 7.95414e-22)
(0.995697 -0.0178846 7.98438e-22)
(1.00128 -0.0161653 7.84303e-21)
(1.01413 -0.013749 -4.08738e-21)
(1.02169 -0.0122797 -3.84811e-21)
(1.02614 -0.0137016 0)
(1.02706 -0.0179705 6.60976e-22)
(1.02652 -0.0245652 1.47217e-21)
(1.02569 -0.0332245 -2.51706e-21)
(1.0282 -0.0432959 -9.21832e-22)
(1.03576 -0.0534021 9.88381e-22)
(1.04852 -0.0597652 0)
(1.06475 -0.064257 -1.12463e-21)
(1.08092 -0.0651143 9.64972e-22)
(1.0987 -0.0610594 1.0998e-21)
(1.11519 -0.0536746 -1.01326e-23)
(1.12927 -0.043793 -2.25531e-21)
(1.14202 -0.0281503 7.89174e-22)
(1.14761 -0.0125663 6.39542e-23)
(1.14819 0.00111563 0)
(1.14524 0.0198179 2.64141e-22)
(1.13533 0.0364983 -5.15652e-22)
(1.12124 0.048596 5.04407e-22)
(1.10381 0.0539776 -4.25888e-21)
(1.08512 0.0574701 5.53309e-21)
(1.06782 0.0562897 -2.92765e-21)
(1.04967 0.0541281 0)
(1.03504 0.0477222 0)
(1.02226 0.0454232 3.05303e-21)
(1.01428 0.0437994 -3.02777e-21)
(1.00792 0.0452472 0)
(1.00289 0.0431154 9.52343e-22)
(0.995623 0.0371742 3.12513e-21)
(0.986818 0.0303523 -5.61882e-22)
(0.981678 0.0272726 -2.52156e-21)
(0.97908 0.0204308 -1.54964e-21)
(0.978339 0.0150093 1.75944e-21)
(0.978563 0.00848978 -9.07907e-24)
(0.996246 -0.0204038 -6.67289e-21)
(0.995548 -0.0207963 6.61651e-21)
(0.994678 -0.0197575 -8.20132e-22)
(0.995502 -0.0177564 0)
(1.00004 -0.0172245 -7.27429e-21)
(1.01284 -0.0157994 9.7211e-21)
(1.02277 -0.0146696 -2.4123e-21)
(1.02897 -0.0161297 0)
(1.0308 -0.0198131 5.62307e-21)
(1.02977 -0.0287443 -3.22249e-21)
(1.02982 -0.0381339 -2.08008e-21)
(1.03473 -0.0430767 -8.34144e-22)
(1.04288 -0.0470075 7.6441e-22)
(1.05517 -0.0491409 -6.02476e-23)
(1.06941 -0.0525862 -1.31401e-21)
(1.08483 -0.0552477 1.29147e-21)
(1.10149 -0.0523248 1.20167e-21)
(1.11769 -0.0484948 3.11457e-22)
(1.13214 -0.038132 -8.35438e-22)
(1.14481 -0.0245903 -8.48615e-22)
(1.15281 -0.0090465 -1.35123e-22)
(1.15416 0.00930146 -2.30108e-21)
(1.14954 0.0270001 2.58756e-21)
(1.13999 0.0420573 4.38531e-21)
(1.12643 0.0545446 -4.89768e-21)
(1.10872 0.0590871 3.64505e-21)
(1.08963 0.0639582 -2.75656e-21)
(1.07112 0.0605937 0)
(1.05388 0.0599791 5.25773e-21)
(1.0382 0.0554949 -1.25324e-21)
(1.02458 0.0486741 2.51277e-22)
(1.01126 0.0386059 -3.15999e-21)
(1.00075 0.0266718 0)
(0.993685 0.0131983 1.22422e-21)
(0.99142 0.00903756 -1.29195e-21)
(0.989275 0.00527199 -3.72147e-22)
(0.987562 0.00383906 3.12667e-22)
(0.985538 0.00265302 0)
(0.983938 0.00333387 0)
(0.981784 0.00414411 3.86679e-22)
(0.995391 -0.020505 -6.79665e-21)
(0.995399 -0.0204802 6.72125e-21)
(0.995137 -0.0196193 0)
(0.996379 -0.0180743 0)
(1.00031 -0.0184925 0)
(1.01183 -0.0183819 0)
(1.02314 -0.0176249 0)
(1.03089 -0.0187121 0)
(1.03416 -0.0232986 -3.91306e-21)
(1.03452 -0.0316003 4.32019e-21)
(1.03478 -0.0388569 1.49154e-21)
(1.0384 -0.0467897 -8.74775e-22)
(1.04363 -0.0562797 -8.38158e-22)
(1.05587 -0.0631263 1.35009e-22)
(1.07063 -0.0683665 1.45732e-21)
(1.08724 -0.0700395 4.86647e-22)
(1.10544 -0.0659279 -6.13367e-22)
(1.12184 -0.0589915 5.21745e-22)
(1.13633 -0.0482609 -2.21516e-22)
(1.15069 -0.0317997 -9.81791e-22)
(1.15846 -0.0135772 -2.81635e-24)
(1.15939 0.00371563 -2.77641e-21)
(1.15592 0.0243786 5.24584e-21)
(1.14617 0.0420357 -1.8336e-21)
(1.13251 0.0566412 0)
(1.11417 0.0633271 -1.06938e-21)
(1.09446 0.0683937 -9.02963e-22)
(1.07557 0.0665512 0)
(1.0574 0.0665614 4.36111e-21)
(1.04136 0.0604525 -4.43038e-21)
(1.02707 0.0549135 -9.33369e-22)
(1.01546 0.0503817 0)
(1.00834 0.0495648 0)
(1.00253 0.0472861 2.24821e-21)
(0.995545 0.0424307 -2.22741e-21)
(0.987118 0.0321175 -2.3764e-23)
(0.982283 0.0264813 1.95688e-23)
(0.980283 0.018796 -1.80492e-21)
(0.979356 0.0135597 2.06813e-21)
(0.979594 0.00933708 -2.03917e-22)
(0.9926 -0.0209381 0)
(0.993704 -0.0209654 0)
(0.994101 -0.0197977 0)
(0.996071 -0.0188166 0)
(0.999942 -0.0203067 0)
(1.01043 -0.0212244 4.24028e-21)
(1.02288 -0.0212169 -3.42078e-21)
(1.03179 -0.0222949 -2.96067e-21)
(1.0372 -0.0265923 6.29377e-21)
(1.03882 -0.0341342 -1.72365e-21)
(1.03791 -0.0439463 -2.34607e-21)
(1.0418 -0.0532756 2.82245e-22)
(1.04759 -0.0610741 2.2424e-23)
(1.06094 -0.0651101 1.15573e-22)
(1.07517 -0.0676841 -1.40574e-21)
(1.09028 -0.0692855 1.64124e-21)
(1.11 -0.0644191 1.44132e-21)
(1.12734 -0.0582154 -1.44751e-21)
(1.14152 -0.0473736 5.70164e-22)
(1.15549 -0.0313967 -1.13776e-21)
(1.16459 -0.0135464 -3.27517e-24)
(1.16593 0.00616586 3.24578e-22)
(1.1618 0.0269658 -6.58882e-22)
(1.15247 0.0450784 5.14777e-21)
(1.13914 0.0611206 -5.1027e-21)
(1.12069 0.0681941 2.27179e-21)
(1.09988 0.0741218 -3.76218e-21)
(1.07957 0.0731236 3.74015e-21)
(1.06093 0.0722062 -7.64116e-22)
(1.04405 0.067249 0)
(1.02992 0.0632729 3.86023e-21)
(1.01625 0.0536586 -6.99378e-21)
(1.00503 0.0441337 3.13263e-21)
(0.996188 0.0301032 0)
(0.993076 0.0229831 0)
(0.990502 0.0186947 3.59404e-21)
(0.987116 0.0168013 -3.86195e-21)
(0.984374 0.0131402 2.29089e-21)
(0.981538 0.0110965 -2.24729e-21)
(0.98067 0.00911685 -2.32157e-22)
(0.989399 -0.0210832 0)
(0.991148 -0.0218629 0)
(0.992011 -0.0208108 7.50694e-21)
(0.994572 -0.020217 -8.57324e-21)
(0.998632 -0.0224402 7.31684e-21)
(1.00876 -0.0247118 -9.23097e-21)
(1.02155 -0.0255563 -4.19237e-21)
(1.03208 -0.0265216 -5.07292e-22)
(1.03932 -0.0305398 3.81699e-21)
(1.04277 -0.0384096 0)
(1.04285 -0.0481217 4.59214e-22)
(1.04726 -0.0563828 -8.55422e-22)
(1.05204 -0.0645971 5.69143e-22)
(1.06368 -0.0711147 -1.20108e-22)
(1.0795 -0.0758009 -3.20322e-22)
(1.09451 -0.078558 1.91608e-23)
(1.11464 -0.0745286 1.22861e-21)
(1.1332 -0.066292 3.82937e-22)
(1.14737 -0.0544652 -5.54405e-22)
(1.1608 -0.0368757 -1.16164e-21)
(1.17086 -0.0166788 8.35988e-23)
(1.17348 0.0044395 -2.90145e-21)
(1.16913 0.0267313 2.89596e-21)
(1.15918 0.0462296 -6.98322e-22)
(1.14629 0.0639745 0)
(1.12763 0.0731926 -1.20805e-21)
(1.10653 0.0799797 4.11964e-21)
(1.08453 0.0795024 -1.11976e-20)
(1.06551 0.0789675 1.80896e-21)
(1.04747 0.0743743 1.03599e-20)
(1.03265 0.0695083 -9.28469e-21)
(1.01849 0.0608785 7.77613e-21)
(1.00894 0.0574303 -4.35859e-21)
(1.00178 0.0527182 0)
(0.995532 0.0485754 0)
(0.988449 0.0373115 0)
(0.983655 0.0302229 -2.16819e-23)
(0.981672 0.0224755 -2.81428e-21)
(0.979196 0.0175345 2.45822e-21)
(0.97947 0.01255 4.91817e-22)
(0.986428 -0.021456 -7.76241e-21)
(0.988158 -0.0234139 7.80016e-21)
(0.989466 -0.0227331 0)
(0.992738 -0.0222853 9.93806e-22)
(0.996885 -0.0252637 0)
(1.00653 -0.0287765 1.89407e-21)
(1.01938 -0.0304975 -6.92837e-21)
(1.0311 -0.0314081 5.5113e-21)
(1.04061 -0.0353529 -1.04913e-21)
(1.04617 -0.0429206 2.15309e-21)
(1.04774 -0.0519978 -9.49248e-24)
(1.05236 -0.061537 7.19683e-22)
(1.05689 -0.0708561 -4.75052e-22)
(1.06722 -0.0782581 1.80843e-22)
(1.08436 -0.0817114 3.33422e-22)
(1.09929 -0.0830958 2.25936e-23)
(1.11898 -0.0784279 3.74342e-22)
(1.13931 -0.0688692 2.17223e-21)
(1.15405 -0.0566208 -3.44655e-21)
(1.16661 -0.0387396 1.27144e-21)
(1.17739 -0.0175826 1.6301e-21)
(1.18122 0.0044078 -4.70953e-21)
(1.17709 0.0279155 1.31864e-23)
(1.1667 0.04827 3.14772e-21)
(1.15352 0.0673765 -7.56354e-22)
(1.13523 0.077952 -6.52854e-21)
(1.11372 0.0868425 5.10842e-21)
(1.09021 0.0862889 1.08494e-21)
(1.0703 0.0867571 9.29954e-22)
(1.05106 0.0811157 7.38146e-22)
(1.03595 0.0780087 1.3195e-21)
(1.02124 0.0697361 0)
(1.00939 0.0619382 8.62491e-22)
(0.999141 0.0490593 0)
(0.993519 0.0407104 -6.33626e-22)
(0.989768 0.0335434 0)
(0.985766 0.0299499 8.70743e-22)
(0.983314 0.0235812 -2.71799e-21)
(0.979742 0.0197867 6.70285e-22)
(0.979502 0.0145146 2.2893e-21)
(0.984189 -0.0224795 7.27242e-21)
(0.985478 -0.0255136 0)
(0.987006 -0.0253514 1.05301e-21)
(0.990639 -0.0251204 -9.37606e-21)
(0.994878 -0.0285598 8.44626e-21)
(1.00367 -0.0334216 -1.98842e-21)
(1.01625 -0.0358172 8.16789e-21)
(1.02898 -0.0372475 -9.07154e-21)
(1.0404 -0.0411549 7.83016e-22)
(1.04846 -0.0481483 6.47486e-22)
(1.05231 -0.05747 -2.34122e-22)
(1.05777 -0.0670589 -1.21351e-22)
(1.06353 -0.0760108 -4.68651e-22)
(1.07243 -0.0843532 2.83498e-22)
(1.08977 -0.0879457 0)
(1.10579 -0.089243 2.64148e-23)
(1.12346 -0.0854557 4.47822e-22)
(1.14552 -0.0755178 0)
(1.16171 -0.0613208 1.39644e-21)
(1.17333 -0.0431975 -1.39789e-21)
(1.18434 -0.02019 -9.95539e-23)
(1.18958 0.00297509 0)
(1.1865 0.0282369 0)
(1.17516 0.0495891 0)
(1.16133 0.0705006 1.6204e-21)
(1.14302 0.082649 1.45108e-21)
(1.12224 0.093148 -5.01367e-21)
(1.09795 0.094093 3.84747e-21)
(1.07644 0.0945084 -2.00334e-21)
(1.05633 0.0891819 8.76994e-22)
(1.04037 0.0860581 3.85069e-21)
(1.02451 0.0777473 -1.07407e-20)
(1.012 0.0708029 4.29725e-21)
(1.00178 0.0620214 -3.04726e-21)
(0.994568 0.0570589 8.78871e-21)
(0.988514 0.04639 -5.05652e-21)
(0.983231 0.0391971 -4.64384e-22)
(0.981518 0.0305623 -3.38789e-21)
(0.977958 0.0261868 6.47613e-23)
(0.978581 0.018767 2.49573e-21)
(0.98207 -0.0242729 1.06823e-21)
(0.98277 -0.028244 -1.09536e-21)
(0.984228 -0.0287258 2.08328e-23)
(0.988071 -0.0286992 1.10431e-21)
(0.992861 -0.032398 0)
(1.00058 -0.0381036 -1.94789e-21)
(1.01227 -0.042052 4.09523e-21)
(1.02613 -0.0442392 4.35955e-21)
(1.03876 -0.0479149 -3.48299e-21)
(1.05007 -0.054384 6.52935e-22)
(1.05617 -0.0633832 0)
(1.06318 -0.0732555 -6.6186e-23)
(1.07138 -0.0823454 -5.45111e-22)
(1.08004 -0.0914478 3.53242e-22)
(1.09579 -0.0952812 5.02099e-22)
(1.1142 -0.0958664 -3.71111e-21)
(1.13036 -0.0920577 2.91323e-21)
(1.15164 -0.0813285 0)
(1.17054 -0.0654707 0)
(1.1814 -0.0466452 0)
(1.19237 -0.0221646 1.15242e-22)
(1.19799 0.00188276 0)
(1.19571 0.0289534 -3.81819e-21)
(1.18508 0.0515748 1.11567e-20)
(1.17038 0.0736557 -8.18747e-21)
(1.15146 0.0871404 -1.69782e-21)
(1.13142 0.0996467 0)
(1.10729 0.10221 0)
(1.08438 0.103419 -7.94927e-23)
(1.06203 0.0978991 -7.91254e-21)
(1.04461 0.0947712 -5.79964e-22)
(1.02871 0.0870373 5.69018e-21)
(1.0158 0.0814633 1.14194e-21)
(1.00354 0.0697846 4.27915e-21)
(0.994274 0.0608535 -3.29289e-21)
(0.988207 0.0497173 -6.50839e-22)
(0.982337 0.0441507 0)
(0.980489 0.0349537 4.28208e-22)
(0.976198 0.0306677 -2.76735e-21)
(0.97712 0.0226571 2.71658e-21)
(0.981398 -0.0266586 -1.04904e-20)
(0.980987 -0.0309488 1.13772e-21)
(0.981874 -0.0326131 -1.15293e-21)
(0.985156 -0.0330298 1.18872e-21)
(0.990481 -0.0365697 -1.17552e-21)
(0.997552 -0.0438156 7.44458e-21)
(1.00783 -0.049114 -8.66022e-21)
(1.0219 -0.0517061 0)
(1.03561 -0.0555346 8.44559e-22)
(1.05018 -0.0620026 1.55499e-21)
(1.05982 -0.0709264 -2.26034e-21)
(1.06889 -0.0806455 -2.30779e-23)
(1.07955 -0.089255 -7.99364e-22)
(1.08981 -0.0980065 7.67635e-22)
(1.10374 -0.102347 6.19366e-23)
(1.12286 -0.102598 0)
(1.14029 -0.098444 3.02312e-21)
(1.15849 -0.0880271 -1.94657e-22)
(1.17959 -0.0700764 -2.98088e-21)
(1.19151 -0.0503639 0)
(1.20028 -0.0249494 -1.20753e-22)
(1.20697 0.000746783 -4.2337e-21)
(1.20617 0.0286499 5.32171e-21)
(1.19504 0.0524737 -1.07605e-21)
(1.18101 0.0765776 0)
(1.16131 0.0913692 3.66752e-21)
(1.14069 0.105474 0)
(1.11702 0.110118 0)
(1.09371 0.113299 2.5198e-21)
(1.06938 0.108043 0)
(1.04976 0.104205 1.72742e-21)
(1.03235 0.0962818 -4.05555e-21)
(1.01871 0.0909391 2.94385e-21)
(1.0064 0.0802152 -9.82235e-22)
(0.996144 0.0730525 6.21727e-21)
(0.989222 0.061112 -5.4551e-21)
(0.981712 0.053404 0)
(0.979774 0.0427042 -5.02333e-22)
(0.974464 0.0376422 3.45291e-21)
(0.975258 0.0284147 -3.29403e-21)
(0.979405 -0.0291809 -8.74951e-21)
(0.978922 -0.0339904 0)
(0.979188 -0.0370947 -1.26284e-21)
(0.981899 -0.0382634 7.38638e-21)
(0.987479 -0.0417447 -8.83882e-21)
(0.994404 -0.0500072 0)
(1.00274 -0.0563942 1.10995e-21)
(1.01707 -0.0602862 -1.01414e-21)
(1.03165 -0.0648081 -8.83067e-22)
(1.04863 -0.0713632 -6.79778e-22)
(1.06327 -0.0794992 0)
(1.07385 -0.0893324 -3.9017e-22)
(1.0876 -0.0981788 3.55432e-22)
(1.10046 -0.106143 7.66377e-22)