/*--------------------------------*- C++ -*----------------------------------*\
  =========                 |
  \\      /  F ield         | OpenFOAM: The Open Source CFD Toolbox
   \\    /   O peration     | Website:  https://openfoam.org
    \\  /    A nd           | Version:  10
     \\/     M anipulation  |
\*---------------------------------------------------------------------------*/
FoamFile
{
    format      ascii;
    class       surfaceScalarField;
    location    "0.948548";
    object      phi;
}
// * * * * * * * * * * * * * * * * * * * * * * * * * * * * * * * * * * * * * //

dimensions      [1 0 -1 0 0 0 0];

internalField   nonuniform List<scalar> 
31108
(
0.000563961
-0.0001055
0.000550048
-0.000103555
0.000535732
-0.000100977
0.000521117
-9.79078e-05
0.000506273
-9.4393e-05
0.000491292
-9.05061e-05
0.000476267
-8.63218e-05
0.000461281
-8.19129e-05
0.000446406
-7.73439e-05
0.000431707
-7.26759e-05
0.00041724
-6.7963e-05
0.000403056
-6.32527e-05
0.000389204
-5.85866e-05
0.000375725
-5.40002e-05
0.000362662
-4.95226e-05
0.000350054
-4.51782e-05
0.000337934
-4.0986e-05
0.000326327
-3.6959e-05
0.000315251
-3.31067e-05
0.000304718
-2.94342e-05
0.000294737
-2.59439e-05
0.000285307
-2.26364e-05
0.000276432
-1.95091e-05
0.000268108
-1.65601e-05
0.000260329
-1.37851e-05
0.00025309
-1.11803e-05
0.000246382
-8.74054e-06
0.000240197
-6.46117e-06
0.000234525
-4.3373e-06
0.000229355
-2.36338e-06
0.000224678
-5.34796e-07
0.000220482
1.15224e-06
0.000216756
2.70342e-06
0.000213488
4.12246e-06
0.000210668
5.41313e-06
0.000208283
6.57895e-06
0.000206325
7.62304e-06
0.000204782
8.54872e-06
0.000203641
9.35824e-06
0.000202891
1.00553e-05
0.000202518
1.06425e-05
0.00020251
1.11236e-05
0.000202851
1.1502e-05
0.000203527
1.17817e-05
0.00020452
1.19684e-05
0.000205822
1.20661e-05
0.000207405
1.2082e-05
0.000209253
1.20219e-05
0.000211352
1.18958e-05
0.000213673
1.17124e-05
1.14833e-05
0.0002162
0.000566459
-9.28943e-05
0.000552999
-9.05113e-05
0.000539122
-8.77133e-05
0.000524859
-8.44709e-05
0.000510304
-8.08845e-05
0.000495555
-7.70117e-05
0.000480705
-7.29191e-05
0.000465837
-6.86703e-05
0.000451028
-6.43248e-05
0.000436349
-5.99363e-05
0.000421859
-5.55518e-05
0.000407615
-5.12124e-05
0.00039367
-4.69535e-05
0.000380073
-4.28043e-05
0.000366871
-3.87884e-05
0.00035411
-3.49242e-05
0.000341823
-3.1226e-05
0.000330041
-2.77015e-05
0.000318784
-2.43565e-05
0.000308068
-2.11924e-05
0.000297903
-1.82095e-05
0.000288291
-1.54052e-05
0.000279235
-1.27754e-05
0.000270734
-1.03154e-05
0.000262784
-8.02136e-06
0.000255382
-5.88763e-06
0.000248517
-3.90867e-06
0.000242179
-2.07931e-06
0.00023636
-3.95606e-07
0.000231051
1.14733e-06
0.000226236
2.55572e-06
0.000221908
3.83359e-06
0.000218054
4.98527e-06
0.000214664
6.01468e-06
0.000211727
6.92583e-06
0.000209228
7.72245e-06
0.000207161
8.40785e-06
0.000205511
8.98591e-06
0.000204266
9.45941e-06
0.000203416
9.83258e-06
0.000202945
1.01088e-05
0.000202844
1.02926e-05
0.000203096
1.03886e-05
0.000203686
1.04014e-05
0.000204602
1.03377e-05
0.000205825
1.02032e-05
0.000207339
1.0005e-05
0.000209124
9.75133e-06
0.000211165
9.45043e-06
0.000213442
9.11346e-06
8.7522e-06
0.000215935
0.000569062
-8.06707e-05
0.000555971
-7.78845e-05
0.00054245
-7.47889e-05
0.000528461
-7.13088e-05
0.000514141
-6.75854e-05
0.000499577
-6.3661e-05
0.000484859
-5.95996e-05
0.000470073
-5.54575e-05
0.000455298
-5.12871e-05
0.000440604
-4.71345e-05
0.000426059
-4.30409e-05
0.000411724
-3.90419e-05
0.000397661
-3.51657e-05
0.000383927
-3.14357e-05
0.000370571
-2.78683e-05
0.000357643
-2.4477e-05
0.000345181
-2.12687e-05
0.00033322
-1.82469e-05
0.000321785
-1.54106e-05
0.00031089
-1.27588e-05
0.000300549
-1.02877e-05
0.000290766
-7.99213e-06
0.000281542
-5.8647e-06
0.000272877
-3.89877e-06
0.000264769
-2.09075e-06
0.000257209
-4.3152e-07
0.000250194
1.08116e-06
0.000243714
2.45497e-06
0.000237758
3.69579e-06
0.000232314
4.80776e-06
0.000227371
5.79525e-06
0.000222919
6.6627e-06
0.000218947
7.41404e-06
0.000215442
8.0536e-06
0.000212394
8.58496e-06
0.000209793
9.01235e-06
0.000207625
9.33917e-06
0.000205878
9.56956e-06
0.000204541
9.70698e-06
0.000203602
9.75589e-06
0.000203046
9.72045e-06
0.000202864
9.60584e-06
0.00020304
9.41726e-06
0.00020356
9.16049e-06
0.000204409
8.84262e-06
0.000205573
8.47037e-06
0.000207037
8.05221e-06
0.000208777
7.59639e-06
0.000210783
7.11304e-06
0.000213035
6.6116e-06
6.10396e-06
0.000215509
0.000571801
-6.88669e-05
0.000559176
-6.56564e-05
0.000545855
-6.20893e-05
0.000532082
-5.83445e-05
0.000517932
-5.44159e-05
0.000503496
-5.0383e-05
0.000488854
-4.62983e-05
0.00047409
-4.22122e-05
0.000459287
-3.8171e-05
0.000444519
-3.42153e-05
0.000429866
-3.03815e-05
0.000415401
-2.66992e-05
0.000401194
-2.31891e-05
0.000387299
-1.98649e-05
0.000373771
-1.67382e-05
0.000360659
-1.38153e-05
0.000348009
-1.1098e-05
0.000335861
-8.58163e-06
0.00032424
-6.25917e-06
0.000313166
-4.12684e-06
0.000302653
-2.17615e-06
0.000292705
-3.98088e-07
0.000283325
1.21555e-06
0.000274513
2.67839e-06
0.000266266
3.98993e-06
0.00025857
5.1739e-06
0.00025142
6.21983e-06
0.000244806
7.13877e-06
0.00023872
7.93553e-06
0.000233152
8.61416e-06
0.000228091
9.17917e-06
0.000223524
9.63458e-06
0.000219443
9.98473e-06
0.000215833
1.02336e-05
0.000212684
1.0385e-05
0.000209986
1.0443e-05
0.000207725
1.04111e-05
0.000205891
1.02936e-05
0.00020447
1.00942e-05
0.000203452
9.81798e-06
0.000202823
9.46935e-06
0.000202572
9.05415e-06
0.000202685
8.57815e-06
0.00020315
8.04809e-06
0.000203946
7.47148e-06
0.000205068
6.85564e-06
0.000206494
6.20994e-06
0.000208209
5.54341e-06
0.0002102
4.86659e-06
0.000212441
4.1898e-06
3.52507e-06
0.000214924
0.000574972
-5.74138e-05
0.000562434
-5.35754e-05
0.000549343
-4.9598e-05
0.000535734
-4.54926e-05
0.000521692
-4.13072e-05
0.000507297
-3.71065e-05
0.000492641
-3.29446e-05
0.000477822
-2.88692e-05
0.000462927
-2.49165e-05
0.00044804
-2.11223e-05
0.000433243
-1.752e-05
0.000418616
-1.41359e-05
0.000404231
-1.09818e-05
0.000390153
-8.05934e-06
0.000376442
-5.37564e-06
0.000363149
-2.92697e-06
0.000350323
-7.06361e-07
0.000338001
1.29385e-06
0.000326212
3.0918e-06
0.000314974
4.69584e-06
0.000304297
6.11883e-06
0.000294185
7.37568e-06
0.000284641
8.47465e-06
0.00027567
9.42821e-06
0.000267263
1.02454e-05
0.000259425
1.09379e-05
0.000252143
1.15086e-05
0.000245409
1.19647e-05
0.000239209
1.23112e-05
0.000233535
1.25529e-05
0.000228373
1.26933e-05
0.000223709
1.27365e-05
0.000219533
1.2686e-05
0.000215832
1.25452e-05
0.000212596
1.23176e-05
0.000209811
1.2007e-05
0.000207469
1.16168e-05
0.000205556
1.11515e-05
0.00020406
1.06149e-05
0.000202971
1.00123e-05
0.000202278
9.34858e-06
0.000201967
8.63003e-06
0.000202026
7.86299e-06
0.000202447
7.05474e-06
0.000203204
6.21374e-06
0.000204295
5.34797e-06
0.000205699
4.46719e-06
0.000207402
3.58151e-06
0.000209388
2.70087e-06
0.000211639
1.83698e-06
1.00121e-06
0.000214142
0.00057827
-4.61235e-05
0.000565964
-4.17066e-05
0.000552994
-3.72131e-05
0.000539431
-3.26797e-05
0.000525385
-2.81792e-05
0.000510948
-2.37553e-05
0.00049622
-1.94671e-05
0.000481303
-1.53667e-05
0.000466281
-1.14741e-05
0.000451241
-7.81783e-06
0.000436269
-4.42698e-06
0.000421447
-1.32013e-06
0.000406857
1.49231e-06
0.00039257
4.01636e-06
0.000378649
6.25494e-06
0.000365149
8.22341e-06
0.000352117
9.93738e-06
0.000339595
1.14131e-05
0.000327617
1.26702e-05
0.000316201
1.37293e-05
0.000305358
1.46092e-05
0.000295092
1.53274e-05
0.000285404
1.58976e-05
0.000276296
1.63328e-05
0.000267767
1.6644e-05
0.00025981
1.6841e-05
0.000252418
1.69311e-05
0.000245579
1.69207e-05
0.000239279
1.68151e-05
0.000233505
1.66186e-05
0.000228246
1.63345e-05
0.000223489
1.59658e-05
0.000219224
1.55149e-05
0.000215438
1.49848e-05
0.000212121
1.43783e-05
0.000209261
1.36991e-05
0.000206847
1.29504e-05
0.000204866
1.21366e-05
0.000203306
1.12618e-05
0.000202158
1.03311e-05
0.000201409
9.35012e-06
0.00020105
8.32509e-06
0.000201068
7.26312e-06
0.000201451
6.17204e-06
0.000202183
5.06059e-06
0.000203253
3.93778e-06
0.000204647
2.81382e-06
0.000206351
1.69898e-06
0.000208346
6.03921e-07
0.000210619
-4.59185e-07
-1.4786e-06
0.000213155
0.000581908
-3.4994e-05
0.000569711
-2.99117e-05
0.00055675
-2.48462e-05
0.000543175
-1.98299e-05
0.000529113
-1.49744e-05
0.000514626
-1.02825e-05
0.000499792
-5.82004e-06
0.0004847
-1.63766e-06
0.000469466
2.23287e-06
0.000454198
5.76945e-06
0.000438988
8.95925e-06
0.000423926
1.17964e-05
0.000409087
1.42782e-05
0.00039455
1.64058e-05
0.000380379
1.81971e-05
0.00036663
1.96737e-05
0.000353357
2.08621e-05
0.00034061
2.17895e-05
0.000328426
2.24851e-05
0.000316828
2.2977e-05
0.000305822
2.32917e-05
0.000295414
2.34506e-05
0.000285606
2.34738e-05
0.000276392
2.33762e-05
0.000267764
2.31709e-05
0.000259713
2.28676e-05
0.000252227
2.24742e-05
0.000245295
2.19963e-05
0.000238906
2.14386e-05
0.000233049
2.08043e-05
0.000227714
2.00959e-05
0.000222886
1.93157e-05
0.000218548
1.84652e-05
0.000214689
1.75465e-05
0.000211297
1.6562e-05
0.000208363
1.55145e-05
0.000205878
1.44071e-05
0.00020383
1.3244e-05
0.00020221
1.20293e-05
0.000201008
1.07685e-05
0.000200212
9.46705e-06
0.000199812
8.13215e-06
0.000199796
6.77032e-06
0.000200154
5.39089e-06
0.000200871
4.00242e-06
0.000201933
2.61509e-06
0.00020333
1.23901e-06
0.000205046
-1.14978e-07
0.000207065
-1.43484e-06
0.000209374
-2.70877e-06
-3.92404e-06
0.000211957
0.000585496
-2.40315e-05
0.000573266
-1.81413e-05
0.000560328
-1.24648e-05
0.000546742
-6.90748e-06
0.000532593
-1.62404e-06
0.000517981
3.3693e-06
0.00050298
8.04345e-06
0.000487675
1.23546e-05
0.00047218
1.62579e-05
0.000456617
1.97235e-05
0.0004411
2.27391e-05
0.000425735
2.53045e-05
0.000410611
2.74303e-05
0.000395806
2.91346e-05
0.00038139
3.04471e-05
0.00036742
3.14026e-05
0.000353948
3.20395e-05
0.000341019
3.23964e-05
0.000328669
3.25111e-05
0.000316921
3.24198e-05
0.000305782
3.21538e-05
0.000295253
3.17415e-05
0.000285332
3.12057e-05
0.00027601
3.05653e-05
0.000267278
2.98344e-05
0.000259125
2.90232e-05
0.000251545
2.81395e-05
0.000244532
2.71888e-05
0.000238073
2.6175e-05
0.000232152
2.51005e-05
0.000226754
2.39665e-05
0.000221863
2.27743e-05
0.000217463
2.15246e-05
0.000213544
2.02185e-05
0.000210092
1.88573e-05
0.000207099
1.74429e-05
0.000204553
1.59778e-05
0.000202448
1.44655e-05
0.000200775
1.29102e-05
0.000199524
1.13172e-05
0.000198689
9.69233e-06
0.000198257
8.04291e-06
0.000198218
6.37654e-06
0.000198562
4.70242e-06
0.00019927
3.03009e-06
0.000200338
1.36991e-06
0.000201747
-2.6723e-07
0.000203487
-1.86959e-06
0.000205542
-3.42507e-06
0.000207896
-4.92072e-06
-6.34429e-06
0.000210538
0.000588761
-1.31347e-05
0.00057666
-6.41121e-06
0.000563655
2.60853e-08
0.000549999
6.07688e-06
0.000535621
1.19408e-05
0.000520779
1.728e-05
0.000505527
2.22297e-05
0.000489983
2.66878e-05
0.000474256
3.06217e-05
0.000458449
3.40185e-05
0.000442671
3.68625e-05
0.000427027
3.91605e-05
0.000411617
4.09329e-05
0.000396523
4.22094e-05
0.000381827
4.30311e-05
0.000367603
4.34465e-05
0.000353912
4.35075e-05
0.000340796
4.32664e-05
0.000328281
4.27715e-05
0.000316383
4.2068e-05
0.000305108
4.11955e-05
0.000294458
4.01887e-05
0.000284432
3.90752e-05
0.000275027
3.78769e-05
0.000266231
3.66091e-05
0.000258027
3.52825e-05
0.000250402
3.39043e-05
0.00024334
3.24788e-05
0.000236829
3.10084e-05
0.000230852
2.94941e-05
0.000225394
2.79358e-05
0.000220442
2.63332e-05
0.000215983
2.4686e-05
0.000212006
2.29938e-05
0.0002085
2.12569e-05
0.000205456
1.94762e-05
0.000202863
1.76535e-05
0.000200715
1.57918e-05
0.000199001
1.38948e-05
0.000197715
1.19677e-05
0.00019685
1.00166e-05
0.000196394
8.0488e-06
0.000196339
6.07267e-06
0.000196675
4.09774e-06
0.000197386
2.13438e-06
0.000198464
1.93385e-07
0.000199896
-1.71384e-06
0.000201669
-3.57469e-06
0.00020377
-5.37634e-06
0.000206183
-7.10575e-06
-8.74977e-06
0.000208895
0.000590993
-2.33785e-06
0.000578885
5.23278e-06
0.000565775
1.24244e-05
0.000551955
1.93182e-05
0.000537592
2.556e-05
0.000522568
3.14226e-05
0.000507189
3.66159e-05
0.00049148
4.12781e-05
0.000475548
4.52819e-05
0.000459494
4.86492e-05
0.000443443
5.13458e-05
0.00042751
5.33879e-05
0.000411801
5.48061e-05
0.000396419
5.56415e-05
0.000381461
5.59494e-05
0.000367007
5.57952e-05
0.000353121
5.52478e-05
0.00033984
5.43748e-05
0.000327181
5.32378e-05
0.000315156
5.18929e-05
0.000303779
5.03885e-05
0.000293052
4.8767e-05
0.000282971
4.70601e-05
0.000273522
4.52917e-05
0.000264686
4.3478e-05
0.000256446
4.16293e-05
0.000248786
3.97526e-05
0.000241688
3.78502e-05
0.000235135
3.59237e-05
0.000229112
3.3971e-05
0.000223605
3.19915e-05
0.000218602
2.99815e-05
0.000214092
2.79399e-05
0.000210067
2.58639e-05
0.000206516
2.37533e-05
0.000203428
2.16073e-05
0.000200797
1.94272e-05
0.000198614
1.72152e-05
0.000196872
1.49752e-05
0.000195561
1.27115e-05
0.000194677
1.04306e-05
0.000194209
8.14022e-06
0.000194148
5.84905e-06
0.000194486
3.56706e-06
0.000195209
1.30514e-06
0.000196309
-9.25427e-07
0.000197775
-3.11171e-06
0.000199593
-5.24107e-06
0.000201751
-7.29987e-06
0.000204234
-9.27473e-06
-1.11516e-05
0.000207028
0.000591479
8.37128e-06
0.00057927
1.68208e-05
0.000566198
2.48252e-05
0.000552306
3.24786e-05
0.000537844
3.91937e-05
0.000522838
4.55472e-05
0.000507393
5.1046e-05
0.000491549
5.60071e-05
0.000475463
6.01258e-05
0.000459236
6.35038e-05
0.000442986
6.60972e-05
0.000426853
6.79046e-05
0.000410947
6.89758e-05
0.00039536
6.93673e-05
0.000380198
6.91506e-05
0.000365555
6.84077e-05
0.000351501
6.72255e-05
0.000338079
6.56893e-05
0.00032531
6.38787e-05
0.000313207
6.18646e-05
0.000301774
5.97055e-05
0.000291012
5.74493e-05
0.000280907
5.51322e-05
0.000271442
5.27805e-05
0.000262593
5.04124e-05
0.00025434
4.80373e-05
0.000246663
4.56607e-05
0.000239545
4.32827e-05
0.000232969
4.09022e-05
0.000226924
3.8515e-05
0.000221394
3.6118e-05
0.000216367
3.37052e-05
0.000211831
3.12733e-05
0.000207776
2.88177e-05
0.000204192
2.63364e-05
0.000201072
2.38275e-05
0.000198406
2.12913e-05
0.000196192
1.87291e-05
0.000194421
1.61445e-05
0.000193087
1.35419e-05
0.000192184
1.09278e-05
0.000191704
8.30995e-06
0.000191641
5.69755e-06
0.000191989
3.10111e-06
0.000192731
5.32458e-07
0.000193865
-1.9964e-06
0.000195375
-4.47189e-06
0.000197249
-6.88022e-06
0.000199477
-9.20767e-06
0.000202041
-1.14396e-05
-1.3562e-05
0.000204931
0.000589432
1.9339e-05
0.000577231
2.77119e-05
0.000564218
3.72121e-05
0.000550207
4.51823e-05
0.000535725
5.29885e-05
0.000520718
5.9342e-05
0.000505143
6.5627e-05
0.000489425
7.04966e-05
0.000473245
7.50722e-05
0.000457046
7.83761e-05
0.000440783
8.09305e-05
0.000424607
8.25408e-05
0.000408643
8.32926e-05
0.000393005
8.32563e-05
0.000377789
8.25202e-05
0.000363078
8.11847e-05
0.000348945
7.93562e-05
0.000335447
7.71411e-05
0.000322622
7.46377e-05
0.000310491
7.19332e-05
0.000299052
6.90991e-05
0.000288293
6.61911e-05
0.000278197
6.3251e-05
0.000268745
6.03077e-05
0.000259916
5.73803e-05
0.000251685
5.44778e-05
0.000244028
5.16029e-05
0.000236926
4.87531e-05
0.00023036
4.59244e-05
0.000224315
4.31091e-05
0.000218778
4.0301e-05
0.000213738
3.74915e-05
0.000209183
3.46749e-05
0.000205105
3.18443e-05
0.000201495
2.89961e-05
0.000198347
2.6127e-05
0.000195656
2.32363e-05
0.000193414
2.03245e-05
0.000191621
1.73943e-05
0.000190271
1.44501e-05
0.000189359
1.14989e-05
0.000188879
8.54828e-06
0.000188824
5.6082e-06
0.000189188
2.68985e-06
0.000189958
-1.94116e-07
0.000191131
-3.03069e-06
0.000192694
-5.80579e-06
0.000194636
-8.50458e-06
0.000196943
-1.11122e-05
0.000199604
-1.36136e-05
-1.59942e-05
0.000202603
0.000588516
2.95247e-05
0.000574431
3.8836e-05
0.000559823
4.89574e-05
0.000545972
5.6884e-05
0.00053071
6.57541e-05
0.000515616
7.3022e-05
0.000499917
7.93876e-05
0.000484131
8.49957e-05
0.000468357
8.94973e-05
0.000452292
9.31107e-05
0.00043625
9.55839e-05
0.000420268
9.70575e-05
0.000404466
9.75443e-05
0.000388958
9.71234e-05
0.000373847
9.5896e-05
0.000359225
9.39816e-05
0.00034517
9.15128e-05
0.000331742
8.86178e-05
0.000318982
8.54166e-05
0.000306914
8.20135e-05
0.00029554
7.84964e-05
0.000284849
7.49307e-05
0.000274825
7.13651e-05
0.000265443
6.78305e-05
0.000256681
6.43464e-05
0.000248509
6.09204e-05
0.000240904
5.75532e-05
0.000233843
5.42391e-05
0.000227308
5.097e-05
0.000221284
4.77353e-05
0.000215757
4.45242e-05
0.000210717
4.13266e-05
0.000206153
3.81327e-05
0.000202058
3.4934e-05
0.000198427
3.1724e-05
0.000195256
2.84986e-05
0.000192543
2.52552e-05
0.000190283
2.19941e-05
0.000188472
1.87172e-05
0.000187112
1.54287e-05
0.000186196
1.21357e-05
0.000185721
8.84639e-06
0.00018568
5.57137e-06
0.000186069
2.32288e-06
0.00018688
-8.85947e-07
0.000188105
-4.04078e-06
0.000189734
-7.1263e-06
0.000191753
-1.01269e-05
0.000194151
-1.30265e-05
0.000196916
-1.58101e-05
-1.84613e-05
0.000200033
0.000597567
4.03485e-05
0.000574567
5.33271e-05
0.000559392
5.95635e-05
0.000540221
7.1011e-05
0.000523731
7.8502e-05
0.000507529
8.5901e-05
0.000491647
9.26048e-05
0.00047591
9.84545e-05
0.000460301
0.000103283
0.000444747
0.000107068
0.00042916
0.000109679
0.000413612
0.000111134
0.000398201
0.000111454
0.00038304
0.000110722
0.000368233
0.000109059
0.000353881
0.000106609
0.000340066
0.00010353
0.000326852
9.9976e-05
0.000314284
9.60914e-05
0.000302392
9.2002e-05
0.000291186
8.78096e-05
0.000280656
8.35951e-05
0.000270783
7.94106e-05
0.000261538
7.52944e-05
0.000252895
7.12627e-05
0.000244826
6.73251e-05
0.000237307
6.34769e-05
0.000230315
5.97118e-05
0.000223831
5.60153e-05
0.00021784
5.23743e-05
0.000212334
4.8773e-05
0.000207302
4.51982e-05
0.000202739
4.16366e-05
0.000198639
3.80777e-05
0.000194997
3.45124e-05
0.000191811
3.09349e-05
0.00018908
2.73413e-05
0.000186805
2.37312e-05
0.000184986
2.01061e-05
0.000183618
1.64703e-05
0.000182701
1.28307e-05
0.000182235
9.19631e-06
0.000182214
5.57833e-06
0.000182636
1.99015e-06
0.000183493
-1.55398e-06
0.000184778
-5.03804e-06
0.000186478
-8.44565e-06
0.000188584
-1.17601e-05
0.000191084
-1.49645e-05
0.000193966
-1.80437e-05
-2.09781e-05
0.000197219
0.000667452
5.0958e-05
0.000624389
6.43234e-05
0.000576522
7.81995e-05
0.00054484
8.57648e-05
0.000519186
9.29209e-05
0.000498075
9.93282e-05
0.000480068
0.000105277
0.000463709
0.000111027
0.000448252
0.000115998
0.000433277
0.000119965
0.000418489
0.000122767
0.00040379
0.000124316
0.000389187
0.000124595
0.00037475
0.000123677
0.000360574
0.000121686
0.000346766
0.000118789
0.000333426
0.00011517
0.00032063
0.000111014
0.000308437
0.000106492
0.000296876
0.000101754
0.000285965
9.69204e-05
0.000275694
9.20822e-05
0.000266049
8.73054e-05
0.000257004
8.26275e-05
0.000248532
7.80721e-05
0.000240608
7.36412e-05
0.000233209
6.93349e-05
0.000226317
6.5136e-05
0.000219914
6.10334e-05
0.000213987
5.70025e-05
0.000208525
5.30294e-05
0.000203521
4.90912e-05
0.000198969
4.51757e-05
0.000194868
4.12664e-05
0.000191216
3.73546e-05
0.000188015
3.34298e-05
0.000185268
2.94899e-05
0.000182977
2.55318e-05
0.000181145
2.15568e-05
0.000179772
1.75697e-05
0.000178859
1.35777e-05
0.000178407
9.59042e-06
0.00017841
5.62026e-06
0.000178869
1.68181e-06
0.000179781
-2.20915e-06
0.000181134
-6.03492e-06
0.000182919
-9.77723e-06
0.000185124
-1.3419e-05
0.000187738
-1.69405e-05
0.000190754
-2.03276e-05
-2.3562e-05
0.000194146
0.000716578
6.21488e-05
0.00067943
7.73006e-05
0.000635583
9.45109e-05
0.000582894
0.000106177
0.000536342
0.000112352
0.000499332
0.000116994
0.000471724
0.000120773
0.000451046
0.000124486
0.000434117
0.000128371
0.000419099
0.00013196
0.000404954
0.000134708
0.000391143
0.000136339
0.000377493
0.000136664
0.000363993
0.000135671
0.000350697
0.00013347
0.000337691
0.000130236
0.000325069
0.000126176
0.000312916
0.000121503
0.000301293
0.000116419
0.000290241
0.000111096
0.000279768
0.000105678
0.000269885
0.000100267
0.00026057
9.49421e-05
0.00025181
8.97461e-05
0.000243577
8.47019e-05
0.000235856
7.98181e-05
0.000228624
7.50818e-05
0.000221869
7.04847e-05
0.000215575
6.59962e-05
0.00020973
6.16037e-05
0.000204329
5.72744e-05
0.000199362
5.2994e-05
0.000194832
4.8737e-05
0.000190738
4.44919e-05
0.000187082
4.02424e-05
0.000183872
3.59778e-05
0.000181112
3.16959e-05
0.000178808
2.73912e-05
0.000176964
2.30649e-05
0.000175586
1.87227e-05
0.000174675
1.43718e-05
0.000174237
1.0023e-05
0.000174267
5.69003e-06
0.000174769
1.38929e-06
0.000175738
-2.86175e-06
0.000177165
-7.04303e-06
0.000179043
-1.11346e-05
0.000181357
-1.51172e-05
0.000184099
-1.89706e-05
0.000187256
-2.26795e-05
-2.62253e-05
0.00019081
0.000705447
7.14221e-05
0.000696281
9.14527e-05
0.000664223
0.000104578
0.00061898
0.000121141
0.000565076
0.00013076
0.000514899
0.00013739
0.000474078
0.000139049
0.00044331
0.000140124
0.000420764
0.000141657
0.000403373
0.000143749
0.000388824
0.000145879
0.000375626
0.000147279
0.000363
0.000147547
0.000350648
0.000146504
0.00033849
0.000144175
0.000326553
0.000140709
0.000314907
0.000136314
0.000303628
0.000131227
0.000292784
0.000125673
0.000282415
0.000119854
0.000272547
0.000113929
0.000263177
0.000108022
0.000254315
0.000102212
0.000245933
9.65594e-05
0.000238033
9.10819e-05
0.000230582
8.57917e-05
0.00022358
8.06729e-05
0.000217001
7.57127e-05
0.000210847
7.08783e-05
0.000205102
6.61523e-05
0.000199772
6.14967e-05
0.000194849
5.68937e-05
0.000190344
5.2317e-05
0.000186255
4.77492e-05
0.000182597
4.31755e-05
0.000179377
3.85784e-05
0.000176601
3.39582e-05
0.000174282
2.93075e-05
0.000172427
2.46276e-05
0.000171041
1.99261e-05
0.000170133
1.52091e-05
0.000169708
1.04891e-05
0.000169767
5.78106e-06
0.000170316
1.10399e-06
0.000171349
-3.5223e-06
0.000172858
-8.07487e-06
0.000174837
-1.25314e-05
0.000177272
-1.68701e-05
0.000180152
-2.10702e-05
0.000183462
-2.51136e-05
-2.89848e-05
0.000187187
0.000667547
8.26403e-05
0.000660656
9.99227e-05
0.000652967
0.000117485
0.000624054
0.000131703
0.00058649
0.0001473
0.000530549
0.000154485
0.000479317
0.000159018
0.000439128
0.000156982
0.000409354
0.000156057
0.00038809
0.000155888
0.000372055
0.000156446
0.000358703
0.000157174
0.000346673
0.000157231
0.000335312
0.000156085
0.000324313
0.000153647
0.00031356
0.000150017
0.000303052
0.000145387
0.00029283
0.000139995
0.000282942
0.000134082
0.000273426
0.000127867
0.000264308
0.000121535
0.0002556
0.000115216
0.000247296
0.000109014
0.000239405
0.000102972
0.000231902
9.71405e-05
0.000224802
9.14962e-05
0.00021807
8.60626e-05
0.000211719
8.07775e-05
0.000205736
7.56555e-05
0.000200113
7.06202e-05
0.000194873
6.56837e-05
0.000189997
6.07738e-05
0.000185527
5.59098e-05
0.000181439
5.10247e-05
0.000177793
4.6146e-05
0.00017455
4.12283e-05
0.000171748
3.62783e-05
0.0001694
3.12848e-05
0.000167522
2.62502e-05
0.000166125
2.11809e-05
0.00016522
1.6088e-05
0.000164809
1.09848e-05
0.000164897
5.88801e-06
0.000165495
8.18306e-07
0.000166598
-4.20096e-06
0.000168198
-9.14281e-06
0.000170288
-1.39819e-05
0.000172855
-1.86928e-05
0.000175881
-2.32538e-05
0.000179354
-2.76424e-05
-3.18492e-05
0.000183259
0.000615401
9.08844e-05
0.000615116
0.000109425
0.000609697
0.000127718
0.000598175
0.000142297
0.000579614
0.000162142
0.00053221
0.000169926
0.000479818
0.000171683
0.000433376
0.000174458
0.000398598
0.00016976
0.000372415
0.000167734
0.000353373
0.000166906
0.000339375
0.000166513
0.000327961
0.00016583
0.000317738
0.000164374
0.000308073
0.000161789
0.000298701
0.000158033
0.000289533
0.000153237
0.000280561
0.000147635
0.000271805
0.000141473
0.000263306
0.000134979
0.000255082
0.00012835
0.00024716
0.000121732
0.000239536
0.000115228
0.000232221
0.000108907
0.000225213
0.000102784
0.000218508
9.68913e-05
0.00021211
9.11777e-05
0.000206017
8.56688e-05
0.000200243
8.0269e-05
0.000194771
7.50118e-05
0.000189629
6.97974e-05
0.000184821
6.46528e-05
0.00018037
5.9496e-05
0.000176299
5.43506e-05
0.000172614
4.91536e-05
0.000169367
4.39384e-05
0.000166532
3.86493e-05
0.00016418
3.33198e-05
0.000162269
2.79318e-05
0.000160842
2.24911e-05
0.000159924
1.70129e-05
0.000159522
1.15115e-05
0.000159643
6.00813e-06
0.00016029
5.26395e-07
0.000161463
-4.9066e-06
0.000163156
-1.02588e-05
0.000165362
-1.55003e-05
0.000168067
-2.06009e-05
0.00017125
-2.55352e-05
0.000174887
-3.02822e-05
-3.48271e-05
0.000178971
0.000547073
9.86124e-05
0.000559129
0.000116864
0.000561195
0.000135956
0.000554341
0.000152986
0.000543866
0.000166688
0.000519688
0.000184419
0.000474539
0.00019079
0.000420293
0.000187471
0.000381166
0.000184755
0.000355234
0.000178155
0.000335688
0.000175845
0.000320479
0.000174735
0.000308667
0.000173491
0.000298972
0.000171579
0.000290389
0.000168694
0.000282345
0.000164741
0.000274557
0.000159796
0.000266928
0.000154047
0.000259437
0.000147722
0.000252082
0.000141063
0.000244892
0.000134245
0.000237869
0.000127454
0.000231048
0.000120753
0.000224404
0.000114262
0.000217978
0.000107947
0.000211748
0.00010189
0.000205731
9.59907e-05
0.000199946
9.0304e-05
0.000194371
8.47325e-05
0.000189078
7.92616e-05
0.000184049
7.38661e-05
0.000179323
6.84836e-05
0.000174907
6.31156e-05
0.000170843
5.76937e-05
0.000167149
5.2238e-05
0.000163853
4.67042e-05
0.000160981
4.11092e-05
0.00015856
3.54256e-05
0.000156634
2.96792e-05
0.000155193
2.38614e-05
0.000154256
1.79865e-05
0.000153842
1.20719e-05
0.00015398
6.14181e-06
0.000154679
2.24184e-07
0.00015593
-5.64759e-06
0.000157729
-1.14349e-05
0.000160063
-1.71001e-05
0.000162911
-2.26068e-05
0.000166248
-2.79235e-05
0.000170046
-3.30273e-05
-3.79039e-05
0.000174278
0.000476155
0.000101805
0.000495689
0.000122441
0.000506441
0.000142444
0.000505346
0.000160508
0.000498168
0.000176365
0.000482841
0.000187139
0.000460318
0.000203106
0.000413557
0.00020486
0.000365226
0.000195359
0.000332378
0.000188279
0.000311809
0.000183553
0.000297774
0.00018118
0.000287227
0.000179429
0.000278727
0.000177215
0.000271395
0.000174122
0.000264693
0.000170017
0.000258316
0.000164958
0.000252085
0.000159129
0.000245937
0.000152729
0.000239834
0.000146009
0.000233786
0.000139125
0.000227786
0.000132269
0.000221847
0.000125506
0.00021598
0.000118936
0.000210193
0.000112568
0.000204517
0.00010641
0.000198928
0.000100455
0.0001935
9.46421e-05
0.000188197
8.89878e-05
0.000183083
8.33804e-05
0.00017818
7.78457e-05
0.000173518
7.22857e-05
0.000169154
6.67197e-05
0.000165069
6.10853e-05
0.000161344
5.53608e-05
0.000158008
4.95576e-05
0.000155086
4.36425e-05
0.000152612
3.76327e-05
0.000150609
3.15125e-05
0.000149125
2.53063e-05
0.000148151
1.90199e-05
0.000147722
1.26727e-05
0.000147878
6.29195e-06
0.000148624
-8.87843e-08
0.000149948
-6.42711e-06
0.000151846
-1.26743e-05
0.000154303
-1.87821e-05
0.000157286
-2.47027e-05
0.000160756
-3.03956e-05
0.000164668
-3.58344e-05
-4.10069e-05
0.000168976
0.000411565
0.000107307
0.000433686
0.000126675
0.000448961
0.00014683
0.000452775
0.000165632
0.000449217
0.000181268
0.000442682
0.000198263
0.000418431
0.000208226
0.0003827
0.000209753
0.000342705
0.000205316
0.000310231
0.000198023
0.000287822
0.000191266
0.000273502
0.00018675
0.000263838
0.000183858
0.000256639
0.0001812
0.000250797
0.00017791
0.000245656
0.000173712
0.000240837
0.000168613
0.000236124
0.000162782
0.000231416
0.000156409
0.000226664
0.000149723
0.000221846
0.000142902
0.000216963
0.000136081
0.000212008
0.000129403
0.000207007
0.000122856
0.000201945
0.000116554
0.000196862
0.000110421
0.000191771
0.000104495
0.000186691
9.86929e-05
0.000181689
9.30027e-05
0.000176774
8.73656e-05
0.000172011
8.1729e-05
0.000167419
7.60742e-05
0.00016306
7.0333e-05
0.000158972
6.45198e-05
0.000155197
5.85607e-05
0.000151802
5.24935e-05
0.000148799
4.62744e-05
0.000146264
3.99267e-05
0.00014419
3.34438e-05
0.000142623
2.68392e-05
0.000141598
2.0129e-05
0.000141142
1.33314e-05
0.000141285
6.47563e-06
0.000142043
-3.97014e-07
0.00014341
-7.23038e-06
0.000145377
-1.39586e-05
0.000147918
-2.05164e-05
0.000150977
-2.68366e-05
0.000154489
-3.2867e-05
0.000158381
-3.85737e-05
-4.39589e-05
0.000162588
0.000356364
0.000106452
0.00037793
0.000129187
0.000393118
0.000149942
0.000399089
0.000169028
0.000398988
0.000186153
0.000395639
0.000200523
0.000377343
0.000214618
0.000341707
0.000215477
0.000310857
0.000209151
0.000283212
0.000203195
0.000261839
0.000196546
0.000247612
0.000191119
0.00023883
0.000187059
0.000233137
0.000183667
0.000228959
0.000180068
0.000225492
0.000175779
0.000222315
0.000170701
0.000219196
0.00016494
0.000216003
0.000158694
0.000212681
0.000152139
0.000209172
0.000145491
0.000205497
0.000138832
0.0002016
0.000132333
0.000197514
0.000125976
0.000193256
0.00011983
0.000188821
0.000113874
0.000184275
0.000108064
0.000179627
0.000102402
0.000174928
9.67741e-05
0.000170222
9.11959e-05
0.000165573
8.55429e-05
0.000161046
7.98409e-05
0.000156674
7.39957e-05
0.00015255
6.80263e-05
0.000148693
6.18728e-05
0.000145211
5.55415e-05
0.000142113
4.90377e-05
0.000139444
4.23515e-05
0.000137269
3.54915e-05
0.000135625
2.84808e-05
0.000134531
2.13321e-05
0.000134015
1.40679e-05
0.000134115
6.71866e-06
0.00013485
-6.65484e-07
0.000136211
-8.0051e-06
0.000138169
-1.52091e-05
0.000140664
-2.21843e-05
0.000143615
-2.88416e-05
0.000146923
-3.51131e-05
0.000150493
-4.0969e-05
-4.64299e-05
0.000154253
0.000307931
0.000111143
0.000327049
0.000132627
0.000339932
0.00015263
0.000345869
0.000171234
0.000346692
0.000188211
0.00034327
0.000204983
0.000327181
0.000216166
0.000297752
0.000212915
0.000270146
0.000209457
0.000247906
0.000204138
0.000231553
0.000198459
0.000220168
0.000193121
0.000212901
0.000188624
0.000208634
0.000184671
0.000206118
0.000180691
0.000204406
0.000176259
0.000202955
0.000171216
0.000201501
0.000165585
0.000199884
0.000159539
0.000198038
0.000153217
0.000195909
0.000146829
0.000193469
0.000140462
0.000190719
0.000134242
0.00018762
0.000128212
0.00018421
0.000122352
0.000180481
0.000116708
0.000176484
0.000111158
0.000172266
0.000105741
0.000167875
0.0001003
0.000163386
9.4867e-05
0.000158831
8.93106e-05
0.000154333
8.3607e-05
0.00014994
7.7737e-05
0.000145734
7.16468e-05
0.000141769
6.53321e-05
0.000138115
5.87644e-05
0.00013487
5.19593e-05
0.000132066
4.49404e-05
0.000129734
3.77009e-05
0.00012794
3.02685e-05
0.000126726
2.26699e-05
0.000126102
1.49317e-05
0.000126086
7.09111e-06
0.000126695
-7.92888e-07
0.000127896
-8.60189e-06
0.000129629
-1.62104e-05
0.000131801
-2.35003e-05
0.000134294
-3.03646e-05