/*--------------------------------*- C++ -*----------------------------------*\
  =========                 |
  \\      /  F ield         | OpenFOAM: The Open Source CFD Toolbox
   \\    /   O peration     | Website:  https://openfoam.org
    \\  /    A nd           | Version:  10
     \\/     M anipulation  |
\*---------------------------------------------------------------------------*/
FoamFile
{
    format      ascii;
    class       volScalarField;
    location    "0.948548";
    object      rho;
}
// * * * * * * * * * * * * * * * * * * * * * * * * * * * * * * * * * * * * * //

dimensions      [1 -3 0 0 0 0 0];

internalField   nonuniform List<scalar> 
15708
(
0.956238
0.958905
0.961762
0.964785
0.967873
0.971011
0.974181
0.977391
0.980609
0.983819
0.986992
0.990101
0.993117
0.99603
0.998821
1.0015
1.00409
1.00659
1.00902
1.01136
1.01363
1.01583
1.01794
1.01998
1.02193
1.02381
1.02562
1.02735
1.02902
1.03062
1.03215
1.03364
1.03507
1.03645
1.03778
1.03906
1.04028
1.0415
1.04263
1.04376
1.04482
1.04586
1.04683
1.04775
1.04864
1.0494
1.05024
1.05084
1.05155
1.05204
1.0526
0.956846
0.959108
0.96184
0.964706
0.967642
0.970643
0.973711
0.976832
0.979976
0.983132
0.986268
0.989345
0.992343
0.995244
0.998033
1.00072
1.00332
1.00584
1.00828
1.01064
1.01292
1.01514
1.01726
1.01931
1.02126
1.02316
1.02498
1.02673
1.0284
1.03003
1.03157
1.03306
1.0345
1.03588
1.03721
1.0385
1.03971
1.04093
1.04205
1.04317
1.04421
1.04523
1.04621
1.0471
1.04797
1.04877
1.04953
1.0502
1.05082
1.05138
1.05186
0.957148
0.958989
0.96167
0.964376
0.967196
0.970113
0.973123
0.976197
0.979312
0.982442
0.985548
0.988601
0.991574
0.994464
0.997257
0.99994
1.00256
1.00506
1.00752
1.00989
1.0122
1.01443
1.01658
1.01863
1.02062
1.02251
1.02434
1.0261
1.02778
1.02942
1.03096
1.03246
1.03388
1.03527
1.03658
1.03787
1.03909
1.04029
1.04141
1.04251
1.04354
1.04455
1.0455
1.04639
1.04723
1.04803
1.04875
1.04945
1.05
1.05062
1.05101
0.956347
0.959244
0.961381
0.963944
0.966695
0.969576
0.972566
0.975612
0.978697
0.981786
0.984842
0.98786
0.990807
0.9937
0.996475
0.999179
1.00176
1.00428
1.00673
1.00911
1.01144
1.01368
1.01585
1.01792
1.01993
1.02185
1.02369
1.02546
1.02716
1.02879
1.03036
1.03185
1.03328
1.03466
1.03596
1.03724
1.03844
1.03963
1.04074
1.04182
1.04284
1.04383
1.04476
1.04564
1.04648
1.04722
1.04798
1.04859
1.04922
1.04973
1.05019
0.956787
0.958565
0.960873
0.963422
0.966138
0.968975
0.971902
0.97489
0.977921
0.980971
0.984016
0.987027
0.989985
0.992862
0.995661
0.998364
1.00098
1.00353
1.006
1.00841
1.01074
1.013
1.01517
1.01726
1.01926
1.0212
1.02304
1.02483
1.02652
1.02815
1.02971
1.03121
1.03264
1.03401
1.03532
1.03659
1.03778
1.03896
1.04004
1.04112
1.04211
1.04309
1.04398
1.04485
1.04567
1.04639
1.04712
1.04772
1.04833
1.04881
1.04928
0.956065
0.958061
0.960327
0.962783
0.965408
0.968175
0.971067
0.97405
0.977085
0.980128
0.983157
0.986158
0.989114
0.992024
0.994851
0.997596
1.00025
1.00282
1.00533
1.00778
1.01013
1.0124
1.01457
1.01664
1.01864
1.02056
1.0224
1.02418
1.02588
1.02751
1.02906
1.03054
1.03196
1.03332
1.03462
1.03588
1.03708
1.03824
1.03933
1.04038
1.04136
1.04231
1.0432
1.04403
1.04482
1.04555
1.04622
1.04683
1.04739
1.04787
1.04831
0.955442
0.957505
0.95966
0.962032
0.964658
0.967471
0.970396
0.973377
0.976391
0.979426
0.982457
0.98546
0.988448
0.991375
0.99425
0.99701
0.999671
1.00221
1.00469
1.0071
1.00945
1.01169
1.01386
1.01594
1.01795
1.01987
1.02171
1.02347
1.02516
1.02679
1.02836
1.02988
1.03133
1.03271
1.034
1.03524
1.0364
1.03753
1.03859
1.0396
1.04057
1.04148
1.04236
1.04317
1.04393
1.04464
1.04529
1.04589
1.04642
1.04689
1.04731
0.954739
0.956398
0.95855
0.960966
0.963652
0.966503
0.96945
0.972438
0.975461
0.978511
0.98159
0.984662
0.987707
0.990669
0.993545
0.99631
0.998961
1.00151
1.00396
1.00636
1.0087
1.01097
1.01316
1.01526
1.01727
1.01917
1.02098
1.02272
1.02442
1.02607
1.02767
1.0292
1.03066
1.03204
1.03335
1.03457
1.03572
1.03681
1.03784
1.03882
1.03974
1.04065
1.04147
1.04229
1.04302
1.0437
1.04435
1.0449
1.04543
1.04586
1.04626
0.952687
0.95589
0.957146
0.960175
0.962487
0.965334
0.968338
0.971432
0.974576
0.977724
0.980859
0.983941
0.986971
0.989917
0.992757
0.995497
0.998156
1.00075
1.00326
1.00569
1.00803
1.01026
1.01241
1.01449
1.0165
1.01844
1.02029
1.02209
1.0238
1.02546
1.02703
1.02854
1.02997
1.03133
1.03261
1.03383
1.03497
1.03605
1.03707
1.03803
1.03894
1.03982
1.04062
1.04141
1.0421
1.04277
1.04336
1.04391
1.0444
1.04482
1.04519
0.952411
0.953539
0.956874
0.958055
0.961624
0.964146
0.967184
0.970363
0.97359
0.976802
0.979989
0.983124
0.986177
0.989111
0.991946
0.994696
0.997375
0.999999
1.00253
1.00496
1.00727
1.00951
1.01167
1.01379
1.01583
1.01778
1.01967
1.02146
1.02318
1.0248
1.02636
1.02781
1.02922
1.03053
1.0318
1.03299
1.03413
1.0352
1.03622
1.03718
1.03809
1.03895
1.03974
1.0405
1.04118
1.04182
1.04238
1.04291
1.04336
1.04377
1.04411
0.952126
0.953712
0.955887
0.957915
0.960604
0.963238
0.966423
0.969377
0.972584
0.975802
0.979008
0.982182
0.985318
0.988331
0.991193
0.993938
0.996611
0.999211
1.00173
1.00416
1.00649
1.00876
1.01096
1.01309
1.01516
1.01712
1.019
1.02077
1.02247
1.02407
1.02562
1.02708
1.02849
1.02982
1.03108
1.03227
1.03339
1.03444
1.03545
1.03638
1.03726
1.03808
1.03884
1.03956
1.04022
1.04082
1.04139
1.04187
1.04231
1.0427
1.04301
0.953923
0.959169
0.956322
0.961655
0.959731
0.965119
0.964917
0.969228
0.97136
0.974595
0.977843
0.981064
0.984241
0.987349
0.990356
0.993217
0.99593
0.998513
1.00099
1.0034
1.00574
1.00801
1.01021
1.01233
1.01438
1.01635
1.01824
1.02003
1.02175
1.02336
1.02491
1.02636
1.02777
1.02908
1.03034
1.03151
1.03262
1.03365
1.03462
1.03554
1.0364
1.0372
1.03796
1.03864
1.03928
1.03985
1.04038
1.04084
1.04126
1.04161
1.04193
0.979006
0.973114
0.970549
0.966034
0.970469
0.965138
0.969662
0.96772
0.971737
0.973719
0.976689
0.979843
0.98303
0.986199
0.989276
0.992224
0.995021
0.99767
1.00019
1.00261
1.00496
1.00722
1.00942
1.01155
1.0136
1.01559
1.01749
1.01929
1.02101
1.02264
1.02418
1.02565
1.02704
1.02834
1.02956
1.03071
1.0318
1.03283
1.03378
1.03467
1.03553
1.03631
1.03705
1.0377
1.03832
1.03889
1.03939
1.03985
1.04022
1.04056
1.04082
1.06278
1.00693
1.01104
0.992127
0.982897
0.978354
0.974413
0.97326
0.972991
0.974504
0.97671
0.979355
0.982268
0.9853
0.988345
0.991298
0.994134
0.996818
0.999368
1.00179
1.00414
1.00642
1.00866
1.01081
1.01289
1.01488
1.01679
1.0186
1.02032
1.02193
1.02344
1.02489
1.02625
1.02755
1.02877
1.02992
1.03098
1.032
1.03295
1.03384
1.03467
1.03543
1.03615
1.03678
1.0374
1.03793
1.03843
1.03883
1.03919
1.03948
1.03972
1.22574
1.21536
1.11124
1.05615
1.02525
1.00229
0.989014
0.980967
0.977034
0.976
0.976847
0.978827
0.981468
0.984419
0.987452
0.99043
0.993281
0.996006
0.998583
1.00107
1.00342
1.00575
1.00795
1.01014
1.01218
1.01418
1.01604
1.01786
1.01955
1.02118
1.02271
1.02416
1.02553
1.02681
1.028
1.02912
1.03017
1.03116
1.03209
1.03298
1.03379
1.03454
1.03525
1.03585
1.03645
1.03699
1.03744
1.03787
1.03815
1.03847
1.03865
1.4341
1.3615
1.30791
1.22444
1.13873
1.0723
1.02614
1.00064
0.987359
0.981135
0.979188
0.979612
0.981354
0.98383
0.986645
0.989537
0.992374
0.995107
0.99774
1.00025
1.00269
1.00498
1.00727
1.00936
1.01149
1.01337
1.01531
1.01703
1.0188
1.02037
1.02195
1.02338
1.02474
1.02602
1.02722
1.02832
1.02937
1.03035
1.03128
1.03214
1.03294
1.03368
1.03438
1.03495
1.03554
1.03605
1.03648
1.03688
1.03716
1.03745
1.03762
1.45825
1.46697
1.43871
1.38351
1.2877
1.18864
1.10752
1.04876
1.01279
0.993485
0.984319
0.981306
0.98147
0.983227
0.985737
0.988523
0.991353
0.994117
0.996779
0.99934
1.0018
1.00417
1.00638
1.00862
1.01059
1.0127
1.01443
1.01642
1.01794
1.01974
1.0211
1.02267
1.0239
1.02524
1.02637
1.0275
1.02854
1.02952
1.03044
1.0313
1.03208
1.03282
1.03348
1.03406
1.03463
1.03512
1.03554
1.03591
1.03619
1.03645
1.03662
1.45982
1.46738
1.47418
1.47082
1.41336
1.31927
1.20683
1.11818
1.05496
1.01671
0.996968
0.987644
0.984167
0.98398
0.985508
0.987863
0.990488
0.993198
0.99584
0.99842
1.00088
1.00327
1.00556
1.0077
1.00986
1.01175
1.01385
1.01544
1.01745
1.01875
1.02061
1.02166
1.02335
1.02422
1.02573
1.02669
1.02776
1.02868
1.02957
1.03042
1.03121
1.03197
1.0326
1.03317
1.03374
1.03421
1.03463
1.03498
1.03526
1.03547
1.03566
1.41295
1.45025
1.47319
1.46793
1.4957
1.4082
1.30869
1.19253
1.11002
1.05086
1.01307
0.994067
0.986495
0.984435
0.985098
0.987058
0.989596
0.992291
0.994966
0.997523
1.00004
1.00237
1.00473
1.00684
1.00902
1.01098
1.01291
1.01477
1.01643
1.01825
1.01955
1.02119
1.02224
1.02371
1.02458
1.02593
1.02674
1.02793
1.02885
1.02957
1.03035
1.03104
1.03175
1.03231
1.03288
1.03331
1.0337
1.03401
1.0343
1.03446
1.03464
1.32796
1.40266
1.45469
1.47594
1.47162
1.47919
1.39133
1.26899
1.1513
1.08374
1.03975
1.01074
0.9945
0.987575
0.985851
0.986839
0.988928
0.991429
0.994053
0.996641
0.999096
1.00154
1.00375
1.00614
1.00803
1.01039
1.01193
1.01418
1.01551
1.01734
1.01875
1.02025
1.02159
1.02272
1.02403
1.02492
1.02611
1.02686
1.02794
1.02881
1.02964
1.03026
1.03087
1.03147
1.03203
1.0325
1.03288
1.0332
1.03344
1.03361
1.03374
1.26622
1.35242
1.42947
1.46867
1.48179
1.46255
1.45715
1.36534
1.2287
1.11316
1.05148
1.01854
1.00041
0.99132
0.987821
0.987427
0.988729
0.990852
0.99322
0.995774
0.998153
1.00068
1.00288
1.00523
1.00724
1.00936
1.01131
1.01303
1.01506
1.01632
1.01816
1.01923
1.02089
1.02205
1.02304
1.02426
1.02516
1.02628
1.02701
1.02799
1.02881
1.02941
1.03001
1.03067
1.03124
1.03169
1.03207
1.03238
1.03261
1.03279
1.03288
1.23113
1.3263
1.40947
1.4654
1.47884
1.49184
1.45122
1.38351
1.26754
1.15427
1.07374
1.02835
1.00512
0.993576
0.988673
0.987567
0.988389
0.99025
0.992447
0.99491
0.997307
0.999745
1.00208
1.00431
1.00657
1.00845
1.01057
1.01216
1.01397
1.01552
1.01708
1.01855
1.01977
1.02122
1.02211
1.02343
1.02427
1.02541
1.02637
1.02717
1.02795
1.02861
1.02925
1.02983
1.03037
1.03073
1.03111
1.0314
1.03166
1.03185
1.03195
1.25297
1.3391
1.41657
1.46745
1.49005
1.48587
1.49672
1.39293
1.28246
1.18063
1.09576
1.03918
1.00891
0.99497
0.989183
0.987523
0.988004
0.989588
0.991693
0.994001
0.996502
0.998755
1.0014
1.00335
1.00569
1.00762
1.00954
1.01147
1.01308
1.01486
1.01613
1.01779
1.01884
1.02033
1.02127
1.02242
1.02361
1.02453
1.02538
1.02635
1.02722
1.02794
1.02856
1.02913
1.02963
1.03004
1.03038
1.03064
1.03085
1.03096
1.03106
1.29952
1.38154
1.44384
1.48607
1.49857
1.50814
1.4727
1.39218
1.27648
1.17673
1.10056
1.04783
1.01442
0.996708
0.989218
0.987045
0.98738
0.98885
0.990956
0.993147
0.995646
0.997926
1.00036
1.00267
1.00472
1.00693
1.00859
1.01066
1.01211
1.01403
1.01539
1.01674
1.01822
1.01937
1.02073
1.02159
1.02255
1.02375
1.02458
1.02532
1.02621
1.02701
1.02769
1.02824
1.02875
1.02919
1.02961
1.02995
1.0302
1.03044
1.0307
1.43462
1.46812
1.49351
1.50575
1.51327
1.50065
1.47982
1.35907
1.25344
1.1638
1.09495
1.04615
1.0159
0.998734
0.990255
0.987129
0.987024
0.988251
0.990241
0.992398
0.994769
0.997116
0.999398
1.00176
1.00374
1.00596
1.00766
1.00968
1.0112
1.013
1.01453
1.01584
1.0172
1.01868
1.01977
1.02094
1.02171
1.02264
1.02379
1.02464
1.02535
1.02609
1.02684
1.02746
1.02798
1.02845
1.02899
1.0296
1.03041
1.0313
1.03215
1.46535
1.48525
1.49803
1.50684
1.50231
1.50345
1.41834
1.31857
1.21746
1.14052
1.0824
1.04136
1.0141
0.998103
0.990257
0.987207
0.986822
0.987857
0.989612
0.991765
0.993961
0.996313
0.998456
1.0008
1.0027
1.00492
1.00657
1.00863
1.01006
1.01192
1.01332
1.01489
1.0161
1.01765
1.01873
1.02009
1.02095
1.02197
1.02282
1.02387
1.02459
1.02528
1.02613
1.02683
1.02754
1.02842
1.02972
1.03177
1.03486
1.03755
1.03927
1.39039
1.43215
1.45585
1.46295
1.4727
1.417
1.35192
1.26098
1.17699
1.11161
1.06538
1.03204
1.00985
0.996478
0.989425
0.986629
0.986333
0.98738
0.989017
0.991141
0.993222
0.995515
0.997554
0.99982
1.00168
1.00379
1.0055
1.00744
1.00893
1.01074
1.01201
1.01366
1.01478
1.01631
1.0175
1.01892
1.01988
1.02094
1.02193
1.02276
1.02372
1.02462
1.02553
1.02659
1.02837
1.03169
1.03655
1.04479
1.05501
1.06135
1.06021
1.20146
1.23911
1.27748
1.30012
1.29962
1.27302
1.21287
1.16049
1.10884
1.06627
1.03592
1.01556
1.00161
0.992625
0.987717
0.985938
0.985924
0.987101
0.988691
0.990802
0.992763
0.994993
0.996905
0.99909
1.00081
1.00294
1.00441
1.00648
1.00773
1.00959
1.01074
1.01236
1.01355
1.01479
1.0161
1.01745
1.01856
1.0198
1.021
1.02191
1.02308
1.02438
1.02621
1.02974
1.03788
1.05354
1.0719
1.09737
1.12213
1.10911
1.07981
1.18635
1.17126
1.16203
1.15469
1.14257
1.12538
1.10161
1.07467
1.04876
1.02638
1.01058
1.00057
0.993785
0.989358
0.986784
0.985819
0.986212
0.987714
0.989423
0.99165
0.993555
0.995687
0.997331
0.999231
1.00068
1.00244
1.00382
1.00554
1.00681
1.00848
1.00956
1.01111
1.01232
1.01354
1.0149
1.01624
1.01744
1.01883
1.02028
1.02179
1.02389
1.02802
1.03861
1.0638
1.09943
1.14461
1.2009
1.23692
1.18902
1.11872
1.07926
1.23844
1.19695
1.16373
1.13598
1.10959
1.08637
1.06585
1.04506
1.02875
1.01431
1.00466
0.998473
0.994056
0.990818
0.989278
0.989515
0.990996
0.993453
0.996087
0.99887
1.00123
1.00298
1.00387
1.0047
1.0047
1.00515
1.00525
1.00614
1.00664
1.00794
1.00873
1.01008
1.01117
1.01239
1.01382
1.01527
1.01684
1.01872
1.02186
1.02853
1.04373
1.07892
1.14418
1.23084
1.30608
1.38867
1.39514
1.30238
1.16361
1.1032
1.11408
1.25606
1.25132
1.22026
1.17593
1.13564
1.10377
1.07941
1.05628
1.04059
1.02674
1.01914
1.01439
1.01298
1.01341
1.01539
1.01916
1.02435
1.0308
1.03816
1.04525
1.05141
1.05483
1.0544
1.04608
1.03521
1.02611
1.01869
1.01383
1.01071
1.0092
1.00841
1.00916
1.01018
1.01157
1.01339
1.01582
1.02019
1.0294
1.0511
1.10123
1.19915
1.32494
1.43244
1.49489
1.54084
1.53097
1.41632
1.17687
1.11637
1.17969
1.3831
1.24421
1.2595
1.26393
1.25762
1.23716
1.20908
1.1844
1.15779
1.14305
1.13306
1.13546
1.13168
1.12715
1.13174
1.14323
1.16079
1.18107
1.20645
1.23584
1.26049
1.27117
1.25214
1.1929
1.13151
1.08359
1.05045
1.0298
1.01805
1.01152
1.00873
1.00798
1.00897
1.0107
1.01393
1.02044
1.03433
1.0645
1.13127
1.25154
1.38635
1.50808
1.57204
1.61304
1.65721
1.63286
1.43648
1.18433
1.15088
1.2985
1.48312
1.50248
1.19121
1.23977
1.26418
1.2778
1.28831
1.29534
1.29816
1.29753
1.30219
1.29565
1.29133
1.30933
1.33921
1.36985
1.40547
1.43816
1.46686
1.48997
1.49864
1.48146
1.41738
1.31592
1.21426
1.13483
1.08029
1.04641
1.02763
1.01724
1.01196
1.01045
1.01252
1.01859
1.03008
1.05247
1.09653
1.18385
1.30206
1.42869
1.52638
1.57779
1.62967
1.70639
1.71563
1.618
1.39
1.22445
1.23493
1.45121
1.52394
1.44524
1.18205
1.14293
1.17685
1.2205
1.25761
1.28691
1.31088
1.32996
1.34483
1.37044
1.40917
1.46672
1.50525
1.55325
1.58312
1.60511
1.61181
1.60623
1.58574
1.5459
1.48108
1.38202
1.25968
1.16408
1.10422
1.06701
1.04516
1.03321
1.03063
1.03507
1.04829
1.07466
1.11832
1.184
1.26796
1.366
1.45497
1.52333
1.56518
1.61453
1.70167
1.72843
1.70771
1.58176
1.35134
1.30235
1.37513
1.48925
1.48709
1.30852
1.11897
1.07995
1.18195
1.19626
1.23083
1.27248
1.30937
1.34894
1.39654
1.44839
1.50332
1.54934
1.58579
1.60876
1.62417
1.6284
1.62168
1.6012
1.56381
1.49966
1.41783
1.32986
1.24728
1.19359
1.15391
1.12195
1.10753
1.11386
1.13972
1.17132
1.20878
1.25665
1.31109
1.36366
1.41432
1.46441
1.5042
1.53278
1.57973
1.65944
1.71072
1.72017
1.67376
1.50355
1.40293
1.38904
1.45012
1.46445
1.38274
1.18612
1.11836
1.10954
1.13298
1.28861
1.29517
1.31515
1.34556
1.37545
1.40789
1.44645
1.48795
1.52214
1.54646
1.56057
1.55996
1.54534
1.51994
1.48647
1.44382
1.40237
1.368
1.3361
1.30376
1.27496
1.26956
1.27183
1.28079
1.2879
1.30252
1.32063
1.34281
1.36795
1.3919
1.41461
1.43892
1.46357
1.48757
1.52691
1.58249
1.66624
1.68966
1.69091
1.61638
1.4846
1.44428
1.43709
1.44631
1.40536
1.26934
1.16611
1.14871
1.15066
1.23227
1.44663
1.29272
1.31334
1.32051
1.34859
1.36499
1.39192
1.41362
1.43151
1.44314
1.44955
1.45146
1.44874
1.44279
1.4321
1.41767
1.40119
1.38284
1.36753
1.35099
1.32855
1.31934
1.31862
1.32216
1.32149
1.31986
1.32362
1.33589
1.35311
1.37051
1.38416
1.39657
1.42066
1.4597
1.50391
1.58821
1.64003
1.65602
1.64937
1.55063
1.48828
1.46237
1.4488
1.42247
1.33966
1.23031
1.19728
1.1908
1.23522
1.422
1.63832
1.83768
1.45686
1.43424
1.43867
1.43179
1.43494
1.43913
1.44219
1.44244
1.44077
1.43764
1.43273
1.42503
1.41351
1.39607
1.37615
1.3512
1.32973
1.30147
1.28309
1.27307
1.27137
1.27439
1.27716
1.27839
1.27659
1.27706
1.28377
1.29551
1.30906
1.3317
1.37197
1.4231
1.49084
1.58001
1.60568
1.61999
1.59487
1.526
1.50158
1.47669
1.45774
1.40545
1.31537
1.26031
1.25467
1.26945
1.41134
1.63083
1.77349
1.8792
1.93588
1.53124
1.51393
1.49329
1.47554
1.4551
1.43492
1.41921
1.40001
1.37688
1.35215
1.32195
1.28802
1.25496
1.2234
1.20504
1.20351
1.204
1.22563
1.2358
1.24492
1.24718
1.24777
1.24407
1.2322
1.22752
1.22923
1.23904
1.26163
1.29459
1.33645
1.40059
1.50232
1.54587
1.5744
1.578
1.56377
1.53455
1.52166
1.50165
1.47886
1.42625
1.36842
1.34049
1.34751
1.46058
1.62172
1.75232
1.8564
1.9495
1.94667
1.98014
1.27407
1.24924
1.22684
1.20841
1.19312
1.17027
1.15078
1.13571
1.12679
1.11929
1.12116
1.12317
1.13938
1.16181
1.18632
1.21043
1.2425
1.26677
1.27442
1.2765
1.27201
1.2586
1.24268
1.23105
1.22791
1.2323
1.25034
1.28966
1.35433
1.43678
1.50128
1.543
1.55178
1.56149
1.56165
1.55098
1.54136
1.53195
1.52454
1.4892
1.45811
1.45665
1.54946
1.65987
1.76074
1.85778
1.92151
1.9454
1.96607
1.98104
1.98142
1.11493
1.0843
1.06283
1.04967
1.04785
1.05348
1.05686
1.06898
1.07963
1.09915
1.1224
1.14598
1.18622
1.23269
1.27606
1.32415
1.33183
1.34103
1.33876
1.33178
1.31892
1.29528
1.27807
1.27345
1.27714
1.30306
1.34857
1.40958
1.46324
1.49919
1.52586
1.54523
1.56381
1.56709
1.5859
1.58631
1.59071
1.59164
1.58947
1.58936
1.65002
1.73199
1.79852
1.86617
1.90381
1.94342
1.95662
1.97212
1.97171
1.97885
1.97977
1.09255
1.07646
1.05903
1.06368
1.06751
1.07185
1.08761
1.10374
1.13181
1.16292
1.19786
1.24051
1.27713
1.31192
1.34221
1.36121
1.36682
1.36988
1.36687
1.36593
1.35948
1.35746
1.3564
1.36473
1.37861
1.40434
1.43597
1.47014
1.50394
1.53708
1.56464
1.5954
1.61591
1.67669
1.67284
1.70925
1.70655
1.74208
1.74644
1.79497
1.83327
1.88277
1.91067
1.93628
1.94937
1.96131
1.96422
1.96879
1.96943
1.97198
1.97366
1.15548
1.13085
1.1181
1.12187
1.12119
1.13319
1.14742
1.17314
1.20141
1.22914
1.2634
1.289
1.31921
1.3426
1.36042
1.3733
1.38103
1.38469
1.38623
1.385
1.39186
1.39026
1.40145
1.41228
1.43454
1.46614
1.50564
1.55432
1.59773
1.63767
1.68515
1.72653
1.75967
1.7898
1.78279
1.82387
1.81784
1.86296
1.85955
1.90948
1.90799
1.93997
1.9393
1.95448
1.95388
1.95961
1.95969
1.9615
1.96288
1.9642
1.96569
1.31816
1.27473
1.2513
1.22338
1.23043
1.22634
1.23312
1.2405
1.26239
1.28441
1.30638
1.33038
1.34909
1.36857
1.38236
1.39545
1.40396
1.41239
1.4171
1.42733
1.43676
1.45371
1.481
1.52283
1.566
1.61543
1.66753
1.7092
1.75129
1.7864
1.81478
1.83696
1.85467
1.85794
1.88175
1.88206
1.90621
1.90716
1.92449
1.93363
1.93749
1.94615
1.94506
1.95003
1.94966
1.95102
1.95165
1.95304
1.95316
1.95574
1.95632
1.52628
1.49238
1.46498
1.44611
1.42919
1.41869
1.40918
1.40309
1.40339
1.40362
1.40659
1.41446
1.42175
1.43327
1.44519
1.45817
1.47417
1.49167
1.51742
1.54511
1.58235
1.62019
1.66411
1.70016
1.74192
1.78205
1.8093
1.83944
1.85564
1.8734
1.8937
1.8883
1.90736
1.90342
1.91999
1.91661
1.93024
1.92772
1.9373
1.93564
1.94029
1.93916
1.9412
1.94093
1.94129
1.94114
1.94239
1.9417
1.94422
1.94421
1.94852
1.70235
1.67965
1.66085
1.64726
1.63686
1.62916
1.62327
1.61992
1.61451
1.61662
1.61624
1.61827
1.61954
1.62628
1.63599
1.64967
1.66862
1.68906
1.71026
1.73701
1.76336
1.79102
1.81715
1.83966
1.86384
1.88029
1.89262
1.90453
1.90907
1.91918
1.91548
1.92552
1.92215
1.92936
1.92635
1.93184
1.92915
1.93266
1.93057
1.93187
1.93058
1.93038
1.93005
1.92935
1.92937
1.92909
1.92981
1.93026
1.93224
1.93388
1.93758
1.82527
1.81317
1.80367
1.79742
1.79305
1.79014
1.78842
1.78869
1.78994
1.79105
1.79402
1.79509
1.79957
1.80421
1.81095
1.81953
1.83007
1.8414
1.85531
1.8692
1.88338
1.89592
1.90704
1.91632
1.92456
1.92779
1.93136
1.93292
1.93221
1.9337
1.93107
1.9338
1.92788
1.93095
1.92627
1.92751
1.92368
1.92345
1.92081
1.91943
1.91796
1.91715
1.91637
1.91617
1.91654
1.91544
1.91798
1.91637
1.9205
1.91945
1.92629
1.90393
1.89812
1.89404
1.89201
1.89145
1.89168
1.89187
1.8949
1.89679
1.89935
1.90127
1.9033
1.90588
1.90844
1.91202
1.91621
1.92055
1.92566
1.93075
1.93612
1.9402
1.94344
1.94532
1.94847
1.94625
1.94742
1.94375
1.94223
1.94165
1.93546
1.93567
1.92928
1.92796
1.92229
1.92019
1.91525
1.91279
1.9091
1.9068
1.90489
1.90349
1.90271
1.90185
1.90147
1.90117
1.90112
1.9018
1.90157
1.90298
1.90435
1.90887
1.94907
1.94669
1.94528
1.94528
1.94604
1.94737
1.95031
1.95202
1.95441
1.9565
1.9579
1.95948
1.96024
1.96136
1.96212
1.96308
1.96349
1.96455
1.96477
1.96517
1.96409
1.96334
1.96302
1.95678
1.9568
1.95011
1.95005
1.94198
1.94031
1.9324
1.92934
1.92206
1.91788
1.91238
1.90723
1.90334
1.89813
1.89473
1.89151
1.88929
1.88771
1.88664
1.88574
1.8859
1.88613
1.88654
1.88744
1.88745
1.88811
1.88914
1.89413
1.97377
1.97309
1.97298
1.97399
1.97537
1.9771
1.97975
1.98118
1.98326
1.98456
1.98541
1.98587
1.98595
1.98575
1.98514
1.98417
1.98293
1.98162
1.97944
1.97747
1.97428
1.97134
1.96702
1.9624
1.95841
1.95237
1.94762
1.9411
1.93523
1.928
1.92279
1.9137
1.90866
1.90012
1.89341
1.88557
1.87913
1.87163
1.86659
1.86217
1.85961
1.85768
1.8571
1.85731
1.85805
1.85896
1.86014
1.86066
1.86061
1.86011
1.86396
1.98792
1.98789
1.98832
1.98976
1.99157
1.99279
1.99573
1.9964
1.9987
1.99908
1.99969
1.99943
1.99905
1.99809
1.99661
1.99479
1.99295
1.98953
1.98699
1.98307
1.9793
1.97488
1.96994
1.96475
1.95902
1.95242
1.94616
1.93783
1.93178
1.92143
1.91205
1.9018
1.889
1.87936
1.86824
1.86054
1.85287
1.84746
1.84389
1.84201
1.84112
1.84129
1.84153
1.84283
1.84276
1.84371
1.84345
1.84407
1.84057
1.83539
1.83158
1.05297
1.05337
1.05365
1.05388
1.05403
1.05414
1.05417
1.05415
1.05405
1.05391
1.05371
1.05344
1.05311
1.05272
1.0523
1.05177
1.05126
1.05063
1.04998
1.04926
1.04848
1.04767
1.04678
1.04584
1.04491
1.04376
1.0523
1.05264
1.05293
1.05316
1.0533
1.05341
1.05344
1.0534
1.05333
1.05317
1.05296
1.05269
1.05235
1.05198
1.05155
1.05107
1.05054
1.04994
1.0493
1.04858
1.0479
1.04696
1.04635
1.04513
1.04455
1.04312
1.0515
1.05181
1.05209
1.05232
1.05247
1.05255
1.05259
1.05255
1.05246
1.05233
1.05211
1.05185
1.05153
1.05115
1.05073
1.05025
1.04974
1.04917
1.04855
1.04788
1.04716
1.04639
1.04558
1.04472
1.04375
1.04295
1.0506
1.05094
1.0512
1.05141
1.05157
1.05165
1.05167
1.05163
1.05154
1.0514
1.05121
1.05095
1.05064
1.05027
1.04986
1.0494
1.0489
1.04835
1.04774
1.04712
1.0464
1.0457
1.04491
1.04407
1.04324
1.04224
1.04966
1.05
1.05025
1.05045
1.05059
1.05068
1.05068
1.05066
1.05057
1.05042
1.05023
1.04997
1.04967
1.04933
1.04891
1.04849
1.048
1.04747
1.04691
1.04629
1.04565
1.04493
1.04423
1.04342
1.04259
1.04179
1.04868
1.04899
1.04924
1.04944
1.04956
1.04964
1.04965
1.04962
1.04953
1.04939
1.04919
1.04894
1.04864
1.04832
1.04793
1.04752
1.04706
1.04656
1.046
1.04546
1.04475
1.04425
1.04334
1.04288
1.04179
1.04112
1.04766
1.04795
1.04819
1.04836
1.04849
1.04855
1.04856
1.04852
1.04842
1.04827
1.04809
1.04785
1.04757
1.04724
1.04688
1.04647
1.04603
1.04557
1.04504
1.04452
1.04392
1.04333
1.04265
1.04203
1.04122
1.04063
1.0466
1.04687
1.04709
1.04726
1.04736
1.04742
1.04741
1.04737
1.04727
1.04713
1.04693
1.0467
1.04642
1.04611
1.04576
1.04538
1.04497
1.04452
1.04404
1.04353
1.043
1.04242
1.04187
1.04116
1.04065
1.03976
1.04551
1.04576
1.04596
1.04611
1.0462
1.04623
1.04624
1.04619
1.04608
1.04593
1.04574
1.04551
1.04524
1.04495
1.04461
1.04425
1.04385
1.04344
1.04299
1.04252
1.04203
1.04151
1.04099
1.04039
1.03985
1.03916
1.04441
1.04463
1.04482
1.04495
1.04502
1.04504
1.04503
1.04496
1.04486
1.0447
1.0445
1.04428
1.04402
1.04372
1.0434
1.04306
1.04269
1.04232
1.04188
1.04149
1.04102
1.04057
1.04008
1.0396
1.03902
1.03858
1.04329
1.04349
1.04365
1.04378
1.04381
1.04384
1.0438
1.04372
1.04361
1.04344
1.04324
1.04302
1.04276
1.04248
1.04217
1.04185
1.0415
1.04116
1.04078
1.04041
1.04001
1.0396
1.03921
1.03874
1.03835
1.03782
1.04216
1.04237
1.0425
1.04259
1.04263
1.04261
1.04257
1.04247
1.04234
1.04217
1.04196
1.04175
1.04146
1.04125
1.04088
1.04065
1.04028
1.04
1.03965
1.03934
1.03898
1.03864
1.03829
1.0379
1.03758
1.03715
1.04104
1.04121
1.04132
1.04139
1.04141
1.0414
1.04132
1.04121
1.04107
1.0409
1.0407
1.04045
1.04022
1.03994
1.03969
1.03936
1.03912
1.03876
1.03853
1.03817
1.03793
1.03762
1.03734
1.03712
1.0368
1.03657
1.03994
1.04005
1.04018
1.04022
1.04022
1.04018
1.04009
1.03997
1.03981
1.03961
1.03941
1.03917
1.03892
1.03865
1.03839
1.03812
1.03783
1.03757
1.03732
1.03707
1.03683
1.03666
1.03647
1.03627
1.03609
1.0359
1.03885
1.03895
1.03902
1.03906
1.03904
1.03898
1.03887
1.03873
1.03855
1.03834
1.03812
1.03786
1.03762
1.03731
1.0371
1.03678
1.03655
1.0363
1.03608
1.03589
1.03575
1.03562
1.03551
1.03542
1.03533
1.03524
1.03779
1.03787
1.03793
1.03793
1.03789
1.03779
1.03767
1.0375
1.03728
1.03708
1.0368
1.03658
1.03627
1.03599
1.03574
1.03547
1.0352
1.03498
1.0348
1.03466
1.03456
1.03449
1.03447
1.03447
1.03449
1.03453
1.03676
1.03682
1.03685
1.03684
1.03676
1.03665
1.0365
1.03628
1.03606
1.03581
1.03549
1.03523
1.03489
1.0346
1.0343
1.03403
1.03377
1.03356
1.03342
1.03332
1.03331
1.03334
1.03346
1.03361
1.03378
1.03397
1.03575
1.03581
1.03581
1.03577
1.03566
1.03552
1.03532
1.0351
1.03484
1.03451
1.03421
1.03388
1.03351
1.03316
1.03279
1.03251
1.03225
1.0321
1.03202
1.03204
1.03219
1.03246
1.03282
1.03324
1.03371
1.03425
1.03473
1.03479
1.03478
1.03472
1.03459
1.0344
1.0342
1.03391
1.03359
1.03325
1.03287
1.03241
1.03201
1.03161
1.03122
1.03098
1.03079
1.03098
1.03104
1.03163
1.03252
1.03365
1.03471
1.03612
1.03777
1.03945
1.03381
1.03384
1.0338
1.03369
1.03353
1.03332
1.03305
1.03271
1.03229
1.03181
1.03132
1.03078
1.03047
1.02998
1.03008
1.02986
1.03141
1.03152
1.03459
1.0364
1.04161
1.04616
1.04991
1.0555
1.06165
1.06716
1.03294
1.03292
1.03285
1.03268
1.03245
1.03217
1.0318
1.03135
1.03083
1.03026
1.02979
1.02929
1.02998
1.02974
1.0324
1.03339
1.04104
1.04885
1.05932
1.07032
1.08847
1.10437
1.1195
1.14103
1.1624
1.181
1.03199
1.03194
1.03182
1.03159
1.03131
1.03095
1.03051
1.02997
1.02946
1.02902
1.02948
1.03007
1.03652
1.03835
1.0516
1.07361
1.0922
1.12953
1.17302
1.21619
1.26107
1.30255
1.34111
1.38177
1.42005
1.45245
1.03109
1.03106
1.03089
1.03064
1.03031
1.02991
1.02948
1.02912
1.0297
1.03097
1.03708
1.0463
1.074
1.09896
1.16045
1.21893
1.27236
1.31739
1.35449
1.38257
1.41138
1.44006
1.46655
1.49874
1.53206
1.56477
1.0309
1.03093
1.03073
1.03046
1.03008
1.02981
1.03024
1.03242
1.03874
1.0565
1.08496
1.1499
1.22071
1.28413
1.31972
1.34021
1.35411
1.37313
1.38863
1.40024
1.41735
1.44045
1.45934
1.48234
1.51815
1.56554
1.03268
1.03265
1.03226
1.03173
1.03177
1.03363
1.04091
1.05828
1.10022
1.18132
1.26443
1.31464
1.33013
1.34439
1.33875
1.33749
1.33351
1.32798
1.31708
1.30514
1.29828
1.28136
1.26125
1.26091
1.26822
1.28894
1.03921
1.03801
1.03595
1.03653
1.04163
1.05857
1.10879
1.20036
1.28639
1.32786
1.34013
1.33058
1.31326
1.28644
1.28229
1.28561
1.28763
1.29717
1.29337
1.28178
1.26487
1.22732
1.19373
1.18445
1.19147
1.22356
1.05454
1.04574
1.04611
1.05874
1.10057
1.19247
1.31597
1.34367
1.34863
1.31874
1.26423
1.22422
1.23172
1.25747
1.30667
1.35904
1.39108
1.4
1.35769
1.31217
1.27766
1.20283
1.18485
1.20181
1.26212
1.43526
1.06372
1.06115
1.08834
1.18833
1.3156
1.35268
1.37582
1.31482
1.21812
1.1612
1.16396
1.21723
1.31949
1.41452
1.45513
1.46449
1.45678
1.40345
1.28348
1.2494
1.25244
1.28558
1.39943
1.53291
1.59603
1.62203
1.08336
1.14743
1.30357
1.39614
1.39722
1.31549
1.1952
1.11613
1.11242
1.15368
1.24773
1.35807
1.4293
1.45679
1.46218
1.458
1.45038
1.45185
1.46074
1.48197
1.50385
1.51743
1.52313
1.51353
1.45799
1.41022
1.2558
1.40112
1.44369
1.37847
1.18764
1.08955
1.08147
1.10276
1.16326
1.23549
1.30878
1.35836
1.37897
1.39564
1.42404
1.43987
1.44453
1.44517
1.43227
1.40952
1.39733
1.3963
1.40094
1.41241
1.44695
1.54526
1.46612
1.44186
1.26377
1.08472
1.06224
1.0745
1.12074
1.17101
1.19999
1.22583
1.25541
1.2776
1.29272
1.29756
1.30414
1.30925
1.32291
1.33769
1.36414
1.39439
1.44485
1.51607
1.6099
1.74627
1.90319
2.00663
1.35567
1.10303
1.05677
1.05893
1.08948
1.1349
1.1651
1.18819
1.22227
1.2515
1.27336
1.30509
1.3401
1.38068
1.42924
1.4821
1.54395
1.61804
1.70244
1.78992
1.87457
1.9505
2.01027
2.03697
2.055
2.06277
1.07103
1.05835
1.07415
1.1214
1.1871
1.25237
1.32033
1.39778
1.47396
1.55002
1.62814
1.69861
1.76255
1.81973
1.86858
1.91506
1.95624
1.98441
2.00488
2.02107
2.03712
2.04747
2.05499
2.06172
2.06662
2.0712
1.08056
1.12556
1.22646
1.3884
1.54681
1.66429
1.74685
1.80726
1.86454
1.9194
1.95113
1.97125
1.99645
2.00849
2.01932
2.02383
2.03105
2.03641
2.04154
2.04704
2.05235
2.05719
2.06193
2.06548
2.06913
2.07293
1.24313
1.46561
1.69273
1.76225
1.87111
1.88454
1.95803
1.97514
1.99902
2.00461
2.01525
2.01981
2.02326
2.02673
2.0298
2.03359
2.03727
2.04126
2.04546
2.04982
2.05406
2.05881
2.0633
2.06752
2.07158
2.07548
1.7211
1.79295
1.90798
1.91811
1.97617
1.98658
2.00341
2.00957
2.01395
2.01781
2.01944
2.02195
2.02454
2.0271
2.02997
2.03326
2.0371
2.04097
2.04546
2.0502
2.0552
2.05998
2.06487
2.06945
2.07373
2.07769
1.86324
1.95735
1.96705
1.99618
1.99785
2.00765
2.00914
2.01217
2.0136
2.01553
2.01733
2.01941
2.0217
2.02442
2.02777
2.03157
2.03567
2.04026
2.04515
2.05051
2.05564
2.0609
2.06611
2.07089
2.0754
2.0795
1.97267
1.98491
1.99457
2.00193
2.00239
2.0055
2.00687
2.00824
2.00941
2.01172
2.01277
2.01574
2.01793
2.02124
2.02485
2.029
2.0335
2.03845
2.04385
2.0496
2.05526
2.06099
2.06665
2.07185
2.07678
2.08114
1.98525
1.9921
1.99721
1.99786
1.99953
2.00089
2.00177
2.00327
2.00468
2.00667
2.00872
2.01152
2.01432
2.01776
2.02163
2.02612
2.03104
2.03639
2.04217
2.04843
2.05464
2.06083
2.06702
2.07284
2.07817
2.08314
1.98846
1.98955
1.99152
1.99261
1.99379
1.99491
1.99637
1.99791
1.9998
2.00177
2.00419
2.00687
2.01003
2.01339
2.01743
2.02206
2.0273
2.0329
2.03913
2.04585
2.0528
2.05953
2.06648
2.07304
2.07912
2.08464
1.98227
1.98388
1.9849
1.98635
1.98746
1.98922
1.99087
1.9925
1.99461
1.99644
1.99893
2.00132
2.0045
2.00778
2.01171
2.0163
2.02191
2.02779
2.03453
2.04198
2.04981
2.05752
2.0653
2.07286
2.07975
2.08619
1.97527
1.97621