/*--------------------------------*- C++ -*----------------------------------*\
  =========                 |
  \\      /  F ield         | OpenFOAM: The Open Source CFD Toolbox
   \\    /   O peration     | Website:  https://openfoam.org
    \\  /    A nd           | Version:  10
     \\/     M anipulation  |
\*---------------------------------------------------------------------------*/
FoamFile
{
    format      ascii;
    class       volVectorField;
    location    "0.948548";
    object      U;
}
// * * * * * * * * * * * * * * * * * * * * * * * * * * * * * * * * * * * * * //

dimensions      [0 1 -1 0 0 0 0];

internalField   nonuniform List<vector> 
15708
(
(0.764077 -0.149871 0)
(0.743657 -0.147001 0)
(0.72263 -0.143312 0)
(0.701148 -0.138891 0)
(0.679395 -0.133834 0)
(0.65751 -0.128253 0)
(0.635623 -0.122261 0)
(0.613859 -0.115964 0)
(0.59233 -0.109459 0)
(0.571137 -0.102833 0)
(0.55037 -0.0961663 0)
(0.530106 -0.0895258 0)
(0.510413 -0.0829701 0)
(0.491346 -0.0765471 0)
(0.472952 -0.0702955 0)
(0.455269 -0.0642454 0)
(0.438325 -0.0584195 0)
(0.422143 -0.0528337 0)
(0.406738 -0.0474984 0)
(0.392118 -0.042419 0)
(0.378286 -0.0375976 0)
(0.36524 -0.0330329 0)
(0.352975 -0.0287215 0)
(0.341481 -0.0246579 0)
(0.330746 -0.0208357 0)
(0.320754 -0.0172476 0)
(0.311491 -0.0138858 0)
(0.302938 -0.0107424 0)
(0.295078 -0.00780947 0)
(0.287891 -0.00507973 0)
(0.281361 -0.00254617 0)
(0.275468 -0.000198747 0)
(0.270195 0.0019695 0)
(0.265522 0.00396006 0)
(0.261432 0.00578095 0)
(0.257909 0.0074374 0)
(0.254937 0.00893413 0)
(0.252498 0.0102749 0)
(0.250576 0.0114638 0)
(0.249154 0.0125044 0)
(0.248216 0.0134011 0)
(0.247745 0.0141577 0)
(0.247723 0.0147787 0)
(0.248131 0.0152693 0)
(0.248951 0.015635 0)
(0.250163 0.015882 0)
(0.251746 0.0160175 0)
(0.253677 0.0160483 0)
(0.255935 0.0159874 0)
(0.258492 0.0158439 0)
(0.261325 0.0156332 0)
(0.766755 -0.132498 0)
(0.747093 -0.129338 0)
(0.726835 -0.125406 0)
(0.705955 -0.120883 0)
(0.68472 -0.115846 0)
(0.663248 -0.110394 0)
(0.641672 -0.104628 0)
(0.620123 -0.0986404 0)
(0.598723 -0.0925196 0)
(0.577582 -0.0863428 0)
(0.556799 -0.0801789 0)
(0.53646 -0.074087 0)
(0.516641 -0.0681166 0)
(0.497409 -0.0623078 0)
(0.478818 -0.0566926 0)
(0.460913 -0.051295 0)
(0.443731 -0.0461318 0)
(0.427299 -0.0412136 0)
(0.411637 -0.0365459 0)
(0.396757 -0.0321305 0)
(0.382666 -0.0279662 0)
(0.369365 -0.0240495 0)
(0.35685 -0.0203746 0)
(0.345114 -0.0169348 0)
(0.334144 -0.0137231 0)
(0.323927 -0.0107315 0)
(0.314447 -0.00795303 0)
(0.305687 -0.00538016 0)
(0.297627 -0.00300467 0)
(0.29025 -0.000814502 0)
(0.283539 0.00119872 0)
(0.277471 0.00303673 0)
(0.272029 0.00470474 0)
(0.267196 0.00621121 0)
(0.262953 0.007562 0)
(0.259284 0.00876216 0)
(0.256171 0.00981654 0)
(0.253598 0.0107295 0)
(0.251546 0.0115058 0)
(0.25 0.0121498 0)
(0.248943 0.0126666 0)
(0.248357 0.0130613 0)
(0.248226 0.0133393 0)
(0.24853 0.0135067 0)
(0.249251 0.0135706 0)
(0.25037 0.0135384 0)
(0.251867 0.0134187 0)
(0.25372 0.0132212 0)
(0.255907 0.0129576 0)
(0.258407 0.0126391 0)
(0.261194 0.0122799 0)
(0.769791 -0.115919 0)
(0.750861 -0.112225 0)
(0.7312 -0.108058 0)
(0.710811 -0.103302 0)
(0.689976 -0.0981791 0)
(0.668812 -0.0927599 0)
(0.647456 -0.0871302 0)
(0.626044 -0.0813735 0)
(0.604705 -0.0755664 0)
(0.583558 -0.0697771 0)
(0.562708 -0.0640652 0)
(0.542253 -0.0584803 0)
(0.522277 -0.0530623 0)
(0.502853 -0.0478423 0)
(0.484044 -0.0428444 0)
(0.465904 -0.0380859 0)
(0.448475 -0.033578 0)
(0.43179 -0.0293254 0)
(0.415873 -0.0253283 0)
(0.400739 -0.0215843 0)
(0.386398 -0.0180878 0)
(0.372853 -0.0148315 0)
(0.360101 -0.0118073 0)
(0.348135 -0.00900621 0)
(0.336944 -0.00641974 0)
(0.326514 -0.00403691 0)
(0.31683 -0.00184522 0)
(0.307875 0.000164476 0)
(0.299631 0.00199627 0)
(0.292077 0.00365157 0)
(0.285193 0.00513635 0)
(0.278963 0.00645973 0)
(0.273366 0.00762942 0)
(0.268385 0.0086513 0)
(0.264002 0.00953106 0)
(0.260199 0.0102739 0)
(0.256958 0.0108851 0)
(0.254263 0.0113696 0)
(0.252095 0.0117326 0)
(0.250439 0.011979 0)
(0.249277 0.0121147 0)
(0.248593 0.0121455 0)
(0.248369 0.0120781 0)
(0.248587 0.0119195 0)
(0.249229 0.0116784 0)
(0.250276 0.0113625 0)
(0.25171 0.0109805 0)
(0.253509 0.010542 0)
(0.255652 0.0100584 0)
(0.258119 0.00954203 0)
(0.260886 0.00900867 0)
(0.773398 -0.0999069 0)
(0.754949 -0.0956883 0)
(0.735753 -0.0910488 0)
(0.715827 -0.0860263 0)
(0.695252 -0.0807356 0)
(0.674288 -0.0752635 0)
(0.653055 -0.0696907 0)
(0.631693 -0.0640923 0)
(0.610338 -0.0585345 0)
(0.589115 -0.0530758 0)
(0.568139 -0.0477682 0)
(0.547515 -0.0426544 0)
(0.52734 -0.0377658 0)
(0.507693 -0.033123 0)
(0.488644 -0.0287389 0)
(0.470249 -0.0246201 0)
(0.452558 -0.0207678 0)
(0.435611 -0.0171811 0)
(0.419434 -0.0138554 0)
(0.404045 -0.0107839 0)
(0.389458 -0.00795707 0)
(0.375677 -0.00536456 0)
(0.362701 -0.00298766 0)
(0.350524 -0.000814993 0)
(0.339135 0.00116004 0)
(0.328517 0.00294351 0)
(0.318649 0.00454079 0)
(0.309513 0.00596008 0)
(0.301092 0.00721334 0)
(0.293371 0.00831004 0)
(0.286329 0.00925762 0)
(0.279948 0.0100623 0)
(0.274208 0.0107296 0)
(0.269092 0.0112646 0)
(0.26458 0.0116725 0)
(0.260655 0.011958 0)
(0.257298 0.0121262 0)
(0.254493 0.0121821 0)
(0.252221 0.0121312 0)
(0.250468 0.011979 0)
(0.249215 0.011732 0)
(0.248447 0.0113966 0)
(0.248146 0.0109801 0)
(0.248295 0.0104896 0)
(0.248875 0.00993405 0)
(0.24987 0.00932256 0)
(0.25126 0.00866612 0)
(0.253026 0.00797721 0)
(0.255148 0.00726718 0)
(0.257606 0.00654994 0)
(0.260377 0.00583706 0)
(0.777521 -0.0843952 0)
(0.759555 -0.0795323 0)
(0.740701 -0.0743188 0)
(0.720965 -0.0689454 0)
(0.70059 -0.0634019 0)
(0.679723 -0.0577961 0)
(0.658514 -0.0522072 0)
(0.63711 -0.046705 0)
(0.615656 -0.0413453 0)
(0.594283 -0.0361734 0)
(0.573111 -0.0312286 0)
(0.552256 -0.0265428 0)
(0.531827 -0.0221422 0)
(0.511915 -0.0180462 0)
(0.492596 -0.0142646 0)
(0.473935 -0.0107969 0)
(0.455982 -0.00763595 0)
(0.438778 -0.00475644 0)
(0.422353 -0.00213556 0)
(0.406727 0.000236521 0)
(0.391909 0.00237379 0)
(0.377903 0.00429201 0)
(0.364704 0.00599959 0)
(0.352309 0.00750988 0)
(0.340706 0.00884134 0)
(0.329885 0.0100031 0)
(0.319833 0.011006 0)
(0.310531 0.0118569 0)
(0.301958 0.0125609 0)
(0.294094 0.0131225 0)
(0.286918 0.0135472 0)
(0.280409 0.013841 0)
(0.274548 0.0140095 0)
(0.269314 0.0140586 0)
(0.264688 0.0139935 0)
(0.260655 0.0138199 0)
(0.257194 0.013543 0)
(0.254291 0.0131681 0)
(0.251928 0.0127012 0)
(0.250089 0.0121477 0)
(0.248758 0.0115144 0)
(0.247918 0.0108079 0)
(0.247553 0.0100366 0)
(0.247647 0.00920892 0)
(0.248182 0.00833524 0)
(0.24914 0.00742541 0)
(0.250504 0.00648976 0)
(0.252255 0.00554054 0)
(0.254373 0.00458946 0)
(0.25684 0.00365031 0)
(0.259634 0.00273643 0)
(0.782218 -0.069239 0)
(0.7646 -0.0635856 0)
(0.745926 -0.0578307 0)
(0.72635 -0.0519587 0)
(0.706037 -0.0460742 0)
(0.685153 -0.0402572 0)
(0.663856 -0.0345762 0)
(0.642309 -0.0290936 0)
(0.620671 -0.0238707 0)
(0.599082 -0.0189629 0)
(0.577669 -0.0144083 0)
(0.556546 -0.0102295 0)
(0.535824 -0.00640708 0)
(0.515605 -0.0029034 0)
(0.495972 0.000279198 0)
(0.476998 0.00314751 0)
(0.458741 0.00571328 0)
(0.441244 0.0079785 0)
(0.424538 0.00995065 0)
(0.408651 0.0116571 0)
(0.393593 0.0131208 0)
(0.379368 0.0143618 0)
(0.365971 0.0153983 0)
(0.353393 0.0162475 0)
(0.341623 0.0169232 0)
(0.330646 0.0174409 0)
(0.320446 0.0178122 0)
(0.311003 0.0180475 0)
(0.302296 0.0181564 0)
(0.294303 0.0181463 0)
(0.287004 0.0180225 0)
(0.280376 0.0177895 0)
(0.274401 0.0174509 0)
(0.269058 0.0170106 0)
(0.26433 0.0164724 0)
(0.260198 0.0158405 0)
(0.256646 0.0151195 0)
(0.253656 0.0143143 0)
(0.251213 0.0134304 0)
(0.2493 0.012474 0)
(0.247902 0.0114517 0)
(0.247003 0.0103714 0)
(0.246587 0.00924134 0)
(0.24664 0.00807081 0)
(0.247142 0.00687012 0)
(0.248078 0.00564992 0)
(0.249431 0.00442166 0)
(0.251183 0.00319792 0)
(0.253316 0.00199161 0)
(0.255809 0.000816408 0)
(0.258644 -0.000313786 0)
(0.787436 -0.0542719 0)
(0.770047 -0.0478506 0)
(0.751458 -0.0413695 0)
(0.73191 -0.0349351 0)
(0.711551 -0.0286407 0)
(0.690566 -0.022569 0)
(0.669116 -0.0168073 0)
(0.64735 -0.011419 0)
(0.625436 -0.00635838 0)
(0.603531 -0.00162535 0)
(0.581781 0.00273647 0)
(0.560316 0.00669942 0)
(0.53924 0.0102204 0)
(0.518655 0.0132634 0)
(0.49866 0.0158553 0)
(0.479335 0.0180289 0)
(0.460747 0.0198218 0)
(0.442945 0.0212757 0)
(0.425964 0.022433 0)
(0.409827 0.0233313 0)
(0.394547 0.0240041 0)
(0.380123 0.0244808 0)
(0.366552 0.0247854 0)
(0.353821 0.0249373 0)
(0.341912 0.0249515 0)
(0.330807 0.0248399 0)
(0.320484 0.0246108 0)
(0.310921 0.0242704 0)
(0.302097 0.0238238 0)
(0.293991 0.0232748 0)
(0.286582 0.0226268 0)
(0.27985 0.0218831 0)
(0.273774 0.0210472 0)
(0.268335 0.0201226 0)
(0.263514 0.019113 0)
(0.259295 0.0180225 0)
(0.255659 0.0168558 0)
(0.252592 0.0156178 0)
(0.250077 0.0143143 0)
(0.2481 0.0129513 0)
(0.246645 0.011536 0)
(0.245698 0.0100762 0)
(0.245243 0.00858083 0)
(0.245266 0.00705962 0)
(0.24575 0.0055234 0)
(0.246678 0.00398338 0)
(0.248035 0.00245213 0)
(0.249804 0.00094258 0)
(0.251965 -0.000532791 0)
(0.254502 -0.0019585 0)
(0.257395 -0.00331947 0)
(0.792964 -0.0395499 0)
(0.775642 -0.0321289 0)
(0.757113 -0.0249309 0)
(0.737494 -0.0178613 0)
(0.716989 -0.011204 0)
(0.695803 -0.00477037 0)
(0.674103 0.00133175 0)
(0.652052 0.00704114 0)
(0.629784 0.0122123 0)
(0.607459 0.0167799 0)
(0.58525 0.0207489 0)
(0.563315 0.0241375 0)
(0.541796 0.0269789 0)
(0.520812 0.0293149 0)
(0.500462 0.0311883 0)
(0.480821 0.0326423 0)
(0.46195 0.0337199 0)
(0.443894 0.0344627 0)
(0.426684 0.0349113 0)
(0.410338 0.0351039 0)
(0.394865 0.035076 0)
(0.380265 0.0348588 0)
(0.366529 0.0344787 0)
(0.353645 0.0339572 0)
(0.341595 0.0333117 0)
(0.330359 0.0325559 0)
(0.319915 0.0317004 0)
(0.310242 0.0307531 0)
(0.301317 0.0297197 0)
(0.293116 0.0286047 0)
(0.285618 0.0274114 0)
(0.278801 0.0261424 0)
(0.272643 0.0248 0)
(0.267124 0.023386 0)
(0.262227 0.0219028 0)
(0.257934 0.0203532 0)
(0.254228 0.0187404 0)
(0.251095 0.0170689 0)
(0.24852 0.0153437 0)
(0.246489 0.0135712 0)
(0.244988 0.0117584 0)
(0.244003 0.00991338 0)
(0.24352 0.00804595 0)
(0.243525 0.00616601 0)
(0.244002 0.00428522 0)
(0.244935 0.00241563 0)
(0.24631 0.000570036 0)
(0.248108 -0.00123911 0)
(0.250314 -0.00299562 0)
(0.252909 -0.00468563 0)
(0.255875 -0.00629453 0)
(0.798276 -0.0249225 0)
(0.78103 -0.0164918 0)
(0.762428 -0.00845249 0)
(0.74272 -0.000681646 0)
(0.721998 0.00687273 0)
(0.700537 0.0137459 0)
(0.678414 0.0200632 0)
(0.655917 0.0257041 0)
(0.633227 0.0306888 0)
(0.610507 0.0350243 0)
(0.587912 0.0387056 0)
(0.565593 0.0417406 0)
(0.543688 0.0441503 0)
(0.522322 0.0459679 0)
(0.501598 0.047238 0)
(0.481602 0.0480143 0)
(0.462403 0.0483558 0)
(0.444054 0.0483224 0)
(0.426586 0.0479721 0)
(0.410018 0.0473593 0)
(0.394356 0.0465326 0)
(0.379594 0.0455335 0)
(0.365722 0.0443956 0)
(0.352721 0.0431451 0)
(0.34057 0.0418016 0)
(0.329245 0.0403792 0)
(0.318722 0.0388873 0)
(0.308975 0.0373318 0)
(0.299978 0.0357163 0)
(0.291707 0.0340428 0)
(0.284139 0.0323124 0)
(0.277251 0.0305256 0)
(0.271023 0.0286827 0)
(0.265436 0.0267839 0)
(0.260472 0.0248301 0)
(0.256116 0.0228228 0)
(0.252351 0.0207644 0)
(0.249163 0.0186585 0)
(0.246539 0.0165099 0)
(0.244465 0.0143245 0)
(0.242929 0.0121097 0)
(0.241917 0.00987384 0)
(0.241417 0.00762708 0)
(0.241415 0.00538014 0)
(0.241897 0.00314549 0)
(0.242847 0.000935258 0)
(0.24425 -0.00123754 0)
(0.246093 -0.00335712 0)
(0.248357 -0.00540969 0)
(0.251024 -0.00737978 0)
(0.254078 -0.00925195 0)
(0.802256 -0.0103554 0)
(0.785153 -0.000763864 0)
(0.766359 0.00847278 0)
(0.746516 0.017034 0)
(0.725573 0.0250012 0)
(0.703805 0.0322677 0)
(0.68152 0.0388348 0)
(0.658726 0.0446862 0)
(0.635714 0.0497582 0)
(0.612627 0.0540286 0)
(0.589626 0.057483 0)
(0.566886 0.0601376 0)
(0.544562 0.062031 0)
(0.522792 0.0632189 0)
(0.501693 0.0637716 0)
(0.481358 0.0637682 0)
(0.461863 0.0632906 0)
(0.443258 0.0624185 0)
(0.425574 0.0612265 0)
(0.408828 0.0597814 0)
(0.393018 0.0581409 0)
(0.378137 0.0563523 0)
(0.364168 0.0544533 0)
(0.351088 0.052472 0)
(0.338871 0.050429 0)
(0.32749 0.0483381 0)
(0.316914 0.0462076 0)
(0.307117 0.0440422 0)
(0.29807 0.0418434 0)
(0.289748 0.0396112 0)
(0.282128 0.037344 0)
(0.275186 0.0350401 0)
(0.268903 0.0326972 0)
(0.263262 0.0303139 0)
(0.258245 0.0278892 0)
(0.253836 0.0254234 0)
(0.250022 0.0229178 0)
(0.24679 0.0203754 0)
(0.244127 0.0178003 0)
(0.242021 0.0151984 0)
(0.24046 0.0125769 0)
(0.239432 0.00994451 0)
(0.238925 0.00731163 0)
(0.238928 0.00468955 0)
(0.239426 0.00209116 0)
(0.240404 -0.000470592 0)
(0.241851 -0.00298084 0)
(0.243751 -0.0054252 0)
(0.246086 -0.0077877 0)
(0.248841 -0.0100526 0)
(0.251998 -0.0122039 0)
(0.802854 0.00411675 0)
(0.78598 0.0149384 0)
(0.767312 0.0249051 0)
(0.747465 0.0345832 0)
(0.726561 0.043049 0)
(0.704839 0.051118 0)
(0.68244 0.0579999 0)
(0.659568 0.0642108 0)
(0.636371 0.0693015 0)
(0.61304 0.0735118 0)
(0.589751 0.0767056 0)
(0.566698 0.0789506 0)
(0.544054 0.0803101 0)
(0.521969 0.0808591 0)
(0.500572 0.0806862 0)
(0.479969 0.0798902 0)
(0.460237 0.0785733 0)
(0.441431 0.0768352 0)
(0.423583 0.0747691 0)
(0.406706 0.0724572 0)
(0.390799 0.0699684 0)
(0.375845 0.0673584 0)
(0.361825 0.0646702 0)
(0.348708 0.0619356 0)
(0.336465 0.0591762 0)
(0.325062 0.0564054 0)
(0.314467 0.0536302 0)
(0.30465 0.0508524 0)
(0.295582 0.0480707 0)
(0.287235 0.0452818 0)
(0.279586 0.0424808 0)
(0.272613 0.039663 0)
(0.266296 0.0368236 0)
(0.260617 0.0339588 0)
(0.255561 0.0310656 0)
(0.251113 0.0281429 0)
(0.247261 0.0251907 0)
(0.243993 0.0222109 0)
(0.241298 0.0192071 0)
(0.239166 0.0161851 0)
(0.237586 0.0131519 0)
(0.236549 0.0101166 0)
(0.236043 0.0070898 0)
(0.236059 0.00408343 0)
(0.236583 0.00111111 0)
(0.237601 -0.00181361 0)
(0.239103 -0.00467481 0)
(0.241073 -0.00745686 0)
(0.243494 -0.0101437 0)
(0.246351 -0.0127186 0)
(0.249626 -0.0151649 0)
(0.796874 0.018763 0)
(0.78053 0.0299922 0)
(0.762666 0.0415944 0)
(0.743384 0.0519375 0)
(0.72302 0.0614312 0)
(0.701805 0.0696361 0)
(0.679796 0.0774225 0)
(0.657233 0.0836598 0)
(0.634145 0.0891767 0)
(0.610935 0.093226 0)
(0.587584 0.0962693 0)
(0.56445 0.0981554 0)
(0.541689 0.0990008 0)
(0.519463 0.0989054 0)
(0.497919 0.0979836 0)
(0.477174 0.0963603 0)
(0.457317 0.0941635 0)
(0.43841 0.0915173 0)
(0.420487 0.0885357 0)
(0.40356 0.0853182 0)
(0.387626 0.0819472 0)
(0.372665 0.0784881 0)
(0.358652 0.0749898 0)
(0.345552 0.0714872 0)
(0.33333 0.0680022 0)
(0.32195 0.064547 0)
(0.311377 0.0611258 0)
(0.301577 0.0577371 0)
(0.292518 0.0543757 0)
(0.284174 0.0510343 0)
(0.276521 0.0477045 0)
(0.269535 0.044378 0)
(0.263199 0.041047 0)
(0.257496 0.0377051 0)
(0.252412 0.0343472 0)
(0.247935 0.0309702 0)
(0.244053 0.0275726 0)
(0.240757 0.0241554 0)
(0.238038 0.0207214 0)
(0.235887 0.0172757 0)
(0.234297 0.0138256 0)
(0.233259 0.0103803 0)
(0.232763 0.00695092 0)
(0.232802 0.00355027 0)
(0.233362 0.000192764 0)
(0.234432 -0.00310684 0)
(0.236 -0.0063322 0)
(0.238053 -0.0094664 0)
(0.240574 -0.0124925 0)
(0.243548 -0.0153929 0)
(0.246957 -0.0181506 0)
(0.780352 0.0325041 0)
(0.765086 0.0439384 0)
(0.749364 0.0575936 0)
(0.731217 0.0676795 0)
(0.711985 0.0787222 0)
(0.692356 0.0878132 0)
(0.671615 0.0959635 0)
(0.649957 0.102788 0)
(0.627801 0.108479 0)
(0.604984 0.112742 0)
(0.582227 0.115688 0)
(0.559367 0.117327 0)
(0.536822 0.117746 0)
(0.514743 0.117065 0)
(0.493298 0.115426 0)
(0.472626 0.112985 0)
(0.452831 0.109903 0)
(0.433983 0.106335 0)
(0.416123 0.102418 0)
(0.399267 0.0982745 0)
(0.383411 0.0940022 0)
(0.368535 0.0896779 0)
(0.354609 0.0853578 0)
(0.341597 0.0810794 0)
(0.329458 0.076865 0)
(0.318154 0.0727251 0)
(0.307648 0.0686606 0)
(0.297902 0.0646661 0)
(0.288887 0.0607318 0)
(0.280573 0.056846 0)
(0.272937 0.0529958 0)
(0.265958 0.049169 0)
(0.259619 0.0453543 0)
(0.253904 0.0415421 0)
(0.248802 0.0377247 0)
(0.244303 0.0338967 0)
(0.240398 0.0300553 0)
(0.23708 0.0262 0)
(0.234343 0.022333 0)
(0.23218 0.0184593 0)
(0.230586 0.014586 0)
(0.229554 0.010723 0)
(0.229077 0.00688191 0)
(0.229147 0.00307672 0)
(0.229752 -0.00067784 0)
(0.230885 -0.00436529 0)
(0.232533 -0.00796844 0)
(0.234681 -0.0114694 0)
(0.237316 -0.0148498 0)
(0.240421 -0.018092 0)
(0.243979 -0.0211772 0)
(0.750782 0.0416975 0)
(0.737275 0.0572654 0)
(0.724123 0.0680703 0)
(0.708264 0.0829478 0)
(0.692853 0.0945801 0)
(0.674633 0.104889 0)
(0.656 0.113511 0)
(0.636376 0.121239 0)
(0.615733 0.127141 0)
(0.594414 0.131799 0)
(0.572624 0.134764 0)
(0.550682 0.13626 0)
(0.528838 0.136337 0)
(0.507312 0.135131 0)
(0.48631 0.132816 0)
(0.466002 0.129583 0)
(0.446517 0.125629 0)
(0.427943 0.12114 0)
(0.410332 0.116287 0)
(0.393707 0.111212 0)
(0.378067 0.106034 0)
(0.363394 0.100841 0)
(0.349657 0.0956983 0)
(0.336817 0.0906464 0)
(0.324836 0.0857081 0)
(0.31367 0.0808917 0)
(0.303281 0.0761944 0)
(0.293633 0.0716062 0)
(0.284695 0.0671121 0)
(0.276439 0.062695 0)
(0.268843 0.0583371 0)
(0.261888 0.0540214 0)
(0.25556 0.049733 0)
(0.249845 0.0454584 0)
(0.244734 0.0411876 0)
(0.240221 0.0369126 0)
(0.2363 0.0326293 0)
(0.232965 0.0283357 0)
(0.230215 0.0240334 0)
(0.228045 0.0197271 0)
(0.226452 0.0154245 0)
(0.225431 0.0111356 0)
(0.224978 0.00687258 0)
(0.225086 0.00265099 0)
(0.225747 -0.00151355 0)
(0.226952 -0.0056028 0)
(0.22869 -0.00959844 0)
(0.230946 -0.0134811 0)
(0.233708 -0.017232 0)
(0.236959 -0.0208324 0)
(0.240683 -0.0242619 0)
(0.710176 0.0471999 0)
(0.697347 0.0628721 0)
(0.688496 0.0783057 0)
(0.678807 0.0936514 0)
(0.662831 0.105783 0)
(0.648007 0.117394 0)
(0.632408 0.127887 0)
(0.615417 0.136807 0)
(0.597224 0.143966 0)
(0.577981 0.14921 0)
(0.558012 0.15261 0)
(0.537593 0.154234 0)
(0.517015 0.15418 0)
(0.496551 0.152614 0)
(0.476442 0.149748 0)
(0.456891 0.145816 0)
(0.438054 0.141057 0)
(0.420043 0.135699 0)
(0.402927 0.129944 0)
(0.386742 0.123966 0)
(0.371494 0.117904 0)
(0.357172 0.111862 0)
(0.343748 0.105915 0)
(0.331185 0.100108 0)
(0.319444 0.0944657 0)
(0.308485 0.0889927 0)
(0.29827 0.0836833 0)
(0.288767 0.0785211 0)
(0.279944 0.0734866 0)
(0.271778 0.068556 0)
(0.264247 0.0637071 0)
(0.257337 0.0589173 0)
(0.251034 0.0541679 0)
(0.24533 0.0494417 0)
(0.240218 0.0447257 0)
(0.235696 0.0400093 0)
(0.23176 0.0352868 0)
(0.228411 0.0305552 0)
(0.225649 0.0258151 0)
(0.223473 0.0210714 0)
(0.221883 0.0163321 0)
(0.220877 0.0116076 0)
(0.220453 0.00691135 0)
(0.220607 0.0022603 0)
(0.22133 -0.00232837 0)
(0.222617 -0.00683467 0)
(0.224455 -0.0112383 0)
(0.226834 -0.0155193 0)
(0.229736 -0.0196568 0)
(0.233149 -0.0236321 0)
(0.237052 -0.0274245 0)
(0.663922 0.0523949 0)
(0.6565 0.0665869 0)
(0.649103 0.0853926 0)
(0.637327 0.100541 0)
(0.626488 0.114732 0)
(0.615408 0.128089 0)
(0.602924 0.139893 0)
(0.588773 0.150062 0)
(0.573052 0.158314 0)
(0.556194 0.164535 0)
(0.538451 0.168636 0)
(0.520035 0.170679 0)
(0.501208 0.170755 0)
(0.482264 0.169048 0)
(0.463475 0.16581 0)
(0.445074 0.161323 0)
(0.42724 0.155875 0)
(0.410107 0.149739 0)
(0.393762 0.143158 0)
(0.378255 0.136338 0)
(0.363604 0.129445 0)
(0.349805 0.122602 0)
(0.336837 0.115893 0)
(0.324669 0.109372 0)
(0.313268 0.103061 0)
(0.302596 0.0969668 0)
(0.292622 0.0910764 0)
(0.283314 0.0853706 0)
(0.274649 0.0798216 0)
(0.266603 0.0744033 0)
(0.259162 0.0690846 0)
(0.252314 0.0638409 0)
(0.246049 0.0586466 0)
(0.240364 0.0534831 0)
(0.235257 0.048332 0)
(0.230729 0.0431809 0)
(0.226782 0.0380229 0)
(0.223419 0.0328531 0)
(0.220645 0.0276723 0)
(0.218463 0.0224858 0)
(0.216877 0.0173016 0)
(0.215886 0.0121311 0)
(0.215494 0.00698905 0)
(0.215696 0.00189413 0)
(0.216488 -0.00313473 0)
(0.217865 -0.00807485 0)
(0.219815 -0.0129041 0)
(0.222326 -0.0176006 0)
(0.225383 -0.0221423 0)
(0.22897 -0.0265094 0)
(0.233068 -0.0306831 0)
(0.623778 0.0579632 0)
(0.615916 0.0747835 0)
(0.609991 0.0893395 0)
(0.600076 0.10629 0)
(0.589013 0.12177 0)
(0.579269 0.137593 0)
(0.568785 0.150295 0)
(0.557105 0.161235 0)
(0.544098 0.170475 0)
(0.529816 0.177684 0)
(0.51448 0.182632 0)
(0.498309 0.185251 0)
(0.481526 0.185648 0)
(0.46444 0.184004 0)
(0.447334 0.180589 0)
(0.430446 0.175724 0)
(0.413963 0.169741 0)
(0.398028 0.162959 0)
(0.382742 0.155666 0)
(0.368168 0.148105 0)
(0.354334 0.140469 0)
(0.341246 0.132902 0)
(0.328893 0.125502 0)
(0.317254 0.118327 0)
(0.306302 0.111406 0)
(0.296009 0.104739 0)
(0.286346 0.0983144 0)
(0.277293 0.092105 0)
(0.268828 0.08608 0)
(0.260937 0.0802049 0)
(0.253608 0.0744487 0)
(0.246837 0.0687731 0)
(0.240621 0.0631586 0)
(0.234961 0.0575714 0)
(0.229858 0.0520023 0)
(0.225324 0.046421 0)
(0.221363 0.0408356 0)
(0.217983 0.035229 0)
(0.215193 0.0296039 0)
(0.213003 0.0239673 0)
(0.211418 0.0183279 0)
(0.210443 0.0126982 0)
(0.210082 0.00709555 0)
(0.210337 0.00153994 0)
(0.211203 -0.00394681 0)
(0.212677 -0.00933956 0)
(0.214749 -0.0146135 0)
(0.217406 -0.0197442 0)
(0.22063 -0.0247086 0)
(0.224405 -0.0294854 0)
(0.228712 -0.0340559 0)
(0.589346 0.0673496 0)
(0.579503 0.0827431 0)
(0.571445 0.0967844 0)
(0.562099 0.111367 0)
(0.553114 0.126646 0)
(0.543904 0.1423 0)
(0.532836 0.158629 0)
(0.522835 0.170433 0)
(0.511951 0.180467 0)
(0.499929 0.188523 0)
(0.486887 0.194368 0)
(0.472991 0.197754 0)
(0.458428 0.198683 0)
(0.443424 0.197275 0)
(0.428253 0.193841 0)
(0.413147 0.188749 0)
(0.398293 0.182378 0)
(0.383833 0.175092 0)
(0.36987 0.167221 0)
(0.356471 0.159044 0)
(0.343671 0.150781 0)
(0.331485 0.142595 0)
(0.319912 0.134599 0)
(0.30894 0.126858 0)
(0.298552 0.119402 0)
(0.288729 0.112233 0)
(0.279457 0.105334 0)
(0.270715 0.0986783 0)
(0.262498 0.0922235 0)
(0.254795 0.0859391 0)
(0.247603 0.0797736 0)
(0.240924 0.0737062 0)
(0.234766 0.0676863 0)
(0.229131 0.0617046 0)
(0.224034 0.0557205 0)
(0.219489 0.0497314 0)
(0.215512 0.0437192 0)
(0.212103 0.0376806 0)
(0.209289 0.0316086 0)
(0.207083 0.0255168 0)
(0.205493 0.0194124 0)
(0.20453 0.0133093 0)
(0.204201 0.00722796 0)
(0.20451 0.00119125 0)
(0.205454 -0.0047753 0)
(0.207033 -0.0106425 0)
(0.209236 -0.0163824 0)
(0.21205 -0.0219675 0)
(0.215454 -0.0273729 0)
(0.21943 -0.0325754 0)
(0.223958 -0.037559 0)
(0.556777 0.078785 0)
(0.544113 0.092624 0)
(0.534257 0.106266 0)
(0.52455 0.119285 0)
(0.515175 0.134231 0)
(0.508944 0.147692 0)
(0.498592 0.161916 0)
(0.486426 0.178353 0)
(0.477147 0.189006 0)
(0.467291 0.19758 0)
(0.456552 0.204138 0)
(0.44489 0.20828 0)
(0.432461 0.209727 0)
(0.419545 0.208638 0)
(0.406442 0.20531 0)
(0.393323 0.20013 0)
(0.380329 0.193516 0)
(0.367585 0.185879 0)
(0.355184 0.177584 0)
(0.343185 0.168938 0)
(0.331627 0.160188 0)
(0.320528 0.151514 0)
(0.309897 0.143041 0)
(0.299731 0.134843 0)
(0.290025 0.12695 0)
(0.280773 0.119367 0)
(0.271966 0.112076 0)
(0.263599 0.105044 0)
(0.255675 0.0982232 0)
(0.248193 0.0915801 0)
(0.24116 0.0850595 0)
(0.234589 0.078626 0)
(0.22849 0.0722415 0)
(0.222887 0.0658766 0)
(0.217787 0.0595033 0)
(0.213227 0.0531105 0)
(0.209214 0.0466777 0)
(0.205773 0.0401995 0)
(0.202927 0.0336828 0)
(0.200697 0.0271276 0)
(0.199092 0.0205455 0)
(0.198132 0.0139548 0)
(0.197829 0.00737588 0)
(0.198189 0.000836809 0)
(0.199214 -0.00563328 0)
(0.200904 -0.0119994 0)
(0.203247 -0.0182291 0)
(0.206228 -0.0242904 0)
(0.209826 -0.0301553 0)
(0.214011 -0.0357997 0)
(0.218762 -0.0412069 0)
(0.519177 0.0912099 0)
(0.506575 0.103302 0)
(0.49544 0.11622 0)
(0.485521 0.128333 0)
(0.476997 0.141774 0)
(0.468219 0.155409 0)
(0.462586 0.167194 0)
(0.453205 0.181524 0)
(0.440393 0.195975 0)
(0.432216 0.205094 0)
(0.423817 0.212316 0)
(0.414358 0.217053 0)
(0.404064 0.218952 0)
(0.393328 0.218147 0)
(0.382354 0.21494 0)
(0.371309 0.209738 0)
(0.360317 0.202992 0)
(0.349461 0.195137 0)
(0.338801 0.186563 0)
(0.328386 0.177601 0)
(0.318247 0.168516 0)
(0.308404 0.159501 0)
(0.298867 0.15069 0)
(0.289645 0.14216 0)
(0.280737 0.133951 0)
(0.272154 0.126058 0)
(0.263897 0.118473 0)
(0.255966 0.111143 0)
(0.248381 0.104039 0)
(0.241155 0.0970921 0)
(0.234296 0.0902755 0)
(0.227844 0.0835243 0)
(0.221815 0.0768163 0)
(0.216234 0.0700972 0)
(0.211134 0.0633582 0)
(0.20654 0.056574 0)
(0.202486 0.0497272 0)
(0.198994 0.0428171 0)
(0.1961 0.0358448 0)
(0.193827 0.0288137 0)
(0.192199 0.0217372 0)
(0.19123 0.0146381 0)
(0.190943 0.00753884 0)
(0.191351 0.000469707 0)
(0.192456 -0.00653262 0)
(0.194262 -0.0134269 0)
(0.196754 -0.0201729 0)
(0.199912 -0.0267326 0)
(0.203704 -0.0330723 0)
(0.208097 -0.0391682 0)
(0.213053 -0.0450012 0)
(0.47121 0.101619 0)
(0.460503 0.113499 0)
(0.451725 0.125064 0)
(0.44297 0.136819 0)
(0.43546 0.148953 0)
(0.428981 0.160941 0)
(0.421759 0.175095 0)
(0.415662 0.186658 0)
(0.405892 0.199693 0)
(0.395605 0.210351 0)
(0.389204 0.218532 0)
(0.38177 0.223911 0)
(0.373534 0.226287 0)
(0.364928 0.225745 0)
(0.356155 0.222659 0)
(0.347308 0.217481 0)
(0.338444 0.210686 0)
(0.329609 0.202725 0)
(0.320841 0.194008 0)
(0.312167 0.18488 0)
(0.303602 0.175614 0)
(0.295165 0.166411 0)
(0.286863 0.157412 0)
(0.278713 0.148694 0)
(0.270719 0.1403 0)
(0.262902 0.132226 0)
(0.255269 0.124449 0)
(0.247839 0.116928 0)
(0.240639 0.109617 0)
(0.233695 0.102459 0)
(0.227045 0.0953982 0)
(0.220716 0.0883957 0)
(0.21475 0.081396 0)
(0.209187 0.0743679 0)
(0.204069 0.0672884 0)
(0.199431 0.0601264 0)
(0.195313 0.0528799 0)
(0.191757 0.045537 0)
(0.188792 0.0381051 0)
(0.186455 0.0305882 0)
(0.184776 0.0230037 0)
(0.183782 0.0153732 0)
(0.183499 0.00772275 0)
(0.183945 8.99633e-05 0)
(0.185126 -0.00747862 0)
(0.187046 -0.014933 0)
(0.189685 -0.0222225 0)
(0.193011 -0.0292988 0)
(0.19698 -0.0361203 0)
(0.201537 -0.0426584 0)
(0.206623 -0.0488982 0)
(0.413423 0.108641 0)
(0.409047 0.120457 0)
(0.402971 0.131642 0)
(0.396714 0.143048 0)
(0.390633 0.154814 0)
(0.385841 0.166856 0)
(0.382489 0.179473 0)
(0.375426 0.192074 0)
(0.365972 0.203241 0)
(0.358895 0.214763 0)
(0.353348 0.223531 0)
(0.347545 0.229217 0)
(0.341226 0.231772 0)
(0.334722 0.231378 0)
(0.328169 0.228389 0)
(0.321572 0.223261 0)
(0.314923 0.216482 0)
(0.308221 0.20852 0)
(0.301464 0.199791 0)
(0.294655 0.190642 0)
(0.287795 0.181351 0)
(0.280893 0.172119 0)
(0.273955 0.163088 0)
(0.266993 0.154333 0)
(0.260023 0.145902 0)
(0.253058 0.137783 0)
(0.24613 0.129944 0)
(0.239259 0.122352 0)
(0.232491 0.114939 0)
(0.22586 0.107656 0)
(0.219419 0.100436 0)
(0.213221 0.0932319 0)
(0.207308 0.0859992 0)
(0.201749 0.078699 0)
(0.196586 0.0713033 0)
(0.19188 0.0637864 0)
(0.187675 0.0561468 0)
(0.184023 0.0483728 0)
(0.180965 0.0404757 0)
(0.178543 0.0324642 0)
(0.176793 0.0243537 0)
(0.175748 0.016166 0)
(0.175443 0.0079328 0)
(0.175898 -0.00029968 0)
(0.177131 -0.00847319 0)
(0.179136 -0.0165211 0)
(0.181885 -0.0243767 0)
(0.185323 -0.031973 0)
(0.189375 -0.039255 0)
(0.193955 -0.0461876 0)
(0.198978 -0.0527648 0)
(0.352675 0.109676 0)
(0.351821 0.122509 0)
(0.3505 0.134331 0)
(0.347435 0.146114 0)
(0.344305 0.158399 0)
(0.341817 0.171049 0)
(0.337994 0.183234 0)
(0.333156 0.195521 0)
(0.326447 0.207672 0)
(0.320315 0.218992 0)
(0.316129 0.22767 0)
(0.311755 0.233199 0)
(0.307299 0.235618 0)
(0.302939 0.23515 0)
(0.298655 0.23214 0)
(0.294368 0.227036 0)
(0.290006 0.220315 0)
(0.285516 0.212439 0)
(0.28086 0.203814 0)
(0.276015 0.194782 0)
(0.270967 0.185614 0)
(0.26571 0.176511 0)
(0.260241 0.167605 0)
(0.254576 0.158984 0)
(0.248725 0.150666 0)
(0.242697 0.142651 0)
(0.236538 0.134902 0)
(0.230281 0.127361 0)
(0.223971 0.119973 0)
(0.217673 0.112662 0)
(0.211444 0.105375 0)
(0.205364 0.0980494 0)
(0.199491 0.0906438 0)
(0.193902 0.0831126 0)
(0.188667 0.0754324 0)
(0.183853 0.0675819 0)
(0.179524 0.0595561 0)
(0.175738 0.0513559 0)
(0.172548 0.0429882 0)
(0.170005 0.0344659 0)
(0.168151 0.0258098 0)
(0.167025 0.0170435 0)
(0.166661 0.0082008 0)
(0.167084 -0.000665594 0)
(0.168308 -0.00947585 0)
(0.170314 -0.0181374 0)
(0.173044 -0.0265541 0)
(0.176406 -0.0346327 0)
(0.180287 -0.0422991 0)
(0.184563 -0.0495146 0)
(0.189123 -0.0562893 0)
(0.290833 0.105898 0)
(0.295924 0.12102 0)
(0.297235 0.134212 0)
(0.297136 0.147017 0)
(0.29632 0.160122 0)
(0.295081 0.173168 0)
(0.294306 0.18614 0)
(0.28984 0.1984 0)
(0.283533 0.210852 0)
(0.279983 0.222333 0)
(0.277158 0.230691 0)
(0.274518 0.235738 0)
(0.272068 0.237743 0)
(0.269915 0.237013 0)
(0.267952 0.233877 0)
(0.266023 0.228762 0)
(0.263993 0.222129 0)
(0.261766 0.214414 0)
(0.259271 0.206001 0)
(0.256457 0.197216 0)
(0.253298 0.188314 0)
(0.249767 0.179493 0)
(0.245864 0.170877 0)
(0.241576 0.162549 0)
(0.23691 0.154515 0)
(0.231893 0.14677 0)
(0.226548 0.139266 0)
(0.22093 0.131929 0)
(0.215095 0.124697 0)
(0.209122 0.117484 0)
(0.20309 0.11023 0)
(0.197094 0.102874 0)
(0.191218 0.0953546 0)
(0.185556 0.0876479 0)
(0.180197 0.0797172 0)
(0.175222 0.0715559 0)
(0.170713 0.0631566 0)
(0.166743 0.0545262 0)
(0.163372 0.0456788 0)
(0.160659 0.0366328 0)
(0.158651 0.0274124 0)
(0.157381 0.0180473 0)
(0.156882 0.00857429 0)
(0.157166 -0.000940263 0)
(0.158222 -0.0103861 0)
(0.16 -0.0196271 0)
(0.162393 -0.0285305 0)
(0.165269 -0.0369716 0)
(0.168482 -0.0448599 0)
(0.171891 -0.0521644 0)
(0.175376 -0.0589339 0)
(0.234931 0.100166 0)
(0.240932 0.116463 0)
(0.244388 0.131367 0)
(0.246305 0.145664 0)
(0.247442 0.159984 0)
(0.248446 0.174108 0)
(0.246629 0.18773 0)
(0.243417 0.200223 0)
(0.240583 0.213105 0)
(0.237909 0.224114 0)
(0.236564 0.231996 0)
(0.235853 0.236498 0)
(0.235735 0.237982 0)
(0.236002 0.236845 0)
(0.236439 0.233503 0)
(0.236898 0.228376 0)
(0.237223 0.221877 0)
(0.237278 0.214403 0)
(0.236965 0.206305 0)
(0.236214 0.197886 0)
(0.234982 0.189388 0)
(0.233232 0.180996 0)
(0.230938 0.172834 0)
(0.22808 0.164962 0)
(0.224649 0.157399 0)
(0.220662 0.150104 0)
(0.216142 0.143019 0)
(0.211152 0.136055 0)
(0.205759 0.129131 0)
(0.200065 0.122151 0)
(0.194171 0.115048 0)
(0.188189 0.107748 0)
(0.182236 0.1002 0)
(0.176427 0.0923673 0)
(0.170867 0.0842313 0)
(0.165663 0.0757764 0)
(0.16091 0.0670111 0)
(0.156696 0.0579435 0)
(0.153097 0.0486018 0)
(0.150166 0.0390188 0)
(0.147943 0.0292296 0)
(0.146441 0.0192665 0)
(0.145655 0.00918144 0)
(0.145555 -0.000927965 0)
(0.146062 -0.0109166 0)
(0.147094 -0.0205988 0)
(0.148515 -0.0298007 0)
(0.150192 -0.0383928 0)
(0.152002 -0.046276 0)
(0.153821 -0.0534262 0)
(0.155552 -0.0599797 0)
(0.181401 0.094955 0)
(0.187582 0.112433 0)
(0.192016 0.128646 0)
(0.195298 0.144281 0)
(0.197923 0.159287 0)