/*--------------------------------*- C++ -*----------------------------------*\
  =========                 |
  \\      /  F ield         | OpenFOAM: The Open Source CFD Toolbox
   \\    /   O peration     | Website:  https://openfoam.org
    \\  /    A nd           | Version:  10
     \\/     M anipulation  |
\*---------------------------------------------------------------------------*/
FoamFile
{
    format      ascii;
    class       surfaceScalarField;
    location    "0.796907";
    object      phi;
}
// * * * * * * * * * * * * * * * * * * * * * * * * * * * * * * * * * * * * * //

dimensions      [1 0 -1 0 0 0 0];

internalField   nonuniform List<scalar> 
31672
(
0.000442027
-5.05151e-05
0.000436811
-5.06412e-05
0.000431381
-5.09015e-05
0.00042575
-5.12659e-05
0.00041994
-5.17313e-05
0.000413961
-5.22823e-05
0.000407857
-5.29393e-05
0.000401645
-5.36716e-05
0.000395343
-5.44643e-05
0.000388982
-5.53049e-05
0.000382592
-5.61836e-05
0.00037617
-5.70834e-05
0.000369739
-5.79903e-05
0.000363321
-5.88928e-05
0.000356944
-5.97777e-05
0.000350628
-6.06358e-05
0.000344398
-6.14557e-05
0.000338271
-6.22314e-05
0.000332264
-6.29529e-05
0.000326396
-6.36157e-05
0.000320676
-6.42129e-05
0.000315125
-6.47399e-05
0.000309756
-6.51933e-05
0.000304588
-6.55702e-05
0.000299636
-6.58675e-05
0.000294916
-6.60843e-05
0.000290445
-6.62172e-05
0.00028624
-6.62676e-05
0.000282319
-6.6232e-05
0.000278707
-6.61129e-05
0.000275417
-6.59094e-05
0.000272474
-6.56202e-05
0.000269895
-6.52495e-05
0.000267699
-6.47905e-05
0.000265911
-6.42502e-05
0.000264538
-6.36218e-05
0.0002636
-6.29051e-05
0.000263118
-6.20966e-05
0.000263101
-6.11926e-05
0.000263559
-6.01848e-05
0.000264505
-5.90663e-05
0.000265939
-5.78279e-05
0.000267861
-5.64535e-05
0.000270273
-5.49279e-05
0.00027317
-5.32349e-05
0.00027654
-5.13514e-05
0.000280376
-4.92579e-05
0.000284656
-4.69266e-05
0.000289366
-4.43327e-05
0.000294483
-4.14482e-05
0.000299977
-3.82426e-05
0.000305819
-3.46876e-05
0.000311976
-3.07523e-05
-2.64099e-05
0.000318403
0.000441774
-4.45671e-05
0.00043647
-4.44688e-05
0.000430941
-4.45198e-05
0.000425212
-4.46944e-05
0.000419308
-4.49857e-05
0.000413251
-4.53854e-05
0.000407081
-4.59202e-05
0.000400806
-4.65472e-05
0.000394467
-4.72572e-05
0.00038807
-4.80417e-05
0.000381645
-4.88888e-05
0.000375193
-4.97891e-05
0.000368746
-5.07173e-05
0.000362326
-5.16688e-05
0.000355959
-5.26292e-05
0.000349666
-5.35873e-05
0.000343466
-5.4533e-05
0.000337379
-5.54564e-05
0.000331419
-5.63503e-05
0.000325602
-5.7207e-05
0.000319941
-5.80198e-05
0.00031445
-5.87836e-05
0.000309148
-5.94937e-05
0.000304047
-6.01466e-05
0.000299165
-6.07387e-05
0.000294516
-6.12683e-05
0.000290119
-6.17312e-05
0.00028599
-6.21277e-05
0.000282147
-6.24539e-05
0.00027861
-6.27108e-05
0.000275396
-6.28957e-05
0.000272533
-6.30087e-05
0.000270032
-6.30508e-05
0.000267917
-6.30153e-05
0.000266211
-6.29089e-05
0.000264925
-6.27217e-05
0.000264082
-6.2455e-05
0.000263697
-6.21023e-05
0.000263787
-6.16596e-05
0.000264368
-6.11184e-05
0.000265444
-6.04705e-05
0.000267022
-5.97016e-05
0.000269108
-5.8798e-05
0.000271704
-5.7743e-05
0.000274802
-5.65155e-05
0.0002784
-5.50954e-05
0.000282486
-5.3456e-05
0.000287045
-5.15702e-05
0.000292067
-4.94097e-05
0.000297522
-4.69418e-05
0.000303388
-4.41345e-05
0.000309628
-4.09526e-05
0.000316209
-3.73612e-05
-3.33278e-05
0.000323089
0.00044173
-3.86225e-05
0.000436333
-3.82849e-05
0.000430709
-3.81165e-05
0.000424882
-3.80932e-05
0.000418872
-3.8201e-05
0.000412711
-3.84604e-05
0.000406443
-3.88642e-05
0.000400081
-3.9382e-05
0.000393645
-4.00108e-05
0.000387164
-4.07437e-05
0.000380662
-4.15623e-05
0.000374157
-4.24564e-05
0.000367677
-4.34111e-05
0.00036124
-4.44124e-05
0.000354869
-4.54485e-05
0.000348584
-4.65064e-05
0.000342399
-4.75757e-05
0.000336332
-4.86453e-05
0.000330402
-4.97088e-05
0.000324617
-5.0756e-05
0.000318994
-5.17815e-05
0.000313547
-5.27791e-05
0.00030829
-5.37434e-05
0.000303239
-5.46705e-05
0.000298412
-5.55566e-05
0.000293823
-5.63988e-05
0.000289487
-5.7193e-05
0.000285421
-5.79377e-05
0.000281642
-5.86297e-05
0.00027817
-5.92677e-05
0.000275024
-5.98502e-05
0.000272227
-6.03749e-05
0.000269793
-6.08417e-05
0.000267751
-6.12458e-05
0.000266118
-6.15896e-05
0.000264913
-6.18641e-05
0.000264158
-6.20706e-05
0.000263866
-6.21984e-05
0.000264061
-6.22441e-05
0.00026476
-6.21985e-05
0.000265961
-6.20515e-05
0.000267684
-6.1785e-05
0.000269935
-6.13871e-05
0.000272712
-6.08365e-05
0.00027602
-6.0112e-05
0.000279851
-5.91911e-05
0.000284197
-5.80427e-05
0.000289049
-5.66398e-05
0.000294385
-5.49473e-05
0.000300193
-5.29322e-05
0.000306442
-5.0556e-05
0.000313098
-4.77789e-05
0.000320131
-4.45612e-05
-4.08612e-05
0.000327495
0.000441874
-3.26585e-05
0.00043635
-3.20692e-05
0.000430602
-3.16726e-05
0.000424643
-3.14382e-05
0.000418507
-3.13581e-05
0.000412239
-3.14735e-05
0.00040587
-3.17422e-05
0.000399383
-3.21588e-05
0.000392828
-3.27076e-05
0.000386239
-3.3387e-05
0.000379647
-3.41803e-05
0.000373078
-3.50748e-05
0.000366552
-3.60557e-05
0.000360082
-3.71085e-05
0.000353687
-3.82199e-05
0.000347382
-3.93771e-05
0.000341185
-4.05686e-05
0.000335117
-4.17841e-05
0.00032919
-4.30144e-05
0.000323417
-4.42512e-05
0.000317815
-4.54871e-05
0.000312394
-4.67167e-05
0.000307169
-4.79335e-05
0.000302158
-4.91336e-05
0.000297372
-5.0313e-05
0.000292826
-5.14675e-05
0.000288535
-5.25939e-05
0.000284517
-5.3689e-05
0.000280787
-5.47504e-05
0.000277366
-5.5775e-05
0.000274273
-5.67622e-05
0.00027153
-5.7708e-05
0.000269157
-5.86121e-05
0.000267176
-5.947e-05
0.000265609
-6.02812e-05
0.000264476
-6.10379e-05
0.000263797
-6.17385e-05
0.000263591
-6.23723e-05
0.000263888
-6.29345e-05
0.000264695
-6.34157e-05
0.000266019
-6.37991e-05
0.000267883
-6.40706e-05
0.000270293
-6.42125e-05
0.000273253
-6.42041e-05
0.000276767
-6.40217e-05
0.000280832
-6.36388e-05
0.000285441
-6.30219e-05
0.000290585
-6.21404e-05
0.000296256
-6.09581e-05
0.000302431
-5.94355e-05
0.000309087
-5.75292e-05
0.000316198
-5.51961e-05
0.00032372
-5.23865e-05
-4.90522e-05
0.000331605
0.000442219
-2.66585e-05
0.000436569
-2.58016e-05
0.000430673
-2.51619e-05
0.000424549
-2.46977e-05
0.000418274
-2.44457e-05
0.000411843
-2.44025e-05
0.00040532
-2.45374e-05
0.0003987
-2.48452e-05
0.000392027
-2.53247e-05
0.000385336
-2.59536e-05
0.000378653
-2.67254e-05
0.000371996
-2.76243e-05
0.000365386
-2.86343e-05
0.000358843
-2.97404e-05
0.000352388
-3.0929e-05
0.00034604
-3.21863e-05
0.000339817
-3.35011e-05
0.00033373
-3.48619e-05
0.000327795
-3.6259e-05
0.000322021
-3.76842e-05
0.000316421
-3.91298e-05
0.000311012
-4.05894e-05
0.000305802
-4.20575e-05
0.000300809
-4.35292e-05
0.000296048
-4.50007e-05
0.000291529
-4.64674e-05
0.00028727
-4.79264e-05
0.000283284
-4.9374e-05
0.000279588
-5.0808e-05
0.000276203
-5.22242e-05
0.000273149
-5.36228e-05
0.000270445
-5.49987e-05
0.000268115
-5.63515e-05
0.000266184
-5.76764e-05
0.000264669
-5.89722e-05
0.000263595
-6.02291e-05
0.000262983
-6.14468e-05
0.000262855
-6.26108e-05
0.000263242
-6.37179e-05
0.000264145
-6.47543e-05
0.00026559
-6.57024e-05
0.000267586
-6.65471e-05
0.000270147
-6.72658e-05
0.000273288
-6.78388e-05
0.000277012
-6.82391e-05
0.000281312
-6.84367e-05
0.000286184
-6.83956e-05
0.000291634
-6.80816e-05
0.000297647
-6.74543e-05
0.000304207
-6.64681e-05
0.000311295
-6.50783e-05
0.000318877
-6.32313e-05
0.000326916
-6.08712e-05
-5.79427e-05
0.000335373
0.000442788
-2.05973e-05
0.000436979
-1.94551e-05
0.000430896
-1.85533e-05
0.000424603
-1.78627e-05
0.000418133
-1.74356e-05
0.00041153
-1.72241e-05
0.000404815
-1.72225e-05
0.000398039
-1.74303e-05
0.000391235
-1.78377e-05
0.000384423
-1.84223e-05
0.000377626
-1.91777e-05
0.000370865
-2.00852e-05
0.000364162
-2.11283e-05
0.000357539
-2.22921e-05
0.000351012
-2.35611e-05
0.000344603
-2.49219e-05
0.000338327
-2.63616e-05
0.000332197
-2.78687e-05
0.000326228
-2.94333e-05
0.000320431
-3.10465e-05
0.000314817
-3.27013e-05
0.000309397
-3.439e-05
0.000304187
-3.61082e-05
0.000299198
-3.78505e-05
0.000294442
-3.9613e-05
0.000289934
-4.13916e-05
0.000285687
-4.31831e-05
0.000281718
-4.49842e-05
0.00027804
-4.67926e-05
0.000274675
-4.86049e-05
0.000271643
-5.04202e-05
0.000268966
-5.22347e-05
0.000266665
-5.40466e-05
0.000264767
-5.58513e-05
0.000263289
-5.76467e-05
0.000262258
-5.94226e-05
0.000261698
-6.11775e-05
0.000261635
-6.28968e-05
0.000262093
-6.45761e-05
0.000263082
-6.61972e-05
0.000264632
-6.7743e-05
0.000266753
-6.91976e-05
0.000269463
-7.05344e-05
0.000272774
-7.17312e-05
0.000276696
-7.2757e-05
0.000281234
-7.35797e-05
0.000286388
-7.41623e-05
0.000292151
-7.44637e-05
0.000298515
-7.44406e-05
0.000305474
-7.40418e-05
0.000313008
-7.32189e-05
0.000321083
-7.19097e-05
0.000329675
-7.00488e-05
-6.75729e-05
0.000338739
0.00044365
-1.44434e-05
0.000437622
-1.29991e-05
0.000431317
-1.18064e-05
0.000424829
-1.09147e-05
0.000418143
-1.02806e-05
0.000411336
-9.90567e-06
0.000404424
-9.77806e-06
0.000397487
-9.8881e-06
0.000390514
-1.02244e-05
0.000383529
-1.07746e-05
0.000376576
-1.15176e-05
0.000369675
-1.24396e-05
0.000362847
-1.35222e-05
0.000356115
-1.47492e-05
0.000349494
-1.61041e-05
0.000343007
-1.75723e-05
0.000336664
-1.91404e-05
0.000330482
-2.07965e-05
0.000324469
-2.25301e-05
0.000318638
-2.43325e-05
0.000312997
-2.61957e-05
0.000307555
-2.81134e-05
0.000302327
-3.00804e-05
0.000297324
-3.20918e-05
0.000292558
-3.4144e-05
0.000288043
-3.62332e-05
0.000283791
-3.83566e-05
0.000279818
-4.05118e-05
0.00027614
-4.26959e-05
0.000272777
-4.49072e-05
0.00026975
-4.71435e-05
0.000267079
-4.94026e-05
0.000264789
-5.16815e-05
0.000262906
-5.39769e-05
0.000261447
-5.62853e-05
0.000260441
-5.85979e-05
0.000259913
-6.09085e-05
0.000259896
-6.32087e-05
0.000260407
-6.54854e-05
0.000261466
-6.77233e-05
0.000263107
-6.99006e-05
0.000265347
-7.20028e-05
0.000268197
-7.39987e-05
0.000271678
-7.58632e-05
0.000275798
-7.75615e-05
0.000280562
-7.90581e-05
0.000285978
-8.03135e-05
0.000292052
-8.12817e-05
0.000298777
-8.19197e-05
0.000306149
-8.21621e-05
0.000314154
-8.19658e-05
0.000322755
-8.1249e-05
0.000331919
-7.99401e-05
-7.79648e-05
0.000341609
0.000444727
-8.15397e-06
0.000438467
-6.37551e-06
0.000431931
-4.92265e-06
0.000425188
-3.7924e-06
0.00041826
-2.96287e-06
0.000411214
-2.42525e-06
0.000404087
-2.16485e-06
0.000396945
-2.1877e-06
0.000389775
-2.46234e-06
0.000382606
-2.98326e-06
0.000375479
-3.72392e-06
0.00036842
-4.67107e-06
0.000361452
-5.80195e-06
0.000354595
-7.10122e-06
0.00034787
-8.54931e-06
0.000341294
-1.01305e-05
0.000334875
-1.18317e-05
0.000328623
-1.36401e-05
0.00032255
-1.55446e-05
0.000316663
-1.75365e-05
0.000310974
-1.96085e-05
0.000305494
-2.17544e-05
0.000300231
-2.3969e-05
0.000295196
-2.62478e-05
0.000290402
-2.85878e-05
0.000285861
-3.09859e-05
0.000281586
-3.34396e-05
0.000277594
-3.59477e-05
0.000273898
-3.85079e-05
0.000270518
-4.11188e-05
0.000267474
-4.37789e-05
0.000264787
-4.64863e-05
0.000262482
-4.92388e-05
0.000260586
-5.20336e-05
0.000259122
-5.48667e-05
0.000258112
-5.77317e-05
0.000257597
-6.06168e-05
0.000257604
-6.35216e-05
0.000258149
-6.64208e-05
0.000259264
-6.9307e-05
0.000260978
-7.21508e-05
0.000263314
-7.49404e-05
0.00026629
-7.76333e-05
0.000269923
-8.02115e-05
0.000274228
-8.26285e-05
0.000279221
-8.48527e-05
0.000284906
-8.6837e-05
0.000291299
-8.85305e-05
0.000298388
-8.98867e-05
0.000306181
-9.08355e-05
0.000314666
-9.13214e-05
0.000323781
-9.12458e-05
0.000333516
-9.05411e-05
-8.91011e-05
0.000343809
0.000446009
-1.69071e-06
0.000439473
4.34039e-07
0.000432673
2.15113e-06
0.000425651
3.52981e-06
0.000418482
4.55799e-06
0.000411177
5.26385e-06
0.000403801
5.62928e-06
0.000396395
5.69557e-06
0.000388983
5.46708e-06
0.000381614
4.96565e-06
0.000374303
4.21659e-06
0.000367085
3.23039e-06
0.000359971
2.04521e-06
0.000352987
6.65896e-07
0.000346149
-8.82962e-07
0.000339468
-2.5858e-06
0.000332954
-4.42652e-06
0.000326616
-6.39304e-06
0.000320463
-8.47114e-06
0.000314506
-1.06537e-05
0.000308753
-1.29348e-05
0.000303214
-1.53077e-05
0.000297898
-1.77688e-05
0.000292814
-2.03129e-05
0.000287975
-2.29385e-05
0.000283391
-2.56426e-05
0.000279075
-2.84241e-05
0.000275041
-3.12824e-05
0.000271304
-3.42163e-05
0.000267883
-3.72252e-05
0.000264798
-4.03088e-05
0.000262071
-4.34663e-05
0.000259726
-4.66969e-05
0.000257791
-4.99972e-05
0.000256296
-5.33658e-05
0.00025526
-5.67947e-05
0.000254733
-6.02742e-05
0.000254736
-6.38034e-05
0.00025529
-6.73535e-05
0.000256437
-7.09182e-05
0.000258204
-7.44639e-05
0.000260612
-7.79754e-05
0.000263686
-8.14102e-05
0.000267456
-8.4748e-05
0.000271934
-8.79398e-05
0.000277147
-9.09477e-05
0.000283099
-9.37158e-05
0.0002898
-9.61996e-05
0.000297269
-9.83314e-05
0.000305484
-0.000100045
0.000314414
-0.000101259
0.000324039
-0.000101859
0.000334299
-0.00010178
-0.000100842
0.000345057
0.000447599
4.99429e-06
0.000440787
7.45114e-06
0.000433674
9.47708e-06
0.000426358
1.11033e-05
0.000418854
1.23107e-05
0.000411259
1.31709e-05
0.000403589
1.36543e-05
0.000395912
1.37869e-05
0.00038826
1.35939e-05
0.000380649
1.3097e-05
0.000373114
1.23209e-05
0.000365681
1.12892e-05
0.000358386
1.00287e-05
0.000351244
8.55743e-06
0.000344268
6.8953e-06
0.000337463
5.06081e-06
0.000330834
3.07775e-06
0.000324396
9.52964e-07
0.000318157
-1.30134e-06
0.000312128
-3.68062e-06
0.00030631
-6.17499e-06
0.000300707
-8.77465e-06
0.000295324
-1.14789e-05
0.000290175
-1.42848e-05
0.000285274
-1.71913e-05
0.000280628
-2.01971e-05
0.000276253
-2.33029e-05
0.00027216
-2.65078e-05
0.000268362
-2.98117e-05
0.000264877
-3.32157e-05
0.000261724
-3.672e-05
0.000258928
-4.03255e-05
0.000256514
-4.40341e-05
0.000254514
-4.78427e-05
0.000252956
-5.17543e-05
0.000251865
-5.57568e-05
0.000251291
-5.98487e-05
0.000251256
-6.40168e-05
0.000251794
-6.82447e-05
0.000252943
-7.25175e-05
0.000254731
-7.6801e-05
0.000257191
-8.10736e-05
0.000260347
-8.52961e-05
0.00026424
-8.94438e-05
0.000268885
-9.34675e-05
0.000274294
-9.73122e-05
0.000280503
-0.000100928
0.000287516
-0.000104263
0.000295321
-0.000107234
0.000303921
-0.00010975
0.000313258
-0.000111724
0.000323257
-0.000112973
0.000333805
-0.000113462
-0.000112894
0.000344764
0.000449499
1.19532e-05
0.000442325
1.47623e-05
0.000434836
1.70848e-05
0.000427139
1.89515e-05
0.000419278
2.03743e-05
0.000411353
2.13615e-05
0.000403359
2.19405e-05
0.000395366
2.21237e-05
0.000387427
2.19475e-05
0.000379565
2.14325e-05
0.000371818
2.06115e-05
0.000364199
1.95104e-05
0.000356732
1.81612e-05
0.000349426
1.65802e-05
0.000342281
1.47949e-05
0.000335322
1.28236e-05
0.000328571
1.06861e-05
0.000322038
8.39335e-06
0.000315717
5.95541e-06
0.000309603
3.3808e-06
0.000303686
6.82574e-07
0.000297984
-2.14204e-06
0.000292515
-5.09259e-06
0.000287291
-8.15936e-06
0.000282318
-1.13434e-05
0.000277602
-1.4647e-05
0.00027315
-1.80706e-05
0.000268972
-2.16149e-05
0.000265084
-2.52814e-05
0.000261504
-2.90723e-05
0.000258254
-3.29913e-05
0.00025536
-3.70411e-05
0.000252846
-4.12255e-05
0.000250748
-4.55445e-05
0.000249091
-5.00012e-05
0.00024791
-5.45879e-05
0.000247252
-5.93004e-05
0.000247143
-6.41306e-05
0.000247631
-6.90573e-05
0.000248744
-7.40656e-05
0.000250518
-7.91206e-05
0.000252996
-8.42e-05
0.000256223
-8.92647e-05
0.000260219
-9.42725e-05
0.000264993
-9.91689e-05
0.000270588
-0.000103915
0.000277031
-0.000108448
0.000284332
-0.000112691
0.000292469
-0.000116547
0.000301384
-0.000119873
0.000311012
-0.000122566
0.000321107
-0.000124317
0.000331648
-0.000125248
-0.000124765
0.000342229
0.000451658
1.92403e-05
0.000444078
2.2417e-05
0.00043619
2.5057e-05
0.000428102
2.71532e-05
0.000419854
2.87741e-05
0.000411525
2.98762e-05
0.000403176
3.05286e-05
0.00039486
3.07425e-05
0.000386609
3.05536e-05
0.000378462
3.00002e-05
0.000370452
2.91097e-05
0.000362613
2.79217e-05
0.000354934
2.64492e-05
0.000347431
2.47564e-05
0.000340133
2.28203e-05
0.000333046
2.07053e-05
0.00032617
1.8398e-05
0.0003195
1.59372e-05
0.000313042
1.33127e-05
0.000306797
1.05399e-05
0.000300772
7.62922e-06
0.000294983
4.57574e-06
0.000289433
1.38968e-06
0.000284132
-1.93103e-06
0.000279087
-5.39422e-06
0.000274293
-8.98928e-06
0.000269748
-1.27203e-05
0.000265464
-1.65924e-05
0.000261459
-2.06106e-05
0.000257754
-2.47794e-05
0.000254374
-2.91043e-05
0.000251347
-3.35909e-05
0.000248699
-3.82457e-05
0.000246465
-4.3072e-05
0.000244679
-4.80742e-05
0.000243366
-5.32502e-05
0.000242588
-5.85945e-05
0.000242373
-6.40989e-05
0.000242761
-6.97485e-05
0.000243798
-7.55161e-05
0.000245531
-8.1381e-05
0.000248008
-8.73029e-05
0.000251256
-9.32522e-05
0.000255309
-9.91703e-05
0.000260205
-0.000105018
0.000265966
-0.00011072
0.000272632
-0.000116233
0.000280175
-0.000121433
0.000288556
-0.000126179
0.000297616
-0.000130243
0.000307277
-0.000133521
0.00031696
-0.000135412
0.000327047
-0.00013662
-0.000135572
0.000336393
0.000454056
2.69219e-05
0.000446045
3.04891e-05
0.000437728
3.34434e-05
0.000429167
3.57754e-05
0.000420478
3.75555e-05
0.000411735
3.87557e-05
0.000402982
3.94567e-05
0.000394294
3.96699e-05
0.000385709
3.94442e-05
0.000377262
3.88185e-05
0.000368983
3.78337e-05
0.00036088
3.65225e-05
0.000352999
3.49297e-05
0.000345294
3.3065e-05
0.00033784
3.09906e-05
0.000330585
2.86943e-05
0.000323584
2.62244e-05
0.000316786
2.35675e-05
0.000310226
2.07573e-05
0.000303871
1.77894e-05
0.000297752
1.46663e-05
0.000291862
1.13938e-05
0.000286195
7.97188e-06
0.00028077
4.39765e-06
0.00027559
6.77026e-07
0.000270665
-3.20011e-06
0.000266
-7.23778e-06
0.000261597
-1.1433e-05
0.000257465
-1.57922e-05
0.000253622
-2.03253e-05
0.000250093
-2.50425e-05
0.000246907
-2.99532e-05
0.000244093
-3.50673e-05
0.000241683
-4.03924e-05
0.000239718
-4.59357e-05
0.000238239
-5.17007e-05
0.000237284
-5.76823e-05
0.000236909
-6.38728e-05
0.000237158
-7.02632e-05
0.000238079
-7.68192e-05
0.000239722
-8.35223e-05
0.000242133
-9.03316e-05
0.000245359
-9.72075e-05
0.000249438
-0.000104095
0.000254421
-0.00011095
0.00026034
-0.000117695
0.00026718
-0.000124223
0.000274899
-0.000130392
0.000283403
-0.000135965
0.000292306
-0.000140543
0.000301645
-0.000144206
0.000310394
-0.00014571
0.000319453
-0.000147073
-0.000145278
0.000327838
0.000456672
3.50448e-05
0.000448139
3.90384e-05
0.000439252
4.22805e-05
0.000430205
4.48579e-05
0.000421049
4.67593e-05
0.000411835
4.80569e-05
0.000402672
4.87638e-05
0.000393595
4.89431e-05
0.000384657
4.86408e-05
0.000375899
4.79089e-05
0.000367344
4.67899e-05
0.000359002
4.5329e-05
0.000350903
4.35692e-05
0.000343025
4.15427e-05
0.000335385
3.92816e-05
0.000327981
3.68129e-05
0.000320817
3.41486e-05
0.000313883
3.131e-05
0.000307181
2.82967e-05
0.000300711
2.51282e-05
0.000294481
2.17924e-05
0.000288489
1.83012e-05
0.000282729
1.46487e-05
0.000277192
1.08338e-05
0.000271884
6.85383e-06
0.000266816
2.70425e-06
0.000261988
-1.61179e-06
0.000257421
-6.11561e-06
0.000253127
-1.08059e-05
0.000249121
-1.56908e-05
0.000245419
-2.07836e-05
0.000242042
-2.60999e-05
0.000239021
-3.16557e-05
0.000236392
-3.74645e-05
0.000234203
-4.35393e-05
0.00023249
-4.9888e-05
0.000231308
-5.65076e-05
0.000230718
-6.33983e-05
0.00023077
-7.05411e-05
0.00023151
-7.79142e-05
0.000233013
-8.54871e-05
0.00023533
-9.32275e-05
0.000238495
-0.000101078
0.000242573
-0.000108996
0.000247605
-0.000116922
0.000253609
-0.000124755
0.000260576
-0.000132351
0.000268331
-0.000139417
0.000276652
-0.000145674
0.000284904
-0.000150237
0.000293224
-0.000154016
0.000300304
-0.000154374
0.00030809
-0.000156218
-0.000154694
0.000315826
0.000459133
4.36813e-05
0.000450054
4.80893e-05
0.000440643
5.16292e-05
0.000431066
5.44193e-05
0.000421423
5.64334e-05
0.000411777
5.77755e-05
0.000402192
5.84633e-05
0.000392739
5.85713e-05
0.000383455
5.8158e-05
0.000374369
5.72711e-05
0.000365524
5.59857e-05
0.000356931
5.43338e-05
0.000348585
5.23922e-05
0.000340511
5.01554e-05
0.000332695
4.7711e-05
0.000325148
4.50332e-05
0.000317846
4.21787e-05
0.000310792
3.91388e-05
0.00030396
3.59314e-05
0.000297372
3.25523e-05
0.000291038
2.90112e-05
0.000284915
2.53006e-05
0.000279007
2.14194e-05
0.000273334
1.73667e-05
0.000267901
1.31393e-05
0.000262702
8.73357e-06
0.000257745
4.13848e-06
0.000253017
-6.44991e-07
0.000248529
-5.63832e-06
0.000244304
-1.08508e-05
0.000240367
-1.62976e-05
0.000236749
-2.19975e-05
0.000233474
-2.79733e-05
0.00023058
-3.42456e-05
0.000228114
-4.08368e-05
0.000226116
-4.77573e-05
0.000224652
-5.50167e-05
0.000223785
-6.26084e-05
0.000223575
-7.05244e-05
0.000224095
-7.87343e-05
0.000225401
-8.72161e-05
0.000227547
-9.59187e-05
0.0002306
-0.000104802
0.000234616
-0.000113805
0.000239636
-0.00012285
0.000245674
-0.00013182
0.000252626
-0.000140469
0.000260143
-0.000148193
0.000267824
-0.000154731
0.000274726
-0.00015864
0.000281401
-0.000162439
0.000286775
-0.000161402
0.000295493
-0.000165937
-0.000177838
0.000314716
0.000460912
5.27919e-05
0.000451356
5.75417e-05
0.000441475
6.14496e-05
0.00043147
6.43952e-05
0.00042135
6.65447e-05
0.000411265
6.78922e-05
0.000401281
6.85283e-05
0.000391459
6.85301e-05
0.000381845
6.79592e-05
0.000372469
6.68939e-05
0.000363358
6.5399e-05
0.000354562
6.35445e-05
0.000346016
6.13564e-05
0.000337791
5.89274e-05
0.00032979
5.62308e-05
0.000322104
5.33645e-05
0.000314662
5.02834e-05
0.000307487
4.70536e-05
0.000300521
4.3632e-05
0.000293832
4.0058e-05
0.000287356
3.63112e-05
0.00028109
3.23858e-05
0.000275041
2.82857e-05
0.000269224
2.40058e-05
0.000263643
1.95408e-05
0.000258294
1.48865e-05
0.000253164
1.00346e-05
0.000248261
4.9774e-06
0.000243582
-2.93552e-07
0.000239139
-5.80169e-06
0.000234954
-1.15673e-05
0.000231058
-1.76185e-05
0.00022748
-2.39834e-05
0.000224266
-3.06913e-05
0.000221457
-3.77751e-05
0.000219115
-4.52513e-05
0.000217298
-5.31415e-05
0.000216086
-6.14351e-05
0.000215551
-7.01347e-05
0.000215763
-7.92029e-05
0.000216796
-8.86162e-05
0.000218723
-9.83309e-05
0.0002216
-0.000108294
0.000225468
-0.000118435
0.000230417
-0.00012867
0.000236353
-0.000138799
0.000243038
-0.000148264
0.000249761
-0.000156183
0.00025615
-0.000162514
0.000261017
-0.000165037
0.000267184
-0.000170327
0.000276638
-0.000173516
0.000310059
-0.000199841
-0.000229473
0.000362622
0.000460751
6.2059e-05
0.00045088
6.73481e-05
0.000440705
7.14989e-05
0.000430359
7.46828e-05
0.000420008
7.68958e-05
0.00040967
7.82558e-05
0.000399454
7.8826e-05
0.000389405
7.87026e-05
0.000379564
7.7953e-05
0.000370002
7.66844e-05
0.000360713
7.49558e-05
0.000351736
7.28565e-05
0.000343057
7.04362e-05
0.000334683
6.77588e-05
0.000326587
6.48485e-05
0.000318767
6.17532e-05
0.000311213
5.84655e-05
0.000303912
5.50273e-05
0.000296842
5.14014e-05
0.000290007
4.76344e-05
0.000283406
4.36799e-05
0.000277019
3.95487e-05
0.000270851
3.52371e-05
0.000264902
3.0739e-05
0.000259171
2.60495e-05
0.00025365
2.11636e-05
0.000248334
1.60741e-05
0.000243224
1.07713e-05
0.00023832
5.24268e-06
0.000233633
-5.34137e-07
0.000229177
-6.58105e-06
0.000224976
-1.29385e-05
0.000221059
-1.96478e-05
0.000217473
-2.67501e-05
0.000214261
-3.42899e-05
0.000211493
-4.22949e-05
0.000209239
-5.07958e-05
0.000207587
-5.9791e-05
0.000206628
-6.92794e-05
0.000206442
-7.92273e-05
0.000207125
-8.96083e-05
0.000208742
-0.000100373
0.000211356
-0.000111467
0.00021505
-0.000122822
0.000219821
-0.000134284
0.000225443
-0.000145289
0.000231208
-0.000155166
0.00023633
-0.000162544
0.000240728
-0.000168414
0.000246211
-0.00017203
0.000256049
-0.000183917
0.000303669
-0.000216504
0.000358025
-0.000261492
-0.00027743
0.000402516
0.000457324
7.12838e-05
0.000447334
7.6943e-05
0.000437151
8.14511e-05
0.000426838
8.48163e-05
0.000416475
8.71678e-05
0.000406153
8.85557e-05
0.000395954
8.90765e-05
0.000385926
8.88295e-05
0.000376099
8.79344e-05
0.000366535
8.64426e-05
0.000357228
8.45111e-05
0.000348209
8.21631e-05
0.0003395
7.95065e-05
0.000331088
7.65954e-05
0.000322962
7.34623e-05
0.000315088
7.01488e-05
0.000307469
6.66721e-05
0.000300068
6.30205e-05
0.000292933
5.92269e-05
0.000285983
5.52432e-05
0.000279277
5.11071e-05
0.000272744
4.67927e-05
0.000266429
4.22695e-05
0.000260325
3.75666e-05
0.000254433
3.2663e-05
0.000248744
2.75589e-05
0.000243249
2.22496e-05
0.000237943
1.67262e-05
0.000232815
1.09745e-05
0.000227866
4.97047e-06
0.000223107
-1.31313e-06
0.000218559
-7.92427e-06
0.000214239
-1.49172e-05
0.000210193
-2.23562e-05
0.00020648
-3.03012e-05
0.00020318
-3.87974e-05
0.000200392
-4.78854e-05
0.00019821
-5.75738e-05
0.000196732
-6.78573e-05
0.000196071
-7.87089e-05
0.000196302
-9.00923e-05
0.000197519
-0.000101954
0.000199819
-0.000114253
0.000203254
-0.000126881
0.00020767
-0.000139401
0.000212387
-0.000150942
0.000216334
-0.000160231
0.000220183
-0.000167684
0.000223242
-0.000173331
0.000243903
-0.000195504
0.000295429
-0.000236813
0.000343368
-0.000277326
0.000371937
-0.000291095
-0.000298169
0.00039101
0.000449418
8.02973e-05
0.000439141
8.62022e-05
0.000429066
9.08322e-05
0.000419104
9.43707e-05
0.000409216
9.68276e-05
0.0003994
9.82692e-05
0.000389658
9.87929e-05
0.000380088
9.8483e-05
0.000370634
9.74838e-05
0.000361399
9.58961e-05
0.000352392
9.37339e-05
0.000343584
9.12525e-05
0.00033505
8.83572e-05
0.000326742
8.52835e-05
0.000318682
8.19353e-05
0.000310866
7.84741e-05
0.000303249
7.47805e-05
0.000295854
7.09961e-05
0.000288659
6.70153e-05
0.000281647
6.28941e-05
0.000274839
5.8555e-05
0.000268233
5.40704e-05
0.00026179
4.93775e-05
0.000255531
4.44753e-05
0.000249463
3.93729e-05
0.000243588
3.40685e-05
0.000237896
2.85606e-05
0.000232375
2.28435e-05
0.000227007
1.69067e-05
0.000221775
1.07257e-05
0.000216674
4.2631e-06
0.00021172
-2.53566e-06
0.000206933
-9.73801e-06
0.000202364
-1.74391e-05
0.000198072
-2.57214e-05
0.000194151
-3.46562e-05
0.000190712
-4.4298e-05
0.000187866
-5.46633e-05
0.000185749
-6.57471e-05
0.000184479
-7.75295e-05
0.000184162
-8.99569e-05
0.000184905
-0.000102989
0.000186807
-0.000116573
0.00018985
-0.000130411
0.000193527
-0.000143749
0.0001967
-0.000154972
0.000199505
-0.00016426
0.000201872
-0.000171971
0.000226272
-0.00020075
0.000269701
-0.000244905
0.000306479
-0.000279902
0.000326981
-0.000298709
0.000341675
-0.000308742
-0.000314027
0.000354166
0.000438861
9.03494e-05
0.000426957
9.50647e-05
0.000416334
9.94534e-05
0.000406553
0.00010289
0.00039727
0.000105358
0.000388309
0.00010684
0.000379541
0.000107399
0.000370851
0.000107137
0.00036235
0.000106103
0.000353833
0.000104482
0.00034551
0.000102304
0.000337257
9.97032e-05
0.000329201
9.67763e-05
0.000321273
9.35374e-05
0.000313499
9.01191e-05
0.000305861
8.65073e-05
0.000298402
8.27499e-05
0.000291096
7.88177e-05
0.000283918
7.47291e-05
0.000276905
7.04697e-05
0.000270017
6.60307e-05
0.000263307
6.1362e-05
0.000256757
5.65067e-05
0.000250376
5.14366e-05
0.000244171
4.61586e-05
0.000238128
4.06795e-05
0.000232232
3.50017e-05
0.000226473
2.91259e-05
0.000220836
2.30481e-05
0.000215292
1.6747e-05
0.000209824
1.01798e-05
0.000204422
3.28025e-06
0.000199102
-4.04291e-06
0.000193905
-1.19055e-05
0.000188907
-2.04352e-05
0.000184223
-2.97366e-05
0.000179987
-3.9887e-05
0.000176332
-5.09124e-05
0.00017344
-6.28127e-05
0.000171449
-7.55691e-05
0.000170492
-8.91188e-05
0.000170692
-0.000103415
0.000172137
-0.000118333
0.000174558
-0.000133288
0.000176917
-0.000146742
0.000178529
-0.00015748
0.00018036
-0.000168084
0.00020232
-0.000197971
0.000238334
-0.000246595
0.000268077
-0.00028031
0.000286472
-0.000301574
0.000297876
-0.000313901
0.000308909
-0.000323241
-0.000330356
0.000321727
0.00043809
0.000106603
0.000416694
0.00010763
0.000401678
0.000109407
0.000390359
0.000111122
0.000381024
0.000112811
0.000372782
0.000113962
0.000365101
0.000114463
0.000357686
0.000114274
0.000350363
0.00011335
0.000343119
0.000111812
0.000335847
0.000109711
0.00032864
0.000107133
0.000321367
0.000104254
0.000314171
0.000101079
0.000306962
9.76778e-05
0.000299789
9.4082e-05
0.000292639
9.03149e-05
0.00028555
8.63609e-05
0.000278521
8.22373e-05
0.000271568
7.791e-05
0.000264724
7.33884e-05
0.000257934
6.8653e-05
0.000251278
6.36548e-05
0.000244751
5.8459e-05
0.000238378
5.30272e-05
0.000232146
4.74026e-05
0.000226035
4.15883e-05
0.000220023
3.55955e-05
0.000214084
2.94288e-05
0.000208178
2.30757e-05
0.000202269
1.64923e-05
0.000196338
9.59534e-06
0.000190386
2.26817e-06
0.000184452
-5.6393e-06
0.000178613
-1.43046e-05
0.000173008
-2.38818e-05
0.000167816
-3.45009e-05
0.000163219
-4.61802e-05
0.00015944
-5.89405e-05
0.000156654
-7.27512e-05
0.000155032
-8.75459e-05
0.000154699
-0.000103239
0.000155666
-0.000119483
0.000157024
-0.000135041
0.000157407
-0.000147789
0.000157668
-0.000159877
0.000174468
-0.000189564
0.000203804
-0.000241115
0.0002274
-0.000276318
0.000241095
-0.000298099
0.000249856
-0.000313598
0.000260761
-0.000327765
0.000274125
-0.000339559
-0.000347814
0.000288631
0.000465583
0.000121658
0.000427658
0.00012254
0.000395594
0.000125929
0.000375392
0.000123126
0.000362749
0.000121007
0.000353822
0.000120408
0.00034674
0.000120181
0.000340476
0.000119766
0.000334608
0.000118908
0.000328796
0.000117483
0.000322963
0.000115574
0.000317005
0.000113237
0.000310976
0.000110487
0.000304803
0.000107537
0.000298469
0.0001043
0.000292009
0.000100876
0.000285424
9.72509e-05
0.000278763
9.34113e-05
0.000272053
8.93578e-05
0.000265295
8.51013e-05
0.000258514
8.05679e-05
0.000251792
7.58269e-05
0.000245071
7.08042e-05
0.000238379
6.55408e-05
0.000231782
6.00112e-05
0.000225288
5.42904e-05
0.000218881
4.83868e-05
0.000212531
4.23288e-05
0.000206204
3.61273e-05
0.000199845
2.97951e-05
0.000193401
2.32905e-05
0.000186815
1.65177e-05
0.000180087
9.31516e-06
0.000173272
1.48268e-06
0.000166453
-7.19737e-06
0.00015983
-1.69844e-05
0.000153587
-2.80258e-05
0.000147985
-4.0395e-05
0.000143296
-5.41019e-05
0.000139751
-6.91093e-05
0.00013756
-8.53425e-05
0.000136833
-0.000102537
0.000137045
-0.000119873
0.000136654
-0.000135077
0.00013527
-0.000148073
0.000145898
-0.000176419
0.000168068
-0.00022944
0.000184227
-0.000265964
0.000192234
-0.000288837
0.000199878
-0.000308454
0.00021104
-0.000327167
0.000224638
-0.000343724
0.000239163
-0.000356321
-0.000363714
0.000253734
0.000464906
0.000128539
0.000444306
0.000137607
0.000407842
0.000138759
0.000372663
0.000139568
0.000349898
0.000132275
0.000335594
0.000128336
0.000326599
0.000125806
0.000320426
0.000124221
0.00031551
0.000122923
0.000311071