/*--------------------------------*- C++ -*----------------------------------*\
  =========                 |
  \\      /  F ield         | OpenFOAM: The Open Source CFD Toolbox
   \\    /   O peration     | Website:  https://openfoam.org
    \\  /    A nd           | Version:  10
     \\/     M anipulation  |
\*---------------------------------------------------------------------------*/
FoamFile
{
    format      ascii;
    class       volVectorField;
    location    "0.796907";
    object      U;
}
// * * * * * * * * * * * * * * * * * * * * * * * * * * * * * * * * * * * * * //

dimensions      [0 1 -1 0 0 0 0];

internalField   nonuniform List<vector> 
15984
(
(0.579674 -0.0697526 0)
(0.573204 -0.0700826 0)
(0.566383 -0.0705715 0)
(0.559243 -0.0711813 0)
(0.551821 -0.0719038 0)
(0.544157 -0.0727242 0)
(0.536247 -0.073656 0)
(0.52812 -0.0746683 0)
(0.519847 -0.0757418 0)
(0.511461 -0.0768543 0)
(0.502988 -0.0779966 0)
(0.494452 -0.0791418 0)
(0.485891 -0.0802816 0)
(0.477334 -0.0813933 0)
(0.468804 -0.0824633 0)
(0.460334 -0.0834771 0)
(0.451946 -0.0844223 0)
(0.443665 -0.0852869 0)
(0.435514 -0.0860617 0)
(0.427515 -0.0867387 0)
(0.41969 -0.0873112 0)
(0.412059 -0.0877739 0)
(0.404644 -0.0881225 0)
(0.397465 -0.0883538 0)
(0.390545 -0.0884655 0)
(0.383907 -0.0884561 0)
(0.377572 -0.0883249 0)
(0.371565 -0.0880719 0)
(0.365911 -0.0876979 0)
(0.360636 -0.0872042 0)
(0.355767 -0.0865922 0)
(0.35133 -0.0858638 0)
(0.347352 -0.0850214 0)
(0.343862 -0.0840662 0)
(0.340884 -0.0829998 0)
(0.338444 -0.0818222 0)
(0.336566 -0.0805325 0)
(0.33527 -0.0791281 0)
(0.334575 -0.0776046 0)
(0.334495 -0.0759547 0)
(0.335043 -0.0741682 0)
(0.336224 -0.0722353 0)
(0.338042 -0.0701387 0)
(0.340496 -0.0678591 0)
(0.34358 -0.0653755 0)
(0.347283 -0.0626628 0)
(0.351592 -0.059694 0)
(0.356485 -0.0564388 0)
(0.361941 -0.0528655 0)
(0.36793 -0.0489407 0)
(0.374419 -0.0446298 0)
(0.38137 -0.0398983 0)
(0.388741 -0.0347122 0)
(0.396481 -0.0290392 0)
(0.579495 -0.0620012 0)
(0.572898 -0.0620411 0)
(0.565941 -0.0622591 0)
(0.558667 -0.06262 0)
(0.551121 -0.0631188 0)
(0.543331 -0.0637402 0)
(0.535301 -0.0645128 0)
(0.527085 -0.0653918 0)
(0.518743 -0.066361 0)
(0.510302 -0.0674027 0)
(0.501794 -0.0685096 0)
(0.493241 -0.0696602 0)
(0.484674 -0.0708337 0)
(0.476132 -0.0720185 0)
(0.467634 -0.0731944 0)
(0.459208 -0.0743477 0)
(0.450877 -0.0754649 0)
(0.442664 -0.0765339 0)
(0.43459 -0.0775436 0)
(0.426677 -0.0784854 0)
(0.418944 -0.0793512 0)
(0.411412 -0.0801343 0)
(0.404099 -0.0808294 0)
(0.397028 -0.0814319 0)
(0.390217 -0.0819379 0)
(0.383688 -0.0823446 0)
(0.377464 -0.0826499 0)
(0.371569 -0.0828524 0)
(0.366025 -0.0829512 0)
(0.36086 -0.0829464 0)
(0.356098 -0.0828376 0)
(0.351768 -0.0826253 0)
(0.347895 -0.0823101 0)
(0.344509 -0.0818919 0)
(0.341636 -0.0813712 0)
(0.339302 -0.0807464 0)
(0.337532 -0.0800154 0)
(0.33635 -0.0791746 0)
(0.335776 -0.0782182 0)
(0.335828 -0.0771376 0)
(0.336519 -0.075922 0)
(0.337858 -0.0745591 0)
(0.339853 -0.07303 0)
(0.342505 -0.0713145 0)
(0.34581 -0.0693896 0)
(0.349761 -0.0672286 0)
(0.354347 -0.0648018 0)
(0.359549 -0.0620762 0)
(0.365347 -0.059017 0)
(0.371714 -0.055587 0)
(0.378617 -0.0517473 0)
(0.386019 -0.0474584 0)
(0.393875 -0.0426805 0)
(0.402137 -0.0373746 0)
(0.579641 -0.0542706 0)
(0.572898 -0.0540037 0)
(0.565783 -0.0539369 0)
(0.55835 -0.0540423 0)
(0.550654 -0.0543059 0)
(0.542703 -0.0547332 0)
(0.534523 -0.0553414 0)
(0.526189 -0.0560806 0)
(0.517745 -0.0569438 0)
(0.509215 -0.0579207 0)
(0.500628 -0.0589927 0)
(0.492021 -0.0601473 0)
(0.48342 -0.0613563 0)
(0.474857 -0.0626098 0)
(0.466355 -0.0638888 0)
(0.457939 -0.0651782 0)
(0.449632 -0.0664634 0)
(0.441456 -0.0677315 0)
(0.43343 -0.0689708 0)
(0.425573 -0.0701714 0)
(0.417905 -0.0713243 0)
(0.410445 -0.0724221 0)
(0.403211 -0.0734586 0)
(0.396221 -0.0744279 0)
(0.389497 -0.0753254 0)
(0.383059 -0.0761472 0)
(0.376927 -0.0768899 0)
(0.371124 -0.0775508 0)
(0.365675 -0.0781278 0)
(0.360603 -0.0786195 0)
(0.355936 -0.0790248 0)
(0.3517 -0.0793429 0)
(0.347922 -0.0795725 0)
(0.34463 -0.0797124 0)
(0.341853 -0.0797616 0)
(0.339618 -0.079717 0)
(0.337952 -0.0795755 0)
(0.336879 -0.0793315 0)
(0.336422 -0.078978 0)
(0.336603 -0.0785045 0)
(0.337436 -0.0779007 0)
(0.338933 -0.0771496 0)
(0.341106 -0.0762315 0)
(0.343958 -0.0751246 0)
(0.347489 -0.0738036 0)
(0.351695 -0.0722395 0)
(0.356567 -0.0703995 0)
(0.36209 -0.0682478 0)
(0.368245 -0.0657458 0)
(0.375009 -0.0628518 0)
(0.382351 -0.0595222 0)
(0.390234 -0.0557115 0)
(0.398615 -0.0513732 0)
(0.407442 -0.0464608 0)
(0.580128 -0.046523 0)
(0.573222 -0.0459337 0)
(0.565921 -0.0455732 0)
(0.558303 -0.0454095 0)
(0.550419 -0.0454306 0)
(0.54227 -0.0456712 0)
(0.533914 -0.0461057 0)
(0.525431 -0.0467092 0)
(0.516843 -0.0474678 0)
(0.508184 -0.0483809 0)
(0.499491 -0.0494212 0)
(0.490794 -0.0505751 0)
(0.482123 -0.0518222 0)
(0.473505 -0.0531455 0)
(0.464966 -0.0545272 0)
(0.456529 -0.0559509 0)
(0.448216 -0.0574012 0)
(0.440045 -0.0588647 0)
(0.432037 -0.0603294 0)
(0.424208 -0.0617844 0)
(0.416577 -0.0632202 0)
(0.409162 -0.0646287 0)
(0.40198 -0.0660027 0)
(0.395049 -0.067336 0)
(0.388388 -0.0686232 0)
(0.382017 -0.0698593 0)
(0.375956 -0.0710403 0)
(0.370227 -0.0721627 0)
(0.364853 -0.0732234 0)
(0.359858 -0.0742198 0)
(0.355268 -0.0751497 0)
(0.35111 -0.0760111 0)
(0.347412 -0.076802 0)
(0.344203 -0.0775201 0)
(0.34151 -0.0781627 0)
(0.339364 -0.0787255 0)
(0.337792 -0.0792038 0)
(0.33682 -0.0795904 0)
(0.336476 -0.0798764 0)
(0.33678 -0.0800498 0)
(0.337749 -0.0800988 0)
(0.339403 -0.0800028 0)
(0.341754 -0.0797414 0)
(0.344807 -0.0792904 0)
(0.348567 -0.0786215 0)
(0.353033 -0.0777028 0)
(0.358199 -0.0764984 0)
(0.364054 -0.0749691 0)
(0.370583 -0.0730721 0)
(0.377766 -0.0707614 0)
(0.385573 -0.0679872 0)
(0.393971 -0.0646975 0)
(0.402917 -0.0608381 0)
(0.41236 -0.0563537 0)
(0.580991 -0.0387406 0)
(0.573875 -0.0378102 0)
(0.56636 -0.0371418 0)
(0.55853 -0.0366899 0)
(0.550413 -0.0364736 0)
(0.542032 -0.0365169 0)
(0.533473 -0.0367763 0)
(0.5248 -0.0372411 0)
(0.516035 -0.0379052 0)
(0.507213 -0.0387509 0)
(0.498378 -0.0397624 0)
(0.489557 -0.0409213 0)
(0.480781 -0.0422073 0)
(0.472077 -0.043602 0)
(0.463469 -0.0450869 0)
(0.454979 -0.0466449 0)
(0.446627 -0.04826 0)
(0.438432 -0.049918 0)
(0.430412 -0.0516061 0)
(0.422584 -0.0533129 0)
(0.414963 -0.0550287 0)
(0.407567 -0.0567448 0)
(0.400411 -0.0584534 0)
(0.393514 -0.0601481 0)
(0.386893 -0.0618228 0)
(0.380566 -0.0634723 0)
(0.374553 -0.0650921 0)
(0.368875 -0.0666781 0)
(0.363555 -0.0682267 0)
(0.358616 -0.0697347 0)
(0.354085 -0.0711991 0)
(0.349987 -0.0726169 0)
(0.346351 -0.0739852 0)
(0.343207 -0.0753006 0)
(0.340584 -0.076559 0)
(0.338512 -0.0777552 0)
(0.33702 -0.078883 0)
(0.336139 -0.0799334 0)
(0.335896 -0.0808955 0)
(0.336314 -0.0817573 0)
(0.337414 -0.0825011 0)
(0.339219 -0.0831059 0)
(0.341743 -0.0835489 0)
(0.344997 -0.0838034 0)
(0.348987 -0.0838384 0)
(0.353718 -0.083618 0)
(0.359185 -0.0831029 0)
(0.365385 -0.0822503 0)
(0.372304 -0.0810127 0)
(0.379926 -0.0793383 0)
(0.388227 -0.0771718 0)
(0.397175 -0.0744539 0)
(0.406731 -0.0711212 0)
(0.416843 -0.0671086 0)
(0.582222 -0.0309043 0)
(0.57487 -0.0296059 0)
(0.567115 -0.0286033 0)
(0.559029 -0.0278531 0)
(0.550634 -0.0274053 0)
(0.541989 -0.0272358 0)
(0.533195 -0.0273211 0)
(0.524291 -0.0276487 0)
(0.515308 -0.0282208 0)
(0.506292 -0.0290041 0)
(0.497279 -0.0299917 0)
(0.488301 -0.0311607 0)
(0.479389 -0.0324902 0)
(0.470567 -0.03396 0)
(0.461859 -0.0355512 0)
(0.453286 -0.0372456 0)
(0.444867 -0.0390265 0)
(0.43662 -0.0408788 0)
(0.42856 -0.0427893 0)
(0.420704 -0.0447464 0)
(0.413067 -0.0467399 0)
(0.405663 -0.0487611 0)
(0.398509 -0.050802 0)
(0.39162 -0.0528558 0)
(0.385013 -0.0549165 0)
(0.378705 -0.0569787 0)
(0.372716 -0.0590375 0)
(0.367066 -0.0610887 0)
(0.361776 -0.0631286 0)
(0.356871 -0.0651536 0)
(0.352375 -0.0671604 0)
(0.348315 -0.0691455 0)
(0.344721 -0.0711054 0)
(0.341622 -0.0730356 0)
(0.339048 -0.0749314 0)
(0.337032 -0.0767863 0)
(0.335605 -0.0785926 0)
(0.334798 -0.0803397 0)
(0.33464 -0.0820148 0)
(0.335159 -0.0836047 0)
(0.33638 -0.0850873 0)
(0.338328 -0.0864404 0)
(0.341019 -0.0876386 0)
(0.344469 -0.0886513 0)
(0.348688 -0.0894445 0)
(0.353686 -0.0899792 0)
(0.359462 -0.0902123 0)
(0.366016 -0.0900958 0)
(0.373341 -0.0895777 0)
(0.381425 -0.0886007 0)
(0.390247 -0.0871031 0)
(0.399781 -0.0850171 0)
(0.409989 -0.0822696 0)
(0.420822 -0.078784 0)
(0.583854 -0.0229514 0)
(0.576231 -0.0212665 0)
(0.568193 -0.0199035 0)
(0.559792 -0.018867 0)
(0.551076 -0.0181735 0)
(0.542142 -0.0177847 0)
(0.533068 -0.0176979 0)
(0.523892 -0.0178982 0)
(0.514659 -0.0183773 0)
(0.505414 -0.0191097 0)
(0.496186 -0.0200795 0)
(0.487018 -0.0212664 0)
(0.477936 -0.0226464 0)
(0.468965 -0.0241981 0)
(0.460128 -0.0259008 0)
(0.451443 -0.0277353 0)
(0.442929 -0.0296845 0)
(0.434603 -0.0317328 0)
(0.426478 -0.0338667 0)
(0.418568 -0.0360742 0)
(0.410889 -0.0383449 0)
(0.403453 -0.0406697 0)
(0.396275 -0.0430412 0)
(0.389369 -0.0454522 0)
(0.38275 -0.047897 0)
(0.376437 -0.0503704 0)
(0.370446 -0.0528676 0)
(0.364798 -0.0553849 0)
(0.359514 -0.0579183 0)
(0.354616 -0.0604645 0)
(0.350131 -0.0630202 0)
(0.346084 -0.0655816 0)
(0.342506 -0.0681449 0)
(0.339427 -0.0707057 0)
(0.336879 -0.0732585 0)
(0.334895 -0.0757957 0)
(0.33351 -0.0783079 0)
(0.332756 -0.0807835 0)
(0.332665 -0.0832083 0)
(0.333267 -0.0855659 0)
(0.334595 -0.087832 0)
(0.336672 -0.0899823 0)
(0.339521 -0.0919879 0)
(0.34316 -0.0938153 0)
(0.347606 -0.0954257 0)
(0.352869 -0.0967763 0)
(0.358958 -0.0978205 0)
(0.365876 -0.0985054 0)
(0.373621 -0.0987741 0)
(0.382185 -0.098563 0)
(0.391555 -0.0978029 0)
(0.401707 -0.0964188 0)
(0.412604 -0.0943236 0)
(0.424196 -0.0914289 0)
(0.585892 -0.0148306 0)
(0.577962 -0.0127325 0)
(0.569583 -0.0110099 0)
(0.560812 -0.00969157 0)
(0.551751 -0.00873657 0)
(0.542481 -0.0081465 0)
(0.533082 -0.00788869 0)
(0.523598 -0.00797441 0)
(0.514072 -0.0083671 0)
(0.504559 -0.00905858 0)
(0.495086 -0.010017 0)
(0.485694 -0.0112244 0)
(0.476413 -0.0126565 0)
(0.467265 -0.0142935 0)
(0.458271 -0.016114 0)
(0.449448 -0.0180972 0)
(0.440814 -0.0202229 0)
(0.432383 -0.0224736 0)
(0.424167 -0.0248342 0)
(0.41618 -0.0272927 0)
(0.408434 -0.0298397 0)
(0.40094 -0.0324666 0)
(0.393713 -0.0351661 0)
(0.386765 -0.0379318 0)
(0.38011 -0.0407581 0)
(0.373765 -0.0436403 0)
(0.367747 -0.0465742 0)
(0.362073 -0.0495565 0)
(0.356766 -0.052584 0)
(0.351848 -0.0556538 0)
(0.347345 -0.0587631 0)
(0.343283 -0.0619084 0)
(0.339692 -0.065086 0)
(0.336604 -0.0682911 0)
(0.334052 -0.0715179 0)
(0.332073 -0.0747584 0)
(0.330701 -0.0780027 0)
(0.329975 -0.0812372 0)
(0.329925 -0.0844475 0)
(0.33059 -0.087612 0)
(0.332003 -0.0907068 0)
(0.334193 -0.0937041 0)
(0.337184 -0.0965708 0)
(0.341002 -0.0992695 0)
(0.345666 -0.101759 0)
(0.351194 -0.103992 0)
(0.357597 -0.105916 0)
(0.364885 -0.107474 0)
(0.373062 -0.108604 0)
(0.382125 -0.109234 0)
(0.392062 -0.109288 0)
(0.402849 -0.108677 0)
(0.414449 -0.107306 0)
(0.426796 -0.105065 0)
(0.588375 -0.00653069 0)
(0.580077 -0.00399117 0)
(0.571286 -0.00192051 0)
(0.562107 -0.000277613 0)
(0.552646 0.000944852 0)
(0.542999 0.00176012 0)
(0.533232 0.00217521 0)
(0.52339 0.00220748 0)
(0.513536 0.00188095 0)
(0.503715 0.00121195 0)
(0.493965 0.000233004 0)
(0.484322 -0.00102813 0)
(0.474812 -0.00254603 0)
(0.465456 -0.00429041 0)
(0.456275 -0.00623202 0)
(0.447287 -0.00835319 0)
(0.438509 -0.0106423 0)
(0.429953 -0.0130865 0)
(0.421627 -0.0156727 0)
(0.41354 -0.0183863 0)
(0.405704 -0.0212139 0)
(0.39813 -0.0241446 0)
(0.390828 -0.0271715 0)
(0.383813 -0.0302895 0)
(0.377096 -0.0334941 0)
(0.370692 -0.0367818 0)
(0.364618 -0.0401499 0)
(0.358891 -0.0435953 0)
(0.353532 -0.0471154 0)
(0.348563 -0.050708 0)
(0.34401 -0.0543714 0)
(0.3399 -0.0581032 0)
(0.336263 -0.0619006 0)
(0.333133 -0.0657598 0)
(0.330545 -0.0696749 0)
(0.328537 -0.0736385 0)
(0.327147 -0.07764 0)
(0.326416 -0.0816647 0)
(0.326379 -0.0856965 0)
(0.327078 -0.0897107 0)
(0.328551 -0.0936802 0)
(0.33083 -0.0975738 0)
(0.333945 -0.101355 0)
(0.337925 -0.104985 0)
(0.342796 -0.108419 0)
(0.348581 -0.111604 0)
(0.355297 -0.114482 0)
(0.362959 -0.11699 0)
(0.371576 -0.119061 0)
(0.381145 -0.120611 0)
(0.391654 -0.121556 0)
(0.403063 -0.121782 0)
(0.415314 -0.121189 0)
(0.428317 -0.119633 0)
(0.591325 0.00207214 0)
(0.582581 0.00508283 0)
(0.57332 0.00754323 0)
(0.563682 0.00951719 0)
(0.553778 0.0109823 0)
(0.543686 0.0120105 0)
(0.533493 0.0125632 0)
(0.523264 0.0126963 0)
(0.513037 0.012424 0)
(0.502873 0.0117775 0)
(0.492809 0.0107836 0)
(0.482876 0.00947343 0)
(0.473103 0.00787047 0)
(0.463514 0.00600124 0)
(0.454128 0.00388823 0)
(0.444961 0.00155929 0)
(0.43602 -0.000954116 0)
(0.427312 -0.00362592 0)
(0.418844 -0.00643374 0)
(0.410632 -0.00937939 0)
(0.402685 -0.0124677 0)
(0.395012 -0.015694 0)
(0.387617 -0.0190476 0)
(0.380512 -0.0225173 0)
(0.373708 -0.0260978 0)
(0.367219 -0.029787 0)
(0.361061 -0.0335831 0)
(0.355253 -0.037485 0)
(0.349812 -0.0414919 0)
(0.344762 -0.045603 0)
(0.340126 -0.0498174 0)
(0.335933 -0.0541346 0)
(0.332213 -0.0585533 0)
(0.329003 -0.0630712 0)
(0.326339 -0.0676841 0)
(0.324261 -0.0723848 0)
(0.322815 -0.0771631 0)
(0.322039 -0.0820037 0)
(0.321978 -0.0868889 0)
(0.322679 -0.0917944 0)
(0.324183 -0.0966884 0)
(0.326525 -0.101537 0)
(0.329739 -0.106298 0)
(0.333859 -0.110927 0)
(0.33892 -0.115371 0)
(0.34495 -0.119581 0)
(0.351974 -0.12349 0)
(0.360007 -0.127031 0)
(0.369063 -0.130123 0)
(0.37913 -0.13267 0)
(0.390176 -0.134567 0)
(0.402118 -0.135658 0)
(0.414845 -0.135845 0)
(0.428212 -0.134893 0)
(0.594743 0.0110381 0)
(0.585474 0.0144813 0)
(0.575684 0.0173272 0)
(0.565505 0.0196082 0)
(0.555094 0.0213281 0)
(0.544524 0.0225312 0)
(0.533852 0.0232257 0)
(0.523178 0.0234298 0)
(0.51254 0.0231873 0)
(0.501996 0.0225265 0)
(0.491586 0.021484 0)
(0.481344 0.0200917 0)
(0.471294 0.0183884 0)
(0.461455 0.0164 0)
(0.451841 0.014157 0)
(0.442463 0.0116804 0)
(0.43333 0.00898804 0)
(0.424451 0.00609299 0)
(0.415837 0.00300186 0)
(0.407491 -0.000259589 0)
(0.399414 -0.00365711 0)
(0.391606 -0.00717071 0)
(0.384088 -0.0108225 0)
(0.376869 -0.0146253 0)
(0.369956 -0.0185749 0)
(0.363359 -0.0226608 0)
(0.357092 -0.0268784 0)
(0.351172 -0.0312285 0)
(0.345617 -0.035713 0)
(0.34045 -0.0403343 0)
(0.335695 -0.0450935 0)
(0.33138 -0.0499922 0)
(0.327538 -0.0550311 0)
(0.324205 -0.0602096 0)
(0.321421 -0.0655257 0)
(0.31923 -0.0709733 0)
(0.317681 -0.0765438 0)
(0.316817 -0.0822212 0)
(0.316686 -0.087988 0)
(0.317343 -0.0938178 0)
(0.318833 -0.0996785 0)
(0.3212 -0.105532 0)
(0.324486 -0.111334 0)
(0.32873 -0.117033 0)
(0.333961 -0.122571 0)
(0.340218 -0.127882 0)
(0.347535 -0.132907 0)
(0.355931 -0.137564 0)
(0.365409 -0.141755 0)
(0.375922 -0.145343 0)
(0.387402 -0.148207 0)
(0.399633 -0.150066 0)
(0.412454 -0.150951 0)
(0.425559 -0.150255 0)
(0.598644 0.0203782 0)
(0.588767 0.0242995 0)
(0.578375 0.027554 0)
(0.567607 0.0301373 0)
(0.556621 0.0321352 0)
(0.545499 0.033496 0)
(0.534302 0.0342967 0)
(0.523134 0.0345505 0)
(0.512044 0.0343052 0)
(0.501085 0.0335993 0)
(0.490299 0.0324742 0)
(0.479715 0.0309701 0)
(0.469357 0.0291202 0)
(0.459238 0.026974 0)
(0.449373 0.0245417 0)
(0.439769 0.0218673 0)
(0.430436 0.018967 0)
(0.421373 0.0158657 0)
(0.41258 0.012574 0)
(0.404062 0.00909235 0)
(0.395826 0.00542803 0)
(0.387884 0.00156653 0)
(0.380236 -0.00245532 0)
(0.372876 -0.0065975 0)
(0.365825 -0.0108865 0)
(0.359099 -0.0153498 0)
(0.352703 -0.0199856 0)
(0.346647 -0.0247851 0)
(0.340947 -0.0297459 0)
(0.335627 -0.0348711 0)
(0.330712 -0.0401667 0)
(0.326233 -0.0456385 0)
(0.322223 -0.0512913 0)
(0.318721 -0.0571286 0)
(0.31577 -0.0631507 0)
(0.313417 -0.0693548 0)
(0.311715 -0.0757333 0)
(0.310714 -0.0822715 0)
(0.310465 -0.0889493 0)
(0.311031 -0.0957407 0)
(0.312464 -0.102609 0)
(0.314813 -0.109516 0)
(0.318122 -0.11641 0)
(0.322443 -0.123244 0)
(0.327823 -0.129951 0)
(0.334294 -0.136461 0)
(0.341886 -0.14269 0)
(0.350617 -0.14854 0)
(0.360472 -0.153882 0)
(0.3713 -0.15849 0)
(0.382977 -0.162233 0)
(0.394962 -0.164521 0)
(0.407221 -0.165811 0)
(0.418932 -0.164732 0)
(0.603011 0.0302342 0)
(0.592454 0.0346596 0)
(0.581371 0.0383205 0)
(0.56995 0.0412111 0)
(0.558323 0.0434342 0)
(0.546563 0.0449272 0)
(0.534791 0.0458066 0)
(0.52308 0.0460783 0)
(0.511493 0.0457974 0)
(0.500082 0.0450174 0)
(0.488888 0.0437808 0)
(0.477935 0.0421366 0)
(0.467254 0.0401215 0)
(0.456845 0.0377822 0)
(0.446713 0.0351465 0)
(0.436879 0.0322498 0)
(0.42733 0.0291125 0)
(0.418073 0.0257557 0)
(0.409095 0.0221924 0)
(0.400411 0.0184366 0)
(0.392018 0.0144954 0)
(0.383906 0.0103717 0)
(0.376085 0.00605745 0)
(0.368574 0.00152684 0)
(0.361371 -0.00317925 0)
(0.35446 -0.00800478 0)
(0.347881 -0.0130002 0)
(0.341652 -0.0181983 0)
(0.33578 -0.023602 0)
(0.330279 -0.0292104 0)
(0.325173 -0.0350273 0)
(0.320491 -0.0410602 0)
(0.31627 -0.0473172 0)
(0.312551 -0.0538056 0)
(0.309379 -0.06053 0)
(0.306807 -0.067491 0)
(0.304895 -0.0746839 0)
(0.303696 -0.082097 0)
(0.30327 -0.0897087 0)
(0.303688 -0.0974942 0)
(0.30501 -0.105416 0)
(0.307289 -0.113429 0)
(0.31058 -0.121481 0)
(0.314937 -0.129513 0)
(0.320415 -0.137461 0)
(0.327064 -0.145252 0)
(0.334912 -0.152777 0)
(0.343926 -0.159872 0)
(0.354043 -0.166347 0)
(0.364881 -0.171787 0)
(0.376332 -0.176185 0)
(0.38715 -0.178311 0)
(0.397736 -0.17936 0)
(0.406538 -0.177414 0)
(0.607723 0.0406766 0)
(0.596416 0.0456508 0)
(0.584579 0.0496975 0)
(0.572429 0.0529216 0)
(0.560079 0.05531 0)
(0.547644 0.0569342 0)
(0.535249 0.0578385 0)
(0.522941 0.0580788 0)
(0.510821 0.0577131 0)
(0.49893 0.0568062 0)
(0.487306 0.0554085 0)
(0.475973 0.0535765 0)
(0.464949 0.0513644 0)
(0.45424 0.0488017 0)
(0.443846 0.045949 0)
(0.433767 0.0428163 0)
(0.423997 0.039442 0)
(0.414531 0.0358352 0)
(0.405362 0.0320146 0)
(0.39649 0.0279939 0)
(0.387912 0.0237674 0)
(0.379629 0.0193468 0)
(0.371641 0.0147382 0)
(0.363947 0.00993864 0)
(0.356551 0.00492287 0)
(0.349486 -0.00035643 0)
(0.342725 -0.00581592 0)
(0.336273 -0.0114338 0)
(0.330174 -0.0172651 0)
(0.324447 -0.0233318 0)
(0.319107 -0.0296441 0)
(0.314179 -0.0362129 0)
(0.309697 -0.0430515 0)
(0.305704 -0.0501729 0)
(0.302251 -0.0575879 0)
(0.299395 -0.0653023 0)
(0.297203 -0.0733152 0)
(0.295739 -0.0816181 0)
(0.295068 -0.0901885 0)
(0.295269 -0.0990004 0)
(0.296413 -0.108018 0)
(0.298562 -0.117189 0)
(0.301776 -0.12646 0)
(0.306119 -0.135768 0)
(0.311653 -0.145044 0)
(0.318428 -0.154188 0)
(0.326475 -0.163068 0)
(0.335662 -0.171398 0)
(0.345815 -0.178903 0)
(0.356015 -0.184686 0)
(0.366389 -0.189157 0)
(0.374721 -0.190297 0)
(0.381766 -0.190165 0)
(0.386244 -0.187441 0)
(0.612432 0.0518314 0)
(0.600347 0.057341 0)
(0.587722 0.0617656 0)
(0.574797 0.0652828 0)
(0.561698 0.0678117 0)
(0.548563 0.0695242 0)
(0.535499 0.0704017 0)
(0.522596 0.0705569 0)
(0.509933 0.0700553 0)
(0.497552 0.0689671 0)
(0.485488 0.0673621 0)
(0.47377 0.0652966 0)
(0.462401 0.0628395 0)
(0.451386 0.0600242 0)
(0.440718 0.056913 0)
(0.43039 0.0535186 0)
(0.420395 0.0498758 0)
(0.410718 0.0460027 0)
(0.401352 0.0419045 0)
(0.392286 0.0376042 0)
(0.383518 0.0330841 0)
(0.375049 0.02836 0)
(0.366874 0.0234293 0)
(0.358993 0.0182905 0)
(0.351411 0.0129507 0)
(0.344123 0.00741582 0)
(0.337154 0.00162278 0)
(0.330521 -0.00444827 0)
(0.324176 -0.0107097 0)
(0.318175 -0.0172158 0)
(0.312546 -0.0239964 0)
(0.307315 -0.0310737 0)
(0.302514 -0.038468 0)
(0.298187 -0.0461994 0)
(0.294386 -0.0542864 0)
(0.291177 -0.0627419 0)
(0.288631 -0.071571 0)
(0.286825 -0.0807693 0)
(0.285832 -0.0903149 0)
(0.285737 -0.100181 0)
(0.286627 -0.110331 0)
(0.28857 -0.120711 0)
(0.291636 -0.131261 0)
(0.295896 -0.14192 0)
(0.301427 -0.152604 0)
(0.30827 -0.163185 0)
(0.316408 -0.17344 0)
(0.325454 -0.182855 0)
(0.33522 -0.190998 0)
(0.343767 -0.196388 0)
(0.351649 -0.199932 0)
(0.355727 -0.198984 0)
(0.356739 -0.194894 0)
(0.359054 -0.191698 0)
(0.616212 0.0636939 0)
(0.603417 0.069691 0)
(0.590099 0.0745935 0)
(0.576476 0.0783089 0)
(0.562697 0.0810142 0)
(0.548924 0.0827241 0)
(0.535237 0.0835417 0)
(0.521772 0.0835569 0)
(0.508594 0.0828633 0)
(0.495753 0.081534 0)
(0.483278 0.0796696 0)
(0.471196 0.0773243 0)
(0.459508 0.0745775 0)
(0.448212 0.0714768 0)
(0.437296 0.0680745 0)
(0.42673 0.0643998 0)
(0.416522 0.0604793 0)
(0.406635 0.0563296 0)
(0.397073 0.0519595 0)
(0.38781 0.047376 0)
(0.37884 0.0425752 0)
(0.370172 0.0375584 0)
(0.361789 0.0323232 0)
(0.353695 0.0268668 0)
(0.345896 0.0211868 0)
(0.338393 0.0152785 0)
(0.331186 0.00914825 0)
(0.324273 0.00278538 0)
(0.317718 -0.00390709 0)
(0.31144 -0.010833 0)
(0.305494 -0.0180504 0)
(0.299916 -0.025598 0)
(0.294742 -0.0335098 0)
(0.290016 -0.0418176 0)
(0.285798 -0.0505493 0)
(0.282155 -0.0597275 0)
(0.279171 -0.069364 0)
(0.276932 -0.0794602 0)
(0.275525 -0.0899953 0)
(0.275043 -0.100942 0)
(0.275585 -0.112261 0)
(0.277234 -0.123899 0)
(0.280067 -0.135792 0)
(0.284164 -0.147869 0)
(0.289611 -0.160042 0)
(0.2964 -0.172109 0)
(0.304416 -0.183634 0)
(0.312795 -0.193754 0)
(0.321246 -0.201631 0)
(0.326504 -0.205885 0)
(0.330137 -0.206175 0)
(0.330098 -0.205582 0)
(0.323946 -0.195391 0)
(0.321062 -0.192451 0)
(0.617269 0.076064 0)
(0.604086 0.0826636 0)
(0.590361 0.0879305 0)
(0.576283 0.0919135 0)
(0.562092 0.0947229 0)
(0.547855 0.0964233 0)
(0.533763 0.0971439 0)
(0.519908 0.0969819 0)
(0.506361 0.0960463 0)
(0.493184 0.0944388 0)
(0.480408 0.0922602 0)
(0.468047 0.089598 0)
(0.456114 0.0865208 0)
(0.444592 0.0831021 0)
(0.433465 0.0793786 0)
(0.422709 0.0754018 0)
(0.412308 0.0711856 0)
(0.402237 0.0667501 0)
(0.392483 0.0620942 0)
(0.383027 0.0572303 0)
(0.373858 0.0521477 0)
(0.364981 0.0468354 0)
(0.356389 0.0413099 0)
(0.34808 0.0355525 0)
(0.340057 0.0295613 0)
(0.33232 0.0233328 0)
(0.324867 0.0168601 0)
(0.317699 0.0101352 0)
(0.3108 0.00316544 0)
(0.304253 -0.00416228 0)
(0.297977 -0.0117857 0)
(0.292019 -0.0197636 0)
(0.286418 -0.0281448 0)
(0.281226 -0.0369803 0)
(0.276507 -0.0463143 0)
(0.272338 -0.0561826 0)
(0.268813 -0.0666068 0)
(0.266035 -0.0775943 0)
(0.264103 -0.0891291 0)
(0.263122 -0.101178 0)
(0.263207 -0.113701 0)
(0.264456 -0.126644 0)
(0.26696 -0.13994 0)
(0.270801 -0.153516 0)
(0.276047 -0.167227 0)
(0.282595 -0.18066 0)
(0.29 -0.193031 0)
(0.296797 -0.203104 0)
(0.302064 -0.208861 0)
(0.3029 -0.212063 0)
(0.297836 -0.206274 0)
(0.294556 -0.202098 0)
(0.288489 -0.199287 0)
(0.283395 -0.193512 0)
(0.612171 0.0883279 0)
(0.599438 0.095647 0)
(0.586014 0.101383 0)
(0.572191 0.105706 0)
(0.558122 0.10865 0)
(0.543995 0.110374 0)
(0.529929 0.110987 0)
(0.516057 0.110631 0)
(0.50247 0.109434 0)
(0.489233 0.107522 0)
(0.476385 0.105011 0)
(0.463946 0.101999 0)
(0.451922 0.0985789 0)
(0.440304 0.094822 0)
(0.429076 0.0907749 0)
(0.418206 0.0864857 0)
(0.40768 0.0819712 0)
(0.397462 0.0772505 0)
(0.387551 0.0723129 0)
(0.377927 0.0671739 0)
(0.368557 0.0618049 0)
(0.359484 0.0562281 0)
(0.350685 0.0504023 0)
(0.342144 0.0443568 0)
(0.333884 0.0380671 0)
(0.325901 0.0315342 0)
(0.318192 0.0247535 0)
(0.310753 0.0177154 0)
(0.303578 0.010403 0)
(0.296645 0.00280901 0)
(0.290027 -0.00517311 0)
(0.283651 -0.0135191 0)
(0.277569 -0.0223087 0)
(0.271832 -0.0316115 0)
(0.266515 -0.0414925 0)
(0.261707 -0.0520067 0)
(0.257519 -0.0631891 0)
(0.254072 -0.0750541 0)
(0.251486 -0.0875919 0)
(0.249878 -0.100762 0)
(0.249378 -0.114524 0)
(0.250109 -0.128824 0)
(0.252172 -0.143594 0)
(0.255659 -0.158738 0)
(0.260613 -0.173948 0)
(0.266559 -0.188369 0)
(0.272324 -0.20076 0)
(0.276412 -0.208684 0)
(0.274877 -0.212332 0)
(0.270936 -0.209339 0)
(0.264259 -0.206391 0)
(0.254627 -0.199996 0)
(0.251096 -0.198063 0)
(0.253154 -0.192949 0)
(0.596771 0.0996488 0)
(0.585768 0.107742 0)
(0.573888 0.114097 0)
(0.561365 0.11883 0)
(0.548436 0.12207 0)
(0.535241 0.123914 0)
(0.521977 0.124518 0)
(0.508777 0.124037 0)
(0.495734 0.122639 0)
(0.482944 0.120475 0)
(0.470445 0.117635 0)
(0.458278 0.114332 0)
(0.446464 0.110567 0)
(0.434985 0.106507 0)
(0.423837 0.102145 0)
(0.413 0.0975765 0)
(0.402459 0.0927698 0)
(0.392183 0.087779 0)
(0.382174 0.0825826 0)
(0.372409 0.0771729 0)
(0.362895 0.0715329 0)
(0.353626 0.0656938 0)
(0.344614 0.0595949 0)
(0.335869 0.0532605 0)
(0.327369 0.0466838 0)
(0.319136 0.0398653 0)
(0.311162 0.0328018 0)
(0.303436 0.0254865 0)
(0.295948 0.0179032 0)
(0.28868 0.0100228 0)
(0.281604 0.00181648 0)
(0.274785 -0.00683409 0)
(0.26816 -0.015949 0)
(0.261797 -0.0256354 0)
(0.255775 -0.0359857 0)
(0.2502 -0.0470816 0)
(0.245202 -0.058978 0)
(0.240929 -0.0716996 0)
(0.23753 -0.0852398 0)
(0.235144 -0.0995548 0)
(0.233918 -0.114598 0)
(0.234004 -0.130316 0)
(0.235528 -0.146648 0)
(0.238593 -0.163392 0)
(0.243066 -0.179877 0)
(0.24761 -0.194552 0)
(0.250647 -0.205182 0)
(0.248082 -0.210103 0)
(0.240554 -0.208475 0)
(0.230348 -0.205352 0)
(0.222737 -0.202235 0)
(0.221154 -0.200105 0)
(0.221431 -0.197683 0)
(0.225063 -0.197386 0)
(0.566806 0.107866 0)
(0.559218 0.117106 0)
(0.550568 0.124575 0)
(0.540953 0.130115 0)
(0.530512 0.133879 0)
(0.519477 0.136053 0)
(0.508057 0.136836 0)
(0.496443 0.136417 0)
(0.484773 0.134979 0)
(0.473092 0.132686 0)
(0.461572 0.1297 0)
(0.450201 0.12616 0)
(0.439017 0.122194 0)
(0.428053 0.117851 0)
(0.417292 0.113286 0)
(0.406725 0.10846 0)
(0.396348 0.103453 0)
(0.386171 0.0982166 0)
(0.376168 0.0928131 0)
(0.366342 0.0871578 0)
(0.356724 0.0813093 0)
(0.347319 0.0751876 0)
(0.338109 0.0688569 0)
(0.329142 0.0622546 0)
(0.320417 0.0554095 0)
(0.311937 0.0483264 0)
(0.303692 0.0410082 0)
(0.29567 0.033453 0)
(0.28785 0.0256501 0)
(0.280204 0.0175709 0)
(0.272699 0.0091661 0)
(0.265308 0.000364594 0)
(0.258084 -0.00897655 0)
(0.250989 -0.0189352 0)
(0.244128 -0.0296571 0)
(0.237623 -0.0412557 0)
(0.231638 -0.05381 0)
(0.226354 -0.0673595 0)
(0.221962 -0.0819025 0)
(0.218636 -0.0973968 0)
(0.216553 -0.113785 0)
(0.215895 -0.131017 0)
(0.216838 -0.149003 0)
(0.219422 -0.167292 0)
(0.222904 -0.184443 0)
(0.224731 -0.197957 0)
(0.221377 -0.205035 0)
(0.211381 -0.205506 0)
(0.198248 -0.20157 0)
(0.19039 -0.199022 0)
(0.188449 -0.197226 0)
(0.189002 -0.199287 0)
(0.194042 -0.203014 0)
(0.201787 -0.20664 0)
(0.523908 0.112131 0)
(0.520489 0.122314 0)
(0.516103 0.131216 0)
(0.510168 0.137959 0)
(0.503209 0.142772 0)
(0.495363 0.145706 0)
(0.486836 0.147004 0)
(0.477782 0.146935 0)
(0.468325 0.145698 0)
(0.458608 0.143513 0)
(0.448725 0.140563 0)
(0.438764 0.136969 0)
(0.428742 0.132952 0)
(0.418754 0.128533 0)
(0.408786 0.12385 0)
(0.398823 0.118924 0)
(0.388896 0.113784 0)
(0.37902 0.108431 0)
(0.369205 0.102852 0)
(0.359462 0.0970511 0)
(0.349828 0.0910053 0)
(0.340329 0.0847057 0)
(0.330995 0.0781241 0)
(0.32182 0.0713054 0)
(0.312857 0.0642234 0)
(0.304108 0.0569065 0)
(0.295564 0.0493666 0)
(0.287209 0.0416155 0)
(0.279014 0.0336519 0)
(0.270935 0.0254533 0)
(0.262923 0.0169629 0)
(0.254923 0.00808975 0)
(0.246931 -0.00130469 0)
(0.238995 -0.0114061 0)
(0.231134 -0.02236 0)
(0.223521 -0.0343554 0)
(0.216357 -0.0474985 0)
(0.209878 -0.061849 0)
(0.20433 -0.0774128 0)
(0.199946 -0.0941527 0)
(0.196942 -0.111997 0)
(0.195535 -0.13088 0)
(0.195943 -0.150584 0)
(0.197871 -0.170034 0)
(0.199051 -0.186516 0)
(0.195007 -0.196792 0)
(0.182573 -0.198678 0)
(0.167707 -0.195284 0)
(0.158587 -0.192992 0)
(0.155445 -0.192649 0)
(0.157012 -0.198014 0)
(0.162794 -0.204707 0)
(0.170931 -0.211715 0)
(0.180753 -0.217882 0)
(0.476965 0.112874 0)
(0.474223 0.122405 0)
(0.473452 0.134616 0)
(0.471179 0.142435 0)
(0.467885 0.147897 0)
(0.463508 0.151739 0)
(0.458319 0.153938 0)
(0.452394 0.154608 0)
(0.445817 0.153945 0)
(0.438659 0.152171 0)
(0.431049 0.149517 0)
(0.423105 0.146177 0)
(0.414845 0.1423 0)
(0.406314 0.138054 0)
(0.39758 0.133461 0)
(0.388615 0.128605 0)
(0.379472 0.123511 0)
(0.370183 0.118161 0)
(0.360781 0.112565 0)
(0.351304 0.106697 0)
(0.341803 0.100568 0)
(0.332302 0.0941474 0)
(0.322856 0.087411 0)
(0.313517 0.0804151 0)
(0.304277 0.0731273 0)
(0.295194 0.0656338 0)
(0.286261 0.057924 0)
(0.277472 0.0500355 0)
(0.268796 0.0419825 0)
(0.260176 0.0337596 0)
(0.251539 0.0253092 0)
(0.242813 0.0165144 0)
(0.23393 0.00720648 0)
(0.224954 -0.00286218 0)
(0.21596 -0.0139346 0)
(0.207073 -0.0262081 0)
(0.198589 -0.039876 0)
(0.190801 -0.0550301 0)
(0.184029 -0.0716801 0)
(0.178588 -0.0897877 0)
(0.174736 -0.109276 0)
(0.172754 -0.129974 0)
(0.172778 -0.151287 0)
(0.173279 -0.170856 0)
(0.169115 -0.184452 0)
(0.155433 -0.18885 0)
(0.137855 -0.185988 0)
(0.12696 -0.18334 0)
(0.123095 -0.185631 0)
(0.124724 -0.193511 0)
(0.130493 -0.203644 0)
(0.138866 -0.214239 0)
(0.148779 -0.223604 0)
(0.15976 -0.231192 0)
(0.4281 0.112582 0)
(0.428401 0.123566 0)
(0.429555 0.133497 0)
(0.426375 0.144105 0)
(0.425808 0.149747 0)
(0.425192 0.15447 0)
(0.423547 0.157585 0)
(0.420934 0.159161 0)
(0.417444 0.159297 0)
(0.413208 0.15819 0)
(0.408305 0.156122 0)
(0.402785 0.153269 0)
(0.396715 0.149825 0)
(0.390135 0.145941 0)
(0.383029 0.141697 0)
(0.37547 0.137118 0)
(0.36746 0.132296 0)
(0.359063 0.127147 0)
(0.350333 0.121699 0)
(0.341324 0.115926 0)
(0.332084 0.109847 0)
(0.322637 0.103412 0)
(0.313106 0.0966542 0)
(0.303495 0.0895943 0)
(0.293889 0.0822373 0)
(0.284329 0.0746167 0)
(0.274799 0.0668095 0)
(0.265362 0.0588461 0)
(0.256003 0.0507631 0)
(0.246673 0.0425968 0)
(0.237274 0.0342974 0)
(0.227696 0.0257373 0)
(0.217846 0.0166835 0)
(0.207682 0.00683607 0)
(0.197427 -0.00419313 0)
(0.187245 -0.0166841 0)
(0.177406 -0.0308638 0)
(0.168341 -0.0468824 0)
(0.160469 -0.0647635 0)
(0.154179 -0.0844517 0)
(0.149785 -0.105853 0)
(0.147622 -0.128477 0)
(0.147124 -0.150742 0)
(0.143554 -0.168401 0)
(0.129573 -0.175683 0)
(0.108879 -0.17353 0)
(0.0959427 -0.170835 0)
(0.0910375 -0.174934 0)
(0.0921709 -0.185683 0)
(0.0976397 -0.199406 0)
(0.105701 -0.213164 0)
(0.115175 -0.225539 0)
(0.125575 -0.236073 0)
(0.137032 -0.244784 0)
(0.379978 0.115109 0)
(0.379095 0.125881 0)
(0.38182 0.132928 0)
(0.381267 0.142104 0)
(0.37991 0.14841 0)
(0.382222 0.154627 0)
(0.383576 0.158336 0)
(0.384151 0.160698 0)
(0.38379 0.161662 0)
(0.382575 0.1614 0)
(0.380555 0.160058 0)
(0.377758 0.1579 0)
(0.374206 0.15511 0)
(0.369884 0.151844 0)
(0.36479 0.148167 0)
(0.35897 0.144168 0)
(0.352419 0.139793 0)
(0.345153 0.135097 0)