/*--------------------------------*- C++ -*----------------------------------*\
  =========                 |
  \\      /  F ield         | OpenFOAM: The Open Source CFD Toolbox
   \\    /   O peration     | Website:  https://openfoam.org
    \\  /    A nd           | Version:  10
     \\/     M anipulation  |
\*---------------------------------------------------------------------------*/
FoamFile
{
    format      ascii;
    class       volScalarField;
    location    "0.34949";
    object      p;
}
// * * * * * * * * * * * * * * * * * * * * * * * * * * * * * * * * * * * * * //

dimensions      [1 -1 -2 0 0 0 0];

internalField   nonuniform List<scalar> 
16320
(
0.49635
0.495096
0.494446
0.49384
0.493762
0.493547
0.492975
0.492038
0.490963
0.489604
0.488565
0.488536
0.48956
0.492134
0.497355
0.506539
0.522683
0.547961
0.582488
0.621467
0.657503
0.683671
0.698854
0.706067
0.705009
0.703562
0.699741
0.693986
0.690505
0.692912
0.697396
0.705885
0.722312
0.506547
0.506415
0.506905
0.506499
0.50648
0.505902
0.50464
0.502856
0.500878
0.498716
0.49666
0.495061
0.495294
0.497303
0.502031
0.511111
0.527687
0.555159
0.59322
0.634714
0.670177
0.692763
0.704304
0.705837
0.705048
0.701781
0.69571
0.688882
0.686629
0.686103
0.688601
0.695758
0.710509
0.519584
0.520532
0.521553
0.521416
0.521479
0.520597
0.51872
0.516248
0.513346
0.510248
0.507369
0.505363
0.50544
0.507172
0.511718
0.521275
0.539786
0.570437
0.61185
0.652874
0.683643
0.700869
0.707119
0.707115
0.704986
0.699948
0.692935
0.685582
0.68386
0.682621
0.685533
0.693426
0.70861
0.535541
0.537192
0.537774
0.537602
0.537677
0.536549
0.534086
0.530759
0.526972
0.523009
0.519449
0.51717
0.517548
0.519936
0.525767
0.537474
0.558913
0.592803
0.632785
0.668936
0.69308
0.704564
0.707423
0.70605
0.702271
0.696574
0.690512
0.683845
0.681779
0.683886
0.690719
0.703366
0.723138
0.553058
0.555163
0.556027
0.554776
0.554311
0.552478
0.549195
0.544996
0.540282
0.535532
0.531463
0.529349
0.530303
0.533494
0.540679
0.554627
0.579101
0.612836
0.648032
0.676631
0.693967
0.701783
0.702492
0.700768
0.697168
0.691779
0.686193
0.683798
0.686735
0.695429
0.711907
0.735644
0.766366
0.573149
0.57344
0.573805
0.571622
0.569281
0.566706
0.562667
0.557595
0.552022
0.546717
0.542492
0.54108
0.54265
0.546827
0.555487
0.571985
0.597242
0.626987
0.65477
0.675192
0.687604
0.69247
0.692485
0.691103
0.687918
0.685077
0.685458
0.690382
0.703899
0.728699
0.762694
0.802433
0.846574
0.590881
0.592477
0.589786
0.587155
0.582561
0.579202
0.574342
0.568266
0.561867
0.556115
0.552097
0.551677
0.553807
0.559059
0.569347
0.587018
0.609818
0.632919
0.652259
0.666597
0.674282
0.67725
0.677426
0.67751
0.678417
0.682309
0.692496
0.71402
0.750734
0.799056
0.852313
0.902708
0.946254
0.60474
0.605888
0.605178
0.600217
0.594311
0.589573
0.583893
0.576866
0.569634
0.563758
0.560404
0.56078
0.563496
0.569609
0.580845
0.597272
0.614854
0.630364
0.642916
0.651083
0.655493
0.657766
0.659816
0.663911
0.672542
0.690048
0.722779
0.774336
0.839577
0.906949
0.961746
0.998843
1.01946
0.614575
0.615173
0.613641
0.609867
0.603236
0.598127
0.591184
0.583245
0.575656
0.56996
0.567456
0.568425
0.571466
0.577854
0.588412
0.600712
0.612159
0.621118
0.627187
0.63089
0.634066
0.638026
0.645289
0.659579
0.685872
0.731835
0.79759
0.878715
0.956228
1.00972
1.035
1.04363
1.04187
0.620686
0.620287
0.6182
0.614847
0.610212
0.603277
0.595142
0.58681
0.579433
0.574536
0.573114
0.574306
0.577573
0.583635
0.591562
0.598962
0.60478
0.608123
0.610319
0.612786
0.617597
0.627759
0.647837
0.68373
0.741842
0.821906
0.910963
0.989531
1.0344
1.0532
1.05616
1.05286
1.04424
0.624913
0.623989
0.62181
0.61782
0.612014
0.604621
0.596151
0.587851
0.581034
0.576859
0.576035
0.577129
0.580114
0.584762
0.589246
0.592415
0.593759
0.594437
0.596379
0.601943
0.614865
0.640404
0.684798
0.754828
0.841554
0.929909
0.994171
1.03304
1.05186
1.05801
1.05664
1.04784
1.03845
0.628144
0.626984
0.623922
0.61874
0.611986
0.603876
0.595024
0.58688
0.580732
0.577593
0.577586
0.578678
0.581149
0.583717
0.585122
0.585053
0.585341
0.587283
0.593585
0.60832
0.638132
0.689758
0.764627
0.848823
0.922091
0.980302
1.01505
1.03487
1.04333
1.04439
1.03976
1.03283
1.02258
0.630246
0.628782
0.624984
0.618465
0.610209
0.601217
0.591983
0.584061
0.578902
0.577202
0.577769
0.579081
0.580565
0.580867
0.580509
0.580517
0.582922
0.590429
0.60721
0.640196
0.696388
0.772288
0.851487
0.913416
0.953811
0.98488
1.00315
1.01287
1.01775
1.01676
1.01451
1.00842
0.997887
0.629008
0.629081
0.625875
0.618712
0.608262
0.597099
0.58744
0.580069
0.576376
0.576546
0.57788
0.579741
0.580341
0.580377
0.581
0.584171
0.593272
0.612108
0.647951
0.705179
0.777676
0.847543
0.895614
0.929028
0.947898
0.962278
0.972281
0.978741
0.982858
0.982966
0.982068
0.975869
0.966622
0.614813
0.620903
0.622164
0.618438
0.609027
0.595497
0.584919
0.577838
0.576147
0.577862
0.580862
0.583225
0.584467
0.586441
0.591088
0.601746
0.623312
0.660258
0.713575
0.778074
0.834978
0.871986
0.896494
0.911237
0.920677
0.927087
0.933763
0.939347
0.941951
0.945621
0.944155
0.938752
0.930228
0.570881
0.585177
0.597703
0.605213
0.604622
0.597955
0.587939
0.581548
0.582163
0.58566
0.590344
0.593493
0.596836
0.603162
0.615627
0.638065
0.673216
0.718779
0.770838
0.813599
0.841256
0.859029
0.870083
0.878041
0.881928
0.886125
0.892239
0.895352
0.901953
0.905179
0.903804
0.89936
0.893252
0.495719
0.506685
0.525594
0.549723
0.571601
0.585987
0.588832
0.592686
0.598431
0.604987
0.610229
0.613991
0.620318
0.632207
0.652375
0.681233
0.716555
0.754052
0.784777
0.804335
0.817682
0.827064
0.83253
0.836455
0.838691
0.840978
0.843626
0.852172
0.861296
0.864493
0.864156
0.861982
0.859389
0.425323
0.42283
0.430131
0.448286
0.480788
0.522234
0.564926
0.596886
0.618803
0.632051
0.636624
0.640048
0.64734
0.660903
0.680458
0.703991
0.728128
0.748322
0.761643
0.772079
0.779826
0.785235
0.788966
0.788803
0.789694
0.794291
0.803077
0.813702
0.822487
0.8268
0.828619
0.829524
0.831439
0.381817
0.367142
0.356552
0.354377
0.367389
0.40109
0.464761
0.544586
0.606404
0.63506
0.645677
0.651549
0.658468
0.668918
0.68195
0.695747
0.708107
0.717885
0.72402
0.730629
0.736186
0.740839
0.742346
0.743176
0.746807
0.755347
0.767216
0.77913
0.787752
0.79444
0.799061
0.803437
0.80868
0.354492
0.330988
0.308232
0.295933
0.2986
0.316468
0.361153
0.439094
0.530258
0.592232
0.619958
0.632037
0.641378
0.649563
0.657841
0.665548
0.671138
0.67657
0.681869
0.687456
0.692094
0.695877
0.69819
0.702778
0.7108
0.723049
0.736564
0.749213
0.759619
0.768926
0.776504
0.783828
0.790962
0.329203
0.299201
0.279942
0.270365
0.271273
0.284
0.313955
0.367853
0.439544
0.509115
0.556215
0.580924
0.592563
0.602118
0.610708
0.618404
0.625382
0.632251
0.63899
0.644499
0.64922
0.653225
0.65913
0.668285
0.681359
0.696937
0.712482
0.725551
0.738685
0.750491
0.760876
0.76988
0.778318
0.301089
0.281654
0.26886
0.263622
0.264249
0.2749
0.29854
0.336326
0.385767
0.437675
0.483095
0.51673
0.537345
0.550587
0.560749
0.571112
0.580512
0.58953
0.597403
0.603479
0.609318
0.616619
0.627131
0.641963
0.659199
0.677473
0.694715
0.70915
0.725069
0.738981
0.750962
0.761611
0.770693
0.289227
0.275101
0.266251
0.263669
0.267687
0.279116
0.298734
0.328537
0.366038
0.402966
0.436396
0.464434
0.486922
0.503409
0.517437
0.52988
0.540991
0.550815
0.559799
0.56767
0.576894
0.588661
0.604598
0.622963
0.643599
0.664432
0.683726
0.700979
0.71833
0.732921
0.745538
0.755372
0.763348
0.284369
0.274708
0.272877
0.275394
0.283245
0.295817
0.313562
0.336555
0.363162
0.391435
0.417146
0.437955
0.455329
0.471196
0.485307
0.497683
0.508662
0.520162
0.529706
0.540946
0.55451
0.57113
0.589914
0.611397
0.634486
0.657664
0.678455
0.69776
0.714755
0.730015
0.742966
0.753198
0.761132
0.285846
0.285459
0.289519
0.296231
0.305509
0.317804
0.333496
0.351762
0.371849
0.393095
0.413053
0.428726
0.442773
0.455064
0.465876
0.476359
0.488061
0.498849
0.510886
0.525503
0.54291
0.560779
0.583165
0.607158
0.631799
0.655525
0.677296
0.696848
0.714031
0.729145
0.741734
0.751633
0.75868
0.297804
0.303677
0.310695
0.319212
0.329173
0.341022
0.3553
0.371281
0.387555
0.403482
0.418195
0.430804
0.441619
0.451042
0.459448
0.468766
0.478199
0.490199
0.503997
0.521352
0.538257
0.560078
0.58361
0.608612
0.633672
0.657385
0.679032
0.698032
0.714707
0.728995
0.741028
0.750048
0.755975
0.316696
0.324506
0.333532
0.343812
0.353468
0.36461
0.377857
0.392171
0.407595
0.422133
0.434501
0.444876
0.453025
0.459183
0.465821
0.472292
0.481608
0.493135
0.507879
0.523675
0.543249
0.565039
0.589076
0.61429
0.638716
0.661312
0.682016
0.700375
0.715963
0.729521
0.74065
0.748802
0.754111
0.338462
0.345986
0.357595
0.368333
0.377985
0.387521
0.399718
0.413289
0.426607
0.440365
0.452381
0.462525
0.470226
0.47623
0.481848
0.487876
0.495705
0.50623
0.519227
0.535797
0.554736
0.576307
0.599779
0.623538
0.646131
0.66703
0.686234
0.702958
0.717623
0.730249
0.740264
0.748147
0.754272
0.354951
0.371183
0.380831
0.391971
0.402014
0.410941
0.421533
0.433635
0.446976
0.46051
0.472695
0.483806
0.492834
0.500074
0.506206
0.512136
0.51883
0.52725
0.53955
0.554186
0.571997
0.592203
0.613599
0.634658
0.654969
0.673781
0.691134
0.706364
0.719469
0.730779
0.739541
0.745879
0.752292
0.38322
0.388806
0.399382
0.41355
0.42307
0.43318
0.443941
0.454601
0.467449
0.480884
0.493514
0.505989
0.516749
0.525871
0.533613
0.540306
0.545931
0.554289
0.5645
0.577458
0.59323
0.61075
0.628811
0.646803
0.664327
0.680906
0.696256
0.709716
0.721505
0.730877
0.738004
0.745103
0.749879
0.396652
0.412782
0.425365
0.4357
0.445824
0.455001
0.463628
0.473804
0.487383
0.500198
0.513013
0.526041
0.537819
0.548402
0.557653
0.56615
0.574581
0.58307
0.59247
0.60348
0.616208
0.629947
0.644239
0.659052
0.673801
0.688054
0.701255
0.713238
0.722366
0.730821
0.737102
0.743034
0.746726
0.421193
0.431199
0.443293
0.457887
0.466988
0.476165
0.48432
0.493966
0.504429
0.515987
0.528608
0.541592
0.554647
0.567107
0.578817
0.589765
0.599895
0.609336
0.618667
0.628118
0.637861
0.648097
0.659068
0.670823
0.68299
0.695038
0.706329
0.71683
0.724046
0.72943
0.735472
0.739837
0.742651
0.436756
0.45138
0.465147
0.477962
0.486957
0.495774
0.503639
0.512242
0.521545
0.532243
0.544123
0.557015
0.570459
0.584092
0.597216
0.609597
0.620787
0.630877
0.640013
0.648394
0.656267
0.664055
0.672397
0.681712
0.691674
0.70178
0.711604
0.718973
0.724532
0.729667
0.732584
0.736019
0.736239
0.454235
0.469342
0.483547
0.496784
0.506337
0.514366
0.52176
0.529318
0.537898
0.547788
0.559112
0.571648
0.585084
0.598998
0.612753
0.625853
0.637734
0.648148
0.657075
0.664549
0.670961
0.677194
0.683809
0.691325
0.69948
0.707902
0.715905
0.721422
0.724499
0.72767
0.729116
0.729227
0.730489
0.466687
0.489356
0.50066
0.513814
0.524469
0.531998
0.539066
0.545792
0.553578
0.562765
0.57341
0.585471
0.598534
0.612351
0.62607
0.639212
0.651236
0.66157
0.669966
0.676546
0.681898
0.686925
0.69268
0.699099
0.706046
0.712997
0.718064
0.721817
0.723324
0.723827
0.724489
0.724168
0.724194
0.480953
0.502865
0.515545
0.530687
0.540941
0.548546
0.555212
0.561501
0.568677
0.57722
0.587241
0.599022
0.610444
0.623484
0.637068
0.649777
0.661295
0.671045
0.678751
0.684962
0.690119
0.694957
0.699893
0.705025
0.710354
0.715344
0.718914
0.720007
0.721123
0.719475
0.716746
0.716204
0.7163
0.491044
0.519027
0.529416
0.544501
0.55644
0.563833
0.570211
0.576262
0.583078
0.590747
0.599514
0.610098
0.622053
0.634149
0.645889
0.656908
0.668013
0.677639
0.684836
0.690993
0.696036
0.700447
0.704526
0.708295
0.712236
0.715118
0.716885
0.71678
0.714851
0.712343
0.709353
0.707619
0.710059
0.499402
0.530166
0.543919
0.558016
0.570162
0.577537
0.584083
0.59026
0.595323
0.60276
0.611639
0.621561
0.632056
0.643002
0.655835
0.668974
0.678097
0.685352
0.691432
0.696601
0.701041
0.704659
0.707709
0.710422
0.712385
0.713269
0.712055
0.711479
0.707756
0.703345
0.69972
0.697918
0.704915
0.506593
0.53905
0.558049
0.569072
0.582244
0.589777
0.596577
0.601918
0.606949
0.614832
0.623134
0.632323
0.642387
0.656826
0.667842
0.677403
0.685601
0.692178
0.697733
0.702786
0.707165
0.710271
0.711781
0.712695
0.711344
0.710034
0.707981
0.702827
0.698048
0.69371
0.690716
0.690323
0.698771
0.512833
0.54707
0.569006
0.579199
0.592153
0.600587
0.607476
0.611981
0.61884
0.626111
0.634388
0.643098
0.65723
0.668198
0.678967
0.68814
0.695454
0.701582
0.707051
0.712516
0.715792
0.716464
0.715678
0.712383
0.70955
0.705152
0.699764
0.693704
0.688323
0.683363
0.680626
0.684874
0.694436
0.51963
0.551689
0.577744
0.591023
0.599855
0.610154
0.616217
0.622236
0.629489
0.637072
0.645641
0.657204
0.66995
0.68124
0.691618
0.700133
0.707258
0.71368
0.719769
0.72452
0.727071
0.723516
0.717858
0.710822
0.703968
0.697705
0.690757
0.68414
0.678083
0.674222
0.672628
0.680057
0.692555
0.529013
0.556225
0.58514
0.599769
0.606316
0.617681
0.624555
0.632131
0.639559
0.647758
0.65658
0.671025
0.682794
0.694331
0.704746
0.713405
0.721121
0.728385
0.734864
0.738878
0.739048
0.730967
0.71895
0.707393
0.697147
0.688555
0.680599
0.674007
0.669022
0.666692
0.667225
0.677202
0.692996
0.534119
0.564713
0.589747
0.607776
0.617473
0.623834
0.63277
0.641217
0.649179
0.658092
0.668084
0.683485
0.694799
0.707257
0.717892
0.727453
0.736868
0.744058
0.750708
0.753718
0.750312
0.737864
0.719191
0.702138
0.688695
0.67797
0.670791
0.664645
0.66149
0.66086
0.665327
0.676485
0.696004
0.544367
0.573015
0.596546
0.618094
0.627529
0.630484
0.641282
0.649332
0.657946
0.66705
0.678904
0.69414
0.706117
0.719075
0.730693
0.742105
0.750629
0.759538
0.765846
0.767831
0.761422
0.742974
0.717865
0.695155
0.67895
0.668722
0.661101
0.656796
0.655212
0.657785
0.665547
0.67832
0.699407
0.556981
0.581135
0.608369
0.623935
0.636163
0.643427
0.647896
0.657375
0.665778
0.674829
0.688589
0.702965
0.715878
0.729208
0.741799
0.755084
0.762987
0.773783
0.77962
0.780278
0.771963
0.746412
0.71448
0.687973
0.669849
0.65903
0.652924
0.650489
0.650982
0.656547
0.666672
0.681096
0.699742
0.568422
0.595556
0.615136
0.635224
0.645256
0.653128
0.652982
0.664008
0.672717
0.681564
0.69607
0.709865
0.723553
0.737218
0.75072
0.764795
0.773377
0.785148
0.790517
0.790233
0.777438
0.747574
0.710912
0.680073
0.661189
0.65103
0.646191
0.644654
0.647516
0.655025
0.665923
0.679698
0.696146
0.581623
0.608553
0.628742
0.643884
0.652932
0.660701
0.664907
0.667175
0.677917
0.686851
0.700655
0.714447
0.728224
0.741933
0.75616
0.770936
0.780503
0.791828
0.79648
0.797765
0.779463
0.746567
0.705999
0.672852
0.65274
0.64327
0.63957
0.638878
0.643191
0.650918
0.660853
0.67241
0.68524
0.595803
0.620937
0.643632
0.654396
0.664086
0.665077
0.671741
0.671859
0.681504
0.690506
0.702027
0.716362
0.729796
0.743512
0.75777
0.773254
0.783323
0.79383
0.797852
0.798021
0.777527
0.743298
0.699763
0.665032
0.644451
0.635162
0.63192
0.631526
0.6357
0.642133
0.649786
0.658213
0.667661
0.604804
0.635217
0.656907
0.668532
0.671396
0.675689
0.674985
0.679598
0.680182
0.691515
0.70196
0.715457
0.728194
0.741928
0.756077
0.770425
0.782527
0.791812
0.795694
0.79319
0.771415
0.736392
0.692321
0.65616
0.635172
0.625905
0.622282
0.621412
0.624782
0.629051
0.633977
0.639438
0.645901
0.608933
0.647264
0.669447
0.682034
0.682649
0.682689
0.678377
0.68032
0.683993
0.690214
0.700003
0.711701
0.72355
0.73748
0.750937
0.764357
0.776385
0.784346
0.788391
0.782888
0.761314
0.726749
0.683165
0.646042
0.624271
0.614239
0.610274
0.609355
0.610903
0.613937
0.616645
0.620655
0.625296
0.60687
0.652727
0.680767
0.693701
0.694521
0.687957
0.687782
0.681809
0.685149
0.684436
0.695324
0.705694
0.717087
0.728275
0.742796
0.753081
0.764884
0.771577
0.775389
0.769726
0.748598
0.714663
0.673034
0.635307
0.612779
0.601928
0.597151
0.595593
0.595803
0.597574
0.600027
0.603665
0.60766
0.596897
0.651029
0.688603
0.702308
0.706127
0.697316
0.692741
0.682587
0.682662
0.682945
0.687307
0.695966
0.706156
0.715285
0.728179
0.737924
0.748679
0.755568
0.759134
0.753367
0.733448
0.699854
0.660061
0.622393
0.599404
0.587786
0.582507
0.580552
0.58036
0.5818
0.584467
0.588515
0.592783
0.580998
0.642357
0.68994
0.708553
0.71519
0.70843
0.695106
0.686989
0.67967
0.679048
0.675974
0.683581
0.691559
0.698847
0.707829
0.719545
0.728273
0.735572
0.739079
0.734171
0.716029
0.684224
0.64561
0.609821
0.586013
0.573997
0.568284
0.565977
0.565663
0.567383
0.570484
0.574885
0.580455
0.562486
0.627539
0.684849
0.711595
0.720794
0.719193
0.701469
0.691979
0.675334
0.671929
0.666351
0.669381
0.673986
0.678984
0.68482
0.697103
0.704336
0.712388
0.716113
0.712886
0.696908
0.667838
0.631383
0.597207
0.573731
0.561545
0.555741
0.553307
0.553112
0.55523
0.558882
0.563776
0.569813
0.5443
0.609736
0.673562
0.71201
0.724228
0.728053
0.71379
0.698539
0.676241
0.663808
0.657744
0.653315
0.654977
0.657479
0.661355
0.669596
0.678917
0.686034
0.690707
0.689582
0.67683
0.651134
0.617354
0.585259
0.563144
0.551388
0.545528
0.543225
0.543257
0.545622
0.549523
0.554591
0.560595
0.528143
0.591173
0.658253
0.707224
0.726659
0.734176
0.728426
0.70313
0.683467
0.659874
0.649054
0.637495
0.63644
0.636055
0.637656
0.641587
0.650962
0.659162
0.663942
0.664953
0.655765
0.634191
0.603945
0.574179
0.55425
0.543424
0.538226
0.535934
0.5363
0.53864
0.54253
0.547489
0.553301
0.514444
0.573066
0.64115
0.698477
0.727377
0.736925
0.738722
0.717098
0.6977
0.662718
0.643446
0.625209
0.619368
0.615777
0.614476
0.617116
0.622488
0.631093
0.636606
0.640035
0.633548
0.616565
0.590849
0.564808
0.546921
0.537593
0.533098
0.531608
0.532253
0.534363
0.537742
0.542141
0.547484
0.503095
0.555648
0.62345
0.68557
0.723767
0.739201
0.745933
0.73461
0.71092
0.673619
0.643174
0.621084
0.605075
0.597244
0.593732
0.593956
0.597626
0.603783
0.609515
0.613872
0.610551
0.59786
0.576922
0.55487
0.54085
0.533835
0.530813
0.530002
0.530804
0.532685
0.535406
0.538891
0.542933
0.493372
0.538881
0.604639
0.669923
0.716921
0.739961
0.74843
0.748533
0.724996
0.696101
0.649899
0.622741
0.595685
0.582757
0.57525
0.573317
0.574541
0.579887
0.585092
0.587446
0.586682
0.578849
0.563194
0.544991
0.534235
0.529751
0.528672
0.529646
0.531317
0.533603
0.535811
0.537907
0.540904
0.484886
0.522552
0.584367
0.651885
0.705575
0.736154
0.749121
0.755081
0.742887
0.719107
0.669201
0.630645
0.595346
0.574935
0.560847
0.555932
0.554811
0.55799
0.562658
0.56579
0.566063
0.559705
0.547507
0.534459
0.527514
0.525225
0.525815
0.529033
0.532855
0.536055
0.537677
0.539391
0.541342
0.477261
0.506413
0.562397
0.63057
0.689788
0.728311
0.748262
0.755453
0.755709
0.732792
0.699322
0.644509
0.60325
0.573246
0.553272
0.541869
0.538415
0.539447
0.543171
0.545928
0.546975
0.544254
0.535764
0.525075
0.518877
0.517302
0.52023
0.526545
0.533785
0.538099
0.540809
0.541624
0.54294
0.470601
0.490628
0.538803
0.605306
0.669928
0.715885
0.741981
0.754619
0.759975
0.750024
0.725508
0.671799
0.621118
0.578287
0.553635
0.534591
0.526065
0.523463
0.524718
0.528084
0.530113
0.529999
0.524873
0.516672
0.511994
0.511049
0.5151
0.522102
0.530048
0.537232
0.543345
0.544616
0.546155
0.465067
0.476079
0.514183
0.575871
0.644139
0.698111
0.731747
0.750575
0.757234
0.757797
0.736576
0.704124
0.644989
0.595001
0.558706
0.535625
0.519873
0.513347
0.511636
0.512001
0.514211
0.51473
0.512983
0.508462
0.504937
0.504396
0.508825
0.517237
0.528447
0.538498
0.544774
0.548316
0.55008
0.460725
0.463346
0.490349
0.542939
0.611483
0.673512
0.715948
0.741236
0.753716
0.756075
0.74949
0.725534
0.679241
0.620604
0.569856
0.540058
0.520652
0.508867
0.504089
0.50298
0.503028
0.502235
0.50185
0.498719
0.496857
0.497798
0.503722
0.512975
0.5262
0.539692
0.549688
0.553708
0.554953
0.457751
0.453176
0.469053
0.509236
0.572115
0.640156
0.693155
0.726598
0.744207
0.751204
0.751018
0.731322
0.709094
0.652525
0.597368
0.552326
0.527024
0.511736
0.503989
0.499519
0.496895
0.495694
0.493275
0.4907
0.489315
0.490542
0.497824
0.510891
0.526775
0.542639
0.556304
0.563176
0.562884
0.45547
0.445494
0.452274
0.478301
0.529416
0.597876
0.661104
0.705551
0.730982
0.743295
0.745369
0.737519
0.720019
0.686889
0.632018
0.580123
0.542265
0.521357
0.509727
0.502819
0.498069
0.493392
0.489059
0.485795
0.484282
0.486033
0.494074
0.510286
0.531392
0.549084
0.564701
0.573406
0.57358
0.453644
0.440035
0.439577
0.453753
0.489666
0.550056
0.618629
0.675864
0.7127
0.731422
0.739641
0.739972
0.733981
0.712682
0.667698
0.613643
0.569617
0.541185
0.525193
0.513028
0.503735
0.495823
0.489404
0.484795
0.483273
0.48448
0.49318
0.511794
0.537286
0.56098
0.576215
0.586266
0.588842
0.451994
0.436221
0.43125
0.436758
0.457659
0.502916
0.568776
0.636303
0.686558
0.716279
0.730846
0.738255
0.736074
0.722326
0.697696
0.651439
0.606235
0.572147
0.550216
0.532642
0.51648
0.503153
0.493367
0.487396
0.485308
0.487128
0.496557
0.516731
0.546616
0.574843
0.592908
0.602124
0.604936
0.450172
0.433245
0.425635
0.426039
0.436409
0.464524
0.518396
0.588739
0.652683
0.697005
0.723271
0.739832
0.741387
0.741755
0.725728
0.694464
0.654308
0.619746
0.587417
0.556559
0.532104
0.513502
0.500505
0.493267
0.491091
0.494152
0.50436
0.525488
0.558477
0.593296
0.612346
0.619734
0.621465
0.448064
0.430686
0.421793
0.419084
0.423424
0.439314
0.476029
0.53873
0.611414
0.672256
0.713576
0.740056
0.752209
0.756999
0.752504
0.741717
0.713138
0.675129
0.632382
0.589989
0.55484
0.530108
0.513836
0.505236
0.502798
0.506419
0.517631
0.540972
0.576082
0.613504
0.63515
0.638982
0.638495
0.445503
0.428261
0.419028
0.414757
0.41579
0.424147
0.44721
0.495156
0.567296
0.642136
0.701159
0.741811
0.768227
0.780685
0.791486
0.789362
0.778544
0.74052
0.681
0.622676
0.577371
0.546874
0.528743
0.5199
0.518496
0.523995
0.537634
0.56459
0.601272
0.635665
0.657652
0.65832
0.65492
0.442458
0.425803
0.416929
0.412214
0.411737
0.41631
0.430928
0.464433
0.52735
0.610338
0.687001
0.744647
0.785849
0.804773
0.822177
0.834192
0.836249
0.79906
0.727366
0.656423
0.602826
0.567829
0.548271
0.540097
0.540979
0.549556
0.567556
0.598045
0.633505
0.663051
0.678122
0.676511
0.670246
0.439143
0.423359
0.415264
0.410927
0.409955
0.412893
0.42311
0.448138
0.499356
0.581121
0.670891
0.743949
0.794185
0.820735
0.841052
0.861536
0.869002
0.834751
0.760066
0.687618
0.630704
0.593557
0.573989
0.568824
0.57487
0.588972
0.612161
0.643168
0.671912
0.689749
0.694583
0.691914
0.684099
0.436052
0.421146
0.414021
0.410463
0.409481
0.411874
0.420468
0.441511
0.485292
0.560966
0.655287
0.737439
0.793984
0.821852
0.846176
0.865539
0.871818
0.846693
0.782739
0.715492
0.661232
0.625623
0.611164
0.612322
0.624692
0.645074
0.667012
0.689493
0.698259
0.706135
0.708637
0.704786
0.696318
0.433763
0.419861
0.413522
0.410502
0.410098
0.412597
0.420777
0.44026
0.480663
0.550975
0.642323
0.72738
0.786899
0.81542
0.841672
0.861007
0.867543
0.847751
0.79491
0.739127
0.694441
0.668433
0.661839
0.671102
0.687415
0.702722
0.713004
0.715823
0.719099
0.719694
0.717576
0.71235
0.70473
0.432542
0.419444
0.413518
0.411232
0.411664
0.415051
0.424276
0.444272
0.483103
0.548265
0.633087
0.71491
0.77291
0.801423
0.829338
0.848351
0.854587
0.845828
0.813011
0.771721
0.735297
0.718331
0.721169
0.73012
0.737716
0.740657
0.738831
0.733285
0.727941
0.722449
0.716886
0.711023
0.705517
0.432069
0.419788
0.414388
0.412822
0.414048
0.418881
0.430108
0.452231
0.49112
0.551848
0.628236
0.703275
0.756405
0.785786
0.813553
0.832886
0.841088
0.841342
0.824475
0.799455
0.782455
0.776305
0.773396
0.770703
0.766149
0.758093
0.744746
0.73443
0.724718
0.715574
0.70823
0.702159
0.69838
0.433301
0.421756
0.41665
0.415563
0.417539
0.423998
0.437844
0.462556
0.502288
0.559195
0.626834
0.694152
0.740028
0.772234
0.801534
0.825477
0.84316
0.851604
0.851504
0.843596
0.827221
0.812148
0.798676
0.782907
0.768803
0.75223
0.736859
0.723705
0.712466
0.703127
0.695458
0.690341
0.686508
0.436559
0.425421
0.420455
0.419702
0.422423
0.430496
0.446993
0.474384
0.514857
0.567836
0.628361
0.687866
0.726951
0.762575
0.796237
0.827528
0.853824
0.873223
0.88233
0.870072
0.843629
0.817271
0.792999
0.770845
0.748595
0.730839
0.715636
0.703493
0.69419
0.687112
0.680127
0.676479
0.673743
0.441824
0.430938
0.425973
0.425416
0.428834
0.438512
0.457595
0.487053
0.52745
0.576292
0.63122
0.683807
0.719094
0.757929
0.79729
0.836208
0.872413
0.895038
0.899092
0.872888
0.836033
0.800135
0.767932
0.739838
0.716375
0.69998
0.688295
0.67985
0.673976
0.669631
0.666212
0.662628
0.660336
0.449196
0.438428
0.433347
0.432906
0.43697
0.448229
0.469391
0.500019
0.539259
0.583957
0.633881
0.681542
0.716037
0.757931
0.802186
0.849155
0.888198
0.909149
0.899046
0.858045
0.806552
0.76122
0.723794
0.694998
0.677727
0.667266
0.660266
0.656137
0.653799
0.652458
0.651019
0.649529
0.64746
0.45878
0.447959
0.442648
0.442304
0.446968
0.459559
0.482087
0.512567
0.549183
0.591538
0.636511
0.681064
0.716212
0.760232
0.809482
0.861531
0.900357
0.915413
0.885103
0.822309
0.759758
0.71044
0.67589
0.654275
0.642575
0.637121
0.634577
0.63401
0.634295
0.635057
0.635681
0.635111
0.634198
0.470591
0.459555
0.453883
0.453469
0.458592
0.472255
0.495241
0.524267
0.558767
0.597997
0.639647
0.681286
0.717719
0.763991
0.816582
0.871698
0.907309
0.910069
0.856606
0.778524
0.710303
0.66337
0.636105
0.621295
0.61458
0.611812
0.612432
0.614071
0.61564
0.617301
0.618655
0.61937
0.619036
0.484641
0.473246
0.467104
0.466485
0.471879
0.486069
0.508582
0.535625
0.568024
0.6041
0.643144
0.681703
0.719532
0.767177
0.82136
0.876844
0.90626
0.895131
0.823999
0.738257
0.673184
0.630365
0.606472
0.595724
0.590822
0.590317
0.592819
0.594866
0.596676
0.598207
0.599619
0.600929
0.601757
0.50088
0.489015
0.482243
0.481121
0.486516
0.500528
0.522157
0.546531
0.576409
0.610066
0.647567
0.680976
0.719997
0.768185
0.822078
0.877028
0.89892
0.87672
0.797385
0.714286
0.647078
0.604456
0.583611
0.572763
0.570029
0.570897
0.572753
0.574777
0.576207
0.577188
0.578256
0.579602
0.581191
0.519192
0.506815
0.499278
0.497447
0.50232
0.515808
0.535309
0.557101
0.583878
0.614848
0.649496
0.68017
0.719315
0.766626
0.820916
0.870298
0.886977
0.857894
0.785211
0.701232
0.631599
0.586392
0.56201
0.553577
0.549484
0.549072
0.551229
0.55323
0.553892
0.554082
0.554468
0.556017
0.558366
0.539506
0.526585
0.518161
0.515335
0.5191
0.531118
0.5478
0.566961
0.590374
0.61799
0.64921
0.678493
0.716448
0.7609
0.816768
0.858014
0.871896
0.844001
0.779246
0.69809
0.624895
0.572332
0.545176
0.532226
0.527509
0.526746
0.52852
0.529874
0.529486
0.529405
0.529589
0.531538
0.534334
0.561515
0.548155
0.538754
0.534626
0.536632
0.546225
0.559894
0.575768
0.59558
0.619436
0.647484
0.674978
0.710159
0.751217
0.805895
0.841767
0.853298
0.832743
0.777955
0.701415
0.623798
0.567768
0.531788
0.514071
0.507145
0.505334
0.505635
0.505916
0.504437
0.50409
0.504812
0.507558
0.511393
0.584611
0.571077
0.560826
0.554964
0.554899
0.560894
0.571152
0.583426
0.599426
0.619286
0.643443
0.668823
0.70125
0.738846
0.788851
0.822628
0.833187
0.82139
0.778216
0.709942
0.632402
0.56795
0.527699
0.504762
0.492957
0.487627
0.485579
0.483931
0.481088
0.480879
0.482129
0.484865
0.491545
0.608133
0.594906
0.584055
0.576537
0.573309
0.575144
0.580987
0.58965
0.601676
0.617921
0.637443
0.661001
0.689924
0.724007
0.768205
0.801775
0.813097
0.809843
0.779918
0.722385
0.649174
0.578199
0.53115
0.502514
0.487168
0.477366
0.471479
0.467424
0.463329
0.463269
0.464591
0.468448
0.476195
0.631262
0.618823
0.607841
0.59884
0.591903
0.589034
0.589938
0.594423
0.602388
0.614595
0.630543
0.651345
0.676746
0.706954
0.745499
0.780136
0.795967
0.799447
0.782331
0.738473
0.67178
0.599206
0.542987
0.507404
0.486371
0.473753
0.464322
0.455767
0.452781
0.452501
0.454366
0.459606
0.467179
0.652964
0.641792
0.631077
0.621017
0.610556
0.602419
0.59794
0.597996
0.60184
0.610123
0.62285
0.640559
0.662818
0.689648
0.724282
0.758187
0.781082
0.791335
0.784581
0.760966
0.702212
0.626936
0.562888
0.518913
0.492188
0.47513
0.461562
0.453022
0.449064
0.447959
0.449687
0.455145
0.463939
0.672147
0.662377
0.652352
0.641609
0.62826
0.615051
0.604736
0.60012
0.600211
0.605145
0.614725
0.629437
0.649018
0.673554
0.705709
0.73932
0.767871
0.786875
0.789939
0.78365
0.736324
0.660198
0.587271
0.535362
0.5028
0.480337
0.46516
0.454633
0.448921
0.447269
0.448946
0.454994
0.464936
0.687549
0.679185
0.670105
0.65867
0.643482
0.625885
0.610491
0.601627
0.598152
0.599964
0.606657
0.618828
0.636305
0.659338
0.690884
0.724991
0.756005
0.784709
0.79882
0.803925
0.768865
0.695704
0.615252
0.555683
0.514712
0.491221
0.473362
0.460224
0.452917
0.450577
0.451334
0.457656
0.469497
0.698857
0.691349
0.682701
0.670558
0.654014
0.633933
0.614886
0.602137
0.595884
0.595365
0.599533
0.609377
0.624993
0.647
0.678996
0.714543
0.747109
0.781001
0.810056
0.820107
0.798516
0.729304
0.644477
0.57129
0.528918
0.50441
0.484006
0.470194
0.459446
0.454748
0.45398
0.459732
0.47281
0.704803
0.697283
0.688635
0.67613
0.658855
0.638329
0.61781
0.602609
0.594488
0.591728
0.594004
0.601802
0.615896
0.637099
0.668974
0.705952
0.739287
0.776083
0.816057
0.831793
0.823298
0.763101
0.675697
0.589738
0.54487
0.517288
0.496353
0.482256
0.468863
0.459319
0.455352
0.45735
0.472774
0.706138
0.699047
0.690228
0.677531
0.65996
0.639123
0.618999
0.602859
0.5932
0.58906
0.590136
0.59645
0.608828
0.628946
0.660574
0.698627
0.732576
0.769788
0.814734
0.838734
0.840148
0.792961
0.703164
0.617162
0.563594
0.532026
0.510346
0.497178
0.484559
0.471392
0.456639
0.451674
0.460851
0.748831
0.780301
0.795414
0.81034
0.759675
0.724571
0.71253
0.721346
0.735503
0.773375
0.800612
0.828171
0.793032
0.746617
0.723421
0.722239
0.733863
0.77586
0.811876
0.841812
0.836977
0.781213
0.737915
0.72345
0.754126
0.801918
0.845112
0.878984
0.887262
0.830387
0.760667
0.723001
0.80761
0.859814
0.907306
0.941497
0.943657
0.895608
0.797076
0.72737
0.893616
0.941895
0.979259
0.999921
0.988025
0.94813
0.841104
0.73805
0.982477
1.00756
1.02003
1.01862
1.00292
0.952435
0.86289
0.754318
1.02667
1.02809
1.02368
1.00796
0.975267
0.919431
0.843602
0.750519
1.03594
1.02817
1.01292
0.986626
0.94566
0.887037
0.816763
0.742665
1.03516
1.02071
0.9994
0.968479
0.92569
0.870523
0.808117
0.743227
1.02543
1.00829
0.984619
0.9532
0.912631
0.864086
0.809377
0.75378
1.00859
0.990695
0.967136
0.937241
0.900642
0.858854
0.812274
0.765401
0.984834
0.967444
0.945725
0.919163
0.887523
0.853043
0.814373
0.775735