/*--------------------------------*- C++ -*----------------------------------*\
  =========                 |
  \\      /  F ield         | OpenFOAM: The Open Source CFD Toolbox
   \\    /   O peration     | Website:  https://openfoam.org
    \\  /    A nd           | Version:  10
     \\/     M anipulation  |
\*---------------------------------------------------------------------------*/
FoamFile
{
    format      ascii;
    class       volScalarField;
    location    "0.34949";
    object      rho;
}
// * * * * * * * * * * * * * * * * * * * * * * * * * * * * * * * * * * * * * //

dimensions      [1 -3 0 0 0 0 0];

internalField   nonuniform List<scalar> 
16320
(
0.582382
0.522358
0.512756
0.498928
0.493149
0.493243
0.494401
0.498283
0.509348
0.534393
0.569853
0.597628
0.614116
0.624445
0.633976
0.644336
0.660548
0.683477
0.71361
0.743888
0.775482
0.794124
0.80759
0.806159
0.769811
0.718696
0.691779
0.681792
0.682614
0.715562
0.782633
0.850098
0.888335
0.690018
0.55616
0.525162
0.51112
0.505166
0.504796
0.505017
0.507057
0.513755
0.525574
0.542551
0.56226
0.585871
0.60654
0.623102
0.638111
0.656346
0.683222
0.717433
0.750244
0.776419
0.791958
0.78759
0.75172
0.709584
0.687435
0.678906
0.676115
0.69955
0.761471
0.816503
0.86888
0.891521
0.726899
0.662055
0.554816
0.529747
0.521802
0.520414
0.519553
0.520026
0.523544
0.529486
0.536735
0.545249
0.556702
0.571163
0.587188
0.609694
0.631086
0.662521
0.699154
0.729046
0.739953
0.744091
0.72096
0.694439
0.681574
0.677309
0.675034
0.693008
0.754878
0.807385
0.852487
0.886075
0.903122
0.747706
0.73999
0.654382
0.577257
0.55054
0.542008
0.538531
0.536508
0.536875
0.539148
0.541046
0.545191
0.55011
0.558557
0.568504
0.582942
0.603583
0.631856
0.663804
0.68348
0.700433
0.694524
0.685978
0.682081
0.681689
0.68178
0.705538
0.752387
0.810083
0.848074
0.88452
0.9072
0.92692
0.773031
0.771984
0.731193
0.654992
0.607425
0.581696
0.568449
0.560651
0.555923
0.55298
0.552308
0.554386
0.557887
0.562573
0.570008
0.58266
0.60281
0.628762
0.65274
0.674836
0.678229
0.68304
0.684209
0.688019
0.694521
0.721283
0.759942
0.804341
0.853145
0.885461
0.918465
0.945976
0.975452
0.768884
0.773257
0.745532
0.67823
0.633755
0.609289
0.592768
0.582115
0.574921
0.568907
0.56493
0.565419
0.56896
0.573144
0.580623
0.59367
0.613222
0.633412
0.654346
0.663888
0.674819
0.680639
0.687453
0.699478
0.722103
0.756863
0.795686
0.840736
0.889967
0.931446
0.972049
1.01378
1.05154
0.669079
0.684552
0.686597
0.661012
0.636027
0.61975
0.604861
0.594968
0.587259
0.580661
0.57638
0.576742
0.580037
0.584778
0.593176
0.606578
0.622619
0.640117
0.651776
0.664088
0.67303
0.683464
0.697825
0.723086
0.756479
0.796948
0.840419
0.898867
0.953389
1.01056
1.06533
1.11149
1.14
0.639921
0.642133
0.644188
0.639879
0.631135
0.624223
0.614421
0.606186
0.59862
0.593119
0.590087
0.590027
0.593391
0.599241
0.609058
0.623918
0.637381
0.653032
0.666829
0.680235
0.696211
0.720734
0.750395
0.778923
0.813122
0.854071
0.914613
0.978964
1.05459
1.12077
1.16777
1.19479
1.19455
0.631544
0.627453
0.626262
0.627184
0.623803
0.621133
0.616701
0.610045
0.603872
0.599401
0.598486
0.599236
0.603138
0.609467
0.619865
0.632754
0.645981
0.657739
0.670502
0.685163
0.703511
0.728816
0.759233
0.794549
0.83666
0.903
0.982362
1.07534
1.15547
1.20786
1.22526
1.22181
1.18063
0.579634
0.575418
0.572427
0.570719
0.572315
0.575236
0.578006
0.578855
0.580118
0.580776
0.584821
0.588385
0.594704
0.601019
0.609535
0.617872
0.626052
0.631447
0.638664
0.649212
0.665603
0.68994
0.726785
0.776194
0.848142
0.945018
1.04912
1.14511
1.21074
1.23396
1.23094
1.19599
1.09403
0.563115
0.561264
0.559745
0.556575
0.551822
0.546456
0.541673
0.538506
0.537186
0.536928
0.53978
0.543937
0.548905
0.553726
0.558027
0.561944
0.563819
0.564947
0.566901
0.573736
0.585629
0.608389
0.650586
0.723243
0.821259
0.942365
1.06226
1.15645
1.20859
1.21959
1.1936
1.08513
0.973012
0.562283
0.56073
0.559225
0.556632
0.552478
0.546871
0.540602
0.535477
0.531727
0.530388
0.530988
0.532259
0.534658
0.537111
0.538417
0.537903
0.537884
0.538798
0.542248
0.5513
0.568885
0.601803
0.649127
0.717275
0.79793
0.928182
1.06048
1.15202
1.18507
1.17034
1.07039
0.952431
0.918241
0.567946
0.570654
0.570352
0.566471
0.559741
0.551565
0.542923
0.535468
0.53063
0.528687
0.528316
0.529109
0.529996
0.529496
0.529406
0.52899
0.530033
0.534507
0.544825
0.564804
0.5982
0.642831
0.684481
0.737903
0.799467
0.933603
1.06448
1.1321
1.13278
1.05832
0.927984
0.897653
0.891107
0.583283
0.586201
0.584576
0.578078
0.567676
0.555308
0.543655
0.534225
0.528483
0.525445
0.525258
0.524187
0.524452
0.523452
0.523134
0.524998
0.530248
0.541998
0.564584
0.599786
0.642376
0.678751
0.705386
0.743098
0.813306
0.962747
1.0669
1.08369
1.04258
0.908687
0.868419
0.866004
0.882421
0.600132
0.608735
0.610389
0.60578
0.593264
0.574638
0.556685
0.542155
0.532468
0.52824
0.5239
0.522357
0.51952
0.518795
0.520546
0.527193
0.54035
0.56304
0.595864
0.63482
0.668688
0.683882
0.706273
0.742301
0.85904
0.993111
1.03662
1.01331
0.891558
0.835457
0.834392
0.851585
0.856436
0.614392
0.630905
0.640631
0.640292
0.629299
0.609595
0.586296
0.566738
0.552085
0.539721
0.531514
0.5233
0.519705
0.518564
0.522734
0.535966
0.55612
0.583967
0.617689
0.646884
0.664171
0.674547
0.695467
0.764114
0.909339
0.983516
0.97708
0.883962
0.80115
0.79742
0.816868
0.823637
0.810065
0.591026
0.597696
0.606593
0.61543
0.615975
0.614563
0.599785
0.582409
0.568517
0.554071
0.542118
0.52984
0.525168
0.522922
0.530094
0.545363
0.56558
0.592484
0.617909
0.635881
0.646221
0.660908
0.697937
0.827938
0.92927
0.939898
0.872115
0.773631
0.757867
0.774557
0.79011
0.780113
0.747706
0.530394
0.519891
0.514554
0.517421
0.533561
0.548543
0.563782
0.569086
0.565765
0.556963
0.544339
0.532951
0.528252
0.524908
0.530992
0.542932
0.561781
0.583042
0.601698
0.615354
0.628082
0.653339
0.745479
0.867167
0.904864
0.857496
0.754453
0.721018
0.733382
0.760896
0.757283
0.731463
0.678381
0.486626
0.463027
0.444174
0.434049
0.434934
0.455193
0.492043
0.529493
0.548832
0.545639
0.535769
0.526286
0.5201
0.518085
0.522448
0.536185
0.553407
0.57062
0.5841
0.596788
0.618555
0.682848
0.811154
0.852811
0.842612
0.740371
0.696248
0.694082
0.727893
0.73729
0.723479
0.670245
0.640848
0.456708
0.430142
0.407932
0.396817
0.399523
0.414096
0.445771
0.492292
0.532627
0.542223
0.532951
0.519526
0.510714
0.510232
0.51625
0.530982
0.544152
0.556431
0.569791
0.590631
0.640868
0.753226
0.805508
0.809554
0.739887
0.671429
0.667685
0.687609
0.717307
0.714753
0.675232
0.62897
0.617286
0.441253
0.418458
0.411321
0.409854
0.414151
0.425872
0.450049
0.488195
0.527626
0.547998
0.539995
0.523091
0.510886
0.509367
0.514552
0.521892
0.530097
0.544854
0.567492
0.610354
0.702666
0.757164
0.769272
0.733385
0.651176
0.641456
0.652055
0.69179
0.699837
0.68289
0.625875
0.600195
0.590434
0.439314
0.438366
0.433493
0.431686
0.431955
0.440291
0.458455
0.483131
0.505939
0.518031
0.521164
0.516914
0.510033
0.50381
0.502649
0.509246
0.520664
0.544664
0.586801
0.663376
0.711667
0.727576
0.710801
0.637936
0.618093
0.629194
0.653395
0.681863
0.679247
0.638917
0.59714
0.56319
0.543246
0.460653
0.453675
0.444024
0.44102
0.44463
0.453744
0.466626
0.481549
0.491768
0.491281
0.486933
0.482078
0.479705
0.480316
0.489255
0.501621
0.524497
0.56802
0.634999
0.674651
0.691017
0.681055
0.627379
0.59631
0.606772
0.62802
0.659454
0.668367
0.641548
0.592532
0.560246
0.516153
0.488763
0.470371
0.457883
0.457062
0.46059
0.468328
0.47871
0.488972
0.49466
0.490908
0.481195
0.470028
0.460412
0.461827
0.473354
0.488049
0.512628
0.555434
0.611271
0.641525
0.658099
0.655152
0.615602
0.577323
0.584576
0.604933
0.632969
0.654471
0.642756
0.596121
0.572045
0.543248
0.500397
0.474681
0.472978
0.470358
0.470174
0.476556
0.486297
0.497832
0.506625
0.507789
0.499944
0.48489
0.468994
0.465544
0.475686
0.489005
0.513394
0.553256
0.595588
0.618089
0.633195
0.630633
0.600006
0.560146
0.565282
0.585144
0.610136
0.634112
0.638847
0.605891
0.582264
0.567898
0.539531
0.497905
0.4757
0.480978
0.470844
0.472492
0.482885
0.497564
0.514206
0.527425
0.532011
0.52784
0.516917
0.508197
0.51459
0.524133
0.538098
0.567082
0.591169
0.60524
0.616456
0.611858
0.585983
0.546856
0.549186
0.566933
0.59003
0.613832
0.626399
0.616366
0.592829
0.582179
0.568948
0.539122
0.504094
0.501337
0.476351
0.462444
0.466831
0.481053
0.500317
0.524034
0.545592
0.559094
0.562424
0.563425
0.566711
0.571531
0.580733
0.587751
0.598914
0.606653
0.609804
0.600386
0.575343
0.539328
0.537678
0.552154
0.57259
0.595372
0.612405
0.614384
0.607872
0.594051
0.589422
0.570785
0.544055
0.534454
0.564497
0.468611
0.446752
0.454272
0.468411
0.49043
0.521826
0.551149
0.573927
0.5885
0.592925
0.597797
0.60543
0.611168
0.615812
0.617195
0.611052
0.59402
0.56686
0.535388
0.532615
0.543692
0.561654
0.581803
0.600502
0.609915
0.615283
0.609734
0.601511
0.594845
0.569444
0.558477
0.587893
0.66827
0.466948
0.42676
0.440169
0.45146
0.470391
0.501941
0.538657
0.569249
0.592432
0.612125
0.621003
0.625892
0.629803
0.62518
0.61447
0.593386
0.565835
0.537775
0.534611
0.542645
0.557181
0.574726
0.592297
0.606806
0.614312
0.621961
0.615051
0.610318
0.595247
0.567644
0.583786
0.657531
0.718613
0.479333
0.44062
0.429021
0.449985
0.459737
0.478375
0.510225
0.547164
0.572504
0.594597
0.610405
0.616361
0.614482
0.606303
0.585769
0.56516
0.545119
0.544227
0.550051
0.560213
0.574392
0.588749
0.603147
0.615231
0.624834
0.629225
0.621292
0.613684
0.584395
0.569679
0.619847
0.710591
0.727325
0.493292
0.447432
0.455556
0.459973
0.472285
0.481249
0.492909
0.510759
0.533191
0.551333
0.565917
0.573627
0.570412
0.567093
0.559231
0.555315
0.558658
0.56422
0.572063
0.581815
0.592642
0.603794
0.615579
0.625855
0.634522
0.633061
0.625938
0.608921
0.564028
0.58103
0.677347
0.722365
0.718839
0.517356
0.470442
0.461173
0.478199
0.484526
0.493294
0.500397
0.508755
0.519662
0.529222
0.539725
0.547762
0.553443
0.559391
0.564193
0.570223
0.578251
0.585862
0.59422
0.602732
0.611349
0.620799
0.63062
0.637349
0.64078
0.634148
0.623329
0.591968
0.557286
0.613057
0.703087
0.718028
0.679721
0.538925
0.486564
0.480528
0.489389
0.499289
0.506994
0.514096
0.519638
0.526945
0.535201
0.543346
0.552919
0.56114
0.570742
0.57999
0.589992
0.598913
0.60752
0.615684
0.623622
0.631314
0.638658
0.642898
0.643016
0.63984
0.630865
0.610952
0.566106
0.561898
0.663076
0.7041
0.692258
0.649222
0.56889
0.507629
0.49075
0.501875
0.510806
0.519157
0.526653
0.533459
0.539164
0.547544
0.555144
0.565426
0.575792
0.58635
0.598686
0.609132
0.619684
0.628755
0.636142
0.64219
0.646054
0.646188
0.641588
0.636689
0.630262
0.619719
0.585926
0.558032
0.589564
0.682251
0.694239
0.654087
0.643332
0.601856
0.532701
0.508624
0.512137
0.524155
0.531561
0.539092
0.545565
0.552014
0.558739
0.568144
0.577019
0.588632
0.598719
0.610641
0.621102
0.630441
0.636801
0.640624
0.641857
0.639884
0.634388
0.63093
0.628892
0.622761
0.605071
0.567873
0.560735
0.635782
0.680309
0.668851
0.643142
0.655033
0.63908
0.56559
0.520487
0.526072
0.534151
0.542655
0.549478
0.555359
0.559905
0.565944
0.571596
0.579904
0.588569
0.60073
0.613853
0.626145
0.63586
0.641032
0.641162
0.639428
0.6387
0.636322
0.634813
0.631799
0.622872
0.592523
0.56582
0.583702
0.659149
0.668932
0.645305
0.642295
0.690618
0.669017
0.602405
0.543556
0.536539
0.54702
0.552833
0.558712
0.561746
0.562054
0.563231
0.568807
0.580025
0.594889
0.612674
0.634084
0.659123
0.683092
0.69874
0.706565
0.707633
0.701684
0.691455
0.677064
0.657013
0.624439
0.580903
0.572121
0.623831
0.656606
0.648715
0.636107
0.657363
0.736204
0.698872
0.643153
0.567393
0.549798
0.556066
0.560741
0.562825
0.561886
0.558185
0.562397
0.573668
0.592464
0.62214
0.665034
0.712632
0.746956
0.7639
0.772445
0.775687
0.774849
0.770758
0.758815
0.732334
0.686548
0.612655
0.581794
0.594888
0.643058
0.645325
0.632643
0.635745
0.689799
0.766836
0.723226
0.686813
0.602111
0.560103
0.56147
0.563947
0.56272
0.559152
0.559766
0.569254
0.58877
0.624925
0.680496
0.73287
0.759777
0.773725
0.782177
0.78506
0.785287
0.784392
0.78052
0.764075
0.720377
0.647809
0.59713
0.593706
0.630754
0.638529
0.629116
0.623984
0.650678
0.725355
0.78138
0.738935
0.72833
0.648609
0.575014
0.564161
0.56482
0.562932
0.562063
0.567859
0.582674
0.615543
0.67006
0.7276
0.756391
0.772085
0.778727
0.774168
0.765027
0.760651
0.761979
0.756791
0.725499
0.654234
0.609671
0.602877
0.624095
0.632676
0.625464
0.616146
0.625765
0.674854
0.749234
0.79026
0.743711
0.761542
0.708676
0.607057
0.567309
0.566622
0.566334
0.570291
0.579664
0.602207
0.645624
0.705813
0.744832
0.762487
0.769268
0.758315
0.736089
0.718466
0.711717
0.711377
0.692401
0.639108
0.617412
0.609479
0.621796
0.627987
0.62133
0.610133
0.610689
0.639515
0.697563
0.763297
0.800515
0.739759
0.777636
0.763625
0.666148
0.582174
0.57174
0.573576
0.580208
0.593588
0.621528
0.670029
0.723729
0.748314
0.75986
0.752345
0.722713
0.686452
0.66134
0.652195
0.640309
0.629481
0.617707
0.61584
0.6256
0.624508
0.617027
0.60511
0.60138
0.618503
0.661244
0.719062
0.777266
0.816207
0.72428
0.780456
0.801039
0.741118
0.622628
0.580499
0.581732
0.588822
0.604326
0.635732
0.686684
0.730573
0.747738
0.752611
0.730609
0.685625
0.634134
0.609509
0.608954
0.61161
0.616761
0.628681
0.630491
0.625179
0.613749
0.599883
0.593421
0.603084
0.6353
0.681818
0.734345
0.792084
0.840359
0.704454
0.773552
0.81485
0.808641
0.700169
0.6009
0.591675
0.597401
0.612591
0.645737
0.696929
0.731759
0.745875
0.743797
0.713209
0.662222
0.611411
0.5969
0.599364
0.610276
0.635833
0.644615
0.632964
0.614971
0.596219
0.585761
0.588324
0.609381
0.643943
0.686788
0.73556
0.797012
0.859322
0.696147
0.749388
0.816668
0.840522
0.793881
0.657566
0.60395
0.607162
0.61954
0.65202
0.701399
0.729597
0.742102
0.736235
0.704191
0.654956
0.609624
0.603021
0.607892
0.629977
0.66002
0.649755
0.624213
0.600052
0.580608
0.575953
0.586373
0.608807
0.639662
0.678014
0.722773
0.776039
0.835546
0.695525
0.732233
0.794578
0.848683
0.851407
0.756454
0.631543
0.618392
0.626968
0.654489
0.700679
0.72545
0.73746
0.732128
0.705073
0.656667
0.617267
0.615562
0.623008
0.657924
0.668499
0.646766
0.612913
0.584384
0.56868
0.568306
0.578944
0.596398
0.619011
0.646026
0.680031
0.720988
0.765454
0.703885
0.727521
0.765479
0.836007
0.86891
0.844718
0.713182
0.633634
0.637365
0.655805
0.696103
0.71981
0.732187
0.730952
0.711738
0.670434
0.633014
0.632128
0.644229
0.67808
0.67054
0.640633
0.601776
0.571752
0.558718
0.558571
0.565075
0.573478
0.587812
0.608976
0.635804
0.664686
0.69288
0.71971
0.729771
0.7538
0.798771
0.868544
0.879483
0.819117
0.678498
0.650746
0.659955
0.687673
0.711148
0.724546
0.730828
0.727872
0.704944
0.664607
0.658398
0.663692
0.682361
0.668801
0.633306
0.591749
0.561241
0.548754
0.545541
0.546813
0.549992
0.558796
0.574029
0.595741
0.621298
0.648283
0.735284
0.739898
0.752506
0.773233
0.833844
0.888948
0.879201
0.778254
0.672826
0.669324
0.681356
0.701219
0.715419
0.727039
0.732568
0.722834
0.688819
0.676668
0.677612
0.682838
0.665935
0.628122
0.58522
0.552959
0.538952
0.532377
0.527976
0.525273
0.528189
0.53345
0.54379
0.56126
0.585575
0.745732
0.755233
0.758327
0.769039
0.79937
0.881938
0.90855
0.872307
0.733969
0.677691
0.681647
0.693109
0.708093
0.727716
0.741778
0.74342
0.716214
0.694669
0.691811
0.685084
0.666247
0.625678
0.581589
0.547863
0.53241
0.524851
0.518121
0.508124
0.49887
0.496792
0.496575
0.499231
0.505771
0.748749
0.766633
0.76629
0.770363
0.784292
0.856935
0.930624
0.927419
0.826871
0.694979
0.680765
0.68688
0.698638
0.720455
0.747241
0.757165
0.74448
0.712659
0.70058
0.689438
0.66776
0.630061
0.587995
0.552748
0.535098
0.52649
0.517553
0.504278
0.489933
0.479577
0.472586
0.465525
0.462743
0.744396
0.772174
0.773204
0.769022
0.773673
0.823928
0.930122
0.950315
0.899915
0.739363
0.67747
0.675712
0.684535
0.704297
0.743062
0.760948
0.76103
0.735978
0.716946
0.702283
0.677855
0.64289
0.600356
0.561521
0.540539
0.530306
0.519109
0.503959
0.487632
0.475577
0.466425
0.454845
0.442658
0.73402
0.770695
0.779533
0.766617
0.76462
0.791265
0.899122
0.959418
0.938624
0.80628
0.678906
0.664328
0.669959
0.687727
0.732546
0.762793
0.770102
0.755152
0.730652
0.712448
0.688051
0.654734
0.61484
0.571538
0.540124
0.525273
0.514665
0.502067
0.483894
0.469602
0.460355
0.450763
0.436282
0.720114
0.76366
0.784017
0.765676
0.755534
0.765254
0.845894
0.955065
0.951584
0.863279
0.69505
0.653118
0.653669
0.66787
0.710792
0.76123
0.776735
0.77542
0.75323
0.730672
0.702035
0.665726
0.625255
0.587
0.546812
0.521216
0.505659
0.492631
0.476386
0.461511
0.45259
0.445284
0.432217
0.705219
0.752484
0.783139
0.771941
0.748266
0.747349
0.796927
0.929047
0.955091
0.898868
0.730695
0.643691
0.637603
0.645992
0.679271
0.736538
0.770544
0.780573
0.772641
0.749934
0.720229
0.680829
0.632647
0.594169
0.560846
0.528785
0.501803
0.48084
0.461867
0.445699
0.438769
0.43325
0.423319
0.691024
0.739215
0.777535
0.780656
0.745532
0.733581
0.756091
0.876322
0.954509
0.92226
0.779758
0.641885
0.62321
0.625627
0.649857
0.696236
0.743631
0.768091
0.776673
0.769821
0.743678
0.705759
0.657792
0.605586
0.569639
0.538266
0.508208
0.479886
0.458032
0.440015
0.429133
0.424523
0.418473
0.677863
0.724364
0.767974
0.784694
0.754079
0.724242
0.728309
0.810926
0.947582
0.93472
0.831506
0.656152
0.614001
0.610254
0.62648
0.662175
0.698543
0.726474
0.753559
0.771351
0.764424
0.73655
0.697475
0.651619
0.603963
0.564695
0.529297
0.495631
0.466087
0.443701
0.430413
0.424824
0.416873
0.665426
0.708335
0.755612
0.782639
0.768017
0.722742
0.711602
0.750864
0.908641
0.943558
0.876403
0.693162
0.611616
0.601827
0.612118
0.638283
0.65524
0.669549
0.696113
0.731727
0.747912
0.744701
0.722827
0.694686
0.667694
0.63513
0.596508
0.552695
0.504681
0.464873
0.44092
0.430375
0.420219
0.653763
0.690666
0.739075
0.774458
0.776123
0.735434
0.704269
0.713346
0.829802
0.953309
0.904778
0.754472
0.616885
0.596273
0.607151
0.62318
0.628835
0.635876
0.642929
0.656232
0.680396
0.700712
0.706906
0.697981
0.689175
0.682344
0.670053
0.645782
0.60702
0.549818
0.492912
0.451381
0.430323
0.642938
0.67213
0.718391
0.759694
0.775257
0.751621
0.702414
0.693407
0.742587
0.921321
0.931633
0.832677
0.648388
0.598186
0.598921
0.613853
0.616535
0.619495
0.620399
0.619302
0.618328
0.61548
0.626235
0.641789
0.655888
0.67033
0.678917
0.684259
0.681
0.659379
0.611195
0.545793
0.474519
0.632119
0.652883
0.693984
0.737973
0.764005
0.758359
0.716177
0.683791
0.688421
0.815482
0.956371
0.89171
0.725089
0.608141
0.588972
0.60032
0.614989
0.620875
0.62209
0.616036
0.606733
0.590269
0.574313
0.563351
0.567654
0.582856
0.607078
0.638945
0.673696
0.689537
0.688251
0.656421
0.595718
0.621745
0.63367
0.667726
0.711014
0.744743
0.75206
0.731853
0.689141
0.67271
0.709306
0.919341
0.938633
0.830453
0.645573
0.591388
0.585974
0.601962
0.61381
0.630898
0.643687
0.641853
0.626475
0.600537
0.56311
0.540359
0.53537
0.539673
0.551088
0.576606
0.633569
0.69597
0.698868
0.67896
0.612916
0.61551
0.640319
0.680429
0.718802
0.735398
0.732489
0.709707
0.673761
0.664198
0.778888
0.963935
0.908186
0.739402
0.602615
0.578921
0.587388
0.599708
0.61469
0.642778
0.679087
0.692529
0.687059
0.663408
0.617644
0.558519
0.536408
0.536227
0.545362
0.563229
0.627969
0.700942
0.704014
0.605431
0.599343
0.613175
0.646078
0.685552
0.710619
0.720773
0.718059
0.691281
0.655186
0.658639
0.898875
0.96414
0.857649
0.653028
0.583475
0.572431
0.581305
0.594474
0.621385
0.661685
0.711841
0.750448
0.754121
0.747213
0.71541
0.637077
0.563208
0.547486
0.552661
0.569779
0.662566
0.707235
0.598942
0.585439
0.588535
0.611388
0.646531
0.677495
0.699611
0.712314
0.705569
0.664838
0.626752
0.724428
0.972524
0.944944
0.78147
0.609817
0.572425
0.56555
0.568723
0.58623
0.622291
0.680824
0.744847
0.800676
0.819869
0.82356
0.804696
0.714874
0.599509
0.568242
0.571326
0.594751
0.692088
0.593292
0.574439
0.568472
0.579096
0.605009
0.63785
0.670352
0.695804
0.705678
0.687714
0.630731
0.617827
0.856758
0.991958
0.908995
0.705699
0.593245
0.568232
0.558983
0.562793
0.581399
0.62212
0.694022
0.782663
0.845078
0.874843
0.889492
0.863152
0.759642
0.614494
0.581495
0.58183
0.633356
0.588694
0.565781
0.552804
0.551695
0.565987
0.595122
0.633253
0.669872
0.692962
0.69404
0.657099
0.587828
0.686252
0.979616
0.988885
0.850571
0.659811
0.592372
0.571126
0.563363
0.568762
0.593699
0.647221
0.735172
0.834458
0.892405
0.922979
0.938942
0.887772
0.747975
0.617917
0.593631
0.604793
0.584174
0.55857
0.540821
0.531417
0.53308
0.554293
0.591853
0.635123
0.670348
0.68685
0.67121
0.589612
0.604691
0.834509
1.02158
0.969338
0.807007
0.654345
0.603002
0.585387
0.581153
0.595193
0.640243
0.720354
0.823453
0.897652
0.94143
0.96704
0.963193
0.867596
0.693014
0.616284
0.608841
0.58067
0.55267
0.530897
0.515972
0.509573
0.519864
0.551255
0.595387
0.640051
0.671116
0.677869
0.623308
0.5746
0.673333
1.00973
1.03758
0.951542
0.804564
0.6796
0.628377
0.609567
0.615109
0.657202
0.735843
0.836061
0.911744
0.955863
0.983273
0.998895
0.945532
0.783094
0.653737
0.623722
0.577582
0.547316
0.521858
0.503434
0.493285
0.495421
0.516641
0.555809
0.605107
0.648775
0.674135
0.657926
0.573848
0.609301
0.890115
1.10129
1.06349
0.963612
0.829806
0.735953
0.690855
0.682752
0.721995
0.800621
0.880816
0.936541
0.973338
1.00025
1.01412
0.983059
0.849905
0.693522
0.642599
0.574356
0.542527
0.513811
0.493123
0.481417
0.479184
0.491206
0.522707
0.570223
0.622876
0.663844
0.670946
0.592835
0.587351
0.734756
1.09422
1.16028
1.094
0.974994
0.868882
0.809678
0.789556
0.82393
0.881915
0.926744
0.965827
0.98875
1.00368
1.00182
0.980595
0.859785
0.715818
0.657282
0.570696
0.537426
0.50691
0.484907
0.472984
0.468582
0.475366
0.497415
0.540263
0.597854
0.650782
0.676293
0.625218
0.580012
0.658201
1.0217
1.22748
1.19818
1.09007
0.986387
0.92098
0.899524
0.915212
0.937872
0.965477
0.987375
0.987295
0.982891
0.987577
0.94414
0.795801
0.706387
0.667049
0.566401
0.531953
0.500968
0.480079
0.467351
0.461545
0.464798
0.482615
0.518564
0.576018
0.6373
0.675554
0.640739
0.58059
0.618834
0.869763
1.21663
1.24893
1.15992
1.07063
1.00888
0.975637
0.968976
0.980461
0.991165
0.980188
0.975516
0.968983
0.917082
0.7906
0.706162
0.68667
0.677692
0.560746
0.525053
0.495693
0.476918
0.465131
0.458805
0.460199
0.475078
0.507112
0.561309
0.625517
0.669666
0.639799
0.577198
0.594405
0.753354
1.09214
1.24306
1.19384
1.11675
1.05855
1.02313
1.00842
0.999539
0.985005
0.967754
0.928048
0.824882
0.72278
0.697058
0.693451
0.698761
0.701562
0.553699
0.516808
0.490704
0.474438
0.464115
0.458677
0.45987
0.472711
0.503082
0.554228
0.616846
0.661456
0.630341
0.566832
0.576913
0.683958
0.969342
1.18079
1.18956
1.138
1.08642
1.03884
1.00381
0.979171
0.935749
0.83059
0.732965
0.698324
0.700848
0.708905
0.717858
0.733001
0.741232
0.545392
0.507414
0.484316
0.471438
0.463428
0.460188
0.462715
0.475584
0.50467
0.552847
0.611332
0.651213
0.610525
0.552225
0.566724
0.656278
0.885557
1.09275
1.14613
1.10186
1.03658
0.968366
0.919932
0.844256
0.761928
0.724582
0.712629
0.701208
0.695219
0.691856
0.702447
0.725751
0.747549
0.535711
0.497911
0.477887
0.467246
0.463399
0.463236
0.467824
0.482045
0.511057
0.556302
0.608959
0.639425
0.583339
0.537884
0.557223
0.64055
0.813608
0.938315
0.971161
0.941934
0.891903
0.841647
0.797518
0.752127
0.723506
0.693626
0.670878
0.660949
0.653446
0.641754
0.63525
0.668705
0.725959
0.525647
0.489411
0.472222
0.464841
0.464598
0.467692
0.475211
0.490894
0.520359
0.563042
0.608611
0.626308
0.553454
0.525469
0.550917
0.627585
0.728468
0.786056
0.821354
0.827686
0.804511
0.776164
0.739933
0.692467
0.669507
0.659508
0.660343
0.654404
0.644678
0.623375
0.604641
0.603524
0.663292
0.517277
0.483216
0.468848
0.464938
0.467305
0.473744
0.484601
0.501547
0.531042
0.570105
0.607975
0.609314
0.525882
0.514859
0.54535
0.608911
0.665916
0.721431
0.774662
0.776948
0.749739
0.70886
0.677492
0.661613
0.665705
0.673419
0.666389
0.656324
0.639538
0.616893
0.584067
0.572631
0.582146
0.511099
0.480359
0.468458
0.466912
0.47274
0.481564
0.494945
0.512231
0.541277
0.576413
0.605689
0.58704
0.503956
0.505756
0.539206
0.589767
0.64672
0.716405
0.751806
0.736325
0.706541
0.681592
0.673217
0.690352
0.69404
0.68484
0.676071
0.65836
0.641153
0.620282
0.586822
0.555573
0.549107
0.508632
0.481066
0.471498
0.471585
0.481245
0.491509
0.505343
0.521446
0.549153
0.580045
0.599834
0.560349
0.488552
0.500006
0.533908
0.587956
0.657304
0.72365
0.739319
0.714148
0.688063
0.681376
0.695436
0.693718
0.690643
0.696859
0.693048
0.686236
0.662555
0.633619
0.609873
0.56525
0.533116
0.509112
0.485104
0.478263
0.479702
0.492616
0.503528
0.514357
0.527492
0.553581
0.581786
0.589954
0.533795
0.478647
0.496908
0.535613
0.597379
0.675943
0.73283
0.722713
0.689997
0.667245
0.656507
0.647169
0.641425
0.667206
0.686897
0.696193
0.698896
0.697972
0.672846
0.62669
0.595978
0.549309
0.513571
0.49282
0.486593
0.491055
0.505462
0.515833
0.521483
0.530834
0.556679
0.579355
0.57409
0.507312
0.473136
0.497239
0.541547
0.614743
0.70264
0.727037
0.693329
0.645368
0.600998
0.568032
0.563325
0.596991
0.645924
0.673635
0.687979
0.699075
0.70305
0.701962
0.679498
0.623496
0.581862
0.521306
0.503066
0.497293
0.505075
0.519436
0.527502
0.525952
0.530525
0.557698
0.57482
0.55714
0.486314
0.471198
0.49976
0.549961
0.646962
0.707404
0.703594
0.642669
0.57061
0.522703
0.511575
0.53637
0.585264
0.63389
0.657954
0.675867
0.684528
0.691707
0.694954
0.69297
0.670189
0.614286
0.531653
0.515352
0.510136
0.520637
0.534599
0.538574
0.527201
0.528925
0.554482
0.566324
0.538232
0.471789
0.472001
0.50276
0.568722
0.664298
0.69528
0.655862
0.576132
0.513112
0.491248
0.504396
0.546758
0.60039
0.629216
0.647598
0.654451
0.663368
0.668472
0.67346
0.676011
0.674924
0.659356
0.54425
0.529505
0.525028
0.537274
0.550103
0.548111
0.527386
0.523508
0.543565
0.551694
0.515572
0.463567
0.473631
0.508086
0.592012
0.659834
0.666841
0.605096
0.540671
0.500155
0.501094
0.530916
0.576128
0.604507
0.618611
0.622662
0.629706
0.633484
0.636406
0.639287
0.644348
0.651431
0.655357
0.558616
0.545101
0.541369
0.554329
0.565607
0.556607
0.52727
0.516383
0.529879
0.533445
0.494893
0.461187
0.476798
0.51649
0.602905
0.648722
0.630836
0.577691
0.528827
0.514641
0.528863
0.561074
0.585285
0.592582
0.593545
0.595203
0.596265
0.593564
0.588443
0.587475
0.591921
0.604594
0.623405
0.573987
0.561555
0.558742
0.571224
0.580851
0.565706
0.528087
0.50719
0.512564
0.513496
0.478518
0.461128
0.480727
0.525539
0.602161
0.634216
0.602238
0.566724
0.532941
0.540464
0.565322
0.586755
0.581376
0.573489
0.568518
0.562967
0.550835
0.535502
0.523468
0.520134
0.52528
0.541182
0.57101
0.588954
0.578051
0.576194
0.58766
0.595767
0.577575
0.529698
0.496525
0.492986
0.493348
0.465625
0.461245
0.483146
0.532153
0.595585
0.620898
0.58867
0.565788
0.548127
0.57389
0.608004
0.597477
0.577116
0.556838
0.540993
0.516813
0.487408
0.45808
0.435296
0.429494
0.437941
0.460874
0.503532
0.604088
0.5944
0.593152
0.603978
0.611357
0.592453
0.533309
0.487946
0.474117
0.474087
0.456406
0.460779
0.48295
0.533194
0.586396
0.608696
0.583786
0.573957
0.571704
0.614296
0.639733
0.60769
0.568014
0.537539
0.499221
0.449926
0.397579
0.353914
0.326757
0.32234
0.335997
0.370749
0.427856
0.618019
0.610001
0.608946
0.619457
0.62733
0.609606
0.540533
0.482811
0.459832
0.457986
0.449963
0.458095
0.480506
0.530781
0.577098
0.601276
0.587797
0.584854
0.594404
0.656485
0.664661
0.613401
0.559826
0.505924
0.436342
0.363142
0.298156
0.260706
0.249531
0.250177
0.262079
0.294827
0.359953
0.6297
0.625519
0.623844
0.63313
0.641171
0.625429
0.553264
0.482918
0.449983
0.445597
0.444646
0.453504
0.476322
0.525425
0.569581
0.595968
0.591805
0.594357
0.619295
0.698666
0.68444
0.616226
0.543836
0.456014
0.358957
0.281439
0.246519
0.236285
0.234266
0.23705
0.249079
0.277545
0.329107
0.638007
0.638016
0.636084
0.643523
0.652338
0.639365
0.572617
0.487899
0.443573
0.43641
0.439097
0.448361
0.472193
0.519666
0.562352
0.590066
0.591011
0.599226
0.645633
0.727105
0.700096
0.619261
0.516416
0.39522
0.295445
0.25268
0.240949
0.236122
0.237274
0.245872
0.261848
0.28753
0.328118
0.641282
0.646268
0.645607
0.650244
0.657986
0.649279
0.592797
0.503085
0.441457
0.430407
0.433121
0.442704
0.466082
0.510783
0.555907
0.583574
0.586382
0.603617
0.677983
0.744529
0.713566
0.61678
0.481882
0.340786
0.269392
0.252476
0.248948
0.254561
0.265117
0.27602
0.288665
0.30943
0.341446
0.636952
0.648681
0.651
0.653357
0.656936
0.650256
0.61022
0.528002
0.44337
0.426288
0.42701
0.435723
0.457082
0.499253
0.54632
0.576054
0.579287
0.602769
0.708938
0.757126
0.731198
0.62288
0.461977
0.315793
0.267588
0.256023
0.260125
0.270253
0.280954
0.288124
0.295011
0.311622
0.337722
0.620777
0.642323
0.64994
0.651472
0.653783
0.643865
0.618536
0.553487
0.457407
0.424365
0.421361
0.429641
0.448575
0.487156
0.536483
0.56737
0.570803
0.598612
0.725534
0.766406
0.751913
0.645815
0.470947
0.316583
0.270294
0.259157
0.260458
0.266985
0.267347
0.270616
0.274925
0.281052
0.292991
0.594847
0.625767
0.641988
0.645579
0.651033
0.6385
0.614151
0.569849
0.48763
0.427269
0.417865
0.424449
0.440027
0.472428
0.524694
0.557113
0.559464
0.588745
0.721334
0.774991
0.782225
0.717187
0.547546
0.358654
0.290394
0.268782
0.261887
0.268358
0.269734
0.265974
0.265739
0.265255
0.272502
0.911259
0.896348
0.777582
0.872906
1.0113
0.948702
0.867699
0.839661
0.911121
0.90326
0.794991
0.850417
1.04175
0.960707
0.882211
0.870161
0.919086
0.913029
0.815298
0.82391
1.03772
0.973751
0.873465
0.856743
0.944866
0.944368
0.857894
0.828762
0.998192
1.02861
0.843843
0.792725
0.997158
0.999413
0.918322
0.8628
0.932313
1.0834
0.918143
0.753077
1.07294
1.06219
0.976369
0.901819
0.898197
1.03143
1.00807
0.846774
1.14033
1.08799
1.00077
0.916239
0.886298
0.899087
0.990981
0.918456
1.14172
1.05927
0.982781
0.909007
0.861634
0.82405
0.841188
0.874646
1.08216
0.995794
0.94031
0.891019
0.840702
0.791807
0.748365
0.745912
0.986664
0.934832
0.906808
0.875564
0.831131
0.781838
0.73134
0.689686
0.928949
0.90853
0.889454
0.864241
0.824825
0.778705
0.730466
0.68609
0.905081
0.897726
0.883841
0.854282
0.811815
0.765459
0.723716
0.68531
0.900286
0.891676
0.868771
0.830406
0.770973
0.729247
0.696924
0.670178
0.882088
0.866785
0.837194
0.775414
0.718279
0.687614