/*--------------------------------*- C++ -*----------------------------------*\
  =========                 |
  \\      /  F ield         | OpenFOAM: The Open Source CFD Toolbox
   \\    /   O peration     | Website:  https://openfoam.org
    \\  /    A nd           | Version:  11
     \\/     M anipulation  |
\*---------------------------------------------------------------------------*/
FoamFile
{
    format      ascii;
    class       volVectorField;
    location    "9.5";
    object      U;
}
// * * * * * * * * * * * * * * * * * * * * * * * * * * * * * * * * * * * * * //

dimensions      [0 1 -1 0 0 0 0];

internalField   nonuniform List<vector> 
9600
(
(0.967934 0.00121072 5.12522e-21)
(0.965308 0.00187279 0)
(0.960239 0.00199908 0)
(0.95659 0.00213631 8.89228e-23)
(0.953678 0.00261927 0)
(0.949588 0.00295892 -9.46889e-23)
(0.943518 0.00289969 -3.12058e-21)
(0.940375 0.00236862 3.13659e-21)
(0.939518 0.00274766 -3.21501e-21)
(0.935739 0.00250136 3.22919e-21)
(0.932774 0.00142515 0)
(0.933185 0.000833636 -2.92978e-21)
(0.935626 5.84431e-05 2.98296e-21)
(0.939152 -0.000759045 -3.92651e-23)
(0.944257 -0.00159028 9.60482e-22)
(0.951203 -0.00298307 -9.50316e-22)
(0.961822 -0.00380776 0)
(0.971405 -0.00368368 4.46755e-23)
(0.980678 -0.00420782 -4.4715e-23)
(0.994966 -0.00296748 1.33018e-24)
(0.997815 -0.000864088 -1.92397e-24)
(0.994852 0.00017553 -6.06754e-22)
(0.986843 0.000624925 6.1647e-22)
(0.971788 -0.000173897 0)
(0.958016 -0.00125865 0)
(0.942717 -0.0027971 -4.84981e-22)
(0.929079 -0.00444071 3.61976e-22)
(0.921358 -0.00500491 1.32622e-22)
(0.918781 -0.00599062 1.07701e-23)
(0.918982 -0.00591837 -1.94968e-23)
(0.916913 -0.00450686 0)
(0.908148 -0.00249294 1.94961e-21)
(0.881488 0.00222547 -1.92893e-21)
(0.840915 0.00136606 -1.93566e-21)
(0.811271 -0.000781028 1.92501e-21)
(0.782943 -0.00239463 6.02552e-23)
(0.769244 -0.00966308 0)
(0.765688 -0.0121215 4.2845e-21)
(0.76773 -0.0217346 -4.30409e-21)
(0.801378 -0.0218519 6.98347e-23)
(0.970134 0.000294869 2.53097e-22)
(0.968882 0.000458029 0)
(0.967519 0.000479739 0)
(0.965037 -0.000154203 -2.74743e-22)
(0.963452 -0.000551597 -6.13018e-21)
(0.961669 -0.00043291 9.60917e-21)
(0.960536 -0.000914142 -3.1687e-21)
(0.958403 -0.0014273 -1.01915e-22)
(0.957452 -0.00153328 -1.02062e-22)
(0.957804 -0.00168035 0)
(0.958941 -0.00173334 -1.00371e-22)
(0.961072 -0.00200698 -3.08731e-21)
(0.965001 -0.00176181 4.3155e-21)
(0.969768 -0.00157957 -1.36344e-21)
(0.977646 -0.00149688 -1.69444e-23)
(0.9885 -0.00170163 0)
(0.998855 -0.00101487 -1.16191e-22)
(1.0117 -0.000847348 1.30241e-22)
(1.02347 -0.000588742 1.28981e-22)
(1.03201 -0.000140737 -1.30398e-22)
(1.0409 0.00111977 -2.77431e-22)
(1.04048 0.00213499 2.63011e-22)
(1.03617 0.00371268 0)
(1.02441 0.0054227 1.13729e-21)
(1.00715 0.00662619 -1.13819e-21)
(0.99256 0.00753683 -1.13451e-23)
(0.983341 0.0077888 2.32329e-22)
(0.980815 0.00620097 -2.38575e-22)
(0.981787 0.00585472 -2.83079e-23)
(0.98835 0.00548609 -1.35579e-21)
(1.00152 0.00541266 1.46585e-21)
(1.00872 0.00707414 -1.98905e-21)
(1.0093 0.00918816 1.93067e-21)
(1.00257 0.0133196 -6.05806e-23)
(0.975864 0.0123104 3.98434e-21)
(0.938574 0.0141537 -3.92456e-21)
(0.90615 0.0142293 0)
(0.877728 0.0195052 4.15033e-21)
(0.851328 0.0175254 -4.18601e-21)
(0.845407 0.0152662 -2.07916e-22)
(0.969373 0.000274311 5.34713e-21)
(0.968185 0.000818031 -1.77253e-22)
(0.966751 0.00138158 0)
(0.964291 0.00148801 1.87935e-22)
(0.962146 0.00199768 0)
(0.960799 0.00219455 -3.42782e-21)
(0.959954 0.00203255 -4.90523e-23)
(0.958255 0.00179723 3.41903e-21)
(0.957729 0.00179753 1.04396e-22)
(0.958157 0.00161495 0)
(0.959437 0.00116117 3.0747e-22)
(0.961855 -0.000173936 -3.03327e-21)
(0.965998 -0.000905928 3.13648e-21)
(0.971531 -0.00266357 1.20793e-22)
(0.978804 -0.00404496 -6.57229e-23)
(0.988585 -0.00592513 2.40178e-23)
(1.00058 -0.0064747 -1.28682e-22)
(1.01174 -0.00698994 1.97093e-22)
(1.02577 -0.00646727 -7.46114e-23)
(1.03181 -0.00483543 2.8744e-24)
(1.0407 -0.00205004 -4.10968e-24)
(1.04166 0.00164361 -6.43536e-22)
(1.0379 0.00420591 6.52333e-22)
(1.02907 0.00666219 1.18927e-21)
(1.01184 0.00683048 -1.1878e-21)
(0.992861 0.00382757 0)
(0.980096 -3.5594e-05 1.40218e-23)
(0.976609 -0.00346858 -1.32457e-23)
(0.978749 -0.00610399 1.79632e-23)
(0.98866 -0.00839068 -1.0514e-22)
(1.00865 -0.00810276 -1.49201e-22)
(1.02709 -0.00433938 2.10937e-21)
(1.03673 0.00301906 6.71252e-23)
(1.0348 0.0102022 -1.96275e-21)
(1.01916 0.0132411 -1.21972e-22)
(0.974205 0.0140679 0)
(0.927449 0.00473044 -1.25197e-22)
(0.892417 -0.000937539 4.30473e-21)
(0.864792 -0.00986914 -4.27357e-21)
(0.858683 -0.00732308 1.39608e-22)
(0.969385 0.000720319 3.57026e-22)
(0.967916 0.00110278 -1.84435e-22)
(0.966555 0.0018569 0)
(0.964142 0.00196399 0)
(0.961931 0.00157208 -6.09974e-21)
(0.960597 0.00122051 6.33749e-21)
(0.959777 0.000607211 3.18851e-21)
(0.957885 -0.000159448 -3.20466e-21)
(0.957464 -0.000746075 3.42752e-21)
(0.958011 -0.00152632 -3.22605e-21)
(0.959801 -0.0023477 -2.09919e-22)
(0.962243 -0.0040041 -9.82666e-23)
(0.966724 -0.00443874 -9.29355e-23)
(0.972762 -0.00600928 -8.19895e-23)
(0.980145 -0.0069209 1.0459e-21)
(0.99007 -0.00865141 -2.98211e-22)
(1.00257 -0.00769753 -7.22316e-22)
(1.01326 -0.00814196 1.12945e-22)
(1.02574 -0.00625309 5.68182e-24)
(1.03476 -0.00420624 -5.96183e-24)
(1.0414 -0.00124552 3.04435e-22)
(1.04201 0.00280619 -9.76905e-22)
(1.03781 0.00577385 7.21167e-22)
(1.02958 0.00966941 8.51029e-23)
(1.0158 0.0124341 0)
(0.997918 0.011883 0)
(0.982842 0.0100406 3.80912e-22)
(0.974649 0.00630979 -3.98971e-22)
(0.974252 0.00177191 -7.08182e-22)
(0.980544 -0.00272815 7.7239e-22)
(0.999409 -0.00570543 9.98458e-23)
(1.02417 -0.00270168 -1.19736e-22)
(1.04392 0.00180052 1.29026e-22)
(1.05091 0.0135721 -2.03988e-21)
(1.04482 0.0201647 5.9552e-21)
(1.01932 0.0318431 -7.87134e-21)
(0.97405 0.0316816 3.82098e-21)
(0.935312 0.0351853 -2.5516e-22)
(0.89334 0.0265778 3.99468e-22)
(0.86732 0.0182132 -2.70409e-22)
(0.968923 0.000762852 5.48569e-21)
(0.967544 0.00104563 -3.66839e-24)
(0.965847 0.00186945 0)
(0.963561 0.00185005 0)
(0.961411 0.00181399 -4.13596e-22)
(0.960294 0.00134721 6.40163e-22)
(0.959069 0.00104268 -3.27574e-21)
(0.957705 0.000686381 6.81523e-21)
(0.957735 0.000439182 -3.52031e-21)
(0.958398 -0.00021569 -2.18144e-22)
(0.960382 -0.000741017 0)
(0.963111 -0.00266548 -6.204e-21)
(0.967471 -0.00323316 6.22927e-21)
(0.974168 -0.0054285 -1.34145e-21)
(0.982361 -0.00681991 1.11657e-21)
(0.991092 -0.00958435 -9.5076e-23)
(1.00274 -0.00942132 -1.28422e-22)
(1.01522 -0.010066 2.0307e-22)
(1.0258 -0.00871327 -9.9141e-23)
(1.03666 -0.00635183 3.09099e-24)
(1.04235 -0.00226485 3.10403e-22)
(1.04306 0.00331841 -1.01402e-21)
(1.03803 0.00724184 6.58063e-22)
(1.02925 0.011364 -8.72647e-23)
(1.01772 0.0147813 -7.88954e-23)
(1.0013 0.0131505 -7.89395e-22)
(0.984599 0.00791853 7.04672e-22)
(0.973575 0.00094082 -8.02245e-24)
(0.971128 -0.00404121 -1.01114e-23)
(0.975215 -0.00975878 0)
(0.989274 -0.015635 -9.01679e-23)
(1.01634 -0.0135357 0)
(1.0449 -0.00875034 -3.91461e-22)
(1.06266 0.00689063 0)
(1.06334 0.0177081 0)
(1.04927 0.0295999 -4.02377e-21)
(1.00974 0.0277609 4.26431e-21)
(0.967645 0.0259972 4.78622e-21)
(0.921913 0.0162622 -4.50687e-21)
(0.883621 0.0100374 2.76385e-22)
(0.968737 0.0013474 0)
(0.967209 0.00153431 -4.06178e-24)
(0.965347 0.0024357 0)
(0.963446 0.00270769 0)
(0.961227 0.00248097 -6.93084e-21)
(0.959831 0.00192838 2.99913e-21)
(0.958726 0.00156363 7.15633e-21)
(0.957556 0.000598853 -3.61591e-21)
(0.957702 -0.00012924 0)
(0.958255 -0.00171661 0)
(0.9606 -0.00280996 0)
(0.963537 -0.00578816 -2.73979e-21)
(0.967836 -0.00683264 2.97687e-21)
(0.974228 -0.0101912 1.35038e-21)
(0.983801 -0.0115165 -1.31907e-21)
(0.992297 -0.014539 -5.21004e-22)
(1.00375 -0.01395 5.03595e-22)
(1.0162 -0.0146364 9.17941e-23)
(1.02772 -0.0119692 1.61108e-22)
(1.03717 -0.00906425 -1.61108e-22)
(1.04312 -0.00310497 -9.31836e-24)
(1.04478 0.00306234 -4.4674e-23)
(1.04038 0.00832902 9.63783e-23)
(1.03075 0.0130511 0)
(1.01854 0.0173342 8.09604e-23)
(1.00313 0.0175185 8.79912e-22)
(0.987574 0.0156045 -6.99921e-22)
(0.97419 0.0096913 -2.70354e-22)
(0.968064 0.0015962 -1.33005e-22)
(0.970153 -0.00640668 4.01294e-22)
(0.981674 -0.0168219 1.89857e-21)
(1.00651 -0.016968 -1.40366e-21)
(1.03538 -0.0166219 2.657e-22)
(1.0623 -0.000544532 2.19245e-21)
(1.07559 0.0132741 2.02244e-21)
(1.07234 0.0348157 -3.90629e-21)
(1.04746 0.0444025 0)
(1.00398 0.0524657 4.10156e-21)
(0.954677 0.0491711 4.14072e-22)
(0.900218 0.0291458 -4.43866e-21)
(0.968025 0.00136027 7.0228e-21)
(0.966478 0.00147531 -4.39486e-24)
(0.964446 0.0024282 0)
(0.962738 0.00254578 0)
(0.960605 0.00245805 6.71315e-21)
(0.958945 0.00158369 -6.75557e-21)
(0.958079 0.00107741 3.699e-21)
(0.957171 -9.00485e-05 4.59991e-22)
(0.957503 -0.000837809 -3.73337e-21)
(0.958291 -0.00259307 3.59203e-21)
(0.960949 -0.00323638 -3.17481e-21)
(0.963604 -0.00623999 -3.4022e-21)
(0.969342 -0.00696076 3.58679e-21)
(0.974806 -0.0105807 0)
(0.985276 -0.0116395 1.03331e-21)
(0.99307 -0.014899 -1.54562e-21)
(1.00543 -0.0143301 4.75968e-22)
(1.0173 -0.0149898 2.13046e-22)
(1.02954 -0.0120683 5.36008e-23)
(1.03796 -0.00878548 -1.72534e-22)
(1.04413 -0.00272439 -3.30319e-22)
(1.04637 0.00419184 -4.31792e-22)
(1.04276 0.0107962 6.70784e-22)
(1.03288 0.0158136 1.4947e-21)
(1.02004 0.0209178 -1.49163e-21)
(1.00394 0.0213343 -9.71051e-22)
(0.988566 0.0175545 9.77054e-22)
(0.975118 0.0095785 5.82227e-23)
(0.967516 0.00111247 0)
(0.967811 -0.00641907 -1.03773e-21)
(0.975547 -0.0206866 8.30515e-22)
(0.995686 -0.0232843 1.73762e-21)
(1.02426 -0.0265352 -1.9593e-21)
(1.05668 -0.0120039 -2.53608e-21)
(1.07916 0.00412133 1.95958e-21)
(1.08512 0.0289581 4.46109e-24)
(1.07068 0.0418533 0)
(1.03486 0.0520433 3.58655e-21)
(0.992703 0.0573514 -4.066e-22)
(0.92485 0.0371011 -3.33782e-21)
(0.967548 0.00200716 5.65843e-21)
(0.966133 0.00213975 -4.22942e-22)
(0.963989 0.00312445 7.01175e-21)
(0.962324 0.00317426 -7.06498e-21)
(0.960304 0.00315326 4.57125e-22)
(0.958486 0.00213752 -4.67599e-22)
(0.957796 0.00146091 0)
(0.956937 -4.8182e-05 2.8563e-21)
(0.957691 -0.000819453 -3.82811e-21)
(0.958441 -0.0031215 0)
(0.961537 -0.00402662 2.59754e-21)
(0.963888 -0.00816811 -3.09974e-21)
(0.970387 -0.00954562 -2.36123e-24)
(0.975194 -0.0142762 0)
(0.985933 -0.015722 8.94771e-22)
(0.99429 -0.0193664 -8.03959e-22)
(1.00698 -0.0188699 -6.4584e-23)
(1.01815 -0.0197103 2.19038e-22)
(1.0308 -0.0160326 1.45935e-23)
(1.03941 -0.0121645 -2.00491e-22)
(1.04583 -0.00509032 0)
(1.04791 0.00290501 -7.13212e-22)
(1.04499 0.0111225 7.03142e-22)
(1.03556 0.0173492 0)
(1.02252 0.0229935 1.93569e-22)
(1.00562 0.0241758 0)
(0.989652 0.0222886 4.86792e-22)
(0.976356 0.0163193 -1.42695e-21)
(0.964872 0.00462055 6.98093e-22)
(0.964809 -0.00338377 1.32246e-22)
(0.969896 -0.0207653 1.35166e-21)
(0.989696 -0.0268615 -3.64712e-21)
(1.01107 -0.0348316 2.19437e-21)
(1.04777 -0.0256081 -2.30844e-21)
(1.07374 -0.00899743 6.81325e-21)
(1.09247 0.018088 -4.75988e-21)
(1.08723 0.0430329 0)
(1.06061 0.0566194 4.20449e-21)
(1.02959 0.0771915 2.99742e-22)
(0.96276 0.0584254 -4.39657e-21)
(0.966716 0.00195903 0)
(0.965314 0.00201342 8.57642e-22)
(0.963119 0.00294362 0)
(0.961457 0.00288396 9.31067e-22)
(0.959507 0.00288243 6.6985e-21)
(0.957668 0.00163712 -3.82339e-21)
(0.957165 0.000825835 -3.91781e-21)
(0.956454 -0.00100329 4.92397e-22)
(0.957524 -0.00190553 0)
(0.958306 -0.00463294 0)
(0.961681 -0.00565467 4.03891e-21)
(0.964209 -0.0103165 -4.03185e-21)
(0.971067 -0.0115055 -5.88006e-22)
(0.976047 -0.0162693 -1.66814e-22)
(0.987096 -0.0176258 8.88947e-22)
(0.995152 -0.0213512 -8.03706e-22)
(1.0085 -0.0205066 -4.85514e-23)
(1.01963 -0.0211068 2.25882e-22)
(1.03227 -0.0168492 2.25595e-23)
(1.04157 -0.0124742 -2.00765e-22)
(1.04802 -0.00449977 -2.19316e-23)
(1.0495 0.00407463 -9.07792e-22)
(1.04742 0.0133556 9.65923e-22)
(1.03849 0.0203512 1.1318e-22)
(1.02588 0.0267486 -4.07417e-22)
(1.0085 0.0291727 0)
(0.990274 0.0263236 9.42152e-22)
(0.977273 0.0207279 -6.49506e-22)
(0.963447 0.00790198 -4.39825e-23)
(0.961723 -0.000573714 -9.00281e-23)
(0.963422 -0.0188782 1.46796e-22)
(0.983089 -0.0294543 2.12573e-21)
(1.00055 -0.0395055 -2.42097e-21)
(1.03611 -0.0383739 5.86314e-22)
(1.06636 -0.0220756 2.95649e-22)
(1.09395 0.00250337 -5.00065e-21)
(1.09916 0.0388024 4.39101e-21)
(1.0813 0.0524034 3.8764e-21)
(1.0553 0.0823349 -3.82375e-21)
(0.995387 0.0711008 0)
(0.966141 0.00268944 0)
(0.964754 0.00270018 0)
(0.962483 0.00368145 8.47094e-21)
(0.960827 0.00350224 -1.63091e-20)
(0.959143 0.00342009 7.80268e-21)
(0.957069 0.00206243 0)
(0.956933 0.00101444 4.04574e-21)
(0.956246 -0.00109408 -3.86627e-23)
(0.957606 -0.00225707 -3.55591e-21)
(0.958386 -0.0055425 0)
(0.962122 -0.00669968 -4.72576e-22)
(0.96464 -0.0117921 4.41021e-22)
(0.971873 -0.0132894 1.877e-21)
(0.976769 -0.018738 -1.31084e-21)
(0.988174 -0.0205973 0)
(0.995968 -0.0246461 4.95566e-22)
(1.00966 -0.0240783 -5.66182e-22)
(1.02142 -0.0246118 -1.83447e-22)
(1.03387 -0.0201708 2.0295e-22)
(1.04324 -0.0150247 -7.28574e-25)
(1.05037 -0.00625851 4.47311e-22)
(1.05216 0.00328212 -4.01155e-22)
(1.0502 0.0134735 1.20228e-22)
(1.04163 0.0220147 -1.16513e-22)
(1.02817 0.0291932 2.14491e-22)
(1.01277 0.0331409 0)
(0.991612 0.0300687 0)
(0.978003 0.0264509 -1.72877e-22)
(0.962387 0.0124566 2.37851e-22)
(0.958607 0.00263042 -2.02277e-22)
(0.956446 -0.01655 0)
(0.974331 -0.0316383 -2.03952e-21)
(0.989832 -0.0429275 2.10386e-21)
(1.02384 -0.0503665 -2.73055e-21)
(1.05614 -0.0361288 2.41255e-21)
(1.08717 -0.0212033 -4.02389e-21)
(1.10742 0.0259358 4.5766e-21)
(1.09894 0.0446393 0)
(1.07991 0.0833865 0)
(1.02424 0.0839876 4.23174e-22)
(0.965186 0.00254105 -7.71716e-23)
(0.963807 0.00249048 8.29692e-21)
(0.9616 0.00333011 -9.6185e-22)
(0.95974 0.00295449 -1.00218e-21)
(0.958452 0.00290806 -8.20405e-21)
(0.956417 0.00141821 1.24162e-20)
(0.956424 0.000113457 -4.19318e-21)
(0.955764 -0.00235085 4.15982e-21)
(0.957444 -0.00366362 -5.2194e-21)
(0.958202 -0.0074381 -4.45896e-21)
(0.96229 -0.00881252 8.21184e-21)
(0.964828 -0.0143336 -7.64661e-21)
(0.972488 -0.0162088 3.44539e-21)
(0.97753 -0.0220279 0)
(0.989167 -0.0239132 0)
(0.997309 -0.0278025 -6.5087e-22)
(1.01095 -0.0274087 5.32947e-22)
(1.02285 -0.027272 8.27911e-24)
(1.03561 -0.0222459 -2.58521e-22)
(1.04539 -0.0164866 2.53616e-22)
(1.05282 -0.00714329 -2.40698e-23)
(1.05522 0.00351711 -9.68842e-22)
(1.05333 0.014847 8.43712e-22)
(1.0455 0.0245834 1.96945e-21)
(1.03058 0.0319269 -1.96435e-21)
(1.01686 0.0380579 0)
(0.994725 0.0352629 0)
(0.979704 0.0318651 -2.33702e-22)
(0.961297 0.0191137 4.68684e-22)
(0.955832 0.00673107 -4.66154e-22)
(0.95053 -0.0111361 1.22046e-21)
(0.964995 -0.0306085 8.38106e-22)
(0.978786 -0.0434769 -1.76104e-21)
(1.0103 -0.0608749 -2.48623e-21)
(1.04368 -0.0475944 7.53732e-21)
(1.07953 -0.0414612 -4.38865e-21)
(1.10809 0.00497947 -5.91343e-22)
(1.11314 0.031209 3.88111e-21)
(1.10379 0.0805395 -3.37852e-21)
(1.05238 0.0912069 -3.41493e-23)
(0.964484 0.00330322 -7.59207e-21)
(0.963027 0.00319323 1.45328e-20)
(0.961012 0.00390272 1.82137e-22)
(0.958779 0.00355339 -1.65659e-20)
(0.957788 0.00316534 1.05251e-20)
(0.955957 0.00169039 0)
(0.95624 0.0001079 0)
(0.955443 -0.00290545 1.08524e-21)
(0.957426 -0.0044445 5.34497e-22)
(0.958129 -0.00865284 -3.02148e-21)
(0.962526 -0.0102743 4.09615e-21)
(0.965044 -0.0162599 -3.50151e-21)
(0.973152 -0.0185648 5.04241e-21)
(0.978201 -0.024348 -1.18445e-21)
(0.990174 -0.0269079 8.71871e-22)
(0.998471 -0.03065 -1.23988e-21)
(1.01245 -0.0304368 4.3384e-22)
(1.02445 -0.0299196 2.68639e-22)
(1.03732 -0.024943 -3.54211e-23)
(1.04826 -0.0183667 -2.56952e-22)
(1.05562 -0.00839383 0)
(1.058 0.00325467 -9.09093e-22)
(1.05578 0.0150864 1.03413e-21)
(1.05032 0.0269736 0)
(1.03455 0.0346398 0)
(1.02094 0.0421276 1.62938e-21)
(0.998017 0.0411652 -2.86463e-21)
(0.981651 0.0373735 1.75023e-21)
(0.960648 0.0261643 -1.63401e-22)
(0.953102 0.0118813 0)
(0.944764 -0.0053243 -1.04824e-21)
(0.955016 -0.029668 9.55674e-22)
(0.968154 -0.0415184 -4.75243e-22)
(0.99367 -0.0686749 0)
(1.03092 -0.0610763 0)
(1.06685 -0.0610121 -5.78062e-21)
(1.10437 -0.0214589 5.6934e-21)
(1.11871 0.00944306 3.49374e-21)
(1.12597 0.0664795 -4.92411e-21)
(1.07895 0.093073 -4.10934e-22)
(0.963486 0.00302183 -7.89917e-21)
(0.96182 0.0027201 8.98834e-21)
(0.960231 0.00334768 0)
(0.95784 0.00289815 2.15476e-21)
(0.956923 0.00230142 -2.20055e-21)
(0.955182 0.000686447 5.57737e-21)
(0.955853 -0.00105453 -5.62032e-21)
(0.955035 -0.00442415 5.19075e-24)
(0.957337 -0.00628436 -4.34759e-21)
(0.957955 -0.010996 7.48522e-21)
(0.962684 -0.0129028 -3.19353e-21)
(0.965226 -0.0192866 4.05596e-21)
(0.97367 -0.0218815 -2.05195e-21)
(0.978817 -0.0280173 -1.91394e-21)
(0.991025 -0.0309402 0)
(0.999948 -0.0343198 0)
(1.01362 -0.0345566 0)
(1.02683 -0.0332486 3.01929e-22)
(1.03921 -0.0282601 -1.92974e-22)
(1.05096 -0.0206999 0)
(1.05805 -0.0100036 -4.92538e-22)
(1.06259 0.00297177 -6.14499e-22)
(1.05851 0.0152951 -2.06706e-22)
(1.05489 0.0285927 1.16689e-21)
(1.03881 0.0374114 0)
(1.02568 0.0462554 -2.0685e-21)
(1.0019 0.0465176 3.84762e-22)
(0.984742 0.0434072 1.45021e-21)
(0.962391 0.034747 -3.59154e-23)
(0.95063 0.0176818 0)
(0.940169 0.00270355 -7.47842e-22)
(0.94328 -0.0263226 7.4256e-22)
(0.956586 -0.038021 9.31139e-22)
(0.975877 -0.0699304 -1.9692e-21)
(1.01444 -0.0714389 7.37044e-21)
(1.05146 -0.0793542 -5.45972e-21)
(1.097 -0.0483655 0)
(1.11785 -0.0210192 4.83963e-21)
(1.14652 0.0428765 -4.236e-21)
(1.10454 0.0883403 -3.84615e-22)
(0.962529 0.00369012 0)
(0.960813 0.00342435 8.50951e-21)
(0.959395 0.0037762 1.776e-22)
(0.957034 0.00326777 -1.11326e-20)
(0.956217 0.00244599 9.15675e-21)
(0.954444 0.000492101 -9.23729e-21)
(0.955383 -0.00146836 1.16068e-21)
(0.954526 -0.00523981 3.43108e-21)
(0.957196 -0.00740652 -5.77439e-21)
(0.957714 -0.0125724 5.42876e-21)
(0.962805 -0.014845 -8.40525e-21)
(0.965252 -0.0214078 3.59211e-21)
(0.974094 -0.0249952 1.57891e-21)
(0.979803 -0.0305482 -1.58694e-21)
(0.991628 -0.0345407 -1.11656e-21)
(1.00187 -0.0372061 1.24596e-21)
(1.01461 -0.0380619 -3.23976e-22)
(1.02898 -0.0360295 -3.919e-23)
(1.0417 -0.0308589 -5.86005e-23)
(1.05367 -0.0225168 2.40891e-23)
(1.06047 -0.011327 -5.31321e-22)
(1.06667 0.00263234 3.90504e-22)
(1.06253 0.0161329 -6.77649e-24)
(1.05972 0.0303647 2.82973e-21)
(1.04322 0.0407364 -2.49606e-21)
(1.03015 0.0495919 8.31996e-22)
(1.00745 0.0544752 4.79981e-22)
(0.987349 0.0483613 -3.2945e-22)
(0.965212 0.0444545 1.5784e-21)
(0.949515 0.0259181 -9.46805e-22)
(0.936916 0.0118821 -4.09078e-22)
(0.93303 -0.0197587 1.32241e-21)
(0.943539 -0.0340186 -1.76662e-21)
(0.955588 -0.0694137 -2.57583e-21)
(0.996585 -0.0796675 3.88048e-21)
(1.03018 -0.093743 0)
(1.08527 -0.075018 0)
(1.11032 -0.0529021 5.28374e-21)
(1.16002 0.00539717 -4.05766e-21)
(1.12835 0.0730065 7.99806e-22)
(0.961393 0.003147 -7.13236e-23)
(0.959653 0.0027783 7.59306e-21)
(0.95828 0.00293465 1.14511e-21)
(0.956111 0.00233341 1.16177e-21)
(0.955523 0.00129493 1.192e-20)
(0.953814 -0.000878628 -6.01602e-21)
(0.954955 -0.00306851 -6.06899e-21)
(0.954007 -0.00726763 0)
(0.957059 -0.00978264 1.18348e-21)
(0.957458 -0.0153799 3.31676e-21)
(0.962765 -0.0182059 -5.59284e-21)
(0.966023 -0.0247886 -3.76637e-21)
(0.973391 -0.0290784 4.22884e-21)
(0.982057 -0.0345943 0)
(0.991236 -0.0391236 1.11263e-21)
(1.00408 -0.0413823 -8.43696e-22)
(1.01651 -0.0425995 1.00755e-22)
(1.03074 -0.039841 2.31098e-22)
(1.04445 -0.0344207 -7.3451e-22)
(1.05679 -0.0253074 3.15736e-22)
(1.06421 -0.0134102 3.40037e-23)
(1.06998 0.0014661 0)
(1.06842 0.0158936 1.65103e-22)
(1.06193 0.0312702 -3.37705e-22)
(1.0523 0.043692 3.45066e-22)
(1.03185 0.0524183 -2.83621e-21)
(1.01519 0.0602947 3.59574e-21)
(0.992503 0.0557407 -1.84034e-21)
(0.967112 0.0523646 0)
(0.950558 0.0348228 0)
(0.935464 0.0225839 -1.93315e-22)
(0.923821 -0.0106578 1.91827e-22)
(0.93221 -0.0270838 0)
(0.936354 -0.0628845 -1.0968e-21)
(0.973881 -0.0825857 -5.79928e-21)
(1.00464 -0.105669 -4.06872e-22)
(1.06623 -0.0997032 6.0537e-21)
(1.09549 -0.0838871 4.49623e-21)
(1.16128 -0.0413968 -5.09793e-21)
(1.14767 0.0412601 4.15948e-23)
(0.960214 0.00374332 -8.97523e-21)
(0.958442 0.00336279 9.0783e-21)
(0.957237 0.00323599 -1.1806e-21)
(0.954993 0.00243533 0)
(0.954574 0.00112367 -1.11802e-20)
(0.952802 -0.00141571 1.50429e-20)
(0.954245 -0.0038826 -3.8046e-21)
(0.953207 -0.00838016 0)
(0.956486 -0.0114566 1.08959e-20)
(0.957788 -0.0171038 -5.70934e-21)
(0.960867 -0.0210639 -4.66004e-21)
(0.968314 -0.0269869 -3.86947e-21)
(0.972244 -0.0332668 5.07859e-21)
(0.983478 -0.0372256 -1.2846e-21)
(0.992044 -0.043269 1.085e-21)
(1.00499 -0.0448313 -8.96049e-22)
(1.01881 -0.0460968 1.40295e-22)
(1.03292 -0.0432616 3.04192e-22)
(1.04692 -0.0373108 -1.53377e-22)
(1.06005 -0.0274646 -3.47849e-22)
(1.06818 -0.0147309 -7.22746e-23)
(1.07306 0.00017813 -1.4057e-21)
(1.07434 0.0172546 1.59105e-21)
(1.06628 0.0317282 2.98013e-21)
(1.05765 0.0476832 -3.3278e-21)
(1.03916 0.0557805 2.51567e-21)
(1.01845 0.0661025 -1.89727e-21)
(0.999298 0.0635835 0)
(0.972942 0.0627094 2.58573e-21)
(0.949811 0.0448877 -1.2654e-21)
(0.935787 0.0338028 -7.86873e-22)
(0.918343 0.00307581 -1.62382e-22)
(0.921826 -0.0175468 0)
(0.918317 -0.0545116 -1.81279e-21)
(0.950042 -0.0800375 1.64605e-21)
(0.974373 -0.110478 7.4692e-22)
(1.03733 -0.120798 -8.12353e-22)
(1.07234 -0.113483 0)
(1.15256 -0.089635 0)
(1.16065 -0.00160716 -1.02636e-21)
(0.959029 0.00287809 -9.39733e-21)
(0.957278 0.00237947 9.51662e-21)
(0.956161 0.00205908 0)
(0.953931 0.00110556 0)
(0.953791 -0.000491477 0)
(0.952036 -0.00331245 0)
(0.953679 -0.00604149 0)
(0.953455 -0.0109788 0)
(0.954689 -0.0145783 -7.58674e-21)
(0.959038 -0.0201581 8.77853e-21)
(0.96049 -0.0260462 4.46102e-21)
(0.96772 -0.0305239 -1.04394e-21)
(0.973553 -0.0378967 -2.33106e-21)
(0.983079 -0.0424882 -2.06743e-21)
(0.994313 -0.0476875 -1.07312e-21)
(1.00624 -0.0502721 6.30458e-22)
(1.02078 -0.0509723 4.33922e-22)
(1.03597 -0.047444 3.68902e-22)
(1.05024 -0.0414624 7.3374e-23)
(1.06307 -0.0312162 -4.16538e-22)
(1.07369 -0.0164779 -2.07633e-24)
(1.07706 -0.00226581 -1.71854e-21)
(1.07921 0.0169296 3.36498e-21)
(1.07343 0.0320005 -1.19534e-21)
(1.06242 0.0494957 0)
(1.04783 0.0593675 -7.77622e-22)
(1.02489 0.0712323 -6.30647e-22)
(1.00308 0.069384 0)
(0.981197 0.0725463 2.36214e-21)
(0.952264 0.0562767 -2.47774e-21)
(0.937135 0.045421 -2.22077e-22)
(0.914475 0.0170216 0)
(0.914276 -0.00527197 0)
(0.902554 -0.0407852 -2.13847e-21)
(0.92711 -0.0726985 2.11729e-21)
(0.943516 -0.108091 -4.74902e-23)
(1.00136 -0.134729 1.71836e-23)
(1.03864 -0.137586 5.76787e-21)
(1.12665 -0.140898 -6.53922e-21)
(1.16404 -0.0568995 5.74596e-22)
(0.957545 0.00330974 0)
(0.955728 0.00271416 0)
(0.954703 0.00210013 0)
(0.952361 0.000906783 0)
(0.952476 -0.000979167 0)
(0.951207 -0.00424002 6.87402e-21)
(0.951192 -0.00728188 -5.54307e-21)
(0.953998 -0.0122107 -5.38061e-21)
(0.953464 -0.0178224 1.20078e-20)
(0.958327 -0.022104 -2.86551e-21)
(0.960039 -0.0292984 -5.63636e-21)
(0.967229 -0.0338993 1.10493e-21)
(0.974363 -0.0420027 4.74268e-22)
(0.983519 -0.0461594 -3.77176e-22)
(0.995076 -0.0522257 7.74323e-22)
(1.00833 -0.0541686 -8.35342e-22)
(1.02247 -0.0551395 2.40597e-22)
(1.03822 -0.0514266 -2.41241e-22)
(1.05422 -0.0440669 2.73406e-22)
(1.06612 -0.0345049 -4.99522e-22)
(1.07812 -0.018008 -2.38265e-24)
(1.0824 -0.00349532 1.95154e-22)
(1.08329 0.0166934 -4.24871e-22)
(1.08081 0.033219 3.61405e-21)
(1.06829 0.0521634 -3.57724e-21)
(1.05432 0.0624727 1.67401e-21)
(1.03479 0.0779557 -2.74757e-21)
(1.00789 0.077046 2.73149e-21)
(0.987911 0.0814602 -5.2549e-22)
(0.956696 0.0689404 0)
(0.940223 0.059297 1.0826e-21)
(0.912486 0.0337087 -1.08854e-21)
(0.908866 0.00964296 1.53128e-23)
(0.890485 -0.0230222 0)
(0.905961 -0.0588203 0)
(0.913266 -0.0970413 -6.99179e-21)
(0.960978 -0.139193 7.82008e-21)
(0.997852 -0.151057 -7.24431e-21)
(1.08091 -0.186635 7.13276e-21)
(1.1494 -0.118164 8.5062e-22)
(0.956298 0.00201267 0)
(0.954483 0.00128675 0)
(0.95353 0.000551477 1.10319e-20)
(0.951634 -0.00101092 -1.25826e-20)
(0.950377 -0.00320956 1.14402e-20)
(0.951584 -0.00628698 -1.44552e-20)
(0.949859 -0.0112524 -7.18465e-21)
(0.953298 -0.0149585 -1.28599e-21)
(0.952967 -0.0215952 7.10199e-21)
(0.957965 -0.0260577 0)
(0.961266 -0.0342888 1.26228e-21)
(0.966332 -0.0387717 -5.37821e-21)
(0.976014 -0.0474745 3.77168e-21)
(0.984236 -0.052156 3.91978e-22)
(0.996689 -0.0577541 2.51746e-22)
(1.01077 -0.0600438 1.02977e-23)
(1.02513 -0.0605061 2.67772e-22)
(1.04142 -0.0569898 3.71303e-22)
(1.05785 -0.0482623 -5.36295e-23)
(1.07115 -0.0388358 -5.21165e-22)
(1.08208 -0.0209338 4.6236e-23)
(1.08954 -0.00571103 -1.83467e-21)
(1.08878 0.01533 1.83119e-21)
(1.08674 0.0322932 -4.82319e-22)
(1.07752 0.054164 0)
(1.0605 0.0646916 -9.01361e-22)
(1.04426 0.0819939 3.13771e-21)
(1.01614 0.0841274 -8.36041e-21)
(0.996572 0.0900039 1.67636e-21)
(0.962349 0.0810899 6.43156e-21)
(0.945401 0.0719561 -4.51117e-21)
(0.913201 0.0512185 2.19573e-21)
(0.905356 0.0257499 -6.02977e-22)
(0.88201 -0.00277232 0)
(0.888683 -0.0413032 0)
(0.888172 -0.0771531 0)
(0.919326 -0.132997 -8.54553e-23)
(0.954897 -0.151383 8.434e-21)
(1.01951 -0.215845 -7.37826e-21)
(1.1096 -0.17337 -1.84293e-21)
(0.954638 0.0023749 -1.09613e-20)
(0.952848 0.0010167 1.11203e-20)
(0.950901 0.000179542 0)
(0.950531 -0.00147875 1.46372e-21)
(0.948219 -0.00445668 0)
(0.949849 -0.0077232 3.04291e-21)
(0.948271 -0.0130279 -1.20691e-20)
(0.951763 -0.0171398 9.28394e-21)
(0.952762 -0.0248053 -2.68713e-21)
(0.955404 -0.0292956 4.36657e-21)
(0.962137 -0.0378713 2.32119e-24)
(0.966048 -0.0435567 5.55839e-21)
(0.976218 -0.0516526 -4.40563e-21)
(0.985586 -0.0567609 -3.84961e-22)
(0.997426 -0.0628206 -2.62041e-22)
(1.01298 -0.0651106 1.21688e-23)
(1.02792 -0.0644306 3.8815e-23)
(1.04462 -0.0620005 7.80258e-22)
(1.06167 -0.0517258 -1.366e-21)
(1.07561 -0.0417088 5.84833e-22)
(1.0864 -0.0235306 9.57659e-22)
(1.09491 -0.00754509 -2.92149e-21)
(1.09656 0.0153163 -1.32436e-22)
(1.09201 0.0320234 2.14107e-21)
(1.08652 0.0560285 -5.62352e-22)
(1.06853 0.068214 -5.0885e-21)
(1.05364 0.0869468 3.98236e-21)
(1.02421 0.0921456 8.79076e-22)
(1.00564 0.0984236 7.36594e-22)
(0.969519 0.0945368 4.9145e-22)
(0.951741 0.0866832 8.36376e-22)
(0.917111 0.0702968 0)
(0.904562 0.0444933 7.18258e-23)
(0.877055 0.0208294 0)
(0.873449 -0.0186587 2.82185e-22)
(0.868353 -0.0497747 0)
(0.878787 -0.113721 -1.41955e-21)
(0.913313 -0.138086 7.34343e-21)
(0.951361 -0.220145 -2.0734e-22)
(1.05059 -0.208686 -7.79192e-21)
(0.952865 0.000439613 1.00998e-20)
(0.952126 -0.000924277 0)
(0.949464 -0.00213795 1.53973e-21)
(0.949234 -0.00420676 -1.41063e-20)
(0.946895 -0.0076022 1.26861e-20)
(0.948806 -0.0110162 -3.21682e-21)
(0.947526 -0.016803 1.43008e-20)
(0.949816 -0.0215175 -1.60348e-20)
(0.953452 -0.0293083 1.5356e-21)
(0.954465 -0.035427 1.47148e-21)
(0.961811 -0.0431075 -6.85793e-22)
(0.967071 -0.0500915 -6.16574e-22)
(0.975843 -0.0578685 1.81888e-21)
(0.987592 -0.0641849 -1.43066e-21)
(1.00007 -0.0687058 0)
(1.01441 -0.0724844 1.41603e-23)
(1.03217 -0.0706104 7.41674e-23)
(1.04804 -0.0676015 0)
(1.06679 -0.0576122 6.58543e-22)
(1.08083 -0.0466137 -6.59221e-22)
(1.0932 -0.0271703 -5.6505e-23)
(1.09989 -0.0109348 0)
(1.10487 0.0134789 0)
(1.09929 0.0305273 0)
(1.09547 0.0560305 1.21181e-21)
(1.07744 0.0702358 1.13027e-21)
(1.06518 0.0894453 -4.10176e-21)
(1.0344 0.0997226 3.15659e-21)
(1.01626 0.10583 -1.63563e-21)
(0.97947 0.106014 7.06634e-22)
(0.95899 0.0997206 2.33528e-21)
(0.924163 0.089847 -5.82107e-21)
(0.906581 0.0636769 1.89489e-21)
(0.878003 0.043969 3.78629e-22)
(0.862511 0.00535966 -3.30914e-21)
(0.85597 -0.0202593 2.60298e-21)
(0.844342 -0.0824983 6.76375e-22)
(0.874964 -0.114281 7.51431e-21)
(0.885423 -0.200788 1.97259e-21)
(0.981203 -0.22231 -7.52766e-21)
(0.949725 0.000291204 1.50784e-21)
(0.949296 -0.00155807 -1.58301e-21)
(0.946787 -0.00283709 3.70774e-23)
(0.947055 -0.00535383 1.63505e-21)
(0.944526 -0.0091966 0)
(0.946407 -0.0131733 -3.35998e-21)
(0.94595 -0.0190549 6.86285e-21)
(0.947221 -0.0255961 8.24824e-21)
(0.95142 -0.0320926 -6.65784e-21)
(0.954156 -0.0397794 1.56076e-21)
(0.959644 -0.0478959 0)
(0.967304 -0.0553443 -4.03189e-21)
(0.976756 -0.0628581 7.08437e-21)
(0.987302 -0.0703983 -1.47715e-21)
(1.00246 -0.0746593 -2.19105e-22)
(1.01657 -0.0775791 -2.38804e-22)
(1.03563 -0.0765069 1.90626e-22)
(1.05217 -0.0725667 0)
(1.07184 -0.0614382 0)
(1.08535 -0.0504611 0)
(1.10035 -0.0300198 6.69804e-23)
(1.1056 -0.0135806 0)
(1.11296 0.0122956 -2.63036e-21)
(1.10639 0.0306312 8.01493e-21)
(1.10529 0.0559535 -6.02281e-21)
(1.08616 0.0734811 -1.36301e-21)
(1.07636 0.0923875 0)
(1.04556 0.106571 0)
(1.02762 0.115327 -1.16286e-22)
(0.991039 0.119686 -6.38866e-21)
(0.96796 0.112643 3.24937e-23)
(0.933006 0.109099 3.94174e-21)
(0.909668 0.0867699 6.48079e-22)
(0.883241 0.0706683 6.75078e-22)
(0.856267 0.032694 -3.42163e-22)
(0.84954 0.00872746 1.81338e-22)
(0.822668 -0.0423197 0)
(0.842084 -0.0788986 -7.3796e-22)
(0.829682 -0.159816 7.03887e-21)
(0.906171 -0.210388 -6.77591e-21)
(0.94797 -0.00239891 -1.46948e-20)
(0.947563 -0.00464043 1.64576e-21)
(0.944709 -0.00629683 -1.69481e-21)
(0.945202 -0.00897314 1.78572e-21)
(0.94306 -0.0131014 -1.8218e-21)
(0.944636 -0.0183713 1.26064e-20)
(0.945466 -0.0233473 -1.45992e-20)
(0.947262 -0.0318792 0)
(0.949576 -0.038218 1.74063e-21)
(0.954173 -0.0471498 4.6332e-21)
(0.96013 -0.0543637 -6.32883e-21)
(0.967019 -0.0639061 -5.48228e-21)
(0.978503 -0.0709 6.18249e-21)
(0.98895 -0.0776125 -1.91046e-21)
(1.00542 -0.0833261 3.06475e-23)
(1.01949 -0.0856411 0)
(1.04069 -0.0834666 8.38593e-22)
(1.05616 -0.0800101 2.39906e-22)
(1.07898 -0.0675474 -1.21237e-21)
(1.0906 -0.0561079 0)
(1.109 -0.0350269 -7.01834e-23)
(1.11232 -0.017209 -2.7503e-21)
(1.12285 0.00841362 3.48002e-21)
(1.11494 0.0288723 -7.70574e-22)
(1.11638 0.0540162 0)
(1.09749 0.0747845 2.95904e-21)
(1.08884 0.0931257 0)
(1.05972 0.112242 0)
(1.0405 0.120489 2.2728e-21)
(1.00654 0.131858 0)
(0.979155 0.126443 1.4125e-21)
(0.94591 0.126291 -2.88004e-21)
(0.915007 0.105494 2.26218e-21)
(0.89321 0.095581 -3.42059e-22)
(0.856717 0.06397 2.48494e-22)
(0.847643 0.0385641 -4.34108e-22)