/*--------------------------------*- C++ -*----------------------------------*\
| =========                 |                                                 |
| \\      /  F ield         | OpenFOAM: The Open Source CFD Toolbox           |
|  \\    /   O peration     | Version:  2406                                  |
|   \\  /    A nd           | Website:  www.openfoam.com                      |
|    \\/     M anipulation  |                                                 |
\*---------------------------------------------------------------------------*/
FoamFile
{
    version     2.0;
    format      ascii;
    arch        "LSB;label=32;scalar=64";
    class       volScalarField;
    location    "6501";
    object      p;
}
// * * * * * * * * * * * * * * * * * * * * * * * * * * * * * * * * * * * * * //

dimensions      [0 2 -2 0 0 0 0];

internalField   nonuniform List<scalar> 
16384
(
2.104565e-11
6.221837e-10
1.248438e-09
1.582657e-09
1.46354e-09
8.124745e-10
-3.973624e-10
-2.159642e-09
-4.448231e-09
-7.226093e-09
-1.045139e-08
-1.40818e-08
-1.807751e-08
-2.240319e-08
-2.702925e-08
-3.193253e-08
-3.70965e-08
-4.251103e-08
-4.817183e-08
-5.407966e-08
-6.023941e-08
-6.665903e-08
-7.334841e-08
-8.031829e-08
-8.75792e-08
-9.514052e-08
-1.030096e-07
-1.111909e-07
-1.196858e-07
-1.284913e-07
-1.376002e-07
-1.470003e-07
-1.566744e-07
-1.665996e-07
-1.767476e-07
-1.870837e-07
-1.975673e-07
-2.081513e-07
-2.187823e-07
-2.294004e-07
-2.399391e-07
-2.50326e-07
-2.604826e-07
-2.703248e-07
-2.797636e-07
-2.88706e-07
-2.970555e-07
-3.047135e-07
-3.115804e-07
-3.17557e-07
-3.225459e-07
-3.264536e-07
-3.291917e-07
-3.30679e-07
-3.308437e-07
-3.296249e-07
-3.269745e-07
-3.228596e-07
-3.172637e-07
-3.101885e-07
-3.016552e-07
-2.917059e-07
-2.804044e-07
-2.678365e-07
-2.541104e-07
-2.393562e-07
-2.237253e-07
-2.073893e-07
-1.905385e-07
-1.733796e-07
-1.561331e-07
-1.390301e-07
-1.223091e-07
-1.062114e-07
-9.097765e-08
-7.684295e-08
-6.403246e-08
-5.275681e-08
-4.32077e-08
-3.55537e-08
-2.993638e-08
-2.646708e-08
-2.522412e-08
-2.625094e-08
-2.955486e-08
-3.510686e-08
-4.284219e-08
-5.266192e-08
-6.443534e-08
-7.800259e-08
-9.317944e-08
-1.097622e-07
-1.275316e-07
-1.462578e-07
-1.65706e-07
-1.856413e-07
-2.058342e-07
-2.260645e-07
-2.461255e-07
-2.658272e-07
-2.849994e-07
-3.034929e-07
-3.211815e-07
-3.379618e-07
-3.537534e-07
-3.684979e-07
-3.821575e-07
-3.947134e-07
-4.061636e-07
-4.165205e-07
-4.258087e-07
-4.340619e-07
-4.413203e-07
-4.476284e-07
-4.530321e-07
-4.575766e-07
-4.61305e-07
-4.642563e-07
-4.664659e-07
-4.679657e-07
-4.687873e-07
-4.689668e-07
-4.685537e-07
-4.676237e-07
-4.662981e-07
-4.647727e-07
-4.633648e-07
-4.624792e-07
-5.532452e-10
3.782026e-11
5.475971e-10
7.339655e-10
5.024898e-10
-2.068032e-10
-1.420069e-09
-3.136535e-09
-5.337949e-09
-7.995618e-09
-1.10756e-08
-1.454255e-08
-1.83625e-08
-2.250479e-08
-2.694337e-08
-3.16576e-08
-3.663254e-08
-4.185882e-08
-4.73322e-08
-5.305297e-08
-5.902515e-08
-6.525554e-08
-7.175277e-08
-7.852631e-08
-8.558552e-08
-9.293881e-08
-1.005928e-07
-1.085518e-07
-1.168166e-07
-1.253848e-07
-1.342496e-07
-1.434001e-07
-1.5282e-07
-1.624884e-07
-1.723784e-07
-1.824579e-07
-1.926886e-07
-2.030259e-07
-2.134193e-07
-2.238119e-07
-2.341404e-07
-2.443354e-07
-2.543218e-07
-2.640188e-07
-2.733407e-07
-2.821976e-07
-2.904962e-07
-2.981408e-07
-3.050343e-07
-3.1108e-07
-3.161827e-07
-3.202504e-07
-3.231961e-07
-3.249395e-07
-3.25409e-07
-3.245435e-07
-3.222945e-07
-3.186277e-07
-3.135248e-07
-3.069851e-07
-2.990272e-07
-2.896896e-07
-2.790322e-07
-2.671363e-07
-2.541054e-07
-2.400643e-07
-2.251586e-07
-2.095539e-07
-1.934344e-07
-1.770004e-07
-1.604659e-07
-1.440554e-07
-1.280007e-07
-1.125368e-07
-9.789798e-08
-8.431334e-08
-7.200237e-08
-6.117049e-08
-5.200467e-08
-4.466933e-08
-3.930257e-08
-3.601295e-08
-3.487683e-08
-3.593647e-08
-3.919891e-08
-4.463576e-08
-5.21838e-08
-6.174652e-08
-7.319661e-08
-8.637939e-08
-1.011154e-07
-1.172054e-07
-1.344368e-07
-1.525869e-07
-1.714284e-07
-1.907346e-07
-2.102838e-07
-2.298641e-07
-2.492767e-07
-2.683395e-07
-2.868892e-07
-3.047836e-07
-3.219019e-07
-3.38146e-07
-3.534396e-07
-3.677275e-07
-3.80974e-07
-3.931617e-07
-4.042888e-07
-4.143675e-07
-4.234213e-07
-4.314823e-07
-4.385891e-07
-4.447843e-07
-4.501124e-07
-4.546177e-07
-4.583428e-07
-4.613279e-07
-4.636103e-07
-4.652252e-07
-4.662085e-07
-4.666001e-07
-4.664513e-07
-4.658339e-07
-4.648535e-07
-4.636645e-07
-4.624793e-07
-4.615912e-07
-1.176769e-09
-4.694658e-10
4.066703e-11
1.537993e-10
-1.478764e-10
-8.970652e-10
-2.112032e-09
-3.791473e-09
-5.920378e-09
-8.475034e-09
-1.142693e-08
-1.474592e-08
-1.840261e-08
-2.237023e-08
-2.66259e-08
-3.115143e-08
-3.59336e-08
-4.096408e-08
-4.623921e-08
-5.17594e-08
-5.752844e-08
-6.35527e-08
-6.984022e-08
-7.63999e-08
-8.324059e-08
-9.037031e-08
-9.779555e-08
-1.055205e-07
-1.135468e-07
-1.218723e-07
-1.304917e-07
-1.393951e-07
-1.485681e-07
-1.579916e-07
-1.676413e-07
-1.774873e-07
-1.87494e-07
-1.976199e-07
-2.078175e-07
-2.180329e-07
-2.28206e-07
-2.382706e-07
-2.481546e-07
-2.577802e-07
-2.670645e-07
-2.759203e-07
-2.842564e-07
-2.919791e-07
-2.989931e-07
-3.052027e-07
-3.105136e-07
-3.148339e-07
-3.180764e-07
-3.201603e-07
-3.210126e-07
-3.205708e-07
-3.187839e-07
-3.156152e-07
-3.110431e-07
-3.050638e-07
-2.976917e-07
-2.889615e-07
-2.789284e-07
-2.676695e-07
-2.552832e-07
-2.418896e-07
-2.27629e-07
-2.126625e-07
-1.971693e-07
-1.81345e-07
-1.653989e-07
-1.495511e-07
-1.340292e-07
-1.190641e-07
-1.048865e-07
-9.172215e-08
-7.978748e-08
-6.92853e-08
-6.040027e-08
-5.32949e-08
-4.810578e-08
-4.494031e-08
-4.387411e-08
-4.494906e-08
-4.817224e-08
-5.351566e-08
-6.091693e-08
-7.02808e-08
-8.148158e-08
-9.43664e-08
-1.087591e-07
-1.244638e-07
-1.412713e-07
-1.589629e-07
-1.773159e-07
-1.961083e-07
-2.151238e-07
-2.341561e-07
-2.530124e-07
-2.715165e-07
-2.895112e-07
-3.0686e-07
-3.234477e-07
-3.391813e-07
-3.53989e-07
-3.678199e-07
-3.806418e-07
-3.924398e-07
-4.032145e-07
-4.129791e-07
-4.21758e-07
-4.295836e-07
-4.364943e-07
-4.425328e-07
-4.477431e-07
-4.521696e-07
-4.558554e-07
-4.588416e-07
-4.611666e-07
-4.628674e-07
-4.639805e-07
-4.645454e-07
-4.646082e-07
-4.642281e-07
-4.63485e-07
-4.624779e-07
-4.612953e-07
-4.6018e-07
-1.516236e-09
-6.583217e-10
-7.663583e-11
3.164109e-11
-2.947578e-10
-1.063099e-09
-2.279886e-09
-3.938179e-09
-6.021303e-09
-8.506271e-09
-1.13665e-08
-1.457425e-08
-1.810269e-08
-2.192751e-08
-2.602814e-08
-3.038839e-08
-3.499669e-08
-3.98461e-08
-4.493406e-08
-5.026185e-08
-5.583391e-08
-6.165715e-08
-6.774006e-08
-7.409194e-08
-8.072208e-08
-8.763903e-08
-9.484994e-08
-1.023599e-07
-1.101716e-07
-1.182843e-07
-1.266941e-07
-1.353931e-07
-1.44369e-07
-1.536051e-07
-1.630794e-07
-1.727649e-07
-1.826288e-07
-1.926325e-07
-2.027313e-07
-2.128741e-07
-2.230036e-07
-2.330562e-07
-2.429618e-07
-2.526448e-07
-2.620238e-07
-2.710128e-07
-2.795212e-07
-2.874558e-07
-2.947207e-07
-3.012197e-07
-3.06857e-07
-3.11539e-07
-3.151763e-07
-3.176851e-07
-3.189896e-07
-3.190236e-07
-3.177324e-07
-3.150752e-07
-3.110264e-07
-3.055778e-07
-2.987395e-07
-2.905418e-07
-2.81036e-07
-2.702949e-07
-2.584132e-07
-2.455072e-07
-2.317139e-07
-2.171916e-07
-2.021169e-07
-1.866834e-07
-1.710983e-07
-1.555806e-07
-1.403568e-07
-1.256573e-07
-1.117125e-07
-9.874833e-08
-8.698178e-08
-7.661629e-08
-6.783745e-08
-6.08088e-08
-5.566798e-08
-5.252349e-08
-5.14519e-08
-5.249597e-08
-5.566346e-08
-6.092687e-08
-6.822407e-08
-7.745989e-08
-8.850855e-08
-1.012169e-07
-1.154082e-07
-1.30887e-07
-1.474432e-07
-1.648585e-07
-1.829115e-07
-2.01381e-07
-2.20052e-07
-2.387199e-07
-2.571943e-07
-2.753019e-07
-2.928888e-07
-3.098225e-07
-3.259918e-07
-3.41308e-07
-3.557037e-07
-3.691324e-07
-3.815664e-07
-3.929948e-07
-4.034217e-07
-4.128637e-07
-4.213479e-07
-4.289092e-07
-4.355881e-07
-4.414289e-07
-4.464772e-07
-4.507787e-07
-4.543776e-07
-4.573155e-07
-4.596315e-07
-4.613617e-07
-4.625402e-07
-4.632009e-07
-4.633797e-07
-4.631175e-07
-4.624658e-07
-4.614725e-07
-4.601231e-07
-4.586704e-07
-1.405648e-09
-4.327166e-10
2.133251e-10
3.276853e-10
-1.432831e-11
-8.005369e-10
-2.026265e-09
-3.677718e-09
-5.73462e-09
-8.172606e-09
-1.096508e-08
-1.408513e-08
-1.750725e-08
-2.12088e-08
-2.517099e-08
-2.937935e-08
-3.382403e-08
-3.849977e-08
-4.340557e-08
-4.854421e-08
-5.392155e-08
-5.954578e-08
-6.542665e-08
-7.15747e-08
-7.80005e-08
-8.471399e-08
-9.172376e-08
-9.903655e-08
-1.066567e-07
-1.145857e-07
-1.228217e-07
-1.313591e-07
-1.401886e-07
-1.492958e-07
-1.58662e-07
-1.68263e-07
-1.78069e-07
-1.880442e-07
-1.981468e-07
-2.083281e-07
-2.185331e-07
-2.286999e-07
-2.387599e-07
-2.486384e-07
-2.582543e-07
-2.675213e-07
-2.76348e-07
-2.846396e-07
-2.922984e-07
-2.992252e-07
-3.053211e-07
-3.104891e-07
-3.146354e-07
-3.176719e-07
-3.195182e-07
-3.201031e-07
-3.19367e-07
-3.172642e-07
-3.137642e-07
-3.088539e-07
-3.02539e-07
-2.948456e-07
-2.858209e-07
-2.755342e-07
-2.640772e-07
-2.515632e-07
-2.381275e-07
-2.239266e-07
-2.091362e-07
-1.939489e-07
-1.785722e-07
-1.632253e-07
-1.481358e-07
-1.335355e-07
-1.196569e-07
-1.06728e-07
-9.496849e-08
-8.458471e-08
-7.576527e-08
-6.867678e-08
-6.345996e-08
-6.022613e-08
-5.905451e-08
-5.999005e-08
-6.304227e-08
-6.81849e-08
-7.535644e-08
-8.446177e-08
-9.537455e-08
-1.079405e-07
-1.219815e-07
-1.373001e-07
-1.536846e-07
-1.709139e-07
-1.887636e-07
-2.070118e-07
-2.254422e-07
-2.438493e-07
-2.620421e-07
-2.798479e-07
-2.971142e-07
-3.137101e-07
-3.295276e-07
-3.444812e-07
-3.58507e-07
-3.715628e-07
-3.836256e-07
-3.946893e-07
-4.047625e-07
-4.138664e-07
-4.220321e-07
-4.292985e-07
-4.357098e-07
-4.413132e-07
-4.46157e-07
-4.502893e-07
-4.537558e-07
-4.565992e-07
-4.588584e-07
-4.605679e-07
-4.61758e-07
-4.624555e-07
-4.626842e-07
-4.624668e-07
-4.618287e-07
-4.60775e-07
-4.592108e-07
-4.574187e-07
-7.576375e-10
2.74328e-10
9.484044e-10
1.053463e-09
6.859379e-10
-1.285775e-10
-1.376254e-09
-3.036846e-09
-5.085941e-09
-7.496814e-09
-1.024182e-08
-1.329394e-08
-1.662831e-08
-2.022342e-08
-2.406188e-08
-2.813087e-08
-3.24224e-08
-3.693318e-08
-4.166427e-08
-4.662049e-08
-5.180974e-08
-5.724224e-08
-6.292983e-08
-6.888513e-08
-7.512085e-08
-8.164909e-08
-8.848077e-08
-9.562501e-08
-1.030887e-07
-1.108762e-07
-1.189884e-07
-1.274229e-07
-1.361734e-07
-1.452289e-07
-1.545738e-07
-1.641872e-07
-1.740422e-07
-1.841059e-07
-1.943388e-07
-2.046943e-07
-2.151187e-07
-2.255512e-07
-2.359232e-07
-2.461596e-07
-2.561781e-07
-2.658903e-07
-2.752024e-07
-2.840159e-07
-2.922293e-07
-2.997389e-07
-3.064407e-07
-3.122322e-07
-3.17014e-07
-3.206923e-07
-3.231805e-07
-3.244017e-07
-3.242906e-07
-3.227957e-07
-3.198815e-07
-3.1553e-07
-3.097423e-07
-3.025406e-07
-2.939686e-07
-2.840924e-07
-2.730013e-07
-2.608067e-07
-2.476432e-07
-2.336663e-07
-2.190515e-07
-2.03992e-07
-1.886961e-07
-1.733849e-07
-1.582879e-07
-1.4364e-07
-1.296768e-07
-1.166302e-07
-1.04724e-07
-9.4169e-08
-8.515855e-08
-7.786406e-08
-7.243097e-08
-6.897522e-08
-6.758022e-08
-6.829472e-08
-7.113138e-08
-7.606634e-08
-8.303976e-08
-9.195724e-08
-1.026923e-07
-1.150896e-07
-1.289693e-07
-1.441312e-07
-1.603605e-07
-1.774331e-07
-1.951209e-07
-2.131968e-07
-2.314416e-07
-2.496475e-07
-2.676209e-07
-2.85187e-07
-3.021926e-07
-3.185068e-07
-3.340225e-07
-3.486563e-07
-3.623473e-07
-3.750563e-07
-3.867644e-07
-3.974705e-07
-4.071883e-07
-4.159439e-07
-4.237736e-07
-4.307211e-07
-4.36835e-07
-4.421669e-07
-4.467689e-07
-4.506918e-07
-4.539839e-07
-4.566892e-07
-4.588465e-07
-4.604887e-07
-4.616423e-07
-4.62327e-07
-4.625552e-07
-4.623336e-07
-4.616657e-07
-4.605238e-07
-4.587526e-07
-4.566663e-07
4.70795e-10
1.502104e-09
2.157819e-09
2.225857e-09
1.812582e-09
9.521207e-10
-3.347066e-10
-2.022166e-09
-4.081867e-09
-6.484453e-09
-9.200796e-09
-1.220336e-08
-1.546751e-08
-1.897261e-08
-2.27025e-08
-2.664609e-08
-3.079746e-08
-3.515567e-08
-3.972423e-08
-4.451056e-08
-4.952528e-08
-5.478144e-08
-6.029375e-08
-6.607776e-08
-7.214918e-08
-7.852318e-08
-8.521384e-08
-9.223362e-08
-9.959283e-08
-1.072992e-07
-1.153576e-07
-1.237691e-07
-1.32531e-07
-1.416362e-07
-1.510726e-07
-1.608222e-07
-1.708612e-07
-1.811591e-07
-1.916781e-07
-2.023727e-07
-2.131897e-07
-2.240676e-07
-2.349368e-07
-2.457198e-07
-2.563312e-07
-2.666788e-07
-2.766641e-07
-2.861834e-07
-2.95129e-07
-3.03391e-07
-3.108586e-07
-3.174225e-07
-3.229762e-07
-3.27419e-07
-3.306575e-07
-3.326083e-07
-3.332e-07
-3.323753e-07
-3.300934e-07
-3.263315e-07
-3.210866e-07
-3.143771e-07
-3.062434e-07
-2.967491e-07
-2.859819e-07
-2.740519e-07
-2.610929e-07
-2.472603e-07
-2.327297e-07
-2.176953e-07
-2.023672e-07
-1.869686e-07
-1.71732e-07
-1.568958e-07
-1.426998e-07
-1.293808e-07
-1.171678e-07
-1.062776e-07
-9.690959e-08
-8.924161e-08
-8.342558e-08
-7.958378e-08
-7.780572e-08
-7.814577e-08
-8.062156e-08
-8.521339e-08
-9.18646e-08
-1.004829e-07
-1.109428e-07
-1.230888e-07
-1.367395e-07
-1.516926e-07
-1.677298e-07
-1.846228e-07
-2.02139e-07
-2.20047e-07
-2.381214e-07
-2.561491e-07
-2.739333e-07
-2.912953e-07
-3.080788e-07
-3.241508e-07
-3.394035e-07
-3.537535e-07
-3.671414e-07
-3.795303e-07
-3.909041e-07
-4.012659e-07
-4.106343e-07
-4.190405e-07
-4.265262e-07
-4.331404e-07
-4.389369e-07
-4.439722e-07
-4.483029e-07
-4.519837e-07
-4.550657e-07
-4.575949e-07
-4.596107e-07
-4.611449e-07
-4.622207e-07
-4.628518e-07
-4.630416e-07
-4.627836e-07
-4.620642e-07
-4.608317e-07
-4.588884e-07
-4.565744e-07
2.2954e-09
3.268236e-09
3.856438e-09
3.853848e-09
3.368901e-09
2.440674e-09
1.095109e-09
-6.37715e-10
-2.726009e-09
-5.138018e-09
-7.843164e-09
-1.081333e-08
-1.40241e-08
-1.745556e-08
-2.109294e-08
-2.492714e-08
-2.895455e-08
-3.317687e-08
-3.760061e-08
-4.223642e-08
-4.709835e-08
-5.220302e-08
-5.756882e-08
-6.321511e-08
-6.916149e-08
-7.542718e-08
-8.203035e-08
-8.89877e-08
-9.631384e-08
-1.040209e-07
-1.12118e-07
-1.206106e-07
-1.295003e-07
-1.387837e-07
-1.484521e-07
-1.58491e-07
-1.688786e-07
-1.795862e-07
-1.905768e-07
-2.018049e-07
-2.132161e-07
-2.247467e-07
-2.36324e-07
-2.478662e-07
-2.59283e-07
-2.704761e-07
-2.813404e-07
-2.917648e-07
-3.016341e-07
-3.108302e-07
-3.192344e-07
-3.26729e-07
-3.332e-07
-3.385388e-07
-3.426448e-07
-3.454278e-07
-3.468102e-07
-3.467291e-07
-3.451384e-07
-3.420107e-07
-3.373393e-07
-3.311388e-07
-3.234468e-07
-3.143243e-07
-3.03858e-07
-2.921566e-07
-2.793532e-07
-2.656029e-07
-2.510817e-07
-2.359847e-07
-2.205237e-07
-2.049242e-07
-1.89422e-07
-1.742592e-07
-1.596805e-07
-1.459282e-07
-1.332375e-07
-1.218322e-07
-1.119192e-07
-1.036844e-07
-9.72879e-08
-9.286033e-08
-9.049943e-08
-9.026738e-08
-9.218905e-08
-9.625113e-08
-1.024023e-07
-1.105544e-07
-1.205846e-07
-1.32339e-07
-1.456359e-07
-1.602714e-07
-1.760245e-07
-1.926629e-07
-2.099488e-07
-2.276452e-07
-2.455213e-07
-2.633575e-07
-2.809497e-07
-2.981145e-07
-3.14691e-07
-3.305422e-07
-3.45557e-07
-3.596504e-07
-3.727624e-07
-3.848571e-07
-3.959199e-07
-4.059563e-07
-4.149891e-07
-4.230544e-07
-4.301987e-07
-4.364764e-07
-4.419469e-07
-4.466719e-07
-4.507128e-07
-4.541287e-07
-4.569745e-07
-4.592987e-07
-4.611421e-07
-4.625363e-07
-4.635024e-07
-4.640501e-07
-4.641757e-07
-4.63863e-07
-4.630863e-07
-4.617772e-07
-4.597108e-07
-4.572438e-07
4.715888e-09
5.576367e-09
6.048838e-09
5.940195e-09
5.355387e-09
4.335917e-09
2.911322e-09
1.114836e-09
-1.019207e-09
-3.457208e-09
-6.167501e-09
-9.121673e-09
-1.229566e-08
-1.567054e-08
-1.923325e-08
-2.297684e-08
-2.690045e-08
-3.100895e-08
-3.531237e-08
-3.982525e-08
-4.456576e-08
-4.955488e-08
-5.481556e-08
-6.037187e-08
-6.624827e-08
-7.246896e-08
-7.905723e-08
-8.60349e-08
-9.34218e-08
-1.012352e-07
-1.094892e-07
-1.181942e-07
-1.27356e-07
-1.369753e-07
-1.470468e-07
-1.575582e-07
-1.684896e-07
-1.798127e-07
-1.9149e-07
-2.034742e-07
-2.15708e-07
-2.281237e-07
-2.406432e-07
-2.531784e-07
-2.656319e-07
-2.778974e-07
-2.89861e-07
-3.014028e-07
-3.123984e-07
-3.227205e-07
-3.322411e-07
-3.40834e-07
-3.483763e-07
-3.547518e-07
-3.598526e-07
-3.635815e-07
-3.658549e-07
-3.666043e-07
-3.657787e-07
-3.633465e-07
-3.592967e-07
-3.536409e-07
-3.464133e-07
-3.376723e-07
-3.275036e-07
-3.160143e-07
-3.033361e-07
-2.896233e-07
-2.750519e-07
-2.598174e-07
-2.441329e-07
-2.282261e-07
-2.123355e-07
-1.967074e-07
-1.815913e-07
-1.672354e-07
-1.538821e-07
-1.41763e-07
-1.310939e-07
-1.220703e-07
-1.148625e-07
-1.096116e-07
-1.06426e-07
-1.053782e-07
-1.06503e-07
-1.097963e-07
-1.152147e-07
-1.226769e-07
-1.320654e-07
-1.432296e-07
-1.559897e-07
-1.70142e-07
-1.854636e-07
-2.017189e-07
-2.186655e-07
-2.360606e-07
-2.536666e-07
-2.712567e-07
-2.886201e-07
-3.055657e-07
-3.219253e-07
-3.375566e-07
-3.523434e-07
-3.661966e-07
-3.790537e-07
-3.908774e-07
-4.016535e-07
-4.113883e-07
-4.201067e-07
-4.278486e-07
-4.34665e-07
-4.406152e-07
-4.457635e-07
-4.501769e-07
-4.539221e-07
-4.57063e-07
-4.596583e-07
-4.6176e-07
-4.634111e-07
-4.646441e-07
-4.654797e-07
-4.659249e-07
-4.659719e-07
-4.65598e-07
-4.647693e-07
-4.634073e-07
-4.612721e-07
-4.587273e-07
7.722183e-09
8.420634e-09
8.731684e-09
8.482176e-09
7.769422e-09
6.635491e-09
5.112204e-09
3.23473e-09
1.038945e-09
-1.440484e-09
-4.171443e-09
-7.12576e-09
-1.028007e-08
-1.361686e-08
-1.712516e-08
-2.080072e-08
-2.464587e-08
-2.866919e-08
-3.288487e-08
-3.731201e-08
-4.197368e-08
-4.689607e-08
-5.210756e-08
-5.763789e-08
-6.351738e-08
-6.977618e-08
-7.644365e-08
-8.354768e-08
-9.111412e-08
-9.916604e-08
-1.077231e-07
-1.168006e-07
-1.26409e-07
-1.365526e-07
-1.472287e-07
-1.584266e-07
-1.701269e-07
-1.823003e-07
-1.949071e-07
-2.078962e-07
-2.212053e-07
-2.347604e-07
-2.484759e-07
-2.622555e-07
-2.759922e-07
-2.895701e-07
-3.028651e-07
-3.15747e-07
-3.28081e-07
-3.397296e-07
-3.505554e-07
-3.604228e-07
-3.692004e-07
-3.767641e-07
-3.829986e-07
-3.878004e-07
-3.910797e-07
-3.927628e-07
-3.927938e-07
-3.911366e-07
-3.877765e-07
-3.827213e-07
-3.760015e-07
-3.676728e-07
-3.578191e-07
-3.465448e-07
-3.339796e-07
-3.202761e-07
-3.056093e-07
-2.901746e-07
-2.741854e-07
-2.578707e-07
-2.414717e-07
-2.252381e-07
-2.094244e-07
-1.942848e-07
-1.800695e-07
-1.670187e-07
-1.553585e-07
-1.452954e-07
-1.37012e-07
-1.306623e-07
-1.263678e-07
-1.242144e-07
-1.2425e-07
-1.264826e-07
-1.308804e-07
-1.37372e-07
-1.458482e-07
-1.561648e-07
-1.681465e-07
-1.815917e-07
-1.962777e-07
-2.11967e-07
-2.284135e-07
-2.453686e-07
-2.625882e-07
-2.798377e-07
-2.968978e-07
-3.135689e-07
-3.296744e-07
-3.450639e-07
-3.596142e-07
-3.732303e-07
-3.858445e-07
-3.974159e-07
-4.079284e-07
-4.173874e-07
-4.258182e-07
-4.332625e-07
-4.397745e-07
-4.454173e-07
-4.502599e-07
-4.543739e-07
-4.578309e-07
-4.606997e-07
-4.630435e-07
-4.649181e-07
-4.663695e-07
-4.674323e-07
-4.681278e-07
-4.684627e-07
-4.684271e-07
-4.679947e-07
-4.671271e-07
-4.657406e-07
-4.63591e-07
-4.610393e-07
1.129724e-08
1.178767e-08
1.189463e-08
1.147142e-08
1.060425e-08
9.334202e-09
7.694126e-09
5.719887e-09
3.447764e-09
9.124962e-10
-1.854239e-09
-4.824991e-09
-7.977782e-09
-1.129718e-08
-1.477485e-08
-1.840974e-08
-2.220798e-08
-2.61825e-08
-3.035238e-08
-3.474201e-08
-3.93802e-08
-4.429921e-08
-4.953382e-08
-5.512039e-08
-6.109608e-08
-6.749797e-08
-7.436241e-08
-8.172418e-08
-8.961579e-08
-9.806661e-08
-1.07102e-07
-1.167425e-07
-1.270024e-07
-1.378891e-07
-1.494015e-07
-1.615294e-07
-1.74252e-07
-1.875372e-07
-2.013409e-07
-2.156062e-07
-2.302636e-07
-2.452304e-07
-2.604116e-07
-2.757003e-07
-2.909788e-07
-3.061195e-07
-3.209872e-07
-3.354401e-07
-3.493326e-07
-3.625169e-07
-3.748453e-07
-3.861732e-07
-3.96361e-07
-4.052765e-07
-4.127975e-07
-4.188142e-07
-4.23231e-07
-4.259688e-07
-4.269669e-07
-4.261846e-07
-4.236029e-07
-4.192254e-07
-4.130784e-07
-4.05214e-07
-3.95713e-07
-3.846762e-07
-3.722299e-07
-3.585242e-07
-3.437319e-07
-3.280468e-07
-3.116816e-07
-2.948659e-07
-2.778422e-07
-2.608635e-07
-2.441885e-07
-2.280778e-07
-2.127891e-07
-1.985724e-07
-1.856649e-07
-1.742859e-07
-1.646322e-07
-1.568728e-07
-1.511455e-07
-1.475526e-07
-1.461584e-07
-1.469871e-07
-1.50022e-07
-1.552054e-07
-1.624402e-07
-1.715923e-07
-1.824941e-07
-1.94949e-07
-2.087371e-07
-2.236209e-07
-2.393519e-07
-2.556772e-07
-2.723461e-07
-2.891161e-07
-3.057589e-07
-3.220652e-07
-3.378483e-07
-3.52948e-07
-3.672317e-07
-3.805961e-07
-3.929666e-07
-4.042962e-07
-4.145639e-07
-4.237724e-07
-4.319451e-07
-4.391231e-07
-4.453621e-07
-4.507277e-07
-4.552923e-07
-4.591314e-07
-4.623211e-07
-4.649344e-07
-4.670392e-07
-4.686954e-07
-4.699527e-07
-4.708485e-07
-4.714062e-07
-4.716335e-07
-4.715204e-07
-4.710399e-07
-4.701518e-07
-4.687715e-07
-4.666588e-07
-4.641635e-07
1.541781e-08
1.565724e-08
1.552051e-08
1.489347e-08
1.384794e-08
1.242246e-08
1.064966e-08
8.564697e-09
6.203015e-09
3.598281e-09
7.808755e-10
-2.22337e-09
-5.394718e-09
-8.720476e-09
-1.21956e-08
-1.582294e-08
-1.961313e-08
-2.358419e-08
-2.776084e-08
-3.21736e-08
-3.685791e-08
-4.185303e-08
-4.720107e-08
-5.294602e-08
-5.913279e-08
-6.580634e-08
-7.301076e-08
-8.078838e-08
-8.917882e-08
-9.821796e-08
-1.079369e-07
-1.183605e-07
-1.295067e-07
-1.413846e-07
-1.539934e-07
-1.673215e-07
-1.813447e-07
-1.960262e-07
-2.113151e-07
-2.271465e-07
-2.434411e-07
-2.601058e-07
-2.770341e-07
-2.941068e-07
-3.11194e-07
-3.281557e-07
-3.448444e-07
-3.611065e-07
-3.767852e-07
-3.917221e-07
-4.057598e-07
-4.187446e-07
-4.305288e-07
-4.409728e-07
-4.499475e-07
-4.573369e-07
-4.630397e-07
-4.669713e-07
-4.69066e-07
-4.692781e-07
-4.675837e-07
-4.639815e-07
-4.584927e-07
-4.511648e-07
-4.420741e-07
-4.313163e-07
-4.190133e-07
-4.053112e-07
-3.903788e-07
-3.744072e-07
-3.576072e-07
-3.402071e-07
-3.224502e-07
-3.045913e-07
-2.868929e-07
-2.696213e-07
-2.53042e-07
-2.374149e-07
-2.229891e-07
-2.099981e-07
-1.986546e-07
-1.891453e-07
-1.816268e-07
-1.762212e-07
-1.730129e-07
-1.720464e-07
-1.733241e-07
-1.768067e-07
-1.824136e-07
-1.90025e-07
-1.99485e-07
-2.10606e-07
-2.231738e-07
-2.369538e-07
-2.516973e-07
-2.671484e-07
-2.83051e-07
-2.99155e-07
-3.152227e-07
-3.310342e-07
-3.463918e-07
-3.611233e-07
-3.75085e-07
-3.881625e-07
-4.002713e-07
-4.113564e-07
-4.213899e-07
-4.303685e-07
-4.383113e-07
-4.452569e-07
-4.512595e-07
-4.563857e-07
-4.607094e-07
-4.643091e-07
-4.672639e-07
-4.69651e-07
-4.715424e-07
-4.730019e-07
-4.740833e-07
-4.748274e-07
-4.752607e-07
-4.75393e-07
-4.752162e-07
-4.747044e-07
-4.738178e-07
-4.724745e-07
-4.704447e-07
-4.680604e-07
2.005412e-08
2.000203e-08
1.958499e-08
1.872704e-08
1.748217e-08
1.588471e-08
1.396563e-08
1.17579e-08
9.294711e-09
6.607394e-09
3.724062e-09
6.677994e-10
-2.544766e-09
-5.904499e-09
-9.410452e-09
-1.307016e-08
-1.689958e-08
-2.092261e-08
-2.517047e-08
-2.968074e-08
-3.449636e-08
-3.966456e-08
-4.523577e-08
-5.126249e-08
-5.779832e-08
-6.48968e-08
-7.26104e-08
-8.098939e-08
-9.008064e-08
-9.992637e-08
-1.105628e-07
-1.220187e-07
-1.343138e-07
-1.474578e-07
-1.614483e-07
-1.762699e-07
-1.918933e-07
-2.082742e-07
-2.253528e-07
-2.430537e-07
-2.612862e-07
-2.799445e-07
-2.989091e-07
-3.180475e-07
-3.372162e-07
-3.562624e-07
-3.750258e-07
-3.93341e-07
-4.110399e-07
-4.279537e-07
-4.439157e-07
-4.587634e-07
-4.723412e-07
-4.845023e-07
-4.951111e-07
-5.040453e-07
-5.111977e-07
-5.164782e-07
-5.198156e-07
-5.211585e-07
-5.204778e-07
-5.177662e-07
-5.130392e-07
-5.06338e-07
-4.977332e-07
-4.87314e-07
-4.751966e-07
-4.615211e-07
-4.464514e-07
-4.301737e-07
-4.128953e-07
-3.948421e-07
-3.76256e-07
-3.573927e-07
-3.385173e-07
-3.199008e-07
-3.018161e-07
-2.845328e-07
-2.683124e-07
-2.534034e-07
-2.400358e-07
-2.28416e-07
-2.187222e-07
-2.110995e-07
-2.056563e-07
-2.024614e-07
-2.015413e-07
-2.028798e-07
-2.064178e-07
-2.120549e-07
-2.196517e-07
-2.290341e-07
-2.39998e-07
-2.523151e-07
-2.657395e-07
-2.800148e-07
-2.948807e-07
-3.100806e-07
-3.253675e-07
-3.405105e-07
-3.552996e-07
-3.695496e-07
-3.831033e-07
-3.958332e-07
-4.076423e-07
-4.184639e-07
-4.282601e-07
-4.370201e-07
-4.447566e-07
-4.515017e-07
-4.573066e-07
-4.622353e-07
-4.663619e-07
-4.697658e-07
-4.725284e-07
-4.747294e-07
-4.764443e-07
-4.777406e-07
-4.78676e-07
-4.79295e-07
-4.796275e-07
-4.796868e-07
-4.794674e-07
-4.789461e-07
-4.780857e-07
-4.768091e-07
-4.749021e-07
-4.726736e-07
2.516889e-08
2.47869e-08
2.405578e-08
2.294298e-08
2.148094e-08
1.969784e-08
1.76213e-08
1.528052e-08
1.27048e-08
9.921951e-09
6.956436e-09
3.827489e-09
5.476432e-10
-2.87846e-09
-6.454866e-09
-1.019468e-08
-1.412005e-08
-1.826168e-08
-2.265819e-08
-2.735516e-08
-3.240402e-08
-3.786091e-08
-4.378546e-08
-5.023959e-08
-5.728625e-08
-6.498817e-08
-7.340652e-08
-8.259959e-08
-9.262126e-08
-1.035195e-07
-1.153347e-07
-1.28098e-07
-1.418298e-07
-1.565379e-07
-1.722163e-07
-1.888438e-07
-2.063831e-07
-2.247803e-07
-2.439643e-07
-2.638474e-07
-2.843254e-07
-3.052785e-07
-3.265728e-07
-3.480617e-07
-3.695878e-07
-3.909848e-07
-4.120798e-07
-4.326956e-07
-4.52653e-07
-4.717733e-07
-4.898806e-07
-5.068042e-07
-5.223806e-07
-5.364562e-07
-5.488887e-07
-5.595497e-07
-5.68326e-07
-5.751217e-07
-5.798594e-07
-5.82482e-07
-5.829538e-07
-5.812615e-07
-5.774137e-07
-5.714439e-07
-5.63416e-07
-5.534112e-07
-5.415384e-07
-5.279305e-07
-5.127445e-07
-4.961603e-07
-4.783795e-07
-4.596237e-07
-4.40132e-07
-4.201588e-07
-3.999702e-07
-3.798408e-07
-3.600494e-07
-3.408746e-07
-3.225902e-07
-3.054598e-07
-2.897317e-07
-2.756335e-07
-2.633671e-07
-2.531036e-07
-2.449791e-07
-2.390908e-07
-2.354943e-07
-2.342018e-07
-2.351812e-07
-2.383572e-07
-2.436127e-07
-2.507926e-07
-2.597078e-07
-2.701412e-07
-2.818536e-07
-2.94591e-07
-3.080917e-07
-3.220938e-07
-3.363422e-07
-3.505948e-07
-3.646285e-07
-3.782438e-07
-3.912683e-07
-4.035591e-07
-4.150042e-07
-4.255226e-07
-4.350633e-07
-4.436035e-07
-4.511463e-07
-4.577172e-07
-4.633604e-07
-4.681347e-07
-4.721113e-07
-4.753688e-07
-4.779887e-07
-4.800523e-07
-4.816372e-07
-4.828139e-07
-4.836432e-07
-4.841734e-07
-4.844381e-07
-4.84454e-07
-4.842195e-07
-4.83715e-07
-4.829069e-07
-4.817248e-07
-4.799738e-07
-4.779357e-07
3.071611e-08
2.996778e-08
2.889156e-08
2.750307e-08
2.580912e-08
2.382948e-08
2.158657e-08
1.910386e-08
1.640522e-08
1.35134e-08
1.044777e-08
7.222558e-09
3.84512e-09
3.145847e-10
-3.379073e-09
-7.255497e-09
-1.134396e-08
-1.568298e-08
-2.031955e-08
-2.530821e-08
-3.070983e-08
-3.659038e-08
-4.301953e-08
-5.006929e-08
-5.781249e-08
-6.632134e-08
-7.566572e-08
-8.591161e-08
-9.711921e-08
-1.093412e-07
-1.226207e-07
-1.369895e-07
-1.524665e-07
-1.690555e-07
-1.867443e-07
-2.055035e-07
-2.252855e-07
-2.460244e-07
-2.67636e-07
-2.900182e-07
-3.130519e-07
-3.366021e-07
-3.6052e-07
-3.846441e-07
-4.088029e-07
-4.328166e-07
-4.564998e-07
-4.796637e-07
-5.021186e-07
-5.23676e-07
-5.441512e-07
-5.633654e-07
-5.811478e-07
-5.973378e-07
-6.117867e-07
-6.243597e-07
-6.349378e-07
-6.434187e-07
-6.497189e-07
-6.537749e-07
-6.555443e-07
-6.55007e-07
-6.52164e-07
-6.470403e-07
-6.396917e-07
-6.301905e-07
-6.186369e-07
-6.051551e-07
-5.898934e-07
-5.730236e-07
-5.547398e-07
-5.35257e-07
-5.148095e-07
-4.93648e-07
-4.720377e-07
-4.502544e-07
-4.285813e-07
-4.073044e-07
-3.867084e-07
-3.670716e-07
-3.486605e-07
-3.317246e-07
-3.164911e-07
-3.031595e-07
-2.918965e-07
-2.82832e-07
-2.760553e-07
-2.716123e-07
-2.695041e-07
-2.696867e-07
-2.720719e-07
-2.765298e-07
-2.828929e-07
-2.909606e-07
-3.005057e-07
-3.11281e-07
-3.230269e-07
-3.354787e-07
-3.483745e-07
-3.61462e-07
-3.745049e-07
-3.87288e-07
-3.996223e-07
-4.113473e-07
-4.223335e-07
-4.324825e-07
-4.417273e-07
-4.500302e-07
-4.573811e-07
-4.63794e-07
-4.693039e-07
-4.739635e-07
-4.778373e-07
-4.809999e-07
-4.835312e-07
-4.85512e-07
-4.870204e-07
-4.881287e-07
-4.889002e-07
-4.893862e-07
-4.896234e-07
-4.896324e-07
-4.894154e-07
-4.889571e-07
-4.882282e-07
-4.87166e-07
-4.855971e-07
-4.83774e-07
3.66395e-08
3.549035e-08
3.404066e-08
3.235869e-08
3.04211e-08
2.823664e-08
2.582029e-08
2.318785e-08
2.035596e-08
1.734048e-08
1.415439e-08
1.080562e-08
7.295193e-09
3.61563e-09
-2.501225e-10
-4.329277e-09
-8.659281e-09
-1.328744e-08
-1.827016e-08
-2.367191e-08
-2.956393e-08
-3.602281e-08
-4.312896e-08
-5.096494e-08
-5.961375e-08
-6.915695e-08
-7.967279e-08
-9.123414e-08
-1.039064e-07
-1.177454e-07
-1.327951e-07
-1.49086e-07
-1.666327e-07
-1.854328e-07
-2.054655e-07
-2.266904e-07
-2.490475e-07
-2.724569e-07
-2.968192e-07
-3.220166e-07
-3.47914e-07
-3.743607e-07
-4.011918e-07
-4.282312e-07
-4.55293e-07
-4.821842e-07
-5.087071e-07
-5.346616e-07
-5.598476e-07
-5.840672e-07
-6.071274e-07
-6.288413e-07
-6.490311e-07
-6.675294e-07
-6.841813e-07
-6.988458e-07
-7.113977e-07
-7.217288e-07
-7.297495e-07
-7.353894e-07
-7.385995e-07
-7.393524e-07
-7.376414e-07
-7.334824e-07
-7.269227e-07
-7.18024e-07
-7.068771e-07
-6.93596e-07
-6.78319e-07
-6.612078e-07
-6.424471e-07
-6.222431e-07
-6.008224e-07
-5.7843e-07
-5.553271e-07
-5.317881e-07
-5.080978e-07
-4.845474e-07
-4.614304e-07
-4.39038e-07
-4.176538e-07
-3.975489e-07
-3.789761e-07
-3.621646e-07
-3.473142e-07
-3.345908e-07
-3.241215e-07
-3.159915e-07
-3.10241e-07
-3.06864e-07
-3.058083e-07
-3.069769e-07
-3.102306e-07
-3.153928e-07
-3.222545e-07
-3.305811e-07
-3.401196e-07
-3.506067e-07
-3.617762e-07
-3.73367e-07
-3.8513e-07
-3.968344e-07
-4.08273e-07
-4.192657e-07
-4.296628e-07
-4.393459e-07
-4.482285e-07
-4.562547e-07
-4.633975e-07
-4.696565e-07
-4.750536e-07
-4.796303e-07
-4.834441e-07
-4.865624e-07
-4.890603e-07
-4.910157e-07
-4.925056e-07
-4.936023e-07
-4.943701e-07
-4.948623e-07
-4.951184e-07
-4.951619e-07
-4.94999e-07
-4.946185e-07
-4.939959e-07
-4.930765e-07
-4.917088e-07
-4.90116e-07
4.287111e-08
4.128874e-08
3.943999e-08
3.744974e-08
3.525961e-08
3.286426e-08
3.026891e-08
2.747945e-08
2.450318e-08
2.134747e-08
1.801738e-08
1.451325e-08
1.082854e-08
6.948025e-09
2.846521e-09
-1.511842e-09
-6.173755e-09
-1.119637e-08
-1.66465e-08
-2.259946e-08
-2.913771e-08
-3.634912e-08
-4.432529e-08
-5.315957e-08
-6.294497e-08
-7.377202e-08
-8.572645e-08
-9.888679e-08
-1.13322e-07
-1.290891e-07
-1.462308e-07
-1.647734e-07
-1.847252e-07
-2.060746e-07
-2.287896e-07
-2.528167e-07
-2.780812e-07
-3.044873e-07
-3.319192e-07
-3.602421e-07
-3.893041e-07
-4.189378e-07
-4.489627e-07
-4.791873e-07
-5.094118e-07
-5.394299e-07
-5.690319e-07
-5.980066e-07
-6.261439e-07
-6.53237e-07
-6.790843e-07
-7.034918e-07
-7.262746e-07
-7.47259e-07
-7.662839e-07
-7.832029e-07
-7.978848e-07