/*--------------------------------*- C++ -*----------------------------------*\
| =========                 |                                                 |
| \\      /  F ield         | OpenFOAM: The Open Source CFD Toolbox           |
|  \\    /   O peration     | Version:  2406                                  |
|   \\  /    A nd           | Website:  www.openfoam.com                      |
|    \\/     M anipulation  |                                                 |
\*---------------------------------------------------------------------------*/
FoamFile
{
    version     2.0;
    format      ascii;
    arch        "LSB;label=32;scalar=64";
    class       surfaceScalarField;
    location    "6501";
    object      phi;
}
// * * * * * * * * * * * * * * * * * * * * * * * * * * * * * * * * * * * * * //

dimensions      [0 3 -1 0 0 0 0];

oriented        oriented;

internalField   nonuniform List<scalar> 
32512
(
8.624554e-12
-2.643036e-11
8.154764e-10
-8.070628e-10
2.408222e-09
-1.592885e-09
4.575684e-09
-2.167459e-09
7.095026e-09
-2.519293e-09
9.77256e-09
-2.677559e-09
1.245178e-08
-2.679268e-09
1.50117e-08
-2.559921e-09
1.736224e-08
-2.350511e-09
1.943927e-08
-2.077015e-09
2.119995e-08
-1.760708e-09
2.26186e-08
-1.418683e-09
2.368294e-08
-1.064339e-09
2.439072e-08
-7.077777e-10
2.474685e-08
-3.561265e-10
2.476072e-08
-1.38702e-11
2.444392e-08
3.168046e-10
2.38083e-08
6.356243e-10
2.286441e-08
9.438861e-10
2.162029e-08
1.244106e-09
2.008062e-08
1.539654e-09
1.824621e-08
1.834408e-09
1.611378e-08
2.13243e-09
1.367609e-08
2.437702e-09
1.092221e-08
2.753884e-09
7.838068e-09
3.084152e-09
4.407041e-09
3.431031e-09
6.106859e-10
3.796355e-09
-3.570615e-09
4.181297e-09
-8.156874e-09
4.586254e-09
-1.316775e-08
5.010871e-09
-1.862192e-08
5.45417e-09
-2.453647e-08
5.914557e-09
-3.092633e-08
6.389863e-09
-3.780372e-08
6.877382e-09
-4.517763e-08
7.373907e-09
-5.305338e-08
7.875747e-09
-6.143214e-08
8.37875e-09
-7.031046e-08
8.878317e-09
-7.967988e-08
9.369421e-09
-8.95265e-08
9.846625e-09
-9.983061e-08
1.030412e-08
-1.105663e-07
1.073574e-08
-1.217014e-07
1.113504e-08
-1.331967e-07
1.149535e-08
-1.450066e-07
1.180982e-08
-1.570781e-07
1.207152e-08
-1.693516e-07
1.22735e-08
-1.817605e-07
1.240892e-08
-1.942317e-07
1.247115e-08
-2.066855e-07
1.245383e-08
-2.190365e-07
1.235102e-08
-2.311938e-07
1.21573e-08
-2.430617e-07
1.18679e-08
-2.545405e-07
1.147876e-08
-2.655272e-07
1.09867e-08
-2.759167e-07
1.03895e-08
-2.856027e-07
9.685992e-09
-2.944788e-07
8.876168e-09
-3.024401e-07
7.961271e-09
-3.093839e-07
6.943859e-09
-3.152118e-07
5.827877e-09
-3.198305e-07
4.618721e-09
-3.231538e-07
3.323265e-09
-3.251037e-07
1.949858e-09
-3.25612e-07
5.082828e-10
-3.246217e-07
-9.902601e-10
-3.220885e-07
-2.533178e-09
-3.179821e-07
-4.106397e-09
-3.122874e-07
-5.694696e-09
-3.050056e-07
-7.281815e-09
-2.96155e-07
-8.85063e-09
-2.857717e-07
-1.038337e-08
-2.739098e-07
-1.186185e-08
-2.60642e-07
-1.326778e-08
-2.46059e-07
-1.458304e-08
-2.302689e-07
-1.579005e-08
-2.133969e-07
-1.687208e-08
-1.955832e-07
-1.781368e-08
-1.769822e-07
-1.860101e-08
-1.5776e-07
-1.922216e-08
-1.380925e-07
-1.966754e-08
-1.181624e-07
-1.993014e-08
-9.81566e-08
-2.000575e-08
-7.826342e-08
-1.989319e-08
-5.866905e-08
-1.959438e-08
-3.955466e-08
-1.91144e-08
-2.109323e-08
-1.846143e-08
-3.446688e-09
-1.764654e-08
1.32371e-08
-1.668379e-08
2.882692e-08
-1.558981e-08
4.320973e-08
-1.438281e-08
5.629241e-08
-1.308267e-08
6.800299e-08
-1.171058e-08
7.829137e-08
-1.028838e-08
8.71294e-08
-8.838022e-09
9.451039e-08
-7.380991e-09
1.004483e-07
-5.937858e-09
1.049761e-07
-4.527821e-09
1.081444e-07
-3.168312e-09
1.100191e-07
-1.874679e-09
1.10679e-07
-6.599383e-10
1.102137e-07
4.653606e-10
1.087203e-07
1.493344e-09
1.063016e-07
2.418732e-09
1.030629e-07
3.238735e-09
9.910992e-08
3.952937e-09
9.454683e-08
4.563088e-09
8.947399e-08
5.072838e-09
8.398657e-08
5.487425e-09
7.817326e-08
5.813305e-09
7.211553e-08
6.057728e-09
6.588728e-08
6.228249e-09
5.955511e-08
6.332167e-09
5.317922e-08
6.375887e-09
4.681504e-08
6.364182e-09
4.051567e-08
6.299364e-09
3.433531e-08
6.180354e-09
2.833361e-08
6.001698e-09
2.258103e-08
5.752581e-09
1.716502e-08
5.416005e-09
1.219653e-08
4.96849e-09
7.815448e-09
4.381076e-09
4.191907e-09
3.623538e-09
1.516264e-09
2.67564e-09
-3.638131e-11
1.552643e-09
-4.099509e-10
3.735674e-10
-4.099522e-10
7.972762e-10
-8.239169e-10
3.362848e-09
-3.372968e-09
7.521439e-09
-5.751407e-09
1.286862e-08
-7.514568e-09
1.89583e-08
-8.609033e-09
2.537671e-08
-9.096036e-09
3.176893e-08
-9.071465e-09
3.784546e-08
-8.636384e-09
4.337975e-08
-7.884794e-09
4.820194e-08
-6.899259e-09
5.219109e-08
-5.749908e-09
5.52671e-08
-4.494695e-09
5.738284e-08
-3.180051e-09
5.851671e-08
-1.841651e-09
5.866586e-08
-5.052793e-10
5.78398e-08
8.121849e-10
5.60549e-08
2.101702e-09
5.332963e-08
3.360889e-09
4.968063e-08
4.592875e-09
4.511964e-08
5.805073e-09
3.965137e-08
7.00793e-09
3.327204e-08
8.213736e-09
2.596897e-08
9.435517e-09
1.77206e-08
1.068608e-08
8.497381e-09
1.197711e-08
-1.737085e-09
1.331863e-08
-1.302455e-08
1.47185e-08
-2.541021e-08
1.618202e-08
-3.894076e-08
1.771184e-08
-5.366248e-08
1.930796e-08
-6.961938e-08
2.096777e-08
-8.685138e-08
2.268617e-08
-1.053926e-07
2.445573e-08
-1.252696e-07
2.626686e-08
-1.465001e-07
2.810791e-08
-1.690916e-07
2.996539e-08
-1.930398e-07
3.1824e-08
-2.183279e-07
3.36668e-08
-2.449249e-07
3.547532e-08
-2.727851e-07
3.722962e-08
-3.01847e-07
3.89085e-08
-3.320325e-07
4.048964e-08
-3.632465e-07
4.194979e-08
-3.953765e-07
4.3265e-08
-4.28292e-07
4.441089e-08
-4.618452e-07
4.536294e-08
-4.958705e-07
4.609681e-08
-5.301856e-07
4.658868e-08
-5.645923e-07
4.681558e-08
-5.98877e-07
4.675582e-08
-6.328124e-07
4.638931e-08
-6.661594e-07
4.569793e-08
-6.98668e-07
4.466593e-08
-7.300803e-07
4.328025e-08
-7.601325e-07
4.153089e-08
-7.88557e-07
3.94112e-08
-8.150856e-07
3.691816e-08
-8.394523e-07
3.405267e-08
-8.613959e-07
3.081979e-08
-8.806635e-07
2.72289e-08
-8.970136e-07
2.329389e-08
-9.102189e-07
1.903325e-08
-9.200704e-07
1.447014e-08
-9.263795e-07
9.632388e-09
-9.28982e-07
4.55239e-09
-9.277407e-07
-7.329947e-10
-9.225483e-07
-6.182727e-09
-9.1333e-07
-1.17514e-08
-9.000466e-07
-1.738988e-08
-8.826954e-07
-2.304584e-08
-8.61313e-07
-2.866418e-08
-8.35976e-07
-3.418765e-08
-8.068019e-07
-3.95575e-08
-7.739494e-07
-4.47143e-08
-7.376185e-07
-4.959873e-08
-6.98049e-07
-5.415258e-08
-6.555193e-07
-5.831972e-08
-6.103442e-07
-6.204714e-08
-5.628719e-07
-6.528599e-08
-5.134803e-07
-6.799266e-08
-4.625726e-07
-7.012979e-08
-4.10573e-07
-7.166719e-08
-3.579204e-07
-7.258275e-08
-3.050631e-07
-7.28631e-08
-2.52452e-07
-7.250423e-08
-2.005346e-07
-7.151182e-08
-1.497476e-07
-6.990138e-08
-1.005108e-07
-6.769819e-08
-5.322041e-08
-6.493695e-08
-8.24295e-09
-6.166125e-08
3.408934e-08
-5.79221e-08
7.348519e-08
-5.377866e-08
1.096982e-07
-4.929569e-08
1.425288e-07
-4.454117e-08
1.718269e-07
-3.958643e-08
1.974928e-07
-3.450398e-08
2.194776e-07
-2.936583e-08
2.377817e-07
-2.42419e-08
2.524524e-07
-1.919855e-08
2.635813e-07
-1.429723e-08
2.712999e-07
-9.593252e-09
2.757749e-07
-5.134892e-09
2.772029e-07
-9.626496e-10
2.75805e-07
2.891219e-09
2.718205e-07
6.403223e-09
2.655011e-07
9.558139e-09
2.571051e-07
1.234893e-08
2.46892e-07
1.477614e-08
2.351178e-07
1.684709e-08
2.220302e-07
1.857496e-08
2.078661e-07
1.997748e-08
1.928482e-07
2.107561e-08
1.771847e-07
2.189175e-08
1.610689e-07
2.244791e-08
1.446813e-07
2.276346e-08
1.281928e-07
2.28527e-08
1.1177e-07
2.272217e-08
9.558249e-08
2.236785e-08
7.981183e-08
2.177235e-08
6.466184e-08
2.090256e-08
5.036953e-08
1.970831e-08
3.721454e-08
1.812348e-08
2.552387e-08
1.607174e-08
1.566515e-08
1.348226e-08
8.016665e-09
1.032412e-08
2.893568e-09
6.675734e-09
3.878691e-10
2.879261e-09
-2.208451e-11
1.590819e-09
-2.414875e-09
5.755662e-09
-7.537742e-09
1.195703e-08
-1.195268e-08
1.962435e-08
-1.518193e-08
2.817999e-08
-1.716476e-08
3.708473e-08
-1.800077e-08
4.586414e-08
-1.78508e-08
5.411946e-08
-1.689168e-08
6.152878e-08
-1.529415e-08
6.784234e-08
-1.321288e-08
7.287488e-08
-1.078246e-08
7.649644e-08
-8.116251e-09
7.862285e-08
-5.306453e-09
7.920614e-08
-2.424943e-09
7.822543e-08
4.754342e-10
7.567834e-08
3.359276e-09
7.157344e-08
6.206604e-09
6.592354e-08
9.010779e-09
5.874019e-08
1.177621e-08
5.002935e-08
1.451589e-08
3.978828e-08
1.7249e-08
2.800359e-08
1.999844e-08
1.465051e-08
2.27886e-08
-3.068092e-10
2.564341e-08
-1.691436e-08
2.858467e-08
-3.522629e-08
3.163057e-08
-5.530248e-08
3.479468e-08
-7.720589e-08
3.808542e-08
-1.009997e-07
4.150562e-08
-1.267442e-07
4.505247e-08
-1.54494e-07
4.871761e-08
-1.842952e-07
5.248737e-08
-2.161826e-07
5.63431e-08
-2.501772e-07
6.026147e-08
-2.862841e-07
6.421485e-08
-3.244904e-07
6.817164e-08
-3.64763e-07
7.209656e-08
-4.070472e-07
7.595099e-08
-4.512652e-07
7.969331e-08
-4.973148e-07
8.327922e-08
-5.450684e-07
8.666216e-08
-5.943726e-07
8.979378e-08
-6.450472e-07
9.262441e-08
-6.968859e-07
9.51037e-08
-7.496562e-07
9.718118e-08
-8.031002e-07
9.880698e-08
-8.56936e-07
9.993253e-08
-9.108586e-07
1.005113e-07
-9.645425e-07
1.004995e-07
-1.017644e-06
9.985696e-08
-1.069802e-06
9.854766e-08
-1.120645e-06
9.654059e-08
-1.169789e-06
9.381033e-08
-1.216847e-06
9.033768e-08
-1.261426e-06
8.611023e-08
-1.303137e-06
8.11228e-08
-1.341597e-06
7.537794e-08
-1.376431e-06
6.88862e-08
-1.407277e-06
6.166648e-08
-1.433795e-06
5.374618e-08
-1.455662e-06
4.516136e-08
-1.472586e-06
3.595672e-08
-1.484301e-06
2.618557e-08
-1.490578e-06
1.590965e-08
-1.491225e-06
5.198823e-09
-1.486089e-06
-5.868957e-09
-1.475063e-06
-1.720888e-08
-1.458085e-06
-2.872863e-08
-1.435145e-06
-4.033018e-08
-1.406281e-06
-5.191038e-08
-1.371583e-06
-6.336185e-08
-1.331196e-06
-7.457409e-08
-1.285319e-06
-8.543475e-08
-1.234203e-06
-9.5831e-08
-1.17815e-06
-1.05651e-07
-1.117517e-06
-1.147857e-07
-1.052706e-06
-1.231303e-07
-9.841675e-07
-1.305861e-07
-9.12391e-07
-1.370625e-07
-8.379051e-07
-1.424786e-07
-7.612699e-07
-1.46765e-07
-6.830716e-07
-1.498655e-07
-6.039156e-07
-1.517387e-07
-5.244196e-07
-1.523591e-07
-4.452057e-07
-1.517181e-07
-3.668926e-07
-1.498249e-07
-2.900872e-07
-1.467068e-07
-2.153763e-07
-1.42409e-07
-1.433187e-07
-1.369946e-07
-7.443707e-08
-1.305429e-07
-9.210104e-09
-1.231491e-07
5.193216e-08
-1.149209e-07
1.08616e-07
-1.059796e-07
1.6053e-07
-9.645517e-08
2.074268e-07
-8.648314e-08
2.491257e-07
-7.620289e-08
2.855144e-07
-6.575452e-08
3.165482e-07
-5.527575e-08
3.422488e-07
-4.489909e-08
3.627006e-07
-3.474912e-08
3.780475e-07
-2.494011e-08
3.884865e-07
-1.55739e-08
3.942621e-07
-6.738259e-09
3.956591e-07
1.494257e-09
3.929949e-07
9.067418e-09
3.866116e-07
1.594139e-08
3.768683e-07
2.209228e-08
3.641329e-07
2.75115e-08
3.487756e-07
3.220439e-08
3.311621e-07
3.618846e-08
3.116484e-07
3.949114e-08
2.90577e-07
4.214699e-08
2.682743e-07
4.419446e-08
2.450501e-07
4.56721e-08
2.211993e-07
4.661423e-08
1.970058e-07
4.704627e-08
1.727483e-07
4.697966e-08
1.487093e-07
4.640678e-08
1.251855e-07
4.529621e-08
1.024987e-07
4.35893e-08
8.100781e-08
4.119922e-08
6.111637e-08
3.801491e-08
4.327412e-08
3.391398e-08
2.796467e-08
2.87917e-08
1.567106e-08
2.261772e-08
6.807917e-09
1.553887e-08
1.611019e-09
8.076155e-09
1.588933e-09
2.179438e-09
-4.594308e-09
7.558582e-09
-1.291681e-08
1.525455e-08
-1.964869e-08
2.451461e-08
-2.444207e-08
3.464836e-08
-2.729852e-08
4.503e-08
-2.838235e-08
5.510923e-08
-2.792999e-08
6.441791e-08
-2.620038e-08
7.257092e-08
-2.344721e-08
7.926225e-08
-1.990423e-08
8.425784e-08
-1.577805e-08
8.738656e-08
-1.124497e-08
8.853013e-08
-6.450028e-09
8.761278e-08
-1.507592e-09
8.459098e-08
3.497233e-09
7.944384e-08
8.506427e-09
7.216428e-08
1.348615e-08
6.275137e-08
1.842367e-08
5.120386e-08
2.33237e-08
3.75151e-08
2.820465e-08
2.166946e-08
3.309464e-08
3.640218e-09
3.802769e-08
-1.661135e-08
4.304019e-08
-3.913546e-08
4.816753e-08
-6.399206e-08
5.344129e-08
-9.124855e-08
5.888705e-08
-1.209766e-07
6.452276e-08
-1.532488e-07
7.035757e-08
-1.881345e-07
7.63913e-08
-2.256962e-07
8.261421e-08
-2.659858e-07
8.900722e-08
-3.090407e-07
9.554227e-08
-3.548805e-07
1.021829e-07
-4.035037e-07
1.088846e-07
-4.54885e-07
1.155961e-07
-5.089727e-07
1.222593e-07
-5.656864e-07
1.288102e-07
-6.249152e-07
1.351798e-07
-6.865163e-07
1.412944e-07
-7.503139e-07
1.470768e-07
-8.160983e-07
1.524466e-07
-8.836263e-07
1.573217e-07
-9.52621e-07
1.616191e-07
-1.022773e-06
1.652557e-07
-1.093742e-06
1.681498e-07
-1.165157e-06
1.702222e-07
-1.236622e-06
1.713975e-07
-1.307715e-06
1.716049e-07
-1.377996e-06
1.707801e-07
-1.447005e-06
1.688656e-07
-1.51427e-06
1.658127e-07
-1.579311e-06
1.615816e-07
-1.641643e-06
1.561428e-07
-1.700783e-06
1.494777e-07
-1.756252e-06
1.415793e-07
-1.807582e-06
1.324526e-07
-1.854319e-06
1.221153e-07
-1.896031e-06
1.105974e-07
-1.932306e-06
9.794231e-08
-1.962766e-06
8.420598e-08
-1.987062e-06
6.945738e-08
-2.004884e-06
5.377808e-08
-2.01596e-06
3.726194e-08
-2.020065e-06
2.001467e-08
-2.01702e-06
2.153328e-09
-2.006694e-06
-1.619404e-08
-1.989013e-06
-3.488999e-08
-1.963954e-06
-5.378792e-08
-1.93155e-06
-7.273386e-08
-1.891893e-06
-9.156744e-08
-1.845132e-06
-1.101233e-07
-1.791474e-06
-1.282324e-07
-1.731184e-06
-1.457244e-07
-1.664586e-06
-1.624288e-07
-1.59206e-06
-1.781775e-07
-1.514038e-06
-1.928071e-07
-1.431008e-06
-2.06161e-07
-1.343502e-06
-2.180918e-07
-1.2521e-06
-2.284643e-07
-1.157421e-06
-2.371576e-07
-1.060118e-06
-2.440675e-07
-9.608749e-07
-2.491091e-07
-8.603947e-07
-2.52219e-07
-7.593969e-07
-2.533569e-07
-6.586077e-07
-2.525074e-07
-5.587516e-07
-2.49681e-07
-4.605435e-07
-2.449149e-07
-3.646793e-07
-2.382732e-07
-2.718277e-07
-2.298462e-07
-1.826211e-07
-2.197495e-07
-9.764768e-08
-2.081225e-07
-1.744264e-08
-1.95126e-07
5.751696e-08
-1.809392e-07
1.268196e-07
-1.657578e-07
1.901252e-07
-1.497888e-07
2.471685e-07
-1.332461e-07
2.977608e-07
-1.163469e-07
3.417922e-07
-9.930714e-08
3.792303e-07
-8.23372e-08
4.101189e-07
-6.563773e-08
4.345745e-07
-4.939565e-08
4.527813e-07
-3.378072e-08
4.649856e-07
-1.89426e-08
4.714885e-07
-5.008598e-09
4.726381e-07
7.917806e-09
4.688206e-07
1.975889e-08
4.604515e-07
3.046134e-08
4.479667e-07
3.999632e-08
4.318136e-07
4.835754e-08
4.124432e-07
5.555882e-08
3.903036e-07
6.163077e-08
3.658339e-07
6.661668e-08
3.394608e-07
7.05675e-08
3.115969e-07
7.353598e-08
2.826411e-07
7.557005e-08
2.529818e-07
7.67056e-08
2.230025e-07
7.695888e-08
1.930903e-07
7.631901e-08
1.63645e-07
7.474152e-08
1.350903e-07
7.214399e-08
1.078836e-07
6.840588e-08
8.252285e-08
6.337567e-08
5.954675e-08
5.689007e-08
3.952532e-08
4.881312e-08
2.303687e-08
3.910617e-08
1.063238e-08
2.794336e-08
2.801153e-09
1.590738e-08
4.390083e-09
2.55521e-09
-7.14947e-09
8.719273e-09
-1.908094e-08
1.734765e-08
-2.827715e-08
2.752128e-08
-3.461571e-08
3.844703e-08
-3.822421e-08
4.943012e-08
-3.936539e-08
5.986759e-08
-3.836748e-08
6.924637e-08
-3.557921e-08
7.714052e-08
-3.134139e-08
8.320621e-08
-2.596991e-08
8.717443e-08
-1.974627e-08
8.884204e-08
-1.291258e-08
8.806167e-08
-5.669669e-09
8.473125e-08
1.822832e-09
7.878334e-08
9.44515e-09
7.017531e-08
1.711446e-08
5.888001e-08
2.478144e-08
4.487771e-08
3.242595e-08
2.814929e-08
4.005211e-08
8.671015e-09
4.768292e-08
-1.358921e-08
5.535487e-08
-3.867394e-08
6.311242e-08
-6.663649e-08
7.100275e-08
-9.754013e-08
7.907118e-08
-1.31456e-07
8.735714e-08
-1.684599e-07
9.589097e-08
-2.086286e-07
1.046915e-07
-2.520355e-07
1.137644e-07
-2.987457e-07
1.231016e-07
-3.48812e-07
1.326805e-07
-4.022697e-07
1.424649e-07
-4.591326e-07
1.524052e-07
-5.193891e-07
1.624394e-07
-5.829985e-07
1.72494e-07
-6.498878e-07
1.824854e-07
-7.19949e-07
1.923205e-07
-7.93037e-07
2.018983e-07
-8.689681e-07
2.111109e-07
-9.475188e-07
2.198452e-07
-1.028426e-06
2.279834e-07
-1.111385e-06
2.354056e-07
-1.196053e-06
2.419904e-07
-1.282051e-06
2.476173e-07
-1.368963e-06
2.521677e-07
-1.456341e-06
2.555277e-07
-1.543708e-06
2.575887e-07
-1.63056e-06
2.5825e-07
-1.716376e-06
2.574204e-07
-1.800615e-06
2.550191e-07
-1.882727e-06
2.509781e-07
-1.962157e-06
2.452426e-07
-2.038348e-06
2.377727e-07
-2.110749e-06
2.285441e-07
-2.17882e-06
2.175485e-07
-2.242036e-06
2.047947e-07
-2.299891e-06
1.903084e-07
-2.351909e-06
1.741326e-07
-2.397639e-06
1.563275e-07
-2.436667e-06
1.369703e-07
-2.468616e-06
1.161551e-07
-2.493151e-06
9.399217e-08
-2.50998e-06
7.060754e-08
-2.51886e-06
4.614235e-08
-2.519598e-06
2.075209e-08
-2.512051e-06
-5.393683e-09
-2.496131e-06
-3.21135e-08
-2.471807e-06
-5.92143e-08
-2.439102e-06
-8.649349e-08
-2.398095e-06
-1.1374e-07
-2.348927e-06
-1.407358e-07
-2.291793e-06
-1.672574e-07
-2.226947e-06
-1.93078e-07
-2.154702e-06
-2.179694e-07
-2.075427e-06
-2.417044e-07
-1.989545e-06
-2.640594e-07
-1.897535e-06
-2.848173e-07
-1.799926e-06
-3.037698e-07
-1.697297e-06
-3.20721e-07
-1.59027e-06
-3.354905e-07
-1.479512e-06
-3.479161e-07
-1.365722e-06
-3.578576e-07
-1.249632e-06
-3.651992e-07
-1.131998e-06
-3.698528e-07
-1.013594e-06
-3.717603e-07
-8.952059e-07
-3.708958e-07
-7.776196e-07
-3.672673e-07
-6.616167e-07
-3.609178e-07
-5.47964e-07
-3.519259e-07
-4.374048e-07
-3.404054e-07
-3.306501e-07
-3.265041e-07
-2.2837e-07
-3.104027e-07
-1.311846e-07
-2.923113e-07
-3.965682e-08
-2.72467e-07
4.571483e-08
-2.511294e-07
1.245027e-07
-2.285766e-07
1.963558e-07
-2.050993e-07
2.61004e-07
-1.809951e-07
3.182599e-07
-1.56563e-07
3.680202e-07
-1.320975e-07
4.102658e-07
-1.078833e-07
4.450592e-07
-8.41891e-08
4.725417e-07
-6.126322e-08
4.92928e-07
-3.93289e-08
5.065001e-07
-1.85807e-08
5.135998e-07
8.181189e-10
5.146209e-07
1.873782e-08
5.099992e-07
3.5083e-08
5.002038e-07
4.979172e-08
4.857272e-07
6.283414e-08
4.670765e-07
7.420944e-08
4.447656e-07
8.39417e-08
4.193077e-07
9.207456e-08
3.912107e-07
9.86645e-08
3.609737e-07
1.03773e-07
3.290862e-07
1.074575e-07
2.960298e-07
1.09762e-07
2.622822e-07
1.107064e-07
2.283241e-07
1.102771e-07
1.946471e-07
1.084186e-07
1.617628e-07
1.050282e-07
1.302122e-07
9.995654e-08
1.005715e-07
9.301634e-08
7.34559e-08
8.400567e-08
4.951766e-08
7.275135e-08
2.944215e-08
5.918168e-08
1.394818e-08
4.343732e-08
3.814973e-09
2.604058e-08
8.205054e-09
2.745176e-09
-9.894668e-09
9.287946e-09
-2.562378e-08
1.830789e-08
-3.729709e-08
2.875516e-08
-4.506293e-08
3.975077e-08
-4.921976e-08
5.054452e-08
-5.015915e-08
6.049549e-08
-4.83185e-08
6.906133e-08
-4.414509e-08
7.579062e-08
-3.807069e-08
8.031542e-08
-3.049472e-08
8.234298e-08
-2.177383e-08
8.164641e-08
-1.221601e-08
7.80547e-08
-2.077957e-09
7.144218e-08
8.435362e-09
6.171825e-08
1.916908e-08
4.88175e-08
3.001519e-08
3.269057e-08
4.090834e-08
1.329619e-08
5.182031e-08
-9.40549e-09
6.275379e-08
-3.5458e-08
7.373543e-08
-6.491168e-08
8.480856e-08
-9.782531e-08
9.602606e-08
-1.342661e-07
1.074436e-07
-1.743083e-07
1.191133e-07
-2.180299e-07
1.310788e-07
-2.655096e-07
1.433706e-07
-3.168213e-07
1.560032e-07
-3.720297e-07
1.689728e-07
-4.311847e-07
1.822565e-07
-4.943162e-07
1.95812e-07
-5.614292e-07
2.095778e-07
-6.324988e-07
2.234748e-07
-7.074662e-07
2.374069e-07
-7.862353e-07
2.512631e-07
-8.686688e-07
2.649189e-07
-9.545867e-07
2.782384e-07
-1.043764e-06
2.910758e-07
-1.135931e-06
3.032778e-07
-1.230771e-06
3.146853e-07
-1.327924e-06
3.25136e-07
-1.426985e-06
3.344663e-07
-1.527508e-06
3.425138e-07
-1.629011e-06
3.491202e-07
-1.730976e-06
3.54133e-07
-1.832857e-06
3.574084e-07
-1.934082e-06
3.588135e-07
-2.03406e-06
3.582285e-07
-2.132189e-06
3.555488e-07
-2.227856e-06
3.506866e-07
-2.32045e-06
3.435724e-07
-2.409364e-06
3.341563e-07
-2.494001e-06
3.22409e-07
-2.573779e-06
3.083224e-07
-2.64814e-06
2.919099e-07
-2.716552e-06
2.732064e-07
-2.778512e-06
2.522684e-07
-2.833553e-06
2.291738e-07
-2.881247e-06
2.040209e-07
-2.921205e-06
1.769283e-07
-2.953083e-06
1.480339e-07
-2.976585e-06
1.17494e-07
-2.99146e-06
8.548258e-08
-2.997508e-06
5.219029e-08
-2.99458e-06
1.782347e-08
-2.982578e-06
-1.739563e-08
-2.961457e-06
-5.323362e-08
-2.931228e-06
-8.944423e-08
-2.89195e-06
-1.257714e-07
-2.843739e-06
-1.619503e-07
-2.786767e-06
-1.977083e-07
-2.721257e-06
-2.327678e-07
-2.647487e-06
-2.668473e-07
-2.565792e-06
-2.996646e-07
-2.476558e-06
-3.309388e-07
-2.380224e-06
-3.603933e-07
-2.277282e-06
-3.877589e-07
-2.168275e-06
-4.127773e-07
-2.053791e-06
-4.352044e-07
-1.934468e-06
-4.548142e-07
-1.810981e-06
-4.714024e-07
-1.684049e-06
-4.847903e-07
-1.554419e-06
-4.948286e-07
-1.422871e-06
-5.01401e-07
-1.290204e-06
-5.04427e-07
-1.157234e-06
-5.038657e-07
-1.024785e-06
-4.99717e-07
-8.936785e-07
-4.920241e-07
-7.647302e-07
-4.808742e-07
-6.387373e-07
-4.663983e-07
-5.164704e-07
-4.48771e-07
-3.986649e-07
-4.282081e-07
-2.860118e-07
-4.049644e-07
-1.791491e-07
-3.793297e-07
-7.865379e-08
-3.516247e-07
1.496486e-08
-3.221953e-07
1.012723e-07
-2.914067e-07
1.799144e-07
-2.596373e-07
2.506213e-07
-2.272699e-07
3.132099e-07
-1.946861e-07
3.675851e-07
-1.622586e-07
4.1374e-07
-1.303439e-07
4.51753e-07
-9.927625e-08
4.817852e-07
-6.936117e-08
5.040752e-07
-4.087064e-08
5.189321e-07
-1.403881e-08
5.267295e-07
1.094045e-08
5.278955e-07
3.391702e-08
5.229043e-07
5.478284e-08
5.122668e-07
7.347166e-08
4.965205e-07
8.995572e-08
4.762212e-07
1.04241e-07
4.519349e-07
1.163608e-07
4.242314e-07
1.26368e-07
3.936794e-07
1.34325e-07
3.608442e-07
1.402927e-07
3.262875e-07
1.443187e-07
2.905694e-07
1.464245e-07
2.542532e-07
1.465933e-07
2.179116e-07
1.447602e-07
1.821344e-07
1.408054e-07
1.475367e-07
1.345542e-07
1.147668e-07
1.257862e-07
8.451384e-08
1.142586e-07
5.751622e-08
9.974896e-08
3.45762e-08
8.212169e-08
1.658912e-08
6.14244e-08
4.608522e-09
3.802117e-08
1.281357e-08
2.780434e-09
-1.267515e-08
9.338023e-09
-3.218135e-08
1.824783e-08
-4.620683e-08
2.837048e-08
-5.518554e-08
3.87643e-08
-5.961359e-08
4.863892e-08
-6.003382e-08
5.732803e-08
-5.700764e-08
6.427189e-08
-5.108896e-08
6.900495e-08
-4.280375e-08
7.114549e-08
-3.263526e-08
7.038581e-08
-2.101415e-08
6.648226e-08
-8.31246e-09
5.924519e-08
5.15913e-09
4.852851e-08
1.915205e-08
3.422008e-08
3.34775e-08
1.623208e-08
4.800318e-08
-5.507613e-09
6.264802e-08
-3.1063e-08
7.737569e-08
-6.049584e-08
9.218662e-08
-9.386991e-08
1.071095e-07
-1.312538e-07
1.221924e-07
-1.727215e-07
1.374939e-07
-2.183521e-07
1.530741e-07
-2.682266e-07
1.689878e-07
-3.224248e-07
1.852771e-07
-3.810206e-07
2.019664e-07
-4.440763e-07
2.190589e-07
-5.116374e-07
2.365339e-07
-5.837263e-07
2.543455e-07
-6.603371e-07
2.724227e-07
-7.414298e-07
2.906705e-07
-8.26926e-07
3.08971e-07
-9.167048e-07
3.271856e-07
-1.010599e-06
3.451573e-07
-1.108393e-06
3.627132e-07
-1.209822e-06
3.796673e-07
-1.31457e-06
3.958233e-07
-1.42227e-06
4.109776e-07
-1.532507e-06
4.249223e-07
-1.644819e-06
4.374486e-07
-1.758702e-06
4.483495e-07
-1.873613e-06
4.57424e-07
-1.988972e-06
4.644793e-07
-2.104173e-06
4.693345e-07
-2.218588e-06
4.718235e-07
-2.331572e-06
4.717977e-07
-2.442472e-06
4.69128e-07
-2.550631e-06
4.637076e-07
-2.655397e-06
4.554528e-07
-2.756129e-06
4.443049e-07
-2.852204e-06
4.302308e-07
-2.943018e-06
4.132234e-07
-3.027998e-06
3.933017e-07
-3.106598e-06
3.705108e-07
-3.178313e-06
3.449211e-07
-3.242672e-06
3.166275e-07
-3.299247e-06
2.857489e-07
-3.347653e-06
2.524267e-07
-3.387549e-06
2.16824e-07
-3.418639e-06
1.791242e-07
-3.440675e-06
1.395302e-07
-3.453455e-06
9.826271e-08
-3.456825e-06
5.555962e-08
-3.450676e-06
1.167489e-08
-3.434951e-06
-3.312099e-08
-3.409637e-06
-7.854773e-08
-3.374769e-06
-1.243116e-07
-3.330432e-06
-1.701086e-07
-3.276757e-06
-2.156256e-07
-3.213924e-06
-2.605413e-07
-3.142163e-06
-3.045289e-07
-3.061753e-06
-3.472573e-07
-2.973023e-06
-3.883942e-07
-2.876354e-06
-4.276083e-07
-2.772174e-06
-4.645727e-07
-2.660965e-06
-4.989681e-07
-2.543256e-06
-5.304866e-07
-2.419625e-06
-5.588356e-07
-2.290696e-06
-5.837423e-07
-2.157141e-06
-6.049579e-07
-2.019669e-06
-6.222621e-07
-1.87903e-06
-6.354679e-07
-1.736005e-06
-6.444257e-07
-1.591405e-06
-6.490276e-07
-1.44606e-06
-6.492108e-07
-1.300816e-06
-6.44961e-07
-1.156525e-06
-6.363146e-07
-1.014039e-06
-6.233601e-07
-8.741985e-07
-6.06239e-07
-7.378241e-07
-5.851454e-07
-6.057084e-07
-5.603238e-07
-4.786055e-07
-5.320673e-07
-3.572223e-07
-5.007129e-07
-2.422097e-07
-4.666373e-07
-1.341546e-07
-4.302504e-07
-3.35724e-08
-3.919889e-07
5.909898e-08
-3.523087e-07
1.435059e-07
-3.116768e-07
2.193814e-07
-2.705616e-07
2.865489e-07
-2.294261e-07
3.449229e-07
-1.88718e-07
3.945089e-07
-1.488623e-07
4.35401e-07
-1.102533e-07
4.677786e-07
-7.324824e-08
4.919014e-07
-3.816159e-08
5.081026e-07
-5.260761e-09
5.167829e-07
2.523673e-08
5.184004e-07
5.316534e-08
5.134624e-07
7.840957e-08
5.02516e-07
1.009021e-07
4.861385e-07
1.206186e-07
4.649289e-07
1.375704e-07
4.39501e-07
1.51796e-07
4.104766e-07
1.633494e-07
3.784819e-07
1.722874e-07
3.441451e-07
1.786555e-07
3.080969e-07
1.824727e-07
2.709726e-07
1.837176e-07
2.33417e-07
1.823158e-07
1.960907e-07
1.781317e-07
1.59678e-07
1.709669e-07
1.248967e-07
1.605675e-07
9.251047e-08
1.466449e-07
6.334683e-08
1.289126e-07
3.832565e-08
1.071429e-07
1.850724e-08
8.124281e-08
5.176009e-09
5.135239e-08
1.798958e-08
2.687282e-09
-1.536243e-08
8.938553e-09
-3.843255e-08
1.727977e-08
-5.454801e-08
2.652192e-08
-6.442771e-08
3.568682e-08
-6.877854e-08
4.396162e-08
-6.830865e-08
5.066773e-08
-6.371377e-08
5.523893e-08
-5.566015e-08
5.720499e-08
-4.476982e-08
5.617874e-08
-3.160902e-08
5.184456e-08
-1.667997e-08
4.394783e-08
-4.157141e-10
3.228442e-08
1.682255e-08
1.669117e-08
3.474529e-08
-2.963629e-09
5.313228e-08
-2.678924e-08
7.182877e-08
-5.488015e-08
9.073891e-08
-8.732252e-08
1.098181e-07
-1.241994e-07
1.290635e-07
-1.655942e-07
1.485043e-07
-2.11592e-07
1.681902e-07
-2.622795e-07
1.881814e-07
-3.177431e-07
2.085378e-07
-3.780655e-07
2.293102e-07
-4.433209e-07
2.505325e-07
-5.1357e-07
2.722154e-07
-5.888532e-07
2.943422e-07
-6.691852e-07
3.168659e-07
-7.545483e-07
3.397086e-07
-8.44887e-07
3.627614e-07
-9.401027e-07
3.858862e-07
-1.040049e-06
4.089175e-07
-1.14453e-06
4.316659e-07
-1.253293e-06
4.53921e-07
-1.366035e-06
4.754552e-07
-1.482395e-06
4.960275e-07
-1.60196e-06
5.153877e-07
-1.724262e-06
5.332802e-07
-1.848789e-06
5.494487e-07
-1.97498e-06
5.6364e-07
-2.102239e-06
5.756083e-07
-2.229934e-06
5.851195e-07
-2.35741e-06
5.919548e-07
-2.48399e-06
5.959144e-07
-2.608987e-06
5.968207e-07
-2.73171e-06
5.945211e-07
-2.851473e-06
5.888902e-07
-2.967596e-06
5.798314e-07
-3.079422e-06
5.672783e-07
-3.186312e-06
5.511951e-07
-3.287658e-06
5.315768e-07
-3.382884e-06
5.08449e-07
-3.471449e-06
4.81867e-07
-3.552853e-06
4.519149e-07
-3.626636e-06
4.187041e-07
-3.692381e-06
3.823723e-07
-3.749714e-06
3.430815e-07
-3.798304e-06
3.010169e-07
-3.837865e-06
2.563849e-07
-3.868153e-06
2.094121e-07
-3.888967e-06
1.60344e-07
-3.900147e-06
1.094432e-07
-3.901577e-06
5.698901e-08
-3.893178e-06
3.276718e-09
-3.874917e-06
-5.138291e-08
-3.846795e-06
-1.066694e-07
-3.808857e-06
-1.62249e-07
-3.761189e-06
-2.177767e-07
-3.703917e-06
-2.728975e-07
-3.637211e-06
-3.272477e-07
-3.561283e-06
-3.804566e-07
-3.476393e-06
-4.321481e-07
-3.382843e-06
-4.819436e-07
-3.280987e-06
-5.294645e-07
-3.171225e-06
-5.743351e-07
-3.054006e-06
-6.161868e-07
-2.929831e-06
-6.546617e-07
-2.799249e-06
-6.894172e-07
-2.66286e-06
-7.201312e-07
-2.521312e-06
-7.465066e-07
-2.375296e-06
-7.682772e-07
-2.225552e-06
-7.852126e-07
-2.072853e-06
-7.97124e-07
-1.918012e-06
-8.038688e-07
-1.761868e-06
-8.053553e-07
-1.605282e-06
-8.01547e-07
-1.449131e-06
-7.924656e-07
-1.294298e-06
-7.781933e-07
-1.141663e-06
-7.588741e-07
-9.920938e-07
-7.347141e-07
-8.464381e-07
-7.059796e-07
-7.055104e-07
-6.72995e-07
-5.700844e-07
-6.361389e-07
-4.408831e-07
-5.958386e-07
-3.185697e-07
-5.525639e-07
-2.037392e-07
-5.068194e-07
-9.691177e-08
-4.591361e-07
1.47394e-09
-4.100625e-07
9.106682e-08
-3.601545e-07
1.71607e-07
-3.099663e-07
2.42927e-07
-2.60038e-07
3.049539e-07
-2.108891e-07
3.577081e-07
-1.630075e-07
4.013017e-07
-1.168418e-07
4.359342e-07
-7.279413e-08
4.618877e-07
-3.121427e-08
4.795206e-07
7.603813e-09
4.892604e-07
4.342554e-08
4.91595e-07
7.607496e-08
4.870641e-07
1.05433e-07
4.7625e-07
1.314327e-07
4.597683e-07
1.54052e-07
4.382607e-07
1.733036e-07
4.123869e-07
1.892231e-07
3.828199e-07
2.018544e-07
3.502418e-07
2.112336e-07
3.153422e-07
2.173723e-07
2.788191e-07
2.202407e-07
2.413813e-07
2.197535e-07
2.037544e-07
2.157586e-07
1.666884e-07
2.08033e-07
1.309689e-07
1.962869e-07
9.743427e-08
1.801795e-07
6.69993e-08
1.593476e-07
4.069304e-08
1.334491e-07
1.971601e-08
1.022198e-07
5.528557e-09
6.553984e-08
2.351813e-08
2.485071e-09
-1.784746e-08
8.144907e-09
-4.409237e-08
1.549904e-08
-6.190218e-08
2.334474e-08
-7.227346e-08
3.069409e-08
-7.612792e-08
3.673108e-08
-7.434565e-08
4.077922e-08
-6.776191e-08
4.227675e-08
-5.715768e-08
4.075762e-08
-4.32507e-08
3.583638e-08
-2.668778e-08
2.719542e-08
-8.039004e-09
1.457376e-08
1.220595e-08
-2.24323e-09
3.363954e-08
-2.343316e-08
5.59352e-08
-4.914538e-08
7.884448e-08
-7.950874e-08
1.021921e-07
-1.146385e-07
1.258687e-07
-1.546417e-07
1.498213e-07
-1.996211e-07
1.740429e-07
-2.496771e-07
1.985602e-07
-3.04908e-07
2.234211e-07
-3.654087e-07
2.48682e-07
-4.312673e-07
2.743964e-07
-5.025608e-07
3.006037e-07
-5.793494e-07
3.273211e-07
-6.616702e-07
3.545363e-07
-7.495309e-07
3.822028e-07
-8.429029e-07
4.102379e-07
-9.417157e-07
4.385214e-07
-1.045851e-06
4.668967e-07
-1.155138e-06
4.951735e-07
-1.269352e-06
5.231308e-07
-1.388207e-06
5.50521e-07
-1.51136e-06
5.770748e-07
-1.638411e-06
6.025058e-07
-1.7689e-06
6.265161e-07
-1.902313e-06
6.488013e-07
-2.038089e-06
6.690562e-07
-2.17562e-06
6.869799e-07
-2.314262e-06
7.022814e-07
-2.453338e-06
7.146843e-07
-2.59215e-06
7.239317e-07
-2.729985e-06
7.297901e-07
-2.866125e-06
7.320536e-07
-2.999851e-06
7.305467e-07
-3.130456e-06
7.251264e-07
-3.25725e-06
7.156844e-07
-3.379566e-06
7.021476e-07
-3.496767e-06
6.844788e-07
-3.608248e-06
6.626758e-07
-3.713442e-06
6.367713e-07
-3.811824e-06
6.068309e-07
-3.902909e-06
5.729517e-07
-3.986254e-06
5.352604e-07
-4.061461e-06
4.939115e-07
-4.128174e-06
4.49085e-07
-4.186077e-06
4.009844e-07
-4.234895e-06
3.498349e-07
-4.274392e-06
2.958818e-07
-4.304369e-06
2.393889e-07
-4.324662e-06
1.806372e-07
-4.335143e-06
1.199241e-07
-4.335716e-06
5.756219e-08
-4.326319e-06
-6.120003e-09
-4.306922e-06
-7.078053e-08
-4.277525e-06
-1.360664e-07
-4.238163e-06