/*--------------------------------*- C++ -*----------------------------------*\
| =========                 |                                                 |
| \\      /  F ield         | OpenFOAM: The Open Source CFD Toolbox           |
|  \\    /   O peration     | Version:  2406                                  |
|   \\  /    A nd           | Website:  www.openfoam.com                      |
|    \\/     M anipulation  |                                                 |
\*---------------------------------------------------------------------------*/
FoamFile
{
    version     2.0;
    format      ascii;
    arch        "LSB;label=32;scalar=64";
    class       volVectorField;
    location    "6501";
    object      U;
}
// * * * * * * * * * * * * * * * * * * * * * * * * * * * * * * * * * * * * * //

dimensions      [0 1 -1 0 0 0 0];

internalField   nonuniform List<vector> 
16384
(
(-3.658616e-08 3.327851e-08 0)
(7.680204e-08 -2.17693e-08 0)
(4.68225e-07 -7.978341e-08 0)
(1.084792e-06 -1.193142e-07 0)
(1.849369e-06 -1.421428e-07 0)
(2.693395e-06 -1.520082e-07 0)
(3.560576e-06 -1.523715e-07 0)
(4.406652e-06 -1.460641e-07 0)
(5.198133e-06 -1.352758e-07 0)
(5.910652e-06 -1.216697e-07 0)
(6.527393e-06 -1.06499e-07 0)
(7.037671e-06 -9.070457e-08 0)
(7.435661e-06 -7.498487e-08 0)
(7.719264e-06 -5.983829e-08 0)
(7.889111e-06 -4.558915e-08 0)
(7.94767e-06 -3.241108e-08 0)
(7.898453e-06 -2.035461e-08 0)
(7.745342e-06 -9.369705e-09 0)
(7.492025e-06 6.744902e-10 0)
(7.141552e-06 9.970865e-09 0)
(6.696012e-06 1.875369e-08 0)
(6.156308e-06 2.727903e-08 0)
(5.522051e-06 3.580779e-08 0)
(4.791541e-06 4.45937e-08 0)
(3.961842e-06 5.387124e-08 0)
(3.028912e-06 6.385048e-08 0)
(1.987789e-06 7.471042e-08 0)
(8.328087e-07 8.658777e-08 0)
(-4.421752e-07 9.957569e-08 0)
(-1.843556e-06 1.137381e-07 0)
(-3.377733e-06 1.291174e-07 0)
(-5.050892e-06 1.457269e-07 0)
(-6.8688e-06 1.635525e-07 0)
(-8.836624e-06 1.825561e-07 0)
(-1.095875e-05 2.026783e-07 0)
(-1.32386e-05 2.238386e-07 0)
(-1.567851e-05 2.459351e-07 0)
(-1.827954e-05 2.688444e-07 0)
(-2.104138e-05 2.924194e-07 0)
(-2.396213e-05 3.164887e-07 0)
(-2.703825e-05 3.408546e-07 0)
(-3.026439e-05 3.65293e-07 0)
(-3.363327e-05 3.895522e-07 0)
(-3.713561e-05 4.133541e-07 0)
(-4.075999e-05 4.363948e-07 0)
(-4.449286e-05 4.583455e-07 0)
(-4.831843e-05 4.788553e-07 0)
(-5.221869e-05 4.975539e-07 0)
(-5.617343e-05 5.14056e-07 0)
(-6.016025e-05 5.279657e-07 0)
(-6.415469e-05 5.38881e-07 0)
(-6.813031e-05 5.464001e-07 0)
(-7.205882e-05 5.501279e-07 0)
(-7.591032e-05 5.496838e-07 0)
(-7.965347e-05 5.447083e-07 0)
(-8.325579e-05 5.3487e-07 0)
(-8.66839e-05 5.19875e-07 0)
(-8.990388e-05 4.994752e-07 0)
(-9.288164e-05 4.734774e-07 0)
(-9.558324e-05 4.4175e-07 0)
(-9.797537e-05 4.042315e-07 0)
(-0.0001000258 3.609385e-07 0)
(-0.0001017036 3.119745e-07 0)
(-0.0001029802 2.57537e-07 0)
(-0.000103829 1.9792e-07 0)
(-0.0001042266 1.335101e-07 0)
(-0.0001041528 6.478883e-08 0)
(-0.0001035915 -7.647893e-09 0)
(-0.0001025304 -8.309326e-08 0)
(-0.0001009624 -1.607493e-07 0)
(-9.888506e-05 -2.397287e-07 0)
(-9.630152e-05 -3.190649e-07 0)
(-9.322042e-05 -3.97725e-07 0)
(-8.965621e-05 -4.746249e-07 0)
(-8.562919e-05 -5.486471e-07 0)
(-8.11655e-05 -6.186615e-07 0)
(-7.629704e-05 -6.835495e-07 0)
(-7.10612e-05 -7.422307e-07 0)
(-6.550054e-05 -7.936905e-07 0)
(-5.966236e-05 -8.370085e-07 0)
(-5.359806e-05 -8.713848e-07 0)
(-4.736253e-05 -8.961653e-07 0)
(-4.101333e-05 -9.108642e-07 0)
(-3.460983e-05 -9.151824e-07 0)
(-2.821228e-05 -9.09022e-07 0)
(-2.188079e-05 -8.924948e-07 0)
(-1.567438e-05 -8.659242e-07 0)
(-9.649914e-06 -8.298409e-07 0)
(-3.861219e-06 -7.849449e-07 0)
(1.64196e-06 -7.320166e-07 0)
(6.814871e-06 -6.72137e-07 0)
(1.161831e-05 -6.066606e-07 0)
(1.601915e-05 -5.369195e-07 0)
(1.999089e-05 -4.642388e-07 0)
(2.351396e-05 -3.899515e-07 0)
(2.657585e-05 -3.153581e-07 0)
(2.917101e-05 -2.416931e-07 0)
(3.130067e-05 -1.700956e-07 0)
(3.297246e-05 -1.015854e-07 0)
(3.419989e-05 -3.704228e-08 0)
(3.500174e-05 2.280879e-08 0)
(3.540132e-05 7.740546e-08 0)
(3.542577e-05 1.263488e-07 0)
(3.510514e-05 1.694021e-07 0)
(3.447162e-05 2.06493e-07 0)
(3.355865e-05 2.376939e-07 0)
(3.24002e-05 2.632019e-07 0)
(3.102999e-05 2.83325e-07 0)
(2.948087e-05 2.984632e-07 0)
(2.778423e-05 3.090888e-07 0)
(2.596959e-05 3.157239e-07 0)
(2.40642e-05 3.189175e-07 0)
(2.209293e-05 3.192192e-07 0)
(2.007823e-05 3.171502e-07 0)
(1.80403e-05 3.131678e-07 0)
(1.599749e-05 3.076235e-07 0)
(1.396696e-05 3.007112e-07 0)
(1.196561e-05 2.924025e-07 0)
(1.001131e-05 2.823675e-07 0)
(8.124483e-06 2.698778e-07 0)
(6.329989e-06 2.536948e-07 0)
(4.6592e-06 2.319514e-07 0)
(3.152082e-06 2.020734e-07 0)
(1.858635e-06 1.608863e-07 0)
(8.384516e-07 1.051642e-07 0)
(1.550838e-07 3.291385e-08 0)
(-1.488373e-07 -4.980828e-08 0)
(-9.781615e-08 -9.803752e-08 0)
(1.985787e-08 -8.150034e-08 0)
(5.409016e-07 -5.443813e-07 0)
(1.633369e-06 -1.008419e-06 0)
(3.188934e-06 -1.354169e-06 0)
(5.052419e-06 -1.568515e-06 0)
(7.083248e-06 -1.665822e-06 0)
(9.15775e-06 -1.66693e-06 0)
(1.117268e-05 -1.592693e-06 0)
(1.304579e-05 -1.461753e-06 0)
(1.471416e-05 -1.28999e-06 0)
(1.613186e-05 -1.090565e-06 0)
(1.726734e-05 -8.741466e-07 0)
(1.810082e-05 -6.491518e-07 0)
(1.862183e-05 -4.219552e-07 0)
(1.882699e-05 -1.970845e-07 0)
(1.87178e-05 2.257515e-08 0)
(1.829882e-05 2.355693e-07 0)
(1.757594e-05 4.416474e-07 0)
(1.655506e-05 6.415498e-07 0)
(1.524092e-05 8.367832e-07 0)
(1.363628e-05 1.029394e-06 0)
(1.174138e-05 1.221753e-06 0)
(9.553597e-06 1.416355e-06 0)
(7.067407e-06 1.61565e-06 0)
(4.27456e-06 1.821895e-06 0)
(1.164386e-06 2.037037e-06 0)
(-2.275749e-06 2.262639e-06 0)
(-6.059897e-06 2.499814e-06 0)
(-1.020291e-05 2.749215e-06 0)
(-1.471982e-05 3.011036e-06 0)
(-1.962521e-05 3.285028e-06 0)
(-2.493267e-05 3.570521e-06 0)
(-3.065416e-05 3.866448e-06 0)
(-3.679952e-05 4.17137e-06 0)
(-4.337595e-05 4.483509e-06 0)
(-5.038758e-05 4.80076e-06 0)
(-5.783504e-05 5.12071e-06 0)
(-6.571502e-05 5.440655e-06 0)
(-7.401994e-05 5.757606e-06 0)
(-8.273763e-05 6.068308e-06 0)
(-9.185098e-05 6.369251e-06 0)
(-0.0001013377 6.656694e-06 0)
(-0.0001111702 6.926693e-06 0)
(-0.0001213151 7.175129e-06 0)
(-0.0001317337 7.397753e-06 0)
(-0.0001423813 7.590227e-06 0)
(-0.0001532078 7.748176e-06 0)
(-0.0001641576 7.867248e-06 0)
(-0.0001751695 7.943171e-06 0)
(-0.0001861776 7.971818e-06 0)
(-0.0001971114 7.949277e-06 0)
(-0.0002078959 7.871916e-06 0)
(-0.0002184528 7.736457e-06 0)
(-0.0002287006 7.540042e-06 0)
(-0.0002385558 7.280303e-06 0)
(-0.0002479329 6.955427e-06 0)
(-0.0002567462 6.564221e-06 0)
(-0.0002649099 6.106172e-06 0)
(-0.0002723394 5.5815e-06 0)
(-0.0002789522 4.991211e-06 0)
(-0.000284669 4.33714e-06 0)
(-0.0002894145 3.621982e-06 0)
(-0.0002931187 2.849326e-06 0)
(-0.0002957176 2.023667e-06 0)
(-0.0002971547 1.150397e-06 0)
(-0.0002973815 2.357674e-07 0)
(-0.0002963586 -7.131035e-07 0)
(-0.0002940567 -1.688195e-06 0)
(-0.0002904575 -2.680683e-06 0)
(-0.0002855541 -3.681054e-06 0)
(-0.0002793519 -4.679191e-06 0)
(-0.0002718688 -5.664476e-06 0)
(-0.0002631358 -6.625924e-06 0)
(-0.0002531973 -7.552334e-06 0)
(-0.0002421106 -8.432456e-06 0)
(-0.0002299462 -9.25518e-06 0)
(-0.0002167872 -1.000974e-05 0)
(-0.0002027286 -1.068592e-05 0)
(-0.0001878769 -1.127428e-05 0)
(-0.0001723485 -1.176636e-05 0)
(-0.0001562687 -1.215492e-05 0)
(-0.0001397703 -1.243407e-05 0)
(-0.0001229919 -1.259952e-05 0)
(-0.0001060757 -1.264868e-05 0)
(-8.91663e-05 -1.258078e-05 0)
(-7.240779e-05 -1.239696e-05 0)
(-5.594216e-05 -1.210026e-05 0)
(-3.990697e-05 -1.169562e-05 0)
(-2.443322e-05 -1.118977e-05 0)
(-9.643488e-06 -1.059106e-05 0)
(4.35008e-06 -9.909397e-06 0)
(1.744754e-05 -9.156229e-06 0)
(2.95626e-05 -8.343983e-06 0)
(4.062358e-05 -7.485713e-06 0)
(5.057435e-05 -6.59489e-06 0)
(5.93749e-05 -5.685083e-06 0)
(6.700149e-05 -4.769633e-06 0)
(7.344645e-05 -3.861351e-06 0)
(7.871759e-05 -2.972245e-06 0)
(8.283743e-05 -2.113277e-06 0)
(8.584196e-05 -1.294157e-06 0)
(8.777925e-05 -5.231812e-07 0)
(8.87079e-05 1.928667e-07 0)
(8.869515e-05 8.488132e-07 0)
(8.781511e-05 1.441103e-06 0)
(8.614681e-05 1.967757e-06 0)
(8.377228e-05 2.428267e-06 0)
(8.077478e-05 2.823482e-06 0)
(7.723713e-05 3.155454e-06 0)
(7.324025e-05 3.42724e-06 0)
(6.886189e-05 3.64268e-06 0)
(6.417574e-05 3.806124e-06 0)
(5.925081e-05 3.922129e-06 0)
(5.415126e-05 3.995107e-06 0)
(4.893672e-05 4.028923e-06 0)
(4.366307e-05 4.026439e-06 0)
(3.838384e-05 3.989002e-06 0)
(3.315223e-05 3.915883e-06 0)
(2.802367e-05 3.803696e-06 0)
(2.305904e-05 3.645844e-06 0)
(1.83281e-05 3.432099e-06 0)
(1.391297e-05 3.148572e-06 0)
(9.910795e-06 2.778552e-06 0)
(6.434049e-06 2.305361e-06 0)
(3.605657e-06 1.719482e-06 0)
(1.544337e-06 1.034432e-06 0)
(3.342769e-07 3.262427e-07 0)
(-4.835579e-08 -1.485204e-07 0)
(7.906444e-08 -4.701054e-07 0)
(1.008583e-06 -1.636297e-06 0)
(2.693214e-06 -2.690281e-06 0)
(4.960877e-06 -3.472362e-06 0)
(7.601651e-06 -3.958749e-06 0)
(1.043517e-05 -4.17332e-06 0)
(1.329891e-05 -4.1563e-06 0)
(1.605275e-05 -3.951429e-06 0)
(1.858153e-05 -3.600248e-06 0)
(2.079429e-05 -3.139801e-06 0)
(2.262207e-05 -2.601904e-06 0)
(2.401518e-05 -2.013064e-06 0)
(2.494011e-05 -1.394652e-06 0)
(2.537644e-05 -7.631819e-07 0)
(2.531385e-05 -1.306696e-07 0)
(2.474923e-05 4.949365e-07 0)
(2.368416e-05 1.109286e-06 0)
(2.212252e-05 1.711102e-06 0)
(2.006859e-05 2.301654e-06 0)
(1.752548e-05 2.884194e-06 0)
(1.44939e-05 3.463379e-06 0)
(1.097135e-05 4.044734e-06 0)
(6.951773e-06 4.63413e-06 0)
(2.425385e-06 5.237337e-06 0)
(-2.62102e-06 5.859633e-06 0)
(-8.203624e-06 6.5055e-06 0)
(-1.434087e-05 7.178397e-06 0)
(-2.105264e-05 7.880624e-06 0)
(-2.835935e-05 8.613244e-06 0)
(-3.6281e-05 9.376072e-06 0)
(-4.483621e-05 1.016769e-05 0)
(-5.40413e-05 1.098551e-05 0)
(-6.390941e-05 1.182585e-05 0)
(-7.444967e-05 1.268399e-05 0)
(-8.566644e-05 1.355424e-05 0)
(-9.755861e-05 1.443006e-05 0)
(-0.000110119 1.530403e-05 0)
(-0.0001233336 1.6168e-05 0)
(-0.0001371814 1.701308e-05 0)
(-0.0001516336 1.782974e-05 0)
(-0.0001666536 1.860787e-05 0)
(-0.0001821964 1.933687e-05 0)
(-0.0001982087 2.000575e-05 0)
(-0.0002146285 2.060324e-05 0)
(-0.0002313858 2.111793e-05 0)
(-0.0002484018 2.15384e-05 0)
(-0.0002655901 2.185339e-05 0)
(-0.0002828567 2.205194e-05 0)
(-0.0003001006 2.212358e-05 0)
(-0.0003172143 2.205849e-05 0)
(-0.000334085 2.184768e-05 0)
(-0.0003505952 2.148315e-05 0)
(-0.0003666238 2.095807e-05 0)
(-0.0003820469 2.026693e-05 0)
(-0.0003967397 1.940567e-05 0)
(-0.0004105767 1.837183e-05 0)
(-0.000423434 1.716471e-05 0)
(-0.0004351897 1.57854e-05 0)
(-0.0004457261 1.423695e-05 0)
(-0.0004549301 1.252438e-05 0)
(-0.0004626955 1.065479e-05 0)
(-0.0004689237 8.637366e-06 0)
(-0.0004735249 6.48339e-06 0)
(-0.0004764198 4.206235e-06 0)
(-0.0004775406 1.821294e-06 0)
(-0.0004768319 -6.540963e-07 0)
(-0.0004742519 -3.200706e-06 0)
(-0.0004697737 -5.797378e-06 0)
(-0.0004633852 -8.421443e-06 0)
(-0.0004550907 -1.104886e-05 0)
(-0.0004449109 -1.365442e-05 0)
(-0.0004328835 -1.621206e-05 0)
(-0.0004190632 -1.86951e-05 0)
(-0.000403522 -2.107664e-05 0)
(-0.0003863488 -2.332995e-05 0)
(-0.0003676491 -2.542882e-05 0)
(-0.0003475445 -2.734803e-05 0)
(-0.0003261717 -2.906382e-05 0)
(-0.0003036812 -3.055432e-05 0)
(-0.0002802367 -3.180001e-05 0)
(-0.0002560126 -3.278417e-05 0)
(-0.0002311927 -3.34933e-05 0)
(-0.0002059684 -3.391749e-05 0)
(-0.0001805358 -3.40507e-05 0)
(-0.000155094 -3.389109e-05 0)
(-0.000129842 -3.34411e-05 0)
(-0.0001049765 -3.270757e-05 0)
(-8.06893e-05 -3.17017e-05 0)
(-5.716415e-05 -3.043893e-05 0)
(-3.45747e-05 -2.893867e-05 0)
(-1.308185e-05 -2.72239e-05 0)
(7.168648e-06 -2.53208e-05 0)
(2.604793e-05 -2.325849e-05 0)
(4.344605e-05 -2.106793e-05 0)
(5.927316e-05 -1.878132e-05 0)
(7.34606e-05 -1.643158e-05 0)
(8.596146e-05 -1.405158e-05 0)
(9.675065e-05 -1.167336e-05 0)
(0.0001058246 -9.327501e-06 0)
(0.0001132007 -7.042462e-06 0)
(0.0001189157 -4.844049e-06 0)
(0.0001230246 -2.754955e-06 0)
(0.0001255986 -7.944064e-07 0)
(0.0001267229 1.022058e-06 0)
(0.0001264944 2.682845e-06 0)
(0.0001250194 4.180179e-06 0)
(0.0001224107 5.510043e-06 0)
(0.000118785 6.671916e-06 0)
(0.0001142612 7.668442e-06 0)
(0.0001089573 8.50499e-06 0)
(0.0001029892 9.189109e-06 0)
(9.646906e-05 9.729871e-06 0)
(8.950388e-05 1.01371e-05 0)
(8.219548e-05 1.042049e-05 0)
(7.464041e-05 1.05886e-05 0)
(6.693088e-05 1.064774e-05 0)
(5.915634e-05 1.060075e-05 0)
(5.140588e-05 1.044577e-05 0)
(4.377128e-05 1.017503e-05 0)
(3.635061e-05 9.773902e-06 0)
(2.925202e-05 9.220485e-06 0)
(2.259707e-05 8.486343e-06 0)
(1.652269e-05 7.539455e-06 0)
(1.117993e-05 6.351457e-06 0)
(6.726392e-06 4.912753e-06 0)
(3.311109e-06 3.261664e-06 0)
(1.068066e-06 1.544774e-06 0)
(3.815838e-08 1.653542e-07 0)
(1.197488e-07 -1.087512e-06 0)
(1.362774e-06 -3.196585e-06 0)
(3.492625e-06 -4.961012e-06 0)
(6.266725e-06 -6.240411e-06 0)
(9.423246e-06 -7.019724e-06 0)
(1.275226e-05 -7.338438e-06 0)
(1.606628e-05 -7.258844e-06 0)
(1.920209e-05 -6.850023e-06 0)
(2.202327e-05 -6.179444e-06 0)
(2.44197e-05 -5.308849e-06 0)
(2.630562e-05 -4.292421e-06 0)
(2.761697e-05 -3.176089e-06 0)
(2.830824e-05 -1.99742e-06 0)
(2.834919e-05 -7.858489e-07 0)
(2.772152e-05 4.368578e-07 0)
(2.641566e-05 1.656001e-06 0)
(2.442777e-05 2.863155e-06 0)
(2.175714e-05 4.055345e-06 0)
(1.840387e-05 5.234111e-06 0)
(1.436702e-05 6.404522e-06 0)
(9.643283e-06 7.574163e-06 0)
(4.225967e-06 8.75216e-06 0)
(-1.895387e-06 9.948255e-06 0)
(-8.735081e-06 1.117199e-05 0)
(-1.63109e-05 1.243197e-05 0)
(-2.464344e-05 1.373536e-05 0)
(-3.375524e-05 1.508739e-05 0)
(-4.366966e-05 1.649114e-05 0)
(-5.44097e-05 1.794737e-05 0)
(-6.599681e-05 1.945446e-05 0)
(-7.844957e-05 2.100849e-05 0)
(-9.178254e-05 2.26033e-05 0)
(-0.0001060051 2.423064e-05 0)
(-0.0001211204 2.588032e-05 0)
(-0.0001371244 2.754032e-05 0)
(-0.0001540049 2.919698e-05 0)
(-0.000171741 3.083512e-05 0)
(-0.0001903022 3.243821e-05 0)
(-0.000209648 3.398846e-05 0)
(-0.0002297274 3.546706e-05 0)
(-0.0002504789 3.685432e-05 0)
(-0.0002718299 3.812988e-05 0)
(-0.0002936972 3.927295e-05 0)
(-0.0003159869 4.026255e-05 0)
(-0.0003385948 4.107782e-05 0)
(-0.0003614071 4.169823e-05 0)
(-0.0003843008 4.210399e-05 0)
(-0.0004071447 4.227627e-05 0)
(-0.0004298007 4.219756e-05 0)
(-0.0004521242 4.185193e-05 0)
(-0.000473966 4.12254e-05 0)
(-0.0004951734 4.030612e-05 0)
(-0.0005155917 3.908469e-05 0)
(-0.0005350655 3.755439e-05 0)
(-0.0005534405 3.571136e-05 0)
(-0.0005705648 3.355478e-05 0)
(-0.0005862906 3.108705e-05 0)
(-0.0006004755 2.831384e-05 0)
(-0.0006129845 2.524426e-05 0)
(-0.0006236907 2.189084e-05 0)
(-0.0006324772 1.826958e-05 0)
(-0.0006392385 1.439993e-05 0)
(-0.0006438813 1.030473e-05 0)
(-0.0006463258 6.010127e-06 0)
(-0.0006465069 1.545398e-06 0)
(-0.0006443749 -3.057141e-06 0)
(-0.0006398972 -7.762232e-06 0)
(-0.0006330576 -1.253203e-05 0)
(-0.0006238579 -1.732652e-05 0)
(-0.0006123181 -2.210382e-05 0)
(-0.0005984765 -2.682048e-05 0)
(-0.0005823901 -3.143199e-05 0)
(-0.0005641347 -3.589321e-05 0)
(-0.0005438046 -4.015893e-05 0)
(-0.0005215123 -4.418449e-05 0)
(-0.0004973882 -4.792635e-05 0)
(-0.0004715795 -5.134277e-05 0)
(-0.0004442498 -5.439451e-05 0)
(-0.0004155774 -5.704554e-05 0)
(-0.0003857545 -5.926369e-05 0)
(-0.000354985 -6.102136e-05 0)
(-0.0003234833 -6.229617e-05 0)
(-0.0002914718 -6.307152e-05 0)
(-0.0002591788 -6.333711e-05 0)
(-0.0002268362 -6.308933e-05 0)
(-0.0001946766 -6.233158e-05 0)
(-0.0001629312 -6.107442e-05 0)
(-0.0001318262 -5.933553e-05 0)
(-0.0001015807 -5.713963e-05 0)
(-7.240345e-05 -5.451812e-05 0)
(-4.449043e-05 -5.150858e-05 0)
(-1.802203e-05 -4.815409e-05 0)
(6.839412e-06 -4.450258e-05 0)
(2.995135e-05 -4.060602e-05 0)
(5.119321e-05 -3.651896e-05 0)
(7.04677e-05 -3.22975e-05 0)
(8.770196e-05 -2.799828e-05 0)
(0.0001028482 -2.367732e-05 0)
(0.0001158836 -1.938877e-05 0)
(0.0001268103 -1.518388e-05 0)
(0.0001356542 -1.110993e-05 0)
(0.0001424638 -7.209384e-06 0)
(0.0001473085 -3.519198e-06 0)
(0.0001502764 -7.027049e-08 0)
(0.0001514722 3.11292e-06 0)
(0.0001510138 6.0126e-06 0)
(0.0001490304 8.617487e-06 0)
(0.0001456589 1.092255e-05 0)
(0.0001410412 1.292851e-05 0)
(0.0001353217 1.464114e-05 0)
(0.0001286449 1.607037e-05 0)
(0.0001211529 1.722921e-05 0)
(0.0001129846 1.813237e-05 0)
(0.0001042743 1.879478e-05 0)
(9.515167e-05 1.922981e-05 0)
(8.574241e-05 1.944739e-05 0)
(7.616949e-05 1.9452e-05 0)
(6.655547e-05 1.924062e-05 0)
(5.702542e-05 1.880099e-05 0)
(4.77103e-05 1.81103e-05 0)
(3.87504e-05 1.713508e-05 0)
(3.029822e-05 1.583294e-05 0)
(2.252001e-05 1.415797e-05 0)
(1.559447e-05 1.207194e-05 0)
(9.706002e-06 9.565505e-06 0)
(5.036222e-06 6.694714e-06 0)
(1.791457e-06 3.646541e-06 0)
(1.16573e-07 8.775469e-07 0)
(1.446227e-07 -1.859207e-06 0)
(1.591362e-06 -5.076249e-06 0)
(4.007544e-06 -7.617559e-06 0)
(7.088057e-06 -9.403522e-06 0)
(1.052441e-05 -1.045061e-05 0)
(1.408123e-05 -1.082448e-05 0)
(1.755277e-05 -1.061403e-05 0)
(2.076063e-05 -9.915757e-06 0)
(2.355483e-05 -8.824418e-06 0)
(2.58127e-05 -7.427771e-06 0)
(2.743685e-05 -5.803783e-06 0)
(2.835249e-05 -4.019287e-06 0)
(2.850438e-05 -2.129512e-06 0)
(2.785341e-05 -1.78174e-07 0)
(2.637328e-05 1.802043e-06 0)
(2.404717e-05 3.788705e-06 0)
(2.086456e-05 5.768595e-06 0)
(1.681857e-05 7.73653e-06 0)
(1.190343e-05 9.694e-06 0)
(6.112662e-06 1.164771e-05 0)
(-5.62467e-07 1.360808e-05 0)
(-8.133787e-06 1.558776e-05 0)
(-1.661665e-05 1.760026e-05 0)
(-2.602983e-05 1.965869e-05 0)
(-3.639504e-05 2.177463e-05 0)
(-4.77361e-05 2.395733e-05 0)
(-6.007773e-05 2.621301e-05 0)
(-7.344431e-05 2.854448e-05 0)
(-8.785839e-05 3.095086e-05 0)
(-0.0001033392 3.342753e-05 0)
(-0.0001199011 3.596621e-05 0)
(-0.0001375524 3.855509e-05 0)
(-0.0001562938 4.117906e-05 0)
(-0.000176117 4.381995e-05 0)
(-0.0001970042 4.645679e-05 0)
(-0.0002189266 4.90661e-05 0)
(-0.0002418439 5.162213e-05 0)
(-0.0002657034 5.409718e-05 0)
(-0.0002904403 5.64619e-05 0)
(-0.0003159764 5.868558e-05 0)
(-0.000342221 6.073657e-05 0)
(-0.0003690706 6.258261e-05 0)
(-0.0003964094 6.419127e-05 0)
(-0.0004241099 6.553041e-05 0)
(-0.0004520335 6.656859e-05 0)
(-0.000480032 6.727562e-05 0)
(-0.0005079482 6.762297e-05 0)
(-0.0005356178 6.758427e-05 0)
(-0.0005628702 6.713578e-05 0)
(-0.0005895307 6.625676e-05 0)
(-0.0006154219 6.492991e-05 0)
(-0.0006403655 6.31417e-05 0)
(-0.0006641837 6.088265e-05 0)
(-0.0006867017 5.814764e-05 0)
(-0.0007077483 5.493607e-05 0)
(-0.0007271586 5.125201e-05 0)
(-0.000744775 4.710434e-05 0)
(-0.0007604486 4.250676e-05 0)
(-0.000774041 3.747785e-05 0)
(-0.0007854251 3.204098e-05 0)
(-0.0007944869 2.622431e-05 0)
(-0.0008011259 2.006059e-05 0)
(-0.0008052562 1.358706e-05 0)
(-0.0008068077 6.845224e-06 0)
(-0.0008057265 -1.193521e-07 0)
(-0.0008019758 -7.257271e-06 0)
(-0.0007955365 -1.451549e-05 0)
(-0.0007864069 -2.183812e-05 0)
(-0.0007746036 -2.916666e-05 0)
(-0.0007601618 -3.644042e-05 0)
(-0.0007431349 -4.359701e-05 0)
(-0.0007235952 -5.057294e-05 0)
(-0.0007016333 -5.730422e-05 0)
(-0.0006773582 -6.372708e-05 0)
(-0.000650897 -6.97787e-05 0)
(-0.0006223943 -7.539803e-05 0)
(-0.0005920113 -8.052664e-05 0)
(-0.0005599258 -8.510958e-05 0)
(-0.0005263301 -8.909634e-05 0)
(-0.0004914309 -9.244172e-05 0)
(-0.0004554468 -9.510673e-05 0)
(-0.0004186075 -9.705947e-05 0)
(-0.0003811517 -9.827592e-05 0)
(-0.0003433246 -9.874062e-05 0)
(-0.0003053763 -9.84473e-05 0)
(-0.0002675589 -9.739929e-05 0)
(-0.000230124 -9.560982e-05 0)
(-0.0001933199 -9.31021e-05 0)
(-0.0001573888 -8.990916e-05 0)
(-0.0001225643 -8.60736e-05 0)
(-8.906782e-05 -8.164693e-05 0)
(-5.710656e-05 -7.668883e-05 0)
(-2.687041e-05 -7.126614e-05 0)
(1.470392e-06 -6.545184e-05 0)
(2.776722e-05 -5.932372e-05 0)
(5.189514e-05 -5.296264e-05 0)
(7.375436e-05 -4.645078e-05 0)
(9.327143e-05 -3.987023e-05 0)
(0.0001103998 -3.330144e-05 0)
(0.0001251199 -2.682159e-05 0)
(0.0001374389 -2.050303e-05 0)
(0.0001473896 -1.441194e-05 0)
(0.0001550296 -8.607196e-06 0)
(0.0001604387 -3.1394e-06 0)
(0.0001637176 1.949714e-06 0)
(0.0001649844 6.627967e-06 0)
(0.0001643725 1.087255e-05 0)
(0.0001620277 1.467e-05 0)
(0.0001581045 1.801554e-05 0)
(0.0001527635 2.091217e-05 0)
(0.0001461688 2.33695e-05 0)
(0.000138485 2.540221e-05 0)
(0.000129876 2.702812e-05 0)
(0.000120503 2.826606e-05 0)
(0.0001105242 2.913331e-05 0)
(0.0001000948 2.964287e-05 0)
(8.936785e-05 2.980069e-05 0)
(7.849606e-05 2.960284e-05 0)
(6.763431e-05 2.903316e-05 0)
(5.694239e-05 2.806178e-05 0)
(4.658808e-05 2.664517e-05 0)
(3.674971e-05 2.472887e-05 0)
(2.761797e-05 2.225451e-05 0)
(1.939596e-05 1.917352e-05 0)
(1.229573e-05 1.54707e-05 0)
(6.538515e-06 1.120153e-05 0)
(2.413925e-06 6.551805e-06 0)
(1.789759e-07 1.949682e-06 0)
(1.574755e-07 -2.71958e-06 0)
(1.707178e-06 -7.139099e-06 0)
(4.256227e-06 -1.048243e-05 0)
(7.452009e-06 -1.275203e-05 0)
(1.094893e-05 -1.401344e-05 0)
(1.449027e-05 -1.436927e-05 0)
(1.785636e-05 -1.394068e-05 0)
(2.085853e-05 -1.285432e-05 0)
(2.33383e-05 -1.123346e-05 0)
(2.51652e-05 -9.192464e-06 0)
(2.623424e-05 -6.833461e-06 0)
(2.646303e-05 -4.244534e-06 0)
(2.578874e-05 -1.49895e-06 0)
(2.41647e-05 1.344885e-06 0)
(2.155714e-05 4.242992e-06 0)
(1.794183e-05 7.164816e-06 0)
(1.330109e-05 1.009202e-05 0)
(7.620991e-06 1.301691e-05 0)
(8.890142e-07 1.594062e-05 0)
(-6.907848e-06 1.88712e-05 0)
(-1.578441e-05 2.182156e-05 0)
(-2.575807e-05 2.480745e-05 0)
(-3.684907e-05 2.784558e-05 0)
(-4.90802e-05 3.095187e-05 0)
(-6.247611e-05 3.413995e-05 0)
(-7.706221e-05 3.742001e-05 0)
(-9.286328e-05 4.079785e-05 0)
(-0.0001099019 4.427434e-05 0)
(-0.0001281969 4.78451e-05 0)
(-0.0001477614 5.150041e-05 0)
(-0.0001686014 5.522532e-05 0)
(-0.000190714 5.899988e-05 0)
(-0.0002140863 6.279951e-05 0)
(-0.0002386936 6.659539e-05 0)
(-0.0002644989 7.035484e-05 0)
(-0.0002914515 7.404185e-05 0)
(-0.0003194869 7.761748e-05 0)
(-0.0003485257 8.10404e-05 0)
(-0.0003784742 8.42674e-05 0)
(-0.0004092239 8.725397e-05 0)
(-0.0004406523 8.995483e-05 0)
(-0.0004726232 9.232463e-05 0)
(-0.0005049878 9.431854e-05 0)
(-0.0005375856 9.589299e-05 0)
(-0.0005702459 9.700626e-05 0)
(-0.0006027896 9.761922e-05 0)
(-0.0006350301 9.769592e-05 0)
(-0.0006667759 9.720424e-05 0)
(-0.0006978323 9.611642e-05 0)
(-0.0007280031 9.440953e-05 0)
(-0.0007570925 9.206594e-05 0)
(-0.0007849076 8.907364e-05 0)
(-0.0008112593 8.542651e-05 0)
(-0.0008359652 8.112452e-05 0)
(-0.0008588499 7.617385e-05 0)
(-0.0008797478 7.058694e-05 0)
(-0.0008985034 6.438246e-05 0)
(-0.0009149731 5.758526e-05 0)
(-0.0009290259 5.022624e-05 0)
(-0.0009405448 4.234218e-05 0)
(-0.0009494269 3.397556e-05 0)
(-0.0009555845 2.517428e-05 0)
(-0.0009589454 1.599143e-05 0)
(-0.0009594536 6.485006e-06 0)
(-0.0009570693 -3.28238e-06 0)
(-0.0009517705 -1.324383e-05 0)
(-0.0009435509 -2.332869e-05 0)
(-0.0009324219 -3.346325e-05 0)
(-0.0009184118 -4.357098e-05 0)
(-0.0009015663 -5.357301e-05 0)
(-0.0008819485 -6.338877e-05 0)
(-0.0008596389 -7.293662e-05 0)
(-0.0008347356 -8.213456e-05 0)
(-0.0008073538 -9.090103e-05 0)
(-0.0007776257 -9.915578e-05 0)
(-0.0007457005 -0.0001068209 0)
(-0.0007117438 -0.0001138215 0)
(-0.0006759368 -0.0001200874 0)
(-0.0006384758 -0.0001255534 0)
(-0.0005995713 -0.0001301612 0)
(-0.0005594466 -0.0001338599 0)
(-0.0005183367 -0.0001366073 0)
(-0.0004764863 -0.0001383712 0)
(-0.0004341486 -0.0001391296 0)
(-0.0003915825 -0.0001388724 0)
(-0.0003490507 -0.0001376013 0)
(-0.0003068175 -0.0001353306 0)
(-0.0002651455 -0.0001320873 0)
(-0.0002242932 -0.0001279111 0)
(-0.0001845123 -0.0001228541 0)
(-0.0001460444 -0.0001169802 0)
(-0.0001091185 -0.0001103643 0)
(-7.394766e-05 -0.0001030909 0)
(-4.072707e-05 -9.525342e-05 0)
(-9.631039e-06 -8.69517e-05 0)
(1.918912e-05 -7.829097e-05 0)
(4.560668e-05 -6.937971e-05 0)
(6.952152e-05 -6.032698e-05 0)
(9.086085e-05 -5.124071e-05 0)
(0.0001095801 -4.22258e-05 0)
(0.000125663 -3.338197e-05 0)
(0.0001391212 -2.480194e-05 0)
(0.0001499934 -1.656974e-05 0)
(0.0001583439 -8.75931e-06 0)
(0.0001642608 -1.433417e-06 0)
(0.0001678542 5.357002e-06 0)
(0.0001692527 1.157359e-05 0)
(0.0001686017 1.719017e-05 0)
(0.0001660594 2.219239e-05 0)
(0.0001617945 2.657668e-05 0)
(0.0001559824 3.034879e-05 0)
(0.0001488033 3.352193e-05 0)
(0.0001404394 3.611438e-05 0)
(0.0001310731 3.814665e-05 0)
(0.000120886 3.963824e-05 0)
(0.0001100584 4.060419e-05 0)
(9.876936e-05 4.105135e-05 0)
(8.719834e-05 4.097498e-05 0)
(7.552647e-05 4.035572e-05 0)
(6.393913e-05 3.915783e-05 0)
(5.262846e-05 3.732922e-05 0)
(4.179599e-05 3.480465e-05 0)
(3.165522e-05 3.151334e-05 0)
(2.24338e-05 2.739311e-05 0)
(1.437395e-05 2.241334e-05 0)
(7.740601e-06 1.66085e-05 0)
(2.904813e-06 1.012684e-05 0)
(2.252523e-07 3.313295e-06 0)
(1.615052e-07 -3.614147e-06 0)
(1.727243e-06 -9.261695e-06 0)
(4.268275e-06 -1.338902e-05 0)
(7.40062e-06 -1.608902e-05 0)
(1.075335e-05 -1.748747e-05 0)
(1.405389e-05 -1.773248e-05 0)
(1.707268e-05 -1.698284e-05 0)
(1.961469e-05 -1.539817e-05 0)
(2.151668e-05 -1.313146e-05 0)
(2.264388e-05 -1.032394e-05 0)
(2.288677e-05 -7.101707e-06 0)
(2.215794e-05 -3.573754e-06 0)
(2.038885e-05 1.689516e-07 0)
(1.75266e-05 4.053649e-06 0)
(1.353064e-05 8.025206e-06 0)
(8.369682e-06 1.204508e-05 0)
(2.018765e-06 1.608979e-05 0)
(-5.54335e-06 2.0149e-05 0)
(-1.433637e-05 2.422326e-05 0)
(-2.438009e-05 2.832157e-05 0)
(-3.569556e-05 3.245874e-05 0)
(-4.830563e-05 3.665288e-05 0)
(-6.223489e-05 4.09229e-05 0)
(-7.750919e-05 4.528629e-05 0)
(-9.415463e-05 4.975727e-05 0)
(-0.0001121962 5.434522e-05 0)
(-0.0001316561 5.905356e-05 0)
(-0.0001525521 6.387905e-05 0)
(-0.0001748954 6.881139e-05 0)
(-0.0001986892 7.383317e-05 0)
(-0.0002239266 7.89201e-05 0)
(-0.0002505889 8.404134e-05 0)
(-0.0002786446 8.916005e-05 0)
(-0.0003080477 9.423397e-05 0)
(-0.0003387374 9.921611e-05 0)
(-0.0003706366 0.0001040554 0)
(-0.0004036524 0.0001086976 0)
(-0.0004376755 0.0001130856 0)
(-0.0004725808 0.0001171611 0)
(-0.0005082277 0.0001208645 0)
(-0.0005444614 0.0001241364 0)
(-0.0005811136 0.0001269184 0)
(-0.0006180044 0.0001291536 0)
(-0.0006549438 0.0001307883 0)
(-0.0006917338 0.000131772 0)
(-0.0007281699 0.000132059 0)
(-0.0007640439 0.0001316083 0)
(-0.0007991458 0.0001303854 0)
(-0.0008332656 0.0001283616 0)
(-0.0008661961 0.0001255155 0)
(-0.0008977343 0.000121833 0)
(-0.0009276835 0.0001173071 0)
(-0.000955855 0.000111939 0)
(-0.0009820697 0.0001057371 0)
(-0.001006159 9.871785e-05 0)
(-0.001027966 9.09049e-05 0)
(-0.001047348 8.232937e-05 0)
(-0.001064173 7.302945e-05 0)
(-0.001078326 6.305011e-05 0)
(-0.001089705 5.244279e-05 0)
(-0.001098223 4.126512e-05 0)
(-0.001103807 2.958051e-05 0)
(-0.0011064 1.745786e-05 0)
(-0.001105962 4.971236e-06 0)
(-0.001102463 -7.800471e-06 0)
(-0.001095896 -2.077402e-05 0)
(-0.001086261 -3.38626e-05 0)
(-0.001073579 -4.69761e-05 0)
(-0.001057884 -6.002148e-05 0)
(-0.001039226 -7.290334e-05 0)
(-0.00101767 -8.552444e-05 0)
(-0.0009932978 -9.778646e-05 0)
(-0.0009662069 -0.0001095907 0)
(-0.0009365107 -0.000120839 0)
(-0.0009043385 -0.0001314346 0)
(-0.0008698362 -0.0001412833 0)
(-0.0008331653 -0.0001502945 0)
(-0.0007945032 -0.0001583824 0)
(-0.0007540427 -0.0001654673 0)
(-0.0007119909 -0.0001714769 0)
(-0.0006685691 -0.0001763479 0)
(-0.0006240112 -0.0001800267 0)
(-0.0005785625 -0.0001824712 0)
(-0.000532478 -0.0001836519 0)
(-0.0004860209 -0.0001835526 0)
(-0.00043946 -0.0001821716 0)
(-0.0003930675 -0.0001795223 0)
(-0.0003471168 -0.0001756333 0)
(-0.0003018792 -0.0001705488 0)
(-0.0002576211 -0.0001643284 0)
(-0.0002146016 -0.0001570462 0)
(-0.0001730688 -0.0001487904 0)
(-0.0001332571 -0.0001396618 0)
(-9.538438e-05 -0.0001297722 0)
(-5.964938e-05 -0.000119243 0)
(-2.6229e-05 -0.0001082026 0)
(4.72387e-06 -9.678459e-05 0)
(3.308209e-05 -8.512529e-05 0)
(5.874601e-05 -7.336082e-05 0)
(8.164441e-05 -6.162465e-05 0)
(0.0001017353 -5.004517e-05 0)
(0.000119006 -3.87435e-05 0)
(0.0001334725 -2.783124e-05 0)
(0.000145179 -1.74085e-05 0)
(0.0001541961 -7.562432e-06 0)
(0.0001606194 1.633928e-06 0)
(0.0001645667 1.012256e-05 0)
(0.0001661761 1.786053e-05 0)
(0.000165603 2.481976e-05 0)
(0.0001630167 3.098603e-05 0)
(0.0001585979 3.635735e-05 0)
(0.0001525354 4.094184e-05 0)
(0.0001450239 4.475494e-05 0)
(0.0001362615 4.781607e-05 0)
(0.0001264481 5.014473e-05 0)
(0.0001157846 5.175631e-05 0)
(0.0001044722 5.265765e-05 0)
(9.271315e-05 5.284286e-05 0)
(8.071195e-05 5.228972e-05 0)
(6.867685e-05 5.095737e-05 0)
(5.68223e-05 4.878606e-05 0)
(4.53718e-05 4.570007e-05 0)
(3.456137e-05 4.161489e-05 0)
(2.464397e-05 3.645023e-05 0)
(1.589319e-05 3.015002e-05 0)
(8.61718e-06 2.271012e-05 0)
(3.258067e-06 1.421504e-05 0)
(2.567451e-07 4.894716e-06 0)
(1.590338e-07 -4.497921e-06 0)
(1.666628e-06 -1.133467e-05 0)
(4.072672e-06 -1.618373e-05 0)
(6.976483e-06 -1.922994e-05 0)
(9.993966e-06 -2.066525e-05 0)
(1.284323e-05 -2.068905e-05 0)
(1.528948e-05 -1.950188e-05 0)
(1.713501e-05 -1.729862e-05 0)
(1.821505e-05 -1.426288e-05 0)
(1.83934e-05 -1.056269e-05 0)
(1.755848e-05 -6.347523e-06 0)
(1.561987e-05 -1.746477e-06 0)
(1.250494e-05 3.132636e-06 0)
(8.155743e-06 8.203472e-06 0)
(2.525775e-06 1.340037e-05 0)
(-4.422854e-06 1.867723e-05 0)
(-1.272217e-05 2.400565e-05 0)
(-2.240061e-05 2.937267e-05 0)
(-3.348492e-05 3.4778e-05 0)
(-4.600154e-05 4.023106e-05 0)
(-5.997737e-05 4.574779e-05 0)
(-7.543999e-05 5.134752e-05 0)
(-9.241731e-05 5.704995e-05 0)
(-0.0001109367 6.287249e-05 0)
(-0.0001310237 6.88279e-05 0)
(-0.0001527003 7.492252e-05 0)
(-0.0001759832 8.115489e-05 0)
(-0.0002008818 8.751495e-05 0)
(-0.000227396 9.398366e-05 0)
(-0.0002555145 0.000100533 0)
(-0.0002852131 0.0001071265 0)
(-0.0003164528 0.0001137194 0)
(-0.0003491792 0.0001202599 0)
(-0.0003833207 0.0001266897 0)
(-0.0004187885 0.0001329451 0)
(-0.0004554761 0.0001389582 0)
(-0.0004932595 0.0001446576 0)
(-0.0005319978 0.0001499698 0)
(-0.0005715338 0.0001548204 0)
(-0.0006116953 0.000159135 0)
(-0.0006522969 0.0001628409 0)
(-0.0006931415 0.0001658675 0)
(-0.0007340226 0.0001681484 0)
(-0.0007747263 0.0001696217 0)
(-0.0008150342 0.0001702314 0)
(-0.0008547249 0.0001699282 0)
(-0.0008935775 0.0001686705 0)
(-0.0009313729 0.0001664245 0)
(-0.0009678969 0.0001631653 0)
(-0.001002941 0.0001588767 0)
(-0.001036306 0.0001535519 0)