/*--------------------------------*- C++ -*----------------------------------*\
  =========                 |
  \\      /  F ield         | OpenFOAM: The Open Source CFD Toolbox
   \\    /   O peration     | Website:  https://openfoam.org
    \\  /    A nd           | Version:  10
     \\/     M anipulation  |
\*---------------------------------------------------------------------------*/
FoamFile
{
    format      ascii;
    class       surfaceScalarField;
    location    "0.996516";
    object      phi;
}
// * * * * * * * * * * * * * * * * * * * * * * * * * * * * * * * * * * * * * //

dimensions      [1 0 -1 0 0 0 0];

internalField   nonuniform List<scalar> 
31672
(
0.000480096
-9.17489e-05
0.000470323
-9.09809e-05
0.000460281
-9.02741e-05
0.000450139
-8.9379e-05
0.000439635
-8.82664e-05
0.000429156
-8.72147e-05
0.000418549
-8.61026e-05
0.00040793
-8.50164e-05
0.000397326
-8.39505e-05
0.000386775
-8.29318e-05
0.000376313
-8.19799e-05
0.000365966
-8.11076e-05
0.000355752
-8.03215e-05
0.000345695
-7.96278e-05
0.000335822
-7.90287e-05
0.000326165
-7.85256e-05
0.000316755
-7.81161e-05
0.000307617
-7.77966e-05
0.000298774
-7.75588e-05
0.000290248
-7.73953e-05
0.000282056
-7.72947e-05
0.000274219
-7.72467e-05
0.000266753
-7.72397e-05
0.000259679
-7.72607e-05
0.00025301
-7.72993e-05
0.000246765
-7.73387e-05
0.000240953
-7.73701e-05
0.000235585
-7.7373e-05
0.000230669
-7.73389e-05
0.000226211
-7.72469e-05
0.000222218
-7.70857e-05
0.000218693
-7.68377e-05
0.00021564
-7.64878e-05
0.000213063
-7.60188e-05
0.00021096
-7.54157e-05
0.000209333
-7.46552e-05
0.000208182
-7.37298e-05
0.0002075
-7.26132e-05
0.00020729
-7.12909e-05
0.000207546
-6.97471e-05
0.000208256
-6.79596e-05
0.000209421
-6.59118e-05
0.00021103
-6.35881e-05
0.000213071
-6.09679e-05
0.000215537
-5.80352e-05
0.000218414
-5.47739e-05
0.000221688
-5.11665e-05
0.000225344
-4.71995e-05
0.000229364
-4.28574e-05
0.000233731
-3.81289e-05
0.000238422
-3.30037e-05
0.000243417
-2.74731e-05
0.000248692
-2.15325e-05
-1.51796e-05
0.000254221
0.000481582
-8.37503e-05
0.000471882
-8.28821e-05
0.000461841
-8.18597e-05
0.000451493
-8.05674e-05
0.000441166
-7.9399e-05
0.000430674
-7.81366e-05
0.000420116
-7.69027e-05
0.000409501
-7.57065e-05
0.000398884
-7.4576e-05
0.000388295
-7.35325e-05
0.000377764
-7.25916e-05
0.000367315
-7.17645e-05
0.000356984
-7.1059e-05
0.00034681
-7.0481e-05
0.000336824
-7.00322e-05
0.000327057
-6.97116e-05
0.000317539
-6.95153e-05
0.000308294
-6.94363e-05
0.000299348
-6.94657e-05
0.000290725
-6.95933e-05
0.000282447
-6.98081e-05
0.000274538
-7.00972e-05
0.000267016
-7.04486e-05
0.000259901
-7.08468e-05
0.000253209
-7.12788e-05
0.000246955
-7.17276e-05
0.000241149
-7.21804e-05
0.000235802
-7.26174e-05
0.000230924
-7.30268e-05
0.000226518
-7.33877e-05
0.000222595
-7.36871e-05
0.000219157
-7.39069e-05
0.000216208
-7.4029e-05
0.000213753
-7.40385e-05
0.000211787
-7.39132e-05
0.000210315
-7.36387e-05
0.000209336
-7.31945e-05
0.000208842
-7.25606e-05
0.000208837
-7.17184e-05
0.000209314
-7.06508e-05
0.000210268
-6.93343e-05
0.000211691
-6.77531e-05
0.000213574
-6.58848e-05
0.000215908
-6.37099e-05
0.000218684
-6.12113e-05
0.000221885
-5.83675e-05
0.000225498
-5.51613e-05
0.000229505
-5.15739e-05
0.000233888
-4.75896e-05
0.000238627
-4.31927e-05
0.0002437
-3.83712e-05
0.000249081
-3.31139e-05
0.000254742
-2.74133e-05
-2.12656e-05
0.000260656
0.000482842
-7.59921e-05
0.000473245
-7.48871e-05
0.000463399
-7.33831e-05
0.000453384
-7.20404e-05
0.000443027
-7.05359e-05
0.000432513
-6.9086e-05
0.000421888
-6.76784e-05
0.000411196
-6.63494e-05
0.000400478
-6.51311e-05
0.000389764
-6.40372e-05
0.000379094
-6.30846e-05
0.000368506
-6.22859e-05
0.000358038
-6.16483e-05
0.000347726
-6.11758e-05
0.000337603
-6.08686e-05
0.000327701
-6.07242e-05
0.000318049
-6.07368e-05
0.000308674
-6.08971e-05
0.000299603
-6.11953e-05
0.000290864
-6.16189e-05
0.000282484
-6.2156e-05
0.000274488
-6.27912e-05
0.000266896
-6.3511e-05
0.000259726
-6.4297e-05
0.000252996
-6.51348e-05
0.000246719
-6.60056e-05
0.000240907
-6.6894e-05
0.000235571
-6.77804e-05
0.000230719
-6.86498e-05
0.000226359
-6.94815e-05
0.0002225
-7.02607e-05
0.000219143
-7.09679e-05
0.000216296
-7.1583e-05
0.000213958
-7.20924e-05
0.000212129
-7.24677e-05
0.000210813
-7.27e-05
0.000210005
-7.27613e-05
0.000209702
-7.26334e-05
0.000209907
-7.2297e-05
0.000210615
-7.17315e-05
0.000211816
-7.09147e-05
0.000213505
-6.98241e-05
0.000215672
-6.8439e-05
0.000218311
-6.6737e-05
0.000221409
-6.46981e-05
0.00022495
-6.22982e-05
0.00022892
-5.95174e-05
0.000233298
-5.63332e-05
0.000238066
-5.27278e-05
0.000243201
-4.86818e-05
0.000248681
-4.41798e-05
0.000254476
-3.9208e-05
0.000260555
-3.37557e-05
-2.78168e-05
0.000266886
0.0004847
-6.85923e-05
0.000475117
-6.69922e-05
0.000465351
-6.51472e-05
0.00045534
-6.34787e-05
0.000444883
-6.16542e-05
0.000434378
-6.00033e-05
0.00042366
-5.83902e-05
0.000412869
-5.69121e-05
0.000402024
-5.55783e-05
0.000391168
-5.44136e-05
0.000380345
-5.34329e-05
0.000369595
-5.26472e-05
0.000358957
-5.20639e-05
0.000348469
-5.16857e-05
0.000338171
-5.15122e-05
0.000328099
-5.15384e-05
0.00031828
-5.17571e-05
0.000308748
-5.21573e-05
0.000299532
-5.27279e-05
0.000290662
-5.34542e-05
0.000282166
-5.4322e-05
0.000274067
-5.53132e-05
0.000266387
-5.64117e-05
0.000259145
-5.75974e-05
0.000252358
-5.88541e-05
0.000246042
-6.0161e-05
0.00024021
-6.15013e-05
0.000234874
-6.28536e-05
0.000230042
-6.42018e-05
0.000225722
-6.5523e-05
0.000221923
-6.68018e-05
0.000218645
-6.80163e-05
0.000215896
-6.91466e-05
0.000213673
-7.01764e-05
0.00021198
-7.10772e-05
0.00021082
-7.18389e-05
0.000210182
-7.243e-05
0.000210075
-7.28338e-05
0.000210496
-7.30297e-05
0.000211438
-7.29945e-05
0.000212893
-7.2703e-05
0.000214857
-7.21319e-05
0.000217321
-7.12593e-05
0.000220276
-7.0059e-05
0.00022371
-6.85082e-05
0.000227607
-6.65808e-05
0.00023195
-6.42518e-05
0.000236719
-6.14974e-05
0.000241896
-5.82947e-05
0.000247455
-5.46215e-05
0.000253367
-5.04574e-05
0.000259605
-4.57862e-05
0.000266133
-4.05926e-05
-3.48677e-05
0.000272914
0.000486609
-6.12619e-05
0.000477176
-5.91686e-05
0.000467454
-5.70333e-05
0.000457329
-5.49386e-05
0.00044697
-5.28287e-05
0.000436348
-5.08767e-05
0.000425563
-4.9031e-05
0.000414649
-4.73608e-05
0.000403655
-4.58853e-05
0.000392625
-4.46248e-05
0.000381603
-4.35949e-05
0.000370641
-4.28061e-05
0.000359784
-4.2265e-05
0.00034908
-4.19731e-05
0.000338567
-4.19281e-05
0.00032828
-4.2123e-05
0.000318259
-4.25485e-05
0.000308538
-4.31924e-05
0.000299151
-4.40411e-05
0.000290127
-4.50778e-05
0.00028149
-4.62853e-05
0.000273266
-4.76433e-05
0.000265475
-4.91329e-05
0.000258141
-5.07327e-05
0.000251282
-5.24232e-05
0.000244915
-5.41828e-05
0.000239053
-5.59921e-05
0.000233708
-5.78286e-05
0.000228887
-5.96739e-05
0.000224598
-6.15048e-05
0.00022085
-6.33027e-05
0.000217643
-6.50459e-05
0.000214987
-6.67127e-05
0.000212876
-6.82849e-05
0.000211318
-6.97347e-05
0.00021031
-7.10499e-05
0.000209846
-7.21954e-05
0.000209938
-7.31588e-05
0.000210578
-7.39155e-05
0.000211756
-7.44371e-05
0.00021347
-7.46998e-05
0.000215717
-7.46787e-05
0.000218487
-7.4349e-05
0.000221769
-7.36808e-05
0.000225552
-7.26501e-05
0.000229818
-7.12252e-05
0.000234552
-6.93782e-05
0.000239736
-6.70828e-05
0.000245345
-6.43115e-05
0.000251353
-6.10358e-05
0.000257734
-5.72321e-05
0.00026445
-5.28791e-05
0.000271462
-4.7957e-05
-4.24533e-05
0.00027873
0.000489291
-5.40701e-05
0.000479803
-5.1423e-05
0.000470052
-4.89256e-05
0.00045982
-4.63241e-05
0.000449327
-4.39097e-05
0.00043856
-4.16292e-05
0.000427597
-3.95248e-05
0.000416483
-3.76384e-05
0.00040527
-3.59971e-05
0.000394007
-3.46207e-05
0.00038275
-3.35255e-05
0.000371549
-3.27215e-05
0.000360453
-3.22138e-05
0.000349503
-3.2002e-05
0.000338745
-3.20821e-05
0.00032822
-3.24458e-05
0.000317969
-3.30817e-05
0.000308033
-3.39755e-05
0.000298444
-3.51102e-05
0.000289234
-3.6467e-05
0.000280431
-3.80249e-05
0.000272059
-3.97624e-05
0.000264141
-4.16569e-05
0.000256699
-4.3686e-05
0.000249752
-4.58269e-05
0.000243319
-4.80573e-05
0.000237412
-5.03539e-05
0.000232043
-5.26948e-05
0.000227223
-5.50566e-05
0.000222958
-5.74187e-05
0.000219254
-5.97557e-05
0.000216115
-6.20507e-05
0.000213545
-6.4275e-05
0.000211543
-6.64134e-05
0.000210116
-6.84363e-05
0.000209259
-7.03288e-05
0.00020897
-7.20554e-05
0.000209261
-7.36063e-05
0.000210118
-7.49497e-05
0.000211536
-7.60569e-05
0.000213515
-7.69048e-05
0.00021605
-7.74642e-05
0.000219131
-7.77092e-05
0.000222749
-7.76078e-05
0.000226893
-7.71292e-05
0.000231543
-7.62411e-05
0.000236687
-7.4911e-05
0.000242308
-7.3108e-05
0.000248377
-7.0799e-05
0.000254865
-6.79495e-05
0.000261742
-6.45306e-05
0.000268968
-6.05155e-05
0.000276499
-5.58782e-05
-5.06031e-05
0.000284289
0.000491797
-4.67659e-05
0.000482555
-4.37338e-05
0.000472672
-4.06805e-05
0.000462416
-3.76909e-05
0.000451808
-3.48707e-05
0.000440901
-3.2235e-05
0.000429749
-2.98335e-05
0.000418414
-2.77031e-05
0.000406954
-2.58707e-05
0.000395431
-2.43584e-05
0.0003839
-2.31818e-05
0.000372416
-2.23514e-05
0.00036103
-2.18699e-05
0.000349789
-2.17347e-05
0.000338745
-2.19394e-05
0.000327944
-2.24735e-05
0.000317431
-2.33239e-05
0.000307245
-2.44741e-05
0.000297422
-2.59045e-05
0.000287993
-2.75935e-05
0.000278989
-2.95167e-05
0.000270436
-3.16492e-05
0.000262359
-3.39658e-05
0.000254784
-3.64421e-05
0.000247731
-3.90529e-05
0.000241218
-4.17736e-05
0.000235258
-4.45788e-05
0.00022986
-4.74445e-05
0.000225034
-5.03446e-05
0.000220784
-5.32584e-05
0.000217119
-5.61567e-05
0.000214041
-5.90245e-05
0.000211552
-6.18292e-05
0.000209657
-6.45563e-05
0.000208356
-6.71773e-05
0.000207647
-6.96704e-05
0.000207534
-7.20056e-05
0.000208019
-7.41706e-05
0.00020909
-7.6127e-05
0.000210748
-7.78504e-05
0.000212991
-7.9314e-05
0.000215815
-8.04871e-05
0.000219215
-8.13415e-05
0.000223176
-8.18414e-05
0.000227691
-8.19515e-05
0.000232744
-8.16392e-05
0.000238317
-8.08631e-05
0.000244395
-7.95896e-05
0.000250948
-7.7777e-05
0.000257942
-7.53856e-05
0.000265344
-7.23781e-05
0.000273107
-6.87175e-05
0.000281181
-6.43748e-05
-5.93332e-05
0.000289511
0.000494996
-3.9692e-05
0.000485727
-3.60517e-05
0.000475729
-3.23555e-05
0.000465381
-2.89265e-05
0.000454593
-2.56564e-05
0.000443453
-2.26351e-05
0.000432047
-1.9907e-05
0.00042044
-1.7506e-05
0.000408695
-1.54636e-05
0.000396872
-1.37996e-05
0.000385027
-1.25258e-05
0.000373218
-1.16551e-05
0.000361496
-1.11862e-05
0.000349915
-1.11192e-05
0.000338532
-1.14466e-05
0.000327402
-1.21557e-05
0.000316577
-1.3231e-05
0.000306098
-1.46507e-05
0.000296003
-1.63911e-05
0.000286323
-1.84281e-05
0.000277091
-2.07344e-05
0.000268337
-2.32817e-05
0.000260089
-2.60432e-05
0.000252374
-2.89903e-05
0.000245209
-3.20948e-05
0.000238609
-3.53279e-05
0.000232585
-3.86632e-05
0.000227148
-4.20735e-05
0.000222306
-4.55334e-05
0.000218063
-4.90181e-05
0.000214427
-5.25003e-05
0.000211402
-5.59607e-05
0.000208987
-5.93694e-05
0.000207194
-6.27081e-05
0.000206014
-6.59498e-05
0.00020545
-6.90686e-05
0.000205506
-7.20408e-05
0.000206178
-7.48418e-05
0.000207461
-7.74413e-05
0.000209357
-7.98109e-05
0.000211864
-8.19223e-05
0.000214979
-8.37453e-05
0.000218699
-8.52434e-05
0.000223012
-8.63835e-05
0.000227908
-8.71222e-05
0.000233373
-8.74259e-05
0.000239395
-8.72447e-05
0.000245948
-8.65406e-05
0.000253008
-8.52623e-05
0.000260534
-8.33615e-05
0.000268475
-8.07865e-05
0.000276782
-7.74904e-05
0.000285389
-7.34395e-05
-6.86202e-05
0.000294237
0.000498626
-3.24353e-05
0.000489203
-2.8239e-05
0.000479205
-2.39697e-05
0.000468659
-1.99995e-05
0.000457647
-1.62372e-05
0.000446257
-1.27892e-05
0.000434567
-9.6987e-06
0.00042264
-6.99389e-06
0.000410541
-4.71016e-06
0.000398338
-2.86823e-06
0.000386092
-1.47643e-06
0.000373884
-5.67899e-07
0.000361767
-1.11359e-07
0.000349804
-1.17259e-07
0.000338054
-5.75434e-07
0.000326568
-1.46648e-06
0.000315402
-2.77958e-06
0.000304598
-4.48164e-06
0.000294198
-6.54688e-06
0.000284241
-8.95124e-06
0.000274762
-1.1662e-05
0.000265794
-1.4646e-05
0.000257362
-1.78745e-05
0.000249488
-2.13141e-05
0.000242188
-2.49337e-05
0.000235479
-2.87015e-05
0.000229374
-3.25899e-05
0.000223881
-3.65683e-05
0.00021901
-4.06116e-05
0.000214763
-4.46897e-05
0.00021115
-4.8779e-05
0.00020817
-5.28538e-05
0.000205828
-5.68898e-05
0.000204126
-6.08627e-05
0.000203062
-6.47475e-05
0.000202637
-6.85174e-05
0.00020285
-7.21495e-05
0.000203703
-7.56126e-05
0.000205194
-7.88839e-05
0.000207323
-8.19306e-05
0.000210093
-8.47229e-05
0.0002135
-8.72313e-05
0.000217541
-8.94121e-05
0.000222207
-9.12301e-05
0.000227493
-9.26406e-05
0.00023338
-9.36049e-05
0.000239858
-9.4062e-05
0.000246906
-9.39698e-05
0.000254489
-9.3262e-05
0.000262553
-9.18723e-05
0.000271026
-8.97372e-05
0.000279843
-8.67909e-05
0.00028892
-8.30101e-05
-7.83286e-05
0.00029817
0.000502924
-2.52551e-05
0.000493318
-2.02607e-05
0.000483082
-1.53864e-05
0.000472293
-1.08331e-05
0.000461029
-6.54445e-06
0.000449329
-2.61894e-06
0.000437283
8.68133e-07
0.000424972
3.90167e-06
0.000412459
6.45321e-06
0.000399818
8.49493e-06
0.000387129
1.00076e-05
0.00037446
1.09775e-05
0.000361894
1.14139e-05
0.000349497
1.13234e-05
0.000337331
1.07213e-05
0.000325454
9.62751e-06
0.00031392
8.06351e-06
0.000302773
6.05757e-06
0.000292057
3.64095e-06
0.000281806
8.48952e-07
0.000272051
-2.27998e-06
0.000262826
-5.71668e-06
0.000254164
-9.43325e-06
0.000246091
-1.3391e-05
0.000238627
-1.75519e-05
0.00023179
-2.18808e-05
0.000225589
-2.6348e-05
0.000220033
-3.09209e-05
0.000215124
-3.55711e-05
0.000210866
-4.02676e-05
0.000207267
-4.49861e-05
0.000204328
-4.96994e-05
0.000202051
-5.43848e-05
0.000200435
-5.90135e-05
0.00019948
-6.35637e-05
0.000199181
-6.80074e-05
0.000199544
-7.23198e-05
0.000200569
-7.6476e-05
0.00020226
-8.04439e-05
0.000204614
-8.41983e-05
0.000207639
-8.77068e-05
0.000211333
-9.09348e-05
0.00021569
-9.38369e-05
0.000220707
-9.63749e-05
0.00022638
-9.85012e-05
0.000232699
-0.000100168
0.000239644
-0.000101314
0.000247184
-0.000101865
0.000255277
-0.000101755
0.000263841
-0.000100874
0.00027279
-9.91577e-05
0.000281993
-9.64887e-05
0.00029134
-9.28435e-05
-8.82592e-05
0.000300801
0.000507629
-1.7973e-05
0.000497939
-1.22322e-05
0.000487586
-6.5832e-06
0.000476431
-1.29672e-06
0.000464815
3.48683e-06
0.000452719
7.93729e-06
0.000440223
1.18704e-05
0.000427424
1.52668e-05
0.000414421
1.80946e-05
0.0004013
2.0332e-05
0.000388133
2.19676e-05
0.000374991
2.29943e-05
0.000361946
2.34167e-05
0.000349067
2.32442e-05
0.000336424
2.24941e-05
0.000324085
2.11886e-05
0.000312107
1.93557e-05
0.000300539
1.70273e-05
0.000289431
1.42402e-05
0.000278827
1.1034e-05
0.00026877
7.44261e-06
0.000259296
3.50237e-06
0.000250396
-7.11577e-07
0.000242122
-5.22016e-06
0.000234496
-9.95078e-06
0.000227533
-1.48687e-05
0.000221233
-1.99389e-05
0.000215599
-2.51285e-05
0.000210637
-3.04069e-05
0.000206356
-3.57454e-05
0.000202762
-4.11155e-05
0.000199859
-4.64907e-05
0.000197638
-5.18466e-05
0.000196098
-5.7151e-05
0.000195239
-6.23881e-05
0.000195052
-6.75257e-05
0.000195553
-7.2542e-05
0.000196741
-7.74139e-05
0.000198616
-8.21067e-05
0.000201186
-8.65999e-05
0.000204457
-9.08583e-05
0.000208425
-9.48403e-05
0.000213089
-9.8503e-05
0.000218448
-0.000101802
0.000224506
-0.00010469
0.000231243
-0.000107103
0.000238639
-0.000108973
0.000246637
-0.000110184
0.000255186
-0.000110678
0.000264128
-0.000110239
0.000273363
-0.000108851
0.000282703
-0.000106301
0.000291977
-0.00010265
-9.80913e-05
0.000301329
0.000512812
-1.05603e-05
0.000502739
-3.74692e-06
0.00049217
2.41263e-06
0.00048085
8.44275e-06
0.00046877
1.39803e-05
0.000456295
1.89396e-05
0.00044337
2.33423e-05
0.000430086
2.71209e-05
0.00041655
3.02518e-05
0.000402863
3.27137e-05
0.00038912
3.44861e-05
0.000375406
3.55709e-05
0.000361797
3.59724e-05
0.000348371
3.5705e-05
0.000335203
3.4789e-05
0.000322359
3.32515e-05
0.000309902
3.11253e-05
0.00029789
2.84476e-05
0.000286372
2.52601e-05
0.000275397
2.1606e-05
0.000265002
1.75286e-05
0.000255207
1.30728e-05
0.000246064
8.29022e-06
0.000237586
3.20278e-06
0.000229774
-2.11397e-06
0.00022265
-7.64941e-06
0.000216221
-1.33527e-05
0.000210494
-1.91875e-05
0.000205478
-2.51225e-05
0.00020118
-3.11266e-05
0.000197594
-3.71714e-05
0.000194723
-4.32262e-05
0.000192548
-4.92705e-05
0.000191075
-5.52678e-05
0.000190301
-6.12096e-05
0.000190218
-6.70608e-05
0.000190845
-7.28025e-05
0.00019218
-7.84127e-05
0.000194229
-8.38591e-05
0.000197001
-8.91204e-05
0.000200498
-9.41566e-05
0.000204723
-9.89239e-05
0.000209672
-0.000103385
0.000215356
-0.000107487
0.00022177
-0.000111177
0.000228897
-0.000114371
0.000236695
-0.000116985
0.000245047
-0.000118822
0.000253887
-0.000119865
0.000262959
-0.000119693
0.00027219
-0.000118539
0.00028128
-0.000115875
0.000290061
-0.000111953
-0.000107248
0.00029871
0.000518505
-2.82588e-06
0.00050842
4.77461e-06
0.000497297
1.19333e-05
0.000485498
1.86611e-05
0.000473051
2.48751e-05
0.000460037
3.04379e-05
0.000446562
3.53455e-05
0.000432716
3.95424e-05
0.000418602
4.29979e-05
0.000404319
4.56927e-05
0.000389962
4.76143e-05
0.00037563
4.87538e-05
0.000361414
4.9126e-05
0.000347398
4.87505e-05
0.000333659
4.76503e-05
0.000320272
4.58578e-05
0.000307301
4.34109e-05
0.000294807
4.03529e-05
0.000282846
3.67313e-05
0.000271463
3.25959e-05
0.000260694
2.79963e-05
0.000250578
2.29829e-05
0.000241151
1.76072e-05
0.000232422
1.19135e-05
0.000224421
5.95199e-06
0.000217143
-2.25554e-07
0.0002106
-6.59433e-06
0.000204795
-1.31031e-05
0.000199723
-1.97177e-05
0.000195389
-2.64093e-05
0.000191789
-3.31469e-05
0.000188923
-3.9902e-05
0.000186778
-4.66485e-05
0.000185354
-5.33585e-05
0.000184651
-6.00188e-05
0.000184661
-6.66011e-05
0.000185397
-7.3085e-05
0.000186862
-7.9452e-05
0.000189062
-8.56725e-05
0.00019201
-9.17236e-05
0.0001957
-9.75656e-05
0.000200148
-0.000103149
0.000205355
-0.000108446
0.00021133
-0.000113385
0.000218062
-0.000117912
0.000225488
-0.000121878
0.000233582
-0.00012522
0.000242052
-0.000127547
0.000250967
-0.000129078
0.000259638
-0.00012874
0.000268614
-0.000127966
0.000277374
-0.00012511
0.000285357
-0.000120645
-0.000116457
0.000294208
0.000524153
5.10945e-06
0.000513791
1.36663e-05
0.000502379
2.18374e-05
0.000490221
2.92926e-05
0.00047731
3.62547e-05
0.000463757
4.24893e-05
0.000449698
4.79378e-05
0.000435243
5.25774e-05
0.000420498
5.63765e-05
0.000405566
5.93188e-05
0.000390565
6.13809e-05
0.000375581
6.25821e-05
0.000360717
6.29188e-05
0.00034607
6.24187e-05
0.000331719
6.1114e-05
0.000317743
5.90415e-05
0.000304214
5.62437e-05
0.000291198
5.27713e-05
0.000278757
4.86785e-05
0.000266941
4.40227e-05
0.000255788
3.88604e-05
0.000245333
3.32487e-05
0.000235609
2.72444e-05
0.00022663
2.09005e-05
0.000218409
1.42692e-05
0.000210959
7.4011e-06
0.00020428
3.42079e-07
0.000198383
-6.87373e-06
0.000193263
-1.41983e-05
0.000188901
-2.15975e-05
0.000185295
-2.90475e-05
0.000182435
-3.65171e-05
0.000180313
-4.39832e-05
0.000178932
-5.14156e-05
0.000178281
-5.88092e-05
0.00017836
-6.61299e-05
0.000179178
-7.33709e-05
0.000180743
-8.05055e-05
0.00018306
-8.75178e-05
0.000186144
-9.43799e-05
0.000189989
-0.000101042
0.000194614
-0.000107468
0.000200019
-0.000113625
0.000206207
-0.000119422
0.000213162
-0.000124786
0.000220733
-0.000129469
0.000228884
-0.00013344
0.000237117
-0.00013598
0.000245677
-0.0001379
0.000253614
-0.000137057
0.000261695
-0.000136765
0.000270341
-0.000134292
0.000277979
-0.000130204
-0.00013077
0.00029251
0.000529104
1.31615e-05
0.000518368
2.28062e-05
0.000506753
3.19136e-05
0.000494106
4.04112e-05
0.000480771
4.80734e-05
0.000466744
5.50265e-05
0.00045216
6.10606e-05
0.000437134
6.61824e-05
0.000421793
7.03484e-05
0.000406232
7.35674e-05
0.000390592
7.5777e-05
0.000374965
7.70387e-05
0.000359452
7.73475e-05
0.000344157
7.67185e-05
0.000329179
7.51898e-05
0.000314604
7.28125e-05
0.000300506
6.96348e-05
0.000286959
6.57146e-05
0.000274028
6.11138e-05
0.000261764
5.58969e-05
0.000250211
5.01293e-05
0.000239406
4.38767e-05
0.000229375
3.72028e-05
0.000220135
3.0166e-05
0.000211699
2.28248e-05
0.00020408
1.52324e-05
0.000197285
7.43686e-06
0.000191291
-5.02879e-07
0.000186099
-8.56657e-06
0.000181698
-1.66961e-05
0.000178076
-2.48757e-05
0.000175225
-3.30715e-05
0.000173133
-4.12663e-05
0.000171777
-4.94326e-05
0.000171165
-5.75601e-05
0.000171286
-6.56312e-05
0.000172158
-7.36298e-05
0.000173779
-8.15403e-05
0.000176174
-8.93553e-05
0.000179333
-9.70281e-05
0.000183259
-0.000104514
0.000187978
-0.000111797
0.000193501
-0.000118828
0.000199793
-0.000125471
0.000206799
-0.00013162
0.000214213
-0.00013683
0.000221998
-0.000141238
0.000229394
-0.000143555
0.000236943
-0.000145905
0.000243943
-0.000144582
0.000252425
-0.000146407
0.000268316
-0.000152904
0.000281074
-0.000147114
-0.000173926
0.000319592
0.000531555
2.07473e-05
0.000520871
3.16718e-05
0.000508933
4.23143e-05
0.000496291
5.1483e-05
0.000482505
6.0318e-05
0.000468068
6.79299e-05
0.000453049
7.45926e-05
0.000437573
8.02224e-05
0.000421775
8.47656e-05
0.00040571
8.83125e-05
0.000389564
9.06758e-05
0.000373377
9.20489e-05
0.000357284
9.23376e-05
0.000341401
9.15855e-05
0.000325823
8.98468e-05
0.000310667
8.71499e-05
0.000296018
8.35677e-05
0.000281954
7.91695e-05
0.000268539
7.40252e-05
0.000255832
6.82089e-05
0.00024388
6.17948e-05
0.000232725
5.48592e-05
0.000222387
4.74732e-05
0.000212887
3.97013e-05
0.000204242
3.16104e-05
0.000196458
2.32591e-05
0.000189521
1.47038e-05
0.000183429
5.99688e-06
0.000178178
-2.84076e-06
0.000173745
-1.172e-05
0.000170107
-2.0637e-05
0.000167253
-2.95724e-05
0.00016517
-3.8502e-05
0.00016383
-4.74033e-05
0.000163239
-5.62644e-05
0.000163383
-6.50762e-05
0.000164271
-7.38267e-05
0.000165911
-8.25046e-05
0.000168305
-9.11102e-05
0.000171439
-9.95671e-05
0.000175351
-0.000107887
0.000180061
-0.000116028
0.000185563
-0.000123915
0.000191751
-0.000131345
0.000198483
-0.000138105
0.000205259
-0.000143492
0.00021208
-0.000148122
0.000218339
-0.000150118
0.000224926
-0.000153737
0.000234969
-0.000155518
0.000258015
-0.000173824
0.000282634
-0.000188315
0.000334798
-0.000212792
-0.000232232
0.000400638
0.000533043
2.71675e-05
0.000521128
4.11144e-05
0.00050848
5.2332e-05
0.000494699
6.3129e-05
0.000480581
7.25094e-05
0.000465961
8.0819e-05
0.00045076
8.81398e-05
0.00043509
9.43771e-05
0.000419169
9.92387e-05
0.000402865
0.000103246
0.000386536
0.000105723
0.000370072
0.000107293
0.000353588
0.000107691
0.000337299
0.000106843
0.000321264
0.00010494
0.000305616
0.000101951
0.000290479
9.79619e-05
0.000275946
9.30765e-05
0.000262093
8.73619e-05
0.000248975
8.09215e-05
0.000236655
7.38234e-05
0.000225171
6.61676e-05
0.000214548
5.80301e-05
0.000204804
4.94844e-05
0.000195957
4.06057e-05
0.000188011
3.14576e-05
0.000180957
2.21034e-05
0.00017479
1.25972e-05
0.000169459
3.00197e-06
0.000165003
-6.68097e-06
0.000161374
-1.63612e-05
0.00015853
-2.60371e-05
0.000156454
-3.56967e-05
0.000155118
-4.53209e-05
0.000154512
-5.48989e-05
0.000154631
-6.44281e-05
0.000155464
-7.38983e-05
0.000157022
-8.3314e-05
0.000159281
-9.26453e-05
0.000162271
-0.000101877
0.000166026
-0.000111015
0.000170572
-0.00012
0.000175849
-0.000128698
0.000181631
-0.000136707
0.000187573
-0.000143755
0.000193083
-0.000148933
0.000198533
-0.000154083
0.000204788
-0.000157543
0.000215201
-0.000167886
0.000248593
-0.000192638
0.000289653
-0.000226551
0.000327024
-0.000247353
0.000370855
-0.000255924
-0.000253754
0.000389335
0.000536967
3.86702e-05
0.00052155
5.05104e-05
0.00050559
6.36924e-05
0.000490376
7.46972e-05
0.00047512
8.4854e-05
0.0004597
9.34995e-05
0.000444397
0.000101219
0.00042867
0.000108142
0.000412685
0.000113709
0.000396882
0.000117469
0.000380154
0.000121038
0.000363877
0.00012232
0.00034734
0.00012302
0.000330986
0.000122116
0.000314812
0.000120143
0.000298931
0.000116968
0.000283501
0.000112639
0.000268636
0.000107294
0.000254459
0.000101011
0.000241015
9.39414e-05
0.000228387
8.61463e-05
0.000216619
7.77481e-05
0.000205746
6.88282e-05
0.000195794
5.94759e-05
0.000186778
4.97752e-05
0.000178698
3.97956e-05
0.000171547
2.96089e-05
0.000165317
1.92752e-05
0.000159997
8.85452e-06
0.000155536
-1.6097e-06
0.000151898
-1.20434e-05
0.000149048
-2.24552e-05
0.000146962
-3.28341e-05
0.000145596
-4.31553e-05
0.000144929
-5.34099e-05
0.000144934
-6.36029e-05
0.000145588
-7.37223e-05
0.0001469
-8.38035e-05
0.000148865
-9.38097e-05
0.000151534
-0.000103782
0.000154959
-0.00011372
0.000159146
-0.00012352
0.000163896
-0.000132862
0.00016875
-0.000141104
0.000173348
-0.000148213
0.000177566
-0.000153633
0.000183891
-0.000162536
0.000200805
-0.000179837
0.00023717
-0.000215387
0.000273638
-0.000253685
0.000307503
-0.000270259
0.000337378
-0.000277625
0.000353388
-0.000276359
-0.000272973
0.00037612
0.00059363
4.85482e-05
0.000560002
6.36821e-05
0.000523856
8.1859e-05
0.000493366
9.31407e-05
0.000468746
0.000101656
0.000450396
0.000107222
0.000432617
0.000115075
0.000417306
0.000120923
0.000401292
0.000126873
0.000385686
0.000131454
0.000370113
0.00013487
0.000353958
0.000137173
0.000338017
0.000137739
0.000321705
0.0001373
0.000305746
0.00013511
0.000289963
0.000131899
0.000274568
0.000127253
0.000259602
0.000121597
0.000245286
0.000114762
0.000231662
0.000107126
0.00021887
9.86108e-05
0.000206917
8.94871e-05
0.000195869
7.97789e-05
0.000185762
6.96042e-05
0.000176618
5.90574e-05
0.000168445
4.82203e-05
0.000161238
3.71732e-05
0.000154981
2.59891e-05
0.000149641
1.47394e-05
0.000145157
3.49973e-06
0.000141546
-7.73687e-06
0.000138719
-1.88706e-05
0.000136612
-2.99173e-05
0.000135161
-4.08651e-05
0.00013433
-5.17102e-05
0.000134075
-6.24597e-05
0.000134374
-7.31335e-05
0.000135238
-8.37661e-05
0.000136703
-9.43887e-05
0.000138845
-0.000105067
0.000141764
-0.000115798
0.000145337
-0.000126351
0.000149072
-0.000136041
0.000152643
-0.00014441
0.000156012
-0.000152474
0.000162507
-0.000163445
0.000182077
-0.00019059
0.000211458
-0.000232387
0.000247376
-0.000265809
0.000272595
-0.000283651
0.000293263
-0.000290436
0.000310267
-0.000293045
0.000328912
-0.000292706
-0.000287875
0.000347301
0.000636067
5.3651e-05
0.000615579
7.75694e-05
0.00058814
9.4659e-05
0.000545314
0.000114672
0.000494749
0.000129758
0.000454856
0.00012936
0.000424829
0.000136364
0.000403437
0.00013673
0.000386172
0.000140722
0.000370562
0.000144624
0.000355378
0.000147874
0.000340178
0.000150607
0.000324853
0.000151635
0.000309439
0.000151595
0.000293928
0.000149573
0.000278462
0.000146493
0.000263289
0.000141625
0.000248501
0.00013574
0.000234272
0.00012841
0.000220662
0.00012028
0.000207786
0.000111132
0.00019578
0.000101258
0.000184668
9.07741e-05
0.000174498
7.9778e-05
0.000165304
6.83761e-05
0.000157103
5.66644e-05
0.000149895
4.47348e-05
0.000143664
3.26763e-05
0.000138373
2.05807e-05
0.000133972
8.53569e-06
0.000130392
-3.44697e-06
0.00012754
-1.52454e-05
0.00012533
-2.68782e-05
0.000123676
-3.83397e-05
0.00012251
-4.96348e-05
0.000121776
-6.07874e-05
0.000121465
-7.18631e-05
0.000121608
-8.29372e-05
0.000122315
-9.41247e-05
0.000123761
-0.000105534
0.000125941
-0.000117108
0.000128547
-0.000128219
0.000131022
-0.000138263
0.000133719
-0.000148561
0.000140408
-0.000164261
0.000160611
-0.000200872
0.000185176
-0.000245003
0.000211083
-0.000274481
0.000229692
-0.000289304
0.00024448
-0.000297843
0.000259908
-0.000303621
0.000277056
-0.000305498
0.000293771
-0.000301228
-0.000288577
0.000307345
0.000614529
6.27259e-05
0.000602127
8.42492e-05
0.000592859
0.00010758
0.000574637
0.000124629
0.000536134
0.0001443
0.000492584
0.000159859
0.000440897
0.000160908
0.000398856
0.000163405
0.000372177
0.000158916
0.000352915
0.000159201
0.000337108
0.000160606
0.000322368
0.000163149
0.000308193
0.000164403
0.000293379
0.000164937
0.000278857
0.000162881
0.000264212
0.000160155
0.000249544
0.000155352
0.000235209
0.000149344
0.000221227
0.000141769
0.000207872
0.000133133
0.000195144
0.000123469
0.00018319
0.000112936
0.000172104
0.000101712
0.000161944
8.99114e-05
0.000152758
7.76608e-05
0.000144576
6.50682e-05
0.000137408
5.22374e-05
0.000131246
3.92806e-05
0.000126054
2.63155e-05
0.000121774
1.34501e-05
0.000118214
8.25671e-07
0.000115292
-1.15381e-05
0.000112867
-2.36058e-05
0.000110814
-3.5389e-05
0.000109044
-4.69212e-05
0.000107517
-5.82804e-05
0.000106273
-6.95998e-05
0.000105426
-8.10456e-05
0.000105227
-9.28374e-05
0.000105825
-0.000105144
0.000107069
-0.000117471
0.000108432
-0.000129364
0.000110284
-0.000142112
0.000117528
-0.00016365
0.000134047
-0.000206849
0.000152714
-0.000249576
0.000167796
-0.000274224
0.000180869
-0.000288435
0.000193304
-0.000299276
0.000207645
-0.000307348
0.000222075
-0.000309809
0.000234647
-0.000304025
0.000243748
-0.000289281
-0.000265606
0.000246348
0.000555507
6.45281e-05
0.000557547
8.84501e-05
0.000551526
0.000114788
0.000538444
0.000135506
0.000527257
0.000154579
0.000502211
0.000173482
0.000468198
0.000183881
0.00041565
0.000191279
0.000369205
0.000186954
0.00033876
0.000179571
0.000318987
0.000175934
0.00030313
0.00017566
0.000289036
0.000176436
0.000274951
0.000177149
0.000260844
0.00017576
0.000247035
0.000172885
0.000233195
0.000168333
0.000219479
0.000162224
0.000206056
0.000154557
0.000193073
0.000145567
0.000180665
0.000135456
0.000168942
0.000124355
0.000157999
0.00011246
0.000147932
9.99098e-05
0.000138825
8.68377e-05
0.000130717
7.33702e-05
0.000123631
5.96316e-05
0.000117563
4.57666e-05
0.000112465
3.19358e-05
0.000108212
1.83216e-05
0.000104623
5.11695e-06
0.000101546
-7.682e-06
9.87304e-05
-1.99367e-05
9.60054e-05
-3.17465e-05
9.32998e-05
-4.32456e-05
9.06531e-05
-5.46162e-05
8.82012e-05
-6.60864e-05
8.62327e-05
-7.79424e-05
8.50606e-05
-9.058e-05
8.47712e-05
-0.000103856
8.48022e-05
-0.000117279
8.55923e-05
-0.00013282
9.20633e-05
-0.000159326
0.000101562
-0.000206681
0.00011342
-0.000245815
0.000121234
-0.000267612
0.000130718
-0.000282302
0.000141373
-0.000295399
0.000153447
-0.000304347
0.000165093
-0.000305675
0.000174211
-0.000297305
0.000179382
-0.000280045
0.0001812
-0.000254749
-0.000235576
0.000183519
0.000457894
6.88563e-05
0.000479613
9.19729e-05
0.000495005
0.000114331
0.000492981
0.000141819
0.000484216
0.000164051
0.000471035
0.000182524
0.00045785
0.000199799
0.000423383
0.000209524
0.000375516
0.000212601
0.00033256
0.000204554