/*--------------------------------*- C++ -*----------------------------------*\
  =========                 |
  \\      /  F ield         | OpenFOAM: The Open Source CFD Toolbox
   \\    /   O peration     | Website:  https://openfoam.org
    \\  /    A nd           | Version:  10
     \\/     M anipulation  |
\*---------------------------------------------------------------------------*/
FoamFile
{
    format      ascii;
    class       volScalarField;
    location    "0.996516";
    object      rho;
}
// * * * * * * * * * * * * * * * * * * * * * * * * * * * * * * * * * * * * * //

dimensions      [1 -3 0 0 0 0 0];

internalField   nonuniform List<scalar> 
15984
(
0.963253
0.966755
0.96814
0.972333
0.973776
0.976618
0.978916
0.981283
0.983618
0.985937
0.988235
0.99055
0.992828
0.995061
0.997228
0.999352
1.00143
1.00349
1.00551
1.00751
1.00946
1.01137
1.01322
1.01503
1.01682
1.01854
1.02028
1.02195
1.02365
1.02528
1.02691
1.0285
1.03009
1.03162
1.03318
1.03466
1.03617
1.03762
1.03905
1.04048
1.04185
1.04318
1.04451
1.04578
1.047
1.04819
1.04931
1.05039
1.05138
1.0523
1.05317
1.05392
1.0546
1.05516
0.964924
0.966771
0.970403
0.971725
0.974434
0.976975
0.979537
0.982002
0.984446
0.986867
0.989264
0.991596
0.993858
0.996068
0.99823
1.00035
1.00243
1.00447
1.00646
1.0084
1.0103
1.01214
1.01394
1.0157
1.01743
1.01911
1.0208
1.02242
1.02405
1.02562
1.02718
1.02871
1.03022
1.03171
1.03319
1.03461
1.03605
1.03742
1.03878
1.04013
1.04142
1.04272
1.04396
1.04516
1.04634
1.04747
1.04854
1.04956
1.0505
1.05139
1.05219
1.05292
1.05355
1.05408
0.963948
0.968182
0.969449
0.973061
0.975357
0.977907
0.980416
0.982891
0.985354
0.987776
0.990137
0.992458
0.994727
0.996955
0.999136
1.00127
1.00336
1.00539
1.00736
1.00926
1.01111
1.0129
1.01466
1.01638
1.01806
1.0197
1.02132
1.02289
1.02445
1.02595
1.02744
1.02891
1.03033
1.03178
1.03314
1.03452
1.03586
1.03716
1.03843
1.0397
1.04094
1.04214
1.04331
1.04444
1.04556
1.04661
1.04765
1.04859
1.04949
1.0503
1.05107
1.05174
1.05233
1.05282
0.965072
0.968945
0.969809
0.974068
0.975624
0.978578
0.981028
0.983556
0.986054
0.988494
0.990899
0.993253
0.995551
0.997793
0.999982
1.00212
1.00421
1.00623
1.00818
1.01007
1.01191
1.01368
1.01542
1.01708
1.01872
1.0203
1.02186
1.02336
1.02485
1.02629
1.02772
1.02913
1.03048
1.03187
1.03313
1.03446
1.0357
1.03691
1.03812
1.03931
1.04047
1.04158
1.04268
1.04374
1.04477
1.04577
1.04671
1.0476
1.04842
1.04919
1.04987
1.05049
1.05101
1.05145
0.965993
0.968263
0.971116
0.973638
0.97639
0.979005
0.981631
0.98424
0.986795
0.989311
0.991745
0.99411
0.996415
0.99866
1.00086
1.00299
1.00506
1.00706
1.00901
1.0109
1.01274
1.01449
1.01619
1.01782
1.0194
1.02093
1.02244
1.02388
1.02533
1.02669
1.02807
1.02939
1.03068
1.03197
1.03317
1.03442
1.03556
1.03669
1.03784
1.03894
1.03999
1.04102
1.04205
1.04302
1.04398
1.04489
1.04574
1.04654
1.04731
1.04799
1.04861
1.04916
1.04962
1.04999
0.967498
0.968736
0.972013
0.974227
0.976874
0.979506
0.982146
0.984755
0.98734
0.989859
0.992333
0.994745
0.997109
0.999406
1.00163
1.00379
1.00586
1.00788
1.00983
1.01172
1.01354
1.01529
1.01697
1.01857
1.02012
1.0216
1.02304
1.02444
1.0258
1.02713
1.02842
1.02969
1.0309
1.03211
1.03323
1.03441
1.03543
1.03651
1.03757
1.03857
1.03955
1.04048
1.04141
1.04229
1.04316
1.04396
1.04472
1.04544
1.04612
1.04672
1.04726
1.04773
1.04811
1.04841
0.965877
0.969474
0.971659
0.974313
0.977026
0.979757
0.982475
0.985152
0.987796
0.990387
0.992936
0.995417
0.99784
1.00017
1.00242
1.0046
1.0067
1.00874
1.01071
1.0126
1.0144
1.01612
1.01774
1.01929
1.02078
1.02223
1.02363
1.025
1.0263
1.02761
1.0288
1.03004
1.03116
1.0323
1.03336
1.03442
1.03537
1.03639
1.03734
1.03823
1.03911
1.03994
1.04076
1.04155
1.04229
1.04302
1.04367
1.04429
1.04487
1.04537
1.04581
1.04619
1.04647
1.04669
0.96586
0.969667
0.971542
0.974348
0.977152
0.979901
0.982633
0.985373
0.988085
0.990764
0.993375
0.995935
0.998413
1.0008
1.00311
1.00532
1.00745
1.00952
1.0115
1.0134
1.01519
1.01689
1.0185
1.02004
1.02152
1.02295
1.02432
1.02564
1.0269
1.02814
1.02927
1.03043
1.03147
1.03253
1.03354
1.03448
1.03539
1.0363
1.03713
1.03792
1.03868
1.03941
1.04011
1.0408
1.04144
1.04205
1.04259
1.04311
1.04355
1.04397
1.04429
1.04452
1.0447
1.04481
0.966231
0.968761
0.97152
0.97429
0.977065
0.97987
0.982696
0.985526
0.988325
0.991078
0.993764
0.996375
0.998898
1.00133
1.00368
1.00594
1.00812
1.0102
1.0122
1.0141
1.0159
1.01762
1.01926
1.02081
1.02229
1.02369
1.02504
1.0263
1.02753
1.02868
1.02977
1.03085
1.03184
1.03282
1.03374
1.03461
1.03544
1.03621
1.03695
1.03763
1.03828
1.03891
1.03949
1.04008
1.04057
1.04109
1.04145
1.04188
1.04218
1.0425
1.0427
1.04279
1.04286
1.04283
0.966458
0.968535
0.971188
0.973953
0.976838
0.979767
0.982693
0.985608
0.988501
0.991334
0.994108
0.996781
0.999386
1.00188
1.0043
1.0066
1.00883
1.01097
1.01299
1.0149
1.0167
1.0184
1.02003
1.02154
1.02299
1.02435
1.02569
1.02693
1.02815
1.02924
1.0303
1.03129
1.03226
1.03316
1.03402
1.03481
1.03553
1.0362
1.03682
1.0374
1.03791
1.03844
1.03891
1.03934
1.03971
1.04006
1.04036
1.04059
1.04079
1.04093
1.04101
1.04098
1.04101
1.0409
0.966358
0.967596
0.97141
0.973656
0.976584
0.979594
0.982591
0.985569
0.988526
0.991448
0.99432
0.997097
0.9998
1.00238
1.00487
1.00723
1.0095
1.01165
1.01368
1.01561
1.01744
1.01916
1.02077
1.02227
1.02371
1.0251
1.02644
1.02767
1.02881
1.02985
1.03085
1.03182
1.03276
1.03358
1.03438
1.03506
1.03566
1.03624
1.03673
1.03719
1.0376
1.03801
1.03833
1.03863
1.03883
1.03905
1.03916
1.03925
1.03928
1.03926
1.03924
1.03914
1.03909
1.03974
0.965659
0.966835
0.969413
0.973629
0.975867
0.979084
0.982338
0.985479
0.988519
0.991519
0.994459
0.997335
1.00012
1.00279
1.00536
1.0078
1.01011
1.01231
1.01438
1.01633
1.01818
1.01991
1.02151
1.02303
1.02448
1.02585
1.02712
1.02828
1.02935
1.0304
1.03139
1.03234
1.03327
1.03398
1.03475
1.03531
1.03582
1.0363
1.03668
1.03704
1.03734
1.03762
1.03781
1.0379
1.03796
1.03798
1.03794
1.03782
1.03773
1.03763
1.03744
1.03798
1.03767
1.04117
0.963427
0.966711
0.969163
0.972108
0.975256
0.978469
0.981719
0.984972
0.988188
0.991348
0.994427
0.997427
1.00031
1.0031
1.00576
1.0083
1.0107
1.01296
1.01509
1.01709
1.01894
1.02065
1.02228
1.02379
1.02522
1.02657
1.02786
1.02904
1.03015
1.03113
1.03211
1.03294
1.03381
1.03442
1.0351
1.03561
1.03603
1.03642
1.03671
1.03695
1.03714
1.03721
1.03727
1.03718
1.03711
1.03692
1.03673
1.03652
1.03623
1.03653
1.036
1.03885
1.0436
1.04505
0.961846
0.965507
0.967844
0.971086
0.974336
0.977654
0.981003
0.984367
0.987712
0.991018
0.994238
0.997386
1.00041
1.00333
1.00611
1.00875
1.01123
1.01355
1.01572
1.01775
1.01966
1.02141
1.02305
1.02459
1.02602
1.02733
1.02855
1.02973
1.03083
1.03188
1.03279
1.03365
1.03435
1.03498
1.03554
1.03597
1.03629
1.03657
1.03676
1.03686
1.03693
1.03683
1.03673
1.03647
1.0362
1.03582
1.03552
1.03517
1.03604
1.03555
1.04173
1.04056
1.06455
1.06207
0.962204
0.963194
0.967357
0.969655
0.973037
0.976493
0.979998
0.983487
0.98699
0.990445
0.993837
0.997139
1.0003
1.00336
1.00625
1.00902
1.0116
1.01401
1.01627
1.01837
1.02032
1.02212
1.02381
1.02535
1.02679
1.0281
1.02935
1.03051
1.03164
1.03257
1.03351
1.03426
1.03505
1.03559
1.03611
1.0364
1.03667
1.03677
1.03685
1.03686
1.03675
1.03651
1.03622
1.03577
1.03531
1.03479
1.03472
1.0342
1.03828
1.03715
1.05837
1.06311
1.13346
1.22607
0.960095
0.965278
0.965378
0.970099
0.972321
0.975608
0.978984
0.9825
0.986113
0.989704
0.993287
0.996758
1.00008
1.00327
1.00629
1.00915
1.01185
1.01439
1.01675
1.01893
1.02094
1.0228
1.02454
1.0261
1.02756
1.02891
1.03022
1.03134
1.03243
1.0333
1.03424
1.03495
1.03568
1.03617
1.03658
1.03685
1.03697
1.03707
1.03706
1.03691
1.03664
1.03621
1.03572
1.03504
1.03449
1.03378
1.03524
1.03476
1.0502
1.04966
1.12143
1.26165
1.26606
1.7985
0.978665
0.970225
0.974809
0.971919
0.973905
0.975901
0.979191
0.981508
0.985584
0.988807
0.992643
0.996353
0.999788
1.00315
1.0063
1.00926
1.01204
1.01465
1.01712
1.01938
1.02147
1.02341
1.02521
1.02681
1.02831
1.02967
1.03096
1.03208
1.03317
1.03408
1.035
1.03574
1.03638
1.03685
1.03716
1.03734
1.03746
1.03739
1.03727
1.03698
1.03651
1.03588
1.03518
1.0344
1.03423
1.03372
1.0405
1.04387
1.09131
1.13383
1.41532
1.57274
1.85289
1.8395
1.01809
1.00785
0.994662
0.99079
0.985765
0.985675
0.981256
0.987343
0.983064
0.991903
0.991047
0.995323
0.99889
1.00245
1.00595
1.00915
1.0121
1.01488
1.01741
1.01983
1.02198
1.02397
1.02581
1.02746
1.02902
1.03042
1.03174
1.03284
1.03392
1.03483
1.03574
1.03647
1.03709
1.03755
1.03781
1.03799
1.03795
1.03776
1.03748
1.037
1.03636
1.03553
1.03482
1.03397
1.03596
1.03828
1.06389
1.09692
1.25203
1.58003
1.75014
1.92016
1.9295
1.97276
1.21922
1.16794
1.10975
1.05832
1.02509
1.00651
1.00019
0.987984
0.997409
0.986205
0.99663
0.993322
0.999956
1.00109
1.00495
1.00834
1.01196
1.01476
1.01768
1.01998
1.02248
1.02457
1.02646
1.02817
1.02977
1.03121
1.03255
1.03372
1.03481
1.03571
1.03657
1.03725
1.03786
1.03825
1.03843
1.03851
1.03827
1.03804
1.03766
1.03705
1.03617
1.03535
1.03507
1.03549
1.04688
1.06686
1.15496
1.36921
1.66613
1.87085
1.96437
1.97392
1.97376
1.95712
1.40798
1.3546
1.33212
1.27808
1.18598
1.10225
1.04266
1.02103
0.9997
1.00204
0.993828
0.999695
0.997061
1.00301
1.00412
1.00892
1.01063
1.015
1.01688
1.02056
1.02228
1.02459
1.02669
1.02856
1.03027
1.03182
1.03325
1.03451
1.03565
1.03659
1.03746
1.0381
1.03865
1.03892
1.03907
1.03902
1.03876
1.03838
1.03781
1.03683
1.03602
1.03556
1.03763
1.04994
1.08862
1.20417
1.49946
1.79549
1.94438
1.97808
1.9774
1.9649
1.93425
1.87427
1.41739
1.40715
1.41799
1.3858
1.40447
1.28056
1.20743
1.08686
1.04359
1.0132
1.00501
0.999433
1.00096
1.00208
1.00404
1.00861
1.01049
1.01495
1.01683
1.02023
1.02277
1.02503
1.02709
1.029
1.03078
1.03241
1.03388
1.03518
1.03635
1.03735
1.03821
1.03885
1.03937
1.03957
1.03966
1.03942
1.03898
1.03847
1.03751
1.03667
1.0363
1.03932
1.05497
1.11114
1.2778
1.63916
1.87825
1.97589
1.98776
1.97912
1.95015
1.88665
1.78549
1.65214
1.31889
1.36754
1.39146
1.39569
1.39825
1.40653
1.33852
1.2679
1.133
1.06297
1.02279
1.014
1.00249
1.00776
1.00325
1.00704
1.01013
1.01386
1.01683
1.01987
1.02263
1.02514
1.02744
1.02937
1.03123
1.03302
1.03458
1.03596
1.03713
1.03817
1.03899
1.03957
1.03995
1.0401
1.04009
1.03972
1.03916
1.03836
1.03737
1.03706
1.04047
1.06095
1.13432
1.36389
1.73971
1.93875
1.99723
1.9963
1.97509
1.9204
1.81925
1.67989
1.51587
1.34569
1.14214
1.20486
1.31912
1.36938
1.39024
1.39599
1.39683
1.37445
1.27811
1.15484
1.07188
1.02437
1.01184
1.00599
1.00592
1.0073
1.00963
1.01299
1.01648
1.01944
1.0225
1.02512
1.02742
1.02972
1.0317
1.03352
1.0352
1.03669
1.03788
1.03886
1.0395
1.04009
1.04048
1.04081
1.0407
1.04016
1.03945
1.03814
1.03779
1.04129
1.06536
1.15985
1.45009
1.81883
1.97965
2.01001
2.001
1.96368
1.88052
1.7483
1.58008
1.39075
1.23987
1.18723
1.11887
1.14027
1.17551
1.27907
1.3578
1.38384
1.40024
1.39881
1.36909
1.25516
1.14305
1.07196
1.02781
1.01587
1.00888
1.00805
1.00988
1.01271
1.01594
1.01933
1.02185
1.02511
1.02737
1.0297
1.03204
1.03398
1.03579
1.03723
1.03841
1.03944
1.04018
1.04079
1.04127
1.04162
1.04141
1.04046
1.03897
1.0384
1.04165
1.06883
1.18188
1.53656
1.87859
2.00541
2.01942
2.00254
1.94566
1.83638
1.68144
1.49964
1.3058
1.18774
1.15501
1.15165
1.13837
1.14231
1.14042
1.20445
1.29914
1.35833
1.3918
1.40162
1.39721
1.34101
1.21817
1.12586
1.06523
1.03154
1.01675
1.01152
1.01098
1.01255
1.01518
1.019
1.02143
1.02485
1.02742
1.02978
1.03217
1.03437
1.03613
1.03778
1.03908
1.04026
1.04115
1.04198
1.04264
1.04282
1.04186
1.04023
1.03902
1.04189
1.07106
1.20686
1.60396
1.92563
2.01946
2.02508
1.99988
1.92627
1.80089
1.63263
1.44159
1.24372
1.15138
1.13092
1.13973
1.14737
1.16239
1.14988
1.15504
1.18669
1.26678
1.3433
1.38538
1.40272
1.40781
1.37535
1.27489
1.15235
1.07913
1.0415
1.02229
1.01504
1.01168
1.01354
1.0146
1.01841
1.02093
1.02431
1.02722
1.02977
1.03221
1.03466
1.03653
1.03838
1.03998
1.04156
1.0432
1.04469
1.04522
1.04393
1.0415
1.03959
1.04229
1.07482
1.23111
1.65322
1.9517
2.0278
2.02778
1.99592
1.91261
1.7799
1.60373
1.40115
1.21228
1.13989
1.11578
1.12432
1.13687
1.14323
1.15683
1.15131
1.16368
1.18823
1.27329
1.34541
1.38544
1.40562
1.40663
1.40634
1.32598
1.20024
1.10477
1.05082
1.02584
1.01576
1.0117
1.01256
1.01421
1.01758
1.02041
1.02375
1.02683
1.02964
1.03224
1.03486
1.03699
1.03932
1.04191
1.04529
1.04882
1.05087
1.04759
1.04294
1.04037
1.043
1.07851
1.25007
1.68972
1.97006
2.03357
2.03087
1.99516
1.90859
1.77366
1.59388
1.38289
1.19623
1.10135
1.0921
1.1038
1.11681
1.1166
1.11263
1.16813
1.1739
1.17538
1.23925
1.30324
1.36687
1.40152
1.42023
1.43077
1.4238
1.36208
1.24258
1.14145
1.07427
1.03524
1.01941
1.01261
1.01288
1.01357
1.01675
1.01978
1.02306
1.02631
1.02948
1.03212
1.03531
1.03827
1.04233
1.04853
1.05703
1.06169
1.05518
1.0455
1.04127
1.04368
1.0803
1.25974
1.70826
1.98085
2.03833
2.03456
1.99855
1.9135
1.78137
1.60348
1.39255
1.19204
1.0834
1.09031
1.08601
1.08723
1.08161
1.07174
1.05985
1.30052
1.29183
1.31076
1.34262
1.38952
1.42635
1.44633
1.45732
1.45535
1.43051
1.35469
1.2413
1.14979
1.08731
1.04749
1.02631
1.01598
1.01332
1.01395
1.01585
1.01929
1.02234
1.02601
1.02931
1.03309
1.03706
1.04301
1.05358
1.07305
1.08737
1.08472
1.05587
1.04426
1.04575
1.08167
1.25587
1.70676
1.98338
2.04184
2.03877
2.00559
1.92666
1.80256
1.63306
1.42765
1.22509
1.08238
1.06867
1.05351
1.06028
1.05136
1.04153
1.03066
1.02775
1.39075
1.39685
1.40966
1.42666
1.44399
1.45651
1.46482
1.46362
1.45774
1.41222
1.33201
1.2302
1.14386
1.08433
1.04755
1.02788
1.01752
1.01396
1.01283
1.01597
1.01853
1.02282
1.02563
1.03128
1.0347
1.04501
1.06385
1.10109
1.15978
1.18095
1.09484
1.0524
1.04913
1.08198
1.24226
1.68397
1.97638
2.04361
2.04295
2.01556
1.94627
1.83474
1.67966
1.48582
1.28148
1.12976
1.06593
1.04932
1.03876
1.02744
1.02399
1.01339
1.01016
1.00505
1.27752
1.32779
1.36925
1.39896
1.42127
1.43502
1.44299
1.44097
1.41829
1.38122
1.28672
1.19856
1.12599
1.07548
1.04333
1.02586
1.01666
1.0134
1.01442
1.01494
1.02065
1.02205
1.03037
1.03356
1.05261
1.08255
1.14566
1.25308
1.29958
1.23143
1.07946
1.05604
1.07865
1.21834
1.64461
1.95966
2.04317
2.04666
2.02679
1.96988
1.87443
1.73863
1.56147
1.36521
1.18744
1.0731
1.04901
1.04421
1.02361
1.01448
1.0089
1.00378
0.996504
0.993748
1.24909
1.2426
1.2553
1.27404
1.29099
1.3071
1.31716
1.31398
1.29272
1.24207
1.18875
1.13777
1.09158
1.05825
1.03605
1.02281
1.01593
1.01384
1.01271
1.02043
1.01869
1.03494
1.03523
1.06877
1.11179
1.22099
1.3538
1.41848
1.41955
1.17764
1.07268
1.07547
1.18488
1.58051
1.92991
2.04017
2.04942
2.03749
1.99476
1.9177
1.80485
1.65019
1.46569
1.28154
1.12638
1.07192
1.0388
1.03492
1.02223
1.00767
1.00455
0.997014
0.993093
0.987975
1.57236
1.44085
1.35782
1.30743
1.28332
1.27412
1.25904
1.23893
1.2137
1.18181
1.1467
1.10946
1.07647
1.05121
1.03314
1.02241
1.01676
1.01526
1.02539
1.01776
1.05058
1.0456
1.10412
1.17281
1.3063
1.43539
1.52987
1.55503
1.35668
1.11987
1.082
1.15166
1.4831
1.88207
2.03044
2.05123
2.04578
2.01774
1.96059
1.87459
1.75189
1.5924
1.41498
1.245
1.11715
1.04493
1.0441
1.02839
1.018
1.00825
0.999079
0.995786
0.990622
0.986329
1.55049
1.56975
1.52009
1.46908
1.40823
1.36644
1.31964
1.27696
1.23778
1.2019
1.16096
1.12197
1.08891
1.06733
1.05462
1.04545
1.04502
1.0522
1.05261
1.08986
1.11276
1.19789
1.27398
1.39717
1.51571
1.62039
1.66176
1.53798
1.25505
1.10703
1.12461
1.36107
1.8277
2.00352
2.05286
2.05083
2.03621
1.99836
1.93857
1.84958
1.72337
1.56429
1.3909
1.22777
1.11744
1.04391
1.04999
1.02727
1.02033
1.0047
1.00211
0.995544
0.99041
0.986017
1.07886
1.24414
1.35983
1.40834
1.41113
1.40554
1.39042
1.37583
1.35373
1.32526
1.2924
1.25382
1.21791
1.19004
1.17401
1.17065
1.17434
1.18658
1.22045
1.25482
1.31218
1.39138
1.49414
1.57729
1.68496
1.72863
1.64415
1.38939
1.15539
1.12011
1.24806
1.77123
1.93932
2.05338
2.05104
2.04731
2.02487
1.98724
1.9325
1.85426
1.74365
1.60719
1.45171
1.29783
1.16959
1.1019
1.04912
1.06145
1.02783
1.02734
1.01069
1.00507
0.997187
0.991638
0.975341
0.988671
1.04886
1.13471
1.22852
1.30382
1.34559
1.36411
1.37
1.37484
1.37291
1.36343
1.34926
1.33863
1.33387
1.3361
1.34431
1.36156
1.39241
1.4334
1.49127
1.57785
1.62738
1.72863
1.76935
1.71973
1.56861
1.32125
1.14987
1.21579
1.60349
1.89094
2.04787
2.04749
2.05058
2.04061
2.01927
1.9887
1.94736
1.88556
1.80024
1.69028
1.55828
1.41993
1.29318
1.19605
1.13705
1.11189
1.09041
1.08704
1.04
1.04263
1.02287
1.02044
1.02836
1.02604
1.03121
1.05931
1.09822
1.14608
1.20352
1.26192
1.31356
1.34952
1.36761
1.37724
1.38709
1.3978
1.41201
1.42966
1.45113
1.47843
1.51455
1.56287
1.6185
1.65941
1.75639
1.79037
1.7682
1.67346
1.48705
1.18431
1.20072
1.38989
1.93134
1.97941
2.05214
2.04884
2.04735
2.03774
2.02414
2.00789
1.98511
1.95076
1.90613
1.84621
1.76776
1.67156
1.56068
1.44983
1.3563
1.28558
1.24114
1.19812
1.1895
1.15679
1.13565
1.10656
1.13328
1.13907
1.13402
1.12965
1.13144
1.14903
1.17519
1.20103
1.23055
1.26855
1.3143
1.3522
1.37639
1.39777
1.42271
1.45328
1.48448
1.51994
1.56556
1.60759
1.66368
1.75933
1.78743
1.78378
1.7185
1.57845
1.22509
1.17935
1.24696
1.90429
1.93834
2.03611
2.04822
2.04519
2.0413
2.03294
2.0235
2.01271
1.99806
1.9803
1.95957
1.93323
1.90305
1.86665
1.8268
1.78219
1.73251
1.68189
1.63025
1.58249
1.53235
1.49439
1.46051
1.4303
1.2219
1.24941
1.25689
1.25121
1.23953
1.2186
1.2096
1.21011
1.21979
1.23822
1.25703
1.28331
1.31606
1.35403
1.39326
1.4358
1.47075
1.52428
1.56973
1.65926
1.74728
1.77432
1.77643
1.7569
1.71767
1.2865
1.22997
1.25817
1.80455
1.85036
2.057
2.03145
2.04468
2.03886
2.03392
2.02752
2.02107
2.0136
2.00521
1.99559
1.9854
1.97558
1.96219
1.95359
1.93772
1.92832
1.91365
1.90221
1.8877
1.87428
1.8597
1.84465
1.82844
1.81147
1.25818
1.28442
1.29285
1.29068
1.28095
1.26931
1.24659
1.23051
1.21405
1.20508
1.20848
1.22327
1.25068
1.28181
1.33066
1.38282
1.46087
1.5191
1.64464
1.71005
1.76636
1.77822
1.7846
1.75901
1.30349
1.25488
1.27147
1.58485
1.93964
1.9488
2.04033
2.03228
2.03612
2.03053
2.02576
2.01975
2.01416
2.00781
2.00109
1.99447
1.98783
1.98127
1.97487
1.96918
1.96376
1.95935
1.95408
1.95084
1.94678
1.94334
1.94037
1.93715
1.93434
1.93089
1.2673
1.29211
1.3011
1.29249
1.28979
1.27123
1.25119
1.22703
1.2022
1.18732
1.19231
1.20262
1.22152
1.2616
1.30498
1.40986
1.44003
1.63182
1.66684
1.73909
1.74184
1.73061
1.61565
1.38288
1.2675
1.28963
1.54283
1.86486
1.95377
2.01724
2.02604
2.03206
2.02622
2.02165
2.0162
2.01065
2.00476
1.99833
1.99213
1.98556
1.97912
1.97305
1.96737
1.96212
1.9576
1.95366
1.95069
1.94814
1.94644
1.94491
1.94414
1.94362
1.943
1.9426
1.24023
1.29271
1.29357
1.29913
1.29139
1.27431
1.26052
1.23208
1.21072
1.19608
1.20399
1.20638
1.24369
1.24592
1.40636
1.436
1.57561
1.64234
1.69682
1.70475
1.71716
1.59304
1.399
1.29767
1.30835
1.52667
1.76315
1.97423
1.97426
2.01578
2.02817
2.02152
2.01685
2.01121
2.00544
1.99955
1.99341
1.98709
1.98055
1.97368
1.96696
1.96068
1.95466
1.94939
1.94477
1.94094
1.93822
1.93624
1.93525
1.93566
1.93528
1.93595
1.93669
1.93722
1.1883
1.23939
1.28915
1.29201
1.30089
1.29428
1.29292
1.28007
1.2726
1.27294
1.28289
1.31935
1.33068
1.48573
1.46067
1.56135
1.60632
1.64629
1.65347
1.71886
1.47459
1.33887
1.34103
1.34034
1.45135
1.7334
1.96387
1.96556
2.0131
2.0133
2.0189
2.01143
2.0073
2.00067
1.9952
1.98841
1.98185
1.97508
1.96784
1.96065
1.95372
1.94693
1.94072
1.9351
1.93033
1.9271
1.9238
1.9238
1.92284
1.9238
1.92564
1.92725
1.92878
1.9306
1.11835
1.17572
1.23034
1.27121
1.29832
1.30466
1.30749
1.32457
1.33051
1.35418
1.37706
1.38979
1.4551
1.465
1.53007
1.54763
1.58221
1.55348
1.53722
1.33802
1.33897
1.30586
1.32092
1.50509
1.87664
1.86963
1.99157
1.99431
2.00591
2.01498
2.00749
2.00359
1.99662
1.99081
1.984
1.97714
1.97018
1.96247
1.95475
1.94693
1.9394
1.93229
1.9257
1.91967
1.91477
1.91108
1.90933
1.90898
1.90987
1.91147
1.91397
1.91881
1.92006
1.92365
1.07152
1.09437
1.1491
1.16722
1.23311
1.2349
1.26692
1.34239
1.2976
1.38515
1.35408
1.41994
1.42374
1.45081
1.4495
1.43325
1.38348
1.34412
1.3127
1.29291
1.31457
1.33845
1.69746
1.75092
1.94927
1.94086
2.00294
2.00112
2.00576
2.00557
1.99808
1.99329
1.98703
1.98054
1.9736
1.96587
1.95761
1.94931
1.94056
1.9322
1.92401
1.91606
1.90843
1.90178
1.89694
1.89264
1.8918
1.89176
1.89312
1.89736
1.90237
1.90777
1.91256
1.91583
1.07128
1.08028
1.08867
1.10814
1.1263
1.14431
1.20311
1.19082
1.25928
1.23932
1.28877
1.28388
1.28636
1.28497
1.29186
1.28222
1.28601
1.30363
1.32596
1.38242
1.46718
1.71323
1.86883
1.8782
1.97375
1.97045
2.00387
1.99991
2.00199
1.9964
1.99108
1.98613
1.9777
1.97054
1.96172
1.95308
1.94406
1.9349
1.92576
1.91629
1.9066
1.89719
1.88789
1.88078
1.87423
1.87123
1.86954
1.87069
1.87306
1.87918
1.88562
1.89467
1.90073
1.90544
1.12244
1.12028
1.11585
1.11854
1.12732
1.14063
1.15212
1.16506
1.17786
1.19756
1.20431
1.22146
1.23476
1.24989
1.26904
1.28729
1.31316
1.36118
1.441
1.56777
1.83802
1.81213
1.92842
1.9306
1.97549
2.00376
1.99595
1.9995
1.99375
1.98925
1.98231
1.97567
1.96733
1.95914
1.95083
1.94154
1.93179
1.92132
1.90953
1.89775
1.8862
1.87443
1.86459
1.85352
1.84894
1.8399
1.84263
1.83935
1.84687
1.85129
1.86433
1.87411
1.88762
1.89197
1.34993
1.30697
1.27199
1.23239
1.2141
1.20099
1.20799
1.20558
1.2128
1.22429
1.23842
1.25769
1.27843
1.30838
1.35074
1.41602
1.50994
1.61547
1.7397
1.82053
1.90346
1.89667
1.95003
1.99365
1.99422
2.00058
1.99654
1.99418
1.98826
1.98248
1.97561
1.96806
1.95952
1.95117
1.94057
1.92931
1.91683
1.90375
1.89003
1.87631
1.8628
1.85044
1.83412
1.81699
1.80422
1.80351
1.79446
1.80062
1.80246
1.81582
1.82724
1.84601
1.8641
1.87426
1.61678
1.59434
1.55667
1.52828
1.495
1.46863
1.44496
1.42032
1.42735
1.42665
1.44264
1.47001
1.51158
1.56139
1.62907
1.69719
1.75339
1.86921
1.85289
1.93906
1.93401
1.98269
1.9827
2.00085
1.99716
1.99838
1.99263
1.98942
1.9821
1.97676
1.96844
1.96017
1.95044
1.94
1.92805
1.91557
1.90183
1.88719
1.87224
1.85596
1.83545
1.80779
1.7971
1.78019
1.77475
1.77024
1.77365
1.77837
1.79385
1.79682
1.81748
1.82074
1.84358
1.84897
1.80253
1.78584
1.77102
1.75119
1.73652
1.71849
1.71047
1.69787
1.70056
1.7011
1.71776
1.73498
1.76439
1.79919
1.84243
1.85751
1.92449
1.92278
1.96065
1.96774
1.98542
1.99426
2.00076
1.99934
1.99873
1.9943
1.98947
1.98373
1.97705
1.97006
1.96129
1.95192
1.94129
1.92955
1.91714
1.90211
1.88654
1.8691
1.85045
1.82606
1.80601
1.78857
1.77511
1.76541
1.76432
1.77055
1.78455
1.79972
1.81424
1.83161
1.84527
1.85937
1.85804
1.83869
1.90218
1.89736
1.88886
1.88324
1.87522
1.8685
1.86594
1.8645
1.86348
1.87124
1.87416
1.89239
1.90088
1.92093
1.94381
1.94398
1.97182
1.97057
1.99053
1.99044
2.00122
2.00002
2.0019
1.9985
1.99641
1.99099
1.98589
1.97944
1.97214
1.96457
1.95511
1.94496
1.93339
1.92047
1.90555
1.88981
1.87252
1.85417
1.82851
1.80716
1.78935
1.77287
1.76211
1.75937
1.76904
1.77861
1.78805
1.79841
1.8106
1.82687
1.84648
1.86733
1.88833
1.90208
1.95333
1.95116
1.9492
1.94693
1.94512
1.94369
1.9426
1.9426
1.9451
1.94632
1.95274
1.958
1.96342
1.97539
1.97629
1.98771
1.99033
1.99643
2.0001
2.0017
2.00382
2.00183
2.00123
1.99733
1.99402
1.98831
1.98301
1.97601
1.96832
1.95998
1.95008
1.93876
1.92624
1.91232
1.89671
1.88001
1.86135
1.83555
1.81547
1.79466
1.77622
1.7635
1.75783
1.76202
1.7686
1.77074
1.77366
1.77584
1.78777
1.80525
1.82836
1.85107
1.86871
1.87458
1.98046
1.97974
1.97895
1.97872
1.97712
1.97715
1.977
1.97788
1.97804
1.98152
1.98242
1.98695
1.98874
1.99344
1.99489
1.9996
2.00091
2.00388
2.00423
2.00502
2.00394
2.0022
1.99996
1.99598
1.99189
1.98655
1.98065
1.97346
1.96517
1.95661
1.94569
1.93428
1.92105
1.90615
1.89012
1.87108
1.84796
1.82836
1.80461
1.78504
1.76871
1.75788
1.75836
1.75954
1.75766
1.75232
1.74223
1.74639
1.75897
1.78
1.80963
1.83691
1.85601
1.86506
1.99682
1.99478
1.99435
1.993
1.99277
1.99219
1.99229
1.99225
1.99293
1.99462
1.99525
1.99738
1.99882
2.00078
2.0023
2.00403
2.00513
2.0058
2.00576
2.00517
2.00365
2.00157
1.99862
1.9947
1.99044
1.98513
1.97891
1.97122
1.9629
1.95335
1.94288
1.93046
1.91656
1.90102
1.88327
1.86362
1.8419
1.82069
1.7981
1.77933
1.76436
1.75861
1.75665
1.75046
1.74167
1.72064
1.71293
1.7194
1.73368
1.76034
1.79167
1.8234
1.84631
1.86479
1.05564
1.05595
1.05618
1.05623
1.05618
1.05595
1.05559
1.05509
1.0544
1.05362
1.05262
1.05156
1.0503
1.04893
1.04746
1.04577
1.04437
1.04181
1.04118
1.03802
1.0545
1.05481
1.05499
1.05502
1.05493
1.05465
1.05429
1.05373
1.05305
1.05222
1.05126
1.05013
1.04892
1.04752
1.04605
1.04442
1.04285
1.04092
1.03926
1.03746
1.05319
1.05347
1.05362
1.05362
1.05348
1.0532
1.05276
1.0522
1.05148
1.05062
1.04964
1.04852
1.04725
1.0459
1.04438
1.04279
1.04116
1.03933
1.03783
1.03536
1.05177
1.05198
1.05209
1.05206
1.05191
1.05152
1.05111
1.05046
1.04976
1.04885
1.04785
1.04671
1.0455
1.04407
1.04272
1.04097
1.03951
1.03754
1.03601
1.0342
1.05025
1.05041
1.05045
1.05039
1.05014
1.0498
1.04926
1.04862
1.04784
1.04692
1.04594
1.04473
1.04353
1.04212
1.04071
1.03911
1.03757
1.0358
1.03421
1.03227
1.0486
1.04868
1.04866
1.04846
1.04822
1.04784
1.04722
1.04668
1.04554
1.04499
1.04358
1.04262
1.04136
1.03994
1.03852
1.037
1.03539
1.03384
1.03198
1.0308
1.04681
1.0468
1.04666
1.0464
1.04604
1.04563
1.04506
1.04429
1.04351
1.04236
1.04145
1.04014
1.03885
1.03755
1.03612
1.03454
1.0331
1.03152
1.02994
1.02845
1.04479
1.04475
1.04455
1.0442
1.04385
1.04331
1.04264
1.0419
1.04087
1.04003
1.03874
1.03769
1.03614
1.03514
1.0329
1.03209
1.02993
1.02873
1.0274
1.02535
1.04279
1.04265
1.04237
1.04205
1.04185
1.04095
1.04095
1.03962
1.03977
1.03841
1.03747
1.03614
1.03514
1.03302
1.03225
1.02972
1.02827
1.02655
1.02411
1.02326
1.04095
1.04097
1.04066
1.04148
1.04048
1.04224
1.04073
1.04315
1.04151
1.0416
1.04133
1.04074
1.03984
1.03846
1.03556
1.03421
1.03156
1.0263
1.02465
1.02061
1.0394
1.04178
1.04099
1.04566
1.04456
1.0518
1.04942
1.06128
1.05877
1.06471
1.07025
1.07258
1.07624
1.07465
1.07301
1.06728
1.04885
1.06074
1.03158
1.04277
1.04062
1.05067
1.04902
1.06779
1.06642
1.087
1.10902
1.12117
1.15813
1.17418
1.19694
1.22085
1.23061
1.25146
1.24143
1.22833
1.23494
1.1297
1.20131
1.04622
1.06951
1.06541
1.10179
1.13581
1.18301
1.23596
1.31176
1.38901
1.466
1.53902
1.59839
1.65141
1.67701
1.70425
1.7003
1.69675
1.64135
1.67945
1.50684
1.60491
1.15092
1.14523
1.32337
1.42833
1.55018
1.66262
1.75079
1.81631
1.86297
1.89447
1.91694
1.93029
1.93546
1.93817
1.93271
1.92934
1.90182
1.90193
1.83347
1.83228
1.37278
1.65186
1.73671
1.81633
1.88158
1.92402
1.94914
1.9642
1.97149
1.97484
1.97579
1.97549
1.97313
1.97018
1.96665
1.96351
1.95634
1.95472
1.93129
1.93593
1.86729
1.86988
1.93048
1.95522
1.96957
1.97154
1.97184
1.97108
1.96759
1.96344
1.96018
1.95595
1.95205
1.94894
1.94527
1.94171
1.93802
1.9321
1.93194
1.91922
1.94368
1.96411
1.96642
1.96317
1.95956
1.94696
1.94011
1.92645
1.91142
1.90479
1.8924
1.88837
1.88053
1.8764
1.8771
1.87567
1.87014
1.8685
1.86655
1.87794
1.96557
1.95573
1.93645
1.91154
1.89211
1.83866
1.83053
1.78018
1.77725
1.74737
1.73751
1.73321
1.73234
1.73159
1.73291
1.73403
1.72908
1.72974
1.73852
1.7441
1.93222
1.89224
1.813
1.78451
1.66539
1.65859
1.57152
1.53947
1.50926
1.49078
1.48947
1.49353
1.50744
1.52309
1.53882
1.54151
1.54907
1.55861
1.56382
1.58964
1.79017
1.67227
1.58626
1.45391
1.39144
1.31919
1.28721
1.26269
1.2483
1.23782
1.23551
1.24118
1.25215
1.27535
1.27815
1.31309
1.31441
1.35871
1.36004
1.42527
1.50399
1.37494
1.2765
1.23508
1.21256
1.19847
1.18882
1.18017
1.17216
1.164
1.15503
1.14915
1.14228
1.13895
1.1421
1.14524
1.16505
1.16818
1.20209
1.22851
1.24224
1.2028
1.18676
1.18251
1.18014
1.17637
1.17259
1.16671
1.15955
1.15106
1.14054
1.12759
1.11579
1.10335
1.09775
1.09919
1.10198
1.11443
1.13511
1.20283
1.16942
1.16918
1.17279
1.1772
1.18232
1.18606
1.19164
1.19038
1.18289
1.17217
1.15431
1.12976
1.10842
1.09321
1.08749
1.08881
1.09506
1.10946
1.15448
1.21828
1.15842
1.16826
1.18099
1.19197
1.20673
1.22341
1.23791
1.2466
1.24264
1.23093
1.20748
1.17112
1.14331
1.12319
1.11913
1.12864
1.15633
1.19757
1.23919
1.27923
1.15922
1.17008
1.18081
1.19543
1.2196
1.24496
1.26768
1.29005
1.30587
1.30347
1.29328
1.2774
1.27398
1.27922
1.27502
1.27412
1.28138
1.28729
1.29101
1.30008
1.14986
1.15454
1.16725
1.20033
1.24917
1.29929
1.34415
1.36448
1.37383
1.36947
1.36234
1.35152
1.33687
1.31683
1.31348
1.3025
1.28992
1.2896
1.2924
1.30395
1.10635
1.11298
1.15013
1.21547
1.28851
1.35091
1.38326
1.4003
1.39469
1.39191
1.38345
1.36815
1.34494
1.31705
1.29727
1.29131
1.29049
1.2945
1.30537
1.32737
1.06029
1.08758
1.14734
1.22564
1.30384
1.3645
1.39697
1.40197
1.40204
1.39799
1.39126
1.37701
1.34979
1.32888
1.31605
1.31931
1.32271
1.34405
1.37771
1.42692
1.03831
1.06931
1.12608
1.20216
1.2825
1.3441
1.36995
1.39113
1.38909
1.39853
1.39589
1.39641
1.39445
1.39409
1.39606
1.40193
1.41638
1.43479
1.45205
1.47759
1.00745
1.01865
1.04596
1.09543
1.15856
1.22451
1.27776
1.31324
1.33778
1.37107
1.36755
1.39474
1.39479
1.40664
1.41347
1.4219
1.43085
1.44037
1.44754
1.44679
0.991831
0.994753
1.00056
1.00412
1.02753
1.06573
1.11685
1.17893
1.18486
1.25241
1.25067
1.2951
1.3219
1.32605
1.34502
1.35069
1.35029
1.33866
1.31477
1.26972
0.98475
0.982565
0.981775
0.987215
0.988668
0.989888
0.994035
1.00365
1.0416
1.00994
1.08012
1.05783
1.10805
1.10277
1.118
1.12383
1.11646
1.1021
1.08103
1.06279
0.982608
0.979878
0.978498
0.974717
0.975195
0.975527
0.976019
0.977485
0.968849
0.993543
0.9757
0.999
0.988681
1.0018
1.00331
1.0066
1.00484
1.00541
1.00493
0.997739
0.982141
0.979139
0.976477
0.974275
0.972108
0.971191
0.968675
0.967564
0.968258
0.966644
0.969957
0.969486
0.97205
0.974182
0.977196
0.979342
0.982617
0.98559
0.987154
0.990593
0.986449
0.982391
0.978493
0.975719
0.972597
0.971745
0.969367
0.968403
0.968121
0.967734
0.968441
0.969483
0.971053
0.972928
0.975471
0.97816
0.981128
0.984015
0.987477
0.991486
1.00989
1.0045
0.994128
0.991619
0.98268
0.981659
0.977614
0.97575
0.974793
0.972491
0.973619
0.973982
0.974818
0.977116
0.979512
0.982007
0.985348
0.988939
0.992877
0.997678
1.09901
1.08548
1.06676
1.05185
1.04106
1.02066
1.02803
1.01097
1.0101
1.00567
0.997018
1.00111
1.00003
0.995853
1.00299
1.00243
1.00749
1.01223
1.0202
1.03081
1.38913
1.36703
1.32267
1.29397
1.27693
1.24218
1.23692
1.20406
1.18498
1.16818
1.17086
1.15072
1.15366
1.15009
1.15537
1.1654
1.1838
1.20825
1.24395