/*--------------------------------*- C++ -*----------------------------------*\
  =========                 |
  \\      /  F ield         | OpenFOAM: The Open Source CFD Toolbox
   \\    /   O peration     | Website:  https://openfoam.org
    \\  /    A nd           | Version:  10
     \\/     M anipulation  |
\*---------------------------------------------------------------------------*/
FoamFile
{
    format      ascii;
    class       volScalarField;
    location    "0.996516";
    object      T;
}
// * * * * * * * * * * * * * * * * * * * * * * * * * * * * * * * * * * * * * //

dimensions      [0 0 0 1 0 0 0];

internalField   nonuniform List<scalar> 
15984
(
0.00859831
0.00859774
0.00861626
0.00861024
0.00862854
0.00863419
0.00864424
0.0086533
0.00866223
0.00867086
0.00867919
0.00868686
0.00869436
0.00870174
0.00870921
0.00871656
0.00872387
0.00873079
0.00873767
0.00874419
0.00875079
0.00875729
0.00876381
0.00877042
0.00877673
0.00878327
0.00878923
0.00879546
0.0088012
0.00880713
0.00881276
0.00881842
0.00882384
0.00882942
0.00883444
0.00883996
0.00884482
0.00884992
0.00885489
0.00885948
0.00886412
0.0088688
0.008873
0.00887723
0.00888134
0.00888512
0.00888887
0.00889221
0.00889545
0.00889843
0.00890096
0.00890335
0.00890526
0.00890691
0.00859351
0.00860699
0.00860588
0.00862564
0.00863289
0.00864145
0.00864951
0.008658
0.00866626
0.00867425
0.00868192
0.0086896
0.00869733
0.00870494
0.0087124
0.00871966
0.00872671
0.00873359
0.00874035
0.00874704
0.00875364
0.00876018
0.0087666
0.00877298
0.00877911
0.00878528
0.00879099
0.00879694
0.0088024
0.00880804
0.00881347
0.00881877
0.00882402
0.00882911
0.00883406
0.00883916
0.00884381
0.00884872
0.0088535
0.00885795
0.00886252
0.00886672
0.00887091
0.00887499
0.00887882
0.00888243
0.00888593
0.00888918
0.00889226
0.00889504
0.00889751
0.00889964
0.00890144
0.0089029
0.0086103
0.0086027
0.00862301
0.00862225
0.00863361
0.00864245
0.00865137
0.00866017
0.00866863
0.00867695
0.00868523
0.00869326
0.00870111
0.00870867
0.008716
0.0087231
0.00872996
0.00873673
0.00874347
0.00875016
0.00875675
0.00876326
0.00876947
0.00877563
0.00878154
0.00878739
0.00879296
0.00879859
0.00880389
0.00880936
0.00881451
0.00881955
0.00882465
0.00882925
0.00883427
0.00883884
0.00884346
0.00884807
0.00885273
0.00885697
0.00886118
0.00886532
0.00886932
0.00887329
0.00887675
0.00888032
0.00888343
0.00888665
0.00888939
0.00889215
0.00889436
0.00889631
0.00889794
0.00889915
0.00860651
0.00860258
0.00862672
0.00862056
0.00863882
0.0086445
0.00865438
0.0086632
0.00867182
0.00868041
0.0086887
0.00869676
0.00870462
0.00871227
0.00871967
0.00872677
0.0087336
0.0087404
0.00874702
0.00875362
0.00875993
0.00876621
0.00877218
0.00877822
0.00878395
0.00878967
0.00879512
0.00880056
0.00880568
0.00881083
0.00881569
0.0088204
0.00882524
0.00882945
0.00883439
0.00883844
0.00884302
0.00884751
0.00885172
0.00885574
0.00885971
0.00886369
0.00886743
0.00887104
0.00887444
0.00887761
0.00888069
0.00888358
0.0088863
0.00888861
0.00889083
0.0088926
0.00889404
0.00889506
0.00860373
0.00861405
0.00862042
0.00863014
0.00863814
0.00864733
0.00865622
0.00866489
0.00867357
0.00868202
0.00869053
0.00869892
0.0087071
0.00871501
0.00872252
0.00872988
0.00873695
0.00874387
0.00875042
0.00875678
0.00876286
0.00876894
0.00877482
0.00878077
0.00878639
0.00879201
0.0087972
0.00880245
0.0088072
0.00881221
0.00881673
0.00882129
0.00882574
0.00882985
0.00883441
0.0088382
0.00884262
0.00884686
0.00885057
0.00885435
0.00885822
0.00886191
0.00886529
0.00886871
0.00887177
0.00887478
0.0088777
0.00888039
0.00888275
0.00888501
0.0088869
0.00888834
0.00888956
0.00889037
0.00859407
0.00861354
0.00861636
0.00862932
0.00863868
0.00864825
0.00865759
0.00866689
0.00867593
0.00868496
0.00869368
0.00870219
0.00871031
0.00871816
0.00872578
0.00873313
0.00874027
0.00874711
0.00875363
0.00875992
0.00876591
0.00877182
0.00877755
0.00878327
0.00878879
0.0087942
0.00879934
0.00880435
0.00880908
0.00881365
0.00881809
0.00882225
0.00882653
0.00883034
0.00883465
0.00883807
0.00884251
0.00884608
0.00884947
0.00885313
0.00885658
0.00886003
0.00886315
0.00886631
0.0088691
0.00887195
0.00887465
0.00887705
0.00887914
0.00888105
0.00888268
0.00888389
0.00888484
0.00888535
0.00861032
0.00860907
0.00862194
0.00863135
0.00864069
0.00864995
0.00865926
0.00866866
0.00867789
0.00868698
0.00869571
0.00870423
0.0087124
0.00872046
0.00872823
0.00873576
0.00874293
0.0087497
0.00875619
0.00876239
0.00876851
0.0087745
0.00878047
0.00878622
0.0087918
0.008797
0.00880199
0.00880656
0.00881114
0.00881517
0.0088196
0.00882319
0.00882739
0.00883094
0.00883476
0.00883811
0.00884213
0.00884514
0.00884849
0.00885185
0.00885505
0.00885826
0.00886115
0.0088639
0.00886659
0.00886895
0.00887144
0.00887353
0.00887533
0.00887701
0.0088784
0.00887931
0.00888
0.00888006
0.00861022
0.00860761
0.00862363
0.00863216
0.00864125
0.00865104
0.00866098
0.00867061
0.00868004
0.00868914
0.00869808
0.00870661
0.00871494
0.00872304
0.00873092
0.00873854
0.00874581
0.00875262
0.00875915
0.00876536
0.00877154
0.00877757
0.00878346
0.00878905
0.00879433
0.00879929
0.00880404
0.00880843
0.0088128
0.00881662
0.0088209
0.00882429
0.00882825
0.0088316
0.00883488
0.00883826
0.00884153
0.00884441
0.00884757
0.00885067
0.00885363
0.00885651
0.00885918
0.00886152
0.0088639
0.008866
0.00886815
0.00886984
0.00887148
0.00887264
0.00887372
0.0088746
0.00887489
0.00887463
0.00860549
0.00861419
0.00862259
0.00863195
0.00864193
0.008652
0.00866195
0.00867164
0.00868116
0.00869046
0.00869956
0.00870849
0.00871719
0.00872564
0.00873371
0.00874147
0.00874882
0.00875583
0.00876251
0.00876893
0.00877508
0.00878099
0.0087865
0.00879182
0.00879678
0.00880167
0.00880614
0.00881053
0.00881455
0.00881845
0.00882232
0.00882569
0.00882921
0.00883229
0.0088353
0.00883831
0.00884121
0.0088441
0.00884684
0.0088497
0.00885241
0.00885478
0.00885715
0.00885903
0.00886131
0.00886269
0.00886501
0.00886601
0.00886748
0.00886804
0.00886869
0.00886934
0.0088691
0.0088687
0.00859945
0.00861255
0.00862223
0.00863225
0.00864202
0.00865181
0.00866179
0.00867175
0.00868152
0.00869122
0.00870066
0.00870999
0.00871889
0.00872763
0.00873584
0.00874381
0.00875118
0.00875817
0.00876485
0.00877136
0.00877768
0.00878376
0.00878941
0.00879497
0.00880002
0.00880496
0.00880907
0.00881324
0.00881676
0.00882063
0.00882397
0.00882735
0.00883021
0.00883305
0.00883568
0.00883834
0.00884105
0.00884372
0.00884628
0.00884874
0.00885121
0.00885315
0.00885508
0.00885685
0.00885857
0.00885998
0.00886119
0.00886238
0.00886307
0.00886352
0.00886362
0.00886359
0.00886225
0.0088608
0.00859398
0.00861479
0.00861461
0.00863
0.00864027
0.00865048
0.00866103
0.00867166
0.0086821
0.00869222
0.00870194
0.00871147
0.00872051
0.00872939
0.00873785
0.008746
0.00875363
0.00876097
0.008768
0.00877461
0.00878079
0.00878671
0.00879246
0.00879809
0.0088031
0.00880759
0.00881138
0.00881528
0.00881896
0.0088227
0.00882596
0.00882881
0.00883111
0.00883377
0.00883597
0.00883852
0.00884123
0.00884348
0.00884592
0.00884806
0.00885005
0.00885156
0.00885324
0.00885463
0.00885619
0.00885701
0.00885814
0.00885878
0.00885919
0.00885911
0.00885833
0.00885711
0.0088546
0.00884521
0.00859124
0.00861321
0.00862425
0.008623
0.00864068
0.00865032
0.00865992
0.00867036
0.00868131
0.00869198
0.00870233
0.0087122
0.00872167
0.00873082
0.00873954
0.00874791
0.00875593
0.00876354
0.00877073
0.00877759
0.00878392
0.00878993
0.00879572
0.00880108
0.00880589
0.00881029
0.00881454
0.00881864
0.00882256
0.00882576
0.00882851
0.00883082
0.00883247
0.00883521
0.00883678
0.00883934
0.00884168
0.00884364
0.0088458
0.00884743
0.00884899
0.00885015
0.00885138
0.00885287
0.00885388
0.00885467
0.00885519
0.00885561
0.00885513
0.00885378
0.00885245
0.00884396
0.00884189
0.00880694
0.00859935
0.0086026
0.00861609
0.00862723
0.00863789
0.00864876
0.00865966
0.00867051
0.00868135
0.00869205
0.00870258
0.00871272
0.00872263
0.00873195
0.00874096
0.00874949
0.0087576
0.00876544
0.00877285
0.00877978
0.00878648
0.00879294
0.00879877
0.00880419
0.00880902
0.00881345
0.00881731
0.00882105
0.00882432
0.00882757
0.00882994
0.00883263
0.00883408
0.00883689
0.00883831
0.00884037
0.00884246
0.00884403
0.00884565
0.00884701
0.00884809
0.00884939
0.00885006
0.00885131
0.0088517
0.00885229
0.00885201
0.00885115
0.00885019
0.00884319
0.00884285
0.00881271
0.00876646
0.00874736
0.00859823
0.00859877
0.00861443
0.00862407
0.0086351
0.00864635
0.00865783
0.00866925
0.00868054
0.00869156
0.00870243
0.00871277
0.00872289
0.00873243
0.00874162
0.00875043
0.00875896
0.0087671
0.00877495
0.00878224
0.00878903
0.00879557
0.00880155
0.00880693
0.00881183
0.0088165
0.00882073
0.00882424
0.00882726
0.00882956
0.00883211
0.00883391
0.00883617
0.00883814
0.00883975
0.00884153
0.00884345
0.0088448
0.0088461
0.00884727
0.00884784
0.00884901
0.00884929
0.00885024
0.00885026
0.00885032
0.00884888
0.00884692
0.0088339
0.00883109
0.00877166
0.00877453
0.00856889
0.00857962
0.00857605
0.00860095
0.00860153
0.00862115
0.00863243
0.0086441
0.00865584
0.00866786
0.00867952
0.008691
0.00870212
0.00871282
0.00872327
0.00873311
0.00874278
0.0087518
0.00876054
0.008769
0.00877695
0.00878442
0.00879155
0.00879817
0.00880413
0.00880972
0.00881481
0.0088195
0.00882328
0.00882672
0.00882936
0.00883243
0.00883425
0.00883656
0.00883747
0.00883946
0.00884057
0.00884272
0.00884406
0.00884581
0.00884679
0.00884736
0.00884797
0.00884873
0.00884894
0.00884949
0.00884905
0.00884812
0.00884246
0.00883947
0.0087971
0.008797
0.00861109
0.00856425
0.00801848
0.00740591
0.00857077
0.00856029
0.00859845
0.00859773
0.00862131
0.0086363
0.00865106
0.00866468
0.00867734
0.0086896
0.008701
0.00871206
0.00872294
0.00873328
0.00874336
0.00875292
0.00876201
0.00877055
0.00877864
0.00878641
0.00879369
0.00880049
0.00880657
0.00881247
0.00881759
0.00882203
0.00882541
0.00882906
0.00883178
0.00883509
0.00883658
0.00883886
0.00883973
0.00884158
0.00884293
0.00884435
0.00884603
0.00884677
0.0088473
0.00884785
0.00884833
0.00884904
0.00884906
0.00884953
0.0088477
0.00884605
0.00882517
0.00881919
0.00868004
0.00867169
0.00810247
0.00719269
0.00714327
0.00502754
0.00838143
0.00849198
0.00849118
0.00855981
0.00858637
0.00861469
0.00863217
0.00865834
0.0086692
0.00868704
0.00869847
0.00870951
0.00872125
0.00873192
0.00874248
0.00875279
0.00876269
0.00877192
0.00878028
0.00878838
0.00879598
0.00880287
0.00880905
0.00881504
0.00882026
0.00882493
0.00882859
0.00883222
0.00883477
0.00883751
0.00883896
0.00884061
0.00884178
0.00884324
0.00884482
0.00884629
0.00884705
0.00884815
0.00884851
0.00884892
0.00884959
0.00885027
0.00885013
0.0088494
0.00884218
0.00883643
0.00876846
0.00872789
0.00833662
0.0080101
0.00639786
0.00574509
0.00486913
0.00488833
0.0080311
0.00814523
0.00829501
0.00837041
0.00845872
0.00850777
0.008594
0.0085895
0.00867583
0.00864697
0.00870214
0.00871028
0.00872286
0.00873367
0.00874305
0.00875301
0.00876298
0.00877226
0.00878141
0.00878938
0.0087975
0.00880486
0.00881148
0.00881775
0.00882286
0.00882757
0.00883131
0.00883517
0.0088377
0.00884038
0.00884168
0.00884311
0.00884409
0.00884515
0.00884655
0.00884734
0.00884863
0.00884987
0.00885036
0.00885111
0.00885174
0.00885234
0.00885049
0.0088481
0.00882026
0.0087882
0.00856463
0.00829166
0.00724612
0.00572819
0.00516062
0.0046905
0.00465164
0.00453347
0.00667458
0.0070028
0.00740646
0.00780868
0.00810704
0.00830721
0.00840991
0.00856407
0.00853355
0.008682
0.00863998
0.0087172
0.00870515
0.00873933
0.00874736
0.00875749
0.00876332
0.00877406
0.00878143
0.00879183
0.0087981
0.0088057
0.00881277
0.00881929
0.00882474
0.00882957
0.00883349
0.00883696
0.00883951
0.00884207
0.00884366
0.00884538
0.00884616
0.0088474
0.00884901
0.00885
0.00885223
0.00885287
0.00885318
0.00885378
0.00885485
0.00885373
0.00884611
0.00883082
0.00872188
0.00854402
0.00787742
0.00662761
0.00543476
0.00482571
0.00458157
0.00454211
0.00452355
0.00454214
0.0057526
0.00601092
0.00613968
0.00643639
0.00698028
0.00756318
0.00804411
0.00826767
0.00849656
0.00852807
0.00864969
0.0086485
0.00871984
0.00871395
0.00874823
0.00874793
0.00877231
0.00877116
0.00878916
0.0087892
0.00880366
0.00881051
0.00881684
0.00882293
0.00882823
0.00883268
0.00883625
0.00883933
0.00884162
0.00884384
0.00884518
0.00884704
0.00884817
0.0088501
0.00885146
0.00885311
0.00885482
0.00885588
0.00885675
0.00885921
0.00885825
0.00885224
0.00882268
0.00870581
0.00838128
0.00755802
0.00605414
0.00504491
0.00464499
0.00454905
0.00453189
0.00454092
0.00459215
0.00471645
0.00569241
0.00575708
0.00574644
0.00590345
0.00586431
0.00648654
0.00692114
0.00774639
0.0081201
0.00841701
0.00853748
0.00863652
0.00867317
0.0087113
0.00874026
0.00874422
0.00876897
0.00876919
0.00878889
0.00879297
0.00880188
0.00881058
0.00881849
0.00882529
0.00883089
0.00883547
0.00883917
0.00884236
0.00884458
0.00884643
0.00884777
0.00884956
0.0088507
0.008853
0.00885459
0.00885733
0.00886004
0.00886135
0.00886451
0.00886446
0.0088582
0.00882083
0.00867656
0.00822251
0.00713197
0.00554874
0.00482732
0.00457332
0.00452844
0.0045295
0.00457656
0.00470883
0.0049521
0.00532431
0.00608933
0.00589875
0.00582606
0.00583976
0.00586718
0.00587582
0.00622789
0.00661503
0.00746052
0.00800546
0.00837347
0.00849786
0.00864646
0.00865016
0.00873719
0.00874967
0.00876609
0.00877424
0.00878656
0.00879547
0.00880415
0.00881224
0.00881953
0.00882736
0.00883323
0.00883733
0.008841
0.00884398
0.00884656
0.00884829
0.00884995
0.00885201
0.00885427
0.00885679
0.00885896
0.00886246
0.00886553
0.00886858
0.00887092
0.00886504
0.00882513
0.00864191
0.00806755
0.00669193
0.00523481
0.00468302
0.0045296
0.00451388
0.00454323
0.00465205
0.00488802
0.00526867
0.00581306
0.00650968
0.00700981
0.00666929
0.0061174
0.00592701
0.00587719
0.0058979
0.00593992
0.00608221
0.00659243
0.0073503
0.00797331
0.00839672
0.00855223
0.00865225
0.00870199
0.0087376
0.00876249
0.00877587
0.00878558
0.00879711
0.00880491
0.00881368
0.00882247
0.00882853
0.00883459
0.00883941
0.00884291
0.00884549
0.00884834
0.00885068
0.00885391
0.00885588
0.00885785
0.00885876
0.00886149
0.00886605
0.00886984
0.00887637
0.00887205
0.00883241
0.00862106
0.00790425
0.00630481
0.00501494
0.00459314
0.00450717
0.00450973
0.0045763
0.00475768
0.00509419
0.00561041
0.0063449
0.0070735
0.00734958
0.00712326
0.00701926
0.00684236
0.00632195
0.00599501
0.00592533
0.00590229
0.00595661
0.00613484
0.00674211
0.00745892
0.00800667
0.00840322
0.00855316
0.00866354
0.0087198
0.00875087
0.00877085
0.00878473
0.00879436
0.0088087
0.00881368
0.00882446
0.00883174
0.00883606
0.00884093
0.00884429
0.00884797
0.00885139
0.00885356
0.00885586
0.00885736
0.00885848
0.00885897
0.0088624
0.00887003
0.00887989
0.00887915
0.00884304
0.00860715
0.00777044
0.00596091
0.00486369
0.00454149
0.00449366
0.00451401
0.00462673
0.00488075
0.00530656
0.00592323
0.00677238
0.00740651
0.00757647
0.00755668
0.00697647
0.00698112
0.00702043
0.0066986
0.00624733
0.00601625
0.00591675
0.00592435
0.00599267
0.00629586
0.0069776
0.00760621
0.00809237
0.0084094
0.00858322
0.00867788
0.00873086
0.00876345
0.00878427
0.00879205
0.00880899
0.00881444
0.00882422
0.00883273
0.00883804
0.00884197
0.00884672
0.00884948
0.00885229
0.00885342
0.00885444
0.00885376
0.00885285
0.00885462
0.00886438
0.00887741
0.00888415
0.00885308
0.00860222
0.00762119
0.0057194
0.00475303
0.00451778
0.00448925
0.0045285
0.00468236
0.00498697
0.00547703
0.00617676
0.00712893
0.00766399
0.00776376
0.00766264
0.00756735
0.00681404
0.00691721
0.00691889
0.00677512
0.00638982
0.00606594
0.00592644
0.00590096
0.00592971
0.00612043
0.00664957
0.00741424
0.00797209
0.00831342
0.00852227
0.00863462
0.00871319
0.00874484
0.00878088
0.00879058
0.00880852
0.00881603
0.00882456
0.00883308
0.0088395
0.0088426
0.00884748
0.00884924
0.00885004
0.00884791
0.00884241
0.00883581
0.00883551
0.00884939
0.00887139
0.00888638
0.00885905
0.00858329
0.00748198
0.00556278
0.00469809
0.00450738
0.00449165
0.00454617
0.00472504
0.00505606
0.00558808
0.0063707
0.00733501
0.00776609
0.00789584
0.007795
0.00766637
0.00757889
0.00683921
0.00689887
0.00685722
0.0067532
0.00634151
0.00604205
0.00591123
0.00587295
0.00591727
0.00596778
0.00637897
0.00710172
0.00777091
0.00822379
0.00847777
0.00861463
0.00870033
0.00874206
0.00877461
0.00878969
0.00880662
0.00881628
0.00882501
0.00883291
0.0088393
0.00884222
0.00884589
0.00884441
0.00883713
0.00881992
0.00879823
0.00878694
0.0088183
0.00885996
0.00888265
0.0088585
0.00856166
0.00737709
0.00545187
0.00466321
0.00450292
0.00449323
0.0045566
0.00474424
0.00508395
0.00563425
0.00647023
0.00745101
0.00805888
0.00809159
0.00796691
0.00783401
0.00779248
0.00777469
0.00677556
0.00676474
0.00678287
0.00647033
0.00618812
0.00593741
0.00583157
0.00579885
0.00580218
0.00587927
0.00619417
0.00684376
0.00750478
0.00802844
0.0083853
0.00856901
0.00867889
0.00872698
0.00876923
0.0087875
0.00880424
0.00881595
0.00882477
0.00883099
0.00883842
0.00883759
0.00883504
0.00881941
0.00878222
0.00872288
0.00869261
0.00875197
0.00883672
0.00887439
0.00885383
0.00855102
0.00732588
0.00539887
0.00464477
0.0045001
0.00449318
0.00455741
0.00474116
0.00507183
0.00561145
0.00643723
0.00749526
0.00821068
0.008127
0.00812275
0.00807547
0.0080764
0.00810718
0.00815172
0.00609758
0.00615528
0.00608844
0.00597241
0.00580015
0.00568464
0.00564407
0.00564192
0.00569241
0.0058376
0.00621372
0.00683512
0.00743347
0.00791537
0.00827116
0.00849615
0.0086358
0.00871001
0.00875407
0.00878464
0.00879922
0.0088142
0.00882073
0.00882701
0.00882566
0.00881887
0.00879171
0.00872259
0.00857973
0.00847842
0.00850729
0.00874527
0.00884634
0.00883499
0.00853995
0.00735002
0.00540703
0.00464355
0.00449842
0.00449104
0.00454932
0.00471741
0.00502164
0.00552022
0.00629064
0.00730539
0.00823807
0.00831136
0.00839551
0.00830666
0.00833851
0.00837555
0.00841966
0.00839671
0.00571864
0.00570391
0.00566841
0.00562239
0.00558086
0.00556331
0.00556635
0.00560881
0.00567271
0.00590074
0.00630497
0.00688052
0.00745507
0.0079203
0.00825416
0.00846731
0.0086077
0.0086905
0.00875077
0.00877184
0.00879505
0.00880045
0.00881508
0.00880199
0.0088041
0.00874468
0.00861354
0.00834146
0.00793538
0.00780525
0.00842683
0.00877183
0.00880273
0.00853538
0.00742831
0.00548026
0.00466212
0.00449847
0.00448739
0.00453362
0.00467769
0.00494217
0.00537635
0.00605423
0.00699758
0.00790065
0.00834783
0.0084499
0.00849944
0.00855794
0.00854664
0.00859555
0.00857948
0.00857678
0.00624697
0.00601714
0.00584768
0.00574127
0.00567388
0.005647
0.00564787
0.00569187
0.00582277
0.00602333
0.00651555
0.00704837
0.00755777
0.00796874
0.00827072
0.00846753
0.00859925
0.00868058
0.00872337
0.0087677
0.00876455
0.00879528
0.00876343
0.00877149
0.00864431
0.00843247
0.00799158
0.00732604
0.00707954
0.00748415
0.00854279
0.00873811
0.0085574
0.0075723
0.005607
0.00470131
0.00450094
0.00448265
0.00451359
0.00462809
0.00484506
0.00520223
0.00576901
0.00657391
0.0075316
0.00830639
0.00846583
0.00847272
0.00860817
0.00864935
0.00865902
0.00866312
0.00868337
0.00866402
0.00641027
0.00644538
0.00638838
0.00630936
0.00624757
0.00619734
0.00618184
0.00623326
0.00637698
0.00668423
0.00703641
0.00740682
0.00777744
0.00808021
0.00831111
0.00847595
0.00858923
0.00866122
0.0087231
0.00870664
0.00876737
0.00867315
0.00870833
0.00847067
0.00817244
0.00746895
0.00675758
0.00646839
0.00647907
0.00782049
0.00859102
0.00857414
0.00778255
0.00582827
0.00477108
0.00450668
0.00447734
0.00449257
0.00457487
0.00474172
0.00501834
0.00546641
0.00613059
0.00698708
0.00792518
0.00829682
0.00852619
0.00852682
0.00859991
0.0086885
0.00867927
0.0087042
0.00869899
0.00870333
0.00511171
0.00557487
0.00591968
0.00615794
0.00629194
0.00636275
0.00646995
0.00661116
0.00678929
0.00701869
0.00728467
0.00758395
0.0078734
0.00811988
0.00831827
0.00846223
0.00856531
0.00863274
0.00860058
0.00871217
0.00848937
0.00856806
0.00815058
0.00770996
0.0069507
0.00634716
0.00597595
0.00589725
0.00677567
0.00821317
0.0085086
0.0079953
0.0062034
0.00488859
0.00452608
0.00447205
0.00447411
0.00452442
0.00464156
0.00483674
0.00515495
0.00564835
0.00633291
0.00717728
0.00797224
0.00847895
0.00845761
0.008556
0.00861282
0.00866233
0.00870374
0.0086963
0.00870423
0.00870455
0.00520176
0.0051311
0.00529892
0.00549056
0.0057406
0.0059351
0.00617134
0.00640848
0.00664565
0.00688723
0.00717853
0.0074814
0.00776513
0.00798019
0.00813369
0.00825985
0.00831703
0.00831195
0.00836221
0.00812077
0.00800123
0.00747359
0.00706274
0.00646463
0.00598309
0.00561778
0.00549712
0.00595832
0.00731582
0.00829799
0.00817125
0.00674453
0.00502769
0.00458202
0.00446542
0.00446077
0.00448191
0.00455388
0.00467896
0.00488582
0.00522277
0.00573093
0.00642172
0.00725513
0.00794692
0.0084596
0.0083805
0.00854085
0.00856899
0.00866523
0.00865474
0.00867699
0.00868697
0.0086913
0.00748801
0.00648533
0.00593284
0.00573302
0.00573051
0.0057676
0.00585312
0.00594423
0.00607834
0.0062483
0.00645059
0.00669511
0.00694033
0.0071519
0.00730037
0.00737155
0.00739721
0.00736777
0.00720363
0.00705127
0.00677433
0.00642317
0.00601161
0.00571956
0.00537649
0.00526057
0.00554885
0.00658663
0.00792505
0.00818508
0.00734223
0.005173
0.00472484
0.0044582
0.00445548
0.00445376
0.00449149
0.00456249
0.00467579
0.00485504
0.00514274
0.00555749
0.00612992
0.00683374
0.00755825
0.00800097
0.00835601
0.0082372
0.00847392
0.00844979
0.00855598
0.00857261
0.00860609
0.00862346
0.00828875
0.00816552
0.00769256
0.00711281
0.00657811
0.00621436
0.0060449
0.00598932
0.00599296
0.00600728
0.00605495
0.00613891
0.00624626
0.00633986
0.00640729
0.00644099
0.00644511
0.006405
0.00630162
0.00615873
0.00595237
0.00565572
0.00551114
0.00521228
0.00511344
0.00527948
0.00580633
0.00690976
0.00794164
0.00752001
0.00569794
0.00483223
0.00446102
0.00445408
0.00443904
0.00445073
0.00448573
0.00454025
0.00462006
0.00475338
0.00495944
0.00526188
0.00568689
0.00621976
0.0068066
0.00733491
0.00768446
0.00783016
0.00796202
0.00796067
0.00828923
0.008242
0.00836629
0.00836019
0.00786883
0.00787108
0.00782584
0.00762
0.0073583
0.00706556
0.00674633
0.00645968
0.00623791
0.00610945
0.00606599
0.00605991
0.00605641
0.00605197
0.00603394
0.00600166
0.00595436
0.00588418
0.00578146
0.00563799
0.005476
0.00536992
0.00509908
0.00502476
0.00510683
0.00541435
0.00611031
0.00767629
0.00758175
0.00653721
0.00472617
0.00459796
0.00443245
0.00443155
0.00442566
0.00443608
0.00445354
0.00447515
0.00451003
0.00457144
0.00465976
0.00479238
0.00498694
0.0052561
0.0056111
0.00602016
0.00641392
0.0067454
0.00696612
0.00719621
0.00722189
0.00740267
0.00751589
0.00769323
0.00715181
0.00709806
0.00712146
0.00714775
0.00714163
0.00704448
0.00690706
0.00678351
0.00664988
0.0064813
0.00629147
0.00615794
0.00609172
0.00604088
0.00597475
0.00589035
0.00580727
0.00571184
0.00558335
0.00547174
0.00531808
0.0050566
0.00500111
0.00503022
0.00523864
0.00571976
0.00740067
0.00769614
0.00726373
0.00475691
0.00468509
0.0044517
0.00441881
0.00441668
0.00441508
0.00442193
0.00442968
0.00443876
0.00445484
0.00447689
0.00450554
0.00454827
0.00460252
0.00467558
0.00476186
0.00486598
0.00499113
0.00512711
0.00527479
0.00541742
0.00557847
0.00570423
0.00582097
0.00592933
0.00664963
0.00648518
0.00643533
0.0064611
0.00652581
0.00664801
0.00671137
0.00673023
0.00670427
0.00663554
0.00657146
0.00647383
0.00635359
0.0062179
0.00608797
0.00595277
0.005853
0.00568682
0.00556047
0.00529153
0.00505516
0.00500289
0.00501751
0.00509108
0.00522647
0.00700923
0.00734888
0.00720469
0.00498657
0.00487117
0.00439779
0.00444041
0.00440396
0.00440534
0.00440476
0.00440631
0.00440667
0.00440775
0.00440937
0.00441252
0.00441629
0.0044193
0.00443102
0.004433
0.00445349
0.004461
0.00448254
0.00449797
0.00452156
0.00454347
0.0045694
0.00459754
0.00462972
0.00466531
0.00648086
0.00632855
0.00627424
0.00627794
0.00632554
0.0063897
0.00651846
0.00662292
0.00673781
0.0068172
0.00683431
0.00679033
0.00668312
0.00656484
0.00636773
0.00616951
0.00588302
0.00569501
0.00529445
0.0051237
0.00498995
0.00497928
0.00498554
0.00507705
0.00688472
0.00716852
0.00708603
0.0056714
0.00463568
0.00460885
0.00441036
0.00441531
0.00439633
0.00439632
0.00439405
0.0043937
0.00439122
0.00438898
0.0043862
0.00438212
0.00437749
0.00437269
0.00436805
0.0043629
0.00435876
0.0043542
0.00435367
0.00435006
0.00434978
0.00434951
0.00434935
0.00435079
0.00435208
0.00435539
0.00646393
0.00631736
0.00625737
0.00629123
0.0063015
0.00639662
0.00650889
0.00665433
0.0068164
0.00692659
0.00693289
0.00691125
0.00684426
0.00666866
0.00648888
0.00604747
0.00595946
0.00529321
0.00521536
0.00502956
0.00504747
0.00510353
0.00548828
0.0064419
0.00704794
0.00695327
0.00581947
0.00480607
0.00458766
0.0044361
0.00441353
0.00438901
0.00438989
0.00438682
0.004385
0.00438251
0.00437963
0.00437661
0.00437184
0.00436693
0.00436124
0.00435483
0.00434827
0.00434203
0.00433592
0.00433068
0.00432567
0.00432195
0.00431848
0.00431644
0.00431417
0.00431244
0.00431158
0.00431062
0.00664227
0.00634521
0.00632409
0.0062873
0.00632008
0.00640488
0.00648197
0.00664665
0.00678707
0.00689157
0.00687802
0.0068995
0.00672583
0.00674791
0.00602278
0.00594245
0.00544787
0.00525801
0.00511585
0.00511919
0.00511047
0.00553316
0.00631949
0.00683664
0.0068122
0.00585137
0.00507027
0.00452349
0.00451545
0.00441894
0.00438184
0.00438446
0.00438159
0.00437981
0.00437753
0.0043746
0.00437105
0.00436663
0.00436158
0.00435644
0.00435063
0.00434413
0.00433793
0.00433159
0.00432588
0.00432087
0.00431623
0.00431288
0.00431047
0.00430695
0.00430719
0.00430619
0.00430543
0.00430513
0.00697124
0.006661
0.006381
0.00635595
0.00630704
0.00633733
0.00634879
0.00642557
0.00648365
0.00650444
0.00648261
0.00633243
0.00630921
0.005679
0.00580301
0.00546157
0.00534669
0.00524256
0.00524971
0.00507465
0.00593576
0.00657962
0.00658731
0.00660422
0.00610806
0.00513769
0.00452812
0.00452074
0.00440734
0.00439839
0.00437597
0.00437875
0.00437333
0.00437251
0.00436827
0.00436591
0.00436186
0.00435709
0.00435233
0.00434681
0.00434057
0.0043345
0.00432832
0.00432268
0.00431756
0.00431184
0.0043101
0.00430451
0.00430479
0.00430344
0.00430246
0.00430309
0.00430394
0.00430352
0.00745388
0.00706505
0.00672723
0.00650468
0.00635743
0.00632328
0.00631402
0.00624165
0.00622876
0.00613585
0.00605769
0.00602869
0.00577917
0.00576797
0.00555155
0.00552113
0.00543742
0.00556557
0.00563838
0.00651729
0.00654501
0.00673543
0.00666564
0.00588739
0.0047042
0.00473245
0.00444703
0.00443278
0.00440004
0.00437067
0.0043741
0.00436805
0.00436766
0.00436362
0.00436076
0.00435693
0.0043521
0.00434781
0.0043426
0.00433711
0.00433104
0.00432478
0.00431885
0.00431388
0.00430931
0.00430576
0.0043027
0.00430073
0.00429964
0.00430083
0.00430294
0.00430123
0.00430655
0.00430507
0.0078245
0.00763977
0.007254
0.00712589
0.00674179
0.00672368
0.0065619
0.00619749
0.00642523
0.00603164
0.00619012
0.00593191
0.00593766
0.00584697
0.00588127
0.00596451
0.00620805
0.00642807
0.00662134
0.00674651
0.00665885
0.00657736
0.00518907
0.00503372
0.00452336
0.00454021
0.00440142
0.0043967
0.00437812
0.00436684
0.00436876
0.00436348
0.00436003
0.00435588
0.00435152
0.00434771
0.00434383
0.00433892
0.0043342
0.00432823
0.00432217
0.00431662
0.00431213
0.00430818
0.00430358
0.00430334
0.0043007
0.00430044
0.0043021
0.00430213
0.00430412
0.00430723
0.00431
0.00431187
0.00786947
0.00778353
0.00770526
0.00755797
0.00742967
0.00730939
0.0069478
0.00702558
0.0066492
0.00676598
0.00653312
0.00657467
0.00658553
0.00661988
0.00661603
0.0066987
0.00670526
0.00664225
0.0065567
0.00631411
0.00596656
0.00511706
0.00470021
0.00467574
0.00445434
0.00445639
0.00438029
0.0043798
0.00436484
0.00436356
0.00435967
0.00435301
0.00435273
0.00434819
0.00434598
0.00434201
0.00433761
0.0043324
0.00432637
0.00432088
0.00431635
0.00431256
0.00431075
0.00430718
0.00430706
0.00430589
0.00430746
0.00430771
0.00431199
0.00431329
0.00431915
0.00432116
0.00432828
0.00432939
0.0075484
0.00754517
0.00756097
0.0075337
0.00746847
0.00737753
0.00730492
0.00722946
0.00716042
0.00705318
0.00703506
0.00695341
0.00689971
0.00683801
0.00676016
0.00668811
0.00658179
0.00637832
0.00605431
0.00558813
0.0047553
0.00482704
0.00454657
0.00454091
0.00443861
0.00437153
0.00438048
0.00436277
0.0043628
0.00435765
0.00435581
0.00435139
0.00434899
0.00434479
0.00433919
0.00433425
0.00432894
0.00432411
0.00432154
0.0043189
0.00431634
0.0043163
0.00431436
0.00431977
0.00431599
0.00433062
0.00432415
0.00433928
0.00433694
0.00434922
0.00434705
0.00435668
0.00435577
0.00436066
0.0063025
0.00649683
0.00666512
0.00687338
0.00697383
0.00704276
0.00700725
0.00702554
0.00699086
0.00693622
0.0068725
0.00678315
0.00669063
0.00655709
0.00637518
0.00611275
0.00575793
0.00539652
0.00501885
0.00479814
0.0045973
0.00461176
0.00449355
0.00439175
0.0043862
0.0043658
0.0043647
0.00435825
0.00435694
0.00435308
0.00434945
0.00434531
0.00434153
0.00433535
0.00433247
0.00432934
0.00432744
0.00432571
0.00432481
0.00432404
0.00432414
0.00432341
0.00433508
0.00435417
0.00437202
0.0043693
0.00439326
0.00439113
0.00440896
0.00440773
0.00441761
0.00441666
0.00441701
0.00441348
0.00528918
0.00535382
0.00547507
0.00557067
0.00569218
0.00579502
0.00589171
0.00599806
0.0059772
0.00598962
0.00593663
0.00584123
0.00569709
0.00553199
0.00531518
0.0051122
0.00496397
0.00466327
0.0047148
0.00450582
0.00452402
0.00441283
0.00441276
0.00436999
0.00437131
0.00435995
0.00436117
0.00435476
0.00435498
0.00434857
0.00434651
0.00434222
0.00433904
0.00433541
0.00433311
0.00433013
0.00432824
0.00432725
0.00432635
0.00432897
0.00434323
0.00437782
0.00437614
0.00439477
0.00439698
0.00440496
0.0044036
0.00441171
0.00440429
0.00443688
0.00443266
0.00447922
0.00448136
0.00449926
0.00477058
0.00480716
0.00484078
0.00489019
0.0049281
0.00497936
0.00500324
0.00504305
0.00504012
0.00504477
0.00500534
0.00496674
0.00489642
0.0048151
0.00471059
0.00468113
0.00452676
0.00453904
0.00445675
0.00444444
0.00440702
0.00438657
0.00436949
0.00436713
0.00436042
0.00435987
0.00435784
0.00435556
0.00435299
0.00434875
0.00434616
0.00434256
0.00433946
0.00433661
0.00433294
0.00433332
0.00433308
0.00433585
0.00434117
0.00436143
0.00437322
0.00438262
0.00438712
0.00439021
0.00438382
0.00436812
0.00434638
0.00433537