/*--------------------------------*- C++ -*----------------------------------*\
  =========                 |
  \\      /  F ield         | OpenFOAM: The Open Source CFD Toolbox
   \\    /   O peration     | Website:  https://openfoam.org
    \\  /    A nd           | Version:  11
     \\/     M anipulation  |
\*---------------------------------------------------------------------------*/
FoamFile
{
    format      ascii;
    class       volScalarField;
    location    "1.5";
    object      p;
}
// * * * * * * * * * * * * * * * * * * * * * * * * * * * * * * * * * * * * * //

dimensions      [0 2 -2 0 0 0 0];

internalField   nonuniform List<scalar> 
9600
(
0.0256158
0.0256078
0.0255992
0.0250846
0.023062
0.0205076
0.0196443
0.0178197
0.0154793
0.0124303
0.00920099
0.00567289
0.00197059
-0.00203605
-0.006252
-0.0105061
-0.0145628
-0.0183271
-0.0218268
-0.0251401
-0.028048
-0.0302666
-0.0316
-0.0321686
-0.0321346
-0.0315508
-0.0303317
-0.0284203
-0.0259801
-0.0233413
-0.0207202
-0.0181168
-0.0156986
-0.0133846
-0.0112535
-0.00954055
-0.00808396
-0.00693103
-0.00562262
-0.00180931
0.0260061
0.0259325
0.0256886
0.0242888
0.0204819
0.017068
0.0163416
0.0150056
0.0129661
0.010057
0.00698809
0.00362501
-3.31165e-05
-0.00391875
-0.00805568
-0.012131
-0.0159511
-0.0194143
-0.0226651
-0.0257786
-0.0284141
-0.0304011
-0.0315927
-0.0321717
-0.0322328
-0.0317393
-0.0305626
-0.0286719
-0.0262987
-0.0236053
-0.0209821
-0.018216
-0.015819
-0.0133847
-0.0113655
-0.00953439
-0.00807606
-0.00669025
-0.0063697
-0.00808332
0.0261262
0.0257826
0.0254978
0.0235495
0.0206749
0.020769
0.0184978
0.018799
0.0158021
0.0121068
0.00853305
0.00504743
0.00115246
-0.00289099
-0.00692909
-0.0109711
-0.0147753
-0.0183199
-0.0216991
-0.0249197
-0.0278526
-0.0302228
-0.0316566
-0.0323486
-0.0325409
-0.0322343
-0.0312871
-0.0297001
-0.0276453
-0.0253728
-0.0230564
-0.0207319
-0.0183858
-0.0159932
-0.0138688
-0.0118426
-0.0100742
-0.00838937
-0.00617013
-0.00307044
0.026121
0.0253384
0.0248316
0.0222362
0.0191823
0.0161254
0.0146177
0.0133006
0.0106252
0.00794694
0.00505214
0.00178591
-0.00169336
-0.00552607
-0.00975944
-0.0137663
-0.0174523
-0.0207832
-0.0238918
-0.0268944
-0.0293639
-0.0310342
-0.0320348
-0.0326281
-0.0327666
-0.0323097
-0.0311324
-0.029226
-0.0267867
-0.0240109
-0.0212695
-0.0184036
-0.016056
-0.0137921
-0.0117865
-0.0101673
-0.00858581
-0.0074088
-0.00732911
-0.00829441
0.0258713
0.0248785
0.0241015
0.0218392
0.0209791
0.0196741
0.0190075
0.0171567
0.0151895
0.0116305
0.00799153
0.00422373
0.000376568
-0.00356348
-0.00781719
-0.0116843
-0.0152995
-0.0186604
-0.0219076
-0.0250229
-0.0279956
-0.030473
-0.0321548
-0.0328636
-0.033139
-0.0329965
-0.0322857
-0.030964
-0.0292434
-0.0273071
-0.0252981
-0.0231783
-0.0208081
-0.0184363
-0.0160085
-0.013808
-0.0117921
-0.00973938
-0.00763661
-0.00482105
0.0254698
0.0244827
0.0234792
0.0217178
0.018689
0.0160865
0.0141032
0.0118237
0.00937142
0.00628725
0.00344756
0.000302106
-0.00328899
-0.00711519
-0.0112601
-0.0154104
-0.0190609
-0.0223523
-0.0254192
-0.0283437
-0.0306641
-0.0322284
-0.0329246
-0.0335471
-0.0336576
-0.0332545
-0.0320651
-0.0301228
-0.0275731
-0.0246862
-0.0217884
-0.0189414
-0.0166021
-0.0144104
-0.0125309
-0.0109941
-0.00953493
-0.00836514
-0.00802434
-0.00818537
0.024702
0.0240755
0.0229189
0.0216166
0.0191623
0.0178183
0.0175596
0.0158744
0.0137421
0.0106648
0.00722842
0.00346983
-0.000534249
-0.0046828
-0.00871985
-0.0126902
-0.0162177
-0.019443
-0.0225811
-0.0255828
-0.0284613
-0.0309153
-0.0330296
-0.0338258
-0.0341256
-0.0339719
-0.0333862
-0.0322593
-0.030764
-0.0291142
-0.0272977
-0.0253666
-0.0231271
-0.020688
-0.0179114
-0.0153834
-0.013231
-0.0111217
-0.00896203
-0.00627903
0.0242086
0.0236391
0.0227413
0.0211225
0.0181603
0.0164247
0.0146177
0.0115461
0.00817273
0.00519977
0.00226443
-0.000968889
-0.00464818
-0.00867594
-0.0128749
-0.0169976
-0.0207567
-0.0240729
-0.0271699
-0.0300898
-0.0324595
-0.0340491
-0.0343781
-0.0348285
-0.0349968
-0.0346145
-0.0334076
-0.0314111
-0.0287565
-0.0257421
-0.0227569
-0.0198033
-0.0173495
-0.0152987
-0.0135752
-0.012
-0.01063
-0.00948492
-0.00876302
-0.00810516
0.0241991
0.023318
0.0224818
0.0204752
0.0184704
0.017327
0.0161647
0.0142836
0.0121087
0.00921191
0.00600979
0.00236304
-0.0016807
-0.00592487
-0.010099
-0.0140048
-0.0175758
-0.0207749
-0.0238213
-0.0267216
-0.0294632
-0.0317009
-0.0342549
-0.0352938
-0.0354732
-0.0353304
-0.0347063
-0.0336468
-0.0322577
-0.0307621
-0.0290898
-0.0272798
-0.0251628
-0.0226722
-0.019544
-0.0167435
-0.0144848
-0.0123743
-0.00990782
-0.00768959
0.0241705
0.0230931
0.021924
0.0201235
0.0182224
0.0164931
0.013834
0.0109297
0.00775428
0.00455505
0.00139199
-0.00214228
-0.00599464
-0.0101648
-0.0144952
-0.018639
-0.0224534
-0.0259303
-0.0291401
-0.0321103
-0.0346709
-0.036424
-0.0363693
-0.0365953
-0.0367946
-0.0363489
-0.0351971
-0.0331605
-0.0304112
-0.0272838
-0.0241718
-0.0210872
-0.0185215
-0.016444
-0.0149486
-0.013319
-0.0118389
-0.0107271
-0.00954158
-0.00869971
0.0238706
0.0228752
0.0213629
0.0199206
0.0183885
0.0168669
0.0151564
0.0133171
0.0109231
0.00757083
0.00420341
0.000793144
-0.00324142
-0.00753102
-0.0117793
-0.0157824
-0.0194554
-0.0227103
-0.0257812
-0.0285701
-0.0309654
-0.0332634
-0.0360383
-0.0373032
-0.0374516
-0.0372212
-0.0363719
-0.0352395
-0.033837
-0.0323522
-0.0307015
-0.0289367
-0.0269044
-0.0244061
-0.0210121
-0.0180383
-0.0155763
-0.0132583
-0.0108183
-0.00905134
0.0235959
0.0226065
0.0211108
0.0199544
0.0184216
0.0164804
0.0139552
0.0108623
0.00729276
0.00383329
0.000635267
-0.00315824
-0.00730477
-0.011637
-0.0160535
-0.0202851
-0.0242671
-0.0279955
-0.031345
-0.0344192
-0.037234
-0.0390579
-0.0388812
-0.0389314
-0.0391077
-0.0386445
-0.0374333
-0.0353935
-0.0326253
-0.0293907
-0.0261465
-0.022923
-0.0200523
-0.017829
-0.0166145
-0.0150975
-0.0134994
-0.012134
-0.0106872
-0.00974487
0.0236243
0.0224719
0.0210728
0.0200704
0.0184949
0.0162674
0.0139622
0.0117551
0.00911319
0.00595521
0.00231314
-0.00135823
-0.00526474
-0.00956286
-0.0139465
-0.0180979
-0.0219566
-0.0254079
-0.0285007
-0.0312758
-0.0335438
-0.0357303
-0.038457
-0.0399015
-0.0401059
-0.0396518
-0.0385981
-0.0371925
-0.035646
-0.0340088
-0.0322757
-0.0304702
-0.0284867
-0.0259366
-0.022296
-0.0191549
-0.0165897
-0.0142073
-0.0118874
-0.010241
0.0240004
0.0223949
0.0211594
0.0202474
0.0185597
0.0161215
0.0136688
0.0109357
0.00731018
0.00329586
-0.00032501
-0.0041886
-0.0085133
-0.0130479
-0.0176755
-0.0221639
-0.0264063
-0.0303667
-0.0339005
-0.0371124
-0.0400427
-0.0419389
-0.041977
-0.0419492
-0.0420313
-0.0415272
-0.0401757
-0.0381606
-0.0354084
-0.0321117
-0.0287065
-0.0253096
-0.0221445
-0.0197212
-0.0186837
-0.0172488
-0.015498
-0.0137845
-0.012079
-0.0107057
0.0244152
0.02245
0.0213191
0.0204211
0.0185662
0.0158884
0.0132871
0.0106639
0.00739706
0.00393564
0.000312283
-0.00347985
-0.00761036
-0.0120482
-0.0166634
-0.0210906
-0.0251992
-0.0289011
-0.0321259
-0.0349372
-0.0372298
-0.0393688
-0.0417735
-0.0432316
-0.0434628
-0.0428901
-0.0416255
-0.0397981
-0.0378913
-0.035956
-0.0339926
-0.0320361
-0.0299594
-0.0271832
-0.0234512
-0.0202897
-0.017796
-0.0154613
-0.0131575
-0.0114202
0.0246542
0.0226292
0.0214566
0.0204935
0.0185386
0.0156618
0.0129829
0.010404
0.00693286
0.00275383
-0.00125327
-0.00534511
-0.0098977
-0.0147423
-0.0197039
-0.0244881
-0.0290137
-0.0332346
-0.0369883
-0.0403431
-0.0433165
-0.0452313
-0.045745
-0.0457304
-0.0457109
-0.0450717
-0.0436441
-0.0415702
-0.0388333
-0.0354941
-0.031944
-0.028367
-0.0250333
-0.0225128
-0.0211603
-0.0195347
-0.0175481
-0.015544
-0.0135466
-0.0119896
0.0248138
0.0228342
0.0215442
0.0204817
0.0185083
0.0155261
0.0127384
0.010075
0.00641482
0.00220256
-0.00173112
-0.0057437
-0.0102384
-0.0150354
-0.0199849
-0.0247767
-0.0292287
-0.0332925
-0.0367867
-0.0397047
-0.0420702
-0.0442241
-0.0462777
-0.0475162
-0.047662
-0.0470516
-0.0455588
-0.0433704
-0.0409171
-0.0385121
-0.0361306
-0.0338593
-0.0315726
-0.0285912
-0.0249413
-0.0217257
-0.0192448
-0.0169424
-0.0146816
-0.0127989
0.0249226
0.0230293
0.0216131
0.0204592
0.0185175
0.0154624
0.0124727
0.00966549
0.00599562
0.00165461
-0.00256154
-0.00690403
-0.0117805
-0.0170025
-0.0223618
-0.0275456
-0.0323924
-0.0368963
-0.0409224
-0.0444107
-0.0473945
-0.0494384
-0.0504518
-0.0504764
-0.0503454
-0.0496302
-0.047991
-0.0456657
-0.042917
-0.0396003
-0.0359155
-0.03215
-0.0286217
-0.0258406
-0.0240046
-0.0220168
-0.0197029
-0.0174834
-0.0153224
-0.0135333
0.0250451
0.0232484
0.0217478
0.0205084
0.0185505
0.0153989
0.0121686
0.00926323
0.00555728
0.000963152
-0.00355131
-0.00808733
-0.0130882
-0.0184246
-0.0238776
-0.0291766
-0.0341103
-0.0386116
-0.0425589
-0.0457743
-0.0483101
-0.0505947
-0.0521926
-0.0530437
-0.0530226
-0.0522805
-0.0505816
-0.0480768
-0.0451374
-0.0420865
-0.0391136
-0.0363224
-0.0337332
-0.0306285
-0.0269266
-0.0236714
-0.0210792
-0.0187184
-0.0163936
-0.0144517
0.0253353
0.0235661
0.0219476
0.0205938
0.0185912
0.0153357
0.0118754
0.00883496
0.00506866
0.000259922
-0.00455018
-0.00929705
-0.0145236
-0.0202148
-0.0260705
-0.0317412
-0.037022
-0.0418471
-0.0461574
-0.0498478
-0.0528486
-0.05513
-0.056497
-0.0566227
-0.0563104
-0.0554446
-0.0536074
-0.0509231
-0.0478372
-0.044427
-0.0406877
-0.0367064
-0.0329244
-0.0298923
-0.0272954
-0.0247432
-0.0220703
-0.0196437
-0.0172984
-0.0152845
0.0257801
0.0239405
0.0221713
0.0206967
0.0186717
0.0153484
0.0116218
0.00835717
0.00450857
-0.000483456
-0.00564511
-0.0107306
-0.0162917
-0.0223462
-0.0285068
-0.0344358
-0.0399753
-0.0450061
-0.0494671
-0.0531902
-0.0560043
-0.0582087
-0.059644
-0.0601937
-0.059856
-0.0589007
-0.0569866
-0.0541653
-0.0508101
-0.0471423
-0.0434499
-0.0399051
-0.0366303
-0.0330968
-0.0296229
-0.0263216
-0.0234358
-0.0208641
-0.0184087
-0.0162816
0.0262637
0.0243536
0.0224465
0.0208451
0.0188125
0.0154181
0.0113803
0.00784457
0.00385908
-0.00136536
-0.00692484
-0.0123982
-0.0182893
-0.0246857
-0.0312014
-0.0374844
-0.0433863
-0.0487139
-0.0533884
-0.0573224
-0.0603753
-0.062722
-0.0643082
-0.0645853
-0.064054
-0.0629088
-0.060885
-0.0578961
-0.0542889
-0.0503637
-0.0463429
-0.0421784
-0.038082
-0.0342676
-0.0309128
-0.0278824
-0.0248143
-0.0220577
-0.0195559
-0.0173816
0.0268472
0.0248811
0.0228302
0.0210499
0.0189768
0.015529
0.0111625
0.00729229
0.00314026
-0.00239126
-0.00840919
-0.0143113
-0.0205669
-0.0273686
-0.0343226
-0.0410135
-0.0473064
-0.0529646
-0.0578755
-0.0620394
-0.0652454
-0.067555
-0.0690418
-0.0694186
-0.0687941
-0.0674583
-0.0653032
-0.0621707
-0.0583211
-0.0540457
-0.0496853
-0.0452802
-0.0411935
-0.0372417
-0.0334086
-0.029833
-0.0265322
-0.0235382
-0.0209163
-0.0186486
0.027575
0.0255171
0.0233141
0.0212958
0.0191171
0.0156297
0.0109602
0.00670124
0.00228291
-0.00358914
-0.0101746
-0.0165806
-0.0232328
-0.030467
-0.0379195
-0.0450735
-0.0517774
-0.0578261
-0.0630238
-0.0674053
-0.0707745
-0.0731148
-0.0746802
-0.0750325
-0.0743321
-0.0727539
-0.0703838
-0.0670765
-0.0629767
-0.0583458
-0.0536463
-0.048883
-0.0442562
-0.0398355
-0.0356761
-0.0319709
-0.0284898
-0.0252698
-0.0224574
-0.0200381
0.0285072
0.026303
0.0239139
0.0215997
0.0192474
0.0157254
0.0107481
0.00592497
0.00122572
-0.00496169
-0.0122196
-0.0192935
-0.0264099
-0.0340952
-0.0420786
-0.0497645
-0.0569343
-0.063416
-0.0689599
-0.0735543
-0.0771158
-0.0794819
-0.0807937
-0.0813665
-0.0806928
-0.0789162
-0.076276
-0.0727083
-0.0683619
-0.0633914
-0.0582797
-0.0531169
-0.0480166
-0.043205
-0.0386351
-0.0345313
-0.0308076
-0.0273553
-0.0242795
-0.0216195
0.0295353
0.0271884
0.0245891
0.0219375
0.0193001
0.0156805
0.0104159
0.00492514
-0.000157232
-0.00654498
-0.014532
-0.0225186
-0.0302524
-0.0383887
-0.0469126
-0.0552138
-0.0629249
-0.0698792
-0.0758401
-0.0806972
-0.0844478
-0.0869189
-0.0882817
-0.0887077
-0.0879976
-0.086045
-0.0831248
-0.079258
-0.0746276
-0.0693041
-0.0637272
-0.0581228
-0.0525564
-0.0472685
-0.0422409
-0.0377046
-0.0336597
-0.0299376
-0.0265505
-0.0236706
0.0307938
0.0282642
0.0254178
0.0223683
0.0193232
0.0155042
0.00994262
0.00367186
-0.00202686
-0.00858278
-0.0171695
-0.0262628
-0.0348308
-0.0434864
-0.0525758
-0.061558
-0.0699091
-0.0774006
-0.0838408
-0.0890424
-0.0929815
-0.0955335
-0.0969222
-0.0972395
-0.0964464
-0.094336
-0.091121
-0.0869169
-0.0819397
-0.0762181
-0.0700759
-0.063897
-0.0577361
-0.0518619
-0.0463694
-0.0412365
-0.0366303
-0.0323956
-0.0285753
-0.0253083
0.0322401
0.0294183
0.0262896
0.0227846
0.0192209
0.0151087
0.00923225
0.00207742
-0.00456783
-0.0115023
-0.0205066
-0.0306712
-0.0402766
-0.0495909
-0.0593098
-0.0690467
-0.0781397
-0.0862225
-0.0931953
-0.098812
-0.103002
-0.105642
-0.106929
-0.107036
-0.106162
-0.103934
-0.100485
-0.0959257
-0.0906547
-0.084735
-0.0784462
-0.0720894
-0.0656094
-0.0593485
-0.053237
-0.047388
-0.0419452
-0.0371366
-0.0327812
-0.0290717
0.0338332
0.0306681
0.0272739
0.0232999
0.0191099
0.0145636
0.00836754
0.000320118
-0.00763121
-0.0153088
-0.0247537
-0.035933
-0.046746
-0.0568678
-0.0672765
-0.0778567
-0.0878179
-0.0965633
-0.104103
-0.110117
-0.114605
-0.117496
-0.118763
-0.118622
-0.117315
-0.114873
-0.111221
-0.10634
-0.100572
-0.0941318
-0.0870784
-0.0798612
-0.0725619
-0.0652461
-0.0581538
-0.0515758
-0.0458326
-0.0404678
-0.0353153
-0.0307995
0.0356454
0.0320923
0.0283517
0.0237727
0.0186039
0.0131216
0.00639806
-0.00243718
-0.0118586
-0.0206343
-0.0305327
-0.0425582
-0.054868
-0.066116
-0.0772477
-0.0886448
-0.0995644
-0.109122
-0.117176
-0.1236
-0.128358
-0.131218
-0.132755
-0.133234
-0.132322
-0.12923
-0.125156
-0.120157
-0.114135
-0.107613
-0.100408
-0.0930708
-0.0856069
-0.0781774
-0.0708753
-0.0636466
-0.0559368
-0.0490453
-0.0430732
-0.0381549
0.0378188
0.0334824
0.029087
0.0240861
0.0183832
0.0121422
0.00471063
-0.00502251
-0.0162655
-0.026938
-0.0377147
-0.0505165
-0.0645102
-0.0772887
-0.0892794
-0.101436
-0.11344
-0.123925
-0.13253
-0.139453
-0.144547
-0.147614
-0.148845
-0.147809
-0.145564
-0.143441
-0.139777
-0.134588
-0.128098
-0.120828
-0.112859
-0.104311
-0.0955153
-0.0866592
-0.0776787
-0.0690632
-0.0615277
-0.0545082
-0.0475543
-0.0410405
0.0403634
0.0351046
0.0295269
0.0232109
0.0160089
0.00810596
-0.000485649
-0.010685
-0.023287
-0.0360943
-0.0481294
-0.061354
-0.0767682
-0.0918492
-0.105158
-0.117781
-0.130619
-0.142344
-0.152004
-0.159311
-0.164568
-0.168221
-0.169816
-0.17005
-0.169262
-0.166183
-0.160674
-0.154908
-0.148893
-0.141901
-0.133827
-0.125162
-0.116229
-0.107034
-0.0978491
-0.0885111
-0.0788706
-0.0695548
-0.0612699
-0.0546373
0.04306
0.0369712
0.0308602
0.0242509
0.0162767
0.00679241
-0.00398377
-0.0160766
-0.030491
-0.0463074
-0.0612646
-0.0755605
-0.0916427
-0.109222
-0.125126
-0.138503
-0.151198
-0.163906
-0.174849
-0.1828
-0.188252
-0.191841
-0.193176
-0.192256
-0.188865
-0.184567
-0.180832
-0.176596
-0.169693
-0.161309
-0.152717
-0.143496
-0.133669
-0.123476
-0.113113
-0.102494
-0.0921003
-0.0821843
-0.0723236
-0.0625032
0.0437426
0.0353624
0.0269647
0.017911
0.00767908
-0.00353096
-0.0158051
-0.029379
-0.0448366
-0.0622096
-0.0801972
-0.0968898
-0.113353
-0.13165
-0.150459
-0.166826
-0.179939
-0.192581
-0.204452
-0.213842
-0.219777
-0.223127
-0.225174
-0.225902
-0.224868
-0.222052
-0.216817
-0.208762
-0.200011
-0.192052
-0.183603
-0.173823
-0.162928
-0.152401
-0.141946
-0.131276
-0.120279
-0.109462
-0.0990945
-0.0902675
0.0493614
0.0414801
0.0329178
0.022558
0.00961012
-0.00563132
-0.0229457
-0.0416829
-0.0611474
-0.0817552
-0.103202
-0.124164
-0.143338
-0.162389
-0.182119
-0.20132
-0.217257
-0.229881
-0.240518
-0.249801
-0.256603
-0.259655
-0.259522
-0.25708
-0.253442
-0.248727
-0.243254
-0.238676
-0.234404
-0.228069
-0.219387
-0.209636
-0.199713
-0.189246
-0.177674
-0.165044
-0.152105
-0.13884
-0.125438
-0.111918
0.0394412
0.0247255
0.0104273
-0.00427503
-0.0197898
-0.0368911
-0.0559266
-0.0765359
-0.0980019
-0.120512
-0.14386
-0.167834
-0.191335
-0.213454
-0.234091
-0.253965
-0.272454
-0.28782
-0.299232
-0.307582
-0.313647
-0.317674
-0.318538
-0.316706
-0.312476
-0.306992
-0.300252
-0.292119
-0.282576
-0.272508
-0.26299
-0.254549
-0.246043
-0.236725
-0.226577
-0.216694
-0.207369
-0.198449
-0.189463
-0.181573
0.0660784
0.0545191
0.0366044
0.0138172
-0.0123908
-0.0402224
-0.0685583
-0.0963222
-0.123595
-0.151175
-0.178812
-0.206438
-0.232995
-0.258184
-0.281228
-0.301954
-0.32044
-0.336174
-0.348368
-0.356398
-0.36057
-0.361529
-0.360034
-0.356075
-0.349808
-0.342015
-0.334325
-0.327926
-0.322503
-0.317494
-0.312246
-0.306341
-0.299204
-0.291022
-0.281799
-0.271467
-0.259158
-0.245265
-0.230702
-0.217709
-0.0140459
-0.0415287
-0.0684974
-0.0957386
-0.123893
-0.152912
-0.183235
-0.215356
-0.248464
-0.282391
-0.316019
-0.348918
-0.380048
-0.409072
-0.435245
-0.458278
-0.477549
-0.492801
-0.503675
-0.510096
-0.512206
-0.509885
-0.503925
-0.494606
-0.482641
-0.468718
-0.453967
-0.439741
-0.426889
-0.415983
-0.407894
-0.402971
-0.401458
-0.402091
-0.404372
-0.406919
-0.409503
-0.411049
-0.411002
-0.408563
0.068208
0.0302226
-0.0136097
-0.0576349
-0.0990804
-0.139722
-0.180044
-0.220157
-0.259953
-0.299028
-0.336625
-0.372076
-0.404772
-0.434756
-0.461649
-0.485153
-0.504598
-0.519466
-0.529152
-0.533371
-0.531677
-0.523962
-0.509954
-0.490683
-0.467806
-0.443027
-0.417349
-0.392344
-0.369012
-0.348901
-0.332827
-0.322338
-0.318125
-0.321572
-0.33297
-0.35135
-0.375928
-0.407385
-0.449424
-0.496814
-0.363001
-0.406601
-0.453172
-0.510199
-0.574331
-0.63822
-0.700116
-0.758451
-0.81192
-0.858763
-0.899622
-0.937526
-0.974899
-1.00982
-1.03997
-1.06276
-1.07798
-1.08477
-1.08348
-1.07406
-1.05713
-1.03283
-1.00148
-0.962821
-0.917624
-0.866836
-0.813237
-0.758292
-0.704333
-0.652268
-0.604142
-0.56061
-0.52378
-0.494323
-0.473565
-0.462472
-0.460796
-0.468392
-0.478047
-0.481117
-0.00349456
-0.00289876
-0.00619032
-0.0033185
-0.00378263
-0.00187925
-0.00158218
-0.000702088
-0.000382164
0.000331796
0.000844441
0.00115401
0.00131891
0.00130892
0.00111217
0.000901455
0.000794228
0.000759379
0.000769481
0.000879436
0.00110301
0.00125027
0.0013217
0.00126927
0.0012265
0.00121431
0.00112839
0.0010981
0.00105404
0.00110346
0.00114773
0.0012812
0.00142476
0.00143066
0.00159227
0.00165339
0.00190236
0.00175751
0.00335255
0.00263354
-0.0083289
-0.0040807
-0.0055701
-0.00398905
-0.0033952
-0.00205621
-0.00117793
-0.000480225
-3.71595e-05
0.000556741
0.000954263
0.0011813
0.00127836
0.00118628
0.000897233
0.000590128
0.000406388
0.000373962
0.000441779
0.000628385
0.000863524
0.000987575
0.00106241
0.00103091
0.000905906
0.000794458
0.000681819
0.000668662
0.000670455
0.000767914
0.000883293
0.00104731
0.0011973
0.00126329
0.00150493
0.00166328
0.00180697
0.00180865
0.00180716
-0.000587697
-0.00233732
-0.00415487
-0.00537944
-0.00435582
-0.00325038
-0.00203692
-0.00107482
-0.000308639
0.000226673
0.00077629
0.00112117
0.00129871
0.00132779
0.00116357
0.000815354
0.00043789
0.000175854
9.28239e-05
0.000129708
0.000294414
0.0004887
0.000621599
0.000667975
0.000662172
0.000649803
0.000528954
0.000367266
0.000287556
0.000349819
0.000500077
0.000715432
0.000898776
0.00100729
0.0011463
0.00143471
0.00156698
0.00171383
0.0020095
0.00280667
0.00365632
-0.00779707
-0.00526526
-0.00531298
-0.00454158
-0.00330489
-0.00199652
-0.00115601
-0.00018202
0.00045059
0.00100427
0.00134087
0.00148213
0.001449
0.00121583
0.000825053
0.000392385
8.31582e-05
-6.15363e-05
-8.99397e-05
5.24086e-06
8.92133e-05
0.000203993
0.00026676
0.000273314
0.000339817
0.000240277
8.51398e-05
-2.2056e-06
0.000172286
0.000392878
0.000645888
0.000799277
0.000852166
0.00106689
0.00134235
0.00147944
0.00161914
0.0016871
0.00172598
0.00123725
-0.00317785
-0.00511785
-0.0053519
-0.00468522
-0.00353113
-0.00214821
-0.00128935
-5.66836e-05
0.000660845
0.0012333
0.0016082
0.00174937
0.00166145
0.00136313
0.000922593
0.000450183
9.44018e-05
-0.00013136
-0.000242048
-0.000248418
-0.000234097
-0.000148391
-8.70989e-05
-7.19937e-05
-0.000101178
-0.000202224
-0.000233913
-0.000133317
0.000153365
0.00038555
0.00056998
0.00066255
0.000696829
0.000953692
0.00121385
0.00141227
0.00159636
0.0017791
0.00218121
0.00280895
-0.00771465
-0.00605239
-0.00542109
-0.00481566
-0.00387504
-0.0025373
-0.00140653
3.3965e-05
0.000900803
0.00149713
0.00192418
0.00207185
0.00194636
0.00159339
0.00110179
0.000602815
0.000195061
-0.000120942
-0.00032168
-0.000424385
-0.000459326
-0.00044061
-0.000391401
-0.000400464
-0.000549966
-0.000593953
-0.000518006
-0.000201984
5.26331e-05
0.000208969
0.000374997
0.000432659
0.000458288
0.000768219
0.00109181
0.00133835
0.00153547
0.00161893
0.0016777
0.00183145
-0.00433354
-0.00590692
-0.00558631
-0.00500999
-0.00420927
-0.00272219
-0.00143113
6.96928e-05
0.00114792
0.00180781
0.00228736
0.00244819
0.00229569
0.00189006
0.00135102
0.000805705
0.000341191
-4.78764e-05
-0.000334953
-0.000525788
-0.000665005
-0.000715285
-0.000649469
-0.000686458
-0.000860118
-0.000884129
-0.000737287
-0.000437488
-0.000373737
-0.000198943
5.443e-05
0.000113703
0.000191298
0.000608144
0.000989165
0.00124451
0.00145793
0.00162624
0.00183113
0.00218368
-0.00797229
-0.00671159
-0.00588937
-0.00527713
-0.00442186
-0.00265709
-0.00130233
0.000133937
0.00140162
0.00215841
0.00268976
0.00288897
0.00271976
0.00226332
0.0016625
0.0010655
0.000532679
6.3077e-05
-0.000317032
-0.000637402
-0.000876702
-0.000889904
-0.000824394
-0.000909679
-0.00109445
-0.0012162
-0.0010201
-0.000868584
-0.000873929
-0.000579512
-0.00029058
-0.000220425
-4.05981e-05
0.000454044
0.000832263
0.001076
0.00129365
0.00148615
0.00163579
0.0019297
-0.00591275
-0.00677582
-0.00627258
-0.00548516
-0.004409
-0.00247234
-0.00108713
0.000245762
0.00167038
0.00257104
0.00315047
0.00337255
0.00319525
0.0026963
0.00203622
0.00136135
0.000752504
0.000195598
-0.000302338
-0.000743989
-0.000971016
-0.00095191
-0.000983503
-0.00119556
-0.00149571
-0.00162038
-0.00141623
-0.00137653
-0.0012906
-0.000906089
-0.000615844
-0.000514758
-0.000198177
0.000319327
0.000649673
0.00086178
0.00111891
0.00138059
0.00157884
0.00179412
-0.00843146
-0.00742602
-0.00662992
-0.00552343
-0.00423063
-0.00226383
-0.000866499
0.000412993
0.00195902
0.00302992
0.003672
0.00392193
0.00372973
0.00318174
0.00244641
0.00167947
0.000985314
0.000333506
-0.000268707
-0.000730955
-0.000916704
-0.00100712
-0.00127092
-0.00169631
-0.0020891
-0.00214229
-0.0020232
-0.00203106
-0.00174383
-0.00122067
-0.000908961
-0.000759701
-0.000346722
0.000140265
0.000418297
0.000621963
0.00090461
0.00119051
0.00145009
0.00184795
-0.00745295
-0.0077972
-0.00694807
-0.00540817
-0.00416119
-0.00233743
-0.000718193
0.000670404
0.00231088
0.00354817
0.00427509
0.00454956
0.00433319
0.00371914
0.00290149
0.00205238
0.00127601
0.000541259
-0.000119368
-0.000586154
-0.000845685
-0.00117648
-0.00172589
-0.00233861
-0.0027097
-0.00276729
-0.00270515
-0.00267926
-0.00216192
-0.00156323
-0.0012686
-0.00107579
-0.000579012
-8.69062e-05
0.000163077
0.000376044
0.000689712
0.000988149
0.00124637
0.00149865
-0.00916538
-0.00820501
-0.00712498
-0.0054062
-0.00425387
-0.00260684
-0.000623603
0.00101624
0.00275407
0.00414519
0.00496872
0.00526905
0.00502798
0.0043445
0.00344381
0.00252225
0.00167992
0.000859321
0.000120873
-0.000443773
-0.000914273
-0.00153816
-0.00228018
-0.00289159
-0.00320773
-0.00333422
-0.00332638
-0.00317373
-0.00254422
-0.00197611
-0.00170888
-0.00141317
-0.000807033
-0.000325225
-8.86144e-05
0.000146931
0.000477176
0.000779421
0.00112072
0.00156348
-0.0087021
-0.00839632
-0.0073122
-0.0056382
-0.00439332
-0.00270774
-0.000467814
0.00142768
0.003292
0.00482212
0.00574745
0.00609361
0.00584223
0.00509674
0.00411194
0.00312324
0.00216975
0.00120216
0.000314864
-0.000441511
-0.00116739
-0.00203113
-0.00279389
-0.0032699
-0.00365756
-0.00378651
-0.00381937
-0.00351348
-0.00289475
-0.00236049
-0.00207287
-0.00163588
-0.00100297
-0.000574328
-0.000359778
-0.000111028
0.000248093
0.000576701
0.000913773
0.00125459
-0.00978222
-0.00879548
-0.00767206
-0.00605461
-0.00453015
-0.0025737
-0.000167886
0.00190109
0.00392792
0.00560689
0.00663866
0.00703909
0.00678882
0.00598323
0.00489986
0.00378228
0.00265144
0.00147529
0.000392184
-0.000587167
-0.00157372
-0.00257229
-0.0031824
-0.00359454
-0.00404525
-0.00403773
-0.00403143
-0.00380109
-0.00323992
-0.00271765
-0.00237466
-0.00187274
-0.00126873
-0.000880116
-0.000674284
-0.000393294
6.00964e-08
0.000346594
0.000672491
0.000960642
-0.0100807
-0.00926935
-0.00811928
-0.00645016
-0.00460412
-0.00243612
0.000206787
0.00246274
0.00466779
0.00650765
0.00766952
0.00814687
0.00787392
0.00697724
0.00575864
0.00445916
0.00309913
0.00169531
0.00039404
-0.000828448
-0.00203327
-0.00297264
-0.00344441
-0.00386966
-0.00422024
-0.00415858
-0.00429287
-0.00423856
-0.0036763
-0.00317591
-0.00279232
-0.0022464
-0.00163103
-0.00126086
-0.00105166
-0.000740003
-0.000309872
6.83193e-05
0.000402822
0.000638504
-0.0108332
-0.00973993
-0.00850558
-0.006707
-0.00459773
-0.00229231
0.000642925
0.00313103
0.00552776
0.0075451
0.00885567
0.00939192
0.00906942
0.00806659
0.006704
0.0052008
0.00358457
0.00192284
0.000366523
-0.00107207
-0.00232888
-0.00321511
-0.00371354
-0.0041784
-0.00435219
-0.00435111
-0.00475299
-0.00470659
-0.00411306
-0.00368325
-0.00328554
-0.00271171
-0.00210499
-0.0017659
-0.001538
-0.00116576
-0.000690596
-0.00028547
7.67203e-05
0.000307681
-0.0113338
-0.010178
-0.00875954
-0.00681933
-0.00445414
-0.00197466
0.00119622
0.00389689
0.0064994
0.0087222
0.0101927
0.0107458
0.0103638
0.00928217
0.00778845
0.00606646
0.00414781
0.00218115
0.000410903
-0.00116778
-0.00250338
-0.00344824
-0.00407264
-0.0045584
-0.00458523
-0.00468019
-0.00518205
-0.0050897
-0.00460697
-0.00423847
-0.00386482
-0.0032552
-0.00265875
-0.00233315
-0.00207097
-0.00163784
-0.00113079
-0.000691645
-0.000292506
-5.31568e-05
-0.0121953
-0.0107606
-0.0090258
-0.00685245
-0.00426949
-0.00153235
0.00181127
0.004752
0.00758985
0.0100397
0.0116765
0.0122447
0.0117981
0.0106436
0.00899483
0.00702718
0.00480156
0.00256563
0.000597737
-0.00115432
-0.0026197
-0.00364413
-0.00441157
-0.00489351
-0.00494801
-0.00521999
-0.00569323
-0.00564305
-0.0052866
-0.0049444
-0.00450392
-0.00379292
-0.0032022
-0.00288036
-0.00258452
-0.00211289
-0.00159282
-0.00112744
-0.000698963
-0.000455426
-0.0129524
-0.011192
-0.00923706
-0.00678222
-0.00405349
-0.00105514
0.00246467
0.00574743
0.00888328
0.0115392
0.0133394
0.0139568
0.0134205
0.0121529
0.0103048
0.00808533
0.00557532
0.003096
0.000886672
-0.00107767
-0.00265137
-0.00380626
-0.00467248
-0.00523652
-0.00546165
-0.00590577
-0.00642961
-0.00642781
-0.00598106
-0.00556141
-0.00496019
-0.00421818
-0.00368079
-0.00340294
-0.00309969
-0.00261482
-0.00208493
-0.00159777
-0.00115331
-0.000913248
-0.0136339
-0.0116617
-0.009492
-0.00677045
-0.00380296
-0.000501146
0.00324652
0.0069486
0.0104547
0.0132995
0.0152255
0.0159299
0.0152801
0.013845
0.0117762
0.0092951
0.00648706
0.00373469
0.0012334
-0.000916056
-0.0026301
-0.00400709
-0.0049774
-0.00566773
-0.00609701
-0.00668393
-0.00723818
-0.00701095
-0.00645872
-0.00599286
-0.00539261
-0.00470081
-0.00422868
-0.00398904
-0.0036714
-0.00317175
-0.00263298
-0.00212226
-0.00166011
-0.00142565
-0.0143633
-0.0121059
-0.0098006
-0.00681745
-0.00349262
0.00018038
0.00431115
0.00839882
0.012267
0.0153964
0.0174028
0.0182059
0.0174506
0.0158351
0.0135408
0.0107194
0.00753471
0.00445381
0.00166052
-0.000689986
-0.00261467
-0.00412139
-0.00533772
-0.00608223
-0.00660638
-0.00716382
-0.00753188
-0.00733734
-0.00703141
-0.00668869
-0.00613332
-0.00541363
-0.00497178
-0.00470012
-0.00434271
-0.00379686
-0.00323138
-0.00267921
-0.00220842
-0.00198555
-0.0151272
-0.0125867
-0.0101209
-0.00690807
-0.00312287
0.000958854
0.00562002
0.0101336
0.0142825
0.0178415
0.0199739
0.0208586
0.0200368
0.0182782
0.0156939
0.0123795
0.00869658
0.00524923
0.0021773
-0.000420532
-0.00250986
-0.00423268
-0.00562062
-0.0064168
-0.00693654
-0.0074911
-0.00793336
-0.00803144
-0.00795379
-0.0077204
-0.00708263
-0.0063248
-0.00583155
-0.00547214
-0.00503994
-0.00443349
-0.0038416
-0.00325702
-0.00280198
-0.00259538
-0.0161797
-0.0132518
-0.0104544
-0.00694406
-0.00272386
0.00171973
0.00689627
0.012073
0.0165974
0.020636
0.0230427
0.0239817
0.0231567
0.0212619
0.0182038
0.0142268
0.00997872
0.00613085
0.00276411
-9.63191e-05
-0.00240777
-0.00445879
-0.00587267
-0.00677651
-0.00745721
-0.00818211
-0.00873506
-0.00893608
-0.00899959
-0.00876993
-0.00803503
-0.00725308
-0.00666474
-0.00626368
-0.00577325
-0.00514284
-0.00452857
-0.00393567
-0.00349676
-0.0033018
-0.0174705
-0.0140743
-0.0108209
-0.00694999
-0.00224016
0.00259881
0.00815661
0.0141035
0.0193182
0.0238475
0.0266878
0.0276945
0.0268752
0.0246758
0.0209406
0.0162255
0.011437
0.00714045
0.00342634
0.000261046
-0.00240645
-0.00456139
-0.00612626
-0.00723738
-0.0081594
-0.00900902
-0.00952753
-0.00980231
-0.00994243
-0.00961603
-0.00888292
-0.00813291
-0.00759897
-0.00724743
-0.00672915
-0.00607318
-0.00541734
-0.00479188
-0.00433836
-0.00414613
-0.0189096
-0.0151015
-0.0113615
-0.00706417
-0.00173305
0.00370242
0.0097361
0.0164021
0.0224935
0.0276324
0.0309584
0.0321042
0.0311897
0.0284118
0.0239083
0.0184488
0.0131453
0.00836702
0.00424654
0.00071407
-0.00226872
-0.00460433
-0.00641963
-0.00779109
-0.00889865
-0.00969987
-0.0101749
-0.0105349
-0.0106883
-0.0104367
-0.00987223
-0.00925508
-0.00885224
-0.00850282
-0.00790507
-0.00717948
-0.00644841
-0.00576217
-0.00529631
-0.00511154
-0.0205119
-0.0162508
-0.0121222
-0.00745608
-0.00140515
0.00476294
0.0115314
0.0191336
0.026178
0.032063
0.0359848
0.0373533
0.0362265
0.0326705
0.0273451
0.0210981
0.0151814
0.00981413
0.00522807
0.00127216
-0.00207101
-0.00479322
-0.00687959
-0.00847276
-0.00961894
-0.0103488
-0.0109087
-0.0114582
-0.0117944
-0.0116731
-0.0111407
-0.0105795
-0.0102099
-0.00973287
-0.00901307
-0.00824603
-0.00746892
-0.00676376
-0.00630961
-0.00612811
-0.0221542
-0.0174478
-0.0129867
-0.00810318
-0.00135
0.00581384
0.0133509
0.0220572
0.0303559
0.0372174
0.0419662
0.0436573
0.0422753
0.0378558
0.031563
0.024414
0.0176313
0.0115182
0.00633146
0.00178908
-0.00201664
-0.00507372
-0.00745157
-0.00921226
-0.0104214
-0.0113559
-0.012245
-0.0130037
-0.0133219
-0.0130408
-0.0123619
-0.0117937
-0.0113811