/*--------------------------------*- C++ -*----------------------------------*\
  =========                 |
  \\      /  F ield         | OpenFOAM: The Open Source CFD Toolbox
   \\    /   O peration     | Website:  https://openfoam.org
    \\  /    A nd           | Version:  11
     \\/     M anipulation  |
\*---------------------------------------------------------------------------*/
FoamFile
{
    format      ascii;
    class       volVectorField;
    location    "1.5";
    object      U;
}
// * * * * * * * * * * * * * * * * * * * * * * * * * * * * * * * * * * * * * //

dimensions      [0 1 -1 0 0 0 0];

internalField   nonuniform List<vector> 
9600
(
(0.994707 0.00139415 -2.49764e-21)
(0.995241 0.00412396 0)
(0.987866 0.0158616 -2.49104e-21)
(0.946926 0.0194419 2.47158e-21)
(0.908736 0.00488995 0)
(0.905049 -0.015666 9.94754e-22)
(0.923448 -0.0344678 -1.92828e-21)
(0.948764 -0.048152 9.28823e-22)
(0.971298 -0.0535023 6.9859e-22)
(0.989161 -0.0537133 -7.00315e-22)
(1.00261 -0.0514836 3.17897e-24)
(1.0128 -0.0483775 0)
(1.02084 -0.0452411 0)
(1.02773 -0.0421796 1.04792e-22)
(1.03374 -0.0391173 1.07218e-22)
(1.03885 -0.0360283 -2.10136e-22)
(1.04297 -0.0329134 0)
(1.04602 -0.0298707 0)
(1.04833 -0.0267177 -1.10366e-24)
(1.05007 -0.0236301 0)
(1.05109 -0.0201109 0)
(1.05106 -0.0168109 1.5048e-24)
(1.04983 -0.013953 -3.13333e-24)
(1.04778 -0.0109903 8.22026e-22)
(1.04516 -0.00748397 -8.14894e-22)
(1.04217 -0.00384513 -7.83343e-22)
(1.03879 1.27699e-05 7.88354e-22)
(1.03488 0.00317399 1.38458e-21)
(1.03087 0.00647098 -1.36054e-21)
(1.02672 0.00887082 0)
(1.023 0.0117689 0)
(1.01918 0.0134802 -8.52983e-22)
(1.01568 0.0158809 1.56571e-21)
(1.01222 0.0170304 -7.20033e-22)
(1.00964 0.0195777 0)
(1.00704 0.0212898 -7.32307e-24)
(1.00518 0.0244575 -7.41963e-22)
(1.00282 0.0267248 7.29091e-22)
(1.0005 0.0281302 4.50611e-24)
(0.993275 0.0473702 4.59922e-22)
(0.996271 0.00250549 -2.5903e-21)
(0.994489 0.0057961 -2.44288e-23)
(0.989722 0.00626492 1.02113e-22)
(0.988784 0.00299161 2.524e-21)
(0.991018 -0.00276473 9.47789e-22)
(0.991959 -0.00260381 -9.43023e-22)
(0.995697 0.00647389 1.37401e-23)
(0.999808 0.0248608 6.54792e-24)
(1.00164 0.0379513 -5.89634e-22)
(1.003 0.0440563 6.00098e-22)
(1.00412 0.0453714 -3.23525e-24)
(1.00636 0.0443204 3.47749e-24)
(1.011 0.0420018 -5.15244e-23)
(1.01568 0.0393958 2.06117e-22)
(1.02008 0.0367835 -1.58227e-22)
(1.02384 0.0342894 -3.66636e-22)
(1.02676 0.0318344 3.70927e-22)
(1.02894 0.0291995 -2.77241e-22)
(1.03069 0.026323 2.74663e-22)
(1.03216 0.0236241 0)
(1.03297 0.0205464 0)
(1.03258 0.0177449 3.98366e-22)
(1.03125 0.0152893 -3.93175e-22)
(1.02945 0.0124905 -6.52763e-24)
(1.02707 0.00918584 0)
(1.02439 0.00587848 -8.20341e-22)
(1.02107 0.00227351 3.35347e-23)
(1.01734 -0.00104152 -6.66669e-22)
(1.0133 -0.00468635 1.40737e-21)
(1.00894 -0.0074319 1.9702e-23)
(1.00557 -0.0105613 -1.00674e-21)
(1.00063 -0.012635 1.0115e-21)
(0.99886 -0.0149703 -7.59378e-22)
(0.993782 -0.0167186 1.37393e-21)
(0.992745 -0.0197858 -6.08677e-22)
(0.988421 -0.0219122 7.54614e-24)
(0.988225 -0.0257327 6.37127e-24)
(0.984324 -0.0287938 0)
(0.983352 -0.0328274 -4.68694e-24)
(0.983355 -0.0433004 8.10703e-22)
(0.997209 0.0034447 0)
(0.998451 0.00795143 2.65012e-21)
(0.99497 0.0159685 -2.63245e-21)
(0.986545 0.0171382 0)
(0.973667 0.00577149 0)
(0.964218 -0.0101379 -2.99532e-23)
(0.962643 -0.0245566 -4.11611e-23)
(0.970455 -0.0378738 0)
(0.983305 -0.0473755 -7.53561e-22)
(0.995904 -0.0515785 7.24702e-22)
(1.00742 -0.0519855 0)
(1.01729 -0.051019 -3.58154e-24)
(1.02503 -0.0493233 4.64787e-25)
(1.03142 -0.0463668 0)
(1.037 -0.0428868 2.407e-22)
(1.04181 -0.0394203 -2.37875e-22)
(1.04565 -0.0358762 -1.30856e-23)
(1.04847 -0.0322908 3.92377e-24)
(1.05069 -0.0283777 1.50491e-22)
(1.05243 -0.0245737 -1.55271e-22)
(1.05359 -0.0203233 -1.93434e-22)
(1.05411 -0.0162176 2.02919e-22)
(1.05328 -0.0127046 -6.57792e-24)
(1.0512 -0.00907799 8.63147e-22)
(1.04867 -0.00487402 -8.48748e-22)
(1.04569 -0.000700315 -8.0308e-22)
(1.04274 0.0035213 8.41958e-22)
(1.03885 0.00685976 -1.51765e-21)
(1.03566 0.0104752 1.51485e-21)
(1.03125 0.0124674 -2.01763e-23)
(1.0289 0.0159416 0)
(1.02439 0.0164184 -1.02628e-21)
(1.02229 0.0198065 1.93577e-21)
(1.01761 0.0200521 -8.96277e-22)
(1.01612 0.0236615 -6.88418e-22)
(1.01146 0.0246628 1.79907e-21)
(1.0105 0.0291021 -1.77968e-22)
(1.0059 0.0303768 -9.48408e-22)
(1.00492 0.0352019 1.07644e-23)
(0.995081 0.0425383 1.96787e-25)
(0.998639 0.0049417 -5.39436e-21)
(1.00007 0.0114694 2.68899e-21)
(1.00009 0.0130332 2.45276e-21)
(1.00004 0.00769421 -2.4505e-21)
(1.00851 -0.00703162 0)
(1.01683 -0.0133252 8.49076e-22)
(1.02073 -0.0106512 -7.88578e-22)
(1.02454 0.00430503 6.62398e-22)
(1.02335 0.0217821 -1.43363e-22)
(1.01891 0.0319261 -5.00327e-22)
(1.01597 0.0361768 -1.73612e-22)
(1.01541 0.0370815 1.90548e-22)
(1.01587 0.0365144 -9.8737e-23)
(1.01881 0.0347645 3.03922e-22)
(1.02309 0.032517 -2.07946e-22)
(1.02647 0.0304529 -4.36047e-22)
(1.02918 0.0285255 4.32525e-22)
(1.03128 0.0266896 8.40743e-24)
(1.03286 0.0245218 4.86349e-24)
(1.03427 0.0226118 0)
(1.03493 0.020348 0)
(1.03415 0.0180253 -6.53413e-24)
(1.03273 0.0161843 0)
(1.0314 0.0142532 0)
(1.02962 0.011497 1.41542e-23)
(1.02714 0.00828948 -2.74399e-23)
(1.02414 0.00493404 7.92933e-22)
(1.02019 0.00154869 6.4957e-22)
(1.01644 -0.00192034 -1.5635e-21)
(1.01124 -0.00522739 1.223e-21)
(1.00835 -0.00818111 -1.22014e-21)
(1.00268 -0.010949 -3.49398e-23)
(1.00032 -0.0131356 -7.69042e-22)
(0.997177 -0.0156725 7.97507e-22)
(0.994473 -0.0183882 5.61557e-22)
(0.992824 -0.0219924 4.12801e-22)
(0.991612 -0.0254722 -1.45917e-22)
(0.98857 -0.0295953 -8.41893e-22)
(0.991021 -0.0349842 -1.10616e-23)
(0.994861 -0.0369368 -9.20154e-24)
(1.00057 0.00637856 0)
(1.005 0.0122091 2.70605e-21)
(1.00673 0.0135087 -5.14774e-21)
(1.00784 0.00837274 2.45658e-21)
(1.00743 -0.00508868 0)
(0.996669 -0.0111078 0)
(0.98435 -0.0156884 0)
(0.980327 -0.0230815 2.349e-23)
(0.986053 -0.0334904 -7.14565e-22)
(0.996493 -0.0429515 7.4074e-22)
(1.00661 -0.0477668 -1.12972e-23)
(1.01604 -0.049096 1.22409e-22)
(1.02437 -0.0490623 -8.35597e-23)
(1.03126 -0.0478104 -4.44061e-23)
(1.03667 -0.0448339 0)
(1.04116 -0.0410106 -3.65807e-22)
(1.04478 -0.0371345 3.77317e-22)
(1.0473 -0.0332887 -8.62253e-24)
(1.0495 -0.0289252 0)
(1.05112 -0.0246636 0)
(1.0522 -0.0201282 2.04748e-22)
(1.05322 -0.0152917 -2.04689e-22)
(1.0529 -0.0111857 0)
(1.05081 -0.00711074 9.22992e-22)
(1.04811 -0.00263575 -9.50728e-22)
(1.04513 0.00190025 -9.10729e-22)
(1.04229 0.00634194 8.80924e-22)
(1.03869 0.00975616 -1.62213e-21)
(1.03585 0.0136779 1.71962e-21)
(1.03188 0.0153595 4.49858e-23)
(1.02967 0.0193367 0)
(1.02581 0.0194049 3.58163e-23)
(1.02356 0.0229742 1.04524e-21)
(1.01889 0.022845 -1.07262e-21)
(1.0167 0.0269416 2.37046e-23)
(1.01226 0.0270891 0)
(1.00926 0.0319923 0)
(1.00538 0.032549 -9.37898e-22)
(1.00209 0.0368794 9.03914e-22)
(0.99102 0.0374186 -2.14429e-23)
(1.00274 0.00728981 -2.67215e-21)
(1.0076 0.0118152 -8.40394e-23)
(1.00865 0.010867 8.07593e-23)
(1.01099 0.00109152 7.45911e-23)
(1.01623 -0.0108912 0)
(1.02057 -0.0145544 0)
(1.02445 -0.0141301 0)
(1.02785 -0.0076792 5.43311e-22)
(1.03078 0.00584477 -1.08209e-21)
(1.02962 0.0170387 4.13589e-22)
(1.02628 0.0241322 0)
(1.02407 0.0273782 -8.84507e-23)
(1.0238 0.0283421 8.42885e-23)
(1.0242 0.0282162 2.57816e-22)
(1.02643 0.0269874 -2.612e-22)
(1.02977 0.0253562 -1.25833e-23)
(1.03213 0.0240166 1.58154e-23)
(1.03438 0.022944 0)
(1.03584 0.0216468 -1.07754e-23)
(1.03727 0.0206365 0)
(1.03791 0.0193588 3.31265e-24)
(1.03696 0.0177702 1.41484e-23)
(1.03502 0.0165462 0)
(1.03374 0.0153856 -9.94797e-22)
(1.03257 0.0136487 9.93883e-22)
(1.03043 0.0110118 -8.74998e-22)
(1.0276 0.00814899 9.91065e-22)
(1.02342 0.0047963 1.59063e-21)
(1.0197 0.00186584 -1.59095e-21)
(1.01428 -0.00208828 1.63157e-24)
(1.01077 -0.00475076 -8.69777e-23)
(1.00545 -0.00824331 7.83129e-23)
(1.00257 -0.0108006 -8.73862e-22)
(0.999851 -0.0133138 1.62772e-21)
(0.997885 -0.0165582 -7.54134e-22)
(0.99661 -0.0197883 0)
(0.995833 -0.0240566 -3.95509e-23)
(0.994694 -0.0281073 3.36623e-23)
(0.998126 -0.03125 2.68392e-23)
(1.00028 -0.0298176 -8.70283e-22)
(1.00608 0.00819626 -1.56479e-22)
(1.0097 0.0104225 -5.26796e-21)
(1.01139 0.00775314 2.16888e-22)
(1.01435 -0.00331781 2.44816e-21)
(1.0134 -0.0116784 0)
(1.01106 -0.0123964 6.11732e-23)
(1.00437 -0.01121 5.76712e-23)
(0.99552 -0.0141927 0)
(0.994133 -0.0223213 7.49856e-22)
(0.999245 -0.0326877 -6.50248e-22)
(1.00716 -0.040447 0)
(1.01556 -0.044564 5.72529e-24)
(1.02358 -0.0460894 7.64412e-23)
(1.03076 -0.0459278 -7.65846e-23)
(1.03665 -0.0443136 0)
(1.04119 -0.0410732 -4.12609e-22)
(1.04455 -0.0370731 4.26827e-22)
(1.04694 -0.0330271 0)
(1.04895 -0.0284005 2.00267e-22)
(1.05038 -0.0238695 -1.7779e-22)
(1.05132 -0.0192591 -6.92463e-24)
(1.0527 -0.0139575 -2.95505e-23)
(1.0529 -0.00920657 3.10783e-23)
(1.05088 -0.00485116 1.03262e-21)
(1.04802 -0.000409371 -1.03154e-21)
(1.04486 0.00422477 -6.17705e-23)
(1.04214 0.00886606 -9.63498e-22)
(1.03867 0.0121852 1.07708e-21)
(1.03598 0.0161854 1.69729e-21)
(1.03282 0.0179278 -1.69563e-21)
(1.03013 0.0218486 8.92896e-23)
(1.02709 0.0222539 1.46655e-24)
(1.02453 0.0258477 0)
(1.02022 0.0251655 6.46132e-23)
(1.01639 0.0291647 9.55325e-22)
(1.0119 0.0286938 6.83849e-22)
(1.00811 0.0331966 -2.02038e-22)
(1.00438 0.0322439 -1.41614e-21)
(0.999514 0.0352064 8.57545e-22)
(0.988431 0.0320216 -8.68774e-22)
(1.00919 0.00847273 2.75999e-21)
(1.01085 0.00806023 -1.37415e-24)
(1.01259 0.00187506 -5.13225e-21)
(1.01583 -0.00723385 2.49081e-21)
(1.01865 -0.0132057 0)
(1.01987 -0.0135624 -6.27848e-23)
(1.02311 -0.0123988 -7.72939e-22)
(1.02793 -0.0108603 1.41053e-21)
(1.03129 -0.00535542 -9.47946e-22)
(1.03285 0.0028327 3.69955e-22)
(1.03181 0.0105457 0)
(1.03022 0.015676 -1.71085e-22)
(1.02985 0.0183351 1.63179e-22)
(1.03036 0.0196931 3.11257e-22)
(1.03122 0.0197846 -3.24546e-22)
(1.03332 0.0190819 0)
(1.03555 0.0184722 6.25925e-25)
(1.03772 0.0180727 0)
(1.03925 0.0179046 -2.38804e-23)
(1.04098 0.0176992 6.73396e-24)
(1.04104 0.0174623 3.58045e-24)
(1.04042 0.0168604 1.52136e-23)
(1.03842 0.0164534 -3.18313e-23)
(1.03681 0.0160513 1.09095e-21)
(1.03573 0.01526 -1.12315e-21)
(1.03403 0.0136767 -1.0277e-21)
(1.03137 0.0116687 1.02586e-21)
(1.02719 0.0086335 1.75139e-21)
(1.02333 0.00614885 -3.44423e-21)
(1.01772 0.00213211 2.98372e-21)
(1.01363 -0.000495692 -1.44935e-21)
(1.00859 -0.00433695 -8.40701e-23)
(1.00504 -0.00735838 0)
(1.00275 -0.00962649 -6.65282e-23)
(1.00183 -0.013099 0)
(1.00033 -0.0164664 0)
(0.999954 -0.0203742 0)
(1.00041 -0.0232967 -1.06286e-21)
(1.00205 -0.0242219 1.11288e-21)
(1.00316 -0.0212581 5.07288e-23)
(1.01031 0.00706454 -2.72439e-21)
(1.01172 0.00462848 -2.00636e-24)
(1.0142 -0.00349105 -2.72908e-21)
(1.01652 -0.0102311 2.66047e-21)
(1.0168 -0.0132798 -1.367e-22)
(1.01666 -0.0129713 -1.05684e-21)
(1.01545 -0.0114194 8.91521e-22)
(1.01181 -0.0115983 -4.89342e-23)
(1.0074 -0.0164349 -6.89981e-22)
(1.00655 -0.0247854 1.12249e-21)
(1.01019 -0.0326498 -4.83057e-22)
(1.01633 -0.0382453 0)
(1.02344 -0.0414657 2.09986e-23)
(1.0304 -0.0422679 1.41392e-23)
(1.03662 -0.0415797 -2.39001e-23)
(1.04143 -0.0392809 -4.59587e-22)
(1.04501 -0.0358468 4.73298e-22)
(1.04735 -0.0318094 0)
(1.04906 -0.027104 2.53486e-23)
(1.05078 -0.022202 2.51531e-25)
(1.05124 -0.0176305 0)
(1.05225 -0.0122665 -1.66197e-23)
(1.05323 -0.00687051 -3.44257e-23)
(1.05161 -0.00219728 -3.4142e-23)
(1.04841 0.00225192 6.85387e-23)
(1.04498 0.00655383 0)
(1.04238 0.0111841 0)
(1.03898 0.0144005 -2.04035e-21)
(1.03639 0.0183303 1.91457e-21)
(1.03312 0.0201846 1.11731e-22)
(1.03068 0.0239596 0)
(1.02789 0.0245091 1.69729e-21)
(1.0248 0.0282152 -3.05369e-21)
(1.02086 0.0270254 2.73383e-21)
(1.01614 0.0300388 -1.27868e-21)
(1.01107 0.0297961 1.13337e-22)
(1.00703 0.0325891 1.5148e-21)
(1.00317 0.0305118 -1.60464e-21)
(0.996009 0.032126 -1.11606e-21)
(0.987991 0.0263809 1.85815e-21)
(1.01096 0.00485531 -2.87006e-21)
(1.01289 -0.000163081 5.25561e-21)
(1.01478 -0.0080462 -1.82729e-22)
(1.01536 -0.012091 -2.75325e-21)
(1.01771 -0.0142607 1.41688e-22)
(1.01959 -0.0130085 6.55567e-23)
(1.02279 -0.0107835 5.86413e-23)
(1.02752 -0.0104472 5.86699e-22)
(1.03022 -0.00992138 -2.00868e-22)
(1.03145 -0.00722851 -3.88998e-22)
(1.03281 -0.00166152 3.84586e-23)
(1.03347 0.00347859 2.32095e-22)
(1.0343 0.00704045 -5.31982e-22)
(1.03522 0.00974299 6.51566e-22)
(1.03647 0.0109793 -3.69762e-22)
(1.03762 0.0115529 -6.71401e-23)
(1.03973 0.0117996 0)
(1.04134 0.0123982 4.41985e-22)
(1.04313 0.0130402 -7.01537e-22)
(1.045 0.0140969 2.38692e-22)
(1.04512 0.0150344 0)
(1.04427 0.0153419 5.96535e-22)
(1.04219 0.0158217 -5.4788e-22)
(1.04061 0.0163615 1.17708e-21)
(1.03918 0.0165148 -1.10125e-21)
(1.03752 0.0160424 -1.07073e-21)
(1.03537 0.0150895 2.30455e-21)
(1.03129 0.0128094 9.36376e-22)
(1.02704 0.0109672 -1.8959e-21)
(1.02125 0.00728775 -2.33162e-22)
(1.01672 0.00451874 0)
(1.0116 0.000651286 -1.93774e-22)
(1.00796 -0.00256854 0)
(1.00599 -0.00490137 -9.82217e-22)
(1.005 -0.0081477 1.11842e-21)
(1.0041 -0.0115445 1.56654e-21)
(1.00411 -0.0143306 -1.45274e-21)
(1.00405 -0.0155426 0)
(1.00431 -0.01533 1.08982e-21)
(1.00477 -0.0119711 -1.15036e-21)
(1.01164 0.00176677 -3.20315e-21)
(1.01351 -0.00479522 1.79704e-22)
(1.01445 -0.0110502 -2.61279e-21)
(1.01489 -0.0137076 2.94263e-21)
(1.01681 -0.0145555 0)
(1.01916 -0.0133509 0)
(1.01955 -0.0126325 0)
(1.01933 -0.0128646 0)
(1.01826 -0.0149218 -5.92376e-22)
(1.01647 -0.0205901 6.00154e-22)
(1.01666 -0.0268223 0)
(1.01985 -0.0323781 2.73043e-24)
(1.02513 -0.0362889 1.98432e-22)
(1.03117 -0.0377333 -1.77158e-22)
(1.03705 -0.0377448 0)
(1.04217 -0.0363955 -5.45927e-22)
(1.04588 -0.0335878 6.27361e-22)
(1.0485 -0.0296895 0)
(1.05035 -0.0252501 1.47812e-23)
(1.05169 -0.0200518 0)
(1.052 -0.0152722 0)
(1.05312 -0.0100504 -1.87168e-23)
(1.05436 -0.00452647 -3.87402e-23)
(1.05276 0.000710228 -7.87428e-23)
(1.04975 0.00552814 -1.55545e-22)
(1.04594 0.00927378 -1.36632e-21)
(1.043 0.0134769 1.13658e-21)
(1.03939 0.0166145 -2.41153e-21)
(1.03681 0.0204231 2.26092e-21)
(1.03344 0.0223845 1.21726e-22)
(1.03105 0.0259049 0)
(1.02823 0.0264231 1.01503e-22)
(1.02515 0.0297766 0)
(1.02053 0.0287456 0)
(1.01567 0.0301757 -1.44277e-22)
(1.0105 0.0295052 -2.27188e-21)
(1.00604 0.031023 3.85399e-21)
(1.00117 0.0285579 -3.24712e-21)
(0.994383 0.0280369 2.64666e-22)
(0.990999 0.0215788 1.29584e-21)
(1.01163 -0.00151228 1.20327e-22)
(1.01324 -0.00886412 5.79368e-21)
(1.01375 -0.0133778 -5.52464e-21)
(1.01411 -0.0147654 1.28964e-23)
(1.01576 -0.0154662 3.64962e-21)
(1.01979 -0.0140369 -1.14694e-21)
(1.02279 -0.0118275 0)
(1.02571 -0.0116758 -6.04624e-22)
(1.02993 -0.0124379 2.35022e-22)
(1.03161 -0.0124585 3.7228e-22)
(1.03241 -0.0109435 -6.18866e-24)
(1.03455 -0.00744099 -9.48174e-24)
(1.03676 -0.00412433 -4.88944e-23)
(1.03865 -0.000662581 0)
(1.04033 0.00115845 0)
(1.0424 0.00287345 0)
(1.04397 0.00429463 2.62403e-24)
(1.04598 0.00571129 0)
(1.04771 0.0077268 -4.71559e-23)
(1.04895 0.00967727 8.76217e-24)
(1.05014 0.0119406 -9.44111e-24)
(1.04926 0.0134609 1.93021e-23)
(1.04666 0.0149992 3.99521e-23)
(1.04471 0.0164806 1.41106e-21)
(1.04333 0.0175633 -1.24654e-21)
(1.04166 0.0180214 -1.21188e-21)
(1.03929 0.0183659 1.12868e-21)
(1.03531 0.0171323 -4.14762e-24)
(1.03086 0.016064 1.94867e-21)
(1.0249 0.0131171 -1.95338e-21)
(1.02023 0.0102226 0)
(1.01504 0.00665143 0)
(1.01109 0.00325017 -1.05948e-21)
(1.0089 0.000865008 1.1408e-22)
(1.00866 -0.00174118 2.18557e-21)
(1.00758 -0.00472546 8.37959e-22)
(1.00684 -0.00640052 4.80711e-23)
(1.00593 -0.0065307 -1.74956e-21)
(1.00583 -0.00611114 -1.29275e-21)
(1.00534 -0.00328039 1.28572e-21)
(1.0109 -0.0050286 0)
(1.01205 -0.0123053 1.86821e-22)
(1.01237 -0.0150641 -1.77236e-22)
(1.01288 -0.0156564 0)
(1.01463 -0.0159855 0)
(1.01943 -0.0148227 0)
(1.02279 -0.0138119 -1.18162e-22)
(1.02412 -0.0141275 -9.70019e-23)
(1.02436 -0.0155239 5.15545e-22)
(1.02435 -0.0192877 -5.39414e-22)
(1.02432 -0.0235384 6.41619e-24)
(1.02534 -0.0281413 -2.20847e-22)
(1.02861 -0.0319023 5.17476e-22)
(1.03367 -0.0335395 -2.59432e-22)
(1.03904 -0.0343032 3.46678e-23)
(1.04384 -0.0333021 -6.59168e-22)
(1.0479 -0.0308066 6.5363e-22)
(1.05061 -0.027083 0)
(1.05238 -0.0228108 3.29438e-23)
(1.05395 -0.0174996 -9.04544e-24)
(1.05413 -0.0125424 9.74642e-24)
(1.05485 -0.00770308 0)
(1.05612 -0.00178708 0)
(1.0548 0.00389527 0)
(1.05197 0.00903745 0)
(1.04809 0.0126498 -1.37191e-21)
(1.04436 0.0162476 2.86138e-21)
(1.04074 0.0191592 -3.70711e-21)
(1.03749 0.0227894 2.6843e-21)
(1.0343 0.0245855 2.16331e-21)
(1.03137 0.0279161 -2.16168e-21)
(1.02839 0.0282189 2.03289e-21)
(1.02534 0.0311528 -2.23194e-21)
(1.02021 0.0302924 -1.94963e-22)
(1.01532 0.030254 0)
(1.00996 0.0289756 2.42332e-21)
(1.00483 0.0291205 -4.60694e-22)
(1.00073 0.0265118 -2.18421e-21)
(0.996031 0.0245437 -1.3737e-21)
(0.99458 0.0178535 2.71295e-21)
(1.00972 -0.00875669 -3.55603e-21)
(1.01055 -0.0149815 2.80681e-21)
(1.01079 -0.0164796 -2.83363e-21)
(1.01146 -0.0165874 -2.68744e-21)
(1.01343 -0.0171669 2.68967e-21)
(1.01878 -0.0166331 1.40055e-22)
(1.02333 -0.0148338 1.21971e-22)
(1.02558 -0.0140965 4.82448e-24)
(1.02886 -0.0151475 -3.77529e-22)
(1.03173 -0.0166757 3.99578e-22)
(1.03343 -0.0172644 0)
(1.03569 -0.0161701 0)
(1.03847 -0.0141914 0)
(1.04136 -0.0109649 6.1201e-22)
(1.0439 -0.00883275 -5.92293e-22)
(1.04653 -0.00640679 -9.47224e-23)
(1.04872 -0.00367171 0)
(1.05062 -0.00132015 0)
(1.05256 0.00172576 0)
(1.0538 0.00493674 0)
(1.05523 0.00823381 -1.09971e-23)
(1.05444 0.0113077 0)
(1.05172 0.0138707 0)
(1.04972 0.0164588 1.62319e-21)
(1.0482 0.0186374 8.93271e-23)
(1.04611 0.0198478 -1.51359e-21)
(1.04331 0.0213647 0)
(1.03935 0.0213624 -2.47722e-21)
(1.03504 0.0214672 2.17482e-22)
(1.02899 0.0192239 2.42069e-21)
(1.02411 0.0169107 -1.36131e-22)
(1.01861 0.0133143 0)
(1.01427 0.0101842 -1.48465e-21)
(1.01187 0.00743506 5.30852e-22)
(1.0117 0.00599415 1.34977e-21)
(1.01028 0.00358859 -1.64175e-22)
(1.00893 0.00275416 1.44861e-22)
(1.00759 0.00223439 -1.66906e-21)
(1.00662 0.00253178 1.66584e-21)
(1.00452 0.00468736 0)
(1.00856 -0.0118157 -3.53289e-21)
(1.00904 -0.0167637 2.91184e-21)
(1.00928 -0.0177031 -1.43755e-22)
(1.0101 -0.0176411 -5.71965e-21)
(1.01227 -0.0185096 2.79147e-21)
(1.01798 -0.0183151 -1.44754e-22)
(1.02306 -0.016567 0)
(1.02685 -0.0158081 2.43603e-24)
(1.02949 -0.0168836 -3.5112e-22)
(1.03055 -0.0201861 4.34047e-22)
(1.03068 -0.0234301 0)
(1.03163 -0.0264831 0)
(1.03379 -0.0294621 -4.074e-22)
(1.03765 -0.0308825 2.46241e-22)
(1.04228 -0.0316002 0)
(1.04653 -0.0306023 -8.18061e-22)
(1.05067 -0.0281044 8.70183e-22)
(1.05364 -0.0244837 0)
(1.05565 -0.0203033 0)
(1.05729 -0.0149479 1.10892e-23)
(1.05767 -0.00966626 1.13774e-23)
(1.058 -0.00487242 0)
(1.05882 0.00118677 0)
(1.05755 0.00714138 -1.00117e-22)
(1.05507 0.0126344 -1.00323e-22)
(1.05138 0.0166297 0)
(1.04711 0.0199183 -1.52203e-21)
(1.04278 0.0221181 1.52657e-21)
(1.03911 0.0256263 0)
(1.03554 0.0271603 0)
(1.03224 0.0303957 0)
(1.02871 0.0306053 0)
(1.02561 0.032857 0)
(1.02027 0.0319175 -2.06052e-21)
(1.01501 0.0310608 1.83856e-21)
(1.00963 0.0288229 1.6957e-22)
(1.00527 0.0281211 -2.69818e-21)
(1.00219 0.0247866 2.51501e-21)
(0.998752 0.0219371 0)
(0.997647 0.016109 1.01822e-22)
(1.00737 -0.0140981 2.22781e-22)
(1.0078 -0.0181245 3.44602e-21)
(1.00819 -0.0192076 -3.23447e-21)
(1.00919 -0.0190894 -2.67815e-21)
(1.01154 -0.0200611 4.16019e-21)
(1.01765 -0.0203498 -1.13408e-21)
(1.02378 -0.018853 -7.61184e-22)
(1.02749 -0.0176986 1.6439e-21)
(1.03087 -0.0188287 -3.59586e-22)
(1.034 -0.02086 -3.86256e-22)
(1.0357 -0.022572 0)
(1.03784 -0.0229646 0)
(1.04049 -0.022503 4.22784e-23)
(1.04403 -0.0202393 7.316e-22)
(1.04725 -0.0179986 -6.68228e-22)
(1.05028 -0.0153936 -1.03986e-21)
(1.05335 -0.0117656 1.04161e-21)
(1.05559 -0.00855358 0)
(1.05786 -0.00459657 0)
(1.05931 -6.44524e-05 -1.14862e-23)
(1.06055 0.00440493 -1.30238e-23)
(1.06019 0.00892184 0)
(1.05775 0.0127425 0)
(1.05562 0.016302 1.78087e-21)
(1.05396 0.0196552 -1.77772e-21)
(1.05133 0.0219095 -1.72126e-21)
(1.04804 0.0244361 1.71757e-21)
(1.04356 0.0253751 -4.01594e-22)
(1.03927 0.026774 2.86215e-21)
(1.03335 0.0254483 -2.85154e-21)
(1.02817 0.0241943 0)
(1.0227 0.0208619 0)
(1.01791 0.0182307 -1.80255e-21)
(1.01522 0.015231 -9.50424e-23)
(1.01415 0.0145932 3.38078e-21)
(1.01233 0.0125936 -1.71076e-21)
(1.01045 0.012024 2.79331e-21)
(1.00872 0.0108933 -4.73557e-21)
(1.00619 0.0114938 2.60948e-22)
(1.0032 0.0112671 1.73824e-21)
(1.00672 -0.0158862 0)
(1.0072 -0.0193515 3.15521e-21)
(1.00769 -0.0207905 -6.78284e-21)
(1.00878 -0.0207194 3.00942e-21)
(1.01095 -0.0218932 -1.77632e-22)
(1.01682 -0.0227678 -1.24613e-21)
(1.02337 -0.0215034 8.55828e-22)
(1.02783 -0.0198408 0)
(1.03221 -0.0204021 -2.78646e-22)
(1.03544 -0.0228083 3.22218e-22)
(1.0364 -0.0252471 0)
(1.03744 -0.027037 -6.38004e-22)
(1.03922 -0.0291509 6.39947e-22)
(1.04264 -0.0300533 0)
(1.04682 -0.0302267 7.93831e-22)
(1.05072 -0.0292324 -9.02239e-22)
(1.05509 -0.0263824 -7.77796e-23)
(1.05821 -0.0226722 0)
(1.0603 -0.0183192 4.91558e-23)
(1.06218 -0.012691 0)
(1.06258 -0.00698576 -6.5167e-25)
(1.06276 -0.00203031 -5.92796e-23)
(1.06333 0.00415932 -1.22308e-22)
(1.06182 0.0103989 0)
(1.05944 0.0162782 0)
(1.0558 0.0208041 -1.86337e-21)
(1.0515 0.0247045 3.64493e-21)
(1.04627 0.0263427 1.80728e-21)
(1.04171 0.02916 -6.74337e-21)
(1.03747 0.0304548 3.15865e-21)
(1.03365 0.0334697 0)
(1.02952 0.0336684 0)
(1.02629 0.0353832 0)
(1.0211 0.0341859 2.49844e-22)
(1.01533 0.0327598 -4.62003e-22)
(1.01063 0.0297892 1.99456e-22)
(1.00672 0.0283354 2.4181e-21)
(1.00444 0.0244116 -2.92958e-21)
(1.00132 0.0220001 1.42413e-22)
(1.00052 0.0173801 1.84503e-21)
(1.00599 -0.0174269 -4.27361e-21)
(1.00671 -0.0206455 2.25649e-22)
(1.00724 -0.0226046 3.33186e-21)
(1.00842 -0.0226747 -6.24203e-21)
(1.01033 -0.0239667 4.65078e-21)
(1.01525 -0.025501 -1.36623e-21)
(1.02219 -0.0246256 2.52542e-22)
(1.02772 -0.022504 6.3783e-22)
(1.03273 -0.0228335 -1.01729e-21)
(1.0365 -0.0248416 2.96715e-22)
(1.03809 -0.026967 3.75833e-23)
(1.04005 -0.0280455 7.74282e-22)
(1.04277 -0.0289744 -7.12245e-22)
(1.04663 -0.0280558 0)
(1.05091 -0.026002 1.1061e-22)
(1.05431 -0.0237146 -1.25459e-21)
(1.05824 -0.0195481 1.33742e-21)
(1.06114 -0.0152616 -8.16895e-22)
(1.06345 -0.0107995 7.11743e-22)
(1.06544 -0.00498164 -1.48167e-23)
(1.06672 0.000832814 5.23823e-22)
(1.06673 0.00661524 -1.49746e-21)
(1.06485 0.011696 1.0413e-21)
(1.06239 0.0162454 2.11468e-21)
(1.06045 0.0209077 -2.11046e-21)
(1.05751 0.0245789 -2.03986e-21)
(1.05382 0.0281227 1.77822e-21)
(1.04852 0.0295924 2.43593e-22)
(1.04395 0.0320938 2.17112e-22)
(1.03795 0.031673 3.11661e-21)
(1.03245 0.0316057 -3.48823e-21)
(1.02685 0.0290398 0)
(1.02191 0.0270639 3.17582e-22)
(1.01836 0.0241019 -2.02007e-21)
(1.01646 0.0238773 3.85375e-21)
(1.01424 0.0218276 -1.84416e-21)
(1.01098 0.0212427 3.156e-21)
(1.00888 0.0193461 -3.55519e-22)
(1.00512 0.0193529 -4.99761e-21)
(1.00279 0.0171072 2.10825e-21)
(1.00605 -0.0192014 5.09301e-22)
(1.00661 -0.0222215 3.67277e-21)
(1.007 -0.0246286 -3.25028e-21)
(1.00805 -0.0249063 -4.23779e-22)
(1.00977 -0.0261481 0)
(1.01383 -0.0281438 0)
(1.02086 -0.0278849 -1.29613e-22)
(1.02691 -0.0256653 0)
(1.03255 -0.0254502 2.77058e-22)
(1.03754 -0.027002 -1.61105e-22)
(1.04005 -0.0288682 -1.11187e-22)
(1.04223 -0.0300001 -4.68148e-23)
(1.04485 -0.0315755 7.41239e-24)
(1.04809 -0.0320655 -1.04713e-22)
(1.0526 -0.031303 0)
(1.05615 -0.0299301 0)
(1.06029 -0.0266679 9.70017e-23)
(1.06401 -0.0222133 -1.0988e-22)
(1.0664 -0.0175367 5.70483e-23)
(1.0684 -0.0116438 1.54145e-23)
(1.06917 -0.0050492 0)
(1.06953 0.0006033 0)
(1.06956 0.00698922 2.8863e-22)
(1.06748 0.0134919 2.16431e-21)
(1.06498 0.0199486 -2.45846e-21)
(1.06147 0.0249127 0)
(1.05746 0.029668 2.67092e-22)
(1.05187 0.0319027 -2.53236e-22)
(1.04658 0.0344704 -3.75625e-21)
(1.04094 0.0350718 3.50882e-21)
(1.03634 0.0375811 4.0059e-22)
(1.03118 0.0375687 0)
(1.02756 0.0390527 -3.29826e-22)
(1.0224 0.0377354 -3.18293e-22)
(1.01662 0.036095 2.66465e-22)
(1.01259 0.0325682 3.7219e-21)
(1.00854 0.0308176 -4.0932e-22)
(1.00682 0.0268302 -3.08287e-21)
(1.00351 0.025015 -1.7185e-22)
(1.00209 0.0209865 1.41106e-22)
(1.00535 -0.0207298 -4.66683e-21)
(1.00609 -0.0238223 3.85771e-21)
(1.00662 -0.0267714 -7.74919e-21)
(1.00769 -0.0272116 7.46513e-21)
(1.00945 -0.028358 -3.38655e-21)
(1.013 -0.0308249 -1.18299e-21)
(1.01968 -0.0315208 1.19066e-21)
(1.02611 -0.0294645 6.11619e-22)
(1.03231 -0.0286663 -7.97324e-22)
(1.03849 -0.0297306 3.76874e-23)
(1.04198 -0.0315228 1.91756e-22)
(1.04447 -0.0327321 4.87284e-23)
(1.0475 -0.0342028 6.17269e-22)
(1.05101 -0.0344046 3.69656e-22)
(1.056 -0.0327216 -1.20212e-21)
(1.05994 -0.030497 -1.65391e-21)
(1.06408 -0.0265352 1.46184e-21)
(1.06786 -0.0213915 -9.09773e-24)
(1.07059 -0.0160943 -6.81018e-23)
(1.07257 -0.0095945 0)
(1.07385 -0.00251295 1.93883e-23)
(1.07432 0.0045721 0)
(1.07324 0.011153 -1.5465e-22)
(1.07049 0.0167677 -1.0158e-23)
(1.06807 0.0227993 -2.21549e-21)
(1.06476 0.0274392 2.52928e-21)
(1.06085 0.0324634 -2.3593e-21)
(1.05504 0.0347756 -2.38761e-21)
(1.04983 0.0379692 4.70362e-21)
(1.04337 0.0384426 2.41448e-22)
(1.03771 0.0394096 0)
(1.03142 0.0376205 3.07923e-21)
(1.02599 0.0365126 -3.06292e-21)
(1.02161 0.0336001 3.30997e-22)
(1.01839 0.0334939 0)
(1.01558 0.031133 0)
(1.01108 0.0303462 0)
(1.00887 0.0273054 0)
(1.00502 0.0264869 3.12973e-21)
(1.00279 0.0229524 -5.02469e-21)
(1.00512 -0.0233013 4.34368e-21)
(1.00632 -0.026304 -5.84236e-22)
(1.0069 -0.0292488 -7.90031e-21)
(1.00788 -0.0298178 8.22301e-23)
(1.00968 -0.0308301 3.54279e-21)
(1.01257 -0.0336671 0)
(1.01864 -0.0354433 0)
(1.02534 -0.0337308 0)
(1.03203 -0.032524 1.30127e-22)
(1.03922 -0.0331262 -1.84903e-22)
(1.04401 -0.0346427 -3.65963e-23)
(1.04731 -0.0355599 1.26347e-21)
(1.05097 -0.0365399 -1.17785e-21)
(1.05442 -0.0367388 1.38468e-22)
(1.05935 -0.0353312 -1.51522e-23)
(1.06355 -0.0331431 -8.50193e-24)
(1.06765 -0.0295268 0)
(1.0717 -0.0242915 2.68151e-22)
(1.07466 -0.0185247 7.10724e-23)
(1.07679 -0.0120114 2.05464e-23)
(1.07777 -0.00461526 -7.21127e-22)
(1.07804 0.00227501 7.68814e-22)
(1.07792 0.00947986 -1.84064e-22)
(1.07552 0.0164232 1.7321e-22)
(1.07269 0.0234589 -3.55281e-22)
(1.06894 0.0288695 -2.37682e-21)
(1.06504 0.0345628 2.7284e-21)
(1.05896 0.0377396 4.9053e-21)
(1.05328 0.0413049 -9.23664e-22)
(1.04649 0.0418568 -4.55938e-21)
(1.04073 0.0437987 0)
(1.03453 0.0432509 -4.72908e-22)
(1.02977 0.0444374 0)
(1.02461 0.0428384 -2.47464e-21)
(1.01872 0.0416516 5.375e-21)
(1.01514 0.0378792 -6.99648e-21)
(1.01051 0.0364922 8.67989e-21)
(1.00854 0.0322707 -4.17168e-21)
(1.00487 0.0309026 2.86124e-21)
(1.0028 0.0263642 -3.00769e-21)
(1.00474 -0.0260049 -3.02128e-22)
(1.00618 -0.028258 4.85698e-21)
(1.00681 -0.0313936 -4.32972e-21)
(1.00764 -0.032467 2.44048e-22)
(1.00956 -0.0334958 0)
(1.01231 -0.0365785 -1.82749e-22)
(1.01781 -0.039445 0)
(1.02442 -0.0384086 6.50198e-22)
(1.03158 -0.0370548 -4.85279e-22)
(1.03989 -0.0373236 -1.43104e-22)
(1.04622 -0.0383169 3.82181e-23)
(1.05037 -0.0388556 8.15718e-23)
(1.05472 -0.0394502 0)
(1.05841 -0.0396851 1.23049e-21)
(1.06321 -0.0384321 -1.19513e-21)
(1.06783 -0.0359478 -1.88989e-21)
(1.07209 -0.031974 2.14603e-21)
(1.07622 -0.0263871 -1.45524e-22)
(1.07949 -0.0199138 6.01666e-22)
(1.08179 -0.012754 -7.10026e-22)
(1.08283 -0.00498106 2.2623e-23)
(1.08314 0.00293439 -1.9523e-22)
(1.08306 0.011037 1.92468e-22)
(1.08046 0.0180181 -2.07734e-22)
(1.07752 0.0255044 1.91677e-22)
(1.07346 0.0309754 -3.83325e-21)
(1.06947 0.037144 3.43385e-21)
(1.06332 0.0409053 5.47594e-21)
(1.05747 0.045026 -5.50139e-21)
(1.05017 0.0460745 -3.17277e-22)
(1.04382 0.0480657 0)
(1.03703 0.0468846 4.35548e-21)
(1.03082 0.0467565 -3.36534e-21)
(1.02563 0.0437198 -3.07437e-21)
(1.02037 0.0435952 2.69953e-21)
(1.01719 0.0403782 0)
(1.01193 0.0396183 4.08738e-21)
(1.00933 0.0355729 -4.08824e-21)
(1.00547 0.0346566 0)
(1.00324 0.0297461 -1.90309e-22)
(1.00436 -0.0282563 -6.7556e-23)
(1.00604 -0.0306575 -5.25113e-21)
(1.00716 -0.0342659 4.23769e-21)
(1.00791 -0.0360295 -8.41981e-21)
(1.00989 -0.0370556 5.84827e-21)
(1.01265 -0.0399103 -1.51241e-21)
(1.01761 -0.0437791 0)
(1.02372 -0.0437135 -9.46245e-23)
(1.03094 -0.0423858 6.65716e-24)
(1.04009 -0.042468 6.13679e-23)
(1.04804 -0.042934 -5.9136e-23)
(1.05333 -0.0429684 1.79647e-21)
(1.05855 -0.0429611 -2.88076e-21)
(1.06311 -0.0427136 1.23526e-21)
(1.06794 -0.0415071 0)
(1.07273 -0.0387338 0)
(1.07719 -0.0345305 -1.47302e-22)
(1.08117 -0.0288755 1.26188e-21)
(1.08471 -0.0218455 -2.03565e-21)
(1.08752 -0.0142394 7.81422e-22)
(1.08902 -0.0057708 -8.93053e-22)
(1.08895 0.00229033 8.56406e-22)
(1.08896 0.0109317 2.33821e-22)
(1.08677 0.0188093 3.80793e-21)
(1.0835 0.027006 -3.58264e-21)
(1.07902 0.0331026 -3.46362e-21)
(1.07458 0.0397389 -2.70303e-22)
(1.0683 0.0439333 -2.52828e-21)
(1.06225 0.0489728 6.90605e-21)
(1.05452 0.0504964 6.89509e-22)
(1.04767 0.052853 -6.53845e-22)
(1.04043 0.0518025 5.92446e-22)
(1.03391 0.05267 -4.95769e-22)
(1.02858 0.050364 -3.95562e-21)
(1.02185 0.0500124 7.00714e-21)
(1.01817 0.0458912 -3.09992e-21)
(1.01272 0.0448131 0)
(1.00971 0.0403686 0)
(1.00559 0.0394039 0)
(1.00364 0.0342647 -3.34154e-21)
(1.00331 -0.0318492 0)
(1.00561 -0.0343459 4.8908e-21)
(1.0075 -0.0377426 -5.23039e-21)
(1.00837 -0.039835 4.11452e-21)
(1.01029 -0.0409108 -4.63687e-21)
(1.01307 -0.0434925 -2.0263e-22)
(1.0178 -0.0480685 1.41263e-22)
(1.02326 -0.0492008 0)
(1.03002 -0.0481622 -6.93032e-23)
(1.03951 -0.0483847 6.9711e-23)
(1.04908 -0.0484381 6.20182e-23)
(1.05613 -0.0477522 -2.23879e-21)
(1.06225 -0.0470761 1.99739e-21)
(1.06797 -0.0461986 1.63097e-21)
(1.07338 -0.0447927 -1.85591e-21)
(1.07833 -0.0418477 -1.61365e-22)
(1.08315 -0.0371356 0)
(1.08728 -0.0313911 1.893e-22)
(1.0908 -0.0241294 -1.03397e-22)
(1.09369 -0.0158654 0)
(1.09562 -0.00677207 2.90985e-23)
(1.09573 0.00199052 1.20301e-22)
(1.09531 0.011097 -2.45552e-22)
(1.09343 0.0197912 0)
(1.09026 0.028925 2.63753e-22)
(1.08544 0.0356962 -2.89345e-21)
(1.08061 0.0428216 3.87046e-21)
(1.07387 0.0473649 -7.0047e-21)