/*--------------------------------*- C++ -*----------------------------------*\
  =========                 |
  \\      /  F ield         | OpenFOAM: The Open Source CFD Toolbox
   \\    /   O peration     | Website:  https://openfoam.org
    \\  /    A nd           | Version:  10
     \\/     M anipulation  |
\*---------------------------------------------------------------------------*/
FoamFile
{
    format      ascii;
    class       surfaceScalarField;
    location    "0.099538";
    object      phi;
}
// * * * * * * * * * * * * * * * * * * * * * * * * * * * * * * * * * * * * * //

dimensions      [1 0 -1 0 0 0 0];

internalField   nonuniform List<scalar> 
32368
(
-4.20253e-05
0.000214053
-4.83238e-06
0.000235128
2.82618e-05
0.000247004
5.95766e-05
0.0002512
9.19344e-05
0.000250203
0.000127385
0.000243171
0.000166293
0.000229416
0.000208154
0.000206103
0.000251863
0.000171
0.000296587
0.000129229
0.0003444
8.26198e-05
0.000390172
3.67691e-05
0.000427625
-3.33924e-07
0.000463797
-2.86964e-05
0.000513619
-4.80074e-05
0.0005641
-6.07304e-05
0.000596092
-6.60401e-05
0.000617379
-6.86686e-05
0.000622883
-6.87655e-05
0.000611664
-7.13526e-05
0.000584325
-8.75163e-05
0.000557908
-0.00013643
0.000530781
-5.0447e-05
0.000469613
-1.19527e-05
0.000419074
-5.92189e-05
0.000362143
-0.000153673
0.000293838
-0.000235153
0.000216408
-0.000297554
0.00014393
-0.000339535
0.000115566
-0.000311124
0.00010463
-0.000249244
0.000106129
-0.000211703
-0.000195028
0.000106172
-2.53221e-05
0.000213426
6.42842e-06
0.000246001
3.38869e-05
0.000262737
5.91133e-05
0.000268036
8.6771e-05
0.000263943
0.000118683
0.000251522
0.000155913
0.000230985
0.000198799
0.00020191
0.000247447
0.000162644
0.000299439
0.000117885
0.000351833
7.11882e-05
0.000402928
2.89737e-05
0.000461422
-2.45193e-06
0.000526341
-2.93872e-05
0.000584576
-4.70515e-05
0.000626534
-5.6522e-05
0.000642132
-5.98352e-05
0.0006451
-6.07465e-05
0.000633236
-6.09946e-05
0.000609499
-6.38633e-05
0.000575945
-8.77921e-05
0.000524191
-0.000117623
0.000479611
3.55733e-06
0.000423172
5.96659e-05
0.000385267
-3.79581e-06
0.000335511
-0.000108824
0.000262631
-0.000200308
0.000171933
-0.000276223
0.000106382
-0.00031731
9.23103e-05
-0.000287921
8.7181e-05
-0.000222468
9.09485e-05
-0.000188748
-0.00017125
9.1011e-05
-8.78934e-06
0.000213765
1.48912e-05
0.000258582
3.36049e-05
0.000278825
5.10863e-05
0.000283915
7.25517e-05
0.000276632
0.00010057
0.000258105
0.000138356
0.000230179
0.000186478
0.000194531
0.000242519
0.000152808
0.000303808
0.000108166
0.000374382
6.63398e-05
0.000448628
3.03275e-05
0.000521334
2.38946e-06
0.000583869
-1.94397e-05
0.000633429
-3.34439e-05
0.000664753
-3.99151e-05
0.000676115
-4.19809e-05
0.000670563
-4.19352e-05
0.000646126
-4.165e-05
0.000621233
-5.05155e-05
0.000587369
-8.63973e-05
0.000509041
-3.61391e-05
0.000433554
8.8961e-05
0.000376404
0.000137515
0.000343016
4.65384e-05
0.000295408
-7.23645e-05
0.000210903
-0.000174798
0.000115468
-0.000258006
7.20931e-05
-0.000295191
7.30859e-05
-0.000266656
7.41352e-05
-0.000203888
7.99842e-05
-0.000170671
-0.000149669
8.29043e-05
4.95007e-06
0.00024301
1.20747e-05
0.000274236
2.14097e-05
0.000297432
3.06288e-05
0.000301871
4.70675e-05
0.000290388
7.58406e-05
0.000261214
0.000118842
0.000225775
0.000175637
0.000185407
0.000244478
0.000143754
0.000323997
0.000103698
0.000407422
6.54187e-05
0.000491916
3.59052e-05
0.000568521
1.61498e-05
0.00063126
3.29868e-06
0.000677605
-3.23001e-06
0.000705305
-6.14482e-06
0.000712387
-6.71419e-06
0.000702836
-5.42581e-06
0.000672267
-6.68024e-06
0.000637199
-2.29421e-05
0.000569135
-6.0949e-05
0.000476423
8.91568e-05
0.000371365
0.000215021
0.000330649
0.000199989
0.000302355
8.37396e-05
0.000243164
-4.53705e-05
0.000140916
-0.000161
6.11559e-05
-0.000240236
4.58404e-05
-0.000273203
5.94919e-05
-0.000247729
6.63798e-05
-0.000185607
7.52599e-05
-0.000152734
-0.000127922
8.08463e-05
-1.45652e-05
0.000241438
-1.34483e-05
0.000297276
-1.19847e-05
0.000320092
-5.11209e-06
0.000318946
1.30331e-05
0.000299483
4.89716e-05
0.000261025
0.000103051
0.000219915
0.00017602
0.000178341
0.000262128
0.000139981
0.000359965
0.000103311
0.000456866
7.23625e-05
0.000545939
5.51665e-05
0.000622593
4.42364e-05
0.000681268
3.75275e-05
0.000721742
3.45432e-05
0.000745911
3.46314e-05
0.000742701
3.44395e-05
0.000728269
3.68676e-05
0.000686985
3.58405e-05
0.000630199
1.21602e-05
0.000507418
4.01841e-05
0.000381977
0.000238231
0.000296265
0.000323381
0.000278461
0.000243904
0.000250542
0.000104168
0.00016917
-3.73698e-05
6.57788e-05
-0.000156965
1.99957e-05
-0.000222161
2.88292e-05
-0.000251234
5.05165e-05
-0.000230632
6.12927e-05
-0.00016964
7.36308e-05
-0.000135003
-0.000106686
8.24845e-05
-7.7414e-05
0.00022684
-7.43092e-05
0.000306165
-6.6916e-05
0.000333888
-4.92542e-05
0.000329195
-1.8704e-05
0.000304641
3.58977e-05
0.000259705
0.000110985
0.000212353
0.000202857
0.000171961
0.000311275
0.000136666
0.000420209
0.000109283
0.000515885
9.56758e-05
0.000601723
8.80621e-05
0.000672786
8.46976e-05
0.000721874
8.35949e-05
0.000752355
8.41094e-05
0.000772386
8.54043e-05
0.000748229
8.55222e-05
0.000720335
8.94829e-05
0.000667142
8.75446e-05
0.000558017
6.52632e-05
0.00037432
0.000230933
0.000253971
0.000380938
0.000223678
0.00038149
0.000223702
0.000256076
0.000181979
0.0001017
8.15658e-05
-5.20035e-05
5.49535e-06
-0.000151911
-8.01864e-06
-0.000201649
1.78016e-05
-0.000231293
4.49293e-05
-0.0002135
5.88686e-05
-0.000153932
7.38941e-05
-0.00011745
-8.6414e-05
8.6362e-05
-0.000177546
0.000218376
-0.000162378
0.000300528
-0.000131295
0.00032955
-9.27358e-05
0.000323631
-3.75678e-05
0.000295749
4.79877e-05
0.000238625
0.000147246
0.000196397
0.000269631
0.000160654
0.0003943
0.000135285
0.000498334
0.000127449
0.000582129
0.000124454
0.000654952
0.000125865
0.000711032
0.000128347
0.000745017
0.000129208
0.000760446
0.000131207
0.000759941
0.000129933
0.000729433
0.000136732
0.000665923
0.000146712
0.000567601
0.000142212
0.000350443
0.000205156
0.000196977
0.000391621
0.00015031
0.000460121
0.000163683
0.000386212
0.000164974
0.000236741
9.58819e-05
6.99558e-05
6.13273e-06
-7.00376e-05
-3.22548e-05
-0.000138359
-2.22316e-05
-0.000179818
1.04121e-05
-0.000212195
4.16708e-05
-0.000195778
5.81777e-05
-0.000138138
7.59814e-05
-0.000100225
-6.68603e-05
9.20455e-05
-0.000262847
0.000211723
-0.000235626
0.000278286
-0.00018986
0.000302489
-0.000121384
0.000286923
-2.51693e-05
0.000245738
9.76431e-05
0.000200391
0.000243223
0.000163644
0.000376393
0.000141324
0.000481137
0.00014025
0.000566169
0.000143193
0.000629734
0.000145815
0.000681294
0.000146836
0.000713584
0.00014374
0.000726594
0.00013896
0.000724392
0.000138231
0.000693687
0.000147111
0.000638278
0.000167076
0.000534113
0.000185917
0.000323438
0.000209924
0.000119771
0.000353296
5.20669e-05
0.000480109
7.63584e-05
0.000457368
0.000114979
0.000352026
9.28758e-05
0.000188041
1.44063e-05
2.68411e-05
-3.99828e-05
-7.38468e-05
-4.90095e-05
-0.000119519
-2.99737e-05
-0.000157488
5.62483e-06
-0.000191616
3.98322e-05
-0.000177865
5.87742e-05
-0.000122914
7.85774e-05
-8.36631e-05
-4.86561e-05
9.78779e-05
-0.00031267
0.000205152
-0.000287287
0.00025033
-0.000230258
0.000257074
-0.000115236
0.000212053
5.36767e-05
0.000150401
0.000225633
0.000121772
0.000363844
0.000110818
0.000461742
0.000120632
0.000537308
0.000124232
0.000587544
0.000123718
0.000620169
0.000118222
0.000643766
0.000109103
0.000649509
9.62403e-05
0.00064349
8.4828e-05
0.000621419
8.16619e-05
0.000578113
9.30343e-05
0.000494612
0.000123587
0.00033298
0.000182826
6.61485e-05
0.00027279
-3.74021e-05
0.000429794
-1.43663e-05
0.000458015
3.28177e-05
0.000413975
6.05575e-05
0.000284771
1.9537e-05
0.000123208
-3.82299e-05
-2.36294e-06
-6.03726e-05
-6.4143e-05
-5.5399e-05
-9.88727e-05
-3.31155e-05
-0.000134021
2.89594e-06
-0.000169532
3.93096e-05
-0.000159475
5.99519e-05
-0.00010852
8.13695e-05
-6.78509e-05
-3.23007e-05
0.000103674
-0.000340419
0.000198624
-0.000319734
0.000218873
-0.000205592
0.000146669
2.043e-05
1.9759e-05
0.00020081
1.08244e-05
0.000327322
2.66022e-05
0.000411325
5.12683e-05
0.000472123
7.35547e-05
0.000513574
8.36909e-05
0.000537081
8.51282e-05
0.00054734
7.80508e-05
0.000551864
6.54604e-05
0.000546515
4.87564e-05
0.000530506
3.73341e-05
0.00049919
3.43438e-05
0.000442379
4.56337e-05
0.000332991
7.94571e-05
0.000123592
0.00015601
-9.36401e-05
0.000310434
-9.54041e-05
0.000402372
-5.09117e-05
0.000403399
1.02119e-07
0.000335479
9.34158e-06
0.000206233
-3.06576e-05
7.72507e-05
-6.30149e-05
-5.01418e-06
-6.67818e-05
-4.74158e-05
-5.57454e-05
-7.67819e-05
-3.33944e-05
-0.000110052
2.50208e-06
-0.000146837
3.99016e-05
-0.000139448
6.19802e-05
-9.43712e-05
8.47381e-05
-5.3173e-05
-1.79407e-05
0.000109073
-0.000328765
0.00017881
-0.000247781
0.000107058
-8.18845e-06
-8.59483e-05
0.000145995
-0.000123175
0.000247914
-8.2994e-05
0.000322753
-3.94842e-05
0.000374939
4.96117e-06
0.000415245
3.35928e-05
0.000439009
4.70883e-05
0.000451163
5.08576e-05
0.000455984
4.61958e-05
0.000456815
3.56227e-05
0.000448525
2.2371e-05
0.000432709
1.39823e-05
0.000400481
1.27453e-05
0.000343202
2.47092e-05
0.00023365
6.19141e-05
2.55462e-05
0.00014526
-0.000138627
0.000301453
-0.000111552
0.00035497
-6.36364e-05
0.000332727
-2.6318e-05
0.0002574
-2.5154e-05
0.000152191
-5.26371e-05
6.24947e-05
-6.93266e-05
8.16523e-06
-6.61373e-05
-2.65128e-05
-5.28904e-05
-5.38155e-05
-3.16057e-05
-8.5562e-05
3.5599e-06
-0.000123577
4.08453e-05
-0.000118682
6.4242e-05
-8.02322e-05
8.82636e-05
-3.98114e-05
-4.89212e-06
0.000113859
-0.000259301
0.000120261
-4.39392e-05
-0.000100825
8.9354e-05
-0.000203932
0.00015341
-0.00016659
0.000208275
-0.000120169
0.000252873
-7.60342e-05
0.000292736
-3.6069e-05
0.000323841
-2.7752e-06
0.000346966
1.82233e-05
0.000364685
2.73379e-05
0.000375135
2.93618e-05
0.000379573
2.52793e-05
0.000374368
1.73348e-05
0.000360001
1.10482e-05
0.000329464
1.18042e-05
0.000276496
2.71909e-05
0.000177494
6.6582e-05
-6.01836e-06
0.000147046
-0.000139244
0.000290623
-0.000107211
0.000310843
-6.73696e-05
0.00027765
-4.10619e-05
0.000210959
-3.95429e-05
0.000132256
-5.42182e-05
6.97468e-05
-6.42306e-05
2.98101e-05
-6.0876e-05
-1.2828e-06
-4.77686e-05
-2.98742e-05
-2.80629e-05
-6.07702e-05
5.62909e-06
-9.96134e-05
4.25353e-05
-9.76174e-05
6.67769e-05
-6.647e-05
9.12701e-05
-2.73021e-05
7.19691e-06
0.000118613
-8.31217e-05
-2.01358e-05
7.23256e-05
-0.000230208
0.00010145
-0.000207658
0.000127452
-0.000179703
0.000151012
-0.000148786
0.000177776
-0.000113978
0.000206826
-7.37712e-05
0.000237361
-3.26055e-05
0.000269727
-2.11359e-06
0.000296645
1.58024e-05
0.000314635
2.50602e-05
0.000323066
2.67701e-05
0.000319723
2.23862e-05
0.000304312
1.83114e-05
0.000274757
2.15266e-05
0.000228116
4.11407e-05
0.000141376
8.17669e-05
-2.10515e-05
0.000159728
-0.000131329
0.000283689
-9.96007e-05
0.000286881
-6.72593e-05
0.000252204
-4.59534e-05
0.00019737
-4.10287e-05
0.000137044
-4.77592e-05
8.88546e-05
-5.33975e-05
5.42674e-05
-5.15631e-05
2.64879e-05
-4.12499e-05
-3.54152e-06
-2.31041e-05
-3.63072e-05
8.36928e-06
-7.53582e-05
4.44244e-05
-7.58736e-05
6.9852e-05
-5.24948e-05
9.40919e-05
-1.48817e-05
1.84501e-05
0.00012214
5.56525e-05
-0.000163527
7.98983e-05
-0.000230908
8.52799e-05
-0.000213364
9.53189e-05
-0.000198092
0.00011164
-0.000176143
0.000132806
-0.000144548
0.000157088
-0.000104545
0.000181853
-5.7393e-05
0.000214515
-1.58756e-05
0.000248317
1.01055e-05
0.000270109
2.5341e-05
0.000278304
3.03649e-05
0.000273032
2.82261e-05
0.000256658
2.6661e-05
0.00022854
3.36836e-05
0.000190576
5.88738e-05
0.000115614
0.000101456
-3.21948e-05
0.000179149
-0.00012464
0.000288112
-9.50225e-05
0.000282379
-6.6302e-05
0.000250629
-4.51915e-05
0.000205365
-3.64966e-05
0.000155662
-3.82572e-05
0.000113642
-4.24633e-05
8.01356e-05
-3.99944e-05
5.26758e-05
-3.33533e-05
2.4723e-05
-1.7069e-05
-1.23679e-05
1.1818e-05
-5.09688e-05
4.6388e-05
-5.38975e-05
7.40783e-05
-3.74494e-05
9.6958e-05
-2.49642e-06
2.81675e-05
0.000124982
5.81612e-05
-0.00020229
6.01975e-05
-0.000228095
6.67936e-05
-0.000219968
7.66941e-05
-0.000210987
9.01171e-05
-0.00019387
0.000106424
-0.00016462
0.000125918
-0.00012607
0.000148513
-7.74767e-05
0.000178636
-2.89567e-05
0.000212379
3.23192e-06
0.000232102
2.2573e-05
0.000238334
2.92443e-05
0.000231502
2.96957e-05
0.000215707
3.28745e-05
0.000191797
4.67546e-05
0.000159583
7.70559e-05
9.12657e-05
0.000123058
-5.51679e-05
0.000204197
-0.000121371
0.000300551
-9.3671e-05
0.00029106
-6.56044e-05
0.00026353
-4.21304e-05
0.000224688
-2.96664e-05
0.000180546
-2.8077e-05
0.000140789
-3.17507e-05
0.000106657
-3.03507e-05
7.77422e-05
-2.41961e-05
5.03319e-05
-9.66425e-06
1.0041e-05
1.60619e-05
-2.61232e-05
4.88051e-05
-3.14405e-05
7.89258e-05
-1.9738e-05
0.000100117
8.61628e-06
3.60345e-05
0.000126965
2.45547e-05
-0.000228483
3.84962e-05
-0.000233174
5.10034e-05
-0.000226611
6.57416e-05
-0.000220085
8.00374e-05
-0.000203546
9.43357e-05
-0.000176543
0.000108747
-0.000140693
0.000125379
-9.4581e-05
0.000152343
-4.4994e-05
0.000180794
-1.0023e-05
0.000195439
1.27943e-05
0.000200464
2.21004e-05
0.000195028
2.70921e-05
0.000184463
3.87536e-05
0.000165114
6.07867e-05
0.000136289
9.67121e-05
6.68682e-05
0.000147273
-8.4633e-05
0.000230165
-0.000120816
0.000317005
-9.48242e-05
0.000305682
-6.54309e-05
0.000281975
-3.87346e-05
0.000247452
-2.25984e-05
0.000206962
-1.85322e-05
0.000168421
-2.15593e-05
0.000132223
-2.08332e-05
0.000100666
-1.43267e-05
7.21483e-05
1.17442e-07
2.86291e-05
2.1459e-05
-9.08786e-07
5.15408e-05
-9.93554e-06
8.26401e-05
-2.52436e-06
0.000103666
1.90183e-05
4.29637e-05
0.000128151
6.41542e-06
-0.00023993
2.51489e-05
-0.000236885
4.383e-05
-0.000230299
6.12247e-05
-0.000222395
7.69135e-05
-0.000206345
8.96384e-05
-0.000181512
9.90486e-05
-0.000148507
0.000108578
-0.000108063
0.000130594
-6.41306e-05
0.000150584
-2.96595e-05
0.000162102
-2.41165e-06
0.0001702
1.07947e-05
0.000167678
2.42041e-05
0.000159475
4.59243e-05
0.000141052
7.70901e-05
0.000113096
0.000117537
3.8851e-05
0.000172681
-0.00011741
0.000263502
-0.000122961
0.000332341
-9.75349e-05
0.000320035
-6.58112e-05
0.000300484
-3.57916e-05
0.000269329
-1.66512e-05
0.000232129
-1.0561e-05
0.000193988
-1.2882e-05
0.000155851
-1.29623e-05
0.000121767
-5.73734e-06
9.07378e-05
7.94174e-06
4.57793e-05
2.64442e-05
2.22876e-05
5.39406e-05
9.14233e-06
8.49588e-05
1.1932e-05
0.000107505
2.72485e-05
4.86205e-05
0.000129056
-3.41708e-06
-0.000245285
1.85496e-05
-0.00023975
4.05184e-05
-0.000231693
6.00216e-05
-0.000222215
7.56124e-05
-0.000205674
8.50871e-05
-0.000182203
8.84345e-05
-0.000151398
9.19715e-05
-0.000115173
0.000109311
-7.85831e-05
0.000125648
-4.61185e-05
0.000136373
-1.46745e-05
0.000145082
2.58414e-06
0.000144355
2.52281e-05
0.00013477
5.63455e-05
0.000117185
9.52918e-05
8.68338e-05
0.000139387
6.39858e-06
0.000194871
-0.000144794
0.000296923
-0.000128178
0.00033747
-0.000100854
0.000330386
-6.63293e-05
0.000316037
-3.3232e-05
0.000288458
-1.15051e-05
0.000254083
-3.90651e-06
0.000216023
-5.47851e-06
0.000176179
-6.09042e-06
0.000139848
2.78457e-06
0.000104215
1.51814e-05
6.10818e-05
3.3021e-05
3.96374e-05
5.59464e-05
2.43352e-05
8.44472e-05
2.21932e-05
0.000109918
3.26557e-05
4.89644e-05
0.000128344
-8.48071e-06
-0.000248435
1.53075e-05
-0.000242243
3.90297e-05
-0.000232209
5.89701e-05
-0.000221281
7.2638e-05
-0.000205038
7.80715e-05
-0.000182268
7.7746e-05
-0.000152355
7.82482e-05
-0.000117322
9.27536e-05
-8.37096e-05
0.000109407
-5.23944e-05
0.000120591
-2.00555e-05
0.000127598
5.49112e-07
0.000125508
3.15805e-05
0.000112524
7.13797e-05
9.3008e-05
0.000116666
5.68925e-05
0.00016244
-3.98965e-05
0.000225687
-0.000158461
0.000321052
-0.000133567
0.000334638
-0.000102976
0.000335577
-6.60419e-05
0.000327572
-3.04274e-05
0.000303808
-6.78362e-06
0.000272238
1.17686e-06
0.00023399
3.50157e-07
0.000192008
4.25556e-07
0.000154015
9.94415e-06
0.000113926
2.10049e-05
7.41552e-05
3.76789e-05
5.26992e-05
5.80052e-05
3.61216e-05
8.24912e-05
2.87383e-05
0.000107427
3.26233e-05
4.14395e-05
0.000123118
-1.04164e-05
-0.00024968
1.33299e-05
-0.000242746
3.67626e-05
-0.000232838
5.54004e-05
-0.000221186
6.55718e-05
-0.000205665
6.82695e-05
-0.000183116
6.78352e-05
-0.000152395
7.03894e-05
-0.000116377
8.47951e-05
-8.14018e-05
0.000103044
-5.12926e-05
0.000114459
-1.99622e-05
0.000118218
4.3523e-06
0.000110891
4.43844e-05
9.19013e-05
9.33834e-05
6.76279e-05
0.00014353
2.30971e-05
0.000188476
-9.51872e-05
0.000261573
-0.000160909
0.000329327
-0.000137204
0.000330127
-0.00010349
0.000337166
-6.40182e-05
0.000335597
-2.67434e-05
0.000315405
-2.1425e-06
0.000286353
5.64039e-06
0.000247308
4.57584e-06
0.00020351
6.33516e-06
0.000164443
1.55381e-05
0.000121479
2.55834e-05
8.55017e-05
4.03578e-05
6.28791e-05
5.79849e-05
4.43888e-05
7.73781e-05
3.07634e-05
9.66671e-05
2.48572e-05
2.35369e-05
0.000106494
-1.09926e-05
-0.00025053
1.04541e-05
-0.000242285
3.19083e-05
-0.00023398
4.63629e-05
-0.000223185
5.38588e-05
-0.000208406
5.75523e-05
-0.000185192
6.10198e-05
-0.000152389
6.73276e-05
-0.00011376
8.13611e-05
-7.69826e-05
0.000101125
-4.77193e-05
0.00011197
-1.57846e-05
0.000109705
1.57742e-05
9.67397e-05
6.34441e-05
7.0986e-05
0.000124529
4.02232e-05
0.000173953
-2.14573e-05
0.000224228
-0.000138093
0.000291386
-0.000159342
0.000316025
-0.000137725
0.000326481
-0.000101623
0.000337152
-5.97869e-05
0.00034043
-2.1569e-05
0.000323427
2.00103e-06
0.000296421
1.02451e-05
0.000256703
8.85215e-06
0.000212132
1.10925e-05
0.000172158
1.89817e-05
0.000127961
2.76153e-05
9.62426e-05
3.9115e-05
7.32342e-05
5.12298e-05
5.12681e-05
6.11519e-05
2.93427e-05
6.94165e-05
8.91344e-06
-6.40085e-07
7.45193e-05
-1.30022e-05
-0.000247355
4.63342e-06
-0.000242692
2.07328e-05
-0.000237502
3.14648e-05
-0.000228371
4.02017e-05
-0.000213826
4.87693e-05
-0.000189225
5.75785e-05
-0.000153407
6.67013e-05
-0.000111269
8.02495e-05
-7.1437e-05
9.93518e-05
-4.26926e-05
0.000105804
-6.51025e-06
9.88597e-05
3.23275e-05
7.94053e-05
9.40148e-05
4.66761e-05
0.000161173
9.54917e-06
0.000207935
-6.52015e-05
0.000259733
-0.000152033
0.000302573
-0.000157674
0.000302899
-0.000134671
0.000321544
-9.66341e-05
0.000335198
-5.29075e-05
0.000342017
-1.47863e-05
0.00032849
7.55725e-06
0.000302709
1.33359e-05
0.000262741
1.15416e-05
0.000217844
1.43187e-05
0.000176487
2.08209e-05
0.000133685
2.75016e-05
0.00010569
3.37686e-05
8.32188e-05
3.56063e-05
5.77861e-05
2.75068e-05
2.63124e-05
2.27467e-05
-1.06445e-05
-2.52005e-05
3.22786e-05
-1.70342e-05
-0.000248577
-5.8877e-06
-0.000247151
2.73201e-06
-0.00024418
1.38166e-05
-0.000235767
2.74911e-05
-0.000220856
4.24755e-05
-0.000195229
5.60756e-05
-0.000156239
6.70989e-05
-0.000109516
7.93267e-05
-6.47918e-05
9.59409e-05
-3.36954e-05
9.75449e-05
8.04293e-06
8.66033e-05
5.58136e-05
5.86219e-05
0.000130286
2.02306e-05
0.000198537
-2.69832e-05
0.000242513
-0.000104758
0.000286642
-0.000149885
0.000293876
-0.000152929
0.000291543
-0.000127679
0.000314219
-8.79322e-05
0.000331197
-4.3447e-05
0.000340885
-6.66415e-06
0.000331036
1.26981e-05
0.000305346
1.54533e-05
0.000265037
1.30479e-05
0.000219685
1.57943e-05
0.000177316
2.11671e-05
0.000137637
2.55576e-05
0.000113017
2.5312e-05
9.14521e-05
1.19782e-05
6.30453e-05
-1.59345e-05
2.18576e-05
-2.62216e-05
-2.76259e-05
-4.7368e-05
-1.15732e-05
-2.7604e-05
-0.000253414
-2.34179e-05
-0.000254261
-1.60197e-05
-0.000251979
-2.19878e-06
-0.00024366
1.68818e-05
-0.000228706
3.72699e-05
-0.000202972
5.4853e-05
-0.000161572
6.78736e-05
-0.000109597
7.8247e-05
-5.83933e-05
9.25267e-05
-2.05166e-05
8.99035e-05
2.6831e-05
7.07842e-05
8.51617e-05
3.45916e-05
0.000167997
-7.44053e-06
0.000232719
-6.22255e-05
0.00027451
-0.000126276
0.000303968
-0.000143689
0.000279512
-0.00014387
0.000281667
-0.000116409
0.000306076
-7.57972e-05
0.000326067
-3.17813e-05
0.000337843
1.42353e-06
0.000331034
1.76666e-05
0.000304678
1.61381e-05
0.000263635
1.30462e-05
0.000218038
1.59358e-05
0.000175029
2.02528e-05
0.000140263
2.16222e-05
0.000118
1.3649e-05
9.37065e-05
-1.98383e-05
6.14653e-05
-5.56609e-05
9.82086e-06
-6.1554e-05
-4.29822e-05
-6.69554e-05
-4.01703e-05
-4.49844e-05
-0.00025986
-4.32113e-05
-0.000261183
-3.31704e-05
-0.000258607
-1.47577e-05
-0.000251057
7.69717e-06
-0.000236331
3.21566e-05
-0.000211985
5.28271e-05
-0.000169292
6.80177e-05
-0.000113787
7.6722e-05
-5.46599e-05
8.84467e-05
-5.71495e-06
8.09639e-05
4.90426e-05
5.22696e-05
0.000116789
8.98851e-06
0.000205252
-3.49016e-05
0.000264191
-9.07432e-05
0.000300742
-0.000133276
0.00031233
-0.000133789
0.000265781
-0.000129554
0.000273011
-0.000101568
0.000297924
-6.11052e-05
0.000320012
-1.86431e-05
0.000333484
1.1751e-05
0.000327729
2.08288e-05
0.000299511
1.51487e-05
0.000257622
1.2089e-05
0.000212998
1.47642e-05
0.000170897
1.76778e-05
0.000141611
1.45863e-05
0.000118702
-6.43526e-06
8.91591e-05
-5.08954e-05
4.5577e-05
-8.32004e-05
-1.58925e-05
-7.64925e-05
-6.07421e-05
-7.97201e-05
-5.12708e-05
-6.47042e-05
-0.000264809
-5.98872e-05
-0.000266086
-4.6034e-05
-0.000264031
-2.51181e-05
-0.000257869
-5.9938e-07
-0.000244931
2.653e-05
-0.000222761
5.06786e-05
-0.000179955
6.69467e-05
-0.000121526
7.38071e-05
-5.38923e-05
8.22575e-05
8.67385e-06
6.93482e-05
7.3356e-05
3.18339e-05
0.000150295
-1.31355e-05
0.000239174
-5.83918e-05
0.000291218
-0.000109336
0.000322138
-0.00013086
0.000317204
-0.000122165
0.000257564
-0.000111385
0.000265064
-8.37756e-05
0.000289338
-4.52965e-05
0.000312184
-5.18095e-06
0.000327813
2.02836e-05
0.000321067
2.21551e-05
0.000290392
1.29768e-05
0.000247025
9.85545e-06
0.000204784
1.25216e-05
0.000166379
1.15843e-05
0.000141
5.15132e-07
0.000113002
-4.15712e-05
7.76518e-05
-9.03486e-05
1.48233e-05
-0.000101896
-4.62097e-05
-7.67372e-05
-7.65276e-05
-8.36664e-05
-4.34816e-05
-8.29375e-05
-0.000266733
-7.36623e-05
-0.000268549
-5.6829e-05
-0.000269047
-3.42135e-05
-0.000264815
-8.11609e-06
-0.000254333
1.99644e-05
-0.000234204
4.72554e-05
-0.000192527
6.57147e-05
-0.000132489
7.01479e-05
-5.47457e-05
7.59925e-05
2.20904e-05
5.69953e-05
9.93244e-05
1.194e-05
0.000184659
-3.27924e-05
0.000268366
-7.79398e-05
0.000313975
-0.000121441
0.000339894
-0.000123831
0.000319866
-0.000108763
0.000251698
-9.31249e-05
0.000257649
-6.52522e-05
0.000281258
-2.89258e-05
0.0003037
7.89139e-06
0.000321128
2.56052e-05
0.000311375
2.09411e-05
0.000278805
9.73418e-06
0.000234386
6.31403e-06
0.000195225
6.74809e-06
0.000160954
1.95845e-07
0.000133628
-3.201e-05
0.000104586
-8.96795e-05
5.17088e-05
-0.00012451
-1.84758e-05
-0.000110338
-6.47709e-05
-6.88768e-05
-8.45732e-05
-8.14125e-05
-2.62862e-05
-9.85643e-05
-0.000266305
-8.52991e-05
-0.000270489
-6.63912e-05
-0.000273721
-4.2904e-05
-0.000272001
-1.62571e-05
-0.000264023
1.17535e-05
-0.000245458
4.11084e-05
-0.000206451
6.25244e-05
-0.000144026
6.65642e-05
-5.728e-05
6.89563e-05
3.51541e-05
4.3241e-05
0.000128094
-4.83578e-06
0.000216952
-5.07229e-05
0.000295569
-9.59777e-05
0.000334684
-0.000130413
0.000355496
-0.000113415
0.000316666
-9.42737e-05
0.000244591
-7.67589e-05
0.000250749
-4.81419e-05
0.000274215
-1.28542e-05
0.000296582
1.93403e-05
0.000311902
2.74329e-05
0.00029841
1.68805e-05
0.0002624
4.13614e-06
0.000219389
1.80711e-07
0.000185255
-4.10515e-06
0.000154331
-2.72377e-05
0.000127686
-8.64356e-05
9.00332e-05
-0.000147289
2.23227e-05
-0.000149563
-3.50288e-05
-0.000120592
-6.74662e-05
-7.1507e-05
-8.0957e-05
-8.06097e-05
-2.44976e-05
-0.000112034
-0.000265804
-9.64263e-05
-0.000272688
-7.60638e-05
-0.000278079
-5.19974e-05
-0.000279322
-2.59138e-05
-0.000272116
2.15535e-06
-0.000255585
3.38668e-05
-0.000220397
5.82343e-05
-0.000154604
6.43766e-05
-5.8794e-05
6.20671e-05
4.83771e-05
2.82994e-05
0.000158953
-2.12964e-05
0.000248813
-6.94515e-05
0.00032514
-0.000115265
0.000355583
-0.000138232
0.000366663
-0.000100416
0.000303748
-8.09992e-05
0.000237696
-6.20747e-05
0.0002451
-3.30865e-05
0.000267575
1.22501e-06
0.000290194
2.66984e-05
0.000300186
2.55745e-05
0.00028169
1.06645e-05
0.000241746
-1.49044e-06
0.000201703
-9.2995e-06
0.000174815
-2.58525e-05
0.000144423
-7.79973e-05
0.000118061
-0.000155951
6.57986e-05
-0.00018601
3.48741e-06
-0.000162823
-3.96552e-05
-0.000122917
-6.73838e-05
-7.52723e-05
-8.06436e-05
-8.95806e-05
-1.99195e-05
-0.000124986
-0.000265395
-0.000107729
-0.000275917
-8.69756e-05
-0.000282026
-6.26064e-05
-0.000284528
-3.56205e-05
-0.000279391
-7.74624e-06
-0.000263855
2.50524e-05
-0.000233234
5.4318e-05
-0.000165149
6.55518e-05
-6.19581e-05
5.94045e-05
6.05051e-05
1.36569e-05
0.000193528
-4.15022e-05
0.000282218
-9.22629e-05
0.000353353
-0.000137282
0.000375985
-0.000136183
0.000370662
-8.82511e-05
0.000282068
-6.986e-05
0.000231989
-4.86466e-05
0.000240767
-1.97568e-05
0.00026067
1.21653e-05
0.00028288
2.88121e-05
0.000286921
1.92973e-05
0.000261695
2.72691e-06
0.000218277
-1.04671e-05
0.000183431
-2.71708e-05
0.000161417
-6.75071e-05
0.000135551
-0.000150112
0.000100949
-0.000218492
4.17438e-05
-0.000205363
-8.11313e-06
-0.000167372
-4.16434e-05
-0.000118169
-6.71356e-05
-6.72006e-05
-8.28607e-05
-9.65237e-05
-6.12599e-06
-0.000137466
-0.000265206
-0.000120683
-0.000275856
-9.89159e-05
-0.000284801
-7.3154e-05
-0.00028946
-4.52635e-05
-0.000285353
-1.71009e-05
-0.000270563
1.5883e-05
-0.000242906
5.09172e-05
-0.000175985
7.04856e-05
-6.66303e-05
6.21358e-05
7.3709e-05
5.96158e-07
0.000226314
-6.4403e-05
0.000322237
-0.000120445
0.000381175
-0.000157991
0.00039323
-0.000126664
0.000358095
-7.85933e-05
0.000256632
-6.03627e-05
0.000228234
-3.69652e-05
0.000237905
-7.69509e-06
0.000255002
1.90405e-05
0.00027369
2.53445e-05
0.000270349
9.65927e-06
0.000236944
-6.58923e-06
0.00019379
-2.52168e-05
0.000166961
-5.82732e-05
0.000144629
-0.000133937
0.000121659
-0.00023305
7.57889e-05
-0.000251737
2.61767e-05
-0.000215596
-1.36564e-05
-0.000167366
-4.36956e-05
-0.000112679
-6.84317e-05
-5.44193e-05
-8.85917e-05
-9.89377e-05
4.14289e-06
-0.000152898
-0.000261133
-0.00013544
-0.000274719
-0.000111781
-0.000286169
-8.45515e-05
-0.00029307
-5.52584e-05
-0.000290694
-2.61114e-05
-0.000276488
7.20718e-06
-0.000250026
4.76398e-05
-0.000184849
7.39188e-05
-6.88012e-05
6.66216e-05
9.02085e-05
-9.32122e-06
0.000259492
-9.06071e-05
0.000366692
-0.000154437
0.000410461
-0.000169359
0.000400333
-0.000110836
0.000325085
-7.17701e-05
0.000236864
-5.20989e-05
0.000225794
-2.78289e-05
0.000235637
8.30952e-07
0.000249945
2.08043e-05
0.000261449
1.65332e-05
0.000248009
-1.26117e-06
0.000207796
-2.01654e-05
0.000170476
-4.83224e-05
0.000147214
-0.000109888
0.000127874
-0.00021429
9.87302e-05
-0.000291305
5.25718e-05
-0.000267297
1.35204e-05
-0.000218137
-2.05966e-05
-0.000159988
-4.95004e-05
-0.00010142
-7.47061e-05
-3.55454e-05
-9.846e-05
-9.82321e-05
1.75773e-05
-0.000168765
-0.000255803
-0.000149344
-0.00027268
-0.000125041
-0.000286493
-9.65799e-05
-0.000295918
-6.55508e-05
-0.000295655
-3.40539e-05
-0.000282366
-6.05314e-07
-0.000255399
4.22504e-05
-0.00019022
7.49256e-05
-6.48638e-05
6.75853e-05
0.000109433
-2.45979e-05
0.000295864
-0.000124118
0.000408859
-0.000189736
0.000436932
-0.000162841
0.000387686
-9.71237e-05
0.0002885
-6.6673e-05
0.00022663
-4.42393e-05
0.000223101
-2.0095e-05
0.000233325
4.99753e-06
0.000243712
1.69603e-05
0.000246158
4.11008e-06
0.000219038
-1.46263e-05
0.000176624
-4.12349e-05
0.000149162
-8.59747e-05
0.000122198
-0.000180493
0.000106057
-0.000296639
6.93403e-05
-0.0003123
3.13314e-05
-0.000269065
-2.17716e-06
-0.000209424
-3.35341e-05
-0.000142905
-6.10447e-05
-7.86027e-05
-8.44788e-05
-1.49606e-05
-0.000106997
-9.55608e-05
2.93049e-05
-0.000183636
-0.000249273
-0.000163691
-0.000269965
-0.000138455
-0.000285952
-0.000109144
-0.000298403
-7.70048e-05
-0.000300217
-4.38701e-05
-0.000288378
-1.13504e-05
-0.000260182
3.1997e-05
-0.000195982
6.73502e-05
-5.97621e-05
6.01656e-05
0.000129354
-4.96302e-05
0.000340534
-0.000160299
0.000448839
-0.000196338
0.000452953
-0.000143643
0.000361667
-8.59879e-05
0.000259692
-5.91509e-05
0.000222015
-3.60449e-05
0.000220693
-1.31622e-05
0.000230743
6.21892e-06
0.000235387
5.8655e-06
0.000225659
-9.83947e-06
0.000185365
-3.59184e-05
0.000147313
-7.12525e-05
0.000115765
-0.000141446
9.48127e-05
-0.000252281
7.201e-05
-0.000336966
3.78811e-05
-0.000313495
7.18434e-06
-0.00025783
-2.35914e-05
-0.000188315
-5.26396e-05
-0.000114729
-7.63308e-05
-4.97761e-05
-9.2365e-05
7.7665e-06
-0.000106124
-8.40427e-05
3.89338e-05
-0.000197573
-0.000243307
-0.000177474
-0.000265991
-0.000152349
-0.00028417
-0.000122646
-0.000300025
-8.90339e-05
-0.000305381
-5.51409e-05
-0.000295973
-2.25276e-05
-0.000268341
1.90465e-05
-0.000205589
5.1716e-05
-5.30906e-05
4.54961e-05
0.000149399
-8.27799e-05
0.000392708
-0.000184486
0.000481097
-0.000182256
0.00045231
-0.000119896
0.000334974
-7.53562e-05
0.00024163
-5.06429e-05
0.000220591
-2.86113e-05
0.000218523
-8.50471e-06
0.000227938
1.23819e-06
0.000223798
-8.32781e-06
0.000196683
-3.21715e-05
0.000150041
-6.59161e-05
0.000111186
-0.000117572
8.07369e-05
-0.000206566
5.50884e-05
-0.00029932
2.71497e-05
-0.000335146
7.209e-07
-0.000297893
-2.3707e-05
-0.000233476
-4.99125e-05
-0.000158077
-7.23545e-05
-8.48905e-05
-8.77206e-05
-2.02911e-05
-9.49609e-05
2.59365e-05
-9.22877e-05
-5.67201e-05
3.95513e-05
-0.00021071
-0.000237981
-0.00019089
-0.000262961
-0.000165989
-0.000283055
-0.00013674
-0.000301336
-0.000103047
-0.000310542
-6.89812e-05
-0.000304636
-3.58991e-05
-0.00028049
4.36394e-06
-0.000221553
3.85286e-05
-5.71685e-05
3.08096e-05
0.000171898
-0.000107655
0.000448477
-0.000185909
0.00051003
-0.000159847
0.000444582
-9.81562e-05
0.00031088
-6.50924e-05
0.000233378
-4.08846e-05
0.000219003
-2.16241e-05
0.000214035
-7.93312e-06
0.000223238
-1.08931e-05
0.000204838
-3.28904e-05
0.000160058
-6.75398e-05
0.000110136
-0.000111424
6.99695e-05
-0.000180578
3.4642e-05
-0.000256355
1.87225e-06
-0.000303326
-2.23114e-05
-0.000304312
-4.0955e-05
-0.000270238
-5.93501e-05
-0.000204168
-7.61483e-05
-0.000131156
-8.83994e-05
-6.44047e-05
-9.22757e-05
-8.9688e-06
-8.78398e-05
2.39207e-05
-6.60493e-05
-2.3461e-05
2.78605e-05
-0.000221987
-0.000234362
-0.000202907
-0.00026011
-0.000179259
-0.000282569
-0.000151327
-0.000303763
-0.000119403
-0.000316789