/*--------------------------------*- C++ -*----------------------------------*\
  =========                 |
  \\      /  F ield         | OpenFOAM: The Open Source CFD Toolbox
   \\    /   O peration     | Website:  https://openfoam.org
    \\  /    A nd           | Version:  10
     \\/     M anipulation  |
\*---------------------------------------------------------------------------*/
FoamFile
{
    format      ascii;
    class       volScalarField;
    location    "0.099538";
    object      rho;
}
// * * * * * * * * * * * * * * * * * * * * * * * * * * * * * * * * * * * * * //

dimensions      [1 -3 0 0 0 0 0];

internalField   nonuniform List<scalar> 
16320
(
0.659515
0.651313
0.641117
0.638585
0.638934
0.644297
0.653609
0.662069
0.664283
0.658349
0.656149
0.651814
0.641241
0.621694
0.620534
0.643809
0.658774
0.696396
0.728827
0.791564
0.927322
1.24515
1.27783
1.11683
0.982653
0.874828
0.781208
0.707202
0.646601
0.530659
0.415804
0.36111
0.360778
0.681004
0.675975
0.670569
0.670419
0.67538
0.685212
0.696282
0.707725
0.709637
0.712886
0.712729
0.710304
0.707822
0.727465
0.751419
0.757966
0.749285
0.755149
0.777744
0.83687
0.983517
1.30098
1.23417
1.09343
0.97356
0.872752
0.780727
0.708767
0.621983
0.506928
0.38625
0.33854
0.345545
0.712954
0.704217
0.70298
0.709035
0.720789
0.736804
0.751691
0.76842
0.778371
0.786313
0.803754
0.833483
0.854076
0.85928
0.85522
0.834782
0.801617
0.803076
0.822038
0.881177
1.05519
1.32971
1.19381
1.06044
0.953396
0.859674
0.768047
0.686033
0.58799
0.485364
0.36322
0.325529
0.336739
0.799929
0.751005
0.744887
0.755494
0.781361
0.803548
0.820547
0.836234
0.852566
0.887285
0.928091
0.950325
0.962947
0.954669
0.932225
0.897229
0.856585
0.857927
0.885446
0.952383
1.17394
1.31753
1.15189
1.0271
0.933672
0.843507
0.737452
0.640646
0.555158
0.4716
0.355443
0.325063
0.337901
0.95857
0.828303
0.802253
0.815332
0.83588
0.842043
0.862451
0.893278
0.935508
0.997973
1.03796
1.05567
1.06
1.03992
1.00288
0.956621
0.918769
0.926793
0.966907
1.04669
1.30243
1.2513
1.09188
0.993049
0.906643
0.810044
0.68215
0.586778
0.531871
0.463045
0.35322
0.327277
0.340413
0.969087
0.869984
0.854248
0.856997
0.860492
0.88053
0.915009
0.958451
1.03361
1.09572
1.12153
1.13124
1.12787
1.10144
1.05218
1.00554
0.985301
0.998938
1.05571
1.19873
1.32889
1.15126
1.02483
0.953678
0.871612
0.745061
0.608241
0.545158
0.518165
0.460946
0.356318
0.330668
0.343498
0.926013
0.880049
0.871106
0.878624
0.900491
0.931077
0.971974
1.04708
1.13585
1.19271
1.19073
1.185
1.1727
1.13645
1.08382
1.03973
1.04375
1.0752
1.16677
1.33817
1.19059
1.0585
0.971453
0.907317
0.807667
0.651867
0.54364
0.519726
0.510166
0.463079
0.361279
0.335226
0.347637
0.830471
0.839403
0.872478
0.910378
0.943279
1.00387
1.09876
1.20098
1.2396
1.25415
1.22446
1.20257
1.17422
1.12253
1.06386
1.04444
1.06277
1.12606
1.28963
1.24142
1.0917
0.974967
0.920729
0.846005
0.709903
0.566748
0.502656
0.505176
0.508185
0.46784
0.368269
0.34004
0.350808
0.75476
0.829327
0.89671
0.977782
1.09256
1.20875
1.28071
1.30205
1.27972
1.2477
1.18625
1.13735
1.08685
1.02362
0.961427
0.974116
1.01371
1.12316
1.2722
1.10384
0.991835
0.914704
0.861795
0.754164
0.613082
0.511689
0.47916
0.496328
0.506274
0.475289
0.379249
0.345585
0.354085
0.76378
0.860765
1.0252
1.19639
1.27758
1.29972
1.28768
1.24816
1.19362
1.13458
1.06567
1.00219
0.950037
0.883759
0.829037
0.840622
0.892049
1.05141
1.159
0.992129
0.905898
0.856866
0.77692
0.658904
0.545124
0.481624
0.464067
0.487973
0.503892
0.484196
0.39586
0.352765
0.358263
0.788759
0.965287
1.12264
1.17644
1.18069
1.16554
1.12981
1.08699
1.03711
0.979972
0.924339
0.868869
0.822778
0.762085
0.716731
0.725959
0.777906
0.944644
1.05397
0.898539
0.836296
0.778168
0.68824
0.587261
0.507514
0.465255
0.453649
0.480503
0.501976
0.488879
0.409625
0.360853
0.363183
0.864354
0.994342
1.00879
0.994579
0.939251
0.919987
0.888901
0.867276
0.845408
0.824474
0.796778
0.759787
0.72605
0.674698
0.637833
0.644759
0.692417
0.849379
0.965836
0.824476
0.764647
0.704369
0.624202
0.547083
0.489479
0.456301
0.446601
0.472764
0.499606
0.494173
0.427095
0.371048
0.369033
0.851843
0.889785
0.840396
0.772421
0.731143
0.704167
0.67493
0.654393
0.673752
0.692697
0.69493
0.678774
0.654778
0.61433
0.578922
0.586406
0.631222
0.779752
0.900408
0.764369
0.707164
0.653984
0.58763
0.527848
0.481585
0.451122
0.440423
0.464864
0.496746
0.497698
0.446976
0.382851
0.37519
0.878234
0.748632
0.672612
0.64227
0.617712
0.595527
0.572098
0.549807
0.54947
0.593299
0.616862
0.615085
0.596388
0.561138
0.529619
0.540959
0.588442
0.735771
0.851954
0.719817
0.666673
0.62255
0.568146
0.519089
0.478361
0.447445
0.434849
0.45617
0.492833
0.499068
0.468398
0.397194
0.382571
0.697934
0.634132
0.58909
0.565313
0.549496
0.530178
0.508748
0.489137
0.482491
0.529777
0.555915
0.560455
0.543491
0.510614
0.490227
0.503195
0.55573
0.709127
0.812076
0.685151
0.638426
0.602217
0.557126
0.516181
0.47695
0.444073
0.429406
0.445291
0.486804
0.497306
0.484966
0.419424
0.393429
0.589191
0.566768
0.539933
0.524983
0.511029
0.491854
0.471408
0.452641
0.447534
0.495521
0.508422
0.514229
0.498044
0.469826
0.461814
0.478423
0.539632
0.701397
0.772686
0.656634
0.617239
0.587086
0.549143
0.513049
0.473964
0.439913
0.422598
0.432851
0.478709
0.491181
0.492865
0.447479
0.409671
0.548731
0.536248
0.517942
0.502683
0.48702
0.468964
0.44928
0.431319
0.435725
0.478972
0.473461
0.477458
0.460222
0.437428
0.435416
0.456589
0.530459
0.703282
0.728349
0.630984
0.599192
0.57401
0.542532
0.509899
0.470483
0.435669
0.415931
0.420897
0.463336
0.480382
0.492579
0.475811
0.431695
0.530492
0.522119
0.50676
0.489752
0.470809
0.448346
0.420748
0.399985
0.412682
0.463833
0.452551
0.452294
0.431419
0.412642
0.413263
0.439961
0.530852
0.705521
0.674844
0.607057
0.584219
0.562225
0.535537
0.503891
0.46497
0.429866
0.408968
0.409222
0.448208
0.468971
0.488592
0.493874
0.45902
0.523318
0.517426
0.502084
0.483061
0.45926
0.430385
0.396979
0.372363
0.382225
0.43975
0.43604
0.430798
0.410222
0.395523
0.39903
0.433454
0.54005
0.693953
0.620929
0.584165
0.570203
0.551608
0.527705
0.497343
0.457229
0.419999
0.399329
0.398308
0.432754
0.458733
0.484981
0.505026
0.48874
0.522701
0.516284
0.500273
0.47949
0.450279
0.413319
0.376309
0.351669
0.358647
0.418382
0.421446
0.41431
0.394972
0.385792
0.396134
0.441005
0.561142
0.651308
0.57975
0.564225
0.558923
0.542224
0.520988
0.488308
0.445403
0.407725
0.389118
0.388788
0.421143
0.451572
0.48595
0.517772
0.515692
0.528657
0.518353
0.501523
0.47244
0.434992
0.395152
0.360518
0.33887
0.33842
0.395471
0.409372
0.398269
0.383531
0.390536
0.404579
0.46354
0.582905
0.594362
0.554031
0.550379
0.551218
0.534396
0.513859
0.477853
0.433298
0.396303
0.378922
0.382031
0.415462
0.449854
0.495365
0.539447
0.542858
0.531697
0.519143
0.495325
0.457293
0.417236
0.379843
0.350309
0.331786
0.329945
0.384533
0.403619
0.391975
0.387617
0.401595
0.424536
0.49874
0.588705
0.546063
0.537303
0.541285
0.545054
0.526951
0.506677
0.467536
0.422052
0.386881
0.371054
0.378335
0.414414
0.456048
0.51444
0.56077
0.565301
0.52914
0.510796
0.478008
0.436631
0.399054
0.368802
0.344734
0.328291
0.32534
0.381612
0.403513
0.400123
0.408957
0.419025
0.452597
0.527258
0.557183
0.513413
0.524059
0.532814
0.53882
0.520601
0.498124
0.457263
0.411147
0.374018
0.361786
0.372373
0.411061
0.466027
0.545802
0.593285
0.588407
0.515384
0.486341
0.449277
0.412933
0.384194
0.361302
0.342498
0.327341
0.321627
0.379431
0.409225
0.41813
0.426649
0.435881
0.482007
0.547106
0.5157
0.49178
0.512219
0.525172
0.531987
0.51436
0.488185
0.445699
0.397183
0.360171
0.350173
0.363653
0.409978
0.48555
0.587883
0.645623
0.622301
0.486306
0.450378
0.418346
0.392526
0.371665
0.355283
0.342525
0.329914
0.32167
0.37422
0.420396
0.438591
0.446475
0.458744
0.511498
0.551767
0.478704
0.475675
0.501434
0.517181
0.523161
0.507076
0.478204
0.433604
0.384534
0.344402
0.341896
0.359922
0.415816
0.516702
0.638358
0.706804
0.675373
0.448513
0.416618
0.393285
0.375876
0.361912
0.350299
0.34339
0.338063
0.32661
0.36507
0.429983
0.453872
0.461503
0.479531
0.538383
0.551207
0.458419
0.463048
0.489591
0.507916
0.513169
0.496313
0.462613
0.416616
0.369563
0.333793
0.335668
0.365013
0.439529
0.563716
0.682184
0.74404
0.717241
0.417472
0.393657
0.379552
0.368806
0.358868
0.350058
0.347496
0.352797
0.336299
0.365315
0.44134
0.469612
0.478499
0.50296
0.562827
0.552771
0.446241
0.450846
0.47528
0.494288
0.501606
0.4846
0.448276
0.398426
0.354457
0.324908
0.337354
0.385543
0.490557
0.624898
0.707848
0.748887
0.718234
0.397234
0.382256
0.373104
0.365719
0.358004
0.350214
0.350594
0.367946
0.353624
0.374165
0.456236
0.482753
0.495857
0.530128
0.587083
0.553716
0.432639
0.436318
0.460295
0.479063
0.488655
0.470866
0.43156
0.382264
0.342144
0.321818
0.353105
0.4321
0.564844
0.660444
0.688796
0.690156
0.656834
0.386928
0.376865
0.370298
0.365041
0.358225
0.353348
0.360408
0.382709
0.381308
0.399808
0.480034
0.498209
0.518951
0.562075
0.612901
0.536719
0.419308
0.42265
0.446935
0.466513
0.473702
0.451147
0.4087
0.363481
0.333127
0.332434
0.386488
0.505792
0.62651
0.667179
0.676034
0.637031
0.620191
0.381974
0.375085
0.369318
0.366887
0.364039
0.361159
0.373925
0.401451
0.42444
0.434088
0.515853
0.526989
0.555974
0.600727
0.629595
0.505093
0.405347
0.411879
0.433009
0.453873
0.456845
0.428909
0.38204
0.343033
0.328242
0.354475
0.444684
0.58301
0.655351
0.66826
0.661927
0.628223
0.618272
0.380197
0.375445
0.372336
0.371873
0.371231
0.370392
0.384889
0.426227
0.478222
0.490478
0.55655
0.564707
0.598328
0.644331
0.63146
0.458939
0.392926
0.402419
0.419234
0.439808
0.437547
0.402876
0.354238
0.325533
0.333555
0.394711
0.523601
0.633577
0.662102
0.658301
0.637653
0.622234
0.58444
0.381172
0.37896
0.379656
0.381367
0.382433
0.382819
0.394569
0.446681
0.540109
0.571974
0.609362
0.626226
0.65745
0.686209
0.591083
0.416355
0.384185
0.395229
0.408427
0.422431
0.413063
0.371916
0.329977
0.316207
0.352479
0.453518
0.591567
0.648322
0.656727
0.642861
0.619313
0.61268
0.545417
0.382613
0.383856
0.388683
0.392332
0.394038
0.394616
0.401829
0.457661
0.602708
0.677952
0.687833
0.712663
0.734398
0.701546
0.528542
0.395735
0.378962
0.389207
0.396756
0.402951
0.382326
0.33939
0.313436
0.322069
0.390716
0.521912
0.625759
0.653613
0.653265
0.636226
0.608917
0.597519
0.516564
0.384632
0.392636
0.3985
0.404833
0.4065
0.406787
0.410451
0.461262
0.655543
0.795618
0.796994
0.81871
0.811012
0.67056
0.478044
0.387525
0.375241
0.382098
0.383483
0.381292
0.348341
0.315263
0.311714
0.344184
0.445821
0.576751
0.6423
0.660086
0.659446
0.643479
0.608538
0.590431
0.496831
0.389113
0.400365
0.408203
0.418126
0.420587
0.41954
0.421492
0.45434
0.695832
0.910294
0.93201
0.920877
0.848103
0.637918
0.44167
0.386304
0.372257
0.376403
0.370074
0.356299
0.322394
0.309281
0.326356
0.388824
0.502783
0.60618
0.654942
0.669009
0.664711
0.644718
0.610615
0.571821
0.462908
0.397235
0.410305
0.419028
0.429951
0.435541
0.434273
0.437175
0.450191
0.706885
1.02636
1.07868
1.00177
0.851565
0.600824
0.431879
0.388038
0.369604
0.372738
0.35716
0.335263
0.317706
0.322356
0.365716
0.44591
0.541311
0.61141
0.65619
0.663782
0.651208
0.623682
0.59007
0.523679
0.385602
0.406612
0.422252
0.43267
0.444695
0.4516
0.450774
0.453402
0.461889
0.665154
1.11393
1.2168
1.07309
0.85012
0.571929
0.431441
0.391144
0.368919
0.373738
0.350259
0.334787
0.330636
0.360524
0.417888
0.483319
0.54711
0.597263
0.627979
0.625966
0.599287
0.559189
0.523338
0.433539
0.284255
0.424128
0.436249
0.447118
0.460354
0.469121
0.470133
0.46906
0.477942
0.585958
1.14118
1.34618
1.15032
0.858458
0.559939
0.434306
0.39449
0.376721
0.380601
0.358454
0.348773
0.365063
0.406166
0.443284
0.483553
0.525148
0.546354
0.542925
0.529301
0.523099
0.476634
0.428918
0.335958
0.239245
0.454887
0.464121
0.466548
0.474461
0.484925
0.488287
0.487102
0.495143
0.538464
1.08636
1.45173
1.2373
0.88096
0.568357
0.442621
0.403346
0.3971
0.395631
0.378758
0.3786
0.399969
0.418124
0.432116
0.45007
0.463617
0.477326
0.474208
0.457666
0.451455
0.43782
0.366983
0.276302
0.241406
0.503662
0.511458
0.506954
0.499751
0.503192
0.505767
0.503418
0.503832
0.521761
1.0035
1.51639
1.33641
0.924111
0.59587
0.457717
0.420708
0.427949
0.422491
0.408471
0.400932
0.402671
0.402806
0.405387
0.416603
0.43556
0.453607
0.443798
0.432113
0.427088
0.412587
0.311846
0.253603
0.271489
0.552184
0.573111
0.567382
0.547402
0.532625
0.529462
0.521964
0.516112
0.524257
0.931024
1.56306
1.43529
0.993705
0.633711
0.480762
0.450097
0.466235
0.454905
0.425422
0.408814
0.399431
0.394347
0.399367
0.408681
0.423049
0.430865
0.427894
0.436811
0.445478
0.422233
0.287479
0.259056
0.356574
0.558535
0.604161
0.621757
0.615296
0.585864
0.564291
0.548915
0.528892
0.532082
0.846467
1.55138
1.54143
1.08653
0.688747
0.515237
0.490697
0.508758
0.477039
0.435497
0.416818
0.400227
0.396407
0.394397
0.39179
0.40494
0.425867
0.459256
0.506277
0.513873
0.415617
0.28347
0.279481
0.481511
0.523639
0.595973
0.637811
0.655475
0.655416
0.624536
0.590833
0.557519
0.549577
0.79382
1.49094
1.63362
1.20745
0.770718
0.563303
0.537103
0.542838
0.490543
0.445962
0.425163
0.398869
0.389476
0.372882
0.384302
0.412162
0.464053
0.535529
0.556271
0.516102
0.389371
0.310878
0.336649
0.592899
0.478481
0.566023
0.635552
0.669893
0.689151
0.694069
0.655725
0.607903
0.583312
0.751594
1.45031
1.70386
1.35935
0.891525
0.630774
0.58769
0.564984
0.501747
0.452458
0.427017
0.388631
0.368379
0.366775
0.394799
0.457787
0.548888
0.580906
0.570814
0.48881
0.379624
0.366343
0.431091
0.687523
0.436341
0.532236
0.624826
0.679799
0.708875
0.731461
0.730633
0.672159
0.624575
0.688512
1.36565
1.73146
1.5202
1.05125
0.719355
0.634795
0.582794
0.511622
0.45574
0.421024
0.371177
0.357075
0.37725
0.433329
0.541173
0.596395
0.606919
0.575684
0.475719
0.42446
0.430497
0.542374
0.746276
0.411933
0.500422
0.607662
0.687293
0.726775
0.758131
0.778989
0.765256
0.64784
0.581304
1.24565
1.73787
1.66605
1.25016
0.829783
0.676441
0.600433
0.516739
0.449607
0.398794
0.363438
0.363924
0.406539
0.508043
0.594946
0.623609
0.631386
0.609611
0.540316
0.522222
0.528589
0.660491
0.790095
0.400212
0.48269
0.591796
0.690411
0.745351
0.779418
0.811223
0.835891
0.747382
0.581151
1.15038
1.75263
1.78602
1.4799
0.966913
0.725444
0.622885
0.521113
0.442269
0.386612
0.367837
0.387588
0.464833
0.571796
0.623266
0.647623
0.651768
0.65452
0.627168
0.620477
0.629988
0.753186
0.813779
0.396195
0.473766
0.584914
0.695363
0.764452
0.803367
0.835917
0.897677
0.861238
0.6449
0.911477
1.69241
1.87915
1.70884
1.12277
0.780571
0.640677
0.516735
0.427511
0.383399
0.381695
0.444157
0.545763
0.61363
0.646655
0.655213
0.668655
0.693552
0.708296
0.716011
0.730629
0.81734
0.840408
0.394856
0.469527
0.581618
0.701948
0.786814
0.827226
0.858773
0.928506
0.960605
0.754747
0.732176
1.40619
1.89305
1.87788
1.28876
0.841897
0.66353
0.521321
0.432371
0.40046
0.436062
0.538533
0.603939
0.637666
0.654999
0.651128
0.682402
0.723726
0.771774
0.793675
0.804082
0.844784
0.843766
0.401281
0.466645
0.576841
0.710007
0.809158
0.854818
0.883772
0.946751
1.00316
0.867842
0.685789
0.988379
1.75374
1.9603
1.4685
0.911989
0.691452
0.53855
0.451445
0.441529
0.523377
0.603973
0.628439
0.652432
0.647803
0.644126
0.680508
0.730421
0.804207
0.831454
0.837224
0.851032
0.83358
0.416239
0.479556
0.587568
0.722427
0.833383
0.882989
0.910349
0.964502
1.02199
0.944809
0.689317
0.802402
1.49368
1.97205
1.65792
0.994565
0.733168
0.570968
0.488975
0.511514
0.604825
0.641952
0.648263
0.661069
0.642734
0.63872
0.673377
0.724549
0.816577
0.860341
0.866512
0.864417
0.817514
0.42909
0.495923
0.609231
0.747711
0.859399
0.911426
0.937462
0.980864
1.03453
1.00002
0.710205
0.766715
1.35465
1.93541
1.81829
1.09945
0.778956
0.616264
0.55156
0.610644
0.668141
0.681832
0.682658
0.681668
0.64969
0.64172
0.666111
0.711658
0.802679
0.866053
0.877327
0.867592
0.786764
0.445733
0.516918
0.631217
0.775762
0.89235
0.940742
0.962023
0.99049
1.04598
1.04849
0.740005
0.769387
1.32607
1.92402
1.93822
1.23685
0.835798
0.675828
0.640252
0.71245
0.741456
0.748601
0.751694
0.738936
0.689897
0.664142
0.667245
0.697067
0.771203
0.84585
0.865973
0.851695
0.758754
0.459489
0.540301
0.664525
0.815963
0.926387
0.967765
0.984241
1.00264
1.05702
1.07146
0.789261
0.768477
1.28687
1.90404
1.99812
1.40642
0.90575
0.741038
0.717004
0.79734
0.82992
0.843636
0.865508
0.844744
0.785595
0.720408
0.687417
0.69084
0.738755
0.817142
0.847875
0.837621
0.762949
0.475338
0.56234
0.694161
0.85482
0.963353
0.997116
1.00604
1.01819
1.06346
1.07691
0.846777
0.747454
1.19418
1.84405
2.0208
1.6176
0.992868
0.800897
0.767008
0.863779
0.89072
0.905858
0.96153
0.979798
0.934408
0.820498
0.735619
0.699581
0.716947
0.782288
0.825414
0.824049
0.776037
0.489278
0.582826
0.724191
0.896863
0.999066
1.0232
1.02617
1.03399
1.06634
1.07245
0.882397
0.722076
0.98883
1.68531
1.9696
1.79987
1.1312
0.867662
0.806218
0.888636
0.887082
0.884296
0.953159
1.03747
1.0603
0.958612
0.814479
0.728725
0.710775
0.748097
0.797477
0.80611
0.777866
0.499512
0.597929
0.749653
0.933679
1.03093
1.04615
1.04139
1.04639
1.06707
1.05546
0.887693
0.700477
0.809426
1.3712
1.85491
1.88661
1.34197
0.932412
0.854872
0.877904
0.828996
0.773126
0.832414
0.958953
1.10119
1.05676
0.911648
0.780583
0.719093
0.725822
0.766979
0.781953
0.764746
0.505481
0.609713
0.769719
0.962905
1.05547
1.06689
1.0579
1.05447
1.06483
1.02976
0.878815
0.683767
0.731159
1.15717
1.73439
1.92239
1.58318
1.04952
0.917257
0.839361
0.754844
0.639698
0.653781
0.754986
1.05201
1.10901
0.994984
0.834437
0.740379
0.717367
0.741701
0.755154
0.742526
0.510726
0.618013
0.786156
0.986483
1.07539
1.08406
1.06912
1.05919
1.06295
1.01119
0.862286
0.678072
0.699749
1.05218
1.64672
1.9057
1.79622
1.21595
0.982833
0.820167
0.706969
0.599864
0.58221
0.629055
0.866931
1.09155
1.05096
0.885255
0.763191
0.715952
0.724673
0.729952
0.718419
0.517006
0.625038
0.798386
1.00616
1.09073
1.0945
1.07577
1.06394
1.0645
1.00738
0.811563
0.66983
0.684193
0.987176
1.56947
1.86191
1.90822
1.42251
1.05706
0.845859
0.728336
0.661854
0.570548
0.597585
0.716069
0.987554
1.05444
0.91923
0.779519
0.713152
0.712478
0.710884
0.695404
0.527727
0.634944
0.809874
1.02255
1.10331
1.10145
1.08044
1.06844
1.06617
1.01185
0.805333
0.659794
0.670763
0.901307
1.47596
1.81559
1.93158
1.63298
1.18368
0.934035
0.825573
0.797363
0.609197
0.594536
0.682243
0.855938
1.00269
0.923799
0.784523
0.705672
0.700973
0.695428
0.675658
0.546161
0.64989
0.822955
1.03633
1.11112
1.105
1.08388
1.07363
1.06863
1.01901
0.855791
0.661939
0.660987
0.771817
1.3133
1.73881
1.90838
1.75586
1.3631
1.06831
0.960489
0.908998
0.643444
0.591135
0.698208
0.818656
0.922763
0.893374
0.770238
0.690504
0.685442
0.680665
0.659036
0.569378
0.665007
0.832702
1.04438
1.11495
1.10414
1.08605
1.07944
1.07194
1.01922
0.934278
0.693697
0.660596
0.706399
1.04702
1.56591
1.85447
1.78415
1.50172
1.24907
1.15494
1.039
0.682178
0.588304
0.706446
0.83171
0.8499
0.851322
0.745034
0.672001
0.665528
0.664406
0.641489
0.58503
0.671968
0.832306
1.03851
1.10601
1.09686
1.08808
1.08563
1.07811
1.01006
0.96051
0.741213
0.66803
0.681929
0.79066
1.24223
1.67207
1.76455
1.60883
1.41348
1.33425
1.15945
0.699806
0.585017
0.705572
0.839698
0.817714
0.804327
0.725763
0.658921
0.646956
0.648771
0.621194
0.592871
0.673274
0.820437
1.01382
1.08654
1.08879
1.08869
1.09607
1.08889
1.00891
0.977838
0.791921
0.680667
0.671975
0.703604
0.842965
1.30078
1.62525
1.65469
1.52692
1.45103
1.23425
0.700505
0.580497
0.703962
0.854228
0.781733
0.767649
0.725762
0.657657
0.630236
0.633267
0.606682
0.595721
0.66931
0.797952
0.973769
1.06267
1.08338
1.09494
1.11083
1.09948
1.01348
0.994919
0.839088
0.693747
0.66588
0.671437
0.712776
0.944619
1.33243
1.5907
1.57088
1.51367
1.24782
0.697411
0.57606
0.670541
0.862196
0.760454
0.727815
0.752459
0.673643
0.629598
0.624113
0.591822
0.59815
0.662783
0.770319
0.927264
1.03592
1.07951
1.10444
1.12901
1.10894
1.0177
1.00075
0.918151
0.712952
0.660657
0.654706
0.668518
0.748112
1.10714
1.49015
1.58235
1.54361
1.23695
0.703098
0.582445
0.623358
0.845163
0.791496
0.666663
0.789746
0.723627
0.650578
0.623925
0.565503
0.596844
0.649518
0.747398
0.889327
1.00556
1.07475
1.11318
1.14999
1.12342
1.03211
0.999052
0.959245
0.773956
0.661594
0.645508
0.651834
0.69244
0.961675
1.43074
1.60071
1.56392
1.23703
0.72596
0.594396
0.611116
0.817951
0.823575
0.657464
0.714217
0.789207
0.700456
0.628592
0.508154
0.593412
0.640694
0.732052
0.856605
0.971837
1.0627
1.11752
1.17128
1.14407
1.05067
1.00578
0.958378
0.786896
0.661428
0.63785
0.641626
0.669903
0.878
1.39738
1.63104
1.58897
1.26592
0.780151
0.617299
0.616438
0.769744
0.86212
0.703419
0.608057
0.698208
0.696301
0.59338
0.473264
0.592129
0.638039
0.720025
0.826408
0.935655
1.04009
1.11651
1.18692
1.1629
1.07358
1.01361
0.984859
0.788054
0.660897
0.633519
0.633159
0.655917
0.759362
1.31127
1.65448
1.61789
1.31593
0.823335
0.640657
0.626397
0.743752
0.878236
0.777529
0.599031
0.60414
0.61495
0.546224
0.466194
0.593594
0.637682
0.710224
0.795762
0.895861
1.00385
1.10547
1.1933
1.17833
1.09343
1.02339
0.999627
0.788364
0.663999
0.635735
0.636955
0.659933
0.723735
1.16544
1.60903
1.58798
1.29109
0.818351
0.662065
0.641394
0.741541
0.882142
0.823503
0.619735
0.573292
0.566445
0.52373
0.471261
0.598341
0.641922
0.702872
0.769515
0.853226
0.955006
1.08068
1.18889
1.18065
1.10506
1.03478
1.01101
0.928131
0.710569
0.652452
0.655088
0.680843
0.731863
0.918391
1.40706
1.38402
1.05177
0.735508
0.676046
0.668595
0.766623
0.885536
0.847303
0.648482
0.568723
0.556645
0.525115
0.487822
0.604251
0.645514
0.69771
0.74722
0.812357
0.900611
1.03868
1.16983
1.17505
1.10669
1.04293
1.01714
0.978974
0.812663
0.69814
0.683117
0.707885
0.741181
0.806748
1.064
1.01303
0.788209
0.72207
0.70082
0.748422
0.83675
0.901894
0.85843
0.662705
0.571772
0.559135
0.539459
0.511648
0.610255
0.649861
0.693494
0.729174
0.775817
0.848265
0.982082
1.13396
1.16353
1.10296
1.04982
1.0212
1.00012
0.882367
0.752692
0.720104
0.73327
0.747095
0.766283
0.854405
0.814805
0.73289
0.743565
0.793522
0.848656
0.909921
0.917257
0.862531
0.664803
0.577651
0.566967
0.556864
0.537785
0.614454
0.655203
0.690601
0.715154
0.747467
0.807632
0.922555
1.07862
1.13813
1.09603
1.04828
1.01315
1.00458
0.958538
0.809203
0.748445
0.745326
0.747378
0.74739
0.781914
0.685558
0.733748
0.842247
0.860069
0.914756
0.938586
0.918528
0.840339
0.650598
0.579728
0.572885
0.573313
0.566212
0.622063
0.661495
0.688293
0.704813
0.726864
0.777343
0.872318
1.01272
1.09437
1.0791
1.03552
0.998466
0.989993
0.981761
0.880533
0.768098
0.744109
0.741379
0.73408
0.712314
0.664622
0.825541
0.883061
0.944458
0.949521
0.949774
0.901183
0.77034
0.624346
0.581642
0.581274
0.592565
0.598487
0.633211
0.667743
0.687258
0.697599
0.71306
0.754971
0.83183
0.947751
1.03183
1.04619
1.01337
0.980234
0.969149
0.971875
0.90325
0.765658
0.732938
0.728495
0.709213
0.66973
0.704948
0.854447
0.945465
0.96638
0.958369
0.927059
0.824838
0.688888
0.601963
0.582893
0.590309
0.61227
0.647257
0.646789
0.672748
0.6872
0.692871
0.703942
0.737645
0.800689
0.89173
0.960995
1.00148
0.982795
0.961429
0.95176
0.960289
0.887644
0.752591
0.716911
0.702652
0.669632
0.651448
0.744074
0.906441
0.952143
0.962758
0.929843
0.878449
0.7427
0.654967
0.594169
0.589311
0.608141
0.659833
0.74576
0.657291
0.677643
0.687792
0.690219
0.697805
0.726281
0.777891
0.838031
0.902053
0.95874
0.948468
0.949596
0.937215
0.936869
0.849108
0.727856
0.691819
0.668861
0.634075
0.640604
0.770046
0.904436
0.934015
0.921556
0.882209
0.822549
0.737249
0.679445
0.612948
0.614363
0.67026
0.755394
0.825084
0.665135
0.682034
0.689924
0.688717
0.694681
0.717256
0.754705
0.795056
0.86352
0.928902
0.925471
0.956716
0.936751
0.911935
0.798383
0.699195
0.661719
0.628775
0.608453
0.640673
0.807132
0.873188
0.865756
0.839749
0.807297
0.778367
0.770177
0.764335
0.717428
0.713133
0.758647
0.813541
0.858826
0.671849
0.686788
0.693113
0.688529
0.69196
0.710572
0.736699
0.763934
0.837058
0.905073
0.910247
0.960249
0.943561
0.887048
0.76096
0.669276
0.630314
0.597591
0.587048
0.662478
0.787252
0.788563
0.747425
0.70447
0.675709
0.682559
0.748653
0.809987
0.822445
0.811621
0.815399
0.846387
0.865259
0.678004
0.691602
0.696803
0.689179
0.688836
0.703829
0.71778
0.744085
0.815728
0.885378
0.90053
0.963903
0.956808
0.851466
0.735046
0.642944
0.603049
0.571723
0.571234
0.676275
0.733421
0.716605
0.663904
0.610549
0.566464
0.541542
0.56478
0.719172
0.842547
0.853389
0.848504
0.853251
0.847453
0.682786
0.694923
0.698843
0.690287
0.687697
0.697179
0.699534
0.727553
0.794809
0.867719
0.894526
0.965652
0.969353
0.820522
0.714568
0.622452
0.580887
0.549307
0.561447
0.667936
0.697999
0.681945
0.643924
0.615865
0.568078
0.527413
0.49888
0.483785
0.662882
0.83947
0.863086
0.854049
0.82774
0.684791
0.696176
0.698901
0.690077
0.685454
0.688095
0.680732
0.706595
0.769603
0.847637
0.884382
0.960686
1.00646
0.819679
0.693263
0.608758
0.564371
0.53333
0.554617
0.6529
0.673889
0.671989
0.678051
0.709109
0.736154
0.689701
0.579052
0.463118
0.440715
0.546712
0.768687
0.815388
0.800092
0.685377
0.695947
0.697286
0.687902
0.680839
0.673651
0.655137
0.685992
0.746946
0.824467
0.872861
0.946529
1.03635
0.839142
0.683976
0.601471
0.55348
0.520193
0.534265
0.62612
0.653034
0.655054
0.660521
0.705188
0.784988
0.826146
0.768316
0.561835
0.434944
0.427281
0.476069
0.622816
0.707891
0.684984
0.694619
0.694811
0.685227
0.673432
0.652711
0.641792
0.676347
0.731312
0.802543
0.861095
0.929818
1.05015
0.888927
0.682203
0.599749
0.547705
0.510488
0.51624
0.599347
0.621904
0.605931
0.567432
0.61018
0.754339
0.840697
0.81631
0.667028
0.471332
0.433219
0.437466
0.516716
0.633734
0.683396
0.691869
0.6912
0.682246
0.666309
0.637912
0.636111
0.672204
0.72342
0.784727
0.854386
0.912588
1.04377
0.949677
0.688926
0.600552
0.548074
0.507588
0.500069
0.572719
0.594495
0.540902
0.484176
0.546092
0.718512
0.840838
0.827926
0.69345
0.485747
0.428747
0.423507
0.458866
0.579624
0.681092
0.688832
0.687499
0.678916
0.659873
0.631534
0.63326
0.670419
0.722281
0.777273
0.870798
0.903956
1.03782
0.981611
0.718945
0.597942
0.548867
0.508235
0.492067
0.539086
0.55786
0.508201
0.481315
0.540828
0.718951
0.853343
0.840004
0.694332
0.479785
0.423047
0.416625
0.431983
0.524114
0.678673
0.685756
0.684163
0.675608
0.654825
0.62623
0.630508
0.669676
0.723714
0.775898
0.897055
0.917456
1.04017
0.966936
0.713709
0.594178
0.552397
0.513277
0.487626
0.505805
0.526327
0.496269
0.500786
0.593938
0.787452
0.89914
0.855878
0.690065
0.472266
0.419306
0.416507
0.432261
0.510442
0.676157
0.68265
0.68064
0.67116
0.648227
0.618322
0.625824
0.66682
0.724536
0.774557
0.915052
0.955928
1.03371
0.94558
0.695846
0.590082
0.559441
0.521297
0.496879
0.499393
0.505908
0.504627
0.541563
0.721237
0.875094
0.950385
0.870686
0.677585
0.465859
0.417887
0.421525
0.459333
0.55476
0.673368
0.678899
0.67624
0.664169
0.636672
0.605439
0.617197
0.659443
0.72022
0.770366
0.913326
0.995231
1.03855
0.908947
0.65165
0.575166
0.556666
0.532646
0.5171
0.523097
0.531515
0.550384
0.677378
0.84683
0.965688
1.00719
0.875316
0.659163
0.466177
0.416374
0.427762
0.48756
0.58729
0.670255
0.674532
0.670823
0.653789
0.618572
0.588896
0.604053
0.646523
0.709897
0.763634
0.886768
1.01559
1.0456
0.893673
0.630224
0.571194
0.55732
0.543809
0.539196
0.55965
0.595634
0.69407
0.85811
0.983974
1.07242
1.04257
0.859866
0.635014
0.473687
0.41716
0.410914
0.439094
0.488079
0.666523
0.669654
0.663762
0.640719
0.597393
0.573119
0.590327
0.629256
0.69355
0.750116
0.860984
1.01775
1.05755
0.898838
0.628779
0.576181
0.57603
0.605466
0.64181
0.70043
0.780828
0.875145
1.00355
1.11051
1.15168
1.03651
0.817931
0.601884
0.471135
0.419966
0.397032
0.385421
0.379203
0.661619
0.663904
0.65441
0.62603
0.578872
0.562338
0.577797
0.61064
0.67304
0.734621
0.834263
0.991186
1.05718
0.932047
0.649194
0.608119
0.65865
0.73522
0.790426
0.840193
0.901591
0.998049
1.10767
1.20105
1.19008
0.994596
0.773343
0.567498
0.451616
0.414242
0.391432
0.377703
0.365804
0.655746
0.656842
0.643414
0.61055
0.56701
0.553243
0.566175
0.592043
0.651156
0.720447
0.806846
0.947766
1.03234
0.986372
0.728072
0.628802
0.679468
0.762986
0.82251
0.877753
0.939347
1.04303
1.15312
1.26066
1.17501
0.9477
0.741145
0.549084
0.436689
0.397658
0.373551
0.359954
0.335907
0.648513
0.648252
0.630992
0.595675
0.557605
0.545257
0.556304
0.57669
0.631099
0.709742
0.780554
0.903449
0.992108
0.992411
0.833814
0.660399
0.66048
0.735052
0.79767
0.866569
0.942894
1.04487
1.17456
1.2885
1.12963
0.907848
0.71107
0.525579
0.420599
0.38596
0.366689
0.350851
0.315306
0.639078
0.63732
0.617008
0.579832
0.548383
0.539461
0.548967
0.567394
0.608816
0.688271
0.752132
0.858417
0.95005
0.969042
0.893194
0.742704
0.655964
0.706606
0.764297
0.839589
0.928728
1.03836
1.18338
1.29682
1.09139
0.88034
0.687075
0.507746
0.41192
0.382512
0.366
0.349042
0.311396
0.41029
0.522837
0.675438
0.618035
0.379673
0.389393
0.631283
0.841491
0.415528
0.554163
0.735046
0.692471
0.555412
0.587189
0.80589
0.965004
0.420753
0.568898
0.765844
0.78328
0.682215
0.701609
0.907154
1.01636
0.419245
0.56973
0.772539
0.86914
0.763861
0.761345
0.923064
1.0681
0.416515
0.558111
0.748066
0.915175
0.833587
0.776348
0.880818
1.06252
0.412576
0.543034
0.709728
0.90569
0.908495
0.777388
0.776811
0.944726
0.410687
0.52941
0.673599
0.868412
0.939887
0.801458
0.741499
0.758674
0.407511
0.513224
0.639042
0.81576
0.923087
0.863792
0.748278
0.688853
0.402347
0.495995
0.606182
0.759176
0.877819
0.888982
0.802257
0.718382
0.394491
0.476911
0.575244
0.702379
0.831203
0.891308
0.871764
0.802078
0.387895
0.456835
0.5484
0.648252
0.780106
0.872001
0.906528
0.883763
0.384716
0.441891
0.525843
0.607913
0.726175
0.839918
0.911779
0.920754
0.38559
0.427588
0.506735
0.583095
0.682659
0.801817
0.898633
0.929654
0.389873
0.419056
0.494314
0.571293
0.662586
0.774104
0.866161
0.926408
0.397843
0.41881
0.481892
0.564101
0.653982
0.763318
0.84948
0.906422
0.408883
0.42676
0.479621
0.566612
0.658995
0.760974
0.846885
0.89798
0.424559
0.44434
0.490064
0.588689
0.688995
0.781352
0.854942
0.908085
0.44751
0.469826
0.519317
0.617857
0.725804
0.814788
0.874298
0.91673
0.4796
0.504962
0.561975
0.655557
0.760953