/*--------------------------------*- C++ -*----------------------------------*\
  =========                 |
  \\      /  F ield         | OpenFOAM: The Open Source CFD Toolbox
   \\    /   O peration     | Website:  https://openfoam.org
    \\  /    A nd           | Version:  10
     \\/     M anipulation  |
\*---------------------------------------------------------------------------*/
FoamFile
{
    format      ascii;
    class       volVectorField;
    location    "0.099538";
    object      U;
}
// * * * * * * * * * * * * * * * * * * * * * * * * * * * * * * * * * * * * * //

dimensions      [0 1 -1 0 0 0 0];

internalField   nonuniform List<vector> 
16320
(
(-0.123154 0.414938 0)
(-0.0481506 0.450144 0)
(0.0234758 0.475972 0)
(0.088381 0.484651 0)
(0.151821 0.483166 0)
(0.218594 0.469496 0)
(0.288151 0.44204 0)
(0.36261 0.39759 0)
(0.442659 0.334867 0)
(0.526866 0.258821 0)
(0.613584 0.172306 0)
(0.707626 0.0834292 0)
(0.809645 0.0046709 0)
(0.906911 -0.0551857 0)
(0.99392 -0.0957888 0)
(1.07021 -0.118353 0)
(1.1233 -0.126861 0)
(1.15476 -0.129004 0)
(1.16007 -0.124962 0)
(1.09448 -0.118177 0)
(0.874368 -0.118826 0)
(0.620443 -0.134026 0)
(0.493056 -0.0689184 0)
(0.504831 -0.0497242 0)
(0.569389 -0.115074 0)
(0.588275 -0.258451 0)
(0.547276 -0.414572 0)
(0.448519 -0.556715 0)
(0.336946 -0.69508 0)
(0.293948 -0.780647 0)
(0.318466 -0.819417 0)
(0.364306 -0.803146 0)
(0.390606 -0.73986 0)
(-0.0833782 0.397375 0)
(-0.0194441 0.451197 0)
(0.0384776 0.48309 0)
(0.088455 0.492258 0)
(0.139279 0.484172 0)
(0.192793 0.459311 0)
(0.253159 0.420336 0)
(0.32273 0.366097 0)
(0.402355 0.297021 0)
(0.486803 0.218366 0)
(0.572224 0.133895 0)
(0.665799 0.0552251 0)
(0.766221 -0.00689827 0)
(0.860588 -0.0514176 0)
(0.944514 -0.0804483 0)
(1.02152 -0.0988338 0)
(1.08118 -0.108657 0)
(1.12051 -0.111532 0)
(1.13111 -0.10953 0)
(1.05991 -0.106688 0)
(0.815802 -0.117743 0)
(0.570497 -0.131093 0)
(0.457996 -0.0351999 0)
(0.461772 0.0188782 0)
(0.538152 -0.0434424 0)
(0.549562 -0.190601 0)
(0.49858 -0.354002 0)
(0.376721 -0.516451 0)
(0.263556 -0.677238 0)
(0.233705 -0.760381 0)
(0.275522 -0.789809 0)
(0.330543 -0.758003 0)
(0.352654 -0.677766 0)
(-0.0392297 0.368751 0)
(0.00322902 0.451056 0)
(0.0426846 0.487288 0)
(0.0756487 0.494189 0)
(0.109751 0.475647 0)
(0.150255 0.438639 0)
(0.204154 0.388619 0)
(0.27307 0.326566 0)
(0.355417 0.255385 0)
(0.441489 0.178498 0)
(0.528449 0.106345 0)
(0.623206 0.0467267 0)
(0.721378 -0.00059947 0)
(0.816145 -0.0371156 0)
(0.906548 -0.0615349 0)
(0.992442 -0.0759582 0)
(1.06094 -0.0836853 0)
(1.10567 -0.0847567 0)
(1.1164 -0.0828834 0)
(1.03104 -0.0847896 0)
(0.767552 -0.105237 0)
(0.539823 -0.0840797 0)
(0.439122 0.0382298 0)
(0.426907 0.113509 0)
(0.495722 0.0308988 0)
(0.496636 -0.132656 0)
(0.427968 -0.309513 0)
(0.281379 -0.497629 0)
(0.181092 -0.668126 0)
(0.177423 -0.735452 0)
(0.236192 -0.749894 0)
(0.301802 -0.701801 0)
(0.325008 -0.603677 0)
(0.00130396 0.341933 0)
(0.0104957 0.443207 0)
(0.0252871 0.490169 0)
(0.0416471 0.492952 0)
(0.0623197 0.46492 0)
(0.0965261 0.416579 0)
(0.151912 0.356961 0)
(0.228017 0.288378 0)
(0.317741 0.217676 0)
(0.41015 0.149078 0)
(0.503388 0.0906721 0)
(0.60013 0.0449752 0)
(0.699193 0.01102 0)
(0.797861 -0.0128287 0)
(0.893384 -0.027608 0)
(0.982169 -0.0350364 0)
(1.05201 -0.0382962 0)
(1.095 -0.0371951 0)
(1.09383 -0.0370263 0)
(0.978269 -0.0495759 0)
(0.7127 -0.0848647 0)
(0.487959 0.0164216 0)
(0.396162 0.151921 0)
(0.411356 0.2105 0)
(0.454879 0.0960855 0)
(0.434574 -0.0849888 0)
(0.332741 -0.288112 0)
(0.170536 -0.498392 0)
(0.104218 -0.657689 0)
(0.132198 -0.70316 0)
(0.203907 -0.699554 0)
(0.280188 -0.634394 0)
(0.312263 -0.521618 0)
(-0.0121074 0.321468 0)
(-0.0294354 0.444521 0)
(-0.023213 0.496863 0)
(-0.016176 0.493642 0)
(0.00235981 0.457399 0)
(0.0433352 0.396215 0)
(0.113021 0.326935 0)
(0.20469 0.255219 0)
(0.305652 0.188207 0)
(0.404589 0.13088 0)
(0.501967 0.0852572 0)
(0.601459 0.0554958 0)
(0.701359 0.0370849 0)
(0.798341 0.0258639 0)
(0.891024 0.0200223 0)
(0.975447 0.0192764 0)
(1.03844 0.0197926 0)
(1.06896 0.0225541 0)
(1.04124 0.0195749 0)
(0.872916 -0.00618045 0)
(0.623142 -0.0210702 0)
(0.413396 0.144936 0)
(0.32062 0.298302 0)
(0.382605 0.294669 0)
(0.398619 0.141423 0)
(0.347232 -0.0598464 0)
(0.207609 -0.297741 0)
(0.0603793 -0.504672 0)
(0.0449732 -0.636057 0)
(0.101463 -0.662333 0)
(0.181322 -0.640975 0)
(0.265891 -0.559657 0)
(0.309079 -0.436816 0)
(-0.0837892 0.307805 0)
(-0.12108 0.45522 0)
(-0.112016 0.503986 0)
(-0.091496 0.49457 0)
(-0.0567322 0.452098 0)
(0.00795004 0.378113 0)
(0.106169 0.298412 0)
(0.216897 0.227189 0)
(0.326487 0.167739 0)
(0.427763 0.123679 0)
(0.527899 0.0966978 0)
(0.627683 0.0830457 0)
(0.721429 0.0766181 0)
(0.809395 0.0747512 0)
(0.891827 0.0766876 0)
(0.962204 0.0810953 0)
(1.00754 0.0824973 0)
(1.01396 0.0854734 0)
(0.938526 0.0781784 0)
(0.718502 0.0424272 0)
(0.461317 0.122135 0)
(0.286657 0.314174 0)
(0.255654 0.441775 0)
(0.331832 0.347424 0)
(0.32161 0.160039 0)
(0.227846 -0.0732658 0)
(0.0687878 -0.326646 0)
(-0.0260988 -0.497196 0)
(0.00583821 -0.600521 0)
(0.0808253 -0.615244 0)
(0.166365 -0.578812 0)
(0.257897 -0.485022 0)
(0.312791 -0.355419 0)
(-0.227577 0.323398 0)
(-0.252123 0.462501 0)
(-0.218714 0.50333 0)
(-0.165691 0.484844 0)
(-0.0992635 0.432457 0)
(0.00602506 0.338357 0)
(0.1386 0.257858 0)
(0.262391 0.193697 0)
(0.373144 0.147842 0)
(0.476968 0.122744 0)
(0.574998 0.114954 0)
(0.664372 0.114569 0)
(0.744817 0.117285 0)
(0.819086 0.122247 0)
(0.885196 0.130329 0)
(0.932162 0.136491 0)
(0.949004 0.141517 0)
(0.912692 0.144954 0)
(0.757633 0.129336 0)
(0.503753 0.131351 0)
(0.247446 0.293654 0)
(0.146376 0.500013 0)
(0.210818 0.526663 0)
(0.265146 0.358884 0)
(0.220385 0.143531 0)
(0.0842789 -0.121153 0)
(-0.0483575 -0.342685 0)
(-0.0798143 -0.467609 0)
(-0.0182561 -0.555483 0)
(0.067071 -0.562928 0)
(0.157121 -0.513932 0)
(0.254422 -0.411989 0)
(0.3213 -0.278406 0)
(-0.39418 0.343966 0)
(-0.379548 0.449699 0)
(-0.311665 0.469992 0)
(-0.21834 0.426873 0)
(-0.112108 0.354723 0)
(0.0576569 0.257811 0)
(0.208308 0.19395 0)
(0.329265 0.150546 0)
(0.437326 0.133116 0)
(0.533654 0.13224 0)
(0.618161 0.138256 0)
(0.693006 0.14378 0)
(0.759329 0.148755 0)
(0.819514 0.154143 0)
(0.865285 0.163599 0)
(0.883941 0.170207 0)
(0.862035 0.181027 0)
(0.753813 0.188681 0)
(0.518806 0.179165 0)
(0.202021 0.256598 0)
(0.0417109 0.485336 0)
(0.0667194 0.620161 0)
(0.158758 0.533267 0)
(0.186263 0.33009 0)
(0.0927267 0.0840747 0)
(-0.0510803 -0.165984 0)
(-0.120801 -0.326622 0)
(-0.108227 -0.424965 0)
(-0.0321169 -0.505028 0)
(0.0576808 -0.506729 0)
(0.151184 -0.448358 0)
(0.25371 -0.342351 0)
(0.332762 -0.207573 0)
(-0.515354 0.349212 0)
(-0.464817 0.405319 0)
(-0.363957 0.385938 0)
(-0.227326 0.321194 0)
(-0.0199442 0.216815 0)
(0.16309 0.16202 0)
(0.289958 0.131711 0)
(0.399531 0.124368 0)
(0.495484 0.130852 0)
(0.5739 0.138006 0)
(0.642444 0.144456 0)
(0.704395 0.145248 0)
(0.758621 0.142064 0)
(0.806067 0.140623 0)
(0.832352 0.145837 0)
(0.821689 0.155837 0)
(0.753247 0.178521 0)
(0.559022 0.202091 0)
(0.242986 0.225894 0)
(-0.0786256 0.425232 0)
(-0.0596658 0.612304 0)
(0.00642499 0.630079 0)
(0.100713 0.485065 0)
(0.0865058 0.262356 0)
(-0.03789 0.0145038 0)
(-0.138529 -0.172819 0)
(-0.155857 -0.291346 0)
(-0.119768 -0.375597 0)
(-0.0379473 -0.453071 0)
(0.0516314 -0.448364 0)
(0.146942 -0.38367 0)
(0.253715 -0.276504 0)
(0.344951 -0.143858 0)
(-0.562564 0.343511 0)
(-0.479305 0.343753 0)
(-0.329486 0.272191 0)
(-0.0745828 0.117547 0)
(0.128835 0.0680044 0)
(0.251334 0.0662355 0)
(0.355536 0.0787173 0)
(0.448296 0.0993958 0)
(0.523361 0.113199 0)
(0.585269 0.118646 0)
(0.641464 0.118342 0)
(0.692123 0.110256 0)
(0.736848 0.0949623 0)
(0.775275 0.0836991 0)
(0.788447 0.0832703 0)
(0.757764 0.0991056 0)
(0.64769 0.138989 0)
(0.378353 0.196097 0)
(-0.00752866 0.304835 0)
(-0.201176 0.528936 0)
(-0.110443 0.621459 0)
(-0.0392567 0.57005 0)
(0.0315692 0.404227 0)
(-0.0178848 0.185819 0)
(-0.12627 -0.013701 0)
(-0.18126 -0.149384 0)
(-0.16713 -0.244012 0)
(-0.121434 -0.322058 0)
(-0.0366116 -0.400996 0)
(0.0505062 -0.390907 0)
(0.144057 -0.323206 0)
(0.252594 -0.216368 0)
(0.35469 -0.0880148 0)
(-0.521673 0.299212 0)
(-0.390426 0.217354 0)
(-0.127975 0.0272422 0)
(0.107827 -0.0761819 0)
(0.205792 -0.0465517 0)
(0.298404 -0.00976249 0)
(0.38622 0.0326052 0)
(0.46135 0.0638755 0)
(0.520529 0.0816072 0)
(0.570805 0.0872831 0)
(0.618073 0.0825168 0)
(0.662117 0.0690713 0)
(0.701329 0.0490709 0)
(0.734493 0.0337883 0)
(0.739643 0.0320086 0)
(0.697444 0.0523156 0)
(0.568836 0.106688 0)
(0.267536 0.196306 0)
(-0.130372 0.364534 0)
(-0.240324 0.540876 0)
(-0.133726 0.564828 0)
(-0.0752824 0.48274 0)
(-0.0351533 0.323683 0)
(-0.0880951 0.143665 0)
(-0.16608 -0.00204776 0)
(-0.192357 -0.105095 0)
(-0.164351 -0.187266 0)
(-0.117011 -0.263996 0)
(-0.0306792 -0.346266 0)
(0.0530765 -0.334914 0)
(0.142989 -0.267573 0)
(0.251973 -0.162322 0)
(0.36216 -0.0391945 0)
(-0.41299 0.218898 0)
(-0.210432 0.06358 0)
(0.091794 -0.207345 0)
(0.152371 -0.178588 0)
(0.229752 -0.124403 0)
(0.309372 -0.0670031 0)
(0.386895 -0.0143989 0)
(0.450404 0.0248207 0)
(0.499423 0.0485795 0)
(0.542268 0.0579609 0)
(0.585353 0.0562986 0)
(0.626202 0.0462878 0)
(0.66268 0.0296333 0)
(0.691514 0.0172269 0)
(0.689345 0.0177053 0)
(0.640863 0.044305 0)
(0.510967 0.110916 0)
(0.20678 0.213242 0)
(-0.169045 0.388601 0)
(-0.244284 0.512149 0)
(-0.143105 0.501906 0)
(-0.102306 0.414372 0)
(-0.0769417 0.283439 0)
(-0.114285 0.152034 0)
(-0.165809 0.049054 0)
(-0.182019 -0.0426708 0)
(-0.152049 -0.122869 0)
(-0.107653 -0.201961 0)
(-0.0217385 -0.288516 0)
(0.0579554 -0.278999 0)
(0.143114 -0.214997 0)
(0.249589 -0.113282 0)
(0.365953 0.00482384 0)
(-0.285875 0.116068 0)
(0.0825462 -0.297171 0)
(0.122809 -0.304391 0)
(0.178389 -0.26387 0)
(0.233839 -0.207774 0)
(0.294065 -0.144953 0)
(0.359148 -0.0817103 0)
(0.42484 -0.0228776 0)
(0.475303 0.0155534 0)
(0.516023 0.0374596 0)
(0.555552 0.0473543 0)
(0.5933 0.0466908 0)
(0.626048 0.0367267 0)
(0.648036 0.027653 0)
(0.638017 0.0324043 0)
(0.586565 0.0683737 0)
(0.461936 0.143275 0)
(0.166523 0.245556 0)
(-0.176203 0.402846 0)
(-0.239998 0.49218 0)
(-0.147901 0.469284 0)
(-0.117105 0.390737 0)
(-0.0920521 0.288573 0)
(-0.111689 0.190122 0)
(-0.145712 0.11057 0)
(-0.155792 0.0355513 0)
(-0.133627 -0.054342 0)
(-0.0943313 -0.137732 0)
(-0.010696 -0.229242 0)
(0.0639644 -0.223169 0)
(0.14425 -0.165549 0)
(0.24691 -0.0681241 0)
(0.36624 0.0445688 0)
(-0.0174177 -0.159752 0)
(0.151377 -0.380626 0)
(0.152535 -0.382438 0)
(0.175298 -0.359438 0)
(0.211015 -0.321342 0)
(0.258616 -0.264197 0)
(0.317654 -0.186656 0)
(0.389451 -0.0932257 0)
(0.450904 -0.0151845 0)
(0.494234 0.0287281 0)
(0.531306 0.0528482 0)
(0.563587 0.0602442 0)
(0.589375 0.0549752 0)
(0.603287 0.0502464 0)
(0.586013 0.0633788 0)
(0.535557 0.112184 0)
(0.4162 0.192269 0)
(0.129663 0.288398 0)
(-0.181761 0.424818 0)
(-0.236118 0.498978 0)
(-0.152313 0.475009 0)
(-0.122127 0.407602 0)
(-0.0902855 0.325545 0)
(-0.0947621 0.246557 0)
(-0.117975 0.179028 0)
(-0.128382 0.111773 0)
(-0.108052 0.0318643 0)
(-0.07783 -0.072184 0)
(0.00199726 -0.169018 0)
(0.0713072 -0.167905 0)
(0.147515 -0.118456 0)
(0.24531 -0.0258713 0)
(0.36309 0.0790038 0)
(0.0753828 -0.319451 0)
(0.126145 -0.451979 0)
(0.135637 -0.465562 0)
(0.158972 -0.454204 0)
(0.191662 -0.422996 0)
(0.234466 -0.364945 0)
(0.285226 -0.280253 0)
(0.354189 -0.165434 0)
(0.421535 -0.0505216 0)
(0.469161 0.0206659 0)
(0.504067 0.0586964 0)
(0.530304 0.0704727 0)
(0.550962 0.0683039 0)
(0.558308 0.0707848 0)
(0.538569 0.0977682 0)
(0.490286 0.164379 0)
(0.367563 0.250771 0)
(0.0841202 0.339718 0)
(-0.195597 0.460488 0)
(-0.234811 0.529764 0)
(-0.157459 0.50944 0)
(-0.122671 0.45093 0)
(-0.0804523 0.38122 0)
(-0.072839 0.313136 0)
(-0.0885574 0.250018 0)
(-0.100696 0.185699 0)
(-0.0845943 0.108285 0)
(-0.0558088 -0.00540931 0)
(0.0151605 -0.106591 0)
(0.0809504 -0.112569 0)
(0.154538 -0.07227 0)
(0.244335 0.0115421 0)
(0.355407 0.105602 0)
(0.0361452 -0.46633 0)
(0.0693156 -0.528665 0)
(0.104523 -0.531132 0)
(0.140523 -0.521533 0)
(0.180866 -0.494092 0)
(0.225221 -0.438858 0)
(0.268961 -0.355451 0)
(0.325335 -0.23409 0)
(0.384712 -0.0956302 0)
(0.431867 -0.00225141 0)
(0.463717 0.0488026 0)
(0.486012 0.0665373 0)
(0.506321 0.0742481 0)
(0.514096 0.0971352 0)
(0.49827 0.146168 0)
(0.450398 0.227347 0)
(0.31604 0.315815 0)
(0.0285066 0.396548 0)
(-0.218221 0.50991 0)
(-0.236256 0.576726 0)
(-0.163789 0.560733 0)
(-0.122112 0.509491 0)
(-0.0685878 0.447479 0)
(-0.0508177 0.384062 0)
(-0.060056 0.320987 0)
(-0.0721993 0.256749 0)
(-0.0619897 0.18119 0)
(-0.0252724 0.0572006 0)
(0.0295611 -0.0392335 0)
(0.0939947 -0.0572304 0)
(0.164122 -0.0281852 0)
(0.243154 0.0415606 0)
(0.343401 0.124933 0)
(-0.00390991 -0.564252 0)
(0.0332646 -0.576296 0)
(0.0843694 -0.573333 0)
(0.13273 -0.561836 0)
(0.180601 -0.536633 0)
(0.226405 -0.48749 0)
(0.263316 -0.412622 0)
(0.30184 -0.300204 0)
(0.340298 -0.158002 0)
(0.383396 -0.0505296 0)
(0.41039 0.0151021 0)
(0.438892 0.0445088 0)
(0.46877 0.0672227 0)
(0.478895 0.113251 0)
(0.461357 0.190674 0)
(0.406088 0.290898 0)
(0.251411 0.381296 0)
(-0.0386536 0.456727 0)
(-0.245279 0.570549 0)
(-0.241645 0.631051 0)
(-0.171003 0.618415 0)
(-0.121645 0.573155 0)
(-0.0577318 0.516007 0)
(-0.03222 0.454124 0)
(-0.0361109 0.390432 0)
(-0.0471082 0.324711 0)
(-0.0426632 0.249134 0)
(0.00991064 0.108594 0)
(0.0507895 0.0313036 0)
(0.107895 -0.00171056 0)
(0.175005 0.0131892 0)
(0.243253 0.0641716 0)
(0.329489 0.137046 0)
(-0.0294125 -0.599653 0)
(0.0139046 -0.594523 0)
(0.0739522 -0.589461 0)
(0.131203 -0.578885 0)
(0.183844 -0.557556 0)
(0.228663 -0.517287 0)
(0.259248 -0.454152 0)
(0.282712 -0.355449 0)
(0.299917 -0.221599 0)
(0.339215 -0.105971 0)
(0.357824 -0.026603 0)
(0.393213 0.0157642 0)
(0.429008 0.0696019 0)
(0.437943 0.151673 0)
(0.413033 0.2581 0)
(0.343416 0.366717 0)
(0.16651 0.448278 0)
(-0.115268 0.51887 0)
(-0.274601 0.633729 0)
(-0.251763 0.684316 0)
(-0.178517 0.674115 0)
(-0.121553 0.633865 0)
(-0.0481383 0.580344 0)
(-0.0162661 0.519507 0)
(-0.0158635 0.455504 0)
(-0.025536 0.387363 0)
(-0.0202314 0.30457 0)
(0.0383 0.161123 0)
(0.0752057 0.086459 0)
(0.124528 0.0462077 0)
(0.181911 0.0447844 0)
(0.242475 0.0785079 0)
(0.312999 0.136665 0)
(-0.0433601 -0.606821 0)
(0.00463906 -0.59729 0)
(0.0687248 -0.591814 0)
(0.129966 -0.583949 0)
(0.182381 -0.568772 0)
(0.222458 -0.539641 0)
(0.246815 -0.488323 0)
(0.263728 -0.39879 0)
(0.274313 -0.270856 0)
(0.311518 -0.143057 0)
(0.326353 -0.052017 0)
(0.363722 0.00057637 0)
(0.396999 0.0806341 0)
(0.394678 0.198017 0)
(0.353645 0.332095 0)
(0.261926 0.443535 0)
(0.05931 0.512307 0)
(-0.19096 0.580257 0)
(-0.300335 0.689285 0)
(-0.26319 0.729948 0)
(-0.184816 0.722335 0)
(-0.120338 0.687111 0)
(-0.0382921 0.637625 0)
(-0.00215582 0.578732 0)
(0.00157047 0.514787 0)
(-0.00788888 0.445652 0)
(0.00734563 0.34775 0)
(0.0600185 0.215098 0)
(0.0957553 0.134421 0)
(0.137619 0.0836343 0)
(0.185181 0.0677507 0)
(0.235182 0.0847142 0)
(0.286264 0.121482 0)
(-0.0481394 -0.604189 0)
(0.000726281 -0.594628 0)
(0.0638725 -0.590386 0)
(0.12285 -0.58762 0)
(0.16968 -0.582154 0)
(0.203892 -0.563884 0)
(0.22709 -0.517129 0)
(0.248446 -0.426673 0)
(0.267722 -0.297807 0)
(0.298372 -0.160728 0)
(0.32054 -0.0621801 0)
(0.357903 0.00404743 0)
(0.375738 0.114456 0)
(0.347547 0.265491 0)
(0.281294 0.416417 0)
(0.16389 0.518109 0)
(-0.0563233 0.569449 0)
(-0.258747 0.638581 0)
(-0.320423 0.731531 0)
(-0.271184 0.763968 0)
(-0.187682 0.760204 0)
(-0.115572 0.731213 0)
(-0.0269443 0.686464 0)
(0.0108879 0.63059 0)
(0.0172352 0.567266 0)
(0.00692332 0.497969 0)
(0.0333919 0.384755 0)
(0.0768238 0.260965 0)
(0.11122 0.173493 0)
(0.143022 0.112944 0)
(0.177519 0.0785174 0)
(0.211025 0.0720563 0)
(0.237859 0.083035 0)
(-0.048093 -0.597209 0)
(-0.00203065 -0.591157 0)
(0.0541487 -0.591976 0)
(0.104589 -0.599483 0)
(0.142882 -0.606136 0)
(0.175768 -0.593183 0)
(0.206931 -0.539424 0)
(0.240692 -0.437542 0)
(0.273309 -0.30387 0)
(0.299056 -0.165702 0)
(0.329819 -0.0601821 0)
(0.35869 0.0219882 0)
(0.34681 0.170029 0)
(0.286399 0.353591 0)
(0.195467 0.505237 0)
(0.0527095 0.585618 0)
(-0.158942 0.618122 0)
(-0.313392 0.687416 0)
(-0.33407 0.759181 0)
(-0.272016 0.78577 0)
(-0.184858 0.787014 0)
(-0.105107 0.766211 0)
(-0.013125 0.726383 0)
(0.0229001 0.674496 0)
(0.0296633 0.612704 0)
(0.0192181 0.542104 0)
(0.0541844 0.417908 0)
(0.0861312 0.302131 0)
(0.115164 0.207235 0)
(0.131715 0.134386 0)
(0.142661 0.0785683 0)
(0.149934 0.0433982 0)
(0.1558 0.0296807 0)
(-0.0493213 -0.590922 0)
(-0.0107524 -0.591949 0)
(0.0323967 -0.60522 0)
(0.0696065 -0.628057 0)
(0.103608 -0.643657 0)
(0.145092 -0.626129 0)
(0.191979 -0.55533 0)
(0.239297 -0.435531 0)
(0.278034 -0.292541 0)
(0.297857 -0.155987 0)
(0.327446 -0.0407984 0)
(0.337118 0.0744574 0)
(0.295164 0.25753 0)
(0.210157 0.456194 0)
(0.0995754 0.588114 0)
(-0.0604084 0.638637 0)
(-0.234963 0.657853 0)
(-0.350119 0.721214 0)
(-0.339379 0.773947 0)
(-0.264112 0.797428 0)
(-0.175099 0.803911 0)
(-0.0876142 0.792916 0)
(0.00304089 0.757978 0)
(0.0338105 0.710527 0)
(0.037795 0.650693 0)
(0.0291804 0.577074 0)
(0.0679161 0.448293 0)
(0.0895443 0.338634 0)
(0.107511 0.238209 0)
(0.100105 0.151995 0)
(0.0756507 0.0698636 0)
(0.0485418 -0.000327464 0)
(0.0477059 -0.0290827 0)
(-0.0557652 -0.594951 0)
(-0.0322084 -0.609811 0)
(-0.00787049 -0.641193 0)
(0.0195553 -0.675963 0)
(0.0594299 -0.691211 0)
(0.117304 -0.66133 0)
(0.181884 -0.569786 0)
(0.241325 -0.428556 0)
(0.281286 -0.270129 0)
(0.290717 -0.13058 0)
(0.309073 -0.000475654 0)
(0.297995 0.142209 0)
(0.228328 0.355162 0)
(0.1253 0.555885 0)
(-0.00152224 0.65533 0)
(-0.153191 0.673469 0)
(-0.29225 0.687953 0)
(-0.368858 0.738989 0)
(-0.33367 0.778258 0)
(-0.247193 0.801578 0)
(-0.157826 0.813129 0)
(-0.0631473 0.812187 0)
(0.0210004 0.782372 0)
(0.0431369 0.738678 0)
(0.0411987 0.681021 0)
(0.0375046 0.604617 0)
(0.0748349 0.477595 0)
(0.0891801 0.372904 0)
(0.0921658 0.268603 0)
(0.0542587 0.167433 0)
(-0.00636187 0.0580978 0)
(-0.0583935 -0.0439768 0)
(-0.0552989 -0.0841053 0)
(-0.0769673 -0.620037 0)
(-0.0734439 -0.656365 0)
(-0.0630671 -0.702301 0)
(-0.0347722 -0.7379 0)
(0.0179689 -0.744879 0)
(0.0926909 -0.701615 0)
(0.172156 -0.589733 0)
(0.241703 -0.424446 0)
(0.283852 -0.244858 0)
(0.281614 -0.0933166 0)
(0.286999 0.0537152 0)
(0.25261 0.218289 0)
(0.15591 0.451211 0)
(0.0414044 0.642349 0)
(-0.0932712 0.699758 0)
(-0.215903 0.697731 0)
(-0.328746 0.707756 0)
(-0.369944 0.745002 0)
(-0.315464 0.775737 0)
(-0.221837 0.801069 0)
(-0.132853 0.817992 0)
(-0.0327066 0.825234 0)
(0.0390549 0.800032 0)
(0.0499926 0.758904 0)
(0.040726 0.703735 0)
(0.0430516 0.626111 0)
(0.0762893 0.505127 0)
(0.0847411 0.403443 0)
(0.0685713 0.292166 0)
(-0.001194 0.170239 0)
(-0.0855181 0.0370161 0)
(-0.12982 -0.0703485 0)
(-0.121244 -0.122733 0)
(-0.121462 -0.67294 0)
(-0.132285 -0.728045 0)
(-0.1227 -0.777316 0)
(-0.0834632 -0.805349 0)
(-0.0181748 -0.803423 0)
(0.0689879 -0.751089 0)
(0.160382 -0.621929 0)
(0.235758 -0.431689 0)
(0.28256 -0.225152 0)
(0.27195 -0.0462887 0)
(0.260073 0.11541 0)
(0.202319 0.297784 0)
(0.0820928 0.542362 0)
(-0.0364495 0.710215 0)
(-0.15981 0.726345 0)
(-0.253404 0.716598 0)
(-0.343836 0.719441 0)
(-0.354581 0.744598 0)
(-0.285518 0.770662 0)
(-0.190022 0.798198 0)
(-0.100712 0.821627 0)
(0.000626643 0.833414 0)
(0.0545829 0.811192 0)
(0.0531929 0.771256 0)
(0.0359829 0.718016 0)
(0.0449997 0.640538 0)
(0.0721105 0.526765 0)
(0.071333 0.4227 0)
(0.0276485 0.295774 0)
(-0.0711485 0.141781 0)
(-0.14992 -0.00274057 0)
(-0.156986 -0.0935038 0)
(-0.135897 -0.143325 0)
(-0.186312 -0.744206 0)
(-0.197448 -0.806672 0)
(-0.176949 -0.85024 0)
(-0.125452 -0.86895 0)
(-0.0509481 -0.860475 0)
(0.0438835 -0.80324 0)
(0.14713 -0.660924 0)
(0.225575 -0.451424 0)
(0.274562 -0.215536 0)
(0.261598 0.00374834 0)
(0.228463 0.182101 0)
(0.150663 0.37867 0)
(0.0140079 0.626346 0)
(-0.0951576 0.751504 0)
(-0.2044 0.743766 0)
(-0.270597 0.730123 0)
(-0.338486 0.725733 0)
(-0.326494 0.742301 0)
(-0.247436 0.766348 0)
(-0.154111 0.795049 0)
(-0.0624108 0.824911 0)
(0.0324185 0.837204 0)
(0.0663115 0.81568 0)
(0.0522471 0.775823 0)
(0.0271436 0.723814 0)
(0.0415157 0.646299 0)
(0.0586923 0.537951 0)
(0.038133 0.422579 0)
(-0.0462185 0.261989 0)
(-0.157598 0.0761526 0)
(-0.201812 -0.0577468 0)
(-0.163289 -0.118183 0)
(-0.11776 -0.146063 0)
(-0.260267 -0.813174 0)
(-0.259093 -0.8714 0)
(-0.223616 -0.90668 0)
(-0.161523 -0.918092 0)
(-0.0801282 -0.904382 0)
(0.0166815 -0.846726 0)
(0.128391 -0.695622 0)
(0.210183 -0.470323 0)
(0.260128 -0.210516 0)
(0.245299 0.0512857 0)
(0.196064 0.251817 0)
(0.100688 0.460456 0)
(-0.0436261 0.694516 0)
(-0.138795 0.774316 0)
(-0.234302 0.754273 0)
(-0.27453 0.737412 0)
(-0.31998 0.729468 0)
(-0.290782 0.741336 0)
(-0.206475 0.764638 0)
(-0.116055 0.795163 0)
(-0.0205937 0.828096 0)
(0.0574688 0.836044 0)
(0.0706973 0.813416 0)
(0.0452823 0.772195 0)
(0.0146114 0.721325 0)
(0.0292796 0.642917 0)
(0.0277698 0.531632 0)
(-0.0325504 0.387424 0)
(-0.156372 0.181893 0)
(-0.242576 -0.0040007 0)
(-0.234148 -0.103383 0)
(-0.159651 -0.136615 0)
(-0.0953968 -0.142555 0)
(-0.330378 -0.86318 0)
(-0.311839 -0.912544 0)
(-0.263272 -0.941899 0)
(-0.193945 -0.950301 0)
(-0.109445 -0.934867 0)
(-0.0140712 -0.881859 0)
(0.101986 -0.729255 0)
(0.188608 -0.486343 0)
(0.238535 -0.205619 0)
(0.224586 0.0975101 0)
(0.161727 0.322517 0)
(0.0522082 0.540977 0)
(-0.089694 0.74015 0)
(-0.174394 0.784325 0)
(-0.257011 0.757879 0)
(-0.272199 0.740125 0)
(-0.295514 0.732544 0)
(-0.253182 0.743083 0)
(-0.166619 0.76591 0)
(-0.075991 0.7992 0)
(0.0182577 0.829877 0)
(0.0738504 0.831579 0)
(0.0673558 0.805621 0)
(0.030094 0.761233 0)
(-0.00383507 0.710841 0)
(0.00121754 0.626348 0)
(-0.0359748 0.498401 0)
(-0.154038 0.304992 0)
(-0.280398 0.082083 0)
(-0.31443 -0.0626055 0)
(-0.269293 -0.130876 0)
(-0.184745 -0.1506 0)
(-0.1051 -0.148892 0)
(-0.390717 -0.890113 0)
(-0.357864 -0.933897 0)
(-0.300816 -0.962007 0)
(-0.226772 -0.971845 0)
(-0.141721 -0.957918 0)
(-0.0489525 -0.908937 0)
(0.0683467 -0.758279 0)
(0.165867 -0.499251 0)
(0.213162 -0.191027 0)
(0.201653 0.147315 0)
(0.126061 0.394178 0)
(0.00438123 0.613905 0)
(-0.130291 0.768525 0)
(-0.207847 0.785044 0)
(-0.276725 0.75554 0)
(-0.270243 0.742045 0)
(-0.26943 0.735656 0)
(-0.21657 0.74615 0)
(-0.130084 0.770679 0)
(-0.0356613 0.804414 0)
(0.0490948 0.828059 0)
(0.0812668 0.824317 0)
(0.0553022 0.79223 0)
(0.00730027 0.743771 0)
(-0.0318385 0.691478 0)
(-0.0522951 0.591703 0)
(-0.151886 0.426292 0)
(-0.300665 0.196443 0)
(-0.374156 0.01519 0)
(-0.354427 -0.0801941 0)
(-0.28384 -0.132015 0)
(-0.210416 -0.161453 0)
(-0.110221 -0.174613 0)
(-0.444153 -0.899203 0)
(-0.402162 -0.94223 0)
(-0.339177 -0.972596 0)
(-0.261793 -0.984337 0)
(-0.174934 -0.970881 0)
(-0.0786344 -0.920956 0)
(0.0326342 -0.778631 0)
(0.141622 -0.505926 0)
(0.190174 -0.174913 0)
(0.189479 0.1776 0)
(0.0960035 0.455892 0)
(-0.0408379 0.668738 0)
(-0.170055 0.78336 0)
(-0.243713 0.777331 0)
(-0.294967 0.750541 0)
(-0.269571 0.744299 0)
(-0.2458 0.739847 0)
(-0.182824 0.749748 0)
(-0.0961165 0.778242 0)
(0.000589179 0.808827 0)
(0.0686706 0.823243 0)
(0.0774981 0.812175 0)
(0.0322732 0.772166 0)
(-0.024171 0.719469 0)
(-0.0753849 0.659262 0)
(-0.1479 0.529886 0)
(-0.306309 0.317467 0)
(-0.424115 0.107545 0)
(-0.429735 -0.0114296 0)
(-0.37064 -0.0808793 0)
(-0.287208 -0.129173 0)
(-0.199438 -0.165683 0)
(-0.0734034 -0.194368 0)
(-0.494746 -0.896871 0)
(-0.447078 -0.940723 0)
(-0.378332 -0.97307 0)
(-0.294997 -0.985898 0)
(-0.205292 -0.971092 0)
(-0.106223 -0.920306 0)
(-0.00312637 -0.791231 0)
(0.117261 -0.510677 0)
(0.17686 -0.170221 0)
(0.187425 0.18373 0)
(0.0770387 0.496274 0)
(-0.0824153 0.698453 0)
(-0.211194 0.782232 0)
(-0.280816 0.761121 0)
(-0.311366 0.745877 0)
(-0.269006 0.746876 0)
(-0.224503 0.746105 0)
(-0.153243 0.755941 0)
(-0.0635461 0.785889 0)
(0.0286751 0.811465 0)
(0.0761253 0.816323 0)
(0.0597522 0.793674 0)
(-0.00396194 0.743574 0)
(-0.0687975 0.687765 0)
(-0.147585 0.606034 0)
(-0.293166 0.43131 0)
(-0.455613 0.208802 0)
(-0.505269 0.0586775 0)
(-0.460509 -0.0219759 0)
(-0.38367 -0.0844679 0)
(-0.291863 -0.135691 0)
(-0.183899 -0.177455 0)
(-0.0486055 -0.210925 0)
(-0.543727 -0.884986 0)
(-0.49066 -0.929863 0)
(-0.416251 -0.961445 0)
(-0.326239 -0.9759 0)
(-0.232675 -0.962291 0)
(-0.133265 -0.912159 0)
(-0.0386904 -0.798021 0)
(0.0939496 -0.51428 0)
(0.159127 -0.15936 0)
(0.179635 0.187551 0)
(0.0615583 0.512947 0)
(-0.121213 0.703791 0)
(-0.252865 0.762965 0)
(-0.31308 0.739832 0)
(-0.321393 0.740172 0)
(-0.264014 0.748117 0)
(-0.204651 0.751858 0)
(-0.128364 0.763899 0)
(-0.0337544 0.791938 0)
(0.0467451 0.810959 0)
(0.0691997 0.804743 0)
(0.0248797 0.765695 0)
(-0.0533774 0.704245 0)
(-0.134065 0.640161 0)
(-0.267098 0.519473 0)
(-0.458789 0.309943 0)
(-0.566087 0.129388 0)
(-0.55038 0.0323116 0)
(-0.476395 -0.0325455 0)
(-0.385758 -0.0915948 0)
(-0.281423 -0.145683 0)
(-0.153566 -0.193347 0)
(-0.0205982 -0.226696 0)
(-0.590662 -0.865037 0)
(-0.531435 -0.910224 0)
(-0.451603 -0.94165 0)
(-0.357313 -0.958147 0)
(-0.259703 -0.949202 0)
(-0.161098 -0.902385 0)
(-0.0711264 -0.800199 0)
(0.0704325 -0.517275 0)
(0.138745 -0.1408 0)
(0.162152 0.190953 0)
(0.04128 0.512294 0)
(-0.159726 0.688642 0)
(-0.289192 0.729678 0)
(-0.332542 0.720351 0)
(-0.318752 0.7327 0)
(-0.250342 0.745984 0)
(-0.184653 0.754154 0)
(-0.105106 0.770919 0)
(-0.00951526 0.796732 0)
(0.0518159 0.805542 0)
(0.0446385 0.782955 0)
(-0.0291861 0.722291 0)
(-0.120257 0.649676 0)
(-0.233937 0.560521 0)
(-0.423607 0.397122 0)
(-0.594195 0.199336 0)
(-0.627591 0.078484 0)
(-0.564759 0.00966905 0)
(-0.470222 -0.0500341 0)
(-0.362449 -0.107439 0)
(-0.242665 -0.162805 0)
(-0.10469 -0.217273 0)
(0.0196387 -0.238774 0)
(-0.633933 -0.838829 0)
(-0.568343 -0.884283 0)
(-0.48496 -0.91803 0)
(-0.388709 -0.937013 0)
(-0.288249 -0.934016 0)
(-0.189662 -0.893195 0)
(-0.0955035 -0.795265 0)
(0.0441959 -0.526953 0)
(0.118428 -0.12167 0)
(0.138509 0.192693 0)
(0.0109106 0.505309 0)
(-0.195441 0.662689 0)
(-0.307486 0.698456 0)
(-0.331126 0.705444 0)
(-0.301987 0.724361 0)
(-0.229928 0.739684 0)
(-0.163294 0.75383 0)
(-0.0807645 0.776298 0)
(0.00601077 0.798764 0)
(0.0386348 0.792566 0)
(-0.00589962 0.741093 0)
(-0.104968 0.654108 0)
(-0.21241 0.564782 0)
(-0.375444 0.4339 0)
(-0.572594 0.257909 0)
(-0.672981 0.112798 0)
(-0.642294 0.0364447 0)
(-0.547227 -0.0209269 0)
(-0.430328 -0.0784748 0)
(-0.306033 -0.133872 0)
(-0.183227 -0.187844 0)
(-0.0364494 -0.236584 0)
(0.0646107 -0.238046 0)
(-0.672043 -0.807533 0)
(-0.601278 -0.854436 0)
(-0.515669 -0.891534 0)
(-0.419271 -0.914499 0)
(-0.318851 -0.918011 0)
(-0.220027 -0.886223 0)
(-0.119746 -0.793451 0)
(0.00549548 -0.551959 0)
(0.0932243 -0.100983 0)
(0.11465 0.194755 0)
(-0.0199488 0.499129 0)
(-0.215453 0.640187 0)
(-0.304065 0.678649 0)
(-0.311626 0.69228 0)
(-0.274299 0.713528 0)
(-0.204733 0.730929 0)
(-0.136624 0.753455 0)
(-0.0563235 0.778596 0)
(0.00852323 0.793856 0)
(-0.00255522 0.760058 0)
(-0.0928933 0.662799 0)
(-0.208588 0.552776 0)
(-0.341406 0.427581 0)
(-0.528611 0.264293 0)
(-0.666156 0.12643 0)
(-0.68922 0.0433755 0)
(-0.61299 -0.0104192 0)
(-0.496581 -0.0666859 0)
(-0.368126 -0.120547 0)
(-0.241316 -0.165737 0)
(-0.123218 -0.202381 0)
(0.0188744 -0.232566 0)
(0.0854059 -0.212363 0)
(-0.700704 -0.773691 0)
(-0.627625 -0.823066 0)
(-0.542724 -0.863554 0)
(-0.448862 -0.891728 0)
(-0.351418 -0.902197 0)
(-0.253309 -0.880952 0)
(-0.150701 -0.798527 0)
(-0.0514302 -0.596704 0)
(0.0676486 -0.0939479 0)
(0.0932415 0.199883 0)
(-0.0377955 0.497282 0)
(-0.213392 0.627041 0)
(-0.283372 0.666676 0)
(-0.27997 0.679387 0)
(-0.236266 0.699129 0)
(-0.173334 0.721681 0)
(-0.104717 0.751176 0)
(-0.0375637 0.77348 0)
(-0.0139309 0.769729 0)
(-0.091466 0.681333 0)
(-0.218241 0.544918 0)
(-0.344148 0.403015 0)
(-0.502663 0.230249 0)
(-0.63838 0.0847643 0)
(-0.678485 0.00255966 0)
(-0.64348 -0.0471657 0)
(-0.552714 -0.0880797 0)
(-0.439578 -0.13025 0)
(-0.317674 -0.165185 0)
(-0.199822 -0.190914 0)
(-0.0876073 -0.2075 0)
(0.0333881 -0.209471 0)
(0.078006 -0.158556 0)
(-0.717387 -0.738447 0)
(-0.6445 -0.790954 0)
(-0.562447 -0.83536 0)
(-0.474034 -0.868996 0)
(-0.38322 -0.887051 0)
(-0.289987 -0.876328 0)
(-0.19249 -0.810468 0)
(-0.11733 -0.641785 0)
(0.040919 -0.116475 0)
(0.0776691 0.212616 0)
(-0.036749 0.497511 0)
(-0.192219 0.620887 0)
(-0.250495 0.659404 0)
(-0.241175 0.669447 0)
(-0.192534 0.683455 0)
(-0.135487 0.70864 0)
(-0.0714868 0.740241 0)
(-0.0354218 0.7519 0)
(-0.0873752 0.697968 0)
(-0.230055 0.552907 0)
(-0.375705 0.386163 0)
(-0.525418 0.189142 0)
(-0.642368 0.0196093 0)
(-0.677056 -0.079758 0)
(-0.647984 -0.12017 0)
(-0.597702 -0.14217 0)
(-0.517986 -0.160148 0)
(-0.418744 -0.178917 0)
(-0.306952 -0.196271 0)
(-0.198405 -0.206246 0)
(-0.0919236 -0.202164 0)
(0.0046683 -0.168823 0)
(0.0391979 -0.0600025 0)
(-0.717839 -0.701435 0)
(-0.648745 -0.756298 0)
(-0.572226 -0.804845 0)
(-0.491766 -0.844931 0)
(-0.410026 -0.871609 0)
(-0.326235 -0.871682 0)
(-0.239884 -0.823892 0)
(-0.170917 -0.676624 0)
(0.00824561 -0.191886 0)
(0.0673646 0.23851 0)
(-0.0243826 0.499035 0)
(-0.157484 0.61726 0)
(-0.208391 0.655009 0)
(-0.199451 0.663478 0)
(-0.1491 0.669712 0)
(-0.0952819 0.689482 0)
(-0.0452431 0.71463 0)
(-0.0742877 0.695112 0)
(-0.21935 0.572752 0)
(-0.408186 0.388809 0)
(-0.57811 0.178706 0)
(-0.695108 -0.00914227 0)
(-0.727491 -0.122219 0)
(-0.702209 -0.172872 0)
(-0.655257 -0.195076 0)
(-0.601965 -0.207933 0)
(-0.52975 -0.221864 0)
(-0.437052 -0.233983 0)
(-0.324418 -0.239567 0)
(-0.222079 -0.227306 0)
(-0.12408 -0.188682 0)
(-0.0494535 -0.101647 0)
(-0.0216716 0.0449514 0)
(-0.698728 -0.664161 0)
(-0.636193 -0.720577 0)
(-0.568916 -0.772858 0)
(-0.499514 -0.819132 0)
(-0.427928 -0.854358 0)
(-0.355177 -0.867147 0)
(-0.280633 -0.837554 0)
(-0.205053 -0.717312 0)
(-0.020506 -0.321543 0)
(0.058302 0.266109 0)
(-0.0116292 0.5028 0)
(-0.116338 0.613792 0)
(-0.158631 0.650641 0)
(-0.156862 0.65839 0)