/*--------------------------------*- C++ -*----------------------------------*\
  =========                 |
  \\      /  F ield         | OpenFOAM: The Open Source CFD Toolbox
   \\    /   O peration     | Website:  https://openfoam.org
    \\  /    A nd           | Version:  10
     \\/     M anipulation  |
\*---------------------------------------------------------------------------*/
FoamFile
{
    format      ascii;
    class       volScalarField;
    location    "0.299102";
    object      p;
}
// * * * * * * * * * * * * * * * * * * * * * * * * * * * * * * * * * * * * * //

dimensions      [1 -1 -2 0 0 0 0];

internalField   nonuniform List<scalar> 
16320
(
0.359986
0.355361
0.357576
0.363096
0.396775
0.436915
0.494434
0.542548
0.570704
0.584315
0.604157
0.626651
0.654217
0.689589
0.729201
0.768482
0.797306
0.810238
0.811169
0.796364
0.771394
0.740547
0.70398
0.663671
0.623441
0.589741
0.565138
0.547506
0.534731
0.52614
0.518931
0.512848
0.507655
0.503816
0.501315
0.499696
0.498458
0.497759
0.500205
0.507324
0.511353
0.51012
0.508875
0.507431
0.503681
0.499596
0.496334
0.494091
0.494128
0.49565
0.498362
0.500539
0.502645
0.504473
0.504228
0.505192
0.505917
0.506599
0.507246
0.511807
0.518209
0.530184
0.554421
0.600852
0.694528
0.837232
0.963588
1.06042
1.13914
1.18003
1.20497
1.22128
1.23153
1.23303
1.22972
1.20632
1.09229
0.873393
0.659746
0.548296
0.498314
0.478106
0.472023
0.471884
0.476813
0.482617
0.486769
0.487911
0.487477
0.484064
0.481579
0.47885
0.476279
0.473898
0.473515
0.471978
0.469295
0.464413
0.469599
0.490697
0.532634
0.576305
0.607339
0.632663
0.649186
0.662157
0.679822
0.689165
0.642829
0.547374
0.464483
0.419644
0.39792
0.35315
0.348635
0.348468
0.351464
0.377975
0.408661
0.456753
0.501781
0.535899
0.553519
0.574597
0.594927
0.620405
0.654491
0.692873
0.730608
0.761407
0.7775
0.78049
0.768679
0.748404
0.723499
0.692496
0.653966
0.611807
0.574592
0.546453
0.526504
0.512749
0.502958
0.495445
0.489943
0.486115
0.484098
0.48331
0.483259
0.484072
0.493009
0.496932
0.496795
0.497038
0.49319
0.488831
0.49045
0.488402
0.485779
0.483795
0.484837
0.486994
0.489431
0.491679
0.493197
0.495613
0.498372
0.499134
0.500559
0.501724
0.502783
0.503877
0.508716
0.515855
0.528102
0.553076
0.604343
0.705325
0.848331
0.969557
1.06183
1.14044
1.18227
1.20858
1.22413
1.23221
1.23227
1.23188
1.20476
1.08654
0.877576
0.676294
0.559468
0.502858
0.477379
0.467265
0.464545
0.466927
0.47018
0.474354
0.47614
0.473376
0.469537
0.466476
0.463171
0.460775
0.458899
0.458274
0.45611
0.452733
0.44838
0.456017
0.4799
0.525114
0.578872
0.612613
0.628171
0.647181
0.658806
0.668891
0.679968
0.670391
0.604819
0.510513
0.442469
0.404984
0.347603
0.341734
0.340672
0.342259
0.361936
0.384131
0.423166
0.465005
0.501761
0.528244
0.547022
0.568838
0.593598
0.625634
0.661192
0.69471
0.721561
0.737023
0.741688
0.733391
0.718634
0.699468
0.675846
0.641454
0.600299
0.56051
0.529207
0.507132
0.492201
0.482017
0.474662
0.470087
0.467613
0.466704
0.467238
0.470274
0.475698
0.479494
0.484855
0.488432
0.489796
0.488008
0.483319
0.478953
0.476859
0.476427
0.475028
0.475301
0.477335
0.480801
0.484314
0.488025
0.490853
0.493535
0.493932
0.495873
0.497387
0.498812
0.50037
0.505091
0.512165
0.525786
0.552276
0.607606
0.714507
0.85396
0.970276
1.05712
1.13789
1.18119
1.21027
1.22618
1.23299
1.23272
1.23289
1.20671
1.08499
0.888695
0.698876
0.577877
0.511885
0.477807
0.461954
0.456013
0.455152
0.457308
0.459592
0.460558
0.456165
0.454039
0.451462
0.448365
0.446392
0.445051
0.444101
0.441889
0.438984
0.439685
0.448275
0.475675
0.529786
0.587734
0.620162
0.635449
0.644136
0.657629
0.662496
0.669581
0.671696
0.639762
0.556485
0.475411
0.42287
0.342419
0.33605
0.334256
0.334473
0.347181
0.3638
0.394333
0.432082
0.470096
0.502818
0.527224
0.548171
0.573452
0.604618
0.638923
0.667592
0.688384
0.700263
0.703621
0.697125
0.686948
0.674702
0.656938
0.628553
0.590039
0.549156
0.515068
0.490909
0.474838
0.464242
0.457241
0.453384
0.451892
0.452276
0.452173
0.453837
0.46164
0.469867
0.47704
0.481998
0.483733
0.481745
0.477493
0.473629
0.470044
0.468023
0.465197
0.46738
0.47109
0.474425
0.478086
0.481484
0.484614
0.488186
0.489163
0.491462
0.493046
0.494722
0.496796
0.500695
0.508889
0.522597
0.551176
0.610091
0.719211
0.854032
0.962006
1.04772
1.13166
1.17776
1.20995
1.22662
1.23323
1.23342
1.23578
1.20919
1.09033
0.906074
0.725741
0.599121
0.523216
0.480168
0.457292
0.44719
0.442694
0.443932
0.444887
0.443908
0.443585
0.439258
0.437197
0.43497
0.433932
0.43329
0.432416
0.431051
0.429776
0.433576
0.445595
0.47783
0.538437
0.60055
0.631646
0.64444
0.651006
0.651967
0.662068
0.666332
0.668545
0.656467
0.595317
0.513262
0.460987
0.337266
0.331128
0.328515
0.327995
0.334417
0.348094
0.370984
0.403953
0.441398
0.478293
0.509231
0.533306
0.560508
0.593435
0.625559
0.648086
0.663535
0.67199
0.671825
0.666102
0.658113
0.651159
0.638068
0.616344
0.581697
0.54106
0.504763
0.478389
0.461084
0.449763
0.442979
0.439815
0.439018
0.438766
0.433349
0.444506
0.45402
0.463801
0.474325
0.479983
0.481407
0.480095
0.4757
0.469599
0.468063
0.46542
0.462953
0.462041
0.465435
0.469683
0.473391
0.476869
0.480112
0.483895
0.484494
0.486859
0.488781
0.49023
0.492963
0.497285
0.504506
0.519204
0.549765
0.610749
0.716669
0.846195
0.949773
1.03663
1.12252
1.17178
1.20692
1.22448
1.23169
1.23288
1.23701
1.21073
1.10144
0.930715
0.757364
0.622029
0.533447
0.482627
0.453623
0.440416
0.433016
0.430144
0.431526
0.430352
0.428531
0.426566
0.424899
0.423756
0.42372
0.423939
0.423269
0.423602
0.424197
0.429829
0.446737
0.484962
0.553295
0.61784
0.646368
0.656013
0.659136
0.659696
0.662743
0.667994
0.668479
0.665143
0.625423
0.547079
0.507875
0.331616
0.326354
0.322649
0.322305
0.324022
0.336133
0.353029
0.381429
0.416782
0.454934
0.490114
0.521928
0.554614
0.587858
0.615564
0.632283
0.643028
0.649158
0.646976
0.641466
0.634969
0.629593
0.622646
0.605366
0.575255
0.535907
0.498095
0.469473
0.450609
0.438403
0.431467
0.428121
0.426466
0.421993
0.423837
0.437223
0.447863
0.460522
0.473886
0.479324
0.481168
0.481374
0.475533
0.467978
0.464954
0.462336
0.460928
0.460759
0.462181
0.465584
0.469149
0.472507
0.475699
0.479633
0.479682
0.482966
0.484733
0.485261
0.489041
0.492377
0.499878
0.515473
0.546136
0.60591
0.707395
0.834299
0.937775
1.02488
1.11058
1.16275
1.19948
1.21857
1.22714
1.22908
1.23435
1.21274
1.11899
0.964211
0.793415
0.643611
0.541578
0.484786
0.451895
0.435746
0.426049
0.420021
0.418323
0.416491
0.414985
0.413296
0.413961
0.415107
0.415831
0.416728
0.416791
0.418402
0.421261
0.429606
0.451047
0.498242
0.574672
0.640588
0.665761
0.671876
0.670403
0.66841
0.669776
0.670458
0.671676
0.670175
0.645249
0.577562
0.547437
0.326199
0.320065
0.316722
0.316284
0.31713
0.327278
0.340767
0.364215
0.396557
0.434074
0.470792
0.507541
0.54563
0.579425
0.601566
0.616215
0.625432
0.629684
0.626818
0.621882
0.618248
0.612543
0.60884
0.595589
0.570436
0.533222
0.494479
0.463591
0.442927
0.42963
0.422056
0.418342
0.415924
0.408874
0.418378
0.429861
0.440739
0.456991
0.472954
0.482711
0.486092
0.486745
0.479022
0.46862
0.46387
0.461419
0.460056
0.459857
0.461386
0.463813
0.466786
0.470024
0.473083
0.472883
0.476793
0.479448
0.479547
0.482334
0.483785
0.487201
0.495025
0.510967
0.540203
0.596762
0.693466
0.820405
0.92541
1.0122
1.09755
1.15107
1.18855
1.20898
1.21917
1.22237
1.2255
1.21438
1.14117
1.00334
0.827394
0.659524
0.546341
0.486501
0.451943
0.431736
0.419795
0.412265
0.407156
0.406748
0.404333
0.4073
0.406596
0.408506
0.409784
0.411275
0.412155
0.414477
0.41986
0.431585
0.459357
0.516792
0.600949
0.665938
0.686696
0.689534
0.683973
0.679682
0.674077
0.674473
0.675314
0.673423
0.656118
0.607106
0.581368
0.320192
0.314871
0.312093
0.311367
0.312185
0.319392
0.331878
0.35259
0.380881
0.4156
0.452079
0.490694
0.531457
0.561242
0.581269
0.596801
0.606676
0.611229
0.609673
0.606721
0.603095
0.59872
0.5966
0.587663
0.5671
0.532438
0.493255
0.460172
0.437489
0.422856
0.414348
0.410116
0.40687
0.399684
0.411874
0.420559
0.432568
0.451663
0.472039
0.487719
0.493693
0.494659
0.483698
0.47033
0.463688
0.460898
0.460061
0.459847
0.461349
0.463401
0.465267
0.467126
0.469731
0.472134
0.475094
0.474427
0.476866
0.477523
0.478746
0.482304
0.489977
0.504704
0.531183
0.585653
0.677998
0.803664
0.911701
0.995139
1.08177
1.13701
1.17519
1.19643
1.20794
1.21195
1.21161
1.20784
1.16127
1.03837
0.851051
0.669163
0.548301
0.484672
0.450528
0.428201
0.414052
0.405539
0.399674
0.398494
0.397485
0.398631
0.399348
0.40269
0.404689
0.406792
0.408536
0.411692
0.419742
0.436191
0.471408
0.54056
0.630731
0.691961
0.708245
0.707996
0.698904
0.690671
0.68144
0.679643
0.678787
0.675773
0.664007
0.633603
0.611422
0.314185
0.309923
0.307997
0.307391
0.309651
0.314619
0.327872
0.345577
0.36938
0.399702
0.433685
0.471332
0.510198
0.538973
0.558951
0.575347
0.586823
0.593633
0.59401
0.592831
0.59053
0.587058
0.585735
0.581796
0.564885
0.532719
0.493563
0.458635
0.433877
0.417739
0.408051
0.402933
0.399205
0.393533
0.405877
0.413168
0.426684
0.447845
0.469633
0.486224
0.492753
0.493499
0.483087
0.470545
0.463525
0.461407
0.460575
0.460872
0.461845
0.463824
0.465778
0.467645
0.469561
0.470671
0.471408
0.472609
0.47262
0.472994
0.474395
0.477481
0.483752
0.497989
0.522173
0.574733
0.661651
0.78425
0.891983
0.970979
1.06028
1.12146
1.16028
1.18203
1.19421
1.19831
1.19647
1.19663
1.17019
1.05881
0.862782
0.665442
0.54221
0.478792
0.447154
0.424872
0.409358
0.400057
0.393777
0.389727
0.389696
0.391001
0.394943
0.397888
0.400465
0.402819
0.405387
0.410166
0.421043
0.442917
0.487703
0.569431
0.661599
0.717281
0.730174
0.727622
0.717705
0.706752
0.69391
0.687998
0.68502
0.681831
0.674688
0.657997
0.639646
0.308627
0.305437
0.304235
0.304818
0.308115
0.313781
0.324601
0.341161
0.363565
0.388921
0.417967
0.454454
0.487949
0.514877
0.5356
0.552867
0.566591
0.576377
0.579154
0.579719
0.578719
0.576799
0.576775
0.575877
0.562642
0.533646
0.494828
0.458627
0.43169
0.413993
0.403119
0.397123
0.392881
0.387316
0.397838
0.405229
0.420307
0.441595
0.462104
0.475796
0.480864
0.481574
0.475009
0.466255
0.461996
0.461238
0.46116
0.462095
0.462915
0.464613
0.46617
0.467566
0.468647
0.469218
0.46982
0.469317
0.46942
0.469162
0.4699
0.472349
0.479313
0.492131
0.517207
0.565229
0.647146
0.761026
0.864517
0.943312
1.03234
1.10445
1.14356
1.16594
1.1786
1.18199
1.17824
1.17713
1.17539
1.06612
0.850201
0.646179
0.530072
0.47254
0.443409
0.421289
0.405686
0.39559
0.388831
0.384709
0.386275
0.388204
0.392264
0.394496
0.396689
0.399232
0.402983
0.410415
0.424175
0.45224
0.508436
0.600556
0.6925
0.742365
0.753028
0.748364
0.73811
0.725204
0.710108
0.700866
0.697229
0.693994
0.690343
0.6815
0.66655
0.303645
0.301776
0.301095
0.303592
0.307894
0.314252
0.324795
0.338974
0.359884
0.383052
0.409499
0.439286
0.466853
0.491875
0.512778
0.530889
0.546462
0.559243
0.56459
0.567127
0.567443
0.567287
0.568544
0.570042
0.560193
0.534256
0.496876
0.459418
0.430666
0.411309
0.39928
0.392167
0.387399
0.382615
0.390383
0.39834
0.414003
0.433636
0.451639
0.461963
0.46581
0.465713
0.463002
0.459589
0.458882
0.459968
0.462265
0.463206
0.464038
0.46562
0.466728
0.467612
0.468053
0.468032
0.467768
0.466879
0.465085
0.464915
0.465875
0.468722
0.474949
0.487343
0.513586
0.560214
0.636234
0.736299
0.829814
0.91057
0.999137
1.08571
1.12561
1.149
1.16157
1.16409
1.16037
1.15554
1.17411
1.04981
0.82409
0.628246
0.522288
0.468872
0.442013
0.420256
0.40414
0.393093
0.385089
0.381879
0.381651
0.382682
0.38749
0.390423
0.392949
0.396366
0.402168
0.411818
0.429361
0.464684
0.532115
0.634202
0.725083
0.768593
0.777422
0.771023
0.761233
0.74609
0.730807
0.720564
0.71642
0.712884
0.708877
0.705082
0.69293
0.299374
0.298693
0.298953
0.303148
0.308373
0.315599
0.32592
0.339518
0.357024
0.377768
0.4014
0.423103
0.448192
0.471414
0.491646
0.51001
0.527429
0.542919
0.550504
0.554482
0.556646
0.558394
0.560899
0.564215
0.557459
0.534517
0.498828
0.461041
0.43063
0.409598
0.396442
0.388613
0.384107
0.380656
0.384237
0.393738
0.408968
0.425241
0.439383
0.446228
0.451169
0.450754
0.450566
0.451045
0.454313
0.458398
0.462287
0.464724
0.464845
0.466319
0.467101
0.467452
0.467373
0.466639
0.465241
0.463693
0.462457
0.461873
0.462532
0.465096
0.47112
0.484174
0.511302
0.558118
0.628338
0.71212
0.795045
0.87532
0.960523
1.05857
1.10634
1.13075
1.14292
1.14455
1.1404
1.13599
1.15856
1.0256
0.80401
0.619602
0.519591
0.467793
0.443521
0.422116
0.404892
0.393226
0.384793
0.379404
0.379111
0.380328
0.38423
0.387473
0.390344
0.395484
0.402989
0.415073
0.437331
0.480813
0.560063
0.670728
0.761337
0.797185
0.803784
0.795717
0.786616
0.771536
0.756796
0.746517
0.742198
0.738323
0.73299
0.728795
0.720384
0.29572
0.296281
0.297701
0.303393
0.309883
0.318415
0.32888
0.341688
0.356661
0.373036
0.39056
0.412407
0.433299
0.454279
0.472845
0.491496
0.510618
0.528025
0.537589
0.5424
0.546388
0.550069
0.553751
0.558472
0.554334
0.534188
0.500405
0.462754
0.431071
0.408856
0.394743
0.386527
0.38238
0.380304
0.380199
0.389889
0.402674
0.416037
0.426127
0.431274
0.43554
0.435012
0.435105
0.439384
0.447337
0.455837
0.462135
0.465681
0.46632
0.467706
0.468013
0.46766
0.466556
0.46518
0.463401
0.461419
0.459546
0.458471
0.459038
0.461455
0.467599
0.481392
0.508224
0.554793
0.619713
0.691735
0.76838
0.841053
0.922462
1.02154
1.08261
1.1096
1.12176
1.1228
1.1184
1.11462
1.13494
1.00099
0.792262
0.616786
0.52066
0.470879
0.447642
0.426522
0.40819
0.396044
0.38538
0.380783
0.378963
0.379871
0.383564
0.386491
0.390364
0.396173
0.405326
0.420845
0.449088
0.502396
0.596172
0.714444
0.801536
0.826994
0.830279
0.821095
0.812778
0.798734
0.785642
0.776451
0.771996
0.766787
0.760764
0.753869
0.743021
0.29271
0.294486
0.29724
0.304455
0.313139
0.322702
0.332703
0.343933
0.357046
0.370581
0.387183
0.403852
0.42142
0.439989
0.45692
0.475982
0.496439
0.514989
0.526219
0.53174
0.53713
0.542329
0.547213
0.552891
0.550964
0.533395
0.501442
0.464348
0.431934
0.408674
0.393864
0.385244
0.380981
0.379215
0.379132
0.389013
0.398426
0.408726
0.416023
0.418349
0.420386
0.419956
0.420358
0.427076
0.437252
0.449741
0.461967
0.46723
0.466721
0.468049
0.467939
0.467202
0.466032
0.464032
0.46139
0.45867
0.456311
0.454989
0.455528
0.457982
0.464206
0.477606
0.504105
0.548732
0.608883
0.675839
0.747305
0.811263
0.887037
0.979218
1.05288
1.08258
1.09697
1.09818
1.09356
1.09019
1.10396
0.977343
0.785911
0.62064
0.525978
0.480027
0.452425
0.43287
0.414535
0.401966
0.388478
0.382104
0.37949
0.380241
0.383305
0.387015
0.391355
0.398266
0.410002
0.430281
0.466885
0.534884
0.647748
0.768982
0.840641
0.857653
0.853552
0.844023
0.837292
0.826418
0.815618
0.808265
0.803205
0.796207
0.787633
0.7785
0.767053
0.290452
0.293551
0.297416
0.305273
0.314265
0.324149
0.334942
0.346258
0.358187
0.370476
0.383306
0.396311
0.41164
0.427995
0.444247
0.463798
0.485072
0.504023
0.516813
0.522814
0.529273
0.535645
0.541483
0.547801
0.547827
0.532217
0.501796
0.465503
0.432739
0.408809
0.393454
0.384666
0.380437
0.378765
0.379754
0.388307
0.39551
0.403394
0.408856
0.409915
0.412331
0.410647
0.412658
0.420528
0.431716
0.444941
0.459093
0.466584
0.467078
0.468501
0.46782
0.46645
0.464525
0.461965
0.458946
0.455908
0.453249
0.451649
0.452072
0.45446
0.460543
0.473713
0.499496
0.542169
0.599504
0.663134
0.72813
0.784077
0.851818
0.934517
1.01559
1.05151
1.0687
1.0703
1.06481
1.06094
1.06749
0.953131
0.783043
0.630695
0.537081
0.489245
0.457996
0.440456
0.421926
0.409422
0.393477
0.385514
0.382726
0.382445
0.384805
0.388857
0.393987
0.402696
0.419551
0.446867
0.49647
0.586925
0.715243
0.828201
0.870491
0.876006
0.870117
0.862692
0.857772
0.851233
0.844159
0.838942
0.832779
0.823701
0.812443
0.802332
0.793996
0.288807
0.29281
0.297985
0.30686
0.316117
0.326232
0.336859
0.347364
0.357841
0.368433
0.378893
0.390313
0.40363
0.418206
0.434404
0.454518
0.476384
0.495536
0.509483
0.515956
0.522924
0.53057
0.536965
0.543526
0.544272
0.530595
0.501633
0.465987
0.43331
0.409081
0.393447
0.384708
0.380607
0.379127
0.381021
0.387573
0.393893
0.399907
0.404542
0.404923
0.409064
0.408893
0.413234
0.422791
0.434426
0.446213
0.459151
0.465833
0.468397
0.468832
0.467414
0.465538
0.462952
0.459778
0.456388
0.453008
0.450118
0.44841
0.448781
0.451101
0.45704
0.470068
0.494876
0.535774
0.591795
0.652314
0.709337
0.75785
0.816572
0.890599
0.971862
1.01683
1.03703
1.03946
1.03276
1.02861
1.02993
0.930367
0.783778
0.643865
0.550686
0.49962
0.465113
0.448904
0.430741
0.41472
0.400918
0.392326
0.388563
0.387448
0.388816
0.393519
0.400533
0.412568
0.436214
0.475187
0.546564
0.664126
0.793183
0.871445
0.885838
0.883478
0.877896
0.872173
0.868655
0.86756
0.866186
0.864047
0.857944
0.847101
0.837464
0.827518
0.822065
0.287669
0.293097
0.299241
0.308659
0.318062
0.328044
0.337966
0.347479
0.356676
0.365761
0.375007
0.385285
0.397182
0.410759
0.42693
0.447553
0.469872
0.489361
0.504244
0.511149
0.518419
0.52629
0.534006
0.541311
0.543116
0.529156
0.501036
0.465874
0.433465
0.409156
0.393632
0.385042
0.381259
0.380122
0.38261
0.387696
0.393419
0.397944
0.402479
0.40382
0.409164
0.411736
0.419608
0.431373
0.443294
0.45255
0.462192
0.467293
0.468954
0.469001
0.467869
0.464877
0.460799
0.456952
0.453323
0.449849
0.446897
0.445212
0.445668
0.448035
0.453976
0.466621
0.490748
0.530195
0.584101
0.642436
0.691591
0.735479
0.782746
0.846757
0.923116
0.979352
1.00218
1.00643
0.997909
0.9947
0.995952
0.909896
0.787385
0.659919
0.566861
0.50976
0.476429
0.455898
0.437537
0.419249
0.410122
0.399762
0.395588
0.394835
0.39767
0.403461
0.413684
0.431524
0.465269
0.524456
0.628075
0.758958
0.854587
0.885801
0.886224
0.882995
0.878373
0.873166
0.870841
0.873407
0.877862
0.881748
0.878129
0.869001
0.863358
0.854944
0.854365
0.288127
0.294081
0.301335
0.310489
0.31976
0.329463
0.338843
0.347686
0.356013
0.364053
0.372321
0.381526
0.392303
0.405235
0.421523
0.442467
0.465198
0.48515
0.500951
0.508358
0.515826
0.523544
0.532669
0.54113
0.541907
0.527887
0.499705
0.465002
0.433081
0.409238
0.393945
0.385726
0.382226
0.381636
0.384248
0.388344
0.393493
0.397294
0.401557
0.404156
0.411513
0.41933
0.42997
0.442657
0.454094
0.462418
0.47026
0.474
0.47088
0.469856
0.467345
0.463687
0.460075
0.456047
0.451909
0.447982
0.444713
0.442833
0.443264
0.445595
0.451397
0.463659
0.486935
0.524577
0.575888
0.631724
0.67808
0.715106
0.752989
0.808943
0.876857
0.937927
0.965114
0.972811
0.963066
0.957801
0.963551
0.891483
0.792396
0.677805
0.585696
0.524203
0.487595
0.460952
0.443443
0.42714
0.415889
0.407719
0.40435
0.404236
0.408876
0.418151
0.434595
0.463292
0.517196
0.608761
0.73257
0.83269
0.869788
0.880382
0.880015
0.875976
0.87057
0.865515
0.864156
0.869398
0.880045
0.890385
0.893334
0.889083
0.888226
0.88627
0.893207
0.289752
0.296413
0.304498
0.313496
0.322677
0.33201
0.3408
0.348999
0.356741
0.36408
0.371333
0.379258
0.389122
0.401696
0.418034
0.439022
0.462029
0.482435
0.499034
0.507464
0.515138
0.522274
0.532744
0.542726
0.543329
0.52863
0.498779
0.463505
0.432016
0.408857
0.394201
0.386515
0.383403
0.383249
0.385742
0.389268
0.393595
0.397138
0.401026
0.403935
0.413082
0.424188
0.4354
0.447831
0.46231
0.47255
0.478616
0.480262
0.474064
0.47097
0.465983
0.460831
0.45618
0.451856
0.447706
0.443989
0.441162
0.439793
0.44056
0.443146
0.449001
0.460923
0.483205
0.518766
0.567594
0.620852
0.665695
0.697101
0.727978
0.776067
0.835474
0.896752
0.928965
0.939794
0.931364
0.922011
0.926163
0.881987
0.798397
0.696021
0.606162
0.540748
0.498621
0.467018
0.448598
0.433668
0.420634
0.416927
0.414128
0.415972
0.424143
0.439765
0.467551
0.517862
0.6031
0.714126
0.8084
0.848642
0.863683
0.869512
0.868307
0.863089
0.856639
0.850968
0.850817
0.85698
0.872083
0.890735
0.902361
0.905763
0.912628
0.919758
0.938777
0.293843
0.301211
0.309981
0.319149
0.32842
0.337425
0.345695
0.353208
0.360016
0.366425
0.37276
0.379754
0.388319
0.400329
0.416457
0.437172
0.460286
0.481122
0.49837
0.507895
0.515775
0.523036
0.534862
0.547905
0.549446
0.530276
0.497314
0.461526
0.43065
0.408224
0.394406
0.387299
0.384603
0.384638
0.386877
0.389891
0.393498
0.396772
0.400376
0.403227
0.412907
0.423115
0.433391
0.447046
0.464219
0.477348
0.483603
0.482752
0.477235
0.471498
0.464105
0.457305
0.451595
0.446975
0.443177
0.440124
0.437988
0.437303
0.43836
0.441214
0.447153
0.458572
0.479425
0.512707
0.558738
0.609489
0.652797
0.681417
0.710341
0.749658
0.800628
0.85923
0.896446
0.908558
0.904605
0.895055
0.896298
0.880225
0.800509
0.71286
0.627552
0.559278
0.511635
0.475003
0.454335
0.43958
0.429045
0.422327
0.425652
0.432581
0.44784
0.474915
0.523198
0.600398
0.695828
0.775704
0.817853
0.839959
0.85117
0.854352
0.852037
0.8467
0.840438
0.835383
0.833304
0.840228
0.855686
0.881272
0.903214
0.915336
0.932953
0.950835
0.981021
0.303271
0.311209
0.320608
0.330405
0.339968
0.348771
0.356609
0.36336
0.369054
0.373889
0.378215
0.382988
0.390088
0.401249
0.416905
0.437241
0.460083
0.481207
0.49876
0.510079
0.518418
0.525703
0.538279
0.55461
0.56038
0.536532
0.50041
0.45879
0.428595
0.407503
0.394577
0.388035
0.385609
0.385693
0.387558
0.390056
0.393002
0.395888
0.399145
0.402174
0.411128
0.418749
0.4263
0.44075
0.458081
0.474148
0.486167
0.488482
0.48012
0.467948
0.457814
0.450232
0.445076
0.441398
0.438602
0.43651
0.435281
0.435374
0.436771
0.439988
0.445958
0.456695
0.475693
0.506417
0.549233
0.597281
0.639131
0.667602
0.696137
0.728487
0.772807
0.825308
0.865378
0.879693
0.880932
0.872857
0.873829
0.868569
0.802317
0.726222
0.648411
0.580162
0.527403
0.486853
0.461801
0.446021
0.438032
0.435299
0.435607
0.454034
0.480597
0.523677
0.590148
0.66583
0.728468
0.776061
0.80679
0.825024
0.834108
0.835972
0.833454
0.828615
0.823323
0.819181
0.817585
0.820866
0.835372
0.861826
0.892766
0.917015
0.943374
0.969355
0.999344
0.323592
0.330969
0.340814
0.351332
0.361607
0.370965
0.378791
0.384864
0.388929
0.391203
0.392399
0.39319
0.396737
0.405354
0.419401
0.438615
0.46097
0.482322
0.500669
0.514838
0.523111
0.529252
0.541583
0.56185
0.571761
0.54932
0.505102
0.461088
0.42626
0.406432
0.394554
0.388864
0.386503
0.386494
0.387839
0.38977
0.391875
0.394181
0.396845
0.399721
0.405337
0.409681
0.411349
0.423464
0.437622
0.452743
0.464963
0.469015
0.464293
0.455283
0.446386
0.440044
0.436255
0.434157
0.433133
0.432721
0.432906
0.433913
0.43603
0.439684
0.445617
0.455478
0.472286
0.499992
0.539123
0.584378
0.62534
0.655178
0.682746
0.711019
0.749858
0.796178
0.836524
0.853086
0.859341
0.853545
0.85337
0.847153
0.804987
0.736314
0.667616
0.603346
0.547337
0.502455
0.472413
0.455031
0.448686
0.449522
0.456691
0.475374
0.508312
0.560239
0.622551
0.681332
0.733099
0.766597
0.790559
0.807099
0.814827
0.816257
0.814231
0.810272
0.806033
0.803143
0.802238
0.805635
0.813169
0.838188
0.869928
0.902471
0.93538
0.963238
0.986452
0.365388
0.367418
0.376353
0.387669
0.399439
0.41009
0.418953
0.424868
0.426953
0.425986
0.422014
0.416595
0.413501
0.416404
0.426489
0.443178
0.464131
0.48557
0.505197
0.520609
0.529474
0.536549
0.547676
0.567688
0.580921
0.56424
0.515603
0.465414
0.429397
0.405769
0.394883
0.389256
0.387395
0.387183
0.387765
0.388925
0.390209
0.391748
0.39343
0.394895
0.397615
0.399153
0.399788
0.408248
0.417647
0.426242
0.434211
0.435921
0.43227
0.428874
0.426292
0.425178
0.425391
0.426394
0.427876
0.429482
0.431171
0.433382
0.436382
0.440432
0.446147
0.454909
0.469342
0.493467
0.528685
0.571022
0.611469
0.64293
0.670571
0.696757
0.731062
0.771617
0.81055
0.829074
0.839136
0.835756
0.833245
0.828036
0.803881
0.742461
0.684296
0.627691
0.571799
0.522294
0.486956
0.468574
0.463064
0.465336
0.478794
0.50452
0.541651
0.589009
0.641152
0.683937
0.721962
0.750412
0.772493
0.787771
0.794991
0.796656
0.79539
0.79243
0.789159
0.78716
0.786824
0.789066
0.79468
0.814531
0.841397
0.874523
0.908095
0.935546
0.950049
0.434174
0.424539
0.428562
0.440029
0.453969
0.467233
0.478273
0.483945
0.485031
0.48179
0.473583
0.460889
0.447504
0.440769
0.442928
0.453869
0.471497
0.492186
0.511968
0.528273
0.537839
0.54567
0.556228
0.575119
0.587963
0.577774
0.53375
0.476276
0.434445
0.410373
0.39681
0.389777
0.387772
0.387171
0.387406
0.387728
0.388012
0.388446
0.38871
0.389293
0.390711
0.391111
0.391981
0.400308
0.405318
0.407611
0.406485
0.401149
0.398933
0.399669
0.402409
0.406816
0.412177
0.417784
0.4227
0.426723
0.43014
0.433564
0.437575
0.441928
0.447151
0.454519
0.466504
0.486847
0.518036
0.557379
0.597378
0.630323
0.659555
0.6852
0.716034
0.75164
0.787696
0.807832
0.819985
0.818294
0.81444
0.812561
0.797585
0.74511
0.697992
0.652178
0.60116
0.548153
0.506595
0.485412
0.479184
0.482838
0.496036
0.520729
0.555134
0.595764
0.63762
0.673591
0.705787
0.733025
0.754026
0.768263
0.775663
0.77802
0.777605
0.775617
0.773135
0.771708
0.771622
0.773588
0.77853
0.791774
0.809747
0.839221
0.86861
0.890071
0.900013
0.506579
0.486913
0.48488
0.496116
0.512712
0.529081
0.542508
0.548847
0.550331
0.547163
0.538957
0.524842
0.504628
0.485426
0.47546
0.476089
0.48687
0.503783
0.522185
0.538765
0.548523
0.556999
0.563713
0.582936
0.596842
0.59411
0.555797
0.49669
0.446262
0.4164
0.400991
0.394138
0.389686
0.387638
0.386635
0.385693
0.384805
0.384198
0.384235
0.383591
0.383445
0.37858
0.387678
0.394552
0.396264
0.393576
0.382232
0.370096
0.36783
0.373286
0.380865
0.389609
0.399105
0.408391
0.416695
0.42353
0.42924
0.43427
0.438658
0.442905
0.447536
0.453681
0.463493
0.480096
0.507029
0.543326
0.582921
0.617531
0.650057
0.676255
0.704435
0.735593
0.768238
0.790276
0.800935
0.80193
0.799106
0.800964
0.788311
0.745103
0.708615
0.675327
0.633969
0.580455
0.531901
0.505294
0.496743
0.498059
0.508424
0.529101
0.557758
0.592441
0.626995
0.659561
0.690025
0.715597
0.735593
0.748988
0.757596
0.761283
0.761672
0.760426
0.758259
0.756979
0.756848
0.758436
0.762079
0.771075
0.784384
0.803696
0.826278
0.841775
0.848421
0.555246
0.533203
0.529414
0.541028
0.559644
0.577511
0.591897
0.598994
0.601583
0.600729
0.596161
0.587203
0.571727
0.548706
0.526961
0.515149
0.514703
0.5238
0.537991
0.553093
0.562215
0.571552
0.579881
0.588389
0.601393
0.604614
0.581649
0.525119
0.468515
0.429548
0.408901
0.398849
0.393506
0.390688
0.386838
0.384118
0.382564
0.381775
0.380189
0.378977
0.378507
0.379196
0.381274
0.386195
0.385995
0.377578
0.357757
0.343231
0.342194
0.348889
0.359792
0.372444
0.385632
0.398527
0.410203
0.419651
0.427211
0.433296
0.438143
0.442505
0.446925
0.452228
0.459953
0.473
0.495272
0.528101
0.567539
0.604937
0.642318
0.670233
0.696201
0.723392
0.752103
0.773016
0.783437
0.78662
0.784927
0.78773
0.776012
0.744215
0.71622
0.695519
0.667421
0.618019
0.563186
0.528304
0.514247
0.511543
0.51796
0.533934
0.557046
0.58573
0.615723
0.646108
0.674303
0.69865
0.718055
0.732804
0.742966
0.747081
0.747995
0.747101
0.74488
0.743044
0.742568
0.743233
0.744536
0.75116
0.760345
0.772382
0.785197
0.795536
0.798486
0.577549
0.560967
0.559505
0.572465
0.591539
0.608612
0.621783
0.628862
0.632692
0.634212
0.633756
0.630731
0.624019
0.609758
0.587684
0.56658
0.554286
0.553089
0.560455
0.571675
0.579477
0.58841
0.596676
0.60178
0.607336
0.609083
0.596371
0.555243
0.497652
0.45095
0.422417
0.407458
0.398994
0.393589
0.390341
0.386582
0.382437
0.37825
0.375482
0.372315
0.367416
0.373885
0.372927
0.375382
0.371023
0.35375
0.331709
0.321146
0.324049
0.333458
0.34598
0.36071
0.376246
0.39153
0.405051
0.415867
0.424132
0.430839
0.436431
0.441121
0.445264
0.449679
0.455582
0.465374
0.482514
0.509975
0.547742
0.594152
0.634032
0.665216
0.689605
0.713635
0.73866
0.757086
0.767693
0.772069
0.771167
0.775255
0.761938
0.741484
0.7211
0.711645
0.698062
0.658206
0.600308
0.554782
0.532434
0.523607
0.526217
0.537141
0.555294
0.578448
0.605163
0.632623
0.65957
0.683058
0.705966
0.723665
0.733684
0.736609
0.736152
0.734312
0.732867
0.730483
0.728939
0.728687
0.728661
0.732051
0.737335
0.744444
0.749596
0.753027
0.752906
0.582038
0.574886
0.579011
0.594312
0.613242
0.628535
0.639525
0.646623
0.651856
0.655671
0.658341
0.659565
0.658959
0.654315
0.639986
0.619392
0.599573
0.588447
0.587271
0.593287
0.599758
0.606451
0.61315
0.619343
0.623282
0.623564
0.613782
0.57748
0.525991
0.475607
0.440996
0.420734
0.40848
0.399448
0.392848
0.387197
0.381071
0.375753
0.372165
0.367253
0.369329
0.362299
0.361799
0.359608
0.349252
0.326574
0.309149
0.307687
0.315114
0.327177
0.341139
0.356694
0.372959
0.389208
0.402338
0.412506
0.421335
0.428643
0.434369
0.438909
0.442604
0.446307
0.450938
0.458068
0.470335
0.49183
0.526136
0.574
0.623129
0.65916
0.683851
0.706161
0.727507
0.742445
0.753696
0.758175
0.757317
0.759244
0.74885
0.737557
0.724114
0.723569
0.72323
0.697178
0.640305
0.584687
0.551751
0.535828
0.534007
0.539733
0.552748
0.571924
0.594777
0.619318
0.647739
0.675321
0.699293
0.716809
0.725526
0.727473
0.726489
0.723588
0.720244
0.718594
0.716488
0.714825
0.71382
0.712713
0.715662
0.718559
0.7195
0.717383
0.713495
0.574619
0.576627
0.588901
0.608314
0.628255
0.64286
0.652235
0.659715
0.666356
0.672676
0.6784
0.683169
0.687483
0.689364
0.681663
0.664873
0.642954
0.623806
0.614755
0.614648
0.617645
0.622477
0.629171
0.634568
0.637289
0.637148
0.629257
0.599827
0.550481
0.500448
0.461332
0.436882
0.421034
0.408811
0.398396
0.389772
0.382575
0.376174
0.370079
0.36333
0.362998
0.351834
0.347334
0.34059
0.324008
0.304333
0.298427
0.303632
0.3134
0.326581
0.341674
0.357836
0.374549
0.389354
0.400749
0.411073
0.419871
0.426773
0.432207
0.436408
0.43986
0.443275
0.447178
0.452747
0.461441
0.478792
0.507204
0.553834
0.607606
0.649333
0.677603
0.698503
0.717681
0.729217
0.740799
0.74549
0.745228
0.747133
0.739518
0.734413
0.72549
0.732177
0.741945
0.73061
0.68025
0.617148
0.5725
0.548385
0.542219
0.542849
0.551285
0.566184
0.58533
0.609866
0.641385
0.670028
0.69262
0.708613
0.716256
0.717751
0.716387
0.713137
0.709664
0.706867
0.705083
0.702378
0.69988
0.696147
0.697237
0.695294
0.69322
0.688735
0.681109
0.557503
0.568283
0.587898
0.614025
0.637723
0.653514
0.662892
0.67045
0.679346
0.688208
0.697426
0.706346
0.714753
0.722364
0.718845
0.70602
0.682865
0.65734
0.640176
0.633915
0.633841
0.639028
0.641553
0.646505
0.649944
0.64939
0.641817
0.615548
0.570535
0.520326
0.479355
0.45232
0.434053
0.419333
0.405995
0.395234
0.38662
0.378354