/*--------------------------------*- C++ -*----------------------------------*\
  =========                 |
  \\      /  F ield         | OpenFOAM: The Open Source CFD Toolbox
   \\    /   O peration     | Website:  https://openfoam.org
    \\  /    A nd           | Version:  10
     \\/     M anipulation  |
\*---------------------------------------------------------------------------*/
FoamFile
{
    format      ascii;
    class       surfaceScalarField;
    location    "0.299102";
    object      phi;
}
// * * * * * * * * * * * * * * * * * * * * * * * * * * * * * * * * * * * * * //

dimensions      [1 0 -1 0 0 0 0];

internalField   nonuniform List<scalar> 
32368
(
-0.000106457
0.000128059
-0.000114693
0.000135321
-0.000135012
0.000151245
-0.000191756
0.000194101
-0.00023412
0.000262047
-0.000273543
0.00030778
-0.000270742
0.000338706
-0.000221712
0.000318882
-0.000174327
0.000263548
-0.000175036
0.00022174
-0.000185207
0.000199953
-0.000193976
0.000166135
-0.000197612
0.000122069
-0.000193045
7.74791e-05
-0.000178057
4.08145e-05
-0.00015146
2.17179e-05
-0.000116055
2.19096e-05
-8.7572e-05
3.71927e-05
-7.69857e-05
5.70134e-05
-7.41966e-05
7.74501e-05
-7.32058e-05
9.54051e-05
-7.15619e-05
0.000108647
-7.43305e-05
0.000116417
-8.19943e-05
0.000124635
-9.01122e-05
0.000129705
-9.74759e-05
0.000133429
-0.000104578
0.000138222
-0.000111461
0.000144433
-0.000116914
0.000149961
-0.000120541
0.000152589
-0.000123838
0.000152333
-0.000125373
0.000148835
-0.000124309
0.000140105
-0.00012125
0.000127727
-0.00011588
0.00011308
-0.000108254
9.68224e-05
-9.91479e-05
8.07239e-05
-9.19123e-05
6.93874e-05
-9.04475e-05
6.41279e-05
-8.17764e-05
5.40516e-05
-5.19613e-05
3.76591e-05
-4.93786e-08
1.99168e-05
5.4338e-05
2.34849e-05
8.57953e-05
4.95213e-05
9.86561e-05
6.75278e-05
0.000102242
7.9196e-05
0.000101995
8.69474e-05
0.000102249
9.16335e-05
0.000103113
9.46017e-05
0.000106485
9.70913e-05
0.000110357
9.95319e-05
0.00011279
0.000100471
0.000112114
9.8103e-05
0.000105476
9.13852e-05
8.91739e-05
7.8644e-05
7.75947e-05
6.31269e-05
7.3063e-05
5.40991e-05
7.28535e-05
4.99867e-05
7.61847e-05
4.68486e-05
8.3436e-05
4.42881e-05
9.00764e-05
3.81025e-05
0.000103546
2.79005e-05
0.000136144
1.41936e-05
0.000177734
-1.1225e-05
0.00019442
-5.5306e-05
0.000184351
-0.000112024
0.000182019
-0.000160777
0.000145466
-0.000171962
7.11785e-05
-0.000130057
3.12604e-05
-6.65037e-05
1.99235e-05
-2.47733e-05
1.26835e-05
2.11545e-06
5.3904e-06
5.25556e-06
-5.1483e-07
-2.12353e-05
-7.46557e-06
-9.34199e-05
-2.95269e-05
-0.000277416
-8.8843e-05
-0.00046552
-0.00019254
-0.000484604
-0.000245394
-0.000391569
-0.000254798
-0.000308335
-0.00024527
-0.000247441
-0.000231511
-0.000197692
-0.000218682
-0.000152262
-0.000203215
-0.00010527
-0.000184637
-5.48988e-05
-0.000156998
2.15764e-06
-0.00011393
6.66099e-05
-7.68562e-05
0.000122137
-5.50996e-05
0.000179185
-4.49057e-05
0.00022118
-3.42781e-05
0.000238198
-2.00592e-05
0.000256222
-3.33813e-06
0.000263178
1.02566e-05
0.000235927
1.6386e-05
0.000190522
2.00323e-05
0.000172955
3.22983e-05
0.000185247
4.7826e-05
0.000206908
5.32818e-05
0.000159761
3.94622e-05
9.31223e-05
1.62175e-05
1.69871e-06
-2.87755e-08
-8.22193e-05
-1.14672e-06
-0.000158527
2.04382e-05
-0.000223317
6.73906e-05
-0.000297819
0.000104488
-0.000379842
0.000100451
-0.000427886
5.6799e-05
-0.000397735
-1.16625e-05
-0.000315442
-5.69268e-05
-0.000228066
-6.35256e-05
-0.000160811
-4.27446e-05
-0.000113655
-7.07688e-05
-1.52689e-05
-0.00010058
0.000139101
-0.000108283
0.000153915
-0.000123282
0.00017073
-0.000166562
0.000208568
-0.000201765
0.000278107
-0.00023342
0.000319211
-0.000238231
0.000350466
-0.000207017
0.000336539
-0.000168369
0.000292969
-0.000155718
0.000241504
-0.000160316
0.000208753
-0.000165276
0.000173025
-0.000169887
0.000125364
-0.000169012
7.69731e-05
-0.000159285
3.47075e-05
-0.000144308
1.31726e-05
-0.000124983
1.1361e-05
-9.96303e-05
2.6326e-05
-8.50496e-05
4.79629e-05
-7.89397e-05
7.10183e-05
-7.648e-05
9.17675e-05
-7.65244e-05
0.00010764
-8.11856e-05
0.000122294
-8.97733e-05
0.000134104
-9.91786e-05
0.000141424
-0.000107744
0.000146018
-0.000115468
0.000150087
-0.000122343
0.000154687
-0.000127084
0.000157912
-0.000130016
0.000157617
-0.000132193
0.000154542
-0.000132678
0.000148201
-0.000131287
0.000137775
-0.000128324
0.000124488
-0.000124502
0.000109236
-0.000121409
9.42439e-05
-0.000140704
9.99158e-05
-0.000170651
9.59073e-05
-0.00017068
7.75713e-05
-0.000137952
4.65201e-05
-8.12156e-05
1.21886e-05
-1.69678e-05
-9.25428e-06
3.26429e-05
-2.75371e-06
8.11472e-05
1.66566e-05
0.000104701
4.8318e-05
0.000116201
7.30746e-05
0.000119613
9.06096e-05
0.000117915
0.000101801
0.000115961
0.000108285
0.000114122
0.000110242
0.000114771
0.000109919
0.000116058
0.000108426
0.00011566
0.000105823
0.00011058
9.9554e-05
9.42882e-05
8.60729e-05
8.08605e-05
6.92158e-05
7.50033e-05
5.96788e-05
7.42353e-05
5.52661e-05
7.67455e-05
5.16663e-05
8.26559e-05
4.78169e-05
9.11906e-05
4.10483e-05
0.000113191
3.19473e-05
0.000149568
1.75149e-05
0.00018705
-8.56473e-06
0.000196699
-5.16667e-05
0.00018733
-0.000103572
0.00018547
-0.000140196
0.000149663
-0.000147487
7.7403e-05
-0.000114644
3.61221e-05
-5.91611e-05
2.20987e-05
-2.07151e-05
1.40204e-05
6.47789e-06
8.35084e-06
8.88842e-06
2.77108e-06
-1.5746e-05
4.17352e-08
-8.16723e-05
-2.08833e-05
-0.000264377
-7.90352e-05
-0.000452833
-0.000172638
-0.000470491
-0.000222736
-0.000381358
-0.000227445
-0.000294236
-0.000213493
-0.000227189
-0.000195641
-0.000171451
-0.000180135
-0.000120592
-0.000169939
-7.16768e-05
-0.000156985
-2.17751e-05
-0.000138173
3.34162e-05
-0.000107632
9.61644e-05
-6.57064e-05
0.000151367
-4.43018e-05
0.000191608
-3.4443e-05
0.000241489
-2.48077e-05
0.000259028
-1.01398e-05
0.000276986
7.14465e-06
0.000281246
2.07803e-05
0.000256881
2.85571e-05
0.000210935
3.60301e-05
0.000192391
5.53775e-05
0.00018894
7.35824e-05
0.00020561
7.76318e-05
0.000174597
5.92589e-05
0.000118474
2.25023e-05
3.46244e-05
1.89059e-06
-6.28933e-05
-1.43155e-06
-0.000145541
7.66068e-06
-0.000196862
4.14448e-05
-0.000224584
9.97444e-05
-0.000293483
0.000128436
-0.000364774
0.000119407
-0.000369038
7.05261e-05
-0.000324793
1.28704e-05
-0.000266996
-1.60169e-05
-0.00020349
-1.32449e-05
-0.000141192
-8.26467e-05
2.32236e-06
-9.2611e-05
0.000146104
-0.000101229
0.000167974
-0.000111746
0.000187207
-0.000143227
0.000220815
-0.000172875
0.000290567
-0.00019656
0.000328739
-0.000206431
0.000359663
-0.000190463
0.000352381
-0.000161142
0.000319162
-0.000138919
0.000269715
-0.00013546
0.000218747
-0.000136854
0.000178797
-0.000140156
0.00013152
-0.000138813
8.01551e-05
-0.000129718
3.15625e-05
-0.000120799
6.91027e-06
-0.000115193
5.88142e-06
-0.000102711
1.58005e-05
-9.19395e-05
3.83823e-05
-8.50248e-05
6.32745e-05
-7.73313e-05
8.80105e-05
-7.39396e-05
0.0001049
-7.90786e-05
0.000121831
-8.93497e-05
0.000137325
-0.000100523
0.000147341
-0.000110898
0.000153171
-0.000119581
0.000156867
-0.00012652
0.000160119
-0.000130982
0.00016169
-0.000133414
0.000159998
-0.000135032
0.000155553
-0.000135174
0.000148138
-0.000134155
0.000137233
-0.000133577
0.000124247
-0.000140449
0.000115513
-0.00018718
0.000132871
-0.000249928
0.000135371
-0.000260072
0.000108924
-0.000220222
6.74111e-05
-0.000152514
2.16094e-05
-7.21071e-05
-1.02607e-05
-2.24673e-05
-1.77692e-05
1.16267e-05
-1.71295e-05
3.94155e-05
-4.06998e-06
7.145e-05
1.70492e-05
9.48698e-05
4.75788e-05
0.000107862
7.73715e-05
0.000113569
9.92254e-05
0.000116834
0.000110018
0.000118337
0.000115615
0.00011992
0.000117646
0.000121815
0.000117848
0.000120356
0.00011494
0.00011181
0.000107222
9.29153e-05
9.09208e-05
7.95223e-05
7.36105e-05
7.40423e-05
6.42748e-05
7.35474e-05
5.99053e-05
7.60161e-05
5.57955e-05
8.24317e-05
5.10493e-05
9.61017e-05
4.44848e-05
0.000121422
3.56062e-05
0.00015674
1.98476e-05
0.000188453
-7.34885e-06
0.000189869
-4.8857e-05
0.000181045
-9.29818e-05
0.000184159
-0.00012204
0.000161334
-0.000130008
9.65804e-05
-0.000106029
5.14526e-05
-5.21987e-05
3.11658e-05
-1.4117e-05
1.91661e-05
1.21887e-05
1.19213e-05
1.33654e-05
5.64419e-06
-9.5724e-06
3.97336e-06
-7.31142e-05
-1.73182e-05
-0.000253086
-6.97298e-05
-0.000436296
-0.000146588
-0.000450774
-0.000190747
-0.000365052
-0.000195722
-0.000275516
-0.000180609
-0.000205034
-0.000159196
-0.000146986
-0.000141641
-9.33828e-05
-0.000129927
-4.37798e-05
-0.000122604
1.95629e-06
-0.000115878
6.18446e-05
-9.77757e-05
0.000122329
-6.17019e-05
0.000180843
-3.6428e-05
0.000210487
-2.55559e-05
0.000257565
-1.68558e-05
0.000277259
-1.88375e-06
0.000297125
1.57116e-05
0.000297205
3.00468e-05
0.000275863
3.91624e-05
0.000228769
4.98787e-05
0.000206793
6.5773e-05
0.000194657
8.68145e-05
0.00019616
9.12349e-05
0.000179006
7.49965e-05
0.000131376
3.74102e-05
5.98154e-05
1.07419e-05
-4.35258e-05
3.72332e-06
-0.000134719
1.27618e-05
-0.000187082
2.82459e-05
-0.000207764
8.09005e-05
-0.000218574
0.000132757
-0.000303589
0.000147145
-0.000330657
0.000127171
-0.000308116
7.86068e-05
-0.000281822
3.54773e-05
-0.000236068
1.83164e-05
-0.000168258
-9.48465e-05
2.01578e-05
-8.36786e-05
0.000148897
-9.24999e-05
0.000179077
-9.94463e-05
0.000201041
-0.000120794
0.000230308
-0.000146573
0.000297292
-0.00016223
0.000335883
-0.000173149
0.000364304
-0.000167452
0.000361588
-0.000148978
0.000335464
-0.000126461
0.000294885
-0.00011153
0.000236416
-0.000108532
0.000183658
-0.000109483
0.000137406
-0.000106205
8.62139e-05
-9.68199e-05
3.72636e-05
-9.19027e-05
9.045e-06
-9.53782e-05
6.72306e-06
-9.52562e-05
1.45511e-05
-9.36601e-05
3.38811e-05
-9.1263e-05
5.83194e-05
-8.30274e-05
8.5905e-05
-7.15053e-05
0.000107586
-7.24254e-05
0.000119727
-8.26417e-05
0.000137928
-9.56984e-05
0.00014995
-0.00010824
0.000157567
-0.000118238
0.000161322
-0.000125487
0.000163761
-0.000129942
0.000164346
-0.000132474
0.000162246
-0.000133726
0.000157469
-0.000134022
0.000149816
-0.000135783
0.000140089
-0.000147759
0.000134403
-0.000201874
0.000152373
-0.000289269
0.000173102
-0.000319483
0.000156067
-0.000287846
0.000110463
-0.000220938
5.36814e-05
-0.000132281
5.92705e-06
-6.72308e-05
-2.02936e-05
-3.12393e-05
-2.80531e-05
-5.22303e-06
-2.7654e-05
1.63719e-05
-1.46199e-05
3.606e-05
7.54152e-07
5.51131e-05
2.06337e-05
7.38667e-05
4.65419e-05
9.29044e-05
7.72316e-05
0.000103557
0.000102287
0.000109142
0.0001147
0.000113759
0.000119504
0.000116744
0.000121027
0.000114845
0.000118739
0.00010492
0.000111202
8.67853e-05
9.31627e-05
7.48853e-05
7.62748e-05
7.09263e-05
6.78489e-05
7.15225e-05
6.36369e-05
7.57143e-05
5.93358e-05
8.47436e-05
5.49937e-05
0.000102105
4.87722e-05
0.000127425
3.81768e-05
0.000158299
2.08072e-05
0.000178763
-6.23161e-06
0.000171158
-4.31882e-05
0.000164145
-8.27772e-05
0.000176988
-0.000115373
0.000175829
-0.000127999
0.000124751
-0.000105496
7.24148e-05
-4.71346e-05
4.39001e-05
-4.66718e-06
2.55748e-05
2.05095e-05
1.48889e-05
2.03149e-05
6.20572e-06
-1.21046e-06
2.51555e-06
-6.45907e-05
-1.93476e-05
-0.000245264
-6.26167e-05
-0.000422097
-0.000121179
-0.00043013
-0.000157766
-0.000345755
-0.000162599
-0.000254751
-0.00014868
-0.000182097
-0.000125031
-0.000122437
-0.000107954
-7.04195e-05
-9.43355e-05
-2.40375e-05
-9.0525e-05
2.24217e-05
-9.37281e-05
8.04661e-05
-8.58922e-05
0.000143251
-6.29247e-05
0.000201846
-3.17413e-05
0.000237376
-1.91202e-05
0.000268424
-1.05936e-05
0.000292337
4.51095e-06
0.000314923
2.22383e-05
0.000312275
3.78112e-05
0.000294294
4.76345e-05
0.000248207
6.0068e-05
0.000218953
7.24224e-05
0.000204208
9.0847e-05
0.000190619
9.59967e-05
0.000179808
8.12681e-05
0.000140328
4.62162e-05
7.99963e-05
1.93111e-05
-2.47525e-05
1.24933e-05
-0.000124852
1.91589e-05
-0.000179277
3.26217e-05
-0.000202211
6.26581e-05
-0.000199003
0.000125377
-0.000257642
0.000154628
-0.000293278
0.00015562
-0.000282528
0.000127199
-0.000274272
7.42896e-05
-0.000245161
3.52346e-05
-0.000171278
-9.0679e-05
1.54527e-05
-7.19973e-05
0.000145482
-8.221e-05
0.000184957
-8.74609e-05
0.000211393
-0.000100386
0.000237659
-0.000122127
0.000298571
-0.000131033
0.000341251
-0.000140104
0.000364303
-0.000139654
0.000363682
-0.000129856
0.000342526
-0.000112273
0.000307439
-9.425e-05
0.000254828
-8.30345e-05
0.000201863
-8.16593e-05
0.000151046
-7.47978e-05
9.50383e-05
-6.57535e-05
4.69281e-05
-6.64839e-05
2.11324e-05
-7.61162e-05
1.40139e-05
-8.3976e-05
2.30087e-05
-8.83185e-05
3.73854e-05
-9.21252e-05
5.89156e-05
-8.88578e-05
8.58097e-05
-7.4647e-05
0.000112731
-6.71531e-05
0.00012361
-7.44537e-05
0.00013852
-8.75692e-05
0.000152328
-0.000101816
0.000161084
-0.000113198
0.00016539
-0.000120966
0.000167357
-0.000125505
0.000167371
-0.000128115
0.000165278
-0.000129555
0.000160699
-0.000132123
0.000153977
-0.000142516
0.000148695
-0.000180232
0.000158357
-0.000278182
0.0001974
-0.000346498
0.000209873
-0.000341838
0.000175212
-0.000296815
0.000116991
-0.000217212
5.31928e-05
-0.000138792
1.2069e-06
-9.14919e-05
-3.33277e-05
-5.28799e-05
-5.21756e-05
-1.6659e-05
-4.69249e-05
6.71493e-07
-2.17422e-05
1.35449e-05
-5.55175e-06
2.89726e-05
8.53433e-06
4.47616e-05
2.92637e-05
6.1575e-05
5.15714e-05
8.04205e-05
8.2215e-05
9.18763e-05
0.000105658
9.92471e-05
0.000116186
0.00010406
0.000120342
0.000103542
0.00011953
9.33924e-05
0.000111249
7.70282e-05
9.08518e-05
6.83449e-05
7.62702e-05
6.71019e-05
7.0381e-05
6.98923e-05
6.66757e-05
7.91165e-05
6.52231e-05
9.14698e-05
6.13977e-05
0.000107537
5.28774e-05
0.000126406
3.97094e-05
0.000142778
2.13471e-05
0.000151954
-3.83329e-06
0.000150291
-3.84071e-05
0.000152997
-8.13039e-05
0.000174258
-0.000119825
0.00018996
-0.00013521
0.00015433
-0.00011022
9.39617e-05
-4.40682e-05
5.69598e-05
6.83759e-06
3.13372e-05
3.23706e-05
1.67242e-05
3.02922e-05
5.35963e-06
9.64859e-06
-3.76011e-06
-5.49412e-05
-2.80898e-05
-0.00024422
-6.04733e-05
-0.000415383
-0.000100292
-0.000414965
-0.000129939
-0.000327039
-0.000135342
-0.000232673
-0.000121411
-0.000159144
-9.69446e-05
-9.9466e-05
-8.01796e-05
-5.15787e-05
-6.92633e-05
-1.05945e-05
-6.83837e-05
3.23814e-05
-7.61514e-05
8.56007e-05
-7.73965e-05
0.00015534
-6.18762e-05
0.000216302
-3.19045e-05
0.000257951
-1.58876e-05
0.000273314
-6.34736e-06
0.000302655
8.87e-06
0.000327082
2.6862e-05
0.000325046
4.42759e-05
0.000310933
5.48821e-05
0.00027262
6.6883e-05
0.000231773
7.83285e-05
0.000213613
8.98951e-05
0.00019472
9.62657e-05
0.000180552
8.06055e-05
0.00015018
4.96007e-05
9.41988e-05
2.77635e-05
-8.80108e-06
2.24376e-05
-0.000117976
2.74839e-05
-0.000171426
3.77187e-05
-0.000199078
6.23697e-05
-0.000196097
0.000116227
-0.000235382
0.000152776
-0.000259422
0.000162138
-0.000253119
0.000152797
-0.00025003
9.15333e-05
-0.000224693
3.71834e-05
-0.000147056
-7.56533e-05
1.63541e-05
-5.74785e-05
0.000137647
-7.05046e-05
0.000182104
-7.56994e-05
0.000216066
-8.23549e-05
0.000242915
-9.94778e-05
0.000293323
-0.000104168
0.000344526
-0.000109623
0.00036154
-0.000111038
0.000359705
-0.000105975
0.000342725
-9.39146e-05
0.000310376
-7.99438e-05
0.000263296
-6.92994e-05
0.000215039
-5.97588e-05
0.000159481
-4.96836e-05
9.71022e-05
-4.40542e-05
5.56427e-05
-4.95546e-05
3.32287e-05
-6.16213e-05
2.4086e-05
-7.57421e-05
3.43626e-05
-8.2411e-05
4.71472e-05
-8.92535e-05
6.43076e-05
-8.9725e-05
9.03553e-05
-7.88104e-05
0.000118442
-6.43611e-05
0.000132849
-6.67619e-05
0.000140311
-7.86304e-05
0.000155409
-9.31613e-05
0.000164514
-0.000105695
0.000169744
-0.000114086
0.000171518
-0.000118847
0.000171236
-0.000121795
0.000169361
-0.000124056
0.000165337
-0.000129808
0.000160588
-0.000150777
0.000162203
-0.000221866
0.000190976
-0.000326775
0.000240666
-0.000367228
0.00024476
-0.000353241
0.000201802
-0.000318176
0.000142212
-0.000260597
7.35875e-05
-0.000221135
7.16767e-06
-0.000173151
-4.65255e-05
-0.00010394
-7.74105e-05
-4.14023e-05
-7.1119e-05
-9.00766e-06
-3.63658e-05
9.53049e-07
-9.26933e-06
1.03114e-05
2.62455e-06
2.12222e-05
1.87477e-05
3.48496e-05
3.91674e-05
5.34471e-05
6.37255e-05
6.92992e-05
8.86605e-05
7.95827e-05
0.000104657
8.6596e-05
0.000111666
8.73032e-05
0.000112599
7.66496e-05
0.000102153
6.43693e-05
8.31544e-05
6.167e-05
7.52916e-05
6.4248e-05
7.18949e-05
7.30904e-05
7.07748e-05
8.73332e-05
7.12375e-05
9.97354e-05
6.57597e-05
0.000109656
5.48958e-05
0.000115962
3.9597e-05
0.000122454
2.08996e-05
0.00013496
-2.52035e-06
0.000141614
-3.62257e-05
0.000149012
-8.18545e-05
0.000172053
-0.000126912
0.000194673
-0.000146926
0.000169093
-0.000118695
0.000105763
-4.13823e-05
6.40986e-05
1.89976e-05
3.42368e-05
4.58754e-05
1.72575e-05
4.18655e-05
4.61698e-06
2.1814e-05
-1.07115e-05
-4.37057e-05
-3.91836e-05
-0.000245306
-6.04694e-05
-0.000414597
-8.42205e-05
-0.000406426
-0.000110051
-0.000311687
-0.000116968
-0.000215854
-0.000101308
-0.000138152
-7.81426e-05
-8.05648e-05
-6.28038e-05
-3.66695e-05
-5.56351e-05
-1.49429e-06
-5.40768e-05
3.67441e-05
-5.99604e-05
8.16939e-05
-7.04749e-05
0.000149614
-6.19068e-05
0.000221101
-3.48192e-05
0.000271188
-1.45803e-05
0.000285846
-3.74056e-06
0.000309319
1.14671e-05
0.000335339
2.97391e-05
0.000334821
4.87406e-05
0.000324006
6.12296e-05
0.000296339
7.1757e-05
0.000250507
8.26516e-05
0.000223963
9.03532e-05
0.000203471
9.20653e-05
0.000186305
7.41687e-05
0.000159848
4.66928e-05
0.000105042
3.46745e-05
2.09316e-06
3.18058e-05
-0.000109898
3.50773e-05
-0.000162337
4.20906e-05
-0.000192182
6.48226e-05
-0.00019488
0.000112452
-0.000223295
0.000146868
-0.000232516
0.000161376
-0.000222041
0.000161899
-0.0002154
0.000102455
-0.000186802
4.60534e-05
-0.000120787
-6.62092e-05
2.7519e-05
-4.31203e-05
0.000129966
-5.78542e-05
0.000170789
-6.40155e-05
0.000214239
-6.68627e-05
0.000245115
-7.84143e-05
0.000283404
-8.22784e-05
0.000340863
-8.35943e-05
0.000356952
-8.39623e-05
0.000351243
-8.09756e-05
0.000336239
-7.25022e-05
0.000307697
-6.26437e-05
0.000261466
-5.39011e-05
0.000213669
-4.46506e-05
0.000150461
-3.92114e-05
8.88282e-05
-3.74324e-05
5.27497e-05
-4.09362e-05
3.49739e-05
-5.30192e-05
3.13687e-05
-6.95101e-05
4.4706e-05
-7.68142e-05
6.03356e-05
-8.41819e-05
7.40344e-05
-8.74019e-05
9.82474e-05
-7.96833e-05
0.000124762
-6.26577e-05
0.000142313
-5.98781e-05
0.000143558
-6.96599e-05
0.000158583
-8.34821e-05
0.000168262
-9.67598e-05
0.000174295
-0.000105793
0.000176201
-0.000110922
0.000175825
-0.000114351
0.000174231
-0.000117887
0.000171016
-0.00012823
0.0001691
-0.000161106
0.000178593
-0.000252222
0.000223854
-0.000344709
0.000278551
-0.000367552
0.000278164
-0.000355201
0.000233852
-0.000333008
0.000175853
-0.000309605
0.000108942
-0.000276831
3.2705e-05
-0.000219691
-3.68625e-05
-0.000147959
-7.78715e-05
-7.6998e-05
-7.91054e-05
-2.74797e-05
-4.76506e-05
-7.12175e-06
-1.52921e-05
-2.52311e-07
1.8331e-07
7.51772e-06
1.38715e-05
1.83489e-05
3.14755e-05
3.15115e-05
5.08476e-05
4.54356e-05
6.90681e-05
5.61565e-05
8.29323e-05
6.39828e-05
9.05175e-05
6.50296e-05
9.20551e-05
5.6088e-05
8.30828e-05
5.42689e-05
7.61091e-05
5.73398e-05
7.40007e-05
6.53564e-05
7.40004e-05
8.02015e-05
7.58846e-05
9.32722e-05
7.34624e-05
0.000102784
6.57977e-05
0.000109028
5.41491e-05
0.000111465
3.89383e-05
0.000113052
2.05088e-05
0.000129934
-1.62506e-06
0.000142703
-3.41614e-05
0.000153569
-8.18486e-05
0.00017374
-0.00013332
0.000194491
-0.000156686
0.00016757
-0.000127163
0.000102901
-3.82648e-05
6.24774e-05
2.99339e-05
3.31224e-05
5.85116e-05
1.62142e-05
5.33941e-05
2.93396e-06
3.48212e-05
-1.61955e-05
-2.93175e-05
-4.31335e-05
-0.000237043
-5.49323e-05
-0.000417438
-7.22948e-05
-0.000405241
-0.00010273
-0.000301523
-0.000110947
-0.000204399
-9.26166e-05
-0.000122416
-7.03092e-05
-6.68548e-05
-6.05412e-05
-2.95074e-05
-5.44021e-05
3.97276e-06
-5.07836e-05
3.87556e-05
-5.23099e-05
7.73158e-05
-6.43672e-05
0.000134591
-6.19103e-05
0.000217539
-4.19834e-05
0.000278809
-1.49762e-05
0.000307057
-2.78138e-06
0.000313754
1.20549e-05
0.00034149
3.08062e-05
0.00034265
5.0948e-05
0.000334341
6.66056e-05
0.000314948
7.57e-05
0.000272863
8.54569e-05
0.00023799
9.02104e-05
0.000214935
8.6268e-05
0.000197374
6.42421e-05
0.000170729
4.0581e-05
0.000113459
3.82009e-05
7.60972e-06
3.81888e-05
-0.000100991
4.04929e-05
-0.000150926
4.50224e-05
-0.000181678
6.9227e-05
-0.000201974
0.000108737
-0.000216076
0.000139883
-0.000206346
0.000158124
-0.000188036
0.000163736
-0.000175509
0.000113452
-0.000149644
6.13671e-05
-0.000103335
-6.18289e-05
4.37276e-05
-3.24726e-05
0.000124185
-4.5689e-05
0.000157607
-5.27366e-05
0.000207845
-5.40968e-05
0.000243136
-5.90382e-05
0.000273207
-6.50519e-05
0.000322988
-6.27594e-05
0.000350374
-5.99746e-05
0.000341642
-5.70147e-05
0.000324402
-5.0598e-05
0.000297819
-4.3428e-05
0.000252486
-3.70937e-05
0.00020075
-3.30947e-05
0.000135404
-3.14131e-05
7.51072e-05
-3.19199e-05
4.75136e-05
-3.54109e-05
3.52882e-05
-4.71052e-05
3.75221e-05
-6.58459e-05
5.54988e-05
-7.29332e-05
7.50195e-05
-7.96884e-05
8.72698e-05
-8.37785e-05
0.000106798
-7.7026e-05
0.000131829
-6.06411e-05
0.000149497
-5.31564e-05
0.000147993
-6.05311e-05
0.000161335
-7.34672e-05
0.000172166
-8.68991e-05
0.000178808
-9.65777e-05
0.000181093
-0.0001021
0.000180652
-0.000105868
0.000179303
-0.000110514
0.000176988
-0.000124218
0.000177824
-0.00016302
0.000192608
-0.000254478
0.000244352
-0.000331122
0.000303186
-0.000350294
0.000303651
-0.000343445
0.000263751
-0.000326982
0.000209115
-0.000306425
0.000141641
-0.000278885
6.40584e-05
-0.000234874
-1.41568e-05
-0.000174797
-6.16134e-05
-0.000104574
-7.1463e-05
-4.81028e-05
-4.63467e-05
-1.75224e-05
-1.82017e-05
-9.10485e-06
-2.07658e-06
-1.99162e-06
1.04734e-05
6.38625e-06
2.52581e-05
1.51855e-05
4.14817e-05
2.48285e-05
5.38618e-05
3.32955e-05
6.3785e-05
3.97667e-05
7.00859e-05
4.27033e-05
7.28909e-05
4.44151e-05
7.19884e-05
4.91498e-05
7.25559e-05
5.78066e-05
7.43328e-05
7.18909e-05
7.68757e-05
8.51266e-05
7.61013e-05
9.57256e-05
7.13856e-05
0.000103215
6.28562e-05
0.000106313
5.06242e-05
0.000106518
3.62778e-05
0.000110715
1.89735e-05
0.000131697
-5.47445e-07
0.00014459
-3.06451e-05
0.000154754
-7.54441e-05
0.000171992
-0.000126905
0.000188398
-0.000153207
0.00015761
-0.00013021
9.17128e-05
-3.56228e-05
5.53474e-05
3.86254e-05
2.9843e-05
6.82952e-05
1.54235e-05
6.30886e-05
4.1183e-06
4.61063e-05
-1.47996e-05
-1.36629e-05
-3.70651e-05
-0.000222285
-4.24002e-05
-0.000412918
-6.22986e-05
-0.000408403
-0.000107037
-0.000295665
-0.000119835
-0.000196323
-9.93106e-05
-0.000114758
-7.9436e-05
-6.08609e-05
-6.97211e-05
-2.65633e-05
-6.13554e-05
5.72118e-06
-5.39451e-05
3.91061e-05
-5.1071e-05
7.48134e-05
-5.79267e-05
0.000121561
-6.21586e-05
0.000200948
-4.66308e-05
0.000274735
-1.88164e-05
0.000316062
-4.94101e-06
0.000316852
1.0647e-05
0.000345735
3.01445e-05
0.000349212
5.12608e-05
0.000342706
6.95334e-05
0.000328726
7.87159e-05
0.000294558
8.61074e-05
0.000253887
8.88154e-05
0.000229439
7.91323e-05
0.000210919
5.18841e-05
0.00018271
3.31047e-05
0.000120519
3.74578e-05
1.13959e-05
3.92437e-05
-9.02807e-05
4.19424e-05
-0.000138032
4.94316e-05
-0.000172113
7.44278e-05
-0.000211669
0.000105476
-0.000211904
0.000133814
-0.000181996
0.000156141
-0.000154488
0.000164817
-0.000136907
0.000127232
-0.000121276
7.65213e-05
-8.99647e-05
-5.50679e-05
5.91262e-05
-2.5474e-05
0.000120776
-3.59144e-05
0.000146507
-4.38742e-05
0.000198717
-4.45965e-05
0.000237593
-4.49774e-05
0.000264943
-5.06762e-05
0.000298577
-4.63716e-05
0.000337395
-4.05775e-05
0.000330288
-3.50388e-05
0.000311083
-2.93815e-05
0.000281623
-2.32415e-05
0.000236051
-2.0572e-05
0.000180209
-2.22366e-05
0.000112755
-2.18365e-05
6.48821e-05
-2.51889e-05
4.37257e-05
-3.13183e-05
3.68116e-05
-4.53001e-05
4.44997e-05
-6.48823e-05
6.70843e-05
-7.0645e-05
8.98515e-05
-7.61283e-05
0.000101094
-7.98099e-05
0.000116318
-7.30542e-05
0.000139698
-5.74514e-05
0.000155151
-4.67742e-05
0.000152284
-5.16441e-05
0.000163574
-6.33714e-05
0.00017593
-7.6729e-05
0.000183154
-8.68286e-05
0.000185794
-9.26668e-05
0.000185351
-9.66654e-05
0.000184246
-0.000101737
0.000182615
-0.000115804
0.000184925
-0.000152697
0.000201602
-0.000234983
0.000255118
-0.000302542
0.000320321
-0.000319738
0.000325302
-0.000312248
0.000289395
-0.000292843
0.000234727
-0.000274283
0.000165671
-0.00025465
8.60983e-05
-0.000230521
7.89814e-06
-0.000188502
-4.31871e-05
-0.00012409
-5.80952e-05
-6.80588e-05
-3.78852e-05
-3.14608e-05
-1.71679e-05
-1.42995e-05
-3.18028e-06
-8.06387e-06
8.41092e-06
-1.27223e-06
2.16784e-05
5.40818e-06
3.51905e-05
1.24834e-05
4.43252e-05
1.96642e-05
5.18538e-05
2.64003e-05
5.78742e-05
3.28599e-05
6.27433e-05
3.9763e-05
6.66424e-05
4.97334e-05
7.04985e-05
6.27391e-05
7.38714e-05
7.57204e-05
7.45497e-05
8.74313e-05
7.21721e-05
9.62118e-05
6.60369e-05
9.95267e-05
5.64469e-05
0.000101022
4.52174e-05
0.000102099
3.29853e-05
0.000113439
1.78661e-05
0.000133231
1.05251e-06
0.000141082
-2.45148e-05
0.000144658
-6.32237e-05
0.000154955
-0.000110342
0.000166196
-0.000138709
0.000141694
-0.000124563
7.85732e-05
-3.46534e-05
4.72393e-05
4.45618e-05
2.68554e-05
7.51854e-05
1.58138e-05
7.03109e-05
7.92541e-06
5.41995e-05
-5.61459e-06
2.53534e-06
-1.71641e-05
-0.000196938
-2.33782e-05
-0.000401195
-5.57142e-05
-0.000405951
-0.000115735
-0.000294219
-0.000133903
-0.00019861
-0.000111171
-0.000115433
-9.31136e-05
-6.15898e-05
-8.16376e-05
-2.70569e-05
-7.13954e-05
4.96391e-06
-6.19151e-05
3.82691e-05
-5.5725e-05
7.34999e-05
-5.58971e-05
0.000116109
-6.25807e-05
0.000183592
-5.22012e-05
0.000263784
-2.60064e-05
0.000318391
-8.07351e-06
0.000330761
8.29502e-06
0.000351675
2.81824e-05
0.000355437
4.98287e-05
0.000349801
6.95329e-05
0.000338734
7.95411e-05
0.000311784
8.5125e-05
0.000269633
8.42821e-05
0.000244664
6.89195e-05
0.000225597
3.84286e-05
0.000194763
2.53851e-05
0.00012562
3.46669e-05
1.4086e-05
3.70071e-05
-7.89826e-05
3.91379e-05
-0.000123981
4.89818e-05
-0.00015759
7.5904e-05
-0.000199147
0.000103717
-0.000194029
0.000130609
-0.000155453
0.00015662
-0.000125802
0.000167796
-0.000108098
0.000132514
-9.90851e-05
8.75806e-05
-7.49612e-05
-4.44378e-05
7.25251e-05
-2.18961e-05
0.000119396
-2.93812e-05
0.000139256
-3.80045e-05
0.000188432
-3.85204e-05
0.000231714
-3.67372e-05
0.000257279
-3.79168e-05
0.000275344
-3.41267e-05
0.000310586
-2.69408e-05
0.00031005
-1.81201e-05
0.000296706
-1.11315e-05
0.0002655
-4.77075e-06
0.000217555
-4.52888e-06
0.000159404
-1.04691e-05
9.16027e-05
-1.38118e-05
5.62572e-05
-1.97668e-05
4.2199e-05
-3.01318e-05
4.14973e-05
-4.63814e-05
5.37552e-05
-6.51369e-05
7.95696e-05
-6.89874e-05
0.000104055
-7.27382e-05
0.000114053
-7.61293e-05
0.000125886
-6.88236e-05
0.000147859
-5.30543e-05
0.000160608
-4.08405e-05
0.000155548
-4.34548e-05
0.000165318
-5.35362e-05
0.000179074
-6.65528e-05
0.000187021
-7.68779e-05
0.000189753
-8.30417e-05
0.000189628
-8.69985e-05
0.000188712
-9.15645e-05
0.00018743
-0.000103581
0.000190251
-0.000135315
0.000206645
-0.00020713
0.000257856
-0.000267175
0.000325983
-0.000284003
0.000335886
-0.000276099
0.000302915
-0.000256968
0.000247067
-0.00024197
0.000176294
-0.000231611
9.93476e-05
-0.000222189
2.73976e-05
-0.000196258
-2.36094e-05
-0.000137039
-4.08514e-05
-8.16346e-05
-2.78866e-05
-4.45499e-05
-1.52739e-05
-2.09893e-05
-3.17783e-06
-1.18228e-05
5.70618e-06
-4.95034e-06
1.8664e-05
1.01053e-06
3.1818e-05
7.25002e-06
3.92743e-05
1.39798e-05
4.53406e-05
2.13721e-05
5.09155e-05
2.99784e-05
5.69172e-05
4.01771e-05
6.25169e-05
5.26729e-05
6.70714e-05
6.56315e-05
6.95383e-05
7.81619e-05
6.8738e-05
8.73789e-05
6.43207e-05
9.25114e-05
5.77183e-05
9.59141e-05
4.96582e-05
9.89129e-05
4.10426e-05
0.000101243
3.065e-05
0.000115383
1.86222e-05
0.000124959
3.09357e-06
0.000123777
-1.57813e-05
0.000122856
-4.50521e-05
0.00013031
-8.52945e-05
0.000136722
-0.000117374
0.000120697
-0.000112971
6.60129e-05
-3.68898e-05
4.03706e-05
4.70978e-05
2.51069e-05
7.87958e-05
1.72667e-05
7.52425e-05
1.2263e-05
5.9672e-05
6.83706e-06
1.59375e-05
5.96055e-06
-0.000160624
-7.28535e-07
-0.000385957
-5.00888e-05
-0.000407157
-0.000128486
-0.000304242
-0.000147691
-0.000207078
-0.000119645
-0.000119622
-0.000104683
-6.41071e-05
-9.3278e-05
-2.8587e-05
-8.26681e-05
4.23899e-06
-7.22882e-05
3.80016e-05
-6.50256e-05
7.29766e-05
-6.28986e-05
0.000114593
-6.69732e-05
0.000175634
-5.87462e-05
0.000255265
-3.58284e-05
0.000316514
-1.31893e-05
0.00034432
4.74386e-06
0.000358408
2.47784e-05
0.000361481
4.64911e-05
0.000355799
6.64541e-05
0.000346224
7.78695e-05
0.000324054
8.1411e-05
0.000284818
7.73758e-05
0.000260828
5.67148e-05
0.000242104
2.51955e-05
0.000206752
1.87049e-05
0.000127794
3.08849e-05
1.52723e-05
3.34838e-05
-6.85936e-05
3.51034e-05
-0.000109477
4.62895e-05
-0.000141129
7.20404e-05
-0.000178285
9.95501e-05
-0.000171527
0.000129027
-0.000132536
0.000159454
-0.000103948
0.000168816
-8.76684e-05
0.000130979
-7.9691e-05
9.45818e-05
-5.85703e-05
-2.97817e-05
8.20993e-05
-2.10236e-05
0.000119211
-2.6509e-05
0.000135514
-3.52457e-05
0.000180042
-3.61659e-05
0.000227435
-3.1834e-05
0.000249979
-2.9886e-05
0.000259804
-2.48423e-05
0.000285429
-1.72136e-05
0.000286933
-7.53651e-06
0.000275143
2.76821e-06
0.000244768
8.84377e-06
0.000196241
4.03856e-06
0.00013145
-3.6978e-06
7.4142e-05
-9.27536e-06
5.05129e-05
-1.7454e-05
4.34154e-05
-3.00021e-05
4.85837e-05
-4.76667e-05
6.46858e-05
-6.45642e-05
9.29938e-05
-6.65858e-05
0.000117661
-6.91788e-05
0.000125801
-7.23386e-05
0.000134908
-6.46103e-05
0.000156181
-4.86533e-05
0.0001662
-3.5369e-05
0.000158627
-3.59517e-05
0.000166418
-4.43578e-05
0.000181029
-5.64705e-05
0.000189971
-6.6953e-05
0.000193366
-7.33504e-05
0.00019319
-7.71137e-05
0.000192431
-8.07636e-05
0.000191337
-9.034e-05
0.000193849
-0.00011586
0.000207822
-0.000173553
0.000249921
-0.000227684
0.000315845
-0.000245922
0.000333382
-0.000239931
0.000304676
-0.000226161
0.000250897
-0.000219074
0.000183921
-0.000220538
0.000114393
-0.00022241
4.81943e-05
-0.000203427
-5.28375e-07
-0.000143263
-2.41409e-05
-9.20096e-05
-2.19274e-05
-5.65835e-05
-1.65598e-05
-3.03192e-05
-6.86771e-06
-1.37271e-05
3.51101e-06
-5.51332e-06
1.61567e-05
1.63725e-07
2.9952e-05
6.43478e-06
3.64378e-05
1.32811e-05
4.17567e-05
2.11646e-05
4.67859e-05
3.11508e-05
5.24661e-05
4.27832e-05
5.78945e-05
5.57731e-05
6.15166e-05
6.77401e-05
6.21655e-05
7.71401e-05
5.98321e-05
8.49051e-05
5.59735e-05
9.08386e-05
5.08781e-05
9.57864e-05
4.48786e-05