/*--------------------------------*- C++ -*----------------------------------*\
  =========                 |
  \\      /  F ield         | OpenFOAM: The Open Source CFD Toolbox
   \\    /   O peration     | Website:  https://openfoam.org
    \\  /    A nd           | Version:  10
     \\/     M anipulation  |
\*---------------------------------------------------------------------------*/
FoamFile
{
    format      ascii;
    class       volScalarField;
    location    "0.299102";
    object      rho;
}
// * * * * * * * * * * * * * * * * * * * * * * * * * * * * * * * * * * * * * //

dimensions      [1 -3 0 0 0 0 0];

internalField   nonuniform List<scalar> 
16320
(
0.630623
0.598868
0.603039
0.725957
0.915266
1.00581
1.00421
0.84933
0.634025
0.55396
0.561738
0.583119
0.597568
0.61308
0.637858
0.642656
0.599575
0.50227
0.459435
0.43081
0.394023
0.342479
0.292861
0.266042
0.248083
0.237622
0.238037
0.248305
0.264183
0.28059
0.297704
0.315257
0.324772
0.328763
0.330742
0.331449
0.336437
0.347382
0.378488
0.474093
0.616077
0.701267
0.728371
0.665041
0.555701
0.467013
0.403707
0.360877
0.341857
0.334483
0.331519
0.327928
0.319634
0.300096
0.2581
0.2106
0.18697
0.181941
0.18503
0.20033
0.213753
0.236365
0.304556
0.457461
0.689367
0.912915
1.07231
1.07597
0.798547
0.439572
0.308281
0.280652
0.234381
0.220008
0.371376
0.878078
1.38132
1.43227
1.24229
1.11236
1.05105
1.02915
1.03125
1.03897
1.05143
1.03739
0.952538
0.782461
0.704061
0.669082
0.66438
0.692993
0.699956
0.623939
0.510642
0.49313
0.635176
0.867208
0.88621
0.87865
0.814411
0.64376
0.556955
0.615168
0.820261
1.114
1.33137
1.32529
1.18444
1.06683
0.962966
0.89243
0.840211
0.582917
0.590222
0.602742
0.698498
0.884277
0.970482
0.981204
0.856341
0.681549
0.561301
0.541452
0.546379
0.544242
0.566784
0.598106
0.628591
0.631945
0.578859
0.502933
0.465866
0.421537
0.379709
0.340539
0.313184
0.291233
0.278056
0.275374
0.282644
0.29376
0.303481
0.312631
0.319821
0.322307
0.323212
0.32659
0.338359
0.375894
0.525807
0.796068
1.00375
1.09585
1.10202
0.869026
0.807396
0.673723
0.569464
0.499285
0.446805
0.399053
0.364012
0.34302
0.332632
0.32375
0.307646
0.271399
0.220213
0.192652
0.18615
0.188761
0.199957
0.213708
0.249569
0.339377
0.498111
0.71518
0.91972
1.05902
1.05342
0.793514
0.463127
0.329284
0.284089
0.22422
0.214533
0.33894
0.853397
1.37867
1.44011
1.25607
1.10978
1.0294
0.991149
0.977627
0.989275
1.01635
1.0255
0.991072
0.824416
0.683177
0.651345
0.646873
0.675967
0.681617
0.615553
0.5042
0.483763
0.548829
0.761339
0.812467
0.817347
0.75192
0.602102
0.49779
0.460729
0.548653
0.865772
1.19486
1.31695
1.24069
1.14203
1.02122
0.913172
0.825353
0.536332
0.57489
0.597349
0.673354
0.851817
0.937229
0.962772
0.871721
0.731979
0.596935
0.528285
0.519114
0.513708
0.531778
0.556153
0.582711
0.613985
0.612152
0.553035
0.512103
0.460807
0.399596
0.368111
0.344671
0.322813
0.306897
0.300343
0.302766
0.308231
0.311447
0.314045
0.315685
0.316193
0.319938
0.337987
0.403687
0.683328
0.988359
1.15514
1.19461
1.06422
0.713724
0.561732
0.484637
0.512925
0.505485
0.479633
0.445899
0.418337
0.393648
0.373911
0.359978
0.347395
0.324103
0.275244
0.221361
0.194487
0.188451
0.190727
0.199485
0.218553
0.270027
0.362377
0.519335
0.711818
0.885604
1.00462
1.00682
0.804346
0.506418
0.372878
0.294799
0.220704
0.210127
0.322863
0.847474
1.37832
1.4426
1.26169
1.10202
1
0.939216
0.90375
0.900169
0.928043
0.971203
0.975433
0.889639
0.674566
0.633662
0.630651
0.666371
0.665561
0.613253
0.504208
0.474818
0.49758
0.632525
0.714274
0.735792
0.723974
0.611294
0.495024
0.430708
0.436222
0.614889
1.01844
1.2424
1.23715
1.17924
1.06758
0.916537
0.769083
0.491896
0.556012
0.58682
0.647212
0.813991
0.902707
0.938416
0.87796
0.769822
0.654242
0.544721
0.503031
0.502023
0.524647
0.543323
0.54051
0.562635
0.601868
0.587029
0.552939
0.518596
0.440872
0.382964
0.359711
0.34067
0.324708
0.314467
0.311863
0.312014
0.310992
0.310028
0.309911
0.312558
0.330567
0.404504
0.692832
1.01096
1.1629
1.18941
1.02321
0.712454
0.538839
0.458312
0.340091
0.311423
0.318597
0.345702
0.393584
0.399686
0.391231
0.37913
0.369559
0.354673
0.325618
0.270604
0.217951
0.193669
0.189464
0.19253
0.203009
0.231089
0.287111
0.37588
0.515722
0.672146
0.818592
0.927674
0.964506
0.837328
0.557309
0.412598
0.303754
0.221422
0.207847
0.320182
0.854307
1.38404
1.43796
1.25796
1.08312
0.959951
0.868618
0.802642
0.786905
0.806337
0.879412
0.925852
0.895376
0.714749
0.614775
0.614685
0.662954
0.656868
0.616576
0.508671
0.473136
0.480325
0.537518
0.636464
0.673395
0.704068
0.638236
0.506425
0.42365
0.417341
0.485665
0.865104
1.15865
1.2083
1.18672
1.08586
0.871591
0.649677
0.440592
0.531479
0.574773
0.622267
0.772703
0.868431
0.908017
0.871849
0.788037
0.697482
0.586324
0.518799
0.518615
0.553375
0.546529
0.50927
0.511145
0.582666
0.5892
0.572074
0.562148
0.505532
0.408478
0.370714
0.349456
0.334302
0.321621
0.314677
0.310574
0.307031
0.304901
0.306094
0.319156
0.375147
0.586141
0.933749
1.12943
1.18165
1.10007
0.846988
0.672377
0.611461
0.502309
0.305366
0.219456
0.227408
0.242974
0.286528
0.348889
0.371676
0.370633
0.364595
0.350203
0.319251
0.259347
0.21065
0.192325
0.191382
0.199923
0.218748
0.248326
0.295775
0.36229
0.458526
0.609207
0.769862
0.894901
0.950928
0.878336
0.613582
0.447448
0.31555
0.224073
0.207155
0.326546
0.890541
1.40981
1.44679
1.25651
1.05723
0.907603
0.771389
0.680803
0.654106
0.670211
0.748282
0.852494
0.867064
0.750214
0.600761
0.599603
0.657321
0.653139
0.625565
0.532898
0.474457
0.475368
0.496729
0.57423
0.63147
0.686637
0.660011
0.528485
0.421948
0.414907
0.470846
0.781799
1.08806
1.17705
1.17561
1.0676
0.749319
0.452581
0.381722
0.493827
0.557284
0.600289
0.725879
0.836823
0.875518
0.857232
0.799898
0.720124
0.632937
0.58592
0.589994
0.58548
0.528216
0.473752
0.47266
0.558894
0.584094
0.57176
0.580082
0.555106
0.452819
0.382069
0.35597
0.338438
0.324538
0.31434
0.307239
0.302471
0.300515
0.30575
0.335524
0.449522
0.761289
1.05046
1.16176
1.19526
1.12287
1.0473
1.04119
0.967482
0.711221
0.365456
0.196219
0.171538
0.175661
0.199115
0.270143
0.329615
0.346077
0.346412
0.334942
0.299321
0.234831
0.199849
0.192224
0.197427
0.220367
0.242379
0.263245
0.286222
0.319564
0.403271
0.573275
0.751821
0.890174
0.958536
0.908021
0.650566
0.470295
0.326572
0.227209
0.207058
0.343186
0.947119
1.46244
1.47863
1.26526
1.03409
0.830645
0.661171
0.558443
0.521836
0.526734
0.588534
0.741084
0.819033
0.765933
0.595247
0.584068
0.645549
0.648219
0.632777
0.570445
0.489397
0.476203
0.490266
0.542843
0.610714
0.680467
0.682656
0.553615
0.423333
0.42099
0.477387
0.773117
1.05912
1.15757
1.15313
1.00861
0.611608
0.354635
0.328084
0.438505
0.529652
0.581208
0.673328
0.804807
0.846676
0.836706
0.803878
0.743132
0.66625
0.633693
0.62315
0.551896
0.444733
0.411528
0.437162
0.533668
0.575166
0.563596
0.582858
0.579445
0.494938
0.395368
0.361374
0.340293
0.325568
0.313093
0.304016
0.298896
0.298218
0.310175
0.362332
0.541653
0.876923
1.10166
1.18628
1.23482
1.26492
1.29877
1.2906
1.16597
0.89603
0.513328
0.224846
0.157877
0.155118
0.171999
0.220279
0.267588
0.296668
0.302276
0.293095
0.250446
0.206683
0.194748
0.196232
0.215299
0.238322
0.252567
0.263122
0.274776
0.298396
0.371553
0.553719
0.760643
0.926889
1.00142
0.944034
0.663979
0.474587
0.329143
0.228617
0.20726
0.353775
0.98234
1.51418
1.52898
1.28687
1.01889
0.753391
0.565521
0.475248
0.446707
0.445601
0.485073
0.61238
0.755561
0.760299
0.634212
0.57352
0.633915
0.642999
0.636536
0.5993
0.520596
0.486143
0.494273
0.537575
0.609562
0.689558
0.70318
0.570308
0.429707
0.429424
0.518699
0.799641
1.05851
1.14434
1.1256
0.932371
0.518316
0.338492
0.287097
0.378825
0.492355
0.560202
0.624124
0.755519
0.821381
0.816269
0.798352
0.760884
0.693044
0.662649
0.602379
0.456541
0.382931
0.382047
0.414215
0.512062
0.565357
0.555851
0.575239
0.585472
0.519663
0.407635
0.364767
0.341516
0.325283
0.311718
0.30139
0.295993
0.296702
0.315124
0.38483
0.595979
0.906423
1.10298
1.2017
1.27254
1.33191
1.36662
1.34921
1.25738
0.999631
0.611794
0.294499
0.159653
0.148675
0.154963
0.183855
0.211276
0.228207
0.23209
0.225322
0.204294
0.194921
0.196124
0.212282
0.231434
0.243266
0.249566
0.253413
0.258809
0.279692
0.359839
0.539288
0.760283
0.958408
1.05114
0.993105
0.675424
0.46775
0.324181
0.228256
0.207729
0.349461
0.983089
1.55798
1.57982
1.31068
1.01096
0.710202
0.522109
0.450674
0.422845
0.412794
0.428841
0.505632
0.669213
0.737857
0.66616
0.564622
0.62328
0.6388
0.638511
0.618428
0.556836
0.508809
0.507711
0.550888
0.625126
0.709751
0.719599
0.556904
0.425588
0.441272
0.622603
0.875738
1.07616
1.12786
1.09098
0.873855
0.487366
0.344841
0.258658
0.329274
0.452463
0.533696
0.587446
0.686977
0.797151
0.798027
0.78551
0.762774
0.708866
0.662469
0.552162
0.397859
0.356718
0.365487
0.400773
0.500499
0.557279
0.548031
0.563655
0.583014
0.529704
0.416665
0.366105
0.342279
0.325242
0.310502
0.299142
0.293511
0.295232
0.317159
0.39113
0.592736
0.891335
1.08122
1.18712
1.26485
1.32622
1.35634
1.34288
1.26242
1.02283
0.649779
0.369832
0.188807
0.147581
0.146405
0.159845
0.173226
0.182615
0.186947
0.187599
0.188136
0.193727
0.208192
0.22305
0.233132
0.238115
0.237753
0.23353
0.238638
0.264675
0.354484
0.513996
0.733712
0.94471
1.06078
1.02957
0.700672
0.458879
0.317594
0.227969
0.208539
0.326237
0.941517
1.5706
1.62349
1.3276
0.99784
0.680534
0.502982
0.44395
0.417803
0.404778
0.409471
0.451219
0.578598
0.684857
0.671122
0.571138
0.616762
0.635884
0.638838
0.629636
0.587941
0.534793
0.530269
0.572867
0.654771
0.736668
0.728482
0.532516
0.422833
0.459399
0.710001
0.953844
1.10008
1.10783
1.05053
0.817478
0.475467
0.358939
0.240626
0.294135
0.413325
0.507186
0.560205
0.622215
0.745723
0.771478
0.771668
0.752273
0.704682
0.638709
0.48126
0.35917
0.337118
0.353132
0.395131
0.497115
0.551029
0.538354
0.551087
0.577007
0.53085
0.420322
0.366292
0.342972
0.325167
0.309826
0.297472
0.291563
0.293117
0.314022
0.383354
0.572284
0.854922
1.04337
1.15561
1.23291
1.28356
1.28552
1.25957
1.2109
0.996295
0.630944
0.392672
0.234594
0.153922
0.146268
0.148759
0.154361
0.15964
0.16518
0.173657
0.184487
0.19793
0.211301
0.221357
0.225662
0.223758
0.217809
0.217117
0.224451
0.256637
0.338086
0.454131
0.654937
0.887781
1.04125
1.04333
0.734643
0.449092
0.312864
0.228912
0.209474
0.292445
0.848476
1.55045
1.64875
1.33004
0.984598
0.660619
0.497559
0.448307
0.422631
0.406867
0.406962
0.438979
0.529601
0.640771
0.665901
0.600997
0.616053
0.633228
0.638621
0.635849
0.610128
0.558309
0.558675
0.608344
0.693454
0.767275
0.72622
0.499726
0.41596
0.472586
0.752664
0.992958
1.10182
1.09613
1.01832
0.775613
0.472828
0.379358
0.229962
0.272706
0.380175
0.486683
0.538439
0.573279
0.678306
0.723799
0.747599
0.733955
0.684862
0.584458
0.401442
0.323897
0.320445
0.347586
0.402019
0.501466
0.545412
0.526422
0.536715
0.569437
0.529281
0.421356
0.365205
0.342936
0.325078
0.309118
0.296234
0.289544
0.290226
0.30895
0.371202
0.535473
0.795135
0.983089
1.0979
1.16577
1.1924
1.17318
1.1661
1.14866
0.916581
0.579019
0.403583
0.282887
0.189841
0.151474
0.147732
0.150017
0.152854
0.157751
0.169203
0.183304
0.197014
0.207477
0.21051
0.209555
0.207136
0.205541
0.2076
0.215934
0.247356
0.302602
0.371027
0.528915
0.781912
1.00054
1.04885
0.794545
0.450155
0.311342
0.231604
0.210169
0.266641
0.758243
1.50772
1.64191
1.32265
0.986403
0.664304
0.497124
0.453686
0.433716
0.429085
0.429563
0.446017
0.515763
0.613094
0.648293
0.620986
0.616492
0.631768
0.638009
0.64088
0.627798
0.588125
0.595696
0.652959
0.74186
0.802752
0.713951
0.467913
0.409578
0.485868
0.776817
1.01689
1.09701
1.08485
0.993202
0.734756
0.475033
0.407471
0.224168
0.260999
0.359013
0.472579
0.522545
0.546429
0.632893
0.678641
0.698005
0.684575
0.62083
0.467563
0.332324
0.297552
0.307626
0.352259
0.418157
0.505944
0.540076
0.513177
0.521564
0.561777
0.527916
0.422665
0.363838
0.342193
0.324871
0.308926
0.295234
0.287898
0.287544
0.303066
0.353629
0.479979
0.704831
0.895324
1.00464
1.05332
1.04896
1.044
1.13083
1.11725
0.883763
0.581134
0.431721
0.30397
0.227828
0.173136
0.15308
0.152619
0.154116
0.15793
0.168567
0.182115
0.192472
0.197794
0.199452
0.199522
0.199346
0.199925
0.20282
0.211007
0.230755
0.255454
0.299404
0.409083
0.667584
0.942572
1.04578
0.890571
0.481994
0.316985
0.23649
0.210916
0.252937
0.698686
1.44996
1.61302
1.32177
1.00978
0.698531
0.500225
0.452169
0.438405
0.462852
0.487972
0.490694
0.516449
0.596224
0.629237
0.626645
0.617094
0.62979
0.637814
0.643975
0.641436
0.617801
0.638493
0.708716
0.80826
0.844056
0.690565
0.443725
0.408727
0.501795
0.771239
1.00821
1.09151
1.07678
0.969468
0.701144
0.482514
0.454496
0.221015
0.255157
0.344797
0.457542
0.507914
0.530523
0.596135
0.621433
0.616389
0.578276
0.481287
0.349859
0.288044
0.28037
0.298772
0.362857
0.435224
0.510008
0.533661
0.497989
0.504916
0.554035
0.527865
0.425141
0.362513
0.341274
0.324562
0.308533
0.294498
0.28634
0.284819
0.296372
0.334965
0.428024
0.601302
0.766595
0.850061
0.875007
0.869314
0.942588
1.14135
1.17119
1.07906
0.860896
0.695727
0.458144
0.273271
0.194934
0.173659
0.169315
0.167087
0.167422
0.172423
0.182959
0.190448
0.194287
0.195218
0.196326
0.196796
0.198433
0.201502
0.20887
0.219734
0.236891
0.266679
0.339172
0.573921
0.868846
1.0228
0.966156
0.561938
0.338596
0.245677
0.211755
0.246548
0.660675
1.38645
1.57637
1.32317
1.03479
0.751163
0.517912
0.45377
0.440006
0.47998
0.531395
0.538685
0.542652
0.587959
0.61635
0.624903
0.618407
0.629564
0.638898
0.648028
0.653293
0.652119
0.694986
0.788063
0.884365
0.876487
0.630957
0.417148
0.410031
0.528755
0.78385
0.996435
1.08625
1.07227
0.952186
0.676928
0.504958
0.505927
0.218821
0.251483
0.327084
0.43153
0.483471
0.503777
0.53437
0.527808
0.494892
0.433391
0.353066
0.28642
0.264607
0.271165
0.296581
0.377211
0.451078
0.512412
0.526462
0.48224
0.489136
0.547533
0.531181
0.433711
0.361859
0.340454
0.324071
0.308088
0.293642
0.284861
0.282492
0.290115
0.317947
0.384702
0.512567
0.628473
0.668702
0.678059
0.691583
0.865213
1.15573
1.24441
1.24686
1.16823
1.08962
0.906533
0.60575
0.245098
0.188961
0.185381
0.184421
0.184185
0.184911
0.188372
0.191274
0.193313
0.194084
0.194707
0.196012
0.197567
0.200928
0.206171
0.215618
0.229647
0.255474
0.311031
0.503873
0.787776
0.983242
0.996779
0.665441
0.372667
0.256404
0.211806
0.242785
0.63632
1.3181
1.52985
1.32063
1.0582
0.808214
0.556589
0.455477
0.43787
0.481884
0.557535
0.573903
0.575505
0.588312
0.608826
0.617908
0.619036
0.629923
0.642211
0.656125
0.674195
0.703525
0.773348
0.874857
0.949876
0.858328
0.527233
0.394938
0.412414
0.588912
0.810027
0.993019
1.07351
1.0573
0.92201
0.648642
0.540167
0.561421
0.217009
0.246596
0.30415
0.386403
0.428724
0.443339
0.440304
0.419213
0.380275
0.330823
0.283045
0.255753
0.2547
0.265633
0.305383
0.39295
0.464153
0.514014
0.519211
0.466745
0.47289
0.542477
0.538079
0.450451
0.363514
0.339828
0.323049
0.307753
0.292958
0.283393
0.280151
0.284954
0.304222
0.351203
0.44351
0.514016
0.528868
0.524478
0.545083
0.76641
1.11437
1.23555
1.25765
1.24005
1.22023
1.15407
0.962949
0.620444
0.221281
0.198123
0.192784
0.191563
0.191278
0.191695
0.192872
0.193283
0.193848
0.193992
0.195217
0.196814
0.199156
0.203587
0.211247
0.224044
0.247668
0.293307
0.44333
0.697125
0.921772
0.977736
0.754517
0.421876
0.268947
0.211076
0.238742
0.60406
1.24015
1.47164
1.31471
1.08131
0.859684
0.609156
0.456694
0.429968
0.466084
0.565145
0.596175
0.600595
0.60118
0.609445
0.614864
0.620812
0.631653
0.650568
0.677716
0.7148
0.765734
0.850641
0.961168
0.983872
0.730693
0.42131
0.376011
0.425243
0.645644
0.844706
0.986714
1.05041
1.03191
0.886635
0.632785
0.582781
0.626808
0.214572
0.237545
0.279027
0.331236
0.354862
0.362722
0.351428
0.330203
0.301192
0.272098
0.249406
0.244099
0.250286
0.26495
0.323438
0.409226
0.47477
0.515923
0.512789
0.452199
0.455841
0.538637
0.545458
0.477267
0.371142
0.339454
0.321329
0.306488
0.292189
0.28202
0.278304
0.280856
0.293848
0.328366
0.3924
0.431325
0.432316
0.418042
0.43251
0.632391
1.03197
1.21085
1.24803
1.24575
1.24441
1.21206
1.06015
0.789857
0.370888
0.238281
0.209672
0.200925
0.197526
0.196124
0.195409
0.195007
0.194963
0.194763
0.195365
0.196272
0.198316
0.202172
0.209319
0.220749
0.241339
0.275879
0.375741
0.593141
0.830823
0.918609
0.812821
0.488029
0.280136
0.208749
0.230593
0.542875
1.13925
1.41242
1.30747
1.10078
0.901997
0.66404
0.465543
0.421442
0.436988
0.545637
0.606252
0.61925
0.620682
0.619642
0.621252
0.627974
0.640966
0.677558
0.71591
0.760988
0.836894
0.949606
1.02593
0.882545
0.500653
0.360127
0.361768
0.455897
0.674195
0.86872
0.991663
1.02226
0.997638
0.849584
0.633775
0.617115
0.694817
0.20993
0.226568
0.254383
0.2824
0.295197
0.297538
0.287282
0.272852
0.256819
0.242478
0.236734
0.240479
0.249129
0.274324
0.345254
0.424697
0.483656
0.517602
0.507985
0.439664
0.440825
0.537582
0.557602
0.510138
0.398777
0.341056
0.320079
0.303486
0.290532
0.280894
0.276563
0.278102
0.287589
0.312338
0.354226
0.375559
0.367076
0.348913
0.356375
0.504517
0.894888
1.1449
1.21281
1.22257
1.22916
1.23152
1.07176
0.805334
0.565005
0.372052
0.280611
0.238952
0.219952
0.211294
0.206323
0.203543
0.201466
0.199908
0.198951
0.198487
0.19932
0.202262
0.208718
0.219219
0.235407
0.261632
0.317198
0.491971
0.721136
0.840959
0.825551
0.572523
0.304542
0.206592
0.218731
0.460796
1.02318
1.35527
1.3086
1.12575
0.938313
0.710547
0.488278
0.412806
0.408008
0.489968
0.600267
0.628696
0.635145
0.636974
0.639349
0.647199
0.665835
0.714762
0.760409
0.829687
0.935906
1.0296
0.944447
0.581976
0.361375
0.335464
0.35454
0.46861
0.681194
0.880423
1.00401
1.02557
0.98791
0.816603
0.644462
0.644249
0.75291
0.204675
0.21667
0.23414
0.24763
0.25561
0.255099
0.249252
0.242062
0.234543
0.231063
0.233296
0.239587
0.254803
0.295832
0.365878
0.438163
0.490806
0.518917
0.50626
0.431636
0.428341
0.542277
0.583886
0.549232
0.447316
0.349412
0.319498
0.300238
0.286476
0.278191
0.275042
0.276125
0.282819
0.299588
0.324557
0.335253
0.323109
0.306162
0.310481
0.417784
0.7686
1.05465
1.13822
1.12495
1.22787
1.22023
1.00485
0.743631
0.611814
0.490657
0.400459
0.340055
0.300541
0.272609
0.252515
0.23791
0.226901
0.218385
0.212009
0.207342
0.204724
0.20533
0.209893
0.21914
0.231807
0.253712
0.288966
0.410162
0.616176
0.763027
0.791892
0.626381
0.339116
0.205519
0.205148
0.365425
0.874451
1.28695
1.31411
1.15597
0.974362
0.74647
0.519993
0.406019
0.386825
0.427694
0.550878
0.62424
0.645319
0.651411
0.658281
0.67188
0.699176
0.762311
0.828688
0.923868
1.00928
0.934089
0.606242
0.365817
0.323018
0.325037
0.349683
0.447932
0.642199
0.865574
1.01835
1.04001
0.988643
0.79345
0.662283
0.674801
0.804356
0.201078
0.209667
0.219745
0.227716
0.232247
0.231956
0.229912
0.227499
0.225986
0.227984
0.233272
0.244169
0.272139
0.319711
0.385634
0.45018
0.496348
0.520623
0.507579
0.427802
0.417652
0.548698
0.622589
0.601141
0.513112
0.378243
0.32197
0.298501
0.282065
0.27295
0.270503
0.272485
0.276522
0.287433
0.300431
0.304962
0.293076
0.280593
0.284769
0.373037
0.698131
0.93969
0.977845
1.14136
1.25698
1.2136
0.970541
0.732133
0.646747
0.564517
0.483468
0.415034
0.363302
0.323657
0.292641
0.268313
0.248994
0.234631
0.223838
0.215898
0.210568
0.208811
0.211506
0.219505
0.230255
0.247715
0.273927
0.352816
0.529235
0.68946
0.740753
0.654338
0.384418
0.207193
0.193261
0.279083
0.689474
1.18816
1.3136
1.18701
1.01203
0.778002
0.545079
0.403155
0.372183
0.383543
0.461364
0.581823
0.640008
0.661198
0.677563
0.701371
0.743421
0.825557
0.90665
0.958807
0.858268
0.563388
0.355739
0.316352
0.313307
0.318099
0.330537
0.379503
0.546263
0.790506
1.01092
1.072
1.01287
0.797356
0.692419
0.712058
0.848988
0.199902
0.206125
0.21279
0.218201
0.221377
0.221912
0.222313
0.222547
0.224869
0.228869
0.2377
0.260249
0.297065
0.344365
0.402834
0.459819
0.501076
0.522752
0.510479
0.427035
0.409484
0.550652
0.658424
0.664886
0.594344
0.446068
0.336292
0.298645
0.279966
0.26835
0.263928
0.265245
0.26801
0.274784
0.281161
0.28228
0.272944
0.264982
0.271202
0.350736
0.632735
0.819274
0.888781
1.18102
1.32581
1.28375
1.12504
0.951569
0.846993
0.742342
0.627722
0.522887
0.435867
0.371656
0.325964
0.292236
0.267297
0.248483
0.234751
0.224624
0.217453
0.213799
0.214434
0.220711
0.230217
0.243933
0.265206
0.314229
0.465086
0.627483
0.692139
0.660684
0.432746
0.219399
0.184254
0.219452
0.514064
1.05635
1.29458
1.21478
1.0517
0.814926
0.567787
0.405991
0.363407
0.358041
0.392882
0.483096
0.593647
0.651942
0.687537
0.728351
0.788275
0.857104
0.856103
0.722213
0.478567
0.33751
0.308678
0.305746
0.307863
0.31146
0.318913
0.343695
0.455256
0.668494
0.953248
1.10133
1.07389
0.852478
0.754257
0.773092
0.900668
0.202221
0.207357
0.212479
0.216428
0.219174
0.220742
0.222275
0.224644
0.227922
0.233535
0.247506
0.278452
0.324219
0.370388
0.420268
0.468421
0.505384
0.525233
0.513874
0.429228
0.405245
0.546686
0.683265
0.723613
0.678937
0.54214
0.391758
0.307235
0.279901
0.266805
0.259891
0.258415
0.259487
0.263184
0.2663
0.265919
0.259663
0.255493
0.26365
0.331435
0.541715
0.696638
0.891785
1.28037
1.40162
1.44058
1.43821
1.34386
1.13297
0.912155
0.753125
0.635869
0.532322
0.44715
0.381732
0.333746
0.297744
0.271597
0.252396
0.238829
0.228843
0.222156
0.220116
0.223403
0.231445
0.241998
0.260709
0.295296
0.417779
0.575265
0.651768
0.648861
0.471833
0.241231
0.180775
0.192353
0.380645
0.896621
1.24933
1.22913
1.08622
0.852845
0.590118
0.413929
0.359399
0.345464
0.355698
0.400766
0.48985
0.589695
0.649552
0.704597
0.742437
0.687942
0.551757
0.390108
0.31552
0.298992
0.298676
0.300847
0.302888
0.305581
0.311847
0.328346
0.386514
0.547612
0.811236
1.07905
1.12968
1.00769
0.87448
0.881807
0.962701
0.210152
0.214252
0.218483
0.222187
0.225249
0.22716
0.229992
0.233128
0.236573
0.243032
0.259324
0.297209
0.349671
0.395037
0.437313
0.476453
0.509232
0.527405
0.518189
0.435945
0.404049
0.528866
0.69128
0.761761
0.746906
0.645373
0.484813
0.354223
0.288664
0.267963
0.259509
0.255805
0.254408
0.255148
0.256015
0.254991
0.251171
0.249679
0.258555
0.312817
0.464833
0.620132
0.909543
1.31671
1.41518
1.47205
1.47988
1.39795
1.17521
0.927266
0.760309
0.646017
0.557148
0.482149
0.4168
0.365798
0.326841
0.295879
0.272032
0.253658
0.239635
0.229553
0.224605
0.225403
0.232016
0.240833
0.25815
0.286052
0.384989
0.530903
0.61513
0.627618
0.497043
0.267131
0.180436
0.180494
0.299286
0.745181
1.18156
1.22954
1.11112
0.891199
0.614566
0.425329
0.360826
0.34073
0.337754
0.351876
0.392707
0.461451
0.51427
0.549111
0.514163
0.4003
0.330269
0.293917
0.287587
0.290782
0.294077
0.296823
0.299167
0.301927
0.307123
0.319863
0.352647
0.455911
0.623707
0.9417
1.11911
1.12917
1.01012
0.98635
1.01637
0.228259
0.229475
0.232278
0.23574
0.239159
0.242084
0.246159
0.249682
0.253303
0.260432
0.276592
0.315572
0.374421
0.419928
0.455356
0.486004
0.513291
0.530595
0.523753
0.446808
0.405432
0.498281
0.692692
0.777319
0.788268
0.724424
0.585476
0.441803
0.336562
0.281729
0.263354
0.256698
0.253975
0.252318
0.250842
0.24895
0.246331
0.246161
0.254601
0.297762
0.405691
0.598405
0.990135
1.30941
1.38001
1.41754
1.40829
1.31194
1.08487
0.847219
0.706615
0.609865
0.538125
0.475562
0.424621
0.381214
0.341958
0.306679
0.277611
0.255397
0.239069
0.228168
0.222979
0.22377
0.230402
0.239139
0.255852
0.281535
0.366868
0.498482
0.584375
0.605627
0.515622
0.297769
0.184996
0.177154
0.253633
0.634537
1.10235
1.21531
1.1251
0.927503
0.643127
0.440807
0.366635
0.340832
0.328922
0.316896
0.322896
0.344348
0.364614
0.363359
0.328666
0.28551
0.275017
0.275021
0.280854
0.286366
0.291549
0.296064
0.299439
0.30251
0.306925
0.316728
0.3418
0.401571
0.504647
0.726925
1.02376
1.12602
1.12718
1.06009
1.04537
0.257793
0.253668
0.253356
0.256625
0.260363
0.265004
0.270504
0.274318
0.278424
0.2859
0.303325
0.34376
0.402056
0.443585
0.473523
0.497327
0.520183
0.536369
0.530584
0.461002
0.40964
0.469039
0.673231
0.780913
0.804737
0.768251
0.665407
0.532675
0.41919
0.336208
0.286376
0.26515
0.256727
0.252843
0.249749
0.246794
0.244059
0.243916
0.251449
0.285566
0.365499
0.582939
1.04357
1.29501
1.34695
1.36158
1.32024
1.17229
0.908342
0.7093
0.601879
0.540206
0.497905
0.466018
0.429336
0.385002
0.340649
0.301784
0.270879
0.247944
0.231981
0.222788
0.219453
0.221425
0.228537
0.237895
0.254541
0.279845
0.360406
0.479564
0.562683
0.588016
0.53136
0.33654
0.195302
0.176235
0.22605
0.556778
1.01859
1.1827
1.12434
0.954358
0.672863
0.459509
0.374433
0.343582
0.321746
0.288864
0.270306
0.274415
0.28022
0.274913
0.261795
0.256762
0.262092
0.270225
0.278242
0.288167
0.299082
0.30582
0.308351
0.310567
0.313486
0.320329
0.337882
0.382314
0.469834
0.549539
0.832192
1.05288
1.11686
1.11678
1.0454
0.288108
0.279192
0.276225
0.279318
0.283884
0.290074
0.296842
0.301218
0.305837
0.31381
0.332309
0.37566
0.441593
0.481331
0.503211
0.517782
0.533396
0.545631
0.540312
0.478636
0.417053
0.449853
0.607934
0.756233
0.804351
0.789993
0.713427
0.602651
0.497581
0.410229
0.347043
0.302912
0.274731
0.260024
0.251264
0.246439
0.242734
0.242567
0.250432
0.276691
0.343697
0.579556
1.08267
1.27206
1.31639
1.31287
1.23297
1.06047
0.812941
0.642658
0.547385
0.499423
0.477649
0.457729
0.421753
0.374932
0.326063
0.284911
0.253448
0.233083
0.222819
0.218398
0.217953
0.221429
0.228926
0.238975
0.256248
0.284222
0.36688
0.475958
0.551536
0.575959
0.539311
0.374765
0.211579
0.17868
0.213044
0.497584
0.936603
1.13417
1.10955
0.975116
0.705423
0.480292
0.385938
0.348298
0.313112
0.263661
0.239048
0.238625
0.241287
0.240901
0.241738
0.24903
0.259053
0.270722
0.288685
0.313983
0.329703
0.335057
0.33274
0.329963
0.328081
0.330319
0.341338
0.373837
0.449555
0.50201
0.643362
0.907302
1.04857
1.08082
1.06712
0.307842
0.29755
0.294161
0.297821
0.303347
0.310053
0.317207
0.322144
0.327312
0.336078
0.353882
0.394
0.470335
0.526102
0.545062
0.550406
0.555538
0.560889
0.554274
0.501605
0.428194
0.444104
0.533158
0.673444
0.752998
0.776632
0.740593
0.648986
0.55638
0.476002
0.41202
0.360286
0.320629
0.290517
0.265299
0.253721
0.248348
0.247835
0.252347
0.270159
0.336832
0.676301
1.0911
1.25166
1.29797
1.27619
1.16845
0.985725
0.751472
0.592172
0.506655
0.471595
0.457106
0.441128
0.403905
0.346667
0.29328
0.252761
0.231535
0.223017
0.219145
0.219048
0.221568
0.226136
0.233673
0.245275
0.264874
0.303905
0.403697
0.501066
0.560029
0.578901
0.543251
0.391142
0.223255
0.180966
0.20869
0.457782
0.872418
1.08021
1.08044
0.979827
0.739606
0.507163
0.402635
0.355964
0.305241
0.245465
0.223342
0.222087
0.225015
0.228644
0.236651
0.247213
0.263001
0.290957
0.33995
0.380372
0.399626
0.403976
0.380317
0.363438
0.351033
0.346525
0.347632
0.365515
0.412299
0.495431
0.54087
0.719975
0.933618
1.01213
1.01981
0.317372
0.309686
0.308501
0.311662
0.317103
0.32323
0.329408
0.334029
0.339158
0.348015
0.36617
0.403254
0.47469
0.549227
0.586078
0.591266
0.586997
0.583435
0.572517
0.528101
0.446268
0.449563
0.49186
0.585413
0.65204
0.701261
0.718504
0.676477
0.597585
0.527131
0.466323
0.416371
0.373719
0.33962
0.308886
0.287426
0.268098
0.253564
0.251414
0.265909
0.343456
0.805237
1.0932
1.24692
1.26975
1.21717
1.09325
0.916592
0.682624
0.527168
0.461677
0.438926
0.429393
0.41081
0.363677
0.297177
0.251105
0.231477
0.223851
0.221699
0.223885
0.226897
0.230914
0.23594
0.244699
0.260187
0.289751
0.361218
0.462048
0.543905
0.586997
0.597402
0.544443
0.384745
0.224627
0.181379
0.203412
0.423688
0.825729
1.03663
1.05497
0.980963
0.774041
0.538895
0.425736
0.367345
0.300508
0.234761
0.216563
0.21501
0.218798
0.225614
0.235462
0.252912
0.289555
0.372124
0.447676
0.48872
0.504321
0.503988
0.476524
0.432369
0.386475
0.366742
0.359695
0.360544
0.391695
0.472209
0.510367
0.596025
0.781917
0.915328
0.950013
0.320044
0.316182
0.316216
0.320306
0.32568
0.331045
0.336205
0.340375
0.34488
0.352225
0.367992
0.402357
0.471388
0.550342
0.607516
0.6257
0.620409
0.611131
0.596105
0.557797
0.477074
0.462638
0.48244
0.535611
0.588703
0.630416
0.663207
0.663673
0.624279
0.565299
0.511598
0.469101
0.429539
0.395235
0.363311
0.326534
0.281632
0.256577
0.251091
0.266145
0.451508
0.884966
1.11412
1.2231
1.21694
1.14424
1.01647
0.815705
0.57485
0.457484
0.417638
0.408441
0.399006
0.369501
0.305908
0.258131
0.236036
0.226695
0.226682
0.229865
0.233703
0.238999
0.243716
0.249712
0.26174
0.28948
0.349491
0.444721
0.535314
0.59779
0.625968
0.621908
0.538427
0.368631
0.220409
0.180474
0.196076
0.385703
0.77965
0.997971
1.03171
0.980759
0.811705
0.574403
0.454791
0.385005
0.301027
0.231303
0.214536
0.213318
0.217378
0.224928
0.240951
0.282103
0.387206
0.469886
0.516293
0.540127
0.549882
0.551288
0.541996
0.517313
0.468689
0.405187
0.379406
0.370858
0.380345
0.421405
0.491882
0.551328
0.643814
0.789086
0.863723
0.318124
0.317304
0.321405
0.328226
0.334846
0.339261
0.342574
0.346173
0.349815
0.354498
0.36508
0.391037
0.452134
0.553715
0.615018
0.648289
0.650924
0.638379
0.621649
0.589501
0.521754
0.479288
0.492169
0.520494
0.561347
0.596238
0.626227
0.641006
0.630409
0.596714
0.554454
0.518696
0.484964
0.448531
0.404969
0.346061
0.284932
0.25784
0.253338
0.291854
0.620085
0.942558
1.12523
1.18465
1.15672
1.07479
0.912854
0.651677
0.450045
0.395006
0.38883
0.386438
0.371394
0.327631
0.279294
0.249582
0.234836
0.234497
0.238224
0.242033
0.247271
0.251225
0.254614
0.260827
0.274814
0.315888
0.391491
0.494982
0.5816
0.637346
0.660776
0.633691
0.51828
0.338442
0.214751
0.178274
0.187032
0.335522
0.704392
0.960959
1.02059
0.988673
0.85186
0.613783
0.486559
0.407893
0.310827
0.233305
0.215569
0.213977
0.217693
0.229373
0.265839
0.367364
0.456785
0.503923
0.528651
0.54353
0.551871
0.556891
0.557562
0.552085
0.534097
0.490223
0.416285
0.386897
0.37622
0.3959
0.468569
0.516305
0.596161
0.658811
0.753871
0.310687
0.313894
0.322425
0.334275
0.343685
0.348478
0.350107
0.352212
0.355343
0.359328
0.364657
0.37829
0.418346
0.527006
0.624859
0.665745
0.675325
0.66018
0.642746
0.618343
0.567735
0.515249
0.507403
0.527615
0.560604
0.589511
0.613335
0.628403
0.635931
0.623378
0.594986
0.562314
0.531393
0.485429
0.42568
0.352297
0.286762
0.262334
0.265431
0.40886
0.741656
0.969089
1.12297
1.1395
1.10323
0.997965
0.755362
0.468383
0.387289
0.379248
0.382789
0.376993
0.355534
0.314928
0.279095
0.257104
0.253133