/*--------------------------------*- C++ -*----------------------------------*\
  =========                 |
  \\      /  F ield         | OpenFOAM: The Open Source CFD Toolbox
   \\    /   O peration     | Website:  https://openfoam.org
    \\  /    A nd           | Version:  10
     \\/     M anipulation  |
\*---------------------------------------------------------------------------*/
FoamFile
{
    format      ascii;
    class       volVectorField;
    location    "0.299102";
    object      U;
}
// * * * * * * * * * * * * * * * * * * * * * * * * * * * * * * * * * * * * * //

dimensions      [0 1 -1 0 0 0 0];

internalField   nonuniform List<vector> 
16320
(
(-0.218525 0.237978 0)
(-0.233513 0.264466 0)
(-0.252455 0.298929 0)
(-0.288675 0.328439 0)
(-0.305419 0.351882 0)
(-0.326641 0.381801 0)
(-0.354808 0.421091 0)
(-0.366143 0.462845 0)
(-0.367917 0.496799 0)
(-0.387244 0.494676 0)
(-0.412391 0.442101 0)
(-0.419214 0.351557 0)
(-0.418178 0.250763 0)
(-0.403406 0.155283 0)
(-0.370049 0.0825028 0)
(-0.327656 0.047277 0)
(-0.285467 0.0521952 0)
(-0.244266 0.097514 0)
(-0.219317 0.158033 0)
(-0.221072 0.225819 0)
(-0.238806 0.30423 0)
(-0.265593 0.389993 0)
(-0.306994 0.47774 0)
(-0.372786 0.556578 0)
(-0.443957 0.619421 0)
(-0.503465 0.664862 0)
(-0.541003 0.692276 0)
(-0.555761 0.701458 0)
(-0.553842 0.693541 0)
(-0.540965 0.673937 0)
(-0.524275 0.642943 0)
(-0.50858 0.603106 0)
(-0.494381 0.557442 0)
(-0.480109 0.506158 0)
(-0.461261 0.449391 0)
(-0.433495 0.386706 0)
(-0.39484 0.315129 0)
(-0.346411 0.228047 0)
(-0.28606 0.149956 0)
(-0.208327 0.0923765 0)
(-0.124711 0.0536717 0)
(-0.0550465 0.0341498 0)
(0.0549054 0.0370344 0)
(0.125107 0.0741225 0)
(0.197389 0.117745 0)
(0.262729 0.171128 0)
(0.314981 0.229777 0)
(0.35467 0.283117 0)
(0.383029 0.325696 0)
(0.402628 0.356724 0)
(0.419433 0.376184 0)
(0.43658 0.384903 0)
(0.453657 0.383896 0)
(0.472635 0.376888 0)
(0.485993 0.37048 0)
(0.493414 0.363562 0)
(0.5034 0.351358 0)
(0.509159 0.333597 0)
(0.51005 0.307627 0)
(0.514365 0.270799 0)
(0.518378 0.219358 0)
(0.507279 0.144884 0)
(0.47991 0.0534769 0)
(0.432777 -0.0340405 0)
(0.355504 -0.105791 0)
(0.265752 -0.163036 0)
(0.221236 -0.20102 0)
(0.21835 -0.219125 0)
(0.196354 -0.223141 0)
(0.132652 -0.201371 0)
(0.0932677 -0.107522 0)
(0.0856842 0.00128313 0)
(0.0643231 0.01806 0)
(0.00125764 -0.144699 0)
(-0.00486074 -0.345416 0)
(-0.0283874 -0.41652 0)
(-0.0593523 -0.437016 0)
(-0.128654 -0.434753 0)
(-0.231929 -0.404887 0)
(-0.299004 -0.361808 0)
(-0.314604 -0.314504 0)
(-0.303179 -0.264855 0)
(-0.281095 -0.212203 0)
(-0.257932 -0.153798 0)
(-0.23689 -0.0897898 0)
(-0.21713 -0.0172022 0)
(-0.194365 0.0722734 0)
(-0.161924 0.1858 0)
(-0.119542 0.30846 0)
(-0.0945739 0.397272 0)
(-0.075354 0.433547 0)
(-0.0504776 0.449373 0)
(-0.0212644 0.457784 0)
(0.00592024 0.459449 0)
(0.0342412 0.446189 0)
(0.0461471 0.414712 0)
(0.0500561 0.35013 0)
(0.063462 0.283737 0)
(0.0835634 0.202654 0)
(0.0794346 0.103925 0)
(0.0551483 -0.0294391 0)
(0.0178048 -0.204267 0)
(-0.0141371 -0.393066 0)
(0.0131889 -0.505983 0)
(0.0732004 -0.52028 0)
(0.109655 -0.481932 0)
(0.111896 -0.427797 0)
(0.0883268 -0.378724 0)
(0.0244969 -0.314334 0)
(-0.0514421 -0.244387 0)
(-0.084047 -0.189594 0)
(-0.0770177 -0.146104 0)
(-0.0472106 -0.0992292 0)
(-0.217447 0.287191 0)
(-0.227445 0.3119 0)
(-0.23606 0.341829 0)
(-0.261849 0.367897 0)
(-0.274196 0.389036 0)
(-0.288564 0.411373 0)
(-0.313896 0.446585 0)
(-0.330695 0.48559 0)
(-0.337299 0.518115 0)
(-0.35012 0.520136 0)
(-0.37225 0.480887 0)
(-0.383737 0.39305 0)
(-0.390278 0.283812 0)
(-0.379678 0.170471 0)
(-0.346546 0.0799049 0)
(-0.305955 0.0335919 0)
(-0.272152 0.0311508 0)
(-0.243863 0.0661845 0)
(-0.223574 0.127981 0)
(-0.222297 0.196875 0)
(-0.231133 0.277049 0)
(-0.25192 0.364468 0)
(-0.288838 0.452567 0)
(-0.34743 0.533247 0)
(-0.415076 0.599621 0)
(-0.475397 0.64708 0)
(-0.51694 0.673699 0)
(-0.538455 0.681095 0)
(-0.544832 0.674093 0)
(-0.542394 0.656943 0)
(-0.537476 0.630019 0)
(-0.532471 0.594287 0)
(-0.526438 0.550344 0)
(-0.516034 0.496943 0)
(-0.495484 0.430692 0)
(-0.460232 0.3483 0)
(-0.409863 0.250322 0)
(-0.337159 0.157979 0)
(-0.257894 0.0998858 0)
(-0.186341 0.0632254 0)
(-0.121937 0.032722 0)
(-0.063181 0.00469031 0)
(0.00665491 0.0161768 0)
(0.0832875 0.0660898 0)
(0.161063 0.126658 0)
(0.236302 0.183277 0)
(0.296321 0.238499 0)
(0.340191 0.28917 0)
(0.373731 0.331817 0)
(0.400233 0.363612 0)
(0.423243 0.38494 0)
(0.443156 0.39522 0)
(0.460113 0.397246 0)
(0.478613 0.394245 0)
(0.491389 0.391505 0)
(0.496716 0.388119 0)
(0.50409 0.379899 0)
(0.50824 0.363119 0)
(0.508289 0.335174 0)
(0.511454 0.295604 0)
(0.513301 0.237145 0)
(0.505524 0.152748 0)
(0.482566 0.0604624 0)
(0.433868 -0.0246311 0)
(0.35262 -0.0952733 0)
(0.266173 -0.149103 0)
(0.227837 -0.179895 0)
(0.22652 -0.192983 0)
(0.204864 -0.194353 0)
(0.144873 -0.168329 0)
(0.105172 -0.0852981 0)
(0.0895196 0.021139 0)
(0.074206 0.038847 0)
(0.0171964 -0.111392 0)
(0.0212997 -0.329418 0)
(-0.0148441 -0.405821 0)
(-0.0540464 -0.427663 0)
(-0.112689 -0.424822 0)
(-0.199502 -0.393787 0)
(-0.260974 -0.347053 0)
(-0.278343 -0.294967 0)
(-0.269678 -0.239732 0)
(-0.24893 -0.181348 0)
(-0.225615 -0.119069 0)
(-0.205132 -0.052624 0)
(-0.186742 0.0203863 0)
(-0.16966 0.103947 0)
(-0.144072 0.209867 0)
(-0.101756 0.34671 0)
(-0.0751828 0.451165 0)
(-0.0587427 0.487935 0)
(-0.0346143 0.500877 0)
(-0.00281962 0.508281 0)
(0.026321 0.51014 0)
(0.0592493 0.50751 0)
(0.0837998 0.482578 0)
(0.101691 0.422662 0)
(0.118765 0.339843 0)
(0.13163 0.257446 0)
(0.123236 0.160527 0)
(0.0850082 0.0330166 0)
(0.028608 -0.15966 0)
(-0.0121012 -0.384161 0)
(-0.00294289 -0.53952 0)
(0.0552058 -0.549859 0)
(0.114977 -0.489802 0)
(0.134307 -0.425957 0)
(0.129096 -0.374311 0)
(0.104566 -0.334819 0)
(0.0390727 -0.283375 0)
(-0.0099536 -0.231534 0)
(-0.0242528 -0.181594 0)
(-0.0107098 -0.122303 0)
(-0.211118 0.335135 0)
(-0.21971 0.356849 0)
(-0.221184 0.383585 0)
(-0.235635 0.40751 0)
(-0.244431 0.426212 0)
(-0.252561 0.440864 0)
(-0.272505 0.47046 0)
(-0.290986 0.503949 0)
(-0.301264 0.533571 0)
(-0.307988 0.540533 0)
(-0.325026 0.511956 0)
(-0.337054 0.432531 0)
(-0.342427 0.315876 0)
(-0.332784 0.182813 0)
(-0.302093 0.0722069 0)
(-0.268335 0.0194034 0)
(-0.245482 0.0134937 0)
(-0.22715 0.0396248 0)
(-0.217652 0.0953788 0)
(-0.219907 0.162544 0)
(-0.224541 0.24125 0)
(-0.230927 0.331764 0)
(-0.257979 0.425578 0)
(-0.311112 0.508371 0)
(-0.37692 0.57651 0)
(-0.440919 0.626903 0)
(-0.490239 0.656584 0)
(-0.520709 0.667566 0)
(-0.536498 0.665215 0)
(-0.543852 0.65304 0)
(-0.548163 0.631128 0)
(-0.550306 0.598747 0)
(-0.547314 0.553704 0)
(-0.53434 0.491954 0)
(-0.50379 0.410262 0)
(-0.449804 0.306411 0)
(-0.389255 0.204201 0)
(-0.325714 0.135037 0)
(-0.259422 0.0809879 0)
(-0.200613 0.0354617 0)
(-0.151738 -0.000702623 0)
(-0.091691 -0.0212796 0)
(-0.0193469 -0.0207061 0)
(0.0642606 0.0138744 0)
(0.137458 0.101116 0)
(0.20952 0.176245 0)
(0.272509 0.242738 0)
(0.319513 0.297319 0)
(0.354402 0.341359 0)
(0.381526 0.374483 0)
(0.405873 0.396193 0)
(0.4288 0.407284 0)
(0.448804 0.411473 0)
(0.467671 0.412652 0)
(0.479384 0.414109 0)
(0.484234 0.414689 0)
(0.492179 0.409582 0)
(0.496909 0.392799 0)
(0.499327 0.362128 0)
(0.505191 0.317635 0)
(0.510057 0.249674 0)
(0.505951 0.16141 0)
(0.483333 0.0677805 0)
(0.432415 -0.0180865 0)
(0.346842 -0.0890065 0)
(0.263987 -0.140005 0)
(0.23267 -0.165536 0)
(0.238212 -0.173772 0)
(0.227218 -0.170745 0)
(0.179192 -0.13514 0)
(0.140816 -0.057799 0)
(0.117988 0.0415214 0)
(0.0966185 0.0644421 0)
(0.0370856 -0.0757345 0)
(0.0373074 -0.304696 0)
(-0.0104914 -0.389558 0)
(-0.0509779 -0.412168 0)
(-0.0972742 -0.408393 0)
(-0.168198 -0.378161 0)
(-0.223205 -0.330609 0)
(-0.241505 -0.276413 0)
(-0.235641 -0.218692 0)
(-0.216999 -0.155348 0)
(-0.193722 -0.0870817 0)
(-0.172324 -0.0151598 0)
(-0.156236 0.0595427 0)
(-0.145528 0.138545 0)
(-0.129391 0.238065 0)
(-0.0933416 0.373825 0)
(-0.0585864 0.502325 0)
(-0.0437549 0.540874 0)
(-0.0203587 0.548095 0)
(0.0134606 0.553286 0)
(0.0445842 0.554411 0)
(0.0814858 0.558111 0)
(0.116492 0.537147 0)
(0.143086 0.484917 0)
(0.163691 0.393984 0)
(0.175627 0.308258 0)
(0.161051 0.211321 0)
(0.121509 0.0843137 0)
(0.0571652 -0.110266 0)
(0.0056777 -0.360421 0)
(0.0136652 -0.562099 0)
(0.0529152 -0.594868 0)
(0.113766 -0.498441 0)
(0.147576 -0.418938 0)
(0.151074 -0.362596 0)
(0.147212 -0.331054 0)
(0.109667 -0.303919 0)
(0.0607018 -0.268676 0)
(0.0300461 -0.221675 0)
(0.0274243 -0.155422 0)
(-0.200359 0.38051 0)
(-0.208406 0.39812 0)
(-0.205065 0.422897 0)
(-0.209353 0.445393 0)
(-0.215784 0.461503 0)
(-0.218892 0.469719 0)
(-0.231777 0.492859 0)
(-0.248864 0.519902 0)
(-0.261059 0.544774 0)
(-0.264213 0.55266 0)
(-0.27176 0.529344 0)
(-0.278124 0.457869 0)
(-0.277312 0.342507 0)
(-0.259404 0.202484 0)
(-0.228745 0.0781851 0)
(-0.214595 0.0133355 0)
(-0.213678 0.0101167 0)
(-0.205007 0.0273459 0)
(-0.201382 0.0751903 0)
(-0.212269 0.137819 0)
(-0.221565 0.211282 0)
(-0.217753 0.299239 0)
(-0.225658 0.398736 0)
(-0.271424 0.489363 0)
(-0.33537 0.560345 0)
(-0.403287 0.613982 0)
(-0.461056 0.648419 0)
(-0.501038 0.66501 0)
(-0.52547 0.668567 0)
(-0.540691 0.662192 0)
(-0.551174 0.644372 0)
(-0.556156 0.612643 0)
(-0.550778 0.562419 0)
(-0.526278 0.488191 0)
(-0.482118 0.389622 0)
(-0.439103 0.277208 0)
(-0.391131 0.189484 0)
(-0.333228 0.123265 0)
(-0.278501 0.065616 0)
(-0.233785 0.0171455 0)
(-0.189379 -0.0227939 0)
(-0.124543 -0.044806 0)
(-0.0611711 -0.055721 0)
(0.0190886 -0.0293426 0)
(0.093373 0.0273757 0)
(0.184397 0.145541 0)
(0.248272 0.237653 0)
(0.289206 0.303935 0)
(0.321364 0.348933 0)
(0.349094 0.381689 0)
(0.375213 0.404165 0)
(0.399966 0.417594 0)
(0.421306 0.424705 0)
(0.440748 0.431081 0)
(0.452712 0.43733 0)
(0.459161 0.442345 0)
(0.469803 0.438327 0)
(0.477985 0.419098 0)
(0.486519 0.382806 0)
(0.498629 0.331207 0)
(0.509449 0.257363 0)
(0.508824 0.165738 0)
(0.485064 0.0704436 0)
(0.427564 -0.0160486 0)
(0.334244 -0.0855906 0)
(0.254386 -0.134086 0)
(0.231478 -0.159718 0)
(0.247878 -0.167301 0)
(0.254515 -0.157525 0)
(0.222494 -0.109279 0)
(0.184952 -0.0285814 0)
(0.155855 0.0678535 0)
(0.121637 0.0968506 0)
(0.0492147 -0.0334765 0)
(0.0347217 -0.271337 0)
(-0.015661 -0.3688 0)
(-0.0509791 -0.39395 0)
(-0.0835425 -0.38908 0)
(-0.139229 -0.359161 0)
(-0.188449 -0.311563 0)
(-0.209815 -0.257616 0)
(-0.207237 -0.200947 0)
(-0.18936 -0.134795 0)
(-0.166475 -0.0596513 0)
(-0.145662 0.0204319 0)
(-0.133744 0.100175 0)
(-0.126806 0.178079 0)
(-0.117836 0.270369 0)
(-0.0913457 0.398173 0)
(-0.0470881 0.546677 0)
(-0.0316962 0.590651 0)
(-0.00835195 0.589921 0)
(0.0262392 0.592094 0)
(0.0598962 0.590957 0)
(0.0990932 0.596563 0)
(0.140926 0.577514 0)
(0.174193 0.530951 0)
(0.197051 0.446517 0)
(0.207478 0.355336 0)
(0.183852 0.255057 0)
(0.136434 0.127795 0)
(0.0760719 -0.0648123 0)
(0.0271017 -0.325132 0)
(0.0374935 -0.553101 0)
(0.0740289 -0.622763 0)
(0.118263 -0.518827 0)
(0.151562 -0.408158 0)
(0.161587 -0.345863 0)
(0.167486 -0.314514 0)
(0.151791 -0.303482 0)
(0.115662 -0.288627 0)
(0.0755258 -0.256029 0)
(0.054744 -0.195599 0)
(-0.184096 0.424604 0)
(-0.192852 0.437792 0)
(-0.187559 0.459264 0)
(-0.184101 0.480493 0)
(-0.187843 0.493656 0)
(-0.186913 0.497461 0)
(-0.192925 0.513002 0)
(-0.206204 0.532531 0)
(-0.218417 0.5504 0)
(-0.221142 0.555713 0)
(-0.222629 0.534566 0)
(-0.21544 0.46498 0)
(-0.202164 0.348838 0)
(-0.176993 0.214156 0)
(-0.153759 0.10244 0)
(-0.153411 0.0328345 0)
(-0.180424 0.0218086 0)
(-0.183913 0.0369094 0)
(-0.182049 0.0744594 0)
(-0.199237 0.129175 0)
(-0.21464 0.19492 0)
(-0.211905 0.277512 0)
(-0.204512 0.374757 0)
(-0.233682 0.476095 0)
(-0.294757 0.553294 0)
(-0.364373 0.610839 0)
(-0.429051 0.650369 0)
(-0.477469 0.673104 0)
(-0.509003 0.682661 0)
(-0.529848 0.681308 0)
(-0.543737 0.666027 0)
(-0.547528 0.632416 0)
(-0.534466 0.574171 0)
(-0.501148 0.487436 0)
(-0.472532 0.374259 0)
(-0.442075 0.267649 0)
(-0.396757 0.190044 0)
(-0.348337 0.121987 0)
(-0.305643 0.0592816 0)
(-0.267852 0.00277601 0)
(-0.223928 -0.047169 0)
(-0.166896 -0.0846764 0)
(-0.105194 -0.0996637 0)
(-0.0287988 -0.075215 0)
(0.0380795 -0.0172541 0)
(0.111996 0.0824808 0)
(0.200679 0.202248 0)
(0.248004 0.29029 0)
(0.277224 0.348701 0)
(0.303714 0.386309 0)
(0.331027 0.411439 0)
(0.358155 0.427044 0)
(0.382948 0.437856 0)
(0.403987 0.449795 0)
(0.41619 0.460174 0)
(0.425651 0.467032 0)
(0.441498 0.461804 0)
(0.455846 0.436467 0)
(0.473936 0.394188 0)
(0.496643 0.338279 0)
(0.512189 0.262599 0)
(0.510719 0.170457 0)
(0.479329 0.076145 0)
(0.407208 -0.0117447 0)
(0.315698 -0.0831366 0)
(0.245859 -0.133993 0)
(0.230527 -0.166059 0)
(0.254235 -0.175343 0)
(0.276578 -0.156037 0)
(0.259751 -0.0934177 0)
(0.224083 0.00378348 0)
(0.188879 0.106003 0)
(0.141328 0.143583 0)
(0.0525471 0.0240088 0)
(0.016591 -0.229052 0)
(-0.0302521 -0.346835 0)
(-0.0552532 -0.375437 0)
(-0.0731684 -0.368666 0)
(-0.114945 -0.337814 0)
(-0.159928 -0.290917 0)
(-0.186875 -0.240468 0)
(-0.188414 -0.186272 0)
(-0.17151 -0.118925 0)
(-0.14854 -0.0379183 0)
(-0.129061 0.0493298 0)
(-0.120651 0.135445 0)
(-0.117141 0.218073 0)
(-0.110363 0.304273 0)
(-0.091802 0.421874 0)
(-0.045057 0.577075 0)
(-0.0234617 0.634726 0)
(3.3349e-05 0.625922 0)
(0.0353921 0.624817 0)
(0.0715526 0.620391 0)
(0.111643 0.623754 0)
(0.156048 0.606269 0)
(0.195508 0.563456 0)
(0.219059 0.489615 0)
(0.223758 0.396438 0)
(0.191796 0.29321 0)
(0.136635 0.163976 0)
(0.0866866 -0.0278916 0)
(0.0503393 -0.289925 0)
(0.0654795 -0.531349 0)
(0.0936833 -0.618658 0)
(0.12611 -0.534633 0)
(0.154341 -0.396758 0)
(0.16388 -0.323436 0)
(0.174499 -0.290862 0)
(0.172908 -0.286698 0)
(0.150912 -0.28504 0)
(0.11066 -0.275567 0)
(0.0799171 -0.225923 0)
(-0.162654 0.468512 0)
(-0.173483 0.476295 0)
(-0.169075 0.491781 0)
(-0.160468 0.511756 0)
(-0.160938 0.522534 0)
(-0.156881 0.523626 0)
(-0.157371 0.529913 0)
(-0.165125 0.540909 0)
(-0.174386 0.549244 0)
(-0.176845 0.548767 0)
(-0.175995 0.526145 0)
(-0.162144 0.457672 0)
(-0.139203 0.341962 0)
(-0.114334 0.218658 0)
(-0.102701 0.127104 0)
(-0.116164 0.0738103 0)
(-0.152532 0.0498394 0)
(-0.169944 0.0640893 0)
(-0.169255 0.0908876 0)
(-0.186847 0.135525 0)
(-0.20552 0.193287 0)
(-0.204659 0.267891 0)
(-0.192041 0.360867 0)
(-0.201552 0.466311 0)
(-0.257066 0.553329 0)
(-0.325439 0.615939 0)
(-0.394141 0.660764 0)
(-0.449022 0.689314 0)
(-0.485979 0.704219 0)
(-0.510388 0.706596 0)
(-0.525101 0.692451 0)
(-0.525108 0.655345 0)
(-0.50492 0.587514 0)
(-0.479782 0.48812 0)
(-0.467674 0.371863 0)
(-0.441376 0.280102 0)
(-0.39955 0.206171 0)
(-0.359176 0.135605 0)
(-0.321266 0.0681503 0)
(-0.285175 0.00187625 0)
(-0.247737 -0.0518347 0)
(-0.202727 -0.0925974 0)
(-0.151609 -0.11362 0)
(-0.089148 -0.107137 0)
(-0.0121772 -0.0493122 0)
(0.0236466 0.0395817 0)
(0.12582 0.178307 0)
(0.184683 0.274947 0)
(0.222421 0.341037 0)
(0.250797 0.385829 0)
(0.279353 0.416994 0)
(0.308927 0.437189 0)
(0.337433 0.452577 0)
(0.35973 0.468841 0)
(0.372941 0.478265 0)
(0.390178 0.484804 0)
(0.414811 0.474393 0)
(0.439355 0.441014 0)
(0.469382 0.398091 0)
(0.498274 0.341304 0)
(0.515369 0.267258 0)
(0.511081 0.179729 0)
(0.470047 0.0851397 0)
(0.392551 -0.00879173 0)
(0.308682 -0.0830759 0)
(0.243234 -0.138102 0)
(0.226957 -0.176176 0)
(0.251157 -0.187979 0)
(0.280132 -0.161537 0)
(0.273153 -0.0844955 0)
(0.240499 0.0348017 0)
(0.203308 0.152758 0)
(0.148638 0.20271 0)
(0.0528839 0.0977693 0)
(-0.00621204 -0.182045 0)
(-0.0449866 -0.328644 0)
(-0.0592578 -0.359321 0)
(-0.0642625 -0.349305 0)
(-0.0957188 -0.31616 0)
(-0.141655 -0.271542 0)
(-0.175684 -0.226654 0)
(-0.181272 -0.17414 0)
(-0.167091 -0.103858 0)
(-0.14719 -0.0172975 0)
(-0.129895 0.0784246 0)
(-0.116334 0.171316 0)
(-0.113427 0.257703 0)
(-0.109294 0.337823 0)
(-0.0953361 0.442774 0)
(-0.0500476 0.590892 0)
(-0.0178655 0.670413 0)
(0.00451815 0.656932 0)
(0.0413515 0.652188 0)
(0.0789564 0.644024 0)
(0.119469 0.642312 0)
(0.163854 0.627408 0)
(0.206757 0.587412 0)
(0.230359 0.520698 0)
(0.226993 0.430481 0)
(0.185159 0.324353 0)
(0.122461 0.189662 0)
(0.0866066 -0.00181994 0)
(0.0710302 -0.258849 0)
(0.0905977 -0.501515 0)
(0.108545 -0.595707 0)
(0.131512 -0.518206 0)
(0.155568 -0.37798 0)
(0.160861 -0.296008 0)
(0.173961 -0.262017 0)
(0.183968 -0.258042 0)
(0.174327 -0.263826 0)
(0.155871 -0.27758 0)
(0.135664 -0.241501 0)
(-0.139223 0.513595 0)
(-0.151943 0.512884 0)
(-0.150248 0.520704 0)
(-0.1388 0.53796 0)
(-0.135351 0.547725 0)
(-0.129518 0.547548 0)
(-0.126495 0.542899 0)
(-0.127651 0.544445 0)
(-0.132586 0.542365 0)
(-0.131993 0.53258 0)
(-0.130807 0.504393 0)
(-0.11734 0.435264 0)
(-0.0978982 0.326796 0)
(-0.0898661 0.226065 0)
(-0.102406 0.158051 0)
(-0.11757 0.10843 0)
(-0.138529 0.0815908 0)
(-0.161367 0.0927195 0)
(-0.161534 0.115954 0)
(-0.175201 0.154553 0)
(-0.195787 0.205361 0)
(-0.195622 0.269455 0)
(-0.181595 0.357611 0)
(-0.177157 0.459739 0)
(-0.222002 0.557108 0)
(-0.287125 0.62643 0)
(-0.356633 0.676627 0)
(-0.415879 0.710444 0)
(-0.456773 0.72989 0)
(-0.483213 0.734973 0)
(-0.497468 0.720981 0)
(-0.494143 0.679263 0)
(-0.472241 0.601969 0)
(-0.460559 0.49516 0)
(-0.455095 0.387365 0)
(-0.428289 0.306164 0)
(-0.389496 0.233667 0)
(-0.352627 0.161969 0)
(-0.316752 0.0906666 0)
(-0.283211 0.0193296 0)
(-0.251283 -0.0409382 0)
(-0.216713 -0.0863506 0)
(-0.180792 -0.110926 0)
(-0.143017 -0.110613 0)
(-0.0879551 -0.0729541 0)
(-0.0286378 0.00905317 0)
(0.0220067 0.131871 0)
(0.109105 0.267869 0)
(0.154319 0.332023 0)
(0.192411 0.379502 0)
(0.225222 0.415176 0)
(0.257337 0.440593 0)
(0.289639 0.459922 0)
(0.310388 0.475349 0)
(0.328886 0.486405 0)
(0.361908 0.489489 0)
(0.395374 0.470232 0)
(0.433172 0.437312 0)
(0.472344 0.395115 0)
(0.503331 0.338798 0)
(0.521651 0.268475 0)
(0.518256 0.184325 0)
(0.47453 0.0890299 0)
(0.394847 -0.00822904 0)
(0.313421 -0.0832433 0)
(0.246354 -0.139519 0)
(0.222537 -0.181214 0)
(0.240327 -0.195706 0)
(0.267396 -0.167623 0)
(0.26107 -0.0769711 0)
(0.230571 0.0653106 0)
(0.196418 0.203158 0)
(0.141618 0.267096 0)
(0.0513435 0.175467 0)
(-0.0238379 -0.135629 0)
(-0.0497671 -0.314189 0)
(-0.0555288 -0.347101 0)
(-0.0530452 -0.333497 0)
(-0.0828331 -0.2973 0)
(-0.137802 -0.257357 0)
(-0.178998 -0.216249 0)
(-0.189269 -0.16219 0)
(-0.179418 -0.0864904 0)
(-0.167637 0.00515734 0)
(-0.148649 0.106229 0)
(-0.125354 0.203989 0)
(-0.116171 0.291867 0)
(-0.111298 0.370773 0)
(-0.0989755 0.463772 0)
(-0.0586221 0.598905 0)
(-0.015018 0.697235 0)
(0.00571428 0.68396 0)
(0.0436792 0.675076 0)
(0.0819275 0.663383 0)
(0.123866 0.656333 0)
(0.166815 0.6431 0)
(0.208433 0.605901 0)
(0.23062 0.54334 0)
(0.219353 0.456433 0)
(0.16698 0.347299 0)
(0.100851 0.205269 0)
(0.0797231 0.0125537 0)
(0.0824615 -0.234796 0)
(0.106507 -0.466907 0)
(0.115727 -0.556676 0)
(0.131868 -0.474226 0)
(0.151276 -0.346543 0)
(0.153116 -0.263686 0)
(0.171052 -0.228411 0)
(0.19059 -0.221564 0)
(0.194037 -0.231789 0)
(0.211626 -0.269237 0)
(0.205001 -0.247303 0)
(-0.119671 0.558857 0)
(-0.131698 0.548599 0)
(-0.131879 0.547807 0)
(-0.119863 0.559262 0)
(-0.111436 0.568543 0)
(-0.10608 0.56621 0)
(-0.101564 0.551395 0)
(-0.0948895 0.543767 0)
(-0.0949104 0.531459 0)
(-0.0904696 0.511757 0)
(-0.088038 0.475498 0)
(-0.076782 0.404166 0)
(-0.0677484 0.310828 0)
(-0.0851695 0.232706 0)
(-0.10224 0.167749 0)
(-0.110603 0.116111 0)
(-0.126415 0.103985 0)
(-0.155605 0.122165 0)
(-0.159353 0.151411 0)
(-0.167643 0.184585 0)
(-0.187142 0.226117 0)
(-0.186657 0.279928 0)
(-0.171138 0.36104 0)
(-0.158648 0.458187 0)
(-0.18873 0.562448 0)
(-0.249676 0.639297 0)
(-0.317399 0.695077 0)
(-0.378903 0.733636 0)
(-0.422507 0.756892 0)
(-0.450093 0.764235 0)
(-0.463789 0.750413 0)
(-0.458992 0.705248 0)
(-0.439359 0.621834 0)
(-0.437282 0.513141 0)
(-0.433242 0.414427 0)
(-0.404985 0.337493 0)
(-0.367452 0.264999 0)
(-0.331502 0.192662 0)
(-0.298052 0.118786 0)
(-0.269368 0.0426168 0)
(-0.24558 -0.0250227 0)
(-0.221607 -0.0735284 0)
(-0.196317 -0.0992626 0)
(-0.172591 -0.0999005 0)
(-0.1405 -0.0703162 0)
(-0.0951951 -0.00660725 0)
(-0.0625171 0.102466 0)
(0.0287679 0.24094 0)
(0.081858 0.32141 0)
(0.127452 0.369038 0)
(0.167571 0.405436 0)
(0.204877 0.434428 0)
(0.239123 0.456525 0)
(0.269084 0.470705 0)
(0.304278 0.483369 0)
(0.346017 0.478407 0)
(0.391517 0.457538 0)
(0.438502 0.428102 0)
(0.480448 0.386653 0)
(0.514824 0.334175 0)
(0.53496 0.268495 0)
(0.530367 0.187359 0)
(0.485095 0.0895973 0)
(0.409688 -0.00576668 0)
(0.322764 -0.0795936 0)
(0.246834 -0.13537 0)
(0.214148 -0.177506 0)
(0.224134 -0.192623 0)
(0.246285 -0.168593 0)
(0.23524 -0.0698087 0)
(0.204226 0.0940699 0)
(0.176542 0.251042 0)
(0.129763 0.327602 0)
(0.0550109 0.249963 0)
(-0.0245888 -0.0866404 0)
(-0.040814 -0.302695 0)
(-0.0440799 -0.337943 0)
(-0.0389366 -0.322941 0)
(-0.0752601 -0.285911 0)
(-0.147226 -0.250619 0)
(-0.198986 -0.211299 0)
(-0.218099 -0.153596 0)
(-0.214556 -0.0772211 0)
(-0.202429 0.0172683 0)
(-0.178391 0.121226 0)
(-0.147031 0.224813 0)
(-0.124941 0.317679 0)
(-0.115623 0.400817 0)
(-0.102742 0.484505 0)
(-0.0692594 0.604664 0)
(-0.0204454 0.712665 0)
(0.00310387 0.705816 0)
(0.0420525 0.693873 0)
(0.0810721 0.679826 0)
(0.124702 0.668656 0)
(0.16584 0.654528 0)
(0.202989 0.619763 0)
(0.22142 0.560408 0)
(0.201963 0.475233 0)
(0.139945 0.362423 0)
(0.0755395 0.213438 0)
(0.0701165 0.0193451 0)
(0.0842255 -0.218121 0)
(0.110844 -0.432711 0)
(0.115408 -0.509526 0)
(0.125248 -0.420757 0)
(0.140467 -0.309231 0)
(0.143006 -0.228524 0)
(0.168532 -0.193003 0)
(0.195866 -0.182943 0)
(0.213873 -0.197871 0)
(0.258332 -0.254679 0)
(0.258464 -0.217896 0)
(-0.106506 0.600293 0)
(-0.115181 0.583814 0)
(-0.116568 0.573867 0)
(-0.105707 0.576577 0)
(-0.093627 0.584736 0)
(-0.0877988 0.578702 0)
(-0.0810199 0.557796 0)
(-0.0677356 0.541753 0)
(-0.0624268 0.519418 0)
(-0.0537465 0.489593 0)
(-0.0487818 0.444989 0)
(-0.038111 0.372243 0)
(-0.0440628 0.295548 0)
(-0.06973 0.226684 0)
(-0.0812046 0.163473 0)
(-0.0980488 0.12467 0)
(-0.122858 0.128129 0)
(-0.155935 0.155586 0)
(-0.161115 0.18944 0)
(-0.163111 0.219087 0)
(-0.18035 0.251605 0)
(-0.178472 0.296778 0)
(-0.160627 0.368802 0)
(-0.143 0.462073 0)
(-0.158632 0.568699 0)
(-0.213448 0.652076 0)
(-0.277291 0.713604 0)
(-0.339482 0.75649 0)
(-0.384754 0.783212 0)
(-0.412867 0.792784 0)
(-0.426256 0.780014 0)
(-0.422011 0.734247 0)
(-0.406383 0.649269 0)
(-0.409077 0.541513 0)
(-0.404858 0.448893 0)
(-0.375938 0.372304 0)
(-0.338063 0.298474 0)
(-0.30079 0.22472 0)
(-0.268238 0.148102 0)
(-0.245449 0.0692305 0)
(-0.233148 -0.00363341 0)
(-0.22411 -0.0566631 0)
(-0.209076 -0.0841146 0)
(-0.195496 -0.0851895 0)
(-0.180401 -0.0624712 0)
(-0.148002 -0.0195338 0)
(-0.100895 0.0812694 0)
(-0.0395115 0.201994 0)
(0.0225417 0.305697 0)
(0.0692857 0.356914 0)
(0.116076 0.396025 0)
(0.161436 0.42718 0)
(0.205303 0.450603 0)
(0.248057 0.465789 0)
(0.294842 0.470437 0)
(0.346882 0.461039 0)
(0.399945 0.442108 0)
(0.450873 0.413516 0)
(0.497167 0.375445 0)
(0.533436 0.326308 0)
(0.552879 0.263105 0)
(0.545684 0.184442 0)
(0.502508 0.0864213 0)
(0.431099 -0.00211748 0)
(0.332022 -0.0733042 0)
(0.240983 -0.125954 0)
(0.195505 -0.164674 0)
(0.197154 -0.179066 0)
(0.216811 -0.161212 0)
(0.204031 -0.0640201 0)
(0.172194 0.117639 0)
(0.153714 0.290693 0)
(0.122097 0.376269 0)
(0.0614846 0.309517 0)
(-0.00809549 -0.0260709 0)
(-0.0158916 -0.292701 0)
(-0.0236816 -0.331871 0)
(-0.0246676 -0.318455 0)
(-0.0723895 -0.28447 0)
(-0.163391 -0.255497 0)
(-0.226406 -0.218189 0)
(-0.253622 -0.156631 0)
(-0.254393 -0.0779824 0)
(-0.238302 0.017057 0)
(-0.211406 0.122181 0)
(-0.177156 0.231063 0)
(-0.144654 0.331813 0)
(-0.127264 0.420368 0)
(-0.111914 0.502376 0)
(-0.0834975 0.607499 0)
(-0.0317434 0.718815 0)
(-0.00125221 0.723106 0)
(0.0376895 0.70983 0)
(0.0773331 0.694382 0)
(0.121724 0.680028 0)
(0.16061 0.66319 0)
(0.19255 0.629714 0)
(0.204859 0.572682 0)
(0.17593 0.487306 0)
(0.10817 0.37036 0)
(0.0506528 0.216098 0)
(0.059712 0.0248295 0)
(0.080652 -0.202692 0)
(0.103708 -0.396422 0)
(0.10534 -0.45566 0)
(0.114549 -0.366575 0)
(0.129235 -0.269558 0)
(0.135015 -0.194399 0)
(0.167829 -0.160298 0)
(0.200806 -0.149397 0)
(0.235502 -0.172778 0)
(0.284385 -0.221686 0)
(0.290995 -0.176614 0)
(-0.101988 0.635163 0)
(-0.104863 0.615315 0)
(-0.106687 0.597271 0)
(-0.0973046 0.590658 0)
(-0.0836154 0.596055 0)
(-0.0738041 0.588674 0)
(-0.0644647 0.562483 0)
(-0.048633 0.539213 0)
(-0.0381863 0.509332 0)
(-0.0244113 0.469569 0)
(-0.015413 0.416378 0)
(-0.00477839 0.346772 0)
(-0.0198722 0.278053 0)
(-0.0440823 0.216415 0)
(-0.0600724 0.159509 0)
(-0.0910094 0.136558 0)
(-0.128356 0.157459 0)
(-0.158341 0.190547 0)
(-0.162367 0.226137 0)
(-0.160375 0.254558 0)
(-0.174598 0.279679 0)
(-0.170837 0.317659 0)
(-0.15015 0.380212 0)
(-0.128485 0.468964 0)
(-0.132703 0.575428 0)
(-0.179386 0.663722 0)
(-0.23744 0.730047 0)
(-0.29886 0.7772 0)
(-0.344965 0.807312 0)
(-0.373337 0.819449 0)
(-0.386359 0.808965 0)
(-0.382884 0.765717 0)
(-0.369673 0.682749 0)
(-0.374303 0.576683 0)
(-0.371913 0.486062 0)
(-0.344859 0.406809 0)
(-0.30787 0.329267 0)
(-0.271548 0.251322 0)
(-0.243836 0.170226 0)
(-0.232275 0.0891921 0)
(-0.233463 0.0151128 0)
(-0.232386 -0.0387505 0)
(-0.224488 -0.0674046 0)
(-0.21962 -0.0699553 0)
(-0.212461 -0.0524345 0)
(-0.184866 -0.015683 0)
(-0.134912 0.0503729 0)
(-0.0775451 0.171695 0)
(-0.0141223 0.283741 0)
(0.0349725 0.340919 0)
(0.0875552 0.383321 0)
(0.140386 0.416165 0)
(0.193432 0.438296 0)
(0.246233 0.449451 0)
(0.302092 0.449803 0)
(0.359997 0.440564 0)
(0.417957 0.421994 0)
(0.472587 0.394168 0)
(0.519179 0.357743 0)
(0.555489 0.310671 0)
(0.576279 0.252605 0)
(0.567073 0.179453 0)
(0.525177 0.0884527 0)
(0.449603 0.00529958 0)
(0.330256 -0.0627534 0)
(0.224419 -0.112933 0)
(0.172607 -0.146721 0)
(0.166399 -0.159822 0)
(0.18281 -0.147045 0)
(0.17089 -0.0615269 0)
(0.14081 0.133735 0)
(0.133543 0.317511 0)
(0.120922 0.409109 0)
(0.0754996 0.350315 0)
(0.0180122 0.0456942 0)
(0.0188974 -0.273761 0)
(0.00246681 -0.327601 0)
(-0.011705 -0.318476 0)
(-0.0751622 -0.292622 0)
(-0.1838 -0.26946 0)
(-0.250861 -0.231984 0)
(-0.279412 -0.166516 0)
(-0.284783 -0.0833803 0)
(-0.269867 0.0116437 0)
(-0.244475 0.116752 0)
(-0.211132 0.227333 0)
(-0.176131 0.334613 0)
(-0.149334 0.429357 0)
(-0.126889 0.516604 0)
(-0.0989441 0.613006 0)
(-0.0467676 0.721414 0)
(-0.00950805 0.738259 0)
(0.0304763 0.724531 0)
(0.0705177 0.707528 0)
(0.114497 0.69002 0)
(0.151217 0.669746 0)
(0.178127 0.636212 0)
(0.182831 0.579363 0)
(0.144976 0.492968 0)
(0.0757614 0.371828 0)
(0.0301679 0.21281 0)
(0.0504252 0.0265255 0)
(0.0748198 -0.189502 0)
(0.093606 -0.358299 0)
(0.0952809 -0.398579 0)
(0.104467 -0.314965 0)
(0.118999 -0.230035 0)
(0.129544 -0.1641 0)
(0.16797 -0.132658 0)
(0.205762 -0.123543 0)
(0.248157 -0.148972 0)
(0.292615 -0.17911 0)
(0.304058 -0.124785 0)
(-0.106741 0.662142 0)
(-0.103073 0.640665 0)
(-0.103841 0.616292 0)
(-0.0956895 0.602216 0)
(-0.080282 0.603375 0)
(-0.0654107 0.596557 0)
(-0.0530076 0.563443 0)
(-0.0354214 0.533503 0)
(-0.0218054 0.499175 0)
(-0.00509993 0.453428 0)
(0.0104966 0.395816 0)
(0.0175375 0.332315 0)
(-0.0043542 0.264789 0)
(-0.0244005 0.208227 0)
(-0.0512974 0.167966 0)
(-0.0895323 0.165634 0)
(-0.130295 0.191399 0)
(-0.157155 0.223535 0)
(-0.161118 0.261079 0)
(-0.157758 0.289996 0)
(-0.16898 0.309075 0)
(-0.162772 0.340647 0)
(-0.140166 0.394265 0)
(-0.11524 0.476715 0)
(-0.109989 0.581653 0)
(-0.148257 0.673233 0)
(-0.19915 0.743447 0)
(-0.258126 0.794565 0)
(-0.304499 0.827988 0)
(-0.332833 0.843175 0)
(-0.34513 0.835916 0)
(-0.342343 0.796678 0)
(-0.331271 0.7171 0)
(-0.335757 0.611364 0)
(-0.337179 0.520182 0)
(-0.315247 0.437074 0)
(-0.281919 0.355064 0)
(-0.250585 0.273141 0)
(-0.232571 0.190443 0)
(-0.236112 0.110624 0)
(-0.24901 0.0365212 0)
(-0.250698 -0.0171836 0)
(-0.247044 -0.0476387 0)
(-0.248156 -0.0554384 0)
(-0.24162 -0.0483316 0)
(-0.212474 -0.0208129 0)
(-0.156424 0.0305496 0)
(-0.0825528 0.136965 0)
(-0.0214895 0.26188 0)
(0.0265729 0.318733 0)
(0.0842845 0.360927 0)
(0.142471 0.393488 0)
(0.202248 0.413689 0)
(0.261671 0.422809 0)
(0.322806 0.422386 0)
(0.384379 0.412178 0)
(0.442543 0.393805 0)
(0.49672 0.366737 0)
(0.545072 0.3328 0)
(0.583313 0.292019 0)
(0.603985 0.241622 0)
(0.59291 0.175459 0)
(0.546964 0.0976092 0)
(0.458644 0.0198834 0)
(0.312969 -0.0447484 0)
(0.191887 -0.0934095 0)
(0.147598 -0.125173 0)
(0.139933 -0.139588 0)
(0.153037 -0.129501 0)
(0.148206 -0.0623337 0)
(0.119235 0.135543 0)
(0.118857 0.329001 0)
(0.125776 0.427023 0)
(0.0951818 0.378619 0)
(0.0417888 0.0958449 0)
(0.0497153 -0.245689 0)
(0.0255549 -0.32144 0)
(-0.00475287 -0.320435 0)
(-0.0831897 -0.303776 0)
(-0.198916 -0.279974 0)
(-0.265068 -0.238687 0)
(-0.292245 -0.171224 0)
(-0.303016 -0.083336 0)
(-0.294142 0.0129314 0)
(-0.275824 0.117828 0)
(-0.247879 0.222879 0)
(-0.212959 0.329202 0)
(-0.178111 0.431228 0)
(-0.147484 0.524623 0)
(-0.117065 0.617629 0)
(-0.0654882 0.719404 0)
(-0.0222333 0.749839 0)
(0.019688 0.737707 0)
(0.0600679 0.718445 0)
(0.10307 0.697618 0)
(0.138128 0.67396 0)
(0.160425 0.638494 0)
(0.157365 0.579614 0)
(0.112347 0.490574 0)
(0.0458789 0.364822 0)
(0.0168687 0.201483 0)
(0.0426298 0.0266966 0)
(0.0719564 -0.177171 0)
(0.0867513 -0.320463 0)
(0.0891551 -0.345476 0)
(0.0983059 -0.273653 0)
(0.112876 -0.198988 0)
(0.127402 -0.141611 0)
(0.166242 -0.111234 0)
(0.20694 -0.103317 0)
(0.252871 -0.126542 0)
(0.292109 -0.131793 0)
(0.295017 -0.0616408 0)
(-0.119877 0.681192 0)
(-0.110539 0.658388 0)
(-0.108838 0.629754 0)
(-0.10047 0.610904 0)
(-0.0834371 0.607517 0)
(-0.0643436 0.598874 0)
(-0.0490077 0.560158 0)
(-0.0291019 0.524412 0)
(-0.0120837 0.486476 0)
(0.0062791 0.439843 0)
(0.0242501 0.384047 0)
(0.0208641 0.318262 0)
(-0.000523734 0.255666 0)
(-0.0143553 0.207762 0)
(-0.0503697 0.186259 0)
(-0.0870203 0.195764 0)
(-0.128511 0.222466 0)
(-0.153658 0.256495 0)
(-0.156927 0.295234 0)
(-0.154062 0.324911 0)
(-0.16316 0.339423 0)
(-0.153845 0.364395 0)
(-0.13016 0.409577 0)
(-0.103123 0.484643 0)
(-0.0897412 0.586535 0)
(-0.119883 0.68 0)
(-0.163205 0.753522 0)
(-0.218709 0.807926 0)