/*--------------------------------*- C++ -*----------------------------------*\
  =========                 |
  \\      /  F ield         | OpenFOAM: The Open Source CFD Toolbox
   \\    /   O peration     | Website:  https://openfoam.org
    \\  /    A nd           | Version:  11
     \\/     M anipulation  |
\*---------------------------------------------------------------------------*/
FoamFile
{
    format      ascii;
    class       volScalarField;
    location    "8.5";
    object      p;
}
// * * * * * * * * * * * * * * * * * * * * * * * * * * * * * * * * * * * * * //

dimensions      [0 2 -2 0 0 0 0];

internalField   nonuniform List<scalar> 
9600
(
0.0449694
0.0448799
0.0448365
0.0448478
0.0448168
0.0446118
0.0441289
0.0433353
0.04227
0.0409639
0.0393888
0.0375447
0.0352801
0.0327026
0.0299308
0.0270539
0.0241317
0.0212962
0.0187159
0.016456
0.0145825
0.0132259
0.0124784
0.0123721
0.0127094
0.0135186
0.0146096
0.0160701
0.018135
0.0202407
0.021298
0.0226717
0.023714
0.024283
0.0241157
0.0231731
0.0210488
0.0174818
0.0132126
0.00761407
0.0450292
0.0449257
0.0449119
0.0449351
0.0448544
0.0445693
0.0439497
0.0430081
0.0418379
0.0404506
0.038801
0.0367999
0.0345694
0.0320729
0.029371
0.0265446
0.0236847
0.0209493
0.0184772
0.0163048
0.0144951
0.0131586
0.0124043
0.0122832
0.0125915
0.0133385
0.0145051
0.0157541
0.0175173
0.0194166
0.0206865
0.0218413
0.0233878
0.0242975
0.0245617
0.0241129
0.0226808
0.0200647
0.0163051
0.0117864
0.0450507
0.0449391
0.0449303
0.0449042
0.0447479
0.0443706
0.0436919
0.042713
0.0415339
0.0401598
0.0385564
0.0366885
0.0343994
0.0318646
0.029179
0.0263992
0.0235844
0.020857
0.0183814
0.0162304
0.0144463
0.0131342
0.012371
0.0121278
0.0123287
0.0130419
0.0142644
0.0154145
0.0171086
0.0189916
0.020834
0.0220343
0.0231706
0.0240285
0.0247213
0.0244778
0.0235522
0.0210862
0.0178444
0.0140553
0.0450814
0.0449422
0.0449478
0.0449255
0.0447389
0.044305
0.0435827
0.0425722
0.0413453
0.0399502
0.0382945
0.036249
0.0339289
0.0314089
0.0287599
0.0260083
0.0232075
0.0205101
0.0180497
0.0159338
0.0141761
0.0128721
0.0121134
0.0118849
0.0120407
0.0127292
0.0138155
0.0153145
0.0168125
0.0185472
0.0202001
0.0217187
0.0231371
0.0238951
0.0248868
0.0250105
0.0244622
0.0227165
0.0199967
0.0163851
0.0451222
0.0449756
0.0449912
0.0449681
0.0447304
0.0442161
0.0434096
0.0423269
0.0410667
0.0396257
0.0379354
0.0359241
0.0336016
0.0310912
0.0284512
0.0257185
0.0229434
0.0202586
0.0177987
0.0157022
0.0139825
0.0126886
0.0119222
0.0116464
0.0117438
0.0123805
0.0134309
0.0147986
0.0163445
0.018046
0.0197786
0.0216019
0.0231193
0.0239733
0.0250387
0.0255576
0.0253334
0.0242795
0.0219703
0.0190535
0.0451831
0.0450222
0.0450423
0.0450067
0.0447137
0.0441341
0.043264
0.0421483
0.0408706
0.0394471
0.0377218
0.0356219
0.0332672
0.0307302
0.02809
0.0253684
0.0225876
0.019887
0.0174125
0.0153063
0.0136006
0.0123156
0.0115246
0.0112526
0.0113813
0.0119323
0.0129877
0.0143147
0.0159717
0.0176356
0.0193906
0.0211579
0.0226999
0.0240965
0.0251721
0.0260362
0.0261464
0.0256833
0.0240562
0.0217114
0.0452746
0.0450916
0.0450986
0.0450377
0.044707
0.0440779
0.0431546
0.042
0.0407027
0.0392358
0.0374564
0.0353091
0.0329227
0.0303758
0.0277339
0.0249942
0.0222
0.0194847
0.0170039
0.0148914
0.0131917
0.0119286
0.011143
0.0108531
0.0109367
0.0114926
0.0125565
0.0137984
0.0153898
0.0170365
0.0187492
0.0206257
0.0224578
0.0242051
0.0253646
0.0264939
0.0268264
0.0269858
0.0260072
0.0247351
0.0454004
0.0451787
0.0451514
0.0450679
0.0447155
0.0440422
0.0430752
0.0418795
0.0405663
0.0390467
0.0372028
0.0350244
0.032613
0.0300332
0.027343
0.0245829
0.0217674
0.0190216
0.0165098
0.0143814
0.0126763
0.0114119
0.010615
0.0102894
0.0104101
0.0109759
0.011994
0.0132244
0.014872
0.0166168
0.0182237
0.0200497
0.0220294
0.0239378
0.0254152
0.0268302
0.0273457
0.0280263
0.0278992
0.0274456
0.0455526
0.045293
0.0452205
0.0451049
0.0447406
0.0440315
0.0430273
0.0417985
0.0404418
0.038884
0.0369911
0.0347492
0.0322747
0.0296576
0.0269418
0.0241305
0.0212708
0.0184996
0.015945
0.0138105
0.0120829
0.010795
0.0100162
0.00968878
0.00982196
0.0103809
0.0113431
0.0126732
0.0142652
0.0159541
0.0176469
0.0194049
0.0213803
0.0235045
0.0254407
0.027159
0.0277993
0.0288501
0.0294263
0.0297965
0.0457298
0.0454234
0.0453135
0.0451636
0.0447822
0.0440555
0.0430125
0.0417383
0.0403464
0.0387541
0.0367824
0.0344592
0.0319355
0.029278
0.0265114
0.0236258
0.0207211
0.0179118
0.0153158
0.0131368
0.0113796
0.0100929
0.00931605
0.00898786
0.00912687
0.0097002
0.0106417
0.0119941
0.0135796
0.0153018
0.0170592
0.0188052
0.0207253
0.0228972
0.0251344
0.0270685
0.0281358
0.0294956
0.0304453
0.031488
0.045932
0.0455825
0.0454292
0.0452574
0.0448553
0.0441094
0.0430286
0.0417125
0.0402724
0.0386274
0.0365759
0.0341799
0.0315828
0.028853
0.0260352
0.0230866
0.0201107
0.0172392
0.0145901
0.0123673
0.0106013
0.00928216
0.00848228
0.00816709
0.00833614
0.00893641
0.00992304
0.0112201
0.0128383
0.0145445
0.016314
0.0181284
0.0200098
0.0222191
0.024517
0.0265917
0.0283955
0.0300548
0.0311083
0.0325475
0.0461586
0.0457641
0.0455781
0.0453781
0.0449602
0.0442005
0.0430871
0.0417253
0.0402192
0.0385162
0.0364035
0.0338913
0.0312061
0.0283999
0.025526
0.022489
0.0194051
0.0164873
0.0137965
0.0114965
0.009681
0.00833364
0.0075484
0.00725282
0.00744368
0.00806594
0.00911178
0.0103887
0.0119566
0.0137075
0.015514
0.0173736
0.0192465
0.0214967
0.0237834
0.0259424
0.0283474
0.0301102
0.0314753
0.0332954
0.0464177
0.0459865
0.0457673
0.0455351
0.0451092
0.0443336
0.0431862
0.0417567
0.0401875
0.0384084
0.036203
0.0335945
0.0308151
0.0279124
0.0249338
0.0218279
0.018648
0.0156304
0.0128819
0.0104909
0.00863607
0.00727775
0.0064994
0.00620462
0.00640424
0.00706384
0.0081694
0.00952815
0.0110543
0.0127679
0.0145806
0.016502
0.018362
0.02056
0.0229061
0.025179
0.0277102
0.0297524
0.0318188
0.0336533
0.0467173
0.0462379
0.0459961
0.045752
0.0453019
0.044518
0.0433208
0.0418192
0.0401699
0.0382997
0.0360286
0.033299
0.0303953
0.0273787
0.0242847
0.0210977
0.0177964
0.0146405
0.0118341
0.00938192
0.00748226
0.00606089
0.00526427
0.00502958
0.00526376
0.00596807
0.00712757
0.00853545
0.0100738
0.0117515
0.0135175
0.0155133
0.017401
0.0194819
0.0219047
0.0243002
0.0267377
0.0291376
0.0316082
0.0334551
0.0470676
0.046547
0.0462679
0.0460211
0.0455499
0.0447245
0.0434969
0.0419115
0.040162
0.0381896
0.0358255
0.032984
0.0299321
0.0267936
0.0235689
0.0202475
0.0168353
0.013557
0.01064
0.00810115
0.00615556
0.00469945
0.00389179
0.00370475
0.00398067
0.00473546
0.00593426
0.00742526
0.00896297
0.0107169
0.0123855
0.0143389
0.0163188
0.0183482
0.0207547
0.0231939
0.0256653
0.0281425
0.0306659
0.033047
0.0474714
0.0469131
0.0466084
0.0463415
0.0458507
0.0449828
0.0437134
0.0420273
0.0401689
0.0380891
0.0356091
0.0326565
0.0294411
0.0261423
0.0227547
0.0192963
0.0157509
0.0123374
0.00929512
0.00663082
0.00463649
0.00318747
0.0023576
0.00219998
0.00253195
0.00335749
0.0045647
0.00622942
0.00779421
0.00959784
0.0112257
0.0130239
0.0150795
0.0170999
0.0194304
0.0218538
0.0244338
0.0269353
0.0294369
0.0319641
0.0479484
0.0473489
0.0470173
0.0467129
0.0461902
0.0452728
0.043951
0.0421867
0.0401865
0.0379798
0.0353726
0.0322909
0.0288919
0.0254004
0.0218396
0.0182184
0.0145344
0.0109227
0.00776863
0.0050155
0.00289646
0.0014514
0.000618414
0.000512605
0.000902007
0.00183568
0.00310745
0.00487131
0.00650469
0.00833691
0.0100258
0.0116382
0.0136536
0.0157043
0.0179648
0.0203379
0.0228728
0.025381
0.0278409
0.0302006
0.0485074
0.047857
0.0474921
0.0471505
0.0465997
0.0456089
0.0442268
0.0423911
0.0402202
0.0378658
0.0351027
0.0318742
0.0282803
0.024566
0.0208138
0.0169774
0.0131391
0.00935473
0.00600506
0.0031796
0.000946935
-0.00053575
-0.00136364
-0.00139182
-0.000927417
0.000157482
0.00152487
0.00333383
0.00510267
0.0069227
0.0087689
0.0103602
0.012123
0.0141351
0.0163233
0.0186089
0.0210287
0.0234673
0.0259565
0.028275
0.0491495
0.0484344
0.0480393
0.0476533
0.047072
0.0460122
0.0445222
0.0426113
0.0402508
0.0377165
0.0348059
0.0313835
0.0275914
0.0236267
0.0196337
0.0155679
0.0115243
0.00759534
0.00401469
0.0010754
-0.00126134
-0.00279059
-0.0036157
-0.00354861
-0.00296277
-0.00174248
-0.000272199
0.00165476
0.00364513
0.00537853
0.00731626
0.00902297
0.0106194
0.0124469
0.0144931
0.0166695
0.0189893
0.0212938
0.0237036
0.0258469
0.0498954
0.0491045
0.0486797
0.048238
0.0475938
0.0464965
0.0448369
0.0428367
0.040352
0.0375383
0.0344413
0.0308337
0.0268106
0.0225487
0.018277
0.0139709
0.00967824
0.00557183
0.00175072
-0.00134247
-0.00375509
-0.00531375
-0.00620467
-0.00602738
-0.00530702
-0.00391566
-0.00217436
-0.00025496
0.00200542
0.0039004
0.00575984
0.00749427
0.00911958
0.0107921
0.0126312
0.014574
0.0167202
0.0188385
0.0211877
0.0231741
0.0507455
0.0498716
0.0494025
0.0489127
0.0481543
0.0470369
0.0452777
0.0430372
0.0404105
0.0373515
0.033973
0.0301431
0.0258915
0.0213211
0.0166987
0.012147
0.00755168
0.00324912
-0.000805127
-0.0040969
-0.00664812
-0.00819913
-0.00909596
-0.0088747
-0.00792813
-0.00643819
-0.00433794
-0.00226468
0.000119493
0.00231695
0.00424323
0.00595533
0.00755836
0.00906064
0.0106876
0.0123654
0.0142979
0.0162135
0.0183043
0.0199264
0.0517137
0.0507446
0.0502151
0.0497028
0.0488421
0.047595
0.0457535
0.0432862
0.0404277
0.0371179
0.0334603
0.0293485
0.0247824
0.0199269
0.014904
0.0100381
0.00511364
0.000564178
-0.00372984
-0.00720701
-0.00996399
-0.0115515
-0.0123128
-0.0122404
-0.01091
-0.00920365
-0.00689668
-0.00445439
-0.00193709
0.000508242
0.00269249
0.00446545
0.00603985
0.00737999
0.00879087
0.0101073
0.0116976
0.013342
0.0150976
0.0165546
0.0528368
0.0517857
0.0511493
0.0505898
0.0496516
0.0481995
0.0462089
0.0435494
0.0404156
0.0368099
0.0328016
0.0283756
0.0234438
0.0182915
0.0128177
0.0075562
0.00232479
-0.00253539
-0.00715722
-0.010789
-0.0136458
-0.0155382
-0.016017
-0.0158834
-0.0144416
-0.0124785
-0.0098771
-0.00695946
-0.00408521
-0.00139708
0.00106618
0.00300427
0.00460498
0.00579859
0.00697692
0.00792667
0.00904128
0.010194
0.0116973
0.0128696
0.0541369
0.0529854
0.0522457
0.0515757
0.0505589
0.0488891
0.0466615
0.0438003
0.0403642
0.0364325
0.0320076
0.0272656
0.0218703
0.0162982
0.0104327
0.00473128
-0.000986499
-0.0061699
-0.0109685
-0.015036
-0.0178846
-0.0199116
-0.0204254
-0.020118
-0.01864
-0.0162699
-0.0131738
-0.00993444
-0.00661225
-0.00344453
-0.000583194
0.00160364
0.00332383
0.0044616
0.00534514
0.00592358
0.00655359
0.00706224
0.00777034
0.00844186
0.0556505
0.0543734
0.0535119
0.0526436
0.0514765
0.0496967
0.0471783
0.0440039
0.0401641
0.035896
0.0310072
0.0258356
0.0200351
0.0139692
0.00755896
0.00132201
-0.00472942
-0.0104619
-0.0154522
-0.0198322
-0.02286
-0.0249397
-0.0256785
-0.0251025
-0.0233369
-0.0207006
-0.0172521
-0.0133851
-0.00937052
-0.00567474
-0.00236199
0.000269441
0.00224423
0.00348859
0.00416288
0.0042957
0.004328
0.00410817
0.00397948
0.00374845
0.0573676
0.0559347
0.0549236
0.0539083
0.0524912
0.0505001
0.0477027
0.0442086
0.039891
0.0352707
0.0298659
0.024069
0.0178238
0.0111134
0.00424091
-0.00267763
-0.00920259
-0.0154321
-0.0207223
-0.0253468
-0.0287649
-0.0308963
-0.031582
-0.0309353
-0.0290378
-0.0260042
-0.0219953
-0.0174237
-0.0127589
-0.00830897
-0.00433822
-0.00102381
0.00139957
0.00288223
0.00354054
0.00339229
0.00281919
0.00181749
0.0007844
-0.000509069
0.0593584
0.0577396
0.0565491
0.0553033
0.0536353
0.0513989
0.0481377
0.0442141
0.0395453
0.0341916
0.0283943
0.0219132
0.0150544
0.00771462
0.000205318
-0.00738564
-0.0144602
-0.0212153
-0.0269873
-0.0318946
-0.0355558
-0.037827
-0.0385724
-0.0379023
-0.0357749
-0.0322796
-0.0277808
-0.0223165
-0.0167577
-0.0114152
-0.00665101
-0.00245883
0.000717146
0.00281674
0.00369085
0.00347814
0.00240848
0.000586723
-0.00140883
-0.00349897
0.0617623
0.0598581
0.058349
0.056892
0.0548708
0.0521519
0.0486254
0.0440951
0.0388631
0.0329056
0.0263926
0.019255
0.0116504
0.003552
-0.00460781
-0.0129488
-0.0207271
-0.0280235
-0.0343336
-0.0396253
-0.0435353
-0.0460135
-0.0469074
-0.0461029
-0.0437988
-0.0398103
-0.0347631
-0.0285645
-0.0217627
-0.0152012
-0.00942202
-0.00415837
9.36538e-05
0.00322982
0.00475087
0.00486424
0.00359476
0.00113297
-0.001957
-0.00523882
0.0644508
0.0622585
0.0604339
0.058528
0.0561245
0.0529547
0.0488918
0.0437763
0.0378107
0.0311115
0.0238166
0.0158431
0.00745292
-0.00157995
-0.010545
-0.0196385
-0.0282031
-0.0361618
-0.0430482
-0.0487564
-0.0530714
-0.0557187
-0.0568435
-0.0559027
-0.0534353
-0.0491011
-0.043259
-0.0363675
-0.0285784
-0.0205764
-0.0131222
-0.00637573
-0.000652836
0.0039822
0.0068086
0.00793885
0.00711525
0.00457524
0.00061028
-0.00441886
0.0673514
0.064769
0.0627214
0.0603999
0.0574816
0.0537049
0.0489359
0.0431172
0.03637
0.0286549
0.0205005
0.0114834
0.00211021
-0.00781072
-0.0178216
-0.0278046
-0.0372546
-0.0458861
-0.0535211
-0.059633
-0.0644938
-0.0673743
-0.0686449
-0.0678407
-0.0651265
-0.0605135
-0.0540347
-0.0462231
-0.0375327
-0.0284144
-0.0190727
-0.0102836
-0.00226056
0.00456913
0.00956441
0.0126625
0.0133183
0.0118057
0.0078996
0.00234475
0.0708214
0.0676129
0.0651442
0.0623633
0.0587599
0.0542311
0.0487718
0.0419206
0.0343852
0.025694
0.0161403
0.00603445
-0.00457998
-0.0156063
-0.0268417
-0.0377101
-0.0482696
-0.0576131
-0.0660599
-0.0727858
-0.078103
-0.0814679
-0.0828912
-0.0822969
-0.0794868
-0.0746235
-0.0677685
-0.0592806
-0.049559
-0.0390856
-0.0281233
-0.0172435
-0.00648319
0.00335038
0.0115664
0.0180115
0.0217904
0.0232327
0.0212408
0.0175488
0.0749634
0.0710421
0.0679369
0.0644378
0.0600524
0.0542359
0.0473272
0.0394567
0.0303514
0.0205263
0.00987754
-0.00145399
-0.0134873
-0.0258252
-0.0383359
-0.0502483
-0.0618699
-0.0722667
-0.0814008
-0.0889154
-0.0947556
-0.0986427
-0.100367
-0.0999664
-0.0972578
-0.0923674
-0.0852825
-0.0763521
-0.0658883
-0.0541829
-0.0416489
-0.0286669
-0.0154924
-0.00235198
0.00980345
0.02073
0.029286
0.0358765
0.0390571
0.0398931
0.0797041
0.0748662
0.0709085
0.0667935
0.0616033
0.0550419
0.0471115
0.0378982
0.0271734
0.0152451
0.00243905
-0.010885
-0.0246669
-0.0383886
-0.0522801
-0.0656745
-0.0783174
-0.089867
-0.0999111
-0.108308
-0.114783
-0.119218
-0.121419
-0.121445
-0.119015
-0.114274
-0.107411
-0.0983307
-0.0874593
-0.0749072
-0.0610803
-0.0461824
-0.0307656
-0.014783
0.00115402
0.016844
0.0313629
0.0439717
0.0548587
0.0634646
0.0849231
0.078738
0.0727878
0.0664628
0.0591436
0.0506849
0.0408618
0.0297121
0.0174311
0.00412621
-0.010147
-0.0250586
-0.0405963
-0.0562469
-0.0716131
-0.0863135
-0.100046
-0.112619
-0.123474
-0.132668
-0.139744
-0.144738
-0.147414
-0.147856
-0.145979
-0.141675
-0.135339
-0.126668
-0.115991
-0.103368
-0.089069
-0.0731957
-0.0561044
-0.0380141
-0.0189868
0.000616652
0.0202749
0.039288
0.0568097
0.072572
0.0925663
0.0858254
0.0790838
0.071736
0.0629822
0.0526019
0.0403884
0.0261556
0.0101308
-0.00718024
-0.0252122
-0.0433629
-0.0614226
-0.0792216
-0.0963438
-0.112767
-0.127962
-0.141739
-0.153639
-0.163614
-0.171362
-0.17685
-0.180014
-0.18098
-0.179817
-0.176483
-0.171037
-0.163584
-0.153882
-0.142024
-0.128231
-0.112456
-0.0950197
-0.0759293
-0.0553032
-0.0333628
-0.0103148
0.0133593
0.0367825
0.058952
0.0931873
0.0815594
0.0703292
0.0588629
0.0466105
0.0329804
0.0179801
0.00181901
-0.0155462
-0.0341612
-0.0537854
-0.0740667
-0.0944502
-0.114481
-0.133477
-0.151332
-0.167778
-0.182408
-0.195086
-0.205507
-0.213627
-0.219598
-0.223241
-0.224895
-0.224534
-0.222426
-0.218435
-0.212785
-0.20513
-0.195475
-0.183197
-0.168587
-0.151836
-0.133335
-0.112867
-0.0910003
-0.0677521
-0.0431644
-0.0178089
0.00653396
0.114043
0.10352
0.0911387
0.0766377
0.0597409
0.0403739
0.01859
-0.00483057
-0.0290536
-0.0535301
-0.0777898
-0.101534
-0.124534
-0.146633
-0.16763
-0.186937
-0.204547
-0.219968
-0.233187
-0.243995
-0.252454
-0.25881
-0.263336
-0.266254
-0.267886
-0.268406
-0.267963
-0.266556
-0.263849
-0.25917
-0.251754
-0.241136
-0.226584
-0.208662
-0.187897
-0.165809
-0.143444
-0.122243
-0.101918
-0.0828534
0.074956
0.0521631
0.0295927
0.00667392
-0.0169387
-0.0408662
-0.0652924
-0.0906309
-0.117335
-0.144897
-0.172983
-0.200541
-0.227274
-0.252212
-0.275329
-0.295881
-0.313864
-0.32888
-0.340948
-0.349958
-0.356219
-0.359984
-0.361921
-0.362642
-0.362743
-0.363226
-0.364817
-0.368398
-0.373855
-0.380578
-0.387221
-0.392115
-0.393159
-0.386586
-0.370768
-0.344219
-0.308506
-0.268118
-0.231148
-0.20632
0.143803
0.115577
0.0837903
0.0515823
0.0189659
-0.0147613
-0.0495393
-0.0844625
-0.11862
-0.151572
-0.183169
-0.212922
-0.240556
-0.265588
-0.287891
-0.307076
-0.323058
-0.335425
-0.344133
-0.348987
-0.349978
-0.347359
-0.341406
-0.333362
-0.32441
-0.316747
-0.311898
-0.312674
-0.32014
-0.337864
-0.366569
-0.410262
-0.4655
-0.537356
-0.621427
-0.682243
-0.701865
-0.689131
-0.663377
-0.629949
-0.131004
-0.17106
-0.212921
-0.261251
-0.312211
-0.363805
-0.413987
-0.462944
-0.509149
-0.551165
-0.58769
-0.618888
-0.646673
-0.672346
-0.694834
-0.712645
-0.724303
-0.729401
-0.727667
-0.719357
-0.704807
-0.683836
-0.657382
-0.626228
-0.592419
-0.557408
-0.523268
-0.49158
-0.464548
-0.444605
-0.433867
-0.435648
-0.451885
-0.487566
-0.522358
-0.537397
-0.546659
-0.554873
-0.560498
-0.564555
0.00221382
0.00251239
-0.00359201
-0.00541988
-0.0448844
-0.167818
-0.365799
-0.276932
-0.143198
-0.0745282
-0.0323684
-0.0060227
0.00821267
0.0119978
0.01249
0.0115542
0.0102832
0.00920463
0.00760089
0.00648678
0.00533712
0.00448784
0.00383047
0.0032905
0.00295387
0.00262716
0.00243641
0.00233347
0.00223429
0.00226078
0.00219158
0.00216012
0.00212962
0.00217558
0.00227171
0.00235066
0.00236719
0.00223531
0.00135303
0.00172441
0.00606191
0.00381707
0.00126299
-0.000473716
-0.0373808
-0.163668
-0.360508
-0.265416
-0.143435
-0.0817878
-0.0419891
-0.0165589
0.00278166
0.0101197
0.0116024
0.0111438
0.0102635
0.00909054
0.00781594
0.00640817
0.00532154
0.00436153
0.00367355
0.00311579
0.00274203
0.00243007
0.00225298
0.0021753
0.00209788
0.00214604
0.00204777
0.00206495
0.00200048
0.00207867
0.00212208
0.00225554
0.00230323
0.00223722
0.00188898
0.00227485
0.00945346
0.00685721
0.0082776
0.00293844
-0.0271165
-0.151507
-0.31692
-0.236172
-0.140071
-0.0898969
-0.0552624
-0.0305722
-0.00520104
0.00717244
0.0107079
0.0106264
0.0103263
0.00918071
0.00814461
0.00649068
0.00544862
0.00434363
0.0036354
0.00302869
0.00262204
0.00228494
0.00212109
0.0019825
0.00189769
0.00187881
0.00179283
0.00185143
0.00182061
0.00194413
0.00198611
0.0021826
0.00225843
0.00223957
0.00194815
0.00199758
0.012243
0.0112553
0.0144424
0.00950766
-0.0141019
-0.131351
-0.257555
-0.196033
-0.133502
-0.0969837
-0.0723915
-0.0489651
-0.0167437
0.00228895
0.00970451
0.00993696
0.0104347
0.00944749
0.00847925
0.00674567
0.00573903
0.00453979
0.00384467
0.00322248
0.0027721
0.00237068
0.00218188
0.00197462
0.00186106
0.00178181
0.00171118
0.00177339
0.00180496
0.00194464
0.00201195
0.00222464
0.002291
0.00230695
0.00234882
0.00291369
0.0148227
0.0161937
0.0193752
0.0158881
-0.00171166
-0.10195
-0.194593
-0.155949
-0.124385
-0.103787
-0.0961822
-0.0729265
-0.0319395
-0.00459703
0.00817361
0.00899224
0.0103888
0.00970603
0.00871179
0.00697669
0.00604382
0.0047614
0.00409368
0.00345617
0.00298687
0.00250337
0.00230304
0.0020542
0.00196663
0.00185199
0.00179835
0.00183144
0.0019048
0.00200594
0.00210598
0.0022792
0.00229808
0.00226558
0.0019589
0.00162873
0.0179409
0.0207468
0.023956
0.0234276
0.00890477
-0.0708536
-0.134506
-0.1213
-0.113654
-0.113717
-0.12321
-0.101973
-0.0550019
-0.0139725
0.00556508
0.00802616
0.010121
0.00977904
0.00874789
0.00705506
0.00608772
0.00476799
0.0040324
0.00340502
0.0029558
0.00243649
0.00220326
0.00197495
0.00195439
0.00178834
0.00176162
0.00176934
0.00184469
0.0018808
0.00202575
0.00214523
0.00219181
0.00228329
0.00244846
0.00297089
0.0218772
0.0247573
0.0285656
0.0307201
0.021092
-0.0419455
-0.0839639
-0.0952382
-0.104701
-0.125845
-0.153068
-0.136882
-0.0835082
-0.0259518
0.00159164
0.00744303
0.00979737
0.00982983
0.00881817
0.00711495
0.00594113
0.00468009
0.00373406
0.00320858
0.00269464
0.00210444
0.00186115
0.00171411
0.0017007
0.00150017
0.00153862
0.00152118
0.00157665
0.00158412
0.00178928
0.00187367
0.00200644
0.00207909
0.00190225
0.00160476
0.0256916
0.028294
0.0334454
0.0373614
0.0311748
-0.0168922
-0.0496762
-0.0741514
-0.0983595
-0.137019
-0.186113
-0.182523
-0.11433
-0.043985
-0.00352084
0.00700606
0.00990331
0.0102088
0.0091097
0.0073722
0.00604866
0.00482061
0.00363684
0.00319597
0.00247441
0.00188646
0.00161502
0.00147283
0.00139972
0.00128373
0.00134353
0.00131542
0.00135406
0.00140082
0.00158677
0.00165383
0.00184261
0.00201032
0.00232149
0.00281279
0.0293231
0.0308632
0.0375766
0.0433403
0.0381499
0.00228853
-0.0284244
-0.0570973
-0.0950048
-0.1486
-0.219862
-0.235042
-0.152043
-0.0667826
-0.00977513
0.00622475
0.0104717
0.0109009
0.00956515
0.00789039
0.00659587
0.00518642
0.00393094
0.00343832
0.00257378
0.00198141
0.00164962
0.00146487
0.00135162
0.00129383
0.00132154
0.00132105
0.00136713
0.00143372
0.00155145
0.0016207
0.00180104
0.0018709
0.00186767
0.00182172
0.0327672
0.0330199
0.0398769
0.048116
0.0417596
0.0144766
-0.0160936
-0.0461507
-0.0925567
-0.159724
-0.251164
-0.287758
-0.195752
-0.0837226
-0.0180756
0.00643427
0.0107378
0.0114627
0.0100526
0.00842459
0.00715633
0.00549513
0.00429293
0.00366522
0.0027758
0.00214934
0.0017851
0.00154716
0.00140123
0.00133814
0.00135863
0.0013866
0.00147098
0.00154651
0.00160285
0.001673
0.00178667
0.00185295
0.00211784
0.00248394
0.0350751
0.0361108
0.0412058
0.0505931
0.0427575
0.0193592
-0.00971774
-0.0400675
-0.0902157
-0.16737
-0.273436
-0.329642
-0.233209
-0.0930505
-0.0272648
0.00912317
0.0102643
0.0116758
0.0107621
0.00872083
0.00738766
0.00554807
0.00433292
0.00360362
0.00267281
0.0020571
0.00164045
0.00133538
0.00119912
0.00109708
0.00111681
0.00118189
0.001266
0.00138709
0.00142123
0.00155653
0.0016204
0.00172474
0.00181412
0.00181995
0.0362877
0.0392094
0.0426786
0.0491126
0.0418863
0.0206826
-0.00654046
-0.0376055
-0.0882619
-0.168687
-0.279967
-0.346201
-0.246148
-0.0984528
-0.0308776
0.0120194
0.0109425
0.0123064
0.0118916
0.00910593
0.00739049
0.005486
0.00422365
0.00330521
0.00224759
0.0016553
0.00112658
0.00081351
0.000668091
0.000541748
0.000564833
0.000644156
0.000741793
0.000915657
0.000999467
0.00121197
0.00128263
0.0014965
0.00178488
0.00214442
0.0371012
0.0407601
0.0434001
0.0461559
0.039834
0.0199947
-0.0053687
-0.0363073
-0.0870854
-0.165552
-0.266689
-0.32028
-0.231068
-0.0938593
-0.0247671
0.010693
0.0154496
0.0140684
0.012826
0.0101985
0.00770975
0.00593557
0.00447194
0.00320043
0.00210846
0.00145322
0.000843409
0.000542155
0.000334825
0.000206349
0.000204777
0.000295664
0.000389514
0.00051917
0.00065124
0.000830013
0.00096634
0.0012505
0.00146166
0.00162748
0.0373412
0.0403767
0.042342
0.0433048
0.0385647
0.0189615
-0.00776218
-0.0373007
-0.0842249
-0.155927
-0.230579
-0.265955
-0.205238
-0.0833427
-0.0183183
0.00876428
0.0209176
0.0165558
0.0135256
0.0118296
0.00873628
0.0069463
0.00505246
0.00352148
0.0025382
0.0017377
0.0011627
0.000774545
0.000502262
0.000347548
0.000323859
0.000338621
0.000396915
0.000433781
0.000561966
0.000676331
0.00088242
0.00111718
0.00135827
0.00175132
0.0371137
0.0393672
0.0404315
0.0399083
0.0346403
0.0190753
-0.00672494
-0.0387777
-0.0806709
-0.136478
-0.193825
-0.214291
-0.171779
-0.0727867
-0.0111708
0.0113993
0.0216543
0.0200455
0.0149109
0.0130882
0.00964738
0.00730173
0.00534527
0.00367295
0.00275869
0.00184406
0.00125226
0.000809495
0.000520733
0.00036708
0.000366752
0.000338251
0.000412225
0.000425881
0.000587703
0.000679373
0.00092505
0.00106444
0.0012454
0.00141565
0.0360859
0.0378651
0.0376673
0.0357983
0.0301107
0.0161248
-0.00678097
-0.0364114
-0.0723372
-0.11596
-0.15789
-0.170024
-0.135409
-0.0603901
-0.00514126
0.0162194
0.0212924
0.0232361
0.0169521
0.0134777
0.00997949
0.00675982
0.00496731
0.00324047
0.00222974
0.00128194
0.00061261
0.000180684
-0.000145404
-0.00024117
-0.000232177
-0.000147552
-1.69039e-05
0.000128434
0.00032791
0.000501563
0.000743224
0.00090077
0.00109956
0.00119582
0.0342682
0.0358331
0.0343019
0.0310956
0.0250626
0.0116788
-0.00994992
-0.0379523
-0.0674086
-0.0991178
-0.126621
-0.133186
-0.103898
-0.0481778
0.0006482
0.0204307
0.0244469
0.0247012
0.019882
0.0142953
0.0106999
0.00685255
0.00482038
0.00292687
0.00160266
0.000695321
-4.92962e-05
-0.000536791
-0.000924986
-0.00104263
-0.00108114
-0.000965706
-0.000854049
-0.000607994
-0.000420465
-0.000112414
0.000164673
0.000492111
0.000740891
0.000835227
0.0317506
0.0330797
0.0303516
0.0260778
0.0192449
0.00611841
-0.0151004
-0.0421971
-0.0680928
-0.0925476
-0.109502
-0.107209
-0.0795445
-0.036617
0.00554207
0.0235789
0.029871
0.0251255
0.0228523
0.0166557
0.0125491
0.0085183
0.00572323
0.00345997
0.00172533
0.000687697
-0.00011883
-0.000717863
-0.00115333
-0.00143148
-0.00158035
-0.00161327
-0.00157944
-0.00141788
-0.00123635
-0.000882624
-0.00050966
-7.02377e-05
0.000235063
0.000365368
0.0286628
0.0299327
0.0259249
0.0205741
0.0123782
-0.000752604
-0.0221504
-0.0487582
-0.0733863
-0.0911811
-0.0994152
-0.0880913
-0.0610874
-0.0257917
0.00878313
0.0261099
0.0337054
0.0263459
0.0247339
0.019081
0.0143331
0.0104743
0.00688979
0.00433246
0.00234223
0.000993447
-5.12618e-05
-0.000805647
-0.00118116
-0.00151976
-0.00169764
-0.00185693
-0.00189286
-0.00184182
-0.00166853
-0.00135608
-0.000933541
-0.000508956
-0.00020328
-8.8288e-05
0.0251977
0.0261554
0.0210455
0.0140955
0.0045586
-0.0091566
-0.0310479
-0.0578111
-0.0812621
-0.0940446
-0.0937503
-0.0762185
-0.047117
-0.0155118
0.0109811
0.0280284
0.034606
0.0295541
0.0253174
0.0199628
0.0143382
0.0108183
0.00724033
0.00474021
0.0026084
0.0010043
-0.000237709
-0.00101486
-0.00145831
-0.00176294
-0.00190889
-0.0020515
-0.00203645
-0.00198496
-0.00175628
-0.00145698
-0.00111324
-0.000799157
-0.000536703
-0.000471349
0.0213907
0.0213711
0.015898
0.00677973
-0.00479158
-0.0198588
-0.042877
-0.0707055
-0.0923675
-0.103237
-0.0949595
-0.0708967
-0.0383492
-0.00620597
0.0142592
0.0302245
0.0355881
0.031959
0.0251346
0.019983
0.0136235
0.0102333
0.00683975
0.00428296
0.00206736
0.000362862
-0.000832239
-0.00154687
-0.00206499
-0.00234983
-0.00251475
-0.00257896
-0.00249997
-0.00234195
-0.002068
-0.00179212
-0.00145683
-0.00116501
-0.000968914
-0.000981666
0.0173848
0.015947
0.0101456
-0.00125083
-0.0156159
-0.0329208
-0.058887
-0.0890095
-0.115943
-0.117536
-0.102478
-0.0706679
-0.0338074
-0.00026151
0.0186213
0.0333738
0.0368308
0.0327859
0.0255326
0.0203539
0.0143867
0.0102108
0.006424
0.0033348
0.00119971
-0.000538599
-0.00164842
-0.00240399
-0.00295393
-0.00330003
-0.00344124
-0.00348503
-0.00341154
-0.00322502
-0.0029949
-0.00266192
-0.00226408
-0.0018919
-0.00166192
-0.00168193
0.012991
0.010131
0.00386751
-0.00966028
-0.0277955
-0.0494526
-0.0806059
-0.115833
-0.145871
-0.142515
-0.116076
-0.0754859
-0.0336983
0.00111545
0.0215603
0.0363946
0.036576
0.0324199
0.0267405
0.020912
0.0157761
0.0102959
0.00613045
0.00258844
0.000508464
-0.00137648
-0.00253636
-0.00339968
-0.00396821
-0.00436518
-0.00458111
-0.00467709
-0.00461477
-0.00447825
-0.00419507
-0.00376589
-0.00329118
-0.00286715
-0.00254256
-0.00248261
0.00810134
0.00411766
-0.0036729
-0.0197849
-0.0413343
-0.0712713
-0.10901
-0.155781
-0.18307
-0.176315
-0.136256
-0.0850238
-0.0377421
-0.0016371
0.0221436
0.0362548
0.0348739
0.0313151
0.0269328
0.0207058
0.0155163
0.00982754
0.00608621
0.00273847
0.00025113
-0.0018573
-0.00319925
-0.00430108
-0.00496704
-0.00541731
-0.00567545
-0.00582666
-0.00579894
-0.00562659
-0.00526686
-0.00480669
-0.00430813
-0.00388308
-0.00352546
-0.00347759
0.00228044
-0.00283963
-0.0128376
-0.0319329
-0.0578719
-0.100938
-0.152777
-0.208712
-0.239757
-0.22053
-0.162703
-0.0986201
-0.0463703
-0.0065439
0.0218198
0.0315494
0.0325763
0.029512
0.0249608
0.0188657
0.0135726
0.00963493
0.00582375
0.00266191
-9.40926e-05
-0.00234787
-0.00389947
-0.00519328
-0.00598822
-0.00653029
-0.00687436
-0.00703175
-0.00698833
-0.00683998
-0.00649744
-0.00604528
-0.00555335
-0.00507355
-0.00472514
-0.00474465
-0.00384579
-0.0101793
-0.0233791
-0.0452905
-0.0803401
-0.141179
-0.213796
-0.283133
-0.313728
-0.276754
-0.194786
-0.116113
-0.0583237
-0.0126637
0.0175241
0.024726
0.0279319
0.0252773
0.0208504
0.0155785
0.0113849
0.00775035
0.00353991
0.000890933
-0.00204438
-0.00409149
-0.0056141
-0.0067655
-0.00764279
-0.00830943
-0.00864166
-0.00878935
-0.00877929
-0.00859889
-0.00822339
-0.00778019
-0.00721955
-0.00667075
-0.00624171
-0.00617579
-0.00830795
-0.0166943
-0.0336137
-0.0593435
-0.111449
-0.195459
-0.294251
-0.388128
-0.399784
-0.336249
-0.225123
-0.139745
-0.0718333
-0.0211499
0.0046949
0.0154681
0.0190503
0.0177917
0.0148937
0.0109415
0.00726589
0.00325496
-0.000365522
-0.0029132
-0.00570429
-0.00731941
-0.00898036
-0.0098784
-0.0106439
-0.0110748
-0.0112525
-0.0113427
-0.0112151
-0.0108939
-0.0104373
-0.00987822
-0.00917993
-0.00851475
-0.00802121
-0.00791298
-0.0116049
-0.0222501
-0.0402904
-0.0748184
-0.150265
-0.256422
-0.389761
-0.489967
-0.46894
-0.362425
-0.255614
-0.16241
-0.0866136
-0.039184
-0.0145858
0.000631827
0.00602368
0.00723783
0.00620773
0.00358152
0.000685984
-0.00248646
-0.00519858
-0.00776969
-0.00980612
-0.0115311
-0.0129001
-0.0134581
-0.0141019
-0.0141411
-0.0142654
-0.01413
-0.0138217
-0.0132782
-0.0126054
-0.0118913
-0.0111683
-0.01048
-0.00994441
-0.00983385
-0.0129513
-0.0257446
-0.0425753
-0.0837063
-0.170708
-0.288563
-0.406198
-0.465819
-0.447876
-0.365743
-0.263588
-0.169424
-0.106539
-0.0656081
-0.0392291
-0.0210198
-0.0122601
-0.00789383
-0.00631002
-0.00665525
-0.00770073
-0.00915526
-0.0109112
-0.012784
-0.0140263
-0.0154825
-0.0159437
-0.0165342
-0.016904
-0.0169564
-0.0170976
-0.0167199
-0.0163153
-0.0156629
-0.0151131
-0.0144586
-0.013842
-0.0132052
-0.0126847
-0.012521
-0.00665981
-0.0164475
-0.0281271
-0.0701342
-0.131844
-0.213912
-0.31467
-0.358046
-0.334511
-0.297828
-0.242254
-0.187884
-0.14143
-0.104163
-0.0749954
-0.0519668
-0.0391753
-0.0297942
-0.0242996
-0.0212581
-0.0194388
-0.0185105
-0.0185913
-0.018531
-0.0192023
-0.0198342
-0.0200884
-0.0208357
-0.0209348
-0.0213395
-0.0212129
-0.0209686
-0.0206426
-0.0202335