/*--------------------------------*- C++ -*----------------------------------*\
  =========                 |
  \\      /  F ield         | OpenFOAM: The Open Source CFD Toolbox
   \\    /   O peration     | Website:  https://openfoam.org
    \\  /    A nd           | Version:  11
     \\/     M anipulation  |
\*---------------------------------------------------------------------------*/
FoamFile
{
    format      ascii;
    class       surfaceScalarField;
    location    "8.5";
    object      phi;
}
// * * * * * * * * * * * * * * * * * * * * * * * * * * * * * * * * * * * * * //

dimensions      [0 3 -1 0 0 0 0];

internalField   nonuniform List<scalar> 
18960
(
0.0886676
0.000447246
-0.0891149
0.0882608
0.000406823
0.0878768
0.000384039
0.0875223
0.000354486
0.087196
0.000326244
0.0868979
0.000298087
0.0866631
0.000234844
0.0864707
0.000192348
0.0863161
0.000154687
0.0862207
9.54e-05
0.0861619
5.87871e-05
0.0861608
1.0413e-06
0.0861761
-1.53166e-05
0.0862448
-6.86355e-05
0.0863632
-0.000118434
0.0865288
-0.000165617
0.0867296
-0.000200816
0.0869963
-0.000266655
0.0872736
-0.000277294
0.0874812
-0.00020764
0.0876432
-0.000161964
0.0878965
-0.000253276
0.0881744
-0.000277937
0.088334
-0.000159567
0.0883959
-6.18781e-05
0.0883801
1.57638e-05
0.088238
0.000142051
0.0876557
0.000582339
0.0864921
0.00116356
0.0853215
0.00117064
0.084651
0.000670475
0.0846495
1.5043e-06
0.0851679
-0.0005184
0.0865079
-0.00134002
0.0881472
-0.00163928
0.090218
-0.00207075
0.0921138
-0.00189587
0.09448
-0.00236618
0.096255
-0.00177502
-0.00118322
0.0974383
0.0887725
0.000792799
-0.0891181
0.0884528
0.000726541
0.0881523
0.000684509
0.0878531
0.000653695
0.0875911
0.000588301
0.0873732
0.000515937
0.0871702
0.000437843
0.0870116
0.000350967
0.0869153
0.000250969
0.086841
0.000169693
0.0868157
8.41399e-05
0.0868202
-3.52857e-06
0.0869415
-0.000136573
0.0870949
-0.000222063
0.0872568
-0.000280287
0.0874634
-0.000372243
0.0877024
-0.000439855
0.0879943
-0.000558537
0.0882894
-0.000572367
0.0886108
-0.000529041
0.0889487
-0.000499902
0.0891625
-0.000467026
0.0892776
-0.000393069
0.089436
-0.000317929
0.0896352
-0.000261096
0.0898392
-0.000188198
0.0899593
2.19024e-05
0.090007
0.000534645
0.0901381
0.00103246
0.0902457
0.00106302
0.090137
0.000779148
0.0899631
0.000175431
0.0899291
-0.000484335
0.0901925
-0.00160343
0.0907889
-0.00223567
0.0919671
-0.00324902
0.0933253
-0.00325399
0.0949898
-0.00403071
0.09689
-0.0036752
-0.00300397
0.0987107
0.08879
0.00113819
-0.0891354
0.0884609
0.00105568
0.0881397
0.00100568
0.0878519
0.000941547
0.0875854
0.000854818
0.0873471
0.000754242
0.0871364
0.000648527
0.0869821
0.000505277
0.0869001
0.000332917
0.0868707
0.000199067
0.0868558
9.90624e-05
0.0869232
-7.08757e-05
0.087008
-0.000221403
0.0871784
-0.000392452
0.0873791
-0.000481024
0.0875681
-0.000561209
0.0877706
-0.000642377
0.0880117
-0.000799622
0.0883384
-0.000899062
0.0886994
-0.000890095
0.0889414
-0.000741909
0.0890661
-0.000591676
0.0891688
-0.000495793
0.0893513
-0.000500434
0.0896549
-0.000564626
0.0899951
-0.000528491
0.0902632
-0.000246177
0.0904919
0.000306003
0.090576
0.000948363
0.0904949
0.00114408
0.0902037
0.00107035
0.0898241
0.000555016
0.089614
-0.000274188
0.0897977
-0.00178716
0.0903364
-0.00277439
0.0912866
-0.00419924
0.092686
-0.00465336
0.093806
-0.00515072
0.0957202
-0.00558933
-0.00462175
0.0973379
0.0887139
0.00149903
-0.0890747
0.0884142
0.00135532
0.0881047
0.00131526
0.0878304
0.00121578
0.0875811
0.00110418
0.0873872
0.000948061
0.087226
0.00080977
0.087122
0.000609287
0.0870201
0.000434776
0.0869721
0.000247116
0.0869843
8.68132e-05
0.087037
-0.000123582
0.0871063
-0.000290718
0.0872213
-0.000507371
0.0874191
-0.00067883
0.0876412
-0.00078333
0.0878345
-0.000835663
0.0880265
-0.000991648
0.0883228
-0.0011954
0.0886541
-0.00122136
0.08895
-0.00103783
0.0891596
-0.000801276
0.0893279
-0.000664109
0.0894608
-0.000633283
0.0896128
-0.000716597
0.0898483
-0.00076399
0.0901518
-0.000549736
0.0904072
5.06073e-05
0.0905856
0.000769951
0.0907351
0.000994632
0.090894
0.000911443
0.0909915
0.000457463
0.0909816
-0.000264255
0.0910203
-0.00182586
0.091333
-0.00308707
0.09183
-0.0046963
0.0929868
-0.00581015
0.0939726
-0.0061365
0.0957149
-0.00733162
-0.00632343
0.0974166
0.0887178
0.00183301
-0.0890518
0.0883938
0.00167935
0.0880967
0.00161233
0.0878306
0.00148186
0.0875913
0.00134352
0.0874038
0.00113557
0.0872312
0.000982328
0.0871317
0.000708797
0.0870495
0.000517045
0.0870161
0.000280524
0.0870355
6.73196e-05
0.087065
-0.000153038
0.0871568
-0.000382467
0.0872913
-0.000641905
0.0874544
-0.000841934
0.0876485
-0.000977418
0.0879012
-0.00108834
0.0881642
-0.0012547
0.0883566
-0.0013878
0.0885713
-0.00143606
0.0888121
-0.00127864
0.0891475
-0.00113668
0.0894475
-0.000964137
0.0896279
-0.000813607
0.0896916
-0.000780323
0.089719
-0.000791414
0.0898722
-0.000702866
0.0901997
-0.000276931
0.0906367
0.000332966
0.0910083
0.000622966
0.0913647
0.000555126
0.091529
0.000293138
0.0914685
-0.000203758
0.091125
-0.00148236
0.091063
-0.00302513
0.0911039
-0.00473717
0.0918698
-0.00657608
0.0927712
-0.00703789
0.0940822
-0.00864258
-0.00783032
0.0955891
0.0886847
0.00216207
-0.0890138
0.0883894
0.00197462
0.0881117
0.00189013
0.0878603
0.00173317
0.0876286
0.00157524
0.0874392
0.00132496
0.0872889
0.00113261
0.0871912
0.00080654
0.0871174
0.00059084
0.0870986
0.000299363
0.0871178
4.80865e-05
0.0871809
-0.000216108
0.0872554
-0.000457026
0.087366
-0.000752446
0.0875276
-0.00100356
0.0877532
-0.00120298
0.0879729
-0.00130804
0.0881454
-0.00142719
0.0883386
-0.0015811
0.0886024
-0.0016998
0.0889288
-0.00160502
0.0892055
-0.00141341
0.0894219
-0.00118049
0.0895789
-0.00097067
0.0896817
-0.00088313
0.0898137
-0.000923378
0.0900021
-0.000891227
0.0902777
-0.000552596
0.0905896
2.11057e-05
0.0908827
0.000329852
0.0911302
0.000307667
0.0913577
6.55899e-05
0.0914963
-0.000342321
0.0914172
-0.00140328
0.0914561
-0.00306408
0.091431
-0.00471202
0.0919615
-0.00710659
0.092606
-0.00768235
0.0939228
-0.0099594
-0.00938046
0.0954729
0.0886768
0.00248529
-0.089
0.088384
0.00226742
0.0881175
0.00215659
0.0878824
0.00196827
0.0876576
0.00180006
0.0874763
0.00150622
0.0873438
0.00126513
0.0872444
0.000905896
0.0871748
0.000660459
0.0871599
0.000314315
0.0871856
2.23566e-05
0.0872534
-0.000283875
0.0873087
-0.000512314
0.0873963
-0.000840086
0.0876001
-0.00120741
0.0878208
-0.00142362
0.0880251
-0.00151231
0.0881954
-0.00159749
0.0883817
-0.0017674
0.0886282
-0.00194635
0.0889185
-0.00189536
0.0891944
-0.00168928
0.0894449
-0.00143094
0.0896466
-0.00117244
0.0897848
-0.00102135
0.0898804
-0.00101892
0.0900077
-0.0010185
0.09023
-0.000774915
0.0905145
-0.000263425
0.0908218
2.2521e-05
0.0910815
4.80162e-05
0.0913196
-0.000172544
0.0915271
-0.00054981
0.0914377
-0.00131388
0.0912142
-0.00284054
0.0909529
-0.00445075
0.0910203
-0.00717399
0.09139
-0.00805208
0.092287
-0.0108564
-0.0107593
0.0936658
0.0886389
0.00280316
-0.0889568
0.0883614
0.00254489
0.088116
0.00240207
0.0878822
0.00220206
0.0876757
0.00200656
0.0875197
0.00166225
0.0873976
0.00138722
0.0873008
0.0010027
0.0872505
0.000710667
0.0872188
0.000346096
0.0872544
-1.32892e-05
0.0873063
-0.000335788
0.0874044
-0.000610432
0.0875228
-0.000958466
0.0876596
-0.00134416
0.0878346
-0.00159869
0.0880575
-0.00173519
0.0882732
-0.00181321
0.0884682
-0.00196239
0.0886438
-0.00212193
0.0888869
-0.0021385
0.0891513
-0.00195367
0.0894727
-0.00175232
0.0897494
-0.00144911
0.0899019
-0.00117389
0.0899709
-0.0010879
0.0900741
-0.00112171
0.090274
-0.000974775
0.0905524
-0.000541879
0.0907934
-0.000218464
0.0910071
-0.000165673
0.0911883
-0.000353748
0.091314
-0.000675472
0.0912994
-0.00129935
0.091096
-0.00263707
0.090815
-0.00416978
0.0907859
-0.00714493
0.0909546
-0.00822074
0.091577
-0.0114787
-0.0120702
0.0928879
0.0886512
0.0031157
-0.0889637
0.0883608
0.00283533
0.0881198
0.00264303
0.0879053
0.00241652
0.0877405
0.00217139
0.0875728
0.00182997
0.0874646
0.00149536
0.0874009
0.00106644
0.0873452
0.000766341
0.0873244
0.000366941
0.0873498
-3.86978e-05
0.0874133
-0.000399339
0.0875158
-0.000712919
0.0876102
-0.00105279
0.0877175
-0.00145148
0.0878985
-0.00177969
0.0881378
-0.00197449
0.0883404
-0.00201585
0.0885052
-0.00212715
0.0886883
-0.00230503
0.0889049
-0.00235508
0.0891849
-0.00223372
0.0894863
-0.00205374
0.0897701
-0.00173284
0.0899911
-0.00139489
0.0901251
-0.00122194
0.0901961
-0.00119269
0.0903577
-0.00113644
0.090605
-0.000789109
0.0908284
-0.000441878
0.0909903
-0.000327561
0.0911352
-0.000498701
0.0912808
-0.000821069
0.0912692
-0.00128773
0.0910397
-0.00240758
0.0905463
-0.00367641
0.0900236
-0.00662219
0.0898524
-0.00804952
0.0898683
-0.0114946
-0.0128942
0.0906923
0.0885961
0.0034161
-0.0888965
0.0883469
0.00308461
0.0881162
0.00287374
0.0879148
0.00261784
0.0877401
0.00234612
0.0876054
0.00196463
0.0875134
0.00158744
0.087443
0.00113676
0.0873898
0.00081962
0.0873733
0.000383426
0.0873926
-5.80149e-05
0.0874665
-0.000473251
0.0875636
-0.000810045
0.0876697
-0.00115882
0.0877868
-0.00156861
0.0879415
-0.00193442
0.0881528
-0.00218573
0.0883863
-0.00224942
0.0885877
-0.00232849
0.088761
-0.00247832
0.088965
-0.00255911
0.0891871
-0.00245582
0.0894433
-0.00230994
0.0897644
-0.00205391
0.0900568
-0.00168733
0.0902573
-0.00142243
0.0903595
-0.00129486
0.0904632
-0.00124013
0.0906391
-0.000965001
0.0908288
-0.000631598
0.0909764
-0.000475203
0.0910644
-0.000586644
0.0911574
-0.000914101
0.0911917
-0.00132202
0.0910167
-0.00223254
0.0906219
-0.00328167
0.08986
-0.0058603
0.0894251
-0.00761462
0.089054
-0.0111235
-0.0132927
0.0894524
0.088637
0.00370852
-0.0889295
0.0883669
0.00335479
0.0881479
0.00309275
0.0879758
0.00278987
0.0878134
0.00250859
0.0876934
0.00208461
0.087582
0.00169876
0.0875232
0.00119566
0.0875056
0.000837183
0.0874868
0.000402242
0.0874958
-6.70776e-05
0.0875607
-0.000538075
0.0876645
-0.000913861
0.0877996
-0.00129397
0.087906
-0.00167497
0.0880073
-0.00203569
0.0881864
-0.0023649
0.0884251
-0.00248811
0.0886602
-0.00256363
0.0888498
-0.00266791
0.0890105
-0.00271977
0.0892187
-0.00266405
0.0894621
-0.00255331
0.0897939
-0.00238575
0.0901366
-0.00203003
0.0903779
-0.0016637
0.0905066
-0.00142358
0.0906147
-0.00134816
0.0907812
-0.00113158
0.0909513
-0.000801647
0.0911156
-0.000639543
0.0911417
-0.00061273
0.0912011
-0.000973443
0.0911821
-0.00130304
0.0910492
-0.00209969
0.0907908
-0.00302326
0.0898914
-0.0049609
0.0890661
-0.00678934
0.0880611
-0.0101184
-0.0128983
0.0876667
0.08858
0.00399398
-0.0888655
0.0883584
0.00357646
0.0881397
0.00331145
0.0879702
0.00295929
0.0878222
0.00265665
0.0877158
0.00219102
0.0876222
0.00179233
0.0875717
0.00124621
0.0875417
0.000867143
0.0875538
0.00039015
0.0875328
-4.60988e-05
0.0876009
-0.000606169
0.0877026
-0.00101551
0.0878321
-0.00142349
0.0879572
-0.00180005
0.0880775
-0.00215609
0.0882397
-0.00252709
0.088459
-0.00270733
0.0887103
-0.00281493
0.0888931
-0.00285077
0.0890791
-0.0029057
0.0892729
-0.00285792
0.0894896
-0.00277001
0.0897535
-0.00264959
0.0900889
-0.00236547
0.0904212
-0.00199601
0.0906701
-0.00167247
0.0908027
-0.00148075
0.0909418
-0.00127072
0.0910841
-0.0009439
0.0912143
-0.000769732
0.0912324
-0.000630815
0.091234
-0.000975046
0.0911805
-0.00124952
0.0910077
-0.00192696
0.0908126
-0.00282814
0.0901049
-0.00425318
0.0892864
-0.00597088
0.0879511
-0.00878311
-0.012024
0.0870769
0.0886453
0.00424923
-0.0889006
0.0883999
0.00382188
0.0882029
0.00350844
0.0880449
0.00311733
0.0879093
0.00279222
0.0878073
0.00229304
0.0877104
0.00188919
0.0876567
0.0012999
0.0876272
0.000896672
0.0876541
0.000363256
0.087665
-5.69554e-05
0.0877149
-0.000656114
0.0878133
-0.00111387
0.0879354
-0.00154561
0.088085
-0.00194961
0.0881962
-0.00226735
0.0883302
-0.00266104
0.0885308
-0.00290795
0.0887406
-0.0030247
0.0889638
-0.00307403
0.0891606
-0.00310244
0.0893817
-0.00307908
0.0895933
-0.00298156
0.0898174
-0.00287377
0.0901432
-0.00269125
0.0904773
-0.00233012
0.0908076
-0.00200277
0.0909943
-0.00166744
0.0911772
-0.00145362
0.0913239
-0.00109062
0.0914916
-0.000937416
0.091513
-0.000652225
0.0914496
-0.000911625
0.0913357
-0.00113562
0.0910925
-0.0016837
0.0908408
-0.00257653
0.09031
-0.00372234
0.0895457
-0.00520663
0.0881508
-0.00738813
-0.0106644
0.0867912
0.0885956
0.00449711
-0.0888435
0.088388
0.00402946
0.0882058
0.00369067
0.0880481
0.00327499
0.0879279
0.00291246
0.0878232
0.00239773
0.0877442
0.00196823
0.0877005
0.00134355
0.0876775
0.000919715
0.0876881
0.00035258
0.0877269
-9.56751e-05
0.0877765
-0.000705732
0.0878592
-0.00119661
0.0879792
-0.00166556
0.088131
-0.00210146
0.0882814
-0.00241779
0.0884208
-0.00280043
0.0885694
-0.00305646
0.0887858
-0.00324113
0.0890011
-0.00328935
0.0892346
-0.00333595
0.089417
-0.00326148
0.0896513
-0.00321583
0.0898528
-0.00307526
0.0901552
-0.00299369
0.0904734
-0.0026483
0.0908388
-0.00236813
0.0911112
-0.00193985
0.0913802
-0.00172264
0.0915422
-0.00125262
0.0917656
-0.00116084
0.0918377
-0.000724343
0.0917376
-0.000811462
0.0916286
-0.0010266
0.0913254
-0.00138059
0.0909359
-0.00218698
0.0903607
-0.0031472
0.0897144
-0.00456029
0.0886046
-0.00627828
-0.00934721
0.0872873
0.088669
0.00474517
-0.088917
0.0884616
0.0042368
0.0882868
0.00386546
0.0881543
0.00340754
0.0880238
0.00304293
0.0879372
0.00248436
0.0878358
0.00206959
0.0877805
0.00139892
0.0877836
0.000916577
0.0877951
0.00034112
0.0878527
-0.000153275
0.0878905
-0.000743544
0.0879985
-0.00130463
0.0881087
-0.00177573
0.088249
-0.00224177
0.0884056
-0.00257443
0.0885283
-0.00292313
0.0886676
-0.00319577
0.0888534
-0.00342691
0.0890718
-0.00350772
0.0893067
-0.00357083
0.0895202
-0.00347501
0.0897593
-0.00345497
0.0899616
-0.00327752
0.0902393
-0.00327144
0.0905405
-0.00294945
0.090934
-0.00276164
0.0912338
-0.00223966
0.0915984
-0.00208719
0.0918447
-0.00149891
0.0920814
-0.00139761
0.0922756
-0.000918518
0.0922155
-0.00075132
0.0921211
-0.000932235
0.0918007
-0.00106015
0.0913958
-0.00178213
0.0907234
-0.00247476
0.0899552
-0.00379216
0.0889246
-0.00524769
-0.00805103
0.0876285
0.0886336
0.00495021
-0.0888387
0.0884547
0.00441577
0.0882963
0.00402377
0.0881492
0.00355469
0.0880294
0.0031627
0.087939
0.0025748
0.0878638
0.00214477
0.0878003
0.0014624
0.0878083
0.00090861
0.0878288
0.000320619
0.0878954
-0.000219888
0.0879553
-0.000803467
0.0880442
-0.00139355
0.0881582
-0.00188972
0.0883013
-0.00238486
0.0884451
-0.00271826
0.0885963
-0.00307426
0.0887401
-0.00333957
0.0889306
-0.00361743
0.0890885
-0.00366564
0.089327
-0.00380927
0.0895302
-0.00367825
0.0898152
-0.00373997
0.0900346
-0.00349696
0.0903102
-0.00354698
0.0905791
-0.00321832
0.0909637
-0.00314628
0.0913331
-0.00260908
0.0917034
-0.00245747
0.0920602
-0.00185575
0.0922952
-0.00163258
0.0926148
-0.00123815
0.092688
-0.000824498
0.0926744
-0.000918656
0.0924295
-0.000815268
0.0920223
-0.00137487
0.0913373
-0.00178981
0.0904557
-0.00291054
0.0892812
-0.00407316
-0.00676496
0.0879951
0.0887351
0.00517143
-0.0889564
0.0885519
0.00459897
0.088388
0.00418771
0.0882572
0.00368553
0.0881488
0.00327103
0.0880486
0.00267507
0.0880223
0.00217104
0.0879517
0.00153303
0.0879599
0.000900374
0.0879537
0.000326832
0.0880236
-0.000289798
0.0880948
-0.000874666
0.0882015
-0.00150027
0.0882998
-0.00198805
0.088422
-0.00250704
0.0885643
-0.00286053
0.0887539
-0.00326382
0.0888923
-0.00347799
0.0890687
-0.00379386
0.0892129
-0.0038098
0.0894093
-0.00400569
0.0896014
-0.00387041
0.0898933
-0.00403183
0.0901375
-0.00374116
0.0904329
-0.00384238
0.0907112
-0.00349664
0.0910643
-0.00349937
0.0914686
-0.00301334
0.0918785
-0.00286743
0.0923393
-0.00231655
0.0926447
-0.00193796
0.0930217
-0.00161513
0.0932364
-0.00103919
0.0933032
-0.000985471
0.0931928
-0.000704927
0.0928826
-0.00106464
0.0922813
-0.00118854
0.0914929
-0.00212211
0.0902272
-0.00280749
-0.00534773
0.08881
0.0886729
0.00535206
-0.0888536
0.0885079
0.00476403
0.0883639
0.00433173
0.0882353
0.00381411
0.0881434
0.00336292
0.0880443
0.00277419
0.0880188
0.00219654
0.0879631
0.0015887
0.0879699
0.000893547
0.0879904
0.000306397
0.0880497
-0.000349152
0.0881244
-0.000949365
0.0882302
-0.00160609
0.0883456
-0.00210339
0.0884865
-0.00264799
0.0886073
-0.00298129
0.088794
-0.00345054
0.0889401
-0.00362412
0.0891365
-0.00399021
0.0892768
-0.00395009
0.0894939
-0.00422279
0.0896641
-0.00404062
0.0898981
-0.0042658
0.0901517
-0.00399479
0.0904607
-0.00415139
0.0907827
-0.00381867
0.0911256
-0.00384222
0.0915764
-0.00346418
0.0919708
-0.0032618
0.092525
-0.00287076
0.0928945
-0.00230741
0.0933118
-0.00203241
0.0936707
-0.00139815
0.0938781
-0.0011929
0.0939057
-0.00073247
0.0937673
-0.000926267
0.0933145
-0.000735784
0.0926785
-0.00148606
0.0915278
-0.00165677
-0.00387226
0.0900523
0.0888323
0.00554099
-0.0890212
0.08866
0.00493627
0.0885214
0.0044704
0.0883952
0.00394028
0.0883064
0.00345176
0.0882036
0.00287699
0.0881754
0.00222472
0.0881415
0.00162256
0.0881584
0.000876715
0.0881899
0.000274879
0.0882524
-0.000411629
0.0883056
-0.00100264
0.0884161
-0.00171652
0.088512
-0.00219931
0.088662
-0.00279798
0.0887792
-0.00309849
0.0889475
-0.00361889
0.089073
-0.00374961
0.089249
-0.00416626
0.0894191
-0.00412013
0.0896265
-0.00443018
0.0898222
-0.00423636
0.0900364
-0.00447993
0.0902766
-0.00423499
0.0905285
-0.00440331
0.0908937
-0.00418385
0.0912385
-0.00418708
0.0917324
-0.00395805
0.0921395
-0.00366896
0.0927195
-0.00345068
0.0932382
-0.0028261
0.0937254
-0.00251962
0.0941815
-0.0018543
0.0945637
-0.00157511
0.0947433
-0.000912064
0.0947944
-0.000977354
0.0945111
-0.000452506
0.0940557
-0.00103067
0.0931412
-0.000742247
-0.00255315
0.0918221
0.0887241
0.00571763
-0.0889008
0.0885783
0.00508211
0.0884511
0.00459759
0.0883337
0.00405769
0.0882805
0.00350493
0.0882
0.00295755
0.0881869
0.00223777
0.0881768
0.00163266
0.088186
0.000867521
0.0882157
0.000245177
0.0882924
-0.000488319
0.0883665
-0.0010767
0.088467
-0.00181707
0.0885559
-0.00228822
0.0887172
-0.00295924
0.0888314
-0.00321272
0.0890085
-0.00379601
0.0891321
-0.00387318
0.0893105
-0.0043446
0.0894519
-0.00426159
0.0896451
-0.00462338
0.089843
-0.00443423
0.0900652
-0.00470217
0.0903478
-0.00451753
0.0905809
-0.00463644
0.0909542
-0.00455713
0.0912457
-0.00447866
0.0917646
-0.00447691
0.0922438
-0.00414819
0.0928139
-0.0040207
0.093455
-0.00346725
0.0940795
-0.00314412
0.0946271
-0.00240186
0.0951371
-0.00208515
0.0955073
-0.00128228
0.095747
-0.00121705
0.0957107
-0.000416212
0.0955298
-0.000849724
0.0948885
-0.000100947
-0.00146799
0.0938033
0.0889366
0.0058718
-0.0890908
0.0887649
0.00525383
0.0886602
0.00470221
0.0885432
0.00417476
0.088478
0.00357008
0.0884406
0.00299495
0.0884088
0.00226959
0.0884171
0.00162435
0.0884284
0.000856259
0.0884679
0.000205691
0.0885408
-0.000561204
0.0886152
-0.0011512
0.0887209
-0.00192277
0.0888025
-0.00236977
0.0889395
-0.0030963
0.0890609
-0.00333405
0.0891995
-0.00393458
0.0893447
-0.00401844
0.0894848
-0.00448468
0.0896536
-0.00443038
0.0897824
-0.00475215
0.0900046
-0.00465644
0.090136
-0.00483358
0.0904484
-0.00482998
0.0906468
-0.00483483
0.0910585
-0.0049688
0.0913921
-0.0048123
0.0918613
-0.00494609
0.0923608
-0.00464766
0.0929726
-0.00463249
0.0936318
-0.00412645
0.0943878
-0.00390014
0.0950952
-0.00310933
0.0958
-0.00278986
0.0963365
-0.00181883
0.0967855
-0.00166605
0.0969968
-0.000627527
0.097048
-0.000900944
0.096787
0.000160135
-0.000802461
0.0961214
0.0888198
0.00600991
-0.0889579
0.0886792
0.00539443
0.088582
0.00479947
0.0884912
0.00426556
0.088438
0.00362324
0.0884218
0.00301119
0.0884029
0.00228846
0.0884184
0.00160883
0.0884641
0.000810605
0.0885123
0.000157408
0.0886243
-0.000673182
0.0886852
-0.00121206
0.0888211
-0.00205865
0.0889078
-0.0024565
0.0890387
-0.00322721
0.0891586
-0.00345397
0.0892852
-0.0040612
0.0894201
-0.00415327
0.0895336
-0.00459816
0.0897139
-0.00461073
0.089821
-0.00485924
0.0900518
-0.00488727
0.0901546
-0.00493641
0.0904531
-0.00512845
0.0906551
-0.00503675
0.090985
-0.00529879
0.0913644
-0.00519165
0.0918342
-0.00541592
0.0923866
-0.00520003
0.0930401
-0.00528596
0.0937444
-0.00483075
0.0945677
-0.00472351
0.0954071
-0.00394872
0.0962758
-0.00365848
0.0970603
-0.00260336
0.0977463
-0.0023521
0.098241
-0.00112223
0.098537
-0.00119694
0.0986451
5.20652e-05
-0.000420341
0.098263
0.0890667
0.00616428
-0.089221
0.088934
0.00552709
0.088841
0.00489243
0.0887855
0.00432112
0.088722
0.00368672
0.088705
0.00302817
0.0887115
0.00228199
0.0887217
0.00159862
0.0887979
0.00073443
0.0888229
0.000132364
0.0889454
-0.000795669
0.0890232
-0.00128987
0.0891263
-0.0021618
0.0892391
-0.00256928
0.0893454
-0.0033335
0.089492
-0.00360061
0.0895658
-0.0041349
0.0897536
-0.00434113
0.0897857
-0.00463019
0.0899929
-0.00481796
0.090017
-0.00488338
0.0902526
-0.00512289
0.0903464
-0.00503021
0.0905553
-0.00533735
0.0907667
-0.00524811
0.0910544
-0.00558652
0.091393
-0.00553022
0.0918301
-0.00585309
0.0923645
-0.00573438
0.0930257
-0.00594714
0.0938171
-0.00562216
0.0946927
-0.00559914
0.0956708
-0.00492683
0.0966832
-0.00467085
0.0977069
-0.0036271
0.0986556
-0.00330078
0.099503
-0.00196962
0.100094
-0.00178761
0.100556
-0.000410455
-0.00032428
0.10046
0.0889371
0.00627673
-0.0890496
0.0888338
0.0056304
0.0887536
0.00497266
0.0887032
0.00437151
0.0886808
0.00370913
0.0886587
0.00305028
0.0887213
0.00221938
0.0887241
0.00159578
0.08882
0.00063855
0.0888765
7.58679e-05
0.0889862
-0.000905334
0.0890928
-0.00139648
0.0892029
-0.00227191
0.089357
-0.00272339
0.0894226
-0.00339912
0.0896225
-0.00380043
0.0896625
-0.00417491
0.0898743
-0.00455297
0.0899019
-0.00465775
0.090092
-0.00500805
0.0901564
-0.00494777
0.0902936
-0.00526016
0.0904219
-0.0051585
0.0905839
-0.0054993
0.0907829
-0.00544718
0.0910004
-0.005804
0.0913131
-0.00584288
0.0917194
-0.00625941
0.0922517
-0.00626665
0.0928846
-0.00658004
0.0936867
-0.00642426
0.0945977
-0.00651023
0.0957082
-0.00603726
0.0968437
-0.00580641
0.0981189
-0.00490232
0.0992971
-0.00447889
0.100509
-0.00318198
0.101466
-0.00274404
0.1024
-0.00134469
-0.000681831
0.102758
0.0892742
0.00641638
-0.0894139
0.0891732
0.00573144
0.0891169
0.00502892
0.08906
0.00442839
0.0890796
0.00368963
0.0890591
0.00307077
0.0891189
0.0021595
0.0891606
0.00155418
0.08925
0.000549092
0.0893316
-5.73456e-06
0.089394
-0.000967708
0.0895507
-0.00155321
0.0895772
-0.00229842
0.0897863
-0.00293251
0.0897965
-0.00340929
0.0900192
-0.0040231
0.0900348
-0.00419048
0.0902123
-0.00473053
0.0902518
-0.0046972
0.090384
-0.00514033
0.0904557
-0.00501941
0.0905622
-0.00536667
0.0906869
-0.00528322
0.0907888
-0.00560123
0.0909312
-0.00558958
0.0911182
-0.00599093
0.0913808
-0.00610547
0.0916814
-0.00656005
0.092175
-0.00676029
0.0927402
-0.00714524
0.0935511
-0.00723514
0.0944357
-0.00739481
0.0955852
-0.00718675
0.0968143
-0.00703552
0.0982862
-0.0063742
0.0996969
-0.00588959
0.101279
-0.00476431
0.102646
-0.00411098
0.104007
-0.00270544
-0.001617
0.104942
0.0891227
0.00648935
-0.0891957
0.08904
0.00581415
0.0890098
0.00505911
0.088964
0.00447427
0.0890167
0.00363689
0.0890522
0.00303526
0.0890983
0.00211342
0.0892101
0.00144234
0.0892278
0.000531438
0.0894267
-0.000204655
0.0894308
-0.000971796
0.0896772
-0.00179958
0.0896976
-0.00231886
0.089911
-0.00314592
0.0899428
-0.00344114
0.0901167
-0.00419696
0.0901789
-0.0042527
0.0902992
-0.0048508
0.0903789
-0.00477695
0.090465
-0.00522641
0.0905523
-0.00510674
0.0906291
-0.00544341
0.0907088
-0.00536297
0.0907958
-0.00568823
0.0909354
-0.00572918
0.0910479
-0.0061034
0.0912867
-0.00634428
0.0915175
-0.00679081
0.0919391
-0.0071819
0.0924227
-0.00762886
0.0931763
-0.00798875
0.0940354
-0.00825389
0.0952109
-0.00836226
0.0964869
-0.00831147
0.0980931
-0.0079804
0.0997002
-0.00749676
0.101581
-0.0066447
0.103331
-0.00586089
0.105239
-0.0046137
-0.00309821
0.10672
0.0896004
0.00654287
-0.089654
0.0895207
0.00589392
0.0895143
0.00506546
0.0895444
0.0044442
0.0895434
0.00363787
0.0896331
0.00294552
0.0896322
0.00211437
0.0898062
0.00126838
0.0897836
0.000554045
0.0900164
-0.000437546
0.0900375
-0.000992881
0.0902215
-0.00198355
0.0902787
-0.0023761
0.0904396
-0.00330682
0.0905169
-0.00351844
0.0906178
-0.00429784
0.0907052
-0.00434004
0.0907736
-0.00491922
0.0908545
-0.00485788
0.0908923
-0.00526421
0.090963
-0.0051774
0.0909772
-0.00545765
0.0910449
-0.00543063
0.091044
-0.00568737
0.0911456
-0.00583075
0.0911644
-0.0061222
0.0912977
-0.0064776
0.091432
-0.00692513
0.0917297
-0.00747958
0.0921117
-0.00801094
0.0927233
-0.0086003
0.0934772
-0.00900779
0.0945718
-0.00945683
0.0958142
-0.00955388
0.0974832
-0.00964946
0.0992601
-0.00927362
0.101389
-0.00877329
0.103493
-0.00796531
0.105868
-0.00698839
-0.00516264
0.107932
0.0893245
0.00657705
-0.0893587
0.0893746
0.0058438
0.0893461
0.00509399
0.0894365
0.00435376
0.0894436
0.00363082
0.0896127
0.00277641
0.0896294
0.00209763
0.0898123
0.00108557
0.0899055
0.000460781
0.0900655
-0.000597484
0.090176
-0.00110346
0.0903288
-0.00213631
0.0904456
-0.00249293
0.0905533
-0.00341453
0.0906751
-0.00364015
0.090751
-0.00437382
0.0908778
-0.00446685
0.0909103
-0.00495164
0.0910395
-0.00498711
0.0910334
-0.00525811
0.0911157
-0.00525974
0.0910694
-0.00541126
0.0911457
-0.00550694
0.0910872
-0.0056289
0.0911438
-0.0058874
0.0911124
-0.00609077
0.0911745
-0.00653967
0.0912267
-0.00697737
0.0913321
-0.00758491
0.0915517
-0.00823053
0.0919656
-0.00901419
0.092513
-0.00955521
0.0934338
-0.0103777
0.0945685
-0.0106885
0.0961646
-0.0112456
0.0979849
-0.0110939
0.100321
-0.0111096
0.102733
-0.0103772
0.105565
-0.00982056
-0.0078565
0.108259
0.0900329
0.0066336
-0.0900894
0.0900751
0.00580154
0.090065
0.00510409
0.0901789
0.00423986
0.0902167
0.00359299
0.0903554
0.00263772
0.0904494
0.00200368
0.0905915
0.000943471
0.0907023
0.0003499
0.0908502
-0.000745329
0.0909904
-0.0012437
0.0911027
-0.00224853
0.0912525
-0.0026428
0.0913433
-0.00350534
0.0915004
-0.00379717
0.0914984
-0.0043719
0.0916367
-0.00460508
0.0916199
-0.00493492
0.0917167
-0.00508382
0.0916341
-0.00517558
0.0917072
-0.00533286
0.0916209
-0.0053249
0.0916309
-0.00551691
0.0915349
-0.00553296
0.0914869
-0.00583942
0.0914057
-0.00600949
0.0913035
-0.00643753
0.0912415
-0.00691533
0.0911979
-0.00754133
0.0911831
-0.00821575
0.0913001
-0.00913117
0.0916028
-0.0098579
0.0921554
-0.0109303
0.0929908
-0.011524
0.0942545
-0.0125093
0.0958757
-0.0127151
0.0981168
-0.0133507
0.100669
-0.0129293
0.103895
-0.0130469
-0.0112274
0.107266
0.0898294
0.00664617
-0.089842
0.0899194
0.00571157
0.0899669
0.00505664
0.0900687
0.00413805
0.0901878
0.00347389
0.0903687
0.00245674
0.0905299
0.00184258
0.0907094
0.000763891
0.0908726
0.000186741
0.091014
-0.000886733
0.0912158
-0.00144554
0.0913236
-0.00235631
0.0915695
-0.00288868
0.0915949
-0.00353074
0.0917907
-0.00399293
0.0917999
-0.00438116
0.0919732
-0.00477836
0.0919262
-0.00488789
0.0920247
-0.00518239
0.0919877
-0.0051385
0.0920041
-0.00534931
0.0919407
-0.00526151
0.0919016
-0.00547778
0.0918043
-0.00543567
0.0916643
-0.00569946
0.091551
-0.00589616
0.0913805
-0.00626701
0.0911817
-0.0067166
0.0909687
-0.00732833
0.0907715
-0.00801852
0.0905748
-0.00893445
0.0905095
-0.0097926
0.0905772
-0.010998
0.0909471
-0.0118938
0.0916725
-0.0132347
0.0928552
-0.0138978
0.0946786
-0.0151741
0.0969949
-0.0152456
0.100193
-0.0162454
-0.0150897
0.104056
0.0909509
0.00658578
-0.0908905
0.0910966
0.00556586
0.0912216
0.00493168
0.0913553
0.00400434
0.091472
0.00335711
0.091539
0.00238976
0.0917555
0.00162607
0.0918416
0.000677843
0.0921757
-0.000147339
0.0921896
-0.000900617
0.0924817
-0.00173766
0.0925095
-0.00238419
0.0927582
-0.00313729
0.0927648
-0.00353738
0.0929487
-0.00417682
0.0929371
-0.00436961
0.0930268
-0.00486799
0.0930202
-0.00488134
0.0930282
-0.00519037
0.0929939
-0.00510422
0.0929442
-0.00529959
0.0929008
-0.0052181
0.0927684
-0.00534535
0.0926629
-0.00533017
0.0924801
-0.00551666
0.0922777
-0.00569381
0.0920063
-0.00599562
0.0916791
-0.0063894
0.0912882
-0.00693738
0.0908418
-0.00757211
0.0903659
-0.00845855
0.0899003
-0.00932703
0.0894724
-0.0105701
0.0891971
-0.0116185
0.0891622
-0.0131998
0.0894747
-0.0142102
0.0903223
-0.0160217
0.0917803
-0.0167036
0.0941104
-0.0185755
-0.0186355
0.0976562
0.0907298
0.00641307
-0.090557
0.0908739
0.0054217
0.0911619
0.00464365
0.0913557
0.0038106
0.0917032
0.00300961
0.091882
0.00221098
0.0922532
0.00125479
0.0923325
0.000598613
0.092611
-0.000425903
0.0927449
-0.00103452
0.0930203
-0.00201303
0.0931158
-0.00247973
0.0932879
-0.00330937
0.0933725
-0.00362193
0.0934693
-0.00427363
0.0935264
-0.00442674
0.0935412
-0.00488281
0.0935624
-0.00490253
0.093513
-0.00514099
0.0935139
-0.0051051
0.0934085
-0.00519423
0.093353
-0.00516257
0.0932116
-0.00520393
0.0931015
-0.00522011
0.0928978
-0.00531291
0.092667
-0.00546306
0.0923593
-0.00568787
0.0919728
-0.00600293
0.0915049
-0.0064695
0.090913
-0.0069802
0.0902236
-0.00776911
0.0894373
-0.00854079
0.0885538
-0.00968651
0.0876684
-0.0107331
0.0867364
-0.0122679
0.0860555
-0.0135293
0.0854964
-0.0154627
0.0856696
-0.0168768
0.0860416
-0.0189475
-0.0207761
0.0881821
0.0924089
0.00617753
-0.0921733
0.092505
0.00532558
0.0927445
0.00440412
0.0928405
0.00371459
0.0931159
0.00273427
0.0933026
0.00202425
0.0935924
0.000964954
0.0939169
0.000274135
0.0941976
-0.000706602
0.0944504
-0.00128731
0.0946318
-0.00219438
0.0948354
-0.00268336
0.0949752
-0.00344918
0.0951164
-0.00376315
0.0951642
-0.00432144
0.0952422
-0.00450474
0.0952148
-0.00485533
0.09523
-0.00491776
0.0951798
-0.00509077
0.0951513
-0.00507661
0.0950636
-0.0051065
0.0949886
-0.00508762
0.0948674
-0.00508272
0.0947415
-0.00509418
0.0945737
-0.00514515
0.0943453
-0.00523467
0.0940494
-0.00539191
0.0936711
-0.0056247
0.0931218
-0.00592015
0.0924722
-0.00633059
0.0915738
-0.00687075
0.0905722
-0.00753922
0.0892415
-0.00835574
0.0878706
-0.00936221
0.0861193
-0.0105166
0.0845422
-0.0119521
0.0825538
-0.0134743
0.0810534
-0.0153764
0.0791587
-0.0170529
-0.0199333
0.078316
0.0927748
0.00568594
-0.0922832
0.0932168
0.00488352
0.093706
0.003915
0.0942028
0.00321772
0.0946373
0.00229983
0.0950619
0.00159962
0.0953008
0.000726089
0.0954686
0.000106313
0.0956429
-0.000880901
0.0958679
-0.00151234
0.0960162
-0.00234263
0.0961515
-0.00281871
0.0961734
-0.00347105
0.0962499
-0.00383961
0.0962196
-0.0042912
0.0962308
-0.00451592