/*--------------------------------*- C++ -*----------------------------------*\
  =========                 |
  \\      /  F ield         | OpenFOAM: The Open Source CFD Toolbox
   \\    /   O peration     | Website:  https://openfoam.org
    \\  /    A nd           | Version:  10
     \\/     M anipulation  |
\*---------------------------------------------------------------------------*/
FoamFile
{
    format      ascii;
    class       volScalarField;
    location    "0.901716";
    object      p;
}
// * * * * * * * * * * * * * * * * * * * * * * * * * * * * * * * * * * * * * //

dimensions      [1 -1 -2 0 0 0 0];

internalField   nonuniform List<scalar> 
16320
(
0.574517
0.562306
0.550909
0.540439
0.531033
0.52279
0.515734
0.509971
0.50534
0.501896
0.499561
0.49827
0.497892
0.498123
0.498992
0.500806
0.503173
0.50598
0.509214
0.512862
0.516934
0.521475
0.52689
0.533023
0.5429
0.555548
0.573217
0.596616
0.625375
0.657007
0.687707
0.714128
0.734558
0.573555
0.561247
0.549837
0.539428
0.530184
0.522169
0.515423
0.509967
0.505789
0.502792
0.500943
0.500122
0.500174
0.500695
0.502214
0.504563
0.507295
0.510408
0.513896
0.517711
0.521863
0.526363
0.531571
0.537276
0.546827
0.558686
0.575564
0.598013
0.625475
0.656008
0.685597
0.711048
0.730575
0.572313
0.559923
0.54846
0.538079
0.529005
0.521236
0.514795
0.509731
0.505998
0.503526
0.502203
0.50189
0.502281
0.503503
0.505769
0.508529
0.511655
0.515165
0.51892
0.522872
0.527124
0.531592
0.536564
0.542038
0.551177
0.562337
0.578434
0.599993
0.626057
0.655293
0.683674
0.708244
0.727261
0.570923
0.558473
0.546936
0.536541
0.527643
0.520055
0.513924
0.509273
0.50603
0.504088
0.503313
0.503476
0.504382
0.506474
0.509336
0.512553
0.516067
0.520116
0.524257
0.527881
0.532433
0.536905
0.541535
0.547057
0.55556
0.566161
0.581497
0.602047
0.626839
0.654642
0.681817
0.705608
0.724322
0.568431
0.555953
0.544418
0.534231
0.525474
0.518212
0.512506
0.508337
0.505664
0.504283
0.504145
0.504749
0.506498
0.509425
0.512783
0.516425
0.520321
0.524653
0.529243
0.532853
0.537461
0.541921
0.546077
0.552113
0.559497
0.569814
0.584451
0.603757
0.627525
0.653761
0.679795
0.70291
0.721423
0.566182
0.553458
0.541871
0.53164
0.522958
0.515926
0.510594
0.506967
0.504846
0.504154
0.504486
0.505837
0.508619
0.512134
0.516011
0.520125
0.524359
0.528876
0.53365
0.537273
0.541852
0.54627
0.550015
0.55627
0.563129
0.573047
0.587001
0.605106
0.627649
0.65256
0.677428
0.699925
0.718289
0.563416
0.550318
0.538492
0.528188
0.519612
0.512882
0.508066
0.505009
0.503569
0.503593
0.504478
0.50685
0.510453
0.51449
0.518835
0.523424
0.528046
0.532829
0.537716
0.54108
0.54547
0.549739
0.553349
0.559453
0.565973
0.575564
0.588787
0.605824
0.627085
0.650725
0.674576
0.696451
0.714618
0.559928
0.546499
0.534462
0.524107
0.51565
0.509259
0.504998
0.50257
0.501903
0.50244
0.504252
0.507676
0.511777
0.516279
0.521095
0.526104
0.531055
0.536038
0.541063
0.544363
0.548568
0.552343
0.556152
0.561534
0.567909
0.577112
0.589644
0.605902
0.625899
0.64824
0.671056
0.692221
0.710269
0.556067
0.542349
0.530019
0.51961
0.511212
0.505189
0.501475
0.499638
0.499694
0.500931
0.503805
0.507907
0.512503
0.517439
0.522658
0.528009
0.533219
0.538345
0.543384
0.546793
0.550912
0.554217
0.558519
0.562951
0.569132
0.577966
0.589731
0.605183
0.623953
0.645011
0.666706
0.687205
0.705092
0.55209
0.537739
0.524901
0.514219
0.506
0.500377
0.497222
0.496107
0.496827
0.499388
0.502956
0.507573
0.51255
0.517891
0.523473
0.529113
0.534528
0.539745
0.544588
0.548391
0.552314
0.555287
0.559697
0.563909
0.569872
0.578267
0.589266
0.603795
0.621314
0.641029
0.661561
0.681341
0.699054
0.547796
0.533022
0.52
0.50904
0.500759
0.495337
0.49263
0.492635
0.493802
0.497047
0.501365
0.506954
0.512051
0.517661
0.523533
0.529426
0.535036
0.540413
0.54484
0.549143
0.552831
0.555767
0.559946
0.564115
0.57001
0.577992
0.588355
0.60187
0.618087
0.636408
0.655734
0.67473
0.692162
0.544203
0.528841
0.515277
0.503805
0.495306
0.490068
0.488025
0.488373
0.490448
0.494577
0.499636
0.505349
0.511001
0.516922
0.523049
0.529118
0.534884
0.54046
0.544667
0.549013
0.552485
0.55596
0.559511
0.563828
0.56961
0.577281
0.587066
0.599577
0.614499
0.631403
0.64944
0.667547
0.684602
0.541267
0.525309
0.510805
0.498772
0.490091
0.485121
0.483636
0.484623
0.487466
0.492235
0.497634
0.503281
0.509771
0.515874
0.52224
0.528414
0.534356
0.539949
0.544173
0.548406
0.551757
0.555474
0.558964
0.563319
0.568975
0.576366
0.585612
0.597166
0.610839
0.626373
0.643072
0.659996
0.676084
0.53936
0.522473
0.507203
0.494976
0.486224
0.481393
0.480282
0.481605
0.48511
0.490247
0.495914
0.501916
0.508382
0.514759
0.521224
0.527516
0.533531
0.538702
0.543457
0.547438
0.550924
0.554545
0.558248
0.562724
0.568332
0.575478
0.584313
0.595057
0.607629
0.621764
0.636946
0.65238
0.667166
0.538623
0.521215
0.505616
0.49312
0.484264
0.479468
0.478539
0.480142
0.483986
0.489118
0.494806
0.500948
0.507296
0.513832
0.520382
0.526733
0.532834
0.537781
0.542453
0.546316
0.550046
0.553649
0.557643
0.562303
0.567979
0.574991
0.583495
0.593571
0.605154
0.617975
0.631568
0.645328
0.658478
0.538478
0.520964
0.505483
0.493145
0.484573
0.480034
0.479207
0.480812
0.484449
0.489222
0.494527
0.500798
0.506996
0.513525
0.519975
0.52621
0.53178
0.537006
0.541527
0.545427
0.5493
0.553133
0.55739
0.562279
0.568106
0.575104
0.583376
0.59292
0.603622
0.6152
0.627207
0.639355
0.651
0.539723
0.522581
0.507634
0.495767
0.48739
0.482981
0.482143
0.483461
0.486535
0.490593
0.495932
0.501471
0.50756
0.513889
0.520155
0.526275
0.531604
0.536481
0.540854
0.544875
0.548849
0.553038
0.557603
0.56275
0.568795
0.575863
0.583984
0.593099
0.603035
0.613505
0.624372
0.634774
0.644652
0.542645
0.526243
0.512201
0.501024
0.493076
0.48875
0.487315
0.48805
0.490609
0.494315
0.498562
0.503579
0.509173
0.514997
0.52091
0.526377
0.531677
0.536345
0.540604
0.544731
0.54898
0.553458
0.558338
0.563817
0.570123
0.577302
0.58532
0.594069
0.603355
0.612925
0.622158
0.631146
0.63974
0.546925
0.532041
0.519047
0.508642
0.501041
0.496553
0.494629
0.49485
0.496344
0.499136
0.50273
0.507105
0.511976
0.517065
0.522116
0.527279
0.532146
0.536663
0.540937
0.545099
0.549494
0.554267
0.5595
0.565385
0.571963
0.579253
0.587161
0.59552
0.604067
0.612481
0.620736
0.628704
0.636218
0.552552
0.539548
0.527862
0.518345
0.511189
0.506428
0.503893
0.50324
0.503832
0.505602
0.508251
0.511659
0.515517
0.519683
0.524203
0.528693
0.533126
0.53743
0.541655
0.546006
0.550631
0.555682
0.561248
0.567396
0.574109
0.581332
0.588976
0.596911
0.604859
0.612651
0.620186
0.627348
0.633976
0.559087
0.548168
0.537979
0.529437
0.522741
0.517905
0.514722
0.513115
0.51267
0.513261
0.514757
0.516963
0.519661
0.523087
0.526729
0.530581
0.53458
0.538697
0.542881
0.547364
0.552188
0.557485
0.563274
0.569529
0.576283
0.583389
0.590772
0.59849
0.606091
0.613446
0.620382
0.62693
0.632884
0.566328
0.557142
0.548663
0.541147
0.534978
0.530146
0.526509
0.523961
0.522343
0.521731
0.521844
0.522696
0.52451
0.526833
0.529631
0.532863
0.536451
0.540288
0.544439
0.549014
0.554001
0.559378
0.565282
0.571623
0.578383
0.585488
0.592819
0.600289
0.60763
0.614824
0.621131
0.626659
0.63187
0.573372
0.566129
0.559162
0.552754
0.547189
0.542467
0.538477
0.535116
0.532207
0.530069
0.529049
0.528915
0.529524
0.530845
0.532852
0.535445
0.538535
0.542137
0.546175
0.550651
0.555663
0.561198
0.567186
0.573628
0.580468
0.587605
0.594853
0.602315
0.609371
0.615657
0.621484
0.626855
0.631792
0.580118
0.57404
0.568467
0.563191
0.558249
0.553734
0.549516
0.545567
0.541947
0.538846
0.536392
0.535055
0.534654
0.535051
0.53627
0.538172
0.540808
0.543957
0.547801
0.552295
0.557333
0.562923
0.569046
0.575656
0.582621
0.589849
0.597214
0.604021
0.610377
0.61655
0.622275
0.627468
0.632319
0.58661
0.581307
0.576534
0.572069
0.567703
0.563428
0.559249
0.55506
0.550914
0.547048
0.543643
0.541114
0.539754
0.539333
0.53974
0.540858
0.542931
0.54587
0.549519
0.553862
0.558929
0.56464
0.57093
0.577689
0.584675
0.591808
0.598481
0.605124
0.611472
0.617604
0.623339
0.628665
0.633434
0.592868
0.588164
0.583861
0.579806
0.575895
0.571895
0.567759
0.563455
0.559031
0.554663
0.550568
0.547087
0.544563
0.543278
0.542976
0.543628
0.545216
0.54772
0.551135
0.555415
0.560512
0.56631
0.572548
0.579251
0.585881
0.592677
0.599397
0.606198
0.612816
0.619134
0.625013
0.630332
0.634958
0.59861
0.594505
0.59059
0.586864
0.583211
0.579408
0.575356
0.571021
0.566426
0.561711
0.557105
0.552917
0.549485
0.547256
0.546343
0.546336
0.547404
0.549574
0.552778
0.556954
0.56191
0.567644
0.573702
0.58011
0.586822
0.593556
0.600528
0.607584
0.61437
0.6207
0.626565
0.632016
0.638078
0.603679
0.600218
0.596746
0.593332
0.589852
0.586208
0.582275
0.577966
0.57328
0.568323
0.563323
0.558561
0.5544
0.551249
0.549589
0.549123
0.549733
0.551514
0.554398
0.558328
0.563031
0.568512
0.574527
0.580956
0.587648
0.594624
0.601874
0.60885
0.615464
0.621712
0.629759
0.635606
0.641009
0.608025
0.605226
0.602192
0.599162
0.595956
0.592498
0.588705
0.58448
0.579782
0.574685
0.56938
0.564166
0.5594
0.555486
0.553055
0.552097
0.552116
0.553428
0.556021
0.559539
0.563961
0.569331
0.575222
0.581638
0.588447
0.595483
0.602608
0.609731
0.616713
0.624717
0.631992
0.63851
0.644848
0.611685
0.609373
0.606862
0.604349
0.601472
0.598312
0.594766
0.590718
0.586113
0.580989
0.575505
0.569959
0.564663
0.560074
0.55672
0.555088
0.554717
0.555527
0.557533
0.560757
0.565013
0.570131
0.575923
0.58231
0.589042
0.595808
0.602623
0.612006
0.618939
0.626696
0.634453
0.641565
0.647886
0.614642
0.612851
0.610901
0.608804
0.606421
0.603676
0.600487
0.596724
0.592315
0.587274
0.58172
0.575881
0.570169
0.565006
0.560852
0.55841
0.557497
0.557733
0.559359
0.562171
0.566063
0.570961
0.576621
0.582875
0.589311
0.595682
0.604957
0.612771
0.620436
0.628722
0.636603
0.643885
0.650571
0.617053
0.615816
0.614417
0.612751
0.610849
0.608601
0.605841
0.602457
0.598359
0.593533
0.588063
0.582125
0.57608
0.570357
0.565425
0.562109
0.560655
0.560376
0.561366
0.563737
0.567293
0.571877
0.577298
0.583297
0.589222
0.597718
0.605708
0.613749
0.621945
0.630321
0.638379
0.645942
0.653244
0.61918
0.618462
0.617605
0.616524
0.615098
0.613306
0.611015
0.608085
0.604405
0.599905
0.594608
0.588665
0.582385
0.576227
0.570732
0.566463
0.564114
0.563392
0.563818
0.56564
0.568735
0.572925
0.578071
0.583889
0.590327
0.59867
0.606745
0.614887
0.623199
0.631715
0.639976
0.647995
0.65573
0.621286
0.621006
0.620693
0.620142
0.619217
0.617936
0.616147
0.613723
0.610535
0.606465
0.601474
0.595665
0.589304
0.582778
0.576611
0.571444
0.568231
0.566915
0.566749
0.567909
0.570421
0.574192
0.578979
0.584595
0.591865
0.599414
0.607465
0.615597
0.623776
0.632882
0.641348
0.649832
0.658184
0.623152
0.623596
0.623633
0.623666
0.623317
0.62256
0.621312
0.619442
0.616828
0.613308
0.608744
0.603145
0.59673
0.58991
0.583183
0.577345
0.572979
0.570752
0.570138
0.570522
0.572381
0.575677
0.580082
0.585637
0.592619
0.600067
0.608024
0.616219
0.624808
0.633835
0.642783
0.651767
0.660697
0.624908
0.625915
0.626738
0.627169
0.627393
0.627205
0.626525
0.625236
0.623235
0.620355
0.616282
0.611013
0.604711
0.59767
0.59053
0.583855
0.578349
0.575167
0.573757
0.573443
0.574577
0.577143
0.580977
0.586513
0.593339
0.600528
0.60855
0.616956
0.626131
0.635095
0.644379
0.653795
0.663346
0.626705
0.628216
0.629752
0.630534
0.631459
0.631861
0.631728
0.631014
0.629778
0.627466
0.62393
0.619091
0.612995
0.605939
0.598427
0.590879
0.584722
0.580091
0.577584
0.576577
0.576707
0.579269
0.582758
0.588182
0.59444
0.602372
0.610388
0.618989
0.628326
0.63749
0.646939
0.656597
0.666324
0.628613
0.630435
0.632553
0.633892
0.635458
0.636465
0.636804
0.63687
0.636092
0.634368
0.631448
0.627083
0.621328
0.614372
0.606514
0.598647
0.591438
0.585733
0.58203
0.58013
0.579664
0.581918
0.584947
0.590774
0.597473
0.60499
0.61317
0.621486
0.630975
0.639831
0.649311
0.658982
0.669167
0.630513
0.632681
0.635117
0.637393
0.639255
0.640834
0.641761
0.642422
0.642099
0.640983
0.638605
0.63478
0.629481
0.622689
0.614863
0.606603
0.59868
0.591702
0.587541
0.583866
0.58376
0.586231
0.589283
0.594215
0.600738
0.608723
0.615772
0.623947
0.632959
0.64216
0.651598
0.660839
0.671602
0.632464
0.635048
0.637848
0.640609
0.642905
0.644964
0.646464
0.647537
0.64773
0.647125
0.645333
0.642064
0.637097
0.630721
0.623067
0.61486
0.606033
0.596955
0.593428
0.589743
0.589338
0.590569
0.593853
0.598897
0.603574
0.611123
0.618465
0.626517
0.635349
0.644532
0.653852
0.6634
0.673357
0.634674
0.637543
0.640664
0.643668
0.646416
0.648875
0.650876
0.652277
0.652852
0.652765
0.651594
0.648486
0.644173
0.638332
0.631267
0.622978
0.612874
0.605418
0.599098
0.59608
0.595133
0.596224
0.599105
0.601641
0.607489
0.614305
0.621084
0.629419
0.637735
0.64681
0.655605
0.66522
0.67501
0.637185
0.640217
0.643613
0.646634
0.649813
0.652577
0.654984
0.656755
0.657688
0.658046
0.656713
0.654423
0.650733
0.645607
0.638946
0.630477
0.620918
0.613021
0.606105
0.602551
0.601606
0.602168
0.60238
0.606112
0.611285
0.617114
0.624175
0.631697
0.639957
0.648798
0.657139
0.666587
0.676215
0.640009
0.643049
0.646602
0.64981
0.653202
0.656192
0.658806
0.660904
0.662173
0.662734
0.661433
0.659737
0.656634
0.652132
0.645622
0.637034
0.629894
0.621128
0.613423
0.609386
0.607916
0.606263
0.607589
0.610607
0.614853
0.620221
0.626749
0.634004
0.641746
0.649871
0.658499
0.667518
0.677179
0.64292
0.646143
0.649725
0.653157
0.656658
0.659746
0.662533
0.664827
0.666226
0.666794
0.665968
0.664617
0.661933
0.657667
0.650846
0.645653
0.637199
0.628391
0.620959
0.616471
0.612627
0.611935
0.612685
0.614704
0.618346
0.623138
0.628997
0.635474
0.64283
0.650659
0.659143
0.668273
0.677705
0.646019
0.649427
0.653063
0.656681
0.660193
0.663364
0.66624
0.668707
0.670208
0.670339
0.670108
0.669018
0.666689
0.662726
0.656259
0.651942
0.643839
0.635227
0.628153
0.622494
0.618843
0.617566
0.617364
0.619034
0.62157
0.625574
0.630509
0.636644
0.643388
0.650961
0.659271
0.668279
0.67789
0.649334
0.652913
0.656647
0.660348
0.663888
0.667078
0.669948
0.672475
0.673842
0.673773
0.673911
0.672892
0.670807
0.667052
0.661628
0.656932
0.649155
0.641653
0.635035
0.628603
0.624654
0.622529
0.62217
0.622497
0.624345
0.627418
0.63177
0.637079
0.643444
0.650738
0.658903
0.667841
0.677521
0.652773
0.656556
0.660379
0.664165
0.667714
0.670898
0.673708
0.676119
0.677387
0.677245
0.677433
0.676365
0.674179
0.669966
0.667098
0.661109
0.653801
0.647532
0.64007
0.634782
0.630313
0.627609
0.62611
0.625855
0.626781
0.628921
0.632313
0.637015
0.642933
0.649923
0.657912
0.666811
0.676567
0.656129
0.660269
0.664188
0.668057
0.671633
0.674768
0.677457
0.679692
0.680822
0.680635
0.680636
0.679491
0.67715
0.672863
0.670626
0.664392
0.65784
0.651828
0.645369
0.64014
0.635617
0.632206
0.629704
0.628714
0.628645
0.629854
0.632471
0.636482
0.641868
0.648474
0.656241
0.665079
0.67492
0.659779
0.663783
0.668016
0.671972
0.675548
0.678645
0.681216
0.683146
0.684128
0.683871
0.683635
0.682344
0.679953
0.675807
0.673164
0.66735
0.661471
0.655358
0.649765
0.644319
0.64005
0.636001
0.632687
0.630632
0.629936
0.630301
0.632126
0.635441
0.64025
0.646401
0.653889
0.6626
0.672481
0.662872
0.667463
0.671809
0.675802
0.679419
0.682438
0.684823
0.686531
0.687286
0.686899
0.686404
0.684875
0.682376
0.678526
0.675104
0.669832
0.664188
0.658535
0.653101
0.647872
0.643238
0.638717
0.634886
0.631825
0.630337
0.630074
0.631173
0.633817
0.638044
0.643716
0.650877
0.659407
0.669258
0.665766
0.670681
0.675316
0.679502
0.683137
0.686092
0.688305
0.689715
0.69032
0.689681
0.688861
0.68706
0.684332
0.68063
0.676766
0.671633
0.666308
0.660879
0.655395
0.650434
0.645225
0.640241
0.635869
0.632219
0.629889
0.62911
0.629496
0.631521
0.635175
0.640378
0.647193
0.655515
0.665277
0.668855
0.673678
0.678575
0.682961
0.686638
0.689534
0.691617
0.692701
0.692981
0.692431
0.691046
0.688956
0.685946
0.682254
0.677944
0.672971
0.667731
0.662377
0.656819
0.651498
0.645866
0.64052
0.635671
0.631585
0.628611
0.627287
0.627152
0.628596
0.631688
0.636453
0.642888
0.650956
0.660543
0.671855
0.676925
0.681622
0.686149
0.689934
0.692799
0.694706
0.695455
0.695507
0.69482
0.69303
0.690584
0.687208
0.683342
0.678812
0.673784
0.668448
0.662725
0.657224
0.651355
0.645353
0.639652
0.634377
0.629898
0.626416
0.624583
0.624117
0.625013
0.627612
0.63194
0.637982
0.645705
0.655105
0.673084
0.680152
0.685034
0.689184
0.693044
0.695941
0.697626
0.698135
0.697888
0.696916
0.694757
0.692003
0.688376
0.684059
0.679334
0.67404
0.66837
0.662523
0.656605
0.650287
0.643929
0.637728
0.631978
0.627163
0.623534
0.621508
0.620884
0.621439
0.623668
0.627609
0.633252
0.640621
0.649667
0.676226
0.681497
0.688621
0.69263
0.696092
0.699013
0.700509
0.700777
0.700255
0.699043
0.696168
0.69313
0.689362
0.684786
0.679627
0.674011
0.667864
0.661796
0.655246
0.648364
0.641514
0.634909
0.629002
0.62425
0.620351
0.61811
0.617241
0.617538
0.619498
0.623123
0.62853
0.635724
0.644581
0.679247
0.68511
0.690221
0.696641
0.699581
0.702306
0.703498
0.70354
0.702641
0.700888
0.698256
0.694624
0.690317
0.685375
0.679691
0.673738
0.667114
0.660481
0.653272
0.645902
0.638631
0.631781
0.625834
0.621063
0.617278
0.61482
0.613745
0.61386
0.615492
0.618793
0.623883
0.630879
0.6397
0.682263
0.688194
0.694382
0.69901
0.702999
0.705805
0.706875
0.706551
0.705299
0.70315
0.70012
0.695981
0.691195
0.685774
0.679858
0.673285
0.6662
0.658889
0.651132
0.643332
0.635755
0.628865
0.623077
0.618277
0.614634
0.61208
0.610872
0.610831
0.612213
0.615213
0.619944
0.626774
0.635367
0.684641
0.692378
0.69732
0.703504
0.707086
0.708958
0.711026
0.71019
0.708633
0.705747
0.702245
0.697772
0.692443
0.686494
0.679987
0.672967
0.665393
0.657475
0.649241
0.641101
0.633412
0.626612
0.62101
0.616374
0.612821
0.610267
0.608981
0.60886
0.610076
0.612752
0.617154
0.623631
0.63168
0.687315
0.695506
0.702658
0.706733
0.711589
0.713606
0.713698
0.713502
0.712362
0.709048
0.705014
0.69989
0.694126
0.687652
0.680589
0.673039
0.664954
0.65657
0.647926
0.639615
0.631955
0.625345
0.619941
0.615526
0.612095
0.609628
0.608314
0.608154
0.609306
0.611646
0.615293
0.622001
0.628935
0.689921
0.698885
0.706227
0.712124
0.715449
0.717967
0.71869
0.717725
0.715162
0.713118
0.708477
0.702825
0.696537
0.689421
0.681722
0.673589
0.665136
0.656441
0.647643
0.639229
0.631713
0.625317
0.620095
0.615866
0.612589
0.610265
0.609001
0.608803
0.609881
0.612135
0.615706
0.621158
0.627352
0.69171
0.702118
0.710265
0.716096
0.720279
0.722261
0.722445
0.72199
0.719773
0.715554
0.711004
0.706448
0.699357
0.691541
0.683504
0.674921
0.666077
0.657126
0.648164
0.639847
0.632589
0.626304
0.62138
0.617447
0.614429
0.612341
0.611235
0.611154
0.612066
0.614173
0.617466
0.622059
0.627439
0.692871
0.704155
0.713841
0.720469
0.72449
0.726705
0.727395
0.72534
0.723899
0.72014
0.71504
0.708214
0.701382
0.69456
0.686552
0.677663
0.668368
0.658588
0.649817
0.641776
0.634848
0.629012
0.62436
0.620731
0.618015
0.616207
0.615333
0.615414
0.616224
0.618604
0.621345
0.624497
0.6291
0.693374
0.705286
0.715692
0.723339
0.728403
0.730672
0.731266
0.730699
0.727616
0.723436
0.718697
0.712431
0.705366
0.696691
0.688104
0.679327
0.670363
0.661627
0.6532
0.645532
0.638938
0.633464
0.629116
0.62582
0.623486
0.622068
0.62153
0.621831
0.623011
0.624842
0.626977
0.629712
0.632727
0.692458
0.704969
0.715906
0.724861
0.730496
0.733486
0.734705
0.734009
0.731535
0.727738
0.721555
0.715881
0.709011
0.700929
0.692402
0.683498
0.674806
0.666224
0.658065
0.650859
0.644693
0.639663
0.635775
0.632979
0.631173
0.630277
0.630172
0.630631
0.632156
0.633428
0.635128
0.637255
0.639579
0.689444
0.702508
0.713947
0.723404
0.730384
0.734502
0.737214
0.737234
0.735054
0.731365
0.726613
0.719062
0.712263
0.704791
0.696827
0.688451
0.680111
0.672029
0.664501
0.657883
0.652324
0.647924
0.644694
0.642582
0.641434
0.641189
0.641586
0.642321
0.644049
0.644648
0.646035
0.647304
0.648412
0.684134
0.697402
0.709389
0.71951
0.727869
0.733822
0.737186
0.738288
0.73758
0.734665
0.730074
0.724671
0.71744
0.70874
0.701222
0.693991
0.68644
0.679173
0.672568
0.666811
0.662129
0.658631
0.656337
0.65512
0.654912
0.655386
0.65637
0.657882
0.658873
0.659451
0.660197
0.66017
0.659716
0.676875
0.689996
0.702273
0.713228
0.722688
0.730124
0.735147
0.737688
0.737914
0.736787
0.733433
0.72837
0.722185
0.715688
0.706966
0.700426
0.693745
0.688048
0.682632
0.678019
0.674559
0.672342
0.671339
0.671375
0.672347
0.67383
0.675476
0.677462
0.677884
0.678162
0.677853
0.676136
0.673517
0.668172
0.680684
0.69286
0.704208
0.714371
0.723058
0.729781
0.734333
0.736601
0.736745
0.735784
0.73272
0.727908
0.7221
0.716714
0.710262
0.70347
0.698545
0.694639
0.691957
0.69027
0.689843
0.690504
0.692371
0.694847
0.697654
0.700048
0.70203
0.701983
0.702053
0.699926
0.695556
0.69008
0.658505
0.66989
0.681399
0.692706
0.703347
0.713021
0.72132
0.727846
0.732553
0.735294
0.736107
0.735839
0.733944
0.730095
0.725551
0.720861
0.717198
0.711994
0.710129
0.709693
0.71019
0.712008
0.71533
0.719413
0.723718
0.727858
0.731078
0.732504
0.731987
0.730787
0.726243
0.718234
0.710039
0.648699
0.658515
0.668933
0.679736
0.690451
0.700824
0.710417
0.718912
0.726007
0.731587
0.73548
0.737734
0.739078
0.738822
0.737414
0.734942
0.732805
0.732482
0.732188
0.732801
0.735859
0.741096
0.747341
0.75395
0.759958
0.764981
0.768378
0.769066
0.767569
0.764435
0.756878
0.744499
0.732313
0.639615
0.647577
0.65658
0.666479
0.676847
0.68743
0.698008
0.708225
0.717691
0.726155
0.73347
0.739371
0.744026
0.748063
0.750834
0.752416
0.753735
0.755748
0.758842
0.764431
0.77135
0.779459
0.788115
0.796143
0.803209
0.808223
0.810833
0.810322
0.807181
0.801027
0.789601
0.773313
0.756863
0.630525
0.636957
0.644681
0.6536
0.663426
0.674075
0.685338
0.696882
0.708433
0.719697
0.730457
0.740484
0.749635
0.757924
0.765864
0.772913
0.779453
0.78625
0.794002
0.80335
0.813909
0.825036
0.835726
0.844769
0.851454
0.8551
0.855588
0.853403
0.847472
0.838997
0.823691
0.803783
0.78355
0.62415
0.628686
0.634803
0.642503
0.651656
0.662045
0.673606
0.686097
0.699313
0.713029
0.727169
0.741377
0.755353
0.768957
0.782264
0.795566
0.808477
0.821674
0.835388
0.849699
0.863811
0.876791
0.887657
0.895577
0.900152
0.901213
0.899154
0.894321
0.884927
0.874348
0.856507
0.834502
0.81145
0.61928
0.621844
0.626533
0.633299
0.641657
0.651693
0.663384
0.676697
0.691333
0.707101
0.724162
0.742335
0.761032
0.779998
0.799148
0.818533
0.838154
0.857679
0.877255
0.895953
0.912851
0.926582
0.936378
0.942084
0.943839
0.942407
0.938004
0.930159
0.918491
0.90574
0.886688
0.863837
0.839711
0.616822
0.618072
0.621672
0.626849
0.634069
0.643571
0.655238
0.669031
0.68483
0.702436
0.722003
0.743443
0.76628
0.789978
0.814249
0.838892
0.863714
0.888372
0.912004
0.933872
0.952013
0.965802
0.974656
0.978784
0.978783
0.976105
0.970008
0.960305
0.947462
0.932944
0.913573
0.890919
0.866859
0.616032
0.617376
0.619442
0.623503
0.629417
0.638195
0.649562
0.663531
0.680217
0.699363
0.720866
0.74477
0.770643
0.79777
0.825683
0.853948
0.881965
0.909226
0.935075
0.958234
0.977561
0.991386
1.00023
1.00438
1.00447
1.00179
0.995597
0.985409
0.972267
0.956938
0.937771
0.915673
0.892151
0.618291
0.617982
0.619329
0.622587
0.627967
0.635856
0.646602
0.660299
0.677372
0.698152
0.720608
0.745984
0.773721
0.80281
0.832631
0.862666
0.892158
0.92043
0.94685
0.970465
0.990259
1.00567
1.01572
1.02135
1.02302
1.02144
1.0165
1.00719
0.994629
0.979139
0.960322
0.938727
0.915792
0.621796
0.621193
0.621947
0.624436
0.628967
0.635885
0.646095
0.659693
0.676483
0.697121
0.720419
0.746466
0.775221
0.805104
0.835565
0.866065
0.895889
0.924345
0.950844
0.974804
0.995611
1.01245
1.02495
1.03304
1.03708
1.03736
1.03448
1.02715
1.01533
1.00021
0.981778
0.96034
0.937257
0.627358
0.626329
0.626915
0.628927
0.632939
0.639537
0.649154
0.661835
0.677977
0.697832
0.72097
0.746975
0.775358
0.80501
0.835364
0.86564
0.895679
0.923873
0.950488
0.974876
0.99661
1.01515
1.03
1.04094
1.0479
1.0508
1.04988
1.04502
1.03482
1.02033
1.00198
0.980633
0.956393
0.634453
0.633507
0.633868
0.635871
0.639649
0.645818
0.654809
0.666666
0.681769
0.700429
0.722544
0.747695
0.775046
0.803918
0.833738
0.86375
0.893227
0.921169
0.948212
0.973014
0.995649
1.01577
1.0328
1.04628
1.05593
1.06152
1.06293
1.06023
1.05229
1.03826
1.0192
0.99833
0.973287
0.641967
0.641982
0.642827
0.644669
0.64853
0.654576
0.662909
0.673847
0.687729
0.704902
0.725484
0.749077
0.774939
0.80249
0.831114
0.860096
0.888839
0.916778
0.943534
0.968467
0.992058
1.01373
1.0323
1.04771
1.0602
1.06838
1.07234
1.07111
1.06503
1.05195
1.03311
1.01054
0.984601
0.649778
0.650577
0.65231
0.655155
0.658997
0.664409
0.672225
0.682534
0.695386
0.711036
0.729694
0.75123
0.775191
0.800976
0.827977
0.855614
0.883333
0.910662
0.937053
0.962263
0.985722
1.00872
1.02853
1.04579
1.06053
1.06961
1.07566
1.07565
1.06935
1.05484
1.03516
1.01201
0.986298
0.657503
0.659089
0.661394
0.664617
0.669007
0.67486
0.682529
0.692102
0.703734
0.717997
0.73482
0.754049
0.775782
0.799372
0.824324
0.850202
0.876595
0.903094
0.929063
0.954119
0.978078
1.00039
1.01875
1.03582
1.05199
1.06442
1.06932
1.06939
1.06485
1.05306
1.03398
1.01017
0.98383
0.664951
0.667478
0.670647
0.674544
0.679316
0.685179
0.692319
0.701044
0.711668
0.724688
0.739851
0.757538
0.777283
0.798726
0.821588
0.845385
0.869745
0.894347
0.918461
0.941189
0.96319
0.984297
1.00419
1.02338
1.03826
1.05058
1.05804
1.06
1.05634
1.04529
1.02575
1.00053
0.973305
0.670631
0.67366
0.677319
0.681685
0.686772
0.692792
0.700039
0.708718
0.719092
0.73106
0.744925
0.75995
0.77739
0.796088
0.816256
0.837414
0.859239
0.881576
0.904226
0.926198
0.948103
0.968981
0.985133
1.00136
1.01705
1.02875
1.03585
1.03761
1.03432
1.02434
1.00619
0.982423
0.956653
0.675165
0.678612
0.68273
0.687622
0.693132
0.699455
0.706753
0.715239
0.725086
0.736357
0.749249
0.763788
0.778853
0.795294
0.8132
0.831969
0.851451
0.871697
0.892902
0.913554
0.9297
0.944373
0.959881
0.974055
0.987463
0.998042
1.00478
1.00706
1.00486
0.996682
0.980796
0.958306
0.936032
0.678692
0.682288
0.68647
0.691931
0.697657
0.704012
0.711268
0.719499
0.728783
0.739184
0.750777
0.763571
0.77789
0.792576
0.808451
0.825031
0.84216
0.85915
0.874451
0.888971
0.904366
0.918328
0.93154
0.943369
0.954116
0.962729
0.968324
0.970573
0.969178
0.962785
0.949682
0.930782
0.911288
0.681465
0.685101
0.689428
0.695342
0.701333
0.707858
0.715112
0.723048
0.731691
0.741074
0.751325
0.762405
0.774069
0.78681
0.800036
0.813643
0.827271
0.840746
0.854355
0.867168
0.879548
0.891113
0.901606
0.910741
0.918394
0.924726
0.929087
0.930937
0.929817
0.924998
0.915566
0.901099
0.886971
0.683373
0.686972
0.691317
0.697357
0.70355
0.71028
0.71762
0.725389
0.733503
0.741992
0.750924
0.760005
0.769928
0.780409
0.791188
0.80217
0.81314
0.824032
0.834734
0.84508
0.854812
0.863622
0.871275
0.877656
0.88244
0.886164
0.888387
0.889286
0.888358
0.885336
0.880095
0.871239
0.863126
0.684287
0.687797
0.692213
0.697655
0.704266
0.711238
0.718618
0.726323
0.734011
0.741779
0.749073
0.756951
0.765185
0.773638
0.782262
0.790957
0.799559
0.808016
0.816178
0.823946
0.831041
0.837135
0.842086
0.845559
0.847754
0.849132
0.849615
0.849632
0.849074
0.848586
0.84723
0.84514
0.840647
0.684196
0.687573
0.692054
0.697362
0.70351
0.710702
0.71817
0.725838
0.733405
0.740611
0.747013
0.753685
0.760402
0.767112
0.773828
0.780496
0.786969
0.793189
0.79905
0.804396
0.809068
0.812682
0.815343
0.816457
0.816556
0.815928
0.814909
0.814445
0.814529
0.815968
0.818625
0.821269
0.822648
0.682988
0.686756
0.690927
0.696101
0.702275
0.709206
0.716758
0.724401
0.731736
0.738653
0.744802
0.750534
0.756046
0.761336
0.766456
0.771385
0.776053
0.780357
0.784259
0.787546
0.790149
0.791816
0.792434
0.792021
0.790695
0.788869
0.787053
0.786348
0.787092
0.790344
0.795404
0.80142
0.809004
0.680629
0.684137
0.688481
0.693898
0.700056
0.706955
0.714576
0.722192
0.729465
0.736106
0.742389
0.747718
0.752419
0.756663
0.760552
0.764128
0.767336
0.770179
0.772561
0.77433
0.7754
0.775715
0.775195
0.773889
0.771991
0.769968
0.768313
0.767943
0.768875
0.772577
0.779375
0.787681
0.798063
0.676516
0.68011
0.684551
0.690032
0.696495
0.703962
0.711695
0.719568
0.72712
0.734157
0.740169
0.745289
0.749562
0.75313
0.756182
0.758824
0.761081
0.76292
0.76426
0.765145
0.765446
0.765237
0.76448
0.763129
0.761615
0.760078
0.759041
0.759179
0.760123
0.763348
0.76854
0.777023
0.788804
0.670574
0.674214
0.678922
0.684626
0.691339
0.698966
0.70717
0.715618
0.723853
0.731355
0.737756
0.743034
0.74725
0.750564
0.753194
0.75529
0.756985
0.758273
0.759175
0.759693
0.759694
0.759291
0.758665
0.758135
0.757386
0.756363
0.755851
0.756239
0.757328
0.760076
0.763018
0.768061
0.779247
0.663578
0.667082
0.671601
0.677374
0.684398
0.692346
0.701019
0.710015
0.718863
0.727084
0.734268
0.740204
0.744874
0.748415
0.751067
0.753049
0.75454
0.755643
0.756452
0.75697
0.757153
0.757034
0.756693
0.75615
0.755599
0.756007
0.755903
0.756512
0.757565
0.76
0.761435
0.763847
0.767915
0.65559
0.659181
0.66352
0.668967
0.675704
0.683787
0.692949
0.702564
0.712244
0.721364
0.729495
0.736357
0.741841
0.74603
0.749135
0.751419
0.753114
0.754388
0.755369
0.756092
0.756584
0.756853
0.75698
0.756974
0.757213
0.757696
0.759058
0.761119
0.76246
0.764967
0.765201
0.765069
0.762509
0.74806
0.756005
0.759508
0.760395
0.759108
0.756282
0.75295
0.747865
0.743939
0.751807
0.755604
0.756777
0.755572
0.753662
0.750335
0.745345
0.740498
0.748494
0.752796
0.75409
0.753614
0.751972
0.748727
0.743643
0.737606
0.74595
0.750573
0.752469
0.75246
0.751018
0.747868
0.742798
0.734875
0.743646
0.748839
0.751316
0.751704
0.750474
0.7474
0.742326
0.731939
0.741263
0.747066
0.75012
0.750974
0.749978
0.747103
0.741941
0.728564
0.738447
0.744913
0.748585
0.749905
0.749116
0.746408
0.741165
0.724508
0.73499
0.742143
0.746411
0.748114
0.747566
0.744807
0.74018
0.719653
0.730717
0.738445
0.743272
0.745423
0.745072
0.743066
0.737817
0.713861
0.725455
0.733849
0.739111
0.741831
0.741724
0.739377
0.734402
0.70717
0.71922
0.728253
0.734013
0.736459
0.736314
0.734335
0.729887
0.699515
0.711756
0.720674
0.726447
0.729207
0.72938
0.727947
0.724352
0.690436
0.702268
0.711131
0.717053
0.720359
0.721083
0.720204
0.717877
0.680493
0.691666
0.700241