/*--------------------------------*- C++ -*----------------------------------*\
  =========                 |
  \\      /  F ield         | OpenFOAM: The Open Source CFD Toolbox
   \\    /   O peration     | Website:  https://openfoam.org
    \\  /    A nd           | Version:  10
     \\/     M anipulation  |
\*---------------------------------------------------------------------------*/
FoamFile
{
    format      ascii;
    class       volScalarField;
    location    "0.901716";
    object      T;
}
// * * * * * * * * * * * * * * * * * * * * * * * * * * * * * * * * * * * * * //

dimensions      [0 0 0 1 0 0 0];

internalField   nonuniform List<scalar> 
16320
(
0.00296498
0.00295676
0.00295367
0.00295394
0.00295435
0.00295645
0.00295783
0.00296218
0.00296993
0.00297586
0.00298767
0.00299582
0.00300921
0.00302194
0.00303588
0.00305851
0.00309436
0.0031439
0.00320327
0.0032671
0.00332494
0.00336641
0.00338641
0.00338649
0.00336277
0.0033372
0.00334279
0.00336819
0.00343201
0.00352525
0.0035918
0.00361833
0.00360569
0.00302517
0.00303092
0.00303513
0.00303612
0.00303805
0.00303902
0.00303889
0.00303846
0.00303638
0.00303405
0.00303304
0.00303364
0.00303678
0.00304389
0.00305383
0.00306844
0.00309186
0.00312943
0.00318357
0.00325028
0.0033138
0.00335693
0.00337296
0.00336757
0.00332576
0.00329364
0.00329893
0.00332839
0.00340958
0.0035127
0.00358975
0.00362681
0.00362991
0.00311487
0.00312581
0.00312885
0.00312836
0.00312694
0.00312107
0.00311148
0.00310024
0.00308966
0.00307677
0.00306957
0.00306555
0.00306533
0.00306609
0.00307097
0.00307946
0.00309088
0.00311496
0.00316151
0.00323117
0.00330048
0.00334492
0.00335686
0.00334389
0.00328471
0.00325336
0.00326008
0.00329855
0.00340053
0.00351052
0.00358794
0.00363235
0.00365098
0.00326007
0.00328183
0.00328281
0.00328133
0.00326997
0.00325149
0.00323315
0.00321103
0.00318751
0.00316513
0.00314588
0.00312609
0.00310747
0.00309576
0.00309182
0.00309145
0.00309561
0.0031017
0.00313346
0.00320095
0.00328302
0.00332993
0.00333807
0.00331557
0.00324358
0.00321759
0.00322721
0.00327953
0.00339927
0.00351025
0.00358986
0.00363861
0.00366184
0.00345749
0.00344639
0.00342121
0.00339225
0.00336045
0.00333334
0.00330019
0.0032727
0.00324929
0.00322372
0.00319877
0.00318006
0.00315803
0.00313395
0.00311317
0.00310386
0.00310192
0.00310592
0.00312352
0.00318751
0.00327631
0.00332027
0.00332182
0.00328469
0.00320614
0.00319226
0.00320725
0.00327568
0.00340398
0.00351124
0.00358652
0.00363532
0.00366562
0.00351787
0.00348561
0.00345032
0.00341396
0.00338037
0.00335327
0.00331933
0.00329028
0.00327045
0.0032467
0.0032208
0.00320328
0.00318757
0.00316414
0.00313707
0.00311728
0.00310995
0.00311132
0.00312565
0.00318823
0.00327728
0.00331048
0.00330262
0.00323733
0.00316835
0.00316465
0.00318852
0.00327801
0.00340275
0.00350303
0.00357782
0.00363464
0.00368577
0.00352254
0.00348892
0.00345641
0.00341982
0.00339027
0.00336321
0.00333188
0.00330452
0.00328438
0.00326281
0.00323622
0.00321841
0.00320594
0.00318451
0.00315374
0.00312699
0.00311448
0.00311485
0.00312908
0.00319729
0.00328012
0.00330055
0.00327875
0.00319058
0.00313989
0.00314288
0.00317914
0.0032786
0.00339012
0.00348784
0.00357544
0.00365887
0.00375864
0.00352195
0.00349357
0.00347091
0.00344598
0.00342485
0.0034045
0.00337789
0.00334885
0.00332509
0.00329765
0.00326397
0.00324042
0.00322561
0.00320214
0.00316619
0.00313316
0.00311671
0.00311658
0.00313439
0.00321335
0.00328479
0.00329168
0.00324877
0.00314756
0.00311541
0.00312396
0.0031732
0.00327646
0.00337981
0.00348786
0.00360553
0.00373835
0.00387543
0.00354797
0.00354425
0.00354958
0.0035543
0.0035522
0.00354186
0.00351963
0.00348127
0.00344387
0.00339438
0.00333476
0.00328964
0.00325975
0.00322323
0.00317569
0.00313413
0.0031151
0.00311563
0.00314134
0.00323288
0.00328591
0.00327987
0.0032052
0.0031108
0.00309437
0.00311017
0.00317512
0.00327392
0.00338543
0.00352035
0.00367199
0.00382214
0.00395365
0.00365564
0.00368514
0.00369668
0.00370275
0.00370423
0.00370686
0.00370407
0.00370171
0.0036642
0.00360166
0.00347817
0.00338056
0.00331303
0.00324907
0.00318138
0.00313066
0.00311001
0.00311226
0.00315193
0.00325162
0.00328388
0.0032618
0.00315439
0.00307756
0.00307291
0.00309811
0.00317566
0.00328273
0.00341505
0.00356493
0.00371402
0.00384764
0.00395714
0.00375348
0.00375074
0.00373952
0.00373431
0.00373593
0.00374501
0.00376636
0.00378392
0.00378599
0.0037723
0.00371201
0.00355644
0.00340994
0.00328826
0.00318458
0.00312249
0.00310236
0.00310928
0.00317191
0.00326656
0.00327912
0.00323156
0.00310022
0.00304413
0.00304682
0.00308495
0.00318189
0.00330226
0.00343556
0.00357339
0.003708
0.00382501
0.00390829
0.00377273
0.00375614
0.00371037
0.00369627
0.00370259
0.00372347
0.00376786
0.00381597
0.00383727
0.00383545
0.00380732
0.00369991
0.00350042
0.00330696
0.0031757
0.00310684
0.00309176
0.00311036
0.00320621
0.00327771
0.00327214
0.00318257
0.00305162
0.00301254
0.00301963
0.00306937
0.00317983
0.00330091
0.00342772
0.00354856
0.00364487
0.0036998
0.0037045
0.00375927
0.00368206
0.00354114
0.00351421
0.00352853
0.00358128
0.00370144
0.00380655
0.0038648
0.00387588
0.0038585
0.00375584
0.00350045
0.00328587
0.00314596
0.00308445
0.00308064
0.00312453
0.00324632
0.00328391
0.00325486
0.0031186
0.00301328
0.00298876
0.00299731
0.00304775
0.00316481
0.00327833
0.00336664
0.00341713
0.0034362
0.00343319
0.0034142
0.00365897
0.00340621
0.00322855
0.00321202
0.00324542
0.00336399
0.00359453
0.00377712
0.00386687
0.00388111
0.00385553
0.00372388
0.00344803
0.0032248
0.00309802
0.00306042
0.00307476
0.00317022
0.00327751
0.00328443
0.0032137
0.0030561
0.00298362
0.00297151
0.00298108
0.0030245
0.00311349
0.00317867
0.00321183
0.00323136
0.00324432
0.00324986
0.00325248
0.00339331
0.00313679
0.00306282
0.00307312
0.00314432
0.00333769
0.00361892
0.00380207
0.00387383
0.00387575
0.00382439
0.00361915
0.00331941
0.00312853
0.00304701
0.00304074
0.00309003
0.00323796
0.00329839
0.00327842
0.00314377
0.00300928
0.00296267
0.00295956
0.00297101
0.00301149
0.00306304
0.00309903
0.00312559
0.00314551
0.00316277
0.0031786
0.00319784
0.00320804
0.00302993
0.00300071
0.00303467
0.00317126
0.00347608
0.00371811
0.00384103
0.00386876
0.00384375
0.00370496
0.00338963
0.00315641
0.00303647
0.00300872
0.00304098
0.00316512
0.00329486
0.00330995
0.0032485
0.00307553
0.00298139
0.00295516
0.00295678
0.00297012
0.00300572
0.00304143
0.00307042
0.00309489
0.00311635
0.00313724
0.00317191
0.0032452
0.00312836
0.00298089
0.00296919
0.00302732
0.00325545
0.0035657
0.00375878
0.00382669
0.00381112
0.00369018
0.00339571
0.00315748
0.00301979
0.00297817
0.00300347
0.00308754
0.00326423
0.00332759
0.00331241
0.0031978
0.0030469
0.00297817
0.00296049
0.00296434
0.00297932
0.00301249
0.0030441
0.00307147
0.0030965
0.00313046
0.00320797
0.00336001
0.00348651
0.00309408
0.0029582
0.00293213
0.00298149
0.00317891
0.00348151
0.00364065
0.00365653
0.00352757
0.00329726
0.00310329
0.00298896
0.00294999
0.00297203
0.0030335
0.00321723
0.00332421
0.00333826
0.00330298
0.00315977
0.00304815
0.00299786
0.00299757
0.00301137
0.00302881
0.00304961
0.00307784
0.00311673
0.0031952
0.00334559
0.00348463
0.00355492
0.00356654
0.00308818
0.0029505
0.00291625
0.00292322
0.00300891
0.00316253
0.00323653
0.00321427
0.00313342
0.00301585
0.00295194
0.00292942
0.00294932
0.00300111
0.00316846
0.00331024
0.00334714
0.00333627
0.00326789
0.00315412
0.00308775
0.00307718
0.00308397
0.00308895
0.00310145
0.00313857
0.00321673
0.00334917
0.00348703
0.00356726
0.00358264
0.00357625
0.00355013
0.00316996
0.00296525
0.00291072
0.00290186
0.00291413
0.00295812
0.00297954
0.00296719
0.00294128
0.00291702
0.00291552
0.0029342
0.00298601
0.00313935
0.0032965
0.00334469
0.00335148
0.00332449
0.00323925
0.00317195
0.00314769
0.00313875
0.00314455
0.00317483
0.00325127
0.00337306
0.00349593
0.00357312
0.00360083
0.00359157
0.00355493
0.00353699
0.00355715
0.00336391
0.00304112
0.00293096
0.00289865
0.00289312
0.00289524
0.00290042
0.00290173
0.00290275
0.00291087
0.00293086
0.00298854
0.00314135
0.00329214
0.00334528
0.00335687
0.00334684
0.00329275
0.00323809
0.00320156
0.00319202
0.00320864
0.00327074
0.00338797
0.00350383
0.00357506
0.00360235
0.00359893
0.00355724
0.00353159
0.00355285
0.00363775
0.00384122
0.00360525
0.00322864
0.00301779
0.00293983
0.00291234
0.00290549
0.00290559
0.00290878
0.00292168
0.00295108
0.00302253
0.00318538
0.00330713
0.00335271
0.00336328
0.00335621
0.00332601
0.003282
0.00325437
0.00325184
0.00329014
0.00339671
0.00350661
0.00357099
0.00359689
0.00359668
0.00356729
0.0035345
0.00354491
0.0036251
0.00384498
0.00421141
0.00441296
0.00373546
0.0035736
0.00324475
0.00307986
0.00301056
0.00298239
0.0029755
0.00299005
0.00305043
0.00314067
0.00326736
0.00333999
0.00336888
0.00337549
0.00337025
0.00335281
0.00332294
0.00330385
0.00331842
0.00340457
0.00350473
0.00356316
0.00358858
0.00359279
0.0035735
0.00355016
0.00354432
0.00359223
0.00381688
0.00421251
0.00439404
0.00445512
0.00446224
0.00378158
0.00374054
0.00361271
0.00340325
0.00327989
0.00322728
0.00320901
0.00322088
0.00330215
0.00333969
0.00338114
0.00339314
0.00339514
0.00339025
0.00337953
0.00336596
0.00336153
0.00341358
0.00350242
0.00355721
0.00357969
0.00358422
0.00357165
0.00356187
0.00355921
0.00360067
0.00377655
0.00416587
0.00437708
0.0044277
0.00439566
0.00426829
0.00409193
0.00378533
0.00378873
0.00375766
0.00367764
0.00356287
0.0034851
0.00344921
0.00343746
0.00343624
0.00343666
0.00343761
0.00343314
0.00342889
0.00342464
0.00342312
0.00344927
0.00350801
0.00355588
0.0035741
0.00357764
0.00357111
0.00356888
0.00356986
0.0036079
0.00374387
0.00408459
0.00431786
0.00436426
0.00432166
0.00414455
0.00393762
0.00373443
0.0036196
0.00373541
0.00378352
0.00379264
0.0037788
0.00372614
0.00367038
0.00363287
0.00359718
0.00357305
0.00355528
0.00353845
0.00352622
0.0035223
0.00352719
0.00354398
0.0035662
0.00357567
0.00357696
0.00357218
0.00357098
0.00357338
0.0036052
0.00370605
0.00397014
0.00416659
0.00422112
0.00421399
0.00407548
0.00382817
0.0036944
0.00360128
0.00350709
0.00339153
0.00368499
0.0037129
0.00375854
0.00377386
0.00377441
0.00374885
0.00371805
0.00369854
0.00367076
0.00365036
0.00363114
0.00361515
0.00360422
0.00359695
0.0035907
0.00358441
0.00357803
0.00357605
0.00357641
0.00359832
0.0036684
0.00385485
0.0040236
0.00408449
0.00409589
0.00401762
0.00379346
0.00368549
0.00362055
0.00352722
0.00337518
0.00315988
0.00296243
0.00368127
0.00368229
0.00369658
0.00372095
0.0037385
0.00374239
0.0037358
0.00371731
0.00369883
0.00367939
0.00365907
0.00363894
0.00362115
0.00360554
0.00359412
0.00358785
0.00358579
0.0035971
0.00364336
0.00376587
0.00390607
0.00396977
0.00399062
0.00397196
0.00382342
0.0037002
0.0036437
0.0035717
0.00342652
0.00316937
0.00291249
0.00281874
0.00280592
0.00372387
0.00369771
0.00368956
0.00368981
0.00369726
0.00370528
0.00370766
0.00370152
0.00369013
0.00367392
0.00365745
0.00364015
0.00362402
0.00361105
0.00360617
0.00361056
0.00363889
0.00371486
0.00381075
0.00387563
0.00390183
0.00390679
0.00383476
0.00372001
0.00366828
0.00360485
0.00350379
0.00327938
0.0029567
0.00280141
0.00277147
0.00277867
0.00283887
0.00374874
0.00375176
0.00374126
0.0037123
0.00370306
0.00370106
0.00370044
0.00369326
0.00368629
0.00367453
0.00366086
0.00364793
0.00364229
0.00364184
0.00366396
0.00370381
0.00375689
0.00380009
0.00382876
0.00383832
0.0038107
0.00372258
0.00368176
0.00362959
0.00356595
0.00341004
0.00312893
0.00285208
0.0027657
0.00275344
0.00277408
0.00286148
0.0030311
0.0037525
0.00376931
0.00377637
0.00377744
0.00376606
0.00373919
0.00372506
0.00371516
0.00370585
0.00369885
0.00369577
0.00369629
0.00370659
0.00372075
0.00373971
0.0037547
0.00377242
0.0037793
0.00377165
0.00371023
0.00368064
0.00364366
0.00361111
0.00352587
0.00336063
0.00307864
0.00284041
0.00276744
0.00275687
0.00277338
0.00283717
0.00295219
0.00310907
0.00372315
0.00375814
0.00378006
0.00379746
0.00380161
0.00380071
0.00379008
0.00377642
0.00376908
0.00376264
0.00375913
0.00375384
0.0037504
0.00374679
0.00374508
0.00374383
0.0037328
0.00369625
0.00367075
0.00364998
0.00363196
0.00359401
0.00351888
0.00337202
0.00314355
0.00291286
0.00282081
0.00280241
0.00280592
0.00283557
0.00289298
0.00297964
0.00311325
0.00364363
0.00373408
0.00376672
0.00379133
0.00381089
0.00381625
0.00381665
0.00380876
0.00379863
0.00379023
0.00377784
0.00376403
0.00375017
0.00373606
0.00371423
0.00368455
0.00366686
0.0036585
0.00365074
0.00363794
0.00361307
0.0035575
0.00345331
0.00328672
0.00308607
0.00297192
0.00294036
0.00293727
0.00294119
0.00294456
0.00295266
0.00298199
0.00305758
0.00351224
0.00367318
0.00374899
0.00377948
0.0038042
0.00381527
0.00381749
0.00381436
0.00379933
0.00378822
0.00377046
0.003748
0.0037182
0.00368832
0.0036725
0.00366586
0.00366252
0.00366007
0.00365519
0.00364223
0.00361098
0.00354274
0.00342089
0.00326861
0.00317786
0.00314794
0.00313458
0.00311303
0.0030657
0.00302508
0.00301562
0.00301852
0.003047
0.00345699
0.00356125
0.00370903
0.0037676
0.00379249
0.0038046
0.00380797
0.003805
0.00378334
0.00376134
0.00372845
0.00369892
0.00368402
0.00367696
0.00367406
0.00367283
0.00367604
0.00368155
0.00368118
0.00366748
0.00361558
0.00351707
0.00338978
0.00325878
0.00317753
0.00314062
0.00311519
0.0030761
0.0030273
0.00300386
0.00299849
0.00300573
0.00303356
0.00343901
0.00348719
0.00364062
0.0037492
0.00377983
0.00378787
0.00378819
0.00377305
0.00373579
0.00370448
0.00369111
0.00368668
0.00368513
0.00368522
0.00369143
0.00370754
0.00373147
0.00373908
0.00373183
0.00367599
0.00358684
0.00345951
0.00330177
0.00314698
0.00300469
0.00286779
0.0027459
0.00268859
0.00267092
0.00267068
0.00271632
0.00282479
0.00293765
0.00343012
0.00344573
0.00356522
0.00371629
0.00376131
0.00376815
0.00376217
0.00372783
0.0036939
0.00368601
0.00368712
0.00369087
0.00369857
0.00371701
0.00375467
0.00379279
0.00379949
0.00378581
0.00372434
0.00362984
0.00347182
0.00323865
0.00292573
0.00269142
0.0025782
0.00251371
0.00248754
0.00248302
0.00249104
0.00251447
0.00254898
0.0025872
0.00263973
0.00340661
0.00340828
0.00349542
0.00366816
0.00374163
0.00375299
0.00374297
0.00370024
0.00368279
0.00368348
0.00369226
0.00370953
0.0037424
0.0038097
0.00384991
0.00385596
0.00383715
0.00376476
0.00365084
0.00343915
0.00307653
0.00273756
0.00263272
0.0025697
0.00255999
0.00255613
0.0025778
0.00261915
0.00263115
0.00262179
0.00257453
0.00255726
0.00255705
0.00338481
0.00338605
0.00345984
0.00362878
0.00372177
0.00373709
0.00372572
0.00368938
0.00368093
0.00368821
0.00371239
0.00375993
0.00385259
0.00390033
0.00390884
0.00388747
0.00380581
0.00366125
0.00338694
0.00294713
0.00273502
0.00263421
0.00262464
0.00262088
0.0026821
0.00282356
0.00291607
0.00293544
0.00293206
0.00289486
0.00282888
0.00272458
0.00262114
0.00337619
0.00338209
0.0034568
0.00361729
0.00370314
0.00371747
0.00370822
0.00368625
0.00368464
0.00370667
0.00376289
0.00387147
0.00393884
0.00395217
0.00393655
0.00385406
0.00369465
0.00337638
0.00292935
0.00273287
0.00267975
0.00266508
0.00269136
0.0028169
0.00299606
0.00305343
0.00306118
0.00304336
0.00300315
0.00296919
0.00295537
0.00293724
0.00287433
0.00337752
0.00338586
0.00346304
0.00361798
0.00369174
0.00370384
0.00369867
0.00368984
0.00369885
0.00375155
0.00385795
0.00395743
0.00398221
0.00397859
0.00390845
0.00374729
0.00342407
0.00296753
0.00277147
0.00271546
0.00270775
0.00274938
0.00291599
0.00308345
0.00312169
0.00312193
0.00307453
0.00302281
0.00301237
0.00301965
0.00303172
0.00303326
0.00302074
0.00339694
0.00340483
0.00348037
0.00362299
0.00368633
0.00369726
0.00369761
0.00369821
0.0037273
0.00381153
0.00394109
0.00399783
0.00400469
0.0039624
0.00381978
0.00351903
0.00305412
0.00282399
0.00275574
0.00274469
0.0027902
0.002963
0.00312988
0.00316316
0.00315706
0.00309239
0.00305088
0.00304864
0.00308342
0.0031687
0.0032278
0.00323901
0.00322901
0.00346721
0.00346713
0.00352003
0.0036342
0.00368545
0.00369782
0.00370215
0.00371667
0.00376542
0.00387777
0.00398732
0.00401312
0.00400018
0.00390085
0.0036385
0.00320472
0.00289861
0.00280281
0.00278322
0.00281365
0.00296974
0.00314828
0.00318812
0.0031818
0.00311568
0.00308462
0.00309091
0.00315497
0.00327354
0.00336885
0.00341676
0.00345939
0.00347635
0.00356256
0.00356083
0.00358844
0.00365686
0.00368877
0.00369968
0.00370744
0.00373125
0.00379635
0.00392715
0.00399952
0.00400925
0.00396749
0.0037787
0.00341334
0.00302012
0.0028633
0.002827
0.0028373
0.0029519
0.00314661
0.00320474
0.00320492
0.00314612
0.00311402
0.00311935
0.0031846
0.00329756
0.00337495
0.00341197
0.00346142
0.00352844
0.00357495
0.00362452
0.00362355
0.00363846
0.00367316
0.003691
0.00369882
0.00371075
0.00374512
0.00382495
0.00394718
0.00399322
0.00399273
0.00389992
0.0036385
0.00324155
0.0029632
0.00288083
0.00287124
0.00293443
0.00312561
0.0032171
0.0032259
0.00318392
0.00314389
0.00314305
0.00319142
0.00328577
0.00334574
0.00337329
0.0034205
0.00349313
0.0035524
0.00359557
0.00363999
0.00364277
0.0036561
0.00367525
0.00368943
0.00369632
0.00371028
0.00374971
0.00383901
0.00394661
0.0039776
0.00395843
0.00382637
0.00353672
0.0031569
0.00296956
0.00292734
0.00295231
0.00309159
0.00322218
0.00324454
0.00322052
0.00316854
0.00315942
0.00318346
0.00325428
0.00330162
0.00332159
0.00335963
0.00342808
0.00349321
0.00355017
0.00360374
0.00363615
0.00364518
0.00365496
0.00367118
0.00368307
0.00368981
0.00370607
0.00374824
0.00383962
0.00393415
0.00395328
0.00392274
0.00377347
0.00347336
0.00314351
0.00302079
0.00301015
0.00308056
0.00321922
0.00326197
0.0032563
0.0031949
0.00317152
0.00317588
0.00321583
0.0032489
0.00326055
0.00327686
0.0033201
0.00338039
0.0034451
0.00351097
0.00356918
0.00359379
0.0036293
0.00364331
0.00365362
0.00366191
0.00367033
0.00369318
0.00374184
0.00383249
0.00391053
0.00392559
0.00389126
0.00373984
0.00344758
0.00319039
0.00312558
0.00313431
0.00321677
0.0032818
0.00328887
0.00323507
0.00318401
0.00317754
0.00318976
0.00321289
0.00322059
0.00322636
0.00324816
0.00328661
0.0033288
0.00337558
0.00343528
0.00350077
0.00344815
0.00354985
0.00359732
0.00361419
0.00362066
0.00363044
0.00366202
0.00372256
0.00381478
0.00387911
0.00388995
0.00385733
0.00372294
0.00346701
0.0032895
0.00325548
0.00326752
0.00331234
0.00332601
0.00328581
0.00320729
0.00318745
0.0031871
0.0032035
0.00321454
0.00321837
0.00322769
0.00325091
0.00328134
0.0033123
0.00334894
0.00339353
0.00343888
0.00329368
0.00336684
0.0034665
0.00353698
0.00357616
0.00360095
0.00362772
0.00367948
0.00377349
0.00383987
0.0038529
0.00383117
0.00372815
0.00352149
0.00339501
0.00336748
0.0033689
0.00337388
0.00333934
0.00325137
0.00320209
0.00319477
0.00320075
0.00321604
0.00322195
0.00322757
0.00324491
0.00327139
0.00329494
0.00331736
0.00334886
0.00338321
0.00341853
0.00320444
0.00322754
0.00330221
0.00340253
0.00349174
0.00355589
0.00359942
0.00364249
0.00371529
0.00379509
0.0038182
0.00381104
0.00374819
0.00362023
0.00350141
0.00345194
0.00343155
0.00339333
0.00331325
0.00322901
0.00320743
0.00320671
0.00321903
0.00323671
0.0032447
0.003262
0.00329252
0.00331985
0.00333543
0.00335346
0.00337677
0.00339772
0.00342366
0.00316758
0.00315791
0.00318311
0.00325882
0.00336402
0.00346667
0.00354891
0.00361146
0.0036738
0.00375298
0.00378786
0.00379049
0.00375957
0.0036846
0.00358949
0.00351909
0.00346017
0.00338062
0.00327623
0.00322267
0.00321422
0.00322048
0.00324716
0.0032806
0.00330461
0.00335376
0.00340828
0.00343393
0.0034484
0.00345928
0.00346445
0.00346793
0.00347243
0.00319825
0.0031424
0.00313434
0.00315805
0.00323153
0.00333856
0.00345051
0.00355076
0.00363671
0.00372129
0.00376388
0.00377065
0.00375746
0.00370526
0.00362989
0.00354687
0.00345696
0.00335133
0.00325262
0.00322567
0.00322415
0.00324759
0.00330497
0.00338063
0.00347188
0.00362501
0.00372616
0.00376519
0.00377678
0.00376606
0.00369639
0.00365547
0.00361123
0.00339007
0.00318915
0.00313503
0.00312756
0.00314768
0.00321526
0.00331981
0.00343813
0.00355788
0.00367193
0.00373426
0.00374934
0.00374357
0.00370483
0.00363491
0.00354716
0.00344418
0.00330881
0.00324368
0.00323191
0.00324409
0.00330017
0.00342179
0.00361045
0.00389285
0.00410653
0.00419362
0.0042346
0.00424722
0.0042332
0.00414962
0.0040888
0.00398086
0.0036472
0.00343039
0.00320624
0.00314117
0.00313337
0.00315004
0.00320855
0.00330577
0.00342633
0.00356133
0.00367034
0.00370489
0.00370916
0.00368755
0.0036265
0.0035346
0.00340782
0.00328397
0.00324796
0.00324567
0.00328115
0.00340671
0.00365809
0.00400633
0.00429908
0.00443209
0.00448413
0.00449895
0.00448803
0.00439588
0.0043273
0.00424473
0.00417546
0.00371422
0.00369949
0.00351003
0.00325417
0.00316294
0.00315087
0.00316478
0.00321234
0.00329755
0.00340966
0.00353139
0.00360059
0.00361842
0.00361864
0.00358003
0.003487
0.0033525
0.00327458
0.00325654
0.00326736
0.00335509
0.00358441
0.00397252
0.00433771
0.00455292
0.0046338
0.00465686
0.00465516
0.00456367
0.00446519
0.0043713
0.0042614
0.0041828
0.00357098
0.00373629
0.00375336
0.00361745
0.00334046
0.00320619
0.00317992
0.0031911
0.00322933
0.00329733
0.00338777
0.0034623
0.00348867
0.00349274
0.00347637
0.00341592
0.00332441
0.0032777
0.00326835
0.00330454
0.00345879
0.00381885
0.0042363
0.00457129
0.00471725
0.00476525
0.00477245
0.00470932
0.00457065
0.00440984
0.004165
0.00396749
0.00389258
0.00331977
0.00351864
0.00374688
0.00380277
0.00372631
0.00347904
0.00328286
0.00322589
0.00322931
0.00326011
0.00330887
0.0033641
0.00339395
0.00340202
0.00339804
0.00336924
0.00331658
0.00328539
0.00329017
0.00336781
0.00363392
0.00404349
0.00444897
0.0047249
0.00482871
0.00485628
0.00484909
0.00474263
0.00459096
0.00436755
0.00403302
0.0037229
0.0034984
0.00327904
0.00332262
0.00348202
0.00374371
0.00384034
0.00381475
0.00364188
0.00340846
0.00329607
0.0032792
0.00330106
0.00333284
0.00335589
0.0033638
0.00336401
0.00335364
0.00332126
0.0033047
0.00332933
0.00348678
0.00381462
0.00422007
0.00459304
0.00482127
0.00490546
0.0049285
0.00489744
0.00478663
0.00462492
0.0043451
0.00384955
0.00349441
0.00331206
0.00327922
0.00328464
0.00333479
0.00344665
0.00372348
0.00385896
0.00387706
0.00379412
0.00358836
0.0034117
0.00335006
0.0033476
0.00335881
0.00336299
0.00336237
0.00335551
0.00333631
0.00333537
0.00341028
0.00364314
0.00397988
0.00435671
0.0046942
0.00489438
0.00496759
0.00498573
0.00493808
0.00484096
0.00467525
0.00423482
0.00363202
0.00331036
0.00315178
0.0033905
0.00333189
0.0033167
0.00334095
0.00342355
0.00366834
0.00385922
0.00391767
0.00389977
0.0037756
0.00358947
0.00346253
0.00341208
0.00339204
0.00338308
0.00337758
0.00337591
0.00340871
0.00355313
0.0038035
0.00412332
0.00445946
0.00475609
0.00494248
0.00500937
0.00501621
0.00497731
0.00488709
0.0046817
0.00401152
0.00348363
0.00321975
0.00302539
0.00361455
0.00355036
0.00339299
0.00334673
0.0033484
0.00340888
0.00359735
0.00383877
0.0039402
0.00396736
0.00392465
0.00379825
0.00364559
0.00353838
0.0034866
0.0034664
0.00348232
0.00357145
0.00373726
0.00397116
0.00425766
0.0045515
0.00480794
0.00496982
0.00502692
0.00503083
0.00500266
0.00491277
0.00460012
0.00385812
0.00344121
0.00309419
0.00274484
0.00366088
0.00368379
0.00366825
0.00347932
0.00337359
0.00336615
0.00339944
0.00353118
0.00379129
0.00394924
0.00400864
0.00402389
0.00397691
0.00388275
0.00378342
0.00372351
0.0037399
0.00381302
0.00395571
0.00415569
0.00439629
0.00464012
0.00484752
0.00497988
0.00503302
0.00503845
0.00501629
0.00491307
0.00441747
0.00383145
0.00338031
0.00279154
0.00239429
0.00360106
0.00369765
0.00374114
0.00374309
0.00358707
0.00341598
0.00338574
0.00340137
0.00348168
0.00371005
0.00394372
0.00404022
0.00409242
0.00410721
0.00408353
0.00404613
0.00404451
0.00407909
0.00417909
0.00433363
0.00452071
0.00471116
0.00486958
0.00498251
0.00503553
0.00504227
0.00502013
0.00487539
0.00427791
0.00384006
0.00320834
0.00255845
0.00224693
0.00354032
0.0036037
0.00372865
0.00378049
0.00378509
0.00367211
0.00347622
0.00340972
0.00340961
0.00345808
0.00363089
0.00391425
0.00406737
0.0041441
0.00419979
0.00423272
0.00425678
0.00429181
0.00436423
0.00447561
0.00461547
0.0047568
0.00488025
0.00498451
0.00503561
0.00504119
0.00501072
0.00477521
0.00423023
0.00380286
0.0029868
0.00240408
0.00220002
0.00351573
0.00356893
0.00367357
0.00375959
0.00380829
0.00379909
0.00372756
0.00354926
0.00343612
0.00341886
0.00344524
0.00356647
0.00384152
0.00407783
0.00419154
0.00427225
0.00434111
0.00440338
0.00447598
0.00456437
0.004668
0.0047799
0.00488852
0.00498466
0.00502835
0.00502727
0.00497209
0.00464698
0.00424911
0.00365366
0.00281459
0.00234615
0.00220348
0.00350263
0.0035603
0.00366021
0.00374427
0.00380003
0.00382464
0.00381158
0.00375622
0.00360665
0.00345956
0.00342669
0.00343706
0.00351896
0.00374903
0.00406028
0.00423221
0.00433763
0.00442731
0.00451302
0.00460308
0.00469893
0.00479653
0.00489721
0.0049773
0.00499916
0.00498497
0.00488865
0.0045509
0.00422484
0.00350687
0.00272479
0.00234096
0.00224015
0.00349973
0.00356868
0.00366314
0.00374681
0.00380049
0.00382771
0.00382957
0.00381677
0.00377021
0.00364461
0.00347802
0.00343239
0.00343273
0.00348957
0.0036623
0.00399554
0.00424955
0.00439861
0.00450693
0.00461079
0.00470572
0.0048049
0.00489947
0.00494957
0.00495179
0.00492619
0.00479034
0.00449154
0.00414596
0.00338121
0.00269263
0.00236533
0.0023345
0.00351827
0.00363616
0.00372325
0.00380352
0.00384553
0.00385215
0.00384556
0.00383392
0.00381749
0.00377435
0.00366261
0.0034896
0.00343583
0.00343203
0.0034706
0.0035996
0.00389309
0.00423181
0.00443515
0.00457727
0.00469703
0.00480247
0.00488277
0.00491018
0.00490525
0.00486393
0.00468461
0.00443729
0.00407283
0.00331808
0.002689
0.00246164
0.00249217
0.00360409
0.00375828
0.00382319
0.00389403
0.00392999
0.00392003
0.003899
0.00386697
0.00383848
0.00381818
0.00377316
0.00366953
0.00349897
0.00344172
0.00344021
0.00346657
0.00356564
0.00379676
0.00415436
0.0044214
0.00460522
0.00474178
0.00481516
0.00482371
0.0048125
0.00476034
0.00457678
0.00436762
0.00401607
0.00328909
0.00272524
0.00258967
0.00263344
0.00379045
0.00392191
0.00397684
0.00403578
0.00406938
0.00405041
0.00401257
0.00394506
0.00387914
0.00383769
0.00381516
0.00376901
0.00367104
0.00350923
0.00345416
0.00345877
0.00348255
0.00356081
0.00374559
0.00404813
0.00431823
0.00452799
0.00463928
0.00466258
0.00465135
0.00460292
0.00445086
0.00427268
0.00393363
0.00326324
0.00281051
0.00269174
0.00271413
0.00393778
0.00401653
0.00407669
0.00415486
0.00423686
0.00423728
0.0041994
0.00411213
0.00397305
0.00388019
0.00383498
0.00380894
0.00376864
0.00368085
0.00352574
0.00347789
0.00348562
0.0035144
0.00357901
0.00373104
0.00397942
0.00421399
0.00437735
0.00443425
0.00442655
0.0043897
0.00429708
0.00415321
0.00386228
0.00327057
0.00289224
0.00276571
0.00276442
0.0039708
0.00403136
0.00409241
0.00418318
0.00429234
0.00435858
0.00435993
0.0043238
0.00419552
0.00398103
0.0038747
0.0038332
0.00381402
0.00377967
0.00369843
0.00355528
0.00351587
0.00352256
0.00355968
0.00362198
0.00374751
0.00393593
0.00411122
0.0042029
0.00420016
0.00417442
0.00411233
0.00400795
0.00378682
0.00330857
0.00296878
0.00282398
0.00280135
0.00395011
0.00399519
0.00406429
0.00418377
0.00430062
0.00438297
0.00441969
0.00441819
0.0043758
0.00420826
0.00396693
0.00386984
0.00383766
0.00382691
0.00380163
0.00372995
0.00359421
0.00356767
0.00357236
0.00361005
0.00367111
0.00377337
0.00388572
0.00396336
0.00396675
0.00394907
0.00390236
0.00383575
0.00369812
0.00336481
0.00305799
0.00290453
0.00286923
0.00382202
0.00385792
0.00400846
0.00417302
0.00430225
0.00438451
0.00442754
0.00444494
0.00443132
0.00434279
0.0041109
0.00394791
0.00388276
0.00386344
0.00385685
0.00383584
0.00377345
0.00364003
0.00361611
0.00362049
0.00364736
0.00370597
0.00377201
0.00381355
0.00381348
0.00380216
0.00377164
0.00372721
0.00364024
0.00342163
0.00318537
0.00306215
0.00303772
0.00357287
0.00375466
0.00400429
0.00417083
0.00429882
0.00437009
0.00440751
0.0044258
0.00441183
0.00431161
0.00409785
0.00395535
0.00389511
0.00388783
0.00389164
0.00388807
0.00386841
0.00380414
0.00368532
0.00365149
0.00365384
0.00367001
0.00370734
0.00372738
0.00372475
0.00371462
0.00369133
0.00366222
0.00360849
0.00348286
0.00334135
0.00327109
0.00326461
0.00341778
0.00375222
0.00402716
0.00416476
0.00425167
0.00429524
0.00430525
0.00430743
0.00425484
0.00415448
0.0040243
0.00392435
0.0038832
0.00388374
0.0038999
0.00392139
0.00391911
0.00389547
0.00381329
0.00371622
0.00367964
0.00367402
0.00367978
0.00368026
0.00367612
0.00366696
0.00365572
0.00363699
0.00361179
0.00355559
0.00349594
0.00346208
0.00345676
0.00337322
0.00378224
0.00400696
0.00407981
0.00410006
0.00408897
0.00398801
0.00392728
0.00390688
0.00390011
0.00387012
0.00384565
0.00384926
0.00386583
0.00389296
0.00392245
0.00393982
0.00392915
0.00389156
0.0037998
0.00372444
0.00369412
0.00368629
0.00368084
0.00367256
0.00366627
0.00365929
0.0036499
0.00364027
0.00362044
0.00360382
0.00358328
0.00357998
0.00335087
0.00370081
0.00383393
0.00387487
0.00388048
0.00381728
0.00373103
0.00371678
0.00372231
0.00374794
0.00376412
0.00378293
0.00381113
0.00384202
0.00388281
0.00391977
0.00394958
0.00396054
0.0039456
0.00390044
0.00381475
0.0037547
0.00371538
0.00369888
0.00368911
0.00368494
0.00368444
0.00368576
0.00368553
0.0036828
0.0036803
0.0036643
0.00365022
0.0032073
0.00339143
0.00359366
0.00368919
0.0037173
0.0037182
0.00369074
0.0036841
0.00368358
0.00369902
0.00372642
0.003757
0.00379007
0.00382968
0.00387214
0.00391136
0.00394308
0.00396059
0.0039567
0.00393216
0.00387651
0.00381568
0.00377816
0.00375976
0.00375953
0.00376634
0.00378034
0.0037866
0.003782
0.00377344
0.00373011
0.00362842
0.00351836
0.00315785
0.00324334
0.00334868
0.00348905
0.00360831
0.00366741
0.00369057
0.00370121
0.00370967
0.00371125
0.00372706
0.00376066
0.00379205
0.00383204
0.00387144
0.00390859
0.00394156
0.00396779
0.00398477
0.0039874
0.00397275
0.00394949
0.00391935
0.00391026
0.0038933
0.00387994
0.00385596
0.00377872
0.00376436
0.00379052
0.00386658
0.00396794
0.00410972
0.00316203
0.00321653
0.0032672
0.00332038
0.00339165
0.00349069
0.00358522
0.00368563
0.00374293
0.00376853
0.00379513
0.00380801
0.00383592
0.00386528
0.00389423
0.00392537
0.00395316