/*--------------------------------*- C++ -*----------------------------------*\
  =========                 |
  \\      /  F ield         | OpenFOAM: The Open Source CFD Toolbox
   \\    /   O peration     | Website:  https://openfoam.org
    \\  /    A nd           | Version:  10
     \\/     M anipulation  |
\*---------------------------------------------------------------------------*/
FoamFile
{
    format      ascii;
    class       volVectorField;
    location    "0.901716";
    object      U;
}
// * * * * * * * * * * * * * * * * * * * * * * * * * * * * * * * * * * * * * //

dimensions      [0 1 -1 0 0 0 0];

internalField   nonuniform List<vector> 
16320
(
(0.518945 -0.167006 0)
(0.540507 -0.160107 0)
(0.560459 -0.152497 0)
(0.578597 -0.144346 0)
(0.594652 -0.135864 0)
(0.608482 -0.127293 0)
(0.619964 -0.118875 0)
(0.629068 -0.110858 0)
(0.635806 -0.103532 0)
(0.640131 -0.0971394 0)
(0.642142 -0.091727 0)
(0.641972 -0.0874832 0)
(0.639971 -0.0845208 0)
(0.636303 -0.0826816 0)
(0.630546 -0.082778 0)
(0.62285 -0.084965 0)
(0.613784 -0.0889625 0)
(0.60343 -0.0948729 0)
(0.591799 -0.102657 0)
(0.57899 -0.112032 0)
(0.565185 -0.122312 0)
(0.550492 -0.132332 0)
(0.534516 -0.140535 0)
(0.515168 -0.145752 0)
(0.492985 -0.146434 0)
(0.466928 -0.141146 0)
(0.433692 -0.12978 0)
(0.393361 -0.111301 0)
(0.346804 -0.0850067 0)
(0.297949 -0.0510366 0)
(0.252785 -0.00947575 0)
(0.21553 0.0379544 0)
(0.189225 0.0883159 0)
(0.527638 -0.173671 0)
(0.549738 -0.165513 0)
(0.569983 -0.156425 0)
(0.588097 -0.146647 0)
(0.603846 -0.136488 0)
(0.617067 -0.126184 0)
(0.62766 -0.116043 0)
(0.635578 -0.10633 0)
(0.640879 -0.097386 0)
(0.64365 -0.0894119 0)
(0.644024 -0.0825977 0)
(0.642261 -0.0770517 0)
(0.638819 -0.0726542 0)
(0.633346 -0.0698361 0)
(0.625452 -0.0693027 0)
(0.615909 -0.0706855 0)
(0.605126 -0.0740104 0)
(0.592999 -0.0795236 0)
(0.579519 -0.087111 0)
(0.564753 -0.096657 0)
(0.54894 -0.107523 0)
(0.532322 -0.118392 0)
(0.51421 -0.12755 0)
(0.492855 -0.13406 0)
(0.469297 -0.135437 0)
(0.441792 -0.131182 0)
(0.407145 -0.120785 0)
(0.365688 -0.103188 0)
(0.317523 -0.0776881 0)
(0.267154 -0.0441243 0)
(0.220759 -0.00294033 0)
(0.183012 0.0435724 0)
(0.156448 0.0924829 0)
(0.534458 -0.18102 0)
(0.557019 -0.171494 0)
(0.577443 -0.160796 0)
(0.595333 -0.149255 0)
(0.610465 -0.137187 0)
(0.62274 -0.125027 0)
(0.632065 -0.113002 0)
(0.638436 -0.101533 0)
(0.641995 -0.0908968 0)
(0.642919 -0.0813561 0)
(0.641465 -0.0730484 0)
(0.638143 -0.0659666 0)
(0.632999 -0.0601451 0)
(0.62534 -0.0565663 0)
(0.615558 -0.0551186 0)
(0.604504 -0.0555047 0)
(0.592109 -0.057913 0)
(0.5784 -0.0628446 0)
(0.563336 -0.0700895 0)
(0.54674 -0.0792893 0)
(0.529061 -0.0906501 0)
(0.510724 -0.102243 0)
(0.490527 -0.11219 0)
(0.467442 -0.119647 0)
(0.442769 -0.121491 0)
(0.413841 -0.118065 0)
(0.378066 -0.108425 0)
(0.335646 -0.0915349 0)
(0.286366 -0.0670652 0)
(0.235485 -0.0341933 0)
(0.189023 0.00592113 0)
(0.151734 0.050449 0)
(0.125775 0.0966971 0)
(0.540185 -0.187927 0)
(0.563228 -0.176601 0)
(0.583725 -0.163993 0)
(0.601262 -0.150523 0)
(0.615543 -0.136481 0)
(0.626561 -0.122307 0)
(0.634339 -0.108451 0)
(0.638824 -0.0952561 0)
(0.640309 -0.0830671 0)
(0.639098 -0.0720609 0)
(0.635664 -0.06239 0)
(0.63043 -0.0538 0)
(0.622895 -0.0470521 0)
(0.612883 -0.0427389 0)
(0.60134 -0.0402468 0)
(0.58876 -0.0396911 0)
(0.574713 -0.0413596 0)
(0.55938 -0.045434 0)
(0.543153 -0.0520843 0)
(0.524757 -0.060794 0)
(0.504911 -0.0720976 0)
(0.485104 -0.0840412 0)
(0.463029 -0.0945471 0)
(0.438704 -0.1026 0)
(0.413265 -0.104674 0)
(0.383088 -0.101945 0)
(0.346742 -0.0929145 0)
(0.303746 -0.0767689 0)
(0.254259 -0.0534704 0)
(0.204177 -0.0218925 0)
(0.158858 0.0161089 0)
(0.122967 0.0576737 0)
(0.0985682 0.10052 0)
(0.545003 -0.195333 0)
(0.567558 -0.182398 0)
(0.587277 -0.167928 0)
(0.603714 -0.152274 0)
(0.616735 -0.135961 0)
(0.626204 -0.11943 0)
(0.632115 -0.103373 0)
(0.634606 -0.088214 0)
(0.634011 -0.0742246 0)
(0.630702 -0.0616405 0)
(0.625419 -0.0503509 0)
(0.618082 -0.0405828 0)
(0.607843 -0.0332731 0)
(0.595426 -0.0279114 0)
(0.58173 -0.024177 0)
(0.566761 -0.0224044 0)
(0.550524 -0.0230448 0)
(0.533393 -0.0262207 0)
(0.515816 -0.0323486 0)
(0.496285 -0.0409965 0)
(0.475108 -0.0522279 0)
(0.454201 -0.0643419 0)
(0.430695 -0.0753477 0)
(0.405926 -0.0833468 0)
(0.380192 -0.085782 0)
(0.349261 -0.083551 0)
(0.313234 -0.0750368 0)
(0.270515 -0.0599823 0)
(0.222154 -0.0379582 0)
(0.174217 -0.00842491 0)
(0.131492 0.0265461 0)
(0.0980463 0.0643732 0)
(0.0758082 0.103413 0)
(0.541998 -0.205113 0)
(0.564159 -0.190313 0)
(0.583432 -0.173466 0)
(0.599325 -0.155088 0)
(0.611483 -0.135915 0)
(0.619712 -0.116678 0)
(0.623951 -0.0980789 0)
(0.624528 -0.0806713 0)
(0.621887 -0.0646972 0)
(0.616734 -0.0503671 0)
(0.609508 -0.037271 0)
(0.599316 -0.0264544 0)
(0.586148 -0.0179608 0)
(0.571124 -0.0108999 0)
(0.554708 -0.00554507 0)
(0.537205 -0.00251648 0)
(0.518859 -0.00223646 0)
(0.500132 -0.00505685 0)
(0.481716 -0.01105 0)
(0.4613 -0.0197588 0)
(0.439002 -0.0309397 0)
(0.41714 -0.0429072 0)
(0.393045 -0.0543621 0)
(0.368764 -0.0618816 0)
(0.343442 -0.0649972 0)
(0.31323 -0.0633341 0)
(0.278593 -0.0556631 0)
(0.237431 -0.0422599 0)
(0.19177 -0.0218827 0)
(0.147031 0.00508465 0)
(0.107999 0.0362388 0)
(0.0774488 0.0701701 0)
(0.057325 0.105486 0)
(0.532381 -0.214745 0)
(0.554972 -0.197495 0)
(0.574519 -0.177833 0)
(0.590302 -0.156472 0)
(0.601819 -0.134274 0)
(0.608772 -0.112153 0)
(0.611221 -0.091006 0)
(0.609668 -0.0713265 0)
(0.604724 -0.053523 0)
(0.597438 -0.0372102 0)
(0.58747 -0.0226816 0)
(0.573799 -0.0107204 0)
(0.557535 -0.000316497 0)
(0.540181 0.0084453 0)
(0.522036 0.0150411 0)
(0.503129 0.0190648 0)
(0.483553 0.0201472 0)
(0.463859 0.0178993 0)
(0.444642 0.012333 0)
(0.423556 0.00321584 0)
(0.401319 -0.00865538 0)
(0.379246 -0.0209883 0)
(0.355801 -0.0330564 0)
(0.333096 -0.0404708 0)
(0.308689 -0.0444356 0)
(0.280004 -0.0434539 0)
(0.24695 -0.0367857 0)
(0.207928 -0.0248455 0)
(0.165742 -0.00625096 0)
(0.124909 0.0176251 0)
(0.0891504 0.0449946 0)
(0.0610939 0.075115 0)
(0.0422279 0.106598 0)
(0.518166 -0.224027 0)
(0.541658 -0.204768 0)
(0.561982 -0.182526 0)
(0.57815 -0.158138 0)
(0.589369 -0.132655 0)
(0.595152 -0.107289 0)
(0.595681 -0.0831365 0)
(0.591592 -0.0608104 0)
(0.584091 -0.040748 0)
(0.573815 -0.0222632 0)
(0.559552 -0.00624249 0)
(0.542129 0.00743061 0)
(0.523791 0.0193361 0)
(0.504828 0.0293155 0)
(0.4853 0.0369845 0)
(0.46534 0.0419349 0)
(0.445087 0.0437312 0)
(0.425283 0.0419612 0)
(0.406217 0.0366336 0)
(0.385111 0.0270187 0)
(0.362977 0.0149647 0)
(0.341355 0.00181882 0)
(0.32017 -0.0112442 0)
(0.2996 -0.019198 0)
(0.276201 -0.023934 0)
(0.249246 -0.0236273 0)
(0.217812 -0.0180674 0)
(0.181323 -0.00733515 0)
(0.143108 0.00904861 0)
(0.106679 0.0292672 0)
(0.0741197 0.0528345 0)
(0.0482227 0.0790411 0)
(0.0315099 0.106258 0)
(0.499875 -0.234792 0)
(0.524814 -0.213445 0)
(0.546482 -0.188071 0)
(0.563513 -0.159811 0)
(0.574798 -0.130199 0)
(0.579639 -0.100846 0)
(0.578329 -0.0731373 0)
(0.571556 -0.04801 0)
(0.560726 -0.0247636 0)
(0.54577 -0.00452185 0)
(0.526772 0.0130492 0)
(0.506348 0.028152 0)
(0.485774 0.0412403 0)
(0.465085 0.0521519 0)
(0.444363 0.0605687 0)
(0.423749 0.0660925 0)
(0.403382 0.0682615 0)
(0.384219 0.066634 0)
(0.365672 0.0612883 0)
(0.345225 0.0508864 0)
(0.324717 0.0381312 0)
(0.303909 0.0240201 0)
(0.284444 0.0113296 0)
(0.266315 0.00211588 0)
(0.244508 -0.00358776 0)
(0.219605 -0.00408231 0)
(0.190405 0.000219315 0)
(0.157679 0.00929868 0)
(0.124502 0.0225302 0)
(0.0921179 0.0393438 0)
(0.0631783 0.0592423 0)
(0.0408511 0.0811878 0)
(0.0276344 0.10347 0)
(0.477003 -0.246582 0)
(0.503326 -0.222999 0)
(0.525953 -0.194617 0)
(0.543238 -0.162251 0)
(0.554151 -0.127774 0)
(0.558117 -0.0933794 0)
(0.55531 -0.0609182 0)
(0.547214 -0.0320633 0)
(0.532662 -0.00526686 0)
(0.512467 0.0174767 0)
(0.489892 0.0359244 0)
(0.466485 0.0515514 0)
(0.443543 0.0654266 0)
(0.421103 0.0768974 0)
(0.399444 0.0856425 0)
(0.378636 0.0912912 0)
(0.358754 0.0933865 0)
(0.340939 0.0914611 0)
(0.323308 0.0854718 0)
(0.304142 0.074246 0)
(0.285874 0.0607494 0)
(0.267616 0.0454551 0)
(0.251188 0.0328778 0)
(0.234565 0.0226547 0)
(0.2146 0.016238 0)
(0.19215 0.0146116 0)
(0.166169 0.0170221 0)
(0.137992 0.0236224 0)
(0.109393 0.0339269 0)
(0.0817659 0.0473556 0)
(0.0577572 0.0632362 0)
(0.0401274 0.0803069 0)
(0.0309598 0.096938 0)
(0.445716 -0.260065 0)
(0.470818 -0.234669 0)
(0.492405 -0.203251 0)
(0.509239 -0.166645 0)
(0.519712 -0.126894 0)
(0.523095 -0.0867808 0)
(0.51927 -0.0489059 0)
(0.509621 -0.0141647 0)
(0.492852 0.0166277 0)
(0.469546 0.0424403 0)
(0.443412 0.0628814 0)
(0.418583 0.0790531 0)
(0.39497 0.0927113 0)
(0.371879 0.103836 0)
(0.350231 0.112067 0)
(0.330083 0.117171 0)
(0.311526 0.118593 0)
(0.295668 0.115932 0)
(0.279537 0.108491 0)
(0.262507 0.0963867 0)
(0.246744 0.0817642 0)
(0.231869 0.0654857 0)
(0.218794 0.052444 0)
(0.204046 0.0414045 0)
(0.186783 0.0341636 0)
(0.167318 0.0310123 0)
(0.144951 0.0314384 0)
(0.121433 0.0355287 0)
(0.0980903 0.042623 0)
(0.0760862 0.0521647 0)
(0.0575356 0.0633609 0)
(0.0449228 0.0750488 0)
(0.0403968 0.0858799 0)
(0.402005 -0.273677 0)
(0.424894 -0.246156 0)
(0.444457 -0.210691 0)
(0.459947 -0.169376 0)
(0.469523 -0.124248 0)
(0.471902 -0.0784407 0)
(0.467327 -0.0352401 0)
(0.455213 0.00556094 0)
(0.436625 0.0404835 0)
(0.412287 0.0687903 0)
(0.385556 0.0917092 0)
(0.360637 0.109015 0)
(0.33827 0.121711 0)
(0.316709 0.131621 0)
(0.296733 0.138609 0)
(0.278538 0.142629 0)
(0.262404 0.14288 0)
(0.248908 0.139186 0)
(0.234883 0.129669 0)
(0.220953 0.1164 0)
(0.208162 0.10027 0)
(0.197147 0.0836397 0)
(0.187257 0.0695606 0)
(0.174752 0.0579158 0)
(0.160589 0.0498702 0)
(0.144573 0.0450055 0)
(0.126457 0.0431477 0)
(0.108081 0.0441503 0)
(0.0903156 0.0474432 0)
(0.0742432 0.0525581 0)
(0.0619974 0.0588518 0)
(0.0560218 0.0653026 0)
(0.0577279 0.0706509 0)
(0.346972 -0.28397 0)
(0.365837 -0.253555 0)
(0.38155 -0.2148 0)
(0.394087 -0.169946 0)
(0.402187 -0.12035 0)
(0.403953 -0.0690728 0)
(0.398843 -0.019399 0)
(0.385612 0.0269957 0)
(0.366322 0.0655925 0)
(0.342681 0.0964489 0)
(0.31758 0.120557 0)
(0.294391 0.138107 0)
(0.274968 0.149954 0)
(0.25693 0.158276 0)
(0.240219 0.163907 0)
(0.225142 0.166495 0)
(0.21249 0.165324 0)
(0.201508 0.160075 0)
(0.190132 0.148471 0)
(0.180159 0.133725 0)
(0.17111 0.115883 0)
(0.163979 0.0992644 0)
(0.156749 0.0840719 0)
(0.147017 0.0717617 0)
(0.1362 0.0626767 0)
(0.124046 0.0559405 0)
(0.110561 0.0514174 0)
(0.0974976 0.0490088 0)
(0.0859324 0.0483442 0)
(0.0770658 0.0489204 0)
(0.0722025 0.050189 0)
(0.0722457 0.0516819 0)
(0.0781873 0.0526528 0)
(0.281632 -0.289613 0)
(0.294709 -0.256979 0)
(0.305773 -0.216927 0)
(0.314671 -0.169957 0)
(0.320676 -0.116941 0)
(0.321611 -0.0606322 0)
(0.314952 -0.00414667 0)
(0.302277 0.0477928 0)
(0.284114 0.0899034 0)
(0.263205 0.122774 0)
(0.241506 0.147219 0)
(0.223122 0.164187 0)
(0.20898 0.175173 0)
(0.195487 0.18224 0)
(0.182781 0.186657 0)
(0.171445 0.18782 0)
(0.162746 0.185256 0)
(0.154407 0.17758 0)
(0.14669 0.164443 0)
(0.140891 0.147855 0)
(0.13623 0.128876 0)
(0.132717 0.111643 0)
(0.127577 0.0956798 0)
(0.120939 0.0825647 0)
(0.113674 0.0720574 0)
(0.105535 0.0632685 0)
(0.0970573 0.0560246 0)
(0.0898657 0.0501582 0)
(0.0845187 0.0453619 0)
(0.0814734 0.0415001 0)
(0.0816058 0.0383282 0)
(0.0857344 0.0356297 0)
(0.094316 0.033175 0)
(0.209139 -0.289534 0)
(0.217579 -0.255658 0)
(0.225688 -0.214571 0)
(0.231444 -0.16562 0)
(0.23493 -0.109742 0)
(0.233843 -0.0495655 0)
(0.224181 0.0125605 0)
(0.211796 0.0680542 0)
(0.195873 0.112266 0)
(0.179541 0.14581 0)
(0.163708 0.169815 0)
(0.152296 0.186304 0)
(0.143905 0.196125 0)
(0.134917 0.2023 0)
(0.12621 0.205781 0)
(0.119125 0.205843 0)
(0.113902 0.202019 0)
(0.108853 0.191623 0)
(0.105802 0.176806 0)
(0.104131 0.158119 0)
(0.103634 0.138841 0)
(0.102934 0.120545 0)
(0.100261 0.104066 0)
(0.0967866 0.0899986 0)
(0.0929794 0.0777393 0)
(0.0888179 0.0665937 0)
(0.0851316 0.0564979 0)
(0.0828442 0.0472092 0)
(0.082211 0.0386377 0)
(0.0837272 0.0309224 0)
(0.0879473 0.0241651 0)
(0.0953172 0.0180491 0)
(0.105823 0.0126472 0)
(0.136386 -0.285539 0)
(0.14105 -0.250923 0)
(0.145619 -0.208199 0)
(0.147193 -0.156877 0)
(0.146152 -0.0978614 0)
(0.14214 -0.0323082 0)
(0.13227 0.0334668 0)
(0.121416 0.0881978 0)
(0.10954 0.131698 0)
(0.0989897 0.164164 0)
(0.0907009 0.187139 0)
(0.0861794 0.202881 0)
(0.0819595 0.212076 0)
(0.0768289 0.21807 0)
(0.0722144 0.221038 0)
(0.0695495 0.220377 0)
(0.0671755 0.214353 0)
(0.0659819 0.202027 0)
(0.0676474 0.18493 0)
(0.0703296 0.164754 0)
(0.0733789 0.14509 0)
(0.0748076 0.126183 0)
(0.0749029 0.109227 0)
(0.0746087 0.0940369 0)
(0.0741693 0.0799344 0)
(0.0737927 0.066391 0)
(0.0742312 0.053443 0)
(0.0759924 0.0410459 0)
(0.0793018 0.0293844 0)
(0.0844758 0.0187071 0)
(0.0915821 0.00892675 0)
(0.100428 0.00073361 0)
(0.110261 -0.00503982 0)
(0.0651528 -0.278894 0)
(0.0659849 -0.243963 0)
(0.0664636 -0.199334 0)
(0.0640496 -0.145036 0)
(0.05836 -0.0842102 0)
(0.0524548 -0.0168306 0)
(0.0464832 0.0495926 0)
(0.0380874 0.101881 0)
(0.031677 0.143959 0)
(0.0274726 0.175887 0)
(0.0263894 0.19868 0)
(0.0257702 0.213786 0)
(0.0241302 0.223753 0)
(0.0224924 0.230192 0)
(0.0221619 0.232782 0)
(0.0226668 0.230898 0)
(0.0236618 0.222256 0)
(0.0275725 0.207905 0)
(0.0329529 0.188688 0)
(0.0393151 0.167944 0)
(0.0447548 0.147646 0)
(0.0484536 0.128675 0)
(0.0514613 0.11124 0)
(0.0542305 0.0948197 0)
(0.0569354 0.0788523 0)
(0.0599166 0.0630725 0)
(0.0637951 0.0476493 0)
(0.0688135 0.0328031 0)
(0.07502 0.0188807 0)
(0.0820626 0.00615041 0)
(0.0893111 -0.00478128 0)
(0.0968796 -0.0128919 0)
(0.105204 -0.0187915 0)
(-0.00259829 -0.268422 0)
(-0.005618 -0.233172 0)
(-0.00918161 -0.186596 0)
(-0.0151232 -0.129919 0)
(-0.0230231 -0.067741 0)
(-0.0287127 -0.00362676 0)
(-0.0291484 0.0584158 0)
(-0.0335882 0.1096 0)
(-0.0337268 0.150861 0)
(-0.032087 0.18217 0)
(-0.030275 0.204702 0)
(-0.0293712 0.220371 0)
(-0.0284856 0.231527 0)
(-0.0269241 0.238539 0)
(-0.023825 0.24097 0)
(-0.0204303 0.236926 0)
(-0.0149649 0.226413 0)
(-0.0069791 0.209564 0)
(0.0017534 0.188379 0)
(0.0106619 0.167428 0)
(0.0178796 0.147275 0)
(0.0239913 0.128255 0)
(0.0294687 0.109884 0)
(0.0347392 0.0919366 0)
(0.0400653 0.074196 0)
(0.045835 0.0567466 0)
(0.0522019 0.0398708 0)
(0.0590022 0.0236887 0)
(0.0655569 0.00846563 0)
(0.0717207 -0.00517582 0)
(0.0786735 -0.0157378 0)
(0.0861669 -0.024243 0)
(0.0947572 -0.0310745 0)
(-0.0647733 -0.254669 0)
(-0.0714126 -0.218915 0)
(-0.0770067 -0.172487 0)
(-0.0836844 -0.116707 0)
(-0.0900111 -0.0553912 0)
(-0.0935665 0.00767429 0)
(-0.0921694 0.0655724 0)
(-0.0910937 0.114838 0)
(-0.0881787 0.154493 0)
(-0.0849731 0.18485 0)
(-0.0819416 0.207495 0)
(-0.0790058 0.224295 0)
(-0.0754041 0.236333 0)
(-0.0705845 0.243499 0)
(-0.0652831 0.24444 0)
(-0.0586846 0.238379 0)
(-0.0488012 0.225512 0)
(-0.0378286 0.206856 0)
(-0.0265872 0.185553 0)
(-0.0160283 0.164617 0)
(-0.00723405 0.144189 0)
(0.000624455 0.124334 0)
(0.00811916 0.104973 0)
(0.0156018 0.0858356 0)
(0.0229263 0.0671136 0)
(0.0301071 0.0488493 0)
(0.0367388 0.0310755 0)
(0.0425696 0.0140741 0)
(0.0487303 -0.00128343 0)
(0.0552956 -0.0139906 0)
(0.0624857 -0.0250639 0)
(0.0704817 -0.0343933 0)
(0.0803973 -0.0418678 0)
(-0.118474 -0.239726 0)
(-0.128211 -0.203223 0)
(-0.134845 -0.158072 0)
(-0.140995 -0.104556 0)
(-0.14539 -0.0458153 0)
(-0.146554 0.0139536 0)
(-0.144155 0.0692891 0)
(-0.140676 0.116329 0)
(-0.136524 0.154569 0)
(-0.132235 0.184917 0)
(-0.127652 0.208496 0)
(-0.122537 0.226198 0)
(-0.116429 0.238363 0)
(-0.109724 0.244038 0)
(-0.10201 0.242941 0)
(-0.0913013 0.235039 0)
(-0.0784707 0.220274 0)
(-0.0651731 0.20087 0)
(-0.0523095 0.179723 0)
(-0.0410111 0.158753 0)
(-0.0310042 0.138238 0)
(-0.0215271 0.118077 0)
(-0.0124427 0.0980962 0)
(-0.00399574 0.0784702 0)
(0.0033545 0.0591531 0)
(0.00948505 0.0402828 0)
(0.015154 0.0222135 0)
(0.02126 0.00563719 0)
(0.0275137 -0.00892069 0)
(0.0342964 -0.0219669 0)
(0.0427372 -0.0335373 0)
(0.052766 -0.043589 0)
(0.0645506 -0.0520217 0)
(-0.163326 -0.223723 0)
(-0.174724 -0.186727 0)
(-0.182506 -0.143453 0)
(-0.188304 -0.0931879 0)
(-0.191497 -0.0383851 0)
(-0.191213 0.0171962 0)
(-0.188183 0.0694943 0)
(-0.183871 0.115101 0)
(-0.17867 0.152833 0)
(-0.173079 0.183516 0)
(-0.166932 0.207588 0)
(-0.160011 0.225104 0)
(-0.152476 0.235725 0)
(-0.143887 0.239779 0)
(-0.132642 0.237147 0)
(-0.11907 0.227398 0)
(-0.104372 0.211687 0)
(-0.0897169 0.192371 0)
(-0.0761118 0.171556 0)
(-0.0641603 0.150892 0)
(-0.0534147 0.130719 0)
(-0.043467 0.110607 0)
(-0.0345888 0.0904354 0)
(-0.0273553 0.0705271 0)
(-0.0212453 0.0511394 0)
(-0.0154384 0.0326016 0)
(-0.00977806 0.0153472 0)
(-0.00368068 -0.000704818 0)
(0.00336486 -0.0156498 0)
(0.0118076 -0.0295871 0)
(0.0218842 -0.0422186 0)
(0.0330248 -0.0521415 0)
(0.0451661 -0.0597068 0)
(-0.199822 -0.206446 0)
(-0.21113 -0.170516 0)
(-0.220068 -0.128906 0)
(-0.225805 -0.0820657 0)
(-0.228657 -0.0314208 0)
(-0.227799 0.0199907 0)
(-0.224214 0.0690806 0)
(-0.21943 0.113229 0)
(-0.213647 0.150487 0)
(-0.206984 0.180473 0)
(-0.199722 0.203246 0)
(-0.192037 0.219241 0)
(-0.183059 0.228683 0)
(-0.171667 0.231665 0)
(-0.158025 0.22745 0)
(-0.142858 0.21664 0)
(-0.127177 0.200941 0)
(-0.112195 0.182293 0)
(-0.0987481 0.162507 0)
(-0.0869303 0.142661 0)
(-0.0767165 0.122716 0)
(-0.0683244 0.102714 0)
(-0.0611223 0.082859 0)
(-0.054581 0.0634266 0)
(-0.0486744 0.0447333 0)
(-0.0430718 0.0268187 0)
(-0.03693 0.00978336 0)
(-0.0299793 -0.006991 0)
(-0.0221927 -0.0233473 0)
(-0.0124439 -0.0366259 0)
(-0.00170592 -0.0481481 0)
(0.007171 -0.059511 0)
(0.0160321 -0.0686221 0)
(-0.22902 -0.188469 0)
(-0.238999 -0.154729 0)
(-0.247417 -0.11516 0)
(-0.253408 -0.0716613 0)
(-0.256138 -0.0251101 0)
(-0.255182 0.0220852 0)
(-0.251446 0.0673825 0)
(-0.24643 0.108556 0)
(-0.24075 0.143793 0)
(-0.234601 0.172473 0)
(-0.22711 0.194333 0)
(-0.218045 0.209557 0)
(-0.207041 0.218359 0)
(-0.193999 0.220087 0)
(-0.179285 0.215009 0)
(-0.163669 0.204255 0)
(-0.148245 0.189455 0)
(-0.134127 0.172195 0)
(-0.121884 0.153602 0)
(-0.11191 0.134406 0)
(-0.103622 0.115017 0)
(-0.0963319 0.0956663 0)
(-0.0898938 0.0766289 0)
(-0.0839994 0.0578154 0)
(-0.0780786 0.0393595 0)
(-0.0716528 0.0212351 0)
(-0.0647835 0.00381977 0)
(-0.0574589 -0.0126013 0)
(-0.0493322 -0.0278243 0)
(-0.0427726 -0.0434678 0)
(-0.0370362 -0.0564439 0)
(-0.0293608 -0.0681328 0)
(-0.0199865 -0.0785574 0)
(-0.250374 -0.171403 0)
(-0.260371 -0.139755 0)
(-0.267502 -0.103816 0)
(-0.272527 -0.0641268 0)
(-0.275058 -0.0219046 0)
(-0.274488 0.0211445 0)
(-0.271494 0.0626928 0)
(-0.267155 0.100655 0)
(-0.261687 0.133702 0)
(-0.255273 0.161484 0)
(-0.247413 0.18313 0)
(-0.237686 0.197872 0)
(-0.225804 0.205539 0)
(-0.21234 0.206575 0)
(-0.197832 0.201688 0)
(-0.183133 0.191901 0)
(-0.169306 0.178252 0)
(-0.15755 0.162101 0)
(-0.147946 0.144701 0)
(-0.139626 0.126717 0)
(-0.13231 0.108491 0)
(-0.125876 0.0899789 0)
(-0.119918 0.0714325 0)
(-0.114066 0.0530602 0)
(-0.107964 0.0350918 0)
(-0.10174 0.0170844 0)
(-0.0963322 -0.000782971 0)
(-0.0927424 -0.0186541 0)
(-0.0888668 -0.0343258 0)
(-0.0838354 -0.0495383 0)
(-0.077084 -0.0634461 0)
(-0.069482 -0.0741776 0)
(-0.0605145 -0.0833035 0)
(-0.265354 -0.154971 0)
(-0.27601 -0.12597 0)
(-0.283199 -0.0927324 0)
(-0.287348 -0.056514 0)
(-0.289224 -0.0183437 0)
(-0.288772 0.0205484 0)
(-0.286117 0.0583692 0)
(-0.281931 0.0934604 0)
(-0.276572 0.124601 0)
(-0.27003 0.150754 0)
(-0.262137 0.171009 0)
(-0.252641 0.184927 0)
(-0.241228 0.19205 0)
(-0.22848 0.192884 0)
(-0.215464 0.188385 0)
(-0.203283 0.179341 0)
(-0.192555 0.166927 0)
(-0.183209 0.152305 0)
(-0.175075 0.13671 0)
(-0.168018 0.120306 0)
(-0.161724 0.103129 0)
(-0.155939 0.085445 0)
(-0.150491 0.0676713 0)
(-0.145633 0.0495858 0)
(-0.142389 0.0314695 0)
(-0.140971 0.0128982 0)
(-0.138888 -0.00455771 0)
(-0.135177 -0.0208522 0)
(-0.130864 -0.0373461 0)
(-0.126016 -0.0521872 0)
(-0.119457 -0.0652328 0)
(-0.111308 -0.0767234 0)
(-0.103046 -0.086868 0)
(-0.274821 -0.138197 0)
(-0.286059 -0.113051 0)
(-0.293861 -0.0832696 0)
(-0.298284 -0.0504078 0)
(-0.299857 -0.0158331 0)
(-0.298947 0.0193381 0)
(-0.296206 0.0537338 0)
(-0.292066 0.0859297 0)
(-0.286744 0.114588 0)
(-0.280332 0.138747 0)
(-0.272881 0.157591 0)
(-0.26442 0.17071 0)
(-0.254891 0.177797 0)
(-0.244509 0.178901 0)
(-0.234168 0.174962 0)
(-0.224639 0.167209 0)
(-0.216196 0.156741 0)
(-0.208848 0.144318 0)
(-0.202396 0.13041 0)
(-0.196704 0.11531 0)
(-0.191624 0.0993105 0)
(-0.187391 0.0824145 0)
(-0.184859 0.065038 0)
(-0.184151 0.0469991 0)
(-0.183658 0.0288903 0)
(-0.182482 0.0117685 0)
(-0.180734 -0.00523412 0)
(-0.17793 -0.0216301 0)
(-0.173713 -0.0371148 0)
(-0.170164 -0.0523913 0)
(-0.16559 -0.0670547 0)
(-0.15936 -0.0807282 0)
(-0.151897 -0.0933816 0)
(-0.278413 -0.120386 0)
(-0.290874 -0.0996557 0)
(-0.299604 -0.0743605 0)
(-0.30477 -0.0455729 0)
(-0.306602 -0.0146041 0)
(-0.305728 0.0171053 0)
(-0.303 0.0482409 0)
(-0.298889 0.0775349 0)
(-0.293828 0.103839 0)
(-0.288007 0.126167 0)
(-0.281617 0.143784 0)
(-0.274791 0.156311 0)
(-0.267635 0.163617 0)
(-0.260151 0.165755 0)
(-0.25251 0.163241 0)
(-0.245481 0.157416 0)
(-0.239494 0.148887 0)
(-0.234285 0.138289 0)
(-0.229812 0.126029 0)
(-0.226272 0.112222 0)
(-0.224169 0.0970957 0)
(-0.223696 0.0809407 0)
(-0.224222 0.0640812 0)
(-0.225101 0.0471579 0)
(-0.225719 0.0300865 0)
(-0.225628 0.013078 0)
(-0.224518 -0.00368937 0)
(-0.223613 -0.0204435 0)
(-0.221895 -0.03707 0)
(-0.218695 -0.053628 0)
(-0.214306 -0.0709552 0)
(-0.208788 -0.0868846 0)
(-0.201468 -0.0992252 0)
(-0.275394 -0.101938 0)
(-0.289677 -0.0855031 0)
(-0.299836 -0.0648072 0)
(-0.306075 -0.0405441 0)
(-0.308856 -0.0137913 0)
(-0.308678 0.0142205 0)
(-0.306379 0.0422207 0)
(-0.302776 0.0689301 0)
(-0.29836 0.0932067 0)
(-0.293545 0.114125 0)
(-0.288611 0.131003 0)
(-0.283745 0.143452 0)
(-0.279097 0.151353 0)
(-0.274636 0.154845 0)
(-0.270029 0.154053 0)
(-0.265706 0.149894 0)
(-0.262309 0.143292 0)
(-0.259811 0.134353 0)
(-0.258537 0.123333 0)
(-0.258733 0.110737 0)
(-0.259969 0.0967681 0)
(-0.261899 0.0818979 0)
(-0.264412 0.0662782 0)
(-0.266661 0.0500746 0)
(-0.268324 0.0336053 0)
(-0.27017 0.0166063 0)
(-0.271445 -0.000751319 0)
(-0.270906 -0.0182776 0)
(-0.26874 -0.0367163 0)
(-0.26604 -0.0570557 0)
(-0.261331 -0.0738458 0)
(-0.253774 -0.0880653 0)
(-0.24553 -0.10044 0)
(-0.265606 -0.0829007 0)
(-0.281779 -0.0707606 0)
(-0.293719 -0.0546169 0)
(-0.301632 -0.0350008 0)
(-0.305908 -0.0125198 0)
(-0.307059 0.0118179 0)
(-0.305924 0.0367215 0)
(-0.303331 0.0609617 0)
(-0.300014 0.0834303 0)
(-0.296596 0.103227 0)
(-0.293466 0.119686 0)
(-0.290864 0.132379 0)
(-0.28889 0.141148 0)
(-0.28759 0.146069 0)
(-0.286433 0.147138 0)
(-0.285307 0.144563 0)
(-0.285293 0.139417 0)
(-0.286739 0.131949 0)
(-0.289081 0.122503 0)
(-0.292295 0.111473 0)
(-0.296373 0.0990934 0)
(-0.300587 0.0855249 0)
(-0.304586 0.0709395 0)
(-0.308366 0.0553627 0)
(-0.312131 0.0386038 0)
(-0.314939 0.0212664 0)
(-0.315882 0.00286277 0)
(-0.314565 -0.0184014 0)
(-0.312978 -0.0386694 0)
(-0.308441 -0.0565893 0)
(-0.302598 -0.0723108 0)
(-0.297959 -0.0871735 0)
(-0.29196 -0.101703 0)
(-0.25012 -0.0630048 0)
(-0.267894 -0.0551739 0)
(-0.281687 -0.0436232 0)
(-0.291458 -0.0284325 0)
(-0.297425 -0.0101163 0)
(-0.300296 0.0105509 0)
(-0.300888 0.0324788 0)
(-0.299945 0.0544485 0)
(-0.298327 0.0753117 0)
(-0.296787 0.0941897 0)
(-0.295856 0.110391 0)
(-0.295851 0.123448 0)
(-0.296885 0.133056 0)
(-0.299069 0.139195 0)
(-0.302059 0.141918 0)
(-0.30524 0.141091 0)
(-0.309064 0.137544 0)
(-0.314063 0.132022 0)
(-0.319962 0.124533 0)
(-0.326339 0.115248 0)
(-0.332562 0.104322 0)
(-0.338423 0.0918417 0)
(-0.344309 0.0775017 0)
(-0.349304 0.061619 0)
(-0.352697 0.0442931 0)
(-0.354149 0.0253989 0)
(-0.355296 0.00314685 0)
(-0.353931 -0.017793 0)
(-0.350364 -0.0366605 0)
(-0.347161 -0.0534315 0)
(-0.343862 -0.0708255 0)
(-0.339621 -0.0877051 0)
(-0.333815 -0.10389 0)
(-0.229363 -0.0427466 0)
(-0.248723 -0.0389785 0)
(-0.26421 -0.031874 0)
(-0.275734 -0.0208809 0)
(-0.283665 -0.00651519 0)
(-0.288761 0.0106206 0)
(-0.291506 0.02969 0)
(-0.29272 0.0494677 0)
(-0.293342 0.0688424 0)
(-0.294212 0.0868748 0)
(-0.295992 0.102853 0)
(-0.299147 0.11632 0)
(-0.303821 0.126909 0)
(-0.310016 0.134493 0)
(-0.317451 0.139078 0)
(-0.325195 0.140432 0)
(-0.333115 0.138901 0)
(-0.341819 0.135433 0)
(-0.350752 0.12973 0)
(-0.359336 0.121865 0)
(-0.367688 0.111708 0)
(-0.375196 0.0991812 0)
(-0.381434 0.0842989 0)
(-0.385498 0.0673005 0)
(-0.387451 0.048269 0)
(-0.389696 0.0264773 0)
(-0.389817 0.0043461 0)
(-0.386881 -0.0147575 0)
(-0.384248 -0.0333285 0)
(-0.381657 -0.0518085 0)
(-0.378268 -0.0700598 0)
(-0.374159 -0.0879644 0)
(-0.369322 -0.105986 0)
(-0.204068 -0.0228807 0)
(-0.225135 -0.0215625 0)
(-0.242793 -0.0181186 0)
(-0.256842 -0.0112132 0)
(-0.267349 -0.000639655 0)
(-0.274745 0.0129686 0)
(-0.279695 0.029053 0)
(-0.283312 0.0466101 0)
(-0.286559 0.0645389 0)
(-0.290338 0.0819007 0)
(-0.29533 0.0979358 0)
(-0.302063 0.112084 0)
(-0.310742 0.12394 0)
(-0.321296 0.13317 0)
(-0.333424 0.139641 0)
(-0.345873 0.143214 0)
(-0.357536 0.143699 0)
(-0.369045 0.141634 0)
(-0.380608 0.13707 0)
(-0.391295 0.129595 0)
(-0.400647 0.119302 0)
(-0.408124 0.106208 0)
(-0.413209 0.0902341 0)
(-0.415605 0.0717037 0)
(-0.417236 0.0509018 0)
(-0.418283 0.0285865 0)
(-0.416826 0.00877303 0)
(-0.41381 -0.0108559 0)
(-0.411029 -0.0306042 0)
(-0.407944 -0.0499488 0)
(-0.4042 -0.0688134 0)
(-0.400281 -0.0873126 0)
(-0.396508 -0.105742 0)
(-0.183235 -0.00263335 0)
(-0.203448 -0.00228261 0)
(-0.222883 -0.0016524 0)
(-0.238892 0.00123724 0)
(-0.251582 0.00783729 0)
(-0.261319 0.0182252 0)
(-0.26869 0.0316472 0)
(-0.274831 0.0472358 0)
(-0.280851 0.0639443 0)
(-0.287703 0.080796 0)
(-0.296161 0.0969704 0)
(-0.306709 0.11176 0)
(-0.319493 0.124697 0)
(-0.334257 0.13542 0)
(-0.35034 0.143604 0)
(-0.366548 0.148955 0)
(-0.38172 0.150777 0)
(-0.395798 0.149213 0)
(-0.408983 0.144873 0)
(-0.420599 0.137304 0)
(-0.42997 0.126348 0)
(-0.436725 0.111974 0)
(-0.440676 0.0945007 0)
(-0.442443 0.0744195 0)
(-0.443701 0.0522116 0)
(-0.44342 0.031176 0)
(-0.440748 0.0111459 0)
(-0.437218 -0.00892948 0)
(-0.433298 -0.0287822 0)
(-0.428758 -0.0484108 0)
(-0.423761 -0.0670962 0)
(-0.419149 -0.0850045 0)
(-0.415491 -0.102554 0)
(-0.175001 0.0145527 0)
(-0.191975 0.0151243 0)
(-0.209825 0.0145886 0)
(-0.226133 0.0150206 0)
(-0.239821 0.0183924 0)
(-0.251244 0.025819 0)
(-0.260878 0.0370033 0)
(-0.269588 0.0510379 0)
(-0.278463 0.0668369 0)
(-0.288434 0.0833443 0)
(-0.300258 0.0997275 0)
(-0.314299 0.115222 0)
(-0.330499 0.129113 0)
(-0.348508 0.140873 0)
(-0.367704 0.150048 0)
(-0.387048 0.156193 0)
(-0.404975 0.15878 0)
(-0.420652 0.157519 0)
(-0.434565 0.152806 0)
(-0.446424 0.144511 0)
(-0.455475 0.132388 0)
(-0.461466 0.116615 0)
(-0.464683 0.0980122 0)
(-0.466506 0.0772186 0)
(-0.466764 0.0551557 0)
(-0.465075 0.0339899 0)
(-0.461782 0.0127073 0)
(-0.456992 -0.00848108 0)
(-0.451738 -0.0289143 0)
(-0.445649 -0.0482822 0)
(-0.438964 -0.0663382 0)
(-0.433302 -0.0830373 0)
(-0.428984 -0.0987066 0)
(-0.174217 0.0282621 0)
(-0.188153 0.0304674 0)
(-0.203576 0.0293642 0)
(-0.219304 0.0288668 0)
(-0.233561 0.0305133 0)
(-0.246311 0.0358681 0)
(-0.257928 0.0453274 0)
(-0.26908 0.0582137 0)
(-0.280619 0.0734038 0)
(-0.293301 0.0897314 0)
(-0.307776 0.10623 0)
(-0.324414 0.121943 0)
(-0.343125 0.136101 0)
(-0.363463 0.148157 0)
(-0.384794 0.157658 0)
(-0.406051 0.164246 0)
(-0.425796 0.16722 0)
(-0.442836 0.165651 0)
(-0.457097 0.159889 0)
(-0.468734 0.15058 0)
(-0.477327 0.137269 0)
(-0.48249 0.120443 0)
(-0.48488 0.100557 0)
(-0.485699 0.0784842 0)
(-0.484554 0.0560744 0)
(-0.481399 0.0337746 0)
(-0.47653 0.0116762 0)
(-0.469812 -0.0102389 0)
(-0.462144 -0.0310925 0)
(-0.45417 -0.0495928 0)
(-0.446256 -0.0665773 0)
(-0.439717 -0.0817383 0)
(-0.435029 -0.0950013 0)
(-0.179815 0.0394814 0)
(-0.191385 0.0437433 0)
(-0.204134 0.0432706 0)
(-0.218253 0.042523 0)
(-0.232942 0.0435488 0)
(-0.246819 0.0480012 0)
(-0.260068 0.0565223 0)
(-0.273268 0.0687489 0)
(-0.286956 0.0832941 0)
(-0.3016 0.0992411 0)
(-0.317805 0.115293 0)
(-0.336011 0.130577 0)
(-0.356175 0.144509 0)
(-0.377865 0.156494 0)
(-0.400256 0.165972 0)
(-0.422457 0.172392 0)
(-0.443442 0.174669 0)
(-0.461414 0.172606 0)
(-0.475321 0.165823 0)
(-0.485907 0.154933 0)
(-0.493241 0.139927 0)
(-0.497023 0.120784 0)
(-0.497838 0.0990755 0)
(-0.495676 0.0761313 0)
(-0.49005 0.0534388 0)
(-0.482086 0.0303406 0)
(-0.473266 0.00791382 0)
(-0.463844 -0.0138347 0)
(-0.454042 -0.0342367 0)
(-0.445062 -0.0521308 0)
(-0.43783 -0.0675768 0)
(-0.432735 -0.0806659 0)
(-0.429696 -0.0909563 0)
(-0.191086 0.0486094 0)
(-0.200337 0.0551878 0)
(-0.210861 0.0566556 0)
(-0.223196 0.0559223 0)
(-0.237561 0.0572801 0)
(-0.252066 0.061729 0)
(-0.266484 0.0699867 0)
(-0.281284 0.0816509 0)
(-0.296265 0.0955842 0)
(-0.311748 0.110854 0)
(-0.328858 0.126139 0)
(-0.347825 0.140734 0)
(-0.368457 0.153974 0)
(-0.390241 0.16524 0)
(-0.412578 0.174005 0)
(-0.43516 0.179222 0)
(-0.456339 0.180773 0)
(-0.473988 0.177769 0)
(-0.487136 0.169381 0)
(-0.495889 0.155979 0)
(-0.501059 0.138284 0)
(-0.501541 0.118043 0)
(-0.497384 0.0953589 0)
(-0.490243 0.0725128 0)
(-0.481703 0.04929 0)
(-0.471842 0.0258681 0)
(-0.460583 0.00312726 0)
(-0.448719 -0.0180819 0)
(-0.436899 -0.0370496 0)
(-0.426157 -0.0532722 0)
(-0.417491 -0.066263 0)
(-0.41149 -0.0764023 0)
(-0.4089 -0.083618 0)
(-0.206803 0.0559104 0)
(-0.213869 0.0649194 0)
(-0.222812 0.0687974 0)
(-0.233161 0.0693056 0)
(-0.246301 0.0716845 0)
(-0.261005 0.0765453 0)
(-0.27606 0.0849598 0)
(-0.291501 0.0962323 0)
(-0.306742 0.109851 0)
(-0.322549 0.124231 0)
(-0.339849 0.138447 0)
(-0.358508 0.15182 0)
(-0.378356 0.163758 0)
(-0.399119 0.17369 0)
(-0.421012 0.180799 0)
(-0.442903 0.18476 0)
(-0.462994 0.185002 0)
(-0.479857 0.180039 0)
(-0.491575 0.168934 0)
(-0.498129 0.154366 0)
(-0.499461 0.134685 0)
(-0.497429 0.114664 0)
(-0.492424 0.0918442 0)
(-0.48376 0.0675402 0)
(-0.473078 0.0426932 0)
(-0.460821 0.0191557 0)