/*--------------------------------*- C++ -*----------------------------------*\
  =========                 |
  \\      /  F ield         | OpenFOAM: The Open Source CFD Toolbox
   \\    /   O peration     | Website:  https://openfoam.org
    \\  /    A nd           | Version:  10
     \\/     M anipulation  |
\*---------------------------------------------------------------------------*/
FoamFile
{
    format      ascii;
    class       volScalarField;
    location    "0.902556";
    object      p;
}
// * * * * * * * * * * * * * * * * * * * * * * * * * * * * * * * * * * * * * //

dimensions      [1 -1 -2 0 0 0 0];

internalField   nonuniform List<scalar> 
15708
(
2.36492
2.37011
2.37549
2.38105
2.38676
2.39259
2.39854
2.4046
2.41078
2.41707
2.42347
2.42999
2.43662
2.44337
2.45022
2.45717
2.46422
2.47134
2.47852
2.48576
2.49302
2.50029
2.50754
2.51476
2.52193
2.52902
2.53603
2.54292
2.54968
2.55632
2.5628
2.56913
2.5753
2.5813
2.58715
2.59283
2.59835
2.60371
2.60892
2.61398
2.6189
2.62369
2.62834
2.63287
2.63728
2.64156
2.64572
2.64977
2.65368
2.65748
2.66114
2.36549
2.37045
2.3756
2.38097
2.3865
2.39216
2.39796
2.40388
2.40994
2.41611
2.42241
2.42883
2.43536
2.44202
2.44878
2.45565
2.46262
2.46967
2.47679
2.48397
2.49119
2.49842
2.50566
2.51288
2.52005
2.52717
2.53421
2.54115
2.54798
2.55468
2.56125
2.56767
2.57394
2.58005
2.586
2.59179
2.59743
2.6029
2.60822
2.61338
2.61841
2.62328
2.62802
2.63263
2.6371
2.64143
2.64564
2.6497
2.65364
2.65742
2.66107
2.36552
2.37031
2.3753
2.38054
2.38593
2.39149
2.39718
2.40302
2.409
2.4151
2.42133
2.42768
2.43414
2.44073
2.44742
2.45422
2.46112
2.46811
2.47517
2.4823
2.48947
2.49668
2.50389
2.5111
2.51828
2.52541
2.53248
2.53946
2.54634
2.55311
2.55976
2.56626
2.57263
2.57884
2.58489
2.59079
2.59652
2.6021
2.60752
2.61279
2.61791
2.62287
2.62769
2.63236
2.63689
2.64127
2.64551
2.6496
2.65354
2.65732
2.66094
2.365
2.36965
2.37458
2.37971
2.38504
2.39054
2.3962
2.402
2.40794
2.41402
2.42021
2.42652
2.43295
2.43948
2.44613
2.45288
2.45972
2.46666
2.47367
2.48075
2.48789
2.49506
2.50224
2.50943
2.51661
2.52375
2.53084
2.53785
2.54479
2.55161
2.55833
2.56491
2.57136
2.57766
2.58381
2.5898
2.59564
2.60132
2.60683
2.61219
2.6174
2.62244
2.62734
2.63207
2.63665
2.64108
2.64534
2.64945
2.65339
2.65716
2.66075
2.36397
2.36855
2.3734
2.37849
2.3838
2.38931
2.39498
2.4008
2.40675
2.41284
2.41904
2.42535
2.43177
2.43829
2.44491
2.45162
2.45842
2.46531
2.47227
2.4793
2.48639
2.49353
2.50069
2.50787
2.51504
2.52219
2.52929
2.53634
2.54331
2.55019
2.55696
2.56361
2.57014
2.57652
2.58275
2.58884
2.59477
2.60054
2.60614
2.61159
2.61688
2.622
2.62696
2.63175
2.63638
2.64085
2.64514
2.64926
2.6532
2.65696
2.66053
2.36233
2.36688
2.37173
2.37686
2.38221
2.38777
2.39351
2.3994
2.40541
2.41154
2.41778
2.42411
2.43054
2.43707
2.4437
2.45041
2.4572
2.46406
2.471
2.478
2.48506
2.49216
2.4993
2.50646
2.51361
2.52076
2.52787
2.53493
2.54192
2.54884
2.55566
2.56237
2.56895
2.57541
2.58172
2.58789
2.5939
2.59975
2.60545
2.61098
2.61634
2.62153
2.62655
2.6314
2.63608
2.64058
2.6449
2.64903
2.65297
2.65672
2.66027
2.36007
2.36463
2.36957
2.37477
2.38023
2.38589
2.39173
2.39774
2.40388
2.41014
2.41649
2.42292
2.42943
2.43602
2.44267
2.44939
2.45618
2.46303
2.46994
2.4769
2.48392
2.49098
2.49807
2.50519
2.51232
2.51944
2.52654
2.5336
2.54061
2.54755
2.55441
2.56116
2.56781
2.57433
2.58071
2.58695
2.59304
2.59897
2.60474
2.61034
2.61577
2.62103
2.62612
2.63102
2.63574
2.64027
2.64462
2.64876
2.65271
2.65645
2.65997
2.3571
2.36179
2.36682
2.37217
2.37782
2.3837
2.38978
2.39601
2.40236
2.4088
2.41531
2.42187
2.42848
2.43512
2.44181
2.44853
2.4553
2.46212
2.46898
2.4759
2.48287
2.48988
2.49693
2.50401
2.5111
2.5182
2.52529
2.53235
2.53937
2.54632
2.55321
2.56
2.56669
2.57326
2.57971
2.58601
2.59217
2.59817
2.60401
2.60968
2.61518
2.6205
2.62564
2.63059
2.63535
2.63992
2.64429
2.64845
2.6524
2.65613
2.65964
2.35345
2.35826
2.36357
2.36919
2.37516
2.38135
2.38773
2.39422
2.40078
2.4074
2.41406
2.42074
2.42745
2.43416
2.4409
2.44765
2.45443
2.46124
2.46809
2.47498
2.48191
2.48888
2.49588
2.50292
2.50998
2.51705
2.52412
2.53117
2.53818
2.54515
2.55205
2.55887
2.5656
2.57221
2.57871
2.58507
2.59128
2.59735
2.60325
2.60898
2.61454
2.61992
2.62511
2.63011
2.63492
2.63952
2.64391
2.64808
2.65204
2.65577
2.65926
2.34915
2.35427
2.35982
2.36585
2.37212
2.37862
2.3853
2.39206
2.39888
2.40574
2.41261
2.41948
2.42633
2.43317
2.44
2.44681
2.45362
2.46044
2.46728
2.47414
2.48104
2.48797
2.49493
2.50193
2.50895
2.51598
2.52302
2.53005
2.53706
2.54402
2.55093
2.55777
2.56452
2.57117
2.57771
2.58411
2.59038
2.5965
2.60245
2.60825
2.61386
2.61929
2.62453
2.62958
2.63442
2.63905
2.64347
2.64766
2.65163
2.65535
2.65883
2.34416
2.34959
2.35557
2.36184
2.36851
2.37539
2.38244
2.38956
2.39671
2.40387
2.41101
2.41811
2.42516
2.43215
2.43909
2.44599
2.45285
2.45969
2.46653
2.47338
2.48025
2.48714
2.49406
2.50101
2.50799
2.51498
2.52199
2.52899
2.53598
2.54294
2.54985
2.55669
2.56346
2.57013
2.5767
2.58314
2.58945
2.59561
2.60162
2.60746
2.61313
2.61861
2.62389
2.62898
2.63386
2.63852
2.64297
2.64718
2.65115
2.65488
2.65836
2.33796
2.34399
2.3506
2.35727
2.36441
2.37171
2.37922
2.38671
2.39428
2.40178
2.40924
2.41661
2.42389
2.43107
2.43816
2.44516
2.4521
2.45898
2.46584
2.47268
2.47953
2.48638
2.49326
2.50017
2.5071
2.51405
2.52102
2.52798
2.53495
2.54188
2.54878
2.55563
2.5624
2.56909
2.57568
2.58215
2.58849
2.59469
2.60073
2.60662
2.61233
2.61785
2.62318
2.62831
2.63323
2.63792
2.64239
2.64663
2.65062
2.65435
2.65782
2.33147
2.33812
2.34489
2.35217
2.35963
2.36761
2.37552
2.38353
2.3915
2.39944
2.40725
2.41495
2.42251
2.42992
2.43719
2.44433
2.45136
2.45831
2.46519
2.47204
2.47886
2.48569
2.49253
2.49938
2.50627
2.51317
2.52009
2.52702
2.53394
2.54085
2.54773
2.55457
2.56134
2.56803
2.57463
2.58112
2.58749
2.59371
2.59979
2.60571
2.61146
2.61703
2.6224
2.62756
2.63252
2.63725
2.64175
2.646
2.65001
2.65375
2.65723
2.3253
2.33106
2.33834
2.34678
2.35471
2.36335
2.3717
2.38007
2.38844
2.39679
2.40505
2.41314
2.42102
2.4287
2.43618
2.44348
2.45063
2.45765
2.46457
2.47143
2.47825
2.48504
2.49184
2.49865
2.50548
2.51233
2.5192
2.52608
2.53296
2.53984
2.54669
2.55351
2.56027
2.56695
2.57356
2.58005
2.58644
2.59269
2.59879
2.60474
2.61053
2.61613
2.62153
2.62674
2.63172
2.63649
2.64102
2.6453
2.64933
2.65309
2.65657
2.31899
2.32438
2.33249
2.33973
2.34965
2.35852
2.36736
2.37621
2.3851
2.39396
2.40269
2.41119
2.41944
2.42741
2.43514
2.44262
2.4499
2.45701
2.46398
2.47085
2.47766
2.48443
2.49119
2.49795
2.50472
2.51152
2.51833
2.52516
2.53199
2.53883
2.54565
2.55243
2.55917
2.56585
2.57244
2.57894
2.58534
2.5916
2.59773
2.6037
2.60951
2.61514
2.62058
2.62582
2.63084
2.63564
2.6402
2.64451
2.64857
2.65235
2.65584
2.30858
2.317
2.32487
2.33408
2.34344
2.35319
2.36272
2.37217
2.38164
2.39103
2.40024
2.40918
2.4178
2.42609
2.43407
2.44175
2.44917
2.45637
2.4634
2.4703
2.4771
2.48385
2.49056
2.49727
2.50399
2.51072
2.51747
2.52424
2.53103
2.53781
2.54459
2.55134
2.55805
2.56471
2.57129
2.57778
2.58418
2.59045
2.59659
2.60258
2.60842
2.61408
2.61955
2.62482
2.62988
2.63471
2.6393
2.64364
2.64772
2.65153
2.65504
2.30139
2.30844
2.31735
2.32711
2.33741
2.34778
2.358
2.36813
2.37819
2.38812
2.39781
2.40717
2.41615
2.42476
2.43299
2.44087
2.44844
2.45574
2.46283
2.46976
2.47656
2.48328
2.48995
2.4966
2.50326
2.50992
2.51661
2.52332
2.53004
2.53677
2.5435
2.55021
2.55689
2.56352
2.57008
2.57657
2.58295
2.58923
2.59538
2.60138
2.60724
2.61292
2.61842
2.62372
2.62881
2.63368
2.63831
2.64269
2.6468
2.65063
2.65417
2.29597
2.29762
2.3073
2.31992
2.33139
2.34266
2.35357
2.36423
2.3749
2.38538
2.39552
2.40525
2.41457
2.42347
2.43194
2.44002
2.44773
2.45513
2.46228
2.46922
2.47601
2.4827
2.48933
2.49592
2.50251
2.50911
2.51573
2.52237
2.52903
2.5357
2.54238
2.54904
2.55568
2.56228
2.56882
2.57529
2.58166
2.58794
2.59409
2.6001
2.60597
2.61168
2.61721
2.62254
2.62766
2.63256
2.63723
2.64164
2.64579
2.64966
2.65323
2.28637
2.29482
2.30145
2.31239
2.32474
2.33745
2.34895
2.36059
2.37205
2.383
2.39344
2.40347
2.41309
2.42226
2.43096
2.43922
2.44706
2.45455
2.46174
2.46869
2.47547
2.48212
2.48869
2.49522
2.50174
2.50827
2.51481
2.52138
2.52797
2.53459
2.5412
2.54782
2.55442
2.56099
2.5675
2.57394
2.5803
2.58657
2.59272
2.59874
2.60462
2.61035
2.6159
2.62126
2.62642
2.63136
2.63606
2.64051
2.6447
2.6486
2.65221
2.27812
2.28899
2.29974
2.30749
2.31725
2.33159
2.34399
2.35641
2.36978
2.38131
2.39189
2.40202
2.41183
2.42121
2.4301
2.4385
2.44645
2.454
2.46122
2.46817
2.47492
2.48152
2.48803
2.49449
2.50093
2.50737
2.51384
2.52033
2.52686
2.53341
2.53998
2.54654
2.5531
2.55962
2.5661
2.57252
2.57887
2.58512
2.59126
2.59729
2.60318
2.60892
2.6145
2.61989
2.62508
2.63006
2.6348
2.63929
2.64352
2.64747
2.65111
2.27116
2.28264
2.2946
2.30365
2.31552
2.32434
2.34011
2.35512
2.36797
2.38008
2.39063
2.4008
2.41078
2.42035
2.4294
2.43791
2.44594
2.45352
2.46074
2.46767
2.47437
2.4809
2.48734
2.49371
2.50006
2.50641
2.5128
2.51922
2.52567
2.53216
2.53867
2.54518
2.5517
2.55819
2.56464
2.57103
2.57735
2.58359
2.58973
2.59575
2.60165
2.60741
2.61301
2.61843
2.62365
2.62867
2.63345
2.63799
2.64226
2.64625
2.64994
2.26598
2.27701
2.28892
2.30065
2.31271
2.32329
2.33776
2.35256
2.36591
2.37821
2.38925
2.39985
2.41006
2.41977
2.42892
2.4375
2.44555
2.45314
2.46033
2.4672
2.47382
2.48027
2.4866
2.49287
2.49912
2.50538
2.51168
2.51801
2.5244
2.53082
2.53727
2.54374
2.55021
2.55667
2.56309
2.56946
2.57576
2.58198
2.58811
2.59413
2.60003
2.60581
2.61143
2.61688
2.62214
2.62719
2.63202
2.6366
2.64091
2.64495
2.64869
2.26222
2.273
2.2851
2.29768
2.30959
2.32277
2.33556
2.35081
2.36421
2.37666
2.38828
2.39928
2.40968
2.4195
2.4287
2.4373
2.44533
2.45287
2.46
2.46677
2.47329
2.47962
2.48583
2.49198
2.49811
2.50426
2.51046
2.51671
2.52302
2.52938
2.53578
2.54221
2.54864
2.55506
2.56145
2.5678
2.57408
2.58028
2.5864
2.59242
2.59832
2.60411
2.60976
2.61524
2.62053
2.62563
2.63049
2.63512
2.63948
2.64356
2.64735
2.25992
2.27068
2.28269
2.29557
2.30788
2.32095
2.33598
2.35
2.36337
2.37608
2.38801
2.39922
2.40974
2.4196
2.42879
2.43735
2.44532
2.45277
2.45977
2.46642
2.47279
2.47897
2.48503
2.49102
2.49702
2.50305
2.50914
2.5153
2.52153
2.52783
2.53419
2.54057
2.54697
2.55337
2.55973
2.56605
2.57231
2.5785
2.5846
2.59061
2.59652
2.60232
2.60799
2.6135
2.61883
2.62397
2.62888
2.63354
2.63794
2.64207
2.64591
2.25874
2.26944
2.28142
2.29455
2.30673
2.32203
2.33607
2.35001
2.36337
2.37627
2.38843
2.39972
2.41027
2.42011
2.42924
2.4377
2.44554
2.45285
2.45969
2.46616
2.47234
2.47833
2.48419
2.49001
2.49584
2.50173
2.5077
2.51376
2.51992
2.52616
2.53247
2.53883
2.5452
2.55157
2.55791
2.56422
2.57045
2.57662
2.5827
2.5887
2.5946
2.60041
2.60611
2.61166
2.61703
2.6222
2.62714
2.63184
2.63627
2.64043
2.64432
2.25975
2.27013
2.28243
2.29561
2.30801
2.32201
2.3368
2.35092
2.36444
2.37729
2.38945
2.40082
2.41137
2.4211
2.43008
2.43837
2.44603
2.45314
2.45976
2.46601
2.47195
2.4777
2.48333
2.48894
2.49458
2.5003
2.50613
2.51209
2.51817
2.52436
2.53063
2.53695
2.5433
2.54966
2.55599
2.56227
2.56849
2.57463
2.58069
2.58666
2.59255
2.59836
2.60408
2.60967
2.61508
2.62028
2.62526
2.62997
2.63441
2.63859
2.64251
2.26126
2.27163
2.28336
2.29669
2.30975
2.32482
2.33918
2.35322
2.36666
2.37938
2.39134
2.40256
2.41294
2.42249
2.43128
2.43935
2.44678
2.45363
2.45998
2.46595
2.47161
2.47707
2.48243
2.48778
2.49319
2.49873
2.50441
2.51026
2.51626
2.52239
2.52863
2.53493
2.54126
2.5476
2.55391
2.56018
2.56638
2.5725
2.57853
2.58447
2.59032
2.59611
2.60184
2.60746
2.6129
2.61813
2.62312
2.62783
2.63224
2.63641
2.64035
2.26491
2.27542
2.28727
2.30022
2.31383
2.32795
2.34211
2.356
2.36933
2.38196
2.39378
2.40473
2.41489
2.42425
2.43277
2.44059
2.44773
2.45428
2.46032
2.46596
2.47129
2.47642
2.48146
2.48651
2.49166
2.49698
2.5025
2.50823
2.51415
2.52023
2.52642
2.5327
2.53903
2.54536
2.55166
2.5579
2.56408
2.57016
2.57616
2.58205
2.58786
2.59357
2.59926
2.6049
2.61035
2.61558
2.62056
2.62522
2.6295
2.6337
2.63776
2.26857
2.27902
2.2914
2.30439
2.31778
2.33172
2.34577
2.35951
2.37265
2.38506
2.39661
2.40731
2.41714
2.42619
2.43444
2.44194
2.44874
2.45493
2.46061
2.46588
2.47086
2.47562
2.48032
2.48504
2.4899
2.49498
2.50033
2.50594
2.51178
2.5178
2.52396
2.53022
2.53654
2.54286
2.54915
2.55537
2.56152
2.56756
2.57351
2.57936
2.5851
2.59073
2.59622
2.60177
2.60717
2.61238
2.61731
2.62195
2.62629
2.63045
2.63465
2.2725
2.28375
2.29559
2.30826
2.32149
2.33552
2.34948
2.36303
2.3759
2.38804
2.39932
2.40977
2.41934
2.42804
2.43592
2.44306
2.44949
2.4553
2.46057
2.46543
2.47005
2.47435
2.47872
2.48317
2.48777
2.49263
2.49781
2.50332
2.5091
2.51506
2.52119
2.52743
2.53373
2.54004
2.54631
2.55252
2.55863
2.56459
2.57043
2.57615
2.58174
2.58729
2.59277
2.59788
2.60318
2.60849
2.61355
2.61783
2.62202
2.62649
2.63087
2.27661
2.28786
2.30037
2.31407
2.32837
2.34203
2.35534
2.36813
2.38033
2.39191
2.40273
2.4128
2.42208
2.43049
2.43801
2.44477
2.45083
2.45626
2.46118
2.46569
2.4701
2.47414
2.47779
2.48169
2.48581
2.49028
2.49518
2.50049
2.50611
2.51199
2.51806
2.52426
2.53056
2.53687
2.54309
2.54922
2.55527
2.56104
2.56669
2.57239
2.57787
2.58322
2.58849
2.59384
2.59857
2.60346
2.60878
2.61295
2.61705
2.62152
2.62561
2.28067
2.29311
2.30595
2.31935
2.33329
2.34694
2.3601
2.37271
2.38452
2.3959
2.40621
2.41576
2.42444
2.43225
2.43931
2.44558
2.45117
2.45609
2.46036
2.46439
2.46779
2.47151
2.47506
2.47878
2.48279
2.48713
2.49192
2.4972
2.50278
2.50858
2.51456
2.52065
2.52687
2.53319
2.53926
2.54522
2.55145
2.55735
2.56301
2.56818
2.57337
2.57853
2.58343
2.58835
2.59348
2.59791
2.60267
2.60668
2.61056
2.61544
2.61996
2.28701
2.29877
2.31199
2.32633
2.34022
2.35349
2.366
2.37827
2.38981
2.40061
2.41048
2.41954
2.42797
2.43533
2.44178
2.44735
2.45225
2.45641
2.4598
2.46289
2.46676
2.46993
2.47294
2.47593
2.47954
2.48355
2.4881
2.49338
2.49893
2.50456
2.51033
2.51614
2.52191
2.52906
2.53561
2.54181
2.54722
2.55277
2.55819
2.56329
2.56802
2.57273
2.57722
2.58189
2.58682
2.58985
2.5943
2.59784
2.60359
2.60771
2.61403
2.29515
2.30685
2.31977
2.33295
2.34646
2.35989
2.37296
2.38511
2.3964
2.40683
2.41634
2.4249
2.43248
2.4391
2.44472
2.4493
2.45367
2.45796
2.46087
2.462
2.46359
2.46619
2.46934
2.47259
2.47553
2.47895
2.48294
2.48822
2.49419
2.50031
2.50666
2.51306
2.51947
2.52452
2.53054
2.53663
2.54239
2.54772
2.55272
2.5571
2.56131
2.56569
2.56972
2.57445
2.57878
2.58234
2.58835
2.59153
2.59545
2.60108
2.60363
2.30572
2.31704
2.32944
2.34237
2.3555
2.36854
2.38118
2.39281
2.40363
2.41351
2.42235
2.43034
2.43793
2.44409
2.44891
2.45146
2.45378
2.45588
2.45797
2.46052
2.46219
2.46262
2.46584
2.46878
2.4721
2.47579
2.48015
2.48363
2.48809
2.49372
2.49989
2.50634
2.51274
2.51888
2.52511
2.53136
2.53671
2.54126
2.54571
2.54964
2.55328
2.55755
2.5611
2.56588
2.56972
2.5733
2.57806
2.58319
2.5845
2.59142
2.59706
2.31998
2.33
2.34157
2.3536
2.36587
2.37805
2.38995
2.40132
2.41158
2.42036
2.42793
2.43455
2.43995
2.4449
2.44904
2.45289
2.45506
2.45545
2.45758
2.45919
2.46026
2.46119
2.4608
2.46184
2.46402
2.46722
2.47154
2.47659
2.48213
2.488
2.49438
2.50092
2.50684
2.51291
2.51881
2.52429
2.52886
2.53335
2.53744
2.54107
2.54344
2.5477
2.55139
2.55648
2.55916
2.56202
2.56692
2.57202
2.5769
2.58278
2.58913
2.33588
2.34495
2.35551
2.36609
2.37706
2.38796
2.39846
2.40859
2.41781
2.42669
2.43393
2.44036
2.4448
2.44847
2.45164
2.45407
2.4554
2.45639
2.45589
2.45652
2.45671
2.45588
2.45541
2.45586
2.45744
2.45992
2.46346
2.46733
2.47232
2.47828
2.48495
2.49197
2.49922
2.50536
2.51089
2.51585
2.52023
2.52388
2.52751
2.53137
2.53416
2.53737
2.54052
2.54399
2.54781
2.552
2.55628
2.56179
2.56822
2.57359
2.57763
2.35088
2.35922
2.36921
2.37896
2.3893
2.39922
2.4089
2.41787
2.42608
2.43352
2.43965
2.44468
2.44859
2.45142
2.45329
2.45407
2.45393
2.4535
2.45238
2.45138
2.45107
2.45144
2.45154
2.45187
2.45308
2.4551
2.45835
2.4622
2.4669
2.47243
2.47844
2.48436
2.49147
2.49711
2.50182
2.50629
2.50956
2.51347
2.51721
2.52025
2.52322
2.52587
2.52844
2.5325
2.53596
2.54075
2.5471
2.55207
2.55622
2.56088
2.56564
2.36909
2.37677
2.38496
2.39317
2.40145
2.41049
2.41905
2.42672
2.43356
2.43945
2.44391
2.44719
2.45
2.45194
2.45287
2.45369
2.45374
2.45311
2.45168
2.44987
2.44893
2.448
2.44752
2.44758
2.44798
2.44987
2.45298
2.45649
2.46083
2.46638
2.47322
2.47797
2.48251
2.48777
2.49185
2.49563
2.49911
2.50236
2.50594
2.50808
2.51085
2.51315
2.51568
2.52057
2.5261
2.53018
2.53365
2.53816
2.54265
2.54688
2.55269
2.38528
2.39258
2.40007
2.40771
2.41527
2.42154
2.42819
2.43396
2.43904
2.44453
2.44863
2.45126
2.4537
2.45467
2.45477
2.45463
2.4543
2.45333
2.45193
2.44969
2.44678
2.44508
2.44436
2.44476
2.44515
2.44725
2.45002
2.45371
2.45813
2.46168
2.46503
2.47033
2.47327
2.47807
2.48144
2.48453
2.48755
2.49073
2.49276
2.49462
2.49753
2.50069
2.50525
2.50818
2.51133
2.51463
2.51941
2.52356
2.5284
2.53371
2.53968
2.39792
2.40477
2.41158
2.41834
2.42441
2.4302
2.43718
2.44152
2.44557
2.44969
2.45267
2.45486
2.45668
2.45742
2.45739
2.45627
2.45375
2.45187
2.45245
2.44859
2.44597
2.44403
2.44304
2.44236
2.44265
2.44396
2.44586
2.44855
2.45182
2.45517
2.45855
2.4621
2.46518
2.46805
2.4727
2.47388
2.4752
2.4775
2.47896
2.48139
2.48434
2.48656
2.48934
2.49237
2.49564
2.49908
2.50475
2.50896
2.51456
2.52097
2.5276
2.40986
2.41613
2.42254
2.43003
2.43253
2.43862
2.44481
2.4481
2.452
2.45533
2.45786
2.45963
2.46035
2.46043
2.45986
2.45852
2.45633
2.45384
2.45239
2.44904
2.44664
2.44457
2.44312
2.44224
2.44202
2.44243
2.44341
2.44511
2.44706
2.44923
2.45206
2.45474
2.45793
2.45903
2.46073
2.46135
2.46224
2.46326
2.46462
2.46591
2.46801
2.47089
2.47337
2.4767
2.48032
2.48458
2.48977
2.49545
2.50168
2.50873
2.51616
2.4213
2.42703
2.43281
2.43984
2.44589
2.44621
2.45191
2.45613
2.45934
2.46188
2.46377
2.46491
2.46527
2.4649
2.46389
2.46217
2.4599
2.45728
2.45425
2.4515
2.44877
2.44629
2.44435
2.44299
2.44201
2.44156
2.44155
2.44233
2.44347
2.44523
2.44657
2.44729
2.44724
2.44804
2.44809
2.44883
2.44883
2.44918
2.44988
2.45091
2.45213
2.45547
2.45763
2.4619
2.46565
2.47065
2.47627
2.4826
2.48961
2.49732
2.50551
2.43233
2.43757
2.44287
2.44855
2.45441
2.4592
2.45902
2.46414
2.46718
2.46927
2.47059
2.47113
2.47105
2.47022
2.46877
2.46658
2.46391
2.46091
2.45782
2.45438
2.45133
2.44846
2.44613
2.44453
2.4432
2.44218
2.44115
2.43999
2.43955
2.43947
2.43935
2.43862
2.43743
2.43687
2.43627
2.43572
2.43501
2.43503
2.43534
2.43619
2.4376
2.4403
2.44324
2.44731
2.45189
2.45741
2.46363
2.47065
2.47836
2.48681
2.49577
2.44366
2.44865
2.45364
2.45862
2.46331
2.46741
2.46992
2.47319
2.47573
2.47716
2.47793
2.47804
2.47749
2.47632
2.47439
2.47197
2.46903
2.46582
2.46239
2.45911
2.4558
2.45268
2.44951
2.44632
2.44396
2.44185
2.43991
2.43782
2.4357
2.43394
2.43224
2.43034
2.42826
2.42626
2.42445
2.42292
2.42179
2.42128
2.42101
2.42195
2.42342
2.42599
2.42948
2.4338
2.43898
2.44505
2.45191
2.45953
2.46798
2.47716
2.48698
2.45471
2.45957
2.46443
2.46915
2.47359
2.4775
2.4807
2.48258
2.48469
2.48542
2.48579
2.48544
2.48438
2.48268
2.48031
2.47739
2.47403
2.47035
2.46658
2.46279
2.45907
2.45549
2.45195
2.44845
2.44516
2.44197
2.43883
2.43554
2.43249
2.42884
2.42581
2.42253
2.41924
2.41592
2.41301
2.41039
2.40873
2.40761
2.40736
2.40799
2.4097
2.41247
2.41629
2.42111
2.42689
2.43359
2.44107
2.44931
2.45837
2.46834
2.47903
2.46518
2.46997
2.47477
2.4795
2.48411
2.48779
2.49015
2.49251
2.49352
2.49413
2.49405
2.49321
2.49169
2.48949
2.48668
2.48335
2.47963
2.4756
2.47147
2.46725
2.46301
2.45883
2.45467
2.45057
2.44649
2.44235
2.43808
2.43369
2.42915
2.4246
2.42006
2.41527
2.41055
2.40623
2.40196
2.39848
2.3959
2.39441
2.39396
2.39451
2.39637
2.39949
2.40379
2.4092
2.4156
2.42299
2.43109
2.4398
2.44933
2.46019
2.47173
2.47479
2.47957
2.48437
2.48908
2.49357
2.49695
2.49933
2.50124
2.50201
2.50226
2.50177
2.50051
2.49853
2.49588
2.49266
2.48898
2.48492
2.48062
2.47617
2.47162
2.467
2.46235
2.45766
2.45295
2.44811
2.44314
2.43778
2.43241
2.42664
2.42085
2.41481
2.40874
2.40264
2.39691
2.39148
2.38685
2.38332
2.38139
2.38075
2.38127
2.38333
2.38686
2.39173
2.39784
2.40499
2.41302
2.42173
2.43097
2.44085
2.45195
2.4647
2.4834
2.48816
2.49294
2.49756
2.50169
2.50504
2.50747
2.5089
2.50948
2.50949
2.50866
2.50704
2.50469
2.5017
2.49817
2.4942
2.48992
2.48541
2.4807
2.47589
2.47091
2.46599
2.46072
2.45559
2.45004
2.44428
2.43816
2.43171
2.42484
2.41775
2.41029
2.40281
2.39542
2.38817
2.38153
2.37556
2.37102
2.36844
2.36758
2.3681
2.37045
2.37452
2.38014
2.38708
2.39509
2.40391
2.41328
2.4229
2.43265
2.44341
2.45709
2.49084
2.49553
2.50024
2.50471
2.50868
2.51185
2.51414
2.51535
2.51577
2.51555
2.51447
2.51259
2.51
2.5068
2.50308
2.49899
2.49458
2.48994
2.4851
2.48012
2.475
2.46975
2.46428
2.45861
2.45258
2.44614
2.4392
2.43181
2.42388
2.41552
2.40666
2.39765
2.38882
2.38006
2.37188
2.3646
2.35874
2.35537
2.35422
2.35475
2.35748
2.3622
2.36865
2.37646
2.38528
2.39471
2.40446
2.41414
2.42332
2.4327
2.44662
2.49708
2.50165
2.50621
2.51053
2.51431
2.51736
2.51946
2.52053
2.52084
2.52046
2.51921
2.5172
2.51448
2.51122
2.50746
2.50335
2.49893
2.49428
2.48944
2.48443
2.47924
2.47387
2.46821
2.46222
2.45576
2.44876
2.44112
2.43283
2.42381
2.4142
2.40398
2.39337
2.38283
2.37247
2.36269
2.35395
2.34683
2.34253
2.341
2.34157
2.34476
2.35022
2.35753
2.36623
2.37589
2.38603
2.3963
2.40637
2.4154
2.42196
2.43065
2.66466
2.66805
2.67128
2.67436
2.67727
2.68
2.68255
2.68489
2.68703
2.68895
2.69063
2.69206
2.69322
2.69411
2.6947
2.69499
2.69497
2.69464
2.69395
2.69289
2.69146
2.68965
2.68747
2.6849
2.68193
2.67858
2.66456
2.66789
2.67106
2.67406
2.67688
2.6795
2.68193
2.68415
2.68615
2.68792
2.68945
2.69073
2.69174
2.69248
2.69293
2.69308
2.69294
2.69248
2.69168
2.69052
2.68902
2.68716
2.68494
2.68235
2.67939
2.67607
2.66439
2.66767
2.67077
2.67369
2.67641
2.67894
2.68125
2.68334
2.68521
2.68684
2.68823
2.68937
2.69024
2.69085
2.69117
2.6912
2.69096
2.69039
2.68949
2.68825
2.68669
2.68479
2.68255
2.67996
2.67703
2.67374
2.66417
2.6674
2.67044
2.67328
2.67591
2.67833
2.68053
2.68251
2.68425
2.68575
2.68701
2.68801
2.68875
2.68923
2.68943
2.68936
2.68901
2.68835
2.68737
2.68608
2.68447
2.68255
2.68031
2.67773
2.67483
2.6716
2.66391
2.66709
2.67007
2.67283
2.67538
2.6777
2.67979
2.68166
2.68328
2.68466
2.68579
2.68666
2.68728
2.68764
2.68772
2.68756
2.68711
2.68637
2.68533
2.684
2.68237
2.68044
2.6782
2.67566
2.67281
2.66964
2.66362
2.66675
2.66966
2.67235
2.67482
2.67705
2.67904
2.68079
2.6823
2.68356
2.68457
2.68533
2.68583
2.68607
2.68606
2.68581
2.68527
2.68445
2.68336
2.682
2.68036
2.67844
2.67624
2.67374
2.67095
2.66785
2.66328
2.66637
2.66923
2.67185
2.67423
2.67638
2.67827
2.67992
2.68132
2.68247
2.68337
2.68401
2.6844
2.68454
2.68445
2.6841
2.68349
2.68261
2.68148
2.68009
2.67845
2.67655
2.67439
2.67195
2.66925
2.66625
2.66292
2.66596
2.66877
2.67132
2.67363
2.67569
2.6775
2.67905
2.68034
2.68138
2.68217
2.68271
2.683
2.68305
2.68287
2.68244
2.68175
2.68083
2.67966
2.67827
2.67664
2.67477
2.67265
2.6703
2.66769
2.66481
2.66251
2.66552
2.66827
2.67077
2.67302
2.675
2.67671
2.67817
2.67937
2.68031
2.68099
2.68143
2.68162
2.68158
2.68132
2.68081
2.68006
2.6791
2.67792
2.67652
2.67491
2.67309
2.67104
2.66877
2.66627
2.66353
2.66206
2.66504
2.66775
2.6702
2.67238
2.67428
2.67592
2.67729
2.67839
2.67923
2.67982
2.68016
2.68025
2.68013
2.67979
2.6792
2.67841
2.67741
2.67622
2.67484
2.67327
2.6715
2.66954
2.66737
2.665
2.66241
2.66157
2.66452
2.66719
2.66959
2.67171
2.67355
2.67511
2.6764
2.67741
2.67815
2.67864
2.67889
2.67889
2.67869
2.67826
2.67761
2.67678
2.67576
2.67457
2.67321
2.67168
2.66999
2.66813
2.66609
2.66387
2.66145
2.66102
2.66395
2.6666
2.66895
2.67102
2.6728
2.67429
2.67549
2.67641
2.67707
2.67746
2.67761
2.67753
2.67724
2.67672
2.67602
2.67514
2.67411
2.67292
2.6716
2.67014
2.66855
2.66681
2.66492
2.66288
2.66066
2.66042
2.66334
2.66596
2.66828
2.6703
2.67202
2.67344
2.67457
2.6754
2.67596
2.67626
2.67631
2.67615
2.67576
2.67516
2.6744
2.67348
2.67244
2.67127
2.67
2.66862
2.66714
2.66555
2.66384
2.662
2.66001
2.65977
2.66267
2.66527
2.66756
2.66954
2.67121
2.67256
2.67361
2.67436
2.67483
2.67503
2.67498
2.67472
2.67422
2.67355
2.67272
2.67177
2.67071
2.66957
2.66836
2.66708
2.66574
2.66432
2.66282
2.66122
2.6595
2.65904
2.66194
2.66453
2.6668
2.66874
2.67036
2.67165
2.67263
2.67329
2.67366
2.67375
2.6736
2.67321
2.67261
2.67185
2.67095
2.66996
2.6689
2.66779
2.66665
2.6655
2.66432
2.66311
2.66186
2.66053
2.65912
2.65826
2.66116
2.66374
2.66599
2.6679
2.66947
2.67071
2.6716
2.67217
2.67243
2.67241
2.67214
2.67162
2.6709
2.67003
2.66906
2.66801
2.66694
2.66588
2.66483
2.66382
2.66283
2.66187
2.66091
2.65991
2.65885
2.65741
2.66032
2.6629
2.66514
2.66702
2.66855
2.66972
2.67053
2.671
2.67114
2.671
2.67058
2.66991
2.66904
2.66805
2.66698
2.66588
2.6648
2.66377
2.66283
2.66199
2.66124
2.66057
2.65994
2.65933
2.65868
2.65648
2.65941
2.662
2.66423
2.66609
2.66757
2.66868
2.66941
2.66977
2.66978
2.6695
2.66889
2.66805
2.66701
2.66587
2.66467
2.66349
2.66239
2.66141
2.66061
2.65997
2.65951
2.65917
2.65895
2.65877
2.6586
2.6555
2.65845
2.66105
2.66327
2.66512
2.66656
2.6676
2.66823
2.66847
2.66834
2.66788
2.66707
2.66601
2.66476
2.66343
2.66207
2.6608
2.65967
2.65874
2.65809
2.6577
2.65757
2.65765
2.65789
2.65823
2.6586
2.65444
2.65742
2.66004
2.66227
2.6641
2.6655
2.66647
2.667
2.66711
2.66682
2.66613
2.66509
2.66378
2.66228
2.6607
2.65914
2.65778
2.65661
2.65575
2.65529
2.65521
2.65547
2.65603
2.6568
2.65771
2.65868
2.65331
2.65633
2.65898
2.66122
2.66304
2.66441
2.66531
2.66573
2.66568
2.6652
2.66428
2.66296
2.6614
2.6596
2.65774
2.65596
2.65437
2.65312
2.65245
2.65229
2.65259
2.65337
2.65449
2.65583
2.65734
2.65895
2.65211
2.65518
2.65786
2.66014
2.66196
2.66329
2.66412
2.66442
2.66423
2.66354
2.66235
2.66073
2.65891
2.65673
2.6544
2.65238
2.65053
2.64895
2.64828
2.64835
2.64908
2.65054
2.65253
2.6548
2.65718
2.65967
2.65083
2.65396
2.6567
2.65902
2.66085
2.66216
2.66293
2.66311
2.66277
2.66189
2.66042
2.65839
2.65609
2.65327
2.65015
2.64769
2.64586
2.6448
2.64433
2.64466
2.64588
2.648
2.65076
2.65392
2.6573
2.66079
2.64945
2.65265
2.65547
2.65784
2.65971
2.66102
2.66173
2.66182
2.66129
2.66015
2.65828
2.65547
2.65241
2.64998
2.64738
2.64421
2.64114
2.63923
2.63864
2.63944
2.6415
2.64464
2.64854
2.65289
2.6574
2.66235
2.64793
2.65121
2.65412
2.65659
2.65852
2.65986
2.66052
2.66043
2.65958
2.65765
2.65566
2.6539
2.65088
2.64666
2.64291
2.63922
2.63598
2.63422
2.63394
2.63527
2.63842
2.64254
2.64762
2.65305
2.65836
2.66326
2.6462
2.64958
2.65261
2.65518
2.65723
2.65852
2.65901
2.65821
2.65751
2.65679
2.65428
2.65126
2.64774
2.64336
2.63848
2.63485
2.6318
2.63007
2.63016
2.63219
2.6362
2.641
2.64702
2.65321
2.65931
2.66525
2.64412
2.64765
2.65082
2.65349
2.65559
2.65642
2.65688
2.65747
2.65622
2.65467
2.6528
2.64966
2.64546
2.64119
2.63663
2.63248
2.62941
2.62799
2.62788
2.63014
2.63603
2.64213
2.64788
2.65426
2.66081
2.66734
2.64166
2.64535
2.64861
2.65095
2.65326
2.65517
2.6553
2.65534
2.65518
2.65352
2.65098
2.64892
2.6453
2.63971
2.63609
2.6322
2.62949
2.62891
2.63035
2.63242
2.63644
2.64291
2.65021
2.65724
2.66429
2.67169
2.63872
2.6425
2.64554
2.64919
2.65083
2.65211
2.65396
2.65462
2.65354
2.65275
2.65068
2.64793
2.64501
2.64108
2.63765
2.63461
2.63278
2.63252
2.63425
2.63743
2.64186
2.64786
2.65488
2.66206
2.66912
2.67617
2.63472
2.63839
2.64292
2.64547
2.64867
2.65096
2.65194
2.65318
2.65271
2.65169
2.65004
2.64795
2.64564
2.64326
2.64075
2.63873
2.63787
2.63823
2.63997
2.64332
2.64792
2.65354
2.65998
2.66615
2.67263
2.67891
2.63056
2.63374
2.63811
2.64312
2.64519
2.64824
2.64972
2.65055
2.65069
2.65024
2.64933
2.64795
2.64635
2.64483
2.64361
2.64271
2.64268
2.64365
2.64589
2.64874
2.65273
2.65769
2.66366
2.67021
2.67662
2.68268
2.62395
2.63064
2.63297
2.63777
2.64108
2.64387
2.64601
2.64761
2.64855
2.64887
2.64874
2.64821
2.64743
2.6466
2.64582
2.6455
2.6458
2.64694
2.64904
2.65244
2.6569
2.66225
2.66765
2.67441
2.68016
2.68613
2.61773
2.6229
2.62764
2.63179
2.63527
2.63854
2.64146
2.64376
2.64533
2.6463
2.64676
2.64686
2.64678
2.64672
2.64694
2.64764
2.64889
2.65082
2.65352
2.65703
2.6615
2.66672
2.67218
2.67811
2.68357
2.68879
2.61007
2.61614
2.62123
2.62626
2.6306
2.63447
2.63742
2.6398
2.64165
2.6431
2.64434
2.64532
2.64619
2.64705
2.64802
2.6495
2.65137
2.65371
2.65681
2.66054
2.66498
2.66987
2.67502
2.68034
2.68547
2.69031
2.60275
2.60945
2.61349
2.61794
2.62183
2.6266
2.6301
2.6331
2.63552
2.63788
2.64034
2.64204
2.64368
2.64532
2.64711
2.64915
2.65156
2.65438
2.65781
2.6618
2.66634
2.67125
2.67638
2.68154
2.68654
2.69121
2.59274
2.60108
2.60328
2.60849
2.61321
2.6179
2.6219
2.62567
2.62912
2.63229
2.63524
2.63777
2.64013
2.64239
2.64476
2.64731
2.65018
2.65346
2.65725
2.66154
2.66629
2.67136
2.67661
2.68183
2.68686
2.69153
2.5827
2.58842
2.59313
2.59813
2.60349
2.60869
2.61336
2.61795
2.62209
2.62587
2.62934
2.63245
2.63529
2.63802
2.64079
2.64374
2.64701
2.6507
2.65488
2.65956
2.66468
2.6701
2.67567
2.68118
2.68646
2.69134
2.57077
2.57646
2.58188
2.58778
2.59335
2.59919
2.60453
2.6096
2.6143
2.61856
2.62241
2.62589
2.62905
2.63208
2.63513
2.63838
2.642
2.64607
2.65069
2.65585
2.66149
2.66746
2.67357
2.6796
2.68536
2.69066
2.55835
2.56464
2.57093
2.57718
2.58343
2.58963
2.59551
2.601
2.60604
2.61057
2.61462
2.61823
2.62151
2.62461
2.62776
2.63117
2.63504
2.63947
2.64455
2.6503
2.65662
2.66335
2.67025
2.67707
2.68357
2.68954
2.54641
2.55308
2.55998
2.56684
2.57362
2.58022
2.58644
2.59218
2.59735
2.60191
2.6059
2.60941
2.61257
2.61552
2.61856
2.62195
2.62593
2.63066
2.63624
2.64268
2.64986
2.6576
2.66559
2.67351
2.68105
2.68796
2.5348
2.54213
2.54958
2.55698
2.5642
2.5711
2.5775
2.58328
2.58836
2.5927
2.59637
2.59949
2.60222
2.60478
2.60742
2.61054
2.61445
2.61937
2.62544
2.63267
2.64093
2.64997
2.6594
2.66881
2.67778
2.68596
2.52395
2.53193
2.53994
2.5478
2.55536
2.56244
2.56887
2.57449
2.57922
2.58307
2.58611
2.58851
2.59049
2.59231
2.59422
2.59674
2.60031
2.60525
2.61177
2.61989
2.62944
2.64011
2.65142
2.6628
2.67366
2.68352
2.51404
2.52264
2.53119
2.53949
2.5473
2.55446
2.56076
2.56603
2.57018
2.57322
2.57529
2.5766
2.57745
2.57811
2.57892
2.58044
2.58331
2.58801
2.59487
2.60392
2.61499
2.62767
2.64134
2.65525
2.6686
2.68068