/*--------------------------------*- C++ -*----------------------------------*\
  =========                 |
  \\      /  F ield         | OpenFOAM: The Open Source CFD Toolbox
   \\    /   O peration     | Website:  https://openfoam.org
    \\  /    A nd           | Version:  10
     \\/     M anipulation  |
\*---------------------------------------------------------------------------*/
FoamFile
{
    format      ascii;
    class       surfaceScalarField;
    location    "0.902556";
    object      phi;
}
// * * * * * * * * * * * * * * * * * * * * * * * * * * * * * * * * * * * * * //

dimensions      [1 0 -1 0 0 0 0];

internalField   nonuniform List<scalar> 
31108
(
0.000532594
-0.000103437
0.000519701
-0.000100747
0.000506653
-9.76474e-05
0.000493557
-9.42304e-05
0.000480473
-9.05419e-05
0.000467445
-8.66619e-05
0.000454517
-8.26386e-05
0.00044173
-7.8526e-05
0.000429123
-7.43688e-05
0.000416731
-7.02071e-05
0.000404584
-6.60723e-05
0.000392713
-6.19922e-05
0.000381149
-5.79876e-05
0.000369918
-5.40753e-05
0.000359046
-5.02679e-05
0.000348546
-4.65743e-05
0.000338433
-4.29994e-05
0.000328716
-3.95472e-05
0.000319399
-3.6219e-05
0.00031049
-3.30155e-05
0.000301991
-2.99374e-05
0.000293905
-2.69845e-05
0.000286238
-2.41571e-05
0.000278988
-2.14562e-05
0.000272157
-1.88813e-05
0.000265749
-1.64343e-05
0.000259761
-1.41152e-05
0.000254195
-1.19255e-05
0.00024905
-9.86625e-06
0.000244325
-7.93879e-06
0.000240019
-6.1443e-06
0.000236127
-4.48443e-06
0.000232647
-2.96032e-06
0.000229573
-1.57303e-06
0.000226901
-3.23474e-07
0.000224624
7.87803e-07
0.000222735
1.76123e-06
0.000221223
2.59708e-06
0.000220078
3.29637e-06
0.000219289
3.86143e-06
0.000218841
4.29462e-06
0.000218722
4.6e-06
0.000218914
4.7817e-06
0.000219404
4.84535e-06
0.000220173
4.79835e-06
0.000221207
4.6478e-06
0.000222478
4.40315e-06
0.000223976
4.07464e-06
0.000225677
3.6747e-06
0.000227557
3.21643e-06
2.71434e-06
0.000229602
0.000535614
-9.00137e-05
0.000523017
-8.70879e-05
0.000510242
-8.3914e-05
0.000497366
-8.04661e-05
0.00048445
-7.683e-05
0.000471537
-7.30741e-05
0.000458677
-6.92432e-05
0.000445918
-6.53834e-05
0.000433304
-6.15341e-05
0.000420869
-5.77269e-05
0.000408655
-5.39882e-05
0.000396698
-5.03394e-05
0.000385032
-4.67955e-05
0.000373689
-4.33667e-05
0.000362696
-4.00604e-05
0.000352068
-3.68802e-05
0.000341822
-3.38273e-05
0.00033197
-3.09011e-05
0.000322519
-2.81007e-05
0.000313474
-2.54229e-05
0.000304841
-2.28664e-05
0.000296621
-2.04286e-05
0.000288821
-1.81088e-05
0.000281441
-1.5906e-05
0.000274484
-1.38201e-05
0.000267949
-1.18513e-05
0.000261834
-1.00004e-05
0.000256142
-8.26823e-06
0.000250871
-6.65611e-06
0.000246019
-5.16536e-06
0.000241585
-3.79751e-06
0.000237569
-2.55441e-06
0.000233963
-1.43678e-06
0.000230766
-4.45859e-07
0.000227971
4.17728e-07
0.000225571
1.15378e-06
0.000223562
1.76295e-06
0.000221928
2.24626e-06
0.000220665
2.60516e-06
0.000219761
2.84259e-06
0.000219202
2.96202e-06
0.000218977
2.96814e-06
0.000219065
2.86639e-06
0.00021946
2.6636e-06
0.000220139
2.36753e-06
0.000221087
1.98722e-06
0.000222285
1.53243e-06
0.000223717
1.01482e-06
0.000225364
4.47313e-07
0.000227206
-1.56009e-07
-7.79649e-07
0.000229224
0.000538487
-7.69408e-05
0.000526203
-7.37455e-05
0.000513738
-7.04197e-05
0.000501012
-6.68538e-05
0.000488208
-6.32295e-05
0.000475364
-5.95391e-05
0.00046253
-5.58513e-05
0.000449758
-5.21989e-05
0.000437095
-4.86165e-05
0.000424584
-4.51303e-05
0.000412274
-4.17611e-05
0.000400208
-3.85228e-05
0.000388423
-3.54238e-05
0.000376951
-3.24676e-05
0.000365824
-2.96549e-05
0.000355062
-2.6985e-05
0.000344681
-2.44532e-05
0.000334698
-2.20555e-05
0.000325117
-1.97853e-05
0.000315945
-1.76376e-05
0.000307186
-1.5607e-05
0.000298843
-1.36894e-05
0.000290921
-1.18818e-05
0.000283421
-1.01822e-05
0.000276342
-8.58947e-06
0.000269687
-7.10293e-06
0.000263455
-5.72328e-06
0.000257644
-4.45125e-06
0.000252256
-3.28834e-06
0.000247285
-2.23599e-06
0.000242734
-1.29583e-06
0.000238599
-4.70138e-07
0.000234876
2.40616e-07
0.000231562
8.35383e-07
0.000228653
1.31383e-06
0.000226142
1.67588e-06
0.00022402
1.92238e-06
0.000222279
2.05474e-06
0.00022091
2.07503e-06
0.000219903
1.98666e-06
0.000219245
1.79395e-06
0.000218925
1.50216e-06
0.000218928
1.11757e-06
0.00021924
6.47916e-07
0.000219847
1.01902e-07
0.000220731
-5.09976e-07
0.000221875
-1.17748e-06
0.000223259
-1.88851e-06
0.000224875
-2.62972e-06
0.000226695
-3.38679e-06
-4.14253e-06
0.000228711
0.000541526
-6.41522e-05
0.000529544
-6.07064e-05
0.000517151
-5.7051e-05
0.000504608
-5.33754e-05
0.000491859
-4.9669e-05
0.000479022
-4.59995e-05
0.000466148
-4.24035e-05
0.000453297
-3.8918e-05
0.000440529
-3.55692e-05
0.0004279
-3.23775e-05
0.000415463
-2.93574e-05
0.000403261
-2.65156e-05
0.000391331
-2.38521e-05
0.000379708
-2.13615e-05
0.000368429
-1.90396e-05
0.000357517
-1.68793e-05
0.000346996
-1.48716e-05
0.000336876
-1.30063e-05
0.000327165
-1.12735e-05
0.000317872
-9.6632e-06
0.000308998
-8.1668e-06
0.000300545
-6.77658e-06
0.000292515
-5.48638e-06
0.000284907
-4.29362e-06
0.000277722
-3.19645e-06
0.000270958
-2.19444e-06
0.000264617
-1.28802e-06
0.000258697
-4.78795e-07
0.0002532
2.32217e-07
0.000248123
8.43459e-07
0.000243464
1.35377e-06
0.000239221
1.76154e-06
0.000235391
2.06577e-06
0.00023197
2.26512e-06
0.000228955
2.35938e-06
0.000226339
2.34862e-06
0.000224114
2.23368e-06
0.000222275
2.01634e-06
0.00022081
1.69919e-06
0.000219712
1.28603e-06
0.000218969
7.81705e-07
0.00021857
1.92229e-07
0.0002185
-4.75027e-07
0.000218746
-1.21219e-06
0.000219293
-2.01007e-06
0.000220132
-2.85706e-06
0.000221238
-3.74209e-06
0.000222601
-4.65207e-06
0.000224202
-5.574e-06
0.000226024
-6.49208e-06
-7.39128e-06
0.000228058
0.000544894
-5.16406e-05
0.000532955
-4.77266e-05
0.000520689
-4.38097e-05
0.000508122
-3.99121e-05
0.000495348
-3.60875e-05
0.00048244
-3.23864e-05
0.000469471
-2.88446e-05
0.000456503
-2.54895e-05
0.000443595
-2.23442e-05
0.000430808
-1.94242e-05
0.0004182
-1.67372e-05
0.000405825
-1.42843e-05
0.000393732
-1.20581e-05
0.000381957
-1.00362e-05
0.00037053
-8.21027e-06
0.00035948
-6.56561e-06
0.000348824
-5.08685e-06
0.000338572
-3.75877e-06
0.000328734
-2.5667e-06
0.000319311
-1.49711e-06
0.000310311
-5.38518e-07
0.000301736
3.19669e-07
0.00029359
1.08471e-06
0.000285873
1.76229e-06
0.000278585
2.35453e-06
0.000271725
2.86395e-06
0.000265291
3.29027e-06
0.00025928
3.63286e-06
0.000253691
3.89016e-06
0.000248523
4.06048e-06
0.00024377
4.14201e-06
0.000239433
4.13308e-06
0.000235507
4.03193e-06
0.000231992
3.83738e-06
0.000228881
3.54882e-06
0.000226169
3.16648e-06
0.000223853
2.69136e-06
0.000221922
2.12546e-06
0.000220372
1.47173e-06
0.000219192
7.34359e-07
0.000218373
-8.14927e-08
0.000217904
-9.69196e-07
0.000217774
-1.92085e-06
0.000217969
-2.92773e-06
0.000218473
-3.97964e-06
0.000219278
-5.0653e-06
0.000220364
-6.17318e-06
0.000221719
-7.28829e-06
0.000223327
-8.39862e-06
0.00022517
-9.48732e-06
-1.054e-05
0.000227238
0.00054828
-3.92135e-05
0.000536407
-3.48578e-05
0.000524148
-3.05927e-05
0.000511553
-2.6416e-05
0.000498707
-2.24175e-05
0.000485679
-1.86362e-05
0.000472558
-1.5118e-05
0.000459416
-1.18687e-05
0.000446325
-8.90764e-06
0.000433354
-6.24398e-06
0.000420558
-3.87696e-06
0.000407989
-1.79893e-06
0.000395691
3.79895e-09
0.000383716
1.5528e-06
0.000372104
2.87153e-06
0.000360885
3.98506e-06
0.000350079
4.91726e-06
0.000339695
5.69149e-06
0.000329734
6.32825e-06
0.000320198
6.84569e-06
0.00031109
7.25817e-06
0.000302411
7.57725e-06
0.000294166
7.81097e-06
0.000286358
7.96678e-06
0.000278982
8.0493e-06
0.000272037
8.06191e-06
0.000265519
8.0055e-06
0.000259424
7.87966e-06
0.000253749
7.68264e-06
0.000248492
7.41215e-06
0.000243652
7.06553e-06
0.000239228
6.64039e-06
0.000235216
6.13466e-06
0.000231614
5.54695e-06
0.00022842
4.87663e-06
0.000225627
4.12381e-06
0.000223229
3.28953e-06
0.000221221
2.3759e-06
0.000219595
1.38619e-06
0.000218345
3.24553e-07
0.000217462
-8.03284e-07
0.000216936
-1.99013e-06
0.000216756
-3.22784e-06
0.00021691
-4.50694e-06
0.000217386
-5.81697e-06
0.00021817
-7.14594e-06
0.000219251
-8.48153e-06
0.000220612
-9.80956e-06
0.000222238
-1.11159e-05
0.000224119
-1.23852e-05
-1.36016e-05
0.000226236
0.000551972
-2.68531e-05
0.000540166
-2.20051e-05
0.000527838
-1.72874e-05
0.000515142
-1.28098e-05
0.000502133
-8.59303e-06
0.000488897
-4.68509e-06
0.000475532
-1.14152e-06
0.000462133
2.02841e-06
0.000448786
4.81384e-06
0.000435567
7.22355e-06
0.000422538
9.26747e-06
0.000409745
1.09657e-05
0.000397225
1.23423e-05
0.000385028
1.34146e-05
0.000373195
1.42187e-05
0.000361768
1.47891e-05
0.000350773
1.51598e-05
0.000340225
1.5362e-05
0.000330125
1.54236e-05
0.000320472
1.53677e-05
0.000311268
1.5214e-05
0.000302515
1.49775e-05
0.000294203
1.46701e-05
0.000286327
1.42991e-05
0.000278884
1.38704e-05
0.000271867
1.33863e-05
0.000265277
1.28479e-05
0.000259112
1.22541e-05
0.000253372
1.16031e-05
0.000248051
1.08918e-05
0.000243145
1.01175e-05
0.000238649
9.27726e-06
0.00023456
8.36845e-06
0.000230877
7.38933e-06
0.0002276
6.33873e-06
0.000224725
5.21662e-06
0.00022225
4.02396e-06
0.000220168
2.76299e-06
0.000218475
1.43707e-06
0.000217164
5.06674e-08
0.000216226
-1.39016e-06
0.000215654
-2.87806e-06
0.000215438
-4.40434e-06
0.000215564
-5.95922e-06
0.000216024
-7.53144e-06
0.000216802
-9.10907e-06
0.000217891
-1.0679e-05
0.000219274
-1.22268e-05
0.000220936
-1.37381e-05
0.000222866
-1.51969e-05
-1.65878e-05
0.000225046
0.000555721
-1.45417e-05
0.000543801
-9.05774e-06
0.000531377
-3.89058e-06
0.000518479
9.77522e-07
0.000505253
5.43525e-06
0.00049179
9.49991e-06
0.000478164
1.3119e-05
0.000464488
1.62465e-05
0.000450841
1.88918e-05
0.000437304
2.10615e-05
0.00042395
2.27786e-05
0.00041085
2.40735e-05
0.000398067
2.49829e-05
0.000385647
2.55458e-05
0.000373626
2.58081e-05
0.000362033
2.58142e-05
0.000350893
2.5606e-05
0.000340217
2.52214e-05
0.000330009
2.46947e-05
0.000320262
2.40549e-05
0.000310972
2.33257e-05
0.000302135
2.25264e-05
0.000293744
2.16699e-05
0.000285793
2.07658e-05
0.000278277
1.98195e-05
0.000271198
1.88338e-05
0.000264554
1.78096e-05
0.000258341
1.67459e-05
0.000252549
1.56399e-05
0.000247172
1.44883e-05
0.000242208
1.32876e-05
0.00023765
1.20341e-05
0.000233498
1.07244e-05
0.000229751
9.3562e-06
0.000226406
7.92765e-06
0.000223461
6.43821e-06
0.000220917
4.88856e-06
0.000218771
3.28087e-06
0.000217018
1.61864e-06
0.000215655
-9.35508e-08
0.000214675
-1.84925e-06
0.000214067
-3.64072e-06
0.000213825
-5.4588e-06
0.000213934
-7.29346e-06
0.000214389
-9.13259e-06
0.000215177
-1.09647e-05
0.000216283
-1.27755e-05
0.000217699
-1.45508e-05
0.000219408
-1.62756e-05
0.000221399
-1.79338e-05
-1.95103e-05
0.00022366
0.000559201
-2.19869e-06
0.000547182
3.91637e-06
0.000534647
9.65717e-06
0.000521589
1.49799e-05
0.000508095
1.97997e-05
0.000494331
2.40524e-05
0.000480394
2.77355e-05
0.000466389
3.08165e-05
0.000452406
3.33146e-05
0.000438537
3.52419e-05
0.000424863
3.66268e-05
0.000411459
3.751e-05
0.000398391
3.79421e-05
0.000385717
3.79783e-05
0.000373484
3.76768e-05
0.000361715
3.70927e-05
0.00035042
3.62785e-05
0.000339604
3.52809e-05
0.000329269
3.4142e-05
0.000319416
3.28979e-05
0.000310042
3.15772e-05
0.000301143
3.02013e-05
0.000292709
2.87859e-05
0.000284729
2.73414e-05
0.000277189
2.58729e-05
0.000270083
2.43839e-05
0.000263404
2.28741e-05
0.000257146
2.13414e-05
0.000251305
1.97826e-05
0.000245874
1.81932e-05
0.000240852
1.65686e-05
0.000236237
1.49044e-05
0.000232028
1.31965e-05
0.000228224
1.14414e-05
0.000224824
9.63669e-06
0.000221826
7.78149e-06
0.00021923
5.87601e-06
0.000217034
3.92222e-06
0.000215235
1.92361e-06
0.000213831
-1.15407e-07
0.000212815
-2.18772e-06
0.00021218
-4.28545e-06
0.00021192
-6.39906e-06
0.000212023
-8.51801e-06
0.000212482
-1.06298e-05
0.000213286
-1.27226e-05
0.000214425
-1.47815e-05
0.000215885
-1.67926e-05
0.000217654
-1.87398e-05
0.000219721
-2.06079e-05
-2.23802e-05
0.00022207
0.000561965
1.01886e-05
0.000549899
1.70792e-05
0.000537193
2.33614e-05
0.000523946
2.91985e-05
0.000510325
3.43746e-05
0.000496228
3.88673e-05
0.000482019
4.26467e-05
0.000467667
4.57421e-05
0.000453346
4.81043e-05
0.000439126
4.97997e-05
0.000425103
5.0848e-05
0.00041137
5.13036e-05
0.00039801
5.12342e-05
0.000385088
5.07125e-05
0.000372643
4.98129e-05
0.000360693
4.86046e-05
0.000349248
4.71525e-05
0.000338307
4.55144e-05
0.000327876
4.37409e-05
0.000317959
4.18737e-05
0.000308547
3.99457e-05
0.000299622
3.79819e-05
0.000291167
3.59986e-05
0.000283165
3.40073e-05
0.000275605
3.20139e-05
0.000268478
3.00204e-05
0.000261773
2.80258e-05
0.000255484
2.60266e-05
0.000249604
2.40184e-05
0.000244132
2.19952e-05
0.000239065
1.99513e-05
0.000234404
1.78802e-05
0.000230149
1.57775e-05
0.000226298
1.36381e-05
0.000222851
1.14599e-05
0.000219809
9.24036e-06
0.000217173
6.98015e-06
0.000214939
4.6803e-06
0.000213107
2.34521e-06
0.000211674
-2.24565e-08
0.000210636
-2.41354e-06
0.000209987
-4.82068e-06
0.000209721
-7.2339e-06
0.000209828
-9.64215e-06
0.000210303
-1.20326e-05
0.000211136
-1.4393e-05
0.000212317
-1.67081e-05
0.000213833
-1.89632e-05
0.000215674
-2.11425e-05
0.000217827
-2.32302e-05
-2.52095e-05
0.000220278
0.000563506
2.25601e-05
0.000551405
3.02329e-05
0.000538547
3.7124e-05
0.000525076
4.3492e-05
0.000511218
4.90784e-05
0.000496941
5.39051e-05
0.000482464
5.77957e-05
0.000467858
6.09488e-05
0.000453259
6.32009e-05
0.000438765
6.46714e-05
0.00042447
6.53904e-05
0.000410468
6.54102e-05
0.000396846
6.48232e-05
0.000383684
6.37194e-05
0.000371034
6.21909e-05
0.000358916
6.03254e-05
0.000347341
5.82041e-05
0.000336314
5.58973e-05
0.000325829
5.34646e-05
0.000315877
5.0954e-05
0.000306444
4.84026e-05
0.000297509
4.58381e-05
0.00028905
4.32792e-05
0.00028105
4.07375e-05
0.00027349
3.82184e-05
0.000266358
3.5722e-05
0.000259646
3.3246e-05
0.000253346
3.07849e-05
0.000247455
2.83326e-05
0.000241969
2.58811e-05
0.000236884
2.34235e-05
0.000232198
2.09516e-05
0.000227912
1.84593e-05
0.000224027
1.59407e-05
0.000220543
1.33922e-05
0.000217462
1.08112e-05
0.000214786
8.19723e-06
0.000212518
5.55173e-06
0.000210654
2.87818e-06
0.000209194
1.80888e-07
0.000208138
-2.53238e-06
0.000207479
-5.25326e-06
0.000207216
-7.97147e-06
0.000207338
-1.06752e-05
0.000207842
-1.33513e-05
0.000208717
-1.59869e-05
0.000209951
-1.85666e-05
0.000211537
-2.10749e-05
0.000213461
-2.34966e-05
0.000215712
-2.58144e-05
-2.8013e-05
0.000218279
0.000562534
3.46181e-05
0.000550434
4.27461e-05
0.0005377
5.07455e-05
0.000524298
5.7537e-05
0.00051023
6.39552e-05
0.00049592
6.88883e-05
0.000481258
7.31977e-05
0.000466534
7.62403e-05
0.000451707
7.85339e-05
0.000437044
7.97334e-05
0.000422576
8.01442e-05
0.000408423
7.97305e-05
0.000394666
7.86202e-05
0.000381362
7.69212e-05
0.000368567
7.47449e-05
0.000356327
7.22002e-05
0.000344663
6.93854e-05
0.000333581
6.63849e-05
0.000323073
6.3271e-05
0.000313116
6.00993e-05
0.000303688
5.69113e-05
0.000294768
5.37375e-05
0.000286334
5.05981e-05
0.000278365
4.75049e-05
0.000270839
4.44616e-05
0.000263738
4.14665e-05
0.00025705
3.85148e-05
0.000250766
3.55991e-05
0.000244881
3.27105e-05
0.000239391
2.98389e-05
0.000234295
2.6975e-05
0.000229591
2.4109e-05
0.000225283
2.12332e-05
0.00022137
1.83404e-05
0.000217857
1.5426e-05
0.000214746
1.24863e-05
0.00021204
9.52063e-06
0.000209743
6.52961e-06
0.000207859
3.51697e-06
0.000206386
4.87009e-07
0.000205323
-2.55204e-06
0.000204667
-5.59153e-06
0.000204415
-8.62058e-06
0.000204561
-1.16267e-05
0.0002051
-1.45963e-05
0.000206025
-1.75161e-05
0.000207326
-2.03696e-05
0.000208993
-2.31413e-05
0.000211015
-2.5815e-05
0.000213379
-2.83747e-05
-3.08031e-05
0.000216074
0.000560232
4.53104e-05
0.000547021
5.56441e-05
0.00053377
6.40062e-05
0.000520413
7.12269e-05
0.000506372
7.81921e-05
0.000492263
8.35047e-05
0.00047772
8.81218e-05
0.000462983
9.14786e-05
0.000448272
9.37272e-05
0.000433545
9.48706e-05
0.000419066
9.49389e-05
0.000404895
9.41116e-05
0.000391115
9.2487e-05
0.000377792
9.01942e-05
0.000364986
8.73666e-05
0.000352743
8.41328e-05
0.000341086
8.06118e-05
0.000330023
7.69053e-05
0.000319547
7.30974e-05
0.000309639
6.92538e-05
0.000300273
6.54235e-05
0.00029142
6.16388e-05
0.000283055
5.79208e-05
0.000275152
5.42791e-05
0.000267685
5.07168e-05
0.000260636
4.72304e-05
0.000253991
4.38123e-05
0.00024774
4.04517e-05
0.000241878
3.71369e-05
0.000236399
3.38553e-05
0.000231304
3.0595e-05
0.000226592
2.73443e-05
0.000222266
2.4093e-05
0.000218332
2.08326e-05
0.000214796
1.7557e-05
0.000211662
1.4262e-05
0.000208936
1.09459e-05
0.000206621
7.6096e-06
0.000204722
4.2559e-06
0.000203242
8.90077e-07
0.00020218
-2.4794e-06
0.000201535
-5.84343e-06
0.000201306
-9.19047e-06
0.000201488
-1.2507e-05
0.000202078
-1.57793e-05
0.000203067
-1.89924e-05
0.000204444
-2.21297e-05
0.000206201
-2.5175e-05
0.000208328
-2.81119e-05
0.000210815
-3.09245e-05
-3.35958e-05
0.000213647
0.000557577
5.65081e-05
0.000543318
6.77142e-05
0.000528831
7.55281e-05
0.000513501
8.55938e-05
0.000499773
9.14086e-05
0.000485216
9.77571e-05
0.000471046
0.000102546
0.000456705
0.00010618
0.0004423
0.000108505
0.000427939
0.000109603
0.000413691
0.0001095
0.000399689
0.000108332
0.000386043
0.000106237
0.000372845
0.000103374
0.000360164
9.99081e-05
0.000348043
9.59941e-05
0.000336505
9.17723e-05
0.000325563
8.7363e-05
0.00031521
8.28632e-05
0.00030543
7.83514e-05
0.000296192
7.38816e-05
0.000287463
6.94905e-05
0.000279211
6.51989e-05
0.000271409
6.10185e-05
0.000264032
5.69482e-05
0.000257062
5.29838e-05
0.000250482
4.91128e-05
0.00024428
4.53225e-05
0.000238451
4.15961e-05
0.000232994
3.79186e-05
0.00022791
3.42746e-05
0.000223202
3.065e-05
0.000218872
2.70327e-05
0.000214929
2.34122e-05
0.000211377
1.97813e-05
0.000208225
1.61344e-05
0.000205483
1.24697e-05
0.000203158
8.78747e-06
0.000201251
5.09063e-06
0.000199768
1.38516e-06
0.000198713
-2.32035e-06
0.000198088
-6.01624e-06
0.000197889
-9.6897e-06
0.000198117
-1.3326e-05
0.000198764
-1.69108e-05
0.000199824
-2.04277e-05
0.000201287
-2.38597e-05
0.000203147
-2.71902e-05
0.000205394
-3.04022e-05
0.000208016
-3.34802e-05
-3.64065e-05
0.000211004
0.000565855
7.32387e-05
0.000540553
8.23912e-05
0.00051959
9.11058e-05
0.00050409
9.7026e-05
0.000488121
0.000104846
0.000474077
0.000110715
0.000460191
0.00011581
0.000446479
0.00011977
0.000432807
0.000122345
0.00041914
0.000123531
0.000405539
0.000123366
0.00039211
0.000121973
0.000378957
0.000119515
0.000366171
0.000116172
0.000353842
0.000112133
0.000342037
0.000107587
0.000330791
0.0001027
0.000320114
9.76158e-05
0.000310004
9.24496e-05
0.000300441
8.72895e-05
0.0002914
8.21984e-05
0.00028285
7.72187e-05
0.00027476
7.23742e-05
0.0002671
6.76727e-05
0.00025985
6.3116e-05
0.000252988
5.86923e-05
0.000246503
5.43895e-05
0.00024038
5.0188e-05
0.000234614
4.60696e-05
0.000229202
4.2013e-05
0.000224145
3.80027e-05
0.000219449
3.40174e-05
0.000215119
3.00473e-05
0.000211166
2.60757e-05
0.000207599
2.20973e-05
0.000204433
1.81019e-05
0.000201676
1.40912e-05
0.000199338
1.00622e-05
0.000197428
6.01884e-06
0.000195949
1.96827e-06
0.000194908
-2.08055e-06
0.000194308
-6.11689e-06
0.000194147
-1.01266e-05
0.00019443
-1.40935e-05
0.000195147
-1.80027e-05
0.00019629
-2.18353e-05
0.000197855
-2.55741e-05
0.000199828
-2.92021e-05
0.000202206
-3.27008e-05
0.000204974
-3.60574e-05
-3.92509e-05
0.000208124
0.000612711
8.98286e-05
0.000568887
9.96192e-05
0.000530628
0.000108515
0.000501288
0.000113578
0.000479634
0.000118971
0.000462101
0.000124015
0.000447236
0.000128626
0.000433517
0.000132459
0.000420299
0.000135134
0.000407355
0.000136402
0.000394582
0.000136238
0.000381975
0.000134725
0.000369587
0.000132015
0.000357493
0.000128297
0.000345779
0.00012378
0.000334517
0.000118681
0.000323754
0.000113198
0.00031351
0.000107496
0.000303782
0.000101711
0.00029456
9.59441e-05
0.00028582
9.0271e-05
0.000277538
8.47381e-05
0.000269681
7.93745e-05
0.000262229
7.4186e-05
0.000255155
6.91725e-05
0.000248445
6.43202e-05
0.000242083
5.96125e-05
0.00023606
5.50272e-05
0.000230371
5.05396e-05
0.000225015
4.61271e-05
0.000219994
4.17691e-05
0.000215318
3.74409e-05
0.000210997
3.31319e-05
0.000207044
2.88199e-05
0.000203469
2.45036e-05
0.000200294
2.01631e-05
0.000197526
1.58089e-05
0.000195179
1.1433e-05
0.000193264
7.03878e-06
0.000191791
2.63747e-06
0.000190767
-1.7632e-06
0.000190196
-6.15055e-06
0.000190078
-1.05084e-05
0.00019042
-1.4819e-05
0.000191214
-1.90657e-05
0.000192452
-2.32279e-05
0.000194128
-2.72873e-05
0.00019623
-3.12254e-05
0.000198753
-3.50245e-05
0.000201681
-3.86707e-05
-4.21455e-05
0.000205006
0.000655488
0.000101014
0.000608853
0.000116451
0.000557856
0.000129201
0.000513109
0.000133266
0.000478246
0.000135829
0.000452313
0.000138662
0.000432996
0.000141577
0.000417794
0.000144573
0.000404648
0.000146881
0.000392432
0.000148047
0.000380663
0.000147856
0.000369136
0.00014629
0.0003578
0.000143436
0.000346681
0.00013946
0.000335845
0.000134581
0.000325366
0.000129037
0.000315297
0.000123048
0.000305665
0.00011681
0.000296481
0.000110479
0.000287737
0.000104176
0.000279416
9.79817e-05
0.0002715
9.19534e-05
0.000263969
8.61182e-05
0.000256795
8.04921e-05
0.000249964
7.50645e-05
0.00024345
6.98273e-05
0.000237251
6.47503e-05
0.000231351
5.98168e-05
0.000225754
5.49888e-05
0.000220464
5.0249e-05
0.000215484
4.55652e-05
0.000210834
4.0917e-05
0.00020652
3.62838e-05
0.000202566
3.16487e-05
0.000198984
2.70033e-05
0.000195793
2.23217e-05
0.000193014
1.76241e-05
0.000190659
1.29009e-05
0.000188742
8.15038e-06
0.000187275
3.39155e-06
0.00018627
-1.37141e-06
0.000185732
-6.12199e-06
0.000185666
-1.08419e-05
0.000186076
-1.55116e-05
0.000186955
-2.01114e-05
0.000188297
-2.46187e-05
0.000190095
-2.90136e-05
0.000192339
-3.3276e-05
0.000195018
-3.73885e-05
0.000198116
-4.13363e-05
-4.51042e-05
0.000201625
0.00065586
0.000113381
0.000627765
0.000126945
0.000583957
0.000141506
0.000529371
0.000153256
0.0004817
0.000156251
0.0004471
0.000154396
0.000421449
0.000155222
0.000402405
0.000156842
0.000387773
0.000158028
0.000375548
0.000158567
0.000364481
0.000158181
0.000353973
0.000156548
0.000343768
0.000153604
0.000333794
0.000149458
0.000324054
0.000144322
0.000314576
0.000138443
0.000305402
0.000132059
0.000296564
0.000125389
0.000288082
0.000118607
0.000279959
0.000111851
0.000272186
0.000105215
0.000264746
9.87619e-05
0.000257623
9.25256e-05
0.000250805
8.65169e-05
0.000244267
8.07372e-05
0.000238007
7.51569e-05
0.000231999
6.97681e-05
0.000226262
6.45205e-05
0.000220774
5.94046e-05
0.000215563
5.43628e-05
0.000210635
4.93939e-05
0.000206005
4.44406e-05
0.000201705
3.95104e-05
0.000197741
3.45541e-05
0.000194168
2.95866e-05
0.000190951
2.45916e-05
0.000188148
1.95479e-05
0.000185771
1.44742e-05
0.000183847
9.36042e-06
0.00018239
4.23054e-06
0.000181408
-9.07237e-07
0.000180905
-6.03486e-06
0.000180894
-1.11337e-05
0.00018138
-1.618e-05
0.000182355
-2.11515e-05
0.000183814
-2.60213e-05
0.000185748
-3.07683e-05
0.000188142
-3.53694e-05
0.000190987
-3.98073e-05
0.000194267
-4.40664e-05
-4.81378e-05
0.000197966
0.000617551
0.00012146
0.000610249
0.000140789
0.000583195
0.000151709
0.00054348
0.000164422
0.000488698
0.000175065
0.000440616
0.000175641
0.000409756
0.000168596
0.000386827
0.000168174
0.000369398
0.000168737
0.000356379
0.000168416
0.000345827
0.000167334
0.00033639
0.000165439
0.000327471
0.000162376
0.000318826
0.000158105
0.000310367
0.000152793
0.000302083
0.000146685
0.000294002
0.000140023
0.000286147
0.000133036
0.000278538
0.000125918
0.000271185
0.000118812
0.000264089
0.000111832
0.000257239
0.000105046
0.000250628
9.8489e-05
0.000244241
9.21846e-05
0.00023807
8.61113e-05
0.000232099
8.02753e-05
0.000226348
7.46067e-05
0.000220786
6.9133e-05
0.000215449
6.37393e-05
0.000210327
5.84729e-05
0.000205459
5.32254e-05
0.000200858
4.80303e-05
0.000196553
4.28005e-05
0.000192582
3.75709e-05
0.000188958
3.22783e-05
0.00018574
2.69652e-05
0.00018291
2.15706e-05
0.000180543
1.61475e-05
0.000178588
1.06777e-05
0.000177123
5.16264e-06
0.000176158
-3.65581e-07
0.000175697
-5.88961e-06
0.000175746
-1.13879e-05
0.000176308
-1.6832e-05
0.000177383
-2.21964e-05
0.000178963
-2.74491e-05
0.000181042
-3.25666e-05
0.000183601
-3.75218e-05
0.000186621
-4.22963e-05
0.000190091
-4.68745e-05
-5.12531e-05
0.000193987
0.0005703
0.000129876
0.00056794
0.000148104
0.000559997
0.000166847
0.000527253
0.000177591
0.000488996
0.000184825
0.000440927
0.000188734
0.000391507
0.000191463
0.000367814
0.000177352
0.000350764
0.000177005
0.000337215
0.000176265
0.000326371
0.000175225
0.000317441
0.000173123
0.000309531
0.000169833
0.000302105
0.000165386
0.000294946
0.000159913
0.000287958
0.00015363
0.0002811
0.000146777
0.00027438
0.000139583
0.000267804
0.000132238
0.000261374
0.000124908
0.000255098
0.000117691
0.000248964
0.000110684
0.000242974
0.000103899
0.000237108
9.73906e-05
0.000231378
9.11118e-05
0.000225758
8.50881e-05
0.000220281
7.92379e-05
0.000214943
7.35723e-05
0.000209757
6.8018e-05
0.000204767
6.25311e-05
0.000199966
5.70968e-05
0.000195407
5.16478e-05
0.000191104
4.62011e-05
0.000187112
4.0669e-05
0.000183459
3.51082e-05
0.000180181
2.94538e-05
0.000177324
2.37428e-05
0.000174891
1.79389e-05
0.000172963
1.20956e-05
0.000171487
6.19372e-06
0.000170521
2.55098e-07
0.000170085
-5.68429e-06
0.000170199
-1.16067e-05
0.000170851
-1.74763e-05
0.000172041
-2.32592e-05
0.000173759
-2.8921e-05
0.000175994
-3.44275e-05
0.000178722
-3.97505e-05
0.000181923
-4.4867e-05
0.000185573
-4.97651e-05
-5.44417e-05
0.000189648
0.000517868
0.000135394
0.000518844
0.000155002
0.000515985
0.000173058
0.000504013
0.000185394
0.000464482
0.000198265
0.000425649
0.00019772
0.00038806
0.000200731
0.000347429
0.000193661
0.000326275
0.000186666
0.000313448
0.00018359
0.00030393
0.00018143
0.000296189
0.000178931
0.000289585
0.000175494
0.000283581
0.000170992
0.000277857
0.000165476
0.000272271
0.000159128
0.000266768
0.000152187
0.000261315
0.000144896
0.00025591
0.00013744
0.000250544
0.000129997
0.000245217
0.000122665
0.000239922
0.000115543
0.000234651
0.000108661
0.000229408
0.000102036
0.000224189
9.56803e-05
0.000219
8.95399e-05
0.000213849
8.36203e-05
0.000208768
7.78226e-05
0.000203762
7.21672e-05
0.000198879
6.65389e-05
0.000194155
6.0956e-05
0.000189616
5.53186e-05
0.000185337
4.96553e-05
0.000181294
4.39039e-05
0.00017761
3.80457e-05
0.00017429
3.21028e-05
0.000171373
2.60438e-05
0.000168897
1.98958e-05
0.000166886
1.36394e-05
0.000165412
7.33116e-06
0.00016444
9.67241e-07
0.000164038
-5.41821e-06
0.000164219
-1.17916e-05
0.000164962
-1.8114e-05
0.000166269
-2.43425e-05
0.000168134
-3.04334e-05
0.000170531
-3.63486e-05
0.000173432
-4.20482e-05
0.000176801
-4.75057e-05
0.000180598
-5.27069e-05
-5.76528e-05
0.000184796
0.000459248
0.000139152
0.000465295
0.000159188
0.000464313
0.000177087
0.000459991
0.000194825
0.000437421
0.000206672
0.000395468
0.000209378
0.000360077
0.000204202
0.000332324
0.000202116
0.000306491
0.000196098
0.000289553
0.000190639
0.000279611
0.000186649
0.000272934
0.000183308
0.000267719
0.000179572
0.000263257
0.000174951
0.000259126
0.000169395
0.000255096
0.000163049
0.000251076
0.00015612
0.000247021
0.000148831
0.00024291
0.000141384
0.000238735
0.000133937
0.000234478
0.00012662
0.000230144
0.000119494
0.000225707
0.000112641
0.000221179
0.000106024
0.000216555
9.96987e-05
0.000211852
9.35785e-05
0.000207088
8.7668e-05
0.000202278
8.18867e-05
0.000197486
7.61793e-05
0.000192731
7.05234e-05
0.000188068
6.48166e-05
0.000183538
5.90817e-05
0.000179207
5.3212e-05
0.000175141
4.72623e-05
0.000171373
4.11395e-05
0.000167986
3.49029e-05
0.000164985
2.85011e-05
0.00016247
2.19817e-05
0.000160408
1.53418e-05
0.000158876
8.59839e-06
0.000157902
1.78441e-06
0.000157511
-5.07347e-06
0.000157723
-1.1931e-05
0.000158535
-1.87386e-05
0.000159944
-2.54426e-05
0.000161937
-3.19861e-05
0.00016448
-3.83169e-05
0.000167518
-4.43814e-05
0.000170993
-5.01461e-05
0.000174843
-5.55938e-05
-6.07415e-05
0.000179021
0.000402872
0.000141798
0.000410378
0.000161775
0.000412497
0.00018031
0.000411559
0.000197566
0.000396225
0.00021139
0.000361732
0.000216468
0.000325701
0.000209417
0.000300524
0.00020523
0.000279977
0.00020034
0.000264638
0.000195706
0.00025447
0.000191043
0.000248379
0.000186575
0.000244509
0.000182141
0.000241589
0.000177245
0.000239052
0.000171639
0.000236634
0.00016533
0.000234173
0.000158482
0.000231607
0.000151285
0.000228894
0.000143951
0.000226017
0.000136611
0.000222947
0.000129427
0.000219674
0.00012243
0.000216173
0.000115721
0.000212448
0.000109271
0.000208506
0.000103089
0.000204345
9.71373e-05
0.000200026
9.13443e-05
0.000195539
8.56961e-05
0.000190952
8.00578e-05
0.000186313
7.44437e-05
0.000181694
6.87171e-05
0.00017716
6.2908e-05
0.000172774
5.69251e-05
0.000168622
5.0781e-05
0.000164748
4.44294e-05
0.000161261
3.78911e-05
0.000158155
3.11671e-05
0.000155505
2.42576e-05
0.000153393
1.72008e-05
0.000151821
1.0014e-05
0.000150816
2.72254e-06
0.000150418
-4.63368e-06
0.00015065
-1.20036e-05
0.000151508
-1.93211e-05
0.000152979
-2.6515e-05
0.000155026
-3.35098e-05
0.000157593
-4.02317e-05
0.00016061
-4.66126e-05
0.000163987
-5.26058e-05
0.000167644
-5.82013e-05
-6.34349e-05
0.000171515
0.000348749
0.000142712
0.000355479
0.000162201
0.000357883
0.000180625
0.000357164
0.000199344
0.000342082
0.00021315
0.000312997
0.000214157
0.000284421
0.000211258
0.000262494
0.000206331
0.000246626
0.000201635
0.000235552
0.000197308
0.000227825
0.000192768
0.000222898
0.000188076
0.000220173
0.000183147
0.000218761
0.000177915
0.000217882
0.000172195
0.000217126
0.000165928
0.000216294
0.000159211
0.000215284
0.000152193
0.000214041
0.000145053
0.000212535
0.000137934
0.000210732
0.000130974
0.000208603
0.000124252
0.000206132
0.000117812
0.000203281
0.000111673
0.000200079
0.000105784
0.000196507
0.000100148
0.000192625
9.46289e-05
0.000188463
8.92303e-05
0.000184089
8.37896e-05
0.000179563
7.83157e-05
0.000174948
7.26705e-05
0.000170388
6.68467e-05
0.000165921
6.08126e-05
0.00016163
5.45086e-05
0.000157601
4.79498e-05
0.000153914
4.11147e-05
0.000150692
3.4048e-05
0.000147921
2.67569e-05
0.000145663
1.92585e-05
0.000143994
1.16073e-05
0.000142934
3.82017e-06
0.000142488
-4.0517e-06
0.000142676
-1.19431e-05