/*--------------------------------*- C++ -*----------------------------------*\
  =========                 |
  \\      /  F ield         | OpenFOAM: The Open Source CFD Toolbox
   \\    /   O peration     | Website:  https://openfoam.org
    \\  /    A nd           | Version:  10
     \\/     M anipulation  |
\*---------------------------------------------------------------------------*/
FoamFile
{
    format      ascii;
    class       volScalarField;
    location    "0.902556";
    object      rho;
}
// * * * * * * * * * * * * * * * * * * * * * * * * * * * * * * * * * * * * * //

dimensions      [1 -3 0 0 0 0 0];

internalField   nonuniform List<scalar> 
15708
(
0.959535
0.961169
0.962771
0.964415
0.966123
0.967903
0.969703
0.971543
0.973398
0.975277
0.977159
0.979046
0.980945
0.982867
0.984825
0.986836
0.988883
0.990975
0.993096
0.995227
0.997381
0.999518
1.00166
1.00379
1.00587
1.00795
1.00998
1.01197
1.01392
1.0158
1.01766
1.01945
1.02119
1.02288
1.02452
1.02611
1.02766
1.02918
1.03063
1.03208
1.03346
1.03483
1.03613
1.0374
1.03865
1.03984
1.04104
1.0421
1.04327
1.04424
1.04532
0.959995
0.96134
0.9628
0.964344
0.96599
0.967704
0.969459
0.97126
0.973091
0.974943
0.976794
0.978661
0.980543
0.982446
0.984396
0.986392
0.988422
0.990494
0.992598
0.99472
0.996852
0.998983
1.0011
1.00323
1.00532
1.00741
1.00944
1.01145
1.01341
1.01534
1.0172
1.01903
1.0208
1.02252
1.0242
1.02583
1.02741
1.02897
1.03044
1.03193
1.03332
1.03472
1.03606
1.03735
1.03863
1.03985
1.04104
1.04217
1.04327
1.04433
1.04535
0.960094
0.960798
0.962796
0.964111
0.965727
0.967421
0.969175
0.970959
0.972778
0.974604
0.976439
0.978292
0.980166
0.982063
0.983993
0.985975
0.987996
0.990045
0.992153
0.994256
0.996391
0.99851
1.00063
1.00274
1.00484
1.00691
1.00897
1.01098
1.01296
1.0149
1.01678
1.01864
1.02042
1.02218
1.02387
1.02555
1.02715
1.02874
1.03025
1.03176
1.03319
1.03461
1.03596
1.03729
1.03856
1.03982
1.04101
1.04217
1.04325
1.04435
1.04529
0.958892
0.961191
0.96214
0.963911
0.965493
0.967177
0.968913
0.970667
0.972455
0.974256
0.976093
0.977949
0.979816
0.981699
0.983603
0.985565
0.987553
0.989617
0.991689
0.993802
0.995924
0.99804
1.00016
1.00227
1.00438
1.00645
1.00851
1.01053
1.01253
1.01448
1.0164
1.01826
1.02008
1.02185
1.02357
1.02528
1.0269
1.02852
1.03006
1.03158
1.03304
1.03449
1.03587
1.03723
1.03851
1.03977
1.041
1.04212
1.04327
1.04428
1.04532
0.959305
0.960471
0.961961
0.963482
0.96508
0.966741
0.968458
0.970227
0.972031
0.973853
0.975698
0.977558
0.979435
0.981331
0.983255
0.985212
0.987222
0.989263
0.991336
0.99343
0.995521
0.997633
0.999732
1.00184
1.00394
1.00602
1.00808
1.01012
1.01211
1.01409
1.01601
1.0179
1.01974
1.02154
1.0233
1.02501
1.02667
1.02831
1.02986
1.03142
1.03289
1.03436
1.03575
1.03714
1.03843
1.0397
1.04094
1.04207
1.04322
1.04424
1.04528
0.9585
0.9598
0.961277
0.962828
0.964473
0.966183
0.967934
0.969717
0.971535
0.973383
0.975263
0.977161
0.979077
0.981003
0.982947
0.984929
0.986946
0.989004
0.991076
0.993155
0.995235
0.997314
0.999387
1.00147
1.00356
1.00563
1.00769
1.00972
1.01172
1.01369
1.01561
1.01751
1.01937
1.02119
1.02298
1.02473
1.02642
1.02809
1.02968
1.03125
1.03275
1.03423
1.03566
1.03703
1.03836
1.03963
1.04086
1.04203
1.04314
1.04419
1.04521
0.957546
0.95941
0.960732
0.962359
0.964037
0.965737
0.967492
0.969301
0.971156
0.973049
0.974981
0.976943
0.978902
0.980848
0.982792
0.984726
0.986712
0.988723
0.990783
0.992835
0.9949
0.996955
0.999045
1.0011
1.00317
1.00522
1.00726
1.00929
1.01131
1.01331
1.0153
1.01724
1.01912
1.02096
1.02274
1.02448
1.02618
1.02785
1.02946
1.03104
1.03257
1.03406
1.03551
1.0369
1.03824
1.03953
1.04077
1.04195
1.04307
1.04413
1.04512
0.957005
0.958256
0.959878
0.961512
0.963198
0.964955
0.966788
0.9687
0.97068
0.972685
0.974693
0.97668
0.978652
0.980601
0.982548
0.984485
0.986452
0.98845
0.990489
0.992549
0.9946
0.996668
0.998718
1.00077
1.00279
1.0048
1.00684
1.00889
1.01095
1.01297
1.01497
1.01693
1.01884
1.02069
1.0225
1.02425
1.02595
1.02761
1.02923
1.03082
1.03237
1.03389
1.03534
1.03678
1.0381
1.03942
1.04067
1.04184
1.04298
1.04401
1.04503
0.955246
0.957369
0.958413
0.960698
0.962261
0.964276
0.966277
0.968304
0.970324
0.972342
0.974349
0.976336
0.978305
0.980254
0.982234
0.98424
0.986261
0.988276
0.990282
0.992284
0.994285
0.996309
0.998355
1.00042
1.00248
1.00454
1.00659
1.00864
1.01067
1.01268
1.01465
1.0166
1.0185
1.02036
1.02219
1.02397
1.02569
1.02738
1.02902
1.03063
1.03219
1.03372
1.03518
1.03662
1.03796
1.03929
1.04053
1.04173
1.04284
1.0439
1.04489
0.954146
0.955472
0.957693
0.95914
0.961731
0.963358
0.965659
0.967671
0.969797
0.9719
0.97396
0.975972
0.977958
0.979951
0.981975
0.984005
0.986035
0.988034
0.990008
0.991996
0.99402
0.996079
0.99814
1.00021
1.00226
1.00431
1.00635
1.00837
1.01038
1.01234
1.0143
1.01621
1.01812
1.01998
1.02182
1.0236
1.02537
1.02708
1.02875
1.03039
1.03198
1.03353
1.03501
1.03645
1.03781
1.03914
1.04039
1.04159
1.0427
1.04377
1.04475
0.953144
0.955188
0.956681
0.958199
0.960422
0.962425
0.964629
0.966813
0.969065
0.971309
0.973511
0.975649
0.977702
0.979704
0.981725
0.983744
0.985754
0.987757
0.989763
0.991775
0.993808
0.995864
0.997923
0.999978
1.00203
1.00405
1.00606
1.00805
1.01004
1.01201
1.01398
1.01592
1.01784
1.01971
1.02156
1.02336
1.02511
1.02683
1.02852
1.03015
1.03175
1.03329
1.03478
1.03624
1.03761
1.03895
1.04023
1.04141
1.04256
1.0436
1.04459
0.952423
0.957038
0.95517
0.959326
0.958827
0.962436
0.963257
0.966215
0.968089
0.97047
0.97281
0.975101
0.977348
0.979504
0.981563
0.983564
0.985549
0.987531
0.989535
0.991557
0.993577
0.995599
0.99763
0.999673
1.00172
1.00375
1.00577
1.00777
1.00976
1.01173
1.01369
1.01562
1.01754
1.01941
1.02126
1.02305
1.02483
1.02654
1.02824
1.02989
1.0315
1.03306
1.03457
1.03602
1.0374
1.03874
1.04002
1.04123
1.04237
1.04343
1.04443
0.966717
0.959352
0.96065
0.958453
0.961465
0.960894
0.964347
0.964712
0.967821
0.969607
0.97201
0.974428
0.976796
0.979062
0.981214
0.983289
0.985316
0.987314
0.989311
0.991319
0.993341
0.995363
0.997399
0.999437
1.00148
1.0035
1.00551
1.0075
1.00949
1.01145
1.0134
1.01532
1.01722
1.01908
1.02091
1.02272
1.02449
1.02623
1.02792
1.02959
1.03122
1.03278
1.03431
1.03576
1.03718
1.03855
1.03982
1.04105
1.04217
1.04325
1.04422
0.991348
0.974679
0.979968
0.964781
0.967317
0.963689
0.96415
0.965673
0.96733
0.969555
0.971832
0.974142
0.976443
0.978692
0.980893
0.983024
0.98509
0.98711
0.98912
0.991138
0.993176
0.995217
0.997253
0.999282
1.0013
1.00331
1.0053
1.00727
1.00922
1.01116
1.01308
1.01499
1.01688
1.01875
1.02058
1.02239
1.02415
1.02592
1.02763
1.0293
1.03092
1.0325
1.03404
1.03551
1.03695
1.03831
1.0396
1.0408
1.04195
1.04301
1.04401
1.04719
1.04298
0.992882
0.990175
0.973464
0.96907
0.967048
0.966452
0.967358
0.969094
0.971231
0.973574
0.975977
0.978326
0.980582
0.982762
0.984891
0.986978
0.989027
0.991067
0.993084
0.995111
0.997107
0.999114
1.00108
1.00306
1.00502
1.007
1.00895
1.01089
1.01281
1.01471
1.01659
1.01842
1.02024
1.02203
1.02381
1.02555
1.02727
1.02896
1.03059
1.03219
1.03374
1.03522
1.03668
1.03806
1.03935
1.04058
1.0417
1.04281
1.04375
1.24677
1.15879
1.09516
1.03689
1.00781
0.987342
0.976497
0.971471
0.96955
0.969707
0.971115
0.973145
0.975457
0.977824
0.980141
0.982391
0.984584
0.986728
0.988827
0.990888
0.992928
0.994926
0.996948
0.99888
1.00088
1.00279
1.00479
1.0067
1.00868
1.01057
1.01251
1.01437
1.01624
1.01808
1.01989
1.02168
1.02346
1.02521
1.02694
1.02862
1.03027
1.03187
1.03342
1.0349
1.03638
1.03776
1.03907
1.04032
1.04145
1.04257
1.04353
1.41211
1.33692
1.23786
1.14705
1.07493
1.02634
0.996687
0.981024
0.974014
0.971533
0.971548
0.972936
0.974999
0.977325
0.979665
0.981962
0.984203
0.986394
0.988527
0.990628
0.992672
0.994694
0.996676
0.998696
1.00062
1.00265
1.0045
1.00656
1.00831
1.01037
1.01209
1.01408
1.01582
1.01771
1.0195
1.0213
1.02306
1.02483
1.02656
1.02825
1.02989
1.03152
1.03306
1.03458
1.03606
1.03745
1.03878
1.04003
1.0412
1.04231
1.0433
1.49575
1.44497
1.39255
1.28158
1.16738
1.08996
1.03652
1.00331
0.985544
0.977281
0.974171
0.973903
0.975123
0.977063
0.979317
0.981636
0.983902
0.986119
0.988253
0.990365
0.99243
0.994465
0.996466
0.998439
1.00046
1.00234
1.00443
1.00613
1.00834
1.00978
1.0121
1.01339
1.01576
1.01696
1.01937
1.02085
1.02267
1.02438
1.02612
1.02783
1.02951
1.03114
1.03268
1.03422
1.03572
1.03712
1.03848
1.03974
1.04093
1.04204
1.04307
1.48196
1.49475
1.45934
1.39963
1.30024
1.16115
1.08648
1.03628
1.00314
0.985064
0.977462
0.975093
0.975373
0.976948
0.979057
0.981337
0.983619
0.985852
0.988018
0.990117
0.992196
0.994224
0.996244
0.998224
1.00019
1.00217
1.00401
1.00612
1.00773
1.00992
1.01131
1.01356
1.01483
1.01711
1.01834
1.02066
1.02192
1.02419
1.02572
1.02734
1.02907
1.03069
1.03233
1.03382
1.03534
1.03671
1.03809
1.03935
1.04057
1.04167
1.04278
1.47523
1.4836
1.50539
1.45473
1.35993
1.30818
1.13216
1.06457
1.02793
1.0026
0.986825
0.979647
0.977475
0.977718
0.979132
0.981139
0.983316
0.985511
0.987698
0.989847
0.991905
0.994028
0.995961
0.998081
0.999864
1.00203
1.00361
1.0058
1.0074
1.00938
1.01119
1.01294
1.01487
1.01638
1.01841
1.0198
1.02191
1.02325
1.02541
1.02702
1.02869
1.03023
1.03188
1.03346
1.03498
1.0364
1.03777
1.03905
1.04025
1.04138
1.04245
1.45039
1.48602
1.50099
1.47898
1.46742
1.28092
1.29135
1.11829
1.03847
1.00888
0.993121
0.983744
0.979599
0.978755
0.979584
0.981174
0.983133
0.985273
0.987396
0.989596
0.991651
0.9938
0.995752
0.997765
0.999691
1.00156
1.0035
1.00517
1.00728
1.00874
1.01092
1.01227
1.01453
1.01606
1.01767
1.01972
1.02122
1.02325
1.02461
1.02664
1.02819
1.02975
1.03144
1.0331
1.03461
1.03607
1.03745
1.03875
1.03997
1.04112
1.04216
1.42446
1.48016
1.49559
1.5044
1.47001
1.38266
1.25521
1.17281
1.09198
1.02951
0.999153
0.986391
0.980857
0.979235
0.979709
0.981143
0.982984
0.985065
0.98717
0.989343
0.991465
0.993513
0.995623
0.997461
0.999506
1.0012
1.0032
1.00485
1.00669
1.00855
1.0102
1.01215
1.0136
1.01568
1.01706
1.0192
1.02059
1.02273
1.02438
1.02602
1.02772
1.02933
1.03098
1.03254
1.03406
1.03546
1.03692
1.03825
1.03955
1.04073
1.04179
1.43252
1.48285
1.50344
1.50865
1.49183
1.42046
1.28196
1.18589
1.10961
1.05069
1.01148
0.991203
0.983007
0.980286
0.980057
0.981163
0.982887
0.984824
0.98696
0.989028
0.991253
0.993211
0.995389
0.997152
0.999151
1.00091
1.00272
1.00469
1.00626
1.00822
1.00969
1.0117
1.01311
1.01513
1.01658
1.01852
1.02037
1.02193
1.02373
1.02562
1.02733
1.02897
1.03058
1.03216
1.03367
1.03511
1.0365
1.03781
1.03907
1.04021
1.0413
1.46696
1.50169
1.51195
1.51959
1.48573
1.41402
1.2836
1.1838
1.10967
1.05839
1.0228
0.998956
0.986299
0.98138
0.980514
0.981319
0.982906
0.984763
0.986832
0.988834
0.990995
0.99298
0.995006
0.996954
0.998706
1.00068
1.0022
1.00425
1.00572
1.0078
1.00928
1.01098
1.01298
1.0145
1.01638
1.01775
1.0196
1.02155
1.02307
1.02476
1.02665
1.02836
1.03
1.03156
1.03313
1.03466
1.03612
1.03746
1.03871
1.03994
1.04112
1.501
1.51007
1.51664
1.50525
1.4842
1.37937
1.27034
1.17336
1.10322
1.0556
1.02297
1.00251
0.990123
0.983917
0.98182
0.981929
0.983149
0.984846
0.986743
0.988765
0.990686
0.992716
0.994553
0.996534
0.998203
1.00015
1.0017
1.00365
1.00517
1.00713
1.0087
1.01046
1.01224
1.01418
1.01562
1.01748
1.01885
1.0207
1.02273
1.02427
1.02593
1.02771
1.02945
1.03105
1.0326
1.03417
1.0358
1.0374
1.03897
1.04057
1.04204
1.48051
1.49099
1.48959
1.48842
1.40466
1.32806
1.23437
1.15444
1.09232
1.04946
1.02069
1.00212
0.99082
0.984979
0.982655
0.982484
0.983477
0.985035
0.986783
0.988748
0.990521
0.992472
0.994169
0.996076
0.997663
0.999553
1.00104
1.00295
1.00433
1.00634
1.0078
1.00976
1.0113
1.01336
1.01495
1.01693
1.01832
1.02029
1.02186
1.02379
1.02534
1.02714
1.02903
1.03071
1.03246
1.03448
1.03672
1.03932
1.04212
1.0445
1.04634
1.31245
1.34304
1.35626
1.33995
1.296
1.23028
1.17026
1.11243
1.06594
1.03339
1.0129
0.999097
0.990192
0.985106
0.983028
0.982939
0.983885
0.985402
0.986994
0.988887
0.9905
0.992338
0.993905
0.995701
0.997187
0.998987
1.00041
1.00223
1.00356
1.00541
1.00669
1.00867
1.01007
1.01208
1.0139
1.0159
1.01748
1.01938
1.02116
1.02282
1.02486
1.02672
1.02866
1.03108
1.03409
1.03809
1.043
1.04996
1.05636
1.05925
1.06071
1.15431
1.15566
1.15754
1.14911
1.13217
1.10861
1.08192
1.05346
1.02961
1.01115
0.999687
0.992744
0.988066
0.98505
0.983735
0.983877
0.98491
0.986503
0.988053
0.989863
0.991331
0.993015
0.994315
0.995897
0.997107
0.99873
0.99994
1.00165
1.00282
1.00461
1.00581
1.00768
1.00911
1.01083
1.01273
1.01456
1.01644
1.01854
1.02053
1.02236
1.02455
1.02705
1.03057
1.03646
1.04653
1.06
1.07417
1.09301
1.10796
1.10195
1.08283
1.1912
1.15981
1.13603
1.11293
1.0899
1.06921
1.05022
1.0313
1.01711
1.00505
0.997616
0.993071
0.989629
0.987572
0.987063
0.987976
0.989601
0.99175
0.993778
0.995741
0.996904
0.997685
0.997998
0.998616
0.998852
0.999706
1.00028
1.00152
1.00238
1.00392
1.00497
1.0068
1.00821
1.00993
1.01187
1.01375
1.01573
1.01793
1.02035
1.02305
1.02697
1.03447
1.05151
1.08008
1.11218
1.14837
1.18689
1.22193
1.18713
1.12614
1.08623
1.27326
1.24677
1.20377
1.15689
1.1181
1.08799
1.06509
1.04398
1.03016
1.01818
1.012
1.0086
1.00766
1.00871
1.01154
1.01553
1.02009
1.02514
1.02924
1.03158
1.03108
1.02766
1.02313
1.01795
1.01265
1.00875
1.00588
1.00451
1.00394
1.00436
1.00475
1.0061
1.00739
1.00916
1.01115
1.01336
1.0159
1.01939
1.02597
1.03941
1.06632
1.11779
1.1906
1.26485
1.32481
1.38912
1.39681
1.31429
1.18777
1.11276
1.09166
1.25368
1.27008
1.2736
1.26497
1.23998
1.20771
1.18085
1.15157
1.13623
1.12249
1.12143
1.12026
1.12998
1.13861
1.14749
1.15907
1.17167
1.18657
1.20249
1.21345
1.21485
1.19176
1.14115
1.09633
1.06147
1.03707
1.02141
1.01245
1.00726
1.00475
1.00439
1.00548
1.00692
1.00922
1.01236
1.01794
1.02867
1.05023
1.09686
1.18463
1.29556
1.40285
1.47975
1.52491
1.55721
1.54421
1.45602
1.2282
1.11935
1.12109
1.25482
1.19375
1.24633
1.27346
1.28901
1.30213
1.31185
1.32035
1.32146
1.32897
1.33273
1.34538
1.35506
1.35554
1.37049
1.39769
1.42404
1.44964
1.47441
1.48898
1.47908
1.41392
1.2986
1.19745
1.1223
1.07124
1.03884
1.02042
1.01134
1.00656
1.00481
1.00547
1.00809
1.01326
1.02322
1.04247
1.08135
1.15688
1.26874
1.39176
1.48675
1.57455
1.61834
1.64164
1.6763
1.67123
1.53167
1.23596
1.13505
1.18251
1.41879
1.55216
1.14073
1.16664
1.21651
1.26244
1.29405
1.31802
1.34206
1.36164
1.39162
1.41308
1.43485
1.47372
1.53162
1.57403
1.61001
1.63082
1.6386
1.62986
1.59557
1.5236
1.40698
1.27688
1.16786
1.09242
1.05157
1.0301
1.01878
1.01364
1.0137
1.01943
1.03419
1.05925
1.1012
1.17345
1.26536
1.37014
1.46178
1.53445
1.59625
1.62973
1.65453
1.72316
1.75174
1.68693
1.50522
1.21995
1.1699
1.32577
1.54781
1.59206
1.48146
1.11599
1.12761
1.154
1.19337
1.24079
1.28839
1.33438
1.37663
1.42342
1.48428
1.56737
1.61481
1.65649
1.6764
1.68437
1.67383
1.64914
1.60352
1.51617
1.37928
1.2423
1.15146
1.1014
1.07592
1.05894
1.05907
1.07558
1.10664
1.15199
1.20822
1.27256
1.33751
1.40248
1.45414
1.50261
1.54612
1.58254
1.60856
1.63575
1.70986
1.75531
1.75425
1.66315
1.40467
1.26834
1.28391
1.49863
1.58401
1.5383
1.30585
1.10544
1.19088
1.19618
1.20409
1.2367
1.28717
1.33859
1.39048
1.4499
1.5169
1.5789
1.61655
1.6379
1.65107
1.64021
1.60383
1.53169
1.44376
1.35263
1.27574
1.2274
1.19933
1.19064
1.21348
1.24721
1.27779
1.31455
1.35507
1.38663
1.409
1.42987
1.44902
1.46993
1.49231
1.51422
1.5328
1.5478
1.59081
1.64964
1.72309
1.74418
1.7213
1.57518
1.39654
1.36922
1.44124
1.53433
1.5312
1.38393
1.16524
1.1056
1.10171
1.28986
1.29479
1.30498
1.32682
1.35526
1.38361
1.41538
1.45639
1.49054
1.50694
1.50046
1.48267
1.45155
1.41626
1.38422
1.36453
1.35586
1.35329
1.35302
1.3614
1.3659
1.39054
1.40063
1.39228
1.37992
1.37547
1.37995
1.39039
1.40508
1.41683
1.42611
1.43753
1.44561
1.4601
1.50371
1.55989
1.64393
1.69735
1.70755
1.6626
1.49462
1.4385
1.43495
1.49471
1.50847
1.43536
1.24365
1.15319
1.14108
1.14796
1.22353
1.24991
1.27185
1.28759
1.3112
1.32889
1.35085
1.37001
1.38908
1.39938
1.40971
1.42043
1.43121
1.43435
1.43182
1.42708
1.42322
1.4142
1.40223
1.39044
1.36041
1.33586
1.3107
1.29929
1.29063
1.28477
1.27651
1.27683
1.28432
1.29428
1.29757
1.30853
1.34087
1.39213
1.45859
1.54087
1.62687
1.65329
1.65811
1.57022
1.49665
1.47937
1.48012
1.50042
1.46504
1.3377
1.22566
1.19983
1.19676
1.2476
1.41915
1.65833
1.46907
1.44801
1.45405
1.45404
1.46259
1.47114
1.47851
1.48229
1.48157
1.47723
1.46849
1.45512
1.43954
1.41731
1.3867
1.33873
1.28655
1.24577
1.21733
1.20681
1.20871
1.22185
1.22774
1.22857
1.2263
1.21452
1.21077
1.21438
1.2266
1.24907
1.2911
1.34769
1.43796
1.55143
1.58537
1.60693
1.5937
1.5308
1.51911
1.51148
1.51996
1.51618
1.44714
1.33945
1.29019
1.28103
1.31322
1.46943
1.66026
1.79172
1.8908
1.65991
1.6365
1.60954
1.58061
1.54985
1.51983
1.49167
1.46441
1.43148
1.38727
1.33588
1.27463
1.23062
1.18339
1.14665
1.14487
1.14206
1.17549
1.2009
1.22775
1.25629
1.25908
1.26089
1.25216
1.2294
1.21396
1.21077
1.217
1.23764
1.28287
1.36781
1.46985
1.52189
1.556
1.55986
1.55638
1.54548
1.54317
1.56042
1.56736
1.555
1.49553
1.42947
1.41039
1.43282
1.56678
1.69174
1.78664
1.889
1.94627
1.99318
1.50125
1.4574
1.41288
1.36701
1.3213
1.27414
1.224
1.17354
1.12775
1.10253
1.09462
1.0921
1.09257
1.10526
1.1319
1.16334
1.20986
1.27801
1.31601
1.33958
1.34203
1.33751
1.32649
1.29958
1.27158
1.26271
1.26676
1.29116
1.35268
1.42795
1.48022
1.52692
1.5308
1.55046
1.55637
1.56697
1.58601
1.60484
1.618
1.60756
1.58107
1.5634
1.58054
1.67697
1.75721
1.81383
1.89579
1.94328
1.9694
2.00134
2.00846
1.34815
1.28128
1.22011
1.16388
1.11611
1.0803
1.06132
1.05818
1.06265
1.06454
1.07742
1.09248
1.11638
1.15546
1.20536
1.26309
1.31226
1.34936
1.37766
1.37205
1.37499
1.37009
1.36502
1.35953
1.3572
1.36317
1.38073
1.41327
1.44917
1.48634
1.50821
1.53196
1.55163
1.57534
1.61458
1.67772
1.68968
1.70884
1.7103
1.71413
1.72084
1.76517
1.81608
1.86391
1.90971
1.93586
1.96449
1.99053
1.99391
2.00557
2.01113
1.31134
1.23552
1.16924
1.11462
1.08676
1.0666
1.06904
1.07357
1.07781
1.0954
1.11686
1.15011
1.18939
1.22772
1.26982
1.30625
1.33915
1.3641
1.376
1.38729
1.38521
1.38911
1.39045
1.39506
1.40345
1.41666
1.43627
1.46155
1.49149
1.52735
1.55856
1.60543
1.65512
1.73553
1.75688
1.79567
1.7927
1.82101
1.82071
1.85157
1.85665
1.89849
1.92016
1.94411
1.96053
1.97348
1.98281
1.99155
1.99648
2.00284
2.00784
1.36343
1.28485
1.21569
1.15919
1.13151
1.11099
1.11847
1.11777
1.13226
1.14855
1.1746
1.20795
1.23626
1.27402
1.30027
1.32982
1.35382
1.37035
1.38778
1.39299
1.4013
1.40779
1.41527
1.42717
1.44226
1.46466
1.4966
1.53912
1.5989
1.6582
1.71433
1.77429
1.80938
1.84922
1.84558
1.8753
1.87266
1.8983
1.89597
1.92344
1.92362
1.9494
1.95177
1.96654
1.96974
1.97814
1.98278
1.9881
1.99262
1.99723
2.00253
1.50695
1.43692
1.37169
1.31436
1.26918
1.24617
1.22171
1.22985
1.22599
1.23544
1.24781
1.2692
1.29393
1.31694
1.3417
1.36066
1.37963
1.39448
1.41119
1.42346
1.43812
1.45534
1.47607
1.51043
1.55542
1.60872
1.6666
1.72592
1.7745
1.81352
1.85172
1.87261
1.89544
1.89409
1.91265
1.91217
1.9262
1.92685
1.93679
1.94334
1.94889
1.95662
1.95915
1.96517
1.96903
1.97391
1.97674
1.9828
1.98469
1.99191
1.99381
1.65932
1.60861
1.56059
1.51783
1.48508
1.461
1.44643
1.43909
1.43335
1.43106
1.42945
1.43186
1.43837
1.44579
1.45424
1.465
1.47824
1.4975
1.51934
1.54657
1.57862
1.61591
1.65886
1.70647
1.74165
1.78931
1.82442
1.85804
1.87996
1.89817
1.91474
1.91228
1.92546
1.92292
1.93347
1.93154
1.93969
1.93865
1.94557
1.94569
1.9509
1.95269
1.956
1.9588
1.96325
1.96501
1.97091
1.97237
1.97931
1.98133
1.98924
1.78727
1.75689
1.72769
1.70146
1.68018
1.66498
1.65606
1.64787
1.64933
1.64625
1.64603
1.64959
1.65619
1.66181
1.66887
1.67923
1.69066
1.70723
1.72553
1.74589
1.77021
1.7945
1.82324
1.8463
1.86921
1.88988
1.90548
1.9173
1.92408
1.93289
1.9291
1.93705
1.93376
1.93858
1.93615
1.93934
1.93826
1.94025
1.94064
1.94214
1.9437
1.94531
1.9479
1.94988
1.95354
1.9565
1.96111
1.96456
1.96983
1.97376
1.97982
1.8754
1.85943
1.84408
1.83055
1.82085
1.81497
1.80845
1.811
1.80934
1.80886
1.81157
1.81652
1.82112
1.82584
1.83177
1.83715
1.84519
1.8534
1.86301
1.87352
1.88489
1.89786
1.90962
1.91946
1.92819
1.93483
1.93966
1.94101
1.94262
1.93994
1.94037
1.94142
1.93629
1.9381
1.93415
1.93481
1.93269
1.93266
1.93244
1.93287
1.93347
1.9349
1.93715
1.93918
1.94276
1.94428
1.9513
1.95136
1.95948
1.95983
1.96967
1.93024
1.92376
1.91778
1.91283
1.90949
1.90909
1.90732
1.90922
1.90903
1.91022
1.91306
1.91575
1.91799
1.92063
1.92223
1.92465
1.92667
1.93008
1.9329
1.93641
1.93989
1.94411
1.94647
1.94882
1.95001
1.95008
1.95065
1.94631
1.94735
1.94176
1.9418
1.93679
1.93551
1.93095
1.92891
1.92542
1.92346
1.92194
1.92122
1.92106
1.92136
1.92282
1.92474
1.92684
1.9303
1.93354
1.93727
1.94109
1.9455
1.94985
1.95648
1.96166
1.96071
1.95992
1.95943
1.95991
1.96032
1.96152
1.96241
1.96286
1.96441
1.96546
1.96636
1.96668
1.96705
1.96636
1.96622
1.96531
1.96487
1.96372
1.96334
1.96376
1.96072
1.96275
1.95877
1.95856
1.95522
1.95252
1.94879
1.94605
1.94071
1.938
1.9322
1.92857
1.92379
1.91951
1.91541
1.91188
1.90951
1.90788
1.90713
1.90695
1.9083
1.90998
1.91261
1.91632
1.92007
1.92469
1.92881
1.93292
1.93727
1.94348
1.97805
1.97955
1.98114
1.98311
1.98501
1.98624
1.98805
1.98882
1.9896
1.99021
1.99031
1.98979
1.98887
1.98743
1.98576
1.98398
1.98153
1.97949
1.97694
1.97486
1.97222
1.96982
1.9673
1.96417
1.96111
1.95737
1.9534
1.94912
1.9442
1.93865
1.93388
1.92663
1.92147
1.91403
1.90763
1.9005
1.89362
1.88777
1.88365
1.8802
1.87867
1.87861
1.88009
1.88259
1.88614
1.89006
1.89436
1.89856
1.90212
1.90564
1.91147
1.98737
1.98963
1.99203
1.99418
1.99685
1.99871
2.00029
2.00134
2.00183
2.00206
2.00153
2.00056
1.99902
1.99699
1.99494
1.99182
1.98943
1.98644
1.98351
1.98042
1.97724
1.9741
1.97066
1.96703
1.96308
1.95853
1.95359
1.94766
1.94161
1.93391
1.92543
1.91669
1.9052
1.89566
1.88513
1.87671
1.87024
1.8663
1.86423
1.86397
1.86498
1.86841
1.87128
1.8765
1.88029
1.88494
1.88787
1.89191
1.89366
1.89392
1.89411
1.04624
1.04723
1.04808
1.04894
1.04973
1.0505
1.05119
1.05184
1.05244
1.05297
1.05343
1.05381
1.05414
1.05437
1.05453
1.05459
1.05459
1.05448
1.05429
1.05397
1.05357
1.05306
1.05245
1.05174
1.0509
1.04995
1.04632
1.04723
1.04812
1.04894
1.04972
1.05045
1.05111
1.05173
1.05229
1.05273
1.05319
1.0535
1.05379
1.054
1.05412
1.05416
1.05411
1.05397
1.05374
1.05341
1.05298
1.05245
1.05187
1.05105
1.0504
1.04917
1.04635
1.04717
1.04809
1.04887
1.04962
1.05033
1.05096
1.05153
1.05207
1.05251
1.05288
1.05319
1.05342
1.05359
1.05367
1.05368
1.05361
1.05344
1.05318
1.05283
1.05239
1.05186
1.05123
1.05051
1.0497
1.04879
1.04627
1.04716
1.04801
1.04881
1.04953
1.05019
1.0508
1.05134
1.05184
1.05225
1.05259
1.05286
1.05305
1.05318
1.05323
1.05321
1.05311
1.05291
1.05264
1.05227
1.05181
1.05129
1.05063
1.04994
1.04912
1.04821
1.04621
1.04712
1.04792
1.04871
1.04941
1.05005
1.05062
1.05115
1.05159
1.05197
1.05227
1.0525
1.05267
1.05276
1.05278
1.05274
1.0526
1.0524
1.0521
1.05172
1.05126
1.05071
1.05009
1.04936
1.04858
1.04768
1.04613
1.04702
1.04784
1.04859
1.04927
1.0499
1.05044
1.05093
1.05134
1.05168
1.05194
1.05216
1.05228
1.05235
1.05234
1.05227
1.0521
1.05186
1.05155
1.05116
1.05069
1.05017
1.04949
1.04891
1.04792
1.0473
1.04605
1.04692
1.04772
1.04845
1.04912
1.04971
1.05023
1.05068
1.05106
1.05138
1.05163
1.05178
1.05189
1.05191
1.05188
1.05177
1.05159
1.05133
1.051
1.05062
1.05014
1.04962
1.04899
1.04832
1.04754
1.04675
1.04594
1.0468
1.04759
1.0483
1.04894
1.04952
1.05
1.05044
1.05079
1.05107
1.05126
1.05141
1.05147
1.05148
1.05142
1.05128
1.05107
1.0508
1.05046
1.05006
1.04959
1.04906
1.04847
1.0478
1.0471
1.04621
1.04581
1.04665
1.04743
1.04813
1.04875
1.0493
1.04979
1.05016
1.0505
1.05075
1.05094
1.05103
1.05108
1.05105
1.05096
1.0508
1.05057
1.05029
1.04993
1.04953
1.04906
1.04854
1.04796
1.04732
1.04663
1.04584
1.04567
1.0465
1.04727
1.04794
1.04855
1.04909
1.04954
1.0499
1.05022
1.05041
1.05058
1.05065
1.05065
1.0506
1.05048
1.0503
1.05006
1.04976
1.0494
1.04902
1.04853
1.04805
1.04747
1.04687
1.0462
1.04549
1.04551
1.04632
1.04709
1.04776
1.04834
1.04887
1.04926
1.04964
1.04989
1.05008
1.05022
1.05025
1.05025
1.05017
1.05002
1.04982
1.04957
1.04926
1.0489
1.04851
1.04805
1.04758
1.04703
1.04646
1.04585
1.04513
1.04533
1.04616
1.04689
1.04756
1.04813
1.04862
1.04903
1.04934
1.04961
1.04974
1.04986
1.04987
1.04984
1.04973
1.04956
1.04937
1.04907
1.04878
1.04841
1.04803
1.04756
1.04712
1.04659
1.04608
1.0455
1.04484
1.04513
1.04595
1.04668
1.04735
1.0479
1.04839
1.04874
1.04911
1.04927
1.04945
1.0495
1.04951
1.04945
1.04931
1.04912
1.04887
1.04859
1.04824
1.04795
1.04745
1.04714
1.04663
1.04622
1.04574
1.04514
1.04472
1.04492
1.04573
1.0465
1.0471
1.0477
1.04813
1.04851
1.04882
1.04898
1.04914
1.04916
1.04914
1.04905
1.04889
1.04867
1.04839
1.04809
1.04776
1.0474
1.04702
1.04667
1.04627
1.04582
1.0454
1.04492
1.0444
1.04471
1.0455
1.04626
1.04691
1.04744
1.04791
1.04824
1.04854
1.04869
1.04881
1.04881
1.04876
1.04863
1.04843
1.04819
1.04787
1.04759
1.04721
1.04687
1.04653
1.04623
1.04578
1.04545
1.04506
1.04462
1.04426
1.04448
1.04528
1.04605
1.04666
1.04721
1.04764
1.04801
1.04821
1.04841
1.04846
1.04845
1.04836
1.04818
1.04797
1.04768
1.04732
1.04698
1.04665
1.04629
1.04593
1.04558
1.04528
1.04493
1.04462
1.0443
1.04403
1.04424
1.04505
1.04581
1.04644
1.04697
1.04741
1.04773
1.04794
1.0481
1.04809
1.04804
1.04791
1.04768
1.04742
1.04708
1.04671
1.04633
1.04596
1.04561
1.04525
1.04499
1.04468
1.04452
1.04425
1.04409
1.04391
1.04398
1.04483
1.04555
1.04621
1.04671
1.04716
1.04744
1.04766
1.04773
1.04774
1.04765
1.04744
1.04714
1.04679
1.04638
1.04598
1.04551
1.04521
1.04481
1.04467
1.04441
1.04444
1.04427
1.04434
1.04443
1.04453
1.04367
1.04459
1.04529
1.04595
1.04645
1.04687
1.04716
1.04733
1.04738
1.04733
1.04716
1.04685
1.04648
1.04604
1.04556
1.04519
1.04473
1.04478
1.04444
1.04503
1.0451
1.04572
1.04649
1.04753
1.04858
1.04965
1.04341
1.04429
1.04502
1.04566
1.04619
1.04658
1.04686
1.04693
1.04695
1.04676
1.04647
1.04606
1.04565
1.04511
1.04505
1.04454
1.04613
1.04565
1.04811
1.05086
1.05449
1.05712
1.06198
1.06727
1.07141
1.07601
1.04315
1.044
1.04474
1.04533
1.04585
1.0462
1.04638
1.04643
1.04625
1.04593
1.04563
1.0452
1.0454
1.04499
1.04737
1.04811
1.05679
1.05999
1.07117
1.08647
1.10342
1.11634
1.13564
1.15561
1.17149
1.19005
1.04277
1.04359
1.04434
1.04485
1.04538
1.04561
1.04575
1.04561
1.04541
1.04522
1.04542
1.04545
1.04961
1.05117
1.06318
1.08337
1.10196
1.14642
1.19292
1.24199
1.29023
1.33501
1.38421
1.42744
1.46084
1.49467
1.04226
1.04311
1.04379
1.04436
1.0448
1.04503
1.04502
1.04498
1.04517
1.04622
1.04974
1.05569
1.07793
1.09688
1.15971
1.22829
1.30439
1.36451
1.40729
1.44311
1.47805
1.50677
1.53837
1.57297
1.6039
1.63886
1.04214
1.043
1.0436
1.04426
1.04453
1.04476
1.04509
1.04619
1.04975
1.06071
1.07897
1.13268
1.20799
1.30042
1.36365
1.39326
1.4133
1.43716
1.45216
1.46938
1.48956
1.50886
1.52734
1.56173
1.60655
1.65215
1.04325
1.04398
1.04454
1.04495
1.04513
1.04636
1.0497
1.05965
1.08487
1.14527
1.24616
1.34078
1.38307
1.39886
1.40563
1.39727
1.37951
1.36706
1.34288
1.32929
1.31757
1.29168
1.28425
1.2899
1.30587
1.35095
1.04735
1.04715
1.04686
1.04697
1.04946
1.05839
1.0823
1.14556
1.25702
1.36538
1.39563
1.41083
1.38226
1.34591
1.30117
1.2977
1.29088
1.29151
1.29096
1.28041
1.26205
1.22445
1.20053
1.20047
1.21367
1.26241
1.05767
1.05295
1.05146
1.05689
1.07681
1.13133
1.27157
1.36918
1.41388
1.4172
1.36563
1.29085
1.24031
1.24608
1.27354
1.32431
1.3677
1.41335
1.38335
1.33665
1.29819
1.22518
1.2023
1.21675
1.27208
1.43526
1.06869
1.06059
1.07211
1.11546
1.23912
1.36991
1.44671
1.43151
1.35425
1.23971
1.17432
1.18219
1.24588
1.35184
1.45264
1.49274
1.49696
1.47276
1.36237
1.27094
1.26532
1.27555
1.35443
1.51626
1.61381
1.66371
1.07597
1.09664
1.19798
1.37614
1.4585
1.44869
1.3728
1.20755
1.12559
1.12375
1.17172
1.28153
1.40814
1.47576
1.49983
1.50208
1.48828
1.47694
1.47688
1.48494
1.50924
1.54658
1.56195
1.5687
1.54597
1.45182
1.15571
1.31469
1.48423
1.51342
1.40711
1.19185
1.09917
1.09006
1.11527
1.17748
1.25362
1.34882
1.40605
1.43075
1.44565
1.47174
1.48554
1.48973
1.48914
1.47165
1.4559
1.42297
1.40713
1.40284
1.40541
1.43612
1.46873
1.53086
1.50028
1.25458
1.0858
1.07118
1.08474
1.12601
1.16954
1.20154
1.23432
1.26167
1.29041
1.30847
1.31942
1.3205
1.32673
1.33083
1.34597
1.36302
1.38185
1.42339
1.48522
1.57162
1.72193
1.90336
1.56397
1.34861
1.10105
1.06586
1.06855
1.09377
1.13202
1.15938
1.18307
1.21546
1.24086
1.26211
1.28664
1.31011
1.33894
1.37529
1.41853
1.47071
1.5385
1.62502
1.72782
1.83201
1.93313
2.01458
2.06368
2.08341
1.177
1.07335
1.06416
1.07601
1.11545
1.17056
1.22634
1.28533
1.35005
1.41456
1.48217
1.55307
1.62308
1.69379
1.76178
1.82242
1.88309
1.94077
1.98856
2.02146
2.0425
2.0681
2.07823
2.09276
2.09782
2.10263
1.07393
1.07881
1.11532
1.19786
1.3248
1.47464
1.61343
1.7185
1.78678
1.8469
1.91196
1.95641
1.98496
2.01812
2.04267
2.0538
2.06645
2.07368
2.07999
2.08343
2.08917
2.093
2.09724
2.1006
2.10279
2.10444
1.12775
1.22033
1.40229
1.62362
1.77564
1.84889
1.91293
1.96598
2.01001
2.02882
2.05117
2.06198
2.06861
2.07379
2.0772
2.08051
2.08318
2.08553
2.08792
2.09078
2.09317
2.09564
2.09842
2.10113
2.10335
2.10574
1.41514
1.65576
1.81497
1.88696
1.95932
2.00186
2.03129
2.04597
2.05861
2.06613
2.07093
2.07397
2.07654
2.07872
2.08078
2.08238
2.08431
2.08623
2.08832
2.09041
2.0931
2.09587
2.09864
2.10145
2.10405
2.10651
1.80514
1.90197
1.95735
2.00785
2.0269
2.04789
2.05501
2.06204
2.06571
2.06892
2.07156
2.07364
2.07555
2.07723
2.07875
2.08057
2.08249
2.08473
2.08688
2.08957
2.09257
2.09547
2.09853
2.10158
2.10429
2.10687
1.96109
1.99597
2.02008
2.03948
2.04545
2.05263
2.05686
2.06084
2.06312
2.06619
2.06823
2.07021
2.07198
2.07368
2.07537
2.07731
2.07949
2.08187
2.08431
2.08729
2.09061
2.09385
2.09736
2.10056
2.1037
2.10639
2.00462
2.02341
2.03471
2.03979
2.04551
2.04998
2.05337
2.0565
2.05913
2.06157
2.06367
2.06566
2.0675
2.0694
2.07124
2.07325
2.07558
2.07832
2.08114
2.08443
2.08819
2.09198
2.09574
2.09962
2.10304
2.1063
2.02031
2.02591
2.03226
2.037
2.04114
2.04478
2.04823
2.05109
2.05394
2.05626
2.05848
2.06035
2.06215
2.06388
2.06576
2.06769
2.07021
2.07318
2.07648
2.08004
2.08442
2.08879
2.09315
2.0975
2.10165
2.10532
2.01776
2.02302
2.02739
2.03175
2.03554