/*--------------------------------*- C++ -*----------------------------------*\
  =========                 |
  \\      /  F ield         | OpenFOAM: The Open Source CFD Toolbox
   \\    /   O peration     | Website:  https://openfoam.org
    \\  /    A nd           | Version:  10
     \\/     M anipulation  |
\*---------------------------------------------------------------------------*/
FoamFile
{
    format      ascii;
    class       volScalarField;
    location    "0.902556";
    object      T;
}
// * * * * * * * * * * * * * * * * * * * * * * * * * * * * * * * * * * * * * //

dimensions      [0 0 0 1 0 0 0];

internalField   nonuniform List<scalar> 
15708
(
0.00858757
0.00859178
0.00859695
0.00860239
0.00860777
0.00861294
0.00861832
0.00862373
0.00862941
0.00863525
0.00864146
0.00864799
0.00865481
0.0086618
0.00866882
0.0086757
0.00868257
0.00868927
0.00869593
0.00870263
0.0087092
0.00871592
0.00872253
0.00872908
0.00873581
0.00874235
0.00874894
0.00875549
0.00876191
0.00876839
0.00877461
0.00878078
0.00878689
0.00879283
0.00879861
0.00880425
0.00880972
0.00881481
0.00882005
0.00882472
0.00882956
0.00883404
0.00883861
0.00884295
0.00884713
0.00885133
0.00885506
0.00885958
0.00886271
0.0088671
0.00887016
0.00858551
0.00859147
0.00859709
0.00860272
0.00860799
0.00861314
0.00861838
0.00862366
0.00862911
0.00863479
0.0086409
0.00864726
0.00865389
0.00866072
0.00866751
0.00867424
0.00868097
0.00868762
0.00869421
0.0087008
0.00870742
0.00871408
0.00872083
0.0087274
0.00873414
0.00874062
0.00874729
0.00875382
0.00876036
0.00876676
0.00877323
0.00877944
0.00878558
0.00879163
0.00879744
0.00880316
0.00880872
0.0088139
0.00881935
0.00882405
0.0088291
0.00883353
0.00883811
0.00884257
0.00884667
0.00885083
0.00885479
0.0088588
0.00886254
0.0088662
0.00886972
0.00858475
0.0085958
0.00859605
0.00860323
0.00860831
0.00861324
0.00861814
0.00862325
0.00862853
0.00863417
0.00864017
0.00864642
0.00865288
0.00865952
0.00866624
0.00867286
0.00867945
0.00868608
0.00869242
0.00869902
0.00870546
0.00871212
0.00871876
0.00872544
0.00873211
0.00873885
0.00874542
0.00875213
0.0087587
0.00876518
0.00877177
0.008778
0.00878441
0.00879043
0.0087965
0.00880214
0.00880786
0.00881317
0.00881856
0.0088235
0.00882855
0.00883314
0.00883778
0.00884218
0.00884652
0.00885056
0.00885456
0.00885843
0.00886241
0.00886564
0.00886978
0.00859362
0.00858992
0.00859931
0.00860203
0.00860716
0.00861199
0.00861691
0.00862218
0.00862761
0.00863338
0.00863924
0.00864533
0.00865171
0.00865832
0.0086651
0.00867171
0.00867841
0.00868472
0.00869122
0.00869757
0.00870398
0.00871056
0.00871711
0.0087238
0.00873038
0.00873713
0.00874373
0.00875043
0.00875704
0.00876363
0.00877014
0.00877667
0.00878298
0.00878925
0.00879538
0.00880115
0.00880703
0.00881242
0.00881791
0.00882296
0.00882806
0.0088327
0.00883737
0.00884174
0.00884621
0.0088503
0.00885413
0.00885833
0.00886168
0.00886573
0.00886888
0.00858616
0.00859236
0.0085966
0.00860146
0.00860639
0.00861144
0.00861658
0.00862176
0.00862711
0.00863273
0.00863856
0.00864462
0.0086509
0.00865733
0.00866383
0.00867036
0.00867671
0.00868306
0.00868939
0.00869574
0.00870228
0.00870878
0.00871547
0.00872205
0.00872877
0.00873542
0.00874218
0.00874882
0.0087556
0.00876216
0.00876881
0.0087753
0.00878177
0.00878803
0.00879419
0.00880018
0.00880603
0.00881159
0.00881725
0.00882233
0.00882758
0.00883229
0.00883713
0.00884138
0.00884597
0.0088501
0.00885395
0.00885809
0.00886147
0.00886536
0.00886845
0.00858743
0.0085923
0.00859669
0.00860138
0.00860606
0.00861088
0.00861596
0.00862126
0.0086267
0.00863226
0.0086379
0.00864371
0.00864969
0.00865591
0.00866226
0.00866856
0.00867482
0.00868095
0.0086872
0.00869358
0.00870012
0.0087068
0.00871363
0.00872036
0.00872711
0.00873387
0.00874061
0.00874737
0.0087542
0.00876098
0.00876774
0.00877438
0.00878086
0.00878725
0.0087934
0.00879935
0.00880524
0.00881084
0.00881649
0.00882175
0.00882697
0.00883184
0.0088366
0.00884116
0.00884559
0.00884983
0.00885382
0.00885768
0.00886142
0.00886504
0.00886822
0.00858774
0.00858764
0.00859371
0.00859803
0.00860278
0.00860805
0.00861349
0.00861899
0.00862457
0.0086302
0.00863579
0.0086414
0.00864727
0.00865351
0.00865999
0.00866677
0.00867329
0.00867977
0.00868602
0.00869252
0.00869905
0.00870579
0.00871232
0.00871919
0.00872594
0.00873287
0.00873975
0.00874659
0.00875325
0.00875979
0.00876619
0.00877258
0.00877911
0.00878558
0.00879201
0.00879825
0.00880438
0.00881021
0.00881596
0.00882135
0.00882658
0.00883163
0.00883634
0.00884097
0.00884539
0.00884963
0.00885366
0.00885745
0.00886119
0.00886466
0.00886795
0.0085818
0.00858763
0.00859139
0.00859619
0.00860156
0.00860714
0.00861271
0.00861813
0.00862336
0.00862865
0.00863414
0.00863998
0.0086461
0.00865252
0.00865907
0.00866583
0.00867246
0.00867896
0.00868525
0.00869151
0.00869799
0.00870445
0.00871118
0.00871801
0.00872509
0.00873218
0.00873906
0.0087457
0.00875209
0.00875852
0.00876489
0.00877127
0.00877775
0.0087842
0.00879065
0.00879709
0.0088034
0.00880952
0.00881541
0.00882103
0.00882632
0.00883131
0.0088362
0.00884061
0.00884532
0.00884936
0.00885342
0.00885736
0.00886088
0.00886459
0.00886767
0.00858427
0.00858276
0.0085927
0.00859263
0.00860031
0.0086047
0.00860989
0.00861521
0.00862085
0.00862668
0.00863272
0.008639
0.00864548
0.00865217
0.00865861
0.00866487
0.00867106
0.0086774
0.00868391
0.00869059
0.00869738
0.00870409
0.0087107
0.00871723
0.00872382
0.00873047
0.00873716
0.00874378
0.00875042
0.00875698
0.00876368
0.00877028
0.00877687
0.00878346
0.00878992
0.00879628
0.0088026
0.00880872
0.00881466
0.00882031
0.00882571
0.0088308
0.00883578
0.00884033
0.00884506
0.00884916
0.00885334
0.00885711
0.00886082
0.00886431
0.00886753
0.00857849
0.00858524
0.0085855
0.00859447
0.00859405
0.00860302
0.00860664
0.00861307
0.00861871
0.00862463
0.00863098
0.0086377
0.00864459
0.00865132
0.0086577
0.00866397
0.0086702
0.0086767
0.00868347
0.00869018
0.00869666
0.00870292
0.00870926
0.0087156
0.00872216
0.00872876
0.00873542
0.00874223
0.00874903
0.00875604
0.00876288
0.00876986
0.00877651
0.00878326
0.00878969
0.00879623
0.00880235
0.00880844
0.00881426
0.00881988
0.0088252
0.00883033
0.0088353
0.00883996
0.0088447
0.0088489
0.00885305
0.00885686
0.00886063
0.00886404
0.00886731
0.00856924
0.00857072
0.00857912
0.00858834
0.00859266
0.00859966
0.00860549
0.00861171
0.00861741
0.00862318
0.00862922
0.00863567
0.00864266
0.00864986
0.00865668
0.00866335
0.00866994
0.00867651
0.008683
0.00868944
0.00869574
0.0087019
0.00870811
0.00871443
0.00872088
0.00872761
0.00873441
0.00874138
0.00874826
0.00875515
0.00876187
0.00876867
0.00877531
0.00878201
0.00878851
0.008795
0.00880137
0.00880751
0.0088134
0.00881924
0.00882471
0.00883006
0.00883507
0.00883979
0.00884451
0.00884868
0.00885275
0.00885674
0.00886033
0.00886386
0.00886711
0.00855307
0.00853376
0.00857455
0.00856166
0.00859204
0.00858625
0.00860611
0.00860676
0.00861734
0.00862313
0.00862909
0.00863516
0.00864126
0.00864778
0.0086548
0.00866201
0.00866909
0.00867599
0.00868256
0.0086889
0.00869523
0.00870158
0.00870789
0.00871415
0.00872044
0.00872693
0.00873352
0.0087403
0.00874709
0.00875399
0.00876074
0.00876762
0.00877427
0.00878105
0.00878758
0.0087942
0.00880052
0.00880687
0.00881286
0.00881861
0.00882413
0.00882947
0.00883451
0.00883943
0.00884417
0.00884849
0.00885257
0.0088565
0.00886007
0.00886355
0.00886663
0.0084032
0.00849185
0.00850493
0.00855091
0.00855116
0.00858516
0.00858299
0.0086087
0.00860973
0.00862241
0.00862908
0.00863521
0.00864123
0.0086476
0.00865445
0.00866149
0.00866854
0.00867551
0.00868224
0.00868871
0.00869497
0.0087012
0.00870733
0.00871348
0.00871968
0.00872604
0.00873261
0.00873927
0.00874602
0.00875283
0.00875967
0.00876652
0.00877338
0.00878026
0.00878699
0.00879358
0.00879999
0.00880623
0.00881235
0.0088181
0.00882361
0.00882903
0.00883409
0.00883906
0.00884366
0.00884787
0.00885208
0.00885593
0.00885981
0.00886313
0.00886651
0.00817274
0.00833307
0.00831399
0.00847534
0.00848168
0.00854487
0.00857094
0.00858764
0.00860307
0.00861335
0.00862278
0.00863126
0.00863905
0.00864653
0.00865371
0.00866083
0.00866794
0.00867499
0.00868174
0.00868816
0.00869425
0.00870021
0.0087062
0.00871226
0.00871847
0.00872483
0.0087313
0.00873802
0.0087449
0.00875188
0.00875886
0.00876572
0.00877265
0.0087794
0.0087862
0.0087928
0.00879935
0.00880545
0.00881149
0.00881732
0.00882302
0.00882837
0.00883345
0.00883842
0.00884293
0.00884735
0.00885154
0.00885566
0.00885932
0.00886293
0.00886601
0.00771587
0.00776509
0.00818533
0.00823318
0.00841001
0.00848006
0.00852962
0.00856682
0.00859078
0.00860727
0.00861963
0.00862932
0.0086375
0.00864519
0.00865273
0.00866007
0.00866711
0.00867386
0.00868046
0.00868676
0.008693
0.008699
0.0087052
0.00871129
0.0087178
0.00872411
0.00873076
0.0087372
0.00874398
0.00875067
0.00875755
0.0087645
0.00877141
0.00877842
0.00878529
0.00879207
0.00879859
0.0088049
0.00881091
0.00881672
0.00882239
0.00882771
0.00883289
0.00883788
0.00884229
0.00884663
0.00885095
0.00885488
0.00885894
0.00886216
0.00886582
0.00645168
0.0069668
0.00739666
0.0078433
0.00810196
0.0083043
0.00843052
0.00850803
0.00855892
0.00859131
0.00861189
0.00862592
0.00863627
0.00864491
0.00865282
0.00866025
0.00866722
0.00867382
0.00868018
0.00868637
0.0086924
0.00869857
0.00870441
0.00871098
0.00871692
0.00872373
0.00872979
0.00873669
0.00874296
0.00875
0.00875656
0.00876368
0.00877057
0.00877747
0.00878439
0.00879115
0.00879758
0.00880391
0.00880995
0.00881587
0.00882146
0.00882688
0.00883205
0.00883719
0.00884155
0.00884603
0.00885026
0.00885423
0.00885822
0.00886142
0.00886501
0.00567851
0.00601627
0.0065228
0.00706882
0.00757647
0.00797043
0.00824325
0.00841087
0.00850737
0.00856471
0.00859933
0.00862057
0.00863444
0.00864457
0.00865319
0.00866091
0.00866799
0.00867454
0.00868082
0.00868675
0.00869273
0.0086986
0.00870463
0.00871024
0.00871669
0.00872215
0.00872932
0.00873469
0.0087427
0.00874811
0.0087564
0.00876229
0.00877017
0.00877664
0.00878362
0.00879027
0.00879688
0.00880303
0.00880909
0.00881494
0.00882067
0.00882601
0.00883134
0.00883625
0.00884078
0.00884525
0.00884949
0.0088535
0.00885732
0.00886066
0.0088641
0.00534837
0.00554028
0.00577309
0.00630725
0.00695852
0.0074888
0.00791155
0.00821047
0.00839619
0.00850455
0.00856796
0.00860517
0.0086277
0.00864229
0.00865255
0.00866077
0.00866814
0.00867481
0.00868126
0.00868718
0.00869295
0.0086986
0.0087043
0.00871011
0.00871544
0.00872204
0.0087269
0.00873514
0.00873898
0.0087495
0.00875247
0.00876426
0.00876661
0.00877883
0.00878044
0.00878982
0.00879582
0.00880247
0.00880847
0.00881422
0.0088197
0.00882504
0.00883052
0.00883533
0.00883976
0.00884429
0.00884839
0.00885245
0.00885621
0.00885966
0.00886285
0.00537557
0.00534928
0.0054949
0.00575655
0.0062297
0.007014
0.007533
0.00793706
0.008239
0.00842893
0.00853173
0.0085883
0.00862019
0.00863899
0.00865136
0.00866055
0.00866826
0.00867508
0.00868142
0.00868749
0.00869309
0.00869866
0.00870402
0.00870955
0.00871508
0.00872061
0.0087273
0.00873174
0.00874062
0.00874447
0.00875524
0.00875856
0.00877029
0.00877312
0.00878481
0.00878681
0.00879764
0.00879948
0.00880723
0.00881381
0.0088189
0.00882438
0.0088291
0.00883444
0.00883879
0.00884372
0.00884781
0.00885195
0.00885562
0.00885933
0.00886198
0.00538059
0.00537578
0.00532283
0.00552676
0.00593705
0.00621008
0.00721378
0.00771241
0.00803268
0.00827563
0.0084453
0.00854322
0.00859715
0.00862844
0.00864762
0.00865977
0.00866876
0.00867616
0.0086824
0.00868803
0.0086937
0.00869829
0.00870416
0.00870822
0.00871513
0.00871874
0.00872746
0.00873089
0.00873966
0.00874509
0.00875205
0.00875954
0.00876537
0.00877477
0.00877941
0.00878935
0.00879291
0.00880259
0.00880497
0.00881156
0.00881723
0.00882352
0.00882825
0.00883289
0.0088374
0.00884199
0.00884628
0.00885041
0.00885437
0.00885799
0.00886105
0.00545605
0.00535213
0.0053265
0.00542711
0.00549805
0.00632253
0.00631401
0.00733792
0.00794503
0.0082199
0.00838734
0.00850331
0.00857478
0.00861625
0.00864114
0.00865738
0.00866856
0.00867656
0.00868339
0.00868847
0.00869399
0.00869811
0.00870356
0.00870825
0.00871361
0.00871946
0.00872477
0.00873252
0.00873658
0.00874633
0.00874992
0.00876064
0.00876354
0.00877257
0.00878079
0.00878501
0.00879361
0.00879741
0.00880659
0.00880965
0.00881633
0.0088225
0.00882692
0.00883106
0.00883574
0.00884017
0.00884446
0.00884863
0.00885255
0.00885615
0.0088596
0.0055427
0.00536008
0.00533251
0.00532845
0.00548172
0.00585466
0.00648931
0.00698918
0.00754916
0.00804881
0.00833188
0.00847713
0.00856124
0.00860997
0.00863833
0.00865618
0.00866851
0.00867703
0.00868391
0.00868903
0.00869371
0.00869839
0.00870212
0.00870799
0.00871196
0.00871901
0.00872347
0.00873112
0.00873728
0.00874339
0.00875129
0.00875677
0.00876648
0.00877065
0.00878071
0.00878404
0.00879365
0.00879646
0.00880309
0.00880947
0.00881488
0.00882064
0.00882557
0.00883058
0.00883534
0.00884039
0.00884416
0.00884818
0.00885165
0.00885513
0.00885864
0.00550237
0.00534091
0.00529582
0.0053066
0.00539423
0.00569758
0.00634789
0.00690698
0.00742385
0.00788143
0.00822699
0.00843396
0.00854117
0.00859976
0.00863448
0.00865528
0.00866858
0.00867821
0.00868457
0.0086903
0.00869371
0.00869876
0.00870147
0.00870757
0.00871154
0.00871763
0.00872343
0.008728
0.00873626
0.00874124
0.00875059
0.00875536
0.00876532
0.00876986
0.00877927
0.0087843
0.0087898
0.00879751
0.00880285
0.00880707
0.00881244
0.00881803
0.00882333
0.00882836
0.0088333
0.00883809
0.00884262
0.00884696
0.00885091
0.00885492
0.00885831
0.00536769
0.00526853
0.00526046
0.00526353
0.00541237
0.00571905
0.00634091
0.00691679
0.0074208
0.00782218
0.00813505
0.00836832
0.00851288
0.00859054
0.00863079
0.0086541
0.00866838
0.00867838
0.00868493
0.00869076
0.00869421
0.00869851
0.008702
0.00870597
0.00871161
0.00871541
0.00872336
0.00872696
0.00873575
0.00873949
0.00874866
0.00875593
0.0087607
0.0087695
0.00877508
0.00878497
0.00879042
0.00879473
0.00880246
0.00880833
0.00881214
0.00881719
0.0088223
0.00882755
0.00883212
0.00883641
0.00884044
0.00884472
0.00884879
0.00885215
0.00885502
0.00524323
0.00523645
0.00524127
0.0053113
0.00541526
0.00586545
0.00640735
0.00697835
0.00746419
0.00784351
0.00813512
0.00834042
0.00848186
0.00857018
0.00862089
0.00864995
0.00866702
0.00867794
0.00868542
0.00869046
0.00869535
0.00869857
0.00870305
0.0087061
0.00871189
0.00871542
0.00872274
0.00872684
0.00873498
0.00873954
0.00874773
0.00875443
0.00876096
0.00876606
0.00877546
0.00878097
0.0087905
0.0087956
0.0087989
0.00880608
0.00881182
0.00881628
0.00882064
0.00882572
0.00883062
0.00883461
0.00883736
0.00883951
0.00884101
0.00884136
0.0088419
0.00531817
0.00530506
0.00533883
0.00537387
0.00572505
0.00609201
0.00659617
0.00709544
0.00754208
0.0078928
0.00815674
0.00834743
0.00847975
0.00856445
0.00861656
0.00864746
0.00866588
0.00867729
0.00868532
0.00869005
0.00869542
0.0086985
0.0087034
0.00870634
0.00871218
0.00871566
0.00872302
0.00872713
0.0087362
0.0087402
0.00874922
0.008754
0.00876256
0.00876666
0.00877464
0.00877904
0.00878837
0.00879237
0.00879947
0.00880321
0.00880994
0.00881417
0.00881742
0.00882191
0.00882524
0.00882547
0.00882317
0.00881693
0.00880807
0.00880194
0.00879954
0.00600321
0.00589338
0.00586605
0.0059721
0.00620977
0.00658416
0.0069646
0.00737059
0.00773602
0.00802259
0.00822595
0.00837879
0.00849065
0.00856825
0.00861754
0.00864693
0.00866491
0.00867578
0.00868423
0.00868862
0.00869439
0.00869746
0.00870255
0.00870557
0.0087115
0.00871511
0.00872254
0.00872698
0.00873625
0.00874142
0.00875188
0.00875649
0.00876623
0.00877061
0.00877655
0.00878081
0.0087884
0.00879294
0.00879814
0.00880408
0.0088065
0.00881015
0.00881295
0.00881125
0.00880397
0.00878759
0.00876287
0.00872042
0.00868218
0.00867218
0.00867317
0.00683663
0.00686032
0.00688488
0.00697463
0.00712086
0.00731662
0.00754267
0.00779237
0.00801802
0.00820794
0.00834323
0.00844002
0.00851581
0.00857496
0.00861663
0.00864307
0.00865927
0.00866841
0.00867612
0.00868009
0.00868597
0.00868924
0.00869555
0.00869941
0.00870686
0.00871126
0.00871996
0.00872498
0.00873535
0.00874089
0.00875197
0.00875739
0.00876682
0.00877377
0.00877895
0.00878459
0.00878951
0.00879215
0.00879552
0.00879986
0.00880081
0.00879873
0.00878796
0.0087569
0.00869083
0.00859756
0.00850034
0.00836869
0.00826916
0.00832759
0.00848765
0.00663562
0.00684663
0.00702791
0.00721443
0.00740967
0.00759846
0.00778249
0.00797169
0.00812795
0.0082685
0.00837044
0.00844628
0.00851026
0.00855991
0.00859346
0.00861197
0.00862177
0.00862485
0.00862716
0.0086286
0.00863593
0.00864579
0.00865947
0.00867061
0.00868551
0.0086958
0.00870944
0.00871814
0.00873094
0.00873844
0.00875067
0.0087565
0.00876605
0.00877293
0.00877778
0.00878292
0.00878689
0.00878858
0.00878805
0.00878475
0.00877068
0.00872608
0.00860288
0.00839315
0.00816784
0.00792629
0.00768348
0.00747638
0.0077083
0.00813859
0.00845115
0.00621871
0.00638231
0.00664453
0.00695196
0.00723438
0.0074795
0.007686
0.00788661
0.00803592
0.00817202
0.00826077
0.00832473
0.00836559
0.00838694
0.00839063
0.00838217
0.00836665
0.00834515
0.00832977
0.00832727
0.0083469
0.00838928
0.0084413
0.00849953
0.0085598
0.00860969
0.00865223
0.00868316
0.00870812
0.00872515
0.00874305
0.00875291
0.00876352
0.0087699
0.00877424
0.00877648
0.0087755
0.00876583
0.00872937
0.00863566
0.0084361
0.00806488
0.00758774
0.00715641
0.00684643
0.00654283
0.00651941
0.00694006
0.00769161
0.00822407
0.00839702
0.00632728
0.00627642
0.00629328
0.00637398
0.0065426
0.00675686
0.00694984
0.0071652
0.00729933
0.00742469
0.00746529
0.00750443
0.00746845
0.00743756
0.0074029
0.00734928
0.00728826
0.00721268
0.00713141
0.00707995
0.00708444
0.0072335
0.00756549
0.00788714
0.00815972
0.00836674
0.00851167
0.00860527
0.00866911
0.00871111
0.00873534
0.00874728
0.00875659
0.00875843
0.00875266
0.00872566
0.00865514
0.00849663
0.00815335
0.00756603
0.00693296
0.00641602
0.00609499
0.00592671
0.00581435
0.00587431
0.00624289
0.00741272
0.00814625
0.00814751
0.00729059
0.00665674
0.0064107
0.00630925
0.00626938
0.0062435
0.00623349
0.00622809
0.00625614
0.0062517
0.00626382
0.00623165
0.0062117
0.0062318
0.00618366
0.00608091
0.00598377
0.0058915
0.00580416
0.00575737
0.0058054
0.00608129
0.00663134
0.00720179
0.00769562
0.00807548
0.0083419
0.00850879
0.00860339
0.00866357
0.0086988
0.00871381
0.0087122
0.00868914
0.00862603
0.00848708
0.00820114
0.00768444
0.00702317
0.0064165
0.00601871
0.00569454
0.00555158
0.00548318
0.00538003
0.00540707
0.00590979
0.00733721
0.00800181
0.00769206
0.00642303
0.00588126
0.00698552
0.00686552
0.00662195
0.00642057
0.00630117
0.00622162
0.00614265
0.00608573
0.0059835
0.0059193
0.00585344
0.00572048
0.00552339
0.00539087
0.00528435
0.00522884
0.00521443
0.00525128
0.00537151
0.00563233
0.00610876
0.00673981
0.00737795
0.00789698
0.00821573
0.00840056
0.00850943
0.00857074
0.00858927
0.00856028
0.00845759
0.00827654
0.0079795
0.00750948
0.00698202
0.00646386
0.00607154
0.00579659
0.00558399
0.00548018
0.00540802
0.00520215
0.0051262
0.00533278
0.00598796
0.00739682
0.00772657
0.00682746
0.00586097
0.00570708
0.00614801
0.00716578
0.00712812
0.00700408
0.00681152
0.00658915
0.00638201
0.00619621
0.00603676
0.00586598
0.00564995
0.00537158
0.00523223
0.00511654
0.00506951
0.00505717
0.00509851
0.0051841
0.00534092
0.0056553
0.00621942
0.00690966
0.0074626
0.00781177
0.00800728
0.00814542
0.00815561
0.00804338
0.00783421
0.00754388
0.00721045
0.00686327
0.00654665
0.0062593
0.00604902
0.00586788
0.00571648
0.00559761
0.00551859
0.0054375
0.00521078
0.00508419
0.00509596
0.00538356
0.00638595
0.00708421
0.00700798
0.00601786
0.00570049
0.00587878
0.00694026
0.0082065
0.00674611
0.00674915
0.00674071
0.00659941
0.0063762
0.00616522
0.0059668
0.00575023
0.00552107
0.00532608
0.00522111
0.00517004
0.00514482
0.00519196
0.00532023
0.00557659
0.0059218
0.00632616
0.00671317
0.0069848
0.00715316
0.00720661
0.00708022
0.00689694
0.00674091
0.00656223
0.00637722
0.00624079
0.00615275
0.00607667
0.00601121
0.00594096
0.00586679
0.00579606
0.00573997
0.0056984
0.00555605
0.00536754
0.00514771
0.00509332
0.00516838
0.00565729
0.00638978
0.00652948
0.00621245
0.00584365
0.00586646
0.00650366
0.00772817
0.00816686
0.00821349
0.00626693
0.00627005
0.00625197
0.00618064
0.00608251
0.00598857
0.00588341
0.00574493
0.00563731
0.00559627
0.00563799
0.00572122
0.00585683
0.00601493
0.00616459
0.0062634
0.00630902
0.006322
0.00632874
0.00629391
0.00627589
0.00616704
0.00612163
0.00616093
0.00622163
0.00624986
0.00624048
0.00620627
0.00615512
0.00611853
0.00609429
0.00606175
0.00604212
0.00599667
0.00583642
0.00563847
0.00535989
0.00520039
0.00517769
0.0053253
0.00592932
0.00617096
0.00619518
0.00595936
0.00591117
0.00621919
0.00719164
0.00777121
0.00786859
0.00783922
0.00737314
0.00651159
0.00642408
0.00637412
0.00628746
0.00623255
0.00615936
0.00609989
0.00604155
0.00602004
0.0059979
0.00597041
0.00594106
0.00593885
0.00595827
0.00598579
0.00600797
0.00604958
0.00610368
0.00615419
0.00629166
0.00640776
0.00652854
0.00658464
0.00663006
0.00666456
0.00671447
0.00672246
0.0066937
0.00665566
0.00665476
0.00661677
0.00647544
0.00625516
0.00598481
0.00567774
0.00538822
0.00531134
0.00530357
0.00560849
0.00589318
0.00596859
0.00597309
0.00589962
0.00605033
0.00663623
0.0072548
0.00742341
0.0074585
0.00717252
0.00631864
0.00541581
0.00557573
0.00567691
0.00567727
0.00570065
0.00569194
0.00568236
0.00567686
0.00568347
0.00570552
0.00573987
0.00578858
0.0058538
0.00592661
0.00602652
0.00616426
0.00638718
0.00664585
0.00686219
0.0070193
0.00707757
0.00706558
0.00699069
0.0069574
0.00695365
0.00696992
0.00704332
0.00707452
0.00706452
0.00700752
0.00689688
0.00668857
0.00642299
0.00603699
0.00560815
0.00549842
0.00543436
0.00548664
0.00572097
0.00577357
0.00580971
0.00578412
0.00580461
0.00608773
0.00658772
0.00684865
0.00691059
0.00675808
0.00605141
0.00536458
0.00498003
0.00472785
0.00497294
0.0050604
0.00516291
0.00527549
0.00539878
0.00552615
0.00565048
0.00577391
0.00592338
0.00612697
0.00637427
0.00668953
0.00693677
0.00721929
0.00745343
0.00746753
0.00748604
0.00727127
0.00711329
0.00695261
0.00679207
0.00677442
0.00676335
0.00681069
0.00693788
0.00703161
0.00705905
0.00703299
0.0069279
0.0066987
0.00630014
0.00587402
0.00568358
0.00557077
0.00556611
0.005587
0.00563427
0.00565
0.00559555
0.00557553
0.00562604
0.00585514
0.00613188
0.00622693
0.0061429
0.00562674
0.00521828
0.00494989
0.00468996
0.00455951
0.00446238
0.00553606
0.00572006
0.00591879
0.00613685
0.0063691
0.00662201
0.00691219
0.00722651
0.00753564
0.00772536
0.00779426
0.00782059
0.007825
0.00773823
0.00755645
0.00735177
0.00706815
0.00668862
0.00649179
0.00637173
0.00635256
0.00636957
0.00642061
0.0065546
0.00669999
0.00675287
0.00673891
0.00662151
0.00633173
0.00600665
0.00580245
0.00563706
0.00562945
0.00556887
0.00555527
0.00552458
0.00546486
0.00540766
0.00536805
0.00540694
0.00550393
0.00557317
0.00552279
0.00521133
0.0049796
0.00483048
0.00463044
0.00452473
0.00447328
0.00441114
0.00440585
0.00619741
0.00653947
0.00688677
0.00723972
0.00756858
0.0078381
0.00800117
0.00803926
0.00801871
0.00801794
0.0079317
0.00782939
0.00766741
0.00741031
0.00710346
0.00677574
0.00651514
0.00633117
0.00620258
0.00621811
0.00619818
0.00621542
0.006236
0.00625942
0.00627092
0.0062468
0.00617215
0.0060367
0.00589498
0.00575542
0.0056798
0.0055998
0.00553572
0.00545873
0.00533611
0.00513775
0.00510411
0.00505158
0.00505025
0.00504388
0.00503019
0.00490824
0.00477599
0.00465909
0.00455333
0.00449801
0.0044425
0.00439175
0.00439411
0.00437968
0.00437908
0.00640309
0.00681374
0.00721904
0.00759622
0.00779894
0.00796627
0.00796829
0.00794533
0.00792669
0.00781
0.00766784
0.00745149
0.00720753
0.00698275
0.00674967
0.00655787
0.00639103
0.00626778
0.00620989
0.00615097
0.00615415
0.0061317
0.00612215
0.0060997
0.00606269
0.00600715
0.00592756
0.00582906
0.0057166
0.00558736
0.00548178
0.00532756
0.00517431
0.0049368
0.00488017
0.00477598
0.0047856
0.00471315
0.00471653
0.00464035
0.00463158
0.00453481
0.00448813
0.00443881
0.00440805
0.00438667
0.00437515
0.00436587
0.00436595
0.00436436
0.00436639
0.0061877
0.00658167
0.00697267
0.00733367
0.00753166
0.00767181
0.00763827
0.00765616
0.00756812
0.00746848
0.00730845
0.00710994
0.00694815
0.00674122
0.00660237
0.0064512
0.00633099
0.00624796
0.00616186
0.00613194
0.00608876
0.00605458
0.00601781
0.00596432
0.00589953
0.00580825
0.00568428
0.00552897
0.00532476
0.00513804
0.00497252
0.00480592
0.0047126
0.00461258
0.00462177
0.0045499
0.0045563
0.00449541
0.00450222
0.0044398
0.0044416
0.00438882
0.00438734
0.00436196
0.00436151
0.00435179
0.00435147
0.00435094
0.00435332
0.00435674
0.00435945
0.00562389
0.00591069
0.00620524
0.00649093
0.0067381
0.0068759
0.00701305
0.00698114
0.00701177
0.00696405
0.00689868
0.00678387
0.00665405
0.00653557
0.00641121
0.00631624
0.00622265
0.00614887
0.00606845
0.00600773
0.0059391
0.00586195
0.00577411
0.00563908
0.00547302
0.00528946
0.00510361
0.00492587
0.00479014
0.00468692
0.00459
0.00453745
0.0044806
0.00448277
0.00443817
0.00443829
0.00440466
0.00440322
0.00438117
0.00436793
0.00435802
0.00434562
0.00434522
0.00433911
0.00433874
0.00433774
0.0043425
0.00434156
0.00435097
0.00434998
0.00436147
0.00513128
0.00530383
0.00547817
0.00564393
0.00577941
0.00588445
0.00594973
0.00598803
0.00601818
0.00603128
0.00603997
0.00603004
0.00600144
0.00596779
0.00592851
0.00587923
0.0058196
0.00573731
0.00564698
0.00554014
0.00542037
0.00528857
0.00514498
0.00499492
0.0048893
0.00475498
0.00465975
0.00457153
0.00451427
0.00446775
0.00442599
0.00442822
0.00439415
0.00439634
0.00436908
0.00437068
0.00435029
0.00435172
0.00433575
0.00433716
0.00432819
0.00432883
0.00432771
0.00432922
0.00432858
0.00433548
0.00433462
0.00434486
0.00434452
0.00435625
0.00435611
0.00478547
0.00487786
0.00497008
0.00505637
0.00512961
0.00518463
0.00521928
0.00524922
0.00524904
0.00526039
0.00526187
0.00524976
0.00522663
0.0052054
0.00517843
0.00514042
0.00509876
0.00504176
0.00498065
0.00491502
0.00484016
0.0047677
0.00468578
0.00462063
0.00455788
0.00450214
0.00445955
0.00442608
0.00440496
0.00437831
0.00438144
0.00435755
0.00435904
0.00434222
0.00434244
0.00433061
0.00433003
0.00432358
0.00432225
0.00432006
0.00431965
0.00432102
0.00432212
0.00432634
0.00432854
0.00433393
0.00433702
0.00434403
0.00434844
0.00435737
0.00436284
0.00458003
0.00462834
0.00467594
0.0047195
0.00475347
0.00477592
0.0047977
0.00479549
0.00480184
0.00480428
0.00479694
0.00478225
0.00476726
0.00475076
0.00473002
0.00470985
0.00468231
0.00465399
0.00462225
0.00458848
0.00455297
0.00451417
0.00447878
0.00444838
0.00442087
0.00439824
0.00437961
0.00436868
0.00435693
0.00435477
0.00434565
0.00433472
0.0043377
0.00432589
0.00432702
0.00431929
0.00431935
0.00431675
0.00431642
0.00431646
0.00431848
0.00432091
0.00432361
0.00432882
0.00433231
0.00434216
0.00434102
0.00435643
0.00435532
0.00437386
0.00437242
0.00446724
0.00449095
0.0045137
0.00453395
0.00455007
0.00455719
0.00456578
0.00456471
0.00456657
0.00456418
0.00455651
0.00454783
0.00453892
0.00452787
0.00451826
0.00450591
0.00449385
0.00447817
0.00446361
0.0044473
0.00443102
0.00441308
0.00439934
0.00438562
0.00437431
0.00436526
0.0043544
0.00435451
0.00434184
0.00434398
0.00433303
0.00433332
0.00432521
0.00432507
0.00431985
0.0043193
0.00431732
0.00431722
0.00431768
0.00431899
0.00432205
0.00432515
0.00432967
0.00433599
0.00434112
0.00434832
0.00435562
0.00436363
0.00437143
0.00438152
0.00438937
0.004411
0.0044216
0.00443189
0.00444121
0.00444746
0.00445247
0.00445406
0.00445459
0.0044546
0.00445109
0.00444726
0.00444233
0.00443746
0.00443131
0.00442661
0.00441992
0.00441436
0.00440735
0.00440158
0.0043939
0.00438413
0.00438218
0.0043683
0.00436803
0.00435863
0.00435583
0.00435091
0.00434771
0.00434154
0.00434075
0.00433341
0.00433292
0.00432774
0.00432537
0.00432293
0.00432135
0.00432106
0.0043217
0.00432381
0.00432648
0.00433117
0.00433553
0.00434198
0.00434866
0.00435479
0.00436229
0.0043688
0.00437684
0.00438509
0.00439461
0.00440508
0.00438755
0.00439249
0.00439725
0.00440073
0.00440348
0.00440631
0.00440631
0.00440674
0.00440575
0.00440401
0.00440189
0.00439975
0.00439725
0.00439483
0.004392
0.00438876
0.00438644
0.00438278
0.00437991
0.00437574
0.00437255
0.00436857
0.0043645
0.00436139
0.00435747
0.00435434
0.00435081
0.00434717
0.00434396
0.00434135
0.00433609
0.00433613
0.00433175
0.00433264
0.00433224
0.00433515
0.00434013
0.00434735
0.00435471
0.00436371
0.00437231
0.00438119
0.0043897
0.00439835
0.00440635
0.00441461
0.0044225
0.00443051
0.00443901
0.00444798
0.00445976
0.0043779
0.00438094
0.00438365
0.00438645
0.0043872
0.00438845
0.00438864
0.00438818
0.00438765
0.00438647
0.00438548
0.00438408
0.00438274
0.00438149
0.00437942
0.00437911
0.00437662
0.00437505
0.00437302
0.00437102
0.00436891
0.00436637
0.004364
0.00436145
0.00435877
0.00435642
0.00435381
0.00435222
0.00434961
0.00434962
0.00435027
0.00435084
0.00435779
0.00436068
0.00436697
0.00437033
0.00437219
0.00437338
0.00437538
0.00437707
0.00438063
0.00438278
0.00438966
0.00439361
0.00440267
0.00441056
0.00442265
0.00443175
0.00444427
0.00445573
0.00447127
0.00887414
0.00887695
0.00888057
0.00888349
0.00888642
0.00888896
0.00889162
0.00889385
0.00889592
0.00889773
0.00889944
0.00890098
0.00890203
0.00890301
0.00890361
0.00890403
0.00890396
0.00890385
0.00890319
0.00890236
0.00890102
0.00889933
0.00889729
0.00889475
0.00889202
0.00888898
0.00887311
0.00887649
0.00887952
0.00888252
0.00888527
0.00888776
0.00889026
0.00889236
0.00889426
0.00889635
0.00889757
0.00889913
0.00890005
0.00890073
0.00890124
0.00890137
0.00890133
0.008901
0.00890026
0.00889925
0.00889789
0.00889624
0.0088938
0.00889211
0.00888781
0.00888724
0.00887224
0.00887627
0.00887878
0.00888181
0.00888452
0.00888693
0.00888921
0.00889134
0.00889299
0.00889468
0.00889615
0.00889727
0.00889826
0.00889883
0.00889918
0.00889918
0.00889899
0.00889855
0.00889772
0.0088966
0.00889517
0.00889339
0.00889129
0.0088888
0.00888594
0.00888272
0.00887221
0.0088754
0.00887832
0.008881
0.00888363
0.00888609
0.00888821
0.0088902
0.00889177
0.00889325
0.00889453
0.0088956
0.00889642
0.00889692
0.00889718