/*--------------------------------*- C++ -*----------------------------------*\
  =========                 |
  \\      /  F ield         | OpenFOAM: The Open Source CFD Toolbox
   \\    /   O peration     | Website:  https://openfoam.org
    \\  /    A nd           | Version:  10
     \\/     M anipulation  |
\*---------------------------------------------------------------------------*/
FoamFile
{
    format      ascii;
    class       volVectorField;
    location    "0.902556";
    object      U;
}
// * * * * * * * * * * * * * * * * * * * * * * * * * * * * * * * * * * * * * //

dimensions      [0 1 -1 0 0 0 0];

internalField   nonuniform List<vector> 
15708
(
(0.719003 -0.147041 0)
(0.700722 -0.143306 0)
(0.682286 -0.139019 0)
(0.663742 -0.134247 0)
(0.645201 -0.129082 0)
(0.626738 -0.123615 0)
(0.608423 -0.11793 0)
(0.59032 -0.112105 0)
(0.572483 -0.106208 0)
(0.554967 -0.100297 0)
(0.537815 -0.0944187 0)
(0.521068 -0.0886127 0)
(0.504761 -0.0829099 0)
(0.488924 -0.0773341 0)
(0.47358 -0.0719036 0)
(0.458753 -0.066632 0)
(0.44446 -0.0615288 0)
(0.430714 -0.0566005 0)
(0.417529 -0.0518512 0)
(0.404912 -0.0472832 0)
(0.39287 -0.0428984 0)
(0.381409 -0.0386972 0)
(0.37053 -0.0346798 0)
(0.360236 -0.0308463 0)
(0.350528 -0.0271966 0)
(0.341404 -0.0237306 0)
(0.332863 -0.0204484 0)
(0.324903 -0.01735 0)
(0.31752 -0.0144354 0)
(0.31071 -0.0117048 0)
(0.304468 -0.00915845 0)
(0.298787 -0.00679672 0)
(0.293659 -0.00461988 0)
(0.289075 -0.00262805 0)
(0.285025 -0.000821238 0)
(0.281499 0.000801012 0)
(0.278481 0.00223975 0)
(0.27596 0.00349596 0)
(0.273921 0.00457162 0)
(0.272346 0.00546963 0)
(0.271217 0.00619363 0)
(0.270517 0.00674829 0)
(0.270224 0.00713922 0)
(0.270319 0.00737301 0)
(0.270779 0.00745874 0)
(0.27158 0.00740494 0)
(0.2727 0.00722289 0)
(0.274113 0.00692488 0)
(0.275796 0.00652647 0)
(0.27772 0.00604234 0)
(0.279862 0.00549419 0)
(0.722487 -0.128807 0)
(0.704814 -0.124956 0)
(0.686879 -0.120587 0)
(0.668717 -0.115876 0)
(0.65047 -0.110835 0)
(0.632217 -0.105607 0)
(0.614039 -0.10025 0)
(0.596006 -0.0948277 0)
(0.578182 -0.0893984 0)
(0.560629 -0.0840103 0)
(0.543402 -0.0787025 0)
(0.526548 -0.0735059 0)
(0.510109 -0.0684441 0)
(0.494121 -0.0635338 0)
(0.478614 -0.0587869 0)
(0.463614 -0.0542107 0)
(0.449142 -0.0498094 0)
(0.435215 -0.0455846 0)
(0.421846 -0.0415359 0)
(0.409046 -0.0376624 0)
(0.396821 -0.0339626 0)
(0.385179 -0.0304349 0)
(0.37412 -0.0270782 0)
(0.363648 -0.0238913 0)
(0.353763 -0.0208736 0)
(0.344463 -0.0180245 0)
(0.335746 -0.0153437 0)
(0.327611 -0.0128312 0)
(0.320054 -0.0104873 0)
(0.31307 -0.00831235 0)
(0.306654 -0.00630698 0)
(0.300799 -0.00447184 0)
(0.2955 -0.00280751 0)
(0.290745 -0.00131426 0)
(0.286528 8.45321e-06 0)
(0.282835 0.00116103 0)
(0.279653 0.00214474 0)
(0.276972 0.00296151 0)
(0.274774 0.00361396 0)
(0.273046 0.00410581 0)
(0.271768 0.00444185 0)
(0.270924 0.00462781 0)
(0.270494 0.00467051 0)
(0.270459 0.00457806 0)
(0.270796 0.00436054 0)
(0.271484 0.00402916 0)
(0.272501 0.0035962 0)
(0.273825 0.00307544 0)
(0.275431 0.00248276 0)
(0.277297 0.00183323 0)
(0.279397 0.00114343 0)
(0.726288 -0.111224 0)
(0.709048 -0.106996 0)
(0.691478 -0.10254 0)
(0.673606 -0.0977374 0)
(0.65558 -0.0927854 0)
(0.63743 -0.0877134 0)
(0.619308 -0.0826066 0)
(0.601274 -0.077519 0)
(0.583402 -0.0724983 0)
(0.565761 -0.0675842 0)
(0.548413 -0.0628071 0)
(0.531414 -0.0581891 0)
(0.514813 -0.0537447 0)
(0.498652 -0.049482 0)
(0.482966 -0.0454058 0)
(0.467783 -0.0415174 0)
(0.453127 -0.0378153 0)
(0.439019 -0.0342959 0)
(0.425471 -0.0309541 0)
(0.412495 -0.0277839 0)
(0.400099 -0.0247794 0)
(0.388286 -0.0219352 0)
(0.377061 -0.0192474 0)
(0.366424 -0.0167134 0)
(0.356376 -0.0143321 0)
(0.346914 -0.0121029 0)
(0.338037 -0.0100258 0)
(0.32974 -0.00810131 0)
(0.322022 -0.00633026 0)
(0.314877 -0.00471353 0)
(0.3083 -0.003252 0)
(0.302286 -0.0019462 0)
(0.296827 -0.00079603 0)
(0.291915 0.000198672 0)
(0.287542 0.00103741 0)
(0.283695 0.00172084 0)
(0.280364 0.002251 0)
(0.277535 0.0026302 0)
(0.275195 0.00286151 0)
(0.273328 0.00294936 0)
(0.271918 0.0028994 0)
(0.270949 0.00271849 0)
(0.2704 0.00241499 0)
(0.270256 0.00199845 0)
(0.270494 0.00147899 0)
(0.271093 0.000866498 0)
(0.272033 0.000174201 0)
(0.273293 -0.000582831 0)
(0.27485 -0.00138842 0)
(0.276683 -0.00222282 0)
(0.27877 -0.00306472 0)
(0.730444 -0.0940429 0)
(0.713527 -0.0894781 0)
(0.696182 -0.0847339 0)
(0.678515 -0.0797989 0)
(0.660543 -0.0748369 0)
(0.642452 -0.0698537 0)
(0.624297 -0.0649299 0)
(0.606185 -0.0601157 0)
(0.588192 -0.055451 0)
(0.570398 -0.050968 0)
(0.552875 -0.0466895 0)
(0.535688 -0.0426291 0)
(0.518891 -0.0387913 0)
(0.502531 -0.035172 0)
(0.486644 -0.031765 0)
(0.471263 -0.0285622 0)
(0.456413 -0.0255546 0)
(0.442117 -0.022733 0)
(0.428389 -0.0200882 0)
(0.415243 -0.0176118 0)
(0.402684 -0.0152967 0)
(0.390719 -0.013137 0)
(0.379345 -0.0111276 0)
(0.368563 -0.00926315 0)
(0.358368 -0.0075386 0)
(0.348759 -0.00595006 0)
(0.339733 -0.00449527 0)
(0.331288 -0.00317384 0)
(0.32342 -0.00198606 0)
(0.316128 -0.000932632 0)
(0.309405 -1.60837e-05 0)
(0.303245 0.000761825 0)
(0.297642 0.00139945 0)
(0.292586 0.0018959 0)
(0.288069 0.00225177 0)
(0.284082 0.00246788 0)
(0.280614 0.00254613 0)
(0.277652 0.00248918 0)
(0.275182 0.00230086 0)
(0.273193 0.00198626 0)
(0.271666 0.00155203 0)
(0.270588 0.00100522 0)
(0.269939 0.000353333 0)
(0.269703 -0.000393715 0)
(0.26986 -0.00122403 0)
(0.270392 -0.00212131 0)
(0.271279 -0.00307283 0)
(0.272499 -0.00406339 0)
(0.274034 -0.00507646 0)
(0.275861 -0.00609443 0)
(0.277961 -0.00709854 0)
(0.734978 -0.0771895 0)
(0.718281 -0.0722151 0)
(0.701109 -0.0670776 0)
(0.683461 -0.0619737 0)
(0.665498 -0.0568864 0)
(0.647326 -0.0519238 0)
(0.629051 -0.0471288 0)
(0.610774 -0.0425442 0)
(0.592584 -0.0381979 0)
(0.574567 -0.0341096 0)
(0.556805 -0.0302912 0)
(0.539372 -0.026748 0)
(0.522335 -0.0234803 0)
(0.505747 -0.0204857 0)
(0.489646 -0.0177533 0)
(0.474064 -0.0152653 0)
(0.459025 -0.013001 0)
(0.444549 -0.0109396 0)
(0.430649 -0.00906068 0)
(0.417334 -0.00734416 0)
(0.404612 -0.00577138 0)
(0.392485 -0.00432546 0)
(0.380955 -0.00299338 0)
(0.370022 -0.00177294 0)
(0.359686 -0.000665896 0)
(0.349943 0.000324227 0)
(0.34079 0.00119359 0)
(0.332222 0.00193966 0)
(0.324232 0.0025608 0)
(0.316816 0.00305594 0)
(0.309967 0.00342592 0)
(0.303679 0.00367089 0)
(0.297946 0.00379085 0)
(0.292761 0.00378582 0)
(0.288116 0.00365631 0)
(0.284002 0.00340357 0)
(0.280409 0.00302947 0)
(0.277327 0.00253668 0)
(0.274742 0.0019292 0)
(0.272642 0.00121218 0)
(0.271013 0.000391693 0)
(0.26984 -0.00052393 0)
(0.269107 -0.00152376 0)
(0.268798 -0.00259723 0)
(0.268894 -0.00373263 0)
(0.269377 -0.00491635 0)
(0.270229 -0.00613388 0)
(0.271431 -0.00736957 0)
(0.272964 -0.00860628 0)
(0.274808 -0.00982563 0)
(0.276943 -0.0110084 0)
(0.739975 -0.0606397 0)
(0.723395 -0.0550337 0)
(0.706213 -0.0495412 0)
(0.688522 -0.0441008 0)
(0.670439 -0.0388494 0)
(0.652087 -0.0338305 0)
(0.633588 -0.0290958 0)
(0.61506 -0.0246921 0)
(0.596604 -0.020654 0)
(0.578313 -0.0169944 0)
(0.560271 -0.0137114 0)
(0.542552 -0.0107919 0)
(0.52522 -0.00820275 0)
(0.50834 -0.00587085 0)
(0.491963 -0.00378789 0)
(0.476131 -0.00194053 0)
(0.46087 -0.000312134 0)
(0.446199 0.00111546 0)
(0.432128 0.00235966 0)
(0.418661 0.00343578 0)
(0.405798 0.00435659 0)
(0.39354 0.00513182 0)
(0.381884 0.00576967 0)
(0.370833 0.0062836 0)
(0.360382 0.00668563 0)
(0.350528 0.00698443 0)
(0.341265 0.00718559 0)
(0.332586 0.00729177 0)
(0.324485 0.00730275 0)
(0.316956 0.00721645 0)
(0.309993 0.00702987 0)
(0.30359 0.00674006 0)
(0.297742 0.00634468 0)
(0.292441 0.00584217 0)
(0.287681 0.00523184 0)
(0.283454 0.004514 0)
(0.27975 0.00369015 0)
(0.276561 0.00276316 0)
(0.273874 0.00173726 0)
(0.271679 0.000618007 0)
(0.269961 -0.000587382 0)
(0.268709 -0.00186973 0)
(0.267907 -0.00321947 0)
(0.267539 -0.00462523 0)
(0.267591 -0.0060743 0)
(0.268043 -0.00755224 0)
(0.268878 -0.00904391 0)
(0.27008 -0.0105331 0)
(0.27163 -0.0120025 0)
(0.27351 -0.0134336 0)
(0.2757 -0.0148071 0)
(0.74539 -0.0441353 0)
(0.728819 -0.037952 0)
(0.711552 -0.0319074 0)
(0.69373 -0.0261153 0)
(0.675416 -0.0206666 0)
(0.656801 -0.0156232 0)
(0.637979 -0.0110258 0)
(0.619089 -0.00681305 0)
(0.600252 -0.00298684 0)
(0.581583 0.000428498 0)
(0.563179 0.00342525 0)
(0.545119 0.00600859 0)
(0.527466 0.00818288 0)
(0.510275 0.0099286 0)
(0.493606 0.0113025 0)
(0.477503 0.012359 0)
(0.461996 0.0131475 0)
(0.447106 0.0137125 0)
(0.432844 0.0140926 0)
(0.419215 0.0143207 0)
(0.406219 0.0144239 0)
(0.393852 0.014423 0)
(0.382106 0.0143328 0)
(0.370971 0.0141619 0)
(0.360439 0.0139146 0)
(0.350499 0.0135923 0)
(0.341147 0.0131941 0)
(0.332376 0.012718 0)
(0.32418 0.0121613 0)
(0.316555 0.011521 0)
(0.309493 0.0107944 0)
(0.302991 0.00997901 0)
(0.297041 0.00907271 0)
(0.291637 0.00807408 0)
(0.286775 0.0069826 0)
(0.282445 0.0057989 0)
(0.278643 0.00452474 0)
(0.275358 0.00316313 0)
(0.272581 0.00171844 0)
(0.270303 0.000196491 0)
(0.26851 -0.00139546 0)
(0.267192 -0.00304839 0)
(0.266336 -0.00475178 0)
(0.265926 -0.00649377 0)
(0.265948 -0.00826106 0)
(0.266385 -0.010039 0)
(0.267221 -0.0118121 0)
(0.268441 -0.0135635 0)
(0.270026 -0.0152755 0)
(0.271959 -0.0169298 0)
(0.274221 -0.0185073 0)
(0.751156 -0.0276815 0)
(0.734471 -0.0207792 0)
(0.717048 -0.0142542 0)
(0.698924 -0.00808344 0)
(0.680305 -0.00229909 0)
(0.661331 0.00309793 0)
(0.642115 0.00796245 0)
(0.622775 0.01218 0)
(0.603459 0.0157478 0)
(0.5843 0.0187002 0)
(0.565415 0.0210782 0)
(0.546905 0.0229319 0)
(0.528859 0.024318 0)
(0.511342 0.0252971 0)
(0.4944 0.025923 0)
(0.478064 0.0262444 0)
(0.462358 0.0263067 0)
(0.447296 0.0261518 0)
(0.432884 0.0258177 0)
(0.419123 0.025337 0)
(0.406009 0.0247364 0)
(0.393534 0.0240367 0)
(0.381688 0.0232534 0)
(0.370462 0.022398 0)
(0.359845 0.0214786 0)
(0.349828 0.0205 0)
(0.340402 0.0194645 0)
(0.331558 0.0183722 0)
(0.323289 0.0172209 0)
(0.315588 0.0160078 0)
(0.308448 0.0147293 0)
(0.301864 0.0133819 0)
(0.29583 0.0119623 0)
(0.290341 0.0104677 0)
(0.285391 0.00889668 0)
(0.280975 0.00724892 0)
(0.277087 0.00552567 0)
(0.27372 0.00372978 0)
(0.270867 0.00186567 0)
(0.268518 -6.07322e-05 0)
(0.266663 -0.00204178 0)
(0.265294 -0.00406814 0)
(0.264396 -0.00612886 0)
(0.263959 -0.00821172 0)
(0.263966 -0.010303 0)
(0.264404 -0.0123879 0)
(0.265257 -0.0144503 0)
(0.266509 -0.0164732 0)
(0.268145 -0.0184388 0)
(0.270146 -0.0203286 0)
(0.272497 -0.0221234 0)
(0.756894 -0.0113228 0)
(0.740042 -0.00355535 0)
(0.722374 0.00380829 0)
(0.70395 0.0106698 0)
(0.684885 0.0168487 0)
(0.665406 0.0222821 0)
(0.645614 0.0270108 0)
(0.625759 0.0309857 0)
(0.605965 0.0342743 0)
(0.586345 0.0368812 0)
(0.567018 0.0388428 0)
(0.548089 0.040206 0)
(0.529648 0.0410261 0)
(0.511766 0.0413621 0)
(0.494496 0.0412776 0)
(0.477875 0.0408381 0)
(0.461928 0.0401066 0)
(0.446667 0.039141 0)
(0.432094 0.0379925 0)
(0.418204 0.0367051 0)
(0.404987 0.0353136 0)
(0.392431 0.0338449 0)
(0.38052 0.0323193 0)
(0.369241 0.0307503 0)
(0.358578 0.029146 0)
(0.348517 0.0275099 0)
(0.339046 0.0258426 0)
(0.330154 0.0241423 0)
(0.321833 0.0224056 0)
(0.314074 0.0206281 0)
(0.306871 0.0188048 0)
(0.30022 0.0169311 0)
(0.294116 0.0150024 0)
(0.288554 0.0130152 0)
(0.283531 0.010967 0)
(0.279042 0.00885697 0)
(0.275083 0.00668577 0)
(0.271648 0.00445591 0)
(0.268732 0.00217178 0)
(0.266327 -0.000160777 0)
(0.264425 -0.00253375 0)
(0.263016 -0.00493736 0)
(0.262092 -0.0073603 0)
(0.261639 -0.00978985 0)
(0.261646 -0.0122119 0)
(0.262098 -0.0146115 0)
(0.262981 -0.0169721 0)
(0.264282 -0.0192766 0)
(0.265983 -0.0215069 0)
(0.268069 -0.0236443 0)
(0.270524 -0.0256697 0)
(0.761874 0.00544408 0)
(0.744848 0.014126 0)
(0.726828 0.0221043 0)
(0.708036 0.029423 0)
(0.68857 0.0359706 0)
(0.668665 0.0416509 0)
(0.648435 0.0464959 0)
(0.628069 0.0504831 0)
(0.607765 0.0535958 0)
(0.587619 0.0558761 0)
(0.567786 0.057368 0)
(0.548384 0.0581385 0)
(0.529513 0.0582678 0)
(0.511251 0.0578417 0)
(0.493656 0.0569486 0)
(0.476765 0.0556739 0)
(0.4606 0.0540968 0)
(0.445167 0.0522876 0)
(0.430462 0.050307 0)
(0.416474 0.0482047 0)
(0.403187 0.0460206 0)
(0.390581 0.0437846 0)
(0.378636 0.0415185 0)
(0.367331 0.0392365 0)
(0.356646 0.0369468 0)
(0.346564 0.0346527 0)
(0.337071 0.0323535 0)
(0.328152 0.0300462 0)
(0.319798 0.0277257 0)
(0.312001 0.0253861 0)
(0.304754 0.0230205 0)
(0.298053 0.0206228 0)
(0.291894 0.0181871 0)
(0.286275 0.015709 0)
(0.281193 0.0131849 0)
(0.276645 0.0106134 0)
(0.272628 0.00799462 0)
(0.269139 0.00533054 0)
(0.266175 0.00262512 0)
(0.263727 -0.00011502 0)
(0.261789 -0.00288218 0)
(0.260356 -0.00566655 0)
(0.259418 -0.00845639 0)
(0.258965 -0.0112387 0)
(0.258985 -0.0139989 0)
(0.259466 -0.0167217 0)
(0.260394 -0.0193901 0)
(0.261757 -0.0219867 0)
(0.263539 -0.0244931 0)
(0.265725 -0.0268907 0)
(0.268298 -0.0291603 0)
(0.764507 0.0220311 0)
(0.747388 0.0317687 0)
(0.729388 0.0404154 0)
(0.710503 0.0485262 0)
(0.690745 0.0555149 0)
(0.670482 0.0616405 0)
(0.649859 0.0665532 0)
(0.62907 0.0705522 0)
(0.608288 0.073413 0)
(0.587682 0.0753361 0)
(0.567391 0.0763211 0)
(0.547558 0.0764665 0)
(0.528296 0.0758797 0)
(0.509691 0.0746688 0)
(0.491805 0.0729419 0)
(0.474676 0.0708037 0)
(0.458324 0.0683502 0)
(0.44275 0.0656664 0)
(0.427947 0.0628233 0)
(0.413895 0.0598784 0)
(0.400572 0.0568773 0)
(0.38795 0.0538545 0)
(0.376003 0.0508336 0)
(0.364704 0.0478295 0)
(0.354029 0.0448499 0)
(0.343956 0.0418965 0)
(0.334468 0.0389671 0)
(0.325549 0.0360564 0)
(0.317188 0.033157 0)
(0.309376 0.0302607 0)
(0.302107 0.0273587 0)
(0.295377 0.0244428 0)
(0.289183 0.0215055 0)
(0.283523 0.018541 0)
(0.278396 0.0155447 0)
(0.273802 0.012514 0)
(0.269739 0.00944849 0)
(0.266206 0.00634986 0)
(0.263202 0.00322191 0)
(0.260722 7.11048e-05 0)
(0.258759 -0.00309465 0)
(0.257312 -0.00626523 0)
(0.256372 -0.00942845 0)
(0.255931 -0.0125708 0)
(0.255978 -0.0156772 0)
(0.256502 -0.0187322 0)
(0.25749 -0.0217185 0)
(0.25893 -0.0246182 0)
(0.260808 -0.027413 0)
(0.263108 -0.0300838 0)
(0.265815 -0.0326118 0)
(0.762647 0.0384802 0)
(0.745915 0.0489174 0)
(0.728193 0.0590304 0)
(0.709589 0.0676088 0)
(0.689976 0.0754531 0)
(0.669699 0.0817138 0)
(0.648956 0.0869939 0)
(0.627993 0.0908651 0)
(0.606924 0.0936708 0)
(0.586045 0.0951928 0)
(0.565415 0.0957106 0)
(0.545266 0.0952224 0)
(0.525717 0.0938903 0)
(0.506858 0.0918537 0)
(0.488759 0.0892479 0)
(0.471462 0.0862007 0)
(0.454986 0.0828272 0)
(0.439332 0.0792282 0)
(0.424484 0.0754872 0)
(0.41042 0.0716717 0)
(0.397108 0.067833 0)
(0.384515 0.0640088 0)
(0.372608 0.0602241 0)
(0.361355 0.0564937 0)
(0.350726 0.0528239 0)
(0.340697 0.0492144 0)
(0.331245 0.0456599 0)
(0.322354 0.0421523 0)
(0.314011 0.0386813 0)
(0.306207 0.0352358 0)
(0.298935 0.0318049 0)
(0.292192 0.0283781 0)
(0.285977 0.0249459 0)
(0.280289 0.0215006 0)
(0.27513 0.0180365 0)
(0.270501 0.0145499 0)
(0.266404 0.0110394 0)
(0.262838 0.00750636 0)
(0.259806 0.00395455 0)
(0.257305 0.000390016 0)
(0.255331 -0.0031788 0)
(0.253882 -0.00674156 0)
(0.252953 -0.0102855 0)
(0.252536 -0.0137965 0)
(0.252623 -0.0172589 0)
(0.253203 -0.0206568 0)
(0.254265 -0.0239723 0)
(0.255797 -0.0271871 0)
(0.257786 -0.0302826 0)
(0.260216 -0.0332401 0)
(0.263072 -0.0360403 0)
(0.752682 0.0533442 0)
(0.737374 0.0657394 0)
(0.721014 0.0766662 0)
(0.703244 0.0858663 0)
(0.68438 0.0948068 0)
(0.664595 0.10146 0)
(0.644376 0.10722 0)
(0.623669 0.111268 0)
(0.602803 0.113961 0)
(0.581894 0.115237 0)
(0.561285 0.115258 0)
(0.54102 0.114157 0)
(0.521374 0.11209 0)
(0.502429 0.109226 0)
(0.484264 0.105727 0)
(0.466926 0.101748 0)
(0.450436 0.0974288 0)
(0.434797 0.0928885 0)
(0.419991 0.0882271 0)
(0.40599 0.0835219 0)
(0.392757 0.0788318 0)
(0.380254 0.0741978 0)
(0.368442 0.0696458 0)
(0.357283 0.0651897 0)
(0.346744 0.0608338 0)
(0.336795 0.0565747 0)
(0.327412 0.0524041 0)
(0.318577 0.04831 0)
(0.310277 0.0442787 0)
(0.302501 0.0402958 0)
(0.295244 0.0363471 0)
(0.288504 0.0324194 0)
(0.282282 0.0285009 0)
(0.276579 0.0245818 0)
(0.271399 0.020655 0)
(0.266746 0.0167155 0)
(0.262624 0.0127614 0)
(0.259036 0.00879329 0)
(0.255985 0.00481468 0)
(0.253474 0.000832111 0)
(0.251498 -0.0031454 0)
(0.250058 -0.0071073 0)
(0.249152 -0.0110403 0)
(0.248773 -0.0149293 0)
(0.248913 -0.018758 0)
(0.249564 -0.02251 0)
(0.250714 -0.0261665 0)
(0.252352 -0.0297091 0)
(0.254465 -0.0331189 0)
(0.25704 -0.0363773 0)
(0.260061 -0.0394648 0)
(0.731993 0.0658097 0)
(0.719299 0.080807 0)
(0.704008 0.0914831 0)
(0.688998 0.104367 0)
(0.672043 0.112838 0)
(0.653592 0.121019 0)
(0.634793 0.12697 0)
(0.614914 0.131391 0)
(0.594753 0.134035 0)
(0.574427 0.135181 0)
(0.554174 0.134779 0)
(0.534249 0.133108 0)
(0.514832 0.13033 0)
(0.496064 0.126641 0)
(0.478048 0.122242 0)
(0.460851 0.117319 0)
(0.444508 0.112038 0)
(0.429022 0.106544 0)
(0.414377 0.10095 0)
(0.400541 0.0953473 0)
(0.387478 0.0898021 0)
(0.375142 0.0843587 0)
(0.363491 0.079044 0)
(0.352482 0.0738704 0)
(0.34208 0.0688394 0)
(0.332253 0.0639444 0)
(0.322975 0.0591724 0)
(0.314226 0.0545076 0)
(0.305993 0.0499316 0)
(0.298267 0.045426 0)
(0.291044 0.0409732 0)
(0.284324 0.0365566 0)
(0.278108 0.0321623 0)
(0.272401 0.0277778 0)
(0.26721 0.0233945 0)
(0.262542 0.0190059 0)
(0.258404 0.0146097 0)
(0.254801 0.0102059 0)
(0.251741 0.00579778 0)
(0.249227 0.00139233 0)
(0.247258 -0.0030007 0)
(0.245837 -0.00737048 0)
(0.244964 -0.0117025 0)
(0.244634 -0.0159807 0)
(0.244841 -0.0201879 0)
(0.245574 -0.0243066 0)
(0.246826 -0.0283174 0)
(0.248585 -0.0322013 0)
(0.250839 -0.0359395 0)
(0.253573 -0.0395132 0)
(0.256774 -0.0429038 0)
(0.697937 0.0779288 0)
(0.688632 0.0920982 0)
(0.678462 0.105851 0)
(0.666308 0.118396 0)
(0.650466 0.128874 0)
(0.635434 0.137888 0)
(0.618212 0.144768 0)
(0.600362 0.149862 0)
(0.58175 0.152994 0)
(0.56263 0.154211 0)
(0.543372 0.153678 0)
(0.524248 0.151601 0)
(0.505489 0.148218 0)
(0.487272 0.143778 0)
(0.46973 0.138527 0)
(0.452952 0.132693 0)
(0.436986 0.126474 0)
(0.421847 0.12004 0)
(0.407526 0.113527 0)
(0.393994 0.10704 0)
(0.381213 0.100653 0)
(0.369139 0.0944141 0)
(0.357728 0.0883529 0)
(0.346938 0.0824801 0)
(0.336729 0.0767944 0)
(0.327072 0.0712842 0)
(0.317938 0.0659324 0)
(0.30931 0.0607178 0)
(0.301173 0.0556178 0)
(0.293521 0.0506087 0)
(0.286351 0.0456699 0)
(0.279664 0.0407797 0)
(0.273466 0.0359228 0)
(0.267765 0.0310831 0)
(0.26257 0.0262508 0)
(0.257893 0.0214173 0)
(0.253743 0.0165805 0)
(0.25013 0.0117396 0)
(0.247065 0.0068981 0)
(0.244554 0.00206395 0)
(0.2426 -0.00275304 0)
(0.241207 -0.00754096 0)
(0.240377 -0.0122838 0)
(0.240107 -0.0169638 0)
(0.240392 -0.0215631 0)
(0.241222 -0.0260623 0)
(0.24259 -0.0304418 0)
(0.244485 -0.034682 0)
(0.246894 -0.0387635 0)
(0.249802 -0.0426681 0)
(0.253196 -0.0463772 0)
(0.655632 0.0846726 0)
(0.649419 0.0998802 0)
(0.64202 0.116373 0)
(0.633033 0.128507 0)
(0.622108 0.141506 0)
(0.609266 0.151791 0)
(0.595423 0.160268 0)
(0.580058 0.166486 0)
(0.563519 0.170337 0)
(0.546193 0.171925 0)
(0.52845 0.17144 0)
(0.510626 0.169142 0)
(0.492985 0.165316 0)
(0.475734 0.160258 0)
(0.459033 0.154262 0)
(0.442991 0.147598 0)
(0.427677 0.140505 0)
(0.413119 0.133185 0)
(0.39932 0.125797 0)
(0.386257 0.118463 0)
(0.373899 0.111268 0)
(0.362205 0.104268 0)
(0.351132 0.0974934 0)
(0.340641 0.0909536 0)
(0.330695 0.084644 0)
(0.321262 0.078549 0)
(0.312319 0.0726469 0)
(0.303847 0.066911 0)
(0.295834 0.061314 0)
(0.288278 0.0558264 0)
(0.281177 0.0504241 0)
(0.274537 0.0450804 0)
(0.268366 0.0397773 0)
(0.262678 0.0344954 0)
(0.257484 0.0292237 0)
(0.252801 0.0239498 0)
(0.248644 0.0186743 0)
(0.245025 0.0133943 0)
(0.241957 0.00811411 0)
(0.239455 0.00284332 0)
(0.23752 -0.00240768 0)
(0.236159 -0.00762553 0)
(0.23538 -0.0127928 0)
(0.235179 -0.0178898 0)
(0.235553 -0.0228971 0)
(0.236493 -0.0277931 0)
(0.237992 -0.0325572 0)
(0.240037 -0.0371691 0)
(0.242615 -0.0416095 0)
(0.245713 -0.0458601 0)
(0.249315 -0.0499038 0)
(0.613589 0.08753 0)
(0.608044 0.104728 0)
(0.602224 0.122905 0)
(0.595395 0.137802 0)
(0.587442 0.151444 0)
(0.578025 0.163549 0)
(0.566869 0.173403 0)
(0.554151 0.18081 0)
(0.540045 0.185563 0)
(0.524917 0.187728 0)
(0.509176 0.187519 0)
(0.493138 0.185221 0)
(0.477074 0.181156 0)
(0.461212 0.17566 0)
(0.445735 0.169071 0)
(0.430776 0.161708 0)
(0.416418 0.153851 0)
(0.402706 0.145737 0)
(0.389654 0.137554 0)
(0.377253 0.129445 0)
(0.36548 0.121507 0)
(0.354303 0.113803 0)
(0.343684 0.106368 0)
(0.333588 0.0992103 0)
(0.323981 0.0923231 0)
(0.314838 0.0856878 0)
(0.306135 0.0792762 0)
(0.29786 0.0730583 0)
(0.290001 0.0669974 0)
(0.282563 0.0610612 0)
(0.275544 0.0552253 0)
(0.268961 0.0494474 0)
(0.262823 0.0437226 0)
(0.25715 0.0380081 0)
(0.251957 0.0323164 0)
(0.247268 0.0265978 0)
(0.243102 0.0208948 0)
(0.239475 0.0151746 0)
(0.236406 0.00944812 0)
(0.233914 0.00373023 0)
(0.232002 -0.00196882 0)
(0.230678 -0.00763225 0)
(0.229956 -0.0132404 0)
(0.229834 -0.0187718 0)
(0.230307 -0.0242049 0)
(0.23137 -0.0295161 0)
(0.233013 -0.0346826 0)
(0.235223 -0.039683 0)
(0.237987 -0.044498 0)
(0.241287 -0.0491099 0)
(0.24511 -0.053503 0)
(0.573281 0.0925553 0)
(0.570379 0.108189 0)
(0.564212 0.125831 0)
(0.556345 0.143975 0)
(0.550165 0.159364 0)
(0.542599 0.172474 0)
(0.534025 0.183515 0)
(0.523859 0.192241 0)
(0.512185 0.198114 0)
(0.499436 0.201137 0)
(0.485942 0.201508 0)
(0.471996 0.199482 0)
(0.457845 0.195404 0)
(0.443713 0.189658 0)
(0.429795 0.182641 0)
(0.416233 0.174726 0)
(0.403123 0.16624 0)
(0.390521 0.157455 0)
(0.378454 0.148589 0)
(0.366922 0.139805 0)
(0.355913 0.131214 0)
(0.345403 0.12289 0)
(0.335365 0.114869 0)
(0.32577 0.107162 0)
(0.316591 0.0997612 0)
(0.307806 0.0926437 0)
(0.299402 0.085777 0)
(0.291362 0.0791252 0)
(0.283689 0.0726441 0)
(0.276391 0.0663074 0)
(0.269473 0.0600589 0)
(0.262952 0.0538932 0)
(0.256853 0.0477481 0)
(0.251193 0.0416394 0)
(0.245997 0.0355098 0)
(0.241298 0.0293891 0)
(0.237132 0.023236 0)
(0.233478 0.0170821 0)
(0.230402 0.0108969 0)
(0.227916 0.00472824 0)
(0.226028 -0.00143209 0)
(0.224745 -0.00755967 0)
(0.224086 -0.0136302 0)
(0.22405 -0.0196182 0)
(0.224634 -0.0254989 0)
(0.225831 -0.0312459 0)
(0.227633 -0.0368342 0)
(0.230025 -0.042241 0)
(0.232988 -0.0474462 0)
(0.236505 -0.0524334 0)
(0.240559 -0.0571893 0)
(0.535387 0.100766 0)
(0.530151 0.115489 0)
(0.527134 0.128668 0)
(0.520389 0.146394 0)
(0.511988 0.165656 0)
(0.505064 0.179354 0)
(0.498296 0.191115 0)
(0.490332 0.202133 0)
(0.480898 0.208771 0)
(0.47047 0.212391 0)
(0.459288 0.21327 0)
(0.447545 0.211629 0)
(0.435477 0.207704 0)
(0.4233 0.201888 0)
(0.411203 0.194627 0)
(0.399317 0.186338 0)
(0.387729 0.17739 0)
(0.376496 0.16809 0)
(0.365651 0.158683 0)
(0.355201 0.149351 0)
(0.345143 0.140225 0)
(0.335466 0.131385 0)
(0.326148 0.122876 0)
(0.317173 0.114709 0)
(0.30852 0.106877 0)
(0.300174 0.099353 0)
(0.292126 0.0921 0)
(0.284372 0.0850779 0)
(0.276923 0.0782366 0)
(0.269785 0.0715418 0)
(0.26298 0.0649393 0)
(0.25653 0.058402 0)
(0.250462 0.0518841 0)
(0.244815 0.045377 0)
(0.239608 0.0388437 0)
(0.234895 0.032303 0)
(0.230689 0.0257148 0)
(0.227029 0.0191004 0)
(0.223937 0.0124746 0)
(0.221459 0.00582395 0)
(0.219582 -0.000810803 0)
(0.218337 -0.00741825 0)
(0.217744 -0.013972 0)
(0.2178 -0.0204402 0)
(0.218504 -0.0267938 0)
(0.219848 -0.033001 0)
(0.221824 -0.0390338 0)
(0.224411 -0.044866 0)
(0.227589 -0.0504769 0)
(0.231335 -0.0558509 0)
(0.235628 -0.0609791 0)
(0.497466 0.109294 0)
(0.489858 0.123878 0)
(0.485495 0.136566 0)
(0.484155 0.150737 0)
(0.476312 0.167905 0)
(0.465873 0.183727 0)
(0.461561 0.198711 0)
(0.455127 0.20622 0)
(0.446137 0.216879 0)
(0.438101 0.221692 0)
(0.429504 0.223098 0)
(0.420184 0.221787 0)
(0.410327 0.218032 0)
(0.400255 0.21223 0)
(0.390158 0.204845 0)
(0.380144 0.196324 0)
(0.370287 0.187067 0)
(0.360636 0.177408 0)
(0.35122 0.167613 0)
(0.342053 0.15788 0)
(0.333135 0.148356 0)
(0.32446 0.139128 0)
(0.316015 0.13025 0)
(0.307789 0.121735 0)
(0.299769 0.113574 0)
(0.291948 0.105738 0)
(0.284328 0.0981873 0)
(0.276911 0.0908734 0)
(0.269717 0.0837473 0)
(0.262771 0.0767459 0)
(0.256088 0.0698423 0)
(0.24971 0.06297 0)
(0.243676 0.0561246 0)
(0.238025 0.0492336 0)
(0.232805 0.042334 0)
(0.228051 0.0353682 0)
(0.223814 0.0283548 0)
(0.220117 0.0212819 0)
(0.217001 0.0141845 0)
(0.214503 0.00704723 0)
(0.21265 -9.60423e-05 0)
(0.211435 -0.00720881 0)
(0.210906 -0.0142728 0)
(0.21106 -0.0212504 0)
(0.211893 -0.0281054 0)
(0.213399 -0.0348006 0)
(0.215563 -0.0413011 0)
(0.218361 -0.0475773 0)
(0.221764 -0.0536059 0)
(0.22574 -0.0593734 0)
(0.230261 -0.0648756 0)
(0.455451 0.117491 0)
(0.447778 0.131056 0)
(0.443949 0.144794 0)
(0.441787 0.157425 0)
(0.435788 0.169664 0)
(0.43046 0.187879 0)
(0.42079 0.201829 0)
(0.415821 0.212078 0)
(0.41313 0.222045 0)
(0.403792 0.227827 0)
(0.397005 0.23035 0)
(0.390037 0.229669 0)
(0.382502 0.226211 0)
(0.374668 0.220523 0)
(0.366727 0.213123 0)
(0.358766 0.204497 0)
(0.350834 0.195073 0)
(0.342964 0.185205 0)
(0.335176 0.175177 0)
(0.327483 0.1652 0)
(0.319886 0.155428 0)
(0.312382 0.145961 0)
(0.304964 0.136851 0)
(0.297622 0.128118 0)
(0.290352 0.119751 0)
(0.283153 0.111718 0)
(0.276036 0.103975 0)
(0.269012 0.0964619 0)
(0.262107 0.0891304 0)
(0.25536 0.0819084 0)
(0.248814 0.074751 0)
(0.242509 0.0676143 0)
(0.236494 0.0604548 0)
(0.230835 0.0532466 0)
(0.225583 0.045967 0)
(0.220773 0.0386061 0)
(0.216471 0.0311603 0)
(0.212726 0.0236367 0)
(0.20956 0.0160375 0)
(0.207032 0.00840365 0)
(0.205169 0.000737299 0)
(0.203992 -0.00691825 0)
(0.203523 -0.0145286 0)
(0.203776 -0.0220503 0)
(0.204746 -0.02944 0)
(0.206423 -0.0366528 0)
(0.208786 -0.0436456 0)
(0.211799 -0.0503821 0)
(0.21542 -0.0568344 0)
(0.219601 -0.0629897 0)
(0.224299 -0.0688494 0)
(0.40733 0.123597 0)
(0.40239 0.136326 0)
(0.398509 0.150122 0)
(0.396133 0.162251 0)
(0.395695 0.175612 0)
(0.38902 0.191032 0)
(0.381483 0.203401 0)
(0.378383 0.218504 0)
(0.372899 0.225802 0)
(0.367431 0.232376 0)
(0.36298 0.235632 0)
(0.357908 0.235335 0)
(0.352476 0.232132 0)
(0.34688 0.226597 0)
(0.341171 0.219274 0)
(0.33538 0.210667 0)
(0.329515 0.201219 0)
(0.323584 0.191295 0)
(0.317594 0.18119 0)
(0.311546 0.171127 0)
(0.305441 0.161267 0)
(0.299272 0.151716 0)
(0.29303 0.14253 0)
(0.286708 0.133728 0)
(0.280306 0.125302 0)
(0.273824 0.117209 0)
(0.267282 0.109399 0)
(0.260704 0.101805 0)
(0.254129 0.0943632 0)
(0.247606 0.0870118 0)
(0.24119 0.0796849 0)
(0.234947 0.0723356 0)
(0.228935 0.0649184 0)
(0.223235 0.057415 0)
(0.217906 0.049784 0)
(0.213023 0.0420295 0)
(0.208634 0.0341561 0)
(0.204803 0.0261617 0)
(0.201576 0.0180715 0)
(0.199007 0.00990194 0)
(0.197122 0.00168773 0)
(0.195948 -0.00654407 0)
(0.195525 -0.0147404 0)
(0.195864 -0.0228482 0)
(0.196959 -0.0308124 0)
(0.198794 -0.0385747 0)
(0.201336 -0.0460803 0)
(0.204529 -0.0532792 0)
(0.208306 -0.0601367 0)
(0.212593 -0.0666394 0)
(0.217321 -0.0727998 0)
(0.354617 0.125765 0)
(0.353015 0.138829 0)
(0.351212 0.152556 0)
(0.35096 0.16634 0)
(0.350352 0.180519 0)
(0.345949 0.193333 0)
(0.340068 0.208146 0)
(0.336501 0.220193 0)
(0.333537 0.229429 0)
(0.330124 0.236369 0)
(0.326832 0.239452 0)
(0.323655 0.239113 0)
(0.320478 0.235949 0)
(0.317182 0.230482 0)
(0.313776 0.223248 0)
(0.310242 0.214729 0)
(0.306549 0.205361 0)
(0.302678 0.195515 0)
(0.298621 0.185481 0)
(0.294364 0.175489 0)
(0.2899 0.165703 0)
(0.285212 0.156232 0)
(0.280285 0.147137 0)
(0.275113 0.138438 0)
(0.26969 0.130111 0)
(0.264014 0.122117 0)
(0.258116 0.114389 0)
(0.252029 0.106853 0)
(0.245804 0.0994306 0)
(0.239509 0.0920528 0)
(0.233213 0.0846423 0)
(0.227008 0.0771567 0)
(0.220967 0.0695404 0)
(0.215191 0.0617664 0)
(0.209753 0.0538188 0)
(0.204743 0.0456861 0)
(0.200231 0.0373802 0)
(0.19628 0.0289062 0)
(0.192952 0.0203019 0)
(0.190307 0.0115787 0)
(0.188381 0.00277932 0)
(0.187197 -0.00605945 0)
(0.186795 -0.0148806 0)
(0.187191 -0.0236145 0)
(0.188367 -0.0321868 0)
(0.190292 -0.0405206 0)
(0.192906 -0.0485392 0)
(0.196128 -0.0561739 0)
(0.199857 -0.0633768 0)
(0.203988 -0.0701364 0)
(0.208426 -0.0764845 0)
(0.300116 0.124759 0)
(0.301729 0.138809 0)
(0.302353 0.153209 0)
(0.303383 0.168068 0)
(0.304053 0.182788 0)
(0.300383 0.196134 0)
(0.295657 0.210481 0)
(0.293833 0.223177 0)
(0.292117 0.232705 0)
(0.290412 0.238777 0)
(0.289 0.24137 0)
(0.28789 0.240853 0)
(0.286925 0.237591 0)
(0.285961 0.232126 0)
(0.284902 0.224966 0)
(0.283671 0.216586 0)
(0.282219 0.207392 0)
(0.280497 0.197738 0)
(0.27847 0.187912 0)
(0.276116 0.178139 0)
(0.273409 0.168588 0)
(0.270322 0.159369 0)
(0.266832 0.150545 0)
(0.262911 0.142128 0)
(0.258549 0.134088 0)
(0.253752 0.126371 0)
(0.24854 0.118899 0)
(0.242965 0.111577 0)
(0.23709 0.104321 0)
(0.231001 0.0970356 0)
(0.224795 0.0896533 0)
(0.218582 0.0821083 0)
(0.212463 0.0743526 0)
(0.20655 0.0663629 0)
(0.200951 0.0581149 0)
(0.195753 0.0496151 0)
(0.191062 0.0408733 0)
(0.186954 0.0319117 0)
(0.183487 0.0227611 0)
(0.180724 0.0134585 0)
(0.178717 0.00404475 0)
(0.177471 -0.00543379 0)
(0.177022 -0.0149122 0)
(0.177378 -0.0242941 0)
(0.178494 -0.0334762 0)
(0.180302 -0.0423537 0)
(0.182708 -0.050826 0)
(0.185604 -0.0588031 0)
(0.188862 -0.0662229 0)
(0.192354 -0.0730822 0)
(0.19597 -0.0794426 0)
(0.245154 0.120725 0)
(0.249144 0.136434 0)
(0.251978 0.152051 0)
(0.255133 0.167933 0)
(0.254811 0.182539 0)
(0.251983 0.197374 0)
(0.250201 0.212351 0)
(0.249102 0.224694 0)
(0.248761 0.23358 0)
(0.248851 0.239071 0)
(0.249637 0.241222 0)
(0.250872 0.240346 0)
(0.25225 0.236891 0)
(0.253643 0.231406 0)
(0.254946 0.224355 0)
(0.256049 0.216174 0)
(0.256855 0.207242 0)
(0.257306 0.197886 0)
(0.257356 0.188387 0)
(0.256963 0.178969 0)
(0.256084 0.169807 0)
(0.254674 0.161013 0)
(0.252684 0.152645 0)
(0.250077 0.144706 0)
(0.246822 0.137161 0)
(0.242922 0.129928 0)
(0.238395 0.12291 0)
(0.233307 0.115987 0)
(0.227734 0.109059 0)
(0.221794 0.102011 0)
(0.215605 0.0947703 0)
(0.209305 0.0872552 0)
(0.20303 0.0794335 0)
(0.196915 0.0712673 0)
(0.191078 0.0627502 0)
(0.185653 0.053882 0)
(0.180734 0.0446966 0)
(0.176424 0.0352203 0)
(0.172795 0.0255041 0)
(0.169882 0.0155998 0)
(0.167734 0.00555466 0)
(0.166331 -0.00457612 0)
(0.165664 -0.0147027 0)
(0.165717 -0.0246915 0)
(0.166394 -0.0344038 0)
(0.16759 -0.043708 0)