/*--------------------------------*- C++ -*----------------------------------*\
  =========                 |
  \\      /  F ield         | OpenFOAM: The Open Source CFD Toolbox
   \\    /   O peration     | Website:  https://openfoam.org
    \\  /    A nd           | Version:  11
     \\/     M anipulation  |
\*---------------------------------------------------------------------------*/
FoamFile
{
    format      ascii;
    class       volScalarField;
    location    "0";
    object      Ccx;
}
// * * * * * * * * * * * * * * * * * * * * * * * * * * * * * * * * * * * * * //

dimensions      [0 1 0 0 0 0 0];

internalField   nonuniform List<scalar> 
9600
(
-8.0159284
-7.76842
-7.5209116
-7.2734032
-7.0258948
-6.7783864
-6.5308779
-6.2833695
-6.0358611
-5.7883527
-5.5408443
-5.2933358
-5.0458274
-4.798319
-4.5508106
-4.3033022
-4.0557938
-3.8082853
-3.5607769
-3.3132685
-3.0657601
-2.8182517
-2.5707433
-2.3232348
-2.0757264
-1.828218
-1.5807096
-1.3332012
-1.0856928
-0.83818434
-0.59067593
-0.34316751
-0.095659089
0.15184933
0.39935774
0.64686616
0.89437458
1.141883
1.3893914
1.6368998
-7.9184318
-7.6759232
-7.4334146
-7.1909061
-6.9483975
-6.7058889
-6.4633803
-6.2208717
-5.9783631
-5.7358545
-5.4933459
-5.2508373
-5.0083287
-4.7658201
-4.5233116
-4.280803
-4.0382944
-3.7957858
-3.5532772
-3.3107686
-3.06826
-2.8257514
-2.5832428
-2.3407342
-2.0982256
-1.855717
-1.6132085
-1.3706999
-1.1281913
-0.88568269
-0.6431741
-0.40066551
-0.15815692
0.084351671
0.32686026
0.56936885
0.81187744
1.054386
1.2968946
1.5394032
-7.8209354
-7.5834266
-7.3459178
-7.108409
-6.8709003
-6.6333915
-6.3958827
-6.1583739
-5.9208652
-5.6833564
-5.4458476
-5.2083389
-4.9708301
-4.7333213
-4.4958125
-4.2583038
-4.020795
-3.7832862
-3.5457775
-3.3082687
-3.0707599
-2.8332511
-2.5957424
-2.3582336
-2.1207248
-1.8832161
-1.6457073
-1.4081985
-1.1706897
-0.93318097
-0.6956722
-0.45816343
-0.22065466
0.016854112
0.25436288
0.49187165
0.72938043
0.9668892
1.204398
1.4419068
-7.723439
-7.4909301
-7.2584211
-7.0259121
-6.7934032
-6.5608942
-6.3283853
-6.0958763
-5.8633673
-5.6308584
-5.3983494
-5.1658405
-4.9333315
-4.7008225
-4.4683136
-4.2358046
-4.0032957
-3.7707867
-3.5382777
-3.3057688
-3.0732598
-2.8407509
-2.6082419
-2.3757329
-2.143224
-1.910715
-1.6782061
-1.4456971
-1.2131881
-0.98067918
-0.74817022
-0.51566126
-0.2831523
-0.050643341
0.18186562
0.41437458
0.64688354
0.8793925
1.1119015
1.3444104
-7.6259429
-7.3984337
-7.1709246
-6.9434154
-6.7159062
-6.4883971
-6.2608879
-6.0333788
-5.8058696
-5.5783605
-5.3508513
-5.1233421
-4.895833
-4.6683238
-4.4408147
-4.2133055
-3.9857964
-3.7582872
-3.530778
-3.3032689
-3.0757597
-2.8482506
-2.6207414
-2.3932322
-2.1657231
-1.9382139
-1.7107048
-1.4831956
-1.2556865
-1.0281773
-0.80066816
-0.573159
-0.34564984
-0.11814068
0.10936848
0.33687763
0.56438679
0.79189595
1.0194051
1.2469143
-7.5284469
-7.3059375
-7.0834282
-6.8609188
-6.6384094
-6.4159001
-6.1933907
-5.9708813
-5.748372
-5.5258626
-5.3033533
-5.0808439
-4.8583345
-4.6358252
-4.4133158
-4.1908064
-3.9682971
-3.7457877
-3.5232783
-3.300769
-3.0782596
-2.8557503
-2.6332409
-2.4107315
-2.1882222
-1.9657128
-1.7432034
-1.5206941
-1.2981847
-1.0756754
-0.853166
-0.63065663
-0.40814727
-0.1856379
0.036871459
0.25938082
0.48189018
0.70439955
0.92690891
1.1494183
-7.4309511
-7.2134415
-6.9959319
-6.7784223
-6.5609128
-6.3434032
-6.1258936
-5.908384
-5.6908745
-5.4733649
-5.2558553
-5.0383457
-4.8208361
-4.6033266
-4.385817
-4.1683074
-3.9507978
-3.7332882
-3.5157787
-3.2982691
-3.0807595
-2.8632499
-2.6457404
-2.4282308
-2.2107212
-1.9932116
-1.775702
-1.5581925
-1.3406829
-1.1231733
-0.90566373
-0.68815416
-0.47064458
-0.253135
-0.03562542
0.18188416
0.39939374
0.61690331
0.83441289
1.0519225
-7.3334555
-7.1209457
-6.9084359
-6.6959261
-6.4834163
-6.2709065
-6.0583967
-5.8458868
-5.633377
-5.4208672
-5.2083574
-4.9958476
-4.7833378
-4.570828
-4.3583182
-4.1458084
-3.9332986
-3.7207888
-3.508279
-3.2957692
-3.0832594
-2.8707496
-2.6582398
-2.44573
-2.2332202
-2.0207104
-1.8082006
-1.5956908
-1.383181
-1.1706712
-0.95816136
-0.74565156
-0.53314176
-0.32063196
-0.10812215
0.10438765
0.31689745
0.52940726
0.74191706
0.95442687
-7.2359601
-7.02845
-6.82094
-6.61343
-6.4059199
-6.1984099
-5.9908998
-5.7833898
-5.5758798
-5.3683697
-5.1608597
-4.9533496
-4.7458396
-4.5383296
-4.3308195
-4.1233095
-3.9157994
-3.7082894
-3.5007794
-3.2932693
-3.0857593
-2.8782492
-2.6707392
-2.4632292
-2.2557191
-2.0482091
-1.840699
-1.633189
-1.425679
-1.2181689
-1.0106589
-0.80314885
-0.59563881
-0.38812877
-0.18061873
0.026891314
0.23440135
0.44191139
0.64942143
0.85693148
-7.1384649
-6.9359546
-6.7334443
-6.5309341
-6.3284238
-6.1259135
-5.9234032
-5.7208929
-5.5183826
-5.3158723
-5.113362
-4.9108517
-4.7083415
-4.5058312
-4.3033209
-4.1008106
-3.8983003
-3.69579
-3.4932797
-3.2907694
-3.0882592
-2.8857489
-2.6832386
-2.4807283
-2.278218
-2.0757077
-1.8731974
-1.6706871
-1.4681769
-1.2656666
-1.0631563
-0.860646
-0.65813571
-0.45562542
-0.25311513
-0.050604843
0.15190545
0.35441573
0.55692602
0.75943631
-7.04097
-6.8434594
-6.6459489
-6.4484384
-6.2509278
-6.0534173
-5.8559067
-5.6583962
-5.4608856
-5.2633751
-5.0658645
-4.868354
-4.6708434
-4.4733329
-4.2758223
-4.0783118
-3.8808012
-3.6832907
-3.4857801
-3.2882696
-3.090759
-2.8932485
-2.6957379
-2.4982274
-2.3007168
-2.1032063
-1.9056957
-1.7081852
-1.5106746
-1.3131641
-1.1156535
-0.918143
-0.72063245
-0.5231219
-0.32561136
-0.12810081
0.069409743
0.26692029
0.46443084
0.66194139
-6.9434753
-6.7509645
-6.5584537
-6.3659429
-6.173432
-5.9809212
-5.7884104
-5.5958996
-5.4033888
-5.2108779
-5.0183671
-4.8258563
-4.6333455
-4.4408346
-4.2483238
-4.055813
-3.8633022
-3.6707914
-3.4782805
-3.2857697
-3.0932589
-2.9007481
-2.7082372
-2.5157264
-2.3232156
-2.1307048
-1.938194
-1.7456831
-1.5531723
-1.3606615
-1.1681507
-0.97563985
-0.78312903
-0.59061821
-0.39810738
-0.20559656
-0.013085737
0.17942509
0.37193591
0.56444673
-6.845981
-6.6584699
-6.4709587
-6.2834476
-6.0959365
-5.9084254
-5.7209143
-5.5334032
-5.3458921
-5.158381
-4.9708699
-4.7833587
-4.5958476
-4.4083365
-4.2208254
-4.0333143
-3.8458032
-3.6582921
-3.470781
-3.2832699
-3.0957587
-2.9082476
-2.7207365
-2.5332254
-2.3457143
-2.1582032
-1.9706921
-1.783181
-1.5956699
-1.4081587
-1.2206476
-1.0331365
-0.84562542
-0.65811431
-0.4706032
-0.28309209
-0.095580975
0.091930136
0.27944125
0.46695236
-6.7484869
-6.5659755
-6.3834641
-6.2009527
-6.0184412
-5.8359298
-5.6534184
-5.470907
-5.2883956
-5.1058842
-4.9233727
-4.7408613
-4.5583499
-4.3758385
-4.1933271
-4.0108157
-3.8283043
-3.6457928
-3.4632814
-3.28077
-3.0982586
-2.9157472
-2.7332358
-2.5507243
-2.3682129
-2.1857015
-2.0031901
-1.8206787
-1.6381673
-1.4556559
-1.2731444
-1.090633
-0.90812161
-0.7256102
-0.54309878
-0.36058737
-0.17807595
0.0044354634
0.18694688
0.36945829
-6.6509932
-6.4734814
-6.2959697
-6.118458
-5.9409462
-5.7634345
-5.5859228
-5.408411
-5.2308993
-5.0533875
-4.8758758
-4.6983641
-4.5208523
-4.3433406
-4.1658289
-3.9883171
-3.8108054
-3.6332936
-3.4557819
-3.2782702
-3.1007584
-2.9232467
-2.745735
-2.5682232
-2.3907115
-2.2131997
-2.035688
-1.8581763
-1.6806645
-1.5031528
-1.3256411
-1.1481293
-0.97061759
-0.79310586
-0.61559412
-0.43808239
-0.26057065
-0.083058909
0.094452828
0.27196456
-6.5534998
-6.3809877
-6.2084757
-6.0359636
-5.8634515
-5.6909394
-5.5184273
-5.3459153
-5.1734032
-5.0008911
-4.828379
-4.655867
-4.4833549
-4.3108428
-4.1383307
-3.9658186
-3.7933066
-3.6207945
-3.4482824
-3.2757703
-3.1032583
-2.9307462
-2.7582341
-2.585722
-2.41321
-2.2406979
-2.0681858
-1.8956737
-1.7231616
-1.5506496
-1.3781375
-1.2056254
-1.0331133
-0.86060127
-0.68808919
-0.51557711
-0.34306503
-0.17055296
0.0019591216
0.1744712
-6.4560068
-6.2884944
-6.120982
-5.9534695
-5.7859571
-5.6184446
-5.4509322
-5.2834198
-5.1159073
-4.9483949
-4.7808825
-4.61337
-4.4458576
-4.2783451
-4.1108327
-3.9433203
-3.7758078
-3.6082954
-3.440783
-3.2732705
-3.1057581
-2.9382456
-2.7707332
-2.6032208
-2.4357083
-2.2681959
-2.1006835
-1.933171
-1.7656586
-1.5981461
-1.4306337
-1.2631213
-1.0956088
-0.9280964
-0.76058396
-0.59307152
-0.42555909
-0.25804665
-0.090534209
0.076978229
-6.3585143
-6.1960015
-6.0334887
-5.8709758
-5.708463
-5.5459502
-5.3834374
-5.2209246
-5.0584117
-4.8958989
-4.7333861
-4.5708733
-4.4083605
-4.2458476
-4.0833348
-3.920822
-3.7583092
-3.5957964
-3.4332835
-3.2707707
-3.1082579
-2.9457451
-2.7832322
-2.6207194
-2.4582066
-2.2956938
-2.133181
-1.9706681
-1.8081553
-1.6456425
-1.4831297
-1.3206169
-1.158104
-0.99559123
-0.83307841
-0.67056559
-0.50805277
-0.34553995
-0.18302713
-0.020514308
-6.2610222
-6.103509
-5.9459958
-5.7884826
-5.6309693
-5.4734561
-5.3159429
-5.1584296
-5.0009164
-4.8434032
-4.68589
-4.5283767
-4.3708635
-4.2133503
-4.0558371
-3.8983238
-3.7408106
-3.5832974
-3.4257841
-3.2682709
-3.1107577
-2.9532445
-2.7957312
-2.638218
-2.4807048
-2.3231915
-2.1656783
-2.0081651
-1.8506519
-1.6931386
-1.5356254
-1.3781122
-1.220599
-1.0630857
-0.90557251
-0.74805928
-0.59054606
-0.43303283
-0.2755196
-0.11800637
-6.1635307
-6.011017
-5.8585034
-5.7059897
-5.553476
-5.4009624
-5.2484487
-5.0959351
-4.9434214
-4.7909077
-4.6383941
-4.4858804
-4.3333668
-4.1808531
-4.0283394
-3.8758258
-3.7233121
-3.5707985
-3.4182848
-3.2657711
-3.1132575
-2.9607438
-2.8082301
-2.6557165
-2.5032028
-2.3506892
-2.1981755
-2.0456618
-1.8931482
-1.7406345
-1.5881209
-1.4356072
-1.2830935
-1.1305799
-0.97806622
-0.82555256
-0.6730389
-0.52052524
-0.36801158
-0.21549792
-6.0660397
-5.9185256
-5.7710115
-5.6234974
-5.4759832
-5.3284691
-5.180955
-5.0334409
-4.8859267
-4.7384126
-4.5908985
-4.4433844
-4.2958702
-4.1483561
-4.000842
-3.8533279
-3.7058137
-3.5582996
-3.4107855
-3.2632714
-3.1157572
-2.9682431
-2.820729
-2.6732149
-2.5257007
-2.3781866
-2.2306725
-2.0831584
-1.9356442
-1.7881301
-1.640616
-1.4931019
-1.3455877
-1.1980736
-1.0505595
-0.90304538
-0.75553126
-0.60801713
-0.46050301
-0.31298889
-5.9685494
-5.8260348
-5.6835201
-5.5410055
-5.3984909
-5.2559763
-5.1134617
-4.970947
-4.8284324
-4.6859178
-4.5434032
-4.4008886
-4.2583739
-4.1158593
-3.9733447
-3.8308301
-3.6883155
-3.5458008
-3.4032862
-3.2607716
-3.118257
-2.9757424
-2.8332278
-2.6907131
-2.5481985
-2.4056839
-2.2631693
-2.1206547
-1.97814
-1.8356254
-1.6931108
-1.5505962
-1.4080816
-1.2655669
-1.1230523
-0.9805377
-0.83802308
-0.69550846
-0.55299384
-0.41047922
-5.8710598
-5.7335446
-5.5960295
-5.4585143
-5.3209991
-5.183484
-5.0459688
-4.9084537
-4.7709385
-4.6334234
-4.4959082
-4.3583931
-4.2208779
-4.0833628
-3.9458476
-3.8083325
-3.6708173
-3.5333022
-3.395787
-3.2582719
-3.1207567
-2.9832416
-2.8457264
-2.7082113
-2.5706961
-2.433181
-2.2956658
-2.1581507
-2.0206355
-1.8831204
-1.7456052
-1.6080901
-1.4705749
-1.3330598
-1.1955446
-1.0580295
-0.92051431
-0.78299916
-0.64548401
-0.50796886
-5.7735709
-5.6410552
-5.5085395
-5.3760237
-5.243508
-5.1109923
-4.9784766
-4.8459608
-4.7134451
-4.5809294
-4.4484137
-4.3158979
-4.1833822
-4.0508665
-3.9183508
-3.7858351
-3.6533193
-3.5208036
-3.3882879
-3.2557722
-3.1232564
-2.9907407
-2.858225
-2.7257093
-2.5931935
-2.4606778
-2.3281621
-2.1956464
-2.0631307
-1.9306149
-1.7980992
-1.6655835
-1.5330678
-1.400552
-1.2680363
-1.1355206
-1.0030049
-0.87048915
-0.73797343
-0.60545771
-5.6760829
-5.5485666
-5.4210502
-5.2935339
-5.1660176
-5.0385012
-4.9109849
-4.7834685
-4.6559522
-4.5284359
-4.4009195
-4.2734032
-4.1458868
-4.0183705
-3.8908542
-3.7633378
-3.6358215
-3.5083051
-3.3807888
-3.2532725
-3.1257561
-2.9982398
-2.8707235
-2.7432071
-2.6156908
-2.4881744
-2.3606581
-2.2331418
-2.1056254
-1.9781091
-1.8505927
-1.7230764
-1.5955601
-1.4680437
-1.3405274
-1.213011
-1.0854947
-0.95797836
-0.83046202
-0.70294568
-5.5785959
-5.4560789
-5.3335619
-5.2110449
-5.0885279
-4.9660109
-4.8434939
-4.7209769
-4.5984599
-4.4759429
-4.3534259
-4.2309089
-4.1083919
-3.9858748
-3.8633578
-3.7408408
-3.6183238
-3.4958068
-3.3732898
-3.2507728
-3.1282558
-3.0057388
-2.8832218
-2.7607048
-2.6381878
-2.5156708
-2.3931538
-2.2706367
-2.1481197
-2.0256027
-1.9030857
-1.7805687
-1.6580517
-1.5355347
-1.4130177
-1.2905007
-1.1679837
-1.0454667
-0.92294968
-0.80043268
-5.48111
-5.3635923
-5.2460746
-5.1285569
-5.0110391
-4.8935214
-4.7760037
-4.6584859
-4.5409682
-4.4234505
-4.3059327
-4.188415
-4.0708973
-3.9533795
-3.8358618
-3.7183441
-3.6008264
-3.4833086
-3.3657909
-3.2482732
-3.1307554
-3.0132377
-2.89572
-2.7782022
-2.6606845
-2.5431668
-2.4256491
-2.3081313
-2.1906136
-2.0730959
-1.9555781
-1.8380604
-1.7205427
-1.6030249
-1.4855072
-1.3679895
-1.2504717
-1.132954
-1.0154363
-0.89791856
-5.3836254
-5.2711069
-5.1585884
-5.0460699
-4.9335513
-4.8210328
-4.7085143
-4.5959958
-4.4834773
-4.3709587
-4.2584402
-4.1459217
-4.0334032
-3.9208847
-3.8083662
-3.6958476
-3.5833291
-3.4708106
-3.3582921
-3.2457736
-3.133255
-3.0207365
-2.908218
-2.7956995
-2.683181
-2.5706624
-2.4581439
-2.3456254
-2.2331069
-2.1205884
-2.0080699
-1.8955513
-1.7830328
-1.6705143
-1.5579958
-1.4454773
-1.3329587
-1.2204402
-1.1079217
-0.99540319
-5.2861422
-5.1786228
-5.0711034
-4.9635841
-4.8560647
-4.7485453
-4.6410259
-4.5335065
-4.4259872
-4.3184678
-4.2109484
-4.103429
-3.9959096
-3.8883903
-3.7808709
-3.6733515
-3.5658321
-3.4583127
-3.3507934
-3.243274
-3.1357546
-3.0282352
-2.9207159
-2.8131965
-2.7056771
-2.5981577
-2.4906383
-2.383119
-2.2755996
-2.1680802
-2.0605608
-1.9530414
-1.8455221
-1.7380027
-1.6304833
-1.5229639
-1.4154445
-1.3079252
-1.2004058
-1.0928864
-5.1886606
-5.0861403
-4.98362
-4.8810997
-4.7785793
-4.676059
-4.5735387
-4.4710184
-4.368498
-4.2659777
-4.1634574
-4.0609371
-3.9584167
-3.8558964
-3.7533761
-3.6508558
-3.5483354
-3.4458151
-3.3432948
-3.2407745
-3.1382541
-3.0357338
-2.9332135
-2.8306932
-2.7281728
-2.6256525
-2.5231322
-2.4206119
-2.3180915
-2.2155712
-2.1130509
-2.0105306
-1.9080102
-1.8054899
-1.7029696
-1.6004493
-1.4979289
-1.3954086
-1.2928883
-1.190368
-5.091181
-4.9936596
-4.8961382
-4.7986169
-4.7010955
-4.6035741
-4.5060528
-4.4085314
-4.31101
-4.2134887
-4.1159673
-4.0184459
-3.9209246
-3.8234032
-3.7258818
-3.6283605
-3.5308391
-3.4333177
-3.3357964
-3.238275
-3.1407536
-3.0432322
-2.9457109
-2.8481895
-2.7506681
-2.6531468
-2.5556254
-2.458104
-2.3605827
-2.2630613
-2.1655399
-2.0680186
-1.9704972
-1.8729758
-1.7754545
-1.6779331
-1.5804117
-1.4828904
-1.385369
-1.2878476
-4.9937035
-4.901181
-4.8086584
-4.7161359
-4.6236134
-4.5310909
-4.4385684
-4.3460458
-4.2535233
-4.1610008
-4.0684783
-3.9759557
-3.8834332
-3.7909107
-3.6983882
-3.6058657
-3.5133431
-3.4208206
-3.3282981
-3.2357756
-3.143253
-3.0507305
-2.958208
-2.8656855
-2.7731629
-2.6806404
-2.5881179
-2.4955954
-2.4030729
-2.3105503
-2.2180278
-2.1255053
-2.0329828
-1.9404602
-1.8479377
-1.7554152
-1.6628927
-1.5703702
-1.4778476
-1.3853251
-4.8962286
-4.8087048
-4.721181
-4.6336572
-4.5461333
-4.4586095
-4.3710857
-4.2835619
-4.1960381
-4.1085143
-4.0209905
-3.9334667
-3.8459429
-3.7584191
-3.6708953
-3.5833714
-3.4958476
-3.4083238
-3.3208
-3.2332762
-3.1457524
-3.0582286
-2.9707048
-2.883181
-2.7956572
-2.7081333
-2.6206095
-2.5330857
-2.4455619
-2.3580381
-2.2705143
-2.1829905
-2.0954667
-2.0079429
-1.9204191
-1.8328953
-1.7453714
-1.6578476
-1.5703238
-1.4828
-4.7987567
-4.7162315
-4.6337062
-4.551181
-4.4686557
-4.3861305
-4.3036052
-4.22108
-4.1385547
-4.0560295
-3.9735042
-3.8909789
-3.8084537
-3.7259284
-3.6434032
-3.5608779
-3.4783527
-3.3958274
-3.3133022
-3.2307769
-3.1482517
-3.0657264
-2.9832012
-2.9006759
-2.8181507
-2.7356254
-2.6531002
-2.5705749
-2.4880497
-2.4055244
-2.3229991
-2.2404739
-2.1579486
-2.0754234
-1.9928981
-1.9103729
-1.8278476
-1.7453224
-1.6627971
-1.5802719
-4.7012885
-4.6237616
-4.5462347
-4.4687078
-4.391181
-4.3136541
-4.2361272
-4.1586003
-4.0810734
-4.0035466
-3.9260197
-3.8484928
-3.7709659
-3.693439
-3.6159121
-3.5383853
-3.4608584
-3.3833315
-3.3058046
-3.2282777
-3.1507509
-3.073224
-2.9956971
-2.9181702
-2.8406433
-2.7631165
-2.6855896
-2.6080627
-2.5305358
-2.4530089
-2.375482
-2.2979552
-2.2204283
-2.1429014
-2.0653745
-1.9878476
-1.9103208
-1.8327939
-1.755267
-1.6777401
-4.6038246
-4.5312959
-4.4587672
-4.3862384
-4.3137097
-4.241181
-4.1686522
-4.0961235
-4.0235948
-3.951066
-3.8785373
-3.8060086
-3.7334798
-3.6609511
-3.5884223
-3.5158936
-3.4433649
-3.3708361
-3.2983074
-3.2257787
-3.1532499
-3.0807212
-3.0081925
-2.9356637
-2.863135
-2.7906063
-2.7180775
-2.6455488
-2.57302
-2.5004913
-2.4279626
-2.3554338
-2.2829051
-2.2103764
-2.1378476
-2.0653189
-1.9927902
-1.9202614
-1.8477327
-1.775204
-4.5063662
-4.4388353
-4.3713044
-4.3037736
-4.2362427
-4.1687118
-4.101181
-4.0336501
-3.9661192
-3.8985884
-3.8310575
-3.7635266
-3.6959958
-3.6284649
-3.5609341
-3.4934032
-3.4258723
-3.3583415
-3.2908106
-3.2232797
-3.1557489
-3.088218
-3.0206871
-2.9531563
-2.8856254
-2.8180945
-2.7505637
-2.6830328
-2.615502
-2.5479711
-2.4804402
-2.4129094
-2.3453785
-2.2778476
-2.2103168
-2.1427859
-2.075255
-2.0077242
-1.9401933
-1.8726624
-4.4089143
-4.346381
-4.2838476
-4.2213143
-4.158781
-4.0962476
-4.0337143
-3.971181
-3.9086476
-3.8461143
-3.783581
-3.7210476
-3.6585143
-3.595981
-3.5334476
-3.4709143
-3.408381
-3.3458476
-3.2833143
-3.220781
-3.1582476
-3.0957143
-3.033181
-2.9706476
-2.9081143
-2.845581
-2.7830476
-2.7205143
-2.657981
-2.5954476
-2.5329143
-2.470381
-2.4078476
-2.3453143
-2.282781
-2.2202476
-2.1577143
-2.095181
-2.0326476
-1.9701143
-4.3114708
-4.2539346
-4.1963984
-4.1388621
-4.0813259
-4.0237897
-3.9662534
-3.9087172
-3.851181
-3.7936447
-3.7361085
-3.6785723
-3.621036
-3.5634998
-3.5059636
-3.4484273
-3.3908911
-3.3333549
-3.2758186
-3.2182824
-3.1607462
-3.10321
-3.0456737
-2.9881375
-2.9306013
-2.873065
-2.8155288
-2.7579926
-2.7004563
-2.6429201
-2.5853839
-2.5278476
-2.4703114
-2.4127752
-2.3552389
-2.2977027
-2.2401665
-2.1826302
-2.125094
-2.0675578
-4.2140381
-4.1614984
-4.1089587
-4.0564191
-4.0038794
-3.9513397
-3.8988
-3.8462603
-3.7937206
-3.741181
-3.6886413
-3.6361016
-3.5835619
-3.5310222
-3.4784826
-3.4259429
-3.3734032
-3.3208635
-3.2683238
-3.2157841
-3.1632445
-3.1107048
-3.0581651
-3.0056254
-2.9530857
-2.900546
-2.8480064
-2.7954667
-2.742927
-2.6903873
-2.6378476
-2.585308
-2.5327683
-2.4802286
-2.4276889
-2.3751492
-2.3226095
-2.2700699
-2.2175302
-2.1649905
1.7606824
1.7606824
1.7606824
1.7606824
1.7606824
1.7606824
1.7606824
1.7606824
1.7606824
1.7606824
1.7606824
1.7606824
1.7606824
1.7606824
1.7606824
1.7606824
1.7606824
1.7606824
1.7606824
1.7606824
1.7606824
1.7606824
1.7606824
1.7606824
1.7606824
1.7606824
1.7606824
1.7606824
1.7606824
1.7606824
1.7606824
1.7606824
1.7606824
1.7606824
1.7606824
1.7606824
1.7606824
1.7606824
1.7606824
1.7606824
1.6606872
1.6606872
1.6606872
1.6606872
1.6606872
1.6606872
1.6606872
1.6606872
1.6606872
1.6606872
1.6606872
1.6606872
1.6606872
1.6606872
1.6606872
1.6606872
1.6606872
1.6606872
1.6606872
1.6606872
1.6606872
1.6606872
1.6606872
1.6606872
1.6606872
1.6606872
1.6606872
1.6606872
1.6606872
1.6606872
1.6606872
1.6606872
1.6606872
1.6606872
1.6606872
1.6606872
1.6606872
1.6606872
1.6606872
1.6606872
1.5606922
1.5606922
1.5606922
1.5606922
1.5606922
1.5606922
1.5606922
1.5606922
1.5606922
1.5606922
1.5606922
1.5606922
1.5606922
1.5606922
1.5606922
1.5606922
1.5606922
1.5606922
1.5606922
1.5606922
1.5606922
1.5606922
1.5606922
1.5606922
1.5606922
1.5606922
1.5606922
1.5606922
1.5606922
1.5606922
1.5606922
1.5606922
1.5606922
1.5606922
1.5606922
1.5606922
1.5606922
1.5606922
1.5606922
1.5606922
1.4606974
1.4606974
1.4606974
1.4606974
1.4606974
1.4606974
1.4606974
1.4606974
1.4606974
1.4606974
1.4606974
1.4606974
1.4606974
1.4606974
1.4606974
1.4606974
1.4606974
1.4606974
1.4606974
1.4606974
1.4606974
1.4606974
1.4606974
1.4606974
1.4606974
1.4606974
1.4606974
1.4606974
1.4606974
1.4606974
1.4606974
1.4606974
1.4606974
1.4606974
1.4606974
1.4606974
1.4606974
1.4606974
1.4606974
1.4606974
1.360703
1.360703
1.360703
1.360703
1.360703
1.360703
1.360703
1.360703
1.360703
1.360703
1.360703
1.360703
1.360703
1.360703
1.360703
1.360703
1.360703
1.360703
1.360703
1.360703
1.360703
1.360703
1.360703
1.360703
1.360703
1.360703
1.360703
1.360703
1.360703
1.360703
1.360703
1.360703
1.360703
1.360703
1.360703
1.360703
1.360703
1.360703
1.360703
1.360703
1.2607088
1.2607088
1.2607088
1.2607088
1.2607088
1.2607088
1.2607088
1.2607088
1.2607088
1.2607088
1.2607088
1.2607088
1.2607088
1.2607088
1.2607088
1.2607088
1.2607088
1.2607088
1.2607088
1.2607088
1.2607088
1.2607088
1.2607088
1.2607088
1.2607088
1.2607088
1.2607088
1.2607088
1.2607088
1.2607088
1.2607088
1.2607088
1.2607088
1.2607088
1.2607088
1.2607088
1.2607088
1.2607088
1.2607088
1.2607088
1.1607149
1.1607149
1.1607149
1.1607149
1.1607149
1.1607149
1.1607149
1.1607149
1.1607149
1.1607149
1.1607149
1.1607149
1.1607149
1.1607149
1.1607149
1.1607149
1.1607149
1.1607149
1.1607149
1.1607149
1.1607149
1.1607149
1.1607149
1.1607149
1.1607149
1.1607149
1.1607149
1.1607149
1.1607149
1.1607149
1.1607149
1.1607149
1.1607149
1.1607149
1.1607149
1.1607149
1.1607149
1.1607149
1.1607149
1.1607149
1.0607214
1.0607214
1.0607214
1.0607214
1.0607214
1.0607214
1.0607214
1.0607214
1.0607214
1.0607214
1.0607214
1.0607214
1.0607214
1.0607214
1.0607214
1.0607214
1.0607214
1.0607214
1.0607214
1.0607214
1.0607214
1.0607214
1.0607214
1.0607214
1.0607214
1.0607214
1.0607214
1.0607214
1.0607214
1.0607214
1.0607214
1.0607214
1.0607214
1.0607214
1.0607214
1.0607214
1.0607214
1.0607214
1.0607214
1.0607214
0.96072825
0.96072825
0.96072825
0.96072825
0.96072825
0.96072825
0.96072825
0.96072825
0.96072825
0.96072825
0.96072825
0.96072825
0.96072825
0.96072825
0.96072825
0.96072825
0.96072825
0.96072825
0.96072825
0.96072825
0.96072825
0.96072825
0.96072825
0.96072825
0.96072825
0.96072825
0.96072824
0.96072825
0.96072825
0.96072825
0.96072825
0.96072825
0.96072825
0.96072825
0.96072825
0.96072825
0.96072825
0.96072825
0.96072825
0.96072825
0.86073551
0.86073551
0.86073551
0.86073551
0.86073551
0.86073551
0.86073551
0.86073551
0.86073551
0.86073551
0.86073551
0.86073551
0.86073551
0.86073551
0.86073551
0.86073551
0.86073551
0.86073551
0.86073551
0.86073551
0.86073551
0.86073551
0.86073551
0.86073551
0.86073551
0.86073551
0.86073551
0.86073551
0.86073551
0.86073551
0.86073551
0.86073551
0.86073551
0.86073551
0.86073551
0.86073551
0.86073551
0.86073551
0.86073551
0.86073551
0.76074323
0.76074323
0.76074323
0.76074323
0.76074323
0.76074323
0.76074323
0.76074323
0.76074323
0.76074323
0.76074323
0.76074323
0.76074323
0.76074323
0.76074323
0.76074323
0.76074323
0.76074323
0.76074323
0.76074323
0.76074323
0.76074323
0.76074323
0.76074323
0.76074323
0.76074323
0.76074323
0.76074323
0.76074323
0.76074323
0.76074323
0.76074323
0.76074323
0.76074323
0.76074323
0.76074323
0.76074323
0.76074323
0.76074323
0.76074323
0.66075145
0.66075145
0.66075145
0.66075145
0.66075145
0.66075145
0.66075145
0.66075145
0.66075145
0.66075145
0.66075145
0.66075145
0.66075145
0.66075145
0.66075145
0.66075145
0.66075145
0.66075145
0.66075145
0.66075145
0.66075145
0.66075145
0.66075145
0.66075145
0.66075145
0.66075145
0.66075145
0.66075145
0.66075144
0.66075145
0.66075145
0.66075145
0.66075145
0.66075145
0.66075145
0.66075145
0.66075145
0.66075145
0.66075145
0.66075145
0.5607602
0.5607602
0.5607602
0.5607602
0.5607602
0.5607602
0.5607602
0.5607602
0.5607602
0.5607602
0.5607602
0.5607602
0.5607602
0.5607602
0.5607602
0.5607602
0.5607602
0.5607602
0.5607602
0.5607602
0.5607602
0.5607602
0.5607602
0.5607602
0.5607602
0.5607602
0.5607602
0.5607602
0.5607602
0.5607602
0.5607602
0.5607602
0.5607602
0.5607602
0.5607602
0.5607602
0.5607602
0.5607602
0.5607602
0.5607602
0.46076955
0.46076955
0.46076955
0.46076955
0.46076955
0.46076955
0.46076955
0.46076955
0.46076955
0.46076955
0.46076955
0.46076955
0.46076955
0.46076955
0.46076955
0.46076955
0.46076955
0.46076955
0.46076955
0.46076955
0.46076955
0.46076955
0.46076955
0.46076955
0.46076955
0.46076955
0.46076955
0.46076955
0.46076955
0.46076955
0.46076955
0.46076955
0.46076955
0.46076955
0.46076955
0.46076955
0.46076955
0.46076955
0.46076955
0.46076955
0.36077956
0.36077956
0.36077956
0.36077956
0.36077956
0.36077956
0.36077956
0.36077956
0.36077956
0.36077956
0.36077956
0.36077956
0.36077956
0.36077956
0.36077956
0.36077956
0.36077956
0.36077956
0.36077956
0.36077956
0.36077956
0.36077956
0.36077956
0.36077956
0.36077956
0.36077956
0.36077956
0.36077956
0.36077956
0.36077956
0.36077956
0.36077956
0.36077956
0.36077956
0.36077956
0.36077956
0.36077956
0.36077956
0.36077956
0.36077956
0.2607903
0.2607903
0.2607903
0.2607903
0.2607903
0.2607903
0.2607903
0.2607903
0.2607903
0.2607903
0.2607903
0.2607903
0.2607903
0.2607903
0.2607903
0.2607903
0.2607903
0.2607903
0.2607903
0.2607903
0.2607903
0.2607903
0.2607903
0.2607903
0.2607903
0.2607903
0.2607903
0.2607903
0.2607903
0.2607903
0.2607903
0.2607903
0.2607903
0.2607903
0.2607903
0.2607903
0.2607903
0.2607903
0.2607903
0.2607903
0.16080186
0.16080186
0.16080186
0.16080186
0.16080186
0.16080186
0.16080186
0.16080186
0.16080186
0.16080186
0.16080186
0.16080186
0.16080186
0.16080186
0.16080186
0.16080186
0.16080186
0.16080186
0.16080186
0.16080186
0.16080186
0.16080186
0.16080186
0.16080186
0.16080186
0.16080186
0.16080186
0.16080186
0.16080186
0.16080186
0.16080186
0.16080186
0.16080186
0.16080186
0.16080186
0.16080186
0.16080186
0.16080186
0.16080186
0.16080186
0.06081433
0.06081433
0.06081433
0.06081433
0.06081433
0.06081433
0.06081433
0.06081433
0.06081433
0.06081433
0.06081433
0.06081433
0.06081433
0.06081433
0.06081433
0.06081433
0.06081433
0.06081433
0.06081433
0.06081433
0.06081433
0.06081433
0.06081433
0.060814332
0.060814331
0.06081433
0.06081433
0.06081433
0.060814331
0.060814331
0.06081433
0.06081433
0.060814329
0.06081433
0.06081433
0.06081433
0.06081433
0.06081433
0.06081433
0.06081433
-0.039172175
-0.039172175
-0.039172175
-0.039172175
-0.039172175
-0.039172175
-0.039172175
-0.039172175
-0.039172175
-0.039172175
-0.039172175
-0.039172175
-0.039172175
-0.039172175
-0.039172175
-0.039172175
-0.039172175
-0.039172175
-0.039172175
-0.039172175
-0.039172175
-0.039172175
-0.039172175
-0.039172175
-0.039172177
-0.039172175
-0.039172175
-0.039172175
-0.039172175
-0.039172175
-0.039172175
-0.039172175
-0.039172175
-0.039172175
-0.039172173
-0.039172175
-0.039172175
-0.039172175
-0.039172175
-0.039172175
-0.13915753
-0.13915753
-0.13915753
-0.13915753
-0.13915753
-0.13915753
-0.13915753
-0.13915753
-0.13915753
-0.13915753
-0.13915753
-0.13915753
-0.13915753
-0.13915753
-0.13915753
-0.13915753
-0.13915753
-0.13915753
-0.13915753
-0.13915753
-0.13915753
-0.13915753
-0.13915753
-0.13915753
-0.13915753
-0.13915753
-0.13915753
-0.13915753
-0.13915753
-0.13915753
-0.13915753
-0.13915753
-0.13915753
-0.13915753
-0.13915753
-0.13915753
-0.13915753
-0.13915753
-0.13915753
-0.13915753
-0.23914157
-0.23914157
-0.23914157
-0.23914157
-0.23914157
-0.23914157
-0.23914157
-0.23914157
-0.23914157
-0.23914157
-0.23914157
-0.23914157
-0.23914157
-0.23914157
-0.23914157
-0.23914157
-0.23914157
-0.23914157
-0.23914157
-0.23914157
-0.23914157
-0.23914157
-0.23914157
-0.23914157
-0.23914157
-0.23914157
-0.23914157
-0.23914157
-0.23914157
-0.23914157
-0.23914157
-0.23914157
-0.23914157
-0.23914157
-0.23914157
-0.23914157
-0.23914157
-0.23914157
-0.23914157
-0.23914157
-0.33912412
-0.33912412
-0.33912412
-0.33912412
-0.33912412
-0.33912412
-0.33912412
-0.33912412
-0.33912412
-0.33912412
-0.33912412
-0.33912412
-0.33912412
-0.33912412
-0.33912412
-0.33912412
-0.33912412
-0.33912412
-0.33912412
-0.33912412
-0.33912412
-0.33912412
-0.33912412
-0.33912412
-0.33912412
-0.33912412
-0.33912412
-0.33912412
-0.33912412
-0.33912412
-0.33912412
-0.33912412
-0.33912412
-0.33912412
-0.33912412
-0.33912412
-0.33912412
-0.33912412
-0.33912412
-0.33912412
-0.43910495
-0.43910495
-0.43910495
-0.43910495
-0.43910495
-0.43910495
-0.43910495
-0.43910495
-0.43910495
-0.43910495
-0.43910495
-0.43910495
-0.43910495
-0.43910495
-0.43910495
-0.43910495
-0.43910495
-0.43910495
-0.43910495
-0.43910495
-0.43910495
-0.43910495
-0.43910495
-0.43910495
-0.43910495
-0.43910495
-0.43910495
-0.43910495
-0.43910495
-0.43910495
-0.43910495
-0.43910495
-0.43910495
-0.43910495
-0.43910495
-0.43910495
-0.43910495
-0.43910495
-0.43910495
-0.43910495
-0.53908381
-0.53908381
-0.53908381
-0.53908381
-0.53908381
-0.53908381
-0.53908381
-0.53908381
-0.53908381
-0.53908381
-0.53908381
-0.53908381
-0.53908381
-0.53908381
-0.53908381
-0.53908381
-0.53908381
-0.53908381
-0.53908381
-0.53908381
-0.53908381
-0.53908381
-0.53908381
-0.53908381
-0.53908381
-0.53908381
-0.53908381
-0.53908381
-0.53908381
-0.53908381
-0.53908381
-0.53908381
-0.53908381
-0.53908381
-0.53908381
-0.53908381
-0.53908381
-0.53908381
-0.53908381
-0.5390838
-0.63906035
-0.63906035
-0.63906035
-0.63906035
-0.63906035
-0.63906035
-0.63906035
-0.63906035
-0.63906035
-0.63906035
-0.63906035
-0.63906035
-0.63906035
-0.63906035
-0.63906035
-0.63906035
-0.63906035
-0.63906035
-0.63906035
-0.63906035
-0.63906035
-0.63906035
-0.63906035
-0.63906035
-0.63906035
-0.63906035
-0.63906035
-0.63906035
-0.63906035
-0.63906035
-0.63906035
-0.63906035
-0.63906035
-0.63906035
-0.63906035
-0.63906035
-0.63906035
-0.63906035
-0.63906035
-0.63906035
-0.7390342
-0.7390342
-0.7390342
-0.7390342
-0.7390342
-0.7390342
-0.7390342
-0.7390342
-0.7390342
-0.7390342
-0.7390342
-0.7390342
-0.7390342
-0.7390342
-0.7390342
-0.7390342
-0.7390342
-0.7390342
-0.7390342
-0.7390342
-0.7390342
-0.7390342
-0.7390342
-0.7390342
-0.7390342
-0.7390342
-0.7390342
-0.7390342
-0.7390342
-0.7390342
-0.7390342
-0.7390342
-0.7390342
-0.7390342
-0.7390342
-0.7390342
-0.7390342
-0.7390342
-0.7390342
-0.7390342
-0.83900485
-0.83900485
-0.83900485
-0.83900485
-0.83900485
-0.83900485
-0.83900485
-0.83900485
-0.83900485
-0.83900485
-0.83900485
-0.83900485
-0.83900485
-0.83900485
-0.83900485
-0.83900485
-0.83900485
-0.83900485
-0.83900485
-0.83900485
-0.83900485
-0.83900485
-0.83900485
-0.83900485
-0.83900485
-0.83900485
-0.83900485
-0.83900485
-0.83900485
-0.83900485
-0.83900485
-0.83900485
-0.83900485
-0.83900485
-0.83900485
-0.83900485
-0.83900485
-0.83900485
-0.83900485