/*--------------------------------*- C++ -*----------------------------------*\
  =========                 |
  \\      /  F ield         | OpenFOAM: The Open Source CFD Toolbox
   \\    /   O peration     | Website:  https://openfoam.org
    \\  /    A nd           | Version:  11
     \\/     M anipulation  |
\*---------------------------------------------------------------------------*/
FoamFile
{
    format      ascii;
    class       volScalarField;
    location    "0";
    object      Ccy;
}
// * * * * * * * * * * * * * * * * * * * * * * * * * * * * * * * * * * * * * //

dimensions      [0 1 0 0 0 0 0];

internalField   nonuniform List<scalar> 
9600
(
-7.4652425
-7.4652425
-7.4652425
-7.4652425
-7.4652425
-7.4652425
-7.4652425
-7.4652425
-7.4652425
-7.4652425
-7.4652425
-7.4652425
-7.4652425
-7.4652425
-7.4652425
-7.4652425
-7.4652425
-7.4652425
-7.4652425
-7.4652425
-7.4652425
-7.4652425
-7.4652425
-7.4652425
-7.4652425
-7.4652425
-7.4652425
-7.4652425
-7.4652425
-7.4652425
-7.4652425
-7.4652425
-7.4652425
-7.4652425
-7.4652425
-7.4652425
-7.4652425
-7.4652425
-7.4652425
-7.4652425
-7.3954952
-7.3954952
-7.3954952
-7.3954952
-7.3954952
-7.3954952
-7.3954952
-7.3954952
-7.3954952
-7.3954952
-7.3954952
-7.3954952
-7.3954952
-7.3954952
-7.3954952
-7.3954952
-7.3954952
-7.3954952
-7.3954952
-7.3954952
-7.3954952
-7.3954952
-7.3954952
-7.3954952
-7.3954952
-7.3954952
-7.3954952
-7.3954952
-7.3954952
-7.3954952
-7.3954952
-7.3954952
-7.3954952
-7.3954952
-7.3954952
-7.3954952
-7.3954952
-7.3954952
-7.3954952
-7.3954952
-7.325748
-7.325748
-7.325748
-7.325748
-7.325748
-7.325748
-7.325748
-7.325748
-7.325748
-7.325748
-7.325748
-7.325748
-7.325748
-7.325748
-7.325748
-7.325748
-7.325748
-7.325748
-7.325748
-7.325748
-7.325748
-7.325748
-7.325748
-7.325748
-7.325748
-7.325748
-7.325748
-7.325748
-7.325748
-7.325748
-7.325748
-7.325748
-7.325748
-7.325748
-7.325748
-7.325748
-7.325748
-7.325748
-7.325748
-7.325748
-7.2560008
-7.2560008
-7.2560008
-7.2560008
-7.2560008
-7.2560008
-7.2560008
-7.2560008
-7.2560008
-7.2560008
-7.2560008
-7.2560008
-7.2560008
-7.2560008
-7.2560008
-7.2560008
-7.2560008
-7.2560008
-7.2560008
-7.2560008
-7.2560008
-7.2560008
-7.2560008
-7.2560008
-7.2560008
-7.2560008
-7.2560008
-7.2560008
-7.2560008
-7.2560008
-7.2560008
-7.2560008
-7.2560008
-7.2560008
-7.2560008
-7.2560008
-7.2560008
-7.2560008
-7.2560008
-7.2560008
-7.1862538
-7.1862538
-7.1862538
-7.1862538
-7.1862538
-7.1862538
-7.1862538
-7.1862538
-7.1862538
-7.1862538
-7.1862538
-7.1862538
-7.1862538
-7.1862538
-7.1862538
-7.1862538
-7.1862538
-7.1862538
-7.1862538
-7.1862538
-7.1862538
-7.1862538
-7.1862538
-7.1862538
-7.1862538
-7.1862538
-7.1862538
-7.1862538
-7.1862538
-7.1862538
-7.1862538
-7.1862538
-7.1862538
-7.1862538
-7.1862538
-7.1862538
-7.1862538
-7.1862538
-7.1862538
-7.1862538
-7.116507
-7.116507
-7.116507
-7.116507
-7.116507
-7.116507
-7.116507
-7.116507
-7.116507
-7.116507
-7.116507
-7.116507
-7.116507
-7.116507
-7.116507
-7.116507
-7.116507
-7.116507
-7.116507
-7.116507
-7.116507
-7.116507
-7.116507
-7.116507
-7.116507
-7.116507
-7.116507
-7.116507
-7.116507
-7.116507
-7.116507
-7.116507
-7.116507
-7.116507
-7.116507
-7.116507
-7.116507
-7.116507
-7.116507
-7.116507
-7.0467602
-7.0467602
-7.0467602
-7.0467602
-7.0467602
-7.0467602
-7.0467602
-7.0467602
-7.0467602
-7.0467602
-7.0467602
-7.0467602
-7.0467602
-7.0467602
-7.0467602
-7.0467602
-7.0467602
-7.0467602
-7.0467602
-7.0467602
-7.0467602
-7.0467602
-7.0467602
-7.0467602
-7.0467602
-7.0467602
-7.0467602
-7.0467602
-7.0467602
-7.0467602
-7.0467602
-7.0467602
-7.0467602
-7.0467602
-7.0467602
-7.0467602
-7.0467602
-7.0467602
-7.0467602
-7.0467602
-6.9770136
-6.9770136
-6.9770136
-6.9770136
-6.9770136
-6.9770136
-6.9770136
-6.9770136
-6.9770136
-6.9770136
-6.9770136
-6.9770136
-6.9770136
-6.9770136
-6.9770136
-6.9770136
-6.9770136
-6.9770136
-6.9770136
-6.9770136
-6.9770136
-6.9770136
-6.9770136
-6.9770136
-6.9770136
-6.9770136
-6.9770136
-6.9770136
-6.9770136
-6.9770136
-6.9770136
-6.9770136
-6.9770136
-6.9770136
-6.9770136
-6.9770136
-6.9770136
-6.9770136
-6.9770136
-6.9770136
-6.9072672
-6.9072672
-6.9072672
-6.9072672
-6.9072672
-6.9072672
-6.9072672
-6.9072672
-6.9072672
-6.9072672
-6.9072672
-6.9072672
-6.9072672
-6.9072672
-6.9072672
-6.9072672
-6.9072672
-6.9072672
-6.9072672
-6.9072672
-6.9072672
-6.9072672
-6.9072672
-6.9072672
-6.9072672
-6.9072672
-6.9072672
-6.9072672
-6.9072672
-6.9072672
-6.9072672
-6.9072672
-6.9072672
-6.9072672
-6.9072672
-6.9072672
-6.9072672
-6.9072672
-6.9072672
-6.9072672
-6.8375208
-6.8375208
-6.8375208
-6.8375208
-6.8375208
-6.8375208
-6.8375208
-6.8375208
-6.8375208
-6.8375208
-6.8375208
-6.8375208
-6.8375208
-6.8375208
-6.8375208
-6.8375208
-6.8375208
-6.8375208
-6.8375208
-6.8375208
-6.8375208
-6.8375208
-6.8375208
-6.8375208
-6.8375208
-6.8375208
-6.8375208
-6.8375208
-6.8375208
-6.8375208
-6.8375208
-6.8375208
-6.8375208
-6.8375208
-6.8375208
-6.8375208
-6.8375208
-6.8375208
-6.8375208
-6.8375208
-6.7677747
-6.7677747
-6.7677747
-6.7677747
-6.7677747
-6.7677747
-6.7677747
-6.7677747
-6.7677747
-6.7677747
-6.7677747
-6.7677747
-6.7677747
-6.7677747
-6.7677747
-6.7677747
-6.7677747
-6.7677747
-6.7677747
-6.7677747
-6.7677747
-6.7677747
-6.7677747
-6.7677747
-6.7677747
-6.7677747
-6.7677747
-6.7677747
-6.7677747
-6.7677747
-6.7677747
-6.7677747
-6.7677747
-6.7677747
-6.7677747
-6.7677747
-6.7677747
-6.7677747
-6.7677747
-6.7677747
-6.6980288
-6.6980288
-6.6980288
-6.6980288
-6.6980288
-6.6980288
-6.6980288
-6.6980288
-6.6980288
-6.6980288
-6.6980288
-6.6980288
-6.6980288
-6.6980288
-6.6980288
-6.6980288
-6.6980288
-6.6980288
-6.6980288
-6.6980288
-6.6980288
-6.6980288
-6.6980288
-6.6980288
-6.6980288
-6.6980288
-6.6980288
-6.6980288
-6.6980288
-6.6980288
-6.6980288
-6.6980288
-6.6980288
-6.6980288
-6.6980288
-6.6980288
-6.6980288
-6.6980288
-6.6980288
-6.6980288
-6.628283
-6.628283
-6.628283
-6.628283
-6.628283
-6.628283
-6.628283
-6.628283
-6.628283
-6.628283
-6.628283
-6.628283
-6.628283
-6.628283
-6.628283
-6.628283
-6.628283
-6.628283
-6.628283
-6.628283
-6.628283
-6.628283
-6.628283
-6.628283
-6.628283
-6.628283
-6.628283
-6.628283
-6.628283
-6.628283
-6.628283
-6.628283
-6.628283
-6.628283
-6.628283
-6.628283
-6.628283
-6.628283
-6.628283
-6.628283
-6.5585375
-6.5585375
-6.5585375
-6.5585375
-6.5585375
-6.5585375
-6.5585375
-6.5585375
-6.5585375
-6.5585375
-6.5585375
-6.5585375
-6.5585375
-6.5585375
-6.5585375
-6.5585375
-6.5585375
-6.5585375
-6.5585375
-6.5585375
-6.5585375
-6.5585375
-6.5585375
-6.5585375
-6.5585375
-6.5585375
-6.5585375
-6.5585375
-6.5585375
-6.5585375
-6.5585375
-6.5585375
-6.5585375
-6.5585375
-6.5585375
-6.5585375
-6.5585375
-6.5585375
-6.5585375
-6.5585375
-6.4887923
-6.4887923
-6.4887923
-6.4887923
-6.4887923
-6.4887923
-6.4887923
-6.4887923
-6.4887923
-6.4887923
-6.4887923
-6.4887923
-6.4887923
-6.4887923
-6.4887923
-6.4887923
-6.4887923
-6.4887923
-6.4887923
-6.4887923
-6.4887923
-6.4887923
-6.4887923
-6.4887923
-6.4887923
-6.4887923
-6.4887923
-6.4887923
-6.4887923
-6.4887923
-6.4887923
-6.4887923
-6.4887923
-6.4887923
-6.4887923
-6.4887923
-6.4887923
-6.4887923
-6.4887923
-6.4887923
-6.4190473
-6.4190473
-6.4190473
-6.4190473
-6.4190473
-6.4190473
-6.4190473
-6.4190473
-6.4190473
-6.4190473
-6.4190473
-6.4190473
-6.4190473
-6.4190473
-6.4190473
-6.4190473
-6.4190473
-6.4190473
-6.4190473
-6.4190473
-6.4190473
-6.4190473
-6.4190473
-6.4190473
-6.4190473
-6.4190473
-6.4190473
-6.4190473
-6.4190473
-6.4190473
-6.4190473
-6.4190473
-6.4190473
-6.4190473
-6.4190473
-6.4190473
-6.4190473
-6.4190473
-6.4190473
-6.4190473
-6.3493026
-6.3493026
-6.3493026
-6.3493026
-6.3493026
-6.3493026
-6.3493026
-6.3493026
-6.3493026
-6.3493026
-6.3493026
-6.3493026
-6.3493026
-6.3493026
-6.3493026
-6.3493026
-6.3493026
-6.3493026
-6.3493026
-6.3493026
-6.3493026
-6.3493026
-6.3493026
-6.3493026
-6.3493026
-6.3493026
-6.3493026
-6.3493026
-6.3493026
-6.3493026
-6.3493026
-6.3493026
-6.3493026
-6.3493026
-6.3493026
-6.3493026
-6.3493026
-6.3493026
-6.3493026
-6.3493026
-6.2795581
-6.2795581
-6.2795581
-6.2795581
-6.2795581
-6.2795581
-6.2795581
-6.2795581
-6.2795581
-6.2795581
-6.2795581
-6.2795581
-6.2795581
-6.2795581
-6.2795581
-6.2795581
-6.2795581
-6.2795581
-6.2795581
-6.2795581
-6.2795581
-6.2795581
-6.2795581
-6.2795581
-6.2795581
-6.2795581
-6.2795581
-6.2795581
-6.2795581
-6.2795581
-6.2795581
-6.2795581
-6.2795581
-6.2795581
-6.2795581
-6.2795581
-6.2795581
-6.2795581
-6.2795581
-6.2795581
-6.2098141
-6.2098141
-6.2098141
-6.2098141
-6.2098141
-6.2098141
-6.2098141
-6.2098141
-6.2098141
-6.2098141
-6.2098141
-6.2098141
-6.2098141
-6.2098141
-6.2098141
-6.2098141
-6.2098141
-6.2098141
-6.2098141
-6.2098141
-6.2098141
-6.2098141
-6.2098141
-6.2098141
-6.2098141
-6.2098141
-6.2098141
-6.2098141
-6.2098141
-6.2098141
-6.2098141
-6.2098141
-6.2098141
-6.2098141
-6.2098141
-6.2098141
-6.2098141
-6.2098141
-6.2098141
-6.2098141
-6.1400704
-6.1400704
-6.1400704
-6.1400704
-6.1400704
-6.1400704
-6.1400704
-6.1400704
-6.1400704
-6.1400704
-6.1400704
-6.1400704
-6.1400704
-6.1400704
-6.1400704
-6.1400704
-6.1400704
-6.1400704
-6.1400704
-6.1400704
-6.1400704
-6.1400704
-6.1400704
-6.1400704
-6.1400704
-6.1400704
-6.1400704
-6.1400704
-6.1400704
-6.1400704
-6.1400704
-6.1400704
-6.1400704
-6.1400704
-6.1400704
-6.1400704
-6.1400704
-6.1400704
-6.1400704
-6.1400704
-6.070327
-6.070327
-6.070327
-6.070327
-6.070327
-6.070327
-6.070327
-6.070327
-6.070327
-6.070327
-6.070327
-6.070327
-6.070327
-6.070327
-6.070327
-6.070327
-6.070327
-6.070327
-6.070327
-6.070327
-6.070327
-6.070327
-6.070327
-6.070327
-6.070327
-6.070327
-6.070327
-6.070327
-6.070327
-6.070327
-6.070327
-6.070327
-6.070327
-6.070327
-6.070327
-6.070327
-6.070327
-6.070327
-6.070327
-6.070327
-6.0005842
-6.0005842
-6.0005842
-6.0005842
-6.0005842
-6.0005842
-6.0005842
-6.0005842
-6.0005842
-6.0005842
-6.0005842
-6.0005842
-6.0005842
-6.0005842
-6.0005842
-6.0005842
-6.0005842
-6.0005842
-6.0005842
-6.0005842
-6.0005842
-6.0005842
-6.0005842
-6.0005842
-6.0005842
-6.0005842
-6.0005842
-6.0005842
-6.0005842
-6.0005842
-6.0005842
-6.0005842
-6.0005842
-6.0005842
-6.0005842
-6.0005842
-6.0005842
-6.0005842
-6.0005842
-6.0005842
-5.9308419
-5.9308419
-5.9308419
-5.9308419
-5.9308419
-5.9308419
-5.9308419
-5.9308419
-5.9308419
-5.9308419
-5.9308419
-5.9308419
-5.9308419
-5.9308419
-5.9308419
-5.9308419
-5.9308419
-5.9308419
-5.9308419
-5.9308419
-5.9308419
-5.9308419
-5.9308419
-5.9308419
-5.9308419
-5.9308419
-5.9308419
-5.9308419
-5.9308419
-5.9308419
-5.9308419
-5.9308419
-5.9308419
-5.9308419
-5.9308419
-5.9308419
-5.9308419
-5.9308419
-5.9308419
-5.9308419
-5.8611001
-5.8611001
-5.8611001
-5.8611001
-5.8611001
-5.8611001
-5.8611001
-5.8611001
-5.8611001
-5.8611001
-5.8611001
-5.8611001
-5.8611001
-5.8611001
-5.8611001
-5.8611001
-5.8611001
-5.8611001
-5.8611001
-5.8611001
-5.8611001
-5.8611001
-5.8611001
-5.8611001
-5.8611001
-5.8611001
-5.8611001
-5.8611001
-5.8611001
-5.8611001
-5.8611001
-5.8611001
-5.8611001
-5.8611001
-5.8611001
-5.8611001
-5.8611001
-5.8611001
-5.8611001
-5.8611001
-5.7913589
-5.7913589
-5.7913589
-5.7913589
-5.7913589
-5.7913589
-5.7913589
-5.7913589
-5.7913589
-5.7913589
-5.7913589
-5.7913589
-5.7913589
-5.7913589
-5.7913589
-5.7913589
-5.7913589
-5.7913589
-5.7913589
-5.7913589
-5.7913589
-5.7913589
-5.7913589
-5.7913589
-5.7913589
-5.7913589
-5.7913589
-5.7913589
-5.7913589
-5.7913589
-5.7913589
-5.7913589
-5.7913589
-5.7913589
-5.7913589
-5.7913589
-5.7913589
-5.7913589
-5.7913589
-5.7913589
-5.7216185
-5.7216185
-5.7216185
-5.7216185
-5.7216185
-5.7216185
-5.7216185
-5.7216185
-5.7216185
-5.7216185
-5.7216185
-5.7216185
-5.7216185
-5.7216185
-5.7216185
-5.7216185
-5.7216185
-5.7216185
-5.7216185
-5.7216185
-5.7216185
-5.7216185
-5.7216185
-5.7216185
-5.7216185
-5.7216185
-5.7216185
-5.7216185
-5.7216185
-5.7216185
-5.7216185
-5.7216185
-5.7216185
-5.7216185
-5.7216185
-5.7216185
-5.7216185
-5.7216185
-5.7216185
-5.7216185
-5.6518788
-5.6518788
-5.6518788
-5.6518788
-5.6518788
-5.6518788
-5.6518788
-5.6518788
-5.6518788
-5.6518788
-5.6518788
-5.6518788
-5.6518788
-5.6518788
-5.6518788
-5.6518788
-5.6518788
-5.6518788
-5.6518788
-5.6518788
-5.6518788
-5.6518788
-5.6518788
-5.6518788
-5.6518788
-5.6518788
-5.6518788
-5.6518788
-5.6518788
-5.6518788
-5.6518788
-5.6518788
-5.6518788
-5.6518788
-5.6518788
-5.6518788
-5.6518788
-5.6518788
-5.6518788
-5.6518788
-5.5821401
-5.5821401
-5.5821401
-5.5821401
-5.5821401
-5.5821401
-5.5821401
-5.5821401
-5.5821401
-5.5821401
-5.5821401
-5.5821401
-5.5821401
-5.5821401
-5.5821401
-5.5821401
-5.5821401
-5.5821401
-5.5821401
-5.5821401
-5.5821401
-5.5821401
-5.5821401
-5.5821401
-5.5821401
-5.5821401
-5.5821401
-5.5821401
-5.5821401
-5.5821401
-5.5821401
-5.5821401
-5.5821401
-5.5821401
-5.5821401
-5.5821401
-5.5821401
-5.5821401
-5.5821401
-5.5821401
-5.5124023
-5.5124023
-5.5124023
-5.5124023
-5.5124023
-5.5124023
-5.5124023
-5.5124023
-5.5124023
-5.5124023
-5.5124023
-5.5124023
-5.5124023
-5.5124023
-5.5124023
-5.5124023
-5.5124023
-5.5124023
-5.5124023
-5.5124023
-5.5124023
-5.5124023
-5.5124023
-5.5124023
-5.5124023
-5.5124023
-5.5124023
-5.5124023
-5.5124023
-5.5124023
-5.5124023
-5.5124023
-5.5124023
-5.5124023
-5.5124023
-5.5124023
-5.5124023
-5.5124023
-5.5124023
-5.5124023
-5.4426657
-5.4426657
-5.4426657
-5.4426657
-5.4426657
-5.4426657
-5.4426657
-5.4426657
-5.4426657
-5.4426657
-5.4426657
-5.4426657
-5.4426657
-5.4426657
-5.4426657
-5.4426657
-5.4426657
-5.4426657
-5.4426657
-5.4426657
-5.4426657
-5.4426657
-5.4426657
-5.4426657
-5.4426657
-5.4426657
-5.4426657
-5.4426657
-5.4426657
-5.4426657
-5.4426657
-5.4426657
-5.4426657
-5.4426657
-5.4426657
-5.4426657
-5.4426657
-5.4426657
-5.4426657
-5.4426657
-5.3729305
-5.3729305
-5.3729305
-5.3729305
-5.3729305
-5.3729305
-5.3729305
-5.3729305
-5.3729305
-5.3729305
-5.3729305
-5.3729305
-5.3729305
-5.3729305
-5.3729305
-5.3729305
-5.3729305
-5.3729305
-5.3729305
-5.3729305
-5.3729305
-5.3729305
-5.3729305
-5.3729305
-5.3729305
-5.3729305
-5.3729305
-5.3729305
-5.3729305
-5.3729305
-5.3729305
-5.3729305
-5.3729305
-5.3729305
-5.3729305
-5.3729305
-5.3729305
-5.3729305
-5.3729305
-5.3729305
-5.3031969
-5.3031969
-5.3031969
-5.3031969
-5.3031969
-5.3031969
-5.3031969
-5.3031969
-5.3031969
-5.3031969
-5.3031969
-5.3031969
-5.3031969
-5.3031969
-5.3031969
-5.3031969
-5.3031969
-5.3031969
-5.3031969
-5.3031969
-5.3031969
-5.3031969
-5.3031969
-5.3031969
-5.3031969
-5.3031969
-5.3031969
-5.3031969
-5.3031969
-5.3031969
-5.3031969
-5.3031969
-5.3031969
-5.3031969
-5.3031969
-5.3031969
-5.3031969
-5.3031969
-5.3031969
-5.3031969
-5.2334651
-5.2334651
-5.2334651
-5.2334651
-5.2334651
-5.2334651
-5.2334651
-5.2334651
-5.2334651
-5.2334651
-5.2334651
-5.2334651
-5.2334651
-5.2334651
-5.2334651
-5.2334651
-5.2334651
-5.2334651
-5.2334651
-5.2334651
-5.2334651
-5.2334651
-5.2334651
-5.2334651
-5.2334651
-5.2334651
-5.2334651
-5.2334651
-5.2334651
-5.2334651
-5.2334651
-5.2334651
-5.2334651
-5.2334651
-5.2334651
-5.2334651
-5.2334651
-5.2334651
-5.2334651
-5.2334651
-5.1637355
-5.1637355
-5.1637355
-5.1637355
-5.1637355
-5.1637355
-5.1637355
-5.1637355
-5.1637355
-5.1637355
-5.1637355
-5.1637355
-5.1637355
-5.1637355
-5.1637355
-5.1637355
-5.1637355
-5.1637355
-5.1637355
-5.1637355
-5.1637355
-5.1637355
-5.1637355
-5.1637355
-5.1637355
-5.1637355
-5.1637355
-5.1637355
-5.1637355
-5.1637355
-5.1637355
-5.1637355
-5.1637355
-5.1637355
-5.1637355
-5.1637355
-5.1637355
-5.1637355
-5.1637355
-5.1637355
-5.0940084
-5.0940084
-5.0940084
-5.0940084
-5.0940084
-5.0940084
-5.0940084
-5.0940084
-5.0940084
-5.0940084
-5.0940084
-5.0940084
-5.0940084
-5.0940084
-5.0940084
-5.0940084
-5.0940084
-5.0940084
-5.0940084
-5.0940084
-5.0940084
-5.0940084
-5.0940084
-5.0940084
-5.0940084
-5.0940084
-5.0940084
-5.0940084
-5.0940084
-5.0940084
-5.0940084
-5.0940084
-5.0940084
-5.0940084
-5.0940084
-5.0940084
-5.0940084
-5.0940084
-5.0940084
-5.0940084
-5.0242846
-5.0242846
-5.0242846
-5.0242846
-5.0242846
-5.0242846
-5.0242846
-5.0242846
-5.0242846
-5.0242846
-5.0242846
-5.0242846
-5.0242846
-5.0242846
-5.0242846
-5.0242846
-5.0242846
-5.0242846
-5.0242846
-5.0242846
-5.0242846
-5.0242846
-5.0242846
-5.0242846
-5.0242846
-5.0242846
-5.0242846
-5.0242846
-5.0242846
-5.0242846
-5.0242846
-5.0242846
-5.0242846
-5.0242846
-5.0242846
-5.0242846
-5.0242846
-5.0242846
-5.0242846
-5.0242846
-4.9545645
-4.9545645
-4.9545645
-4.9545645
-4.9545645
-4.9545645
-4.9545645
-4.9545645
-4.9545645
-4.9545645
-4.9545645
-4.9545645
-4.9545645
-4.9545645
-4.9545645
-4.9545645
-4.9545645
-4.9545645
-4.9545645
-4.9545645
-4.9545645
-4.9545645
-4.9545645
-4.9545645
-4.9545645
-4.9545645
-4.9545645
-4.9545645
-4.9545645
-4.9545645
-4.9545645
-4.9545645
-4.9545645
-4.9545645
-4.9545645
-4.9545645
-4.9545645
-4.9545645
-4.9545645
-4.9545645
-4.8848492
-4.8848492
-4.8848492
-4.8848492
-4.8848492
-4.8848492
-4.8848492
-4.8848492
-4.8848492
-4.8848492
-4.8848492
-4.8848492
-4.8848492
-4.8848492
-4.8848492
-4.8848492
-4.8848492
-4.8848492
-4.8848492
-4.8848492
-4.8848492
-4.8848492
-4.8848492
-4.8848492
-4.8848492
-4.8848492
-4.8848492
-4.8848492
-4.8848492
-4.8848492
-4.8848492
-4.8848492
-4.8848492
-4.8848492
-4.8848492
-4.8848492
-4.8848492
-4.8848492
-4.8848492
-4.8848492
-4.8151399
-4.8151399
-4.8151399
-4.8151399
-4.8151399
-4.8151399
-4.8151399
-4.8151399
-4.8151399
-4.8151399
-4.8151399
-4.8151399
-4.8151399
-4.8151399
-4.8151399
-4.8151399
-4.8151399
-4.8151399
-4.8151399
-4.8151399
-4.8151399
-4.8151399
-4.8151399
-4.8151399
-4.8151399
-4.8151399
-4.8151399
-4.8151399
-4.8151399
-4.8151399
-4.8151399
-4.8151399
-4.8151399
-4.8151399
-4.8151399
-4.8151399
-4.8151399
-4.8151399
-4.8151399
-4.8151399
-4.7454383
-4.7454383
-4.7454383
-4.7454383
-4.7454383
-4.7454383
-4.7454383
-4.7454383
-4.7454383
-4.7454383
-4.7454383
-4.7454383
-4.7454383
-4.7454383
-4.7454383
-4.7454383
-4.7454383
-4.7454383
-4.7454383
-4.7454383
-4.7454383
-4.7454383
-4.7454383
-4.7454383
-4.7454383
-4.7454383
-4.7454383
-4.7454383
-4.7454383
-4.7454383
-4.7454383
-4.7454383
-4.7454383
-4.7454383
-4.7454383
-4.7454383
-4.7454383
-4.7454383
-4.7454383
-4.7454383
-7.2799412
-6.909299
-6.5386568
-6.1680146
-5.7973724
-5.4267301
-5.0560879
-4.6854457
-4.3148035
-3.9441613
-3.5735191
-3.2028769
-2.8322346
-2.4615924
-2.0909502
-1.720308
-1.3496658
-0.97902358
-0.60838137
-0.23773916
0.13290306
0.50354527
0.87418749
1.2448297
1.6154719
1.9861141
2.3567564
2.7273986
3.0980408
3.468683
3.8393252
4.2099674
4.5806097
4.9512519
5.3218941
5.6925363
6.0631785
6.4338207
6.8044629
7.1751052
-7.2145696
-6.8526769
-6.4907843
-6.1288917
-5.7669991
-5.4051064
-5.0432138
-4.6813212
-4.3194285
-3.9575359
-3.5956433
-3.2337506
-2.871858
-2.5099654
-2.1480727
-1.7861801
-1.4242875
-1.0623949
-0.70050224
-0.3386096
0.023283026
0.38517566
0.74706829
1.1089609
1.4708536
1.8327462
2.1946388
2.5565315
2.9184241
3.2803167
3.6422094
4.004102
4.3659946
4.7278872
5.0897799
5.4516725
5.8135651
6.1754578
6.5373504
6.899243
-7.1491981
-6.796055
-6.442912
-6.0897689
-5.7366258
-5.3834828
-5.0303397
-4.6771966
-4.3240535
-3.9709105
-3.6177674
-3.2646243
-2.9114813
-2.5583382
-2.2051951
-1.8520521
-1.498909
-1.1457659
-0.79262287
-0.43947981
-0.086336746
0.26680632
0.61994939
0.97309246
1.3262355
1.6793786
2.0325217
2.3856647
2.7388078
3.0919509
3.4450939
3.798237
4.1513801
4.5045231
4.8576662
5.2108093
5.5639524
5.9170954
6.2702385
6.6233816
-7.0838268
-6.7394332
-6.3950397
-6.0506462
-5.7062527
-5.3618591
-5.0174656
-4.6730721
-4.3286786
-3.984285
-3.6398915
-3.295498
-2.9511044
-2.6067109
-2.2623174
-1.9179239
-1.5735303
-1.2291368
-0.88474329
-0.54034977
-0.19595624
0.14843729
0.49283082
0.83722435
1.1816179
1.5260114
1.8704049
2.2147985
2.559192
2.9035855
3.247979
3.5923726
3.9367661
4.2811596
4.6255531
4.9699467
5.3143402
5.6587337
6.0031273
6.3475208
-7.0184556
-6.6828116
-6.3471676
-6.0115236
-5.6758796
-5.3402356
-5.0045916
-4.6689476
-4.3333036
-3.9976595
-3.6620155
-3.3263715
-2.9907275
-2.6550835
-2.3194395
-1.9837955
-1.6481515
-1.3125075
-0.97686345
-0.64121944
-0.30557543
0.030068578
0.36571259
0.7013566
1.0370006
1.3726446
1.7082886
2.0439326
2.3795766
2.7152207
3.0508647
3.3865087
3.7221527
4.0577967
4.3934407
4.7290847
5.0647287
5.4003727
5.7360167
6.0716608
-6.9530847
-6.6261902
-6.2992956
-5.9724011
-5.6455066
-5.3186121
-4.9917176
-4.6648231
-4.3379285
-4.011034
-3.6841395
-3.357245
-3.0303505
-2.7034559
-2.3765614
-2.0496669
-1.7227724
-1.3958779
-1.0689833
-0.74208882
-0.4151943
-0.088299783
0.23859474
0.56548925
0.89238378
1.2192783
1.5461728
1.8730673
2.1999618
2.5268564
2.8537509
3.1806454
3.5075399
3.8344344
4.161329
4.4882235
4.815118
5.1420125
5.468907
5.7958016
-6.8877139
-6.5695689
-6.2514238
-5.9332788
-5.6151337
-5.2969887
-4.9788436
-4.6606986
-4.3425535
-4.0244084
-3.7062634
-3.3881183
-3.0699733
-2.7518282
-2.4336832
-2.1155381
-1.7973931
-1.479248
-1.1611029
-0.84295787
-0.52481282
-0.20666776
0.11147729
0.42962235
0.7477674
1.0659125
1.3840575
1.7022026
2.0203476
2.3384927
2.6566377
2.9747828
3.2929278
3.6110729
3.9292179
4.247363
4.5655081
4.8836531
5.2017982
5.5199432
-6.8223434
-6.5129478
-6.2035522
-5.8941566
-5.5847609
-5.2753653
-4.9659697
-4.6565741
-4.3471784
-4.0377828
-3.7283872
-3.4189916
-3.109596
-2.8002003
-2.4908047
-2.1814091
-1.8720135
-1.5626178
-1.2532222
-0.94382659
-0.63443096
-0.32503534
-0.015639713
0.29375591
0.60315153
0.91254716
1.2219428
1.5313384
1.840734
2.1501296
2.4595253
2.7689209
3.0783165
3.3877121
3.6971077
4.0065034
4.315899
4.6252946
4.9346902
5.2440859
-6.7569732
-6.4563269
-6.1556807
-5.8550345
-5.5543883
-5.2537421
-4.9530958
-4.6524496
-4.3518034
-4.0511572
-3.7505109
-3.4498647
-3.1492185
-2.8485723
-2.547926
-2.2472798
-1.9466336
-1.6459874
-1.3453412
-1.0446949
-0.74404868
-0.44340246
-0.14275624
0.15788998
0.45853621
0.75918243
1.0598286
1.3604749
1.6611211
1.9617673
2.2624135
2.5630598
2.863706
3.1643522
3.4649984
3.7656446
4.0662909
4.3669371
4.6675833
4.9682295
-6.6916031
-6.3997063
-6.1078094
-5.8159125
-5.5240157
-5.2321188
-4.940222
-4.6483251
-4.3564282
-4.0645314
-3.7726345
-3.4807377
-3.1888408
-2.8969439
-2.6050471
-2.3131502
-2.0212534
-1.7293565
-1.4374597
-1.1455628
-0.85366594
-0.5617691
-0.26987224
0.02202462
0.31392148
0.60581834
0.8977152
1.1896121
1.4815089
1.7734058
2.0653027
2.3571995
2.6490964
2.9409932
3.2328901
3.524787
3.8166838
4.1085807
4.4004775
4.6923744
-6.6262334
-6.3430859
-6.0599383
-5.7767908
-5.4936433
-5.2104957
-4.9273482
-4.6442007
-4.3610531
-4.0779056
-3.7947581
-3.5116105
-3.228463
-2.9453155
-2.6621679
-2.3790204
-2.0958729
-1.8127253
-1.5295778
-1.2464303
-0.96328273
-0.6801352
-0.39698767
-0.11384013
0.1693074
0.45245494
0.73560247
1.01875
1.3018976
1.5850451
1.8681926
2.1513402
2.4344877
2.7176352
3.0007828
3.2839303
3.5670778
3.8502254
4.1333729
4.4165204
-6.560864
-6.2864658
-6.0120675
-5.7376693
-5.463271
-5.1888728
-4.9144745
-4.6400763
-4.365678
-4.0912798
-3.8168815
-3.5424832
-3.268085
-2.9936867
-2.7192885
-2.4448902
-2.170492
-1.8960937
-1.6216955
-1.3472972
-1.072899
-0.79850073
-0.52410247
-0.24970422
0.024694034
0.29909229
0.57349054
0.84788879
1.1222871
1.3966853
1.6710836
1.9454818
2.2198801
2.4942783
2.7686766
3.0430748
3.3174731
3.5918713
3.8662696
4.1406679
-6.495495
-6.229846
-5.964197
-5.698548
-5.4328989
-5.1672499
-4.9016009
-4.6359519
-4.3703029
-4.1046538
-3.8390048
-3.5733558
-3.3077068
-3.0420578
-2.7764087
-2.5107597
-2.2451107
-1.9794617
-1.7138127
-1.4481636
-1.1825146
-0.91686561
-0.65121659
-0.38556757
-0.11991855
0.14573047
0.41137949
0.67702851
0.94267754
1.2083266
1.4739756
1.7396246
2.0052736
2.2709226
2.5365717
2.8022207
3.0678697
3.3335187
3.5991677
3.8648168
-6.4301264
-6.1732265
-5.9163267
-5.6594269
-5.402527
-5.1456272
-4.8887273
-4.6318275
-4.3749277
-4.1180278
-3.861128
-3.6042282
-3.3473283
-3.0904285
-2.8335286
-2.5766288
-2.319729
-2.0628291
-1.8059293
-1.5490295
-1.2921296
-1.0352298
-0.77832995
-0.52143011
-0.26453027
-0.0076304341
0.2492694
0.50616924
0.76306908
1.0199689
1.2768688
1.5337686
1.7906684
2.0475683
2.3044681
2.5613679
2.8182678
3.0751676
3.3320675
3.5889673
-6.3647582
-6.1166075
-5.8684567
-5.620306
-5.3721553
-5.1240046
-4.8758539
-4.6277032
-4.3795525
-4.1314017
-3.883251
-3.6351003
-3.3869496
-3.1387989
-2.8906482
-2.6424975
-2.3943467
-2.146196
-1.8980453
-1.6498946
-1.4017439
-1.1535932
-0.90544247
-0.65729175
-0.40914104
-0.16099032
0.087160389
0.3353111
0.58346182
0.83161254
1.0797633
1.327914
1.5760647
1.8242154
2.0723661
2.3205168
2.5686675
2.8168182
3.064969
3.3131197
-6.2993904
-6.0599888
-5.8205871
-5.5811855
-5.3417838
-5.1023822
-4.8629805
-4.6235789
-4.3841772
-4.1447756
-3.9053739
-3.6659723
-3.4265706
-3.1871689
-2.9477673
-2.7083656
-2.468964
-2.2295623
-1.9901607
-1.750759
-1.5113574
-1.2719557
-1.0325541
-0.7931524
-0.55375075
-0.31434909
-0.074947441
0.16445421
0.40385587
0.64325752
0.88265916
1.1220608
1.3614625
1.6008641
1.8402658
2.0796674
2.3190691
2.5584707
2.7978724
3.0372741
-6.2340232
-6.0033706
-5.7727179
-5.5420653
-5.3114126
-5.0807599
-4.8501073
-4.6194546
-4.3888019
-4.1581493
-3.9274966
-3.6968439
-3.4661913
-3.2355386
-3.0048859
-2.7742333
-2.5435806
-2.3129279
-2.0822753
-1.8516226
-1.6209699
-1.3903173
-1.1596646
-0.92901196
-0.69835928
-0.46770661
-0.23705395
-0.0064012846
0.22425138
0.45490405
0.68555671
0.91620938
1.146862
1.3775147
1.6081674
1.83882
2.0694727
2.3001254
2.530778
2.7614307
-6.1686566
-5.9467529
-5.7248491
-5.5029454
-5.2810416
-5.0591379
-4.8372341
-4.6153304
-4.3934266
-4.1715228
-3.9496191
-3.7277153
-3.5058116
-3.2839078
-3.0620041
-2.8401003
-2.6181966
-2.3962928
-2.174389
-1.9524853
-1.7305815
-1.5086778
-1.286774
-1.0648702
-0.84296649
-0.62106273
-0.39915898
-0.17725522
0.044648532
0.26655229
0.48845604
0.7103598
0.93226354
1.1541673
1.3760711
1.5979748
1.8198786
2.0417823
2.2636861
2.4855898
-6.1032907
-5.8901358
-5.6769808
-5.4638259
-5.250671
-5.037516
-4.8243611
-4.6112062
-4.3980512
-4.1848963
-3.9717414
-3.7585864
-3.5454315
-3.3322765
-3.1191216
-2.9059667
-2.6928117
-2.4796568
-2.2665019
-2.0533469
-1.840192
-1.6270371
-1.4138821
-1.2007272
-0.98757224
-0.77441729
-0.56126235
-0.34810741
-0.13495248
0.07820246
0.2913574
0.50451233
0.71766727
0.93082221
1.1439771
1.3571321
1.570287
1.7834419
1.9965969
2.2097518
-6.0379255
-5.8335193
-5.6291131
-5.4247069
-5.2203007
-5.0158945
-4.8114882
-4.607082
-4.4026758
-4.1982696
-3.9938634
-3.7894571
-3.5850509
-3.3806447
-3.1762385
-2.9718323
-2.7674261
-2.5630198
-2.3586136
-2.1542074
-1.9498012
-1.745395
-1.5409887
-1.3365825
-1.1321763
-0.92777006
-0.72336385
-0.51895763
-0.31455141
-0.11014519
0.094261026
0.29866724
0.50307346
0.70747968
0.91188588
1.1162921
1.3206983
1.5251045
1.7295107
1.933917
-5.9725612
-5.7769036
-5.5812459
-5.3855883
-5.1899307
-4.9942731
-4.7986155
-4.6029579
-4.4073003
-4.2116426
-4.015985
-3.8203274
-3.6246698
-3.4290122
-3.2333546
-3.037697
-2.8420393
-2.6463817
-2.4507241
-2.2550665
-2.0594089
-1.8637513
-1.6680937
-1.472436
-1.2767784
-1.0811208
-0.88546321
-0.6898056
-0.49414799
-0.29849038
-0.10283276
0.092824853
0.28848247
0.48414008
0.6797977
0.87545531
1.0711129
1.2667706
1.4624282
1.6580858
-5.9071978
-5.7202887
-5.5333796
-5.3464704
-5.1595613
-4.9726521
-4.785743
-4.5988338
-4.4119247
-4.2250156
-4.0381064
-3.8511973
-3.6642881
-3.477379
-3.2904699
-3.1035607
-2.9166516
-2.7297424
-2.5428333
-2.3559241
-2.169015
-1.9821059
-1.7951967
-1.6082876
-1.4213784
-1.2344693
-1.0475602
-0.86065103
-0.67374189
-0.48683274
-0.2999236
-0.11301446
0.07389468
0.26080382
0.44771296
0.6346221
0.82153126
1.0084404
1.1953495
1.3822587
-5.8418356
-5.6636748
-5.485514
-5.3073532
-5.1291923
-4.9510315
-4.7728707
-4.5947099
-4.4165491
-4.2383882
-4.0602274
-3.8820666
-3.7039058
-3.525745
-3.3475842
-3.1694233
-2.9912625
-2.8131017
-2.6349409
-2.4567801
-2.2786192
-2.1004584
-1.9222976
-1.7441368
-1.565976
-1.3878151
-1.2096543
-1.0314935
-0.85333269
-0.67517188
-0.49701106
-0.31885025
-0.14068943
0.037471391
0.21563221
0.39379303
0.57195385
0.75011467
0.92827548
1.1064363
-5.7764747
-5.607062
-5.4376494
-5.2682367
-5.098824
-4.9294113
-4.7599987
-4.590586
-4.4211733
-4.2517607
-4.082348
-3.9129353
-3.7435227
-3.57411
-3.4046973
-3.2352847
-3.065872
-2.8964593
-2.7270466
-2.557634
-2.3882213
-2.2188086
-2.049396
-1.8799833
-1.7105706
-1.541158
-1.3717453
-1.2023326
-1.03292
-0.8635073
-0.69409462
-0.52468195
-0.35526928
-0.18585662
-0.016443946
0.15296872
0.32238139
0.49179406
0.66120673
0.83061941
-5.7111153
-5.5504506
-5.3897858
-5.2291211
-5.0684564
-4.9077917
-4.7471269
-4.5864622
-4.4257975
-4.2651328
-4.1044681
-3.9438033
-3.7831386
-3.6224739
-3.4618092
-3.3011445
-3.1404797
-2.979815
-2.8191503
-2.6584856
-2.4978208
-2.3371561
-2.1764914
-2.0158267
-1.855162
-1.6944972
-1.5338325
-1.3731678
-1.2125031
-1.0518384
-0.89117363
-0.73050892
-0.5698442
-0.40917947
-0.24851475
-0.087850033
0.072814688
0.23347941
0.39414413
0.55480885
-5.6457576
-5.4938406
-5.3419236
-5.1900066
-5.0380896
-4.8861726
-4.7342556
-4.5823386
-4.4304215
-4.2785045
-4.1265875
-3.9746705
-3.8227535
-3.6708365
-3.5189195
-3.3670025
-3.2150855
-3.0631685
-2.9112514
-2.7593344
-2.6074174
-2.4555004
-2.3035834
-2.1516664
-1.9997494
-1.8478324
-1.6959154
-1.5439984
-1.3920814
-1.2401643
-1.0882473
-0.93633033
-0.78441331
-0.6324963
-0.48057929
-0.32866228
-0.17674527
-0.024828261
0.12708875
0.27900576
-5.5804021
-5.4372325
-5.2940629
-5.1508933
-5.0077237
-4.8645542
-4.7213846
-4.578215
-4.4350454
-4.2918759
-4.1487063
-4.0055367
-3.8623671
-3.7191975
-3.576028
-3.4328584
-3.2896888
-3.1465192
-3.0033497
-2.8601801
-2.7170105
-2.5738409
-2.4306713
-2.2875018
-2.1443322
-2.0011626
-1.857993
-1.7148235
-1.5716539
-1.4284843
-1.2853147
-1.1421451
-0.99897555
-0.85580598
-0.7126364
-0.56946682
-0.42629725
-0.28312767
-0.13995809
0.0032114877
-5.515049
-5.3806265
-5.246204
-5.1117816
-4.9773591
-4.8429366
-4.7085141
-4.5740916
-4.4396692
-4.3052467
-4.1708242
-4.0364017
-3.9019792
-3.7675567
-3.6331343
-3.4987118
-3.3642893
-3.2298668
-3.0954443
-2.9610219
-2.8265994
-2.6921769