/*--------------------------------*- C++ -*----------------------------------*\
  =========                 |
  \\      /  F ield         | OpenFOAM: The Open Source CFD Toolbox
   \\    /   O peration     | Website:  https://openfoam.org
    \\  /    A nd           | Version:  10
     \\/     M anipulation  |
\*---------------------------------------------------------------------------*/
FoamFile
{
    format      ascii;
    class       volScalarField;
    location    "0.301433";
    object      rho;
}
// * * * * * * * * * * * * * * * * * * * * * * * * * * * * * * * * * * * * * //

dimensions      [1 -3 0 0 0 0 0];

internalField   nonuniform List<scalar> 
15984
(
1.0349
1.03145
1.02748
1.02304
1.01848
1.01362
1.00908
1.00455
1.00039
0.996707
0.993374
0.990745
0.988706
0.987251
0.986604
0.986448
0.986783
0.987544
0.988737
0.989802
0.991118
0.991858
0.992604
0.992761
0.992608
0.991855
0.990824
0.989234
0.987432
0.985232
0.982938
0.980431
0.977909
0.975446
0.973087
0.970911
0.969014
0.96743
0.96617
0.965435
0.965086
0.96533
0.966234
0.96756
0.969722
0.972495
0.975952
0.980119
0.984892
0.990146
0.996128
1.00184
1.00839
1.01415
1.03726
1.03362
1.02934
1.02448
1.01967
1.01444
1.0096
1.00482
1.00024
0.996141
0.992518
0.989423
0.986949
0.985215
0.98407
0.983612
0.983713
0.984276
0.985174
0.986381
0.987612
0.988726
0.989553
0.990173
0.990207
0.990051
0.989261
0.98822
0.986784
0.984948
0.983053
0.980818
0.978667
0.976476
0.974289
0.972435
0.970617
0.96923
0.96808
0.967355
0.967149
0.967304
0.968062
0.969337
0.971287
0.973762
0.977076
0.980863
0.985348
0.990348
0.995883
1.00158
1.00763
1.01358
1.03914
1.03528
1.03055
1.02561
1.02044
1.0151
1.00983
1.00487
1.00004
0.995468
0.991656
0.988136
0.985254
0.983147
0.981644
0.980811
0.98066
0.98095
0.981646
0.98281
0.983938
0.985347
0.986247
0.987278
0.987628
0.987786
0.987577
0.986814
0.985835
0.984506
0.982893
0.981241
0.979291
0.97748
0.975691
0.973937
0.972559
0.971129
0.970316
0.969718
0.969403
0.969721
0.970327
0.971614
0.973286
0.975719
0.978523
0.982166
0.986142
0.9909
0.995883
1.00138
1.0071
1.0128
1.04051
1.03647
1.03143
1.02645
1.02087
1.01555
1.00997
1.00473
0.999662
0.994931
0.990615
0.986917
0.983619
0.981174
0.97929
0.978084
0.977577
0.977612
0.978148
0.979028
0.980321
0.981588
0.982826
0.984002
0.984744
0.985349
0.98537
0.985224
0.984651
0.983737
0.982691
0.981303
0.979932
0.978452
0.976956
0.975674
0.974365
0.973377
0.972678
0.972223
0.972133
0.972352
0.973099
0.974199
0.975835
0.977876
0.980634
0.983659
0.987437
0.991641
0.996256
1.00126
1.00665
1.01188
1.04146
1.03713
1.03207
1.02686
1.02121
1.01566
1.01001
1.00443
0.999275
0.994301
0.989598
0.985616
0.982183
0.979084
0.977063
0.975414
0.974619
0.974334
0.974588
0.97537
0.976466
0.977795
0.979249
0.980399
0.981704
0.982436
0.983084
0.983257
0.983176
0.98278
0.982133
0.981328
0.980327
0.979248
0.978283
0.977265
0.976375
0.975684
0.97526
0.974926
0.975036
0.97536
0.976105
0.977176
0.978641
0.9806
0.982895
0.98569
0.989071
0.992614
0.996842
1.00138
1.0061
1.01107
1.04195
1.03743
1.03243
1.0269
1.02137
1.01546
1.00985
1.00411
0.998641
0.993538
0.988659
0.984382
0.980523
0.977351
0.974706
0.972946
0.971655
0.971115
0.97114
0.971634
0.972552
0.973909
0.975323
0.976856
0.978158
0.97945
0.98039
0.981004
0.98147
0.981478
0.981399
0.981078
0.980601
0.980071
0.979455
0.978864
0.978466
0.978013
0.977915
0.977887
0.978107
0.978649
0.979388
0.980407
0.981825
0.983496
0.985651
0.987941
0.990902
0.994031
0.997607
1.00162
1.00565
1.01041
1.042
1.03748
1.03226
1.02686
1.02099
1.01524
1.00939
1.00364
0.997954
0.99271
0.987745
0.982992
0.979047
0.975541
0.9726
0.970415
0.968846
0.967984
0.967698
0.967939
0.968776
0.969826
0.971483
0.972986
0.974596
0.976149
0.977346
0.978621
0.979331
0.980063
0.980393
0.980625
0.980699
0.98062
0.980545
0.980481
0.980424
0.980516
0.980583
0.980961
0.981406
0.982026
0.982862
0.983942
0.985196
0.986731
0.988547
0.990566
0.993049
0.995565
0.998711
1.00182
1.00556
1.00917
1.04159
1.03715
1.03174
1.02645
1.0205
1.01471
1.00883
1.00296
0.997261
0.991824
0.986653
0.981814
0.977575
0.973743
0.970596
0.967912
0.966171
0.96487
0.964346
0.964378
0.964876
0.966011
0.967327
0.969057
0.970896
0.972512
0.974326
0.975765
0.977129
0.97827
0.979155
0.980002
0.980586
0.981093
0.981586
0.981953
0.982416
0.982889
0.98342
0.984055
0.984724
0.98558
0.986492
0.987557
0.988749
0.99018
0.991625
0.99342
0.995257
0.997409
0.999882
1.00236
1.00528
1.00833
1.04103
1.03618
1.03127
1.02554
1.01989
1.01404
1.00801
1.00222
0.996414
0.990852
0.985502
0.98063
0.975967
0.972038
0.968509
0.965645
0.963481
0.961864
0.961088
0.960828
0.961142
0.962009
0.963361
0.96509
0.96688
0.968982
0.970981
0.972838
0.974615
0.9763
0.977755
0.979102
0.98035
0.981376
0.982441
0.983371
0.984341
0.985212
0.986183
0.987144
0.988111
0.989132
0.990189
0.991288
0.992466
0.993649
0.994957
0.996271
0.997804
0.999408
1.00109
1.00308
1.00522
1.00755
1.03966
1.03536
1.03008
1.02476
1.01885
1.01309
1.00721
1.00111
0.995507
0.989716
0.984369
0.979186
0.97452
0.970228
0.966516
0.96339
0.96083
0.959092
0.957821
0.957402
0.957501
0.958102
0.959386
0.961079
0.963008
0.965259
0.967426
0.969785
0.971974
0.974112
0.97619
0.978064
0.979857
0.981521
0.983158
0.984634
0.986134
0.987509
0.98886
0.990201
0.991461
0.992683
0.993878
0.995055
0.996136
0.99725
0.998257
0.999378
1.00033
1.00149
1.00261
1.00382
1.00525
1.00675
1.03845
1.03397
1.02872
1.02343
1.01773
1.01186
1.00605
1.00012
0.994179
0.988586
0.983004
0.977826
0.972953
0.968396
0.964524
0.961042
0.958393
0.95616
0.954732
0.954056
0.953899
0.954334
0.955409
0.957092
0.959124
0.961442
0.964046
0.966527
0.969265
0.971789
0.974438
0.97687
0.979255
0.981512
0.983711
0.98576
0.987777
0.989678
0.991429
0.993151
0.994707
0.996167
0.997513
0.998725
0.999836
1.00078
1.00165
1.00238
1.00305
1.00363
1.00419
1.00473
1.00538
1.00617
1.03662
1.03234
1.02709
1.02198
1.01622
1.01062
1.00469
0.99878
0.992958
0.987196
0.981636
0.976249
0.971199
0.966662
0.962359
0.958902
0.955674
0.953451
0.951674
0.950685
0.950392
0.950682
0.951603
0.953175
0.955268
0.957739
0.96044
0.963399
0.966384
0.969472
0.972545
0.97556
0.978525
0.981351
0.98413
0.986749
0.989321
0.991657
0.993896
0.995978
0.997802
0.999532
1.00101
1.00234
1.00341
1.0043
1.00497
1.00543
1.00576
1.00587
1.00591
1.00571
1.00564
1.00558
1.03457
1.03034
1.02531
1.02022
1.01452
1.00907
1.003
0.997369
0.99136
0.985669
0.980026
0.974633
0.969447
0.964638
0.960436
0.956299
0.953523
0.950411
0.948843
0.94737
0.946884
0.94705
0.947836
0.949409
0.951476
0.954115
0.956963
0.960217
0.963547
0.967104
0.970611
0.974183
0.977683
0.981083
0.984396
0.987618
0.990603
0.993518
0.996121
0.998601
1.00073
1.0027
1.00435
1.00577
1.00685
1.00769
1.00821
1.00845
1.00845
1.0082
1.00754
1.00698
1.00604
1.00513
1.03233
1.02804
1.02323
1.01814
1.0127
1.00707
1.0014
0.995498
0.989733
0.983959
0.978251
0.972789
0.967293
0.963094
0.957243
0.95497
0.949949
0.948357
0.945067
0.944317
0.943421
0.943521
0.944185
0.945731
0.947842
0.950564
0.953691
0.957145
0.960843
0.964771
0.968682
0.972787
0.976778
0.980728
0.984607
0.988262
0.991844
0.995088
0.998214
1.00096
1.00346
1.00562
1.00747
1.00899
1.01014
1.01093
1.01132
1.01141
1.01114
1.01048
1.00942
1.00812
1.00644
1.00489
1.02974
1.02562
1.02089
1.01582
1.01054
1.0051
0.999232
0.993718
0.987723
0.982009
0.976335
0.970625
0.965728
0.959743
0.956593
0.950757
0.948366
0.944221
0.942483
0.940986
0.940122
0.940001
0.940647
0.942003
0.944356
0.947175
0.950449
0.954205
0.95814
0.962489
0.966863
0.971434
0.97585
0.980352
0.984637
0.988874
0.992793
0.99652
1.00004
1.00306
1.00597
1.00824
1.01035
1.01196
1.01322
1.01398
1.01429
1.01425
1.01376
1.01276
1.01114
1.00947
1.00662
1.00477
1.02715
1.02286
1.01835
1.01332
1.0082
1.00267
0.997156
0.991383
0.985591
0.979942
0.974086
0.968563
0.962753
0.958656
0.951867
0.949679
0.944143
0.941967
0.939102
0.937382
0.936586
0.936508
0.937059
0.938595
0.940939
0.943887
0.947429
0.95143
0.955715
0.960388
0.965148
0.970104
0.974979
0.979915
0.984653
0.989355
0.993655
0.997782
1.00159
1.00498
1.00814
1.01063
1.01294
1.01468
1.01602
1.01677
1.01711
1.01693
1.01625
1.01489
1.01297
1.01043
1.0068
1.0044
1.02404
1.0202
1.01542
1.01072
1.00557
1.00018
0.994784
0.988954
0.983227
0.977578
0.971645
0.96589
0.960881
0.954411
0.95114
0.944757
0.942093
0.93779
0.935663
0.933879
0.93285
0.932797
0.933396
0.935125
0.937571
0.940837
0.944594
0.948831
0.95344
0.958442
0.963634
0.968905
0.974224
0.979529
0.984617
0.989706
0.994366
0.998846
1.00291
1.00662
1.00999
1.01272
1.01523
1.01709
1.01853
1.0193
1.01976
1.01935
1.01859
1.01686
1.0145
1.01065
1.00786
1.00619
1.02124
1.01697
1.01262
1.00797
1.00279
0.997601
0.992081
0.986401
0.980652
0.974901
0.968993
0.963503
0.957084
0.952955
0.946132
0.942368
0.938114
0.93438
0.931859
0.929931
0.929096
0.929145
0.929909
0.931799
0.934456
0.937854
0.94195
0.94652
0.951477
0.956728
0.962252
0.967842
0.973515
0.979128
0.984644
0.98994
0.995009
0.999658
1.00405
1.00799
1.01158
1.01451
1.01723
1.01918
1.02075
1.02158
1.02211
1.02152
1.02053
1.01816
1.01559
1.01236
1.01304
1.01494
1.01794
1.01402
1.0096
1.00502
0.999888
0.994747
0.989266
0.983725
0.977952
0.971838
0.96645
0.959655
0.954934
0.947825
0.943548
0.938389
0.933894
0.930185
0.927591
0.925619
0.924696
0.924946
0.925972
0.928371
0.931473
0.935185
0.939521
0.944445
0.949801
0.955447
0.961278
0.967167
0.973092
0.97896
0.984671
0.990195
0.995505
1.00037
1.00495
1.00907
1.01285
1.01601
1.01883
1.02093
1.02274
1.02348
1.02409
1.02336
1.02166
1.01964
1.01893
1.01699
1.03759
1.05482
1.01489
1.01088
1.00658
1.00209
0.996773
0.992011
0.986268
0.980906
0.974636
0.96937
0.962754
0.956812
0.949738
0.945549
0.93763
0.934051
0.929013
0.9248
0.922603
0.920525
0.920009
0.920343
0.922102
0.924548
0.928055
0.932272
0.937053
0.942359
0.948091
0.954093
0.960247
0.966441
0.972631
0.978758
0.984692
0.99039
0.995881
1.0009
1.00569
1.00991
1.01389
1.01721
1.02018
1.02229
1.02441
1.02494
1.02551
1.02405
1.02326
1.02209
1.03016
1.04335
1.12415
1.31494
1.01104
1.00814
1.00359
0.999161
0.993648
0.989658
0.982394
0.978827
0.970513
0.966708
0.958172
0.952686
0.947564
0.940084
0.934808
0.929753
0.924946
0.919862
0.917048
0.914837
0.914175
0.914753
0.917263
0.92078
0.92519
0.930096
0.935408
0.941089
0.947129
0.953394
0.95977
0.966195
0.972537
0.978786
0.98482
0.990654
0.996178
1.00139
1.00615
1.01055
1.01461
1.01806
1.0211
1.02342
1.02549
1.026
1.02602
1.02544
1.02617
1.03102
1.06897
1.17253
1.4914
1.78091
1.00827
1.00512
1.00057
0.996366
0.990617
0.986647
0.979377
0.975502
0.96699
0.963377
0.954211
0.952491
0.943011
0.939867
0.936595
0.933829
0.927555
0.922499
0.915405
0.911331
0.909108
0.90932
0.911506
0.915775
0.921
0.926871
0.933064
0.939473
0.946077
0.95281
0.959468
0.966041
0.972517
0.978862
0.984981
0.990882
0.996449
1.00169
1.00651
1.011
1.01509
1.01868
1.02165
1.02431
1.02564
1.02639
1.02653
1.028
1.0351
1.07166
1.22007
1.64805
1.8886
1.97684
1.00562
1.0025
0.99728
0.994011
0.987202
0.983914
0.975921
0.972126
0.963523
0.962281
0.952622
0.960711
0.951905
0.966873
0.982723
0.994554
0.987444
0.969723
0.948245
0.92901
0.913231
0.905418
0.907036
0.911213
0.917226
0.923987
0.931101
0.938187
0.945216
0.952313
0.95927
0.966068
0.972672
0.979068
0.985172
0.991075
0.996625
1.00189
1.00672
1.01121
1.01532
1.01891
1.02192
1.02426
1.02529
1.02641
1.02849
1.03507
1.07072
1.23802
1.70373
1.96653
2.02729
2.02313
1.00307
0.999732
0.994935
0.991101
0.984725
0.980425
0.972722
0.970255
0.961419
0.973682
0.961778
1.00569
1.0644
1.12923
1.23322
1.30351
1.28089
1.25753
1.1732
1.03265
0.952229
0.923019
0.906903
0.906312
0.912535
0.92053
0.928799
0.936818
0.944654
0.952111
0.959321
0.966275
0.972938
0.979308
0.985396
0.991269
0.996792
1.00194
1.0068
1.01127
1.01529
1.01885
1.02168
1.02317
1.02505
1.02759
1.03382
1.06265
1.2181
1.72449
2.00433
2.05124
2.04834
2.03321
1.0007
0.997361
0.992452
0.98837
0.981883
0.977844
0.970973
0.9751
0.974705
1.02142
1.10785
1.26704
1.46264
1.59158
1.66788
1.68501
1.66476
1.59648
1.57255
1.39709
1.17658
0.983249
0.924233
0.911561
0.912738
0.919104
0.92718
0.935777
0.944228
0.952173
0.959614
0.966684
0.973362
0.979673
0.985673
0.991493
0.99693
1.00201
1.00679
1.01107
1.01506
1.01835
1.02018
1.02267
1.02552
1.03185
1.0533
1.17437
1.69384
2.01522
2.06557
2.06459
2.05479
2.03982
0.998562
0.995234
0.989861
0.985662
0.97956
0.979506
0.97882
1.01687
1.09895
1.31438
1.55614
1.70899
1.77533
1.79021
1.77626
1.75054
1.72517
1.68491
1.66977
1.57068
1.49838
1.14655
0.971551
0.914552
0.90799
0.915495
0.925108
0.934696
0.94383
0.952263
0.960011
0.967159
0.973807
0.980039
0.985967
0.991638
0.996991
1.00192
1.00655
1.01077
1.01436
1.01667
1.01931
1.02256
1.02929
1.04614
1.13412
1.59118
2.00908
2.0707
2.07289
2.06745
2.05887
2.0481
0.996619
0.992885
0.987388
0.984219
0.981729
1.00412
1.04543
1.24385
1.55632
1.7479
1.82124
1.83373
1.81809
1.79195
1.76316
1.72472
1.65685
1.62496
1.61863
1.58879
1.57168
1.34867
1.0636
0.943647
0.914315
0.914874
0.923678
0.933853
0.943515
0.952323
0.960301
0.96755
0.974161
0.980343
0.9862
0.991807
0.996994
1.00184
1.00624
1.01001
1.01291
1.01523
1.01923
1.02636
1.04243
1.10609
1.46802
1.97631
2.07082
2.0759
2.07372
2.06831
2.06149
2.052
0.994509
0.989898
0.98697
0.98989
1.02041
1.11687
1.47944
1.73305
1.84426
1.86359
1.85071
1.82858
1.80091
1.76563
1.71928
1.64618
1.49518
1.44525
1.47675
1.53495
1.52026
1.41419
1.149
0.980054
0.923294
0.915122
0.922844
0.933443
0.94359
0.952693
0.960801
0.968008
0.97458
0.980672
0.986492
0.991958
0.997005
1.0016
1.00558
1.00872
1.011
1.01546
1.02352
1.04152
1.09892
1.37294
1.9458
2.06628
2.07474
2.07567
2.07348
2.06901
2.06193
2.05287
0.991666
0.989085
0.994595
1.04182
1.25106
1.63925
1.84671
1.8905
1.88002
1.85968
1.83683
1.80875
1.77327
1.72273
1.64536
1.5347
1.30034
1.22861
1.27411
1.42372
1.46285
1.37914
1.13366
0.971397
0.920794
0.914267
0.922568
0.933541
0.943975
0.953216
0.961287
0.968468
0.974925
0.981037
0.986722
0.992058
0.996882
1.00108
1.0043
1.00676
1.01134
1.02039
1.04567
1.11671
1.4921
1.96434
2.05439
2.07131
2.07445
2.07456
2.07249
2.06853
2.06282
2.05375
0.991751
0.999265
1.05885
1.41263
1.81443
1.91544
1.90554
1.88784
1.86873
1.84644
1.81976
1.78707
1.74043
1.66872
1.55779
1.39353
1.12027
1.04692
1.10496
1.31252
1.39404
1.34243
1.11907
0.96793
0.919171
0.913732
0.922849
0.934177
0.944724
0.953873
0.961868
0.968814
0.975299
0.981365
0.987019
0.992098
0.996529
0.999875
1.00247
1.00698
1.0168
1.05735
1.16967
1.59403
1.94161
2.04312
2.06574
2.07208
2.07422
2.07409
2.07201
2.06834
2.06303
2.05579
1.00955
1.10855
1.72011
1.93102
1.92744
1.91221
1.8948
1.87751
1.85682
1.83265
1.80381
1.76283
1.69955
1.59891
1.44626
1.2286
0.995794
0.947247
1.05229
1.25345
1.31008
1.21988
1.02524
0.93388
0.9111
0.913454
0.924071
0.935529
0.945763
0.954709
0.962401
0.969236
0.975659
0.981726
0.987125
0.991918
0.995558
0.99807
1.00235
1.01562
1.077
1.28135
1.69037
1.93313
2.03156
2.05755
2.06648
2.0711
2.07225
2.07207
2.07031
2.06769
2.06286
2.05642
1.76041
1.87155
1.93149
1.93456
1.91869
1.90187
1.88631
1.86777
1.8451
1.81902
1.78526
1.73332
1.65185
1.52077
1.33152
1.09344
0.932161
0.917348
1.04203
1.15355
1.16621
1.06591
0.953702
0.913723
0.907357
0.91486
0.926334
0.937282
0.947006
0.955355
0.962851
0.96972
0.976148
0.98202
0.987109
0.991161
0.993677
0.998367
1.02008
1.14403
1.50766
1.77659
1.94381
2.02244
2.04945
2.06013
2.0665
2.06987
2.07101
2.07084
2.06895
2.06618
2.06149
2.05576
1.93125
1.94187
1.93636
1.92283
1.90893
1.89415
1.87795
1.85797
1.83489
1.80731
1.76806
1.70729
1.60796
1.44829
1.22754
0.994519
0.909918
0.912703
0.994441
1.03702
1.02784
0.962389
0.91568
0.904259
0.908061
0.917862
0.929083
0.939503
0.94835
0.956346
0.96353
0.970221
0.97657
0.982192
0.986215
0.989826
0.996821
1.03941
1.24837
1.63699
1.84869
1.96119
2.01671
2.04178
2.05334
2.06084
2.06602
2.06873
2.06962
2.06952
2.0677
2.06511
2.06048
2.0545
1.94359
1.93712
1.92483
1.91477
1.90021
1.88628
1.86957
1.84952
1.82623
1.79662
1.75281
1.68384
1.57032
1.39167
1.14946
0.944729
0.895857
0.899123
0.936319
0.954582
0.942174
0.913138
0.900411
0.903236
0.910504
0.921825
0.932473
0.941367
0.949733
0.957334
0.964298
0.970978
0.976936
0.981263
0.986352
0.995801
1.05064
1.31583
1.7166
1.89255
1.97392
2.01373
2.03489
2.04676
2.05501
2.06086
2.06531
2.06756
2.06829
2.06808
2.06669
2.06347
2.05952
2.05342
1.93696
1.92603
1.9178
1.90567
1.89296
1.87891
1.86219
1.84251
1.81872
1.78675
1.73867
1.66291
1.54036
1.35474
1.11057
0.927102
0.886833
0.886759
0.901844
0.911199
0.90489
0.896045
0.899057
0.905014
0.916306
0.926004
0.935143
0.943436
0.951302
0.958513
0.965321
0.971676
0.976572
0.982309
0.992763
1.04707
1.31102
1.73193
1.91279
1.97975
2.01059
2.0287
2.04049
2.04938
2.05574
2.06089
2.0645
2.06627
2.06694
2.06644
2.06511
2.06162
2.05743
2.05113
1.92655
1.91951
1.90862
1.89834
1.88613
1.87252
1.85592
1.83644
1.81179
1.77731
1.72495
1.64407
1.51777
1.33415
1.09845
0.923952
0.884226
0.882019
0.888037
0.894473
0.892462
0.895635
0.901871
0.912454
0.91995
0.930173
0.93758
0.945922
0.953028
0.959932
0.966436
0.971869
0.977596
0.98703
1.02682
1.23022
1.67545
1.90503
1.97821
2.00632
2.02212
2.0338
2.04323
2.05046
2.05647
2.06071
2.0635
2.06506
2.06539
2.06453
2.0628
2.05947
2.05462
2.04826
1.91885
1.91099
1.90142
1.89156
1.88046
1.86693
1.85096
1.8313
1.80523
1.76723
1.71032
1.62446
1.49628
1.31841
1.09754
0.929568
0.887243
0.883378
0.886348
0.89063
0.895434
0.900108
0.910384
0.915524
0.926399
0.932907
0.941226
0.94835
0.954884
0.961501
0.967289
0.972672
0.980255
1.00213
1.11014
1.47482
1.84017
1.96467
1.99949
2.01551
2.02736
2.03718
2.04536
2.05181
2.05676
2.06027
2.06251
2.06354
2.0634
2.06195
2.06017
2.05575
2.05104
2.04393
1.91101
1.90344
1.89487
1.88591
1.87545
1.8626
1.84715
1.82724
1.79924
1.75778
1.69663
1.60752
1.48175
1.31554
1.1143
0.942755
0.894626
0.887651
0.89009
0.894548
0.900586
0.908027
0.913524
0.923483
0.929929
0.936827
0.944089
0.950698
0.957164
0.963378
0.968161
0.974774
0.986062
1.03172
1.2096
1.65167
1.9138
1.98663
2.00823
2.02101
2.03105
2.03951
2.04697
2.05261
2.05676
2.05958
2.06125
2.06166
2.06079
2.05927
2.05572
2.05208
2.04529
2.03798
1.90358
1.89674
1.88921
1.88133
1.87136
1.85946
1.84435
1.82342
1.79276
1.74679
1.67976
1.58558
1.46034
1.30555
1.12758
0.95886
0.907078
0.893586
0.897165
0.900446
0.907529
0.913292
0.922046
0.926211
0.934468
0.940555
0.947916
0.95397
0.959371
0.964501
0.970515
0.978197
0.997896
1.07389
1.35788
1.77907
1.95534
1.9978
2.01409
2.02552
2.034
2.04205
2.04858
2.05333
2.05664
2.05887
2.05958
2.05909
2.05797
2.05532
2.05132
2.04638
2.03875
2.03019
1.89684
1.89088
1.88455
1.87758
1.86866
1.85784
1.84304
1.82142
1.78833
1.73802
1.66493
1.56494
1.43808
1.29178
1.135
0.9853
0.908262
0.905858
0.902884
0.90828
0.913
0.921335
0.924178
0.933068
0.938612
0.945098
0.950745
0.955842
0.961413
0.967429
0.974398
0.986936
1.02788
1.17133
1.57927
1.88404
1.98009
2.00668
2.01998
2.02918
2.03728
2.04459
2.04976
2.05356
2.05636
2.05755
2.05752
2.05662
2.05419
2.05101
2.04521
2.04004
2.0306
2.02078
1.89085
1.88598
1.8808
1.87484
1.86734
1.85765
1.84364
1.82198
1.78714
1.73266
1.65296
1.54587
1.41415
1.26986
1.12538
0.991668
0.926314
0.910116
0.911127
0.913509
0.920412
0.923254
0.931419
0.936724
0.942715
0.948087
0.953721
0.959588
0.966012
0.972562
0.982125
1.01082
1.10037
1.41293
1.78452
1.94979
1.99638
2.01378
2.0252
2.03321
2.0409
2.0469
2.05111
2.05431
2.0559
2.05625
2.05575
2.05355
2.04981
2.04575
2.0386
2.03207
2.02042
2.00922
1.88571
1.88204
1.87791
1.87332
1.8674
1.85913
1.84635
1.82557
1.79083
1.73471
1.65
1.53484
1.3963
1.25207
1.1186
1.00473
0.92737
0.922986
0.916118
0.921154
0.92382
0.931452
0.934756
0.941881
0.946469
0.952123
0.958477
0.964554
0.971276
0.985139
1.01997
1.1059
1.37443
1.69336
1.92931
1.97399
2.00842
2.02083
2.03059
2.03758
2.04462
2.04889
2.05272
2.05478
2.05552
2.05484
2.0534
2.04968
2.04588
2.03947
2.03159
2.02263
2.00965
1.9954
1.88154
1.8788
1.87586
1.87295
1.86867
1.86227
1.8516
1.83278
1.79929
1.74334
1.65717
1.53721
1.39152
1.23818
1.09897
0.991601
0.944065
0.923796
0.92688
0.924999
0.931045
0.933367
0.940355
0.945746
0.952045
0.958533
0.966577
0.98071
1.0089
1.04564
1.14254
1.42051
1.7005
1.86739
1.97874
1.99751
2.01768
2.02799
2.03616
2.04306
2.04832
2.05205
2.05459
2.05549
2.05517
2.05385
2.05102
2.04619
2.04136
2.03281
2.02457
2.01181
1.99824
1.98019
1.87808
1.87636
1.87459
1.87333
1.87095
1.86699
1.86011
1.84756
1.82394
1.77921
1.7009
1.58065
1.42328
1.25116
1.09712
0.98038
0.949681
0.930247
0.936161
0.934156
0.935706
0.94186
0.947042
0.953384
0.961072
0.972743
0.992964
1.0292
1.08336
1.33595
1.5298
1.71154
1.87445
1.96438
1.99835
2.01438
2.02753
2.03574
2.04318
2.04877
2.05287
2.05574
2.05685
2.05677
2.0555
2.05318
2.0486
2.04331
2.03619
2.02702
2.01593
2.00203
1.98473
1.96474
1.87538
1.87478
1.87418
1.87413
1.87336
1.87141
1.8674
1.8594
1.84361
1.81296
1.7562
1.65977
1.51647
1.33679
1.15059
1.01586
0.942653
0.946971
0.947228
0.942158
0.94469
0.949614
0.956405
0.965949
0.985609
1.02054
1.09021
1.25015
1.56939
1.59419
1.81279
1.87071
1.96792
1.99456
2.01553
2.02745
2.0379
2.04468
2.05043
2.05544
2.05842
2.05982
2.06009
2.0588
2.05632
2.05283
2.04676
2.04044
2.0316
2.02101
2.0077
1.99157
1.97147
1.94799
1.87366
1.87389
1.87458
1.87559
1.87625
1.87609
1.8746
1.87046
1.86177
1.84456
1.81048
1.74752
1.64249
1.49122
1.30732
1.12137
1.01984
0.948809
0.96448
0.961555
0.961941
0.97164
0.985151
1.02273
1.0936
1.25131
1.46825
1.64011
1.75811
1.83619
1.92716
1.96497
2.00106
2.0163
2.03014
2.0407
2.04825
2.05395
2.05921
2.06267
2.0644
2.06477
2.06413
2.06153
2.05775
2.05302
2.0455
2.03823
2.02744
2.0155
2.00006
1.98147
1.9581
1.93254
1.87269
1.87386
1.87547
1.87757
1.87937
1.88062
1.88114
1.88
1.87614
1.86781
1.85091
1.81848
1.75948
1.6633
1.52789
1.36606
1.20272
1.09317
1.03085
1.02711
1.04143
1.05494
1.12445
1.28058
1.47073
1.63067
1.75088
1.8543
1.8793
1.95054
1.97941
2.00422
2.02102
2.03369
2.04506
2.05227
2.05901
2.06394
2.06818
2.07046
2.07106
2.07048
2.06847
2.06465
2.05943
2.05338
2.0444
2.03592
2.02334
2.01056
1.99232
1.97254
1.946
1.91711
1.87255
1.87457
1.87707
1.8802
1.88303
1.88539
1.88736
1.8883
1.88787
1.88488
1.87797
1.86409
1.83794
1.79209
1.72081
1.62486
1.51761
1.42115
1.33122
1.34754
1.33999
1.38896
1.51634
1.66416
1.76748
1.86089
1.88036
1.94092
1.95876
1.99355
2.01058
2.02614
2.03896
2.04949
2.05722
2.06434
2.06966
2.0741
2.07705
2.07813
2.07783
2.07613
2.07273
2.0679
2.06114
2.05397
2.04333
2.03375
2.01966
2.00505
1.98631
1.96346
1.93553
1.90481
1.87315
1.87584
1.87927
1.88313
1.88685
1.89019
1.89332
1.89566
1.89737
1.89783
1.89619
1.89174
1.88282
1.8661
1.83794
1.79761
1.74777
1.69704
1.67665
1.66906
1.67867
1.71672
1.79745
1.88096
1.90009
1.94001
1.95568
1.98437
2.00078
2.01825
2.03181
2.0441
2.0537
2.06173
2.06942
2.07535
2.0795
2.08336
2.08504
2.0854
2.08405
2.08169
2.07659
2.07083
2.0621
2.05347
2.04133
2.02991
2.01421
1.99884
1.97969
1.95394
1.92926
1.89255
1.8743
1.8777
1.88177
1.88651
1.89081
1.89497
1.89897
1.90252
1.90563
1.90785
1.90919
1.9094
1.90803
1.90421
1.89668
1.88512
1.87036
1.85652
1.85326
1.85561
1.86677
1.89087
1.92294
1.94872
1.96225
1.98071
1.99571
2.01157
2.02486
2.03762
2.04862
2.05807
2.0663
2.07367
2.07993
2.08442
2.08826
2.09095
2.09188
2.09149
2.0892
2.08541
2.07908
2.072
2.0616
2.05139
2.03746
2.02375
2.00699
1.99057
1.96715
1.95474
1.91451
1.89485
1.87617
1.88021
1.88469
1.88998
1.89482
1.89963
1.90434
1.90871
1.91278
1.91629
1.91927
1.92182
1.92385
1.92488
1.92503
1.92442
1.9238
1.92441
1.92615
1.93357
1.94311
1.95583
1.96959
1.98323
1.99402
2.00681
2.01912
2.03134
2.04251
2.05307
2.0614
2.0694
2.07664
2.08286
2.08807
2.09197
2.09549
2.09715
2.09733
2.09627
2.09296
2.08849
2.08019
2.07204
2.05943
2.04685
2.03071
2.01372
1.99444
1.97594
1.95777
1.94003
1.91747
1.88528
1.87872
1.8833
1.88806
1.89366
1.89879
1.90407
1.90931
1.91435
1.91907
1.92334
1.92744
1.93144
1.9351
1.93836
1.94143
1.94462
1.94819
1.95305
1.95869
1.96553
1.97427
1.98408
1.99454
2.00475
2.01499
2.02577
2.03671
2.04692
2.05596
2.06412
2.07163
2.07867
2.08517
2.09064
2.09498
2.09831
2.10091
2.10186
2.10107
2.09902
2.09456
2.08848
2.07871
2.0684
2.05369
2.03796
2.01853
1.99792
1.9762
1.95815
1.94313
1.92646
1.91964
1.88856
1.88234
1.88679
1.8918
1.89744
1.9028
1.90837
1.91398
1.91937
1.92443
1.92947
1.93437
1.93916
1.94373
1.94823
1.95291
1.95775
1.96302
1.96962
1.9764
1.98396
1.99278
2.00209
2.01181
2.02141
2.03089
2.04043
2.04969
2.05803
2.06606
2.07338
2.08025
2.08656
2.09218
2.09682
2.10029
2.10286
2.10432
2.10424
2.10233
2.09922
2.09363
2.08597
2.07492
2.06219
2.045
2.02605
2.0025
1.97608
1.94736
1.92191
1.90753
1.90562
1.90957
1.90321
1.8865
1.89101
1.89591
1.90136
1.90682
1.9125
1.91821
1.92372
1.9292
1.93464
1.94011
1.94533
1.9505
1.95575
1.96119
1.96699
1.97352
1.98108
1.98845
1.99666
2.00558
2.0146
2.02387
2.03312
2.04202
2.05087
2.05927
2.0671
2.07434
2.08094
2.08701
2.0924
2.09703
2.10074
2.10317
2.10515
2.10569
2.10497
2.10244
2.0982
2.09132
2.08222
2.07012
2.05423
2.03254
2.00648
1.97566
1.94105
1.89953
1.86333
1.84893
1.85598
1.89067
1.91257
1.02023
1.02553
1.03047
1.0345
1.0379
1.04055
1.04207
1.04313
1.04314
1.04288
1.04176
1.0403
1.03844
1.03619
1.0343
1.03138
1.02958
1.02737
1.02532
1.02369
1.01943
1.02479
1.02973
1.03391
1.0374
1.03995
1.04187
1.04271
1.04306
1.04265
1.04155
1.04029
1.0383
1.03625
1.03406
1.03187
1.02956
1.02751
1.02569
1.02404
1.0185
1.02364
1.02869
1.03276
1.03641
1.03882
1.04103
1.04187
1.04228
1.04196
1.04099
1.03978
1.03785
1.03604
1.03384
1.03163
1.02972
1.02752
1.02589
1.02441
1.01734
1.02244
1.02702
1.03135
1.03465
1.03753
1.03942
1.04059
1.04096
1.04078
1.03993
1.03881
1.03717
1.03534
1.03355
1.0313
1.02961
1.02767
1.02612
1.02472
1.01604
1.02082
1.02526
1.0293
1.03266
1.03547
1.03737
1.03866
1.03917
1.03905
1.03854
1.03743
1.03606
1.03442
1.03269
1.03112
1.02897
1.02798
1.02605
1.02513
1.01431
1.01924
1.02299
1.02697
1.0301
1.03286
1.0348
1.03625
1.03676
1.03693
1.03653
1.03565
1.03461
1.03312
1.03179
1.03021
1.02887
1.02747
1.02641
1.02537
1.0131
1.01704
1.0206
1.02425
1.0272
1.02979
1.03172
1.03318
1.03392
1.0342
1.03401
1.03356
1.03255
1.03168
1.03048
1.02935
1.02821
1.02721
1.02634
1.02564
1.01158
1.01481
1.01808
1.0211
1.02377
1.02643
1.02796
1.02974
1.03038
1.03103
1.03105
1.03085
1.03044
1.02975
1.02886
1.02822
1.02737
1.02683
1.0261
1.02585
1.01
1.01257
1.01522
1.01769
1.0202
1.02223
1.02419
1.02539
1.0267
1.02712
1.02762
1.0277
1.02763
1.02737
1.02707
1.02674
1.02641
1.02616
1.02593
1.02583
1.00846
1.01029
1.01225
1.01415
1.01615
1.01791
1.01945
1.02108
1.02191
1.02297
1.0236
1.02397
1.02444
1.02467
1.02487
1.025
1.02514
1.02533
1.02552
1.02573
1.00695
1.00808
1.0092
1.01015
1.01241
1.01245
1.01484
1.01545
1.0174
1.01762
1.01918
1.02013
1.02081
1.02149
1.0223
1.02291
1.02362
1.0242
1.02484
1.0254
1.00561
1.00571
1.00596
1.00672
1.00673
1.00833
1.00852
1.01046
1.0109
1.01299
1.01398
1.01524
1.01656
1.0179
1.01928
1.02051
1.0218
1.0229
1.02398
1.02489
1.00422
1.00344
1.00277
1.00227
1.0022
1.00201
1.00305
1.0033
1.00521
1.00623
1.00799
1.00986
1.01182
1.01386
1.01582
1.01778
1.01964
1.02128
1.02285
1.02413
1.00273
1.00085
0.999083
0.997587
0.996407
0.995757
0.995897
0.996035
0.997418
0.999113
1.00126
1.00386
1.00645
1.00923
1.01198
1.01461
1.01712
1.01939
1.02138
1.02312
1.00062
0.998031
0.995402
0.992918
0.990967
0.989711
0.988635
0.988393
0.989194
0.990818
0.993621
0.996893
1.00042
1.00405
1.00761
1.01104
1.01426
1.0171
1.01968
1.02172
0.99894
0.996662
0.994988
0.992894
0.993063
0.991838
0.988397
0.987089
0.984163
0.983692
0.985846
0.989191
0.993491
0.998123
1.00271
1.00707
1.01101
1.01457
1.0176
1.02015
0.999499
1.00513
1.01292
1.01785
1.03165
1.03035
1.02226
1.01375
0.998502
0.988093
0.982939
0.983387
0.98676
0.991765
0.99714
1.00261
1.00736
1.0117
1.01517
1.01824
1.02096
1.06393
1.10642
1.14872
1.20489
1.20092
1.19663
1.14453
1.0954
1.04064
1.00493
0.988275
0.984556
0.987062
0.992093
0.997846
1.00358
1.00837
1.01272
1.01593
1.15869
1.29986
1.43339
1.54165
1.58563
1.5631
1.54695
1.46083
1.38533
1.23798
1.10601
1.02962
0.997253
0.988106
0.989207
0.993946
0.999526
1.00507
1.00944
1.01355
1.5665
1.72997
1.79722
1.80568
1.76964
1.71179
1.6707
1.57173
1.58398
1.45325
1.31741
1.14523
1.04702
1.00474
0.992213
0.992323
0.996545
1.00181
1.00657
1.01043
1.89234
1.92311
1.89989
1.85136
1.78136
1.70132
1.56945
1.55459
1.52826
1.54022
1.45128
1.29911
1.13134
1.04381
1.00694
0.996191
0.996284
0.999865
1.004
1.0078
1.98634
1.95703
1.90692
1.81787
1.67679
1.49038
1.35325
1.34284
1.3961
1.44928
1.4514
1.37062
1.20094
1.08828
1.03121
1.0074
1.00022
1.00012
1.00265
1.00533
1.99964
1.9571
1.87692
1.74978
1.5692
1.37496
1.23477
1.18396
1.2008
1.30874
1.35215
1.3176
1.18672
1.09051
1.03986
1.01469
1.0045
1.00198
1.00268
1.0041
2.00587
1.9584
1.87545
1.74395
1.55935
1.36523
1.22758
1.16347
1.1329
1.13523
1.19368
1.19538
1.12432
1.067
1.03323
1.01621
1.00834
1.00498
1.00401
1.00391
2.01609
1.97906
1.91708
1.82411
1.6879
1.51719
1.34039
1.21007
1.13536
1.08216
1.06355
1.05071
1.03528
1.0238
1.01599
1.01103
1.00825
1.00679
1.00567
1.00429
2.03376
2.01195
1.98117
1.93791
1.8866
1.79311
1.69163
1.53581
1.38044
1.24926
1.15603
1.09684
1.0632
1.04817
1.03925
1.03643
1.03504
1.03418
1.0304
1.02456
2.0387
2.02459
2.00279
1.97863
1.94609
1.91746
1.86756
1.82973
1.76804
1.70819
1.64036
1.57751
1.52407
1.49294
1.47216
1.4649
1.45505
1.44686
1.4268
1.39288
2.04182
2.02777
2.01328
1.99268
1.97481
1.94927
1.93093
1.90718
1.89147
1.87603
1.86552
1.85924
1.85554
1.85814
1.86056
1.86313
1.86031
1.85053
1.82889
1.79403
2.04415
2.03165
2.01827
2.00286
1.98437
1.96996
1.9465
1.93454
1.9191
1.91308
1.90985
1.91095
1.91389
1.91921
1.92196
1.92179
1.91451
1.89671
1.86753
1.82432
2.04628
2.03488
2.02117
2.00702
1.99086
1.97344
1.96101
1.93908
1.92955
1.9208
1.91794
1.91729
1.91833
1.92049
1.92006
1.91573
1.90376
1.88047
1.84289
1.78711
2.04701
2.03645
2.02438
2.01062
1.99532
1.97847
1.96026
1.94492
1.93192
1.92147
1.91744
1.91493
1.9138
1.91335
1.91038
1.90274
1.88552
1.85374
1.80405
1.73318
2.04814
2.03829
2.02658
2.01267
1.99775
1.98032
1.96342
1.94601
1.93091
1.92124
1.91494
1.91141
1.90855
1.90601
1.90075