/*--------------------------------*- C++ -*----------------------------------*\
  =========                 |
  \\      /  F ield         | OpenFOAM: The Open Source CFD Toolbox
   \\    /   O peration     | Website:  https://openfoam.org
    \\  /    A nd           | Version:  10
     \\/     M anipulation  |
\*---------------------------------------------------------------------------*/
FoamFile
{
    format      ascii;
    class       volScalarField;
    location    "0.648748";
    object      p;
}
// * * * * * * * * * * * * * * * * * * * * * * * * * * * * * * * * * * * * * //

dimensions      [1 -1 -2 0 0 0 0];

internalField   nonuniform List<scalar> 
15984
(
2.54255
2.54072
2.53914
2.53787
2.53693
2.53634
2.5361
2.53623
2.53671
2.5376
2.53884
2.54039
2.54225
2.54438
2.54677
2.54937
2.55215
2.55508
2.55812
2.56124
2.56441
2.5676
2.57078
2.57392
2.57699
2.57998
2.58285
2.5856
2.58819
2.59062
2.59287
2.59492
2.59677
2.5984
2.59981
2.60098
2.60191
2.6026
2.60304
2.60321
2.60314
2.6028
2.60219
2.60132
2.6002
2.5988
2.59713
2.5952
2.59301
2.59055
2.58785
2.58489
2.5817
2.57827
2.54774
2.5458
2.54407
2.54262
2.54147
2.54064
2.54015
2.54
2.54019
2.54076
2.54168
2.54295
2.54452
2.54638
2.54852
2.5509
2.5535
2.55628
2.55921
2.56226
2.5654
2.5686
2.57182
2.57504
2.57822
2.58135
2.58438
2.5873
2.59008
2.5927
2.59515
2.59739
2.59942
2.60121
2.60275
2.60403
2.60504
2.60577
2.6062
2.60633
2.60616
2.60567
2.60484
2.6037
2.60223
2.60043
2.5983
2.59584
2.59305
2.58991
2.58649
2.58272
2.57866
2.57431
2.55262
2.55058
2.54873
2.54711
2.54577
2.54472
2.54398
2.54358
2.54352
2.54378
2.5444
2.54538
2.54669
2.54831
2.55022
2.5524
2.55483
2.55748
2.56032
2.56332
2.56645
2.56967
2.57296
2.57627
2.57958
2.58286
2.58607
2.58918
2.59217
2.595
2.59765
2.60009
2.60231
2.60427
2.60596
2.60736
2.60845
2.60922
2.60965
2.60974
2.60948
2.60883
2.60779
2.60637
2.60457
2.60237
2.59976
2.59677
2.59337
2.58958
2.58537
2.58083
2.57589
2.5706
2.55717
2.55506
2.5531
2.55134
2.54982
2.54857
2.54761
2.54697
2.54665
2.54667
2.547
2.54771
2.54878
2.55016
2.55187
2.55387
2.55615
2.55869
2.56145
2.56442
2.56755
2.57082
2.57419
2.57762
2.58108
2.58453
2.58793
2.59125
2.59446
2.59751
2.60039
2.60305
2.60546
2.60761
2.60945
2.61098
2.61216
2.61297
2.61341
2.61345
2.6131
2.6123
2.61104
2.60935
2.60721
2.60461
2.60154
2.59799
2.59398
2.5895
2.58456
2.57918
2.57336
2.56713
2.56139
2.55923
2.55718
2.55531
2.55364
2.55221
2.55105
2.55018
2.54962
2.5494
2.5495
2.54994
2.55076
2.55194
2.55346
2.5553
2.55745
2.55989
2.56261
2.56556
2.56872
2.57205
2.57552
2.57909
2.58271
2.58635
2.58997
2.59352
2.59696
2.60026
2.60337
2.60626
2.60889
2.61122
2.61323
2.61489
2.61617
2.61704
2.61748
2.61748
2.61705
2.6161
2.61463
2.61266
2.61019
2.60717
2.60363
2.59954
2.59491
2.58974
2.58404
2.57782
2.57109
2.56389
2.56527
2.56309
2.56098
2.55901
2.55721
2.55562
2.55428
2.5532
2.55243
2.55198
2.55187
2.55208
2.55266
2.55364
2.55498
2.55668
2.55873
2.5611
2.56377
2.56673
2.56994
2.57335
2.57695
2.58067
2.58448
2.58834
2.59219
2.59598
2.59969
2.60324
2.60661
2.60974
2.61259
2.61513
2.61731
2.61911
2.62049
2.62142
2.62189
2.62185
2.62134
2.62023
2.61855
2.61631
2.6135
2.61008
2.60605
2.60141
2.59616
2.59029
2.58381
2.57673
2.56908
2.56087
2.5688
2.56661
2.56447
2.56243
2.56053
2.5588
2.55729
2.55603
2.55506
2.5544
2.55408
2.55411
2.55447
2.55525
2.55644
2.55801
2.55997
2.56228
2.56494
2.56793
2.5712
2.57472
2.57846
2.58236
2.58638
2.59047
2.59458
2.59865
2.60262
2.60645
2.61009
2.61348
2.61657
2.61933
2.6217
2.62365
2.62515
2.62614
2.62663
2.62657
2.62597
2.62472
2.62283
2.62032
2.61717
2.61334
2.60884
2.60364
2.59775
2.59116
2.58389
2.57593
2.56731
2.55805
2.57195
2.5698
2.56765
2.56556
2.56358
2.56174
2.56009
2.55866
2.5575
2.55665
2.55613
2.55598
2.55618
2.55677
2.55781
2.55928
2.56116
2.56344
2.5661
2.56913
2.57249
2.57615
2.58005
2.58415
2.58841
2.59276
2.59714
2.6015
2.60577
2.6099
2.61382
2.61749
2.62084
2.62382
2.6264
2.62851
2.63013
2.63121
2.63172
2.63164
2.63096
2.62957
2.62748
2.6247
2.62122
2.61698
2.612
2.60623
2.5997
2.59238
2.58429
2.57542
2.5658
2.55543
2.5747
2.57261
2.57049
2.56838
2.56634
2.56441
2.56264
2.56107
2.55975
2.55872
2.55802
2.5577
2.55775
2.55818
2.55908
2.56045
2.56228
2.56454
2.56724
2.57033
2.5738
2.5776
2.5817
2.58603
2.59054
2.59517
2.59985
2.60452
2.60911
2.61356
2.6178
2.62175
2.62538
2.62861
2.6314
2.63369
2.63544
2.63661
2.63716
2.63707
2.63633
2.6348
2.63252
2.62948
2.62566
2.62101
2.61556
2.6092
2.60205
2.59394
2.58503
2.57522
2.56454
2.553
2.57701
2.57503
2.57296
2.57087
2.5688
2.56681
2.56494
2.56324
2.56178
2.56059
2.55973
2.55926
2.55917
2.55947
2.56024
2.56153
2.56331
2.56558
2.56831
2.57149
2.57509
2.57907
2.58338
2.58796
2.59276
2.59769
2.6027
2.60771
2.61265
2.61744
2.622
2.62628
2.63019
2.63369
2.63671
2.63919
2.64109
2.64237
2.64297
2.64287
2.64208
2.64043
2.63796
2.63466
2.63051
2.62546
2.61952
2.61258
2.60478
2.59589
2.58609
2.57537
2.56356
2.55079
2.57885
2.57701
2.57504
2.573
2.57093
2.56891
2.56696
2.56517
2.56358
2.56226
2.56125
2.56062
2.56041
2.56061
2.56126
2.56247
2.56423
2.56651
2.56931
2.5726
2.57635
2.58053
2.58507
2.58993
2.59503
2.6003
2.60566
2.61104
2.61634
2.62149
2.62641
2.63103
2.63526
2.63904
2.64231
2.64501
2.64708
2.64847
2.64913
2.64905
2.64821
2.64645
2.64381
2.64026
2.63578
2.63034
2.62389
2.6164
2.60787
2.59827
2.58754
2.57581
2.56288
2.54882
2.58018
2.57852
2.57668
2.57473
2.5727
2.57067
2.56868
2.56681
2.56512
2.56368
2.56254
2.56178
2.56144
2.56155
2.56212
2.56326
2.565
2.56731
2.57019
2.5736
2.57753
2.58192
2.58673
2.59189
2.59733
2.60296
2.6087
2.61447
2.62017
2.62572
2.63102
2.636
2.64057
2.64466
2.6482
2.65113
2.65338
2.65491
2.65566
2.6556
2.65473
2.65288
2.65007
2.64629
2.64151
2.63564
2.62876
2.62064
2.61142
2.60104
2.58947
2.5766
2.56273
2.54732
2.58095
2.57954
2.57788
2.57606
2.57411
2.5721
2.57009
2.56816
2.56639
2.56484
2.56358
2.56271
2.56226
2.56228
2.56277
2.56385
2.56557
2.56794
2.57091
2.57448
2.57859
2.58324
2.58834
2.59384
2.59964
2.60566
2.61182
2.618
2.62412
2.63009
2.6358
2.64117
2.6461
2.65052
2.65436
2.65754
2.66
2.66168
2.66254
2.66252
2.66164
2.65972
2.65675
2.65275
2.64766
2.6414
2.63403
2.62535
2.61546
2.6042
2.59187
2.57807
2.56338
2.5467
2.58112
2.58004
2.57863
2.57698
2.57515
2.5732
2.57121
2.56925
2.56741
2.56575
2.56439
2.56342
2.56285
2.56279
2.56321
2.56424
2.56596
2.56838
2.57147
2.5752
2.57954
2.58446
2.58988
2.59573
2.60193
2.60838
2.61498
2.62162
2.62819
2.63459
2.64073
2.6465
2.65183
2.65661
2.66076
2.66422
2.66691
2.66877
2.66975
2.66979
2.66893
2.66695
2.66385
2.65964
2.65426
2.64764
2.63974
2.63048
2.61987
2.60779
2.59466
2.57976
2.5648
2.54578
2.58068
2.57995
2.57886
2.57744
2.57578
2.57393
2.57198
2.57002
2.56813
2.56641
2.56496
2.56386
2.5632
2.56304
2.56341
2.56439
2.56612
2.5686
2.57181
2.57572
2.58029
2.58551
2.59127
2.59752
2.60415
2.61106
2.61814
2.62527
2.63234
2.63922
2.64582
2.65201
2.65773
2.66289
2.66739
2.67115
2.6741
2.67616
2.67728
2.67742
2.67657
2.67455
2.67135
2.66696
2.6613
2.65432
2.64594
2.63606
2.6248
2.61182
2.59807
2.58199
2.56676
2.54592
2.5795
2.57923
2.5785
2.57739
2.57595
2.57425
2.57238
2.57043
2.56852
2.56674
2.5652
2.56399
2.56322
2.56299
2.56329
2.56423
2.56596
2.56851
2.57184
2.57594
2.58078
2.5863
2.59244
2.59911
2.60621
2.61363
2.62123
2.6289
2.6365
2.64391
2.65101
2.65769
2.66383
2.66936
2.67421
2.6783
2.68153
2.68382
2.68511
2.68536
2.68455
2.68252
2.67924
2.67469
2.66878
2.66148
2.65262
2.64217
2.63028
2.61639
2.60195
2.58438
2.56431
2.54602
2.57761
2.57782
2.57755
2.57681
2.57565
2.57415
2.57238
2.57049
2.56857
2.56673
2.56511
2.56379
2.56292
2.56257
2.56282
2.56372
2.56543
2.56804
2.57151
2.57581
2.58091
2.58678
2.59333
2.60046
2.60807
2.61603
2.6242
2.63245
2.64063
2.64861
2.65626
2.66345
2.67007
2.67603
2.68123
2.68564
2.68917
2.69171
2.6932
2.69358
2.69283
2.69082
2.68747
2.68278
2.67666
2.66902
2.65978
2.64879
2.63646
2.62156
2.60533
2.58883
2.56743
2.54347
2.57493
2.57575
2.57596
2.57567
2.57487
2.57361
2.57201
2.57019
2.56827
2.56639
2.56467
2.56324
2.56224
2.56178
2.56194
2.56277
2.56447
2.56714
2.57073
2.57525
2.58064
2.58687
2.59386
2.60149
2.60965
2.6182
2.62699
2.63586
2.64467
2.65326
2.6615
2.66925
2.6764
2.68283
2.68844
2.69317
2.69697
2.69979
2.70149
2.70203
2.70137
2.6994
2.69601
2.6912
2.68489
2.67697
2.66735
2.65592
2.64291
2.62799
2.60941
2.59014
2.56748
2.54236
2.57143
2.57298
2.57381
2.57397
2.57359
2.57265
2.57125
2.56952
2.56762
2.56569
2.56387
2.56231
2.56115
2.56056
2.56061
2.56135
2.56302
2.56573
2.56947
2.57417
2.57989
2.58649
2.59396
2.60212
2.61088
2.62007
2.62952
2.63908
2.64857
2.65782
2.6667
2.67505
2.68276
2.68969
2.69576
2.70086
2.70495
2.708
2.70994
2.71065
2.7101
2.70819
2.70479
2.6999
2.69343
2.68527
2.67527
2.66336
2.64963
2.63364
2.61449
2.59206
2.5672
2.54042
2.56717
2.56954
2.57106
2.5718
2.57183
2.57128
2.57013
2.56852
2.56664
2.56465
2.56271
2.56099
2.55965
2.55887
2.55878
2.5594
2.56101
2.56373
2.5676
2.57252
2.57856
2.58558
2.59353
2.60228
2.61168
2.62156
2.63174
2.64203
2.65225
2.66222
2.67178
2.68078
2.68909
2.69657
2.70311
2.70863
2.71304
2.71632
2.71848
2.71937
2.71894
2.71712
2.71373
2.7088
2.70222
2.69383
2.68341
2.67104
2.65726
2.63919
2.61788
2.59416
2.56821
2.54012
2.56224
2.56552
2.56781
2.56918
2.5697
2.5695
2.56866
2.5672
2.56533
2.56326
2.56117
2.55925
2.55768
2.55666
2.55636
2.55687
2.55835
2.56107
2.56503
2.5702
2.57653
2.58401
2.59249
2.60186
2.61195
2.62258
2.63355
2.64463
2.65564
2.66637
2.67667
2.68636
2.69531
2.70338
2.71043
2.71639
2.72115
2.72467
2.72699
2.72808
2.72779
2.72607
2.72274
2.71781
2.71112
2.70239
2.69177
2.67988
2.66359
2.64398
2.62168
2.59688
2.56968
2.54027
2.55681
2.56106
2.56415
2.56618
2.56725
2.56744
2.56689
2.56559
2.56373
2.56156
2.55927
2.55708
2.55521
2.55389
2.55333
2.55366
2.55498
2.55766
2.56171
2.56707
2.57375
2.58166
2.59073
2.60075
2.6116
2.62304
2.63485
2.64679
2.65864
2.67019
2.68127
2.6917
2.70133
2.71001
2.71761
2.72402
2.72916
2.73297
2.73545
2.73666
2.73651
2.73493
2.7317
2.72682
2.71997
2.71099
2.70142
2.68732
2.66972
2.64925
2.62603
2.60012
2.57166
2.54091
2.55101
2.55633
2.56024
2.56294
2.56456
2.56516
2.56485
2.56373
2.56183
2.55952
2.55698
2.55444
2.55219
2.55049
2.54959
2.54968
2.55083
2.55339
2.5575
2.56313
2.5701
2.57846
2.5881
2.59885
2.61054
2.62285
2.63556
2.64841
2.66116
2.67357
2.68546
2.69666
2.70701
2.71635
2.72451
2.73139
2.73691
2.74101
2.74368
2.74499
2.74498
2.74352
2.74047
2.73569
2.72888
2.72094
2.70979
2.69452
2.67622
2.65496
2.63075
2.6037
2.574
2.54192
2.54421
2.55129
2.55613
2.5595
2.56167
2.56268
2.5626
2.56161
2.55966
2.55711
2.55426
2.55129
2.54854
2.54638
2.54504
2.54486
2.54583
2.54823
2.55233
2.55817
2.56551
2.57428
2.58465
2.59623
2.6087
2.62202
2.63567
2.64956
2.66321
2.67644
2.68913
2.70111
2.71221
2.72221
2.73096
2.73832
2.74422
2.74862
2.75152
2.75294
2.753
2.75171
2.74884
2.74419
2.73817
2.73033
2.71767
2.7019
2.68294
2.66087
2.6357
2.60757
2.57668
2.54336
2.53633
2.54588
2.55192
2.55594
2.55863
2.56003
2.56016
2.55922
2.55716
2.55432
2.55102
2.54752
2.54418
2.54146
2.53958
2.53907
2.53995
2.54207
2.54649
2.55218
2.55973
2.56898
2.57997
2.59235
2.60573
2.61986
2.63492
2.64992
2.66464
2.67873
2.69221
2.70495
2.71677
2.72744
2.73677
2.74461
2.75089
2.7556
2.75873
2.76032
2.76049
2.75933
2.75658
2.75224
2.74754
2.73853
2.72544
2.70915
2.68962
2.66684
2.64083
2.61172
2.57973
2.54524
2.52957
2.54014
2.54733
2.55216
2.55541
2.55717
2.55746
2.55648
2.55424
2.55102
2.54719
2.54305
2.53899
2.53551
2.53322
2.53215
2.53348
2.53383
2.53983
2.54484
2.55208
2.56277
2.57446
2.58788
2.60194
2.61761
2.63329
2.64964
2.66564
2.68061
2.69474
2.70813
2.72061
2.73191
2.74179
2.75009
2.75676
2.76178
2.76519
2.767
2.76728
2.76623
2.76379
2.76073
2.75575
2.74579
2.73256
2.716
2.69607
2.67277
2.64609
2.61612
2.58311
2.54752
2.52294
2.53416
2.54235
2.54809
2.55193
2.55401
2.55438
2.55329
2.55079
2.54713
2.54266
2.53778
2.53288
2.52862
2.52506
2.52545
2.52545
2.52676
2.5314
2.53695
2.54488
2.55377
2.56583
2.57986
2.596
2.6132
2.63324
2.65033
2.66674
2.68217
2.69674
2.71059
2.72365
2.7355
2.74586
2.75459
2.76163
2.76701
2.77076
2.7729
2.77333
2.77202
2.77124
2.76603
2.76125
2.75198
2.73892
2.72232
2.70221
2.67856
2.65136
2.6207
2.58684
2.55028
2.51712
2.52877
2.53762
2.54399
2.54822
2.5505
2.55081
2.54949
2.54668
2.54267
2.53767
2.53198
2.52658
2.52188
2.51814
2.51613
2.51339
2.51377
2.51669
2.52255
2.53113
2.54192
2.55536
2.57038
2.58824
2.60729
2.62812
2.6491
2.66541
2.68285
2.69801
2.71234
2.72582
2.73809
2.74885
2.75795
2.76536
2.77113
2.77533
2.77803
2.77957
2.7789
2.77745
2.77355
2.76702
2.75757
2.74456
2.72802
2.70785
2.68403
2.65651
2.62535
2.59082
2.55347
2.51222
2.52417
2.53321
2.53968
2.54402
2.54647
2.54663
2.54525
2.54288
2.53934
2.53379
2.52683
2.51858
2.50994
2.50339
2.49898
2.49665
2.49711
2.50053
2.50713
2.51684
2.52894
2.54347
2.56008
2.57904
2.59962
2.62203
2.64483
2.66422
2.68252
2.69837
2.71314
2.72696
2.73954
2.75062
2.76005
2.7678
2.77397
2.77866
2.78177
2.78292
2.78335
2.78225
2.77837
2.77175
2.7622
2.74927
2.73287
2.71276
2.68895
2.66133
2.62993
2.595
2.55715
2.50913
2.52059
2.52906
2.5351
2.53961
2.54292
2.54341
2.53948
2.5331
2.52474
2.5163
2.50794
2.49992
2.49197
2.48524
2.48105
2.47929
2.47988
2.48377
2.49146
2.5022
2.51543
2.53122
2.54935
2.56936
2.5912
2.61513
2.64005
2.66155
2.68122
2.69756
2.71275
2.72688
2.7397
2.75099
2.76066
2.76874
2.77528
2.78019
2.78334
2.78561
2.78667
2.78556
2.78179
2.77511
2.76554
2.75279
2.73661
2.71671
2.6931
2.66565
2.63429
2.59926
2.56117
2.5074
2.51846
2.52703
2.5324
2.53383
2.53219
2.52862
2.52486
2.51834
2.51003
2.50089
2.4913
2.48155
2.47226
2.46425
2.46019
2.45828
2.45952
2.46439
2.47329
2.48511
2.49969
2.51702
2.53688
2.55871
2.5821
2.60765
2.63415
2.65738
2.67761
2.69498
2.71089
2.72537
2.7384
2.74987
2.75974
2.76804
2.77465
2.77977
2.78408
2.78726
2.78844
2.7874
2.78366
2.77698
2.76744
2.75485
2.73893
2.71932
2.69606
2.66889
2.63776
2.60284
2.56476
2.49799
2.50703
2.514
2.51851
2.52003
2.51824
2.51476
2.50983
2.50279
2.49418
2.48447
2.47434
2.4642
2.45494
2.44777
2.44295
2.44153
2.4432
2.44854
2.45745
2.46923
2.48402
2.50158
2.52238
2.54623
2.57232
2.5993
2.62783
2.65243
2.67301
2.691
2.70745
2.72226
2.73555
2.74721
2.75723
2.76548
2.77206
2.77857
2.78382
2.78725
2.78856
2.78758
2.78387
2.7772
2.76767
2.75524
2.73962
2.72034
2.69751
2.67089
2.6404
2.60613
2.56863
2.48848
2.49577
2.50121
2.50444
2.5052
2.50342
2.4997
2.49445
2.48755
2.47977
2.47051
2.46046
2.45072
2.4418
2.43467
2.42979
2.42792
2.42956
2.4354
2.44537
2.45842
2.4739
2.49167
2.51262
2.537
2.56403
2.5922
2.62244
2.64651
2.66761
2.68601
2.70283
2.71794
2.73141
2.74325
2.75297
2.76059
2.76913
2.77603
2.78208
2.78561
2.787
2.78604
2.78236
2.77573
2.76612
2.75375
2.73842
2.71959
2.69732
2.67141
2.64177
2.60852
2.57207
2.47626
2.48269
2.48725
2.48977
2.49027
2.48897
2.4858
2.48164
2.47494
2.46755
2.45923
2.44997
2.44014
2.4306
2.42244
2.41672
2.41487
2.41671
2.42324
2.43424
2.44866
2.46442
2.48259
2.50527
2.53054
2.55884
2.59031
2.61493
2.63993
2.66118
2.6801
2.69738
2.71302
2.72669
2.73795
2.7458
2.75597
2.76453
2.77269
2.77866
2.78222
2.78361
2.78263
2.77895
2.77236
2.76275
2.75036
2.73525
2.71688
2.69527
2.67022
2.64169
2.60971
2.57465
2.46379
2.46938
2.47348
2.47605
2.47705
2.47713
2.47478
2.47074
2.46565
2.45909
2.45094
2.44148
2.43129
2.42123
2.41256
2.40623
2.40429
2.40816
2.4159
2.42777
2.4425
2.46122
2.48001
2.50189
2.52755
2.55566
2.58127
2.61036
2.63399
2.65492
2.67382
2.69115
2.70677
2.71899
2.72919
2.74138
2.74969
2.7598
2.76802
2.7737
2.77717
2.77844
2.77741
2.77368
2.76711
2.75756
2.74507
2.72997
2.71206
2.69115
2.66698
2.63972
2.60934
2.57603
2.45212
2.45736
2.46172
2.46545
2.4667
2.46665
2.46626
2.46325
2.45881
2.45255
2.44471
2.43558
2.42555
2.41629
2.40848
2.40358
2.40292
2.40749
2.41677
2.42966
2.44521
2.46053
2.47935
2.50423
2.5291
2.55129
2.5824
2.60596
2.62823
2.64924
2.66815
2.68422
2.69924
2.71141
2.72204
2.73518
2.74372
2.75422
2.76166
2.76717
2.7705
2.7716
2.77043
2.76658
2.75997
2.75047
2.73803
2.72285
2.70516
2.68477
2.66159
2.63556
2.60688
2.57561
2.44238
2.4478
2.4531
2.45608
2.45799
2.45969
2.45942
2.45726
2.45346
2.44809
2.4413
2.43344
2.42488
2.4165
2.41014
2.40638
2.40678
2.41152
2.42036
2.43281
2.44871
2.46559
2.48541
2.50666
2.52696
2.55533
2.57995
2.60232
2.62403
2.64422
2.66353
2.67994
2.68654
2.70312
2.71539
2.72734
2.73799
2.74716
2.75403
2.7593
2.7623
2.76318
2.76176
2.75777
2.75104
2.74154
2.72919
2.71405
2.69642
2.67647
2.65398
2.62922
2.60226
2.57283
2.43508
2.44118
2.44585
2.44819
2.45161
2.45362
2.45389
2.45269
2.4499
2.44575
2.44044
2.43435
2.42791
2.42174
2.41629
2.41407
2.41564
2.42099
2.43011
2.44212
2.45727
2.47228
2.48821
2.50884
2.5323
2.55668
2.57903
2.60015
2.62109
2.63907
2.65119
2.65862
2.67525
2.69315
2.70839
2.72039
2.73049
2.73869
2.74526
2.75014
2.75273
2.7533
2.7516
2.74737
2.74048
2.73092
2.71866
2.70371
2.68621
2.66653
2.64482
2.62104
2.59522
2.56773
2.4306
2.43601
2.43806
2.44254
2.44639
2.44882
2.44982
2.44958
2.44804
2.44535
2.44175
2.43762
2.43337
2.42941
2.42601
2.42481
2.42707
2.43194
2.44017
2.4501
2.46322
2.47941
2.49866
2.51916
2.53874
2.5592
2.58023
2.60103
2.61908
2.62693
2.64835
2.66574
2.6704
2.68802
2.70092
2.71238
2.72162
2.72932
2.73551
2.73983
2.74193
2.74213
2.74004
2.73554
2.72845
2.71879
2.70657
2.69185
2.67469
2.65529
2.63407
2.6112
2.58668
2.56077
2.4277
2.42906
2.43378
2.43827
2.44225
2.44518
2.44701
2.44778
2.44757
2.44646
2.4447
2.44258
2.44039
2.43841
2.43738
2.43824
2.44137
2.44761
2.45584
2.46606
2.47812
2.49293
2.50906
2.52554
2.54396
2.5626
2.58045
2.59529
2.61286
2.63287
2.63517
2.65571
2.66444
2.68258
2.69346
2.70361
2.7121
2.71929
2.72487
2.72852
2.73008
2.72982
2.72726
2.72242
2.71509
2.70529
2.69307
2.67852
2.66175
2.64288
2.62216
2.6
2.57662
2.55209
2.41993
2.42573
2.43024
2.43491
2.43905
2.44253
2.44521
2.44708
2.44817
2.44861
2.44864
2.44843
2.44819
2.44821
2.44911
2.45136
2.45556
2.46201
2.47007
2.47985
2.49135
2.50407
2.51806
2.53269
2.54847
2.56477
2.57928
2.59816
2.61127
2.62559
2.63428
2.6488
2.6608
2.67525
2.68528
2.69448
2.7023
2.70876
2.71354
2.71644
2.71742
2.71649
2.71342
2.70811
2.70052
2.69053
2.67828
2.66388
2.64747
2.62918
2.6092
2.58776
2.56526
2.54193
2.41859
2.42312
2.42758
2.43196
2.4367
2.44078
2.44427
2.44717
2.44954
2.4515
2.45318
2.45475
2.45638
2.45833
2.46101
2.46478
2.46988
2.47652
2.48452
2.49378
2.5042
2.51587
2.52815
2.54073
2.55336
2.56731
2.57885
2.59742
2.60632
2.61877
2.63584
2.64657
2.65711
2.66806
2.67732
2.6855
2.69243
2.69793
2.70182
2.70376
2.70402
2.70235
2.69854
2.69287
2.68478
2.6746
2.66228
2.648
2.63192
2.61419
2.59498
2.57446
2.55286
2.53049
2.41572
2.42082
2.42519
2.43012
2.43511
2.43973
2.444
2.44791
2.45145
2.45481
2.45804
2.46125
2.46461
2.46831
2.47261
2.47767
2.48366
2.49058
2.49834
2.50691
2.51638
2.52689
2.53835
2.55026
2.56408
2.57957
2.58271
2.59562
2.60584
2.61884
2.63443
2.64368
2.65318
2.66198
2.66993
2.67694
2.68271
2.68706
2.68971
2.69075
2.69007
2.68745
2.68314
2.67661
2.66807
2.65756
2.64514
2.63097
2.61522
2.59805
2.57961
2.56005
2.53948
2.51808
2.41325
2.4185
2.42382
2.4287
2.43402
2.43924
2.44425
2.44909
2.45376
2.45838
2.46302
2.46775
2.47267
2.4779
2.48356
2.48973
2.49648
2.50374
2.51138
2.5194
2.52807
2.53781
2.55079
2.56167
2.57137
2.58035
2.59002
2.60179
2.61159
2.62149
2.63264
2.64134
2.64943
2.65681
2.66336
2.66895
2.67332
2.67628
2.67761
2.67755
2.67575
2.67217
2.66685
2.65957
2.65046
2.63955
2.62698
2.61289
2.59747
2.58086
2.56321
2.5446
2.52507
2.50468
2.41092
2.41714
2.42234
2.42748
2.43319
2.43912
2.44489
2.45058
2.4563
2.46209
2.46801
2.4741
2.4804
2.48697
2.49383
2.50098
2.50842
2.51606
2.52372
2.53183
2.54178
2.55398
2.56216
2.57202
2.57964
2.59029
2.59861
2.60858
2.61691
2.62513
2.63324
2.64046
2.64695
2.65276
2.65772
2.66168
2.66446
2.66579
2.6658
2.66433
2.66122
2.65649
2.65004
2.64187
2.63204
2.62066
2.60786
2.59383
2.57875
2.56277
2.54598
2.52836
2.50986
2.4904
2.40753
2.41613
2.42032
2.42639
2.43257
2.43932
2.44581
2.45228
2.45898
2.46586
2.47298
2.48035
2.48794
2.49574
2.50371
2.51178
2.51998
2.52862
2.53786
2.5471
2.55686
2.57048
2.5736
2.58308
2.59439
2.60113
2.61031
2.61714
2.62392
2.63008
2.6359
2.64129
2.64605
2.65005
2.6532
2.65535
2.65626
2.65599
2.65435
2.65131
2.6467
2.64059
2.63288
2.62363
2.61295
2.60097
2.58789
2.57391
2.55923
2.54398
2.52817
2.51167
2.49425
2.47565
2.41063
2.41873
2.41911
2.42567
2.43201
2.43992
2.44716
2.45423
2.46184
2.46982
2.47809
2.48662
2.49537
2.50428
2.51334
2.52259
2.53201
2.54204
2.55322
2.56267
2.57724
2.5842
2.5934
2.60112
2.60953
2.61607
2.6224
2.62762
2.63248
2.63667
2.64051
2.64383
2.64672
2.64886
2.64993
2.65012
2.64916
2.64699
2.64353
2.63868
2.63239
2.62467
2.61551
2.60501
2.59333
2.58066
2.56726
2.55335
2.53915
2.52478
2.51019
2.49508
2.47894
2.46122
2.40684
2.41482
2.42259
2.42468
2.43276
2.44053
2.44876
2.4562
2.46465
2.47372
2.48304
2.49269
2.50264
2.51292
2.5235
2.53449
2.54624
2.55872
2.57262
2.58204
2.59368
2.60539
2.61244
2.62102
2.62701
2.63257
2.63662
2.64009
2.64296
2.64523
2.64711
2.64844
2.64909
2.64922
2.64828
2.64633
2.64327
2.63905
2.63355
2.6267
2.61852
2.60896
2.59816
2.58623
2.57341
2.55999
2.54627
2.5325
2.51895
2.50579
2.49277
2.47951
2.46504
2.44833
2.4041
2.41068
2.41804
2.42384
2.43322
2.44055
2.45033
2.45838
2.46738
2.47746
2.48817
2.49936
2.51102
2.52306
2.53587
2.54936
2.56325
2.57717
2.59326
2.60323
2.61565
2.62671
2.634
2.64139
2.6463
2.65014
2.65274
2.65453
2.65553
2.65593
2.65582
2.65496
2.65343
2.65128
2.64831
2.64418
2.63888
2.63244
2.62468
2.61568
2.60533
2.59373
2.58112
2.56758
2.55351
2.53929
2.52532
2.51194
2.49937
2.48779
2.47692
2.46617
2.45413
2.43877
2.40061
2.40755
2.4149
2.42265
2.43122
2.44174
2.45216
2.45905
2.47154
2.48217
2.49496
2.50808
2.52169
2.53601
2.55105
2.56673
2.58261
2.59832
2.61297
2.62725
2.6386
2.64901
2.65656
2.66284
2.66691
2.66945
2.67073
2.67095
2.67028
2.66878
2.66658
2.6636
2.65991
2.65544
2.65011
2.6438
2.63619
2.62743
2.61729
2.60587
2.59319
2.5794
2.56466
2.54944
2.53408
2.51911
2.50509
2.49244
2.48151
2.47211
2.46405
2.45663
2.44824
2.43523
2.39664
2.40376
2.41162
2.42026
2.42997
2.44081
2.4521
2.46338
2.47583
2.48913
2.50334
2.51865
2.5343
2.55076
2.5679
2.58541
2.60279
2.61994
2.6358
2.65006
2.66206
2.67228
2.67979
2.68552
2.68876
2.69036
2.69048
2.68929
2.68694
2.68364
2.67945
2.67446
2.66858
2.66182
2.65406
2.64536
2.63545
2.62413
2.61147
2.59751
2.58233
2.56613
2.54927
2.53224
2.51559
2.50001
2.48616
2.47462
2.46573
2.45936
2.455
2.4519
2.44889
2.44056
2.39274
2.40014
2.40862
2.4182
2.42892
2.44058
2.45304
2.46646
2.48089
2.49626
2.51248
2.5297
2.54755
2.56614
2.58523
2.60446
2.62335
2.64147
2.65847
2.67327
2.68587
2.69614
2.70384
2.70907
2.71185
2.71267
2.71175
2.70927
2.70542
2.70041
2.69438
2.6874
2.67944
2.67047
2.6604
2.6491
2.63675
2.623
2.6077
2.59105
2.57314
2.55437
2.53522
2.51629
2.4983
2.48217
2.46875
2.45874
2.45282
2.45083
2.45185
2.45365
2.45457
2.45394
2.38886
2.39672
2.40587
2.41632
2.42806
2.44096
2.45496
2.4701
2.48637
2.50364
2.52191
2.54112
2.56083
2.58147
2.6024
2.62323
2.64359
2.66289
2.6807
2.69643
2.70969
2.72036
2.72825
2.73333
2.73564
2.73602
2.73422
2.73066
2.7255
2.7189
2.71118
2.70235
2.6924
2.68136
2.66902
2.65541
2.64032
2.62401
2.60616
2.5866
2.5659
2.5444
2.52272
2.50166
2.4823
2.46547
2.45236
2.44433
2.44154
2.44344
2.44854
2.45354
2.45289
2.45252
2.38492
2.39333
2.40321
2.41458
2.4274
2.44161
2.45707
2.47387
2.49197
2.51112
2.53121
2.55223
2.57403
2.59643
2.61906
2.64147
2.66321
2.68375
2.70258
2.71921
2.73329
2.74452
2.75283
2.75782
2.75993
2.75998
2.75752
2.75308
2.74676
2.73884
2.72962
2.71905
2.70734
2.6943
2.67991
2.66403
2.64648
2.62739
2.60683
2.58452
2.56086
2.53642
2.51198
2.48856
2.46727
2.44934
2.43631
2.42999
2.42938
2.43413
2.44099
2.44584
2.44354
2.42946
2.57462
2.57077
2.56674
2.56255
2.55822
2.55377
2.54919
2.54448
2.53972
2.53495
2.5302
2.52551
2.52092
2.51643
2.51207
2.50789
2.5039
2.50017
2.49671
2.49357
2.56968
2.56483
2.55973
2.55447
2.54904
2.54351
2.53787
2.53214
2.52638
2.52068
2.5151
2.50969
2.50454
2.49966
2.49499
2.49076
2.4868
2.48336
2.48033
2.47783
2.56499
2.55909
2.55293
2.54656
2.54001
2.53334
2.5266
2.51981
2.51302
2.50637
2.49994
2.49376
2.48796
2.48275
2.47772
2.47349
2.46951
2.46642
2.46382
2.46199
2.56051
2.55355
2.54628
2.53877
2.53105
2.5232
2.5153
2.50742
2.49958
2.49196
2.48453
2.47768
2.47131
2.46546
2.46026
2.45583
2.45209
2.44923
2.44718
2.44603
2.55624
2.54817
2.53975
2.53104
2.5221
2.51302
2.5039
2.49484
2.4859
2.47719
2.46885
2.46133
2.45416
2.44788
2.44244
2.43795
2.43431
2.43188
2.43036
2.42998
2.55213
2.54292
2.53328
2.5233
2.51307
2.50268
2.49227
2.48197
2.47185
2.46205
2.45282
2.44427
2.4365
2.42969
2.42425
2.41965
2.4162
2.41418
2.41335
2.41368
2.54818
2.53774
2.52682
2.51548
2.50386
2.49206
2.48026
2.46866
2.45715
2.44619
2.43613
2.42657
2.4182
2.41094
2.4052
2.40068
2.39771
2.39619
2.3961
2.39721
2.54435
2.5326
2.52028
2.50748
2.49435
2.48102
2.46768
2.45455
2.44178
2.42962
2.41827
2.40791
2.39887
2.39127
2.3854
2.38105
2.37859
2.37771
2.37836
2.38064
2.54064
2.52747
2.51363
2.49921
2.48443
2.46944
2.45438
2.43962
2.42532
2.41181
2.3992
2.38794
2.37831
2.3704
2.36455
2.36054
2.35858
2.35858
2.36015
2.36385
2.53711
2.52233
2.50683
2.49065
2.47403
2.45726
2.44014
2.42365
2.40759
2.39261
2.37853
2.36628
2.35608
2.348
2.34249
2.33893
2.33764
2.33851
2.34155
2.3469
2.53373
2.51736
2.5001
2.4822
2.46349
2.44445
2.42562
2.40696
2.38888
2.37203
2.35571
2.34186
2.33159
2.3234
2.31903
2.31614
2.31563
2.31782
2.32246
2.3298
2.53044
2.51288
2.49395
2.47401
2.45325
2.43221
2.41128
2.39055
2.37035
2.35055
2.33272
2.3155
2.30365
2.29657
2.29402
2.29404
2.2932
2.29634
2.30313
2.31251
2.52822
2.50743
2.48757
2.46612
2.4424
2.41798
2.39378
2.37053
2.34868
2.32842
2.30441
2.28923
2.27577
2.26577
2.27222
2.26766
2.26648
2.27427
2.28295
2.29433
2.52535
2.50427
2.47756
2.4539
2.4316
2.40679
2.38026
2.35336
2.32757
2.30331
2.28215
2.25888
2.25135
2.23664
2.2385
2.24451
2.23106
2.24037
2.26022
2.27837
2.51888
2.49709
2.47323
2.44769
2.42044
2.39171
2.36221
2.33229
2.3046
2.27842
2.25482
2.23336
2.21852
2.20463
2.20186
2.21058
2.21837
2.20604
2.2306
2.25508
2.52168
2.49472
2.46717
2.43826
2.40821
2.37738
2.3462
2.31454
2.28516
2.25765
2.23192
2.20953
2.1913
2.18007
2.17793
2.18515
2.18062
2.18442
2.1885
2.23972
2.51795
2.49057
2.46092
2.43004
2.3984
2.3661
2.33331
2.29988
2.26873
2.2387
2.21105
2.18684
2.1678
2.15608
2.15103
2.15382
2.15805
2.17135
2.18354
2.20619
2.51459
2.48518
2.45446
2.42271
2.39008
2.35638
2.32256
2.28808
2.25442
2.22265
2.19339
2.16785
2.14801
2.13427
2.12942
2.13138
2.13777
2.15381
2.17058
2.19725
2.51171
2.48133
2.44955
2.41662
2.38268
2.34825
2.31336
2.27845
2.2442
2.21022
2.17928
2.15243
2.13057
2.11597
2.11044
2.11222
2.12177
2.13811
2.16102
2.18966
2.51007
2.47836
2.44532
2.41126
2.37659
2.34159
2.30639
2.27129
2.23647
2.20249
2.16944
2.14093
2.11749
2.1014
2.09441
2.09702
2.10764
2.12479
2.15151
2.18451
2.50888
2.47588
2.44166
2.40672
2.37146
2.33619
2.3011
2.26632
2.23178
2.19766
2.16517
2.13414
2.1091
2.0905
2.08204
2.08501
2.0963
2.11755
2.14556
2.18012
2.50817
2.47389
2.43862
2.40289
2.36719
2.33188
2.29719
2.26313
2.22945
2.19618
2.16356
2.13276
2.10451
2.08469
2.07439
2.07738
2.09029
2.11313
2.1424
2.17853
2.50788
2.4724
2.43615
2.39972
2.36372
2.32852
2.29438
2.26123
2.22862
2.19684
2.16513
2.13433
2.10456
2.08344
2.07158
2.07504
2.08961
2.11216
2.14372
2.18074
2.50808
2.4715
2.43428
2.39723
2.36102
2.32597
2.29237
2.2601
2.22876
2.19885
2.16896
2.13868
2.11037
2.08567
2.07407
2.07767
2.0932
2.11734
2.1499
2.18733
2.50876
2.47113
2.43315
2.39563
2.35922
2.32423
2.29106
2.25962
2.22933
2.20067
2.17345
2.1448
2.11789
2.09217
2.08204
2.08542
2.10172
2.12673
2.15925
2.19756
2.51
2.47145
2.43283
2.395
2.35862
2.32368
2.29093
2.25914
2.22826
2.20008
2.17469
2.14943
2.12495
2.10332
2.0938
2.09759
2.11421
2.13973
2.17272
2.21108
2.5118
2.47245
2.43337
2.39547
2.35933
2.32513
2.29148
2.258
2.22733
2.19988
2.17564
2.15388
2.13401
2.11665
2.10814
2.1123
2.12994
2.15576
2.18871
2.22684
2.51421
2.47427
2.43498
2.39762
2.36233
2.32708
2.2921
2.25874
2.22777
2.2003
2.17716
2.15749
2.14338
2.13167
2.12494
2.13095
2.14698
2.17408
2.20698
2.24361
2.5174
2.47711
2.43791
2.40211
2.3666
2.33083
2.29543
2.26171
2.23004
2.20244
2.17984
2.162
2.15246
2.1455
2.14502
2.15095
2.16713
2.1927
2.22396
2.26137
2.52118
2.48091
2.44222
2.40796
2.37027
2.33587
2.30117
2.26683
2.23467
2.20712
2.18509
2.16919
2.16297
2.15957
2.16296
2.1731
2.18919
2.21361
2.24379
2.278
2.52468
2.48453
2.44736
2.41255
2.37668
2.34346
2.30898
2.27457
2.24203
2.2149
2.19438
2.17978
2.17449
2.17452
2.18105
2.19436
2.209
2.23435
2.26231
2.29386
2.52904
2.48924
2.45099
2.41751
2.38434
2.35109
2.31763
2.28437
2.25071
2.22582
2.20962
2.19303
2.18798
2.18985
2.19817
2.21207
2.23001
2.25381
2.28033
2.30971
2.53339
2.49425
2.45701
2.42435
2.39049
2.35859
2.32767
2.29603
2.26383
2.23828
2.22482
2.2082
2.20363
2.20633
2.21544
2.22991
2.24901
2.27147
2.29752
2.32529
2.53727
2.49888
2.46176
2.42709
2.39743
2.3684
2.33808
2.30839
2.28059
2.25788
2.23476
2.22497
2.22126
2.22402
2.23272
2.24711
2.26626
2.28772
2.31325
2.34085
2.54041
2.50342
2.46667
2.43224
2.39947
2.37657
2.34948
2.31911
2.29418
2.27247
2.25095
2.24871
2.23997
2.2418
2.2501
2.26423
2.28384
2.30119
2.32722
2.35468
2.54215
2.50726
2.47199
2.43786
2.40678
2.37854
2.35607
2.32847
2.30551
2.2886
2.26984
2.26271
2.25655
2.26104
2.26623
2.27981
2.29705
2.31744
2.3406
2.36541
2.54188
2.50949
2.47652
2.44363
2.4116
2.38348
2.36323
2.32705
2.3144
2.30391
2.28019
2.28234
2.26841
2.27726
2.28211
2.29453
2.31052
2.33057
2.35208
2.37628
2.53918
2.50913
2.47869
2.44832
2.41867
2.39061
2.36468
2.33837
2.3177
2.30206
2.29099
2.29212
2.28759
2.29033
2.29652
2.30686
2.32431
2.34292
2.36266
2.38675
2.53377
2.50584
2.4776
2.44967
2.42213
2.39567
2.37048
2.34617
2.32531
2.30722
2.29517
2.29139
2.29266
2.29796
2.30548
2.31787
2.33478
2.35188
2.37172
2.3946
2.52661
2.50046
2.47408
2.44785
2.42195
2.397
2.37271
2.34991
2.32997
2.31305
2.30235
2.29812
2.29768
2.30113
2.30913
2.32127
2.33947
2.3547
2.38001
2.40342