/*--------------------------------*- C++ -*----------------------------------*\
  =========                 |
  \\      /  F ield         | OpenFOAM: The Open Source CFD Toolbox
   \\    /   O peration     | Website:  https://openfoam.org
    \\  /    A nd           | Version:  10
     \\/     M anipulation  |
\*---------------------------------------------------------------------------*/
FoamFile
{
    format      ascii;
    class       volScalarField;
    location    "0.648748";
    object      T;
}
// * * * * * * * * * * * * * * * * * * * * * * * * * * * * * * * * * * * * * //

dimensions      [0 0 0 1 0 0 0];

internalField   nonuniform List<scalar> 
15984
(
0.00875857
0.00875697
0.00875521
0.00875404
0.00875346
0.00875304
0.00875246
0.00875251
0.00875298
0.00875334
0.00875511
0.0087569
0.0087589
0.00876107
0.00876364
0.00876626
0.00876941
0.00877189
0.00877521
0.00877794
0.00878083
0.00878394
0.00878695
0.00879018
0.0087931
0.00879586
0.00879856
0.00880096
0.00880334
0.00880548
0.00880741
0.00880925
0.00881082
0.00881238
0.00881353
0.00881455
0.00881541
0.00881589
0.00881591
0.00881582
0.00881551
0.00881506
0.00881403
0.00881368
0.00881137
0.00881081
0.00880759
0.0088067
0.00880325
0.00880158
0.00879782
0.00879556
0.00879137
0.0087884
0.00876359
0.0087617
0.00875889
0.00875874
0.00875736
0.00875608
0.00875542
0.00875578
0.00875598
0.00875751
0.00875914
0.00876032
0.00876216
0.00876358
0.00876581
0.00876823
0.00877057
0.00877345
0.00877612
0.00877927
0.00878206
0.00878538
0.00878853
0.00879162
0.00879464
0.00879767
0.00880036
0.00880301
0.00880548
0.00880777
0.00880994
0.00881203
0.00881393
0.00881552
0.00881693
0.00881793
0.00881895
0.00881944
0.00881945
0.00881937
0.008819
0.0088184
0.00881722
0.00881585
0.00881389
0.00881223
0.00880896
0.00880783
0.00880265
0.00880251
0.00879565
0.00879579
0.00878663
0.00878763
0.00876905
0.00876589
0.00876287
0.00876092
0.00876056
0.00876076
0.00876108
0.00876124
0.0087614
0.00876146
0.00876192
0.0087624
0.00876381
0.00876519
0.00876736
0.00876939
0.00877213
0.00877462
0.00877758
0.0087803
0.00878344
0.00878649
0.00878973
0.00879286
0.00879629
0.00879916
0.00880226
0.00880506
0.00880778
0.00881043
0.00881281
0.00881502
0.00881712
0.00881885
0.0088205
0.00882154
0.00882271
0.00882319
0.00882312
0.00882309
0.00882246
0.00882161
0.00882048
0.00881836
0.00881678
0.00881375
0.00881148
0.00880669
0.008806
0.0087982
0.00879837
0.0087884
0.00878997
0.00878013
0.00877328
0.00877062
0.00877019
0.00876779
0.0087661
0.00876479
0.00876356
0.00876326
0.00876315
0.00876348
0.00876399
0.00876492
0.00876591
0.00876735
0.0087689
0.00877113
0.00877314
0.00877623
0.00877831
0.00878159
0.00878437
0.00878771
0.00879088
0.00879443
0.00879749
0.00880101
0.00880404
0.00880725
0.00881018
0.008813
0.00881576
0.00881813
0.00882046
0.00882239
0.00882424
0.00882542
0.00882659
0.00882712
0.00882705
0.00882701
0.00882619
0.00882511
0.00882381
0.00882126
0.00881932
0.00881606
0.00881252
0.00880963
0.00880427
0.0088006
0.00879453
0.00879015
0.00878291
0.00877684
0.00877716
0.00877587
0.00877367
0.00877215
0.00877
0.00876955
0.00876819
0.00876743
0.00876714
0.00876691
0.008767
0.00876733
0.00876812
0.00876906
0.00877067
0.00877245
0.00877471
0.00877702
0.00877968
0.00878243
0.00878556
0.00878862
0.00879222
0.00879585
0.00879935
0.00880286
0.00880643
0.0088097
0.00881296
0.00881605
0.00881887
0.00882159
0.00882414
0.00882629
0.00882817
0.0088296
0.0088307
0.00883142
0.00883133
0.00883128
0.00883027
0.00882898
0.00882755
0.00882446
0.00882264
0.00881817
0.00881537
0.0088104
0.00880555
0.00880055
0.0087943
0.00878776
0.00878076
0.00877371
0.00878126
0.00877937
0.00877731
0.00877537
0.00877372
0.00877232
0.00877126
0.00877038
0.00876968
0.00876936
0.00876919
0.00876938
0.00876988
0.00877082
0.00877226
0.00877382
0.00877588
0.00877818
0.00878067
0.00878361
0.0087865
0.00879007
0.00879345
0.00879727
0.00880109
0.00880492
0.00880879
0.00881235
0.00881593
0.00881931
0.00882247
0.00882535
0.00882806
0.00883043
0.0088324
0.00883411
0.00883515
0.00883608
0.00883592
0.00883587
0.00883465
0.00883323
0.00883144
0.0088283
0.00882568
0.00882117
0.00881791
0.00881169
0.00880725
0.00880053
0.00879374
0.00878665
0.00877849
0.00876997
0.00878566
0.00878288
0.00878075
0.00877884
0.00877712
0.00877545
0.00877452
0.00877333
0.0087727
0.00877199
0.00877168
0.00877169
0.00877193
0.00877264
0.00877362
0.00877526
0.00877707
0.00877928
0.00878198
0.00878461
0.00878783
0.00879132
0.00879518
0.00879909
0.00880315
0.00880732
0.00881116
0.00881514
0.00881883
0.00882251
0.0088259
0.00882911
0.00883205
0.00883474
0.00883691
0.0088388
0.0088399
0.00884095
0.00884078
0.0088406
0.00883934
0.00883829
0.00883507
0.00883313
0.00882854
0.00882504
0.00881993
0.00881423
0.00880853
0.00880078
0.00879394
0.00878531
0.0087761
0.00876712
0.0087874
0.008785
0.00878338
0.00878207
0.00878063
0.00877974
0.00877799
0.00877709
0.00877593
0.00877481
0.00877424
0.00877377
0.00877384
0.00877418
0.00877511
0.00877643
0.00877821
0.00878047
0.00878294
0.00878582
0.0087892
0.00879276
0.00879663
0.00880075
0.00880508
0.0088094
0.00881376
0.00881796
0.008822
0.00882598
0.00882969
0.00883325
0.00883658
0.00883942
0.00884181
0.00884381
0.00884515
0.00884611
0.008846
0.0088457
0.00884449
0.00884264
0.00884069
0.00883664
0.00883365
0.00882786
0.00882359
0.00881605
0.00881044
0.00880173
0.00879415
0.0087835
0.00877485
0.00876424
0.00879179
0.00878981
0.00878786
0.00878544
0.0087838
0.00878183
0.00878005
0.00877875
0.008777
0.0087761
0.00877494
0.00877494
0.00877501
0.00877533
0.00877631
0.0087773
0.00877914
0.00878127
0.00878387
0.00878678
0.00879018
0.00879396
0.00879797
0.00880241
0.00880699
0.00881154
0.00881631
0.00882083
0.0088254
0.00882971
0.00883384
0.00883766
0.00884122
0.0088443
0.00884695
0.00884905
0.00885065
0.00885158
0.0088516
0.00885096
0.00885057
0.00884771
0.00884612
0.00884064
0.00883902
0.00883018
0.00882918
0.00881638
0.0088154
0.00880029
0.0087956
0.00878137
0.00877522
0.00876112
0.00879251
0.00879114
0.00879011
0.00878971
0.0087877
0.00878457
0.00878349
0.00878115
0.00877972
0.00877749
0.00877778
0.00877701
0.00877679
0.00877692
0.0087774
0.00877841
0.00878012
0.00878222
0.00878487
0.00878799
0.00879137
0.00879519
0.00879948
0.00880401
0.00880893
0.0088139
0.008819
0.00882411
0.00882881
0.00883374
0.00883807
0.00884223
0.00884607
0.00884948
0.00885229
0.00885462
0.00885636
0.0088574
0.00885755
0.00885688
0.00885624
0.00885347
0.00885116
0.00884607
0.00884355
0.00883447
0.00883374
0.00881812
0.00881862
0.00879983
0.00880027
0.00877837
0.00878155
0.00875178
0.00879737
0.00879516
0.00879312
0.00879098
0.00878939
0.00878674
0.0087855
0.00878306
0.0087819
0.00878092
0.00877964
0.00877782
0.00877609
0.00877616
0.00877677
0.0087785
0.00878098
0.00878314
0.00878599
0.00878869
0.00879222
0.00879615
0.00880066
0.00880546
0.00881081
0.00881617
0.00882175
0.0088272
0.00883236
0.00883765
0.00884241
0.008847
0.00885121
0.00885491
0.00885807
0.00886064
0.00886257
0.00886381
0.00886389
0.00886352
0.00886185
0.00885964
0.00885696
0.00885188
0.00884782
0.00884041
0.00883514
0.00882432
0.00882077
0.00880278
0.00880202
0.00877882
0.00877818
0.00874583
0.00879852
0.00879713
0.00879512
0.00879391
0.00879075
0.00879074
0.00878651
0.00878691
0.00878448
0.00878215
0.00878007
0.00877842
0.00877874
0.00877937
0.0087801
0.00878078
0.00878244
0.00878377
0.00878581
0.0087877
0.00879177
0.00879624
0.00880162
0.00880724
0.00881315
0.00881892
0.00882493
0.00883066
0.00883644
0.00884186
0.0088471
0.00885211
0.00885664
0.00886075
0.00886419
0.00886694
0.00886906
0.00887027
0.00887047
0.00886989
0.0088688
0.00886629
0.00886282
0.00885744
0.00885553
0.00884222
0.00884299
0.00882502
0.00882541
0.00880364
0.00880383
0.00877745
0.00877792
0.00872341
0.00879965
0.0087987
0.00879684
0.00879508
0.00879286
0.00879129
0.0087899
0.00878782
0.0087853
0.00878351
0.00878188
0.00878131
0.00878001
0.00877998
0.00877975
0.00878032
0.00878184
0.00878457
0.00878637
0.00879027
0.0087912
0.00879687
0.00880214
0.00880828
0.00881492
0.00882135
0.00882787
0.00883403
0.0088402
0.00884607
0.0088518
0.00885701
0.00886193
0.0088664
0.00887029
0.00887344
0.00887572
0.00887729
0.00887755
0.0088772
0.00887504
0.00887418
0.0088681
0.00886672
0.00885503
0.00885601
0.00883819
0.00883926
0.00881961
0.00881957
0.0087895
0.00878987
0.00873827
0.00866293
0.00880012
0.00879898
0.00879815
0.00879622
0.00879476
0.00879216
0.00879054
0.00878764
0.00878763
0.00878309
0.0087841
0.00878098
0.00878125
0.00878046
0.00878081
0.00878085
0.00878136
0.00878305
0.00878601
0.00879
0.00879468
0.00879942
0.00880466
0.0088105
0.00881663
0.00882338
0.00883014
0.00883687
0.0088438
0.00885021
0.00885657
0.00886224
0.00886765
0.00887266
0.00887695
0.00888046
0.00888313
0.00888489
0.00888494
0.00888453
0.00888251
0.00888044
0.00887592
0.00887091
0.00886479
0.00885638
0.00884917
0.00884028
0.00882546
0.00881947
0.00877868
0.00877233
0.00858166
0.00859846
0.00879919
0.00879891
0.00879777
0.00879689
0.0087951
0.00879422
0.00879159
0.00878981
0.00878722
0.00878572
0.00878325
0.00878259
0.00878035
0.00878087
0.00878049
0.00878109
0.00878243
0.00878457
0.00878634
0.00879081
0.00879187
0.00879851
0.0088046
0.00881154
0.00881864
0.00882623
0.00883351
0.00884064
0.00884761
0.00885443
0.00886136
0.00886779
0.0088738
0.00887937
0.00888414
0.00888794
0.00889076
0.00889262
0.00889271
0.00889206
0.00889084
0.00888735
0.00888299
0.00887851
0.00887009
0.00886363
0.0088541
0.00884445
0.00882682
0.00882189
0.00872459
0.00872233
0.008228
0.00821102
0.0087992
0.00879889
0.00879827
0.00879678
0.00879575
0.00879366
0.00879239
0.00878982
0.00878846
0.00878554
0.00878444
0.0087817
0.00878177
0.00877997
0.00878007
0.00878056
0.00878222
0.00878372
0.00878696
0.00878844
0.00879487
0.00879892
0.00880545
0.00881265
0.00882037
0.00882827
0.00883624
0.00884418
0.00885191
0.00885929
0.00886676
0.00887365
0.00888016
0.00888613
0.00889108
0.00889504
0.00889804
0.00890016
0.00890041
0.00889993
0.00889807
0.00889516
0.0088902
0.00888613
0.00887434
0.00887436
0.00885698
0.00885726
0.00881926
0.00881613
0.00854453
0.00850773
0.00722967
0.00553549
0.00879721
0.00879839
0.00879787
0.00879733
0.00879528
0.00879503
0.00879213
0.00879086
0.00878824
0.00878663
0.00878407
0.00878281
0.00878021
0.00878064
0.00877944
0.00878003
0.00878139
0.00878363
0.00878569
0.00879006
0.00879337
0.00879973
0.00880629
0.00881387
0.00882199
0.00883079
0.00883915
0.00884767
0.0088554
0.00886341
0.00887133
0.0088789
0.00888619
0.00889292
0.00889865
0.00890324
0.00890645
0.00890856
0.00890872
0.00890817
0.00890623
0.00890293
0.00889918
0.00888905
0.00888855
0.00887216
0.00887296
0.00885514
0.0087811
0.00871824
0.00801239
0.0067351
0.00550285
0.00485698
0.00879433
0.00879625
0.00879642
0.00879637
0.00879609
0.00879466
0.0087939
0.00879176
0.00878928
0.00878658
0.00878409
0.00878185
0.00878026
0.00877863
0.00877874
0.00877872
0.00877965
0.00878266
0.00878428
0.00879038
0.00879109
0.0087991
0.00880603
0.00881381
0.00882225
0.00883163
0.00884095
0.00885018
0.00885908
0.0088679
0.00887697
0.00888563
0.00889347
0.00890043
0.00890632
0.00891118
0.00891469
0.0089175
0.00891783
0.00891727
0.0089148
0.00891212
0.00890472
0.00890111
0.00888834
0.00888853
0.00886973
0.00884742
0.00858693
0.00814542
0.00641488
0.00508779
0.00456915
0.0044268
0.00878856
0.00879339
0.00879432
0.00879556
0.00879561
0.00879444
0.0087932
0.0087911
0.0087892
0.00878671
0.00878377
0.00878095
0.00877971
0.00877671
0.00877694
0.00877751
0.00877785
0.00877913
0.00878332
0.00878441
0.008795
0.00879638
0.00880629
0.00881447
0.00882341
0.00883322
0.00884343
0.00885389
0.00886383
0.0088732
0.00888226
0.00889149
0.00890002
0.00890781
0.00891427
0.00891935
0.00892305
0.00892544
0.00892517
0.00892457
0.00892173
0.00891709
0.00891326
0.00890517
0.00890249
0.00888924
0.00886801
0.00865227
0.00811078
0.00609964
0.00497199
0.0045696
0.00445287
0.00440699
0.00877398
0.00878413
0.00879114
0.008793
0.0087947
0.00879458
0.0087937
0.00879091
0.00878809
0.00878554
0.00878274
0.00878002
0.00877764
0.00877601
0.00877446
0.00877469
0.00877581
0.00877753
0.00878224
0.00878142
0.00879263
0.00879623
0.00880573
0.00881476
0.0088246
0.00883491
0.00884542
0.00885638
0.00886723
0.00887754
0.00888751
0.00889711
0.00890609
0.00891452
0.00892171
0.00892738
0.0089314
0.00893363
0.00893331
0.00893258
0.00892963
0.00892565
0.00892066
0.00891537
0.00891095
0.00888834
0.00874823
0.00812778
0.00610906
0.00491147
0.00452725
0.00443066
0.00440581
0.00439424
0.00871643
0.00875157
0.00877573
0.00878528
0.00879229
0.00879362
0.00879316
0.00879223
0.00878886
0.0087852
0.00878318
0.00877904
0.00877567
0.00877341
0.00877157
0.00877157
0.0087722
0.00877485
0.00877612
0.00878495
0.00878713
0.00879729
0.00880443
0.00881388
0.00882475
0.00883648
0.00884853
0.00886012
0.00887189
0.00888328
0.00889359
0.00890328
0.00891258
0.00892164
0.0089294
0.00893537
0.00893968
0.00894179
0.00894145
0.00894044
0.00893713
0.00893309
0.00892769
0.00892557
0.00891338
0.00882405
0.00827613
0.00629517
0.00489206
0.00451578
0.00443809
0.00441755
0.00440719
0.0044008
0.00853933
0.00865342
0.00872146
0.00875874
0.00877871
0.00878899
0.00879172
0.0087917
0.00878996
0.00878681
0.00878256
0.00877875
0.00877475
0.00877217
0.00876926
0.00876879
0.00876915
0.00877038
0.00877671
0.0087757
0.00879097
0.00879074
0.00880398
0.00881399
0.00882529
0.00883757
0.00885053
0.00886368
0.00887735
0.00889075
0.00890312
0.00891284
0.00892127
0.00892943
0.00893711
0.00894324
0.0089479
0.00894965
0.00894932
0.00894777
0.00894407
0.00893976
0.00893794
0.00893205
0.00888552
0.00850898
0.00667047
0.00493163
0.00451847
0.00444651
0.00442934
0.00441935
0.0044122
0.00441053
0.00809247
0.00840029
0.00857997
0.00868285
0.00873891
0.00876868
0.00878394
0.00878795
0.00878837
0.00878613
0.00878225
0.00877698
0.00877345
0.0087665
0.00876626
0.00876475
0.00876542
0.00876693
0.00876841
0.00877609
0.00877705
0.00878777
0.00879692
0.00879871
0.00882081
0.00883349
0.00884824
0.00886314
0.0088777
0.00889327
0.00890863
0.00892127
0.00893127
0.00893973
0.00894655
0.00895203
0.00895609
0.00895694
0.0089564
0.00895402
0.00895043
0.00894774
0.00894768
0.0089321
0.00871434
0.00735648
0.00503263
0.00452663
0.00445495
0.00444133
0.00443254
0.00442477
0.00442081
0.00442636
0.00730992
0.00790395
0.00829072
0.00852161
0.00865087
0.00872112
0.00875871
0.00877687
0.00878179
0.00878336
0.00878004
0.00877536
0.00877218
0.0087659
0.00876475
0.00875933
0.00875853
0.00875886
0.00875888
0.00874842
0.00875096
0.00875117
0.00875603
0.00877073
0.0087699
0.00879699
0.00882027
0.00884887
0.00887412
0.00889342
0.0089128
0.00892993
0.00894117
0.00894928
0.00895543
0.0089603
0.00896319
0.00896309
0.00896211
0.00895943
0.00895716
0.00895713
0.00895435
0.00886234
0.00797146
0.00529746
0.00454682
0.00446244
0.00445279
0.0044456
0.00443604
0.00443144
0.00443543
0.00445259
0.00633709
0.00715157
0.00778991
0.00821915
0.00847931
0.00862664
0.00870627
0.00874801
0.00876689
0.00877126
0.00877259
0.00876768
0.00876702
0.00875572
0.00875553
0.00873366
0.00873516
0.00870957
0.00868372
0.00867212
0.00863002
0.0085813
0.00852924
0.00852682
0.00854691
0.00855439
0.0086693
0.00875938
0.00882462
0.00886776
0.0089031
0.00892868
0.00894591
0.00895653
0.00896314
0.00896755
0.00896899
0.00896858
0.00896672
0.00896477
0.00896424
0.00896772
0.00895088
0.0084579
0.00574057
0.00457318
0.00447006
0.0044632
0.00445768
0.00444761
0.00444275
0.00444421
0.004457
0.00449377
0.00582068
0.00664561
0.00739142
0.00794489
0.00830708
0.00852604
0.00864862
0.00871162
0.00874628
0.00875755
0.00876041
0.00875622
0.00874628
0.00873464
0.00866799
0.00868297
0.0085598
0.00861392
0.00827909
0.00803263
0.00781302
0.00747647
0.00729239
0.00731322
0.00733304
0.00757439
0.00790754
0.00830858
0.00861192
0.00880489
0.00888793
0.00892715
0.00895113
0.00896327
0.00896969
0.00897274
0.00897306
0.00897191
0.00897039
0.00897046
0.0089714
0.0089761
0.00882254
0.00674967
0.0046531
0.00448125
0.00447204
0.00446878
0.00445955
0.00445324
0.00445329
0.00446091
0.00448867
0.00454968
0.00588386
0.00673117
0.00746978
0.00800357
0.00834695
0.00855037
0.00866013
0.00872141
0.00874476
0.0087462
0.00874321
0.00869724
0.0086848
0.00856489
0.0085683
0.00800822
0.00741606
0.00682364
0.00631285
0.00593436
0.00565616
0.00549287
0.00547136
0.0055237
0.00558001
0.00583753
0.00612733
0.00706377
0.0081146
0.00858642
0.00881324
0.00890973
0.00895055
0.00896732
0.00897407
0.00897596
0.00897511
0.0089739
0.00897405
0.0089752
0.00898537
0.00895451
0.00747994
0.00484322
0.00449949
0.00448012
0.00447793
0.00447088
0.00446331
0.00446223
0.00446545
0.00448294
0.00452773
0.00461797
0.0063587
0.00716731
0.00781163
0.00824208
0.00849459
0.00864852
0.00871347
0.00872855
0.00871679
0.0086979
0.00857659
0.00840195
0.0077624
0.00684627
0.00607585
0.00555495
0.00517385
0.00496341
0.00483599
0.00476126
0.00471879
0.00470985
0.00471731
0.00477876
0.00483071
0.00500863
0.00518471
0.00580305
0.0069984
0.00814562
0.00867143
0.00887357
0.00894567
0.00896948
0.00897543
0.00897584
0.00897497
0.00897522
0.0089787
0.00898624
0.00895075
0.00778703
0.00509438
0.00453466
0.00448728
0.00448422
0.00448083
0.00447263
0.00446965
0.00447037
0.00447863
0.00450672
0.00457045
0.00469479
0.0075561
0.00808931
0.00841041
0.00860839
0.00870043
0.00870769
0.00868062
0.00854454
0.0082459
0.00745286
0.00632341
0.00551298
0.00503693
0.00477259
0.00463685
0.00456662
0.00453155
0.00452032
0.00452065
0.00453042
0.00454702
0.00456997
0.00458151
0.00461813
0.00464109
0.00472464
0.00483163
0.00520246
0.00610038
0.0075433
0.00846941
0.00883918
0.00894426
0.00896888
0.00897422
0.00897431
0.0089747
0.00897836
0.00897918
0.00888017
0.00786301
0.0052919
0.0045942
0.00449633
0.00448957
0.00448839
0.00448188
0.00447621
0.00447502
0.00447761
0.00449133
0.00452838
0.00460974
0.00476704
0.00850483
0.00863574
0.00869425
0.00865792
0.008515
0.00801468
0.0069682
0.00582018
0.00510595
0.00473286
0.00456872
0.00449491
0.00448154
0.00448219
0.00449747
0.00451533
0.00454625
0.00461461
0.0046395
0.00464805
0.00464965
0.00464722
0.00463968
0.00463627
0.00464408
0.00466923
0.00474212
0.00502082
0.00595212
0.00753749
0.00848921
0.00885143
0.0089475
0.00896783
0.00897022
0.00897044
0.0089735
0.00897076
0.00884457
0.00791458
0.00545026
0.00465523
0.00450878
0.00449384
0.00449289
0.00449002
0.00448353
0.00447964
0.00447902
0.00448308
0.00449878
0.00454067
0.00463289
0.00481401
0.0082658
0.00786461
0.00722896
0.00637806
0.00552564
0.00481103
0.00454367
0.00446797
0.00444799
0.0044582
0.00448727
0.00454981
0.00463974
0.00481194
0.00493356
0.00509298
0.00522943
0.0053175
0.00534194
0.00531603
0.00522604
0.00508947
0.00497005
0.00483991
0.0047186
0.0047008
0.00475525
0.00506531
0.0060841
0.0076713
0.00857323
0.00889022
0.00895134
0.00896234
0.0089638
0.00896528
0.0089612
0.00880901
0.00800781
0.00561421
0.00472005
0.00452418
0.00449733
0.00449516
0.00449486
0.00449003
0.00448591
0.00448177
0.00448138
0.00448581
0.00450155
0.00454456
0.00464107
0.0048317
0.00517963
0.00481003
0.00454732
0.0044513
0.00442602
0.00443008
0.00445494
0.00450217
0.00459211
0.00474475
0.00497404
0.00524619
0.0058124
0.00621571
0.00667848
0.00702172
0.007182
0.00719658
0.0071524
0.0070161
0.00676454
0.00639728
0.00606566
0.00550543
0.00497227
0.00475326
0.00478255
0.00510427
0.00646405
0.00806637
0.00876172
0.00892308
0.00894911
0.00895181
0.00895121
0.00894152
0.00873233
0.00815286
0.00575549
0.00480107
0.00454065
0.00450076
0.00449712
0.00449737
0.00449503
0.00449157
0.00448692
0.00448323
0.00448274
0.00448718
0.00450182
0.00453983
0.00462563
0.00480097
0.00442198
0.00442038
0.00442899
0.00445534
0.00451176
0.00460763
0.0047545
0.00497577
0.00530607
0.00582008
0.00654775
0.00737613
0.00781371
0.00799071
0.00800294
0.00798093
0.00794209
0.00789731
0.00780479
0.00769493
0.0075208
0.00719249
0.00654176
0.00561305
0.00498247
0.00480864
0.00496659
0.00568337
0.00739191
0.00853547
0.00886725
0.00892741
0.00894096
0.00894187
0.00892612
0.00870686
0.00833618
0.00577562
0.00494093
0.00455708
0.00450418
0.00449705
0.00449741
0.00449685
0.00449403
0.00449067
0.00448688
0.00448406
0.00448408
0.00448851
0.00450253
0.00453756
0.00461385
0.0047644
0.00446006
0.00451824
0.00460572
0.00473577
0.00492333
0.00519722
0.00560149
0.00623496
0.00710275
0.00789054
0.00825981
0.00832357
0.00825467
0.00808161
0.00779288
0.00751974
0.00719528
0.00741884
0.0077109
0.0076958
0.00753184
0.00713277
0.00633866
0.0053717
0.00494638
0.00489371
0.00515543
0.00668708
0.00826598
0.00877709
0.00889476
0.00891895
0.00890155
0.00885086
0.0086694
0.00847148
0.00573688
0.00503866
0.00459384
0.00450581
0.00449537
0.00449542
0.00449626
0.00449404
0.00449226
0.00448968
0.00448586
0.00448249
0.00448117
0.00448294
0.00449148
0.00451587
0.00457337
0.00469211
0.00473063
0.0048865
0.00510122
0.00539925
0.00582086
0.00645269
0.0073237
0.00807258
0.00842853
0.00850445
0.00845667
0.00823846
0.00773357
0.00702293
0.00652926
0.00637342
0.00644198
0.00681975
0.00730073
0.00740832
0.00715296
0.00646971
0.00564128
0.00518832
0.00510301
0.00529016
0.0064904
0.00796326
0.00868985
0.00885158
0.00889144
0.00888665
0.00889224
0.00885439
0.00854764
0.00564728
0.00511451
0.00462986
0.00451237
0.00449205
0.00449178
0.0044936
0.00449299
0.00449166
0.00449034
0.00448682
0.00448346
0.00447817
0.0044719
0.0044684
0.00446842
0.0044756
0.00450048
0.00456309
0.00527899
0.00559192
0.00600861
0.00656859
0.00730009
0.00809617
0.00844118
0.00859079
0.00858954
0.00849888
0.00823471
0.007813
0.00722559
0.00652947
0.00620604
0.00612831
0.0061452
0.00626719
0.00639074
0.00641205
0.00607328
0.00562308
0.00539017
0.00526144
0.00531891
0.00649459
0.00801675
0.00856118
0.00880931
0.00884528
0.00885271
0.00887694
0.00853791
0.00807308
0.00596531
0.00505525
0.004681
0.00451254
0.00449172
0.00448648
0.00448965
0.0044905
0.00448964
0.00448939
0.00448675
0.00448369
0.0044798
0.00447419
0.00446809
0.00445917
0.00445291
0.00445156
0.00445605
0.00447627
0.00614504
0.0066428
0.00726163
0.00787496
0.00846378
0.00856314
0.00865397
0.00864293
0.00858725
0.00843629
0.00813185
0.00769073
0.0071231
0.00652528
0.00619719
0.00610383
0.00605665
0.00604292
0.00599227
0.0059215
0.00574706
0.00564462
0.00561733
0.00587492
0.00695989
0.00803315
0.00853783
0.00878926
0.00881658
0.00884968
0.00887334
0.00843437
0.00840635
0.00590164
0.00511828
0.00464001
0.00453744
0.00448401
0.00448249
0.00448325
0.00448578
0.00448596
0.00448637
0.00448433
0.00448345
0.00447834
0.00447572
0.00446886
0.00446382
0.00445462
0.00444614
0.00443715
0.00443187
0.00443359
0.00717716
0.00775028
0.00819403
0.00860304
0.00859331
0.00866836
0.00866771
0.00866869
0.00862177
0.00850577
0.00832962
0.00800793
0.00755297
0.00699426
0.00648862
0.00629189
0.00613924
0.00612527
0.00603955
0.00600349
0.00597097
0.00611727
0.00664535
0.00747719
0.00822509
0.00863054
0.00870885
0.00874877
0.00877783
0.00866522
0.00843721
0.00834848
0.00540917
0.0053213
0.00464366
0.00453256
0.0044815
0.00447507
0.00447635
0.00447926
0.00448071
0.00448142
0.00448069
0.00448068
0.00447715
0.00447463
0.00446967
0.00446448
0.00445794
0.00445008
0.00444129
0.00443064
0.0044192
0.00441079
0.00807477
0.00836584
0.00862324
0.00859474
0.00866186
0.00867695
0.0086953
0.00868842
0.00865611
0.00858841
0.00847929
0.00832159
0.0080722
0.00774051
0.00735936
0.00700399
0.00672408
0.0067097
0.00664815
0.00676086
0.0070577
0.00750098
0.00801987
0.00852224
0.00855235
0.00868059
0.00867606
0.00867542
0.00856256
0.00854956
0.00725438
0.00505655
0.0052186
0.00465344
0.00453661
0.0044736
0.00446833
0.00446854
0.00447238
0.0044747
0.00447662
0.00447673
0.00447779
0.00447547
0.00447385
0.00447005
0.00446567
0.00445992
0.00445293
0.00444441
0.00443469
0.00442389
0.00441261
0.00440085
0.00839841
0.00861243
0.00858225
0.00865592
0.00867638
0.00870037
0.00869929
0.00869929
0.00868525
0.00865746
0.00861241
0.00854283
0.00843762
0.00829521
0.00812849
0.00796267
0.00787519
0.00784136
0.00783294
0.00798219
0.00816141
0.00847393
0.00852029
0.0086661
0.00865493
0.00867867
0.00867504
0.00865205
0.00854106
0.00589162
0.00587435
0.00478896
0.00475136
0.00450405
0.00447776
0.0044595
0.00446171
0.00446466
0.00446779
0.00446963
0.00447004
0.0044716
0.00447212
0.00446962
0.00446873
0.00446385
0.00445971
0.00445399
0.00444674
0.0044393
0.00443009
0.00442066
0.00440985
0.00439854
0.00860608
0.00854802
0.00865301
0.00866149
0.00869629
0.00869721
0.00870225
0.0087006
0.00869786
0.00868854
0.00867502
0.00865188
0.00861751
0.00857464
0.00852514
0.00846091
0.00845937
0.00844468
0.00846773
0.00854146
0.00858088
0.0086427
0.0086385
0.00865253
0.00862506
0.00854028
0.00826622
0.00735885
0.00547236
0.00556664
0.0049759
0.00458792
0.00454952
0.00445926
0.00445526
0.00445118
0.00445641
0.00445909
0.00446182
0.00446424
0.00446519
0.00446661
0.00446489
0.0044655
0.00446084
0.00445905
0.00445295
0.00444888
0.00444144
0.00443394
0.00442422
0.004414
0.00440341
0.0043925
0.00855816
0.00857766
0.00864318
0.00869365
0.00868654
0.0086968
0.00869774
0.00869978
0.00869972
0.00869876
0.00869745
0.0086927
0.00868431
0.00867173
0.00865625
0.00864211
0.00862953
0.00862216
0.00861905
0.00861681
0.00861031
0.00859466
0.0085399
0.00845647
0.00828009
0.00776475
0.00673993
0.00565319
0.00500033
0.00502279
0.00457274
0.00451078
0.00445111
0.00444743
0.0044446
0.00444826
0.00445207
0.00445472
0.00445759
0.00445872
0.00446015
0.00445961
0.00446129
0.00445646
0.00445648
0.00444995
0.00444695
0.00443981
0.00443408
0.00442555
0.00441753
0.00440743
0.0043977
0.00438697
0.00857221
0.00857999
0.00865789
0.00868442
0.00868433
0.00869394
0.00869607
0.00869785
0.00869948
0.00869934
0.00869906
0.00869668
0.0086922
0.00868571
0.00867763
0.00866822
0.00865789
0.00864778
0.0086359
0.00862066
0.00859948
0.00855031
0.00838932
0.00806261
0.00717035
0.00616138
0.0050792
0.00507073
0.00467851
0.00466259
0.00446738
0.00445556
0.00443894
0.00444001
0.00444053
0.00444484
0.00444751
0.00444962
0.00445129
0.00445311
0.00445414
0.00445501
0.00445065
0.00445145
0.00444746
0.00444301
0.0044394
0.00443339
0.00442762
0.00441962
0.00441117
0.0044015
0.00439175
0.00438162
0.00849221
0.00858869
0.00865512
0.00866621
0.00868707
0.0086866
0.0086917
0.008693
0.00869421
0.0086937
0.00869248
0.00868908
0.00868412
0.00867685
0.00866597
0.00865005
0.00862672
0.0085902
0.00852722
0.00842001
0.00824546
0.00791743
0.00736998
0.00628284
0.00560052
0.00495103
0.00486275
0.00462292
0.00453153
0.00448157
0.00444515
0.0044328
0.00443163
0.00443503
0.00443738
0.00444084
0.00444245
0.00444494
0.00444614
0.00444775
0.00444818
0.00444827
0.0044468
0.00444608
0.00444217
0.00443962
0.00443453
0.00442904
0.00442182
0.00441427
0.00440579
0.00439724
0.00438807
0.00437846
0.00849192
0.00855857
0.00860466
0.0086612
0.00866116
0.00867697
0.00867686
0.00868053
0.00868027
0.00867881
0.00867396
0.00866564
0.00865263
0.00863317
0.00860426
0.00856081
0.00849402
0.00839141
0.0082276
0.00794548
0.00739944
0.00653738
0.00565214
0.00516594
0.00475846
0.00471865
0.00455431
0.00449373
0.00445763
0.00443266
0.00443091
0.00442757
0.00443043
0.00443339
0.00443474
0.00443657
0.00443913
0.00444056
0.00444201
0.00444241
0.00444283
0.004442
0.00444062
0.00443948
0.00443513
0.00443241
0.00442684
0.0044221
0.0044156
0.00440942
0.00440217
0.00439464
0.00438613
0.00437697
0.00847682
0.00836795
0.00853872
0.00859096
0.0086297
0.00864954
0.00865267
0.00865503
0.00865563
0.00864805
0.00863325
0.008611
0.00857676
0.00852412
0.00844786
0.00833128
0.00814854
0.00785652
0.0073542
0.00661066
0.00580385
0.00525812
0.00479512
0.00479893
0.00456674
0.00456358
0.00446521
0.0044527
0.00443433
0.00442768
0.00442774
0.00442739
0.00442941
0.00443133
0.00443289
0.00443463
0.00443579
0.00443683
0.00443661
0.00443735
0.00443776
0.00443657
0.0044353
0.00443284
0.00442908
0.00442655
0.00442146
0.00441733
0.00441232
0.00440722
0.00440129
0.00439489
0.00438743
0.00437975
0.00780879
0.00804676
0.00841228
0.00835433
0.00849599
0.00855722
0.00857741
0.00857682
0.00858159
0.00856702
0.00853164
0.00848004
0.00840428
0.00828351
0.0081111
0.00784263
0.00741536
0.00678938
0.00608713
0.00547819
0.0050427
0.00470061
0.00466065
0.00452843
0.00452708
0.00445867
0.00445003
0.00443376
0.00443021
0.00442844
0.00442805
0.00442813
0.0044301
0.00443075
0.00443121
0.00443278
0.00443368
0.00443317
0.00443346
0.00443365
0.00443276
0.00443069
0.00442971
0.0044273
0.00442541
0.00442226
0.00441845
0.00441619
0.00441171
0.0044087
0.00440406
0.00440008
0.0043949
0.00438933
0.00628571
0.00709086
0.00759624
0.0079708
0.00794096
0.00820063
0.00821911
0.00829804
0.00829868
0.00829375
0.00822505
0.00811744
0.0079682
0.00771408
0.00734238
0.00681077
0.00621669
0.00568369
0.00521382
0.00482636
0.00470792
0.00455752
0.00456242
0.00448274
0.00447268
0.0044487
0.00443707
0.00443454
0.0044322
0.00442984
0.00443035
0.00443064
0.00443128
0.0044309
0.00443107
0.00443132
0.00443054
0.00443048
0.00442989
0.00442989
0.00442912
0.0044289
0.00442735
0.0044251
0.00442274
0.00442051
0.0044207
0.00441742
0.00441819
0.0044149
0.00441522
0.00441273
0.00441189
0.00440876
0.00507172
0.00542014
0.00586238
0.00630379
0.00680869
0.00690746
0.00713216
0.00712775
0.0071919
0.0071996
0.00713001
0.00696032
0.00675594
0.00642734
0.0060514
0.00570441
0.0053106
0.00498095
0.00477354
0.00458013
0.00458058
0.0045099
0.00450692
0.00446258
0.00445565
0.00444329
0.00443968
0.00443748
0.00443454
0.0044354
0.0044341
0.00443466
0.00443279
0.00443207
0.0044315
0.00443096
0.00443052
0.00443005
0.00442942
0.00442878
0.00442712
0.00442596
0.00442425
0.00442375
0.00442338
0.00442384
0.00442452
0.00442857
0.004429
0.00443589
0.00443809
0.00444127
0.00444133
0.00444071
0.00459229
0.00471521
0.00487037
0.00503836
0.00519639
0.00535236
0.00550259
0.00564595
0.00562809
0.00569036
0.00568914
0.0056476
0.00552492
0.00537705
0.00516913
0.00500623
0.00480127
0.0046519
0.00457836
0.00451074
0.00451629
0.00448205
0.00448069
0.00445688
0.0044545
0.00444475
0.00444493
0.00444204
0.00444312
0.00444028
0.00444086
0.00443638
0.00443689
0.00443373
0.00443363
0.00443148
0.0044308
0.004429
0.00442772
0.0044265
0.00442569
0.00442556
0.00442543
0.00442697
0.00443015
0.00443583
0.00444154