/*--------------------------------*- C++ -*----------------------------------*\
  =========                 |
  \\      /  F ield         | OpenFOAM: The Open Source CFD Toolbox
   \\    /   O peration     | Website:  https://openfoam.org
    \\  /    A nd           | Version:  10
     \\/     M anipulation  |
\*---------------------------------------------------------------------------*/
FoamFile
{
    format      ascii;
    class       volScalarField;
    location    "0.400511";
    object      rho;
}
// * * * * * * * * * * * * * * * * * * * * * * * * * * * * * * * * * * * * * //

dimensions      [1 -3 0 0 0 0 0];

internalField   nonuniform List<scalar> 
15984
(
0.988382
0.987841
0.987249
0.986544
0.985624
0.984534
0.983221
0.98156
0.979801
0.977682
0.97561
0.973403
0.971297
0.969272
0.967579
0.965989
0.964909
0.964157
0.963965
0.964204
0.965022
0.966405
0.968634
0.971127
0.974557
0.978175
0.982439
0.986943
0.991622
0.996458
1.0011
1.00565
1.00988
1.01372
1.01708
1.01994
1.02226
1.02393
1.02533
1.02585
1.02624
1.02608
1.02551
1.02471
1.02365
1.02224
1.02096
1.01925
1.01773
1.01606
1.01449
1.01294
1.01156
1.01032
0.986922
0.986427
0.985923
0.985361
0.98466
0.983719
0.982544
0.981173
0.979447
0.977603
0.975661
0.973625
0.97168
0.969827
0.968035
0.966741
0.965491
0.964953
0.964579
0.964843
0.965631
0.967023
0.968913
0.971509
0.974773
0.978246
0.982431
0.986762
0.991438
0.99611
1.00079
1.0053
1.00965
1.01338
1.01698
1.01975
1.02232
1.02407
1.02547
1.02631
1.02666
1.02657
1.02618
1.02541
1.02435
1.02311
1.02167
1.02007
1.01849
1.01681
1.01517
1.01354
1.01211
1.01059
0.985408
0.98499
0.984595
0.984142
0.983603
0.982839
0.981849
0.980646
0.979207
0.977523
0.975773
0.973976
0.972097
0.97047
0.968795
0.967544
0.966459
0.965838
0.965569
0.965822
0.96657
0.967808
0.969773
0.972217
0.97513
0.978824
0.982528
0.986993
0.99129
0.996028
1.00059
1.00506
1.00926
1.01326
1.01664
1.01978
1.02214
1.02429
1.02561
1.02667
1.02706
1.02718
1.02682
1.0262
1.02517
1.02402
1.02256
1.02104
1.01947
1.01766
1.01608
1.01432
1.01273
1.01112
0.983927
0.983556
0.983238
0.982897
0.982475
0.981947
0.981178
0.980141
0.978954
0.977521
0.976008
0.974328
0.972776
0.971145
0.969761
0.968534
0.967549
0.967086
0.966783
0.967041
0.967765
0.969027
0.970763
0.973132
0.976123
0.979257
0.983159
0.987178
0.991575
0.995989
1.00051
1.00487
1.00915
1.01292
1.01658
1.01953
1.02226
1.02421
1.02596
1.0269
1.02759
1.02771
1.02758
1.02694
1.02612
1.02498
1.02363
1.02214
1.02054
1.01876
1.01702
1.01535
1.01339
1.01191
0.982503
0.982102
0.981869
0.981664
0.981392
0.981032
0.98046
0.979714
0.978625
0.977699
0.975965
0.975105
0.973159
0.972255
0.970743
0.969745
0.968966
0.968392
0.968336
0.968506
0.969226
0.970547
0.972132
0.974404
0.977128
0.980327
0.983871
0.987744
0.991947
0.996207
1.00056
1.00488
1.00895
1.01285
1.01638
1.01947
1.02217
1.02436
1.02605
1.02729
1.02803
1.02838
1.02827
1.02782
1.02717
1.02602
1.0248
1.0234
1.02161
1.02007
1.01816
1.01636
1.01446
1.01263
0.981041
0.980695
0.980518
0.980432
0.980334
0.980103
0.979779
0.979221
0.978512
0.977582
0.976526
0.975414
0.974194
0.973045
0.971953
0.971146
0.970355
0.970078
0.969959
0.970269
0.970991
0.972125
0.973883
0.975905
0.978503
0.981539
0.98486
0.988566
0.992487
0.996631
1.0008
1.00493
1.009
1.01274
1.01631
1.01943
1.02215
1.02447
1.02627
1.02762
1.02858
1.02897
1.0291
1.02878
1.02822
1.02724
1.02603
1.02469
1.02301
1.0214
1.01944
1.01755
1.01552
1.01353
0.979611
0.979332
0.979223
0.979209
0.979244
0.979226
0.979077
0.97884
0.978262
0.977662
0.976917
0.97588
0.975138
0.974013
0.973369
0.972543
0.972106
0.971834
0.971876
0.97224
0.97296
0.974161
0.975735
0.977778
0.980118
0.982976
0.986136
0.98955
0.993422
0.997162
1.00124
1.0052
1.00907
1.01287
1.01623
1.01949
1.02219
1.02456
1.02652
1.02803
1.02903
1.02972
1.02992
1.02979
1.02934
1.02845
1.02747
1.02602
1.02454
1.02274
1.02088
1.01888
1.01668
1.01461
0.978292
0.977991
0.977956
0.978043
0.978189
0.978345
0.978424
0.978349
0.978162
0.977681
0.977299
0.976567
0.975979
0.975354
0.974698
0.974262
0.973936
0.973826
0.97399
0.974414
0.975191
0.976349
0.97783
0.979849
0.982009
0.984691
0.987639
0.990904
0.994401
0.998022
1.00185
1.00562
1.00937
1.01301
1.01639
1.01954
1.02233
1.02481
1.02681
1.02844
1.02964
1.03046
1.03078
1.03086
1.03047
1.02983
1.02882
1.02754
1.02608
1.02433
1.02235
1.02023
1.01803
1.01558
0.977007
0.97679
0.976767
0.976934
0.97721
0.977543
0.977786
0.977963
0.978
0.97791
0.977706
0.977329
0.977012
0.976627
0.976254
0.976052
0.975883
0.975951
0.976242
0.976758
0.977577
0.978726
0.980272
0.981982
0.984184
0.986654
0.989389
0.992374
0.995683
0.999104
1.00268
1.00628
1.00988
1.01331
1.01667
1.01976
1.02258
1.02508
1.02721
1.02892
1.03027
1.03118
1.03177
1.03187
1.03171
1.03119
1.03028
1.02916
1.02766
1.02587
1.02395
1.02171
1.01933
1.01661
0.975925
0.975622
0.975736
0.975962
0.97633
0.976801
0.977234
0.977653
0.977893
0.978166
0.978133
0.978155
0.97808
0.977945
0.977906
0.977855
0.977958
0.978178
0.97863
0.979261
0.980154
0.981333
0.982759
0.984515
0.986488
0.98882
0.991357
0.994179
0.997196
1.00041
1.00373
1.00711
1.01053
1.01388
1.0171
1.02017
1.02294
1.02545
1.02766
1.0295
1.03092
1.03204
1.03269
1.03303
1.03296
1.03259
1.03185
1.03068
1.0293
1.02758
1.02551
1.02321
1.02061
1.0178
0.974945
0.974699
0.974752
0.975086
0.975558
0.976117
0.976885
0.977294
0.977981
0.978227
0.978761
0.978906
0.979166
0.979354
0.979528
0.979768
0.980099
0.98055
0.981117
0.981883
0.98284
0.983981
0.985453
0.987098
0.988994
0.991151
0.993522
0.996124
0.99894
1.00192
1.00505
1.00822
1.01145
1.01465
1.01773
1.02072
1.02347
1.02596
1.02822
1.03013
1.0317
1.03289
1.03372
1.03416
1.03429
1.034
1.03335
1.03236
1.03095
1.02925
1.0271
1.0247
1.02195
1.01879
0.974051
0.973854
0.973976
0.974361
0.974885
0.975711
0.976355
0.977273
0.97783
0.978731
0.979201
0.979829
0.980325
0.980739
0.981329
0.981653
0.982413
0.982872
0.983664
0.984534
0.985587
0.986764
0.988192
0.989782
0.991623
0.993639
0.995897
0.998282
1.00091
1.00366
1.0066
1.00954
1.01261
1.0156
1.0186
1.02147
1.02415
1.02667
1.0289
1.03092
1.03252
1.03387
1.03475
1.0354
1.0356
1.03544
1.0349
1.03401
1.03262
1.03088
1.02873
1.02616
1.02311
1.01976
0.973323
0.97326
0.973392
0.973816
0.974502
0.975243
0.976211
0.977101
0.978134
0.978959
0.97984
0.980789
0.981282
0.982418
0.982727
0.983914
0.984324
0.985431
0.986232
0.987231
0.988324
0.989667
0.991027
0.992622
0.994337
0.996254
0.998353
1.00061
1.00305
1.00564
1.00832
1.01114
1.01393
1.01685
1.01965
1.02244
1.02505
1.02752
1.02975
1.03179
1.03345
1.03486
1.03586
1.03664
1.03692
1.03689
1.03642
1.03561
1.03424
1.03249
1.03029
1.02744
1.02416
1.02034
0.972931
0.972806
0.973004
0.973532
0.974162
0.975128
0.976075
0.977164
0.978341
0.97932
0.980705
0.981291
0.983017
0.983242
0.984944
0.985423
0.986739
0.987719
0.988638
0.989931
0.991067
0.992383
0.993841
0.995395
0.997043
0.998904
1.00088
1.00307
1.00538
1.00777
1.01036
1.01293
1.01565
1.01828
1.02101
1.0236
1.02618
1.02855
1.03077
1.03279
1.0345
1.03592
1.03704
1.03789
1.03824
1.0383
1.03798
1.03715
1.03587
1.03403
1.03163
1.02874
1.02433
1.02152
0.972614
0.972666
0.972869
0.973412
0.974212
0.975101
0.976208
0.97745
0.978549
0.980094
0.980929
0.982908
0.983292
0.985408
0.985813
0.987721
0.988474
0.990304
0.991147
0.992362
0.99368
0.995045
0.996433
0.998083
0.999784
1.00166
1.00353
1.00562
1.0078
1.01013
1.0125
1.01497
1.01748
1.02002
1.02258
1.02503
1.02751
1.02979
1.03196
1.0339
1.03565
1.03706
1.03828
1.03911
1.0396
1.03971
1.03944
1.03862
1.03739
1.03534
1.03274
1.02921
1.02555
1.02407
0.972683
0.972722
0.972989
0.973637
0.974351
0.975411
0.976512
0.977728
0.979165
0.980343
0.982143
0.983082
0.985274
0.985768
0.988187
0.988658
0.991082
0.991687
0.993453
0.994673
0.996109
0.99762
0.999069
1.00075
1.00241
1.00435
1.00624
1.00832
1.01036
1.01261
1.01486
1.01722
1.01956
1.02199
1.02436
1.02669
1.02903
1.03123
1.03333
1.03521
1.03692
1.03828
1.03956
1.04036
1.04098
1.04107
1.04085
1.03997
1.03866
1.03612
1.03377
1.0303
1.0306
1.03194
0.97302
0.973088
0.973438
0.974107
0.974864
0.975894
0.977069
0.97831
0.979545
0.981412
0.982325
0.984827
0.985253
0.987912
0.988617
0.991017
0.991913
0.994404
0.99511
0.996875
0.998167
0.999671
1.0013
1.00314
1.00491
1.00682
1.0087
1.0108
1.01292
1.01517
1.01733
1.01965
1.02188
1.02415
1.02642
1.02861
1.0308
1.03287
1.03487
1.03663
1.03829
1.03957
1.04083
1.04166
1.04227
1.04237
1.04214
1.04116
1.03932
1.03706
1.03626
1.03496
1.0539
1.07439
0.973585
0.9738
0.974254
0.974924
0.975664
0.976704
0.977815
0.979054
0.980459
0.981905
0.983549
0.984937
0.987037
0.988433
0.990454
0.991875
0.993572
0.994931
0.996779
0.99828
1.00004
1.00173
1.00344
1.00526
1.00722
1.00933
1.01139
1.01341
1.0155
1.0177
1.01986
1.02208
1.02426
1.02642
1.02855
1.03063
1.03265
1.03464
1.03652
1.03817
1.03973
1.04094
1.04215
1.04297
1.0435
1.04363
1.04327
1.04165
1.04017
1.03879
1.0473
1.06408
1.14403
1.32303
0.974454
0.974834
0.975403
0.976053
0.976874
0.977784
0.978849
0.980045
0.981343
0.983066
0.984046
0.986333
0.986929
0.989838
0.990334
0.993106
0.993865
0.996473
0.997271
0.999932
1.00138
1.00334
1.00523
1.00717
1.0091
1.01122
1.01352
1.01585
1.01819
1.02051
1.02275
1.02493
1.02705
1.0291
1.0311
1.03301
1.03484
1.03664
1.03833
1.03984
1.04124
1.04233
1.04349
1.04422
1.04464
1.04474
1.04369
1.04223
1.04221
1.04901
1.09165
1.20367
1.50127
1.79268
0.975667
0.976254
0.976902
0.977596
0.978356
0.979227
0.980198
0.981301
0.982476
0.983558
0.985386
0.9861
0.988679
0.989121
0.991916
0.992558
0.995556
0.996326
0.997576
0.999714
1.00148
1.00351
1.00575
1.00814
1.01076
1.01329
1.01575
1.01819
1.0206
1.02295
1.02527
1.02755
1.0297
1.03169
1.03359
1.03536
1.03704
1.03865
1.04017
1.04154
1.04279
1.04378
1.0448
1.04542
1.04575
1.04533
1.04364
1.04389
1.05291
1.10073
1.26921
1.67224
1.89462
1.98631
0.977352
0.978123
0.978846
0.979428
0.980167
0.980977
0.981896
0.982791
0.983859
0.98463
0.986028
0.98679
0.988858
0.988941
0.991712
0.992097
0.994634
0.995827
0.998544
0.998954
1.00215
1.00345
1.00556
1.00798
1.01071
1.01388
1.0171
1.02013
1.02299
1.02562
1.02804
1.03029
1.03242
1.03437
1.03621
1.03787
1.03938
1.04077
1.04213
1.04326
1.0443
1.04521
1.04603
1.0465
1.04648
1.04477
1.04495
1.05248
1.10302
1.31218
1.74641
1.97819
2.03737
2.03087
0.979286
0.980192
0.981026
0.981735
0.982221
0.982961
0.983677
0.984398
0.985092
0.985845
0.986597
0.987323
0.988423
0.989835
0.99089
0.993329
0.994456
0.997079
0.9983
1.00101
1.00268
1.00458
1.00551
1.00787
1.01076
1.01389
1.01771
1.02151
1.02491
1.02792
1.03063
1.03306
1.03525
1.03719
1.03889
1.0404
1.04173
1.04293
1.04403
1.04498
1.04577
1.04661
1.04712
1.04734
1.04594
1.04559
1.05059
1.09473
1.30948
1.78968
2.01872
2.06009
2.05476
2.0351
0.981685
0.982833
0.983728
0.984415
0.984883
0.985481
0.98582
0.986205
0.98645
0.986904
0.987289
0.98784
0.989186
0.99241
0.996462
1.00185
1.00988
1.01868
1.02386
1.02258
1.01897
1.01854
1.01659
1.01325
1.01231
1.01457
1.01778
1.02203
1.02632
1.03
1.03309
1.03577
1.03802
1.03994
1.04154
1.04289
1.04402
1.04498
1.04586
1.04658
1.04722
1.04776
1.04807
1.04707
1.04609
1.0489
1.08054
1.27072
1.78546
2.03651
2.07538
2.07179
2.05903
2.03538
0.983977
0.985473
0.986566
0.987212
0.987792
0.988173
0.9884
0.988551
0.988704
0.989327
0.989792
0.992877
0.991762
1.01478
1.04618
1.07051
1.13509
1.20761
1.21837
1.19787
1.18874
1.1078
1.05111
1.02769
1.02085
1.01822
1.01941
1.02282
1.02724
1.03152
1.03515
1.03816
1.04057
1.0425
1.04403
1.04522
1.04615
1.0469
1.0475
1.04808
1.04847
1.04877
1.04812
1.04663
1.04805
1.06744
1.21289
1.72593
2.0344
2.08352
2.08289
2.07371
2.05999
2.0416
0.986816
0.988444
0.9896
0.990285
0.990767
0.99096
0.991066
0.991157
0.991203
0.994886
1.0029
1.00694
1.068
1.16065
1.34174
1.50516
1.64168
1.73149
1.73893
1.69318
1.68639
1.52304
1.33139
1.14122
1.05083
1.02314
1.02096
1.02391
1.02839
1.03299
1.03701
1.04031
1.0429
1.04487
1.04631
1.04736
1.04814
1.04866
1.04912
1.04937
1.04954
1.04911
1.0473
1.04788
1.05937
1.16013
1.61033
2.01009
2.08644
2.08935
2.08284
2.07334
2.06174
2.04695
0.98967
0.99154
0.992832
0.993588
0.994063
0.994254
0.993854
0.997239
0.995218
1.03091
1.03209
1.2397
1.48401
1.68569
1.8128
1.88178
1.91274
1.91992
1.92034
1.89588
1.89002
1.79944
1.73273
1.41838
1.15091
1.05443
1.02584
1.02446
1.02896
1.03412
1.03864
1.04226
1.04501
1.04702
1.04839
1.04925
1.04987
1.05018
1.05035
1.05042
1.05007
1.04799
1.04811
1.05549
1.12201
1.4678
1.95611
2.08392
2.09326
2.08885
2.08101
2.07193
2.06086
2.0468
0.992814
0.994821
0.996182
0.997048
0.997295
0.99757
0.998197
1.0179
1.02661
1.20234
1.52405
1.74004
1.86863
1.9237
1.93823
1.93644
1.92921
1.90985
1.8949
1.873
1.86657
1.84843
1.8242
1.64089
1.31961
1.1039
1.03777
1.02679
1.02984
1.03513
1.04004
1.04397
1.04685
1.04886
1.05003
1.05078
1.05124
1.05142
1.05142
1.05097
1.04917
1.04824
1.05413
1.10089
1.34477
1.87365
2.074
2.09544
2.09316
2.08683
2.07917
2.0703
2.05909
2.0466
0.996338
0.998404
0.999725
1.0005
1.00161
1.00185
1.03543
1.08973
1.45654
1.73401
1.88743
1.94403
1.95522
1.94886
1.93704
1.90943
1.88182
1.8118
1.71315
1.71396
1.75805
1.80106
1.80002
1.71805
1.44115
1.15806
1.05458
1.02971
1.03045
1.03602
1.04126
1.04534
1.0483
1.05016
1.05129
1.05199
1.05233
1.05236
1.05196
1.05038
1.04839
1.05393
1.09737
1.29439
1.78755
2.05736
2.09623
2.09616
2.09134
2.0848
2.07759
2.06848
2.05794
2.0459
0.999669
1.00168
1.00287
1.00442
1.00756
1.04757
1.23452
1.6495
1.88017
1.95853
1.97303
1.9661
1.95215
1.92992
1.87863
1.83652
1.73255
1.57817
1.45342
1.4569
1.52709
1.69255
1.74714
1.69156
1.41658
1.14309
1.04932
1.0288
1.03047
1.03661
1.04215
1.04634
1.04921
1.05095
1.05199
1.05268
1.05299
1.05278
1.05102
1.04912
1.05457
1.103
1.3629
1.87134
2.06846
2.09692
2.09819
2.09463
2.08922
2.08295
2.07602
2.0672
2.05671
2.04512
1.00299
1.0051
1.00666
1.01282
1.08211
1.48552
1.86406
1.9755
1.99164
1.98534
1.97377
1.95395
1.9243
1.8718
1.78256
1.65621
1.46056
1.23651
1.18602
1.20489
1.32393
1.57414
1.69883
1.66027
1.38798
1.12661
1.03924
1.02522
1.03026
1.03687
1.04255
1.04676
1.04948
1.05118
1.05237
1.05312
1.05309
1.0514
1.05061
1.06055
1.13431
1.43676
1.8882
2.06163
2.09633
2.09983
2.09719
2.09268
2.08717
2.08104
2.07398
2.06529
2.05523
2.04418
1.00657
1.01011
1.04772
1.39465
1.82445
1.9723
2.00389
2.00353
1.99441
1.98043
1.95933
1.92523
1.86524
1.76054
1.59022
1.33112
1.12236
1.06666
1.06781
1.14299
1.3648
1.58171
1.64046
1.52459
1.23613
1.06321
1.02515
1.02315
1.03007
1.03707
1.04274
1.04665
1.04922
1.05108
1.05231
1.05244
1.05166
1.05296
1.07169
1.16817
1.50249
1.90073
2.05344
2.09416
2.09986
2.09842
2.09457
2.09001
2.08468
2.07888
2.07197
2.06365
2.05431
2.0438
1.15637
1.30804
1.62864
1.92801
2.00506
2.01522
2.01227
2.00295
1.98861
1.96709
1.93137
1.86745
1.75313
1.56392
1.27764
1.06906
1.03063
1.03538
1.12652
1.29093
1.47916
1.57074
1.55641
1.33301
1.09009
1.02825
1.01699
1.02224
1.02997
1.03714
1.04229
1.04589
1.04855
1.05034
1.05097
1.0518
1.05684
1.09023
1.22407
1.61659
1.92907
2.04642
2.0945
2.099
2.10002
2.09633
2.0925
2.08767
2.08255
2.07656
2.06995
2.06212
2.05307
2.04291
1.72216
1.84418
1.96975
2.0179
2.02282
2.01955
2.01077
1.99682
1.97578
1.94099
1.87785
1.76514
1.57642
1.29684
1.06091
1.00849
1.02763
1.12974
1.28517
1.39004
1.45627
1.45554
1.30555
1.10204
1.02674
1.01138
1.01352
1.02192
1.03013
1.03638
1.04112
1.04455
1.04701
1.0492
1.05159
1.06291
1.11853
1.32526
1.71192
1.96846
2.04683
2.09319
2.09836
2.10052
2.09763
2.09458
2.09026
2.08593
2.08083
2.07499
2.06838
2.06063
2.05183
2.04217
1.96812
2.00498
2.0243
2.02834
2.02462
2.01762
2.00452
1.98445
1.95086
1.89111
1.78621
1.61245
1.35596
1.08436
1.00541
1.00601
1.06954
1.18316
1.26714
1.312
1.31689
1.20718
1.05985
1.02155
0.999588
1.00604
1.01257
1.02196
1.02926
1.035
1.03918
1.04258
1.04589
1.05085
1.07063
1.15195
1.43725
1.78422
1.99637
2.05514
2.09043
2.09711
2.10003
2.09801
2.09589
2.0923
2.08851
2.08425
2.07937
2.07379
2.0674
2.06004
2.05142
2.04193
2.02204
2.02946
2.0319
2.02952
2.02299
2.01139
1.9923
1.96042
1.90509
1.81113
1.66005
1.43842
1.16353
1.01698
0.993877
1.00588
1.05452
1.10404
1.12575
1.13223
1.09174
1.01641
1.00445
0.991524
0.996981
1.00418
1.01298
1.02132
1.02772
1.03258
1.03687
1.04145
1.04967
1.07788
1.18149
1.52052
1.83356
2.01562
2.06008
2.08837
2.09456
2.09812
2.09703
2.09591
2.09306
2.08999
2.08643
2.0823
2.07762
2.07217
2.06602
2.05907
2.051
2.04193
2.03338
2.03479
2.03317
2.02798
2.01701
1.99957
1.96942
1.91858
1.83521
1.70607
1.52111
1.28355
1.0612
0.994585
0.983982
0.990899
1.00979
1.01927
1.02233
1.01551
0.992075
0.983915
0.982779
0.991114
0.99534
1.00473
1.01297
1.01993
1.025
1.03015
1.03568
1.04535
1.07721
1.18496
1.56079
1.89648
1.99803
2.07089
2.07989
2.09192
2.09328
2.09526
2.09398
2.09249
2.09005
2.0874
2.08419
2.08034
2.0759
2.07078
2.06487
2.05813
2.05049
2.04184
2.03885
2.03716
2.03225
2.02224
2.00636
1.97834
1.93168
1.8568
1.74489
1.58995
1.39293
1.16853
1.02189
0.982088
0.976446
0.977437
0.981203
0.981759
0.981752
0.97564
0.974176
0.975517
0.984322
0.988049
0.997135
1.00496
1.01157
1.01689
1.02277
1.02859
1.03991
1.07507
1.19174
1.56557
1.83714
2.03255
2.05109
2.07991
2.08274
2.08946
2.08995
2.09096
2.08999
2.08851
2.08663
2.08432
2.08147
2.07801
2.07392
2.06924
2.06376
2.05746
2.05016
2.04195
2.04242
2.03733
2.02819
2.01318
1.98777
1.94495
1.87706
1.7772
1.64275
1.47694
1.28929
1.10029
0.997856
0.976913
0.970886
0.969834
0.969904
0.969697
0.969021
0.969595
0.971932
0.978925
0.982618
0.990794
0.997545
1.00427
1.00908
1.01556
1.02237
1.03488
1.06769
1.17604
1.48489
1.79487
2.017
2.04128
2.07161
2.07593
2.08219
2.08373
2.08557
2.08562
2.08501
2.08397
2.08251
2.08058
2.07811
2.07511
2.0714
2.06706
2.06202
2.05606
2.04939
2.0416
2.04488
2.03562
2.02137
1.99872
1.95995
1.89856
1.80741
1.68474
1.53536
1.37007
1.20209
1.04864
0.99354
0.971877
0.969673
0.96692
0.966651
0.967031
0.968474
0.970555
0.975501
0.978639
0.985412
0.990559
0.997681
1.00135
1.00799
1.01406
1.02483
1.05351
1.14137
1.36213
1.71029
1.98047
2.0192
2.0603
2.06543
2.07298
2.07547
2.07832
2.0793
2.07961
2.07929
2.07866
2.07765
2.07612
2.07411
2.07155
2.06833
2.06455
2.05979
2.05443
2.04828
2.04102
2.04595
2.03239
2.01223
1.97877
1.9253
1.84393
1.731
1.59054
1.43503
1.2799
1.13671
1.02673
0.979996
0.972819
0.968924
0.967067
0.967236
0.968133
0.969886
0.973008
0.976016
0.980871
0.98553
0.990771
0.995345
1.00055
1.00763
1.01826
1.04192
1.10065
1.24286
1.55628
1.92144
1.97682
2.04588
2.05182
2.06199
2.06524
2.06894
2.07092
2.07214
2.07269
2.07283
2.07263
2.07208
2.071
2.06945
2.06735
2.06484
2.06149
2.05732
2.05248
2.04695
2.04051
2.04667
2.02869
2.00083
1.95714
1.88867
1.78814
1.65465
1.49921
1.34121
1.19832
1.07796
1.00997
0.973384
0.972653
0.968238
0.96703
0.967459
0.968923
0.971089
0.973944
0.977365
0.980434
0.985508
0.989287
0.994053
1.00027
1.00892
1.02468
1.06477
1.16835
1.39748
1.80696
1.91444
2.02669
2.03424
2.04987
2.05357
2.05818
2.06099
2.06287
2.06426
2.0652
2.06582
2.06601
2.06571
2.06504
2.06385
2.06234
2.06023
2.05732
2.05394
2.04969
2.04444
2.03874
2.04759
2.02569
1.99192
1.94054
1.86173
1.74819
1.60054
1.43245
1.26872
1.13399
1.04479
0.983068
0.978282
0.969507
0.968586
0.966395
0.967569
0.969167
0.971334
0.974321
0.976357
0.980659
0.983631
0.98821
0.993637
1.00061
1.01452
1.04764
1.12557
1.29514
1.64538
1.85107
2.01345
2.01229
2.03565
2.04049
2.04616
2.0498
2.05219
2.05437
2.05623
2.05719
2.05817
2.05849
2.0586
2.05825
2.05754
2.05642
2.05478
2.05246
2.04981
2.04599
2.0419
2.0364
2.04937
2.02512
1.98751
1.93165
1.84757
1.72789
1.57404
1.39928
1.22701
1.08398
1.0162
0.975181
0.975107
0.971024
0.967916
0.965894
0.967153
0.96849
0.970921
0.972902
0.976295
0.979109
0.9835
0.988775
0.996825
1.01202
1.04133
1.09995
1.24157
1.57887
1.87583
1.92452
2.00658
2.01541
2.02794
2.03361
2.03773
2.04073
2.04347
2.04592
2.04733
2.04868
2.04989
2.05045
2.05099
2.05076
2.0505
2.04969
2.04836
2.0466
2.04422
2.04108
2.03759
2.03254
2.05274
2.02838
1.99274
1.93902
1.85814
1.73828
1.57872
1.39344
1.21169
1.06586
1.0043
0.976967
0.978382
0.970525
0.965802
0.966066
0.966007
0.968011
0.970078
0.972742
0.976128
0.980385
0.98657
0.996088
1.01146
1.04058
1.10286
1.26878
1.57221
1.84221
1.86253
1.98624
2.0018
2.01273
2.02075
2.02538
2.02913
2.03188
2.03482
2.03664
2.03884
2.03994
2.04152
2.04177
2.04274
2.04259
2.0428
2.04205
2.0411
2.03975
2.03761
2.0352
2.032
2.02761
2.05609
2.03067
1.99834
1.95058
1.88186
1.77918
1.63657
1.45834
1.26616
1.09657
1.0083
0.981731
0.983908
0.970884
0.966953
0.965502
0.967102
0.968427
0.971867
0.97557
0.98152
0.989921
1.00427
1.02726
1.07249
1.16822
1.38082
1.60117
1.84387
1.85741
1.98229
1.97693
2.00138
2.00679
2.01349
2.01769
2.0204
2.02333
2.02612
2.02792
2.02984
2.03141
2.03229
2.03321
2.0337
2.03401
2.03423
2.03375
2.03307
2.03189
2.02999
2.02798
2.02506
2.02116
2.06214
2.03473
2.00862
1.97155
1.91919
1.8413
1.72703
1.5732
1.38994
1.20347
1.06622
0.986647
0.982597
0.981051
0.974353
0.969872
0.972159
0.976511
0.981487
0.992871
1.0086
1.03695
1.08745
1.1885
1.35479
1.52486
1.68541
1.80173
1.91313
1.91738
1.97865
1.98501
1.99683
2.00158
2.00645
2.00933
2.01242
2.0157
2.01764
2.01969
2.02131
2.02272
2.02346
2.02435
2.0246
2.02501
2.02494
2.02456
2.02397
2.02283
2.02134
2.01943
2.01654
2.01323
2.06631
2.03847
2.01387
1.98764
1.9517
1.90202
1.8278
1.71948
1.57318
1.39938
1.22393
1.08378
1.01819
1.00173
1.00176
0.997158
1.00048
1.01168
1.03645
1.07866
1.15356
1.28489
1.41433
1.54263
1.65653
1.76886
1.84474
1.91932
1.92342
1.96705
1.97581
1.98638
1.99141
1.99609
1.99926
2.0025
2.00587
2.00795
2.01051
2.01183
2.01351
2.01397
2.0148
2.01499
2.01517
2.01515
2.01489
2.01434
2.01382
2.01286
2.01157
2.00979
2.00766
2.00359
2.06467
2.04178
2.01785
1.99517
1.97146
1.94127
1.90115
1.84395
1.76249
1.6528
1.5185
1.37669
1.25241
1.1831
1.14549
1.15147
1.15949
1.21707
1.30543
1.42543
1.53714
1.61193
1.70385
1.7756
1.83626
1.89523
1.90286
1.9444
1.94934
1.97054
1.97589
1.98264
1.98713
1.9904
1.99383
1.99666
1.99949
2.00146
2.0037
2.00451
2.00569
2.00588
2.00616
2.00592
2.00554
2.00497
2.00426
2.00324
2.00229
2.00165
2.00091
1.99886
1.99603
1.99119
2.06552
2.0414
2.0214
1.99942
1.98046
1.96101
1.93824
1.90989
1.87174
1.82091
1.75641
1.68227
1.60914
1.5589
1.5239
1.5275
1.53114
1.58162
1.65693
1.7276
1.77243
1.82606
1.83521
1.89123
1.89622
1.92959
1.93421
1.95489
1.96002
1.97002
1.975
1.9797
1.98324
1.98652
1.9898
1.99229
1.99452
1.99682
1.9979
1.9989
1.99916
1.99881
1.99802
1.99687
1.99538
1.9936
1.99188
1.99021
1.99019
1.98881
1.98771
1.98539
1.98135
1.97785
2.06445
2.04124
2.02132
2.00266
1.98579
1.97025
1.95579
1.94045
1.92286
1.90222
1.87742
1.84975
1.8226
1.80047
1.78281
1.78492
1.78597
1.80932
1.83906
1.86536
1.87384
1.89715
1.90041
1.92407
1.92816
1.94372
1.94882
1.95862
1.96388
1.96939
1.9735
1.97755
1.9807
1.98402
1.98671
1.98929
1.99155
1.9929
1.9933
1.99349
1.99269
1.99134
1.98988
1.9875
1.98461
1.98123
1.97818
1.9768
1.97415
1.97246
1.97143
1.9692
1.96561
1.95927
2.06167
2.04062
2.02055
2.00403
1.98884
1.9761
1.9644
1.95421
1.94421
1.93453
1.92435
1.91432
1.905
1.89653
1.89244
1.89075
1.89191
1.89696
1.90547
1.91121
1.91828
1.92252
1.93088
1.93864
1.94359
1.95058
1.95579
1.96119
1.96539
1.96978
1.97317
1.97686
1.97978
1.98284
1.98507
1.98724
1.98902
1.98966
1.98982
1.98917
1.98781
1.98578
1.98263
1.97801
1.97311
1.96762
1.96417
1.96074
1.95656
1.95532
1.9559
1.95667
1.95388
1.94775
2.05801
2.03879
2.01975
2.00405
1.99092
1.97989
1.97029
1.96224
1.95499
1.94872
1.94311
1.93833
1.93415
1.93061
1.92776
1.92665
1.92668
1.92793
1.92993
1.9322
1.9351
1.93855
1.94321
1.94737
1.9516
1.95569
1.95982
1.9637
1.96713
1.97108
1.97418
1.9777
1.98059
1.98354
1.98592
1.98785
1.98918
1.98952
1.98919
1.98776
1.98496
1.98077
1.97493
1.9678
1.9599
1.95195
1.94644
1.94086
1.93694
1.93746
1.93984
1.94239
1.94031
1.93143
2.05567
2.03554
2.01838
2.00389
1.99207
1.9826
1.97465
1.96832
1.96273
1.95794
1.95408
1.95074
1.94827
1.94633
1.94446
1.94333
1.94305
1.94326
1.94386
1.94495
1.94674
1.94905
1.95177
1.95457
1.95754
1.96054
1.96404
1.96744
1.97079
1.9744
1.97745
1.98068
1.98338
1.98625
1.98788
1.98978
1.99024
1.99005
1.98882
1.98592
1.98145
1.97544
1.9674
1.95811
1.9472
1.93578
1.92635
1.91857
1.91483
1.91792
1.92594
1.93635
1.93957
1.93085
2.05063
2.03256
2.01622
2.00319
1.99286
1.98473
1.97814
1.97303
1.96862
1.96536
1.96247
1.96026
1.9584
1.95678
1.95533
1.95436
1.95402
1.95393
1.95404
1.95467
1.95582
1.95738
1.95934
1.96171
1.96424
1.96698
1.97016
1.97333
1.97662
1.97993
1.98299
1.98585
1.98854
1.99087
1.99266
1.99337
1.99351
1.99233
1.9901
1.98601
1.98011
1.97201
1.96082
1.94684
1.93095
1.9146
1.89802
1.88556
1.88059
1.88598
1.8996
1.91867
1.93863
1.95142
1.00907
1.00831
1.00726
1.00681
1.0063
1.00601
1.00585
1.00577
1.00597
1.00599
1.00623
1.0064
1.00662
1.00676
1.00667
1.00664
1.00646
1.00601
1.00546
1.00481
1.00943
1.00804
1.00737
1.00629
1.00574
1.00514
1.00477
1.00454
1.00444
1.00431
1.00436
1.00432
1.00421
1.00423
1.00409
1.00386
1.00353
1.00309
1.00251
1.00181
1.00973
1.00832
1.00718
1.00614
1.00511
1.00447
1.00379
1.00329
1.00288
1.00251
1.00234
1.00204
1.00188
1.00162
1.00132
1.001
1.0006
1.00007
0.999496
0.998786
1.01009
1.0087
1.00712
1.006
1.00463
1.00377
1.00274
1.002
1.0013
1.00067
1.00019
0.999785
0.999337
0.998963
0.998512
0.998048
0.997574
0.996959
0.996368
0.995685
1.01075
1.00903
1.00734
1.00578
1.00435
1.00292
1.00178
1.00064
0.999627
0.998803
0.998007
0.997313
0.996704
0.996087
0.995552
0.99496
0.994426
0.993809
0.993206
0.992549
1.01141
1.00957
1.00746
1.00576
1.00388
1.00221
1.00074
0.999142
0.997912
0.996682
0.995647
0.99475
0.993863
0.993097
0.99241
0.991744
0.991087
0.99049
0.989836
0.989265
1.0122
1.01014
1.0076
1.00571
1.00325
1.00144
0.999372
0.997716
0.99594
0.994481
0.993202
0.991814
0.990828
0.989873
0.989056
0.988304
0.98761
0.987009
0.986431
0.985911
1.01308
1.01056
1.00797
1.00535
1.0029
1.00043
0.99807
0.995887
0.993771
0.991973
0.990239
0.988837
0.98752
0.986457
0.985513
0.984708
0.984023
0.983408
0.98287
0.982436
1.01399
1.011
1.00818
1.00507
1.00217
0.999258
0.996429
0.993798
0.991322
0.989152
0.987092
0.985469
0.983956
0.982704
0.98165
0.980891
0.980193
0.979641
0.979208
0.978901
1.01468
1.01156
1.00807
1.0047
1.00128
0.997691
0.99455
0.991311
0.988487
0.98588
0.983558
0.981652
0.979923
0.97871
0.977626
0.976739
0.97607
0.975628
0.975333
0.975225
1.01545
1.01175
1.00791
1.00394
0.999882
0.995979
0.991929
0.988434
0.985012
0.981979
0.979533
0.977289
0.975556
0.974218
0.973092
0.972307
0.971797
0.971483
0.971419
0.971469
1.01596
1.01158
1.00728
1.00269
0.997999
0.993293
0.98892
0.98466
0.98081
0.977548
0.974661
0.972297
0.970677
0.969214
0.968271
0.967652
0.96733
0.967229
0.967327
0.967639
1.01599
1.01119
1.00629
1.0015
0.996233
0.991207
0.986111
0.981006
0.976255
0.972318
0.968939
0.966582
0.964966
0.96364
0.962937
0.96261
0.962466
0.962663
0.963037
0.963708
1.01599
1.01159
1.00728
1.00533
1.00099
0.99771
0.992973
0.985466
0.97765
0.970686
0.964903
0.961271
0.958596
0.95732
0.956485
0.9567
0.95719
0.957827
0.958653
0.959737
1.017
1.0205
1.0246
1.03699
1.04069
1.05075
1.04609
1.03129
1.01884
0.99435
0.976258
0.96375
0.956559
0.952214
0.950596
0.950493
0.951172
0.952455
0.95396
0.955598
1.04044
1.07231
1.12068
1.17589
1.22294
1.27355
1.26659
1.23897
1.20675
1.13264
1.05931
1.00591
0.973505
0.957198
0.94838
0.945492
0.945724
0.947176
0.949052
0.951193
1.16965
1.30113
1.45937
1.57433
1.62943
1.64362
1.61437
1.59414
1.5127
1.46318
1.3319
1.18062
1.05516
0.989159
0.960931
0.947993
0.942711
0.942572
0.94452
0.947121
1.57046
1.74329
1.81963
1.83093
1.80212
1.75472
1.7144
1.64178
1.61692
1.56363
1.57171
1.44479
1.2997
1.11113
1.00262
0.960632
0.94615
0.941369
0.941211
0.943455
1.89908
1.93415
1.91191
1.86679
1.80342
1.72052
1.62942
1.5576
1.53823
1.53258
1.53524
1.51774
1.47827
1.31914
1.1273
1.01506
0.962245
0.943705
0.939348
0.940156
1.99666
1.9629
1.90959
1.81647
1.66809
1.52244
1.3519
1.29553
1.29478
1.33657
1.43918
1.47099
1.48018
1.4097
1.26918
1.09572
1.00357
0.960881
0.944596
0.940297
2.00184
1.94933
1.85586
1.71916
1.54544
1.36942
1.23863
1.17442
1.15938
1.1923
1.31933
1.41362
1.43927
1.4232
1.33266
1.16874
1.05163
0.985791
0.954518
0.942655
1.99837
1.93666
1.83934
1.69965
1.52069
1.34236
1.21739
1.15458
1.12913
1.1593
1.28426
1.37686
1.40269
1.39271
1.31166
1.16147
1.0602
1.00052
0.966497
0.949288
1.99899
1.94314
1.85753
1.73862
1.56184
1.37945
1.23647
1.16136
1.13043
1.13279
1.20136
1.29474
1.32654
1.31056
1.23164
1.12394
1.0466
0.99664
0.96797
0.95217
2.01869
1.98538
1.94701
1.87191
1.78432
1.60175
1.40524
1.23777
1.15712
1.114
1.09297
1.09312
1.11353
1.11298
1.08283
1.04598
1.01161
0.983913
0.964228
0.951748
2.02695
2.00484
1.97005
1.94139
1.8752
1.82831
1.68894
1.55083
1.37627
1.2378
1.13455
1.06631
1.02702
0.99851
0.982338
0.972221
0.966154
0.959207
0.953392
0.948041
2.03097
2.01109
1.98973
1.95926
1.93894
1.88094
1.86453
1.7964
1.73356
1.65472
1.5655
1.47083
1.37083
1.28522
1.20803
1.13519
1.06873
1.01313
0.974675
0.956845
2.03112
2.01388
1.99373
1.97432
1.948
1.92588
1.89701
1.87445
1.84565
1.81847
1.7893
1.76142
1.73469
1.70669
1.67855
1.64794
1.61188
1.568
1.46587
1.29825
2.03205
2.01601
1.99869
1.97813
1.95892
1.9348
1.91349
1.89147
1.86928
1.84651
1.82485
1.80399
1.78398
1.76243
1.74135
1.71883
1.69439
1.6702
1.64633
1.62447
2.03196
2.01717
2.00063
1.98312
1.96323
1.9416
1.91955
1.89808
1.87282
1.84465
1.81415
1.78247
1.74773
1.70712
1.6644
1.61932
1.57207
1.5281
1.49006
1.46556
2.03157
2.01776
2.00215
1.98559
1.96689
1.94524
1.92391
1.89941
1.871
1.8354
1.79166
1.73897
1.67618
1.60737
1.53172
1.45494
1.376
1.30576
1.25327
1.22888
2.03175
2.01887
2.00425
1.98883
1.97044
1.95051
1.92927
1.90471
1.87503
1.83759
1.78795
1.72435
1.64493
1.54892
1.43822
1.32388
1.21429
1.11256
1.09048
1.06893
2.03142
2.01934
2.00579
1.99137
1.97518
1.95562
1.93545
1.91105
1.88142
1.84245
1.79135
1.7229
1.63574
1.52819
1.40098
1.2696
1.14339
1.04499
0.978272
0.987962
2.03135
2.01942
2.00666
1.99283
1.97843
1.96258
1.94354
1.92294
1.89664
1.86177
1.81006
1.73999
1.64492
1.52746
1.3932
1.25287
1.11862
1.02199
0.957971
0.955262
2.03151
2.01987
2.00776
1.99415
1.9806
1.96614
1.95183
1.93363
1.91521
1.89165
1.85891
1.80633
1.72431
1.60266
1.4492