/*--------------------------------*- C++ -*----------------------------------*\
  =========                 |
  \\      /  F ield         | OpenFOAM: The Open Source CFD Toolbox
   \\    /   O peration     | Website:  https://openfoam.org
    \\  /    A nd           | Version:  10
     \\/     M anipulation  |
\*---------------------------------------------------------------------------*/
FoamFile
{
    format      ascii;
    class       volVectorField;
    location    "0.400511";
    object      U;
}
// * * * * * * * * * * * * * * * * * * * * * * * * * * * * * * * * * * * * * //

dimensions      [0 1 -1 0 0 0 0];

internalField   nonuniform List<vector> 
15984
(
(0.622191 -0.0462918 0)
(0.618066 -0.0460881 0)
(0.613605 -0.0458187 0)
(0.609092 -0.0455476 0)
(0.604646 -0.0452784 0)
(0.600343 -0.0450266 0)
(0.59625 -0.044798 0)
(0.592387 -0.0445911 0)
(0.588736 -0.0443966 0)
(0.585247 -0.0441975 0)
(0.581837 -0.0439764 0)
(0.578411 -0.0437118 0)
(0.574858 -0.0433822 0)
(0.571056 -0.0429668 0)
(0.566882 -0.0424488 0)
(0.562215 -0.041813 0)
(0.556931 -0.0410492 0)
(0.55092 -0.0401509 0)
(0.544167 -0.0391082 0)
(0.536582 -0.0379666 0)
(0.528116 -0.0366523 0)
(0.518775 -0.0352399 0)
(0.508427 -0.033722 0)
(0.497173 -0.0321074 0)
(0.485156 -0.0304193 0)
(0.472511 -0.0286904 0)
(0.459419 -0.0269408 0)
(0.446056 -0.0252312 0)
(0.432662 -0.0236011 0)
(0.419477 -0.0221023 0)
(0.406739 -0.0207849 0)
(0.394663 -0.0196998 0)
(0.383432 -0.0188916 0)
(0.37321 -0.0183865 0)
(0.364121 -0.0182069 0)
(0.356249 -0.0183611 0)
(0.34964 -0.0188455 0)
(0.34431 -0.0196468 0)
(0.340254 -0.0207379 0)
(0.33743 -0.0220849 0)
(0.335779 -0.0236376 0)
(0.335234 -0.0253375 0)
(0.335727 -0.0271309 0)
(0.337181 -0.0289607 0)
(0.339547 -0.0307356 0)
(0.34274 -0.0323747 0)
(0.346633 -0.0338177 0)
(0.351166 -0.0349477 0)
(0.356259 -0.0356898 0)
(0.361813 -0.0359549 0)
(0.367753 -0.0356577 0)
(0.373979 -0.0347177 0)
(0.380404 -0.0330647 0)
(0.386933 -0.0306398 0)
(0.622408 -0.0399796 0)
(0.618333 -0.0395554 0)
(0.61389 -0.039086 0)
(0.609365 -0.0386075 0)
(0.604883 -0.0381626 0)
(0.600538 -0.037754 0)
(0.596396 -0.0373987 0)
(0.592489 -0.0370976 0)
(0.588806 -0.0368452 0)
(0.5853 -0.0366305 0)
(0.581894 -0.0364372 0)
(0.578493 -0.0362437 0)
(0.574982 -0.0360329 0)
(0.571241 -0.0357814 0)
(0.567143 -0.035476 0)
(0.562562 -0.0350984 0)
(0.557376 -0.0346401 0)
(0.551476 -0.0340904 0)
(0.544815 -0.0334431 0)
(0.537351 -0.0327104 0)
(0.529012 -0.0318671 0)
(0.519746 -0.0309423 0)
(0.509518 -0.0299301 0)
(0.49836 -0.0288186 0)
(0.486412 -0.0276416 0)
(0.473828 -0.0263885 0)
(0.460751 -0.025116 0)
(0.447361 -0.0238317 0)
(0.433898 -0.0225957 0)
(0.420591 -0.0214422 0)
(0.407679 -0.0204277 0)
(0.395373 -0.0196009 0)
(0.383874 -0.0190093 0)
(0.373347 -0.0186917 0)
(0.363935 -0.0186775 0)
(0.355726 -0.018987 0)
(0.348789 -0.0196265 0)
(0.343149 -0.0205911 0)
(0.338813 -0.0218609 0)
(0.335758 -0.0234082 0)
(0.33393 -0.0251848 0)
(0.333265 -0.0271333 0)
(0.3337 -0.0292152 0)
(0.335181 -0.0313369 0)
(0.337659 -0.0334303 0)
(0.341029 -0.0354126 0)
(0.345197 -0.037207 0)
(0.350103 -0.0386844 0)
(0.355649 -0.0397735 0)
(0.361747 -0.0403631 0)
(0.368314 -0.0403605 0)
(0.375247 -0.0396766 0)
(0.382444 -0.0382245 0)
(0.389802 -0.0359352 0)
(0.622826 -0.0337925 0)
(0.618797 -0.0331995 0)
(0.614362 -0.0325675 0)
(0.609809 -0.0319448 0)
(0.605277 -0.0313528 0)
(0.60087 -0.0308205 0)
(0.596654 -0.0303609 0)
(0.592673 -0.0299792 0)
(0.588924 -0.0296734 0)
(0.585365 -0.0294361 0)
(0.581925 -0.0292547 0)
(0.578505 -0.0291079 0)
(0.574997 -0.0289859 0)
(0.571273 -0.0288591 0)
(0.567207 -0.0287218 0)
(0.562672 -0.0285536 0)
(0.557543 -0.0283457 0)
(0.551706 -0.0280883 0)
(0.545126 -0.0277734 0)
(0.537732 -0.0273942 0)
(0.529463 -0.0269578 0)
(0.520298 -0.0264515 0)
(0.51015 -0.0258824 0)
(0.499074 -0.0252353 0)
(0.487217 -0.0245167 0)
(0.474692 -0.0237337 0)
(0.461658 -0.0229074 0)
(0.448289 -0.022053 0)
(0.434788 -0.021207 0)
(0.421401 -0.0204141 0)
(0.40835 -0.0197227 0)
(0.395853 -0.0191848 0)
(0.384108 -0.0188505 0)
(0.3733 -0.0187657 0)
(0.363572 -0.0189686 0)
(0.355036 -0.0194883 0)
(0.347763 -0.0203391 0)
(0.341805 -0.0215236 0)
(0.337172 -0.023031 0)
(0.333862 -0.0248363 0)
(0.331835 -0.0269016 0)
(0.331022 -0.0291639 0)
(0.331384 -0.0315882 0)
(0.332875 -0.0340681 0)
(0.335429 -0.0365464 0)
(0.338968 -0.0389485 0)
(0.343411 -0.0411472 0)
(0.348689 -0.0430411 0)
(0.354703 -0.0445348 0)
(0.361375 -0.0455059 0)
(0.368607 -0.0458456 0)
(0.376296 -0.0454544 0)
(0.384333 -0.0442299 0)
(0.392595 -0.0420851 0)
(0.623387 -0.02773 0)
(0.619401 -0.0270247 0)
(0.614961 -0.0262904 0)
(0.610382 -0.0255613 0)
(0.605798 -0.0248688 0)
(0.601308 -0.0242498 0)
(0.597004 -0.0237106 0)
(0.592932 -0.023264 0)
(0.589094 -0.0229123 0)
(0.585454 -0.0226469 0)
(0.581949 -0.0224741 0)
(0.578481 -0.0223331 0)
(0.574939 -0.022291 0)
(0.571201 -0.022229 0)
(0.567129 -0.0222313 0)
(0.562604 -0.0222179 0)
(0.557494 -0.022205 0)
(0.55169 -0.0221785 0)
(0.545146 -0.0221297 0)
(0.537802 -0.0220374 0)
(0.529589 -0.0219161 0)
(0.520459 -0.0217663 0)
(0.510381 -0.0215961 0)
(0.499392 -0.0213504 0)
(0.487605 -0.0210539 0)
(0.475157 -0.0206969 0)
(0.462179 -0.0202868 0)
(0.448833 -0.0198483 0)
(0.435326 -0.0193976 0)
(0.421876 -0.0189828 0)
(0.408713 -0.0186437 0)
(0.396048 -0.0184359 0)
(0.384087 -0.0184092 0)
(0.373011 -0.0186127 0)
(0.362983 -0.0190926 0)
(0.354117 -0.0198826 0)
(0.346511 -0.021008 0)
(0.340217 -0.0224766 0)
(0.335273 -0.0242859 0)
(0.33168 -0.026415 0)
(0.329426 -0.0288328 0)
(0.328441 -0.0314829 0)
(0.328702 -0.0343 0)
(0.330178 -0.037219 0)
(0.332784 -0.0401577 0)
(0.33648 -0.0430381 0)
(0.341201 -0.0457113 0)
(0.346849 -0.0480932 0)
(0.35335 -0.0500572 0)
(0.360627 -0.0514666 0)
(0.368574 -0.0522108 0)
(0.377082 -0.052154 0)
(0.386041 -0.0511886 0)
(0.3953 -0.0492069 0)
(0.624039 -0.0217812 0)
(0.620083 -0.0210215 0)
(0.615648 -0.0202359 0)
(0.611044 -0.019455 0)
(0.606395 -0.0187157 0)
(0.601827 -0.018049 0)
(0.597431 -0.017463 0)
(0.593256 -0.0169741 0)
(0.589318 -0.0165884 0)
(0.585573 -0.0163026 0)
(0.582005 -0.0161108 0)
(0.578446 -0.0160015 0)
(0.574854 -0.0159616 0)
(0.571076 -0.0159768 0)
(0.566953 -0.0160375 0)
(0.562424 -0.0161321 0)
(0.557301 -0.0162483 0)
(0.551495 -0.0163767 0)
(0.54497 -0.0165093 0)
(0.537641 -0.0166292 0)
(0.529429 -0.016773 0)
(0.520325 -0.0169123 0)
(0.510294 -0.0170454 0)
(0.499367 -0.0171571 0)
(0.487646 -0.0172163 0)
(0.475256 -0.0172359 0)
(0.462323 -0.017223 0)
(0.449008 -0.0171753 0)
(0.435496 -0.0171231 0)
(0.422 -0.0170957 0)
(0.408739 -0.0171388 0)
(0.395923 -0.0172999 0)
(0.383755 -0.01763 0)
(0.372426 -0.0181824 0)
(0.362099 -0.0190043 0)
(0.352907 -0.0201359 0)
(0.344954 -0.0216063 0)
(0.338314 -0.0234333 0)
(0.333035 -0.0256167 0)
(0.329138 -0.0281442 0)
(0.326622 -0.0309857 0)
(0.325449 -0.0340956 0)
(0.325586 -0.0373867 0)
(0.327002 -0.040823 0)
(0.329643 -0.0442997 0)
(0.333492 -0.0477178 0)
(0.338475 -0.0509564 0)
(0.344497 -0.053903 0)
(0.351514 -0.0564113 0)
(0.359428 -0.0583338 0)
(0.368143 -0.0595442 0)
(0.377555 -0.0598806 0)
(0.387523 -0.0592133 0)
(0.397895 -0.0574222 0)
(0.624727 -0.0159371 0)
(0.620805 -0.0151859 0)
(0.616368 -0.014409 0)
(0.611737 -0.0136428 0)
(0.607037 -0.0129091 0)
(0.602392 -0.0122374 0)
(0.597908 -0.0116516 0)
(0.593632 -0.0111478 0)
(0.589588 -0.0107507 0)
(0.585752 -0.0104454 0)
(0.582068 -0.0102336 0)
(0.578445 -0.010142 0)
(0.574776 -0.0100702 0)
(0.570933 -0.0101357 0)
(0.56678 -0.0101942 0)
(0.562191 -0.0103335 0)
(0.557035 -0.0105072 0)
(0.551203 -0.0107231 0)
(0.544664 -0.0109598 0)
(0.537315 -0.0112356 0)
(0.529093 -0.0115395 0)
(0.519988 -0.011876 0)
(0.509954 -0.0122497 0)
(0.499055 -0.0126252 0)
(0.487375 -0.0129827 0)
(0.475017 -0.0133255 0)
(0.462118 -0.0136591 0)
(0.448818 -0.0139883 0)
(0.435292 -0.014328 0)
(0.421746 -0.0147055 0)
(0.408387 -0.0151597 0)
(0.395422 -0.0157345 0)
(0.383053 -0.0164775 0)
(0.371471 -0.017442 0)
(0.360848 -0.0186771 0)
(0.351324 -0.0202263 0)
(0.343018 -0.0221223 0)
(0.336017 -0.0243857 0)
(0.330383 -0.0270243 0)
(0.326156 -0.030029 0)
(0.323351 -0.0333736 0)
(0.321953 -0.0370163 0)
(0.321929 -0.040876 0)
(0.323262 -0.0449061 0)
(0.325929 -0.0489915 0)
(0.329903 -0.0530397 0)
(0.335132 -0.0569352 0)
(0.341543 -0.0605315 0)
(0.349095 -0.063665 0)
(0.35769 -0.0661992 0)
(0.367241 -0.0679483 0)
(0.37764 -0.0687507 0)
(0.388733 -0.0684414 0)
(0.400354 -0.0668721 0)
(0.625392 -0.0101847 0)
(0.621493 -0.00951024 0)
(0.617061 -0.0088222 0)
(0.612414 -0.00812698 0)
(0.607674 -0.00747187 0)
(0.602963 -0.00685102 0)
(0.598401 -0.00629363 0)
(0.594038 -0.00581965 0)
(0.589903 -0.00544087 0)
(0.585973 -0.00514043 0)
(0.582189 -0.00491433 0)
(0.578494 -0.00478601 0)
(0.574744 -0.00470381 0)
(0.570836 -0.00470479 0)
(0.566625 -0.0047543 0)
(0.561972 -0.00486762 0)
(0.556767 -0.00503746 0)
(0.550899 -0.0052598 0)
(0.54432 -0.00550455 0)
(0.536929 -0.00583692 0)
(0.528666 -0.00620756 0)
(0.519501 -0.00665359 0)
(0.509441 -0.00716949 0)
(0.498541 -0.00772153 0)
(0.486861 -0.00831135 0)
(0.474504 -0.00891613 0)
(0.461591 -0.00955714 0)
(0.448271 -0.0102345 0)
(0.434707 -0.0109618 0)
(0.421086 -0.0117539 0)
(0.407614 -0.0126441 0)
(0.394491 -0.0136759 0)
(0.381913 -0.0148904 0)
(0.370074 -0.0163363 0)
(0.359145 -0.0180615 0)
(0.349282 -0.0201104 0)
(0.340609 -0.0225183 0)
(0.33323 -0.0253084 0)
(0.327223 -0.0284899 0)
(0.322641 -0.0320581 0)
(0.319514 -0.0359921 0)
(0.317859 -0.0402535 0)
(0.317645 -0.0447729 0)
(0.318872 -0.0494701 0)
(0.321531 -0.0542664 0)
(0.325605 -0.0590432 0)
(0.331072 -0.063689 0)
(0.337884 -0.0680254 0)
(0.345987 -0.0719005 0)
(0.355306 -0.0751405 0)
(0.36577 -0.0775326 0)
(0.377253 -0.0788906 0)
(0.389604 -0.0790176 0)
(0.402637 -0.0777234 0)
(0.625973 -0.00451116 0)
(0.622083 -0.00398658 0)
(0.61766 -0.00345639 0)
(0.613002 -0.00292249 0)
(0.608237 -0.00241049 0)
(0.603505 -0.00191556 0)
(0.598881 -0.00145471 0)
(0.594431 -0.00104948 0)
(0.590217 -0.000693145 0)
(0.58623 -0.000409901 0)
(0.582377 -0.00018073 0)
(0.578607 -3.37648e-06 0)
(0.574797 0.000123053 0)
(0.570816 0.000197495 0)
(0.566551 0.000215321 0)
(0.561845 0.000194941 0)
(0.556581 0.000118348 0)
(0.550676 -1.24589e-06 0)
(0.544028 -0.000169208 0)
(0.536555 -0.000435047 0)
(0.528223 -0.000782267 0)
(0.518981 -0.00123925 0)
(0.508849 -0.00178407 0)
(0.497884 -0.00242754 0)
(0.486157 -0.00315234 0)
(0.473749 -0.00396743 0)
(0.460777 -0.00486707 0)
(0.447384 -0.00586525 0)
(0.433733 -0.0069614 0)
(0.420004 -0.00817416 0)
(0.406384 -0.00952993 0)
(0.393071 -0.0110611 0)
(0.380263 -0.0128067 0)
(0.368148 -0.0148053 0)
(0.356902 -0.0171025 0)
(0.346685 -0.019739 0)
(0.337632 -0.0227492 0)
(0.32986 -0.0261579 0)
(0.323459 -0.0299768 0)
(0.318496 -0.0342032 0)
(0.315021 -0.0388194 0)
(0.313066 -0.04379 0)
(0.312635 -0.0490598 0)
(0.313722 -0.0545252 0)
(0.316338 -0.0601354 0)
(0.320492 -0.0657429 0)
(0.326188 -0.071237 0)
(0.333395 -0.0764395 0)
(0.342065 -0.0811841 0)
(0.352163 -0.0852445 0)
(0.363614 -0.0884082 0)
(0.376293 -0.0904446 0)
(0.390052 -0.0911085 0)
(0.404689 -0.0901693 0)
(0.626395 0.00110439 0)
(0.622503 0.00140061 0)
(0.618082 0.00168537 0)
(0.613427 0.0019727 0)
(0.608662 0.00226608 0)
(0.603913 0.00255469 0)
(0.599273 0.00283559 0)
(0.594811 0.0031159 0)
(0.590554 0.00339495 0)
(0.586494 0.00364797 0)
(0.5826 0.0038712 0)
(0.578803 0.00409915 0)
(0.574954 0.00428961 0)
(0.570939 0.00448542 0)
(0.566631 0.00465841 0)
(0.56188 0.0048027 0)
(0.556573 0.00492435 0)
(0.55061 0.00500351 0)
(0.543884 0.0050102 0)
(0.536315 0.00492588 0)
(0.527863 0.00472229 0)
(0.518506 0.00438614 0)
(0.508262 0.00391785 0)
(0.497186 0.00330148 0)
(0.485335 0.00253145 0)
(0.472799 0.00159074 0)
(0.459697 0.000484769 0)
(0.446167 -0.000795038 0)
(0.432367 -0.0022508 0)
(0.418465 -0.00389614 0)
(0.404646 -0.0057461 0)
(0.391104 -0.00782331 0)
(0.378031 -0.0101581 0)
(0.365612 -0.0127835 0)
(0.354025 -0.0157377 0)
(0.343435 -0.0190542 0)
(0.333985 -0.0227619 0)
(0.3258 -0.0268849 0)
(0.318983 -0.0314385 0)
(0.313616 -0.0364229 0)
(0.309763 -0.0418216 0)
(0.307475 -0.0476009 0)
(0.306789 -0.0537117 0)
(0.307699 -0.0600656 0)
(0.310238 -0.0665793 0)
(0.314452 -0.0731369 0)
(0.320347 -0.0796051 0)
(0.327933 -0.0858169 0)
(0.337199 -0.0915573 0)
(0.348122 -0.0965999 0)
(0.36063 -0.100694 0)
(0.37463 -0.10356 0)
(0.389971 -0.104902 0)
(0.406428 -0.104434 0)
(0.626588 0.0066851 0)
(0.62266 0.00665697 0)
(0.618234 0.0066077 0)
(0.613603 0.00654634 0)
(0.608859 0.00651415 0)
(0.604131 0.00651436 0)
(0.599511 0.00654993 0)
(0.595066 0.00662066 0)
(0.590827 0.00675544 0)
(0.586784 0.00692484 0)
(0.582904 0.00716729 0)
(0.579096 0.00743676 0)
(0.57525 0.00775161 0)
(0.571246 0.00811002 0)
(0.566924 0.00849503 0)
(0.562163 0.00890176 0)
(0.556828 0.00931146 0)
(0.550803 0.00968971 0)
(0.543988 0.0100012 0)
(0.536304 0.0102177 0)
(0.527719 0.0103021 0)
(0.51821 0.0102267 0)
(0.507799 0.00996414 0)
(0.496532 0.00948714 0)
(0.484476 0.00876566 0)
(0.471727 0.00779142 0)
(0.458403 0.00654943 0)
(0.444642 0.0050357 0)
(0.4306 0.00324205 0)
(0.416445 0.00116213 0)
(0.402358 -0.00121083 0)
(0.388527 -0.0038851 0)
(0.375139 -0.00687272 0)
(0.362376 -0.0102003 0)
(0.350416 -0.0138938 0)
(0.33943 -0.01798 0)
(0.329563 -0.0224841 0)
(0.320944 -0.0274254 0)
(0.313688 -0.0328158 0)
(0.30789 -0.0386583 0)
(0.303632 -0.0449407 0)
(0.30098 -0.0516343 0)
(0.299991 -0.058691 0)
(0.300692 -0.0660427 0)
(0.303123 -0.0735788 0)
(0.307343 -0.0812165 0)
(0.313407 -0.0888003 0)
(0.321365 -0.0961613 0)
(0.331231 -0.103074 0)
(0.343002 -0.109287 0)
(0.356652 -0.114508 0)
(0.3721 -0.118397 0)
(0.389196 -0.120609 0)
(0.407706 -0.120776 0)
(0.626454 0.0122501 0)
(0.622478 0.0117966 0)
(0.618035 0.0113027 0)
(0.613415 0.010788 0)
(0.608734 0.0103175 0)
(0.604072 0.00992451 0)
(0.599516 0.00961064 0)
(0.595159 0.00942205 0)
(0.591 0.00934361 0)
(0.587043 0.00941039 0)
(0.583241 0.00960024 0)
(0.579506 0.00993223 0)
(0.575737 0.0103904 0)
(0.571782 0.0109598 0)
(0.567514 0.0116345 0)
(0.562778 0.0123965 0)
(0.557434 0.0132039 0)
(0.551367 0.014005 0)
(0.544473 0.0147744 0)
(0.536673 0.0154532 0)
(0.527925 0.0159837 0)
(0.518218 0.0163159 0)
(0.507568 0.0164003 0)
(0.496028 0.0161853 0)
(0.483671 0.0156325 0)
(0.4706 0.0147115 0)
(0.45694 0.0134028 0)
(0.442833 0.011695 0)
(0.428439 0.00958392 0)
(0.413928 0.00707132 0)
(0.399479 0.00416145 0)
(0.385278 0.000853588 0)
(0.371513 -0.00285989 0)
(0.358359 -0.00697306 0)
(0.345988 -0.0114952 0)
(0.334569 -0.0164485 0)
(0.324254 -0.0218501 0)
(0.315178 -0.0277125 0)
(0.307462 -0.0340442 0)
(0.301211 -0.0408477 0)
(0.296517 -0.0481155 0)
(0.293465 -0.0558262 0)
(0.292134 -0.063939 0)
(0.292578 -0.0723947 0)
(0.294848 -0.0810939 0)
(0.299034 -0.0899421 0)
(0.305232 -0.0987916 0)
(0.313518 -0.107475 0)
(0.323965 -0.115766 0)
(0.336609 -0.123368 0)
(0.351462 -0.129951 0)
(0.368464 -0.135118 0)
(0.38747 -0.138445 0)
(0.408244 -0.139462 0)
(0.625903 0.0178503 0)
(0.621826 0.0168583 0)
(0.617356 0.0157922 0)
(0.612766 0.0147017 0)
(0.608164 0.0136778 0)
(0.60361 0.0127579 0)
(0.599205 0.0120036 0)
(0.594998 0.011443 0)
(0.591009 0.0110862 0)
(0.587224 0.0109794 0)
(0.583595 0.0111071 0)
(0.58004 0.0114893 0)
(0.576415 0.0120989 0)
(0.572612 0.0129295 0)
(0.568469 0.0139757 0)
(0.563827 0.0151896 0)
(0.55852 0.0165186 0)
(0.552447 0.0179254 0)
(0.545501 0.0192997 0)
(0.53757 0.0206194 0)
(0.528632 0.0217708 0)
(0.51867 0.0226804 0)
(0.507704 0.0232701 0)
(0.49579 0.0234656 0)
(0.483015 0.0232051 0)
(0.469492 0.022441 0)
(0.455357 0.0211417 0)
(0.440764 0.0192896 0)
(0.425882 0.0168838 0)
(0.410889 0.0139322 0)
(0.395967 0.0104514 0)
(0.381301 0.00645918 0)
(0.367069 0.00197436 0)
(0.353465 -0.00300394 0)
(0.340642 -0.00844932 0)
(0.328757 -0.0143668 0)
(0.317967 -0.0207646 0)
(0.308412 -0.0276517 0)
(0.300212 -0.0350316 0)
(0.293482 -0.0429045 0)
(0.288322 -0.0512646 0)
(0.284832 -0.0600968 0)
(0.283106 -0.0693726 0)
(0.283233 -0.0790456 0)
(0.285289 -0.089038 0)
(0.289383 -0.0992369 0)
(0.295647 -0.109536 0)
(0.304204 -0.11974 0)
(0.315191 -0.129627 0)
(0.328698 -0.138871 0)
(0.344764 -0.147102 0)
(0.363358 -0.153846 0)
(0.384339 -0.158568 0)
(0.407439 -0.160691 0)
(0.6248 0.0235134 0)
(0.620581 0.0218621 0)
(0.616062 0.020085 0)
(0.611504 0.0182776 0)
(0.607013 0.0165528 0)
(0.602636 0.014983 0)
(0.598446 0.0136503 0)
(0.594485 0.0125991 0)
(0.59077 0.011885 0)
(0.587281 0.0115264 0)
(0.583947 0.0115702 0)
(0.580672 0.0119681 0)
(0.577329 0.0127649 0)
(0.573789 0.0139104 0)
(0.569885 0.0154242 0)
(0.565413 0.017189 0)
(0.560246 0.0192157 0)
(0.55421 0.0213626 0)
(0.547215 0.0235634 0)
(0.539181 0.0257025 0)
(0.530014 0.0276706 0)
(0.519734 0.0293535 0)
(0.508359 0.0306326 0)
(0.495954 0.0314037 0)
(0.48262 0.0315759 0)
(0.468488 0.0310808 0)
(0.453713 0.0298723 0)
(0.438467 0.0279278 0)
(0.422934 0.0252475 0)
(0.407307 0.0218495 0)
(0.391775 0.0177654 0)
(0.376527 0.0130338 0)
(0.361744 0.00769358 0)
(0.347593 0.0017852 0)
(0.334266 -0.00468461 0)
(0.321883 -0.0116656 0)
(0.310592 -0.0191648 0)
(0.300531 -0.0271772 0)
(0.291827 -0.0357019 0)
(0.284595 -0.0447402 0)
(0.278941 -0.0542915 0)
(0.274975 -0.0643485 0)
(0.272808 -0.0748934 0)
(0.272548 -0.0858961 0)
(0.274314 -0.0973031 0)
(0.278228 -0.109012 0)
(0.284467 -0.120932 0)
(0.293219 -0.132871 0)
(0.304666 -0.144598 0)
(0.318947 -0.155772 0)
(0.336134 -0.165964 0)
(0.356199 -0.174569 0)
(0.378939 -0.180972 0)
(0.404069 -0.184372 0)
(0.623024 0.0293031 0)
(0.618597 0.0268404 0)
(0.613997 0.0242006 0)
(0.609482 0.021512 0)
(0.605138 0.0189283 0)
(0.60099 0.0165534 0)
(0.597108 0.0144988 0)
(0.593512 0.0128386 0)
(0.590198 0.0116426 0)
(0.587146 0.0109756 0)
(0.584244 0.0108316 0)
(0.581412 0.0112846 0)
(0.578504 0.0122347 0)
(0.575391 0.0137854 0)
(0.571841 0.0158174 0)
(0.56769 0.0183081 0)
(0.562746 0.0211727 0)
(0.556828 0.0242702 0)
(0.54986 0.0274846 0)
(0.54168 0.0307013 0)
(0.532271 0.0337211 0)
(0.521606 0.0363992 0)
(0.509714 0.0385783 0)
(0.496676 0.0401107 0)
(0.482615 0.0408722 0)
(0.467685 0.0407682 0)
(0.452071 0.0397356 0)
(0.435971 0.0377472 0)
(0.419596 0.0348061 0)
(0.403156 0.0309443 0)
(0.386857 0.0262152 0)
(0.370894 0.0206811 0)
(0.355448 0.0144103 0)
(0.340685 0.00746462 0)
(0.326759 -0.000100323 0)
(0.313841 -0.00825594 0)
(0.302017 -0.0169565 0)
(0.291433 -0.0261921 0)
(0.282208 -0.0359594 0)
(0.274453 -0.0462589 0)
(0.268276 -0.0570946 0)
(0.263795 -0.0684694 0)
(0.261131 -0.080382 0)
(0.260413 -0.0928233 0)
(0.261796 -0.105763 0)
(0.265427 -0.119135 0)
(0.271523 -0.132839 0)
(0.280331 -0.146727 0)
(0.292076 -0.160554 0)
(0.306918 -0.173922 0)
(0.324939 -0.18633 0)
(0.345962 -0.196942 0)
(0.369736 -0.205168 0)
(0.395826 -0.209902 0)
(0.620406 0.0352813 0)
(0.615711 0.0318296 0)
(0.610993 0.0281537 0)
(0.60651 0.0243984 0)
(0.602351 0.0207792 0)
(0.598514 0.0174299 0)
(0.595039 0.0144823 0)
(0.591924 0.012059 0)
(0.589178 0.0102661 0)
(0.586709 0.00916003 0)
(0.584458 0.00879688 0)
(0.582237 0.00920872 0)
(0.579957 0.0104167 0)
(0.577464 0.0123611 0)
(0.574469 0.0150484 0)
(0.570806 0.0183967 0)
(0.566218 0.0222839 0)
(0.560516 0.0265512 0)
(0.55362 0.031077 0)
(0.54537 0.035599 0)
(0.535649 0.039944 0)
(0.524511 0.0438835 0)
(0.511973 0.0472063 0)
(0.498133 0.0497177 0)
(0.483141 0.0512477 0)
(0.467189 0.05167 0)
(0.450497 0.0509014 0)
(0.433305 0.0489114 0)
(0.415859 0.0457119 0)
(0.398399 0.0413549 0)
(0.381151 0.0359197 0)
(0.36432 0.0295039 0)
(0.348091 0.022209 0)
(0.332624 0.0141302 0)
(0.318052 0.00535358 0)
(0.304542 -0.00407274 0)
(0.292162 -0.0140646 0)
(0.281034 -0.0246185 0)
(0.271268 -0.0357186 0)
(0.262968 -0.0473623 0)
(0.25624 -0.0595604 0)
(0.251201 -0.0723314 0)
(0.247981 -0.0856945 0)
(0.246723 -0.0996675 0)
(0.247611 -0.114251 0)
(0.250835 -0.129418 0)
(0.256635 -0.145077 0)
(0.265282 -0.161105 0)
(0.277055 -0.177229 0)
(0.292022 -0.19291 0)
(0.310197 -0.207559 0)
(0.331004 -0.220003 0)
(0.354051 -0.229835 0)
(0.37882 -0.235386 0)
(0.61677 0.0415157 0)
(0.611722 0.0368992 0)
(0.606846 0.0319553 0)
(0.602404 0.0269558 0)
(0.598479 0.0220895 0)
(0.595008 0.0175733 0)
(0.592046 0.0135382 0)
(0.589586 0.0101846 0)
(0.58756 0.00762973 0)
(0.585898 0.00596931 0)
(0.584471 0.00527912 0)
(0.583166 0.0056264 0)
(0.581747 0.00702378 0)
(0.580077 0.00947239 0)
(0.577896 0.012924 0)
(0.574912 0.0172821 0)
(0.570862 0.0224178 0)
(0.565554 0.0281249 0)
(0.558827 0.0342338 0)
(0.550442 0.0404184 0)
(0.54043 0.0463903 0)
(0.528725 0.0519132 0)
(0.515385 0.0566693 0)
(0.500535 0.0604047 0)
(0.484364 0.0629007 0)
(0.467113 0.0639946 0)
(0.449056 0.0635807 0)
(0.430486 0.0616244 0)
(0.411701 0.058151 0)
(0.392979 0.0532431 0)
(0.374576 0.047018 0)
(0.356712 0.0396167 0)
(0.339571 0.0311838 0)
(0.323303 0.0218562 0)
(0.308032 0.0117509 0)
(0.293854 0.000970233 0)
(0.280932 -0.010437 0)
(0.269246 -0.0223936 0)
(0.258932 -0.0348976 0)
(0.250077 -0.0479522 0)
(0.242774 -0.0615749 0)
(0.237134 -0.0758018 0)
(0.233292 -0.0906771 0)
(0.231401 -0.106253 0)
(0.231669 -0.122567 0)
(0.234322 -0.139632 0)
(0.239617 -0.157386 0)
(0.247809 -0.175677 0)
(0.25916 -0.194108 0)
(0.273419 -0.21193 0)
(0.290392 -0.228448 0)
(0.308737 -0.242 0)
(0.328288 -0.252215 0)
(0.348172 -0.257479 0)
(0.611911 0.0480808 0)
(0.606405 0.0420621 0)
(0.60133 0.0356346 0)
(0.596939 0.0291525 0)
(0.593272 0.0228262 0)
(0.590267 0.0169076 0)
(0.587943 0.0115957 0)
(0.586284 0.00711461 0)
(0.585192 0.00361764 0)
(0.584538 0.00125583 0)
(0.584246 0.000128083 0)
(0.58407 0.000356241 0)
(0.583845 0.00192529 0)
(0.583363 0.00491964 0)
(0.582237 0.0092232 0)
(0.580223 0.0148112 0)
(0.576949 0.0214164 0)
(0.572197 0.0289329 0)
(0.56574 0.036893 0)
(0.557327 0.0451119 0)
(0.546921 0.0531291 0)
(0.534549 0.0605975 0)
(0.520208 0.067129 0)
(0.504093 0.0723866 0)
(0.486442 0.0760819 0)
(0.467557 0.0780049 0)
(0.447787 0.0780302 0)
(0.4275 0.0761256 0)
(0.40706 0.0723388 0)
(0.386802 0.0667923 0)
(0.367018 0.0596565 0)
(0.347943 0.0511327 0)
(0.329762 0.0414202 0)
(0.312609 0.0307071 0)
(0.296587 0.0191528 0)
(0.281751 0.00688833 0)
(0.268244 -0.00601724 0)
(0.256013 -0.0194546 0)
(0.24515 -0.0334273 0)
(0.23573 -0.0479396 0)
(0.22783 -0.0630243 0)
(0.22155 -0.0787402 0)
(0.217018 -0.0951608 0)
(0.214395 -0.112378 0)
(0.213902 -0.130474 0)
(0.215788 -0.149499 0)
(0.220293 -0.169395 0)
(0.227612 -0.18989 0)
(0.237781 -0.210307 0)
(0.249794 -0.229632 0)
(0.263223 -0.246772 0)
(0.276025 -0.259943 0)
(0.288084 -0.267597 0)
(0.299773 -0.270926 0)
(0.605566 0.0550626 0)
(0.599511 0.0473619 0)
(0.594198 0.039211 0)
(0.589867 0.0309962 0)
(0.58651 0.0229617 0)
(0.584049 0.0153979 0)
(0.582508 0.00857404 0)
(0.581826 0.00273692 0)
(0.581858 -0.00192287 0)
(0.582516 -0.0052025 0)
(0.583616 -0.0069164 0)
(0.584956 -0.00696012 0)
(0.586272 -0.00522816 0)
(0.587304 -0.00166395 0)
(0.587642 0.00368955 0)
(0.586895 0.0106699 0)
(0.584704 0.0191016 0)
(0.580694 0.0287005 0)
(0.574629 0.038991 0)
(0.566253 0.0496769 0)
(0.555473 0.0601992 0)
(0.542268 0.0700962 0)
(0.526713 0.0788225 0)
(0.509031 0.0859501 0)
(0.489532 0.0911124 0)
(0.46861 0.0940423 0)
(0.446714 0.0945906 0)
(0.424308 0.0927288 0)
(0.401846 0.0885425 0)
(0.379739 0.0822162 0)
(0.358323 0.073997 0)
(0.337853 0.0641634 0)
(0.318507 0.0529888 0)
(0.300395 0.0407221 0)
(0.283583 0.0275718 0)
(0.268095 0.0137012 0)
(0.253959 -0.000765859 0)
(0.241247 -0.0157701 0)
(0.229867 -0.0312583 0)
(0.219897 -0.0472527 0)
(0.211393 -0.063809 0)
(0.204438 -0.0810129 0)
(0.199153 -0.0989751 0)
(0.195695 -0.117834 0)
(0.19429 -0.137713 0)
(0.195168 -0.158678 0)
(0.198518 -0.180589 0)
(0.204319 -0.20288 0)
(0.211933 -0.224486 0)
(0.219418 -0.243804 0)
(0.225879 -0.258795 0)
(0.229945 -0.26874 0)
(0.231584 -0.273161 0)
(0.230311 -0.280585 0)
(0.597454 0.0625294 0)
(0.590751 0.0528607 0)
(0.585187 0.0427211 0)
(0.580918 0.0324773 0)
(0.577903 0.0224703 0)
(0.5761 0.0130001 0)
(0.575484 0.00440829 0)
(0.57594 -0.00307595 0)
(0.577369 -0.00912409 0)
(0.57959 -0.0135136 0)
(0.582451 -0.0160133 0)
(0.58561 -0.0164727 0)
(0.588842 -0.0146655 0)
(0.591853 -0.0105468 0)
(0.594043 -0.0040761 0)
(0.594969 0.00462922 0)
(0.594155 0.0151975 0)
(0.591124 0.027281 0)
(0.585642 0.0404644 0)
(0.577399 0.0541767 0)
(0.566186 0.0677854 0)
(0.552039 0.0806076 0)
(0.534987 0.0920261 0)
(0.515387 0.101434 0)
(0.493623 0.108363 0)
(0.470206 0.112488 0)
(0.445714 0.113634 0)
(0.420737 0.111779 0)
(0.395852 0.107063 0)
(0.371563 0.0997576 0)
(0.348264 0.0902184 0)
(0.326228 0.07883 0)
(0.305617 0.0659613 0)
(0.286504 0.0519374 0)
(0.268903 0.0370246 0)
(0.252794 0.021425 0)
(0.238099 0.0052937 0)
(0.224942 -0.0113321 0)
(0.213074 -0.028357 0)
(0.202581 -0.0458343 0)
(0.19348 -0.0638399 0)
(0.185831 -0.0824929 0)
(0.179736 -0.101951 0)
(0.175343 -0.1224 0)
(0.172855 -0.143992 0)
(0.172448 -0.166737 0)
(0.174143 -0.190243 0)
(0.177296 -0.213516 0)
(0.180238 -0.234579 0)
(0.180408 -0.251054 0)
(0.176389 -0.260406 0)
(0.168092 -0.267705 0)
(0.156816 -0.275918 0)
(0.153629 -0.283775 0)
(0.587233 0.0705824 0)
(0.579828 0.0586448 0)
(0.573967 0.0461863 0)
(0.569774 0.0336114 0)
(0.567189 0.021316 0)
(0.566137 0.00965789 0)
(0.566548 -0.00101543 0)
(0.568358 -0.0103827 0)
(0.57141 -0.0181187 0)
(0.57551 -0.0239154 0)
(0.580367 -0.0274335 0)
(0.585742 -0.0284969 0)
(0.59125 -0.0266602 0)
(0.596434 -0.0220536 0)
(0.600854 -0.0143579 0)
(0.603768 -0.00375477 0)
(0.604572 0.00941224 0)
(0.60282 0.0244501 0)
(0.598114 0.0410304 0)
(0.590027 0.0583555 0)
(0.578384 0.0758384 0)
(0.563128 0.0922244 0)
(0.544429 0.107021 0)
(0.522611 0.119207 0)
(0.498216 0.128242 0)
(0.471893 0.133775 0)
(0.444356 0.135587 0)
(0.416362 0.133661 0)
(0.388653 0.128212 0)
(0.361863 0.11964 0)
(0.336457 0.108454 0)
(0.312724 0.095187 0)
(0.290799 0.0803307 0)
(0.270698 0.0643033 0)
(0.252365 0.0474357 0)
(0.235708 0.0299691 0)
(0.220585 0.0120676 0)
(0.207011 -0.00619869 0)
(0.194752 -0.0247501 0)
(0.183805 -0.0436776 0)
(0.174144 -0.0630676 0)
(0.1658 -0.0830833 0)
(0.158856 -0.10394 0)
(0.153436 -0.125861 0)
(0.149676 -0.148975 0)
(0.147623 -0.173099 0)
(0.146761 -0.197446 0)
(0.145594 -0.22008 0)
(0.14097 -0.237554 0)
(0.130615 -0.247323 0)
(0.112133 -0.253979 0)
(0.0948883 -0.261149 0)
(0.0875071 -0.271964 0)
(0.0880586 -0.280425 0)
(0.574489 0.0793078 0)
(0.56634 0.0647412 0)
(0.560193 0.0495978 0)
(0.556101 0.0343856 0)
(0.554007 0.0194742 0)
(0.553859 0.00532327 0)
(0.555444 -0.00773246 0)
(0.558769 -0.0193237 0)
(0.56362 -0.0290208 0)
(0.569777 -0.0365019 0)
(0.576863 -0.0413484 0)
(0.584518 -0.04308 0)
(0.592181 -0.0414509 0)
(0.599419 -0.0362529 0)
(0.605847 -0.0273398 0)
(0.610687 -0.0146184 0)
(0.613227 0.00151203 0)
(0.61278 0.0201082 0)
(0.609018 0.040614 0)
(0.601485 0.0623536 0)
(0.589557 0.0842397 0)
(0.573346 0.104985 0)
(0.553023 0.123841 0)
(0.528811 0.139483 0)
(0.50165 0.151108 0)
(0.472262 0.158314 0)
(0.441455 0.16085 0)
(0.410181 0.158731 0)
(0.379404 0.152281 0)
(0.349932 0.142075 0)
(0.322323 0.128829 0)
(0.296881 0.113275 0)
(0.2737 0.0960694 0)
(0.252719 0.077747 0)
(0.233793 0.0587096 0)
(0.216734 0.0392357 0)
(0.201334 0.019498 0)
(0.187419 -0.000399611 0)
(0.17496 -0.0204831 0)
(0.163635 -0.0407931 0)
(0.153472 -0.0614626 0)
(0.144466 -0.0827144 0)
(0.136666 -0.104817 0)
(0.130134 -0.127992 0)
(0.124871 -0.152231 0)
(0.120502 -0.177014 0)
(0.115717 -0.200817 0)
(0.107766 -0.219933 0)
(0.0921557 -0.229137 0)
(0.0665877 -0.234032 0)
(0.0438934 -0.240232 0)
(0.0318874 -0.249761 0)
(0.0251292 -0.262182 0)
(0.0229584 -0.27754 0)
(0.55862 0.0887023 0)
(0.549765 0.0711047 0)
(0.543397 0.0529436 0)
(0.539508 0.0347457 0)
(0.538028 0.0169408 0)
(0.538808 -6.17937e-05 0)
(0.541726 -0.0158186 0)
(0.546732 -0.0299265 0)
(0.553495 -0.0418739 0)
(0.5616 -0.0512487 0)
(0.570642 -0.0574889 0)
(0.579995 -0.0599903 0)
(0.588906 -0.0583627 0)
(0.596972 -0.0527303 0)
(0.60405 -0.0426141 0)
(0.609647 -0.0276309 0)
(0.613185 -0.00842418 0)
(0.614035 0.0140056 0)
(0.611504 0.0388793 0)
(0.604817 0.0660633 0)
(0.593208 0.0938268 0)
(0.576901 0.119288 0)
(0.55576 0.142573 0)
(0.529871 0.161559 0)
(0.500421 0.176268 0)
(0.468345 0.185783 0)
(0.434551 0.189365 0)
(0.400206 0.18702 0)
(0.366529 0.179289 0)
(0.33454 0.167026 0)
(0.304921 0.151241 0)
(0.278001 0.132938 0)
(0.253821 0.112985 0)
(0.23223 0.092056 0)
(0.212974 0.0706303 0)
(0.195763 0.0490192 0)
(0.180309 0.0274011 0)
(0.166292 0.0058678 0)
(0.153753 -0.0156704 0)
(0.142196 -0.0372437 0)
(0.131647 -0.0590512 0)
(0.122056 -0.0813673 0)
(0.113416 -0.104482 0)
(0.105675 -0.128509 0)
(0.0984725 -0.153143 0)
(0.0906586 -0.177338 0)
(0.0797559 -0.197927 0)
(0.0622559 -0.208466 0)
(0.0311192 -0.209158 0)
(0.00312286 -0.213812 0)
(-0.0149905 -0.222889 0)
(-0.0276495 -0.237042 0)
(-0.0368793 -0.255652 0)
(-0.0422995 -0.275561 0)
(0.538648 0.0986537 0)
(0.529371 0.0776409 0)
(0.523 0.0561193 0)
(0.519501 0.0346177 0)
(0.51881 0.0136058 0)
(0.52065 -0.0065585 0)
(0.52502 -0.0253013 0)
(0.531666 -0.0421426 0)
(0.540023 -0.0563992 0)
(0.54942 -0.067639 0)
(0.55917 -0.0748987 0)
(0.568412 -0.0777126 0)
(0.575856 -0.0755634 0)
(0.581571 -0.0690178 0)
(0.586431 -0.0584846 0)
(0.589851 -0.0418936 0)
(0.59163 -0.0200237 0)
(0.592872 0.00489078 0)
(0.592272 0.0329293 0)
(0.588505 0.0653242 0)
(0.578102 0.0984204 0)
(0.562675 0.129057 0)
(0.542545 0.161756 0)
(0.517296 0.185891 0)
(0.488539 0.203995 0)
(0.45569 0.215714 0)
(0.420026 0.220469 0)
(0.383483 0.217957 0)
(0.347703 0.20876 0)
(0.313927 0.194058 0)
(0.28297 0.17527 0)
(0.255186 0.153763 0)
(0.230563 0.130676 0)
(0.208852 0.106856 0)
(0.189692 0.0828601 0)
(0.172695 0.0590225 0)
(0.157492 0.0355104 0)
(0.1437 0.0123712 0)
(0.131241 -0.0104987 0)
(0.119636 -0.033167 0)
(0.108881 -0.0559278 0)
(0.0988386 -0.0790767 0)
(0.0894204 -0.102827 0)
(0.0802956 -0.127019 0)
(0.0703201 -0.150877 0)
(0.0572993 -0.172019 0)
(0.0376969 -0.183866 0)
(0.00643208 -0.182908 0)
(-0.0301979 -0.185408 0)
(-0.0533529 -0.192635 0)
(-0.0704265 -0.207456 0)
(-0.0846538 -0.227522 0)
(-0.0959996 -0.249321 0)
(-0.105507 -0.27042 0)
(0.513123 0.108727 0)
(0.504022 0.0840255 0)
(0.498119 0.0588812 0)
(0.49537 0.0338321 0)
(0.495723 0.00935392 0)
(0.498784 -0.0141642 0)
(0.504558 -0.0360222 0)
(0.512486 -0.055586 0)
(0.52138 -0.071635 0)