/*--------------------------------*- C++ -*----------------------------------*\
  =========                 |
  \\      /  F ield         | OpenFOAM: The Open Source CFD Toolbox
   \\    /   O peration     | Website:  https://openfoam.org
    \\  /    A nd           | Version:  11
     \\/     M anipulation  |
\*---------------------------------------------------------------------------*/
FoamFile
{
    format      ascii;
    class       volScalarField;
    location    "9.5";
    object      mag(U);
}
// * * * * * * * * * * * * * * * * * * * * * * * * * * * * * * * * * * * * * //

dimensions      [0 1 -1 0 0 0 0];

internalField   nonuniform List<scalar> 
9600
(
0.993139
0.991876
0.991187
0.990845
0.990298
0.990003
0.989753
0.989954
0.990457
0.991216
0.992195
0.99343
0.994975
0.996518
0.998201
0.999952
1.0017
1.00385
1.00543
1.00638
1.00833
1.01041
1.01054
1.01001
1.01065
1.01117
1.01102
1.01048
1.00959
1.00817
1.00582
1.00083
0.987608
0.970865
0.962547
0.959582
0.966623
0.974334
1.00211
1.0103
0.993451
0.993429
0.993553
0.993843
0.994037
0.994259
0.994637
0.995366
0.996451
0.997674
0.999061
1.00098
1.00312
1.00526
1.00757
1.01029
1.01313
1.01561
1.01785
1.02015
1.0216
1.02242
1.02419
1.02648
1.02731
1.02722
1.02683
1.02672
1.02688
1.0272
1.02695
1.02507
1.02355
1.02358
1.02356
1.02129
1.02179
1.0239
1.03097
1.03895
0.993647
0.993547
0.993713
0.993863
0.994005
0.994302
0.994772
0.995651
0.996949
0.998156
0.999578
1.00113
1.00331
1.00578
1.0081
1.01029
1.01285
1.01568
1.01839
1.02012
1.02104
1.02232
1.02478
1.02695
1.02732
1.02704
1.02627
1.02618
1.02673
1.02877
1.03069
1.03106
1.02999
1.02766
1.02423
1.01936
1.01773
1.01962
1.02549
1.03876
0.993662
0.993644
0.993847
0.993995
0.994155
0.994395
0.995053
0.995751
0.996973
0.998323
1.00032
1.00158
1.00361
1.00608
1.00907
1.01131
1.01322
1.01571
1.01894
1.02093
1.02183
1.02274
1.02436
1.02578
1.02711
1.02741
1.02724
1.02697
1.0272
1.0279
1.02875
1.02864
1.02779
1.02717
1.02725
1.02852
1.02824
1.03305
1.0353
1.04559
0.993617
0.993612
0.993878
0.994
0.994138
0.994373
0.995066
0.995892
0.997357
0.998685
1.00034
1.0019
1.00422
1.00651
1.00907
1.01155
1.01417
1.0161
1.0181
1.02029
1.02239
1.02417
1.02462
1.02467
1.02533
1.02722
1.02829
1.02853
1.02849
1.02768
1.02708
1.02637
1.02734
1.02827
1.03006
1.0326
1.03262
1.03476
1.0335
1.0429
0.993542
0.993568
0.993928
0.993966
0.994152
0.994402
0.995291
0.996088
0.997616
0.998832
1.00084
1.00205
1.00453
1.00651
1.00981
1.01201
1.01438
1.01592
1.01873
1.02129
1.02315
1.02356
1.0241
1.02499
1.02617
1.02754
1.02812
1.02817
1.02816
1.02772
1.02743
1.02722
1.02737
1.02804
1.02846
1.0297
1.0295
1.03329
1.03284
1.04373
0.993448
0.993481
0.99388
0.993905
0.994164
0.994416
0.995418
0.996198
0.997821
0.998892
1.00111
1.00269
1.00478
1.00678
1.01037
1.01257
1.01484
1.01632
1.01893
1.02137
1.02333
1.02388
1.02458
1.02524
1.02578
1.0269
1.02808
1.0286
1.02872
1.02861
1.0283
1.02791
1.02735
1.02724
1.02732
1.02803
1.02793
1.03139
1.03016
1.03976
0.993277
0.993317
0.993794
0.993847
0.994147
0.994394
0.995443
0.99624
0.998002
0.99918
1.00133
1.00271
1.00536
1.00742
1.01015
1.01252
1.01549
1.01729
1.01911
1.02114
1.02317
1.0246
1.02552
1.02565
1.02558
1.02598
1.02745
1.0288
1.0293
1.0293
1.02896
1.02826
1.02778
1.02757
1.02685
1.02677
1.02615
1.02775
1.02632
1.03439
0.993161
0.993241
0.993823
0.993841
0.994173
0.994416
0.995559
0.996356
0.998202
0.999181
1.00146
1.00326
1.00601
1.00756
1.01058
1.01314
1.01629
1.01809
1.01945
1.02137
1.02365
1.02508
1.02579
1.02597
1.02598
1.02618
1.02682
1.02845
1.02958
1.02988
1.02983
1.02968
1.02905
1.0288
1.02694
1.026
1.02447
1.02516
1.02339
1.0302
0.992884
0.993021
0.993707
0.993706
0.994087
0.99429
0.995522
0.996312
0.998293
0.999272
1.00167
1.00341
1.00632
1.00821
1.01098
1.01322
1.01639
1.01875
1.02045
1.02187
1.0236
1.02492
1.02604
1.0266
1.02663
1.02646
1.02643
1.02714
1.02913
1.03038
1.03082
1.03093
1.02977
1.02925
1.02731
1.02623
1.02377
1.02353
1.0211
1.02548
0.992891
0.993036
0.993738
0.993667
0.994086
0.994304
0.99554
0.996425
0.998534
0.999626
1.00174
1.00361
1.0068
1.00909
1.01153
1.01371
1.01673
1.01975
1.02184
1.02256
1.02407
1.02509
1.02644
1.0271
1.02715
1.02687
1.02662
1.02689
1.02823
1.03047
1.0313
1.03196
1.03127
1.03103
1.02885
1.02755
1.02414
1.02302
1.01943
1.02196
0.992535
0.992637
0.993433
0.993303
0.993872
0.994061
0.995382
0.996272
0.99857
0.999716
1.00179
1.00375
1.00695
1.00945
1.01223
1.01438
1.01701
1.01977
1.02266
1.02339
1.02477
1.02529
1.02663
1.02682
1.02726
1.02711
1.02688
1.02687
1.02736
1.02923
1.03103
1.03283
1.0326
1.03257
1.03033
1.02899
1.02517
1.02344
1.01874
1.01972
0.992557
0.992614
0.993381
0.993205
0.993856
0.99407
0.995519
0.996341
0.998569
1.00016
1.0022
1.00411
1.0072
1.00993
1.01323
1.01516
1.01804
1.02026
1.02362
1.02453
1.02624
1.02621
1.02735
1.02699
1.0274
1.02738
1.02719
1.0271
1.02752
1.02876
1.03044
1.03316
1.03357
1.03443
1.03282
1.03181
1.0281
1.02571
1.01957
1.01883
0.992187
0.992239
0.993034
0.99285
0.993447
0.993713
0.995161
0.996245
0.998185
1.00004
1.00236
1.00412
1.00762
1.00991
1.01363
1.01577
1.01904
1.02046
1.02396
1.02522
1.02725
1.02698
1.02769
1.02715
1.02727
1.02723
1.027
1.02691
1.02712
1.02828
1.02939
1.03245
1.03371
1.03552
1.0347
1.03436
1.03103
1.0287
1.02224
1.01849
0.992184
0.992098
0.992926
0.992713
0.993409
0.993863
0.994924
0.996465
0.998522
1.00025
1.00301
1.00466
1.00821
1.01044
1.01441
1.01666
1.02024
1.02165
1.02514
1.02646
1.02859
1.02835
1.02876
1.02815
1.02765
1.0272
1.02682
1.02675
1.02705
1.02831
1.02931
1.03199
1.03379
1.03666
1.03667
1.03756
1.03499
1.03298
1.02715
1.02195
0.991317
0.991393
0.992204
0.992131
0.992838
0.9934
0.994703
0.995825
0.998317
0.999948
1.003
1.00479
1.00838
1.0105
1.01475
1.01687
1.02094
1.02249
1.02587
1.02704
1.02884
1.02929
1.02944
1.02899
1.0278
1.02674
1.026
1.02578
1.02608
1.02744
1.02851
1.03108
1.03302
1.03677
1.03757
1.03923
1.03808
1.03639
1.03209
1.02543
0.991114
0.991266
0.991796
0.992194
0.992719
0.993182
0.995125
0.995993
0.998615
1.0002
1.00357
1.00553
1.00958
1.01181
1.01597
1.01793
1.02217
1.02415
1.02722
1.02872
1.03013
1.03087
1.03073
1.0304
1.02921
1.02759
1.02612
1.02527
1.02519
1.02643
1.02767
1.0307
1.03265
1.03687
1.03907
1.04153
1.04208
1.04112
1.03861
1.0313
0.989722
0.990244
0.990803
0.991069
0.992049
0.99235
0.994254
0.995348
0.998322
0.999911
1.00331
1.00544
1.00954
1.01214
1.01657
1.01874
1.02251
1.02498
1.02794
1.02979
1.0309
1.03181
1.03122
1.03058
1.02932
1.02763
1.0258
1.02452
1.02378
1.02443
1.0255
1.02836
1.03113
1.03545
1.03911
1.04223
1.04487
1.04425
1.04477
1.03665
0.989282
0.989835
0.990682
0.990758
0.992055
0.992464
0.994495
0.99561
0.998734
1.00065
1.00429
1.00654
1.01077
1.01346
1.01815
1.0211
1.02463
1.02744
1.02987
1.03233
1.03307
1.03393
1.03321
1.0322
1.03046
1.02827
1.02614
1.02434
1.02316
1.02322
1.0241
1.02647
1.02956
1.03405
1.03911
1.04311
1.04801
1.04857
1.05179
1.04375
0.987821
0.988136
0.989305
0.989368
0.990789
0.991295
0.993463
0.994803
0.997969
1.00015
1.00399
1.00667
1.01091
1.0143
1.01849
1.02232
1.02557
1.029
1.03115
1.03371
1.03442
1.03511
1.03431
1.03301
1.03105
1.02838
1.02559
1.02301
1.02111
1.02042
1.0211
1.02294
1.02641
1.03029
1.03678
1.04138
1.049
1.05051
1.05723
1.05005
0.987775
0.987838
0.989212
0.989272
0.990883
0.991414
0.993652
0.995384
0.998584
1.00115
1.00509
1.00832
1.01232
1.01671
1.02047
1.0254
1.02829
1.03236
1.03439
1.03726
1.03779
1.03852
1.03741
1.03556
1.03327
1.03005
1.02654
1.02312
1.0204
1.01845
1.01847
1.01922
1.02301
1.02646
1.0339
1.03926
1.04887
1.05237
1.06262
1.0579
0.986043
0.986042
0.987493
0.987611
0.989126
0.990193
0.992273
0.994446
0.997621
1.00092
1.00442
1.00891
1.01229
1.01764
1.0211
1.02683
1.02962
1.0346
1.03632
1.03968
1.04019
1.04074
1.03982
1.03744
1.03467
1.03081
1.02674
1.02213
1.01888
1.01543
1.01502
1.01386
1.01723
1.01956
1.02761
1.0332
1.04509
1.05024
1.06377
1.06265
0.98594
0.986142
0.987501
0.988151
0.989242
0.990745
0.992594
0.995543
0.998077
1.00276
1.00565
1.01123
1.01446
1.0208
1.02396
1.0306
1.0333
1.03872
1.04067
1.04388
1.04507
1.04515
1.04426
1.04188
1.03866
1.03399
1.02955
1.02367
1.01952
1.01418
1.01251
1.00976
1.01229
1.01307
1.02065
1.02592
1.03879
1.04581
1.06261
1.06632
0.983277
0.984141
0.985007
0.986521
0.98705
0.989612
0.990841
0.994673
0.997016
1.00237
1.00534
1.01157
1.01505
1.02188
1.0252
1.03265
1.03544
1.04105
1.04371
1.04646
1.04796
1.04815
1.04719
1.04441
1.04116
1.03586
1.03105
1.02385
1.01913
1.01201
1.00925
1.00436
1.0054
1.00424
1.01067
1.01492
1.02763
1.03602
1.05395
1.06384
0.982186
0.984547
0.984698
0.987242
0.987583
0.990661
0.991752
0.996129
0.998915
1.00414
1.00811
1.01444
1.01837
1.02589
1.02965
1.03686
1.0413
1.04632
1.04981
1.05271
1.05429
1.05432
1.0534
1.05035
1.04699
1.04065
1.03527
1.02692
1.02127
1.01222
1.00791
1.00071
0.999756
0.996246
1.00052
1.00312
1.01395
1.02352
1.03981
1.05577
0.978172
0.981179
0.981257
0.984085
0.984969
0.98783
0.990879
0.994234
0.99839
1.00376
1.00808
1.01503
1.01961
1.02691
1.03252
1.0388
1.04462
1.04961
1.05385
1.05675
1.05852
1.05873
1.05801
1.05446
1.05092
1.04424
1.03837
1.02873
1.02186
1.0115
1.00536
0.995979
0.992293
0.986605
0.987141
0.988293
0.994161
1.00457
1.01643
1.0377
0.978754
0.980886
0.982651
0.983676
0.986501
0.988434
0.991889
0.996166
1.00065
1.0066
1.0123
1.01853
1.02573
1.03156
1.03933
1.04548
1.05205
1.05741
1.06192
1.06519
1.06746
1.06729
1.06677
1.0633
1.05958
1.0523
1.04608
1.03557
1.0275
1.01551
1.00719
0.996068
0.988514
0.980666
0.975414
0.974862
0.973705
0.983401
0.988572
1.01428
0.976413
0.977207
0.979083
0.980466
0.983389
0.985563
0.990131
0.993719
0.999876
1.00514
1.01292
1.01877
1.02724
1.03392
1.04229
1.04917
1.0563
1.06223
1.06753
1.07108
1.07334
1.07377
1.07317
1.06958
1.06584
1.05834
1.05151
1.04062
1.03122
1.0186
1.00729
0.995528
0.983675
0.974969
0.963506
0.961151
0.951917
0.959184
0.955022
0.981762
0.976903
0.978147
0.981453
0.98211
0.986307
0.988411
0.994094
0.997337
1.00508
1.00988
1.01887
1.02567
1.03451
1.04234
1.05094
1.05891
1.06661
1.07326
1.07874
1.08306
1.08549
1.08647
1.08599
1.0827
1.0789
1.07172
1.06395
1.05349
1.04216
1.0301
1.01529
1.00356
0.986879
0.977283
0.959293
0.954187
0.936964
0.939863
0.926328
0.947551
0.970772
0.971931
0.976069
0.977111
0.982514
0.984809
0.991924
0.996215
1.0047
1.01073
1.0204
1.02816
1.03785
1.04706
1.05596
1.06518
1.07329
1.08106
1.08681
1.09186
1.09475
1.0958
1.09558
1.0928
1.08854
1.08243
1.07329
1.06434
1.05052
1.04035
1.0221
1.01142
0.990483
0.97993
0.957371
0.94939
0.92656
0.924121
0.902633
0.913198
0.971438
0.973392
0.978167
0.980609
0.985622
0.989869
0.9968
1.00245
1.01144
1.01949
1.02927
1.03974
1.04948
1.06058
1.07011
1.08087
1.08898
1.09809
1.10407
1.10993
1.11289
1.11532
1.11397
1.11335
1.10703
1.10332
1.09196
1.08584
1.06925
1.06079
1.04096
1.03013
1.00767
0.995499
0.970255
0.958467
0.93119
0.922379
0.894206
0.893666
0.961081
0.964303
0.969422
0.973083
0.979667
0.985139
0.993497
1.00168
1.01085
1.02214
1.03159
1.04413
1.05426
1.06757
1.07727
1.0903
1.09854
1.10939
1.11501
1.12331
1.12474
1.13033
1.12704
1.12958
1.1215
1.12087
1.108
1.10325
1.08661
1.07825
1.05835
1.04711
1.02359
1.01013
0.983632
0.968869
0.939742
0.925422
0.895538
0.884042
0.963737
0.968409
0.973332
0.9784
0.984046
0.992076
0.998689
1.01053
1.01951
1.03409
1.04459
1.06114
1.07148
1.08802
1.09748
1.11346
1.12077
1.13494
1.13903
1.15034
1.15028
1.15812
1.15385
1.15751
1.14909
1.14887
1.13681
1.13338
1.11815
1.11116
1.09241
1.08166
1.06022
1.04532
1.02152
1.00355
0.976777
0.957546
0.92901
0.907383
0.951991
0.959704
0.965443
0.975012
0.981326
0.993893
1.00094
1.01594
1.02437
1.04191
1.05155
1.07136
1.08072
1.101
1.10965
1.12844
1.13553
1.1516
1.15569
1.16852
1.16894
1.17801
1.17443
1.17968
1.17244
1.17358
1.16322
1.15964
1.14714
1.13848
1.12394
1.11096
1.09371
1.07698
1.05596
1.03653
1.01141
0.988238
0.96277
0.935507
0.952061
0.962126
0.967396
0.979155
0.986405
1.00199
1.01153
1.03151
1.04275
1.06581
1.07755
1.10189
1.11334
1.13666
1.14706
1.16742
1.17578
1.19265
1.19793
1.21045
1.21221
1.21986
1.21795
1.22121
1.21603
1.21581
1.20798
1.20532
1.19585
1.18963
1.18075
1.1682
1.15945
1.14258
1.13016
1.10965
1.09391
1.07027
1.05265
1.028
0.943278
0.960845
0.969209
0.986699
0.995767
1.01493
1.0255
1.04693
1.05896
1.08358
1.09642
1.12266
1.13622
1.16073
1.1736
1.19436
1.20515
1.22152
1.22876
1.24079
1.24352
1.25138
1.24982
1.25356
1.24931
1.24863
1.24437
1.23846
1.23686
1.22495
1.22644
1.21008
1.21131
1.19156
1.19158
1.16728
1.16466
1.13749
1.13278
1.10269
0.94376
0.957415
0.970734
0.993411
1.00965
1.03741
1.05523
1.08638
1.10402
1.13523
1.15138
1.1812
1.195
1.22268
1.23334
1.25798
1.2649
1.28487
1.28841
1.30247
1.30255
1.3111
1.30757
1.3129
1.30522
1.30983
1.29975
1.3038
1.29486
1.29726
1.29096
1.29183
1.28562
1.28499
1.27642
1.27378
1.26249
1.25804
1.24505
1.24044
0.956164
0.982157
1.00084
1.02994
1.04637
1.07722
1.093
1.12507
1.14265
1.17556
1.19532
1.22602
1.24502
1.27157
1.28789
1.30947
1.32113
1.33743
1.34308
1.35425
1.35347
1.36028
1.35359
1.35773
1.34665
1.3501
1.33762
1.34233
1.33139
1.33919
1.33067
1.34226
1.33447
1.34879
1.33776
1.35224
1.33454
1.34605
1.31929
1.32559
0.985571
1.02741
1.06116
1.10854
1.13844
1.18274
1.21674
1.25641
1.28915
1.32435
1.35422
1.38306
1.41014
1.43108
1.45404
1.47042
1.48502
1.49651
1.5032
1.50734
1.50637
1.50171
1.4938
1.48259
1.4704
1.45306
1.43841
1.41794
1.40335
1.38438
1.37209
1.35857
1.35097
1.34549
1.34244
1.34446
1.34008
1.33778
1.30123
1.30295
1.15313
1.19066
1.22834
1.26663
1.30432
1.34009
1.37289
1.40249
1.4289
1.44785
1.47019
1.48057
1.49912
1.50503
1.51837
1.51812
1.52311
1.51333
1.50902
1.48868
1.47578
1.44402
1.42211
1.37792
1.34398
1.29144
1.24481
1.1891
1.13137
1.07611
1.00827
0.959248
0.884577
0.84482
0.768666
0.732014
0.691692
0.45505
0.0353394
0.112589
1.0606
1.07117
1.07284
1.03553
0.9965
1.06188
1.04733
0.864569
0.755941
0.715322
0.802916
1.07141
1.28154
1.28337
1.15783
1.08426
1.0619
1.04502
1.03574
1.03155
1.02818
1.02643
1.0242
1.0232
1.02286
1.02161
1.02145
1.0204
1.0198
1.01914
1.01841
1.01824
1.01751
1.01744
1.01669
1.01663
1.01585
1.0151
1.01399
1.0103
1.0661
1.06644
1.05886
1.0159
0.967551
0.974729
0.941566
0.822307
0.720875
0.67779
0.761045
1.04931
1.27838
1.30163
1.18317
1.09847
1.06709
1.04935
1.03861
1.03307
1.02967
1.0273
1.02521
1.02374
1.02344
1.02212
1.02199
1.02103
1.02042
1.0197
1.01892
1.01867
1.01792
1.01786
1.01712
1.01725
1.01692
1.01689
1.01622
1.01619
1.05818
1.05187
1.03941
0.992607
0.909603
0.916809
0.89547
0.784711
0.691386
0.645702
0.731881
1.06406
1.30009
1.30036
1.19197
1.10915
1.06849
1.05064
1.03975
1.03346
1.03048
1.02787
1.0259
1.0245
1.02381
1.02254
1.0224
1.02131
1.02084
1.02006
1.01927
1.01896
1.01818
1.01799
1.01726
1.01737
1.01705
1.01735
1.01647
1.01341
1.05402
1.04467
1.02905
0.981137
0.890145
0.83574
0.822072
0.760233
0.680383
0.630071
0.720321
1.10349
1.31529
1.28677
1.19284
1.12039
1.07244
1.05359
1.04245
1.03466
1.03176
1.02889
1.02718
1.02567
1.02463
1.02347
1.02317
1.02214
1.02174
1.02091
1.02001
1.01962
1.01879
1.01854
1.01792
1.01782
1.01771
1.01814
1.01831
1.02037
1.04477
1.0319
1.0095
0.963837
0.86367
0.821755
0.796543
0.738908
0.674308
0.636847
0.766997
1.1763
1.3361
1.26721
1.16864
1.1222
1.07323
1.05255
1.0432
1.03495
1.03284
1.02953
1.02798
1.02691
1.02548
1.0246
1.02396
1.02296
1.02257
1.02173
1.02096
1.02042
1.0196
1.01921
1.01848
1.0183
1.01811
1.01789
1.01733
1.01555
1.03972
1.02644
1.00179
0.960073
0.874802
0.792638
0.771152
0.747138
0.70418
0.696415
0.854747
1.23577
1.32653
1.23878
1.13707
1.11611
1.07413
1.05124
1.04374
1.03536
1.03315
1.03003
1.02844
1.02748
1.02605
1.02531
1.02451
1.0236
1.02311
1.0223
1.0216
1.02092
1.02015
1.01965
1.01902
1.01866
1.0186
1.01864
1.0188
1.02011
1.02997
1.01596
0.987603
0.947017
0.879507
0.829418
0.802166
0.771928
0.750943
0.780412
0.973795
1.25486
1.30199
1.20931
1.10475
1.09789
1.0701
1.04722
1.04274
1.03478
1.03264
1.03023
1.02864
1.02789
1.02643
1.02575
1.02484
1.02398
1.02344
1.02263
1.02198
1.02121
1.02051
1.01994
1.0194
1.0189
1.01866
1.01848
1.01802
1.01692
1.0257
1.01203
0.985589
0.950224
0.898743
0.839096
0.818286
0.817637
0.821478
0.88601
1.04151
1.23545
1.25899
1.17355
1.07473
1.0695
1.06507
1.04377
1.04121
1.03398
1.03196
1.03065
1.02887
1.02831
1.02694
1.02645
1.02543
1.02454
1.02383
1.02312
1.0225
1.02162
1.02099
1.02016
1.01961
1.01919
1.01903
1.01902
1.01906
1.01956
1.01964
1.00298
0.978789
0.943021
0.907939
0.883134
0.865746
0.864878
0.882662
0.948521
1.06206
1.20421
1.21788
1.14456
1.04133
1.037
1.05584
1.0374
1.03747
1.03312
1.03129
1.03109
1.02933
1.02899
1.02777
1.02726
1.02648
1.02564
1.02486
1.02414
1.02353
1.02263
1.022
1.02106
1.02023
1.01975
1.01912
1.01905
1.01877
1.01796
1.0172
1.00052
0.981009
0.956444
0.927427
0.902525
0.890187
0.900695
0.921868
0.976942
1.06581
1.15926
1.16753
1.10383
0.999743
1.0058
1.04145
1.02915
1.03319
1.03195
1.02986
1.03056
1.02939
1.02932
1.02828
1.02769
1.02708
1.02632
1.02581
1.02497
1.02445
1.02359
1.02296
1.0221
1.02129
1.02079
1.02009
1.01975
1.01959
1.01955
1.01371
0.996102
0.982007
0.961691
0.936704
0.936638
0.934947
0.941858
0.952971
0.991381
1.0535
1.11277
1.12206
1.06326
0.958662
0.977655
1.02304
1.01952
1.02584
1.0287
1.02706
1.02925
1.02864
1.02904
1.02853
1.02796
1.02745
1.02672
1.02625
1.02541
1.02486
1.02411
1.02354
1.02292
1.02206
1.02128
1.02053
1.02005
1.01967
1.01909
1.01189
0.998787
0.989262
0.979098
0.965497
0.959334
0.960044
0.972658
0.976834
0.99909
1.03147
1.06546
1.07128
1.01008
0.91484
0.950792
1.00413
1.0103
1.01671
1.02479
1.02429
1.0276
1.02761
1.02843
1.02864
1.02834
1.02785
1.02707
1.0266
1.02583
1.02522
1.02449
1.02395
1.02336
1.02267
1.02203
1.02125
1.02071
1.02031
1.02019
1.01159
1.00132
0.996642
0.991346
0.983082
0.994891
1.00622
1.01569
1.01034
1.00811
1.01736
1.02768
1.02795
0.958774
0.877132
0.925325
0.985381
1.00046
1.00789
1.02053
1.02172
1.02624
1.02692
1.02808
1.02859
1.0287
1.02851
1.02776
1.02717
1.02644
1.02562
1.02495
1.02429
1.02375
1.02294
1.02232
1.02156
1.021
1.02035
1.02015
1.01448
1.0087
1.0087
1.00927
1.01651
1.02885
1.04
1.05075
1.0476
1.01568
1.00365
0.991609
0.975389
0.898499
0.839309
0.900745
0.967151
0.989068
1.0011
1.01493
1.01879
1.02443
1.02648
1.02763
1.02855
1.02885
1.02913
1.02881
1.02815
1.02762
1.02677
1.02592
1.0252
1.02449
1.02373
1.02314
1.02238
1.02184
1.02118
1.02089
1.01948
1.01582
1.02127
1.02805
1.0365
1.0661
1.09079
1.09817
1.07665
1.0136
0.980537
0.950482
0.916558
0.840715
0.809715
0.8806
0.94967
0.974849
0.993055
1.00784
1.01498
1.02128
1.02534
1.02682
1.02825
1.02881
1.02935
1.0293
1.02902
1.02858
1.02819
1.02722
1.02659
1.02569
1.02495
1.02424
1.02337
1.02264
1.02177
1.02128
1.02519
1.02697
1.03641
1.05173
1.07283
1.10759
1.13714
1.15243
1.08478
0.998482
0.938938
0.8938
0.839856
0.778823
0.783264
0.867108
0.932749
0.960561
0.985094
0.999853
1.01087
1.01686
1.02253
1.02544
1.02753
1.02856
1.02939
1.02956
1.02947
1.02907
1.02884
1.02825
1.02785
1.02697
1.02639
1.02545
1.02476
1.02382
1.02315
1.02247
1.03274
1.03974
1.05107
1.07433
1.10176
1.157
1.20072
1.19733
1.08335
0.961453
0.876994
0.819149
0.756463
0.728572
0.7711
0.859908
0.918881
0.950486
0.978015
0.993625
1.00629
1.01335
1.01967
1.02362
1.02644
1.02808
1.0293
1.02978
1.02995
1.02949
1.02932
1.02871
1.02844
1.02758
1.02712
1.02614
1.0255
1.02443
1.02388
1.02332
1.04079
1.05361
1.07097
1.0991
1.14416
1.21954
1.26817
1.21192
1.05489
0.891519
0.789778
0.72948
0.680085
0.693976
0.77015
0.856673
0.908079
0.944812
0.97131
0.988844
1.0022
1.0115
1.01723
1.0222
1.02545
1.02743
1.02893
1.02966
1.03018
1.02993
1.02989
1.02931
1.02911
1.02822
1.02791
1.02677
1.02632
1.0255
1.02483
1.02406
1.05271
1.0661
1.09216
1.12331
1.18759
1.29296
1.32603
1.20932
0.978443
0.783483
0.68298
0.645567
0.642335
0.689948
0.783301
0.856997
0.901271
0.93998
0.966664
0.985838
0.99852
1.00988
1.01604
1.02125
1.02462
1.02733
1.02889
1.02988
1.03055
1.03046
1.0306
1.02985
1.02976
1.02886
1.02862
1.02746
1.027
1.02627
1.02597
1.02531
1.06272
1.07917
1.11152
1.15142
1.25072
1.37184
1.33584
1.15737
0.849256
0.65616
0.591746
0.614848
0.651386
0.713547
0.801081
0.861197
0.900894
0.938327
0.963917
0.984223
0.995367
1.00786
1.01556
1.02044
1.02463
1.02746
1.02914
1.03053
1.03144
1.03143
1.03186
1.03106
1.03106
1.03012
1.02986
1.02881
1.02824
1.02716
1.0268
1.02605
1.07323
1.09344
1.12817
1.18199
1.31788
1.40578
1.32
1.06195
0.73906
0.602269
0.606399
0.664866
0.700766
0.758216
0.82377
0.868948
0.911003
0.942145
0.962939
0.98393
0.995444
1.00616
1.01502
1.02057
1.02443
1.02796
1.02933
1.03112
1.03202
1.03208
1.03294
1.03219
1.0323
1.03122
1.03095
1.0299
1.02954
1.02847
1.02809
1.02745
1.07943
1.10473
1.14212
1.2177
1.37227
1.37277
1.24244
1.00751
0.803488
0.743592
0.743351
0.755225
0.76508
0.810189
0.849291
0.886129
0.925765
0.950227
0.967606
0.985851
0.998038
1.00586
1.01438
1.02049
1.02352
1.0281
1.02888
1.03123
1.03207
1.03233
1.03326
1.03274
1.03307
1.03213
1.03172
1.0306
1.03024
1.02925
1.02891
1.0282
1.08487
1.11082
1.14652
1.24436
1.34408
1.27324
1.15012
1.05923
0.952909
0.906978
0.84042
0.832058
0.827409
0.863172
0.883196
0.914236
0.941844
0.964645
0.979626
0.99017
1.00291
1.00748
1.01523
1.02103
1.02348
1.02817
1.02893
1.03131
1.03229
1.03295
1.03372
1.03363
1.03364
1.03345
1.03304
1.03234
1.03188
1.031
1.03077
1.03019
1.08161
1.10299
1.1392
1.23824
1.22003
1.1319
1.10909
1.06631
0.995083
0.951976
0.89288
0.905367
0.889954
0.916834
0.925498
0.950202
0.964221
0.985791
0.996229
1.00014
1.01183
1.01464
1.0197
1.02504
1.02658
1.03021
1.0316
1.03318
1.03453
1.03515
1.03561
1.03624
1.03534
1.03576
1.03474
1.03455
1.03372
1.03265
1.03199
1.03137
1.07206
1.08152
1.11577
1.16418
1.05878
1.0354
1.0435
1.0225
0.989191
0.951818
0.926675
0.957524
0.952366
0.972459
0.974689
0.989204
0.994801
1.01128
1.01637
1.01864
1.02415
1.02636
1.02838
1.03155
1.0339
1.03496
1.03744
1.03713
1.03843
1.0385
1.0384
1.03931
1.03802
1.03872
1.03707
1.03698
1.03595
1.03523
1.03448
1.03362
1.04688
1.0415
1.06607
1.03545
0.905321
0.901862
0.940052
0.938015
0.938266
0.920564
0.940247
0.976443
1.01274
1.02386
1.02553
1.02888
1.03271
1.04033
1.04198
1.0412
1.03965
1.04032
1.04043
1.03958
1.04233
1.04056
1.04243
1.04138
1.04156
1.04143
1.04055
1.04082
1.0393
1.03942
1.03791
1.0376
1.03664
1.03609
1.03569
1.03536
1.00773
0.99467
0.991301
0.89517
0.754804
0.765786
0.815283
0.832171
0.850343
0.872018
0.930022
0.979914
1.03715
1.06738
1.07843
1.07013
1.07498
1.06996
1.07355
1.06378
1.06225
1.05604
1.05452
1.0492
1.04991
1.04694
1.04617
1.046
1.04423
1.04461
1.04312
1.04287
1.04183
1.04122
1.04059
1.03978
1.03902
1.03795
1.03762
1.03688
0.959745
0.932725
0.898456
0.787863
0.623116
0.634178
0.682137
0.710883
0.743602
0.794302
0.879009
0.958887
1.03838
1.09141
1.12167
1.11684
1.11467
1.1062
1.10796
1.09367
1.08981
1.07665
1.07489
1.06431
1.06325
1.05835
1.05628
1.0549
1.05242
1.05121
1.04976
1.04815
1.04725
1.04578
1.04524
1.04399
1.04312
1.04202
1.04168
1.04113
0.9166
0.878279
0.824979
0.727966
0.567162
0.555347
0.562558
0.584832
0.615766
0.679441
0.785844
0.901767
1.01226
1.09503
1.14026
1.16199
1.15507
1.14968
1.14175
1.1332
1.12021
1.10966
1.10058
1.08973
1.08343
1.07704
1.07296
1.06851
1.06688
1.06263
1.06223
1.05812
1.05772
1.05428
1.05308
1.05043
1.04808
1.04654
1.04463
1.04414
0.880008
0.83423
0.779392
0.715329
0.595139
0.541858
0.506153
0.489002
0.487504
0.537035
0.648807
0.793272
0.945514
1.07034
1.14571
1.18396
1.19485
1.18613
1.17777
1.17194
1.15325
1.14412
1.1289
1.11922
1.10552
1.10003
1.08979
1.08487
1.08008
1.07479
1.07281
1.0681
1.06717
1.06298
1.06184
1.05843
1.0562
1.05422
1.05186
1.05136
0.85858
0.813893
0.768381
0.729289
0.658749
0.597561
0.546269
0.498241
0.442076
0.422232
0.48313
0.624056
0.816606
0.993482
1.11816
1.18483
1.21304
1.21433
1.20735
1.1975
1.18591
1.16955
1.1584
1.14466
1.13047
1.12184
1.10977
1.10404
1.09546
1.09129
1.08444
1.08161
1.07613
1.07276
1.06891
1.06542
1.06221
1.05961
1.05733
1.05639
0.851619
0.816831
0.781358
0.752067
0.71928
0.681338
0.634308
0.592155
0.548252
0.481126
0.412171
0.4398
0.613358
0.837878
1.03691
1.15445
1.2065
1.22883
1.22851
1.22239
1.21252
1.19692
1.18687
1.17146
1.15983
1.14402
1.13562
1.12298
1.1168
1.10855
1.10149
1.09703
1.08995
1.08713
1.08105
1.07864
1.07322
1.07182
1.06803
1.06755
0.874977
0.844945
0.826231
0.811593
0.787178
0.76179
0.741268
0.702766
0.67557
0.648298
0.59194
0.4817
0.431838
0.599866
0.854991
1.06741
1.17858
1.22656
1.24313
1.24552
1.23716
1.22756
1.21289
1.20386
1.18979
1.17569
1.16513
1.1512
1.14448
1.13145
1.12432
1.1136
1.1085
1.09952
1.0961
1.09033
1.08651
1.08305
1.07951
1.07845
0.912668
0.894362
0.895457
0.896548
0.898913
0.884584
0.859164
0.828588
0.793317
0.762045
0.746936
0.70273
0.617515
0.484951
0.576805
0.844635
1.07212
1.19005
1.23821
1.25663
1.2597
1.25479
1.2448
1.23412
1.22527
1.21233
1.20079
1.19254
1.18058
1.17237
1.15967
1.15066
1.14053
1.12937
1.12411
1.11448
1.11108
1.10296
1.10154
1.09729
1.01266
1.00945
1.01574
1.01779
1.02991
1.01388
0.96752
0.914237
0.854633
0.807293
0.787084
0.792953
0.780742
0.727273
0.625398
0.52427
0.70526
0.984355
1.13384
1.21387
1.24545
1.26218
1.26265
1.2589
1.25275
1.2422
1.23253
1.22307
1.21657
1.20854
1.20159
1.19507
1.18564
1.17702
1.16447
1.15403
1.14355
1.1341
1.128
1.12315
1.11118
1.1169
1.13812
1.12948
1.10006
1.05698
0.994808
0.934363
0.867729
0.807771
0.763595
0.726418
0.716564
0.731014
0.714655
0.641301
0.52779
0.47073
0.694635
0.952007
1.07279
1.15523
1.19694
1.22371
1.23598
1.24041
1.23815
1.23389
1.23089
1.2245
1.22186
1.21707
1.21379
1.21004
1.20554
1.19986
1.19282
1.18353
1.17456
1.16459
1.2343
1.22404
1.20365
1.16672
1.12451
1.06996
0.996152
0.907901
0.829593
0.753721
0.680103
0.618373
0.583378
0.576772
0.555822
0.522364
0.4982
0.458095
0.347233
0.324056
0.577116
0.809956
0.945546
1.04972
1.11635
1.15769
1.18728
1.20029
1.21178
1.21514
1.21732
1.21792
1.21669
1.21668
1.21608
1.2158
1.21568
1.21169
1.20906
1.2028
1.29235
1.25143
1.20692
1.15711
1.1
1.01106
0.901852
0.793828
0.660534
0.530438
0.44865
0.389167
0.34195
0.333167
0.338633
0.333316
0.328177
0.299427
0.268898
0.250902
0.15848
0.0660724
0.379777
0.599148
0.800247
0.918911
1.0042
1.07234
1.1134
1.14697
1.16646
1.18207
1.19039
1.1966
1.1986
1.19846
1.20588
1.20839
1.21566
1.22386
1.19591
1.04587
0.902006
0.758442
0.609614
0.462684
0.307752
0.172519
0.0969499
0.0793407
0.121805
0.181887
0.242363
0.286068
0.321941
0.33508
0.335107
0.329336
0.3062
0.309014
0.320802
0.327746
0.317294
0.276833
0.135153
0.285938
0.468818
0.626555
0.750634
0.832323
0.901407
0.960486
1.01246
1.05605
1.08483
1.12113
1.13451
1.16394
1.1706
1.18596
0.114623
0.167489
0.225698
0.318766
0.387004
0.451
0.502547
0.54311
0.57522
0.600664
0.616334
0.621169
0.611707
0.595412
0.573905
0.537187
0.495955
0.453444
0.417176
0.381611
0.339192
0.31698
0.306753
0.303598
0.286888
0.272157
0.201268
0.120705
0.144019
0.510514
0.601753
0.656517
0.696197
0.729071
0.766554
0.799656
0.840749
0.878634
0.93137
0.977977
0.995327
0.994804
0.986185
0.983456
0.983582
0.986847
0.994673
1.00447
1.01381
1.01731
1.01765
1.01618
1.01455
1.01345
1.01354
1.01352
1.01348
1.01322
1.01295
1.01264
1.01242
1.01205
1.0117
1.01137
1.01103
1.01067
1.0103
1.00991
1.00951
1.00908
1.00862
1.00814
1.00765
1.00717
1.00668
1.00622
1.00578
1.00535
1.00496
1.0047
1.02059
1.02621
1.02731
1.02808
1.02781
1.02588
1.02155
1.0167
1.01417
1.01349
1.01395
1.01489
1.01592
1.01621
1.01611
1.01584
1.01548
1.01509
1.01473
1.01438
1.014
1.01356
1.01309
1.01261
1.01216
1.01173
1.01133
1.01093
1.01049
1.00996
1.0094
1.00887
1.00833
1.00776
1.0072
1.00662
1.0061
1.00567
1.00532
1.005
1.00587
1.00658
1.00755
1.00914
1.01169
1.01264
1.01414
1.01444
1.0145
1.01497
1.01539
1.01599
1.01623
1.01626
1.01621
1.01602
1.01575
1.01541
1.01505
1.01471
1.01437
1.014
1.01356
1.01307
1.01261
1.01216
1.01175
1.01138
1.01098
1.01049
1.00996
1.0094
1.00882
1.00831
1.00773
1.00719
1.00671
1.00633
1.00593
1.00563
1.02527
1.02707
1.02762
1.02709
1.02523
1.02251
1.01957
1.01722
1.01633
1.01628
1.01658
1.01665
1.01662
1.01647
1.01629
1.01613
1.01595
1.01566
1.01528
1.0149
1.01452
1.01408
1.01364
1.01321
1.01277
1.01231
1.01188
1.01149
1.0111
1.01066
1.01017
1.00958
1.00897
1.00844
1.0079
1.00731
1.00686
1.00647
1.00608
1.00574
1.01205
1.01384
1.01383
1.0142
1.0145
1.01473
1.01531
1.01542
1.01581
1.01617
1.01657
1.01672
1.01663
1.01661
1.01651
1.01646
1.01618
1.0158
1.01546
1.01526
1.01498
1.01454
1.01403
1.01354
1.0132
1.01277
1.01237
1.01194
1.01158
1.01117
1.01066
1.01009
1.00951
1.00901
1.00849
1.00789
1.00736
1.00701
1.0066
1.00629
1.02308
1.02348
1.02348
1.02315
1.0221
1.02099
1.01982
1.01883
1.0181
1.01771
1.01757
1.01748
1.01734
1.01716
1.01699
1.01675
1.01645
1.01606
1.01565
1.01529
1.01499
1.01463
1.01412
1.01363
1.01321
1.0128
1.01237
1.01196
1.0117
1.01124
1.01062
1.01009
1.00955
1.00909
1.00857
1.00799
1.00753
1.00713
1.00673
1.00625
1.0153
1.01592
1.01578
1.01595
1.01626
1.01663
1.01691
1.017
1.01712
1.01716
1.01738
1.01747
1.01744
1.01739
1.01721
1.01704
1.01672
1.01644
1.01611
1.01581
1.01546
1.01509
1.01462
1.0142
1.01377
1.01335
1.01289
1.0126
1.01224
1.01186
1.01119
1.01069
1.01014
1.00964
1.00904
1.00857
1.00806
1.00763
1.00718
1.00692
1.02097
1.02134
1.02133
1.0211
1.02055
1.02019
1.01965
1.0193
1.01892
1.01873
1.01846
1.01827
1.01797
1.01783
1.01772
1.01753
1.01707
1.0166
1.01629
1.01594
1.01562
1.01513
1.01468
1.01426
1.01381
1.01336
1.013
1.01267
1.01231
1.01182
1.01134
1.01077
1.01028
1.00981
1.00922
1.00872
1.00821
1.00781
1.00732
1.00689
1.01697
1.01723
1.01725
1.01769
1.01785
1.01803
1.01808
1.01817
1.01832
1.01853
1.01853
1.01843
1.01822
1.0182
1.01813
1.01797
1.01765
1.01739
1.01704
1.01671
1.01628
1.01588
1.01546
1.01506
1.0145
1.0141
1.01375
1.01349
1.01304
1.01254
1.01195
1.01148
1.01097
1.01041
1.00982
1.00926
1.00878
1.00846
1.00805
1.00766
1.02002
1.02053
1.02042
1.0206
1.02035
1.02018
1.01983
1.01975
1.01963
1.01964
1.01928
1.01906
1.01872
1.01878
1.01852
1.01829
1.01784
1.01771
1.01727
1.01686
1.01643
1.01608
1.01562
1.01516
1.01465
1.01418
1.01392
1.01359
1.01322
1.0127
1.01218
1.01168
1.01127
1.01069
1.01013
1.00957
1.00912
1.00871
1.00812
1.00769
1.01843
1.01882
1.01882