/*--------------------------------*- C++ -*----------------------------------*\
  =========                 |
  \\      /  F ield         | OpenFOAM: The Open Source CFD Toolbox
   \\    /   O peration     | Website:  https://openfoam.org
    \\  /    A nd           | Version:  11
     \\/     M anipulation  |
\*---------------------------------------------------------------------------*/
FoamFile
{
    format      ascii;
    class       surfaceScalarField;
    location    "9.5";
    object      phi;
}
// * * * * * * * * * * * * * * * * * * * * * * * * * * * * * * * * * * * * * //

dimensions      [0 3 -1 0 0 0 0];

internalField   nonuniform List<scalar> 
18960
(
0.0889468
0.000429202
-0.089376
0.0885439
0.000402838
0.0882059
0.000338054
0.0878798
0.000326106
0.0875943
0.000285414
0.0873317
0.000262589
0.0870922
0.000239597
0.086897
0.000195193
0.0867293
0.000167683
0.0866157
0.00011358
0.0865266
8.91374e-05
0.0864909
3.56568e-05
0.0864774
1.35128e-05
0.0865038
-2.63726e-05
0.0865551
-5.13676e-05
0.086627
-7.18221e-05
0.0867322
-0.000105222
0.0868311
-9.88851e-05
0.0869026
-7.15892e-05
0.0870105
-0.000107805
0.0871655
-0.000155071
0.0872708
-0.000105304
0.0873049
-3.40381e-05
0.0873616
-5.67164e-05
0.0874814
-0.000119846
0.0875977
-0.000116266
0.0876874
-8.96644e-05
0.0877773
-8.99493e-05
0.0878493
-7.20233e-05
0.0878828
-3.34401e-05
0.0878011
8.17217e-05
0.0873621
0.00043892
0.0863669
0.000995244
0.0855004
0.000866536
0.0850225
0.000477843
0.0853107
-0.000288212
0.0862465
-0.000935757
0.0876314
-0.0013849
0.090334
-0.00270267
-0.00188162
0.0922157
0.0890307
0.000779249
-0.0893808
0.0887165
0.000717093
0.0884067
0.000647792
0.0881344
0.000598394
0.0878829
0.000536929
0.0876615
0.00048404
0.0874852
0.000415832
0.0873372
0.00034324
0.0872341
0.000270764
0.0871464
0.000201317
0.0871377
9.78298e-05
0.0871511
2.22606e-05
0.0872159
-5.13393e-05
0.0872946
-0.000105094
0.0873934
-0.000150107
0.0875492
-0.000227605
0.087709
-0.000265022
0.0878752
-0.000265093
0.0880412
-0.000237655
0.0881767
-0.00024323
0.0882854
-0.000263838
0.088416
-0.000235895
0.0886216
-0.000239656
0.0888304
-0.000265436
0.0889577
-0.000247166
0.0890726
-0.000231167
0.0891895
-0.000206627
0.0893404
-0.00024076
0.0895536
-0.00028524
0.0897743
-0.000254153
0.0899475
-9.153e-05
0.0901577
0.000228726
0.0904227
0.000730255
0.090609
0.000680259
0.0906026
0.000484282
0.0904968
-0.000182422
0.0906265
-0.0010655
0.0909746
-0.00173295
0.0915724
-0.00330047
-0.00334279
0.0930335
0.089069
0.00111368
-0.0894034
0.0887467
0.00103945
0.088462
0.000932406
0.0882066
0.000853878
0.0879612
0.000782312
0.0877446
0.000700609
0.0875569
0.000603559
0.0874116
0.00048849
0.0873031
0.000379331
0.0872473
0.000257125
0.0872101
0.000134984
0.0872645
-3.21138e-05
0.0873193
-0.00010618
0.0874064
-0.000192178
0.0874977
-0.000241407
0.0876072
-0.000337083
0.0877617
-0.000419567
0.0879201
-0.000423467
0.0880631
-0.000380652
0.0881604
-0.000340563
0.0882345
-0.000337885
0.0884026
-0.000404007
0.0886413
-0.000478372
0.0888024
-0.000426513
0.0888901
-0.000334854
0.0889376
-0.000278736
0.0890233
-0.000292256
0.0891859
-0.000403426
0.0894356
-0.000534871
0.0898275
-0.000646059
0.0902228
-0.000486867
0.0905863
-0.000134722
0.0908237
0.000492814
0.0908873
0.000616712
0.0907725
0.000599018
0.0904448
0.000145273
0.0904401
-0.00106077
0.0905685
-0.00186132
0.0913765
-0.00410853
-0.00446963
0.0925034
0.0890552
0.0014527
-0.0893943
0.088748
0.0013467
0.0884509
0.00122946
0.0881932
0.00111166
0.0879543
0.00102116
0.0877576
0.00089732
0.0875901
0.000771095
0.0874599
0.000618684
0.0873633
0.000475905
0.0873324
0.000287973
0.0873156
0.000151801
0.0873026
-1.9076e-05
0.0873646
-0.000168226
0.0874608
-0.000288342
0.087566
-0.000346658
0.0876569
-0.000427986
0.0877664
-0.00052899
0.0879438
-0.000600904
0.0881266
-0.000563476
0.0882233
-0.000437191
0.0883081
-0.000422692
0.0884227
-0.000518668
0.088581
-0.000636689
0.0887738
-0.000619249
0.08896
-0.000521048
0.0890952
-0.000413991
0.0892093
-0.000406307
0.0893254
-0.000519528
0.0895091
-0.000718582
0.0897539
-0.000890838
0.0900883
-0.000821288
0.0904262
-0.000472623
0.0908062
0.000112798
0.0910907
0.000332223
0.0914146
0.000275089
0.0915405
1.94339e-05
0.091535
-0.00105526
0.091589
-0.00191533
0.0916528
-0.00417238
-0.00518831
0.0923715
0.0890743
0.00176814
-0.0893897
0.0887595
0.00166146
0.0884688
0.00152018
0.0882145
0.00136597
0.0879799
0.00125573
0.0877899
0.00108739
0.0876119
0.000949038
0.0875027
0.000727898
0.0874256
0.000552976
0.0873571
0.000356497
0.0873457
0.000163155
0.0873645
-3.78778e-05
0.0874254
-0.000229051
0.0875034
-0.000366415
0.0876109
-0.000454086
0.0877353
-0.00055239
0.087845
-0.000638719
0.0879533
-0.000709228
0.0880596
-0.000669729
0.0882245
-0.000602088
0.0883674
-0.000565636
0.0884811
-0.00063239
0.0885161
-0.000671662
0.0886077
-0.000710803
0.0888118
-0.000725152
0.0890528
-0.000655059
0.0892495
-0.000602966
0.0893967
-0.000666752
0.0895079
-0.000829711
0.089608
-0.000990952
0.0898406
-0.00105391
0.090226
-0.000858057
0.0907219
-0.000383108
0.0911994
-0.000145242
0.0916393
-0.000164839
0.0920105
-0.000351743
0.091958
-0.00100275
0.0918199
-0.00177723
0.0915021
-0.00385458
-0.00539031
0.0917041
0.0890652
0.00208614
-0.0893832
0.0887638
0.0019628
0.0884871
0.00179688
0.0882386
0.00161446
0.0880168
0.00147757
0.0878254
0.00127876
0.0876766
0.00109789
0.0875634
0.000841084
0.0874737
0.00064266
0.0874476
0.000382581
0.0874386
0.000172218
0.0874587
-5.80454e-05
0.087503
-0.000273303
0.0875892
-0.000452601
0.0876952
-0.000560169
0.0877886
-0.000645727
0.0878641
-0.00071423
0.0879706
-0.000815721
0.0881421
-0.000841253
0.0882912
-0.000751216
0.0883881
-0.00066253
0.0884398
-0.000684052
0.0885213
-0.000753123
0.0886711
-0.000860624
0.0888578
-0.000911899
0.0890772
-0.000874398
0.089272
-0.000797811
0.0894247
-0.000819471
0.0895598
-0.000964742
0.0897063
-0.00113748
0.0899043
-0.00125188
0.090235
-0.00118884
0.090655
-0.000803097
0.0910529
-0.00054312
0.091424
-0.000535907
0.0917452
-0.000672977
0.0919218
-0.00117937
0.091989
-0.00184439
0.0917316
-0.00359723
-0.00543639
0.0917777
0.0890702
0.00239903
-0.089383
0.0887827
0.00225024
0.0885148
0.00206484
0.0882811
0.00184807
0.0880568
0.00170193
0.0878814
0.0014542
0.087729
0.00125025
0.0875984
0.000971639
0.0875331
0.000707959
0.0875106
0.000405167
0.0875086
0.000174218
0.0875101
-5.96174e-05
0.0875427
-0.000305834
0.0876401
-0.000550049
0.0877729
-0.000692922
0.0878461
-0.000718929
0.0879171
-0.00078525
0.088011
-0.000909662
0.0881572
-0.000987401
0.0883071
-0.000901123
0.0884011
-0.000756548
0.0884758
-0.000758719
0.0885386
-0.000815929
0.0886358
-0.00095789
0.0887771
-0.00105318
0.088994
-0.00109127
0.0892392
-0.00104305
0.0894407
-0.0010209
0.0895912
-0.00111525
0.0897597
-0.00130597
0.089947
-0.00143922
0.0902189
-0.00146073
0.0906076
-0.00119179
0.0909781
-0.000913694
0.0913206
-0.000878357
0.0916474
-0.000999802
0.0918446
-0.00137653
0.0919273
-0.00192713
0.0916182
-0.00328807
-0.0052778
0.0914596
0.0890546
0.0027109
-0.0893665
0.0887644
0.00254048
0.0885144
0.00231482
0.0882855
0.00207701
0.0880834
0.00190403
0.08791
0.00162754
0.0877723
0.00138795
0.0876691
0.00107488
0.0876183
0.000758768
0.0875728
0.000450668
0.0875773
0.000169746
0.0876
-8.23202e-05
0.0876628
-0.000368678
0.0877174
-0.00060467
0.0877914
-0.000766937
0.0879051
-0.000832551
0.0880023
-0.000882476
0.0880636
-0.000971008
0.088165
-0.00108879
0.0882825
-0.00101862
0.0884304
-0.000904477
0.0885334
-0.000861716
0.0886086
-0.000891067
0.0886625
-0.00101177
0.0887401
-0.00113082
0.0889289
-0.00128003
0.0892226
-0.00133675
0.0894835
-0.00128179
0.0896731
-0.00130486
0.0898305
-0.00146339
0.0900213
-0.00163005
0.0902511
-0.00169051
0.0906029
-0.00154357
0.0909277
-0.00123848
0.0912071
-0.00115781
0.0914637
-0.00125637
0.0916723
-0.00158518
0.091781
-0.00203579
0.0915593
-0.00306634
-0.00510482
0.0913863
0.0890718
0.00301713
-0.089378
0.0887853
0.00282694
0.088546
0.00255416
0.0883297
0.00229331
0.0881478
0.0020859
0.0879753
0.00180007
0.0878539
0.00150934
0.0877521
0.00117663
0.0876888
0.000822041
0.0876653
0.000474242
0.0876827
0.000152287
0.0877069
-0.000106491
0.087736
-0.000397817
0.0877958
-0.000664462
0.0878816
-0.000852663
0.087994
-0.000945004
0.0880912
-0.000979657
0.0881224
-0.00100224
0.0881781
-0.0011445
0.0883258
-0.00116629
0.0884563
-0.00103499
0.0885651
-0.000970519
0.0886397
-0.000965611
0.0886863
-0.00105845
0.0887576
-0.00120206
0.088888
-0.00141041
0.0891127
-0.00156153
0.0894324
-0.00160145
0.0897013
-0.00157372
0.0899056
-0.00166771
0.0901018
-0.00182628
0.0903326
-0.00192127
0.0906611
-0.00187211
0.0909986
-0.00157595
0.0912629
-0.00142213
0.091451
-0.00144443
0.0915945
-0.00172875
0.091696
-0.00213729
0.0915543
-0.00292464
-0.0047197
0.0911692
0.0890162
0.00331785
-0.089317
0.0887713
0.00307188
0.0885435
0.002782
0.0883385
0.00249827
0.0881618
0.00226257
0.088013
0.00194891
0.0878897
0.00163263
0.0878012
0.00126514
0.0877439
0.000879343
0.0877313
0.000486855
0.0877452
0.000138329
0.0877714
-0.000132659
0.0878185
-0.000444928
0.087857
-0.000702962
0.0879199
-0.000915562
0.08802
-0.00104504
0.0881303
-0.00108999
0.0882177
-0.00108968
0.0882629
-0.00118965
0.0883378
-0.0012412
0.0884576
-0.00115484
0.0885706
-0.00108351
0.0886644
-0.00105941
0.0887418
-0.00113586
0.0887968
-0.00125705
0.0888788
-0.00149238
0.0890347
-0.00171749
0.0893245
-0.00189116
0.0896748
-0.00192408
0.0899549
-0.00194776
0.0901989
-0.0020703
0.0904264
-0.0021488
0.0906887
-0.0021344
0.0910182
-0.00190545
0.0912842
-0.00168816
0.0914881
-0.00164828
0.0915703
-0.00181094
0.0916245
-0.0021915
0.0915364
-0.00283657
-0.00431305
0.0911298
0.0890783
0.00360808
-0.0893685
0.088822
0.00332814
0.0885951
0.0030089
0.0884075
0.00268591
0.0882275
0.0024426
0.0880926
0.00208374
0.0879776
0.00174771
0.0878972
0.00134551
0.0878627
0.000913862
0.0878269
0.000522647
0.0878351
0.0001301
0.0878743
-0.000171874
0.0879218
-0.000492428
0.087966
-0.000747123
0.0880203
-0.000969871
0.0880917
-0.00111645
0.0882077
-0.00120602
0.0883136
-0.00119552
0.0883441
-0.00122019
0.0883916
-0.00128867
0.0884728
-0.00123604
0.0885825
-0.00119322
0.0887021
-0.00117906
0.0887913
-0.00122502
0.0888544
-0.0013202
0.0889089
-0.00154684
0.0890124
-0.001821
0.0892304
-0.00210913
0.0895874
-0.00228107
0.0899375
-0.00229785
0.0902534
-0.00238628
0.0905135
-0.00240881
0.0908087
-0.00242965
0.0911535
-0.00225028
0.0914582
-0.00199279
0.0917035
-0.00189365
0.0917806
-0.00188799
0.091767
-0.00217797
0.0916652
-0.0027347
-0.00388939
0.0912415
0.089026
0.00389806
-0.089316
0.0888106
0.00354354
0.0885858
0.00323374
0.08841
0.00286166
0.0882531
0.00259953
0.0881308
0.00220608
0.0880213
0.00185721
0.0879606
0.0014062
0.0879108
0.000963644
0.0878917
0.000541735
0.0878911
0.000130644
0.0879192
-0.000199977
0.0879801
-0.000553247
0.0880349
-0.000801945
0.0880895
-0.00102444
0.0881577
-0.00118464
0.088248
-0.00129633
0.0883671
-0.00131464
0.0884419
-0.00129501
0.08845
-0.00129672
0.0885211
-0.00130715
0.0885816
-0.00125372
0.0886846
-0.00128211
0.0887725
-0.00131288
0.0888593
-0.00140702
0.0889369
-0.00162449
0.0890231
-0.00190713
0.089158
-0.00224402
0.0894196
-0.00254273
0.0898201
-0.00269832
0.0902074
-0.00277356
0.0905961
-0.00279756
0.0909248
-0.0027583
0.0912744
-0.00259997
0.0915872
-0.00230556
0.0918558
-0.00216225
0.091988
-0.00202015
0.091982
-0.00217201
0.09179
-0.00254272
-0.0036003
0.0915009
0.0891217
0.00415782
-0.0893815
0.0888805
0.00378475
0.0886738
0.00344045
0.0884972
0.00303827
0.0883454
0.00275131
0.0882189
0.00233259
0.0881234
0.00195269
0.0880611
0.00146848
0.0880245
0.00100023
0.0880108
0.000555495
0.0880111
0.000130337
0.0880281
-0.000216977
0.0880833
-0.000608483
0.0881471
-0.00086571
0.0882178
-0.00109518
0.0882661
-0.00123286
0.0883403
-0.00137054
0.0884439
-0.00141825
0.0885249
-0.00137605
0.0885691
-0.00134089
0.0886188
-0.00135691
0.0886655
-0.00130033
0.0887285
-0.00134513
0.0887877
-0.0013721
0.0888856
-0.00150495
0.0889605
-0.00169932
0.089054
-0.00200069
0.0891703
-0.00236029
0.0893622
-0.00273467
0.0897087
-0.00304479
0.0901088
-0.00317369
0.0905743
-0.00326302
0.0909937
-0.00317767
0.0914258
-0.00303212
0.0918326
-0.0027123
0.0921642
-0.00249386
0.09239
-0.00224601
0.0924639
-0.00224593
0.0922213
-0.00230013
-0.00332542
0.0919465
0.0890851
0.00440361
-0.0893308
0.088885
0.00398482
0.0886921
0.00363332
0.0885145
0.00321589
0.0883755
0.00289035
0.0882599
0.00244812
0.0881791
0.00203354
0.0881138
0.00153374
0.0880879
0.00102612
0.088067
0.000576405
0.0880825
0.000114895
0.0881089
-0.000243406
0.0881431
-0.000642685
0.0882107
-0.000933317
0.0882973
-0.00118173
0.0883595
-0.00129511
0.0884313
-0.00144232
0.088475
-0.00146197
0.0885977
-0.00149877
0.0886389
-0.00138202
0.0887009
-0.00141897
0.088696
-0.00129544
0.0887436
-0.00139266
0.0887798
-0.0014083
0.0888754
-0.00160056
0.0889551
-0.00177902
0.0890375
-0.00208317
0.089149
-0.00247179
0.089288
-0.0028736
0.0895562
-0.00331298
0.0899454
-0.00356292
0.0904379
-0.00375552
0.0909358
-0.00367557
0.0914848
-0.00358117
0.0920091
-0.00323661
0.0924475
-0.00293225
0.0927471
-0.00254554
0.0929612
-0.00246009
0.0927711
-0.00211003
-0.00305804
0.0925037
0.0891847
0.00465567
-0.0894368
0.0889719
0.00419764
0.0887788
0.00382643
0.0886202
0.00337447
0.0884839
0.00302662
0.0883716
0.0025604
0.0882882
0.00211697
0.0882371
0.00158487
0.0882178
0.00104539
0.0882153
0.00057887
0.0882303
9.99034e-05
0.0882327
-0.000245782
0.0882855
-0.000695443
0.0883256
-0.000973492
0.0884115
-0.00126762
0.0884811
-0.00136467
0.0885523
-0.0015135
0.0885981
-0.00150783
0.0886946
-0.00159529
0.0887561
-0.00144345
0.088804
-0.00146689
0.088825
-0.00131646
0.0888293
-0.00139699
0.0888426
-0.00142157
0.0888745
-0.00163248
0.0889457
-0.00185018
0.0890306
-0.00216808
0.089125
-0.0025662
0.0892742
-0.00302275
0.0895089
-0.00354772
0.089833
-0.00388702
0.0902933
-0.00421579
0.0908278
-0.00421013
0.0914593
-0.00421268
0.0920888
-0.00386603
0.0927348
-0.0035783
0.0931618
-0.00297252
0.0935285
-0.00282682
0.0935626
-0.0021441
-0.00284935
0.0933539
0.0891403
0.00486152
-0.0893462
0.0889598
0.00437813
0.0887904
0.00399585
0.0886279
0.00353703
0.08852
0.00313449
0.0884132
0.00266721
0.0883551
0.00217503
0.0883033
0.00163667
0.0882828
0.00106593
0.0882824
0.000579297
0.088294
8.82121e-05
0.0883239
-0.000275627
0.0883482
-0.000719711
0.0883926
-0.00101799
0.0884878
-0.0013628
0.0885502
-0.001427
0.0886446
-0.00160794
0.0886774
-0.00154062
0.0887744
-0.00169225
0.0888017
-0.00147082
0.0888628
-0.00152793
0.0888847
-0.00133838
0.0888943
-0.00140666
0.0888978
-0.00142502
0.0888689
-0.00160363
0.0888823
-0.00186351
0.0889381
-0.00222388
0.0890582
-0.00268636
0.0891917
-0.00315618
0.0894053
-0.00376132
0.089681
-0.00416272
0.0901099
-0.00464476
0.0906422
-0.00474241
0.0913152
-0.0048857
0.0919973
-0.00454806
0.0927712
-0.0043522
0.0934252
-0.00362654
0.0939803
-0.00338189
0.0942855
-0.0024493
-0.0027798
0.0942159
0.0892636
0.00508291
-0.089485
0.0890621
0.00457967
0.088904
0.00415394
0.0887541
0.00368688
0.0886524
0.00323621
0.0885683
0.00275138
0.0885311
0.0022122
0.0884756
0.00169214
0.0884579
0.00108366
0.0884367
0.000600518
0.0884767
4.81797e-05
0.0885057
-0.000304607
0.0885632
-0.000777231
0.0885749
-0.00102968
0.0886413
-0.00142925
0.088682
-0.00146764
0.0887984
-0.00172439
0.0888325
-0.00157467
0.0888897
-0.00174952
0.0889439
-0.001525
0.0889659
-0.00154992
0.0890084
-0.00138089
0.0890121
-0.00141027
0.0890166
-0.0014296
0.0889725
-0.00155947
0.0889378
-0.00182886
0.0889329
-0.00221893
0.0889827
-0.00273613
0.0890946
-0.00326813
0.0892772
-0.00394389
0.0895538
-0.00443929
0.089942
-0.00503303
0.0904397
-0.00524005
0.0911293
-0.00557538
0.0919013
-0.00531997
0.0927641
-0.00521506
0.0936096
-0.004472
0.0943718
-0.00414407
0.09495
-0.00302753
-0.00300503
0.0951752
0.0892173
0.00525688
-0.0893912
0.0890435
0.00475345
0.0889068
0.00429059
0.0887688
0.00382497
0.0886805
0.00332444
0.0886091
0.00282284
0.0885598
0.00226149
0.0885315
0.00172046
0.0885185
0.0010966
0.0885114
0.00060767
0.0885494
1.01756e-05
0.0885743
-0.00032949
0.0886398
-0.000842782
0.0886657
-0.00105556
0.0887508
-0.00151435
0.0887777
-0.00149458
0.0888651
-0.00181172
0.0889389
-0.00164847
0.088983
-0.00179368
0.0890277
-0.00156972
0.089052
-0.00157421
0.08909
-0.00141883
0.0890464
-0.00136674
0.08905
-0.00143318
0.0890221
-0.00153154
0.0889706
-0.00177744
0.0889289
-0.00217722
0.0889337
-0.00274094
0.0889629
-0.00329734
0.089089
-0.00406994
0.0892855
-0.00463585
0.0896517
-0.00539918
0.0901359
-0.00572428
0.0908155
-0.00625494
0.0916294
-0.00613384
0.0925651
-0.00615077
0.0935718
-0.00547873
0.0945339
-0.00510619
0.0954446
-0.00393816
-0.00346541
0.0959049
0.0893788
0.00544216
-0.0895641
0.0891972
0.00493507
0.0890709
0.00441693
0.0889596
0.00393622
0.0888723
0.00341174
0.0888157
0.00287941
0.0887758
0.00230143
0.0887354
0.0017609
0.0887502
0.00108174
0.0887463
0.000611566
0.0887803
-2.37539e-05
0.0887886
-0.000337861
0.0888707
-0.000924849
0.0888955
-0.00108032
0.0889673
-0.00158616
0.0890357
-0.00156297
0.0890845
-0.00186053
0.089152
-0.00171597
0.0891709
-0.00181259
0.0892417
-0.00164053
0.0892156
-0.00154809
0.089262
-0.00146527
0.0892113
-0.00131605
0.0891694
-0.00139123
0.0891069
-0.00146903
0.0890449
-0.00171549
0.0889782
-0.00211052
0.0889236
-0.00268628
0.0889089
-0.00328265
0.0889702
-0.00413129
0.089088
-0.00475365
0.0893475
-0.00565864
0.0897813
-0.00615811
0.0904049
-0.00687849
0.0912431
-0.0069721
0.0922476
-0.00715523
0.0934126
-0.00664377
0.0945588
-0.00625236
0.0957712
-0.00515061
-0.00420466
0.0965105
0.0893152
0.00562008
-0.0894932
0.0891696
0.00508067
0.0890445
0.00454203
0.0889546
0.00402613
0.0888968
0.00346963
0.0888304
0.00294578
0.088824
0.00230777
0.0887949
0.00179008
0.0888208
0.00105579
0.0888051
0.000627319
0.0888696
-8.83478e-05
0.0889008
-0.000369013
0.0889735
-0.000997594
0.0890296
-0.0011364
0.0890889
-0.00164546
0.0891746
-0.00164861
0.0892172
-0.0019032
0.0892956
-0.00179431
0.0893022
-0.00181922
0.0893639
-0.00170221
0.089344
-0.00152821
0.0893546
-0.00147582
0.0893394
-0.00130086
0.0892636
-0.00131548
0.0891999
-0.0014053
0.0890986
-0.00161415
0.0889637
-0.00197566
0.0888625
-0.00258507
0.0887655
-0.00318571
0.0887465
-0.00411227
0.088824
-0.0048311
0.0890004
-0.00583505
0.0893454
-0.0065031
0.089852
-0.00738507
0.0906659
-0.00778605
0.0916482
-0.00813754
0.0929099
-0.00790547
0.0942272
-0.00756961
0.095768
-0.00669144
-0.00528499
0.0968484
0.0895548
0.00577945
-0.0897142
0.0893957
0.0052398
0.0892863
0.00465145
0.0891972
0.0041152
0.0891455
0.00352132
0.0890948
0.00299645
0.0890953
0.00230732
0.0890749
0.00181043
0.0890952
0.00103549
0.0891087
0.00061389
0.0891486
-0.000128238
0.0892056
-0.000426054
0.0892559
-0.00104794
0.0893535
-0.00123394
0.089377
-0.00166893
0.0894974
-0.00176907
0.0895075
-0.00191327
0.0896231
-0.00190988
0.0896002
-0.00179639
0.0896651
-0.00176707
0.0896419
-0.00150502
0.0896257
-0.00145966
0.0895802
-0.00125537
0.0894938
-0.00122906
0.089384
-0.00129544
0.08926
-0.00149021
0.0890813
-0.00179696
0.0889195
-0.00242322
0.0887264
-0.00299269
0.0886033
-0.00398908
0.0885455
-0.00477333
0.0885981
-0.00588762
0.0888448
-0.00674985
0.0892416
-0.00778187
0.0899398
-0.00848426
0.0908562
-0.0090539
0.0921527
-0.00920205
0.0935861
-0.00900301
0.095392
-0.00849734
-0.00688045
0.0969875
0.0895108
0.00592276
-0.0896541
0.0893833
0.00536726
0.0892908
0.00474397
0.0892005
0.00420555
0.0891768
0.00354499
0.0891378
0.0030354
0.0891527
0.00229249
0.0891475
0.0018156
0.0891781
0.00100488
0.0892166
0.000575389
0.089255
-0.000166618
0.0893455
-0.000516563
0.0893813
-0.00108369
0.0895155
-0.00136823
0.0895346
-0.00168802
0.0896641
-0.00189852
0.0896867
-0.00193585
0.089798
-0.00202117
0.0898245
-0.00182289
0.0898483
-0.00179091
0.0898705
-0.00152716
0.0898238
-0.00141305
0.0897875
-0.001219
0.0896862
-0.00112781
0.0895505
-0.00115976
0.0893956
-0.00133527
0.0891872
-0.00158851
0.0889447
-0.00218078
0.0887088
-0.00275681
0.0884691
-0.00374933
0.0883043
-0.00460854
0.0881735
-0.00575682
0.0882358
-0.00681216
0.0884465
-0.00799253
0.0889882
-0.00902594
0.089774
-0.00983973
0.0910129
-0.0104409
0.0924502
-0.0104404
0.094398
-0.0104451
-0.0089223
0.0964399
0.0898187
0.00606933
-0.0899653
0.0896959
0.00549006
0.0896243
0.0048156
0.0895512
0.00427868
0.0895205
0.00357568
0.0894883
0.00306754
0.0895025
0.0022783
0.0895209
0.00179719
0.0895355
0.000990245
0.0896117
0.000499192
0.0896086
-0.000163515
0.0897609
-0.000668864
0.0897535
-0.00107624
0.0899159
-0.00153062
0.0899254
-0.00169753
0.090059
-0.00203217
0.0900926
-0.00196942
0.0901818
-0.00211031
0.0902174
-0.00185852
0.0902485
-0.00182206
0.090258
-0.00153659
0.0902201
-0.00137515
0.0901681
-0.00116706
0.09008
-0.00103972
0.0899121
-0.000991855
0.0897295
-0.00115269
0.0894876
-0.00134655
0.0891867
-0.00187987
0.0888696
-0.00243972
0.0884668
-0.00334659
0.0881883
-0.00433002
0.0878917
-0.00546024
0.0877577
-0.00667812
0.0877021
-0.00793696
0.0879613
-0.00928513
0.0884758
-0.0103542
0.089485
-0.0114501
0.0907841
-0.0117394
0.0927507
-0.0124117
-0.0112273
0.0950556
0.0897909
0.00614882
-0.0898704
0.0896979
0.00558307
0.0896499
0.00486363
0.0895842
0.00434433
0.0895744
0.00358549
0.0895811
0.00306087
0.0895723
0.00228708
0.0896497
0.00171977
0.089622
0.00101797
0.0897836
0.000337625
0.0897641
-0.000144027
0.0899305
-0.000835266
0.0899625
-0.00110821
0.0900955
-0.00166364
0.0901672
-0.00176929
0.0902683
-0.00213328
0.090339
-0.00204004
0.090402
-0.00217331
0.0904804
-0.00193699
0.0904819
-0.00182352
0.0905207
-0.00157536
0.0904829
-0.00133743
0.0904341
-0.0011182
0.0903509
-0.000956587
0.0902051
-0.000846051
0.0899978
-0.000945377
0.0897651
-0.00111386
0.0894069
-0.00152167
0.089048
-0.00208075
0.0885626
-0.00286124
0.0881274
-0.00389477
0.0876452
-0.00497806
0.0873097
-0.00634262
0.0869751
-0.00760241
0.0869307
-0.00924066
0.0870612
-0.0104848
0.0877285
-0.0121174
0.0886734
-0.0126844
0.09039
-0.0141282
-0.013433
0.0925957
0.090176
0.00625104
-0.0902782
0.0900986
0.00566043
0.0900616
0.00490066
0.0900679
0.00433797
0.0900305
0.00362294
0.0900906
0.00300076
0.0900272
0.00235049
0.0901755
0.00157148
0.0901358
0.00105766
0.0902716
0.000201852
0.0903052
-0.000177631
0.0904185
-0.000948545
0.0904926
-0.00118231
0.0906056
-0.00177667
0.0906981
-0.00186176
0.0907903
-0.00222552
0.0908971
-0.00214684
0.0909326
-0.00220878
0.0910084
-0.00201287
0.091042
-0.00185707
0.0910453
-0.00157866
0.0910167
-0.00130883
0.0909764
-0.00107793
0.0908806
-0.00086077
0.0907286
-0.000694015
0.0904846
-0.000701395
0.0902243
-0.000853509
0.0898352
-0.00113263
0.0894354
-0.00168094
0.0888699
-0.00229572
0.0883072
-0.00333205
0.0876505
-0.00432137
0.0870715
-0.0057637
0.0864675
-0.00699837
0.086061
-0.00883416
0.0857195
-0.0101433
0.0858643
-0.0122621
0.0863079
-0.013128
0.0874436
-0.0152639
-0.0152579
0.0892685
0.0901279
0.00630341
-0.0901802
0.090145
0.00564329
0.0900759
0.00496977
0.0901216
0.00429228
0.0900794
0.00366508
0.0902116
0.00286856
0.0902011
0.00236107
0.0903106
0.00146191
0.0903575
0.00101075
0.0904571
0.000102296
0.0905468
-0.000267303
0.0906539
-0.00105564
0.0907791
-0.00130756
0.0908722
-0.00186975
0.0910144
-0.0020039
0.0910792
-0.00229035
0.0912097
-0.00227739
0.0912753
-0.00227436
0.0913699
-0.00210743
0.0914002
-0.00188742
0.0914392
-0.00161767
0.09144
-0.00130955
0.0913891
-0.00102707
0.0912923
-0.00076396
0.0911868
-0.000588499
0.0909416
-0.000456226
0.0906838
-0.0005957
0.0902703
-0.000719138
0.0898181
-0.00122872
0.0892208
-0.00169847
0.0885737
-0.0026849
0.087766
-0.00351363
0.0869855
-0.00498319
0.086095
-0.0061079
0.0853096
-0.00804874
0.0845427
-0.00937648
0.084023
-0.0117424
0.0838489
-0.0129539
0.0841661
-0.0155811
-0.0163878
0.085296
0.0907167
0.00640634
-0.0908196
0.0907105
0.00564944
0.0906483
0.005032
0.0907206
0.00421995
0.0907093
0.00367642
0.0907691
0.00280872
0.0908343
0.0022959
0.0909374
0.00135884
0.0910397
0.000908387
0.0911378
4.22167e-06
0.0912758
-0.000405305
0.0913608
-0.00114066
0.0915251
-0.00147184
0.0915878
-0.00193247
0.0917706
-0.00218669
0.091819
-0.00233873
0.0919502
-0.00240861
0.0919985
-0.00232266
0.092093
-0.00220189
0.0921431
-0.00193759
0.0921799
-0.00165446
0.092173
-0.0013026
0.0921676
-0.0010217
0.0920704
-0.000666807
0.0919771
-0.000495124
0.0917625
-0.000241641
0.0914897
-0.000322921
0.0910963
-0.000325709
0.0906409
-0.000773382
0.090007
-0.00106451
0.0892942
-0.00197217
0.0883783
-0.00259766
0.0873921
-0.00399703
0.0862565
-0.00497225
0.0850615
-0.00685382
0.0838938
-0.00820872
0.0826616
-0.0105102
0.0817473
-0.0120396
0.0809733
-0.014807
-0.0164726
0.081058
0.0907501
0.00647073
-0.0908145
0.0907662
0.00563327
0.0907555
0.00504277
0.0908005
0.0041749
0.0908532
0.00362373
0.0909516
0.0027103
0.0910594
0.0021881
0.0911305
0.0012878
0.0913191
0.000719789
0.0913871
-6.37754e-05
0.0916113
-0.000629582
0.0916588
-0.00118807
0.0918934
-0.0017065
0.0919791
-0.00201813
0.0921573
-0.0023649
0.0922435
-0.002425
0.0923843
-0.0025494
0.0924902
-0.00242851
0.0925984
-0.00231014
0.0926682
-0.00200732
0.0927437
-0.00173
0.0927459
-0.00130475
0.092777
-0.00105281
0.0927017
-0.000591508
0.0926354
-0.00042889
0.0924679
-7.4087e-05
0.0922678
-0.000122866
0.0918958
4.63261e-05
0.0914719
-0.000349487
0.090849
-0.000441589
0.0901218
-0.00124497
0.0891871
-0.00166299
0.0880828
-0.00289276
0.0868733
-0.00376271
0.085374
-0.00535456
0.0838894
-0.00672411
0.0820984
-0.00871924
0.0805148
-0.010456
0.0786482
-0.0129405
-0.0153772
0.0775529
0.0916196
0.00648031
-0.0916291
0.0916782
0.00557468
0.0917251
0.00499579
0.0917654
0.00413458
0.0918565
0.00353267
0.0918986
0.00266819
0.0920722
0.00201448
0.0921078
0.00125228
0.0923348
0.000492765
0.0923659
-9.48524e-05
0.0925963
-0.00085998
0.092685
-0.00127679
0.0928748
-0.00189634
0.093017
-0.00216026
0.0931524
-0.00250029
0.0932929
-0.00256555
0.0933995
-0.00265596
0.0935238
-0.00255288
0.0936179
-0.00240427
0.0936891
-0.00207846
0.0937937
-0.00183461
0.0938478
-0.0013588
0.0938924
-0.00109745
0.093886
-0.000585107
0.0938689
-0.000411756
0.0937385
5.62369e-05
0.0935829
3.27384e-05
0.0932965
0.00033274
0.0929218
2.52162e-05
0.092385
9.5207e-05
0.0916378
-0.000497785
0.0908004
-0.00082559
0.0896061
-0.00169847
0.088369
-0.00252558
0.0866895
-0.00367504
0.0849855
-0.00502015
0.0828379
-0.00657161
0.0807231
-0.00834117
0.0780735
-0.0102909
-0.0130099
0.0757062
0.0916364
0.00642687
-0.0915829
0.0916885
0.00552255
0.0918516
0.00483265
0.0919162
0.00407005
0.092123
0.00332586
0.0921997
0.00259145
0.0924769
0.00173733
0.0925961
0.00113311
0.0928196
0.000269268
0.0929533
-0.000228565
0.093131
-0.00103769
0.0933374
-0.00148326
0.093492
-0.0020509
0.0936802
-0.00234849
0.0937993
-0.00261941
0.0939717
-0.00273794
0.0941234
-0.00280758
0.0942261
-0.00265558
0.0943712
-0.00254945
0.0944791
-0.00218627
0.0945926
-0.0019482
0.0946793
-0.00144549
0.0947919
-0.00121002
0.0948299
-0.000623095
0.0948732
-0.000455043
0.0948539
7.55424e-05
0.0947558
0.0001308
0.0946273
0.000461254
0.0942767
0.000375806
0.0939511
0.000420831
0.0932539
0.000199368
0.0925722
-0.000143862
0.0914586
-0.000584824
0.0902956
-0.00136267
0.0886858
-0.00206516
0.0869608
-0.0032952
0.0847498
-0.0043606
0.0824301
-0.00602145
0.079463
-0.00732376
-0.00987749
0.0763305
0.0928881
0.00623746
-0.0926987
0.0929824
0.00542821
0.0932074
0.00460763
0.0932858
0.00399165
0.0934846
0.00312708
0.0935527
0.0025234
0.0937173
0.00157267
0.0939084
0.000942026
0.0941367
4.09976e-05
0.0944282
-0.000520066
0.0945621
-0.00117162
0.0948111
-0.00173226
0.0949664
-0.0022062
0.0951701
-0.00255218
0.0953533
-0.00280263
0.0954918
-0.00287638
0.0956506
-0.00296644
0.0957758
-0.00278073
0.0959198
-0.00269352
0.0960333
-0.00229971
0.096181
-0.00209592
0.0963204
-0.00158488
0.0964264
-0.00131603
0.0965791
-0.000775745
0.0966213
-0.000497266
0.0967863
-8.94704e-05
0.0967536
0.000163526
0.0968236
0.000391273
0.0966011
0.00059822
0.0964543
0.000567664
0.0959924
0.000661233
0.0954881
0.000360447
0.094643
0.000260323
0.0936178
-0.000337452
0.0922064
-0.000653816
0.0905898
-0.00167862
0.0884364
-0.00220716
0.086136
-0.0037211
0.0831891
-0.00437681
-0.00654577
0.0798574
0.0930193
0.00598858
-0.0927704
0.0931562
0.0052913
0.0934254
0.00433846
0.0937286
0.00368842
0.0940505
0.00280512
0.0944284
0.00214553
0.0946806
0.00132051
0.0949852
0.000637378
0.0950769
-5.06833e-05
0.0953517
-0.000794836
0.0955995
-0.00141941
0.095818
-0.00195078
0.0960104
-0.00239859
0.0961838
-0.00272564
0.0963504
-0.00296919
0.0965225
-0.00304853
0.096658
-0.0031019
0.0968214
-0.00294411
0.0969413
-0.00281342
0.0971548
-0.00251327
0.0972575
-0.00219857
0.0975161
-0.00184348
0.0976315
-0.00143142
0.0979496
-0.00109385
0.0980789
-0.000626583
0.0983782
-0.000388731
0.0984248
0.000116872
0.0986007
0.000215354
0.0986149
0.000584035
0.0985967
0.000585893
0.0983891
0.000868849
0.0980682
0.000681343
0.0974672
0.000861336
0.0967418
0.000387886
0.0955861
0.000501927
0.0943065
-0.000399027
0.0924824
-0.000383081
0.0904828
-0.00172148
0.0880148
-0.00190881
-0.00342505
0.0848941
0.094982
0.00589328
-0.0948867
0.0950871
0.00518618
0.0951691
0.00425645
0.095323
0.00353452
0.0954669
0.00266124
0.0957389
0.00187356
0.0959965
0.00106289
0.0964033
0.000230538
0.0968078
-0.000455173
0.0971383
-0.00112535
0.0974178
-0.00169887
0.0977165
-0.00224945
0.0979547
-0.00263678
0.0982332
-0.00300421
0.0984108
-0.00314673
0.0986613
-0.00329903
0.0987721
-0.00321277
0.0990298
-0.00320184
0.0991406
-0.00292422
0.0994059
-0.00277855
0.0995515
-0.00234416
0.0998538
-0.0021458
0.100045
-0.00162254
0.100391
-0.0014402
0.10067
-0.000905368
0.101057
-0.000775288
0.101466
-0.000292529
0.101927
-0.000245522
0.102258
0.000252794
0.102656
0.000187931
0.102795
0.000729869
0.102991
0.000485105
0.102846
0.00100706
0.102694
0.000539839
0.102143
0.00105236
0.101434
0.000309741
0.100346
0.000705082
0.0987935
-0.000168681
0.0969551
-7.03901e-05
-0.000852664
0.0943827
0.09595
0.00537177
-0.0954285
0.0965023
0.00463381
0.0970558
0.00370302
0.0975746
0.0030157
0.0980822
0.00215363
0.0984828
0.00147297
0.0988272
0.000718506
0.0989529
0.000104783
0.0991487
-0.000651003
0.0993902
-0.00136675
0.0995658
-0.0018745
0.0998045