/*--------------------------------*- C++ -*----------------------------------*\
  =========                 |
  \\      /  F ield         | OpenFOAM: The Open Source CFD Toolbox
   \\    /   O peration     | Website:  https://openfoam.org
    \\  /    A nd           | Version:  11
     \\/     M anipulation  |
\*---------------------------------------------------------------------------*/
FoamFile
{
    format      ascii;
    class       volVectorField;
    location    "9.5";
    object      U;
}
// * * * * * * * * * * * * * * * * * * * * * * * * * * * * * * * * * * * * * //

dimensions      [0 1 -1 0 0 0 0];

internalField   nonuniform List<vector> 
9600
(
(0.993139 0.000293656 -3.26367e-21)
(0.991876 0.000155008 0)
(0.991187 -0.000291666 -3.16234e-21)
(0.990845 -0.000364577 3.12454e-21)
(0.990298 -0.000554201 0)
(0.990003 -0.000535904 1.40248e-21)
(0.989753 -0.000574758 -2.69977e-21)
(0.989954 -0.000608453 1.28824e-21)
(0.990457 -0.000640805 1.07349e-21)
(0.991216 -0.000641285 -1.07604e-21)
(0.992195 -0.000667419 6.50299e-24)
(0.99343 -0.000697053 0)
(0.994975 -0.000790263 0)
(0.996518 -0.000902997 -1.19065e-22)
(0.9982 -0.00104813 1.02648e-22)
(0.999951 -0.00131275 1.78438e-23)
(1.0017 -0.00147314 0)
(1.00385 -0.00127157 0)
(1.00543 -0.00106164 -6.01974e-25)
(1.00638 -0.00135077 0)
(1.00833 -0.00194028 0)
(1.01041 -0.00139126 8.54311e-25)
(1.01054 -0.000547933 -1.70328e-24)
(1.01001 -0.000548375 3.92914e-22)
(1.01065 -0.00137205 -3.93275e-22)
(1.01117 -0.00151429 -2.85163e-22)
(1.01102 -0.00137765 2.83979e-22)
(1.01048 -0.00117686 3.10232e-22)
(1.00959 -0.000977724 -3.04568e-22)
(1.00817 -0.000759986 0)
(1.00582 -0.000145912 0)
(1.00083 0.0011588 1.29384e-22)
(0.987601 0.00371047 -3.58529e-22)
(0.97086 0.00309402 2.29441e-22)
(0.962545 0.00205834 0)
(0.959582 -0.000946088 5.00384e-24)
(0.966621 -0.00205308 6.853e-22)
(0.974331 -0.00233395 -6.81433e-22)
(1.00208 -0.00734384 -5.01101e-24)
(1.0103 0.00169366 -5.20445e-22)
(0.993451 0.000373459 -3.28744e-21)
(0.993429 0.000303838 2.17032e-23)
(0.993553 0.000325735 1.22656e-22)
(0.993843 0.000344168 3.18503e-21)
(0.994037 0.000353678 1.46544e-21)
(0.994259 0.000302145 -1.47023e-21)
(0.994637 0.000231064 2.10202e-23)
(0.995366 6.9538e-05 9.9964e-24)
(0.996451 -4.34746e-05 -1.05992e-21)
(0.997674 -0.000213246 1.078e-21)
(0.999061 -0.000286626 -6.79009e-24)
(1.00098 -0.000456684 1.04119e-23)
(1.00312 -0.000409471 1.89772e-22)
(1.00526 -0.000405601 -2.96005e-22)
(1.00757 -0.000335169 9.91629e-23)
(1.01029 -0.000170117 -1.03692e-22)
(1.01313 -0.000136583 1.05843e-22)
(1.01561 -9.79858e-05 -1.4225e-22)
(1.01785 0.000119834 1.41029e-22)
(1.02015 0.000359254 0)
(1.0216 0.000572021 0)
(1.02242 0.000717492 2.22832e-22)
(1.02419 0.000638866 -2.20061e-22)
(1.02648 0.000577613 -3.36032e-24)
(1.02731 0.000985771 0)
(1.02722 0.00124307 -3.1448e-22)
(1.02683 0.00148534 6.05002e-23)
(1.02672 0.00152044 -1.17908e-22)
(1.02688 0.00156248 3.55496e-22)
(1.0272 0.00188958 2.73294e-24)
(1.02695 0.00224526 -1.02261e-23)
(1.02506 0.00384486 9.83198e-24)
(1.02353 0.00569728 1.83121e-22)
(1.02357 0.005475 -4.32064e-22)
(1.02355 0.00367482 2.45054e-22)
(1.02129 0.000533057 -5.14584e-24)
(1.02179 -0.00303156 -5.57774e-24)
(1.02388 -0.00576911 0)
(1.03091 -0.0109324 5.12204e-24)
(1.03887 -0.012566 -6.04588e-22)
(0.993647 0.00043333 0)
(0.993547 0.00027765 3.30558e-21)
(0.993713 5.84619e-05 -3.27869e-21)
(0.993863 -0.000135109 0)
(0.994005 -0.000292322 0)
(0.994302 -0.000415346 -4.49689e-23)
(0.994772 -0.000578377 -6.38171e-23)
(0.995651 -0.000767323 0)
(0.996948 -0.00101391 -1.10334e-21)
(0.998155 -0.00117986 1.05521e-21)
(0.999577 -0.00162172 0)
(1.00113 -0.00202134 -1.06634e-23)
(1.00331 -0.0022275 7.77932e-24)
(1.00578 -0.00238847 0)
(1.0081 -0.00247979 8.55831e-24)
(1.01029 -0.0029282 -9.28068e-24)
(1.01285 -0.00302056 -5.0867e-24)
(1.01568 -0.00265502 1.94589e-24)
(1.01839 -0.00241714 8.7936e-23)
(1.02012 -0.00238425 -9.05899e-23)
(1.02104 -0.00245293 -1.12987e-22)
(1.02232 -0.00206413 1.18436e-22)
(1.02478 -0.0017305 -3.6397e-24)
(1.02695 -0.00141579 4.29135e-22)
(1.02732 -0.00139425 -4.17673e-22)
(1.02704 -0.00121358 -3.0471e-22)
(1.02627 -0.000865735 3.24433e-22)
(1.02618 -0.000908802 -3.81331e-22)
(1.02673 -0.000859115 3.7884e-22)
(1.02877 -0.000815042 -2.81458e-24)
(1.03069 0.000535602 0)
(1.03106 0.00206377 8.03602e-23)
(1.02998 0.0048358 -2.58232e-22)
(1.02765 0.00490448 1.75744e-22)
(1.02422 0.00532331 3.36876e-22)
(1.01936 0.00300961 -1.02848e-21)
(1.01773 -0.00115178 -2.8527e-23)
(1.01961 -0.00409299 7.22945e-22)
(1.02542 -0.0121318 -1.20015e-23)
(1.0387 -0.0113082 -1.30469e-24)
(0.993662 0.000442239 -6.71137e-21)
(0.993644 0.000307262 3.367e-21)
(0.993847 1.89584e-05 3.21777e-21)
(0.993995 -0.00015765 -3.24496e-21)
(0.994155 -0.000249839 0)
(0.994395 -0.000509162 1.45854e-21)
(0.995053 -0.000662237 -1.37396e-21)
(0.99575 -0.00116687 1.23352e-21)
(0.996972 -0.00138035 -1.41533e-22)
(0.998321 -0.00187027 -1.05816e-21)
(1.00032 -0.00204059 -7.05795e-22)
(1.00158 -0.00248555 1.30225e-21)
(1.00361 -0.00256178 -3.73113e-22)
(1.00608 -0.00266916 -2.53409e-22)
(1.00907 -0.0025058 7.53593e-23)
(1.01131 -0.00248029 -1.33201e-22)
(1.01322 -0.00259863 1.3331e-22)
(1.01571 -0.00255741 4.32842e-24)
(1.01894 -0.00189318 2.70107e-24)
(1.02093 -0.000944492 0)
(1.02183 -0.000479802 0)
(1.02274 -0.00079535 -3.75807e-24)
(1.02436 -0.00125922 0)
(1.02578 -0.00070899 0)
(1.02711 0.000605983 7.04162e-24)
(1.02741 0.00140188 -1.15318e-23)
(1.02724 0.00144118 2.67482e-22)
(1.02697 0.00103214 1.28758e-22)
(1.0272 0.000225987 -4.38029e-22)
(1.0279 -0.000208799 1.68309e-22)
(1.02875 0.000339355 -1.67006e-22)
(1.02864 0.002362 -2.2302e-25)
(1.02778 0.00531813 1.42251e-22)
(1.02715 0.00654085 -1.43122e-22)
(1.02723 0.00650225 -2.9449e-22)
(1.02851 0.00550647 -3.92971e-22)
(1.02824 -9.41565e-05 -5.46223e-23)
(1.03304 -0.00348947 7.55497e-22)
(1.03521 -0.0137223 1.23246e-23)
(1.04546 -0.0166893 1.23273e-23)
(0.993617 0.000348131 0)
(0.993612 0.000184815 3.43117e-21)
(0.993878 -0.000147821 -6.73612e-21)
(0.994 -0.000385968 3.28551e-21)
(0.994138 -0.00052543 0)
(0.994373 -0.000836005 0)
(0.995065 -0.00122403 0)
(0.995891 -0.00157242 3.80302e-23)
(0.997355 -0.0020297 -1.01244e-21)
(0.998682 -0.00242943 1.05107e-21)
(1.00034 -0.00284976 -2.57976e-23)
(1.00189 -0.003273 5.18714e-22)
(1.00421 -0.00379775 -7.0933e-22)
(1.0065 -0.00410811 1.69547e-22)
(1.00906 -0.00407704 0)
(1.01154 -0.00409625 -1.42234e-22)
(1.01416 -0.00422415 1.45155e-22)
(1.01609 -0.00425861 -4.43959e-24)
(1.01809 -0.00378991 0)
(1.02029 -0.00303645 0)
(1.02239 -0.00266933 1.23957e-22)
(1.02417 -0.00258624 -1.23922e-22)
(1.02462 -0.00235035 0)
(1.02467 -0.00207027 4.71775e-22)
(1.02533 -0.00189166 -4.83457e-22)
(1.02722 -0.00106487 -3.69097e-22)
(1.02829 -0.000338939 3.58611e-22)
(1.02853 -0.000257454 -4.41797e-22)
(1.02849 -0.000543474 4.65285e-22)
(1.02768 -0.00090659 8.5182e-24)
(1.02708 -0.000459089 0)
(1.02637 0.00136491 2.28972e-25)
(1.02733 0.00423319 -1.31015e-22)
(1.02825 0.00561234 1.3358e-22)
(1.03004 0.00569578 -8.43684e-24)
(1.03259 0.00487392 0)
(1.03262 0.00185918 0)
(1.03476 -0.00178746 8.45597e-22)
(1.03343 -0.0117457 -8.12159e-22)
(1.04276 -0.0168544 2.95562e-23)
(0.993542 0.00036885 -3.38551e-21)
(0.993568 0.000185631 -1.07776e-22)
(0.993928 -0.000126201 1.05752e-22)
(0.993966 -0.000534881 1.01349e-22)
(0.994152 -0.000715971 0)
(0.994401 -0.00120785 0)
(0.99529 -0.00148073 0)
(0.996086 -0.00222857 1.11127e-21)
(0.997613 -0.00260662 -2.30677e-21)
(0.998827 -0.00322304 9.8628e-22)
(1.00083 -0.00369584 0)
(1.00204 -0.00444778 4.97693e-22)
(1.00452 -0.00483576 -5.17536e-22)
(1.0065 -0.00498132 -4.71279e-23)
(1.0098 -0.00490742 4.72051e-23)
(1.012 -0.00498572 -3.86749e-24)
(1.01437 -0.00485347 7.0939e-24)
(1.01591 -0.00457226 0)
(1.01872 -0.00387436 -6.37111e-24)
(1.02129 -0.00299948 0)
(1.02315 -0.00229061 2.04187e-24)
(1.02356 -0.00195148 8.56008e-24)
(1.0241 -0.0016939 0)
(1.02499 -0.00142578 -5.2289e-22)
(1.02617 -0.000925231 5.21135e-22)
(1.02754 -0.00023855 -3.708e-22)
(1.02812 0.000496851 4.19946e-22)
(1.02817 0.000661077 4.84184e-22)
(1.02816 0.000461347 -4.84926e-22)
(1.02772 9.19921e-05 8.70171e-25)
(1.02743 0.000102129 -1.09571e-23)
(1.02722 0.000859861 3.67881e-24)
(1.02737 0.00299774 1.11951e-22)
(1.02803 0.00463464 -3.13469e-22)
(1.02845 0.00508138 1.99747e-22)
(1.02969 0.00487667 0)
(1.0295 0.0027113 2.33519e-23)
(1.03329 9.87326e-05 -2.66343e-23)
(1.03281 -0.00814519 -2.77926e-23)
(1.0436 -0.0161897 1.02618e-21)
(0.993448 0.000171304 -1.73558e-22)
(0.993481 -5.4371e-05 -6.85745e-21)
(0.99388 -0.000438619 2.40007e-22)
(0.993905 -0.000897077 3.27302e-21)
(0.994163 -0.00108251 0)
(0.994415 -0.00163046 9.29152e-23)
(0.995416 -0.00207923 8.63341e-23)
(0.996194 -0.00270787 0)
(0.997816 -0.0033092 1.11003e-21)
(0.998883 -0.00417794 -9.21949e-22)
(1.0011 -0.00469002 0)
(1.00268 -0.00515237 3.74005e-23)
(1.00476 -0.00558601 -1.40549e-22)
(1.00676 -0.00622373 1.40815e-22)
(1.01035 -0.00621558 0)
(1.01255 -0.00584241 -1.85222e-22)
(1.01483 -0.00544194 1.90015e-22)
(1.0163 -0.00561519 0)
(1.01892 -0.0053895 1.2908e-22)
(1.02136 -0.00438297 -1.15703e-22)
(1.02333 -0.00313626 -4.27684e-24)
(1.02388 -0.00259412 -1.79183e-23)
(1.02458 -0.00236619 1.83933e-23)
(1.02524 -0.00256488 5.55932e-22)
(1.02578 -0.00236457 -5.53161e-22)
(1.0269 -0.00167274 -2.82646e-23)
(1.02808 -0.000587636 -3.53202e-22)
(1.0286 -1.9457e-05 3.91895e-22)
(1.02872 -3.47917e-05 3.85733e-22)
(1.02861 -0.000290019 -3.87079e-22)
(1.0283 -0.000344881 1.12441e-23)
(1.02791 0.000323108 1.63712e-24)
(1.02735 0.00259248 0)
(1.02723 0.00451304 -7.93899e-24)
(1.02731 0.00513467 -2.63661e-22)
(1.02802 0.00506118 -4.15097e-22)
(1.02792 0.00349565 -1.60699e-22)
(1.03139 0.000973205 8.40634e-22)
(1.03014 -0.0062983 -9.83043e-22)
(1.03966 -0.0147477 1.01204e-21)
(0.993277 0.000171915 3.55774e-21)
(0.993317 -8.92039e-05 -8.0011e-24)
(0.993794 -0.000590989 -6.83165e-21)
(0.993846 -0.00113654 3.32394e-21)
(0.994146 -0.00136577 0)
(0.994392 -0.00202143 -9.54431e-23)
(0.99544 -0.00250311 -1.33779e-21)
(0.996234 -0.00339682 2.61653e-21)
(0.997993 -0.00422061 -2.16495e-21)
(0.999167 -0.00504219 9.7807e-22)
(1.00131 -0.00566872 0)
(1.00269 -0.00609387 4.52641e-22)
(1.00534 -0.0069045 -4.61574e-22)
(1.00739 -0.00733192 -6.76246e-24)
(1.01012 -0.0073391 1.03809e-23)
(1.0125 -0.00682997 0)
(1.01547 -0.00659689 7.14404e-25)
(1.01727 -0.00631987 0)
(1.01909 -0.00616691 -1.45043e-23)
(1.02113 -0.00489796 4.29004e-24)
(1.02316 -0.00360512 2.24018e-24)
(1.0246 -0.00276335 9.37944e-24)
(1.02552 -0.00233805 -1.89059e-23)
(1.02565 -0.00214997 5.9793e-22)
(1.02558 -0.00189693 -6.07825e-22)
(1.02598 -0.00173695 -4.54152e-22)
(1.02745 -0.000919191 4.57904e-22)
(1.0288 1.98084e-05 5.86221e-22)
(1.0293 0.000262182 -1.04374e-21)
(1.0293 8.35392e-05 7.14846e-22)
(1.02896 -1.60788e-05 -2.97083e-22)
(1.02826 0.000508337 -5.58513e-24)
(1.02778 0.00211566 0)
(1.02756 0.00396054 8.1531e-24)
(1.02684 0.00457053 0)
(1.02676 0.00459231 0)
(1.02614 0.00359427 0)
(1.02775 0.00194031 9.28192e-22)
(1.02632 -0.0029717 -9.87512e-22)
(1.03431 -0.0125201 -6.51645e-23)
(0.993161 -9.02937e-05 -3.48066e-21)
(0.993241 -0.000430612 -1.98172e-24)
(0.993822 -0.00104226 -3.67701e-21)
(0.99384 -0.00164614 3.58941e-21)
(0.994171 -0.00190469 -2.02255e-22)
(0.994413 -0.00259213 -1.56952e-21)
(0.995554 -0.00329271 1.303e-21)
(0.996347 -0.00413701 -8.08954e-23)
(0.998189 -0.00509155 -1.104e-21)
(0.999163 -0.00599448 1.8906e-21)
(1.00144 -0.00672271 -9.03392e-22)
(1.00323 -0.0073341 0)
(1.00598 -0.0079217 -3.05631e-23)
(1.00752 -0.00843942 -3.70176e-24)
(1.01054 -0.0085512 -5.23646e-24)
(1.01311 -0.00820818 -2.33239e-22)
(1.01626 -0.00749903 2.37088e-22)
(1.01807 -0.00698435 0)
(1.01943 -0.00683943 1.57787e-23)
(1.02135 -0.00590164 2.3984e-25)
(1.02364 -0.00445973 0)
(1.02507 -0.00332734 -1.05736e-23)
(1.02579 -0.0025244 -2.129e-23)
(1.02597 -0.00224897 -1.96972e-23)
(1.02598 -0.00212292 3.62835e-23)
(1.02618 -0.00228642 0)
(1.02682 -0.00204736 0)
(1.02845 -0.000979974 -6.62444e-22)
(1.02958 -3.12001e-05 6.2575e-22)
(1.02988 8.71205e-05 2.6961e-23)
(1.02983 3.43252e-05 0)
(1.02968 0.000232561 8.11754e-23)
(1.02905 0.00129889 -2.98416e-23)
(1.02879 0.00390042 -1.88489e-22)
(1.02693 0.0053341 1.45157e-22)
(1.02598 0.00567825 -3.27177e-23)
(1.02446 0.00460085 -7.30895e-22)
(1.02515 0.00325397 7.67861e-22)
(1.02339 -0.000559991 1.10827e-21)
(1.03015 -0.00982251 -2.21988e-21)
(0.992884 -0.000165552 -3.77713e-21)
(0.993021 -0.000588542 6.94049e-21)
(0.993706 -0.00134502 -1.57929e-22)
(0.993704 -0.0020416 -3.75658e-21)
(0.994084 -0.0023539 2.07745e-22)
(0.994285 -0.00321713 9.78275e-23)
(0.995514 -0.00386689 9.04858e-23)
(0.9963 -0.00489512 1.2042e-21)
(0.998275 -0.00604164 -1.77234e-22)
(0.999247 -0.00705088 -1.03436e-21)
(1.00164 -0.00799995 -5.9363e-22)
(1.00337 -0.00840534 2.58391e-22)
(1.00628 -0.00907012 5.26122e-22)
(1.00816 -0.00957167 -5.16883e-23)
(1.01093 -0.00969534 -3.10578e-23)
(1.01318 -0.00927381 -2.77867e-23)
(1.01635 -0.00846962 0)
(1.01872 -0.00765498 2.50586e-22)
(1.02042 -0.00743588 -4.06647e-22)
(1.02185 -0.00670244 1.42827e-22)
(1.02359 -0.00515404 0)
(1.02491 -0.00383135 3.69189e-22)
(1.02604 -0.00276043 -3.36188e-22)
(1.0266 -0.00225792 6.758e-22)
(1.02663 -0.00201967 -6.24817e-22)
(1.02646 -0.00219326 -5.00317e-22)
(1.02643 -0.00224071 1.01924e-21)
(1.02714 -0.0019251 2.70592e-22)
(1.02913 -0.000760767 -6.88134e-22)
(1.03038 -0.000213853 -5.86564e-23)
(1.03082 -6.2871e-05 0)
(1.03093 0.000396669 -2.05935e-23)
(1.02977 0.0014534 0)
(1.02924 0.00349061 1.2591e-22)
(1.0273 0.00526927 -1.46029e-22)
(1.02621 0.00593333 -5.9767e-22)
(1.02376 0.00545835 5.53764e-22)
(1.02352 0.00394893 0)
(1.0211 0.00126039 -1.0445e-21)
(1.02546 -0.00646294 1.10743e-21)
(0.992891 -0.000544971 -4.21769e-21)
(0.993035 -0.00114944 2.38751e-22)
(0.993736 -0.00195713 -3.5895e-21)
(0.993663 -0.00272861 4.04678e-21)
(0.994081 -0.00307449 0)
(0.994296 -0.00391846 0)
(0.995528 -0.00481114 0)
(0.996408 -0.00589646 0)
(0.998508 -0.00718962 -1.02954e-21)
(0.999592 -0.00826288 1.03301e-21)
(1.0017 -0.00921392 0)
(1.00356 -0.00978984 -3.31511e-23)
(1.00675 -0.0104422 -7.9952e-23)
(1.00903 -0.0107156 6.53715e-23)
(1.01147 -0.0108939 0)
(1.01365 -0.0106033 -3.05787e-22)
(1.01668 -0.0099304 3.46566e-22)
(1.01971 -0.00874285 0)
(1.02181 -0.00800199 9.78153e-24)
(1.02253 -0.00733219 0)
(1.02405 -0.00587847 0)
(1.02508 -0.00437474 -1.25195e-23)
(1.02644 -0.00314304 -2.51928e-23)
(1.0271 -0.00247376 -4.88937e-23)
(1.02715 -0.00191516 -8.80247e-23)
(1.02687 -0.0019964 -6.67376e-22)
(1.02662 -0.00237141 5.54219e-22)
(1.02689 -0.00256189 -8.45804e-22)
(1.02823 -0.00196918 7.97264e-22)
(1.03047 -0.000808934 3.14733e-23)
(1.0313 -0.000401306 0)
(1.03196 0.000350437 1.14374e-23)
(1.03127 0.0011039 0)
(1.03103 0.00314876 0)
(1.02884 0.0054534 2.12233e-23)
(1.02753 0.00689311 6.13679e-22)
(1.02411 0.00735824 -1.26977e-21)
(1.023 0.00623678 1.54644e-21)
(1.01942 0.00374945 1.61465e-22)
(1.02196 -0.00200302 -1.07932e-21)
(0.992535 -0.00068298 1.19704e-22)
(0.992636 -0.00151526 7.76692e-21)
(0.99343 -0.00232625 -7.49605e-21)
(0.993298 -0.00325282 -4.86824e-23)
(0.993865 -0.00367632 5.17561e-21)
(0.99405 -0.00473039 -1.66408e-21)
(0.995366 -0.00559298 0)
(0.996248 -0.00690385 -1.22015e-21)
(0.998537 -0.00813655 1.9612e-22)
(0.999672 -0.00937191 1.03218e-21)
(1.00174 -0.0104314 -4.3547e-23)
(1.00369 -0.0110829 2.85125e-23)
(1.00688 -0.0117255 2.70274e-23)
(1.00938 -0.0119601 0)
(1.01216 -0.0120802 0)
(1.01431 -0.0116154 0)
(1.01695 -0.0110331 2.48892e-24)
(1.01972 -0.0098237 0)
(1.02262 -0.00855474 -3.17189e-23)
(1.02336 -0.00758925 6.11068e-24)
(1.02475 -0.00626448 -6.59987e-24)
(1.02528 -0.00490722 1.29109e-23)
(1.02662 -0.00370003 2.598e-23)
(1.02682 -0.00256667 8.56571e-22)
(1.02726 -0.00180047 -7.47133e-22)
(1.02711 -0.00180091 -5.9901e-22)
(1.02688 -0.00218041 5.70242e-22)
(1.02687 -0.00272077 -4.62623e-24)
(1.02736 -0.0029382 6.28038e-22)
(1.02923 -0.00213501 -6.41847e-22)
(1.03103 -0.00128853 0)
(1.03283 -0.000157742 0)
(1.0326 0.00109602 -2.36002e-23)
(1.03257 0.00298026 1.18098e-22)
(1.03032 0.0053859 -2.66701e-22)
(1.02897 0.00703771 -3.72227e-22)
(1.02513 0.00848736 -2.38576e-22)
(1.02341 0.00801945 7.58063e-22)
(1.01872 0.00601048 9.77694e-22)
(1.01972 0.00109622 -9.71083e-22)
(0.992556 -0.00129067 0)
(0.992611 -0.00229378 2.48203e-22)
(0.993376 -0.00310702 -2.38803e-22)
(0.993196 -0.0041533 0)
(0.993845 -0.00463343 0)
(0.994053 -0.00576358 0)
(0.995497 -0.00666103 -1.86122e-22)
(0.996307 -0.00817948 -1.64671e-22)
(0.998523 -0.00960507 1.02756e-21)
(1.0001 -0.0107651 -1.08779e-21)
(1.00213 -0.0119722 4.4926e-23)
(1.00403 -0.0125719 2.7698e-22)
(1.00711 -0.0134678 -3.29914e-22)
(1.00984 -0.0134496 1.04901e-23)
(1.01314 -0.0134276 1.42892e-23)
(1.01508 -0.012962 -3.97561e-22)
(1.01797 -0.0123462 3.92235e-22)
(1.0202 -0.0112837 0)
(1.02358 -0.00959521 2.2331e-23)
(1.0245 -0.00811042 -6.30839e-24)
(1.02622 -0.00687698 6.8134e-24)
(1.0262 -0.0052608 0)
(1.02734 -0.00400055 0)
(1.02699 -0.00270576 0)
(1.0274 -0.00204195 0)
(1.02738 -0.00176911 -7.14191e-22)
(1.02719 -0.00209863 1.39909e-21)
(1.0271 -0.00271393 -1.5461e-21)
(1.02751 -0.00331997 1.04303e-21)
(1.02876 -0.00318633 5.18962e-22)
(1.03044 -0.00246309 -5.30043e-22)
(1.03316 -0.00139243 2.04724e-22)
(1.03357 0.000241754 -2.18336e-22)
(1.03443 0.00239766 -8.08261e-25)
(1.03281 0.00525176 0)
(1.03178 0.00736237 -5.27073e-22)
(1.02806 0.00948557 -1.22919e-22)
(1.02566 0.0104312 7.28055e-22)
(1.01952 0.00988196 8.83091e-22)
(1.01882 0.00504869 -2.0135e-21)
(0.992186 -0.00153296 -4.58022e-21)
(0.992235 -0.0027581 3.73879e-21)
(0.993027 -0.00366777 -3.77498e-21)
(0.992838 -0.00481469 -3.66419e-21)
(0.993433 -0.00535615 3.68223e-21)
(0.993691 -0.00663935 2.08211e-22)
(0.995132 -0.00766141 1.92345e-22)
(0.996201 -0.00931816 3.1755e-24)
(0.998127 -0.0107903 -1.02595e-21)
(0.999967 -0.0120343 1.08827e-21)
(1.00227 -0.0132294 0)
(1.00402 -0.0138584 0)
(1.00751 -0.0147675 0)
(1.0098 -0.0149296 1.93941e-22)
(1.01352 -0.0148473 -1.93905e-22)
(1.01567 -0.0140875 -5.143e-23)
(1.01895 -0.0134375 0)
(1.02039 -0.0120553 0)
(1.02391 -0.0105648 0)
(1.02518 -0.00864302 0)
(1.02722 -0.0072026 -8.07877e-24)
(1.02697 -0.00506083 0)
(1.02768 -0.00406742 0)
(1.02715 -0.00272816 1.04596e-21)
(1.02727 -0.00209928 -1.11268e-23)
(1.02723 -0.00157242 -8.9216e-22)
(1.027 -0.00180577 0)
(1.02691 -0.00243845 -1.03685e-21)
(1.02711 -0.00334875 2.42936e-22)
(1.02827 -0.00416579 8.70977e-22)
(1.02938 -0.00377016 -3.10256e-23)
(1.03245 -0.00306428 0)
(1.03371 -0.00107077 -9.08754e-23)
(1.03552 0.00108313 1.37958e-22)
(1.03469 0.00455886 -4.29249e-23)
(1.03433 0.00737391 2.51567e-23)
(1.03098 0.0102379 -3.57089e-23)
(1.02863 0.0117316 7.54007e-22)
(1.02215 0.0138029 -7.37314e-22)
(1.01845 0.00848219 0)
(0.992181 -0.00248209 -4.45323e-21)
(0.992091 -0.00381913 3.84785e-21)
(0.992915 -0.00470174 -1.91913e-22)
(0.992695 -0.00597618 -7.72245e-21)
(0.993387 -0.00657154 3.77897e-21)
(0.993831 -0.00802232 -2.15133e-22)
(0.994882 -0.0091239 0)
(0.996406 -0.0108173 3.12737e-24)
(0.998444 -0.0125158 -8.82108e-22)
(1.00015 -0.0138209 1.08233e-21)
(1.0029 -0.0150993 0)
(1.00454 -0.0157364 0)
(1.00807 -0.0165893 -6.1332e-23)
(1.0103 -0.016777 2.51472e-23)
(1.01427 -0.0166931 0)
(1.01654 -0.0156365 -5.27935e-22)
(1.02013 -0.0148649 5.56979e-22)
(1.02156 -0.0133606 0)
(1.02507 -0.0119495 0)
(1.02642 -0.00945232 8.37263e-24)
(1.02856 -0.0078808 8.35821e-24)
(1.02834 -0.00536627 0)
(1.02875 -0.00423962 0)
(1.02815 -0.00259406 -6.78507e-23)
(1.02765 -0.00219168 -6.38009e-23)
(1.0272 -0.0016042 0)
(1.02682 -0.0017926 -7.59187e-22)
(1.02675 -0.0024776 7.70583e-22)
(1.02704 -0.00332689 0)
(1.0283 -0.00469184 0)
(1.0293 -0.00474041 0)
(1.03198 -0.00471112 0)
(1.03379 -0.0028802 0)
(1.03666 -0.000978141 2.05525e-23)
(1.03667 0.00264466 -2.41637e-23)
(1.03754 0.00613092 -2.60019e-23)
(1.03494 0.0104831 7.1548e-22)
(1.03291 0.0124074 -6.80322e-22)
(1.02701 0.0168356 0)
(1.02187 0.012743 -5.43503e-23)
(0.991313 -0.00288867 2.82633e-22)
(0.991383 -0.004461 4.5064e-21)
(0.992189 -0.00538582 -4.26016e-21)
(0.992108 -0.00673702 -3.61705e-21)
(0.992809 -0.00757286 5.70223e-21)
(0.99336 -0.00893584 -1.60675e-21)
(0.994649 -0.010325 -1.28852e-21)
(0.995752 -0.0120574 2.93564e-21)
(0.998219 -0.0139527 -3.99884e-22)
(0.999832 -0.0152017 -1.0803e-21)
(1.00286 -0.0165903 0)
(1.00465 -0.0169957 0)
(1.00822 -0.0181398 -3.99217e-25)
(1.01034 -0.0180313 3.09605e-22)
(1.01458 -0.0183306 -2.88447e-22)
(1.01673 -0.0169842 -6.40688e-22)
(1.02081 -0.0161181 6.41722e-22)
(1.02239 -0.0140468 0)
(1.02579 -0.0129921 0)
(1.02699 -0.00988449 -8.67264e-24)
(1.02881 -0.00833667 -1.00642e-23)
(1.02928 -0.00521866 0)
(1.02943 -0.00372657 0)
(1.02899 -0.00203024 1.22009e-21)
(1.0278 -0.00155049 -1.21825e-21)
(1.02674 -0.00119966 -1.01255e-21)
(1.026 -0.00143487 1.01022e-21)
(1.02578 -0.00217052 -1.9872e-22)
(1.02608 -0.00312314 1.12413e-21)
(1.02743 -0.00487761 -1.12036e-21)
(1.0285 -0.00553506 0)
(1.03106 -0.00626035 0)
(1.03301 -0.00481323 -1.44637e-22)
(1.03676 -0.00333405 1.46535e-22)
(1.03757 0.000392849 -1.58669e-22)
(1.03922 0.00359424 1.61292e-22)
(1.03804 0.00965445 -7.00968e-22)
(1.03632 0.0123837 1.41707e-21)
(1.03192 0.0189063 9.7244e-23)
(1.02529 0.0169565 -7.7418e-22)
(0.991105 -0.00414923 0)
(0.991249 -0.00581243 4.09807e-21)
(0.991773 -0.00678262 -8.86636e-21)
(0.99216 -0.00820883 3.96013e-21)
(0.992675 -0.00929837 -2.42338e-22)
(0.993125 -0.010687 -1.93623e-21)
(0.995047 -0.0124451 1.31217e-21)
(0.995895 -0.0139824 0)
(0.998486 -0.0160669 -8.70045e-22)
(1.00005 -0.0173857 9.11156e-22)
(1.00339 -0.0188804 0)
(1.00534 -0.0193028 5.68585e-23)
(1.00938 -0.0201395 -5.70416e-23)
(1.01161 -0.0202424 0)
(1.01576 -0.020444 4.89572e-22)
(1.01775 -0.0188766 -5.5208e-22)
(1.02201 -0.0181388 -5.49258e-23)
(1.02403 -0.0153485 0)
(1.02712 -0.0144259 3.81675e-23)
(1.02866 -0.0107884 0)
(1.03009 -0.00902214 -8.67532e-25)
(1.03085 -0.00578861 -4.68521e-23)
(1.03072 -0.00399214 -9.41395e-23)
(1.0304 -0.00191642 0)
(1.02921 -0.000841926 0)
(1.02759 -0.000603366 -1.14457e-21)
(1.02612 -0.000984135 2.1292e-21)
(1.02527 -0.00219033 7.58034e-22)
(1.02518 -0.00341927 -3.00992e-21)
(1.02642 -0.0053606 1.28336e-21)
(1.02765 -0.00637125 0)
(1.03067 -0.00784762 0)
(1.03263 -0.00689254 0)
(1.03685 -0.00642778 8.45139e-24)
(1.03907 -0.00254778 2.10233e-23)
(1.04153 0.000311131 -2.50397e-23)
(1.04206 0.00699485 -5.56441e-22)
(1.04107 0.0105597 6.67547e-22)
(1.03844 0.0190649 -4.7728e-23)
(1.03112 0.0191246 -8.39006e-22)
(0.98971 -0.00490051 -5.27383e-21)
(0.990222 -0.00658139 2.90108e-22)
(0.990772 -0.00779015 4.3421e-21)
(0.991027 -0.00917013 -8.22216e-21)
(0.991994 -0.0104906 6.32111e-21)
(0.992279 -0.0119013 -1.93382e-21)
(0.994159 -0.0137636 4.16104e-22)
(0.99523 -0.0153264 1.29329e-21)
(0.998168 -0.0175295 -2.4502e-21)
(0.999734 -0.0188252 1.80198e-21)
(1.0031 -0.0206905 -6.86879e-22)
(1.00522 -0.0208207 3.68379e-23)
(1.0093 -0.0221485 -1.86743e-23)
(1.01191 -0.021343 0)
(1.01633 -0.0222169 6.36742e-23)
(1.01854 -0.0199775 -8.5621e-22)
(1.02232 -0.0197342 9.1468e-22)
(1.02485 -0.0162731 -6.17064e-22)
(1.02783 -0.0151852 5.34681e-22)
(1.02973 -0.011371 -1.19429e-23)
(1.03086 -0.00908684 4.09711e-22)
(1.03179 -0.00569531 -1.1612e-21)
(1.03121 -0.0035312 8.0296e-22)
(1.03058 -0.00138131 1.54943e-21)
(1.02932 0.000300358 -1.5466e-21)
(1.02763 0.000758576 -1.30025e-21)
(1.0258 0.000337969 1.13692e-21)
(1.02452 -0.00108521 1.36235e-22)
(1.02378 -0.00265237 9.9894e-23)
(1.02442 -0.00540223 1.11235e-21)
(1.02548 -0.00676671 -1.23072e-21)
(1.02832 -0.00909642 0)
(1.03109 -0.00868454 4.2277e-23)
(1.03541 -0.00939759 2.21727e-24)
(1.03909 -0.00590612 -1.59631e-22)
(1.04222 -0.00353056 1.5764e-22)
(1.04486 0.00341678 -7.04956e-22)
(1.04422 0.00759146 -8.05604e-23)
(1.04462 0.0174135 1.56359e-21)
(1.03644 0.0207265 -7.23056e-22)
(0.989261 -0.00645887 6.32007e-22)
(0.989801 -0.00823877 4.72142e-21)
(0.990634 -0.00976031 -4.1731e-21)
(0.990695 -0.0111587 -5.52362e-22)
(0.991973 -0.0127772 0)
(0.992362 -0.0142613 0)
(0.994363 -0.0162224 -2.14932e-22)
(0.995448 -0.0179361 0)
(0.998528 -0.020308 9.89487e-22)
(1.00042 -0.0214618 -1.53428e-21)
(1.00401 -0.0235152 6.41221e-22)
(1.00626 -0.023527 2.64591e-25)
(1.01046 -0.0248782 8.21058e-24)
(1.01318 -0.0239115 -5.6525e-23)
(1.01785 -0.0247442 0)
(1.02086 -0.0220928 0)
(1.0244 -0.0218858 7.2926e-23)
(1.02728 -0.0181736 -8.62096e-23)
(1.02974 -0.01651 4.49823e-23)
(1.03225 -0.0126241 1.24224e-23)
(1.03302 -0.00989133 0)
(1.03391 -0.00621589 0)
(1.03321 -0.00307215 2.30915e-22)
(1.0322 -0.00122947 1.64243e-21)
(1.03046 0.000832122 -1.86968e-21)
(1.02827 0.00160012 0)
(1.02614 0.00123525 1.66426e-22)
(1.02434 -0.000281368 -1.41628e-22)
(1.02316 -0.001888 -1.73401e-21)
(1.02321 -0.00513236 1.62628e-21)
(1.02408 -0.00696143 1.28701e-22)
(1.02642 -0.0104789 0)
(1.0295 -0.0110445 -4.3908e-23)
(1.03397 -0.0131374 -1.37886e-23)
(1.03906 -0.0105523 -1.29088e-23)
(1.04307 -0.00884256 -6.24313e-22)
(1.04801 -0.00204179 -1.29645e-22)
(1.04857 0.00270563 6.97503e-22)
(1.0517 0.0134134 5.28231e-23)
(1.04357 0.0193554 -4.93782e-23)
(0.987793 -0.00743675 -5.75956e-21)
(0.988093 -0.00927109 4.9334e-21)
(0.989244 -0.0110297 -9.97547e-21)
(0.98929 -0.0123979 9.75267e-21)
(0.990687 -0.0142423 -4.47057e-21)
(0.991169 -0.0158013 -1.86201e-21)
(0.993302 -0.0179051 1.87305e-21)
(0.994612 -0.0194738 1.31552e-21)
(0.99772 -0.0222697 -2.15018e-21)
(0.999882 -0.0230531 1.5477e-21)
(1.00366 -0.0255593 -5.858e-22)
(1.00636 -0.0251787 -2.75531e-25)
(1.01055 -0.027078 3.2016e-22)
(1.01398 -0.0254127 3.14201e-22)
(1.01814 -0.0266962 -7.48808e-22)
(1.02204 -0.0238048 -1.22222e-21)
(1.02531 -0.0230674 1.07985e-21)
(1.02882 -0.0194126 -9.29812e-24)
(1.03101 -0.0171878 -5.62436e-23)
(1.03363 -0.0131653 0)
(1.03438 -0.00956478 1.6458e-23)
(1.03509 -0.00653903 0)
(1.03431 -0.00207515 -1.25455e-22)
(1.03301 0.000253159 -1.17191e-23)
(1.03105 0.00227293 -1.63811e-21)
(1.02837 0.00338304 1.8793e-21)
(1.02558 0.00337495 -1.49768e-21)
(1.02301 0.00159454 -1.21562e-21)
(1.02111 -0.000157004 2.66751e-21)
(1.02041 -0.00409711 1.05014e-22)
(1.02108 -0.00632369 0)
(1.02288 -0.0106854 6.59379e-22)
(1.02634 -0.0122341 -6.56167e-22)
(1.03017 -0.0155571 1.43389e-23)
(1.03668 -0.0147551 0)
(1.04128 -0.0140779 0)
(1.04896 -0.00865704 0)
(1.0505 -0.00345195 0)
(1.05721 0.00657165 -1.01296e-21)
(1.0499 0.0176872 1.60273e-21)
(0.987729 -0.00955751 5.41847e-21)
(0.987771 -0.0114681 -6.17379e-22)
(0.989119 -0.0135809 -1.01355e-20)
(0.989156 -0.0151465 2.04259e-23)
(0.990736 -0.0170497 4.66778e-21)
(0.991236 -0.0187909 0)
(0.993425 -0.0212394 0)
(0.995129 -0.0225266 0)
(0.998253 -0.0257114 7.9228e-22)
(1.0008 -0.0263597 -1.04208e-21)
(1.00467 -0.0291628 1.39494e-23)
(1.00792 -0.0285407 4.55334e-22)
(1.01186 -0.0306087 -4.17409e-22)
(1.0163 -0.0287138 8.62238e-23)
(1.02005 -0.0294405 -1.52009e-23)
(1.02505 -0.0269049 -8.86655e-24)
(1.02798 -0.0254351 0)
(1.03213 -0.0218333 2.1791e-22)
(1.03422 -0.0185154 5.86969e-23)
(1.03715 -0.0150526 1.77188e-23)
(1.03774 -0.00986478 -6.21133e-22)
(1.0385 -0.00669347 6.62978e-22)
(1.03741 -0.00224978 -1.57543e-22)
(1.03556 0.000918681 1.40609e-22)
(1.03326 0.00346274 -2.82375e-22)
(1.03004 0.00490468 -1.70313e-21)
(1.02653 0.00520733 1.97237e-21)
(1.02311 0.00348657 2.93914e-21)
(1.0204 0.00190279 -8.79617e-22)
(1.01845 -0.00266183 -2.39937e-21)
(1.01845 -0.00556232 0)
(1.01916 -0.0110706 -1.44412e-22)
(1.02292 -0.0139025 0)
(1.02629 -0.0184922 2.75465e-23)
(1.03371 -0.0196207 -2.94498e-22)
(1.03906 -0.0205018 1.25618e-21)
(1.04873 -0.016999 -2.20136e-21)
(1.0523 -0.0122369 1.24048e-21)
(1.06261 -0.00362203 -1.0598e-21)
(1.05785 0.0107482 1.09382e-21)
(0.985984 -0.0108098 -3.70636e-22)
(0.985958 -0.0128367 6.15171e-21)
(0.987376 -0.0151688 -5.49233e-21)
(0.987467 -0.0168487 3.16372e-22)
(0.988942 -0.0190771 0)
(0.989981 -0.0204806 -2.65794e-22)
(0.991994 -0.023542 0)
(0.994141 -0.0246176 1.51047e-21)
(0.997227 -0.0280414 -5.66292e-22)
(1.00052 -0.0283977 -8.27507e-22)
(1.00392 -0.0316325 -1.45676e-23)
(1.00844 -0.0308192 2.87686e-23)
(1.01176 -0.0326973 0)
(1.01716 -0.0313498 8.48525e-22)
(1.02062 -0.0312058 -8.12406e-22)
(1.02642 -0.02902 -1.48861e-21)
(1.02928 -0.0265569 1.69018e-21)
(1.03433 -0.0237 -1.19696e-22)
(1.03615 -0.0187932 5.18398e-22)
(1.03957 -0.0154626 -6.11725e-22)
(1.04014 -0.0100241 1.96846e-23)
(1.04072 -0.00594997 -1.71471e-22)
(1.03982 -0.000886063 1.64734e-22)
(1.03744 0.00287429 -1.78493e-22)
(1.03465 0.00565237 1.54824e-22)
(1.03078 0.00747355 -2.91157e-21)
(1.0267 0.00852749 2.58642e-21)
(1.02211 0.00679053 3.47427e-21)
(1.01887 0.00530564 -3.51606e-21)
(1.01543 0.000387381 -1.72706e-22)
(1.01502 -0.00304666 0)
(1.01382 -0.00906233 1.17892e-21)
(1.01714 -0.0138561 -9.17051e-22)
(1.01937 -0.0197022 -1.39283e-23)
(1.02734 -0.0234301 4.66294e-23)
(1.03288 -0.0258224 0)
(1.04478 -0.0253765 -1.43617e-21)
(1.05002 -0.0213599 1.41395e-21)
(1.06366 -0.0154757 0)
(1.06265 4.47832e-05 8.18757e-23)
(0.985846 -0.0135984 1.4763e-23)
(0.986016 -0.0157851 -6.48091e-21)
(0.987329 -0.0184172 5.4549e-21)
(0.987947 -0.0200927 -1.09207e-20)
(0.988976 -0.0229314 7.77232e-21)
(0.99045 -0.0241784 -2.06769e-21)
(0.992212 -0.0275526 0)
(0.995134 -0.0285298 -1.96264e-22)
(0.997548 -0.0324815 -6.98824e-22)
(1.00223 -0.0327136 7.644e-22)
(1.00502 -0.0356456 -3.98689e-24)
(1.0106 -0.0357227 9.16734e-22)
(1.01381 -0.036399 -1.60706e-21)
(1.02017 -0.0359246 7.88424e-22)
(1.02338 -0.0344408 0)
(1.03006 -0.0333556 0)
(1.03288 -0.0293675 -1.19661e-22)
(1.03837 -0.0268573 1.08535e-21)
(1.04045 -0.0211696 -1.7624e-21)
(1.04374 -0.0172025 6.85831e-22)
(1.04501 -0.0109669 -7.99946e-22)
(1.04513 -0.00615845 7.64827e-22)
(1.04426 -0.000913646 2.10006e-22)
(1.04187 0.00389301 3.27161e-21)
(1.03863 0.0076797 -3.07804e-21)
(1.03394 0.0097817 -2.74018e-21)
(1.02949 0.011503 -2.70539e-23)
(1.02362 0.0100627 -1.50573e-21)
(1.01948 0.00893452 4.641e-21)
(1.01417 0.0041082 3.91388e-22)
(1.01251 -0.000220265 -3.25852e-22)
(1.00974 -0.00659302 2.32012e-22)
(1.01221 -0.012703 -1.1006e-22)
(1.01287 -0.0199748 -1.37941e-22)