/*--------------------------------*- C++ -*----------------------------------*\
  =========                 |
  \\      /  F ield         | OpenFOAM: The Open Source CFD Toolbox
   \\    /   O peration     | Website:  https://openfoam.org
    \\  /    A nd           | Version:  10
     \\/     M anipulation  |
\*---------------------------------------------------------------------------*/
FoamFile
{
    format      ascii;
    class       volScalarField;
    location    "0.801585";
    object      p;
}
// * * * * * * * * * * * * * * * * * * * * * * * * * * * * * * * * * * * * * //

dimensions      [1 -1 -2 0 0 0 0];

internalField   nonuniform List<scalar> 
16320
(
0.598726
0.598343
0.598104
0.597955
0.598066
0.598199
0.598687
0.599575
0.600975
0.602732
0.605246
0.610943
0.618703
0.627034
0.634666
0.64045
0.645215
0.649739
0.654079
0.658422
0.662755
0.667061
0.671302
0.675505
0.679761
0.684066
0.688252
0.692375
0.696893
0.701786
0.707051
0.71279
0.719938
0.727417
0.73333
0.736627
0.73655
0.733748
0.726208
0.71218
0.691195
0.665011
0.636414
0.607214
0.578166
0.548813
0.518915
0.491069
0.467104
0.449498
0.438547
0.438062
0.443351
0.460848
0.481156
0.522905
0.555738
0.578055
0.590618
0.597256
0.599719
0.599548
0.599363
0.596117
0.592148
0.587004
0.582838
0.578611
0.574373
0.568976
0.562899
0.555729
0.547543
0.539117
0.531335
0.525114
0.52067
0.517962
0.517036
0.518107
0.518543
0.518613
0.519478
0.519399
0.519963
0.520458
0.520001
0.517624
0.512878
0.507029
0.501041
0.496267
0.493615
0.494215
0.497722
0.505722
0.518127
0.534115
0.551349
0.565652
0.578056
0.59505
0.613116
0.631965
0.646933
0.658266
0.670378
0.678865
0.687358
0.692346
0.695094
0.696223
0.695252
0.600427
0.599477
0.598782
0.598291
0.597992
0.597934
0.598234
0.599006
0.600347
0.602329
0.604925
0.609259
0.61808
0.627079
0.635846
0.642643
0.647912
0.652493
0.65681
0.660928
0.665066
0.66914
0.673147
0.677108
0.68107
0.685041
0.689003
0.693036
0.697337
0.701897
0.706632
0.711309
0.714836
0.717457
0.719424
0.720027
0.72043
0.721033
0.715859
0.703793
0.686497
0.66347
0.637177
0.608587
0.579687
0.550916
0.522826
0.496747
0.474146
0.456806
0.447913
0.444314
0.450386
0.470196
0.49078
0.536683
0.572175
0.59345
0.604262
0.609322
0.610169
0.608865
0.608053
0.603801
0.59899
0.593491
0.5888
0.584743
0.579674
0.574314
0.56824
0.560998
0.552643
0.54382
0.535412
0.528193
0.522448
0.518846
0.516812
0.517497
0.517452
0.517439
0.517835
0.517695
0.516871
0.516103
0.514946
0.5125
0.508228
0.502667
0.497
0.492031
0.489078
0.488834
0.491812
0.499088
0.511455
0.527874
0.547189
0.565086
0.581466
0.596664
0.615653
0.634878
0.652741
0.66272
0.676113
0.683338
0.692073
0.696983
0.699694
0.700567
0.699536
0.60214
0.600633
0.599442
0.598564
0.598015
0.597793
0.598023
0.59886
0.600224
0.602523
0.605507
0.609639
0.618288
0.628173
0.637756
0.645478
0.651104
0.655732
0.659905
0.663824
0.667664
0.671463
0.675179
0.678836
0.682468
0.686106
0.689765
0.693498
0.697373
0.701368
0.70538
0.709194
0.712427
0.71492
0.716653
0.717009
0.714579
0.707899
0.699662
0.692346
0.681879
0.662676
0.638533
0.614636
0.585515
0.557221
0.530605
0.506297
0.484685
0.468496
0.459821
0.459195
0.465826
0.480399
0.508797
0.555579
0.591154
0.609269
0.618316
0.621202
0.620439
0.617941
0.616184
0.610877
0.605082
0.599934
0.594722
0.590439
0.585128
0.579784
0.573874
0.566798
0.558543
0.549517
0.540649
0.532472
0.52502
0.520433
0.517857
0.518018
0.517662
0.517254
0.517077
0.517157
0.515768
0.513933
0.511682
0.508598
0.504409
0.499163
0.493983
0.489175
0.485878
0.485223
0.48753
0.494492
0.507058
0.524138
0.545097
0.566651
0.585834
0.603744
0.621737
0.641044
0.658301
0.669848
0.681843
0.688409
0.6969
0.701602
0.704312
0.704569
0.703596
0.604027
0.602007
0.600441
0.599211
0.598446
0.598127
0.598374
0.59941
0.600921
0.603552
0.606941
0.611322
0.620198
0.630674
0.640743
0.648977
0.654873
0.659478
0.663374
0.667028
0.670549
0.674031
0.677452
0.680806
0.684121
0.687434
0.690753
0.694096
0.697471
0.700833
0.704082
0.707056
0.709547
0.711383
0.712402
0.712222
0.710388
0.706236
0.699911
0.688488
0.673797
0.65969
0.641666
0.619443
0.596369
0.570564
0.544964
0.520457
0.500376
0.484854
0.478375
0.479172
0.48454
0.503329
0.534361
0.578495
0.609917
0.625033
0.630997
0.632006
0.629985
0.626993
0.622928
0.617336
0.610836
0.605778
0.600413
0.595772
0.590422
0.585214
0.579672
0.573075
0.565283
0.556224
0.546807
0.53826
0.530232
0.524053
0.520061
0.519579
0.518741
0.518012
0.517047
0.516274
0.516859
0.51359
0.510401
0.50646
0.501776
0.496667
0.491824
0.487352
0.484353
0.483742
0.48564
0.492305
0.505239
0.523305
0.545841
0.570147
0.592469
0.612765
0.631394
0.650295
0.665879
0.678008
0.687398
0.694462
0.701963
0.7063
0.708813
0.708718
0.707662
0.606128
0.603657
0.601692
0.600373
0.599551
0.599246
0.599677
0.601021
0.602819
0.605863
0.609854
0.61481
0.624304
0.634658
0.644849
0.653242
0.65922
0.66358
0.667169
0.670508
0.673724
0.676883
0.679997
0.683056
0.686073
0.689072
0.69206
0.695019
0.69792
0.700714
0.703287
0.70551
0.707219
0.708235
0.708395
0.707526
0.705325
0.701602
0.696335
0.688459
0.677583
0.663002
0.644861
0.623215
0.607399
0.584363
0.563791
0.5424
0.522987
0.509943
0.504745
0.506297
0.514381
0.529576
0.562761
0.599441
0.626073
0.63685
0.6423
0.641293
0.637675
0.634695
0.629169
0.623228
0.616177
0.611175
0.605927
0.600655
0.595403
0.590315
0.585235
0.579336
0.57294
0.564001
0.554127
0.545399
0.536271
0.528831
0.522948
0.522068
0.520736
0.519585
0.518453
0.51712
0.515537
0.513954
0.510739
0.505896
0.500686
0.49545
0.490607
0.486772
0.484352
0.484009
0.486227
0.49294
0.50638
0.525379
0.549594
0.576468
0.601885
0.624587
0.643667
0.660441
0.675721
0.686388
0.69391
0.701433
0.707449
0.711177
0.713412
0.713034
0.711909
0.608156
0.605562
0.603769
0.602301
0.601442
0.601359
0.602172
0.603895
0.606132
0.60972
0.614435
0.620627
0.630288
0.640444
0.650242
0.658313
0.664112
0.667948
0.671221
0.674259
0.67718
0.680029
0.682822
0.685591
0.688321
0.691021
0.693691
0.696288
0.698757
0.701023
0.702997
0.70454
0.70552
0.70579
0.705246
0.703736
0.701087
0.6972
0.692006
0.685322
0.676992
0.666393
0.652388
0.636855
0.614525
0.599799
0.58057
0.565084
0.551909
0.540612
0.538155
0.540313
0.547607
0.5681
0.591898
0.620147
0.644476
0.646651
0.651014
0.648501
0.643262
0.641091
0.634539
0.628116
0.621219
0.616072
0.610946
0.605428
0.600232
0.59497
0.590288
0.584685
0.580831
0.572755
0.562864
0.552784
0.544186
0.535286
0.526686
0.525301
0.523631
0.521982
0.520514
0.518597
0.516186
0.516199
0.512077
0.506669
0.500855
0.495311
0.490575
0.487535
0.485823
0.48603
0.488892
0.496181
0.510354
0.531032
0.557451
0.586467
0.613914
0.637593
0.656876
0.67254
0.68607
0.69559
0.701765
0.70826
0.713529
0.716401
0.718235
0.717591
0.716362
0.610912
0.608317
0.606777
0.605219
0.604947
0.605135
0.606066
0.608308
0.611254
0.615744
0.621253
0.629034
0.638338
0.647701
0.656767
0.664104
0.6693
0.67258
0.675543
0.678273
0.680901
0.683436
0.685887
0.688373
0.690827
0.693243
0.695622
0.697887
0.699958
0.701749
0.703163
0.704077
0.704369
0.703943
0.702716
0.700625
0.697582
0.693513
0.688387
0.682161
0.674811
0.666097
0.656007
0.644628
0.631007
0.616612
0.603822
0.589244
0.577751
0.573132
0.571864
0.574332
0.584404
0.602085
0.61626
0.64233
0.65322
0.652632
0.656391
0.653478
0.649894
0.644924
0.63868
0.631634
0.626104
0.620459
0.615744
0.610091
0.604868
0.599535
0.595009
0.590075
0.584265
0.580832
0.572155
0.562058
0.552714
0.544349
0.535752
0.528684
0.527202
0.525338
0.523435
0.52138
0.518883
0.518245
0.514021
0.507999
0.502009
0.496316
0.491897
0.489894
0.488711
0.489929
0.493779
0.503148
0.518235
0.540923
0.569349
0.599833
0.628116
0.651957
0.670816
0.685495
0.696344
0.705298
0.71007
0.715031
0.719967
0.721928
0.723265
0.722391
0.720959
0.614292
0.611775
0.610455
0.60921
0.609793
0.610732
0.612427
0.615643
0.619542
0.624712
0.630913
0.638883
0.64751
0.656023
0.663967
0.670202
0.674567
0.677502
0.680124
0.682548
0.684831
0.687016
0.68914
0.69134
0.693522
0.695665
0.697794
0.699779
0.7015
0.702864
0.703776
0.704127
0.703796
0.702655
0.70073
0.698066
0.69457
0.69022
0.685062
0.679089
0.672305
0.664783
0.656305
0.647467
0.637908
0.627929
0.618188
0.608704
0.600755
0.596911
0.5975
0.601516
0.611447
0.616874
0.638163
0.648558
0.650467
0.66041
0.659641
0.655643
0.654252
0.648178
0.642161
0.635021
0.630106
0.624672
0.620151
0.614663
0.609569
0.60442
0.599912
0.595348
0.590698
0.584727
0.580893
0.571788
0.56217
0.553583
0.545722
0.538146
0.531554
0.529678
0.527656
0.525299
0.522246
0.521421
0.516986
0.510655
0.503988
0.498727
0.494923
0.493789
0.493308
0.49567
0.501424
0.512547
0.529282
0.553793
0.584038
0.615246
0.643667
0.666994
0.685102
0.698411
0.707497
0.714102
0.718689
0.722249
0.726494
0.727697
0.72835
0.72753
0.725861
0.618242
0.616011
0.615155
0.614168
0.615804
0.617782
0.620434
0.624727
0.62961
0.635342
0.64186
0.649306
0.657127
0.664669
0.671318
0.676428
0.680066
0.682692
0.684993
0.687034
0.688857
0.690635
0.692503
0.69439
0.696306
0.698124
0.699948
0.701597
0.702933
0.70379
0.704104
0.703884
0.70302
0.701219
0.698814
0.695744
0.69181
0.687102
0.681804
0.6759
0.669455
0.662579
0.655284
0.647577
0.639805
0.632084
0.624616
0.61797
0.613167
0.612151
0.612949
0.619079
0.617848
0.629511
0.64381
0.645931
0.658816
0.661488
0.660287
0.658869
0.655265
0.649909
0.644567
0.638218
0.633692
0.628602
0.624195
0.619206
0.61446
0.60954
0.60511
0.600716
0.596457
0.59217
0.587325
0.580833
0.572473
0.563605
0.556225
0.548372
0.541942
0.535064
0.533468
0.530475
0.526537
0.52537
0.52066
0.514212
0.507729
0.502717
0.499566
0.49916
0.499618
0.503306
0.510981
0.523469
0.542374
0.568777
0.60029
0.631811
0.659675
0.682008
0.699169
0.710699
0.718197
0.723392
0.727023
0.729431
0.733085
0.733803
0.733379
0.732553
0.730824
0.622733
0.620826
0.620437
0.620163
0.622856
0.625851
0.629383
0.634823
0.640419
0.646488
0.65303
0.659912
0.666815
0.673231
0.678681
0.682868
0.685946
0.688253
0.690156
0.691652
0.692863
0.694033
0.695323
0.697047
0.699094
0.700747
0.702528
0.704013
0.705438
0.706406
0.70674
0.706073
0.704255
0.700128
0.696351
0.692856
0.688608
0.683767
0.678443
0.672503
0.66616
0.659663
0.653041
0.646333
0.639502
0.632977
0.62692
0.621704
0.618379
0.618342
0.618916
0.621392
0.622126
0.635192
0.64025
0.65328
0.658824
0.66029
0.659829
0.658897
0.655434
0.651249
0.645666
0.641325
0.636978
0.632472
0.628101
0.623658
0.619325
0.614855
0.610684
0.60654
0.602482
0.598369
0.594053
0.590089
0.582807
0.574607
0.566808
0.56017
0.553188
0.544854
0.541643
0.537166
0.531645
0.53096
0.525568
0.518646
0.512754
0.508339
0.505831
0.505985
0.50741
0.512444
0.5217
0.535503
0.557041
0.584958
0.617129
0.648572
0.675442
0.696674
0.712352
0.721821
0.728069
0.732126
0.734859
0.736728
0.739314
0.739769
0.738385
0.73733
0.73553
0.627707
0.625878
0.625643
0.62722
0.629915
0.634433
0.639155
0.645671
0.651855
0.657978
0.664188
0.670413
0.676378
0.681736
0.68621
0.689685
0.692305
0.694237
0.695543
0.696343
0.697133
0.697943
0.698954
0.700141
0.702108
0.704665
0.707419
0.708921
0.709607
0.709128
0.707725
0.705623
0.703259
0.700783
0.698953
0.693653
0.686473
0.679978
0.674618
0.668681
0.662446
0.656148
0.649901
0.643815
0.637962
0.63241
0.627518
0.623755
0.621365
0.620134
0.62193
0.623124
0.632236
0.638938
0.64651
0.652439
0.656015
0.657439
0.65966
0.657749
0.654932
0.651667
0.646948
0.643586
0.639825
0.635992
0.63208
0.628195
0.624274
0.62031
0.616432
0.612558
0.608799
0.605006
0.601178
0.596575
0.592673
0.585577
0.578355
0.571796
0.565172
0.556347
0.551743
0.545489
0.538735
0.538554
0.532437
0.525412
0.519901
0.515799
0.5138
0.514301
0.516578
0.522814
0.533497
0.549026
0.571982
0.601423
0.634017
0.664823
0.690339
0.710299
0.723854
0.73166
0.737003
0.740176
0.742113
0.743697
0.745575
0.745196
0.743061
0.741586
0.739642
0.633058
0.631327
0.631331
0.633572
0.637706
0.642857
0.649038
0.655947
0.663441
0.669632
0.67544
0.680901
0.685968
0.690389
0.694052
0.696926
0.699153
0.700554
0.701248
0.701554
0.702345
0.703257
0.705379
0.708389
0.711746
0.715534
0.719145
0.721071
0.720578
0.717604
0.713823
0.709715
0.705524
0.700932
0.694412
0.688917
0.683641
0.678858
0.671277
0.664411
0.658002
0.652025
0.646183
0.64052
0.635244
0.630537
0.626644
0.623801
0.622388
0.622581
0.624693
0.627532
0.633258
0.63909
0.644219
0.648599
0.652451
0.656228
0.656622
0.655667
0.654048
0.651272
0.648284
0.645488
0.64237
0.63934
0.6361
0.632744
0.629293
0.625732
0.622168
0.618656
0.615247
0.611853
0.608468
0.604836
0.601731
0.59653
0.590176
0.583587
0.577912
0.568646
0.5629
0.555627
0.551285
0.545505
0.539796
0.534219
0.528856
0.524842
0.522974
0.5238
0.527038
0.534488
0.546526
0.563455
0.587289
0.618011
0.65069
0.680223
0.7043
0.722887
0.733555
0.740143
0.744811
0.747372
0.748559
0.749873
0.750686
0.749711
0.747096
0.745229
0.742731
0.638762
0.636989
0.637291
0.639999
0.644737
0.651219
0.658099
0.665532
0.673756
0.68065
0.686543
0.691428
0.695616
0.699187
0.702137
0.704493
0.706318
0.707478
0.708247
0.70916
0.711002
0.714393
0.718518
0.723076
0.727107
0.729377
0.729126
0.727181
0.724389
0.720246
0.715045
0.708683
0.701888
0.695399
0.690093
0.685664
0.678719
0.673502
0.667111
0.661073
0.653293
0.647189
0.641835
0.636648
0.631745
0.627368
0.623933
0.621569
0.620493
0.620793
0.622454
0.6257
0.63018
0.635096
0.639452
0.645085
0.649895
0.65216
0.653251
0.653247
0.652548
0.650587
0.648964
0.646995
0.644755
0.642399
0.639893
0.637102
0.634128
0.630991
0.627821
0.624726
0.621808
0.618874
0.616245
0.612805
0.608855
0.605934
0.600593
0.595407
0.590312
0.581291
0.574087
0.567091
0.563254
0.556526
0.550344
0.544265
0.538707
0.534945
0.533501
0.534741
0.539024
0.547612
0.560848
0.578714
0.603372
0.635064
0.667223
0.695207
0.717497
0.733088
0.74157
0.747539
0.751417
0.752982
0.754056
0.754536
0.754958
0.753387
0.750434
0.74802
0.74514
0.645134
0.642999
0.643317
0.646679
0.651937
0.658565
0.666097
0.674353
0.681949
0.689031
0.695829
0.701426
0.705072
0.707905
0.710202
0.712148
0.713446
0.714624
0.715576
0.718314
0.723345
0.728475
0.733056
0.736554
0.737869
0.73729
0.735758
0.732385
0.727935
0.722164
0.715824
0.707888
0.699862
0.691805
0.685533
0.679065
0.673637
0.667679
0.661527
0.655696
0.650448
0.641552
0.636754
0.631714
0.627045
0.623221
0.620114
0.618037
0.617065
0.617289
0.618675
0.620771
0.624779
0.630297
0.636699
0.640996
0.644776
0.647664
0.649521
0.650478
0.650652
0.649742
0.64923
0.648175
0.646822
0.645239
0.643398
0.641207
0.63867
0.635967
0.633253
0.630675
0.628236
0.625827
0.623636
0.620815
0.617454
0.616164
0.611651
0.607358
0.60204
0.594681
0.58633
0.580905
0.574996
0.56872
0.562095
0.555669
0.550374
0.546756
0.54567
0.54746
0.552753
0.562337
0.576471
0.594897
0.620563
0.652876
0.683522
0.709603
0.729278
0.741396
0.74876
0.75446
0.756433
0.757522
0.758635
0.757894
0.758053
0.756077
0.753102
0.749991
0.746855
0.653159
0.650542
0.649596
0.653597
0.659488
0.666908
0.674889
0.683422
0.690757
0.697294
0.703372
0.708719
0.712275
0.714979
0.717167
0.718857
0.720354
0.721789
0.723447
0.729708
0.735726
0.740654
0.744045
0.745247
0.744472
0.742234
0.738672
0.734647
0.729094
0.722568
0.714875
0.705544
0.696898
0.68902
0.680277
0.673797
0.667389
0.661765
0.655327
0.649138
0.64378
0.63875
0.63218
0.626343
0.621716
0.617918
0.614976
0.612926
0.612124
0.612885
0.615053
0.618459
0.62237
0.626529
0.630792
0.635286
0.639409
0.642776
0.645284
0.647156
0.648308
0.648549
0.648996
0.648911
0.648465
0.647692
0.646536
0.644866
0.642789
0.64056
0.638371
0.636281
0.634234
0.632507
0.630753
0.62855
0.626033
0.625275
0.622242
0.619368
0.613815
0.607218
0.600509
0.594281
0.58849
0.581835
0.574991
0.568216
0.562981
0.559586
0.559206
0.562013
0.568456
0.578705
0.593101
0.61208
0.639632
0.670597
0.699082
0.722074
0.738574
0.748373
0.75506
0.759782
0.760053
0.760728
0.761311
0.761946
0.76046
0.757723
0.754755
0.751223
0.74795
0.662214
0.659682
0.660714
0.662088
0.66783
0.675656
0.684082
0.692934
0.700326
0.706242
0.710731
0.714257
0.717927
0.720619
0.722793
0.724692
0.726485
0.728199
0.732877
0.740226
0.745586
0.749687
0.7513
0.750154
0.74736
0.742901
0.739004
0.733499
0.726754
0.718844
0.708697
0.698815
0.689036
0.681355
0.673716
0.668388
0.662104
0.654404
0.647802
0.641101
0.635216
0.630321
0.625307
0.621024
0.617216
0.613758
0.610788
0.608651
0.607615
0.607558
0.608732
0.611554
0.615279
0.619492
0.624226
0.629051
0.633492
0.637331
0.64051
0.643214
0.645322
0.646839
0.648238
0.649072
0.649529
0.649623
0.649097
0.647949
0.646416
0.644695
0.642922
0.641234
0.639659
0.638481
0.63723
0.63577
0.634764
0.633598
0.632254
0.630152
0.625392
0.620183
0.6149
0.608845
0.602506
0.595663
0.588225
0.581126
0.576845
0.575547
0.576187
0.57969
0.586356
0.596542
0.611046
0.631377
0.659027
0.687799
0.713528
0.733756
0.745923
0.753688
0.760399
0.75984
0.761747
0.762506
0.762396
0.763208
0.761687
0.758867
0.755544
0.751686
0.748248
0.671841
0.670313
0.670969
0.674721
0.679616
0.686023
0.694526
0.703034
0.710336
0.715538
0.719017
0.721254
0.723486
0.725532
0.727587
0.729613
0.731757
0.733938
0.741406
0.748357
0.752479
0.754742
0.754314
0.751722
0.744903
0.74108
0.735648
0.72869
0.722134
0.711973
0.701047
0.690236
0.680222
0.671138
0.663701
0.657143
0.650877
0.644736
0.638102
0.631665
0.625654
0.620612
0.616288
0.612339
0.608398
0.605264
0.60246
0.600397
0.599408
0.599496
0.600834
0.603579
0.607425
0.612041
0.617113
0.622213
0.627009
0.631362
0.635294
0.638802
0.641633
0.644443
0.646721
0.648472
0.64991
0.6507
0.650817
0.650417
0.64947
0.648181
0.646749
0.645351
0.644418
0.643631
0.642865
0.642158
0.642235
0.642159
0.642226
0.640334
0.635953
0.632261
0.628686
0.623494
0.616889
0.609635
0.602406
0.598514
0.595245
0.594044
0.595434
0.599713
0.605457
0.615495
0.630089
0.652055
0.677881
0.703615
0.725382
0.740616
0.750786
0.757901
0.760328
0.762225
0.762867
0.763269
0.762418
0.76322
0.762069
0.759306
0.755819
0.751901
0.748228
0.683864
0.681785
0.683162
0.687546
0.694047
0.701437
0.707251
0.714408
0.720343
0.724511
0.726922
0.728007
0.728891
0.730456
0.731529
0.733414
0.73556
0.739645
0.747573
0.753394
0.75574
0.755867
0.753075
0.747564
0.739814
0.735251
0.727323
0.721393
0.709614
0.697699
0.685409
0.674357
0.664961
0.657485
0.651874
0.645519
0.639239
0.632896
0.627071
0.621555
0.616135
0.61071
0.606402
0.60238
0.598711
0.595611
0.593085
0.591305
0.590494
0.5908
0.592379
0.595274
0.599306
0.604158
0.609483
0.614896
0.62007
0.625015
0.629687
0.633942
0.637341
0.6411
0.644274
0.64703
0.649294
0.650754
0.651592
0.651766
0.65136
0.650649
0.649695
0.648723
0.648198
0.647856
0.647641
0.64785
0.648769
0.650131
0.650838
0.649367
0.647289
0.644676
0.642349
0.637046
0.630408
0.623994
0.620425
0.617108
0.614877
0.615412
0.616513
0.619473
0.625423
0.635011
0.651198
0.672098
0.695207
0.716873
0.733877
0.74599
0.755096
0.76153
0.763078
0.763077
0.762872
0.762503
0.763452
0.76305
0.761989
0.759342
0.755776
0.751842
0.747964
0.69742
0.695554
0.697182
0.701908
0.708846
0.716554
0.723379
0.726919
0.730427
0.732432
0.733506
0.733948
0.733776
0.734245
0.734303
0.735753
0.737627
0.743411
0.750488
0.754507
0.755007
0.753525
0.749295
0.737468
0.731661
0.723706
0.708968
0.697873
0.677373
0.661862
0.649953
0.641223
0.636421
0.633761
0.631885
0.629412
0.626246
0.622158
0.617585
0.611694
0.606024
0.600702
0.596153
0.591899
0.588103
0.585005
0.582734
0.581274
0.580794
0.581438
0.583327
0.586519
0.590841
0.595914
0.601518
0.60729
0.612847
0.618367
0.623723
0.627848
0.632665
0.636746
0.640926
0.644387
0.647422
0.649686
0.651061
0.651715
0.651773
0.651623
0.651321
0.651038
0.651007
0.651122
0.651495
0.652476
0.654673
0.65695
0.658006
0.657238
0.657417
0.656856
0.654855
0.64905
0.643533
0.640722
0.637858
0.636275
0.635372
0.635017
0.636441
0.639587
0.645238
0.656318
0.671619
0.690246
0.709654
0.726323
0.739572
0.750682
0.759068
0.762086
0.762438
0.76254
0.761966
0.761357
0.763011
0.762584
0.761679
0.759145
0.755541
0.751548
0.747503
0.709981
0.709282
0.711729
0.716925
0.72383
0.731024
0.736421
0.738709
0.738593
0.737711
0.737449
0.73687
0.736295
0.735999
0.735004
0.735858
0.737128
0.743398
0.749058
0.751004
0.748614
0.743385
0.735124
0.724321
0.713718
0.699127
0.677522
0.655223
0.633431
0.616842
0.604424
0.597867
0.595801
0.595962
0.598324
0.601753
0.604185
0.604673
0.602868
0.600736
0.596586
0.589741
0.585588
0.581421
0.577369
0.574267
0.57218
0.570964
0.570776
0.571787
0.574085
0.577643
0.58224
0.587585
0.593494
0.599634
0.605631
0.611678
0.616531
0.622183
0.627242
0.632238
0.636505
0.640627
0.644184
0.646987
0.648991
0.650165
0.650889
0.651308
0.651615
0.651907
0.652353
0.653061
0.65415
0.656094
0.658816
0.661607
0.662974
0.662952
0.664535
0.665967
0.664188
0.6601
0.656784
0.65525
0.654323
0.65287
0.653145
0.653412
0.655134
0.658882
0.666075
0.676313
0.689693
0.705187
0.719715
0.732686
0.744789
0.754533
0.758639
0.760217
0.761053
0.761144
0.760637
0.760673
0.762137
0.76194
0.761182
0.758831
0.75522
0.751068
0.747244
0.719816
0.720127
0.723249
0.728913
0.735623
0.741693
0.745088
0.744385
0.740986
0.738735
0.737567
0.736209
0.735096
0.733885
0.733266
0.732943
0.733168
0.73853
0.741958
0.74068
0.735082
0.726114
0.714471
0.700687
0.684571
0.663006
0.638933
0.614088
0.5938
0.579088
0.569021
0.564115
0.562462
0.563534
0.566905
0.571194
0.575974
0.580382
0.583109
0.583824
0.582755
0.583706
0.575749
0.570613
0.567076
0.564862
0.563099
0.561657
0.561515
0.56284
0.565458
0.569298
0.574144
0.579797
0.58592
0.5924
0.598031
0.604139
0.610323
0.615798
0.621471
0.626453
0.630911
0.635255
0.63914
0.64198
0.644596
0.646563
0.648023
0.649245
0.650296
0.65125
0.65222
0.653549
0.65513
0.657533
0.660457
0.663445
0.665327
0.667061
0.669348
0.671398
0.670016
0.669267
0.667058
0.667066
0.666874
0.666823
0.667206
0.668629
0.671584
0.676889
0.68406
0.693044
0.70406
0.715658
0.727075
0.738636
0.748693
0.753719
0.7562
0.758001
0.759068
0.75929
0.759668
0.759808
0.761129
0.761192
0.760611
0.758554
0.755028
0.750857
0.746974
0.721932
0.724572
0.728774
0.73392
0.739641
0.743834
0.744532
0.74015
0.733559
0.734324
0.732935
0.731424
0.729605
0.72812
0.727051
0.725718
0.7247
0.727179
0.7284
0.723589
0.714441
0.701643
0.685892
0.667522
0.647966
0.623898
0.599232
0.577823
0.561993
0.552096
0.5454
0.542117
0.540826
0.541622
0.545171
0.549851
0.554992
0.55994
0.563998
0.56636
0.567457
0.568232
0.571551
0.569233
0.559541
0.556676
0.554612
0.553751
0.554103
0.555817
0.558514
0.562448
0.567425
0.572999
0.578291
0.584456
0.591396
0.597653
0.603427
0.609452
0.61457
0.619335
0.623683
0.627932
0.631845
0.635265
0.638331
0.640998
0.643292
0.645377
0.647256
0.649104
0.651045
0.652625
0.654712
0.65729
0.660246
0.663097
0.664805
0.667704
0.670847
0.672897
0.671514
0.673346
0.674381
0.675402
0.675918
0.676582
0.678051
0.680522
0.684691
0.690446
0.697659
0.705691
0.714392
0.723683
0.733606
0.742853
0.748639
0.751309
0.753589
0.755764
0.757246
0.757936
0.758427
0.758906
0.760167
0.760511
0.760108
0.758353
0.755034
0.750878
0.746823
0.723158
0.724917
0.727658
0.731088
0.733914
0.734565
0.730966
0.724148
0.724799
0.724742
0.723729
0.722261
0.719911
0.718068
0.716371
0.71419
0.712312
0.710955
0.709394
0.70122
0.688318
0.672002
0.652919
0.632383
0.610981
0.588375
0.569162
0.554662
0.542629
0.536302
0.531672
0.529763
0.529896
0.530812
0.532344
0.535787
0.540857
0.546158
0.550769
0.554516
0.555728
0.556076
0.555982
0.555764
0.556222
0.551755
0.54821
0.547772
0.547812
0.548742
0.551214
0.555104
0.559968
0.565682
0.572291
0.57866
0.584573
0.590741
0.596415
0.601957
0.606776
0.610888
0.615133
0.619077
0.622896
0.626646
0.630308
0.633813
0.63708
0.640079
0.642751
0.645172
0.647459
0.649778
0.652114
0.654742
0.65752
0.660085
0.662285
0.666051
0.669748
0.67162
0.671859
0.674895
0.677214
0.679682
0.681519
0.683194
0.685612
0.689076
0.694056
0.700402
0.707489
0.714785
0.722374
0.730394
0.737961
0.743744
0.746694
0.74929
0.751972
0.754329
0.75584
0.756763
0.757426
0.758257
0.759277
0.760002
0.759665
0.758249
0.75521
0.751125
0.74688
0.72025
0.719704
0.719289
0.718723
0.717564
0.712155
0.7058
0.710554
0.712332
0.711479
0.710301
0.708626
0.706006
0.704219
0.701852
0.698351
0.696081
0.689664
0.687096
0.676203
0.66045
0.641976
0.621693
0.601029
0.580588
0.563115
0.549569
0.539202
0.533169
0.528378
0.524983
0.523348
0.522838
0.523158
0.525197
0.527862
0.531719
0.536642
0.541457
0.545649
0.54807
0.548572
0.547944
0.54779
0.546876
0.545319
0.545466
0.544069
0.542879
0.543984
0.547034
0.551091
0.555677
0.560524
0.566063
0.572234
0.578846
0.583911
0.589126
0.594069
0.59785
0.60183
0.605559
0.608922
0.612653
0.616698
0.621088
0.625617
0.629984
0.633893
0.637248
0.640016
0.64237
0.644675
0.647102
0.64974
0.652252
0.654557
0.656785
0.660539
0.664737
0.667271
0.668979
0.673527
0.677419
0.681077
0.684289
0.687279
0.690689
0.695087
0.700792
0.707574
0.714724
0.721848
0.728775
0.734857
0.739325
0.742699
0.745537
0.74858
0.750955
0.753195
0.754878
0.755831
0.756657
0.757695
0.758408
0.759519
0.759373
0.758096
0.755393
0.751493
0.747064
0.710164
0.705952
0.701287
0.695972
0.689139
0.686233
0.693396
0.694887
0.694464
0.69379
0.692473
0.690966
0.688912
0.68638
0.683773
0.680003
0.676863
0.668787
0.664013
0.650651
0.633847
0.614824
0.594899
0.575724
0.5594
0.54731
0.535008
0.528984
0.524131
0.520401
0.518154
0.517345
0.51755
0.518648
0.520523
0.52275
0.526172
0.529939
0.534622
0.539081
0.54273
0.543895
0.543684
0.542878
0.541711
0.54047
0.539614
0.539576
0.541173
0.54224
0.54396
0.547126
0.551552
0.556936
0.56237
0.566951
0.571974
0.576834
0.581436
0.585435
0.588903
0.592144
0.595248
0.598388
0.601867
0.606223
0.611537
0.617311
0.622852
0.627528
0.631209
0.634007
0.636114
0.637971
0.639943
0.642225
0.644791
0.646686
0.649015
0.652406
0.657114
0.660678
0.664165
0.669337
0.675263
0.680527
0.685249
0.689674
0.69421
0.699509
0.705875
0.71303
0.720392
0.727284
0.732878
0.736317
0.739862
0.742631
0.746096
0.747999
0.750487
0.752442
0.753831
0.754842
0.755717
0.756773
0.757846
0.758689
0.758929
0.757817
0.755313
0.751633
0.74719
0.690209
0.681882
0.674586
0.670912
0.673018
0.675722
0.675148
0.674114
0.672995
0.671783
0.670663
0.669911
0.668645
0.666376
0.663554
0.660518
0.656374
0.648126
0.640703
0.627875
0.610068
0.591586
0.573198
0.556236
0.542718
0.533257
0.52426
0.519091
0.515253
0.512404
0.511072
0.510988
0.512035
0.513978
0.516406
0.519037
0.521886
0.525342
0.528903
0.533303
0.538017
0.540412
0.540583
0.539997
0.53889
0.537611
0.536785
0.536228
0.536699
0.537595
0.539305
0.542224
0.546256
0.551019
0.556041
0.560803
0.565442
0.569755
0.573612
0.576861
0.57956
0.582079
0.584732
0.587768
0.591407
0.596317
0.602559
0.609377
0.616015
0.621309
0.62508
0.627523
0.628937
0.629946
0.631095
0.632794
0.635158
0.637022
0.639259
0.642796
0.647697
0.652738
0.657903
0.663501
0.67143
0.678593
0.685083
0.690986
0.696795
0.703029
0.710002
0.717489
0.724824
0.730857
0.733921
0.737367
0.741735
0.743826
0.746761
0.74832
0.750069
0.751583
0.752742
0.753642
0.7545
0.755498
0.756686
0.757397
0.757866
0.757063
0.754937
0.751153
0.747074
0.675377
0.670863
0.667288
0.664232
0.659826
0.656861
0.653675
0.650642
0.648688
0.647205
0.646939
0.647492
0.647371
0.645928
0.643441
0.640611
0.636201
0.629264
0.617501
0.607326
0.590609
0.5729
0.555892
0.541128
0.529702
0.522042
0.514767
0.510426
0.506931
0.504796
0.504064
0.50469
0.506536
0.509164
0.512155
0.515309
0.518415
0.521394
0.524685
0.527807
0.532596
0.537152
0.538105
0.538212
0.537311
0.536189
0.534981
0.53465
0.53456
0.534544
0.535641
0.537952
0.541623
0.546081
0.55066
0.555166
0.559264
0.562926
0.566029
0.568544
0.570425
0.57231
0.574724
0.578213
0.582637
0.588397
0.595646
0.603047
0.609272
0.614658
0.618399
0.620578
0.621106
0.620935
0.620993
0.621899
0.623882
0.62664
0.629168
0.632228
0.637284
0.644219
0.650994
0.657929
0.666566
0.675562
0.683827
0.691354
0.698526
0.705791
0.713486
0.721149
0.727774
0.731898
0.735695
0.739878
0.742643
0.745444
0.747585
0.748677
0.749861
0.750965
0.751861
0.752568
0.753056
0.753918
0.754924
0.755647
0.755874
0.755618
0.753698
0.750296
0.745871
0.668198
0.66058
0.654322
0.648366
0.64209
0.63626
0.631137
0.627014
0.624899
0.624052
0.624785
0.626399
0.627068
0.626478
0.624506
0.62215
0.616742
0.611009
0.600211
0.590119
0.57474
0.558047
0.542421
0.529162
0.518887
0.511996
0.50581
0.5023
0.499592
0.497662
0.497353
0.498674
0.501179
0.504329
0.507778
0.511306
0.514764
0.517947
0.520875
0.52347
0.527092
0.531825
0.535536
0.536099
0.535566
0.534698
0.533851
0.532973
0.532248
0.532676
0.534143
0.535648
0.538207
0.541846
0.546197
0.549952
0.553687
0.556634
0.559246
0.561082
0.562086
0.563699
0.565841
0.57109
0.576307
0.583037
0.590414
0.597648
0.603969
0.609251
0.612104
0.612638
0.612518
0.611089
0.610141
0.610258
0.612027
0.61544
0.619579
0.6238
0.629204
0.636573
0.644757
0.653299
0.661733
0.671779
0.681525
0.690619
0.699149
0.707613
0.715926
0.723448
0.728433
0.733952
0.737887
0.741785
0.74483
0.747144
0.748117
0.748619
0.749277
0.749938
0.750375
0.750772
0.751605
0.752416
0.75311
0.753339
0.753396
0.752873
0.751541
0.748683
0.74436
0.655985
0.647262
0.639086
0.630772
0.62291
0.616109
0.610787
0.606805
0.604613
0.604488
0.605844
0.608058
0.6091
0.608974
0.607265
0.604521
0.600298
0.594455
0.58573
0.574938
0.562546
0.547105
0.532166
0.519785
0.510032
0.503126
0.498121
0.494735
0.492248
0.490577
0.490938
0.492861
0.495957
0.499565
0.503344
0.507111
0.510756
0.514153
0.51733
0.520052
0.522678
0.526322
0.530734
0.532601
0.533207
0.532828
0.532032
0.531383
0.531164
0.531222
0.531541
0.53313
0.535719
0.538607
0.541986
0.5456
0.548596
0.551368
0.553146
0.554117
0.555282
0.556857
0.56
0.565257
0.572266
0.580193
0.587808
0.594386
0.599636
0.603688
0.606161
0.606423
0.60319
0.599904
0.59857
0.598373
0.600233
0.60421
0.610149
0.616435
0.62321
0.630191
0.640007
0.648953
0.658058
0.667684
0.678122
0.688512
0.698343
0.70785
0.716325
0.723671
0.729802
0.735616
0.74024
0.743846
0.746692
0.748593
0.747933
0.748346
0.748673
0.748937
0.749069
0.749252
0.749557
0.74983
0.75031
0.750991
0.750596
0.749799
0.748146
0.745753
0.742554
0.642529
0.632336
0.622231
0.613188
0.605356
0.599006
0.594322
0.590974
0.589106
0.589282
0.590624
0.592857
0.593984
0.594026
0.592552
0.589757
0.586025
0.580182
0.573407
0.56328
0.553232
0.53961