/*--------------------------------*- C++ -*----------------------------------*\
  =========                 |
  \\      /  F ield         | OpenFOAM: The Open Source CFD Toolbox
   \\    /   O peration     | Website:  https://openfoam.org
    \\  /    A nd           | Version:  10
     \\/     M anipulation  |
\*---------------------------------------------------------------------------*/
FoamFile
{
    format      ascii;
    class       volScalarField;
    location    "0.801585";
    object      rho;
}
// * * * * * * * * * * * * * * * * * * * * * * * * * * * * * * * * * * * * * //

dimensions      [1 -3 0 0 0 0 0];

internalField   nonuniform List<scalar> 
16320
(
0.389137
0.358936
0.322986
0.281267
0.242839
0.219106
0.210187
0.207943
0.209306
0.231275
0.319258
0.477736
0.510966
0.489288
0.396943
0.273613
0.200802
0.184502
0.181462
0.181863
0.184083
0.187345
0.191235
0.196042
0.201455
0.20882
0.217068
0.229421
0.246437
0.267199
0.295328
0.332559
0.376429
0.429771
0.493323
0.56377
0.645233
0.731147
0.827089
0.906214
0.98661
1.0555
1.09807
1.13617
1.16867
1.20851
1.24913
1.27503
1.2695
1.23605
1.20308
1.17463
1.13284
1.0086
0.79122
0.624488
0.548728
0.474424
0.363664
0.275054
0.243114
0.24441
0.272461
0.299336
0.294706
0.265075
0.257179
0.269894
0.308233
0.358134
0.431544
0.510653
0.563091
0.586619
0.582743
0.565197
0.507215
0.37525
0.229099
0.172912
0.164232
0.175632
0.231964
0.341706
0.493434
0.636705
0.745339
0.808449
0.826403
0.814315
0.806777
0.814684
0.82758
0.823397
0.798045
0.797396
0.810933
0.810519
0.719599
0.601965
0.622878
0.694607
0.717171
0.619721
0.396951
0.345121
0.37972
0.645239
0.787824
0.821018
0.817216
0.732055
0.668112
0.400487
0.371288
0.337076
0.298354
0.261466
0.229976
0.213569
0.207505
0.205827
0.210247
0.240842
0.375797
0.499226
0.499063
0.442676
0.320771
0.226585
0.189039
0.181942
0.179721
0.179885
0.180834
0.182275
0.184095
0.186579
0.189976
0.194072
0.19979
0.20776
0.217975
0.231341
0.25032
0.273742
0.307028
0.354947
0.417456
0.503721
0.605028
0.725949
0.837824
0.949829
1.04046
1.09835
1.14054
1.18552
1.22205
1.26277
1.28911
1.29286
1.26549
1.24191
1.21042
1.1993
1.11455
0.948874
0.769558
0.666968
0.538529
0.383974
0.281641
0.25038
0.253711
0.285946
0.30387
0.292312
0.260516
0.258443
0.275965
0.303402
0.348941
0.4215
0.497991
0.549498
0.570293
0.564661
0.545546
0.489289
0.369426
0.233156
0.175098
0.160211
0.161155
0.183052
0.261307
0.390451
0.536975
0.664618
0.746657
0.784402
0.784613
0.776071
0.774656
0.79711
0.808121
0.805003
0.791925
0.800744
0.812405
0.791442
0.684054
0.6576
0.704631
0.759181
0.718729
0.514924
0.355274
0.354344
0.58063
0.757758
0.788967
0.779643
0.69889
0.649009
0.403087
0.374179
0.341583
0.305331
0.270927
0.243991
0.225775
0.215739
0.208956
0.208809
0.224346
0.301295
0.456149
0.498851
0.456256
0.354837
0.250697
0.199307
0.18328
0.179201
0.178104
0.178124
0.178724
0.179725
0.181028
0.183029
0.18571
0.189194
0.19373
0.199501
0.206745
0.217088
0.229267
0.246032
0.270376
0.302153
0.350457
0.420618
0.53071
0.669222
0.826362
0.970749
1.05907
1.14787
1.18359
1.23312
1.27293
1.31217
1.31636
1.29685
1.27
1.25957
1.23738
1.19755
1.06673
0.919874
0.776264
0.582103
0.390982
0.28313
0.25664
0.263712
0.298837
0.306583
0.286101
0.258124
0.260018
0.280044
0.301626
0.342522
0.407219
0.475348
0.526729
0.54775
0.541675
0.520325
0.462324
0.355959
0.234986
0.178614
0.159816
0.156662
0.161377
0.197253
0.302417
0.436272
0.575367
0.677657
0.731005
0.745633
0.738972
0.736289
0.750802
0.784834
0.79255
0.794158
0.794778
0.809
0.815221
0.766982
0.7106
0.737937
0.78734
0.787712
0.615692
0.384741
0.342039
0.515813
0.737132
0.767944
0.742463
0.654209
0.623447
0.402884
0.374683
0.343446
0.308788
0.276692
0.254048
0.242655
0.228977
0.216669
0.21471
0.227607
0.299712
0.433391
0.49239
0.457193
0.366638
0.26982
0.206237
0.184153
0.178737
0.1772
0.176997
0.177302
0.178056
0.179101
0.180633
0.182705
0.185344
0.188525
0.192409
0.197204
0.203799
0.211505
0.22201
0.236581
0.255093
0.283269
0.321462
0.382374
0.469764
0.608356
0.792563
0.964471
1.06321
1.18116
1.22917
1.29567
1.32447
1.34863
1.33078
1.31589
1.30145
1.29109
1.25107
1.17417
1.01117
0.842307
0.596443
0.380597
0.279927
0.262498
0.276339
0.308946
0.307356
0.277089
0.256389
0.26108
0.280895
0.300843
0.331303
0.375825
0.430657
0.485242
0.516498
0.515934
0.497504
0.449575
0.357582
0.244754
0.186423
0.162942
0.156424
0.156792
0.167637
0.230349
0.349843
0.489108
0.607177
0.676847
0.701589
0.697879
0.694482
0.700724
0.738947
0.774004
0.784813
0.793242
0.805465
0.822906
0.817494
0.777997
0.801449
0.840488
0.830405
0.690306
0.442554
0.343653
0.457193
0.721346
0.755928
0.707559
0.611297
0.592382
0.398493
0.372824
0.345335
0.314583
0.289166
0.273133
0.262811
0.245067
0.23132
0.228562
0.239858
0.317523
0.432767
0.474742
0.454408
0.366223
0.271701
0.206622
0.184321
0.178354
0.176883
0.17672
0.176932
0.177487
0.178321
0.179499
0.181113
0.18306
0.185316
0.188124
0.191634
0.196288
0.201962
0.209518
0.219494
0.232374
0.251327
0.276217
0.314106
0.368748
0.452339
0.580937
0.744055
0.926249
1.06052
1.19943
1.26596
1.34737
1.36848
1.37752
1.35631
1.36278
1.33763
1.31888
1.2149
1.09684
0.848579
0.583282
0.355466
0.275637
0.268603
0.291876
0.315029
0.306073
0.267466
0.25457
0.262015
0.282649
0.298672
0.309063
0.323582
0.35867
0.417112
0.469792
0.488861
0.480029
0.448087
0.372724
0.266641
0.202251
0.171699
0.159556
0.157669
0.161423
0.189677
0.287322
0.417258
0.541855
0.626421
0.663482
0.665406
0.658261
0.659153
0.68278
0.742219
0.772516
0.790189
0.804897
0.826443
0.838607
0.830555
0.856518
0.881722
0.858542
0.725556
0.489637
0.345925
0.434376
0.709181
0.748091
0.676483
0.577031
0.563768
0.392903
0.370164
0.347042
0.322828
0.308218
0.301054
0.288924
0.27142
0.259653
0.257661
0.272653
0.362705
0.434458
0.457357
0.442706
0.361114
0.269102
0.203449
0.184003
0.178983
0.177443
0.176939
0.176802
0.176973
0.177494
0.178259
0.179267
0.180539
0.182019
0.183849
0.186183
0.189283
0.1933
0.198745
0.206094
0.215946
0.229811
0.248038
0.274642
0.313128
0.369593
0.455517
0.570217
0.71565
0.876045
1.03797
1.1866
1.28755
1.37865
1.39154
1.4016
1.38959
1.40779
1.3422
1.28312
1.07832
0.867838
0.517742
0.323183
0.272909
0.275679
0.308771
0.318725
0.299669
0.258858
0.252913
0.263697
0.282573
0.288319
0.280132
0.27307
0.280588
0.328567
0.400843
0.450043
0.459697
0.444265
0.396415
0.306615
0.232313
0.19056
0.169307
0.162462
0.163411
0.178478
0.251275
0.371262
0.493626
0.585893
0.632632
0.64211
0.632917
0.628652
0.637829
0.689164
0.751254
0.783033
0.807858
0.832294
0.849985
0.864967
0.892888
0.908659
0.877822
0.749533
0.518294
0.353603
0.422082
0.699991
0.742283
0.649122
0.555176
0.547087
0.392697
0.370589
0.348603
0.331679
0.328268
0.327573
0.327566
0.320794
0.312891
0.312607
0.340762
0.403537
0.434842
0.445728
0.424501
0.348387
0.257193
0.199481
0.185494
0.181114
0.178296
0.176687
0.176333
0.176408
0.176866
0.177507
0.178247
0.179019
0.179834
0.180769
0.181917
0.183456
0.185552
0.188635
0.193209
0.200045
0.210179
0.224196
0.244166
0.272505
0.312719
0.372214
0.454127
0.562922
0.691731
0.846715
1.00688
1.16701
1.27805
1.3763
1.38197
1.39329
1.36022
1.38947
1.20814
1.10253
0.709783
0.422401
0.29207
0.272764
0.289628
0.321584
0.319429
0.286914
0.253685
0.251617
0.266008
0.27997
0.275592
0.261098
0.253298
0.252027
0.26372
0.320406
0.391986
0.430942
0.432405
0.412387
0.360612
0.285109
0.2259
0.189978
0.174285
0.171934
0.180084
0.23814
0.354944
0.472676
0.56005
0.606641
0.619688
0.615094
0.605084
0.609416
0.639975
0.721685
0.774984
0.808957
0.84027
0.861794
0.884592
0.913822
0.927936
0.889686
0.762139
0.537315
0.358922
0.419396
0.698647
0.735753
0.622012
0.542168
0.540162
0.394999
0.373193
0.352298
0.339195
0.337908
0.342217
0.356221
0.364984
0.368687
0.372331
0.39059
0.418196
0.430288
0.43189
0.396455
0.32223
0.242517
0.20082
0.188261
0.183283
0.178412
0.176702
0.176467
0.176634
0.177147
0.177839
0.178564
0.179219
0.179814
0.180384
0.181008
0.181676
0.182395
0.183391
0.18489
0.187843
0.193244
0.202321
0.216702
0.237302
0.265803
0.306908
0.364276
0.443637
0.542528
0.67387
0.823294
0.976542
1.14472
1.2302
1.2781
1.25915
1.29063
1.15558
1.16363
0.811171
0.540548
0.327079
0.273649
0.276185
0.310787
0.328274
0.3171
0.272195
0.249837
0.250791
0.268054
0.270444
0.265738
0.25519
0.249617
0.247839
0.248428
0.263964
0.324788
0.387319
0.415358
0.412789
0.392543
0.347566
0.281596
0.224586
0.195726
0.188574
0.191867
0.236988
0.352362
0.468908
0.550381
0.592651
0.604403
0.60145
0.58791
0.589009
0.607967
0.682773
0.763619
0.809494
0.847513
0.872905
0.90152
0.929531
0.93641
0.878212
0.757055
0.544872
0.365328
0.422694
0.702277
0.727281
0.597172
0.535474
0.539713
0.401007
0.379662
0.359935
0.344585
0.34303
0.34918
0.368712
0.383912
0.390669
0.395996
0.404552
0.413649
0.417535
0.403929
0.363519
0.299247
0.239073
0.20473
0.193448
0.183144
0.179065
0.177865
0.177654
0.177933
0.178673
0.179921
0.181389
0.182845
0.184626
0.186195
0.186166
0.185687
0.184704
0.183844
0.183704
0.184039
0.185256
0.188001
0.194954
0.20758
0.226528
0.25386
0.292181
0.346376
0.416272
0.512936
0.63045
0.764006
0.895601
1.01142
1.02398
1.05173
0.960846
0.983477
0.741487
0.557349
0.349297
0.276168
0.269574
0.29286
0.328378
0.331037
0.308433
0.260459
0.248475
0.25156
0.263631
0.265067
0.261553
0.25445
0.250387
0.248602
0.24793
0.250895
0.274352
0.338192
0.388975
0.406941
0.40142
0.381292
0.339302
0.270084
0.22568
0.213646
0.215442
0.253957
0.365916
0.477008
0.55154
0.585591
0.594838
0.592969
0.578998
0.576156
0.590504
0.64825
0.74972
0.812012
0.855023
0.883843
0.913361
0.93888
0.933432
0.854555
0.744505
0.530773
0.370648
0.434488
0.708078
0.715085
0.577128
0.532657
0.539387
0.413269
0.390138
0.370041
0.349481
0.345393
0.351765
0.373569
0.391048
0.397199
0.40092
0.403053
0.403176
0.397429
0.37785
0.339418
0.288804
0.243853
0.213581
0.194357
0.18524
0.182485
0.182083
0.182739
0.185253
0.190916
0.205409
0.264533
0.317016
0.340613
0.349981
0.345091
0.320944
0.282411
0.237682
0.205765
0.19232
0.186891
0.185698
0.186075
0.189406
0.19844
0.214509
0.237948
0.27136
0.315345
0.375947
0.450726
0.539106
0.629784
0.700799
0.723763
0.698339
0.68592
0.568956
0.454641
0.330922
0.272766
0.263491
0.278027
0.319593
0.337875
0.331356
0.292548
0.255046
0.248983
0.252819
0.260969
0.26136
0.259229
0.25543
0.252562
0.250914
0.2502
0.25111
0.258546
0.296417
0.356282
0.394207
0.402397
0.394038
0.367593
0.307823
0.25611
0.243609
0.249051
0.308782
0.425131
0.516155
0.563112
0.582485
0.586236
0.584383
0.571814
0.56751
0.580322
0.624042
0.733737
0.812352
0.859787
0.892102
0.919534
0.936644
0.905405
0.822465
0.723586
0.498208
0.374943
0.460402
0.719591
0.698849
0.563069
0.531947
0.537548
0.433414
0.407258
0.385063
0.359579
0.342659
0.341096
0.355225
0.386563
0.399736
0.404782
0.405083
0.398807
0.385456
0.362504
0.329776
0.290074
0.250901
0.218403
0.198529
0.193467
0.193978
0.200496
0.222692
0.32255
0.449304
0.551787
0.646937
0.667161
0.655006
0.597819
0.550365
0.526707
0.501146
0.466102
0.400457
0.317833
0.242359
0.199566
0.187578
0.185388
0.185928
0.1911
0.202714
0.220407
0.244364
0.275949
0.31391
0.358681
0.40336
0.431039
0.433735
0.422844
0.388704
0.337166
0.288367
0.260761
0.257051
0.268419
0.307182
0.337826
0.34256
0.327043
0.278699
0.254368
0.251496
0.25492
0.260329
0.260903
0.259673
0.257556
0.256301
0.255577
0.254834
0.25527
0.257823
0.274214
0.325692
0.375045
0.398213
0.39661
0.379744
0.326332
0.280874
0.2738
0.29016
0.39382
0.495947
0.548697
0.573369
0.579239
0.57843
0.576272
0.565755
0.562644
0.575285
0.613615
0.724906
0.816155
0.867099
0.900161
0.92039
0.921442
0.856091
0.797892
0.696091
0.464388
0.37917
0.490966
0.732494
0.678017
0.553174
0.530491
0.532264
0.466027
0.43599
0.409487
0.38548
0.354334
0.33701
0.335526
0.348847
0.387073
0.400859
0.405563
0.401156
0.386366
0.362194
0.330161
0.293503
0.254275
0.221206
0.211797
0.214221
0.245864
0.380677
0.554333
0.683106
0.739714
0.751026
0.707536
0.6485
0.569156
0.495277
0.465897
0.45751
0.457009
0.461345
0.458531
0.443064
0.395855
0.30928
0.225994
0.19206
0.184593
0.183608
0.185749
0.192479
0.203175
0.217321
0.233844
0.252658
0.270257
0.278935
0.2792
0.274602
0.263642
0.251256
0.246738
0.250429
0.263147
0.296791
0.332537
0.348593
0.345845
0.318966
0.272845
0.258637
0.257249
0.259178
0.261776
0.262265
0.261614
0.261822
0.263607
0.265115
0.264509
0.263442
0.263292
0.26846
0.299852
0.353709
0.389543
0.395009
0.382831
0.334911
0.304578
0.305134
0.353
0.468639
0.536273
0.565169
0.572502
0.572894
0.572078
0.571367
0.566026
0.563582
0.576329
0.612199
0.723854
0.823231
0.875197
0.904122
0.917091
0.893035
0.816949
0.775168
0.650894
0.427737
0.386069
0.529239
0.738187
0.656433
0.546442
0.527305
0.524645
0.51217
0.483126
0.449163
0.419121
0.397293
0.359964
0.33024
0.325732
0.32729
0.36342
0.385804
0.391538
0.384926
0.363421
0.332113
0.294047
0.250964
0.23287
0.23553
0.294235
0.495505
0.676619
0.76275
0.783539
0.752224
0.667064
0.520534
0.421408
0.376157
0.356289
0.348956
0.345917
0.347273
0.358554
0.384526
0.422016
0.432532
0.415549
0.350081
0.255253
0.196669
0.183898
0.182351
0.183357
0.187119
0.194014
0.202067
0.210548
0.218173
0.22264
0.225706
0.227976
0.231199
0.237047
0.246623
0.261567
0.290968
0.325926
0.349535
0.355752
0.348061
0.311935
0.276231
0.265978
0.264134
0.263699
0.264208
0.264553
0.266558
0.270761
0.276434
0.278898
0.278088
0.274657
0.270734
0.271468
0.288397
0.343804
0.384774
0.39224
0.380054
0.339156
0.329164
0.347798
0.453805
0.533348
0.56311
0.570294
0.57213
0.576537
0.577285
0.577398
0.574401
0.57022
0.58261
0.617713
0.731705
0.833439
0.882698
0.909488
0.90846
0.840966
0.795007
0.749109
0.576691
0.412169
0.399272
0.582614
0.739261
0.632297
0.536016
0.517828
0.513
0.559085
0.551291
0.517856
0.474362
0.436535
0.416868
0.390217
0.343463
0.307563
0.300431
0.304652
0.332305
0.341994
0.338869
0.316483
0.279703
0.249727
0.246572
0.291904
0.492553
0.697405
0.777775
0.788632
0.743087
0.604658
0.457813
0.406305
0.377779
0.368823
0.369781
0.384748
0.385099
0.374727
0.358014
0.352873
0.364416
0.404017
0.432888
0.424853
0.372251
0.277803
0.202675
0.186076
0.183931
0.185613
0.190912
0.197474
0.203961
0.209776
0.214386
0.219471
0.225413
0.233468
0.246947
0.267484
0.29243
0.321618
0.347643
0.360913
0.362129
0.35002
0.310948
0.283785
0.272172
0.268594
0.268005
0.268514
0.271722
0.279311
0.288794
0.294929
0.29514
0.292178
0.281253
0.275322
0.275635
0.290553
0.347121
0.388692
0.392301
0.373415
0.350346
0.357348
0.438748
0.53542
0.569392
0.576988
0.577549
0.58256
0.589695
0.590623
0.590554
0.587052
0.580795
0.59378
0.638923
0.762819
0.850194
0.892862
0.910915
0.87354
0.799826
0.781559
0.69928
0.480425
0.410228
0.419774
0.643872
0.73439
0.615837
0.529591
0.500295
0.49218
0.592729
0.608224
0.61
0.586376
0.521467
0.45531
0.431433
0.41739
0.392095
0.346774
0.281282
0.258145
0.257241
0.259714
0.256162
0.247952
0.246767
0.273881
0.409637
0.650961
0.768771
0.789011
0.74786
0.61215
0.483249
0.419693
0.390393
0.38316
0.397182
0.449116
0.476683
0.477443
0.468192
0.440733
0.39958
0.385235
0.400699
0.44758
0.475692
0.466571
0.40378
0.293264
0.221437
0.201108
0.196147
0.198721
0.204733
0.211817
0.218704
0.225619
0.23398
0.245912
0.262123
0.281462
0.300827
0.32236
0.345816
0.361966
0.368554
0.367506
0.350733
0.312236
0.286326
0.274359
0.271513
0.272628
0.277967
0.29066
0.305023
0.314248
0.31526
0.312309
0.300493
0.28433
0.278843
0.280077
0.298351
0.360395
0.396528
0.394393
0.374859
0.373902
0.418236
0.542307
0.583175
0.589682
0.589142
0.592929
0.608792
0.622616
0.622254
0.61821
0.604606
0.594988
0.611634
0.676604
0.802168
0.868139
0.901381
0.895948
0.81656
0.785706
0.755817
0.599381
0.445217
0.412266
0.454677
0.69772
0.723946
0.598891
0.528377
0.470975
0.451474
0.634169
0.646674
0.689066
0.7008
0.682856
0.590677
0.476566
0.440796
0.427801
0.416052
0.387794
0.314881
0.250517
0.236334
0.234052
0.236926
0.256569
0.327972
0.551687
0.742796
0.795406
0.786633
0.693555
0.558348
0.457428
0.408016
0.395898
0.40389
0.45287
0.497968
0.5118
0.516008
0.514616
0.513384
0.507286
0.493502
0.48173
0.501822
0.531404
0.527851
0.491027
0.398713
0.304709
0.261153
0.241711
0.23582
0.236864
0.242391
0.250478
0.260209
0.271077
0.283641
0.297801
0.311933
0.326908
0.345083
0.361073
0.370201
0.373643
0.369894
0.347449
0.30683
0.282331
0.274871
0.276546
0.284772
0.304573
0.3262
0.338401
0.339416
0.336512
0.326536
0.303864
0.287506
0.283649
0.287295
0.317701
0.384201
0.405311
0.396029
0.382982
0.409248
0.542036
0.60132
0.607299
0.605169
0.611145
0.640686
0.685735
0.691567
0.67772
0.652615
0.617874
0.611165
0.639446
0.738945
0.838917
0.88489
0.89803
0.84136
0.789175
0.779056
0.677149
0.489785
0.438466
0.426286
0.511007
0.721446
0.711446
0.594296
0.536134
0.4533
0.403777
0.751336
0.714605
0.733949
0.790939
0.812121
0.790178
0.668632
0.492035
0.440292
0.429272
0.427489
0.412805
0.331145
0.249763
0.237535
0.24176
0.279411
0.42189
0.671739
0.804117
0.8258
0.788958
0.680581
0.549505
0.45118
0.420833
0.421139
0.471509
0.540151
0.562303
0.563082
0.555745
0.538923
0.52622
0.520339
0.528484
0.534026
0.544684
0.545761
0.54032
0.519532
0.459147
0.377649
0.33078
0.303537
0.290152
0.282945
0.281835
0.284716
0.290918
0.299574
0.309618
0.320996
0.332372
0.345682
0.359663
0.369518
0.37516
0.375699
0.365667
0.330386
0.2902
0.277296
0.27959
0.291237
0.321526
0.350661
0.365582
0.366478
0.364605
0.356975
0.335841
0.308136
0.294323
0.29321
0.302708
0.355153
0.412192
0.412549
0.399994
0.409004
0.518912
0.624191
0.629014
0.624287
0.631884
0.67946
0.745279
0.751546
0.736452
0.706843
0.654698
0.62686
0.636796
0.696719
0.808378
0.864074
0.89065
0.856317
0.793335
0.782505
0.722416
0.532291
0.469001
0.441701
0.446337
0.582122
0.730406
0.698325
0.596879
0.546762
0.453515
0.388837
0.926797
0.856309
0.833027
0.853585
0.908074
0.931518
0.891369
0.7179
0.481297
0.422655
0.422235
0.43795
0.4173
0.311294
0.252902
0.256157
0.319679
0.531421
0.760931
0.848623
0.855552
0.805688
0.693377
0.558459
0.483408
0.475196
0.54756
0.747999
0.885356
0.935809
0.937998
0.908926
0.79946
0.665043
0.568499
0.523786
0.508021
0.502835
0.515161
0.51733
0.509292
0.47795
0.425862
0.389831
0.367289
0.349099
0.335439
0.327021
0.322536
0.322449
0.32563
0.331246
0.338935
0.348472
0.359291
0.368697
0.374695
0.376278
0.370787
0.345336
0.295764
0.278152
0.281253
0.297066
0.339297
0.374028
0.39179
0.398555
0.401004
0.398169
0.384723
0.353686
0.323138
0.310475
0.311882
0.334373
0.406568
0.429164
0.417863
0.410015
0.461261
0.633245
0.655778
0.643269
0.649164
0.714063
0.788151
0.79583
0.782009
0.740947
0.684819
0.651963
0.65448
0.693482
0.790556
0.847621
0.878379
0.857236
0.796365
0.783419
0.746912
0.565453
0.495704
0.472793
0.463189
0.471502
0.648139
0.734095
0.690114
0.608375
0.562159
0.468133
0.391859
1.0084
0.991402
0.960391
0.957171
0.989962
1.0244
1.03063
0.91385
0.64462
0.432271
0.406917
0.428418
0.44708
0.392878
0.289948
0.280071
0.360545
0.618726
0.834785
0.904072
0.906981
0.860537
0.751036
0.633204
0.607683
0.669065
0.897335
1.20072
1.34723
1.39636
1.40601
1.39508
1.35373
1.24064
1.07241
0.857231
0.646303
0.521142
0.481077
0.470099
0.471046
0.467259
0.448201
0.425236
0.411408
0.395066
0.380035
0.368048
0.358983
0.353279
0.351522
0.352877
0.356594
0.362363
0.368657
0.372914
0.373774
0.369646
0.348602
0.29885
0.278513
0.281379
0.303434
0.353912
0.392112
0.414241
0.434192
0.450584
0.454595
0.449422
0.430737
0.390751
0.351539
0.33861
0.344567
0.390115
0.438936
0.437659
0.420559
0.441451
0.599149
0.690124
0.667401
0.65884
0.724516
0.820919
0.8317
0.817356
0.765933
0.718633
0.688607
0.688282
0.721222
0.793826
0.836746
0.862897
0.851287
0.797938
0.787184
0.756504
0.593089
0.509878
0.507567
0.496687
0.474764
0.514224
0.683496
0.735873
0.688838
0.622447
0.583227
0.495532
0.409837
1.01748
1.04437
1.04774
1.05205
1.07368
1.10515
1.11609
1.02518
0.757252
0.457123
0.401344
0.409599
0.446851
0.439615
0.335561
0.307026
0.39082
0.678335
0.900738
0.973134
0.977533
0.949756
0.874604
0.829182
0.838233
0.955405
1.17965
1.33833
1.39687
1.42116
1.43674
1.45095
1.46359
1.47034
1.45366
1.37777
1.22495
1.0048
0.748231
0.520869
0.436675
0.416953
0.417859
0.422591
0.418065
0.409729
0.399487
0.389715
0.380775
0.373767
0.369032
0.366872
0.366788
0.368107
0.369285
0.369006
0.364309
0.342754
0.297318
0.279672
0.283043
0.313599
0.361
0.395404
0.433779
0.468271
0.487785
0.49894
0.506501
0.505075
0.483795
0.437953
0.394248
0.381045
0.393063
0.440883
0.454464
0.440674
0.42968
0.502448
0.690027
0.707263
0.657903
0.700274
0.83286
0.859764
0.847906
0.8036
0.764442
0.738668
0.738559
0.76367
0.808767
0.833122
0.851059
0.843105
0.799671
0.790627
0.756054
0.607508
0.518102
0.522384
0.532722
0.504362
0.489646
0.552717
0.700382
0.738851
0.692366
0.63703
0.604921
0.526099
0.434677
0.93952
1.05282
1.09158
1.10778
1.13112
1.15608
1.1604
1.06633
0.78852
0.471648
0.403041
0.399498
0.439538
0.457172
0.383296
0.33546
0.409558
0.718506
0.96877
1.06199
1.07779
1.06863
1.05085
1.0488
1.09281
1.18573
1.25664
1.26103
1.24608
1.23484
1.2422
1.2715
1.33327
1.39964
1.42965
1.43974
1.39813
1.32305
1.17803
0.987281
0.784402
0.574325
0.405535
0.37149
0.370431
0.386267
0.391352
0.386446
0.380394
0.374854
0.370063
0.366417
0.364321
0.363454
0.361656
0.353432
0.326683
0.293284
0.282861
0.287613
0.321044
0.352826
0.39341
0.447455
0.479665
0.497711
0.509724
0.519413
0.530713
0.536725
0.532339
0.504636
0.458973
0.438439
0.448543
0.468087
0.461283
0.437976
0.456192
0.613123
0.728651
0.702258
0.660025
0.798892
0.873649
0.873438
0.843073
0.811811
0.791226
0.789933
0.798952
0.821455
0.835038
0.845271
0.836952
0.80392
0.794352
0.750729
0.601183
0.520287
0.528466
0.547118
0.533049
0.513163
0.513265
0.568098
0.70751
0.74662
0.705677
0.65109
0.625227
0.559927
0.468035
0.745307
1.0095
1.09806
1.13711
1.16085
1.17699
1.16048
1.01158
0.653232
0.439613
0.405851
0.398284
0.425493
0.460173
0.42064
0.360121
0.412481
0.722148
1.01592
1.14201
1.18313
1.19204
1.19798
1.21545
1.23424
1.20659
1.14604
1.02756
0.892176
0.831523
0.80979
0.823859
0.916216
1.08918
1.24394
1.32148
1.35189
1.31591
1.22052
1.071
0.937777
0.864317
0.77571
0.597961
0.408237
0.351644
0.346264
0.349058
0.356286
0.358037
0.356672
0.353952
0.349971
0.343555
0.328607
0.306381
0.290246
0.285929
0.293477
0.321387
0.34448
0.394656
0.446791
0.474773
0.492754
0.506588
0.517384
0.528743
0.545388
0.560404
0.564344
0.557448
0.533564
0.502988
0.491345
0.482279
0.464165
0.440825
0.487564
0.664759
0.738542
0.689806
0.675609
0.843489
0.886983
0.875854
0.848891
0.829292
0.823336
0.823854
0.83094
0.838859
0.843704
0.835875
0.815036
0.79833
0.742509
0.586595
0.516156
0.527647
0.550125
0.546805
0.529992
0.520465
0.522803
0.570561
0.707603
0.753523
0.729151
0.666971
0.644069
0.596217
0.511015
0.713669
0.946493
1.08142
1.13816
1.1642
1.16131
1.06733
0.737756
0.470953
0.423909
0.409876
0.402155
0.416511
0.459888
0.444335
0.378602
0.405502
0.697293
1.03346
1.19855
1.25288
1.26226
1.25204
1.22272
1.17071
1.05579
0.877442
0.670609
0.519586
0.472352
0.457765
0.456335
0.4971
0.620254
0.83925
1.02762
1.14114
1.18509
1.16493
0.981925
0.838259
0.830867
0.832272
0.814404
0.70977
0.486424
0.357909
0.331371
0.316977
0.31279
0.312358
0.311011
0.306305
0.299599
0.293326
0.289569
0.289767
0.30188
0.323789
0.342024
0.390126
0.438407
0.463568
0.479407
0.494809
0.509293
0.523288
0.538625
0.555636
0.569681
0.577182
0.580331
0.574654
0.558614
0.526232
0.502996
0.468499
0.45552
0.513062
0.679356
0.735032
0.686879
0.696535
0.85513
0.891769
0.879799
0.855857
0.845263
0.840892
0.841657
0.845093
0.847371
0.841962
0.831133
0.807047
0.738025
0.580952
0.512127
0.525629
0.550084
0.545284
0.532603
0.523937
0.520642
0.523738
0.559058
0.682433
0.755966
0.756299
0.688915
0.664417
0.635838
0.566639
0.783461
0.978342
1.07671
1.11139
1.11204
1.01791
0.697443
0.461428
0.426468
0.418546
0.420935
0.413078
0.413782
0.456531
0.457703
0.392979
0.396151
0.637779
1.00867
1.21668
1.27636
1.27005
1.23622
1.17388
1.04784
0.837039
0.597253
0.454713
0.415008
0.39936
0.384977
0.376016
0.374747
0.390698
0.444042
0.644062
0.844089
0.956037
0.990975
0.922809
0.693216
0.583878
0.63551
0.727752
0.768583
0.730859
0.555337
0.401012
0.336118
0.313408
0.30542
0.300751
0.297216
0.295557
0.295474
0.30051
0.315084
0.328885
0.342016
0.380866
0.424966
0.449186
0.463608
0.477507
0.494773
0.51432
0.534509
0.55182
0.563784
0.574821
0.58387
0.589054
0.591361
0.586748
0.567828
0.531374
0.482526
0.470968
0.517741
0.674981
0.720648
0.684502
0.696489
0.854084
0.894986
0.883657
0.864264
0.858347
0.854462
0.854969
0.856548
0.854427
0.844975
0.816446
0.743018
0.588789
0.511685
0.520689
0.546931
0.535419
0.513618
0.508842
0.510111
0.515154
0.520271
0.545893
0.629233
0.748005
0.775199
0.739182
0.687571
0.669415
0.628146
0.914204
0.974865
0.996683
0.96242
0.817859
0.580027
0.430129
0.418165
0.422711
0.439797
0.451722
0.434461
0.421949
0.452362
0.466857
0.405889
0.387036
0.551338
0.946929
1.18644
1.25999
1.24682
1.20473
1.10822
0.918968
0.663996
0.472124
0.420913
0.403588
0.393576
0.378745
0.361664
0.353974
0.351843
0.358745
0.391462
0.538119
0.742464
0.859054
0.894007
0.757168
0.504809
0.453188
0.499848
0.636295
0.703352
0.68261
0.591831
0.473852
0.397816
0.358457
0.339437
0.331982
0.331059
0.333202
0.335045
0.336988
0.343943
0.372711
0.410353
0.433165
0.445846
0.458977
0.476625
0.501176
0.530275
0.557986
0.574753
0.582773
0.585895
0.590812
0.594425
0.596708
0.597562
0.591251
0.567024
0.50638
0.480809
0.509966
0.647145
0.700575
0.679015
0.679977
0.8293
0.894598
0.892628
0.876348
0.873343
0.872801
0.872344
0.868006
0.855133
0.824424
0.741646
0.587293
0.506679
0.512145
0.540837
0.530022
0.484846
0.470767
0.469066
0.475323
0.494958
0.504524
0.5226
0.564563
0.696712
0.775801
0.784699
0.724666
0.693101
0.675561
0.759858
0.738835
0.64907
0.523066
0.434461
0.411975
0.413971
0.433682
0.466203
0.492985
0.494523
0.46242
0.440243
0.451604
0.47035
0.420101
0.380242
0.465862
0.837269
1.13158
1.22419
1.21589
1.17024
1.05345
0.841394
0.60147
0.45962
0.425692
0.415459
0.409566
0.394214
0.367234
0.348753
0.342045
0.340016
0.343393
0.367582
0.489148
0.701163
0.813871
0.83371
0.569649
0.416698
0.400304
0.471748
0.576273
0.639554
0.617857
0.566422
0.499694
0.45225
0.417213
0.393368
0.372065
0.357188
0.346542
0.347717
0.3674
0.398519
0.417666
0.428014
0.4392
0.456975
0.484097
0.523121
0.568884
0.607294
0.626641
0.630566
0.62232
0.612388
0.607012
0.603217
0.600966
0.597584
0.586925
0.539921
0.493946
0.493454
0.580597
0.665875
0.668118
0.652526
0.764779
0.889257
0.904191
0.893277
0.891799
0.890836
0.884473
0.868759
0.831835
0.741835
0.579782
0.494426
0.496133
0.53162
0.532941
0.474745
0.421789
0.407188
0.404944
0.416322
0.452192
0.472273
0.497801
0.52012
0.582994
0.719811
0.785109
0.790446
0.730369
0.704713
0.451609
0.419654
0.403035
0.398763
0.405102
0.42412
0.452306
0.472443
0.504583
0.517712
0.51151
0.479895
0.453963
0.456299
0.47289
0.435357
0.377502
0.403426
0.682102
1.04204
1.18187
1.18893
1.15087
1.04176
0.849867
0.627166
0.488469
0.45776
0.450428
0.446404
0.424431
0.385333
0.354786
0.34089
0.334015
0.332921
0.335178
0.35365
0.463063
0.695994
0.835883
0.763481
0.457062
0.374992
0.374032
0.412781
0.497445
0.557563
0.548136
0.510328
0.464605
0.426564
0.39775
0.372715
0.357904
0.352339
0.364409
0.388743
0.40453
0.412363
0.419224
0.434011
0.463566
0.513052
0.585978
0.656853
0.709165
0.731571
0.732545
0.708336
0.670551
0.642937
0.625138
0.61193
0.602208
0.593701
0.576046
0.509595
0.48555
0.512694
0.610478
0.648635
0.635502
0.676253
0.855498
0.904319
0.907279
0.90286
0.899865
0.886526
0.847933
0.75574
0.586388
0.482598
0.476777
0.517799
0.534912
0.495891
0.406009
0.349474
0.33357
0.331018
0.341886
0.378769
0.413622
0.451376
0.477853
0.512085
0.585995
0.727036
0.795514
0.803299
0.745982
0.387099
0.393224
0.408532
0.429769
0.45071
0.460578
0.464284
0.480314
0.513818
0.524944
0.517238
0.486834
0.463535
0.462278
0.474269
0.453142
0.3797
0.371078
0.519855
0.901756
1.12235
1.16189
1.13959
1.06378
0.907653
0.717667
0.566052
0.518535
0.506574
0.49572
0.451939
0.399743
0.363067
0.346447
0.333335
0.329253
0.328998
0.33058
0.344805
0.458959
0.736851
0.828733
0.671042
0.426774
0.360552
0.353592
0.362424
0.398267
0.437217
0.447171
0.432234
0.400992
0.376773
0.361678
0.356778
0.36401
0.381953
0.393922
0.399569
0.403411
0.409026
0.434991
0.49826
0.607681
0.69426
0.737898
0.761545
0.779819
0.800343
0.810746
0.789182
0.730424
0.678774
0.646377
0.622419
0.606277
0.592188
0.553416
0.50071
0.492192
0.524932
0.599383
0.6138
0.616996
0.750646
0.886494
0.910022
0.908644
0.902488
0.873759
0.794092
0.624423
0.475382
0.457001
0.486623
0.528227
0.524715
0.445503
0.33981
0.300839
0.292593
0.291964
0.297203
0.311126
0.33307
0.370801
0.418598
0.458177
0.496713
0.577857
0.724684
0.80713
0.820195
0.412078
0.442836
0.471445
0.479318
0.475547
0.468056
0.465818
0.48001
0.512116
0.533712
0.532803
0.503282
0.477109
0.473019
0.479167
0.470082
0.394318
0.357438
0.405765
0.702632
1.01945
1.12658
1.12336
1.08738
0.986538
0.839122
0.703563
0.624422
0.586052
0.548961
0.493922
0.429414
0.377741
0.34975
0.335114
0.329177
0.326615
0.326369
0.328471
0.341461
0.492127
0.787426
0.798656
0.637171
0.424067
0.360795
0.343003
0.343166
0.348622
0.357718
0.360122
0.355598
0.353009
0.355739
0.362384
0.378926
0.387864
0.390001
0.389699
0.387772
0.402868
0.460602
0.589494
0.695842
0.743334
0.757116
0.765934
0.778873
0.804027
0.833678
0.854022
0.847603
0.79258
0.722556
0.674982
0.640627
0.61711
0.608169
0.544504
0.492603
0.488576
0.513515
0.576575
0.588807
0.608184
0.809094
0.900512
0.909417
0.899253
0.852636
0.72466
0.507849
0.439866
0.443016
0.498138
0.529859
0.511241
0.409568
0.30953
0.286994
0.282679
0.282735
0.287176
0.29366
0.299077
0.307774
0.328077
0.376063
0.436394
0.483335
0.55785
0.71032
0.812136
0.473404
0.503989
0.5137
0.512829
0.506419
0.485715
0.476202
0.475089
0.50124
0.532693
0.539833
0.523264
0.494337
0.487603
0.487231
0.482298
0.423725
0.356106
0.355318
0.488238
0.839284
1.05601
1.1014
1.08508
1.03751
0.944014
0.835052
0.748263
0.684492
0.625469
0.561214
0.472394
0.403157
0.361252
0.337946
0.329666
0.327377
0.326049
0.325618
0.328671
0.350474
0.594164
0.79052
0.772169
0.609578
0.433094
0.367071
0.34526