/*--------------------------------*- C++ -*----------------------------------*\
  =========                 |
  \\      /  F ield         | OpenFOAM: The Open Source CFD Toolbox
   \\    /   O peration     | Website:  https://openfoam.org
    \\  /    A nd           | Version:  10
     \\/     M anipulation  |
\*---------------------------------------------------------------------------*/
FoamFile
{
    format      ascii;
    class       volScalarField;
    location    "0.801585";
    object      T;
}
// * * * * * * * * * * * * * * * * * * * * * * * * * * * * * * * * * * * * * //

dimensions      [0 0 0 1 0 0 0];

internalField   nonuniform List<scalar> 
16320
(
0.00536093
0.00580827
0.0064522
0.00740735
0.00858114
0.00951274
0.00992448
0.0100465
0.0100044
0.00908049
0.00660546
0.00445581
0.00421895
0.00446519
0.00557097
0.00815571
0.0111957
0.0122702
0.0125591
0.0126146
0.0125445
0.0124061
0.012231
0.0120058
0.0117569
0.0114141
0.0110475
0.0105153
0.00985311
0.00915133
0.00834181
0.00746805
0.00666386
0.0058974
0.00517943
0.0045526
0.0039774
0.00349668
0.0030593
0.00273825
0.00244101
0.00219525
0.00201941
0.00186214
0.00172375
0.0015823
0.00144744
0.00134195
0.00128203
0.00126708
0.0012701
0.00129942
0.00136362
0.00159203
0.00211886
0.00291751
0.0035288
0.00424538
0.00565875
0.00756584
0.00859512
0.0085471
0.00766479
0.00693883
0.00700093
0.00771591
0.00789634
0.00746976
0.00649274
0.00553557
0.00454485
0.00379185
0.00338808
0.00320215
0.00317691
0.00323718
0.00357672
0.0048094
0.00786343
0.0104402
0.0110012
0.0102885
0.00780297
0.00529618
0.00367162
0.00284814
0.00243088
0.00223088
0.0021624
0.00216947
0.00216388
0.00212246
0.00207822
0.00209132
0.00217307
0.0022098
0.00222621
0.00229607
0.00266962
0.0032741
0.00323356
0.00298489
0.00297875
0.00355312
0.00567853
0.00664574
0.00615134
0.00366587
0.00303996
0.00293822
0.00296361
0.00331374
0.00362582
0.00522378
0.00562568
0.00618948
0.00698706
0.00796884
0.00905911
0.00975994
0.0100581
0.0101628
0.00998202
0.00875152
0.00564888
0.00431382
0.00437805
0.00500472
0.00698053
0.00996321
0.0120265
0.0125782
0.0128135
0.012882
0.0128929
0.0128676
0.0128154
0.0127187
0.0125641
0.0123701
0.0120864
0.0116948
0.0112197
0.0106428
0.00990094
0.00909871
0.008142
0.00706212
0.0060097
0.00498328
0.00415235
0.00343586
0.00292689
0.0025183
0.00222184
0.00202131
0.0018592
0.00170373
0.00157076
0.0014426
0.00134264
0.00127784
0.00125773
0.00125666
0.00127899
0.00130849
0.00146992
0.00180216
0.00242991
0.00298908
0.00383963
0.00548323
0.00753814
0.00849109
0.00836171
0.0074092
0.0069234
0.00713981
0.00793767
0.00793812
0.00738288
0.00665702
0.00573471
0.00469731
0.00392513
0.00350423
0.00332255
0.0033038
0.00337346
0.00372042
0.00489356
0.00772326
0.0102977
0.0112536
0.0111874
0.00985671
0.00690298
0.00461243
0.00334885
0.00269963
0.00239159
0.00225753
0.00223223
0.00223136
0.00221308
0.00213783
0.00210765
0.00212871
0.00219587
0.0022255
0.00226398
0.00240898
0.00287831
0.00308089
0.00295041
0.00282556
0.00307779
0.00441684
0.00649951
0.00664827
0.00410063
0.00318226
0.00307806
0.00312699
0.00349265
0.00375555
0.00520491
0.00559298
0.00611456
0.0068305
0.00769084
0.00853671
0.00922902
0.00967187
0.0100086
0.010054
0.00940404
0.00705008
0.00472278
0.00438755
0.00487034
0.0063382
0.00904933
0.0114635
0.0125453
0.012907
0.0130616
0.0131345
0.0131628
0.0131604
0.0131356
0.0130613
0.0129414
0.0127718
0.0125424
0.0122494
0.0118878
0.0113826
0.0108271
0.0101246
0.00923536
0.00826821
0.00710443
0.00586405
0.00459351
0.00360468
0.00287509
0.00237853
0.00210073
0.00186569
0.00172366
0.00157447
0.00145238
0.0013444
0.00128291
0.00125873
0.00126153
0.00127025
0.0013117
0.00139773
0.00166189
0.00210441
0.00265341
0.0036469
0.0055102
0.0076447
0.00842344
0.00816452
0.00718439
0.00694256
0.007369
0.00809822
0.00796938
0.0073462
0.00675923
0.00589782
0.00491023
0.00415462
0.00369473
0.00349553
0.00347769
0.00356563
0.00395679
0.00509423
0.00767861
0.0101052
0.011286
0.0115041
0.0111642
0.0091351
0.00594241
0.00410452
0.00309863
0.00261504
0.00240423
0.00233255
0.00232915
0.00231489
0.00225484
0.00215416
0.00214333
0.00216953
0.00222293
0.00225742
0.00232977
0.00257421
0.00287252
0.00285067
0.00275143
0.00283553
0.00372542
0.00606628
0.00694582
0.00465016
0.00329412
0.00318328
0.00330525
0.0037525
0.00393222
0.00522384
0.00559825
0.00609152
0.00676134
0.00753602
0.00820336
0.00859205
0.00912106
0.00966349
0.00979437
0.00929128
0.0071069
0.00498614
0.00446282
0.00488314
0.00616744
0.00845661
0.0111416
0.0125514
0.013003
0.013185
0.0132687
0.0133131
0.0133224
0.0133091
0.0132601
0.013173
0.0130483
0.0128906
0.0126912
0.0124401
0.0120883
0.0116889
0.0111646
0.010492
0.00972814
0.00873797
0.00765481
0.00637777
0.00510659
0.0038591
0.00290014
0.00231811
0.00203001
0.00175922
0.00161736
0.0014655
0.00136917
0.00129276
0.00126946
0.00126667
0.00128286
0.00130764
0.00140179
0.00158569
0.00199338
0.00252298
0.0036513
0.00577664
0.00786666
0.00836217
0.00790558
0.00702536
0.00699832
0.00768102
0.00823244
0.0080129
0.0073901
0.00683811
0.00615464
0.00537415
0.00463654
0.00405902
0.00375228
0.00369279
0.00376973
0.00410939
0.00510638
0.00740352
0.00971103
0.0110925
0.0115385
0.01149
0.0107306
0.00781809
0.00511515
0.00363597
0.00290632
0.00258305
0.00246659
0.00245552
0.00244509
0.0024084
0.00228094
0.00218618
0.00218566
0.00221924
0.00226372
0.00231116
0.00243005
0.00265339
0.00266398
0.00261748
0.00272857
0.00336099
0.00533805
0.00696951
0.00529253
0.00339066
0.00325554
0.00349047
0.00403957
0.00416234
0.00529977
0.00564157
0.00607082
0.00664965
0.00722424
0.00764443
0.00795037
0.00854514
0.00908005
0.009236
0.00885904
0.00674652
0.00502639
0.00465797
0.00494454
0.00621503
0.00845382
0.01119
0.0126118
0.0130989
0.0132712
0.0133457
0.013391
0.0134092
0.0134055
0.0133757
0.013314
0.0132287
0.0131222
0.0129781
0.0127872
0.0125234
0.0122011
0.011778
0.0112452
0.0106089
0.00977831
0.00885022
0.00772425
0.00650522
0.0052193
0.00397649
0.00301978
0.00234436
0.00199558
0.00169755
0.00155172
0.00140264
0.00133158
0.00128985
0.00129666
0.00129447
0.00133987
0.00139906
0.00161398
0.00190422
0.00257067
0.00380428
0.00629584
0.0081065
0.00827185
0.00757671
0.00695874
0.00709472
0.00802694
0.00836511
0.00805765
0.00740442
0.00694593
0.00665504
0.00630172
0.00562794
0.00478598
0.004183
0.00394946
0.00395877
0.00417
0.0049436
0.00683355
0.00899395
0.0105673
0.0113464
0.0114571
0.0111619
0.00947019
0.0062326
0.00426489
0.00325306
0.00278492
0.00260186
0.00256898
0.00257656
0.00256029
0.00246994
0.00228255
0.00222331
0.00223285
0.00227429
0.00231709
0.00239514
0.00252499
0.0025408
0.00254357
0.00268032
0.00324497
0.00488438
0.00698933
0.00562644
0.00347578
0.00331236
0.00367449
0.00430552
0.00439984
0.00539316
0.00570005
0.00606181
0.00650064
0.00679906
0.0069599
0.00726191
0.00775236
0.00813369
0.0082451
0.00785198
0.00596198
0.00505481
0.0048791
0.00511769
0.00635188
0.00859882
0.0114393
0.0127102
0.0131259
0.0132971
0.0133912
0.0134566
0.0134981
0.013512
0.0135068
0.0134828
0.0134379
0.0133759
0.0132857
0.0131561
0.012969
0.0127172
0.0123735
0.0119231
0.0113548
0.0106295
0.00979382
0.00877922
0.00762581
0.00638224
0.00509729
0.00398639
0.00310066
0.00244415
0.00201342
0.00170477
0.0015292
0.00139485
0.00135364
0.00133782
0.00135479
0.00135533
0.00147476
0.00160729
0.00200384
0.00258751
0.00435182
0.00701868
0.00827955
0.00813013
0.0072343
0.00693675
0.00730317
0.00836173
0.00848741
0.00807258
0.00746528
0.00725371
0.00740025
0.00753188
0.00726051
0.00615942
0.00497862
0.00435776
0.00418984
0.00426794
0.00470489
0.00598511
0.00787858
0.0095743
0.0107423
0.0111634
0.0110576
0.0100771
0.00715784
0.00480583
0.00357635
0.00297857
0.00272798
0.00266201
0.00268394
0.00269266
0.00265505
0.00247175
0.00230127
0.00227094
0.00229034
0.0023337
0.00240407
0.00247299
0.00248806
0.00251882
0.00266947
0.00318927
0.00467618
0.00691495
0.00584669
0.00355167
0.0033628
0.00385526
0.0045036
0.00456236
0.00542045
0.00571941
0.00606474
0.00635782
0.006421
0.00643663
0.00644666
0.0066071
0.0068068
0.00686303
0.0063523
0.00543132
0.00511486
0.00506313
0.00539071
0.00664184
0.00906726
0.0117478
0.0126893
0.0130487
0.0133063
0.0134774
0.0135529
0.0135962
0.0136094
0.0136077
0.0135977
0.0135831
0.0135617
0.0135261
0.0134678
0.0133722
0.0132266
0.0130026
0.0126726
0.0122031
0.0115643
0.0107781
0.00982337
0.00872221
0.00751868
0.00623532
0.00503321
0.00399002
0.00317841
0.0025374
0.00208952
0.00175928
0.00157509
0.00145096
0.00144181
0.00143627
0.00149699
0.00150981
0.0017773
0.00202994
0.00320662
0.00538341
0.00783051
0.00834753
0.00781835
0.0069876
0.00696664
0.00767058
0.00859935
0.00859186
0.00806527
0.00759272
0.00764731
0.00800062
0.00818476
0.00815783
0.00771935
0.00631631
0.00508578
0.0045444
0.00445373
0.00459924
0.00517651
0.006461
0.00813158
0.00963494
0.0104645
0.0105659
0.0100394
0.00758258
0.00504585
0.00374467
0.00312319
0.00285063
0.00276576
0.00277507
0.00281417
0.00280113
0.00268833
0.00242919
0.00232996
0.00232983
0.00236088
0.00242516
0.00247406
0.00248583
0.00251883
0.00268461
0.00318349
0.0045736
0.00689311
0.00594039
0.00359061
0.00341882
0.00405147
0.0046425
0.00465051
0.00541868
0.00571178
0.0060375
0.00625793
0.00628778
0.00621817
0.0059903
0.00587717
0.00585499
0.00584608
0.0056281
0.00532299
0.00524325
0.00529249
0.00583534
0.00724693
0.00969162
0.0117549
0.0125876
0.0129755
0.0133744
0.0135469
0.0136069
0.0136374
0.0136408
0.0136297
0.0136159
0.0136048
0.0135931
0.0135765
0.0135472
0.0135042
0.0134446
0.0133499
0.0132054
0.0129484
0.0125234
0.0118867
0.0110149
0.00997101
0.00881295
0.0075472
0.00627753
0.00508516
0.00409685
0.00324674
0.00261625
0.00217185
0.00182857
0.00169062
0.00162887
0.0016645
0.00165071
0.00185999
0.00191087
0.0027858
0.00419281
0.00703518
0.008399
0.00827143
0.00733494
0.00687973
0.00705605
0.00812873
0.00878761
0.00867867
0.008061
0.00791907
0.00799251
0.00825256
0.00837391
0.00836979
0.00828473
0.00771831
0.00623174
0.00514376
0.00471584
0.00467271
0.00484394
0.00539482
0.00657711
0.00821757
0.00939326
0.00970599
0.00948392
0.00766612
0.00511216
0.0037945
0.00319059
0.00293209
0.00285315
0.00286059
0.00292362
0.00293214
0.00287368
0.0026156
0.00241504
0.00238368
0.00240109
0.00245581
0.00248771
0.00250019
0.00254919
0.00277093
0.0032562
0.00456646
0.00685444
0.00595353
0.00360444
0.00348628
0.00424967
0.00473398
0.00468602
0.00537181
0.00565334
0.00595489
0.00621019
0.00625496
0.00616452
0.00586302
0.00566986
0.00561534
0.00559025
0.00552815
0.00546929
0.00548366
0.00573343
0.00643451
0.00787601
0.00991138
0.0116187
0.0123377
0.0130707
0.013404
0.0135292
0.0135819
0.0135976
0.0135786
0.0135196
0.0134453
0.0133696
0.0132658
0.0131701
0.013178
0.0132079
0.0132619
0.0132898
0.0132543
0.0131721
0.0130116
0.0127343
0.0121855
0.0113452
0.0102971
0.00909405
0.00781431
0.00651415
0.00535531
0.00429364
0.00345204
0.00281828
0.00238549
0.00210882
0.00208568
0.00205096
0.00224048
0.00223025
0.0030253
0.00403806
0.00657179
0.0083457
0.00853431
0.00783887
0.00695276
0.00684053
0.00728152
0.00853774
0.00888606
0.00870658
0.00824969
0.00813942
0.00818554
0.00834667
0.00842049
0.00841933
0.00838232
0.00822374
0.00745907
0.00598414
0.00512799
0.00482567
0.00482798
0.00501108
0.0055652
0.00690273
0.00823625
0.00865137
0.00851555
0.00720806
0.00495778
0.00375604
0.00320751
0.00299118
0.00292623
0.00293306
0.00300659
0.00304373
0.00301506
0.0028136
0.00252066
0.00244058
0.00244623
0.00249072
0.00251652
0.002531
0.00260984
0.00289774
0.00336117
0.00474875
0.0068344
0.00584952
0.00360734
0.00357549
0.00442762
0.00479187
0.00472091
0.00525028
0.00554454
0.00584199
0.00618296
0.0062833
0.00619915
0.00587027
0.00565635
0.00561784
0.00561845
0.00564527
0.00570302
0.00584601
0.0062081
0.00696697
0.0082385
0.00980112
0.0112279
0.0123726
0.0130097
0.0132292
0.0132808
0.0132577
0.0131102
0.0127587
0.0118866
0.00925332
0.00773774
0.00721625
0.00703274
0.00713575
0.00766538
0.00868885
0.0102635
0.0117915
0.0125526
0.012838
0.0128297
0.012704
0.0123713
0.0116967
0.010715
0.00956253
0.00829896
0.00706595
0.00586645
0.00484633
0.00401813
0.00342119
0.00307432
0.00297954
0.00310037
0.00316023
0.00388992
0.00490676
0.00687841
0.00841576
0.00873138
0.0082691
0.00718347
0.00675906
0.00684805
0.00768996
0.0087614
0.00891391
0.00871655
0.00838599
0.00831421
0.00832433
0.00838716
0.00842486
0.00842266
0.00839018
0.0083027
0.00800575
0.00693629
0.00569962
0.0050788
0.00490789
0.00495331
0.00524348
0.00616729
0.00736885
0.00768296
0.00743785
0.00599133
0.00430745
0.00350111
0.00317269
0.00304077
0.0030064
0.00301685
0.00309185
0.00314621
0.00313232
0.00298994
0.00264521
0.00250896
0.00250091
0.00253313
0.00255938
0.0025916
0.00274136
0.00305792
0.00350587
0.00512022
0.00682894
0.00557549
0.00357979
0.0036883
0.00456915
0.00482956
0.00476756
0.00504623
0.00535468
0.00566121
0.0060777
0.00640522
0.00648073
0.00626926
0.00581975
0.00568187
0.00566374
0.00571296
0.00585725
0.00611405
0.00655266
0.00725023
0.0082843
0.00961412
0.0110755
0.0122071
0.0125409
0.0125221
0.0121291
0.010936
0.00756314
0.00544475
0.00444964
0.00381004
0.00370238
0.00377473
0.00413303
0.00448052
0.00466785
0.00488951
0.00523862
0.00608144
0.00760426
0.0098691
0.011872
0.0125311
0.0125676
0.0124142
0.0119634
0.0111706
0.0101777
0.00909644
0.00798516
0.00696521
0.00605926
0.00536745
0.00501283
0.0049961
0.00513461
0.00566727
0.00660281
0.00781165
0.00871788
0.00889218
0.00853407
0.00748235
0.00678392
0.00666153
0.00694279
0.00808814
0.00881572
0.00886428
0.00869283
0.00845986
0.00838938
0.0083765
0.00839172
0.00838009
0.00835103
0.00832397
0.00825799
0.00812447
0.00758034
0.00634048
0.00544019
0.00506049
0.00502333
0.00518565
0.00594019
0.00684446
0.00694171
0.00646922
0.00476481
0.00374065
0.00333643
0.00315937
0.00310268
0.00309497
0.0031096
0.00318143
0.00323763
0.0032312
0.00311753
0.00274925
0.00256756
0.00254769
0.00257336
0.00261339
0.00268588
0.00294608
0.00319506
0.00368907
0.00555351
0.00681945
0.00527787
0.00354651
0.00382952
0.00468033
0.00487077
0.00484182
0.00473311
0.00504536
0.00537193
0.00572674
0.00627077
0.00664639
0.00673997
0.00655161
0.00597204
0.00582047
0.00580286
0.00591404
0.00618613
0.00664151
0.00732454
0.00827348
0.00958037
0.0110347
0.0115363
0.0114107
0.00995335
0.00643681
0.00443369
0.00361325
0.00335255
0.00331963
0.00354146
0.0038742
0.00441127
0.00504837
0.00533845
0.00540502
0.00537899
0.00529376
0.0052767
0.00541769
0.00601736
0.00764789
0.0103495
0.0120535
0.0124201
0.0123734
0.0121211
0.0115948
0.0108939
0.0101094
0.00933703
0.00860254
0.00802414
0.00777692
0.00779589
0.00796243
0.00836914
0.00886256
0.00909727
0.00902413
0.00863902
0.00770402
0.00688001
0.00655358
0.00658933
0.00711429
0.00827874
0.00869584
0.00870054
0.00859504
0.0084666
0.00840623
0.00838119
0.00832716
0.00822364
0.00813071
0.00810442
0.00809238
0.00805219
0.00785005
0.00699212
0.00587624
0.00527886
0.00514769
0.00525979
0.00591597
0.00643942
0.00634464
0.00544146
0.00405578
0.00350718
0.00329348
0.00321866
0.00319204
0.00318522
0.00319421
0.00324428
0.00330442
0.0033041
0.00320686
0.00282693
0.00261571
0.00259049
0.00262143
0.00267583
0.00282043
0.00312861
0.00332685
0.00398703
0.00608799
0.00675577
0.00493685
0.00354328
0.00397939
0.00476372
0.00492426
0.00493265
0.00434549
0.00459394
0.00494365
0.00532051
0.00565438
0.0063035
0.00694345
0.00711905
0.00717273
0.00652572
0.00620032
0.006153
0.0062966
0.00670342
0.00736631
0.00834785
0.00980623
0.0105855
0.0104774
0.00839776
0.00499962
0.00367881
0.00328223
0.00321542
0.00336794
0.00380977
0.00488053
0.00601248
0.0067099
0.00704356
0.00713965
0.00713828
0.00704224
0.00675761
0.00625311
0.00566105
0.00546746
0.00564716
0.00663964
0.00902387
0.0115741
0.0122622
0.0122639
0.0120981
0.0117636
0.0112669
0.0107586
0.0102861
0.00990945
0.00971535
0.00960898
0.00956291
0.00949715
0.00933508
0.00903418
0.00859307
0.00778237
0.00697187
0.00651183
0.00639799
0.00653238
0.007267
0.00818582
0.00847557
0.00850519
0.0084881
0.00843871
0.00839092
0.00828893
0.00811992
0.00791329
0.00780473
0.0077909
0.00785099
0.00793093
0.00786534
0.00735591
0.00614085
0.00543862
0.00528904
0.0054119
0.00597185
0.00607687
0.0056812
0.00432463
0.00363571
0.00340529
0.00332525
0.00328074
0.00323293
0.00322002
0.00322687
0.00326969
0.00334614
0.00335414
0.00326431
0.00287318
0.00265496
0.00263374
0.00266337
0.00275187
0.00303733
0.00325009
0.00347699
0.00453995
0.00636537
0.00658035
0.00451246
0.00355827
0.00415155
0.00487807
0.00503317
0.00506097
0.00402056
0.00406391
0.00432843
0.00474999
0.00520356
0.00550446
0.00594765
0.00684103
0.0077256
0.00799112
0.00795815
0.0073546
0.00718338
0.00727876
0.00781889
0.00887129
0.00995429
0.0100983
0.00854143
0.00508131
0.00361388
0.00326343
0.00323875
0.00345365
0.0042519
0.00561131
0.00630952
0.00675486
0.00687683
0.00680464
0.00648253
0.0064048
0.00650745
0.00673282
0.00676899
0.00649274
0.00580952
0.0053741
0.00542529
0.00613734
0.00815809
0.0110292
0.0119233
0.0119668
0.0117708
0.0113743
0.0109415
0.010558
0.0102492
0.0100324
0.00982198
0.00959545
0.00932423
0.00889312
0.00829372
0.00763742
0.00698526
0.00649128
0.00627053
0.0062587
0.00647693
0.00728059
0.00797118
0.00829779
0.00839078
0.00838864
0.00834885
0.00822217
0.00796715
0.0076729
0.00748124
0.00744547
0.00749185
0.00775303
0.00789231
0.00784769
0.00740446
0.00618486
0.00548293
0.00539436
0.00561757
0.00591427
0.00571694
0.00461322
0.00374183
0.00348018
0.00339435
0.00335228
0.00329178
0.00323058
0.00321909
0.00323004
0.00328071
0.00337355
0.00338272
0.0032442
0.00283451
0.00267563
0.00266736
0.00271426
0.00290887
0.00322975
0.00333806
0.00375923
0.00548603
0.00643403
0.00629697
0.00410131
0.00359655
0.00427774
0.00495481
0.00522329
0.00528721
0.00383952
0.00372671
0.00371046
0.00388372
0.0044065
0.00510355
0.00545045
0.00570507
0.00613829
0.00700621
0.00871279
0.00956585
0.00964766
0.00959208
0.00975484
0.0101015
0.0101712
0.00918253
0.00615348
0.00390578
0.00333452
0.00327074
0.00346651
0.00424186
0.00536775
0.00616203
0.0065927
0.00668055
0.00639599
0.00560575
0.00522534
0.00514893
0.00518631
0.00544717
0.00593192
0.0060942
0.0058033
0.00515165
0.00480006
0.00484766
0.00555529
0.00758904
0.00994729
0.0108517
0.011044
0.0108343
0.0104661
0.0100823
0.00975208
0.00946494
0.00915898
0.00876285
0.0082729
0.00775597
0.00730606
0.00686661
0.0064424
0.00618737
0.00610048
0.00613561
0.00644049
0.00723727
0.00789761
0.00824098
0.00832167
0.00827773
0.00810427
0.00773033
0.0073426
0.00710234
0.00705536
0.00709869
0.0073541
0.00775099
0.00788158
0.00781944
0.00731113
0.00604515
0.00546763
0.00547184
0.00570536
0.0056585
0.00500279
0.00381822
0.00351604
0.00343792
0.0034006
0.00333907
0.0032221
0.00313155
0.00313125
0.00316755
0.00327596
0.00338893
0.00337871
0.00315201
0.0027783
0.00269145
0.0027023
0.0028081
0.00315152
0.00331873
0.0034808
0.00441672
0.00594821
0.00642933
0.00583408
0.00380502
0.00366003
0.00440835
0.0049771
0.00555757
0.00577236
0.00363837
0.00355437
0.00334092
0.00329182
0.00340762
0.00398557
0.00500148
0.00547732
0.0057039
0.00591453
0.00638585
0.00790354
0.00998522
0.0106242
0.0107601
0.0106575
0.0098659
0.00773618
0.00462863
0.00347223
0.00326605
0.00332064
0.00377439
0.00468122
0.00569274
0.00634407
0.00650394
0.00632776
0.00559149
0.00502976
0.00482474
0.00471867
0.00466522
0.00462429
0.00462741
0.00471905
0.00478891
0.0045437
0.00424748
0.00423184
0.00450744
0.00550828
0.00715027
0.00828566
0.00889722
0.00906838
0.00898474
0.00874915
0.00845226
0.00813539
0.00782433
0.00751242
0.00719879
0.00691972
0.0066532
0.0063515
0.00611308
0.00599849
0.00597287
0.00605888
0.00647142
0.00734536
0.00799999
0.00822769
0.00818361
0.00794836
0.0074256
0.00692102
0.0066557
0.00661814
0.00665688
0.00684225
0.00733471
0.00773776
0.0078276
0.00771054
0.00696158
0.00574605
0.00543522
0.00554412
0.00568968
0.00528017
0.00395267
0.00352789
0.00345679
0.00342955
0.00335361
0.00316038
0.00293101
0.00289975
0.00296228
0.00309495
0.00330655
0.00340092
0.00332954
0.00297708
0.00273715
0.00270823
0.00276844
0.00303867
0.00329333
0.00337083
0.00391265
0.00540543
0.00605326
0.00623241
0.00519837
0.00368598
0.00373034
0.00444914
0.00491021
0.00577783
0.0064568
0.00311563
0.00326833
0.0031853
0.00297232
0.00291579
0.00302502
0.00361922
0.00497845
0.0056213
0.00580783
0.00586041
0.00608775
0.00761247
0.0101215
0.0106726
0.0105153
0.00912509
0.00606141
0.00384565
0.00324268
0.00317492
0.00333318
0.00386177
0.0047665
0.00575259
0.00613577
0.00608638
0.00538476
0.00465818
0.00441171
0.004338
0.00432749
0.00439783
0.00444384
0.00444427
0.00433253
0.00424669
0.00412431
0.00407381
0.00407333
0.004196
0.00470958
0.00568603
0.00645009
0.00698377
0.00726831
0.00741892
0.00742264
0.0073354
0.00718009
0.00698818
0.00679238
0.00659336
0.00641608
0.00622016
0.00602778
0.00591224
0.00586375
0.00589181
0.00608687
0.00676674
0.0077375
0.00812619
0.00808134
0.00777535
0.00705145
0.00646673
0.00619899
0.00617482
0.00619424
0.00631266
0.0066954
0.00728684
0.00761951
0.00763932
0.00739149
0.00630076
0.00542822
0.00542408
0.00557785
0.00541765
0.00424538
0.00350938
0.00345371
0.003443
0.0033616
0.00308915
0.00279814
0.00275965
0.00281053
0.00293511
0.00319166
0.00336532
0.00336774
0.00315107
0.0028105
0.00273348
0.00275259
0.00295152
0.00325275
0.00334305
0.00365543
0.00497697
0.0056627
0.00601775
0.00595839
0.00456344
0.00364082
0.00380234
0.00443246
0.00481652
0.00577674
0.00670471
0.00257098
0.00277415
0.00285745
0.00280652
0.00266306
0.00262368
0.00276459
0.00346734
0.00521483
0.00597274
0.00599856
0.00579195
0.00608594
0.00817593
0.0100784
0.00997601
0.00801712
0.00484952
0.00342312
0.00309329
0.00307779
0.00326883
0.00378428
0.00466413
0.0053324
0.00539109
0.00462817
0.00336035
0.00279266
0.00259774
0.00254602
0.00258509
0.0028981
0.00344469
0.00399529
0.00429406
0.00438425
0.00438551
0.00424119
0.00418626
0.00421525
0.00445212
0.00496141
0.00538404
0.00567967
0.00594467
0.00616052
0.00630014
0.00637898
0.00638401
0.00633854
0.00626152
0.00616093
0.00604082
0.00591057
0.00581093
0.00576602
0.00578755
0.00591717
0.00639619
0.00750827
0.00803078
0.00798155
0.00758901
0.0066677
0.00606215
0.00579478
0.00569793
0.00565961
0.00569368
0.00588404
0.00639079
0.00698929
0.00727052
0.00723533
0.00675084
0.00555994
0.00527826
0.00542691
0.00551829
0.00488951
0.00354718
0.00341294
0.00345058
0.00338362
0.00304479
0.0027428
0.00270181
0.00273962
0.00289396
0.00313675
0.00331065
0.00332959
0.00319051
0.00287008
0.00276277
0.00275769
0.00291377
0.00321089
0.00331782
0.00352246
0.0046925
0.00536365
0.00562356
0.00573861
0.00563471
0.00410419
0.00362172
0.00384718
0.0043489
0.00468433
0.00559592
0.00665066
0.00240976
0.00244453
0.00252937
0.00255508
0.00249487
0.00243721
0.00244555
0.00277157
0.00394809
0.00590371
0.00628074
0.00596914
0.00571864
0.00651173
0.00882407
0.00915329
0.0071284
0.00418644
0.00313244
0.00290786
0.00290046
0.003051
0.00347621
0.00405801
0.00419515
0.00376884
0.00275287
0.0020251
0.00175187
0.00165152
0.00161067
0.00160149
0.00163805
0.00177989
0.00205301
0.0025583
0.00337616
0.00415967
0.00447297
0.00453376
0.00448271
0.00447936
0.00463446
0.00484989
0.00498074
0.00515946
0.0053427
0.00550288
0.00563719
0.00573455
0.00578194
0.00579126
0.00577312
0.00573
0.00568512
0.00567417
0.0057129
0.00582873
0.00623412
0.00732008
0.00791485
0.00788476
0.00735967
0.00634403
0.00575295
0.00546467
0.00522461
0.00503959
0.00499557
0.00505191
0.00526863
0.00580523
0.00645247
0.00670001
0.00658796
0.00582755
0.00519681
0.0052301
0.00545151
0.00518744
0.00382314
0.00331632
0.00341879
0.00343251
0.00309483
0.00271946
0.00267222
0.00271236
0.00289035
0.00307887
0.00322033
0.00323778
0.0031172
0.00288073
0.00279668
0.00278714
0.00290459
0.00317157
0.00327355
0.00345747
0.00445938
0.00520777
0.00523389
0.00534926
0.00559206
0.00515882
0.00388964
0.00361076
0.00385273
0.00424948
0.00451372
0.00528444
0.00635499
0.00243128
0.00236635
0.00236687
0.00237438
0.00234895
0.00230475
0.00229901
0.00251066
0.00339843
0.00562298
0.0064022
0.00626825
0.0057412
0.00583336
0.00763188
0.00835089
0.00657174
0.00381848
0.00289755
0.00268895
0.00266833
0.00272719
0.00292862
0.00304365
0.00296671
0.00254966
0.00200118
0.00170585
0.00158
0.00151232
0.00146581
0.00143571
0.00141839
0.00141226
0.00143413
0.00152179
0.00171856
0.00209679
0.00280738
0.00401855
0.00476024
0.0049282
0.00488289
0.00479384
0.00481198
0.0048835
0.00499049
0.00510476
0.0052229
0.00533024
0.00542034
0.00548604
0.00553096
0.00556174
0.00559975
0.00566195
0.00579231
0.00621805
0.00722516
0.00775145
0.00772141
0.00702457
0.0061434
0.00564517
0.00517434
0.00481407
0.0046358
0.00454035
0.00447755
0.00449309
0.00469292
0.00518647
0.00576536
0.0059716
0.00579868
0.0051851
0.00505102
0.00523114
0.00537608
0.00459732
0.00335557
0.00328085
0.00351757
0.0032844
0.00274767
0.00265547
0.0026888
0.00283074
0.002977
0.00308213
0.00309071
0.00300619
0.00286955
0.00282848
0.00282365
0.00291432
0.00313591
0.00322894
0.00343237
0.00432753
0.00510192
0.00507063
0.0049777
0.00525821
0.00541264
0.00479523
0.00379151
0.00359317
0.0038306
0.00415049
0.00434999
0.00497423
0.00598976
0.0026695
0.00238324
0.00230859
0.00229264
0.002266
0.00223538
0.00223725
0.00243232
0.00327425
0.00545739
0.00637626
0.00642098
0.00582722
0.00559323
0.00666563
0.00761278
0.00623738
0.00358139
0.00266853
0.00243009
0.00237638
0.00236751
0.00236895
0.00232781
0.00218266
0.00194826
0.00177157
0.00169675
0.00166038
0.00163398
0.00159607
0.00154585
0.00146991
0.00140287
0.00138163
0.00138233
0.00143539
0.00152845
0.00172468
0.00206042
0.00258858
0.0035412
0.00494674
0.0053519
0.00533394
0.00509529
0.0050134
0.00506403
0.0051433
0.00523162
0.005324
0.0054135
0.00549099
0.00555829
0.0056449
0.00584014
0.00637839
0.00717732
0.00751796
0.00746007
0.00674481
0.00618646
0.00558774
0.00494667
0.00464271
0.00449427
0.00440622
0.00433722
0.00425446
0.00421474
0.00425634
0.0044966
0.00495131
0.00519377
0.00508905
0.00489447
0.00498874
0.00527799
0.00508161
0.00379081
0.00320071
0.00333118
0.00353703
0.00291894
0.00266036
0.00266104
0.00275608
0.002862
0.00293814
0.00294923
0.00292883
0.0028711
0.00285432
0.00285679
0.00293105
0.00310175
0.00318919
0.00342816
0.00433921
0.00504755
0.00498578
0.00482728
0.00496167
0.00515545
0.00515699
0.0046601
0.00374834
0.00355229
0.00375552
0.00405937
0.00420765
0.00467239
0.00556085
0.00337501
0.00250086
0.0023125
0.00224885
0.00222003
0.002202
0.00223543
0.00254937
0.00391275
0.00582011
0.00629235
0.00639868
0.0059746
0.0055131
0.00602238
0.00702155
0.00612164
0.00350856
0.00249818
0.00220767
0.002104
0.00205088
0.0019949
0.00191356
0.00182923
0.00180163
0.00182183
0.0019593
0.0021948
0.00231342
0.00234669
0.00229274
0.00205671
0.00173265
0.00152703
0.00144977
0.00143041
0.00148262
0.00161008
0.00184254
0.00210837
0.00229069
0.00256726
0.0033169
0.00477566
0.00551586
0.00558079
0.00552753
0.00541883
0.00540901
0.00545605
0.00553672
0.00564924
0.00581127
0.00613173
0.00664666
0.00709948
0.00728291
0.00716414
0.00660732
0.00621614
0.0054679
0.00486378
0.0046083
0.00446781
0.00436932
0.00429879
0.00422402
0.00410976
0.0040126
0.00399619
0.00405717
0.00425147
0.00452085
0.00464278
0.00474867
0.00495618
0.00524113
0.0047509
0.00349972
0.00316492
0.00339888
0.00346317
0.00278146
0.00264913
0.00268686
0.00277432
0.00284267
0.00286945
0.0028781
0.00287104
0.00286784
0.00288116
0.00294162
0.00305403
0.00315849
0.00344251
0.00441244
0.00505366
0.00496122
0.00477295
0.00481579
0.0049783
0.00507405
0.00505463
0.00463447
0.00374311
0.0035166
0.00363222
0.00396167
0.00408459
0.00438813
0.00509211
0.00353061
0.00266861
0.00234447
0.0022381
0.0021965
0.00220393
0.00238624
0.00342002
0.00536234
0.00595696
0.00615229
0.00625769
0.00602236
0.00544037
0.00561748
0.00657272
0.00612055
0.00355255
0.0023917
0.0020385
0.00191423
0.00185496
0.001817
0.00180205
0.00181841
0.00194174
0.00226012
0.00288186
0.00363881
0.00395602
0.00404683
0.00404494
0.00371416
0.00298184
0.00221012
0.00181665
0.00165142
0.00160577
0.00164734
0.00196766
0.00230992
0.00233193
0.00232761
0.00237774
0.00273051
0.00395226
0.00533689
0.0057597
0.00602167
0.00611265
0.00614868
0.00621888
0.00636976
0.00657878
0.00679799
0.00696282
0.00702916
0.0068183
0.00641802
0.00613229
0.00541923
0.0048551
0.00462349
0.0044994
0.00438623
0.00428715
0.00419687
0.00410005
0.00399501
0.00391486
0.0038801
0.00387359
0.00392572
0.00405291
0.00431778
0.00453544
0.00489006
0.005049
0.00449768
0.00341605
0.00317482
0.00340689
0.00336085
0.00274991
0.00264599
0.00269176
0.00277454
0.00281622
0.00284088
0.00285263
0.00286157
0.00287997
0.0029278
0.00299653
0.00311873
0.00344826
0.00442596
0.00506011
0.00494968
0.00474608
0.00480499
0.00493482
0.00502649
0.00506447
0.00503895
0.00472578
0.00387663
0.00350289
0.0034998
0.00383496
0.00396042
0.00411604
0.0045926
0.00320317
0.00256317
0.00232766
0.00225325
0.0022483
0.0024377
0.00352604
0.00536546
0.00581983
0.00592288
0.00587951
0.00597722
0.00594499
0.00537466
0.00534288
0.00619182
0.00612228
0.00376774
0.00237346
0.00193649
0.00180294
0.00176121
0.00175224
0.00178396
0.00193058
0.00234404
0.0032061
0.00413169
0.00447633
0.00460992
0.00475143
0.00484952
0.00486119
0.00466557
0.00412109
0.00285566
0.00219487
0.0019558
0.00190377
0.00206023
0.00275475
0.0032736
0.00300419
0.00262267
0.0024792
0.00259975
0.00342235
0.00472727
0.00562763
0.0060477
0.00624066
0.00638455
0.00651425
0.00660796
0.00667512
0.0066348
0.00640103
0.00618609
0.00600171
0.00543474
0.00490176
0.00466833
0.00455114
0.0044432
0.00431442
0.00417785
0.00404867
0.00395026
0.00389341
0.00384235
0.00380282
0.00378573
0.00378483
0.00382827
0.00397072
0.00426042
0.00470987
0.00484251
0.00442002
0.00340973
0.00321396
0.00339657
0.00334666
0.00274769
0.00263727
0.00268551
0.00275872
0.00278987
0.00281646
0.00283271
0.0028507
0.00288543
0.00294719
0.00308058
0.0034175
0.00434867
0.00503439
0.00496991
0.00474953
0.00487146
0.00509433
0.00515749
0.00515616
0.00511212
0.00506738
0.00483616
0.00419958
0.00353792
0.00341315
0.00357344
0.00382797
0.0039115
0.00414392
0.00270663
0.00252316
0.00245162
0.00251965
0.00293591
0.00412228