/*--------------------------------*- C++ -*----------------------------------*\
  =========                 |
  \\      /  F ield         | OpenFOAM: The Open Source CFD Toolbox
   \\    /   O peration     | Website:  https://openfoam.org
    \\  /    A nd           | Version:  11
     \\/     M anipulation  |
\*---------------------------------------------------------------------------*/
FoamFile
{
    format      ascii;
    class       surfaceScalarField;
    location    "6.5";
    object      phi;
}
// * * * * * * * * * * * * * * * * * * * * * * * * * * * * * * * * * * * * * //

dimensions      [0 3 -1 0 0 0 0];

internalField   nonuniform List<scalar> 
18960
(
0.047605
0.000483556
-0.0480885
0.0470437
0.00056127
0.0464715
0.000572213
0.0459724
0.000499037
0.045578
0.000394466
0.0451424
0.000435576
0.0446524
0.000489967
0.044266
0.000386426
0.0440546
0.000211372
0.0438981
0.000156561
0.0437638
0.000134218
0.0437237
4.01755e-05
0.0437408
-1.71542e-05
0.0438235
-8.26602e-05
0.0441176
-0.000294123
0.0445881
-0.000470473
0.0448961
-0.000308035
0.0448304
6.57142e-05
0.0444119
0.000418516
0.043754
0.000657936
0.0430387
0.000715228
0.0423576
0.000681077
0.0417839
0.000573798
0.0413053
0.000478506
0.0408196
0.000485752
0.0403991
0.000420447
0.0401413
0.000257853
0.0402053
-6.39772e-05
0.0407369
-0.000531665
0.0420987
-0.00136174
0.0444354
-0.00233671
0.0488442
-0.00440882
0.0548353
-0.00599107
0.061232
-0.00639668
0.0646765
-0.0034445
0.0653637
-0.000687247
0.0627949
0.00256876
0.0588051
0.00398985
0.0528472
0.00595792
0.00258824
0.0502589
0.047845
0.000749528
-0.0481109
0.0475787
0.000827534
0.0472324
0.000918533
0.0468937
0.000837703
0.0465699
0.000718281
0.0462423
0.000763193
0.0459672
0.000765052
0.0457006
0.000653061
0.0454741
0.000437791
0.0453137
0.00031697
0.0451823
0.000265602
0.0451455
7.70416e-05
0.0451901
-6.17546e-05
0.0453527
-0.000245309
0.0457406
-0.000681988
0.0463279
-0.00105778
0.0468121
-0.000792214
0.0471688
-0.000290992
0.0473853
0.00020205
0.0474432
0.000599943
0.0473533
0.000805159
0.0469728
0.00106162
0.0462472
0.00129939
0.0455057
0.00121996
0.0448701
0.00112142
0.0444063
0.000884159
0.0441101
0.000554131
0.044075
-2.88851e-05
0.0442444
-0.000701106
0.0447592
-0.00187652
0.045586
-0.00316356
0.0474922
-0.00631501
0.0505538
-0.00905267
0.0554582
-0.0113011
0.0604798
-0.00846608
0.0646914
-0.00489883
0.0663536
0.000906571
0.0667925
0.00355091
0.0649728
0.00777767
0.00580045
0.0617606
0.0477471
0.00113583
-0.0481334
0.0473841
0.00119058
0.0469877
0.00131485
0.0465786
0.00124684
0.0461574
0.00113946
0.0458157
0.00110492
0.0455792
0.00100152
0.0453636
0.000868698
0.0451926
0.000608762
0.0450733
0.000436294
0.0450168
0.000322102
0.0450715
2.23165e-05
0.0452384
-0.00022869
0.0454813
-0.000488137
0.0458246
-0.0010253
0.0463009
-0.0015341
0.046897
-0.00138826
0.04752
-0.000914025
0.0479676
-0.000245514
0.0481309
0.000436622
0.0480675
0.000868564
0.0477105
0.00141854
0.046979
0.00203099
0.046183
0.00201588
0.0454176
0.00188687
0.0446289
0.00167282
0.0438325
0.00135054
0.0433952
0.000408436
0.0432116
-0.00051754
0.043595
-0.00225989
0.0443601
-0.00392866
0.0461637
-0.00811858
0.0490347
-0.0119237
0.0545115
-0.0167779
0.0607313
-0.0146859
0.0659175
-0.0100851
0.0675508
-0.000726667
0.0674289
0.00367274
0.0649805
0.0102262
0.00870063
0.0620803
0.0476838
0.00151379
-0.0480618
0.04734
0.00153439
0.0469761
0.00167876
0.0466058
0.0016171
0.0462715
0.00147377
0.0460138
0.00136258
0.0457706
0.00124475
0.0455668
0.00107249
0.045395
0.000780632
0.045279
0.000552244
0.0452371
0.000363959
0.0453007
-4.12814e-05
0.0454249
-0.000352807
0.0456676
-0.000730889
0.0459712
-0.00132888
0.0464303
-0.00199317
0.0469668
-0.00192479
0.0475977
-0.00154489
0.0481966
-0.000844496
0.0485984
3.48915e-05
0.0486555
0.000811453
0.0485317
0.00154235
0.048073
0.0024897
0.0474528
0.00263603
0.0468168
0.00252283
0.046223
0.00226662
0.0455481
0.00202545
0.0449713
0.000985215
0.0444377
1.61234e-05
0.0443825
-0.00220467
0.0444429
-0.00398915
0.0451156
-0.0087912
0.0461233
-0.0129314
0.0492199
-0.0198745
0.0544966
-0.0199626
0.0622063
-0.0177948
0.0677038
-0.00622418
0.0704992
0.000877335
0.0700694
0.010656
0.0112873
0.0674827
0.047654
0.00189543
-0.0480357
0.0472858
0.00190264
0.0469016
0.00206296
0.0465484
0.00197028
0.0462014
0.0018208
0.0459042
0.0016598
0.0456507
0.00149818
0.0454446
0.00127859
0.0452836
0.000941628
0.0451859
0.000649969
0.0451572
0.000392633
0.0452183
-0.000102407
0.045404
-0.000538428
0.0457183
-0.00104518
0.0461107
-0.00172131
0.0464853
-0.00236783
0.0469269
-0.00236641
0.0475825
-0.00220041
0.048301
-0.001563
0.0489353
-0.00059944
0.0492362
0.000510537
0.0492468
0.00153178
0.0490065
0.00272999
0.0484013
0.00324123
0.0475082
0.00341591
0.0465949
0.00317998
0.0455517
0.00306865
0.044693
0.00184389
0.0439827
0.000726471
0.043758
-0.00198
0.0435881
-0.00381922
0.044032
-0.00923511
0.0448462
-0.0137456
0.0473192
-0.0223475
0.0516352
-0.0242787
0.0591207
-0.0252802
0.0660454
-0.0131489
0.070691
-0.00376826
0.0710149
0.0103321
0.0131755
0.0691267
0.0475541
0.00226965
-0.0479283
0.0471772
0.00227954
0.0468185
0.00242164
0.0464907
0.00229812
0.0461481
0.00216334
0.0458909
0.00191704
0.045641
0.00174802
0.0454529
0.00146674
0.0453219
0.00107259
0.0452651
0.000706853
0.0452807
0.000376944
0.0454178
-0.000239451
0.0455741
-0.000694781
0.0459172
-0.00138822
0.0462759
-0.00208002
0.0466337
-0.00272566
0.0470542
-0.00278682
0.0476953
-0.00284155
0.0483958
-0.00226354
0.0490588
-0.00126235
0.049438
0.000131294
0.0495376
0.00143215
0.0493701
0.00289747
0.0489841
0.00362723
0.0483034
0.00409666
0.0476223
0.00386105
0.0468084
0.00388262
0.0459829
0.00266935
0.0449188
0.00179056
0.0442121
-0.0012733
0.0436666
-0.00327376
0.0434651
-0.00903353
0.0432763
-0.0135569
0.0443066
-0.0233777
0.0470434
-0.0270155
0.053801
-0.0320378
0.0628563
-0.0222042
0.0711223
-0.0120343
0.0742972
0.0071573
0.0139631
0.0735096
0.0475073
0.0026508
-0.0478885
0.047141
0.00264591
0.0467986
0.00276403
0.0464545
0.00264224
0.0461529
0.00246488
0.0458651
0.00220484
0.0456285
0.00198461
0.0454755
0.00161972
0.0453578
0.00119036
0.0453054
0.000759214
0.0453205
0.000361862
0.0454192
-0.000338155
0.0456275
-0.000903085
0.0459761
-0.00173681
0.0463389
-0.00244287
0.0467096
-0.00309628
0.0471771
-0.00325434
0.0477719
-0.00343637
0.0484037
-0.00289538
0.0490884
-0.00194703
0.049597
-0.00037733
0.0498561
0.0011731
0.0498343
0.00291925
0.0495548
0.00390669
0.0488987
0.00475283
0.0481144
0.00464534
0.0471056
0.00489141
0.0461233
0.00365169
0.0450442
0.00286963
0.0441314
-0.000360481
0.0433041
-0.00244646
0.0425631
-0.00829256
0.0419002
-0.012894
0.0422411
-0.0237186
0.0438564
-0.0286308
0.0484932
-0.0366746
0.0574349
-0.0311459
0.0682461
-0.0228455
0.0751124
0.000290996
0.0134007
0.0756748
0.0473919
0.00303026
-0.0477713
0.0470292
0.00300856
0.0466904
0.00310286
0.0463866
0.00294604
0.0460807
0.00277084
0.0458168
0.0024687
0.0455992
0.00220216
0.0454596
0.00175938
0.04536
0.00128992
0.045329
0.000790252
0.0453739
0.000316965
0.0455417
-0.00050596
0.0457759
-0.00113724
0.046114
-0.00207494
0.0464945
-0.00282343
0.0468737
-0.00347545
0.0473166
-0.00369724
0.0478746
-0.00399431
0.0484629
-0.00348373
0.04914
-0.00262416
0.0496954
-0.000932677
0.0500439
0.000824582
0.050048
0.00291513
0.0498578
0.00409687
0.0493179
0.00529272
0.0486753
0.00528802
0.0478741
0.00569258
0.0469715
0.00455424
0.0458837
0.00395751
0.0446655
0.000857694
0.0436421
-0.00142309
0.0424797
-0.00713014
0.0411119
-0.0115262
0.0401948
-0.0228014
0.0407478
-0.0291839
0.0434063
-0.0393331
0.0509284
-0.038668
0.0630303
-0.0349474
0.0752911
-0.0119698
0.0101643
0.0785276
0.0473472
0.00341384
-0.0477307
0.0469866
0.00336915
0.0466581
0.00343137
0.0463735
0.00323057
0.0460748
0.00306954
0.0458241
0.00271941
0.0456231
0.00240315
0.0454975
0.00188497
0.0454064
0.00138105
0.0454023
0.000794314
0.0454774
0.00024189
0.0456409
-0.000669477
0.0458865
-0.00138284
0.0462303
-0.00241867
0.0466011
-0.00319427
0.0469999
-0.00387423
0.0474565
-0.00415388
0.0480018
-0.00453958
0.0485478
-0.00402974
0.0491681
-0.00324445
0.0497411
-0.0015057
0.0502061
0.000359617
0.0503321
0.00278912
0.0502607
0.00416826
0.0498096
0.00574383
0.049165
0.00593264
0.0482831
0.00657444
0.047297
0.00554032
0.0462432
0.00501138
0.0449191
0.00218179
0.0436876
-0.000191641
0.0421352
-0.00557775
0.0404511
-0.00984206
0.0383761
-0.0207264
0.0377333
-0.0285411
0.0385283
-0.0401281
0.0436324
-0.0437722
0.054037
-0.045352
0.0713532
-0.0292861
0.00201243
0.0795051
0.0472283
0.0037861
-0.0476006
0.0468949
0.00370254
0.0465673
0.00375905
0.046278
0.00351987
0.0460138
0.00333366
0.045795
0.00293829
0.045618
0.00258013
0.045501
0.00200198
0.0454334
0.00144861
0.0454542
0.000773572
0.0455617
0.000134394
0.0457344
-0.000842203
0.0460116
-0.00166009
0.0463374
-0.00274443
0.0467225
-0.00357935
0.0471397
-0.00429146
0.0476079
-0.00462209
0.0481084
-0.00504004
0.0486031
-0.00452442
0.0491731
-0.00381448
0.0497659
-0.00209856
0.0503175
-0.000191929
0.0505722
0.00253442
0.0505818
0.0041586
0.0501908
0.00613487
0.0495919
0.00653153
0.0488316
0.0073347
0.0478726
0.00649941
0.0468727
0.00601126
0.0455065
0.00354796
0.0441938
0.00112109
0.0423657
-0.00374967
0.0404182
-0.0078946
0.0373423
-0.0176505
0.0353985
-0.0265973
0.0344053
-0.0391349
0.0374566
-0.0468234
0.044178
-0.0520734
0.0628072
-0.0479152
-0.0121495
0.0769692
0.0471915
0.00415265
-0.0475581
0.0468552
0.00403892
0.0465497
0.00406449
0.0462653
0.00380425
0.0460113
0.00358766
0.0458159
0.00313378
0.0456506
0.0027454
0.045559
0.00209358
0.0455105
0.00149704
0.0455602
0.0007239
0.045693
1.6065e-06
0.0458635
-0.00101268
0.0461446
-0.00194123
0.0464967
-0.00309653
0.0468809
-0.00396355
0.0472892
-0.00469975
0.0476973
-0.00503021
0.0482117
-0.00555441
0.0487317
-0.00504439
0.0492942
-0.00437697
0.0497937
-0.00259814
0.0503896
-0.000787826
0.0507278
0.00219623
0.0508761
0.00401039
0.0506899
0.00632101
0.0502294
0.00699209
0.0494722
0.00809182
0.0484619
0.00750975
0.0473688
0.00710435
0.0458837
0.00503309
0.0444416
0.00256316
0.0423877
-0.00169573
0.0402613
-0.00576826
0.0366512
-0.0140404
0.0335998
-0.0235458
0.0306281
-0.0361632
0.0318067
-0.0480021
0.0347552
-0.0550219
0.0513345
-0.0644945
-0.0299708
0.0691558
0.0470711
0.00449915
-0.0474176
0.0467573
0.00435267
0.0464457
0.00437613
0.0461808
0.00406918
0.0459722
0.00379619
0.0457853
0.00332074
0.045646
0.00288466
0.045584
0.00215558
0.0455494
0.00153167
0.0456313
0.000641974
0.0457885
-0.000155591
0.045976
-0.00120018
0.0462689
-0.00223411
0.0466157
-0.00344336
0.0469991
-0.00434697
0.0474245
-0.0051251
0.0478651
-0.00547078
0.0483463
-0.00603563
0.0488271
-0.00552525
0.04934
-0.00488982
0.049832
-0.00309015
0.0504304
-0.00138626
0.0508825
0.00174415
0.0511581
0.00373479
0.0511187
0.00636039
0.0507729
0.00733789
0.0501203
0.0087445
0.0491213
0.00850872
0.048042
0.00818367
0.0465627
0.00651238
0.045019
0.00410682
0.0429336
0.000389633
0.0407082
-0.00354286
0.0368421
-0.0101743
0.0330906
-0.0197943
0.028331
-0.0314036
0.0272777
-0.0469488
0.0266033
-0.0543475
0.0384843
-0.0763755
-0.0493025
0.057816
0.0470451
0.00483973
-0.0473857
0.0467244
0.00467335
0.0464418
0.00465871
0.0462006
0.00431045
0.0459896
0.00400713
0.0458318
0.00347859
0.0457208
0.00299567
0.0456555
0.00222089
0.0456659
0.00152125
0.0457487
0.000559177
0.0459182
-0.00032511
0.04615
-0.00143195
0.0464374
-0.00252149
0.0467686
-0.00377461
0.0471455
-0.00472387
0.0476259
-0.00560555
0.0480499
-0.00589473
0.048478
-0.00646373
0.0488982
-0.00594541
0.0494339
-0.00542552
0.0499349
-0.00359118
0.0505208
-0.00197221
0.0510012
0.00126381
0.0513747
0.00336125
0.0514772
0.00625786
0.0513066
0.00750854
0.0508604
0.00919068
0.0499944
0.00937478
0.0489262
0.00925185
0.0473856
0.00805293
0.0456509
0.00584159
0.0434115
0.00262902
0.0412045
-0.00133585
0.0372547
-0.00622453
0.0330219
-0.0155615
0.0269875
-0.0253692
0.0232304
-0.0431917
0.0194527
-0.0505698
0.0240589
-0.0809817
-0.0681864
0.0429428
0.0469054
0.00516223
-0.0472279
0.0466081
0.00497061
0.0463497
0.00491715
0.0461264
0.00453371
0.0459484
0.00418521
0.0458044
0.00362259
0.0457243
0.00307576
0.0456939
0.00225121
0.0457383
0.00147691
0.0458412
0.000456259
0.0460286
-0.000512489
0.0462664
-0.00166973
0.046577
-0.00283209
0.0468998
-0.00409747
0.0472998
-0.00512389
0.0477638
-0.00606947
0.0482011
-0.00633206
0.048621
-0.00688368
0.0490384
-0.00636278
0.0495262
-0.00591328
0.0500198
-0.00408485
0.0505709
-0.00252328
0.0511098
0.000724952
0.0515462
0.00292481
0.0518274
0.00597671
0.0517919
0.00754397
0.0515625
0.00942012
0.0508779
0.0100594
0.0499091
0.0102206
0.04843
0.00953204
0.0467677
0.00750394
0.0444282
0.00496851
0.0422914
0.000800964
0.0387592
-0.00269236
0.0342454
-0.0110477
0.0278625
-0.0189863
0.0215544
-0.0368836
0.0152944
-0.0443098
0.0117732
-0.0774605
-0.0817676
0.0253544
0.0469224
0.00546788
-0.0472281
0.0466345
0.00525857
0.0463822
0.00516945
0.0461611
0.00475477
0.0459966
0.00434969
0.0458742
0.00374499
0.045823
0.00312699
0.045818
0.0022562
0.0458765
0.00141839
0.0459993
0.000333513
0.0462041
-0.000717335
0.0464412
-0.0019068
0.0467423
-0.00313319
0.0471098
-0.00446502
0.0474801
-0.00549414
0.0479315
-0.00652089
0.0483596
-0.00676015
0.0488136
-0.00733764
0.0492095
-0.00675875
0.0496538
-0.00635757
0.0500877
-0.00451871
0.0506525
-0.00308815
0.0512389
0.000138559
0.0517391
0.00242466
0.0521398
0.00557598
0.0522149
0.00746888
0.0521557
0.00947928
0.0516937
0.0105214
0.0509605
0.0109538
0.049648
0.0108445
0.0481671
0.0089848
0.0457462
0.0073895
0.0431514
0.00339574
0.0402686
0.000190422
0.0358154
-0.0065945
0.0300044
-0.0131753
0.0223915
-0.0292707
0.0149134
-0.0368316
0.00536253
-0.0679097
-0.0843197
0.00791466
0.0467708
0.00575988
-0.0470628
0.0465011
0.00552822
0.0462792
0.00539134
0.0460896
0.00494436
0.0459547
0.00448458
0.0458714
0.00382829
0.0458479
0.00315055
0.0458748
0.00222925
0.0459595
0.00133367
0.0461117
0.000181335
0.0463417
-0.000947323
0.0465921
-0.00215715
0.0469064
-0.00344751
0.0472776
-0.00483622
0.0476394
-0.00585598
0.0480986
-0.00698005
0.0485465
-0.00720804
0.0489848
-0.00777595
0.0493583
-0.0071323
0.0497888
-0.00678809
0.0502122
-0.00494212
0.0507194
-0.00359531
0.0513561
-0.000498155
0.0519097
0.00187108
0.0524348
0.00505086
0.0526471
0.00725663
0.0527332
0.00939312
0.0524633
0.0107913
0.0520287
0.0113884
0.0508377
0.0120356
0.0494794
0.010343
0.0476894
0.00917956
0.0450147
0.00607043
0.042194
0.00301112
0.0379786
-0.00237909
0.0327319
-0.00792863
0.0247105
-0.0212493
0.0174565
-0.0295777
0.00396644
-0.0544197
-0.0775588
-0.00279453
0.0467793
0.00604769
-0.0470671
0.0465319
0.00577559
0.046322
0.00560128
0.0461533
0.00511304
0.0460326
0.00460526
0.0460008
0.00386008
0.0459932
0.00315815
0.0460221
0.00220032
0.0461495
0.0012063
0.0463094
2.14136e-05
0.0465485
-0.00118634
0.0468185
-0.00242714
0.0471346
-0.00376365
0.0474765
-0.00517812
0.0478205
-0.00620001
0.0482709
-0.00743038
0.0487313
-0.00766846
0.0491796
-0.00822427
0.0495483
-0.00750101
0.0499581
-0.00719788
0.0503914
-0.00537539
0.0508305
-0.00403443
0.0514608
-0.00112842
0.0520658
0.00126608
0.0527293
0.0043873
0.0531057
0.00688025
0.0533726
0.00912621
0.0531565
0.0110074
0.053005
0.0115399
0.052274
0.0127666
0.0507568
0.0118603
0.0492846
0.0106517
0.0470588
0.00829621
0.0441892
0.00588071
0.0403444
0.00146574
0.0353786
-0.00296285
0.0270444
-0.0129151
0.019781
-0.0223142
0.00539978
-0.0400385
-0.0661142
-0.00604476
0.0466063
0.00631892
-0.0468775
0.046388
0.0059939
0.04623
0.00575922
0.0460951
0.00524795
0.046023
0.00467741
0.0460048
0.00387822
0.0460315
0.00313152
0.0461152
0.00211658
0.0462637
0.00105778
0.0464349
-0.000149742
0.0466887
-0.00144022
0.0470024
-0.00274081
0.0473168
-0.00407807
0.0476753
-0.00553663
0.0480394
-0.00656409
0.0484403
-0.00783123
0.0488787
-0.00810688
0.0493184
-0.00866396
0.0497589
-0.00794157
0.0501418
-0.00758074
0.0505548
-0.00578833
0.0509523
-0.00443198
0.0516063
-0.0017824
0.0522262
0.000646115
0.0530137
0.00359988
0.0535013
0.00639257
0.0540571
0.00857049
0.054017
0.0110475
0.0537187
0.0118382
0.0535287
0.0129565
0.0524379
0.0129511
0.0508299
0.0122598
0.0490955
0.0100306
0.0464653
0.0085109
0.0433101
0.00462095
0.0392009
0.00114633
0.0313791
-0.00509321
0.0230313
-0.0139664
0.0101917
-0.0271989
-0.0521871
-0.00373541
0.0466315
0.0065806
-0.0468931
0.0464433
0.00618209
0.0463224
0.00588013
0.0462188
0.00535149
0.0461548
0.00474145
0.0461596
0.00387337
0.0462107
0.00308047
0.0463318
0.00199548
0.0464921
0.000897452
0.0466825
-0.000340073
0.0469378
-0.00169553
0.0472519
-0.00305494
0.0475691
-0.00439525
0.0479263
-0.00589383
0.0483119
-0.0069497
0.0486675
-0.00818687
0.0490936
-0.00853293
0.0494895
-0.00905993
0.0499448
-0.0083968
0.0503135
-0.00794948
0.0508077
-0.00628251
0.0511848
-0.00480908
0.0518351
-0.00243266
0.0523781
0.000103114
0.0533263
0.00265161
0.0539138
0.00580508
0.0545312
0.00795311
0.0550383
0.0105404
0.0548385
0.012038
0.0545953
0.0131998
0.0540261
0.0135203
0.0526403
0.0136455
0.051181
0.0114899
0.0489346
0.0107573
0.0458058
0.00774977
0.0426255
0.00432659
0.0366944
0.000837849
0.0280157
-0.00528768
0.015848
-0.0150312
-0.036556
0.000216893
0.046513
0.00678166
-0.046714
0.0463733
0.00632175
0.0462496
0.00600383
0.0461904
0.00541066
0.0461538
0.00477811
0.0462011
0.00382607
0.046277
0.00300456
0.0464174
0.00185503
0.0466255
0.000689413
0.0468569
-0.000571527
0.047119
-0.00195762
0.0474441
-0.00338002
0.0478005
-0.00475164
0.0481425
-0.00623587
0.0485276
-0.00733474
0.0488908
-0.00855011
0.0493174
-0.00895955
0.049679
-0.00942151
0.0501288
-0.00884663
0.0504549
-0.00827556
0.0510116
-0.00683919
0.0513704
-0.00516788
0.052112
-0.00317428
0.0526245
-0.000409401
0.0534607
0.00181549
0.0543906
0.00487514
0.0549604
0.00738333
0.0557233
0.00977745
0.0559475
0.0118138
0.0558843
0.013263
0.0556177
0.0137869
0.0545649
0.0146983
0.0531233
0.0129315
0.0516986
0.012182
0.0488497
0.0105987
0.0461502
0.00702608
0.0423905
0.00459753
0.0357938
0.00130903
0.0251192
-0.00435663
-0.0206865
0.00924969
0.0466267
0.00696478
-0.0468099
0.0464904
0.00645805
0.0464045
0.00608976
0.0463667
0.00544846
0.0463613
0.00478349
0.046407
0.00378039
0.0465533
0.00285825
0.0466827
0.00172563
0.046905
0.000467132
0.0471481
-0.000814637
0.0474544
-0.00226392
0.0477565
-0.00368212
0.0481331
-0.00512823
0.0484414
-0.00654413
0.048856
-0.00774936
0.0491477
-0.00884177
0.0495759
-0.00938777
0.0498507
-0.00969636
0.050386
-0.0093819
0.0506615
-0.00855108
0.0512591
-0.00743683
0.0515887
-0.00549741
0.0522905
-0.00387612
0.0530346
-0.00115349
0.0536974
0.00115268
0.0547652
0.00380731
0.0555221
0.0066265
0.0563784
0.0089211
0.0569197
0.0112726
0.0571529
0.0130297
0.0571743
0.0137655
0.0567151
0.0151575
0.0553869
0.0142598
0.0542278
0.0133411
0.0521115
0.0127149
0.0493913
0.00974625
0.0465469
0.00744198
0.0423756
0.0054803
0.0350693
0.00294967
-0.00762092
0.0220038
0.0464868
0.00711497
-0.046637
0.0463817
0.00656313
0.0463445
0.00612698
0.0463408
0.00545218
0.0463818
0.00474246
0.0464697
0.00369248
0.0466457
0.00268221
0.0468141
0.00155727
0.0470819
0.000199284
0.0473243
-0.00105699
0.0476998
-0.00263948
0.0479821
-0.00396438
0.048393
-0.00553916
0.0486788
-0.0068299
0.0491465
-0.00821703
0.0493808
-0.00907612
0.049865
-0.00987195
0.0500714
-0.0099027
0.0505565
-0.00986708
0.0508527
-0.00884728
0.0513926
-0.00797672
0.0519012
-0.00600599
0.0524443
-0.00441917
0.0533357
-0.00204496
0.0540207
0.000467738
0.0551
0.00272802
0.0560349
0.00569153
0.0570307
0.00792534
0.0578532
0.0104501
0.0582903
0.0125926
0.0585602
0.0134955
0.058611
0.0151068
0.0577076
0.0151632
0.0567239
0.0143249
0.0552574
0.0141814
0.0529149
0.0120888
0.050629
0.00972781
0.0481769
0.00793241
0.0436948
0.00743183
0.000517272
0.0355566
0.046684
0.00725257
-0.0468216
0.0466064
0.00664074
0.0465881
0.0061453
0.0465784
0.00546189
0.0466768
0.00464402
0.0467739
0.00359546
0.0469594
0.0024967
0.0471515
0.00136516
0.0474704
-0.000119658
0.0476895
-0.00127608
0.0480947
-0.00304462
0.0483538
-0.00422351
0.0488151
-0.00600044
0.0490455
-0.00706034
0.0495091
-0.00868058
0.0497237
-0.00929071
0.0501545
-0.0103028
0.050419
-0.0101672
0.050775
-0.010223
0.051147
-0.00921935
0.051546
-0.0083757
0.0521734
-0.00663333
0.0526547
-0.00490054
0.053621
-0.00301121
0.0543976
-0.000308884
0.0554596
0.00166605
0.0565902
0.00456093
0.0575907
0.00692483
0.0587438
0.0092969
0.0595564
0.0117801
0.0598859
0.013166
0.0603201
0.0146726
0.0599764
0.0155068
0.0592728
0.0150285
0.0583409
0.0151133
0.05645
0.0139797
0.0541616
0.0120162
0.0525711
0.00952285
0.0497472
0.0102558
0.00517449
0.04509
0.0465864
0.00733887
-0.0466727
0.0465448
0.00668228
0.0465458
0.00614436
0.0466029
0.00540477
0.0467342
0.0045127
0.046851
0.00347871
0.0471138
0.00223385
0.0472924
0.00118663
0.0476746
-0.000501933
0.0479215
-0.001523
0.0483474
-0.00347051
0.0486218
-0.00449786
0.0490782
-0.00645687
0.0493807
-0.00736285
0.0497959
-0.00909572
0.0500571
-0.00955195
0.0504071
-0.0106529
0.0507097
-0.0104698
0.0509638
-0.0104771
0.0514071
-0.00966267
0.0517084
-0.00867695
0.0524001
-0.00732502
0.0529185
-0.00541893
0.0537582
-0.00385098
0.0548067
-0.0013574
0.0557511
0.000721697
0.0570521
0.0032599
0.0583068
0.00567018
0.0594651
0.00813863
0.0606944
0.0105508
0.0614741
0.0123863
0.0620894
0.0140573
0.0621539
0.0154423
0.0619358
0.0152466
0.0615122
0.0155369
0.0602594
0.0152326
0.0578017
0.0144739
0.0563154
0.0110091
0.0547362
0.0118349
0.00821824
0.0516925
0.0468929
0.00742501
-0.046979
0.0468806
0.00669456
0.0469017
0.00612324
0.0469929
0.0053136
0.0471441
0.00436148
0.0472606
0.00336224
0.0475725
0.00192191
0.0477894
0.000969732
0.0481115
-0.000823985
0.0484399
-0.00185148
0.0487809
-0.00381142
0.0491544
-0.00487139
0.0495079
-0.00681041
0.0498551
-0.00771001
0.0502076
-0.00944823
0.0504989
-0.00984325
0.0507516
-0.0109056
0.0510828
-0.0108009
0.051263
-0.0106573
0.0517251
-0.0101248
0.0519656
-0.00891748
0.0525687
-0.00792811
0.0532491
-0.00609931
0.0539561
-0.00455797
0.0550183
-0.00241966
0.0561876
-0.000447588
0.0574823
0.00196518
0.0588038
0.00434872
0.0603492
0.00659327
0.0616725
0.00922743
0.0626866
0.0113723
0.0639238
0.0128201
0.0644372
0.0149289
0.0641954
0.0154884
0.0640968
0.0156355
0.0642073
0.0151221
0.0624534
0.0162277
0.0602681
0.0131944
0.0588118
0.0132913
0.0106966
0.0563334
0.0467829
0.00741261
-0.0467705
0.0468067
0.00667075
0.0469239
0.00600609
0.0470474
0.00519005
0.0472726
0.00413631
0.0474423
0.00319255
0.0477017
0.00166247
0.0480904
0.000581053
0.0483599
-0.0010935
0.0487891
-0.00228067
0.0490796
-0.0041019
0.0495507
-0.0053425
0.0498472
-0.00710693
0.0502778
-0.00814061
0.0504982
-0.00966861
0.050896
-0.010241
0.0510409
-0.0110506
0.0513173
-0.0110773
0.0515722
-0.0109123
0.0518913
-0.0104439
0.052258
-0.00928421
0.0527667
-0.00843679
0.0534219
-0.00675447
0.0541842
-0.00532027
0.0552648
-0.00350035
0.0563672
-0.00154993
0.0578993
0.000433093
0.0593799
0.00286808
0.0608849
0.00508828
0.0628388
0.00727351
0.0642078
0.0100033
0.0653064
0.0117214
0.0666941
0.0135412
0.0674462
0.0147363
0.066948
0.0161336
0.0671583
0.0149118
0.067122
0.016264
0.065621
0.0146955
0.0640908
0.0148214
0.0129556
0.0618317
0.0472878
0.0073557
-0.0472309
0.0473438
0.00661475
0.047523
0.00582686
0.0476528
0.00506027
0.0478396
0.00394949
0.0481513
0.00288088
0.0483754
0.00143837
0.048751
0.000205421
0.0489671
-0.00130956
0.0494472
-0.00276077
0.0497565
-0.00441119
0.050198
-0.00578406
0.0504816
-0.00739049
0.050883
-0.00854203
0.0510699
-0.00985547
0.05142
-0.0105911
0.0515482
-0.0111788
0.0517942
-0.0113233
0.0519866
-0.0111046
0.0522134
-0.0106707
0.0525921
-0.00966292
0.0529475
-0.00879221
0.0536848
-0.00749184
0.0543688
-0.00600419
0.0554379
-0.00456952
0.0566794
-0.00279136
0.0580616
-0.000949099
0.059856
0.00107367
0.061548
0.00339626
0.0634214
0.00540012
0.0654295
0.00799524
0.0671867
0.00996424
0.0682956
0.0124322
0.0699178
0.0131141
0.0705436
0.0155079
0.0704131
0.0150423
0.0706703
0.0160067
0.0702547
0.0151111
0.0694527
0.0156235
0.014489
0.0679193
0.0471108
0.00725834
-0.0470134
0.0472747
0.00645084
0.0474268
0.00567472
0.0477184
0.00476871
0.0479773
0.00369057
0.048382
0.00247615
0.048637
0.00118343
0.0490598
-0.000217352
0.0494515
-0.00170131
0.0498916
-0.00320084
0.0502887
-0.00480833
0.0506724
-0.00616778
0.0509972
-0.00771521
0.0513344
-0.00887923
0.0515667
-0.0100878
0.0518334
-0.0108579
0.0519803
-0.0113256
0.0521582
-0.0115012
0.0523422
-0.0112886
0.0524903
-0.0108187
0.0528661
-0.0100387
0.0532399
-0.00916608
0.0538401
-0.00809197
0.0546361
-0.00680025
0.0555934
-0.00552682
0.0568301
-0.00402803
0.0582561
-0.00237508
0.0601103
-0.000780585
0.0619791
0.00152752
0.0641418
0.00323737
0.066179
0.00595804
0.0687253
0.00741794
0.0704919
0.0106657
0.0720822
0.0115237
0.0736524
0.0139378
0.0744276
0.0142671
0.0748874
0.0155469
0.0748967
0.0151018
0.0748205
0.0156996
0.0152733
0.0740363
0.047879
0.00720357
-0.0478242
0.0480464
0.00628335
0.0482472
0.00547394
0.0485563
0.00445961
0.0488485
0.00339837
0.049167
0.00215769
0.049559
0.000791402
0.0499104
-0.000568715
0.050376
-0.0021669
0.0507622
-0.00358706
0.051165
-0.00521119
0.0515437
-0.00654641
0.0518643
-0.00803581
0.0521597
-0.00917461
0.0523558
-0.010284
0.052541
-0.0110431
0.0526079
-0.0113925
0.0527237
-0.011617
0.0528149
-0.0113797
0.052956
-0.0109599
0.0531827
-0.0102654
0.0535174
-0.00950078
0.0540449
-0.00861952
0.0548665
-0.00762178
0.0556665
-0.00632682
0.0570114
-0.00537298
0.0584068
-0.00377041
0.06031
-0.00268382
0.0621319
-0.000294363
0.0645601
0.000809167
0.0669765
0.00354164
0.0694926
0.00490186
0.0720374
0.00812084
0.0742899
0.00927122
0.0763331
0.0118946
0.0778166
0.0127835
0.0790324
0.0143311
0.07958
0.0145543
0.0800917
0.0151879
0.0155603
0.0798047
0.047858
0.00700531
-0.0476597
0.0480838
0.00605756
0.048397
0.00516067
0.0486848
0.00417184
0.0491247
0.00295851
0.0494555
0.0018269
0.0498937
0.000353198
0.0503723
-0.00104739
0.0508345
-0.00262902
0.0513329
-0.00408551
0.0516854
-0.00556366
0.0521659
-0.00702697
0.0524382
-0.00830805
0.0527423
-0.00947871
0.0528909
-0.0104326
0.0530831
-0.0112353
0.0530776
-0.0113869
0.053101
-0.0116405
0.0532169
-0.0114956
0.0532909
-0.0110339
0.0533534
-0.0103278
0.0538363
-0.00998362
0.0541824
-0.0089657
0.0549318
-0.00837115
0.0557242
-0.00711919
0.0571107
-0.00675948
0.0584489
-0.00510858
0.0601988
-0.00443374
0.0623474
-0.00244297
0.064727
-0.00157048
0.06736
0.000908679
0.0701611
0.00210078
0.0733196
0.00496235
0.0760812
0.00650956
0.0789142
0.00906163
0.0811347
0.010563
0.0831845
0.0122813
0.0843722
0.0133666
0.0855969
0.0139632
0.0151174
0.0860398
0.0490757
0.00673572
-0.0488062
0.0493473
0.00578603
0.0496988
0.00480914
0.0500452
0.00382542
0.0503174
0.00268633
0.0508133
0.00133096
0.0511965
-2.99279e-05
0.0517679
-0.00161887
0.0521226
-0.00298366
0.0526524
-0.00461537
0.0529052
-0.00581639
0.0533966
-0.00751841
0.0536044
-0.00851582
0.0537868
-0.0096611
0.0538781
-0.0105239
0.0539469
-0.0113041
0.0537694
-0.0112094
0.053851
-0.0117221
0.0536917
-0.0113363
0.0537293
-0.0110715
0.0537636
-0.0103622
0.0540997
-0.0103197
0.054361
-0.00922703
0.054988
-0.00899814
0.0559154
-0.00804664
0.0569063
-0.00775029
0.0583635
-0.00656582
0.0599882
-0.00605842
0.0622254
-0.00468015
0.0643906
-0.00373568
0.067333
-0.00203372
0.0702717
-0.000837994
0.0738398
0.00139427
0.0771292
0.00322013
0.0808604
0.00533049
0.0839145
0.00750893
0.0869771
0.00921874
0.0891242
0.0112194
0.0910787
0.0120088
0.0140111
0.092185
0.0489759
0.00638027
-0.0486204
0.0494631
0.00529886
0.0499084
0.00436376
0.0505479
0.00318591
0.0509918
0.0022425
0.0516753
0.000647414
0.0520688
-0.000423408
0.0526585
-0.00220863
0.0531241
-0.00344917
0.0536204
-0.00511168
0.0539563
-0.00615235
0.0543592
-0.00792128
0.0544512
-0.00860785
0.0547298
-0.00993965
0.05467
-0.0104641
0.0545738
-0.011208
0.0545214
-0.011157
0.0543643
-0.011565
0.0541522
-0.0111242
0.0540744
-0.0109937
0.0542001
-0.0104879
0.0541533
-0.0102729
0.0546203
-0.00969399
0.0550443
-0.00942212
0.0559817
-0.00898411
0.0567455
-0.00851402
0.058259
-0.00807936
0.0596465
-0.00744595
0.0618183
-0.00685189
0.0639294
-0.00584678
0.0668994
-0.00500374
0.0697762
-0.00371477
0.0736279
-0.00245746
0.0774185
-0.000570425
0.0817434
0.00100553
0.0858141
0.00343821
0.0899669
0.00506596
0.0934466
0.00773975
0.0965244
0.00893091
0.011932
0.0986035
0.0507496
0.00608543
-0.0504548
0.051206
0.00484245
0.0515634
0.00400642
0.0520523
0.00269701
0.0525865
0.00170825
0.0532821
-4.81503e-05
0.0538217
-0.000963047
0.0544323
-0.00281925
0.0548465
-0.00386332
0.0553093
-0.00557452
0.0557647
-0.00660771
0.0559083
-0.00806484
0.0560915
-0.00879107
0.0560871
-0.00993528
0.0560281
-0.0104052
0.0557251
-0.0109049
0.0556385
-0.0110704
0.0551893
-0.0111157
0.0550278
-0.0109627
0.0546884
-0.0106543
0.0547454
-0.0105449
0.0545742
-0.0101017
0.0549464
-0.0100661
0.0551903
-0.009666
0.0560111
-0.00980492
0.0567701
-0.00927301
0.0580538
-0.00936306
0.05931
-0.00870221
0.0611418
-0.00868365
0.0631736
-0.00787853
0.0658772
-0.00770739
0.0688109
-0.00664851
0.0725255
-0.00617204
0.0766129
-0.00465781
0.0812963
-0.00367791
0.0862976
-0.00156306
0.0916882
-0.000324644
0.0968453
0.00258263
0.101699
0.00407723
0.008148
0.105483
0.0516936
0.00540763
-0.0510158
0.0524287
0.00410736
0.0531528
0.00328231
0.0538328
0.00201703
0.0545549
0.000986168
0.054928
-0.000421321
0.0556685
-0.00170352
0.0561453
-0.00329604
0.0566824
-0.00440046
0.0570267
-0.00591879
0.0573765
-0.0069575
0.0573946
-0.00808294
0.057555
-0.00895149
0.057293
-0.00967326
0.057163
-0.0102752
0.0567492
-0.0104911
0.0564311
-0.0107524
0.0559155
-0.0106
0.0555958
-0.0106431
0.0551801
-0.0102387
0.054962
-0.0103268
0.0548633
-0.0100031
0.0550242
-0.010227
0.0553053
-0.00994704
0.0557916
-0.0102913
0.0565941
-0.0100756
0.0575748
-0.0103437
0.0588309
-0.00995833
0.0602927
-0.0101454
0.0621107
-0.00969653
0.0642739
-0.00987059
0.0669775
-0.00935217
0.0702288
-0.00942336
0.0742122
-0.00864113
0.0789741
-0.00843981
0.0843497
-0.00693873
0.090219
-0.00619388
0.0967384
-0.00393678
0.103625
-0.00280943
0.00119441
0.110579
0.0539525
0.00494978
-0.0534946
0.054469
0.00359087
0.0551379
0.00261336
0.0558229
0.00133203
0.0566971