/*--------------------------------*- C++ -*----------------------------------*\
| =========                 |                                                 |
| \\      /  F ield         | OpenFOAM: The Open Source CFD Toolbox           |
|  \\    /   O peration     | Version:  2406                                  |
|   \\  /    A nd           | Website:  www.openfoam.com                      |
|    \\/     M anipulation  |                                                 |
\*---------------------------------------------------------------------------*/
FoamFile
{
    version     2.0;
    format      ascii;
    arch        "LSB;label=32;scalar=64";
    class       volScalarField;
    location    "2020";
    object      p;
}
// * * * * * * * * * * * * * * * * * * * * * * * * * * * * * * * * * * * * * //

dimensions      [0 2 -2 0 0 0 0];

internalField   nonuniform List<scalar> 
16384
(
1.266337e-11
6.955674e-10
1.429909e-09
1.848762e-09
1.762253e-09
1.07612e-09
-2.439255e-10
-2.193027e-09
-4.742419e-09
-7.849902e-09
-1.146712e-08
-1.554471e-08
-2.003596e-08
-2.489944e-08
-3.010063e-08
-3.561289e-08
-4.141775e-08
-4.750467e-08
-5.387036e-08
-6.051791e-08
-6.745555e-08
-7.469533e-08
-8.225181e-08
-9.014058e-08
-9.837706e-08
-1.069753e-07
-1.159469e-07
-1.253002e-07
-1.350393e-07
-1.451637e-07
-1.556677e-07
-1.665396e-07
-1.777616e-07
-1.893093e-07
-2.011517e-07
-2.1325e-07
-2.255585e-07
-2.380231e-07
-2.50582e-07
-2.631655e-07
-2.756953e-07
-2.880857e-07
-3.002429e-07
-3.120662e-07
-3.234481e-07
-3.342756e-07
-3.444309e-07
-3.537929e-07
-3.622387e-07
-3.696451e-07
-3.758907e-07
-3.808577e-07
-3.844344e-07
-3.865173e-07
-3.870135e-07
-3.858434e-07
-3.829428e-07
-3.782654e-07
-3.717851e-07
-3.634981e-07
-3.534246e-07
-3.416104e-07
-3.281283e-07
-3.130783e-07
-2.965887e-07
-2.78815e-07
-2.599396e-07
-2.401703e-07
-2.197386e-07
-1.988971e-07
-1.779161e-07
-1.570796e-07
-1.366812e-07
-1.170187e-07
-9.838928e-08
-8.108365e-08
-6.538037e-08
-5.153999e-08
-3.979943e-08
-3.036664e-08
-2.341575e-08
-1.908279e-08
-1.746233e-08
-1.860503e-08
-2.251621e-08
-2.915559e-08
-3.843816e-08
-5.023638e-08
-6.438327e-08
-8.067576e-08
-9.888162e-08
-1.187454e-07
-1.399928e-07
-1.623383e-07
-1.854915e-07
-2.091639e-07
-2.330751e-07
-2.569583e-07
-2.805649e-07
-3.036692e-07
-3.260704e-07
-3.475959e-07
-3.681016e-07
-3.874726e-07
-4.056225e-07
-4.224918e-07
-4.380464e-07
-4.522749e-07
-4.651859e-07
-4.768047e-07
-4.871705e-07
-4.963328e-07
-5.043481e-07
-5.112769e-07
-5.171806e-07
-5.221189e-07
-5.261477e-07
-5.293173e-07
-5.316724e-07
-5.332525e-07
-5.340951e-07
-5.342411e-07
-5.337449e-07
-5.326889e-07
-5.312053e-07
-5.295085e-07
-5.279477e-07
-5.269688e-07
-6.518178e-10
2.529306e-11
6.251661e-10
8.712368e-10
6.509609e-10
-1.079489e-10
-1.438272e-09
-3.341002e-09
-5.796205e-09
-8.77127e-09
-1.222694e-08
-1.612195e-08
-2.041651e-08
-2.50747e-08
-3.006625e-08
-3.536752e-08
-4.09619e-08
-4.683966e-08
-5.299752e-08
-5.943788e-08
-6.616779e-08
-7.319779e-08
-8.054077e-08
-8.821065e-08
-9.622135e-08
-1.045856e-07
-1.133141e-07
-1.224146e-07
-1.318911e-07
-1.417432e-07
-1.519658e-07
-1.625485e-07
-1.734748e-07
-1.847224e-07
-1.962623e-07
-2.080585e-07
-2.200677e-07
-2.322394e-07
-2.445149e-07
-2.56828e-07
-2.691043e-07
-2.812618e-07
-2.932108e-07
-3.048543e-07
-3.160891e-07
-3.268057e-07
-3.368904e-07
-3.462253e-07
-3.54691e-07
-3.62167e-07
-3.685345e-07
-3.736778e-07
-3.774867e-07
-3.798588e-07
-3.807017e-07
-3.799356e-07
-3.774954e-07
-3.733336e-07
-3.674218e-07
-3.597535e-07
-3.503454e-07
-3.392394e-07
-3.265036e-07
-3.122328e-07
-2.965494e-07
-2.79603e-07
-2.615688e-07
-2.426477e-07
-2.230641e-07
-2.030629e-07
-1.829068e-07
-1.628721e-07
-1.432445e-07
-1.243144e-07
-1.063716e-07
-8.969979e-08
-7.457093e-08
-6.12395e-08
-4.993696e-08
-4.086648e-08
-3.419818e-08
-3.006493e-08
-2.855909e-08
-2.973003e-08
-3.358284e-08
-4.007802e-08
-4.913249e-08
-6.062164e-08
-7.438268e-08
-9.021904e-08
-1.079035e-07
-1.271859e-07
-1.478003e-07
-1.694696e-07
-1.919124e-07
-2.148497e-07
-2.380109e-07
-2.611387e-07
-2.839944e-07
-3.06361e-07
-3.280465e-07
-3.488859e-07
-3.687417e-07
-3.875051e-07
-4.050942e-07
-4.214532e-07
-4.3655e-07
-4.503743e-07
-4.629347e-07
-4.742558e-07
-4.843749e-07
-4.933393e-07
-5.012029e-07
-5.080236e-07
-5.138606e-07
-5.187718e-07
-5.228124e-07
-5.260333e-07
-5.284811e-07
-5.301987e-07
-5.31228e-07
-5.316147e-07
-5.314151e-07
-5.307076e-07
-5.296075e-07
-5.282834e-07
-5.26969e-07
-5.259868e-07
-1.384283e-09
-5.712794e-10
2.98669e-11
1.906668e-10
-1.133532e-10
-9.226657e-10
-2.260371e-09
-4.126435e-09
-6.504432e-09
-9.367277e-09
-1.268183e-08
-1.641276e-08
-2.052556e-08
-2.49889e-08
-2.977619e-08
-3.486665e-08
-4.024562e-08
-4.590463e-08
-5.184097e-08
-5.805707e-08
-6.455962e-08
-7.135851e-08
-7.84658e-08
-8.589461e-08
-9.365812e-08
-1.017685e-07
-1.102362e-07
-1.190689e-07
-1.282709e-07
-1.378429e-07
-1.477809e-07
-1.580759e-07
-1.687138e-07
-1.796743e-07
-1.909313e-07
-2.024517e-07
-2.141957e-07
-2.261159e-07
-2.381576e-07
-2.502582e-07
-2.623473e-07
-2.743465e-07
-2.8617e-07
-2.977244e-07
-3.089097e-07
-3.196198e-07
-3.297435e-07
-3.391656e-07
-3.477683e-07
-3.554327e-07
-3.620407e-07
-3.674771e-07
-3.716312e-07
-3.743997e-07
-3.756888e-07
-3.754164e-07
-3.735149e-07
-3.699334e-07
-3.646399e-07
-3.576235e-07
-3.488965e-07
-3.384957e-07
-3.264839e-07
-3.129505e-07
-2.980124e-07
-2.818131e-07
-2.645219e-07
-2.463342e-07
-2.274688e-07
-2.081653e-07
-1.886807e-07
-1.692865e-07
-1.502636e-07
-1.318979e-07
-1.144752e-07
-9.827543e-08
-8.356739e-08
-7.060271e-08
-5.961044e-08
-5.07918e-08
-4.431535e-08
-4.031287e-08
-3.887599e-08
-4.00538e-08
-4.38515e-08
-5.023013e-08
-5.910757e-08
-7.03606e-08
-8.382815e-08
-9.931568e-08
-1.166e-07
-1.354344e-07
-1.555568e-07
-1.766948e-07
-1.985719e-07
-2.209149e-07
-2.434593e-07
-2.659544e-07
-2.881685e-07
-3.098916e-07
-3.30939e-07
-3.511524e-07
-3.704011e-07
-3.885818e-07
-4.056184e-07
-4.2146e-07
-4.360785e-07
-4.494665e-07
-4.616349e-07
-4.726093e-07
-4.824279e-07
-4.911377e-07
-4.987922e-07
-5.054486e-07
-5.111652e-07
-5.159996e-07
-5.20007e-07
-5.232389e-07
-5.257428e-07
-5.275633e-07
-5.287432e-07
-5.293271e-07
-5.29366e-07
-5.289244e-07
-5.280891e-07
-5.269675e-07
-5.256561e-07
-5.24422e-07
-1.811602e-09
-8.209891e-10
-1.343474e-10
2.203342e-11
-3.112097e-10
-1.145026e-09
-2.488686e-09
-4.335367e-09
-6.666377e-09
-9.45512e-09
-1.267041e-08
-1.627949e-08
-2.025069e-08
-2.455544e-08
-2.916974e-08
-3.407509e-08
-3.925876e-08
-4.471382e-08
-5.043886e-08
-5.643727e-08
-6.271647e-08
-6.928689e-08
-7.616107e-08
-8.335255e-08
-9.087493e-08
-9.874098e-08
-1.069617e-07
-1.155459e-07
-1.244992e-07
-1.338237e-07
-1.435173e-07
-1.535734e-07
-1.639802e-07
-1.747205e-07
-1.85771e-07
-1.971023e-07
-2.086778e-07
-2.204539e-07
-2.323792e-07
-2.443949e-07
-2.564336e-07
-2.684203e-07
-2.802717e-07
-2.91897e-07
-3.031982e-07
-3.140704e-07
-3.244033e-07
-3.340819e-07
-3.429879e-07
-3.510014e-07
-3.580025e-07
-3.638735e-07
-3.68501e-07
-3.717781e-07
-3.736069e-07
-3.73901e-07
-3.725881e-07
-3.696122e-07
-3.649362e-07
-3.585439e-07
-3.504424e-07
-3.406632e-07
-3.29264e-07
-3.163297e-07
-3.019725e-07
-2.863313e-07
-2.695717e-07
-2.518861e-07
-2.334903e-07
-2.146214e-07
-1.95535e-07
-1.765009e-07
-1.577992e-07
-1.397157e-07
-1.225363e-07
-1.065416e-07
-9.200135e-08
-7.916848e-08
-6.827358e-08
-5.95195e-08
-5.307651e-08
-4.907799e-08
-4.761706e-08
-4.874405e-08
-5.246511e-08
-5.874192e-08
-6.749262e-08
-7.859395e-08
-9.188447e-08
-1.071689e-07
-1.242232e-07
-1.428008e-07
-1.626374e-07
-1.834613e-07
-2.049975e-07
-2.269729e-07
-2.491241e-07
-2.712023e-07
-2.929783e-07
-3.142457e-07
-3.348235e-07
-3.545581e-07
-3.733238e-07
-3.910226e-07
-4.075835e-07
-4.229612e-07
-4.37133e-07
-4.500963e-07
-4.618661e-07
-4.724721e-07
-4.819554e-07
-4.903659e-07
-4.977592e-07
-5.041942e-07
-5.097306e-07
-5.144271e-07
-5.183397e-07
-5.215206e-07
-5.240174e-07
-5.258736e-07
-5.271292e-07
-5.278225e-07
-5.279929e-07
-5.276847e-07
-5.26953e-07
-5.258483e-07
-5.243526e-07
-5.227441e-07
-1.74199e-09
-6.117287e-10
1.546904e-10
3.210511e-10
-2.943439e-11
-8.851253e-10
-2.242223e-09
-4.085627e-09
-6.392038e-09
-9.132847e-09
-1.227647e-08
-1.579084e-08
-1.964559e-08
-2.381385e-08
-2.82736e-08
-3.300826e-08
-3.800705e-08
-4.326503e-08
-4.878259e-08
-5.456489e-08
-6.062099e-08
-6.696287e-08
-7.360455e-08
-8.056101e-08
-8.784729e-08
-9.547775e-08
-1.034652e-07
-1.118202e-07
-1.205506e-07
-1.296608e-07
-1.391515e-07
-1.490191e-07
-1.59255e-07
-1.698454e-07
-1.807709e-07
-1.920054e-07
-2.035163e-07
-2.152637e-07
-2.271996e-07
-2.392681e-07
-2.51405e-07
-2.635373e-07
-2.755836e-07
-2.874539e-07
-2.990507e-07
-3.102686e-07
-3.20996e-07
-3.31116e-07
-3.405076e-07
-3.490472e-07
-3.566109e-07
-3.630763e-07
-3.683246e-07
-3.722434e-07
-3.747288e-07
-3.756884e-07
-3.750435e-07
-3.727321e-07
-3.68711e-07
-3.629583e-07
-3.554754e-07
-3.462889e-07
-3.354518e-07
-3.230447e-07
-3.09176e-07
-2.939816e-07
-2.776248e-07
-2.602963e-07
-2.422108e-07
-2.23605e-07
-2.047344e-07
-1.858697e-07
-1.672926e-07
-1.492909e-07
-1.32153e-07
-1.16163e-07
-1.015939e-07
-8.87028e-08
-7.772424e-08
-6.88653e-08
-6.230035e-08
-5.816669e-08
-5.656095e-08
-5.753647e-08
-6.110178e-08
-6.72202e-08
-7.581072e-08
-8.675009e-08
-9.987609e-08
-1.149919e-07
-1.318713e-07
-1.502649e-07
-1.699066e-07
-1.905197e-07
-2.118255e-07
-2.3355e-07
-2.554276e-07
-2.772078e-07
-2.986606e-07
-3.195798e-07
-3.397861e-07
-3.59128e-07
-3.774833e-07
-3.947581e-07
-4.108857e-07
-4.258262e-07
-4.395627e-07
-4.520984e-07
-4.634541e-07
-4.736647e-07
-4.827763e-07
-4.908434e-07
-4.979257e-07
-5.040854e-07
-5.093853e-07
-5.138865e-07
-5.176465e-07
-5.207184e-07
-5.231495e-07
-5.249814e-07
-5.262495e-07
-5.26984e-07
-5.27211e-07
-5.269541e-07
-5.262391e-07
-5.250692e-07
-5.23336e-07
-5.213506e-07
-1.072717e-09
1.35373e-10
9.421215e-10
1.102385e-09
7.244096e-10
-1.644737e-10
-1.549594e-09
-3.407949e-09
-5.710944e-09
-8.426733e-09
-1.152209e-08
-1.496448e-08
-1.872392e-08
-2.277461e-08
-2.709603e-08
-3.167343e-08
-3.649816e-08
-4.156758e-08
-4.688453e-08
-5.245664e-08
-5.829542e-08
-6.441533e-08
-7.083281e-08
-7.756536e-08
-8.463061e-08
-9.20455e-08
-9.982559e-08
-1.079844e-07
-1.16533e-07
-1.25479e-07
-1.348269e-07
-1.445767e-07
-1.54724e-07
-1.65259e-07
-1.761664e-07
-1.874243e-07
-1.990039e-07
-2.108687e-07
-2.229739e-07
-2.352661e-07
-2.476829e-07
-2.601524e-07
-2.725932e-07
-2.849148e-07
-2.970178e-07
-3.087943e-07
-3.201291e-07
-3.309008e-07
-3.409831e-07
-3.502467e-07
-3.585611e-07
-3.657968e-07
-3.718279e-07
-3.765345e-07
-3.798054e-07
-3.815408e-07
-3.816549e-07
-3.80079e-07
-3.767633e-07
-3.716803e-07
-3.648259e-07
-3.56222e-07
-3.459173e-07
-3.33989e-07
-3.205425e-07
-3.057117e-07
-2.896592e-07
-2.725745e-07
-2.546723e-07
-2.361899e-07
-2.173841e-07
-1.98528e-07
-1.799059e-07
-1.618091e-07
-1.445305e-07
-1.283587e-07
-1.135724e-07
-1.004342e-07
-8.918493e-08
-8.003796e-08
-7.317389e-08
-6.873604e-08
-6.682669e-08
-6.750422e-08
-7.078141e-08
-7.662487e-08
-8.495582e-08
-9.565207e-08
-1.085513e-07
-1.234552e-07
-1.401353e-07
-1.583388e-07
-1.777954e-07
-1.982244e-07
-2.193417e-07
-2.408663e-07
-2.625292e-07
-2.840765e-07
-3.052746e-07
-3.259146e-07
-3.458156e-07
-3.648264e-07
-3.828257e-07
-3.997222e-07
-4.154526e-07
-4.299808e-07
-4.432955e-07
-4.554059e-07
-4.663388e-07
-4.761354e-07
-4.848479e-07
-4.925366e-07
-4.992666e-07
-5.051051e-07
-5.10119e-07
-5.143728e-07
-5.179266e-07
-5.208348e-07
-5.231447e-07
-5.248957e-07
-5.261189e-07
-5.268364e-07
-5.270617e-07
-5.268002e-07
-5.26053e-07
-5.247864e-07
-5.228242e-07
-5.20512e-07
2.484946e-10
1.467971e-09
2.26369e-09
2.387303e-09
1.959367e-09
1.017454e-09
-4.152499e-10
-2.308868e-09
-4.62962e-09
-7.342081e-09
-1.041082e-08
-1.380221e-08
-1.748618e-08
-2.14377e-08
-2.563752e-08
-3.007279e-08
-3.473727e-08
-3.963109e-08
-4.476008e-08
-5.013503e-08
-5.577073e-08
-6.168509e-08
-6.789807e-08
-7.443071e-08
-8.130428e-08
-8.853951e-08
-9.615586e-08
-1.041709e-07
-1.126e-07
-1.214552e-07
-1.307456e-07
-1.404759e-07
-1.506464e-07
-1.612522e-07
-1.722822e-07
-1.837188e-07
-1.955368e-07
-2.077028e-07
-2.201743e-07
-2.328993e-07
-2.458156e-07
-2.588508e-07
-2.719217e-07
-2.849346e-07
-2.977861e-07
-3.103632e-07
-3.225444e-07
-3.342013e-07
-3.452e-07
-3.554027e-07
-3.646705e-07
-3.728651e-07
-3.798517e-07
-3.855018e-07
-3.896958e-07
-3.923257e-07
-3.932985e-07
-3.925385e-07
-3.899896e-07
-3.856187e-07
-3.794167e-07
-3.714012e-07
-3.616173e-07
-3.501387e-07
-3.370694e-07
-3.225417e-07
-3.067174e-07
-2.897857e-07
-2.719616e-07
-2.534833e-07
-2.346098e-07
-2.156166e-07
-1.967916e-07
-1.784306e-07
-1.608313e-07
-1.442886e-07
-1.290877e-07
-1.154986e-07
-1.037702e-07
-9.412393e-08
-8.674883e-08
-8.179661e-08
-7.937758e-08
-7.955761e-08
-8.235614e-08
-8.774542e-08
-9.565104e-08
-1.059538e-07
-1.184927e-07
-1.330697e-07
-1.494543e-07
-1.673909e-07
-1.866047e-07
-2.068097e-07
-2.27716e-07
-2.490368e-07
-2.704946e-07
-2.91829e-07
-3.128019e-07
-3.331994e-07
-3.528364e-07
-3.715588e-07
-3.892441e-07
-4.058012e-07
-4.211688e-07
-4.353128e-07
-4.482257e-07
-4.599222e-07
-4.704352e-07
-4.79812e-07
-4.881113e-07
-4.954e-07
-5.017493e-07
-5.072324e-07
-5.119213e-07
-5.15885e-07
-5.191869e-07
-5.218836e-07
-5.240231e-07
-5.256434e-07
-5.267719e-07
-5.274241e-07
-5.276028e-07
-5.272989e-07
-5.264942e-07
-5.251276e-07
-5.229752e-07
-5.204104e-07
2.243299e-09
3.409614e-09
4.139377e-09
4.188638e-09
3.681495e-09
2.661776e-09
1.159109e-09
-7.909901e-10
-3.150195e-09
-5.879699e-09
-8.941812e-09
-1.230172e-08
-1.592923e-08
-1.979992e-08
-2.389594e-08
-2.820665e-08
-3.272861e-08
-3.746514e-08
-4.242563e-08
-4.762485e-08
-5.308183e-08
-5.881884e-08
-6.486039e-08
-7.123222e-08
-7.796042e-08
-8.50707e-08
-9.258767e-08
-1.005342e-07
-1.089311e-07
-1.17796e-07
-1.271434e-07
-1.369838e-07
-1.473228e-07
-1.581605e-07
-1.694904e-07
-1.812987e-07
-1.935635e-07
-2.062533e-07
-2.193267e-07
-2.327315e-07
-2.464038e-07
-2.602681e-07
-2.742371e-07
-2.882115e-07
-3.02081e-07
-3.157246e-07
-3.290124e-07
-3.418062e-07
-3.539622e-07
-3.653326e-07
-3.757679e-07
-3.851199e-07
-3.932439e-07
-4.000019e-07
-4.052656e-07
-4.08919e-07
-4.108616e-07
-4.110109e-07
-4.09305e-07
-4.057053e-07
-4.001984e-07
-3.927977e-07
-3.835449e-07
-3.725105e-07
-3.597976e-07
-3.455367e-07
-3.298886e-07
-3.130419e-07
-2.952116e-07
-2.766371e-07
-2.575788e-07
-2.383149e-07
-2.191369e-07
-2.003451e-07
-1.822429e-07
-1.651317e-07
-1.493046e-07
-1.350403e-07
-1.225971e-07
-1.122068e-07
-1.04069e-07
-9.83465e-08
-9.516026e-08
-9.458658e-08
-9.665457e-08
-1.013451e-07
-1.085911e-07
-1.182791e-07
-1.30252e-07
-1.443137e-07
-1.602341e-07
-1.777555e-07
-1.965998e-07
-2.164758e-07
-2.370871e-07
-2.581396e-07
-2.793487e-07
-3.004457e-07
-3.211828e-07
-3.413399e-07
-3.60726e-07
-3.791815e-07
-3.965799e-07
-4.128274e-07
-4.27862e-07
-4.416511e-07
-4.541883e-07
-4.654914e-07
-4.755988e-07
-4.845634e-07
-4.924503e-07
-4.993326e-07
-5.052883e-07
-5.103967e-07
-5.147358e-07
-5.183798e-07
-5.213964e-07
-5.238452e-07
-5.257757e-07
-5.272258e-07
-5.282208e-07
-5.287712e-07
-5.288723e-07
-5.285037e-07
-5.276336e-07
-5.261819e-07
-5.238936e-07
-5.2116e-07
4.915649e-09
5.968418e-09
6.577952e-09
6.512805e-09
5.894455e-09
4.77017e-09
3.17431e-09
1.14672e-09
-1.270641e-09
-4.03617e-09
-7.110294e-09
-1.045731e-08
-1.404709e-08
-1.785606e-08
-2.186823e-08
-2.60755e-08
-3.047763e-08
-3.508174e-08
-3.990162e-08
-4.495681e-08
-5.027144e-08
-5.587319e-08
-6.179223e-08
-6.806017e-08
-7.47092e-08
-8.177128e-08
-8.927746e-08
-9.725721e-08
-1.057378e-07
-1.147437e-07
-1.242959e-07
-1.344109e-07
-1.451002e-07
-1.563688e-07
-1.682147e-07
-1.806273e-07
-1.935865e-07
-2.070616e-07
-2.210101e-07
-2.353774e-07
-2.500957e-07
-2.650837e-07
-2.802471e-07
-2.954783e-07
-3.106572e-07
-3.256525e-07
-3.40323e-07
-3.54519e-07
-3.68085e-07
-3.808615e-07
-3.926876e-07
-4.034042e-07
-4.128563e-07
-4.208966e-07
-4.273878e-07
-4.322061e-07
-4.352439e-07
-4.364122e-07
-4.356439e-07
-4.328951e-07
-4.28148e-07
-4.214122e-07
-4.127254e-07
-4.021552e-07
-3.898032e-07
-3.757975e-07
-3.602971e-07
-3.434892e-07
-3.255882e-07
-3.068335e-07
-2.874866e-07
-2.678275e-07
-2.48151e-07
-2.287614e-07
-2.099681e-07
-1.920795e-07
-1.753972e-07
-1.602097e-07
-1.467865e-07
-1.353715e-07
-1.261777e-07
-1.193811e-07
-1.15117e-07
-1.134753e-07
-1.144984e-07
-1.181795e-07
-1.244623e-07
-1.332427e-07
-1.443708e-07
-1.576557e-07
-1.728699e-07
-1.897562e-07
-2.080345e-07
-2.274096e-07
-2.475791e-07
-2.682415e-07
-2.891035e-07
-3.098872e-07
-3.303358e-07
-3.502192e-07
-3.693372e-07
-3.875229e-07
-4.046432e-07
-4.20599e-07
-4.353247e-07
-4.48786e-07
-4.609762e-07
-4.719144e-07
-4.816412e-07
-4.902145e-07
-4.977046e-07
-5.041904e-07
-5.09756e-07
-5.144873e-07
-5.184684e-07
-5.21779e-07
-5.244919e-07
-5.266705e-07
-5.283671e-07
-5.296209e-07
-5.304563e-07
-5.308814e-07
-5.308866e-07
-5.304444e-07
-5.295135e-07
-5.280021e-07
-5.256384e-07
-5.228202e-07
8.258777e-09
9.142061e-09
9.579725e-09
9.360652e-09
8.599098e-09
7.343722e-09
5.632165e-09
3.507222e-09
1.013396e-09
-1.805748e-09
-4.909445e-09
-8.261806e-09
-1.18332e-08
-1.560144e-08
-1.955281e-08
-2.368236e-08
-2.799372e-08
-3.249855e-08
-3.72158e-08
-4.217067e-08
-4.739339e-08
-5.291815e-08
-5.878196e-08
-6.502354e-08
-7.168248e-08
-7.879833e-08
-8.640985e-08
-9.455432e-08
-1.032668e-07
-1.125792e-07
-1.225196e-07
-1.331112e-07
-1.443712e-07
-1.563093e-07
-1.689268e-07
-1.822151e-07
-1.961545e-07
-2.107127e-07
-2.258441e-07
-2.414888e-07
-2.575722e-07
-2.740046e-07
-2.906815e-07
-3.074841e-07
-3.242805e-07
-3.409264e-07
-3.572674e-07
-3.73141e-07
-3.883783e-07
-4.028076e-07
-4.16256e-07
-4.285534e-07
-4.395346e-07
-4.490429e-07
-4.569328e-07
-4.63073e-07
-4.67349e-07
-4.69666e-07
-4.699513e-07
-4.681561e-07
-4.642583e-07
-4.58263e-07
-4.502035e-07
-4.401438e-07
-4.281832e-07
-4.144461e-07
-3.990882e-07
-3.822942e-07
-3.642767e-07
-3.452739e-07
-3.255469e-07
-3.053767e-07
-2.850602e-07
-2.649056e-07
-2.452275e-07
-2.263416e-07
-2.085582e-07
-1.92177e-07
-1.774798e-07
-1.647249e-07
-1.541406e-07
-1.4592e-07
-1.402152e-07
-1.371341e-07
-1.367361e-07
-1.390311e-07
-1.439782e-07
-1.514866e-07
-1.614181e-07
-1.735906e-07
-1.877828e-07
-2.03741e-07
-2.211857e-07
-2.398194e-07
-2.593351e-07
-2.794244e-07
-2.997853e-07
-3.201297e-07
-3.401903e-07
-3.597255e-07
-3.785244e-07
-3.964094e-07
-4.132384e-07
-4.289043e-07
-4.433346e-07
-4.564903e-07
-4.683622e-07
-4.789675e-07
-4.883471e-07
-4.96561e-07
-5.036834e-07
-5.097978e-07
-5.149937e-07
-5.193627e-07
-5.229948e-07
-5.259756e-07
-5.283832e-07
-5.302856e-07
-5.317389e-07
-5.327846e-07
-5.334483e-07
-5.337378e-07
-5.336411e-07
-5.331268e-07
-5.321485e-07
-5.306086e-07
-5.2823e-07
-5.254067e-07
1.225838e-08
1.292014e-08
1.313753e-08
1.272715e-08
1.179219e-08
1.038096e-08
8.532995e-09
6.292668e-09
3.705784e-09
8.16731e-10
-2.333632e-09
-5.709902e-09
-9.283578e-09
-1.303471e-08
-1.695263e-08
-2.103618e-08
-2.529363e-08
-2.974204e-08
-3.44064e-08
-3.931855e-08
-4.451593e-08
-5.004038e-08
-5.5937e-08
-6.225292e-08
-6.903644e-08
-7.633601e-08
-8.419933e-08
-9.26726e-08
-1.017995e-07
-1.116201e-07
-1.2217e-07
-1.334788e-07
-1.455688e-07
-1.584537e-07
-1.721366e-07
-1.866091e-07
-2.018494e-07
-2.178213e-07
-2.344729e-07
-2.517365e-07
-2.695274e-07
-2.877446e-07
-3.062708e-07
-3.249737e-07
-3.437069e-07
-3.623117e-07
-3.806193e-07
-3.984528e-07
-4.156301e-07
-4.319663e-07
-4.472772e-07
-4.613815e-07
-4.741044e-07
-4.852803e-07
-4.947557e-07
-5.023924e-07
-5.080694e-07
-5.116861e-07
-5.131642e-07
-5.1245e-07
-5.095161e-07
-5.043629e-07
-4.970184e-07
-4.875419e-07
-4.760286e-07
-4.625975e-07
-4.474e-07
-4.306166e-07
-4.124561e-07
-3.931539e-07
-3.729694e-07
-3.521829e-07
-3.310921e-07
-3.10008e-07
-2.892499e-07
-2.691401e-07
-2.499983e-07
-2.321353e-07
-2.15847e-07
-2.014075e-07
-1.890633e-07
-1.790268e-07
-1.714713e-07
-1.665262e-07
-1.642727e-07
-1.647421e-07
-1.679137e-07
-1.737156e-07
-1.820258e-07
-1.926761e-07
-2.054558e-07
-2.201186e-07
-2.363888e-07
-2.539697e-07
-2.725514e-07
-2.9182e-07
-3.114653e-07
-3.311892e-07
-3.507125e-07
-3.697811e-07
-3.88171e-07
-4.056919e-07
-4.221891e-07
-4.375449e-07
-4.516778e-07
-4.645404e-07
-4.761171e-07
-4.864212e-07
-4.95491e-07
-5.033851e-07
-5.101796e-07
-5.159607e-07
-5.20822e-07
-5.248595e-07
-5.281687e-07
-5.308405e-07
-5.329583e-07
-5.345953e-07
-5.358118e-07
-5.366531e-07
-5.371473e-07
-5.373034e-07
-5.371098e-07
-5.365342e-07
-5.355281e-07
-5.339932e-07
-5.316568e-07
-5.288997e-07
1.689351e-08
1.728483e-08
1.723683e-08
1.660075e-08
1.5465e-08
1.387586e-08
1.187333e-08
9.501844e-09
6.806973e-09
3.832634e-09
6.186553e-10
-2.800931e-09
-6.399937e-09
-1.016146e-08
-1.40787e-08
-1.815522e-08
-2.240483e-08
-2.685093e-08
-3.152557e-08
-3.646833e-08
-4.172501e-08
-4.734634e-08
-5.338677e-08
-5.990318e-08
-6.695383e-08
-7.459728e-08
-8.289129e-08
-9.189177e-08
-1.016516e-07
-1.122194e-07
-1.236379e-07
-1.359426e-07
-1.491598e-07
-1.633054e-07
-1.783825e-07
-1.943803e-07
-2.112723e-07
-2.290153e-07
-2.475484e-07
-2.667925e-07
-2.866503e-07
-3.070066e-07
-3.27729e-07
-3.486695e-07
-3.696659e-07
-3.905438e-07
-4.111191e-07
-4.312005e-07
-4.505922e-07
-4.69097e-07
-4.86519e-07
-5.026667e-07
-5.17356e-07
-5.304131e-07
-5.416771e-07
-5.510026e-07
-5.582628e-07
-5.63351e-07
-5.661831e-07
-5.666998e-07
-5.648682e-07
-5.606826e-07
-5.54165e-07
-5.453683e-07
-5.343819e-07
-5.213179e-07
-5.063213e-07
-4.895666e-07
-4.712572e-07
-4.516235e-07
-4.309212e-07
-4.094281e-07
-3.874412e-07
-3.652725e-07
-3.432448e-07
-3.216864e-07
-3.009257e-07
-2.812852e-07
-2.630751e-07
-2.465871e-07
-2.320877e-07
-2.198117e-07
-2.099568e-07
-2.026781e-07
-1.980834e-07
-1.962307e-07
-1.971251e-07
-2.007191e-07
-2.069131e-07
-2.155583e-07
-2.264603e-07
-2.393849e-07
-2.540649e-07
-2.702078e-07
-2.87504e-07
-3.05636e-07
-3.242868e-07
-3.431486e-07
-3.619302e-07
-3.803638e-07
-3.982108e-07
-4.152657e-07
-4.313591e-07
-4.463588e-07
-4.601701e-07
-4.727353e-07
-4.840297e-07
-4.940586e-07
-5.028541e-07
-5.104715e-07
-5.169844e-07
-5.2248e-07
-5.270536e-07
-5.308043e-07
-5.338315e-07
-5.362308e-07
-5.380907e-07
-5.394891e-07
-5.404912e-07
-5.411466e-07
-5.414869e-07
-5.415243e-07
-5.412491e-07
-5.406304e-07
-5.396209e-07
-5.381248e-07
-5.35882e-07
-5.332522e-07
2.213599e-08
2.221047e-08
2.185514e-08
2.096235e-08
1.960184e-08
1.781597e-08
1.564358e-08
1.312741e-08
1.03112e-08
7.236729e-09
3.941711e-09
4.574923e-10
-3.19316e-09
-6.997447e-09
-1.095346e-08
-1.50705e-08
-1.936896e-08
-2.387964e-08
-2.864279e-08
-3.370692e-08
-3.912741e-08
-4.496515e-08
-5.128524e-08
-5.815554e-08
-6.564546e-08
-7.382468e-08
-8.276183e-08
-9.252307e-08
-1.031707e-07
-1.147613e-07
-1.273441e-07
-1.409593e-07
-1.556355e-07
-1.713885e-07
-1.882188e-07
-2.061103e-07
-2.250288e-07
-2.449209e-07
-2.657135e-07
-2.873134e-07
-3.096079e-07
-3.324654e-07
-3.557365e-07
-3.792561e-07
-4.028451e-07
-4.263129e-07
-4.4946e-07
-4.720807e-07
-4.939659e-07
-5.149064e-07
-5.346955e-07
-5.53132e-07
-5.70023e-07
-5.851868e-07
-5.984555e-07
-6.096771e-07
-6.187182e-07
-6.254662e-07
-6.298309e-07
-6.317466e-07
-6.31174e-07
-6.281008e-07
-6.225417e-07
-6.145417e-07
-6.041825e-07
-5.915675e-07
-5.768338e-07
-5.60148e-07
-5.417056e-07
-5.217303e-07
-5.004716e-07
-4.782028e-07
-4.552177e-07
-4.318276e-07
-4.083569e-07
-3.851385e-07
-3.625083e-07
-3.407999e-07
-3.203381e-07
-3.014326e-07
-2.843714e-07
-2.694142e-07
-2.567861e-07
-2.466718e-07
-2.392107e-07
-2.344924e-07
-2.325542e-07
-2.333794e-07
-2.368973e-07
-2.429853e-07
-2.514715e-07
-2.621404e-07
-2.747386e-07
-2.889826e-07
-3.045674e-07
-3.211748e-07
-3.384834e-07
-3.561767e-07
-3.739517e-07
-3.915266e-07
-4.086466e-07
-4.250893e-07
-4.406677e-07
-4.552327e-07
-4.686733e-07
-4.809161e-07
-4.919233e-07
-5.016905e-07
-5.102412e-07
-5.17622e-07
-5.239019e-07
-5.291647e-07
-5.335055e-07
-5.370244e-07
-5.398228e-07
-5.419998e-07
-5.436476e-07
-5.448488e-07
-5.456732e-07
-5.461749e-07
-5.463899e-07
-5.463342e-07
-5.460017e-07
-5.453649e-07
-5.443793e-07
-5.42955e-07
-5.4085e-07
-5.383974e-07
2.794914e-08
2.766247e-08
2.696092e-08
2.578396e-08
2.417839e-08
2.218039e-08
1.982569e-08
1.715338e-08
1.420342e-08
1.101405e-08
7.619361e-09
4.046489e-09
3.135651e-10
-3.571899e-09
-7.61404e-09
-1.182905e-08
-1.624507e-08
-2.090148e-08
-2.584793e-08
-3.114314e-08
-3.685334e-08
-4.305087e-08
-4.981268e-08
-5.721875e-08
-6.535063e-08
-7.428985e-08
-8.411628e-08
-9.490642e-08
-1.067314e-07
-1.196552e-07
-1.33732e-07
-1.490045e-07
-1.655016e-07
-1.832359e-07
-2.022026e-07
-2.223769e-07
-2.437137e-07
-2.661464e-07
-2.895867e-07
-3.139246e-07
-3.390299e-07
-3.647527e-07
-3.909256e-07
-4.173652e-07
-4.438754e-07
-4.702492e-07
-4.962717e-07
-5.217233e-07
-5.463824e-07
-5.700282e-07
-5.924437e-07
-6.134186e-07
-6.327519e-07
-6.502543e-07
-6.657508e-07
-6.79083e-07
-6.901111e-07
-6.987162e-07
-7.048014e-07
-7.082945e-07
-7.091489e-07
-7.073449e-07
-7.028891e-07
-6.958172e-07
-6.862018e-07
-6.741359e-07
-6.597469e-07
-6.431916e-07
-6.246558e-07
-6.043538e-07
-5.825268e-07
-5.594408e-07
-5.353841e-07
-5.106647e-07
-4.856061e-07
-4.605433e-07
-4.358182e-07
-4.117737e-07
-3.887483e-07
-3.670696e-07
-3.470476e-07
-3.289682e-07
-3.130863e-07
-2.996198e-07
-2.887436e-07
-2.805846e-07
-2.752183e-07
-2.726654e-07
-2.728917e-07
-2.758081e-07
-2.812731e-07
-2.890969e-07
-2.990469e-07
-3.108553e-07
-3.242263e-07
-3.388462e-07
-3.543917e-07
-3.705403e-07
-3.869784e-07
-4.034099e-07
-4.195632e-07
-4.35197e-07
-4.501048e-07
-4.641173e-07
-4.771039e-07
-4.889727e-07
-4.996687e-07
-5.091716e-07
-5.174922e-07
-5.246684e-07
-5.307602e-07
-5.358439e-07
-5.400104e-07
-5.433587e-07
-5.459902e-07
-5.480051e-07
-5.494983e-07
-5.50556e-07
-5.512517e-07
-5.516439e-07
-5.517732e-07
-5.516598e-07
-5.513022e-07
-5.506774e-07
-5.497452e-07
-5.484236e-07
-5.464931e-07
-5.442558e-07
3.428602e-08
3.359587e-08
3.251217e-08
3.102716e-08
2.915986e-08
2.693758e-08
2.439072e-08
2.155244e-08
1.8457e-08
1.513739e-08
1.162217e-08
7.932886e-09
4.081648e-09
6.937325e-11
-4.115396e-09
-8.496996e-09
-1.311256e-08
-1.801136e-08
-2.325378e-08
-2.890998e-08
-3.505835e-08
-4.178388e-08
-4.91765e-08
-5.73292e-08
-6.633633e-08
-7.629161e-08
-8.728612e-08
-9.940608e-08
-1.127305e-07
-1.27329e-07
-1.432587e-07
-1.605626e-07
-1.792664e-07
-1.99377e-07
-2.208802e-07
-2.437399e-07
-2.678967e-07
-2.932676e-07
-3.197467e-07
-3.472052e-07
-3.754936e-07
-4.044425e-07
-4.338653e-07
-4.635607e-07
-4.93315e-07
-5.229051e-07
-5.521013e-07
-5.806707e-07
-6.083794e-07
-6.349958e-07
-6.602934e-07
-6.840531e-07
-7.060659e-07
-7.261355e-07
-7.440801e-07
-7.597349e-07
-7.729537e-07
-7.836112e-07
-7.916041e-07
-7.968529e-07
-7.993037e-07
-7.989289e-07
-7.957264e-07
-7.897215e-07
-7.80977e-07
-7.695738e-07
-7.556284e-07
-7.392858e-07
-7.207203e-07
-7.001344e-07
-6.777585e-07
-6.538485e-07
-6.286844e-07
-6.025674e-07
-5.758173e-07
-5.487682e-07
-5.217648e-07
-4.95157e-07
-4.692947e-07
-4.445218e-07
-4.211697e-07
-3.995506e-07
-3.799506e-07
-3.626228e-07
-3.477815e-07
-3.355955e-07
-3.261841e-07
-3.196125e-07
-3.158905e-07
-3.149708e-07
-3.167508e-07
-3.210751e-07
-3.277405e-07
-3.36502e-07
-3.470809e-07
-3.59173e-07
-3.724588e-07
-3.866127e-07
-4.013128e-07
-4.162499e-07
-4.311352e-07
-4.457077e-07
-4.597387e-07
-4.730362e-07
-4.854467e-07
-4.968559e-07
-5.071877e-07
-5.164026e-07
-5.24494e-07
-5.314846e-07
-5.374221e-07
-5.423752e-07
-5.464257e-07
-5.496669e-07
-5.521979e-07
-5.541178e-07
-5.555222e-07
-5.564991e-07
-5.571249e-07
-5.574617e-07
-5.575539e-07
-5.574263e-07
-5.570822e-07
-5.565035e-07
-5.556553e-07
-5.54465e-07
-5.527374e-07
-5.50742e-07
4.108763e-08
3.995364e-08
3.84548e-08
3.664134e-08
3.449914e-08
3.20435e-08
2.929683e-08
2.628392e-08
2.303126e-08
1.956437e-08
1.590465e-08
1.206642e-08
8.05432e-09
3.861255e-09
-5.329135e-10
-5.162016e-09
-1.007357e-08
-1.532806e-08
-2.099791e-08
-2.716609e-08
-3.392434e-08
-4.137137e-08
-4.961093e-08
-5.87497e-08
-6.889506e-08
-8.015276e-08
-9.262437e-08
-1.064047e-07
-1.21579e-07
-1.382201e-07
-1.563856e-07
-1.761154e-07
-1.974291e-07
-2.203241e-07
-2.447739e-07
-2.707273e-07
-2.981077e-07
-3.268134e-07
-3.567185e-07
-3.876739e-07
-4.195094e-07
-4.520354e-07
-4.85046e-07
-5.183214e-07
-5.516308e-07
-5.847354e-07
-6.173912e-07
-6.493523e-07
-6.803732e-07
-7.102121e-07
-7.386333e-07
-7.654094e-07
-7.903241e-07
-8.131742e-07
-8.337716e-07
-8.519456e-07
-8.675439e-07
-8.80435e-07
-8.905095e-07
-8.976809e-07
-9.018879e-07
-9.030952e-07
-9.01292e-07
-8.96493e-07
-8.887502e-07
-8.781318e-07
-8.647419e-07
-8.487126e-07
-8.302046e-07
-8.094068e-07
-7.86536e-07
-7.618352e-07
-7.355727e-07
-7.080398e-07
-6.795483e-07
-6.504278e-07
-6.210217e-07
-5.916833e-07
-5.627705e-07
-5.346404e-07
-5.076436e-07
-4.821169e-07
-4.583773e-07
-4.367142e-07
-4.173829e-07
-4.005982e-07
-3.865279e-07
-3.752883e-07
-3.669403e-07
-3.614875e-07
-3.588753e-07
-3.589926e-07
-3.61675e-07
-3.667103e-07
-3.738451e-07
-3.827932e-07
-3.93245e-07
-4.048772e-07
-4.173635e-07
-4.303835e-07
-4.436325e-07
-4.568289e-07
-4.697205e-07
-4.820901e-07
-4.937578e-07
-5.045832e-07
-5.144649e-07
-5.233397e-07
-5.311792e-07
-5.379871e-07
-5.437943e-07
-5.486545e-07
-5.526404e-07
-5.558359e-07
-5.583335e-07
-5.602285e-07
-5.616147e-07
-5.625798e-07
-5.632015e-07
-5.635439e-07
-5.636547e-07
-5.635626e-07
-5.632752e-07
-5.627796e-07
-5.620465e-07
-5.610127e-07
-5.595089e-07
-5.577712e-07
4.828099e-08
4.666494e-08
4.472106e-08
4.256221e-08
4.013525e-08
3.743977e-08
3.448725e-08
3.129156e-08
2.786889e-08
2.423521e-08
2.040289e-08
1.637738e-08
1.21543e-08
7.717096e-09
3.035464e-09
-1.935347e-09
-7.254623e-09
-1.299548e-08
-1.924374e-08
-2.609636e-08
-3.36595e-08
-4.204648e-08
-5.137549e-08
-6.176701e-08
-7.334124e-08
-8.621518e-08
-1.004997e-07
-1.162962e-07
-1.336938e-07
-1.527659e-07
-1.735672e-07
-1.96131e-07
-2.204674e-07
-2.465606e-07
-2.743684e-07
-3.038217e-07
-3.348239e-07
-3.672525e-07
-4.009598e-07
-4.35775e-07
-4.715064e-07
-5.07944e-07
-5.448622e-07
-5.82023e-07
-6.191786e-07
-6.560748e-07
-6.924539e-07
-7.280573e-07
-7.626286e-07
-7.959162e-07
-8.276757e-07
-8.576721e-07
-8.856824e-07
-9.114973e-07
-9.349231e-07
-9.557835e-07