/*--------------------------------*- C++ -*----------------------------------*\
| =========                 |                                                 |
| \\      /  F ield         | OpenFOAM: The Open Source CFD Toolbox           |
|  \\    /   O peration     | Version:  2406                                  |
|   \\  /    A nd           | Website:  www.openfoam.com                      |
|    \\/     M anipulation  |                                                 |
\*---------------------------------------------------------------------------*/
FoamFile
{
    version     2.0;
    format      ascii;
    arch        "LSB;label=32;scalar=64";
    class       surfaceScalarField;
    location    "2020";
    object      phi;
}
// * * * * * * * * * * * * * * * * * * * * * * * * * * * * * * * * * * * * * //

dimensions      [0 3 -1 0 0 0 0];

oriented        oriented;

internalField   nonuniform List<scalar> 
32512
(
-3.819447e-12
-1.201435e-11
8.901296e-10
-8.939013e-10
2.686868e-09
-1.796773e-09
5.153399e-09
-2.466563e-09
8.038487e-09
-2.885111e-09
1.112094e-08
-3.082424e-09
1.422002e-08
-3.099034e-09
1.719479e-08
-2.974779e-09
1.99397e-08
-2.74492e-09
2.237924e-08
-2.439522e-09
2.44629e-08
-2.083655e-09
2.616063e-08
-1.697717e-09
2.745849e-08
-1.297848e-09
2.83548e-08
-8.963115e-10
2.885657e-08
-5.017954e-10
2.897635e-08
-1.197724e-10
2.872926e-08
2.471029e-10
2.813067e-08
5.985937e-10
2.719424e-08
9.364331e-10
2.593032e-08
1.263899e-09
2.434497e-08
1.585347e-09
2.243927e-08
1.905722e-09
2.020903e-08
2.230219e-09
1.76451e-08
2.563928e-09
1.473364e-08
2.911485e-09
1.145672e-08
3.276903e-09
7.793302e-09
3.663412e-09
3.720007e-09
4.073314e-09
-7.880395e-10
4.508046e-09
-5.756303e-09
4.968246e-09
-1.120992e-08
5.45363e-09
-1.717296e-08
5.963054e-09
-2.366771e-08
6.494739e-09
-3.071399e-08
7.046254e-09
-3.832851e-08
7.614532e-09
-4.652438e-08
8.19589e-09
-5.531049e-08
8.786098e-09
-6.46909e-08
9.380386e-09
-7.466434e-08
9.973433e-09
-8.52237e-08
1.055937e-08
-9.635554e-08
1.113183e-08
-1.080395e-07
1.168396e-08
-1.20248e-07
1.22085e-08
-1.329458e-07
1.269776e-08
-1.460896e-07
1.314377e-08
-1.596279e-07
1.35383e-08
-1.735009e-07
1.387301e-08
-1.876404e-07
1.413952e-08
-2.019699e-07
1.432952e-08
-2.164048e-07
1.44349e-08
-2.308527e-07
1.444789e-08
-2.452139e-07
1.436119e-08
-2.593821e-07
1.41681e-08
-2.732447e-07
1.386265e-08
-2.866844e-07
1.343973e-08
-2.995797e-07
1.289523e-08
-3.118059e-07
1.22262e-08
-3.232368e-07
1.143092e-08
-3.337459e-07
1.050907e-08
-3.432077e-07
9.461785e-09
-3.514995e-07
8.291795e-09
-3.58503e-07
7.003492e-09
-3.64106e-07
5.603005e-09
-3.682042e-07
4.098239e-09
-3.707031e-07
2.498882e-09
-3.715194e-07
8.163576e-10
-3.705833e-07
-9.36121e-10
-3.678396e-07
-2.743711e-09
-3.632499e-07
-4.589654e-09
-3.567941e-07
-6.455794e-09
-3.484715e-07
-8.322675e-09
-3.383017e-07
-1.016974e-08
-3.263261e-07
-1.197559e-08
-3.126079e-07
-1.371827e-08
-2.972322e-07
-1.537565e-08
-2.803065e-07
-1.692575e-08
-2.619592e-07
-1.834721e-08
-2.423395e-07
-1.961974e-08
-2.21615e-07
-2.072452e-08
-1.999702e-07
-2.164472e-08
-1.776043e-07
-2.236588e-08
-1.547279e-07
-2.287639e-08
-1.315601e-07
-2.316782e-08
-1.083248e-07
-2.323525e-08
-8.524735e-08
-2.307749e-08
-6.255016e-08
-2.269719e-08
-4.044922e-08
-2.210093e-08
-1.91501e-08
-2.129912e-08
1.155608e-09
-2.030569e-08
2.029406e-08
-1.913844e-08
3.811221e-08
-1.781814e-08
5.447947e-08
-1.636726e-08
6.928996e-08
-1.481048e-08
8.246394e-08
-1.317398e-08
9.394852e-08
-1.148457e-08
1.037175e-07
-9.76899e-09
1.117708e-07
-8.053288e-09
1.18133e-07
-6.362198e-09
1.228516e-07
-4.718593e-09
1.259946e-07
-3.143015e-09
1.276479e-07
-1.653299e-09
1.279122e-07
-2.643071e-10
1.269e-07
1.012218e-09
1.247321e-07
2.167952e-09
1.215344e-07
3.197666e-09
1.174352e-07
4.099219e-09
1.125619e-07
4.873321e-09
1.070386e-07
5.523258e-09
1.009841e-07
6.054546e-09
9.450952e-08
6.47454e-09
8.771754e-08
6.79198e-09
8.070105e-08
7.016489e-09
7.354306e-08
7.157994e-09
6.631697e-08
7.226084e-09
5.908771e-08
7.229268e-09
5.191358e-08
7.174126e-09
4.484923e-08
7.064354e-09
3.794954e-08
6.899689e-09
3.127478e-08
6.674762e-09
2.489683e-08
6.377957e-09
1.890638e-08
5.990449e-09
1.342054e-08
5.485841e-09
8.58926e-09
4.831283e-09
4.597065e-09
3.992197e-09
1.652155e-09
2.944913e-09
-5.304367e-11
1.705201e-09
-4.573724e-10
4.043312e-10
-4.573695e-10
8.843279e-10
-8.962961e-10
3.775343e-09
-3.784976e-09
8.50211e-09
-6.523417e-09
1.461925e-08
-8.583684e-09
2.162434e-08
-9.890262e-09
2.904547e-08
-1.050356e-08
3.647393e-08
-1.052751e-08
4.357401e-08
-1.007482e-08
5.008149e-08
-9.252379e-09
5.579757e-08
-8.155628e-09
6.05807e-08
-6.866811e-09
6.433771e-08
-5.454708e-09
6.701483e-08
-3.974961e-09
6.858914e-08
-2.47061e-09
6.906022e-08
-9.728819e-10
6.844266e-08
4.977996e-10
6.675908e-08
1.930679e-09
6.403435e-08
3.3233e-09
6.029068e-08
4.680119e-09
5.554368e-08
6.010925e-09
4.979968e-08
7.329334e-09
4.305414e-08
8.651263e-09
3.529087e-08
9.993488e-09
2.648234e-08
1.137244e-08
1.65907e-08
1.280315e-08
5.569261e-09
1.429837e-08
-6.635475e-09
1.586813e-08
-2.008159e-08
1.751942e-08
-3.482936e-08
1.925584e-08
-5.09388e-08
2.10777e-08
-6.846741e-08
2.298225e-08
-8.746813e-08
2.496377e-08
-1.079872e-07
2.701379e-08
-1.300622e-07
2.912126e-08
-1.537204e-07
3.127279e-08
-1.789773e-07
3.345274e-08
-2.058345e-07
3.564335e-08
-2.34279e-07
3.782487e-08
-2.642812e-07
3.997564e-08
-2.95794e-07
4.207224e-08
-3.287518e-07
4.408964e-08
-3.630692e-07
4.600136e-08
-3.986404e-07
4.777972e-08
-4.353388e-07
4.939609e-08
-4.730162e-07
5.082126e-08
-5.115037e-07
5.202575e-08
-5.506109e-07
5.298021e-08
-5.901271e-07
5.36558e-08
-6.298223e-07
5.402471e-08
-6.694479e-07
5.406053e-08
-7.087388e-07
5.373874e-08
-7.474147e-07
5.303715e-08
-7.851829e-07
5.193635e-08
-8.217404e-07
5.042008e-08
-8.567764e-07
4.847574e-08
-8.899758e-07
4.609468e-08
-9.210222e-07
4.327256e-08
-9.49601e-07
4.000971e-08
-9.754033e-07
3.631136e-08
-9.981294e-07
3.21879e-08
-1.017493e-06
2.765508e-08
-1.033223e-06
2.273414e-08
-1.045072e-06
1.745188e-08
-1.052815e-06
1.184068e-08
-1.056254e-06
5.938377e-09
-1.055226e-06
-2.118659e-10
-1.0496e-06
-6.561729e-09
-1.039286e-06
-1.305764e-08
-1.024235e-06
-1.964145e-08
-1.004439e-06
-2.625109e-08
-9.79941e-07
-3.28211e-08
-9.508274e-07
-3.92833e-08
-9.172354e-07
-4.556762e-08
-8.793507e-07
-5.160303e-08
-8.374078e-07
-5.731852e-08
-7.916893e-07
-6.264434e-08
-7.425234e-07
-6.751312e-08
-6.90282e-07
-7.186118e-08
-6.353767e-07
-7.562985e-08
-5.782547e-07
-7.876674e-08
-5.193935e-07
-8.122703e-08
-4.592953e-07
-8.297464e-08
-3.984798e-07
-8.398332e-08
-3.374776e-07
-8.423753e-08
-2.768219e-07
-8.373315e-08
-2.170412e-07
-8.247791e-08
-1.586505e-07
-8.049163e-08
-1.021436e-07
-7.780604e-08
-4.798493e-08
-7.446437e-08
3.397268e-09
-7.052064e-08
5.161693e-08
-6.60378e-08
9.633872e-08
-6.108904e-08
1.372819e-07
-5.575366e-08
1.742226e-07
-5.011465e-08
2.06997e-07
-4.425895e-08
2.355025e-07
-3.827445e-08
2.596972e-07
-3.224801e-08
2.795985e-07
-2.626346e-08
2.952797e-07
-2.039979e-08
3.068662e-07
-1.472953e-08
3.145302e-07
-9.31728e-09
3.184846e-07
-4.218669e-09
3.189764e-07
5.204465e-10
3.162797e-07
4.864686e-09
3.106881e-07
8.789339e-09
3.025074e-07
1.22799e-08
2.920489e-07
1.533178e-08
2.796227e-07
1.79495e-08
2.655316e-07
2.014566e-08
2.500664e-07
2.193972e-08
2.335019e-07
2.335655e-08
2.160938e-07
2.442463e-08
1.980776e-07
2.517414e-08
1.796691e-07
2.563467e-08
1.610657e-07
2.583267e-08
1.424512e-07
2.578861e-08
1.240017e-07
2.551385e-08
1.058941e-07
2.500733e-08
8.831654e-08
2.42523e-08
7.148097e-08
2.321353e-08
5.563571e-08
2.183571e-08
4.107707e-08
2.004449e-08
2.815537e-08
1.775299e-08
1.726824e-08
1.487933e-08
8.827893e-09
1.138527e-08
3.179213e-09
7.353883e-09
4.218198e-10
3.161724e-09
-3.554696e-11
1.792607e-09
-2.688937e-09
6.525e-09
-8.517396e-09
1.361566e-08
-1.361405e-08
2.243133e-08
-1.739928e-08
3.232026e-08
-1.977914e-08
4.266724e-08
-2.085059e-08
5.292656e-08
-2.078685e-08
6.263656e-08
-1.978479e-08
7.142267e-08
-1.803848e-08
7.899355e-08
-1.572651e-08
8.513317e-08
-1.300643e-08
8.969086e-08
-1.00124e-08
9.257043e-08
-6.854551e-09
9.371908e-08
-3.61926e-09
9.311645e-08
-3.702287e-10
9.076426e-08
2.849989e-09
8.667707e-08
6.017876e-09
8.087392e-08
9.126434e-09
7.337155e-08
1.218248e-08
6.417889e-08
1.52036e-08
5.32932e-08
1.821503e-08
4.069774e-08
2.124671e-08
2.63608e-08
2.433041e-08
1.023621e-08
2.749705e-08
-7.735386e-09
3.077475e-08
-2.762417e-08
3.418713e-08
-4.950796e-08
3.775192e-08
-7.346883e-08
4.148032e-08
-9.958968e-08
4.537668e-08
-1.279505e-07
4.943845e-08
-1.586245e-07
5.365635e-08
-1.916755e-07
5.801476e-08
-2.271539e-07
6.249212e-08
-2.65094e-07
6.706135e-08
-3.055114e-07
7.169026e-08
-3.484006e-07
7.634189e-08
-3.937321e-07
8.097488e-08
-4.414511e-07
8.554383e-08
-4.914751e-07
8.999961e-08
-5.436926e-07
9.428978e-08
-5.97962e-07
9.835904e-08
-6.541104e-07
1.021498e-07
-7.119334e-07
1.056026e-07
-7.711946e-07
1.086573e-07
-8.316265e-07
1.112532e-07
-8.92931e-07
1.133303e-07
-9.547808e-07
1.1483e-07
-1.016821e-06
1.156963e-07
-1.078673e-06
1.158762e-07
-1.139933e-06
1.15321e-07
-1.200182e-06
1.13987e-07
-1.258981e-06
1.118366e-07
-1.315883e-06
1.088385e-07
-1.370432e-06
1.049691e-07
-1.422169e-06
1.002129e-07
-1.470638e-06
9.456285e-08
-1.515386e-06
8.802106e-08
-1.555976e-06
8.059922e-08
-1.591983e-06
7.231883e-08
-1.623007e-06
6.321144e-08
-1.64867e-06
5.331882e-08
-1.668629e-06
4.269296e-08
-1.682573e-06
3.139601e-08
-1.690233e-06
1.950006e-08
-1.691381e-06
7.086784e-09
-1.68584e-06
-5.752529e-09
-1.673484e-06
-1.891843e-08
-1.654239e-06
-3.230233e-08
-1.628092e-06
-4.57889e-08
-1.595086e-06
-5.925663e-08
-1.555328e-06
-7.257892e-08
-1.508986e-06
-8.56253e-08
-1.456291e-06
-9.826293e-08
-1.397536e-06
-1.103582e-07
-1.333076e-06
-1.217787e-07
-1.263325e-06
-1.323947e-07
-1.188756e-06
-1.420818e-07
-1.109895e-06
-1.507228e-07
-1.027315e-06
-1.582098e-07
-9.41635e-07
-1.644466e-07
-8.535112e-07
-1.693508e-07
-7.636299e-07
-1.728559e-07
-6.727002e-07
-1.74913e-07
-5.814453e-07
-1.754924e-07
-4.905933e-07
-1.745852e-07
-4.008676e-07
-1.722036e-07
-3.12977e-07
-1.683822e-07
-2.27606e-07
-1.63177e-07
-1.454048e-07
-1.566655e-07
-6.698004e-08
-1.489454e-07
7.114757e-09
-1.401326e-07
7.638455e-08
-1.303588e-07
1.404028e-07
-1.19772e-07
1.988179e-07
-1.085298e-07
2.513548e-07
-9.679582e-08
2.978187e-07
-8.473834e-08
3.380962e-07
-7.252554e-08
3.721549e-07
-6.032206e-08
4.000405e-07
-4.828539e-08
4.218736e-07
-3.656264e-08
4.378439e-07
-2.528762e-08
4.482036e-07
-1.457834e-08
4.532592e-07
-4.535112e-09
4.533632e-07
4.760618e-09
4.489045e-07
1.324809e-08
4.402982e-07
2.088614e-08
4.279767e-07
2.765334e-08
4.123794e-07
3.354673e-08
3.93945e-07
3.858006e-08
3.731031e-07
4.278163e-08
3.502682e-07
4.619149e-08
3.258347e-07
4.885814e-08
3.001742e-07
5.083461e-08
2.736349e-07
5.217402e-08
2.46543e-07
5.292452e-08
2.192079e-07
5.312374e-08
1.919289e-07
5.279286e-08
1.650056e-07
5.193058e-08
1.387504e-07
5.050755e-08
1.135018e-07
4.846208e-08
8.963862e-08
4.569892e-08
6.758972e-08
4.209339e-08
4.783694e-08
3.750577e-08
3.09025e-08
3.181377e-08
1.731152e-08
2.497625e-08
7.517035e-09
1.714837e-08
1.777043e-09
8.901718e-09
1.741498e-09
2.476693e-09
-5.165577e-09
8.629559e-09
-1.467034e-08
1.748125e-08
-2.246581e-08
2.818896e-08
-2.810695e-08
3.997084e-08
-3.156101e-08
5.21118e-08
-3.299153e-08
6.397841e-08
-3.265345e-08
7.502872e-08
-3.083512e-08
8.481512e-08
-2.782487e-08
9.298123e-08
-2.389261e-08
9.92548e-08
-1.927997e-08
1.034377e-07
-1.419534e-08
1.053948e-07
-8.8116e-09
1.050413e-07
-3.265785e-09
1.023312e-07
2.339888e-09
9.724505e-08
7.936134e-09
8.977952e-08
1.348339e-08
7.99377e-08
1.896826e-08
6.772109e-08
2.43991e-08
5.312325e-08
2.980142e-08
3.612538e-08
3.521289e-08
1.66937e-08
4.067841e-08
-5.221596e-09
4.62457e-08
-2.968567e-08
5.196112e-08
-5.677687e-08
5.786597e-08
-8.658357e-08
6.399383e-08
-1.192003e-07
7.036863e-08
-1.547233e-07
7.700332e-08
-1.932458e-07
8.389921e-08
-2.348533e-07
9.104598e-08
-2.796189e-07
9.842191e-08
-3.275986e-07
1.059945e-07
-3.788276e-07
1.137211e-07
-4.33316e-07
1.215497e-07
-4.910456e-07
1.294199e-07
-5.519669e-07
1.372632e-07
-6.159961e-07
1.45004e-07
-6.830129e-07
1.525607e-07
-7.52859e-07
1.598457e-07
-8.253364e-07
1.667671e-07
-9.002065e-07
1.732292e-07
-9.771905e-07
1.791337e-07
-1.055969e-06
1.843812e-07
-1.136184e-06
1.888722e-07
-1.21744e-06
1.925086e-07
-1.299305e-06
1.951953e-07
-1.381316e-06
1.968416e-07
-1.462982e-06
1.973626e-07
-1.543787e-06
1.966809e-07
-1.623194e-06
1.947276e-07
-1.700651e-06
1.914441e-07
-1.775597e-06
1.867826e-07
-1.847466e-06
1.807077e-07
-1.915694e-06
1.73197e-07
-1.979723e-06
1.642416e-07
-2.039007e-06
1.538473e-07
-2.09302e-06
1.420344e-07
-2.141259e-06
1.288382e-07
-2.18325e-06
1.14309e-07
-2.218551e-06
9.851255e-08
-2.246761e-06
8.152928e-08
-2.267523e-06
6.345444e-08
-2.280524e-06
4.439755e-08
-2.285506e-06
2.448193e-08
-2.282263e-06
3.844092e-09
-2.27065e-06
-1.736643e-08
-2.250579e-06
-3.89894e-08
-2.222027e-06
-6.085349e-08
-2.185037e-06
-8.277894e-08
-2.139716e-06
-1.045784e-07
-2.086236e-06
-1.260583e-07
-2.02484e-06
-1.470211e-07
-1.955837e-06
-1.672668e-07
-1.879599e-06
-1.865956e-07
-1.796568e-06
-2.048101e-07
-1.707245e-06
-2.217178e-07
-1.612192e-06
-2.371345e-07
-1.512028e-06
-2.508865e-07
-1.407424e-06
-2.628142e-07
-1.299096e-06
-2.727749e-07
-1.187801e-06
-2.806457e-07
-1.07433e-06
-2.863267e-07
-9.594997e-07
-2.897433e-07
-8.441433e-07
-2.908487e-07
-7.291024e-07
-2.896261e-07
-6.152165e-07
-2.860895e-07
-5.033137e-07
-2.802851e-07
-3.941994e-07
-2.722913e-07
-2.886467e-07
-2.622182e-07
-1.873857e-07
-2.502064e-07
-9.109362e-08
-2.364246e-07
-3.850169e-10
-2.210674e-07
8.419436e-08
-2.043513e-07
1.621771e-07
-1.865125e-07
2.331812e-07
-1.677999e-07
2.969125e-07
-1.484697e-07
3.531686e-07
-1.287816e-07
4.018397e-07
-1.089931e-07
4.42908e-07
-8.935369e-08
4.764455e-07
-7.010012e-08
5.026094e-07
-5.145155e-08
5.216365e-07
-3.360541e-08
5.338353e-07
-1.673392e-08
5.395775e-07
-9.815151e-10
5.392884e-07
1.353716e-08
5.334359e-07
2.673867e-08
5.225193e-07
3.85699e-08
5.070588e-07
4.900731e-08
4.875842e-07
5.805463e-08
4.64626e-07
6.573981e-08
4.387065e-07
7.2111e-08
4.103331e-07
7.723154e-08
3.799938e-07
8.117399e-08
3.481546e-07
8.401315e-08
3.152609e-07
8.581828e-08
2.817402e-07
8.664446e-08
2.480094e-07
8.652366e-08
2.144842e-07
8.545575e-08
1.81591e-07
8.340073e-08
1.497798e-07
8.027326e-08
1.195367e-07
7.594205e-08
9.139268e-08
7.023743e-08
6.592568e-08
6.297278e-08
4.375112e-08
5.398833e-08
2.549754e-08
4.322983e-08
1.176766e-08
3.087826e-08
3.100076e-09
1.75693e-08
4.841574e-09
2.924018e-09
-8.089552e-09
1.002156e-08
-2.176785e-08
2.001117e-08
-3.245542e-08
3.185615e-08
-3.995197e-08
4.465443e-08
-4.435929e-08
5.760981e-08
-4.594686e-08
7.002689e-08
-4.507053e-08
8.131109e-08
-4.211935e-08
9.096728e-08
-3.748107e-08
9.859532e-08
-3.152064e-08
1.038826e-07
-2.456729e-08
1.065944e-07
-1.690706e-08
1.065618e-07
-8.77902e-09
1.036701e-07
-3.740541e-10
9.784545e-08
8.164493e-09
8.904331e-08
1.673826e-08
7.723669e-08
2.529002e-08
6.240621e-08
3.379874e-08
4.453167e-08
4.227366e-08
2.358542e-08
5.074765e-08
-4.720344e-10
5.927032e-08
-2.769486e-08
6.790125e-08
-5.815233e-08
7.670317e-08
-9.192727e-08
8.573606e-08
-1.291136e-07
9.505227e-08
-1.698122e-07
1.046925e-07
-2.141263e-07
1.146827e-07
-2.621556e-07
1.250327e-07
-3.13991e-07
1.357346e-07
-3.697086e-07
1.467635e-07
-4.293639e-07
1.580773e-07
-4.929873e-07
1.696178e-07
-5.605783e-07
1.813121e-07
-6.321018e-07
1.930732e-07
-7.074839e-07
2.04802e-07
-7.866089e-07
2.163882e-07
-8.693165e-07
2.277116e-07
-9.553998e-07
2.38644e-07
-1.044604e-06
2.490502e-07
-1.136627e-06
2.587898e-07
-1.231117e-06
2.677191e-07
-1.327676e-06
2.756932e-07
-1.425863e-06
2.825676e-07
-1.525191e-06
2.882005e-07
-1.625138e-06
2.924553e-07
-1.725145e-06
2.952024e-07
-1.824625e-06
2.963218e-07
-1.922967e-06
2.957043e-07
-2.01954e-06
2.932545e-07
-2.113704e-06
2.888915e-07
-2.204811e-06
2.825511e-07
-2.292215e-06
2.741864e-07
-2.375277e-06
2.637693e-07
-2.453371e-06
2.512911e-07
-2.525892e-06
2.367629e-07
-2.59226e-06
2.202156e-07
-2.651926e-06
2.017006e-07
-2.704378e-06
1.812893e-07
-2.749141e-06
1.590725e-07
-2.785789e-06
1.351605e-07
-2.813942e-06
1.096824e-07
-2.833273e-06
8.278501e-08
-2.843508e-06
5.463255e-08
-2.844431e-06
2.540554e-08
-2.835888e-06
-4.699307e-09
-2.817783e-06
-3.547151e-08
-2.790085e-06
-6.668751e-08
-2.752826e-06
-9.811272e-08
-2.706102e-06
-1.295028e-07
-2.650075e-06
-1.60605e-07
-2.584973e-06
-1.911605e-07
-2.511088e-06
-2.209058e-07
-2.428779e-06
-2.495759e-07
-2.338468e-06
-2.769065e-07
-2.240641e-06
-3.026371e-07
-2.135845e-06
-3.26514e-07
-2.024686e-06
-3.482939e-07
-1.907825e-06
-3.677474e-07
-1.785976e-06
-3.846627e-07
-1.659901e-06
-3.988498e-07
-1.530403e-06
-4.101437e-07
-1.398322e-06
-4.184084e-07
-1.264524e-06
-4.235406e-07
-1.129901e-06
-4.254723e-07
-9.953527e-07
-4.24174e-07
-8.617856e-07
-4.196567e-07
-7.300979e-07
-4.119728e-07
-6.011717e-07
-4.012175e-07
-4.75862e-07
-3.875279e-07
-3.549861e-07
-3.710823e-07
-2.393133e-07
-3.520974e-07
-1.295549e-07
-3.308259e-07
-2.635427e-08
-3.075519e-07
6.971983e-08
-2.825866e-07
1.581827e-07
-2.562628e-07
2.386402e-07
-2.289271e-07
3.107926e-07
-2.00934e-07
3.74438e-07
-1.726385e-07
4.294736e-07
-1.443893e-07
4.758951e-07
-1.165216e-07
5.137942e-07
-8.935072e-08
5.433547e-07
-6.316592e-08
5.64846e-07
-3.822515e-08
5.786152e-07
-1.475074e-08
5.85079e-07
7.07332e-09
5.847126e-07
2.710511e-08
5.780385e-07
4.524402e-08
5.656152e-07
6.14306e-08
5.480255e-07
7.564433e-08
5.258654e-07
8.789989e-08
4.997343e-07
9.824213e-08
4.702262e-07
1.067396e-07
4.379237e-07
1.134765e-07
4.033935e-07
1.185434e-07
3.671853e-07
1.220265e-07
3.298337e-07
1.23996e-07
2.918631e-07
1.244943e-07
2.537954e-07
1.235235e-07
2.1616e-07
1.210361e-07
1.795054e-07
1.169278e-07
1.444102e-07
1.110373e-07
1.114919e-07
1.031557e-07
8.141205e-08
9.305263e-08
5.4876e-08
8.052439e-08
3.262963e-08
6.54762e-08
1.546087e-08
4.804702e-08
4.230004e-09
2.880017e-08
9.071578e-09
3.163979e-09
-1.125355e-08
1.07538e-08
-2.935761e-08
2.127952e-08
-4.298116e-08
3.354927e-08
-5.222175e-08
4.655832e-08
-5.736834e-08
5.944365e-08
-5.883218e-08
7.146391e-08
-5.709079e-08
8.198933e-08
-5.264475e-08
9.04945e-08
-4.598624e-08
9.655109e-08
-3.757723e-08
9.981899e-08
-2.783519e-08
1.000359e-07
-1.712402e-08
9.700597e-08
-5.749036e-09
9.058699e-08
6.044935e-09
8.067817e-08
1.80733e-08
6.720808e-08
3.020834e-08
5.012323e-08
4.237488e-08
2.937808e-08
5.454387e-08
4.926986e-09
6.672476e-08
-2.328244e-08
7.895707e-08
-5.531322e-08
9.130109e-08
-9.124077e-08
1.038288e-07
-1.311529e-07
1.166153e-07
-1.751477e-07
1.297309e-07
-2.233299e-07
1.432345e-07
-2.758059e-07
1.571685e-07
-3.326778e-07
1.715546e-07
-3.940372e-07
1.86392e-07
-4.599585e-07
2.016559e-07
-5.304922e-07
2.172973e-07
-6.056592e-07
2.332443e-07
-6.854444e-07
2.49403e-07
-7.697919e-07
2.656596e-07
-8.586004e-07
2.818817e-07
-9.517195e-07
2.979212e-07
-1.048947e-06
3.136156e-07
-1.150026e-06
3.287912e-07
-1.254647e-06
3.432645e-07
-1.362442e-06
3.568454e-07
-1.472992e-06
3.693396e-07
-1.585824e-06
3.805516e-07
-1.700419e-06
3.902874e-07
-1.816209e-06
3.983577e-07
-1.932589e-06
4.045808e-07
-2.048919e-06
4.087857e-07
-2.164532e-06
4.108149e-07
-2.278737e-06
4.10527e-07
-2.390832e-06
4.077991e-07
-2.500106e-06
4.025289e-07
-2.605851e-06
3.946362e-07
-2.707364e-06
3.840646e-07
-2.80396e-06
3.707821e-07
-2.894973e-06
3.547818e-07
-2.979764e-06
3.360821e-07
-3.057728e-06
3.14727e-07
-3.128297e-06
2.90785e-07
-3.190946e-06
2.643493e-07
-3.245193e-06
2.355366e-07
-3.290607e-06
2.044864e-07
-3.326807e-06
1.7136e-07
-3.353464e-06
1.363395e-07
-3.370305e-06
9.962641e-08
-3.377114e-06
6.14411e-08
-3.373729e-06
2.202137e-08
-3.360052e-06
-1.83768e-08
-3.336038e-06
-5.94854e-08
-3.301704e-06
-1.010217e-07
-3.257125e-06
-1.426921e-07
-3.202435e-06
-1.841924e-07
-3.13783e-06
-2.2521e-07
-3.063565e-06
-2.654255e-07
-2.979955e-06
-3.045152e-07
-2.887378e-06
-3.421533e-07
-2.786269e-06
-3.780155e-07
-2.677125e-06
-4.117815e-07
-2.5605e-06
-4.43139e-07
-2.437006e-06
-4.717875e-07
-2.307311e-06
-4.974425e-07
-2.172134e-06
-5.198399e-07
-2.032243e-06
-5.387406e-07
-1.888452e-06
-5.539348e-07
-1.741613e-06
-5.652472e-07
-1.592613e-06
-5.72541e-07
-1.442363e-06
-5.757217e-07
-1.291796e-06
-5.74741e-07
-1.141853e-06
-5.695997e-07
-9.934764e-07
-5.603497e-07
-8.475988e-07
-5.470951e-07
-7.051341e-07
-5.299926e-07
-5.66966e-07
-5.092504e-07
-4.339373e-07
-4.851262e-07
-3.068393e-07
-4.579238e-07
-1.864022e-07
-4.279891e-07
-7.328505e-08
-3.957037e-07
3.193186e-08
-3.614797e-07
1.287559e-07
-3.257512e-07
2.167885e-07
-2.889666e-07
2.957294e-07
-2.515794e-07
3.6538e-07
-2.140399e-07
4.25645e-07
-1.767866e-07
4.765316e-07
-1.402373e-07
5.181472e-07
-1.047815e-07
5.506953e-07
-7.077327e-08
5.744693e-07
-3.852478e-08
5.898445e-07
-8.301884e-09
5.972703e-07
1.967938e-08
5.972579e-07
4.525638e-08
5.903707e-07
6.831784e-08
5.772114e-07
8.880363e-08
5.584109e-07
1.067003e-07
5.346174e-07
1.220357e-07
5.064862e-07
1.348708e-07
4.746719e-07
1.452907e-07
4.398227e-07
1.533926e-07
4.025763e-07
1.592728e-07
3.635603e-07
1.63012e-07
3.233943e-07
1.646603e-07
2.826953e-07
1.642225e-07
2.420857e-07
1.616457e-07
2.022029e-07
1.568106e-07
1.637095e-07
1.495307e-07
1.273037e-07
1.395616e-07
9.372914e-08
1.266272e-07
6.378658e-08
1.104669e-07
3.835098e-08
9.09118e-08
1.840567e-08
6.799232e-08
5.115805e-09
4.209004e-08
1.418738e-08
3.231189e-09
-1.448475e-08
1.090726e-08
-3.703369e-08
2.140969e-08
-5.348355e-08
3.34368e-08
-6.424883e-08
4.590625e-08
-6.983781e-08
5.790456e-08
-7.083051e-08
6.865806e-08
-6.784429e-08
7.751482e-08
-6.15015e-08
8.393182e-08
-5.240323e-08
8.746409e-08
-4.110951e-08
8.77539e-08
-2.812501e-08
8.45195e-08
-1.388962e-08
7.754326e-08
1.2272e-09
6.665922e-08
1.692898e-08
5.174123e-08
3.299129e-08
3.269107e-08
4.925849e-08
9.427754e-09
6.56382e-08
-1.812204e-08
8.209365e-08
-5.003139e-08
9.863411e-08
-8.637849e-08
1.153042e-07
-1.272498e-07
1.321724e-07
-1.727412e-07
1.493202e-07
-2.229565e-07
1.668306e-07
-2.780045e-07
1.847788e-07
-3.379937e-07
2.032237e-07
-4.03027e-07
2.222018e-07
-4.731944e-07
2.41722e-07
-5.485657e-07
2.617634e-07
-6.291837e-07
2.822738e-07
-7.150565e-07
3.031701e-07
-8.061517e-07
3.243394e-07
-9.023899e-07
3.456412e-07
-1.00364e-06
3.669097e-07
-1.109715e-06
3.879571e-07
-1.220371e-06
4.085764e-07
-1.3353e-06
4.285447e-07
-1.454136e-06
4.476271e-07
-1.576451e-06
4.655797e-07
-1.701759e-06
4.821537e-07
-1.829519e-06
4.970996e-07
-1.959138e-06
5.101705e-07
-2.089977e-06
5.211267e-07
-2.221359e-06
5.297395e-07
-2.352574e-06
5.357951e-07
-2.482886e-06
5.390978e-07
-2.611545e-06
5.394738e-07
-2.737791e-06
5.367737e-07
-2.860867e-06
5.308746e-07
-2.980021e-06
5.216826e-07
-3.094518e-06
5.091332e-07
-3.203646e-06
4.931928e-07
-3.306722e-06
4.738583e-07
-3.403098e-06
4.511576e-07
-3.492164e-06
4.251484e-07
-3.573355e-06
3.959177e-07
-3.64615e-06
3.635803e-07
-3.710079e-06
3.282779e-07
-3.764719e-06
2.901774e-07
-3.809703e-06
2.494695e-07
-3.84471e-06
2.063675e-07
-3.869476e-06
1.611053e-07
-3.883786e-06
1.139369e-07
-3.88748e-06
6.513443e-08
-3.880446e-06
1.498786e-08
-3.862629e-06
-3.619429e-08
-3.83402e-06
-8.809358e-08
-3.794666e-06
-1.403761e-07
-3.744661e-06
-1.926966e-07
-3.684155e-06
-2.446989e-07
-3.613348e-06
-2.960172e-07
-3.532495e-06
-3.462787e-07
-3.441905e-06
-3.951051e-07
-3.341943e-06
-4.421155e-07
-3.233029e-06
-4.869295e-07
-3.11564e-06
-5.291705e-07
-2.990309e-06
-5.684692e-07
-2.857628e-06
-6.044689e-07
-2.718241e-06
-6.368293e-07
-2.572849e-06
-6.652321e-07
-2.422204e-06
-6.893861e-07
-2.267105e-06
-7.090329e-07
-2.1084e-06
-7.239524e-07
-1.946973e-06
-7.339679e-07
-1.783743e-06
-7.389517e-07
-1.619655e-06
-7.388289e-07
-1.455673e-06
-7.33582e-07
-1.292769e-06
-7.232535e-07
-1.131916e-06
-7.079481e-07
-9.740759e-07
-6.878331e-07
-8.201877e-07
-6.631385e-07
-6.711594e-07
-6.341545e-07
-5.278545e-07
-6.012287e-07
-3.910825e-07
-5.647611e-07
-2.615878e-07
-5.251984e-07
-1.400408e-07
-4.830267e-07
-2.702906e-08
-4.387629e-07
7.695038e-08
-3.929461e-07
1.714987e-07
-3.461277e-07
2.563178e-07
-2.98859e-07
3.31215e-07
-2.516838e-07
3.961039e-07
-2.051262e-07
4.510037e-07
-1.596813e-07
4.960368e-07
-1.158064e-07
5.314248e-07
-7.391273e-08
5.574818e-07
-3.435891e-08
5.746073e-07
2.553883e-09
5.832777e-07
3.658597e-08
5.84035e-07
6.756047e-08
5.774764e-07
9.536228e-08
5.642419e-07
1.199348e-07
5.450039e-07
1.412738e-07
5.204556e-07
1.59419e-07
4.913027e-07
1.744436e-07
4.58255e-07
1.864403e-07
4.220215e-07
1.955063e-07
3.833075e-07
2.01726e-07
3.428148e-07
2.05153e-07
3.012445e-07
2.057928e-07
2.593026e-07
2.035875e-07
2.177084e-07
1.984049e-07
1.772037e-07
1.900354e-07
1.385657e-07
1.781995e-07
1.026224e-07
1.625705e-07
7.027364e-08
1.428157e-07
4.252502e-08
1.186604e-07
2.054287e-08
8.997447e-08
5.749034e-09
5.688388e-08
1.993642e-08
3.155001e-09
-1.763977e-08
1.055876e-08
-4.443747e-08
2.052576e-08
-6.345052e-08
3.168865e-08
-7.54117e-08
4.291629e-08
-8.106546e-08
5.326405e-08
-8.117828e-08
6.19403e-08
-7.652053e-08
6.828286e-08
-6.784405e-08
7.174156e-08
-5.586195e-08
7.186401e-08
-4.123197e-08
6.828274e-08
-2.454373e-08
6.070288e-08
-6.309756e-09
4.88899e-08
1.304017e-08
3.26575e-08
3.316136e-08
1.185621e-08
5.379257e-08
-1.363798e-08
7.475268e-08
-4.393348e-08
9.593372e-08
-7.913131e-08
1.172915e-07
-1.193314e-07
1.388342e-07
-1.646369e-07
1.606097e-07
-2.151563e-07
1.826918e-07
-2.710025e-07
2.051664e-07
-3.322903e-07
2.281184e-07
-3.991323e-07
2.516207e-07
-4.71632e-07
2.757235e-07
-5.498778e-07
3.004475e-07
-6.339344e-07
3.257785e-07
-7.238351e-07
3.516642e-07
-8.195747e-07
3.780134e-07
-9.211015e-07
4.046969e-07
-1.028312e-06
4.315495e-07
-1.141043e-06
4.583726e-07
-1.259072e-06
4.849387e-07
-1.38211e-06
5.109951e-07
-1.509802e-06
5.362682e-07
-1.641726e-06
5.60469e-07
-1.777397e-06
5.832975e-07
-1.916265e-06
6.044479e-07
-2.057725e-06
6.236137e-07
-2.201119e-06
6.404934e-07
-2.345743e-06
6.547952e-07
-2.490859e-06
6.662422e-07
-2.635697e-06
6.745772e-07
-2.779468e-06
6.795667e-07
-2.921376e-06
6.810053e-07
-3.06062e-06
6.787181e-07
-3.19641e-06
6.725638e-07
-3.327972e-06
6.624363e-07
-3.454555e-06
6.482656e-07
-3.57544e-06
6.300182e-07
-3.689944e-06
6.07697e-07
-3.797426e-06
5.813403e-07
-3.897289e-06
5.510208e-07
-3.988984e-06
5.168438e-07
-4.072012e-06
4.78945e-07
-4.145921e-06
4.374895e-07
-4.210312e-06
3.926686e-07
-4.264833e-06
3.446989e-07
-4.309183e-06
2.938194e-07
-4.343107e-06
2.402909e-07
-4.366395e-06
1.843936e-07
-4.378884e-06
1.264263e-07
-4.380455e-06
6.670515e-08
-4.371031e-06
5.563417e-09
-4.350577e-06
-5.664818e-08
-4.319101e-06
-1.195697e-07
-4.276652e-06
-1.828253e-07
-4.223322e-06
-2.460267e-07
-4.159247e-06
-3.087735e-07
-4.084609e-06
-3.706548e-07
-3.999637e-06
-4.312506e-07
-3.904609e-06
-4.901337e-07
-3.799852e-06
-5.468724e-07
-3.685748e-06
-6.010337e-07
-3.562732e-06
-6.521861e-07
-3.431297e-06
-6.999047e-07
-3.29199e-06
-7.437754e-07
-3.145419e-06
-7.834001e-07
-2.992248e-06
-8.18403e-07
-2.833198e-06
-8.484365e-07
-2.669044e-06
-8.731873e-07
-2.500612e-06
-8.923839e-07
-2.328778e-06
-9.058022e-07
-2.154457e-06
-9.132722e-07
-1.978603e-06
-9.146838e-07
-1.802193e-06
-9.099916e-07
-1.626227e-06
-8.992192e-07
-1.451713e-06
-8.824621e-07
-1.279657e-06
-8.59889e-07
-1.111054e-06
-8.317423e-07
-9.468715e-07
-7.983366e-07
-7.88045e-07
-7.600551e-07
-6.354608e-07
-7.173453e-07
-4.899468e-07
-6.707124e-07
-3.522619e-07
-6.207116e-07
-2.230862e-07
-5.679386e-07
-1.030126e-07
-5.130197e-07
7.46029e-09
-4.566006e-07
1.07936e-07
-3.993348e-07
1.981241e-07
-3.418718e-07
2.778408e-07
-2.848429e-07
3.470126e-07
-2.28853e-07
4.05674e-07
-1.744679e-07
4.539657e-07
-1.222044e-07
4.921294e-07
-7.252261e-08
5.205017e-07
-2.581845e-08
5.395077e-07
1.757999e-08
5.496504e-07
5.741771e-08
5.515021e-07
9.351064e-08
5.456924e-07
1.257445e-07
5.328976e-07
1.540686e-07
5.138293e-07
1.784873e-07
4.892247e-07
1.990482e-07
4.598377e-07
2.158274e-07
4.264316e-07
2.289124e-07
3.897748e-07
2.383828e-07
3.506383e-07
2.442894e-07
3.097966e-07
2.466345e-07
2.68031e-07
2.453531e-07
2.261363e-07
2.402997e-07
1.849305e-07
2.312412e-07
1.45269e-07
2.178609e-07
1.080643e-07
1.997752e-07
7.431445e-08
1.765656e-07
4.514666e-08
1.478282e-07
2.188298e-08
1.132382e-07
6.140536e-09
7.262632e-08
2.607696e-08
2.957028e-09
-2.059679e-08
9.769614e-09
-5.125006e-08
1.873244e-08
-7.241337e-08
2.845248e-08
-8.513175e-08
3.777947e-08
-9.039245e-08
4.575907e-08
-8.915786e-08
5.159744e-08
-8.23589e-08
5.463429e-08
-7.088093e-08
5.432206e-08
-5.554972e-08
5.020888e-08
-3.711877e-08
4.192402e-08
-1.625887e-08
2.916477e-08
6.449486e-09
1.168366e-08
3.052125e-08
-1.072273e-08
5.556774e-08
-3.822533e-08
8.129517e-08
-7.09723e-08
1.074997e-07
-1.090978e-07
1.340592e-07
-1.527292e-07
1.609227e-07
-2.019913e-07
1.880963e-07
-2.570098e-07
2.156282e-07
-3.179108e-07
2.435928e-07
-3.848188e-07
2.720744e-07
-4.578527e-07
3.011523e-07
-5.371193e-07
3.308873e-07
-6.227064e-07
3.613106e-07
-7.146746e-07
3.924158e-07
-8.13049e-07
4.241529e-07
-9.178108e-07
4.564259e-07
-1.02889e-06
4.890922e-07
-1.146157e-06
5.219643e-07
-1.269421e-06
5.548131e-07
-1.39842e-06
5.873723e-07
-1.532825e-06
6.193435e-07
-1.672232e-06
6.504023e-07
-1.816169e-06
6.802045e-07
-1.964092e-06
7.083924e-07
-2.115396e-06
7.346016e-07
-2.269416e-06
7.584677e-07
-2.425435e-06
7.796329e-07
-2.582694e-06
7.977525e-07
-2.7404e-06
8.125011e-07
-2.897736e-06
8.235784e-07
-3.053873e-06
8.307138e-07
-3.207977e-06
8.336712e-07
-3.359224e-06
8.322523e-07
-3.506805e-06
8.262989e-07
-3.649936e-06
8.15695e-07
-3.787867e-06
8.003667e-07
-3.919884e-06
7.802829e-07
-4.045319e-06
7.554536e-07
-4.163551e-06
7.259288e-07
-4.274007e-06
6.917961e-07
-4.376165e-06
6.531787e-07
-4.469553e-06
6.102321e-07
-4.55375e-06
5.63142e-07
-4.628382e-06
5.121212e-07
-4.693121e-06
4.574077e-07
-4.747683e-06
3.992614e-07
-4.791827e-06
3.379633e-07
-4.825349e-06
2.73813e-07
-4.848083e-06
2.071278e-07
-4.859899e-06
1.382415e-07
-4.860698e-06
6.750402e-08
-4.850416e-06
-4.718122e-09
-4.829021e-06
-7.804354e-08