/*--------------------------------*- C++ -*----------------------------------*\
| =========                 |                                                 |
| \\      /  F ield         | OpenFOAM: The Open Source CFD Toolbox           |
|  \\    /   O peration     | Version:  2406                                  |
|   \\  /    A nd           | Website:  www.openfoam.com                      |
|    \\/     M anipulation  |                                                 |
\*---------------------------------------------------------------------------*/
FoamFile
{
    version     2.0;
    format      ascii;
    arch        "LSB;label=32;scalar=64";
    class       volVectorField;
    location    "2020";
    object      U;
}
// * * * * * * * * * * * * * * * * * * * * * * * * * * * * * * * * * * * * * //

dimensions      [0 1 -1 0 0 0 0];

internalField   nonuniform List<vector> 
16384
(
(-4.258918e-08 4.080808e-08 0)
(7.976724e-08 -2.153011e-08 0)
(5.178629e-07 -8.838783e-08 0)
(1.216419e-06 -1.344662e-07 0)
(2.089253e-06 -1.615597e-07 0)
(3.058379e-06 -1.737581e-07 0)
(4.059078e-06 -1.749224e-07 0)
(5.039977e-06 -1.682607e-07 0)
(5.961909e-06 -1.562796e-07 0)
(6.796229e-06 -1.409106e-07 0)
(7.523103e-06 -1.236483e-07 0)
(8.129948e-06 -1.056376e-07 0)
(8.61001e-06 -8.773448e-08 0)
(8.961061e-06 -7.055388e-08 0)
(9.184205e-06 -5.449959e-08 0)
(9.282788e-06 -3.979421e-08 0)
(9.261428e-06 -2.650574e-08 0)
(9.125168e-06 -1.457152e-08 0)
(8.878785e-06 -3.825614e-09 0)
(8.526219e-06 5.974703e-09 0)
(8.070157e-06 1.512484e-08 0)
(7.511772e-06 2.394605e-08 0)
(6.850574e-06 3.276736e-08 0)
(6.084409e-06 4.190868e-08 0)
(5.209554e-06 5.166208e-08 0)
(4.220877e-06 6.228519e-08 0)
(3.112083e-06 7.399856e-08 0)
(1.875991e-06 8.697533e-08 0)
(5.048131e-07 1.013356e-07 0)
(-1.009566e-06 1.171517e-07 0)
(-2.675307e-06 1.34468e-07 0)
(-4.500343e-06 1.533073e-07 0)
(-6.492142e-06 1.736615e-07 0)
(-8.657489e-06 1.954953e-07 0)
(-1.100228e-05 2.187483e-07 0)
(-1.353134e-05 2.433362e-07 0)
(-1.624822e-05 2.691512e-07 0)
(-1.915503e-05 2.960599e-07 0)
(-2.225226e-05 3.23901e-07 0)
(-2.553861e-05 3.524824e-07 0)
(-2.901083e-05 3.815809e-07 0)
(-3.266353e-05 4.109392e-07 0)
(-3.648908e-05 4.402659e-07 0)
(-4.047744e-05 4.692354e-07 0)
(-4.461605e-05 4.974881e-07 0)
(-4.888977e-05 5.246323e-07 0)
(-5.328079e-05 5.502474e-07 0)
(-5.776862e-05 5.738866e-07 0)
(-6.233008e-05 5.95082e-07 0)
(-6.693937e-05 6.133499e-07 0)
(-7.156813e-05 6.281968e-07 0)
(-7.618557e-05 6.39127e-07 0)
(-8.075868e-05 6.456507e-07 0)
(-8.525238e-05 6.472911e-07 0)
(-8.962982e-05 6.43594e-07 0)
(-9.385268e-05 6.341391e-07 0)
(-9.788148e-05 6.185485e-07 0)
(-0.000101676 5.964963e-07 0)
(-0.0001051957 5.677215e-07 0)
(-0.0001084001 5.320373e-07 0)
(-0.0001112494 4.893407e-07 0)
(-0.0001137049 4.396237e-07 0)
(-0.0001157297 3.829837e-07 0)
(-0.0001172889 3.196307e-07 0)
(-0.0001183506 2.498923e-07 0)
(-0.0001188863 1.742125e-07 0)
(-0.0001188713 9.315171e-08 0)
(-0.0001182855 7.416409e-09 0)
(-0.0001171138 -8.214587e-08 0)
(-0.0001153468 -1.74574e-07 0)
(-0.0001129811 -2.687942e-07 0)
(-0.0001100196 -3.636306e-07 0)
(-0.0001064721 -4.578181e-07 0)
(-0.0001023553 -5.500213e-07 0)
(-9.769285e-05 -6.388594e-07 0)
(-9.251569e-05 -7.229342e-07 0)
(-8.686162e-05 -8.008584e-07 0)
(-8.077513e-05 -8.712881e-07 0)
(-7.430702e-05 -9.329594e-07 0)
(-6.751383e-05 -9.847252e-07 0)
(-6.045711e-05 -1.025588e-06 0)
(-5.320263e-05 -1.054734e-06 0)
(-4.581938e-05 -1.071562e-06 0)
(-3.83785e-05 -1.075708e-06 0)
(-3.095212e-05 -1.067068e-06 0)
(-2.361216e-05 -1.045801e-06 0)
(-1.642905e-05 -1.012333e-06 0)
(-9.470475e-06 -9.673527e-07 0)
(-2.800298e-06 -9.117439e-07 0)
(3.522816e-06 -8.464879e-07 0)
(9.446472e-06 -7.730351e-07 0)
(1.492512e-05 -6.931361e-07 0)
(1.992074e-05 -6.084357e-07 0)
(2.440354e-05 -5.205938e-07 0)
(2.835227e-05 -4.312687e-07 0)
(3.175429e-05 -3.420656e-07 0)
(3.460545e-05 -2.544935e-07 0)
(3.690976e-05 -1.699299e-07 0)
(3.86789e-05 -8.959032e-08 0)
(3.993152e-05 -1.450421e-08 0)
(4.069244e-05 5.450137e-08 0)
(4.099173e-05 1.168067e-07 0)
(4.086372e-05 1.720002e-07 0)
(4.034597e-05 2.198697e-07 0)
(3.94782e-05 2.604136e-07 0)
(3.830129e-05 2.937971e-07 0)
(3.685635e-05 3.203335e-07 0)
(3.518381e-05 3.404634e-07 0)
(3.332269e-05 3.547315e-07 0)
(3.13099e-05 3.637609e-07 0)
(2.917974e-05 3.682263e-07 0)
(2.696355e-05 3.688265e-07 0)
(2.468948e-05 3.662549e-07 0)
(2.238251e-05 3.611662e-07 0)
(2.006467e-05 3.541377e-07 0)
(1.77555e-05 3.456219e-07 0)
(1.547284e-05 3.358873e-07 0)
(1.323389e-05 3.249451e-07 0)
(1.105669e-05 3.124591e-07 0)
(8.961898e-06 2.976353e-07 0)
(6.975059e-06 2.790942e-07 0)
(5.128979e-06 2.547373e-07 0)
(3.466176e-06 2.216588e-07 0)
(2.040587e-06 1.762667e-07 0)
(9.171725e-07 1.149018e-07 0)
(1.65677e-07 3.527904e-08 0)
(-1.670951e-07 -5.591208e-08 0)
(-1.085578e-07 -1.08833e-07 0)
(2.028905e-08 -8.204885e-08 0)
(6.029784e-07 -6.052734e-07 0)
(1.839411e-06 -1.138867e-06 0)
(3.613e-06 -1.542196e-06 0)
(5.750559e-06 -1.79733e-06 0)
(8.092547e-06 -1.918767e-06 0)
(1.04971e-05 -1.929241e-06 0)
(1.28448e-05 -1.85209e-06 0)
(1.503993e-05 -1.708541e-06 0)
(1.700894e-05 -1.516968e-06 0)
(1.869802e-05 -1.292844e-06 0)
(2.007026e-05 -1.048875e-06 0)
(2.110283e-05 -7.951842e-07 0)
(2.178411e-05 -5.394905e-07 0)
(2.211097e-05 -2.873064e-07 0)
(2.208623e-05 -4.214849e-08 0)
(2.171634e-05 1.942327e-07 0)
(2.100931e-05 4.216005e-07 0)
(1.997303e-05 6.409586e-07 0)
(1.861378e-05 8.542708e-07 0)
(1.693525e-05 1.064181e-06 0)
(1.493783e-05 1.273732e-06 0)
(1.26182e-05 1.486119e-06 0)
(9.969326e-06 1.704469e-06 0)
(6.980641e-06 1.931652e-06 0)
(3.638473e-06 2.170139e-06 0)
(-7.337471e-08 2.421909e-06 0)
(-4.172932e-06 2.688391e-06 0)
(-8.679318e-06 2.970436e-06 0)
(-1.361196e-05 3.268331e-06 0)
(-1.898985e-05 3.581834e-06 0)
(-2.483081e-05 3.91021e-06 0)
(-3.115088e-05 4.25226e-06 0)
(-3.79636e-05 4.606356e-06 0)
(-4.52795e-05 4.970466e-06 0)
(-5.310553e-05 5.342183e-06 0)
(-6.144455e-05 5.718733e-06 0)
(-7.029484e-05 6.096989e-06 0)
(-7.964969e-05 6.473482e-06 0)
(-8.949693e-05 6.844407e-06 0)
(-9.981858e-05 7.205646e-06 0)
(-0.0001105906 7.552784e-06 0)
(-0.0001217823 7.881144e-06 0)
(-0.0001333566 8.185821e-06 0)
(-0.0001452697 8.46173e-06 0)
(-0.0001574706 8.703662e-06 0)
(-0.0001699019 8.906344e-06 0)
(-0.0001824993 9.064509e-06 0)
(-0.0001951923 9.172969e-06 0)
(-0.000207904 9.226696e-06 0)
(-0.0002205523 9.220902e-06 0)
(-0.0002330497 9.151122e-06 0)
(-0.0002453042 9.0133e-06 0)
(-0.0002572204 8.803871e-06 0)
(-0.0002686999 8.519846e-06 0)
(-0.0002796422 8.158891e-06 0)
(-0.000289946 7.719405e-06 0)
(-0.0002995102 7.200591e-06 0)
(-0.0003082346 6.602527e-06 0)
(-0.0003160217 5.926226e-06 0)
(-0.0003227773 5.173687e-06 0)
(-0.0003284121 4.347946e-06 0)
(-0.0003328427 3.453108e-06 0)
(-0.0003359931 2.494368e-06 0)
(-0.0003377956 1.477998e-06 0)
(-0.0003381922 4.11308e-07 0)
(-0.0003371354 -6.973171e-07 0)
(-0.0003345899 -1.838403e-06 0)
(-0.0003305328 -3.001457e-06 0)
(-0.0003249552 -4.175149e-06 0)
(-0.0003178626 -5.347391e-06 0)
(-0.0003092754 -6.505466e-06 0)
(-0.0002992295 -7.636179e-06 0)
(-0.0002877764 -8.726046e-06 0)
(-0.0002749836 -9.761497e-06 0)
(-0.0002609339 -1.072911e-05 0)
(-0.000245725 -1.161585e-05 0)
(-0.0002294695 -1.240936e-05 0)
(-0.0002122928 -1.309818e-05 0)
(-0.0001943328 -1.367208e-05 0)
(-0.0001757378 -1.412227e-05 0)
(-0.0001566651 -1.444167e-05 0)
(-0.0001372786 -1.462513e-05 0)
(-0.000117747 -1.466962e-05 0)
(-9.824109e-05 -1.457435e-05 0)
(-7.893132e-05 -1.434089e-05 0)
(-5.998523e-05 -1.397315e-05 0)
(-4.156483e-05 -1.34774e-05 0)
(-2.382402e-05 -1.286206e-05 0)
(-6.90631e-06 -1.213756e-05 0)
(9.057704e-06 -1.131628e-05 0)
(2.39524e-05 -1.041251e-05 0)
(3.767884e-05 -9.441566e-06 0)
(5.015586e-05 -8.419495e-06 0)
(6.132126e-05 -7.362781e-06 0)
(7.113235e-05 -6.287951e-06 0)
(7.956609e-05 -5.211149e-06 0)
(8.66187e-05 -4.147768e-06 0)
(9.230493e-05 -3.112116e-06 0)
(9.665693e-05 -2.117119e-06 0)
(9.972271e-05 -1.174077e-06 0)
(0.0001015644 -2.924925e-07 0)
(0.000102256 5.200413e-07 0)
(0.0001018816 1.257982e-06 0)
(0.0001005324 1.917753e-06 0)
(9.830502e-05 2.497708e-06 0)
(9.529868e-05 2.997979e-06 0)
(9.161328e-05 3.420315e-06 0)
(8.734731e-05 3.767883e-06 0)
(8.259613e-05 4.045022e-06 0)
(7.745048e-05 4.256968e-06 0)
(7.199542e-05 4.409526e-06 0)
(6.630964e-05 4.508722e-06 0)
(6.046522e-05 4.560384e-06 0)
(5.452807e-05 4.569687e-06 0)
(4.855881e-05 4.540615e-06 0)
(4.261445e-05 4.475378e-06 0)
(3.675075e-05 4.373759e-06 0)
(3.102526e-05 4.232434e-06 0)
(2.550105e-05 4.044327e-06 0)
(2.025083e-05 3.798121e-06 0)
(1.536109e-05 3.4782e-06 0)
(1.09353e-05 3.065583e-06 0)
(7.094576e-06 2.541135e-06 0)
(3.972439e-06 1.893546e-06 0)
(1.698666e-06 1.137092e-06 0)
(3.654519e-07 3.555866e-07 0)
(-5.41404e-08 -1.66731e-07 0)
(8.752044e-08 -5.176042e-07 0)
(1.138739e-06 -1.841026e-06 0)
(3.058649e-06 -3.055688e-06 0)
(5.658188e-06 -3.970497e-06 0)
(8.702062e-06 -4.552076e-06 0)
(1.198545e-05 -4.823524e-06 0)
(1.532198e-05 -4.828263e-06 0)
(1.854988e-05 -4.615024e-06 0)
(2.153537e-05 -4.231022e-06 0)
(2.417241e-05 -3.719056e-06 0)
(2.638051e-05 -3.116405e-06 0)
(2.810182e-05 -2.454492e-06 0)
(2.92977e-05 -1.75888e-06 0)
(2.994517e-05 -1.049458e-06 0)
(3.003335e-05 -3.40757e-07 0)
(2.956002e-05 3.57629e-07 0)
(2.852849e-05 1.040548e-06 0)
(2.694473e-05 1.706665e-06 0)
(2.481494e-05 2.357831e-06 0)
(2.214359e-05 2.998374e-06 0)
(1.893192e-05 3.63439e-06 0)
(1.517694e-05 4.273044e-06 0)
(1.087092e-05 4.921926e-06 0)
(6.001314e-06 5.588464e-06 0)
(5.510692e-07 6.279438e-06 0)
(-5.500737e-06 7.000604e-06 0)
(-1.217803e-05 7.756425e-06 0)
(-1.950668e-05 8.549906e-06 0)
(-2.751337e-05 9.382528e-06 0)
(-3.622444e-05 1.025425e-05 0)
(-4.566471e-05 1.116354e-05 0)
(-5.585635e-05 1.210749e-05 0)
(-6.681786e-05 1.308187e-05 0)
(-7.856305e-05 1.408123e-05 0)
(-9.110011e-05 1.509902e-05 0)
(-0.0001044308 1.61276e-05 0)
(-0.0001185498 1.715837e-05 0)
(-0.0001334437 1.818176e-05 0)
(-0.0001490906 1.918735e-05 0)
(-0.0001654597 2.01639e-05 0)
(-0.0001825104 2.109945e-05 0)
(-0.0002001927 2.198139e-05 0)
(-0.000218446 2.279662e-05 0)
(-0.0002371998 2.353166e-05 0)
(-0.0002563736 2.417282e-05 0)
(-0.0002758766 2.470636e-05 0)
(-0.0002956087 2.511868e-05 0)
(-0.0003154606 2.539654e-05 0)
(-0.0003353146 2.552725e-05 0)
(-0.0003550454 2.549886e-05 0)
(-0.000374521 2.530043e-05 0)
(-0.0003936039 2.492216e-05 0)
(-0.000412152 2.435565e-05 0)
(-0.0004300204 2.359405e-05 0)
(-0.0004470624 2.263226e-05 0)
(-0.000463131 2.146707e-05 0)
(-0.0004780807 2.009733e-05 0)
(-0.0004917685 1.852407e-05 0)
(-0.0005040563 1.67506e-05 0)
(-0.0005148115 1.478259e-05 0)
(-0.0005239094 1.262818e-05 0)
(-0.0005312343 1.029797e-05 0)
(-0.000536681 7.805094e-06 0)
(-0.0005401564 5.165136e-06 0)
(-0.0005415809 2.396103e-06 0)
(-0.0005408893 -4.816933e-07 0)
(-0.0005380328 -3.445648e-06 0)
(-0.0005329792 -6.470781e-06 0)
(-0.0005257145 -9.530302e-06 0)
(-0.0005162434 -1.259576e-05 0)
(-0.0005045898 -1.563729e-05 0)
(-0.0004907975 -1.862392e-05 0)
(-0.0004749304 -2.152394e-05 0)
(-0.0004570724 -2.430532e-05 0)
(-0.0004373273 -2.693616e-05 0)
(-0.0004158186 -2.938516e-05 0)
(-0.0003926882 -3.162219e-05 0)
(-0.0003680962 -3.361881e-05 0)
(-0.0003422189 -3.534886e-05 0)
(-0.0003152475 -3.678899e-05 0)
(-0.0002873866 -3.791924e-05 0)
(-0.0002588515 -3.872351e-05 0)
(-0.0002298661 -3.919008e-05 0)
(-0.0002006602 -3.931197e-05 0)
(-0.0001714667 -3.908724e-05 0)
(-0.0001425187 -3.851922e-05 0)
(-0.0001140459 -3.761661e-05 0)
(-8.627219e-05 -3.639339e-05 0)
(-5.94117e-05 -3.486872e-05 0)
(-3.366628e-05 -3.306656e-05 0)
(-9.222348e-06 -3.101515e-05 0)
(1.375199e-05 -2.874668e-05 0)
(3.510895e-05 -2.629683e-05 0)
(5.47236e-05 -2.37033e-05 0)
(7.249513e-05 -2.100516e-05 0)
(8.834819e-05 -1.824225e-05 0)
(0.0001022334 -1.545416e-05 0)
(0.0001141276 -1.267928e-05 0)
(0.000124033 -9.953993e-06 0)
(0.0001319766 -7.311912e-06 0)
(0.0001380085 -4.783215e-06 0)
(0.0001422 -2.394115e-06 0)
(0.0001446411 -1.664657e-07 0)
(0.000145438 1.882507e-06 0)
(0.0001447099 3.740464e-06 0)
(0.0001425864 5.399755e-06 0)
(0.0001392037 6.857289e-06 0)
(0.0001347022 8.114189e-06 0)
(0.0001292228 9.17536e-06 0)
(0.0001229052 1.004894e-05 0)
(0.0001158848 1.074562e-05 0)
(0.0001082914 1.127787e-05 0)
(0.0001002477 1.165903e-05 0)
(9.186882e-05 1.190224e-05 0)
(8.326245e-05 1.20193e-05 0)
(7.452983e-05 1.201936e-05 0)
(6.576768e-05 1.190746e-05 0)
(5.707094e-05 1.168316e-05 0)
(4.853652e-05 1.133902e-05 0)
(4.026747e-05 1.085955e-05 0)
(3.237762e-05 1.022063e-05 0)
(2.499562e-05 9.390292e-06 0)
(1.826755e-05 8.332037e-06 0)
(1.23559e-05 7.012924e-06 0)
(7.431427e-06 5.420528e-06 0)
(3.656677e-06 3.595569e-06 0)
(1.178548e-06 1.699234e-06 0)
(4.170336e-08 1.782481e-07 0)
(1.34475e-07 -1.21645e-06 0)
(1.550705e-06 -3.61947e-06 0)
(3.993145e-06 -5.658683e-06 0)
(7.191556e-06 -7.16054e-06 0)
(1.085076e-05 -8.098326e-06 0)
(1.473179e-05 -8.510559e-06 0)
(1.861948e-05 -8.464282e-06 0)
(2.232531e-05 -8.036369e-06 0)
(2.569094e-05 -7.303477e-06 0)
(2.858817e-05 -6.33689e-06 0)
(3.09171e-05 -5.200001e-06 0)
(3.260333e-05 -3.94713e-06 0)
(3.359445e-05 -2.623095e-06 0)
(3.385623e-05 -1.263227e-06 0)
(3.33687e-05 1.062817e-07 0)
(3.212227e-05 1.46781e-06 0)
(3.011409e-05 2.811464e-06 0)
(2.734482e-05 4.134103e-06 0)
(2.381576e-05 5.438221e-06 0)
(1.952655e-05 6.730727e-06 0)
(1.447342e-05 8.021682e-06 0)
(8.648103e-06 9.323057e-06 0)
(2.037215e-06 1.064756e-05 0)
(-5.377739e-06 1.200758e-05 0)
(-1.361992e-05 1.341431e-05 0)
(-2.271629e-05 1.487704e-05 0)
(-3.269644e-05 1.640267e-05 0)
(-4.359128e-05 1.799537e-05 0)
(-5.54315e-05 1.965644e-05 0)
(-6.824608e-05 2.13843e-05 0)
(-8.206074e-05 2.317454e-05 0)
(-9.68965e-05 2.50201e-05 0)
(-0.0001127683 2.691142e-05 0)
(-0.0001296836 2.883659e-05 0)
(-0.0001476414 3.078159e-05 0)
(-0.0001666311 3.273038e-05 0)
(-0.0001866316 3.466512e-05 0)
(-0.0002076104 3.65663e-05 0)
(-0.000229523 3.84129e-05 0)
(-0.0002523125 4.018258e-05 0)
(-0.0002759091 4.18519e-05 0)
(-0.00030023 4.339658e-05 0)
(-0.0003251794 4.479173e-05 0)
(-0.0003506488 4.601221e-05 0)
(-0.0003765174 4.703294e-05 0)
(-0.0004026527 4.782926e-05 0)
(-0.0004289113 4.83773e-05 0)
(-0.0004551403 4.865435e-05 0)
(-0.0004811778 4.863929e-05 0)
(-0.0005068551 4.831289e-05 0)
(-0.0005319978 4.76582e-05 0)
(-0.0005564272 4.666087e-05 0)
(-0.0005799626 4.530948e-05 0)
(-0.0006024228 4.359577e-05 0)
(-0.0006236275 4.15149e-05 0)
(-0.0006434001 3.906567e-05 0)
(-0.0006615684 3.625066e-05 0)
(-0.0006779672 3.307636e-05 0)
(-0.0006924397 2.955328e-05 0)
(-0.0007048392 2.569596e-05 0)
(-0.0007150306 2.152306e-05 0)
(-0.000722892 1.705725e-05 0)
(-0.0007283159 1.23252e-05 0)
(-0.0007312109 7.35746e-06 0)
(-0.0007315023 2.188262e-06 0)
(-0.0007291335 -3.144602e-06 0)
(-0.0007240674 -8.599812e-06 0)
(-0.0007162863 -1.413294e-05 0)
(-0.000705793 -1.969705e-05 0)
(-0.0006926112 -2.524292e-05 0)
(-0.0006767859 -3.071951e-05 0)
(-0.0006583835 -3.607441e-05 0)
(-0.0006374921 -4.125446e-05 0)
(-0.0006142208 -4.620633e-05 0)
(-0.0005887003 -5.087728e-05 0)
(-0.0005610813 -5.521582e-05 0)
(-0.0005315345 -5.917258e-05 0)
(-0.0005002491 -6.270109e-05 0)
(-0.0004674317 -6.575865e-05 0)
(-0.0004333046 -6.830714e-05 0)
(-0.0003981043 -7.03139e-05 0)
(-0.000362079 -7.175249e-05 0)
(-0.0003254864 -7.260339e-05 0)
(-0.0002885911 -7.285467e-05 0)
(-0.000251662 -7.250245e-05 0)
(-0.0002149687 -7.155132e-05 0)
(-0.0001787787 -7.001446e-05 0)
(-0.0001433543 -6.791373e-05 0)
(-0.0001089488 -6.527941e-05 0)
(-7.58034e-05 -6.214987e-05 0)
(-4.414412e-05 -5.857087e-05 0)
(-1.417846e-05 -5.459478e-05 0)
(1.390764e-05 -5.027976e-05 0)
(3.995158e-05 -4.568882e-05 0)
(6.381705e-05 -4.08877e-05 0)
(8.539529e-05 -3.594383e-05 0)
(0.0001046066 -3.092514e-05 0)
(0.000121401 -2.589851e-05 0)
(0.0001357582 -2.092827e-05 0)
(0.0001476871 -1.607493e-05 0)
(0.0001572246 -1.139391e-05 0)
(0.0001644344 -6.934508e-06 0)
(0.0001694043 -2.739104e-06 0)
(0.000172244 1.157435e-06 0)
(0.0001730816 4.728358e-06 0)
(0.000172061 7.95496e-06 0)
(0.0001693377 1.082659e-05 0)
(0.0001650759 1.334016e-05 0)
(0.0001594442 1.549948e-05 0)
(0.0001526131 1.731445e-05 0)
(0.0001447517 1.879992e-05 0)
(0.0001360252 1.997439e-05 0)
(0.000126593 2.08584e-05 0)
(0.0001166081 2.147273e-05 0)
(0.0001062159 2.183636e-05 0)
(9.555583e-05 2.196419e-05 0)
(8.476232e-05 2.186469e-05 0)
(7.396775e-05 2.153754e-05 0)
(6.330586e-05 2.09714e-05 0)
(5.291583e-05 2.014246e-05 0)
(4.294658e-05 1.901405e-05 0)
(3.356034e-05 1.753866e-05 0)
(2.493487e-05 1.566379e-05 0)
(1.726244e-05 1.334464e-05 0)
(1.07428e-05 1.056783e-05 0)
(5.573922e-06 7.392398e-06 0)
(1.982639e-06 4.023115e-06 0)
(1.289372e-07 9.652854e-07 0)
(1.637482e-07 -2.096377e-06 0)
(1.823239e-06 -5.775999e-06 0)
(4.612228e-06 -8.72293e-06 0)
(8.187608e-06 -1.082876e-05 0)
(1.219956e-05 -1.209964e-05 0)
(1.637922e-05 -1.260175e-05 0)
(2.048996e-05 -1.243107e-05 0)
(2.43254e-05 -1.169511e-05 0)
(2.771136e-05 -1.05016e-05 0)
(3.050509e-05 -8.951862e-06 0)
(3.259325e-05 -7.137075e-06 0)
(3.388911e-05 -5.136203e-06 0)
(3.432906e-05 -3.015025e-06 0)
(3.386869e-05 -8.258795e-07 0)
(3.247882e-05 1.392039e-06 0)
(3.014145e-05 3.612016e-06 0)
(2.684597e-05 5.818638e-06 0)
(2.258569e-05 8.006456e-06 0)
(1.735489e-05 1.017835e-05 0)
(1.114634e-05 1.234372e-05 0)
(3.949564e-06 1.45166e-05 0)
(-4.250307e-06 1.67138e-05 0)
(-1.347303e-05 1.895314e-05 0)
(-2.37431e-05 2.125182e-05 0)
(-3.508908e-05 2.36251e-05 0)
(-4.754251e-05 2.60852e-05 0)
(-6.113644e-05 2.864054e-05 0)
(-7.590379e-05 3.129523e-05 0)
(-9.187553e-05 3.404883e-05 0)
(-0.0001090788 3.689631e-05 0)
(-0.0001275351 3.982818e-05 0)
(-0.0001472587 4.283069e-05 0)
(-0.0001682546 4.588614e-05 0)
(-0.0001905174 4.897314e-05 0)
(-0.0002140301 5.206698e-05 0)
(-0.0002387625 5.513988e-05 0)
(-0.0002646707 5.816136e-05 0)
(-0.000291696 6.109852e-05 0)
(-0.0003197647 6.391644e-05 0)
(-0.0003487875 6.657852e-05 0)
(-0.0003786598 6.904694e-05 0)
(-0.0004092617 7.12831e-05 0)
(-0.0004404584 7.324817e-05 0)
(-0.0004721014 7.490358e-05 0)
(-0.000504029 7.621166e-05 0)
(-0.0005360677 7.713615e-05 0)
(-0.0005680338 7.764286e-05 0)
(-0.0005997352 7.770019e-05 0)
(-0.0006309726 7.727971e-05 0)
(-0.0006615422 7.635664e-05 0)
(-0.0006912373 7.491034e-05 0)
(-0.0007198504 7.292469e-05 0)
(-0.0007471752 7.038845e-05 0)
(-0.0007730091 6.729555e-05 0)
(-0.0007971546 6.364529e-05 0)
(-0.0008194216 5.944252e-05 0)
(-0.0008396291 5.469772e-05 0)
(-0.0008576067 4.942705e-05 0)
(-0.0008731963 4.365233e-05 0)
(-0.0008862536 3.740097e-05 0)
(-0.0008966492 3.070593e-05 0)
(-0.0009042698 2.360546e-05 0)
(-0.0009090189 1.614302e-05 0)
(-0.0009108182 8.36697e-06 0)
(-0.000909608 3.303551e-07 0)
(-0.0009053481 -7.909311e-06 0)
(-0.0008980187 -1.629024e-05 0)
(-0.0008876196 -2.474739e-05 0)
(-0.0008741712 -3.321267e-05 0)
(-0.0008577149 -4.161542e-05 0)
(-0.000838313 -4.988295e-05 0)
(-0.0008160486 -5.794122e-05 0)
(-0.0007910262 -6.571554e-05 0)
(-0.0007633706 -7.313135e-05 0)
(-0.0007332273 -8.011515e-05 0)
(-0.0007007618 -8.659539e-05 0)
(-0.0006661587 -9.250352e-05 0)
(-0.0006296212 -9.777499e-05 0)
(-0.0005913696 -0.0001023504 0)
(-0.0005516403 -0.0001061765 0)
(-0.0005106842 -0.0001092076 0)
(-0.0004687646 -0.0001114059 0)
(-0.0004261551 -0.0001127435 0)
(-0.0003831377 -0.0001132023 0)
(-0.0003399997 -0.0001127752 0)
(-0.0002970307 -0.0001114669 0)
(-0.0002545203 -0.0001092935 0)
(-0.0002127541 -0.0001062834 0)
(-0.0001720107 -0.0001024766 0)
(-0.0001325587 -9.792459e-05 0)
(-9.465262e-05 -9.268964e-05 0)
(-5.853009e-05 -8.684366e-05 0)
(-2.440866e-05 -8.04671e-05 0)
(7.51729e-06 -7.364769e-05 0)
(3.707868e-05 -6.647891e-05 0)
(6.413444e-05 -5.905739e-05 0)
(8.857303e-05 -5.148119e-05 0)
(0.0001103139 -4.384799e-05 0)
(0.0001293083 -3.625312e-05 0)
(0.0001455391 -2.878764e-05 0)
(0.0001590205 -2.153639e-05 0)
(0.0001697971 -1.457644e-05 0)
(0.0001779417 -7.975686e-06 0)
(0.0001835538 -1.791733e-06 0)
(0.0001867565 3.928734e-06 0)
(0.0001876928 9.150861e-06 0)
(0.0001865236 1.385129e-05 0)
(0.0001834228 1.801801e-05 0)
(0.0001785739 2.164953e-05 0)
(0.0001721663 2.475376e-05 0)
(0.0001643921 2.734662e-05 0)
(0.0001554429 2.94501e-05 0)
(0.0001455072 3.109003e-05 0)
(0.0001347693 3.229348e-05 0)
(0.0001234077 3.308576e-05 0)
(0.0001115958 3.348722e-05 0)
(9.950232e-05 3.350982e-05 0)
(8.72941e-05 3.315386e-05 0)
(7.513845e-05 3.240511e-05 0)
(6.320694e-05 3.123286e-05 0)
(5.167907e-05 2.958987e-05 0)
(4.074563e-05 2.741526e-05 0)
(3.061119e-05 2.464232e-05 0)
(2.149471e-05 2.121384e-05 0)
(1.362611e-05 1.71087e-05 0)
(7.246919e-06 1.23838e-05 0)
(2.676208e-06 7.24104e-06 0)
(1.98608e-07 2.153045e-06 0)
(1.795498e-07 -3.084241e-06 0)
(1.970013e-06 -8.159156e-06 0)
(4.934785e-06 -1.205124e-05 0)
(8.674446e-06 -1.474196e-05 0)
(1.279481e-05 -1.629073e-05 0)
(1.700141e-05 -1.680397e-05 0)
(2.104068e-05 -1.64134e-05 0)
(2.469388e-05 -1.526046e-05 0)
(2.777665e-05 -1.348551e-05 0)
(3.013706e-05 -1.122073e-05 0)
(3.165292e-05 -8.585566e-06 0)
(3.222874e-05 -5.684079e-06 0)
(3.179215e-05 -2.60345e-06 0)
(3.029001e-05 5.865295e-07 0)
(2.768448e-05 3.833323e-06 0)
(2.394892e-05 7.100705e-06 0)
(1.906416e-05 1.036747e-05 0)
(1.30151e-05 1.362563e-05 0)
(5.787711e-06 1.687821e-05 0)
(-2.633294e-06 2.013687e-05 0)
(-1.226612e-05 2.341934e-05 0)
(-2.313285e-05 2.674687e-05 0)
(-3.525969e-05 3.014177e-05 0)
(-4.867663e-05 3.362528e-05 0)
(-6.341647e-05 3.721563e-05 0)
(-7.951341e-05 4.092662e-05 0)
(-9.700131e-05 4.476652e-05 0)
(-0.0001159117 4.87374e-05 0)
(-0.0001362716 5.283479e-05 0)
(-0.0001581016 5.704766e-05 0)
(-0.0001814136 6.135859e-05 0)
(-0.0002062089 6.574412e-05 0)
(-0.0002324766 7.017518e-05 0)
(-0.0002601918 7.461757e-05 0)
(-0.0002893145 7.903251e-05 0)
(-0.0003197886 8.337713e-05 0)
(-0.0003515407 8.760505e-05 0)
(-0.0003844801 9.166697e-05 0)
(-0.0004184984 9.551127e-05 0)
(-0.0004534697 9.908473e-05 0)
(-0.000489251 0.0001023332 0)
(-0.0005256831 0.0001052023 0)
(-0.0005625919 0.0001076385 0)
(-0.0005997894 0.0001095897 0)
(-0.0006370758 0.000111006 0)
(-0.0006742413 0.0001118407 0)
(-0.0007110681 0.0001120512 0)
(-0.0007473328 0.0001115993 0)
(-0.0007828088 0.0001104523 0)
(-0.0008172684 0.0001085834 0)
(-0.0008504852 0.0001059719 0)
(-0.0008822367 0.0001026042 0)
(-0.000912306 9.847356e-05 0)
(-0.000940484 9.358044e-05 0)
(-0.0009665714 8.793267e-05 0)
(-0.0009903801 8.154537e-05 0)
(-0.001011735 7.444091e-05 0)
(-0.001030474 6.664881e-05 0)
(-0.001046451 5.820551e-05 0)
(-0.001059537 4.915415e-05 0)
(-0.001069617 3.954436e-05 0)
(-0.001076596 2.943192e-05 0)
(-0.001080394 1.887844e-05 0)
(-0.001080951 7.951085e-06 0)
(-0.001078226 -3.277726e-06 0)
(-0.001072195 -1.473068e-05 0)
(-0.001062855 -2.632622e-05 0)
(-0.00105022 -3.797936e-05 0)
(-0.001034323 -4.960182e-05 0)
(-0.001015217 -6.110263e-05 0)
(-0.0009929745 -7.238874e-05 0)
(-0.0009676865 -8.336577e-05 0)
(-0.0009394639 -9.393879e-05 0)
(-0.0009084367 -0.0001040132 0)
(-0.0008747542 -0.0001134959 0)
(-0.0008385848 -0.0001222961 0)
(-0.0008001151 -0.0001303267 0)
(-0.0007595501 -0.0001375055 0)
(-0.0007171119 -0.0001437564 0)
(-0.0006730388 -0.0001490109 0)
(-0.0006275844 -0.0001532093 0)
(-0.0005810154 -0.0001563023 0)
(-0.0005336106 -0.0001582517 0)
(-0.0004856585 -0.0001590322 0)
(-0.0004374546 -0.0001586317 0)
(-0.0003892992 -0.0001570529 0)
(-0.0003414946 -0.0001543129 0)
(-0.0002943415 -0.0001504443 0)
(-0.0002481361 -0.0001454949 0)
(-0.000203167 -0.0001395269 0)
(-0.0001597111 -0.000132617 0)
(-0.0001180306 -0.0001248547 0)
(-7.836981e-05 -0.0001163413 0)
(-4.095172e-05 -0.0001071881 0)
(-5.975212e-06 -9.751446e-05 0)
(2.638763e-05 -8.74457e-05 0)
(5.599359e-05 -7.711073e-05 0)
(8.273045e-05 -6.663885e-05 0)
(0.0001065181 -5.615763e-05 0)
(0.0001273094 -4.579061e-05 0)
(0.0001450903 -3.565471e-05 0)
(0.0001598794 -2.585803e-05 0)
(0.0001717268 -1.64978e-05 0)
(0.0001807126 -7.658739e-06 0)
(0.0001869446 5.881454e-07 0)
(0.0001905551 8.186588e-06 0)
(0.0001916988 1.509553e-05 0)
(0.0001905487 2.128894e-05 0)
(0.0001872922 2.675511e-05 0)
(0.0001821276 3.149546e-05 0)
(0.0001752605 3.552274e-05 0)
(0.0001669001 3.885875e-05 0)
(0.0001572567 4.153152e-05 0)
(0.000146539 4.35719e-05 0)
(0.000134953 4.500973e-05 0)
(0.000122701 4.586963e-05 0)
(0.0001099822 4.616663e-05 0)
(9.699411e-05 4.590196e-05 0)
(8.39342e-05 4.505941e-05 0)
(7.100326e-05 4.360298e-05 0)
(5.840845e-05 4.147673e-05 0)
(4.636668e-05 3.86081e-05 0)
(3.510801e-05 3.491633e-05 0)
(2.487859e-05 3.032844e-05 0)
(1.594162e-05 2.480493e-05 0)
(8.586911e-06 1.837777e-05 0)
(3.223919e-06 1.120537e-05 0)
(2.504125e-07 3.66602e-06 0)
(1.854779e-07 -4.11918e-06 0)
(2.00989e-06 -1.063134e-05 0)
(4.993346e-06 -1.545801e-05 0)
(8.698024e-06 -1.868068e-05 0)
(1.269827e-05 -2.042518e-05 0)
(1.667981e-05 -2.084842e-05 0)
(2.03766e-05 -2.012429e-05 0)
(2.356172e-05 -1.843173e-05 0)
(2.604478e-05 -1.594531e-05 0)
(2.766859e-05 -1.28285e-05 0)
(2.83056e-05 -9.228938e-06 0)
(2.785439e-05 -5.275439e-06 0)
(2.623603e-05 -1.076181e-06 0)
(2.339008e-05 3.281985e-06 0)
(1.92708e-05 7.733437e-06 0)
(1.384316e-05 1.223269e-05 0)
(7.079279e-06 1.675286e-05 0)
(-1.044875e-06 2.128337e-05 0)
(-1.05522e-05 2.582724e-05 0)
(-2.146654e-05 3.039807e-05 0)
(-3.381409e-05 3.501668e-05 0)
(-4.762404e-05 3.970793e-05 0)
(-6.292852e-05 4.449754e-05 0)
(-7.976186e-05 4.94093e-05 0)
(-9.815927e-05 5.446269e-05 0)
(-0.0001181551 5.967099e-05 0)
(-0.0001397808 6.503991e-05 0)
(-0.0001630625 7.056678e-05 0)
(-0.0001880187 7.624016e-05 0)
(-0.0002146583 8.203983e-05 0)
(-0.0002429778 8.793711e-05 0)
(-0.0002729596 9.389541e-05 0)
(-0.0003045706 9.987082e-05 0)
(-0.0003377602 0.0001058129 0)
(-0.0003724594 0.0001116656 0)
(-0.0004085801 0.0001173677 0)
(-0.0004460147 0.0001228544 0)
(-0.0004846358 0.0001280576 0)
(-0.0005242971 0.0001329071 0)
(-0.0005648338 0.0001373318 0)
(-0.0006060642 0.0001412607 0)
(-0.0006477906 0.0001446239 0)
(-0.000689802 0.0001473539 0)
(-0.0007318756 0.0001493866 0)
(-0.0007737797 0.0001506622 0)
(-0.0008152758 0.0001511267 0)
(-0.0008561218 0.0001507323 0)
(-0.000896074 0.0001494385 0)
(-0.0009348903 0.0001472127 0)
(-0.0009723324 0.0001440303 0)
(-0.001008168 0.0001398759 0)
(-0.001042174 0.0001347427 0)
(-0.001074137 0.0001286331 0)
(-0.001103854 0.0001215586 0)
(-0.001131138 0.0001135392 0)
(-0.001155815 0.0001046041 0)
(-0.001177726 9.479025e-05 0)
(-0.001196728 8.414304e-05 0)
(-0.001212695 7.271527e-05 0)
(-0.001225516 6.056701e-05 0)
(-0.001235098 4.776514e-05 0)
(-0.001241364 3.438297e-05 0)
(-0.001244254 2.049981e-05 0)
(-0.001243726 6.200675e-06 0)
(-0.001239751 -8.423981e-06 0)
(-0.00123232 -2.327893e-05 0)
(-0.00122144 -3.826497e-05 0)
(-0.001207132 -5.327921e-05 0)
(-0.001189435 -6.821535e-05 0)
(-0.001168406 -8.296426e-05 0)
(-0.001144117 -9.741464e-05 0)
(-0.001116659 -0.0001114537 0)
(-0.001086139 -0.000124968 0)
(-0.001052683 -0.0001378445 0)
(-0.001016434 -0.0001499714 0)
(-0.0009775545 -0.0001612398 0)
(-0.0009362237 -0.0001715443 0)
(-0.0008926396 -0.0001807852 0)
(-0.0008470178 -0.0001888694 0)
(-0.0007995907 -0.0001957126 0)
(-0.000750607 -0.0002012401 0)
(-0.0007003306 -0.0002053892 0)
(-0.0006490388 -0.0002081103 0)
(-0.0005970207 -0.0002093684 0)
(-0.000544575 -0.0002091446 0)
(-0.000492008 -0.0002074368 0)
(-0.0004396299 -0.0002042609 0)
(-0.000387753 -0.000199651 0)
(-0.0003366873 -0.0001936596 0)
(-0.000286738 -0.0001863575 0)
(-0.0002382014 -0.0001778331 0)
(-0.0001913619 -0.0001681911 0)
(-0.0001464879 -0.0001575514 0)
(-0.0001038288 -0.0001460471 0)
(-6.361167e-05 -0.0001338222 0)
(-2.60385e-05 -0.0001210289 0)
(8.716841e-06 -0.0001078256 0)
(4.051032e-05 -9.43735e-05 0)
(6.923005e-05 -8.083296e-05 0)
(9.47972e-05 -6.736089e-05 0)
(0.000117167 -5.410768e-05 0)
(0.0001363289 -4.121454e-05 0)
(0.0001523056 -2.881081e-05 0)
(0.0001651526 -1.701164e-05 0)
(0.0001749562 -5.916186e-06 0)
(0.0001818315 4.393622e-06 0)
(0.0001859188 1.385439e-05 0)
(0.000187382 2.242101e-05 0)
(0.0001864046 3.006665e-05 0)
(0.0001831854 3.678128e-05 0)
(0.0001779352 4.256982e-05 0)
(0.0001708734 4.744955e-05 0)
(0.0001622244 5.144679e-05 0)
(0.0001522154 5.459288e-05 0)
(0.0001410736 5.691957e-05 0)
(0.0001290255 5.845387e-05 0)
(0.0001162961 5.921283e-05 0)
(0.0001031094 5.919832e-05 0)
(8.969022e-05 5.839267e-05 0)
(7.626573e-05 5.67556e-05 0)
(6.306885e-05 5.422367e-05 0)
(5.034159e-05 5.071318e-05 0)
(3.83395e-05 4.61282e-05 0)
(2.733707e-05 4.037502e-05 0)
(1.763239e-05 3.338487e-05 0)
(9.563194e-06 2.514525e-05 0)
(3.617856e-06 1.574167e-05 0)
(2.856883e-07 5.422208e-06 0)
(1.841482e-07 -5.150974e-06 0)
(1.959696e-06 -1.307049e-05 0)
(4.820046e-06 -1.877181e-05 0)
(8.305253e-06 -2.243876e-05 0)
(1.197162e-05 -2.427099e-05 0)
(1.549227e-05 -2.448296e-05 0)
(1.859369e-05 -2.329587e-05 0)
(2.104483e-05 -2.092912e-05 0)
(2.265289e-05 -1.759278e-05 0)
(2.325851e-05 -1.348178e-05 0)
(2.273152e-05 -8.771419e-06 0)
(2.096691e-05 -3.614389e-06 0)
(1.78809e-05 1.861091e-06 0)
(1.340716e-05 7.552132e-06 0)
(7.492821e-06 1.338075e-05 0)
(9.495899e-08 1.929284e-05 0)
(-8.822893e-06 2.525621e-05 0)
(-1.929365e-05 3.125785e-05 0)
(-3.134904e-05 3.730063e-05 0)
(-4.502134e-05 4.339954e-05 0)
(-6.034435e-05 4.957766e-05 0)
(-7.735359e-05 5.586218e-05 0)
(-9.608582e-05 6.228055e-05 0)
(-0.0001165778 6.885709e-05 0)
(-0.0001388647 7.561007e-05 0)
(-0.0001629778 8.254946e-05 0)
(-0.0001889422 8.967533e-05 0)
(-0.0002167743 9.697694e-05 0)
(-0.000246479 0.0001044323 0)
(-0.0002780479 0.0001120085 0)
(-0.0003114566 0.0001196618 0)
(-0.0003466628 0.0001273389 0)
(-0.0003836051 0.0001349777 0)
(-0.0004222019 0.0001425082 0)
(-0.00046235 0.0001498541 0)
(-0.0005039253 0.0001569338 0)
(-0.0005467823 0.0001636619 0)
(-0.0005907551 0.0001699502 0)
(-0.0006356587 0.0001757098 0)
(-0.0006812903 0.0001808519 0)
(-0.0007274315 0.0001852896 0)
(-0.0007738508 0.0001889394 0)
(-0.0008203062 0.0001917223 0)
(-0.0008665476 0.0001935658 0)
(-0.0009123206 0.0001944042 0)
(-0.0009573689 0.0001941805 0)
(-0.001001437 0.0001928468 0)
(-0.001044275 0.0001903651 0)
(-0.001085637 0.0001867079 0)
(-0.001125288 0.0001818585 0)
(-0.001163003 0.0001758109 0)