/*--------------------------------*- C++ -*----------------------------------*\
  =========                 |
  \\      /  F ield         | OpenFOAM: The Open Source CFD Toolbox
   \\    /   O peration     | Website:  https://openfoam.org
    \\  /    A nd           | Version:  11
     \\/     M anipulation  |
\*---------------------------------------------------------------------------*/
FoamFile
{
    format      ascii;
    class       volScalarField;
    location    "2.5";
    object      p;
}
// * * * * * * * * * * * * * * * * * * * * * * * * * * * * * * * * * * * * * //

dimensions      [0 2 -2 0 0 0 0];

internalField   nonuniform List<scalar> 
9600
(
0.0488381
0.049044
0.0491496
0.0489645
0.0490511
0.0483633
0.0482025
0.0462583
0.0441255
0.0428716
0.0417974
0.0393617
0.036069
0.0323559
0.0282925
0.0239785
0.0195385
0.0150856
0.0108025
0.00669568
0.00262123
-0.00118642
-0.00431696
-0.00661199
-0.00806678
-0.00888614
-0.00920897
-0.00883681
-0.00792084
-0.00658758
-0.00523666
-0.00392047
-0.00255678
-0.00133769
-0.000302381
0.00064052
0.00119049
0.00194032
0.00269952
0.00431098
0.0488917
0.0491549
0.0491881
0.0491721
0.0490256
0.0483121
0.0475101
0.0448113
0.041581
0.0410228
0.0398284
0.0367746
0.0336191
0.0301397
0.0262666
0.0221673
0.0180101
0.0138776
0.0099073
0.00607266
0.00219794
-0.00138064
-0.0042777
-0.00652982
-0.00801884
-0.00889388
-0.00927324
-0.00895372
-0.0081555
-0.00687192
-0.0055241
-0.00412033
-0.00276547
-0.0013669
-0.00021129
0.000803232
0.00169285
0.00186045
0.00203378
0.00168782
0.0490052
0.0492547
0.0492621
0.0490793
0.0487569
0.0479021
0.0467006
0.0446076
0.0432634
0.043005
0.0405786
0.0390539
0.0359872
0.0321948
0.0280562
0.0236783
0.019289
0.015002
0.0108827
0.00686858
0.00292584
-0.000727699
-0.00399281
-0.00644822
-0.0080639
-0.00900622
-0.00941811
-0.00920936
-0.0085141
-0.00742111
-0.00623786
-0.0050578
-0.00393097
-0.00284465
-0.00171783
-0.000754992
0.000214284
0.00134046
0.00264012
0.00393966
0.049178
0.0493254
0.0492778
0.0490744
0.0484891
0.0473746
0.046276
0.0443849
0.0416067
0.0403704
0.0384939
0.0355174
0.0322005
0.0287064
0.024888
0.0208407
0.0168037
0.012794
0.00896766
0.00533103
0.00152995
-0.00197363
-0.00466885
-0.00689744
-0.00826468
-0.00919978
-0.00964
-0.00937731
-0.00858988
-0.00734612
-0.00593471
-0.00445423
-0.00290874
-0.00149916
-0.000378601
0.000730393
0.00134151
0.00164157
0.00177058
0.00124456
0.049334
0.0493705
0.0492618
0.0490211
0.0482476
0.0471013
0.0455524
0.0442894
0.0437995
0.0423483
0.040392
0.0374235
0.0351172
0.0315645
0.0274962
0.0231572
0.0187936
0.0145779
0.0105954
0.00669797
0.00286985
-0.000610676
-0.00391362
-0.00638325
-0.00834826
-0.00935136
-0.00987569
-0.00971875
-0.0091441
-0.00825038
-0.00719649
-0.00619704
-0.00519528
-0.00409808
-0.00305196
-0.00194543
-0.000620693
0.000642737
0.0019966
0.00344708
0.0494591
0.0493738
0.0492545
0.0489384
0.0480066
0.0468873
0.0454695
0.0441204
0.0422909
0.0403876
0.0378579
0.0347891
0.0315567
0.027775
0.0238859
0.0198123
0.0157767
0.0118064
0.00803126
0.00444543
0.000666713
-0.00284851
-0.00556448
-0.00789913
-0.00888077
-0.00983116
-0.0102746
-0.0101022
-0.00934412
-0.00809862
-0.00658795
-0.00499675
-0.00333624
-0.00185429
-0.000656977
0.000432032
0.000930923
0.00134715
0.00155294
0.00106933
0.0495311
0.0493803
0.0492578
0.048911
0.0479413
0.0467809
0.0452337
0.0439979
0.0427403
0.0412514
0.0391041
0.0364408
0.0337862
0.0305749
0.0265777
0.0223736
0.0180869
0.0139024
0.00998515
0.00616136
0.00244982
-0.000846654
-0.00407848
-0.00654981
-0.00895976
-0.0100712
-0.0105664
-0.0105065
-0.00993229
-0.00912066
-0.00818129
-0.00725543
-0.00634325
-0.00529985
-0.00427891
-0.0031203
-0.00145711
-3.93058e-05
0.00133433
0.00279622
0.0495816
0.0494501
0.0493099
0.0488462
0.0478501
0.0467124
0.0452361
0.0439838
0.0424917
0.0404075
0.0376951
0.0346521
0.0311609
0.0272769
0.0231345
0.0189669
0.0148466
0.0108478
0.00704678
0.0033853
-0.000404487
-0.00395977
-0.00687877
-0.00902798
-0.00990085
-0.0107795
-0.0112594
-0.0111032
-0.0104056
-0.00917412
-0.00756586
-0.00587396
-0.00411717
-0.00243029
-0.00105037
6.29474e-05
0.000488844
0.000950952
0.00120695
0.000912414
0.0496996
0.0495532
0.0493496
0.0488056
0.0478714
0.0466683
0.0453042
0.043928
0.0424603
0.0405687
0.0380739
0.035235
0.0324843
0.0293535
0.02538
0.021269
0.0171028
0.0129361
0.00902831
0.00525117
0.0015549
-0.00159132
-0.00454014
-0.00755179
-0.010031
-0.0112231
-0.0116973
-0.011607
-0.0109929
-0.0101323
-0.00924138
-0.00831154
-0.00740955
-0.00648076
-0.00544357
-0.0042861
-0.0023733
-0.000724923
0.000725152
0.00209325
0.0498775
0.0496843
0.0494293
0.048818
0.0479144
0.0467201
0.0453843
0.0439776
0.0424479
0.0402526
0.0374254
0.0343417
0.0310845
0.0272159
0.0225254
0.0182728
0.0140119
0.00988096
0.00593859
0.00213613
-0.00164767
-0.00533701
-0.00845588
-0.0102194
-0.011326
-0.0121487
-0.0126317
-0.0125225
-0.0117844
-0.0106046
-0.00893816
-0.00713051
-0.00526343
-0.00329757
-0.00159396
-0.000328084
-1.30395e-05
0.000418503
0.000790339
0.00072111
0.050099
0.0498604
0.0495209
0.0488933
0.0480667
0.0468516
0.0454493
0.0440218
0.0423833
0.0401077
0.0373703
0.0344246
0.0313207
0.027963
0.0240569
0.0198947
0.0157717
0.0116026
0.00764229
0.00386105
0.000154095
-0.00294883
-0.00572436
-0.00902022
-0.0115281
-0.0128525
-0.0132992
-0.0131431
-0.0124986
-0.0114756
-0.0104765
-0.00947953
-0.00853493
-0.00767411
-0.006675
-0.0054779
-0.00329482
-0.0014014
0.000106575
0.00144505
0.0503686
0.0500854
0.0496884
0.0490734
0.0482412
0.0470233
0.0455791
0.0441457
0.0424477
0.0400032
0.0370873
0.0340682
0.030672
0.0266609
0.0223762
0.0177383
0.0132044
0.00884703
0.00466351
0.000675307
-0.00314979
-0.00698897
-0.0103744
-0.012286
-0.0133922
-0.0140919
-0.0145058
-0.0143283
-0.0135761
-0.0124281
-0.0107598
-0.00880356
-0.00679434
-0.00453325
-0.00241187
-0.0011703
-0.000905217
-0.000405046
0.000232523
0.000480905
0.0507393
0.0503664
0.0499406
0.0493141
0.0484618
0.0472727
0.0458516
0.044257
0.0423868
0.0398459
0.0368979
0.0338605
0.0305231
0.0267665
0.0227091
0.018398
0.0141404
0.00986301
0.00575116
0.0019456
-0.00183141
-0.00505509
-0.00767843
-0.0107607
-0.0133795
-0.0150057
-0.0154612
-0.0152503
-0.0144788
-0.0133325
-0.0120923
-0.0109194
-0.0098486
-0.00899437
-0.00794151
-0.00617693
-0.00396339
-0.00201163
-0.000581589
0.000811496
0.0511628
0.050721
0.0502894
0.049622
0.0487145
0.0475284
0.0459422
0.0443317
0.0423719
0.0398253
0.0368312
0.0336794
0.0302288
0.0262376
0.0217598
0.0170129
0.0122181
0.00757965
0.00316378
-0.00106996
-0.00502781
-0.00889832
-0.0125976
-0.0150042
-0.0162921
-0.0167084
-0.0170196
-0.0167436
-0.0159009
-0.0146559
-0.0130647
-0.0109867
-0.00876252
-0.00635932
-0.00409014
-0.00291632
-0.00215771
-0.00147688
-0.000529203
0.000125956
0.0517106
0.05117
0.0506803
0.049954
0.0490357
0.0478709
0.0463128
0.0445159
0.0424051
0.0398074
0.0367539
0.033483
0.0299127
0.0258671
0.0214515
0.0168186
0.0122172
0.00773454
0.00337757
-0.000596245
-0.00444595
-0.00792152
-0.0105671
-0.0132146
-0.0156075
-0.0177341
-0.0182827
-0.0180484
-0.0172039
-0.0158181
-0.0142894
-0.0128538
-0.0115321
-0.0104168
-0.00923452
-0.00731751
-0.00515051
-0.00291831
-0.0013738
8.36178e-05
0.0522737
0.0516583
0.0511272
0.0503422
0.0494093
0.0483026
0.0467144
0.0446916
0.0424268
0.039867
0.0367906
0.0333376
0.0296136
0.0254678
0.0208476
0.0159251
0.0108925
0.00594289
0.00126258
-0.00320332
-0.00739989
-0.011303
-0.0151819
-0.0183001
-0.0202545
-0.020146
-0.0203094
-0.0199666
-0.0189771
-0.0175899
-0.0158941
-0.0137967
-0.011376
-0.00886437
-0.0064037
-0.00470346
-0.00347907
-0.00273195
-0.00153682
-0.000493251
0.0528085
0.0522191
0.0516583
0.0508213
0.0498671
0.0488034
0.0471515
0.0449099
0.042547
0.0400061
0.0368215
0.0331195
0.0292408
0.0249595
0.0201923
0.0151727
0.0101185
0.00522405
0.000510011
-0.003786
-0.00778849
-0.0115178
-0.0143931
-0.0167111
-0.0190982
-0.021322
-0.0219915
-0.021706
-0.020794
-0.0192247
-0.0174135
-0.0155564
-0.0138463
-0.012307
-0.0109208
-0.00909202
-0.00682033
-0.00425104
-0.00247299
-0.00101372
0.0534275
0.0528458
0.0522757
0.0513846
0.0503954
0.0493556
0.0476434
0.0452383
0.0427549
0.0401196
0.0368145
0.0329303
0.0288697
0.0244743
0.0195472
0.0143002
0.00896045
0.00372636
-0.00124932
-0.00595151
-0.0104318
-0.0144629
-0.0183325
-0.0217409
-0.0235629
-0.0244074
-0.0245105
-0.0241808
-0.023065
-0.0214059
-0.019537
-0.017403
-0.014849
-0.0121389
-0.00935685
-0.00707298
-0.00561113
-0.00453947
-0.00308816
-0.00174259
0.0541883
0.0535749
0.0529815
0.0520624
0.0510354
0.0499826
0.0482496
0.0456741
0.0429716
0.0402261
0.0368553
0.0327693
0.0284463
0.0238513
0.0187044
0.0132213
0.00766362
0.00230178
-0.00278821
-0.00750986
-0.0118845
-0.0159455
-0.0192714
-0.0217505
-0.0240514
-0.025671
-0.02671
-0.0264232
-0.0254694
-0.0238044
-0.0216488
-0.0193874
-0.0171558
-0.0150925
-0.0133176
-0.0112913
-0.00868225
-0.00603879
-0.00409573
-0.00249703
0.0550549
0.054375
0.0537706
0.0528771
0.0518057
0.0506867
0.0489174
0.0461827
0.0432295
0.040355
0.0368991
0.0325739
0.0279092
0.0230976
0.0178037
0.0121146
0.00634674
0.000713889
-0.0046694
-0.00968395
-0.0144455
-0.0187311
-0.0225617
-0.0261629
-0.0287611
-0.0297885
-0.0298264
-0.0295197
-0.0284477
-0.0265884
-0.0243586
-0.0219971
-0.0193388
-0.0164334
-0.0133701
-0.0106532
-0.00873239
-0.00700326
-0.00514226
-0.0034062
0.0560301
0.0552849
0.0547092
0.0538738
0.0527457
0.0514995
0.049655
0.0467897
0.0435731
0.0404889
0.0368974
0.0323324
0.027321
0.0222762
0.0168064
0.0108411
0.00470734
-0.00124369
-0.00687743
-0.012083
-0.0168946
-0.0213186
-0.0251233
-0.0280114
-0.0303487
-0.0321081
-0.0329329
-0.0326762
-0.0315949
-0.029813
-0.0274072
-0.0247171
-0.0219366
-0.0192271
-0.0167835
-0.0143119
-0.0114631
-0.0087424
-0.00646025
-0.00458884
0.0572755
0.0564393
0.0558732
0.0550519
0.0538127
0.0523691
0.050432
0.0474883
0.0439816
0.0405898
0.0368165
0.032051
0.0266934
0.0212991
0.015551
0.00926583
0.00283295
-0.00336198
-0.00925346
-0.0146562
-0.0197091
-0.024401
-0.0284321
-0.0319169
-0.0348726
-0.0365034
-0.0369784
-0.0365392
-0.0354557
-0.033591
-0.0309951
-0.0281411
-0.0251731
-0.0220465
-0.0187511
-0.0154782
-0.0126915
-0.0102974
-0.0080081
-0.00600792
0.0587521
0.0578005
0.0572043
0.0563517
0.0549938
0.0533491
0.0513292
0.0483164
0.0444682
0.0406835
0.0366813
0.0317045
0.0259594
0.0201188
0.0140539
0.00749793
0.00074766
-0.00576504
-0.0119682
-0.0177382
-0.0230567
-0.027909
-0.0322459
-0.0357027
-0.03829
-0.0400626
-0.0408959
-0.0407795
-0.0396428
-0.0377785
-0.0351731
-0.0320787
-0.0288138
-0.0253989
-0.0221265
-0.0190979
-0.0159326
-0.0127832
-0.00998545
-0.00780198
0.0604343
0.0593773
0.0586947
0.0577802
0.0563289
0.0544636
0.0522899
0.049217
0.0450336
0.0407432
0.0364307
0.0312043
0.0250349
0.0187175
0.0123052
0.00546796
-0.00170009
-0.00861692
-0.0151606
-0.0212558
-0.0267863
-0.0318447
-0.0363694
-0.039959
-0.0428846
-0.0450968
-0.0460175
-0.0458416
-0.0446514
-0.0427383
-0.0401071
-0.0368206
-0.0332322
-0.0295776
-0.025865
-0.0221201
-0.0185235
-0.0153349
-0.0124209
-0.00996149
0.0623192
0.0611355
0.0603484
0.0593666
0.0578393
0.0557454
0.0533221
0.0501723
0.0456907
0.0407945
0.0360594
0.0305909
0.023964
0.017057
0.0101918
0.00304641
-0.00450818
-0.0118972
-0.0188052
-0.0252154
-0.0310858
-0.0363266
-0.0410329
-0.0450284
-0.0481287
-0.0503406
-0.0514303
-0.0514248
-0.0503894
-0.0483966
-0.0457426
-0.0423759
-0.038536
-0.034503
-0.0303591
-0.0263459
-0.0225882
-0.0189957
-0.015608
-0.0127443
0.0644856
0.0631526
0.0622634
0.0611869
0.0595228
0.0571574
0.0543222
0.0510011
0.0463681
0.0408442
0.0355051
0.0297811
0.0227262
0.015062
0.00756932
0.000111536
-0.0077538
-0.015636
-0.023005
-0.0297992
-0.0360204
-0.0415349
-0.0464588
-0.0507024
-0.0539342
-0.0563431
-0.0578167
-0.0580992
-0.0571738
-0.0551612
-0.0523984
-0.0489911
-0.0449402
-0.0405257
-0.0360038
-0.0315368
-0.0271853
-0.0231422
-0.019448
-0.0162529
0.0669795
0.0654756
0.0644544
0.063209
0.0613154
0.0586689
0.0553834
0.0517422
0.0469882
0.0408999
0.0347182
0.0286177
0.0212456
0.0127865
0.00444594
-0.00345964
-0.0115771
-0.0199245
-0.027851
-0.0350551
-0.0416301
-0.0475273
-0.0526426
-0.057088
-0.0606363
-0.0632814
-0.0649823
-0.0655816
-0.0649758
-0.0631068
-0.0602385
-0.0567011
-0.0525607
-0.0479718
-0.0431193
-0.0381884
-0.0332854
-0.0285835
-0.0243012
-0.020741
0.0698903
0.0681443
0.0668956
0.0654242
0.0632755
0.060347
0.0566063
0.0523851
0.0473445
0.0408649
0.0336678
0.0268243
0.0192696
0.0101809
0.000784839
-0.00781575
-0.0162012
-0.0249213
-0.0335297
-0.0412089
-0.0479958
-0.0542208
-0.059661
-0.0644146
-0.0682969
-0.0711964
-0.0731853
-0.0741015
-0.0738462
-0.0724301
-0.0697678
-0.0662495
-0.0619953
-0.0572797
-0.0520779
-0.0466626
-0.0412863
-0.0361156
-0.0311433
-0.0267908
0.0732636
0.071197
0.0696548
0.0679048
0.0654258
0.0620826
0.0577545
0.052809
0.0472462
0.0404563
0.0323579
0.0243151
0.016395
0.00707623
-0.003402
-0.0131451
-0.0218813
-0.0307002
-0.0398841
-0.0484949
-0.0556598
-0.0618776
-0.0673958
-0.0724991
-0.076894
-0.0802033
-0.0825509
-0.0839798
-0.0842037
-0.0832425
-0.0810449
-0.0776419
-0.0734457
-0.0686159
-0.0630666
-0.0572472
-0.0511098
-0.0450221
-0.039419
-0.0348302
0.0770803
0.0746176
0.0727401
0.0706198
0.0676473
0.0637849
0.0589736
0.0531742
0.046702
0.0393303
0.0306292
0.0211907
0.0120981
0.00274145
-0.00806072
-0.0193402
-0.0292919
-0.0381126
-0.0469642
-0.0563245
-0.0646283
-0.0713684
-0.0767031
-0.0816734
-0.0863207
-0.0902706
-0.0932461
-0.0952776
-0.0961623
-0.096082
-0.094632
-0.0917549
-0.0878064
-0.082883
-0.0771593
-0.0708539
-0.0643296
-0.0576966
-0.0513058
-0.0455229
0.0814253
0.0784291
0.0760871
0.0734931
0.0700582
0.0655105
0.060002
0.0533183
0.0457388
0.0373628
0.027998
0.0175345
0.0066869
-0.00360121
-0.0142029
-0.0261085
-0.0377027
-0.0476864
-0.0563221
-0.0651259
-0.0740795
-0.0817663
-0.0879223
-0.0930371
-0.0975083
-0.101608
-0.10539
-0.108083
-0.109692
-0.110352
-0.109682
-0.107775
-0.104749
-0.100537
-0.0948464
-0.0884832
-0.081287
-0.0740037
-0.0667487
-0.0606175
0.0864588
0.0827268
0.0797401
0.0762698
0.0718436
0.0664224
0.0599742
0.0523286
0.0435543
0.0339215
0.0235103
0.0120061
-3.24302e-05
-0.0118927
-0.0234122
-0.0351572
-0.0471503
-0.0585213
-0.0684067
-0.0771183
-0.0852793
-0.0929064
-0.0999174
-0.106039
-0.110803
-0.115093
-0.119262
-0.122978
-0.125858
-0.127632
-0.127806
-0.126817
-0.124622
-0.121284
-0.116486
-0.110661
-0.10418
-0.0967571
-0.0891
-0.0823228
0.0922595
0.087672
0.0840988
0.0802356
0.0750834
0.068514
0.06041
0.0510147
0.0407034
0.0293031
0.0173432
0.00463128
-0.0087775
-0.0221477
-0.0350032
-0.0469859
-0.0589362
-0.0709664
-0.0818931
-0.0912231
-0.0989654
-0.106246
-0.113371
-0.119832
-0.125355
-0.130272
-0.134712
-0.139116
-0.143296
-0.14691
-0.148916
-0.149852
-0.149048
-0.146793
-0.142989
-0.138182
-0.132615
-0.125873
-0.119044
-0.112687
0.0978068
0.091325
0.0857066
0.0799727
0.0734722
0.0656548
0.0563318
0.0455559
0.033525
0.0204439
0.00686081
-0.00739047
-0.0220226
-0.036602
-0.0505427
-0.0635951
-0.0757019
-0.0874843
-0.0984063
-0.107976
-0.11579
-0.122564
-0.128744
-0.134891
-0.14076
-0.146513
-0.151914
-0.157258
-0.162666
-0.167582
-0.172173
-0.175552
-0.177688
-0.177955
-0.176558
-0.173912
-0.169632
-0.164249
-0.158317
-0.152781
0.106802
0.100846
0.0951977
0.0880237
0.0788005
0.067223
0.0539473
0.039034
0.0233218
0.00742796
-0.00874281
-0.0250998
-0.041369
-0.0571417
-0.0722553
-0.0863319
-0.0990721
-0.110514
-0.12079
-0.129689
-0.137013
-0.143095
-0.148148
-0.152957
-0.157803
-0.163308
-0.169358
-0.175914
-0.183228
-0.19104
-0.198879
-0.205965
-0.211988
-0.216273
-0.21901
-0.219635
-0.218467
-0.216133
-0.212995
-0.210061
0.106467
0.0951218
0.0842557
0.0732835
0.0615962
0.0488288
0.0346711
0.0191668
0.00218473
-0.0156937
-0.0342122
-0.0527269
-0.0706617
-0.0875899
-0.103497
-0.118031
-0.130916
-0.141724
-0.150722
-0.157848
-0.163434
-0.167402
-0.170548
-0.173131
-0.176109
-0.179986
-0.185871
-0.192585
-0.201537
-0.212024
-0.222676
-0.234729
-0.247332
-0.259151
-0.269875
-0.278789
-0.284905
-0.288747
-0.290697
-0.292703
0.132378
0.121815
0.107937
0.0909117
0.0709201
0.0491908
0.0265232
0.00393997
-0.0182304
-0.0399288
-0.0612539
-0.082303
-0.102591
-0.121569
-0.138757
-0.153925
-0.166723
-0.176933
-0.184523
-0.189628
-0.192573
-0.193677
-0.193799
-0.193621
-0.194131
-0.195759
-0.199315
-0.205211
-0.213878
-0.225807
-0.240553
-0.258192
-0.278742
-0.301317
-0.325406
-0.348803
-0.369273
-0.386551
-0.402203
-0.416211
0.07517
0.0530864
0.0321128
0.0114898
-0.00952426
-0.0318573
-0.05593
-0.0812783
-0.107097
-0.132695
-0.157408
-0.18077
-0.202378
-0.221682
-0.238237
-0.251556
-0.2614
-0.267676
-0.270198
-0.269608
-0.265663
-0.259107
-0.250375
-0.240557
-0.231139
-0.223082
-0.218269
-0.21695
-0.220648
-0.229182
-0.243399
-0.262874
-0.286405
-0.313448
-0.345003
-0.381954
-0.42507
-0.470749
-0.516225
-0.556109
0.154715
0.122657
0.0863919
0.0507298
0.0164581
-0.0163519
-0.0484578
-0.0799746
-0.11062
-0.139762
-0.166899
-0.191288
-0.212796
-0.230953
-0.245478
-0.255818
-0.261548
-0.262401
-0.257916
-0.248308
-0.233246
-0.213353
-0.190381
-0.165503
-0.14108
-0.118576
-0.100098
-0.0867402
-0.0802264
-0.0808746
-0.0862842
-0.0959352
-0.109491
-0.12301
-0.130815
-0.13629
-0.149161
-0.178184
-0.222706
-0.27548
-0.200557
-0.236432
-0.274545
-0.321469
-0.373982
-0.425709
-0.474816
-0.519789
-0.559009
-0.590928
-0.616759
-0.639138
-0.659266
-0.675883
-0.68691
-0.690502
-0.685591
-0.671806
-0.649586
-0.619697
-0.583838
-0.542733
-0.496641
-0.446493
-0.393764
-0.34132
-0.291692
-0.248309
-0.213689
-0.190237
-0.180074
-0.183476
-0.19943
-0.225583
-0.237496
-0.238175
-0.241811
-0.249357
-0.258277
-0.278524
0.0039245
0.00369002
0.00311523
0.00380993
0.00411828
0.00534954
0.00586024
0.00637677
0.00637903
0.00650226
0.00625406
0.00557442
0.00458791
0.00334569
0.00193985
0.000568352
-0.00061586
-0.00158984
-0.00232126
-0.00283601
-0.00313474
-0.00332742
-0.00339891
-0.00345211
-0.00343943
-0.00347437
-0.0035215
-0.00353429
-0.00349237
-0.00329165
-0.0030935
-0.00298427
-0.00284382
-0.00262892
-0.0024998
-0.00239048
-0.00194303
-0.00185486
-0.000573631
-0.001961
0.00148768
0.00324861
0.00330616
0.00366151
0.00445324
0.00553196
0.00624421
0.0067935
0.00694865
0.00694255
0.00660637
0.00583663
0.00474668
0.00338542
0.00185451
0.000367738
-0.000908127
-0.00194374
-0.00267588
-0.00320675
-0.00352556
-0.00377545
-0.00383844
-0.00383956
-0.00373453
-0.00375948
-0.00382145
-0.003833
-0.00372532
-0.00347869
-0.00329581
-0.00318576
-0.00298348
-0.00277142
-0.00265301
-0.00245794
-0.00218073
-0.00200108
-0.00197401
-0.00397743
0.00458318
0.00322768
0.00341147
0.0037262
0.00462587
0.00568242
0.00648866
0.00718019
0.00748017
0.00739766
0.00702044
0.00620053
0.00501033
0.00353381
0.00189672
0.000315023
-0.00106453
-0.00219054
-0.00297602
-0.00353834
-0.00389582
-0.00419436
-0.00427933
-0.00430903
-0.00422212
-0.00417052
-0.00415166
-0.00410332
-0.00392466
-0.00367529
-0.00350661
-0.00338351
-0.00316925
-0.00298643
-0.00281904
-0.00258719
-0.00234846
-0.00195746
-0.00122302
-0.000690959
0.00155451
0.00296703
0.00349363
0.00385934
0.00469111
0.0057375
0.00667404
0.00751132
0.00799594
0.00790496
0.00750219
0.00664899
0.00536754
0.00378065
0.00204752
0.000375513
-0.00110517
-0.00233012
-0.00320129
-0.00381115
-0.00425123
-0.00458357
-0.00473203
-0.00475207
-0.00472274
-0.00463853
-0.00448672
-0.00438354
-0.00416794
-0.00391822
-0.00377351
-0.00364677
-0.00342092
-0.00321216
-0.00297541
-0.00273854
-0.00252645
-0.00236305
-0.00235127
-0.00309719
0.00434337
0.00309735
0.00352447
0.00396219
0.00467547
0.00579395
0.00688312
0.007843
0.00850028
0.00847042
0.00804805
0.00717741
0.0058115
0.00410976
0.00227828
0.000511019
-0.00106476
-0.00236694
-0.00334855
-0.00411034
-0.00466106
-0.00493652
-0.00515178
-0.00511372
-0.00512701
-0.00503142
-0.00484151
-0.00465451
-0.00441921
-0.0042012
-0.00410564
-0.00395769
-0.00367586
-0.00342392
-0.00313979
-0.00289216
-0.00265835
-0.00234801
-0.00178436
-0.000970738
0.00138728
0.00292649
0.00350107
0.00401641
0.00471642
0.00596718
0.00719882
0.00822177
0.00900172
0.00908893
0.00866304
0.00778632
0.00635229
0.00454736
0.00260942
0.000732584
-0.000958427
-0.00236626
-0.00350602
-0.00442323
-0.00504614
-0.00531568
-0.00554511
-0.00552209
-0.00547298
-0.00535044
-0.0051832
-0.00495649
-0.004708
-0.00452491
-0.00445608
-0.00424476
-0.00392029
-0.0036396
-0.00331989
-0.00304901
-0.00282653
-0.00269532
-0.00266915
-0.00291142
0.00399063
0.00300391
0.00342058
0.0040806
0.00494731
0.00628741
0.00760808
0.00864495
0.00951562
0.00977248
0.00935604
0.00845508
0.0069641
0.00505919
0.00299803
0.000985863
-0.00082994
-0.00236984
-0.00368473
-0.00468842
-0.00522348
-0.00568755
-0.00592634
-0.00605385
-0.00596427
-0.00580456
-0.00563535
-0.00540564
-0.00509285
-0.0049113
-0.00480124
-0.00450022
-0.00415429
-0.00385226
-0.00352842
-0.00324861
-0.0030017
-0.00271564
-0.00227297
-0.00162605
0.00121844
0.00281062
0.00336102
0.004242
0.00529364
0.00663526
0.00803922
0.00914214
0.0100451
0.0104987
0.0101399
0.0092142
0.00765104
0.00563146
0.00342342
0.00125781
-0.000702083
-0.00237959
-0.00380643
-0.00494329
-0.00547936
-0.00596829
-0.00627027
-0.00649765
-0.00645542
-0.00633455
-0.00621492
-0.00592696
-0.00553704
-0.0053514
-0.00518029
-0.00480822
-0.00446292
-0.00413923
-0.00379309
-0.00348135
-0.00322407
-0.00302623
-0.00293975
-0.00291258
0.0034692
0.00285907
0.00334472
0.00452538
0.00557782
0.00685419
0.00842034
0.00971431
0.0106725
0.0112923
0.0110282
0.0100752
0.00842495
0.00627222
0.00389938
0.00159401
-0.000511714
-0.00234128
-0.00384943
-0.00505814
-0.0058688
-0.00627123
-0.00669784
-0.00690271
-0.00686981
-0.00679346
-0.00671186
-0.00638505
-0.0060172
-0.00587351
-0.0056363
-0.00519657
-0.00482881
-0.00446084
-0.00408367
-0.00375191
-0.00345851
-0.00313476
-0.00277025
-0.00230845
0.00101286
0.00274635
0.00344144
0.00478581
0.00579807
0.0070512
0.00881779
0.0103138
0.0114222
0.0121724
0.0120109
0.0110254
0.00928375
0.00699701
0.00446413
0.00202521
-0.000222611
-0.00223837
-0.0038621
-0.00512022
-0.0061248
-0.00667541
-0.00717255
-0.0073812
-0.00734738
-0.00728848
-0.00720431
-0.00686702
-0.00655944
-0.00642536
-0.00606459
-0.00557001
-0.00519273
-0.00480259
-0.00440588
-0.00405135
-0.00372194
-0.00343434
-0.00325927
-0.00308091
0.00294003
0.00273338
0.00353669
0.00482931
0.00599957
0.00733725
0.00930533
0.0109619
0.0122802
0.0131514
0.0130965
0.0121076
0.0102702
0.00784433
0.00513903
0.00254701
0.000129574
-0.00207314
-0.0038146
-0.00527939
-0.00634779
-0.0071783
-0.00770221
-0.00794269
-0.00794908
-0.00793241
-0.00778418
-0.00739639
-0.00714311
-0.00694381
-0.00646625
-0.00596482
-0.00556418
-0.00514997
-0.00473059
-0.00435338
-0.00399873
-0.00365661
-0.00329038
-0.00290822
0.000854562
0.00250148
0.00349621
0.00474233
0.00618525
0.00765647
0.00980158
0.0116884
0.0132546
0.0142737
0.0143266
0.0133495
0.0114089
0.0088178
0.00590914
0.00312322
0.000521384
-0.00184827
-0.00378407
-0.00539659
-0.00665304
-0.00768195
-0.00829979
-0.00855095
-0.00857416
-0.00860099
-0.00841325
-0.00804313
-0.00780686
-0.00747962
-0.00689846
-0.00635746
-0.00592779
-0.00550751
-0.0050709
-0.00468742
-0.00432817
-0.00396377
-0.00364139
-0.00333977
0.00246477
0.00242906
0.00333464
0.00468419
0.00636524
0.00802255
0.0103441
0.012542
0.0143671
0.0155689
0.0157404
0.014783
0.0127123
0.00992243
0.00676524
0.00374748
0.000949027
-0.0015951
-0.00385794
-0.00557099
-0.00701504
-0.00812464
-0.00882872
-0.00910003
-0.0091878
-0.00927804
-0.00909104
-0.00874063
-0.00845123
-0.00800436
-0.00735731
-0.00681665
-0.00639609
-0.00595997
-0.00552301
-0.00512585
-0.00472242
-0.00430552
-0.00386818
-0.0034603
0.0007238
0.00216844
0.00320091
0.00462893
0.00657722
0.00848382
0.0109959
0.0135303
0.0156302
0.0170493
0.0173582
0.0164019
0.0141786
0.0111824
0.00776166
0.00447856
0.00143095
-0.00140842
-0.00391073
-0.00585338
-0.00739086
-0.00854849
-0.00930618
-0.00963572
-0.00980785
-0.00990219
-0.00968492
-0.00935726
-0.00907998
-0.00859626
-0.00796602
-0.00746246
-0.00703773
-0.00657282
-0.00611176
-0.00566981
-0.00520162
-0.00472362
-0.0042458
-0.00383838
0.00182598
0.00192
0.00303137
0.00457433
0.00676231
0.00903448
0.0117388
0.0146099
0.0170157
0.0187172
0.0191977
0.0182088
0.0158235
0.0126289
0.008911
0.0052804
0.00194746
-0.00126485
-0.00392909
-0.00610932
-0.00776938
-0.0089915
-0.0098074
-0.0101729
-0.0103931
-0.0104975
-0.0103301
-0.0101173
-0.00989965
-0.0093923
-0.00876554
-0.0082528
-0.00777745
-0.00725839
-0.00676015
-0.00626973
-0.00571997
-0.00514542
-0.00460935
-0.00432921
0.000554597
0.00146363
0.00293169
0.00458093
0.00696695
0.00958492
0.0124913
0.0157563
0.0185457
0.0205637
0.0212627
0.0202686
0.0177023
0.014251
0.0101703
0.00614449
0.00245834
-0.00103094
-0.00396169
-0.00630448
-0.00813722
-0.00946959
-0.0103434
-0.0107488
-0.0110923
-0.0112949
-0.0112282
-0.0111207
-0.0108761
-0.0102453
-0.00957125
-0.00902374
-0.00849403
-0.00793945
-0.00741934
-0.00687539
-0.00627224
-0.00566593
-0.00510757
-0.00482618
0.000800856
0.0013476
0.00274939
0.0045514
0.0072185
0.010145
0.0132816
0.0169719
0.0202682
0.0226731
0.0235994
0.0226066
0.0198276
0.0160168
0.0115147
0.00709535
0.0030169
-0.000700567
-0.00396556
-0.00647248
-0.00850447
-0.00998228
-0.0109079
-0.0114344
-0.011951
-0.0122172
-0.0121633
-0.01207
-0.0116925
-0.0109593
-0.0102921
-0.00974355
-0.00919878
-0.00864697
-0.00812232
-0.00754664
-0.0069025
-0.00627489
-0.00571418
-0.00542339
-0.000224844
0.0010607
0.00249752
0.00449381
0.00741624
0.0107345
0.0142303
0.0183446
0.0221972
0.0251086
0.026268
0.0252546
0.0221987
0.0179537
0.0129594
0.00817317
0.00369355
-0.000335571
-0.00390075
-0.00663014
-0.00885958
-0.0104665
-0.011473
-0.0121782
-0.0127981
-0.0130369
-0.0129872
-0.0128939
-0.0124269
-0.0116968
-0.0110591
-0.0105488
-0.0100209
-0.00950237
-0.00896948
-0.00833972
-0.00764038
-0.00698131
-0.00638634
-0.00609276
-0.000873137
0.000575038
0.00224853
0.00435676
0.00750954
0.0113241
0.0153048
0.0199183
0.0243458
0.0278792
0.0293598
0.0282631
0.0248488
0.0201763
0.01456
0.00939855
0.00449261
4.42324e-05
-0.00377101
-0.00678305
-0.00919097
-0.0109659
-0.0121138
-0.0129818
-0.0136204
-0.013859
-0.0139106
-0.0138469
-0.0133534
-0.0126555
-0.0120737
-0.0115657
-0.0110203
-0.0104826
-0.00988874
-0.00917592
-0.00841891
-0.0077012
-0.00708513
-0.00681215
-0.00182768
-1.9024e-05
0.00196821
0.00417358
0.00743994
0.011809
0.0163872
0.0216214
0.0267463
0.0309449
0.0329386
0.0316939
0.0278757
0.0227787
0.0163822
0.0107626
0.00537111
0.000422541
-0.0036437
-0.00698205
-0.00963603
-0.011591
-0.0128784
-0.0138757
-0.0145386
-0.0148575
-0.0150321
-0.0150032
-0.0145102
-0.0138711
-0.0132952
-0.0126995
-0.0120964
-0.0114632
-0.010789
-0.00999818
-0.00920664
-0.00843489
-0.00782094
-0.00757679
-0.00279784
-0.000775472
0.00147978
0.00392236
0.00731933
0.0121557
0.0173429
0.0232678
0.0293455
0.0343322
0.0369714
0.0356458
0.0313419
0.025665
0.0184594
0.0121492
0.00623635
0.000816557
-0.00358205
-0.00725639
-0.0101811
-0.0122145
-0.0136786
-0.0148332
-0.0155629
-0.0160158
-0.0163071
-0.0162974
-0.0158025
-0.0151755
-0.0145326
-0.0138788
-0.0132159
-0.0125324
-0.0118205
-0.0109908
-0.0101571
-0.00931942
-0.00869005
-0.00844264
-0.00410229
-0.00179018
0.000659743
0.00347829
0.00710498
0.0123197
0.018169
0.0248224
0.0320214
0.0380706
0.0414462
0.0401451
0.0351398
0.0284949
0.0206262
0.0135433
0.00703209
0.00124863
-0.00357435
-0.00754785
-0.0107076
-0.012843
-0.0145571
-0.0158868
-0.0167038
-0.017312
-0.0176644
-0.0176062
-0.0171166
-0.0165045
-0.0158869
-0.0152698
-0.0146209
-0.0139507
-0.0131868
-0.0123152
-0.0113923
-0.0104912
-0.00979252
-0.00949243
-0.00576375
-0.00313816
-0.000554282
0.00264619
0.00658081
0.0122024
0.0187974
0.026312
0.0347121
0.0420624
0.0463484
0.0451395
0.0391803
0.0313218
0.0226971
0.0151659
0.00797309
0.00177527
-0.00350875
-0.00782273
-0.0112313
-0.0136742
-0.0156817
-0.0170456
-0.0179572
-0.0186552
-0.0189971
-0.0189618
-0.0185466
-0.0180417
-0.0175274
-0.0169579
-0.0163505
-0.0156423
-0.0148201
-0.0138663
-0.0128581
-0.0119097
-0.0111248
-0.0107702
-0.00778781
-0.00494322
-0.00234598
0.00109986
0.00539118
0.0115201
0.0189979
0.0275281
0.037363
0.0461876
0.0516322
0.0505993
0.0435751
0.0342226
0.0251227
0.0170757
0.00902538
0.00236539
-0.00340281
-0.00818357
-0.0119389
-0.0147852
-0.017049
-0.0184116
-0.0194138
-0.0201649
-0.0205683
-0.0205676
-0.0201737
-0.0197745
-0.0192573
-0.0187039
-0.0180644
-0.0172735
-0.0164123
-0.0154045
-0.0143892
-0.0134055
-0.012589
-0.0121834
-0.0103037
-0.00715
-0.00440488
-0.000843572
0.00373602
0.0102681
0.0187845
0.0283061
0.0397323
0.0503309
0.0571969
0.0565693
0.0485952
0.0375481
0.0279954
0.0190631
0.0103892
0.00296782
-0.00335893
-0.0087098
-0.0129028
-0.0161235
-0.0185443
-0.0200392
-0.0212032
-0.0220211
-0.022464
-0.0224047
-0.022052
-0.0216451
-0.0210221
-0.0204429
-0.0196762
-0.0188462
-0.0179662
-0.0169344
-0.0159003
-0.0148739
-0.0140635
-0.0136528
-0.0134271
-0.0100015
-0.00705042
-0.00352411
0.00136129
0.00811449
0.0177812
0.0285347
0.0413647
0.0541036
0.0627518
0.0630048
0.0544709
0.0417385
0.0315211
0.0216052
0.0121016
0.00371871
-0.00327925
-0.00922238
-0.0138821
-0.0174465
-0.0200844
-0.0218836
-0.02335
-0.024339
-0.0248282
-0.0248115
-0.0245019
-0.0239724
-0.0232828
-0.0226367
-0.0217603
-0.0209054
-0.0198935
-0.0187348
-0.0175816
-0.0164704
-0.0156902
-0.0153326
-0.0178244
-0.014378
-0.0112629
-0.00782146
-0.00248014
0.00450686
0.0149257
0.0275512
0.0417245
0.0566824
0.0676394
0.069598
0.0612367
0.0472592
0.0359517
0.0247302
0.0140954
0.00491103
-0.00286422
-0.00938694
-0.0145016
-0.0185813
-0.0216344
-0.0239618
-0.0259533
-0.0272383
-0.0278534
-0.0279017
-0.0276027
-0.0270626
-0.0264336
-0.0257064
-0.024683
-0.0236356
-0.0223407
-0.0210285
-0.0197584
-0.0186129
-0.0178639
-0.0174784
-0.0235486
-0.0203122
-0.0175738
-0.0146673
-0.00941885
-0.00170191
0.00904451
0.0238414
0.0400078
0.0569722
0.0707068
0.0755792
0.0685707
0.0544262
0.0413349
0.0284456
0.0166378
0.00651315
-0.00209636
-0.00932612
-0.0150828
-0.019799
-0.0233855
-0.0263848
-0.0287787
-0.0301287
-0.0308625
-0.0309916
-0.0308093
-0.0304039
-0.029784
-0.0288848