/*--------------------------------*- C++ -*----------------------------------*\
  =========                 |
  \\      /  F ield         | OpenFOAM: The Open Source CFD Toolbox
   \\    /   O peration     | Website:  https://openfoam.org
    \\  /    A nd           | Version:  11
     \\/     M anipulation  |
\*---------------------------------------------------------------------------*/
FoamFile
{
    format      ascii;
    class       volScalarField;
    location    "6";
    object      mag(U);
}
// * * * * * * * * * * * * * * * * * * * * * * * * * * * * * * * * * * * * * //

dimensions      [0 1 -1 0 0 0 0];

internalField   nonuniform List<scalar> 
9600
(
0.970522
0.96717
0.962521
0.959607
0.957159
0.951291
0.944735
0.942612
0.943668
0.941654
0.937275
0.937134
0.939405
0.943076
0.950371
0.954113
0.947873
0.925253
0.912448
0.904899
0.898677
0.895847
0.897113
0.897899
0.896783
0.898504
0.906456
0.923984
0.954146
1.00398
1.08067
1.17299
1.23976
1.25556
1.24726
1.22171
1.15627
1.07463
1.03959
0.977811
0.972757
0.971728
0.969723
0.967327
0.965995
0.965082
0.963381
0.961453
0.960806
0.961207
0.962369
0.964624
0.967453
0.972435
0.983783
0.992329
0.995799
0.997866
0.998908
0.997779
0.992619
0.982777
0.975888
0.970801
0.964353
0.959811
0.959813
0.965772
0.984079
1.02053
1.0801
1.16275
1.24965
1.30607
1.31918
1.30494
1.26114
1.18362
1.15083
1.08802
0.971511
0.970782
0.969048
0.966685
0.965083
0.964373
0.963476
0.961365
0.961154
0.96184
0.963797
0.966362
0.96964
0.973779
0.98142
0.993647
1.00486
1.01146
1.01314
1.0117
1.00479
0.993382
0.98604
0.980642
0.972825
0.964454
0.962226
0.967216
0.984567
1.01778
1.06788
1.14089
1.2283
1.29478
1.31399
1.3094
1.2857
1.2159
1.17111
1.10244
0.971404
0.970596
0.96879
0.966174
0.964553
0.96385
0.962231
0.960384
0.960414
0.961366
0.963519
0.966027
0.96989
0.974476
0.98168
0.994191
1.00703
1.0182
1.0257
1.02636
1.02444
1.01949
1.01189
1.00451
0.994465
0.982637
0.974625
0.973588
0.981818
1.0087
1.0555
1.11811
1.19844
1.2787
1.32858
1.33403
1.31139
1.24259
1.1951
1.12726
0.970766
0.969924
0.968116
0.965851
0.96441
0.963249
0.961628
0.960438
0.960591
0.96155
0.963984
0.96719
0.971206
0.977197
0.982904
0.991746
1.0066
1.0232
1.03468
1.04101
1.04056
1.03669
1.02671
1.01273
0.999823
0.986446
0.976459
0.973474
0.980382
1.00236
1.04708
1.10518
1.17957
1.26005
1.32434
1.34414
1.32899
1.26974
1.21996
1.1437
0.970347
0.969492
0.967624
0.965884
0.963624
0.962428
0.961199
0.959928
0.960016
0.961137
0.963559
0.966723
0.971504
0.977955
0.98363
0.992862
1.00828
1.02557
1.03751
1.0459
1.04712
1.04464
1.03881
1.0268
1.01308
0.998284
0.985233
0.975868
0.97812
0.991831
1.03236
1.08473
1.15614
1.23399
1.31214
1.35564
1.35332
1.3044
1.25042
1.16092
0.969625
0.968761
0.966996
0.965097
0.962861
0.962064
0.960671
0.959693
0.960049
0.961156
0.963745
0.967588
0.972691
0.978943
0.984609
0.995116
1.00962
1.02603
1.03922
1.05113
1.05475
1.05266
1.04685
1.03405
1.01851
1.0021
0.988359
0.976155
0.977166
0.984059
1.02025
1.06673
1.1393
1.21137
1.29871
1.35829
1.37605
1.33556
1.28462
1.18467
0.969115
0.968215
0.9666
0.964501
0.962465
0.961483
0.960055
0.959162
0.959672
0.96112
0.963824
0.967742
0.972717
0.979242
0.986185
0.996535
1.01057
1.02678
1.04163
1.05446
1.05902
1.05694
1.05126
1.0395
1.02486
1.00767
0.993916
0.977905
0.976434
0.976563
1.00441
1.04233
1.1162
1.18465
1.27774
1.34943
1.39659
1.36832
1.32707
1.22594
0.968347
0.967471
0.965875
0.963531
0.961846
0.96085
0.959565
0.958892
0.959578
0.961493
0.963942
0.968404
0.973485
0.980173
0.987941
0.998531
1.01248
1.02798
1.04234
1.05622
1.06327
1.0622
1.05657
1.04326
1.02902
1.00887
0.995663
0.977215
0.973981
0.969228
0.993032
1.02078
1.09161
1.15563
1.25643
1.33338
1.40972
1.39913
1.36507
1.25978
0.967784
0.966881
0.965137
0.962935
0.961558
0.960241
0.959035
0.958429
0.959455
0.961611
0.963846
0.968777
0.973928
0.980616
0.989256
1.00054
1.01342
1.02836
1.04311
1.05847
1.06746
1.06746
1.06149
1.04745
1.03235
1.0122
0.996633
0.976653
0.972229
0.961701
0.978784
0.99431
1.05873
1.11554
1.22254
1.30116
1.40663
1.4278
1.41114
1.30945
0.96696
0.965976
0.964081
0.962128
0.961005
0.95942
0.958583
0.958435
0.959366
0.961903
0.964382
0.968635
0.974661
0.982388
0.990165
1.0016
1.01458
1.03088
1.04541
1.05876
1.06918
1.0713
1.06738
1.054
1.03904
1.01456
0.998554
0.973956
0.965427
0.950471
0.965561
0.969377
1.02426
1.07235
1.18017
1.26116
1.38711
1.4439
1.45805
1.35674
0.966191
0.965247
0.963378
0.961688
0.96037
0.958843
0.958103
0.958073
0.959343
0.961563
0.964504
0.968624
0.975212
0.983089
0.991274
1.00341
1.01628
1.03186
1.04647
1.05993
1.0715
1.0754
1.0729
1.06018
1.04466
1.01947
1.00061
0.972509
0.962092
0.94127
0.950863
0.942878
0.987254
1.02487
1.12998
1.21228
1.35095
1.43176
1.5021
1.40928
0.965371
0.964131
0.962593
0.960867
0.959555
0.958233
0.957631
0.957937
0.959343
0.961213
0.96497
0.96956
0.974946
0.984167
0.994149
1.00514
1.01735
1.03198
1.04893
1.06268
1.07371
1.07747
1.07716
1.06558
1.05312
1.02629
1.00699
0.974231
0.959189
0.92985
0.935883
0.920288
0.954216
0.981005
1.08233
1.16313
1.31926
1.39546
1.53634
1.46022
0.964523
0.963249
0.961647
0.960105
0.95866
0.95741
0.957392
0.957394
0.958898
0.961365
0.964434
0.969789
0.975723
0.984689
0.995914
1.00665
1.01916
1.03419
1.05058
1.06444
1.07585
1.07984
1.08167
1.0714
1.06012
1.0342
1.01416
0.977939
0.960742
0.927517
0.926021
0.902414
0.924656
0.94018
1.02739
1.10537
1.2749
1.3525
1.53994
1.50539
0.963495
0.962308
0.960562
0.9594
0.957872
0.95664
0.957131
0.957034
0.9584
0.961765
0.964204
0.970157
0.976934
0.98577
0.997057
1.00915
1.02197
1.03631
1.05228
1.06559
1.07907
1.08341
1.08584
1.07509
1.06554
1.0412
1.02289
0.986625
0.967205
0.927898
0.919637
0.88974
0.899635
0.907176
0.968416
1.04497
1.18512
1.30197
1.52045
1.54096
0.962486
0.961131
0.959537
0.957968
0.957138
0.955926
0.955991
0.957203
0.957831
0.961309
0.964369
0.970118
0.977153
0.987103
0.998456
1.01136
1.02415
1.03844
1.05441
1.06773
1.08118
1.08632
1.09025
1.07981
1.07155
1.04795
1.03089
0.995312
0.974828
0.932898
0.918951
0.886649
0.877336
0.886578
0.903094
0.984985
1.05432
1.25458
1.45236
1.55777
0.961525
0.960206
0.958364
0.957093
0.956386
0.955378
0.955418
0.956745
0.957682
0.961663
0.964209
0.970762
0.977369
0.988178
1.0007
1.01412
1.02725
1.04107
1.05763
1.07092
1.08362
1.08952
1.09632
1.08616
1.07902
1.05503
1.03867
1.00309
0.982093
0.940899
0.915853
0.891564
0.858716
0.872354
0.853758
0.928752
0.958236
1.20835
1.3447
1.54842
0.960181
0.958661
0.957095
0.955825
0.954702
0.95492
0.954341
0.95579
0.956961
0.961135
0.964598
0.97117
0.97746
0.98903
1.00184
1.01623
1.03115
1.04486
1.06056
1.07281
1.08798
1.09266
1.10146
1.09269
1.08713
1.06294
1.04703
1.01141
0.988334
0.954267
0.913365
0.895719
0.85064
0.859483
0.826185
0.865751
0.894744
1.10512
1.27261
1.48509
0.959164
0.957594
0.956097
0.954675
0.953744
0.954187
0.953804
0.955835
0.95652
0.96097
0.965104
0.971389
0.979443
0.990268
1.00346
1.01738
1.03548
1.04884
1.06638
1.07675
1.09316
1.09673
1.10713
1.1
1.09655
1.07359
1.05809
1.0261
0.992157
0.969193
0.92138
0.901391
0.850908
0.846792
0.815776
0.812599
0.836071
0.952459
1.1848
1.33236
0.957366
0.956076
0.953926
0.953364
0.951942
0.952363
0.952751
0.954485
0.956302
0.959615
0.964877
0.971602
0.98009
0.991036
1.00696
1.01912
1.03848
1.05154
1.07176
1.08202
1.09876
1.10116
1.11156
1.105
1.10398
1.08501
1.06447
1.04499
1.00336
0.980238
0.932774
0.911565
0.859543
0.843118
0.815067
0.775886
0.782303
0.827413
1.04211
1.21245
0.955793
0.9549
0.952518
0.952137
0.950919
0.951464
0.952042
0.953299
0.956931
0.959726
0.965473
0.972435
0.981948
0.991678
1.01031
1.02158
1.04348
1.05706
1.07753
1.08691
1.10574
1.10883
1.11878
1.11394
1.1088
1.10026
1.07365
1.05829
1.01996
0.997309
0.94896
0.92507
0.873055
0.847953
0.822183
0.767475
0.739195
0.771718
0.904267
1.08138
0.952874
0.952367
0.950227
0.949406
0.949361
0.948413
0.950912
0.951632
0.955181
0.959227
0.965172
0.972056
0.984723
0.992914
1.01192
1.02464
1.04673
1.06089
1.08427
1.09376
1.11108
1.11675
1.12287
1.12554
1.11385
1.11122
1.08464
1.06974
1.03288
1.01105
0.965626
0.941583
0.89125
0.857378
0.833667
0.785443
0.718194
0.732408
0.796281
0.911054
0.951182
0.950672
0.948828
0.94738
0.948373
0.9469
0.950312
0.951132
0.954945
0.959422
0.966863
0.972201
0.986856
0.996226
1.01546
1.02894
1.05179
1.06723
1.08857
1.10396
1.11608
1.12916
1.12889
1.1368
1.12389
1.12296
1.09908
1.08581
1.05102
1.02863
0.98458
0.960295
0.913885
0.874456
0.844724
0.813159
0.735578
0.710527
0.729648
0.771018
0.948385
0.946788
0.945943
0.943424
0.945268
0.943535
0.946779
0.94904
0.95375
0.956754
0.967231
0.973468
0.987178
0.998962
1.01683
1.03454
1.05336
1.07632
1.09208
1.11335
1.1219
1.13783
1.13722
1.14642
1.13413
1.1337
1.11301
1.09959
1.06864
1.04751
1.00376
0.977189
0.935431
0.892752
0.854359
0.831625
0.778457
0.720157
0.711402
0.695351
0.947328
0.94508
0.944492
0.941788
0.943685
0.943618
0.945147
0.947934
0.953425
0.958581
0.966319
0.977067
0.988539
1.00544
1.01944
1.04284
1.05917
1.0835
1.09936
1.1219
1.13097
1.14955
1.14582
1.15918
1.14676
1.14778
1.12781
1.11865
1.08705
1.06932
1.03071
0.99799
0.962594
0.925694
0.876543
0.848547
0.815609
0.754922
0.723729
0.689121
0.943852
0.940811
0.940069
0.938244
0.937951
0.93996
0.941708
0.946243
0.948648
0.958671
0.963886
0.978183
0.989257
1.00751
1.02431
1.04567
1.06768
1.08741
1.11163
1.12527
1.14478
1.15165
1.16191
1.16545
1.16091
1.16115
1.14391
1.13488
1.10861
1.09122
1.05502
1.02632
0.984754
0.953234
0.908259
0.86623
0.840666
0.795447
0.749025
0.710392
0.941643
0.940505
0.937871
0.938224
0.936752
0.93974
0.939012
0.947764
0.949528
0.959125
0.968833
0.979716
0.996221
1.01005
1.0351
1.04912
1.08081
1.09259
1.12473
1.13199
1.15859
1.16113
1.17631
1.17572
1.17758
1.17459
1.1621
1.15662
1.1304
1.11594
1.08397
1.05472
1.01865
0.983217
0.942253
0.898932
0.867961
0.832977
0.78909
0.741736
0.933022
0.934643
0.932216
0.932907
0.931592
0.935599
0.937561
0.940943
0.95003
0.954663
0.970268
0.979258
1.00065
1.01344
1.04076
1.05601
1.08781
1.10209
1.13236
1.14325
1.16687
1.17082
1.18691
1.18693
1.18811
1.19285
1.17616
1.17479
1.15605
1.13789
1.11322
1.08916
1.05038
1.01462
0.979826
0.937086
0.893172
0.861623
0.829665
0.774113
0.930111
0.931001
0.929997
0.930113
0.932626
0.93238
0.940718
0.942151
0.954038
0.958779
0.975997
0.985666
1.00844
1.02239
1.05085
1.06844
1.0982
1.11716
1.14519
1.15816
1.17757
1.19109
1.19305
1.20877
1.20144
1.20585
1.19868
1.19565
1.17728
1.17072
1.14717
1.11915
1.0928
1.06024
1.0168
0.980867
0.944085
0.896261
0.86689
0.820539
0.922586
0.919891
0.921592
0.918164
0.924473
0.923186
0.933789
0.936246
0.950747
0.958197
0.975772
0.990131
1.01176
1.03156
1.0564
1.08126
1.10605
1.13232
1.15103
1.17653
1.18534
1.20343
1.21046
1.21802
1.216
1.22392
1.21523
1.21231
1.20537
1.19677
1.17482
1.16029
1.13575
1.09923
1.06958
1.02856
0.992792
0.944591
0.920754
0.868628
0.922216
0.918493
0.921473
0.918339
0.924634
0.925941
0.933664
0.942224
0.951037
0.967452
0.979674
1.00232
1.0203
1.04632
1.06766
1.09919
1.11966
1.14807
1.17096
1.1882
1.20398
1.22083
1.22461
1.23317
1.23781
1.24146
1.23359
1.23864
1.23238
1.22133
1.21371
1.20286
1.17682
1.15385
1.12775
1.07998
1.05514
1.00413
0.97935
0.926211
0.909406
0.907593
0.906704
0.910571
0.910894
0.920656
0.924893
0.938875
0.948729
0.967685
0.982602
1.00598
1.02918
1.05234
1.08269
1.10764
1.13466
1.163
1.18236
1.20241
1.2195
1.23263
1.23656
1.2493
1.25201
1.25087
1.25549
1.25676
1.24919
1.25073
1.24667
1.23248
1.22622
1.20232
1.18477
1.14452
1.12606
1.06996
1.04797
0.993853
0.902088
0.907463
0.907504
0.910688
0.914318
0.92302
0.932305
0.944215
0.961868
0.977449
1.00066
1.02289
1.04819
1.078
1.10327
1.13204
1.16237
1.18484
1.20654
1.22764
1.24298
1.25035
1.26248
1.26984
1.26905
1.27457
1.27854
1.27453
1.28092
1.27655
1.28165
1.26773
1.27661
1.24988
1.25015
1.21488
1.20231
1.15805
1.13525
1.08241
0.88183
0.886962
0.890251
0.895676
0.904618
0.914401
0.928589
0.944799
0.961537
0.985942
1.00904
1.03302
1.06368
1.09255
1.12149
1.15003
1.18262
1.20191
1.22614
1.24604
1.25914
1.26748
1.2821
1.28127
1.29227
1.28707
1.30088
1.29121
1.30866
1.29671
1.31497
1.30126
1.31689
1.30056
1.30728
1.28319
1.28168
1.24824
1.23397
1.18619
0.88164
0.88662
0.890329
0.898947
0.909753
0.921226
0.943963
0.958933
0.986655
1.00846
1.03968
1.06289
1.10094
1.12334
1.16272
1.18396
1.22178
1.23503
1.26789
1.27302
1.29982
1.29504
1.31726
1.30969
1.3261
1.31657
1.33321
1.32352
1.34022
1.33194
1.35218
1.34439
1.36812
1.35786
1.37443
1.36133
1.37122
1.35037
1.3522
1.3165
0.861468
0.869113
0.881566
0.887119
0.907605
0.919606
0.949018
0.965977
1.00125
1.02457
1.06078
1.08869
1.1268
1.15644
1.19143
1.22142
1.24978
1.27466
1.29362
1.3107
1.32366
1.32987
1.34095
1.34177
1.35274
1.349
1.36056
1.35487
1.36488
1.36093
1.37334
1.37133
1.39077
1.39367
1.41558
1.42123
1.44137
1.4445
1.45118
1.45259
0.859621
0.878507
0.896833
0.919189
0.944119
0.973421
1.00113
1.03098
1.06439
1.09687
1.1327
1.16692
1.20317
1.2371
1.26988
1.29867
1.3243
1.3443
1.35861
1.36854
1.37353
1.3759
1.37408
1.37787
1.37459
1.38173
1.37615
1.38255
1.37265
1.3732
1.35921
1.35814
1.35337
1.36297
1.36369
1.38281
1.38089
1.40792
1.39859
1.43589
0.842452
0.863932
0.884467
0.910552
0.938661
0.973763
1.01058
1.04954
1.09239
1.13265
1.17573
1.21292
1.25266
1.28463
1.31754
1.34097
1.36351
1.3756
1.38534
1.38509
1.38475
1.3756
1.37207
1.36152
1.36233
1.36037
1.36512
1.36546
1.36135
1.34173
1.30791
1.2645
1.22545
1.18905
1.16064
1.12375
1.09586
1.05896
0.983275
0.990767
0.922576
0.964242
1.01537
1.05884
1.10325
1.14232
1.18633
1.22205
1.26279
1.29286
1.32807
1.34959
1.37682
1.3887
1.41047
1.41425
1.43066
1.42438
1.427
1.41025
1.39711
1.37241
1.34886
1.31989
1.29781
1.26869
1.24779
1.22769
1.19138
1.10467
1.05143
0.971412
0.873473
0.749073
0.585863
0.430477
0.289191
0.199315
0.152607
0.138206
1.0452
1.08294
1.11885
1.15673
1.19329
1.22677
1.25623
1.28153
1.30156
1.31636
1.33037
1.33168
1.3397
1.33358
1.33608
1.31838
1.31042
1.27757
1.25611
1.20463
1.16753
1.09778
1.04225
0.955788
0.884227
0.794807
0.718284
0.620524
0.404759
0.0961584
0.29618
0.362677
0.35746
0.282031
0.191669
0.221421
0.250556
0.269607
0.291873
0.311404
1.06154
1.05452
1.02031
0.968676
0.905259
0.854479
0.843032
0.92921
1.01465
1.02395
1.01236
1.00847
1.00855
1.00866
1.01009
1.01147
1.012
1.01335
1.01347
1.01414
1.01421
1.01441
1.01423
1.0144
1.01414
1.01406
1.01369
1.01334
1.01319
1.01278
1.01269
1.01235
1.01231
1.01198
1.01187
1.01143
1.01126
1.01106
1.01149
1.01408
1.0842
1.06604
1.02676
0.969361
0.90113
0.848338
0.830896
0.903517
1.00507
1.02144
1.01162
1.00766
1.00845
1.00854
1.01011
1.01169
1.01223
1.01361
1.01378
1.01445
1.0146
1.0147
1.0145
1.01467
1.0144
1.01445
1.01408
1.01372
1.01355
1.01318
1.01304
1.0127
1.01265
1.01235
1.0122
1.0118
1.01156
1.01106
1.01063
1.00851
1.0933
1.07973
1.0395
0.975401
0.899096
0.842399
0.82227
0.888312
0.993203
1.01598
1.00823
1.00588
1.00795
1.00841
1.01065
1.01239
1.01275
1.01419
1.0145
1.01506
1.0153
1.01546
1.01519
1.0152
1.0148
1.01489
1.01449
1.01426
1.01396
1.01372
1.01345
1.01317
1.01296
1.01269
1.01238
1.01211
1.01198
1.0118
1.01229
1.01444
1.11309
1.09828
1.05102
0.977681
0.892686
0.834159
0.810229
0.862225
0.977418
1.0103
1.00576
1.0038
1.0073
1.00796
1.01048
1.01249
1.01305
1.01446
1.01475
1.01527
1.01568
1.01581
1.01571
1.01573
1.01519
1.01529
1.01482
1.01468
1.01432
1.01413
1.01379
1.01359
1.01327
1.01313
1.01274
1.01251
1.01207
1.01173
1.01112
1.0091
1.1282
1.11713
1.06834
0.983692
0.886786
0.823474
0.800793
0.844895
0.959003
1.00176
1.001
1.00083
1.00614
1.00753
1.01092
1.01305
1.01374
1.01513
1.01553
1.01597
1.01631
1.01635
1.01626
1.01632
1.01581
1.01588
1.01536
1.01531
1.01491
1.01475
1.01432
1.01425
1.01383
1.01379
1.01334
1.01318
1.01276
1.01257
1.01275
1.01407
1.15114
1.14409
1.08855
0.986525
0.876231
0.808741
0.787015
0.8195
0.936931
0.992038
0.996782
0.997397
1.00471
1.00669
1.01055
1.01286
1.01396
1.01543
1.01584
1.01637
1.01676
1.01666
1.01666
1.01667
1.01624
1.0163
1.01584
1.01576
1.01537
1.01525
1.01479
1.01481
1.01431
1.01427
1.01366
1.01343
1.01289
1.01257
1.01202
1.01033
1.17599
1.17249
1.11523
0.991049
0.86398
0.789007
0.773007
0.79989
0.914291
0.979815
0.990392
0.993331
1.00293
1.00584
1.01067
1.01315
1.01468
1.0161
1.01677
1.01725
1.0177
1.01744
1.01735
1.0172
1.01695
1.01686
1.01644
1.01629
1.01588
1.0157
1.01516
1.01517
1.0146
1.01468
1.01418
1.01405
1.01358
1.01339
1.0134
1.01404
1.20756
1.2125
1.14804
0.990425
0.844917
0.763173
0.752062
0.774347
0.889937
0.966482
0.983954
0.989169
1.00072
1.00439
1.01001
1.0127
1.01471
1.01622
1.01731
1.0177
1.01844
1.01802
1.01806
1.01768
1.0176
1.01734
1.01707
1.01676
1.01634
1.0161
1.01548
1.01538
1.01475
1.01477
1.01427
1.01426
1.01377
1.01349
1.01308
1.01175
1.24451
1.25942
1.18937
0.985266
0.819643
0.729772
0.727522
0.752778
0.86582
0.95188
0.97593
0.984984
0.998334
1.00326
1.0097
1.0127
1.01518
1.01668
1.01825
1.01836
1.01931
1.01884
1.01913
1.01861
1.01863
1.01816
1.018
1.01754
1.01712
1.01684
1.0162
1.01608
1.01548
1.01554
1.01508
1.01514
1.01459
1.01438
1.01419
1.01433
1.29483
1.32192
1.2159
0.968564
0.78081
0.687369
0.694287
0.726347
0.842511
0.937612
0.967685
0.981076
0.99561
1.00224
1.00905
1.01228
1.01526
1.01659
1.01857
1.01857
1.01987
1.01937
1.0199
1.01939
1.01958
1.01895
1.0189
1.01841
1.01802
1.01773
1.01707
1.01686
1.01616
1.0161
1.01544
1.01549
1.01482
1.01466
1.01424
1.01333
1.35598
1.38492
1.22227
0.935884
0.727918
0.635079
0.65699
0.70245
0.821378
0.923265
0.958515
0.978085
0.993389
1.00209
1.00898
1.01247
1.0159
1.01714
1.01955
1.01944
1.0208
1.02024
1.02085
1.02023
1.02044
1.01977
1.01972
1.01912
1.0187
1.0184
1.01785
1.01764
1.01691
1.01687
1.01616
1.01615
1.01557
1.01554
1.01502
1.01503
1.43194
1.4244
1.21338
0.876167
0.654055
0.573048
0.614168
0.677805
0.804103
0.910318
0.949738
0.975408
0.991481
1.00164
1.00873
1.01248
1.01643
1.01762
1.02006
1.02027
1.02158
1.02115
1.02168
1.0211
1.0213
1.02054
1.02049
1.0197
1.0193
1.01874
1.0182
1.01795
1.01719
1.01709
1.01637
1.01637
1.01579
1.0159
1.0153
1.01487
1.51125
1.45304
1.17285
0.784626
0.561703
0.507491
0.575208
0.661019
0.792716
0.898935
0.941098
0.973492
0.990447
1.00183
1.00943
1.0133
1.01739
1.01869
1.02111
1.02154
1.02253
1.0225
1.02286
1.02241
1.02262
1.02183
1.02175
1.02082
1.02058
1.01983
1.01947
1.01897
1.01832
1.01804
1.01731
1.0172
1.01656
1.01658
1.01608
1.016
1.57729
1.45762
1.08759
0.662858
0.460555
0.452249
0.548224
0.653868
0.7899
0.891131
0.934704
0.972543
0.98945
1.00236
1.00993
1.01415
1.01804
1.01961
1.02157
1.02277
1.02344
1.02395
1.02404
1.02387
1.02396
1.02326
1.02313
1.02208
1.02195
1.02094
1.02071
1.01994
1.01945
1.01883
1.01815
1.01764
1.01703
1.01684
1.0164
1.01629
1.61773
1.44955
0.981212
0.550571
0.397556
0.43704
0.549026
0.663887
0.796231
0.888347
0.932401
0.9733
0.989931
1.00473
1.01141
1.01629
1.0192
1.02152
1.02258
1.02445
1.0243
1.02539
1.02495
1.02514
1.02484
1.02441
1.0241
1.02323
1.02302
1.02218
1.022
1.02107
1.02077
1.01985
1.01944
1.01858
1.01809
1.01759
1.01714
1.01693
1.63709
1.44215
0.917801
0.541821
0.438221
0.484902
0.584354
0.691173
0.81124
0.892236
0.935039
0.976288
0.992065
1.00789
1.01315
1.01926
1.02066
1.02413
1.02366
1.02644
1.02523
1.02669
1.02535
1.02604
1.02504
1.02516
1.0244
1.02387
1.0233
1.02264
1.02245
1.02158
1.02142
1.02042
1.02029
1.01928
1.01909
1.01808
1.01771
1.01731
1.61349
1.44781
0.968759
0.683174
0.575653
0.584319
0.650188
0.734355
0.832856
0.902401
0.942309
0.982409
0.996741
1.01303
1.01644
1.0238
1.02334
1.02796
1.02579
1.02919
1.02679
1.02883
1.02665
1.02784
1.0261
1.0268
1.02545
1.02564
1.02461
1.02442
1.02389
1.02339
1.02305
1.02218
1.02196
1.02098
1.02076
1.01966
1.01929
1.01849
1.56566
1.45274
1.09608
0.870582
0.737793
0.700575
0.727092
0.785399
0.861045
0.919541
0.955727
0.991134
1.00361
1.01969
1.02084
1.02889
1.02674
1.032
1.0287
1.03269
1.02968
1.03199
1.02924
1.03069
1.02833
1.02925
1.02724
1.02774
1.02619
1.0263
1.02503
1.02485
1.02406
1.02367
1.02301
1.02235
1.02163
1.02065
1.02022
1.01968
1.51589
1.42035
1.17103
1.01695
0.858019
0.801332
0.798126
0.840404
0.894814
0.94436
0.974603
1.00357
1.01403
1.02803
1.02726
1.03448
1.03141
1.03658
1.03281
1.03669
1.03322
1.03556
1.03244
1.0338
1.03109
1.03185
1.02951
1.02998
1.028
1.02817
1.02646
1.02644
1.02507
1.025
1.02394
1.02357
1.02276
1.02213
1.02141
1.02087
1.43533
1.35492
1.17549
1.06707
0.916329
0.870606
0.857895
0.897995
0.933317
0.976197
0.998417
1.02088
1.02822
1.03783
1.03577
1.04082
1.0369
1.04093
1.03659
1.04004
1.03598
1.03817
1.03456
1.03566
1.03262
1.03312
1.03062
1.03096
1.02883
1.02895
1.02709
1.02706
1.02556
1.02559
1.0243
1.02417
1.02332
1.0231
1.02228
1.02194
1.32224
1.25836
1.14691
1.06092
0.928039
0.90985
0.917987
0.956622
0.976534
1.01334
1.02636
1.04285
1.0468
1.05143
1.04807
1.04961
1.04419
1.04617
1.0409
1.04346
1.03873
1.04039
1.03689
1.0374
1.03473
1.03487
1.03264
1.03271
1.03069
1.03065
1.02875
1.02859
1.02686
1.02669
1.02535
1.02531
1.0242
1.02403
1.02316
1.02308
1.18822
1.12199
1.0771
0.991741
0.916447
0.92748
0.948236
0.996814
1.0264
1.05246
1.05965
1.0697
1.06939
1.06963
1.06362
1.06165
1.05514
1.05374
1.04808
1.04855
1.04407
1.04396
1.04148
1.04031
1.03885
1.03768
1.0365
1.03555
1.03422
1.0333
1.03184
1.03098
1.02959
1.02875
1.02764
1.02709
1.02613
1.0254
1.02459
1.02432
1.02626
0.967687
0.971625
0.904148
0.888578
0.919885
0.954754
1.0291
1.069
1.09303
1.09716
1.10119
1.09507
1.09249
1.08283
1.07743
1.06983
1.06499
1.05919
1.05645
1.0532
1.05008
1.04906
1.04585
1.04526
1.0426
1.04206
1.03989
1.03932
1.03733
1.03665
1.03473
1.03387
1.0319
1.03116
1.02937
1.02869
1.0273
1.02688
1.02622
0.835158
0.834757
0.853016
0.815708
0.825105
0.879637
0.941735
1.03494
1.08763
1.136
1.13254
1.13536
1.12138
1.11632
1.10213
1.09442
1.08496
1.07737
1.07042
1.06516
1.06132
1.05673
1.05472
1.05094
1.04955
1.04654
1.04525
1.04281
1.04203
1.03987
1.03948
1.03742
1.037
1.03479
1.03414
1.03193
1.0312
1.02948
1.02895
1.02807
0.680332
0.737606
0.739216
0.708603
0.729003
0.801846
0.895092
1.01023
1.10226
1.16319
1.1683
1.17056
1.1494
1.1398
1.12211
1.11097
1.09994
1.08985
1.08098
1.07425
1.06839
1.06351
1.05962
1.05606
1.05295
1.05083
1.04795
1.04631
1.04417
1.04273
1.04127
1.03996
1.03881
1.03756
1.03622
1.03493
1.03355
1.03239
1.03134
1.03074
0.657404
0.677026
0.644042
0.61275
0.626213
0.700067
0.804416
0.941525
1.08543
1.1715
1.20668
1.2032
1.18535
1.16496
1.14677
1.13102
1.11922
1.10572
1.0955
1.08619
1.0789
1.07222
1.06742
1.06309
1.05888
1.05658
1.05267
1.0512
1.04818
1.04688
1.04459
1.04339
1.04147
1.0406
1.03866
1.038
1.03596
1.03532
1.03354
1.03317
0.695743
0.680294
0.641798
0.587927
0.574899
0.61328
0.682641
0.830379
1.01322
1.15784
1.22272
1.2368
1.22603
1.19497
1.17529
1.15562
1.14271
1.12678
1.11574
1.10351
1.09563
1.08644
1.08092
1.0753
1.07034
1.06676
1.06223
1.05947
1.05617
1.05357
1.05098
1.04876
1.04666
1.04487
1.04317
1.04168
1.04003
1.03882
1.0374
1.03673
0.744306
0.721103
0.693588
0.652885
0.631637
0.619772
0.606472
0.706882
0.879504
1.09414
1.2105
1.25423
1.25431
1.22733
1.19584
1.17782
1.16134
1.14603
1.13287
1.12094
1.11106
1.10117
1.09362
1.08743
1.08163
1.07726
1.07269
1.06882
1.06572
1.06199
1.05948
1.05614
1.05379
1.05084
1.04883
1.04616
1.04449
1.04206
1.0408
1.03938
0.795977
0.771816
0.761819
0.734494
0.721436
0.718397
0.694966
0.679809
0.735375
0.948346
1.14983
1.2419
1.26464
1.25263
1.21094
1.19031
1.17339
1.1586
1.14499
1.13416
1.12325
1.11423
1.10497
1.0987
1.09137
1.08688
1.08166
1.0778
1.0742
1.0709
1.0674
1.06487
1.06128
1.05907
1.05591
1.05377
1.05102
1.04906
1.04712
1.04603
0.844307
0.824892
0.826581
0.818796
0.802105
0.802225
0.798344
0.785415
0.761173
0.764013
0.962436
1.16952
1.25087
1.26265
1.23203
1.19953
1.18522
1.16801
1.15601
1.14422
1.13527
1.12445
1.11642
1.10713
1.1004
1.09387
1.08912
1.08451
1.08074
1.07755
1.07361
1.07149
1.06724
1.06552
1.06144
1.05979
1.05605
1.05464
1.05184
1.05105
0.910862
0.894786
0.891289
0.903616
0.890314
0.87754
0.875658
0.868838
0.837351
0.782807
0.740578
0.920475
1.14859
1.2313
1.2402
1.21028
1.19529
1.18236
1.16864
1.15793
1.14982
1.13831
1.13158
1.12011
1.11395
1.10431
1.10005
1.09293
1.08974
1.08508
1.08209
1.07846
1.07559
1.07227
1.07007
1.06674
1.06461
1.06199
1.0598
1.05842
0.979732
0.981886
0.983218
0.993573
0.993902
0.981488
0.968255
0.930119
0.872939
0.803213
0.714215
0.658612
0.845169
1.09031
1.18009
1.19453
1.18487
1.18534
1.17526
1.16923
1.16298
1.15634
1.1507
1.14374
1.13702
1.12869
1.12138
1.11257
1.10554
1.09874
1.09407
1.08826
1.08518
1.08008
1.07785
1.07334
1.0713
1.06804
1.06659
1.06437
1.07143
1.07072
1.09871
1.1139
1.11869
1.1019
1.04657
0.957587
0.865642
0.773589
0.677248
0.579521
0.528162
0.753761
1.00202
1.09694
1.12858
1.14736
1.15873
1.159
1.16208
1.15967
1.15807
1.15506
1.15139
1.14763
1.14344
1.13872
1.13145
1.12407
1.11651
1.10942
1.10409
1.09831
1.09312
1.08919
1.0842
1.0807
1.07739
1.07567
1.18984
1.19768
1.23134
1.24518
1.22287
1.15427
1.05562
0.938564
0.810252
0.682573
0.574349
0.480114
0.385256
0.350815
0.656634
0.888807
0.989459
1.04595
1.09067
1.11306
1.12814
1.13972
1.14489
1.14817
1.14906
1.14905
1.14773
1.14619
1.14395
1.14143
1.1376
1.13267
1.12707
1.12121
1.11526
1.11035
1.1045
1.10088
1.09689
1.09538
1.34235
1.36725
1.36965
1.3288
1.24539
1.12037
0.975226
0.822141
0.660656
0.516176
0.395726
0.30037
0.19706
0.129529
0.162797
0.555385
0.761858
0.872076
0.963281
1.02405
1.05849
1.09101
1.10645
1.12256
1.13076
1.13662
1.14157
1.14349
1.14489
1.14501
1.14504
1.14457
1.14352
1.14131
1.13861
1.13481
1.13035
1.1248
1.11893
1.11374
1.45652
1.43758
1.37186
1.26045
1.11143
0.92075
0.714786
0.503466
0.331447
0.215148
0.17662
0.169452
0.160151
0.137478
0.145631
0.185158
0.497212
0.646559
0.772112
0.876287
0.938913
0.994949
1.03373
1.064
1.08776
1.10421
1.1173
1.12856
1.13558
1.14082
1.14411
1.14582
1.14733
1.14735
1.14765
1.14627
1.14507
1.14248
1.13944
1.13755
1.38652
1.2706
1.04526
0.8268
0.63535
0.481418
0.325184
0.219482
0.221848
0.309887
0.412271
0.461896
0.48826
0.534378
0.550074
0.504433
0.33198
0.42115
0.517508
0.659199
0.749403
0.824666
0.892406
0.937961
0.983191
1.01796
1.04583
1.07089
1.09318
1.10894
1.1212
1.12897
1.13871
1.14282
1.14859
1.15038
1.15311
1.15612
1.1569
1.15668
0.799502
0.528694
0.459874
0.479342
0.51537
0.531088
0.546485
0.596377
0.666156
0.718271
0.765934
0.815875
0.846573
0.859452
0.835851
0.721891
0.573173
0.492229
0.471948
0.535158
0.597213
0.669575
0.735186
0.807378
0.850029
0.907967
0.934831
0.969168
0.990736
1.02037
1.04127
1.06026
1.0789
1.09092
1.10513
1.11465
1.12482
1.13057
1.14269
1.15085
0.125058
0.317428
0.377465
0.410124
0.431857
0.504074
0.569287
0.638059
0.712331
0.779934
0.845143
0.8947
0.919371
0.928815
0.907009
0.777832
0.579394
0.461968
0.440692
0.501132
0.600874
0.663167
0.7344
0.784545
0.82507
0.879922
0.908801
0.952757
0.97048
1.00432
1.02464
1.0524
1.0722
1.09835
1.11641
1.13958
1.15271
1.16826
1.17368
1.17865
0.331429
0.366035
0.421686
0.467882
0.522602
0.567837
0.609782
0.64573
0.678695
0.707108
0.731434
0.7513
0.763824
0.772444
0.77215
0.738618
0.675233
0.619652
0.600922
0.614498
0.648831
0.631921
0.380477
0.174623
0.420458
0.50359
0.554236
0.606233
0.639786
0.694081
0.723011
0.782847
0.814243
0.872175
0.901937
0.953483
0.984157
1.04324
1.08897
1.1572
1.02033
1.02022
1.02132
1.02114
1.02169
1.02124
1.02135
1.02042
1.01989
1.01821
1.01669
1.0137
1.01046
1.00552
1.00012
0.993
0.987894
0.984873
0.986553
0.992648
1.00143
1.0099
1.01268
1.01266
1.01232
1.01219
1.01205
1.01198
1.01194
1.01187
1.01175
1.01159
1.01138
1.01116
1.0109
1.01062
1.01031
1.00997
1.00959
1.00934
1.00263
1.00342
1.0026
1.00326
1.00285
1.00376
1.00371
1.00503
1.00562
1.00769
1.00934
1.01282
1.01571
1.02033
1.02379
1.02794
1.02925
1.02955
1.02849
1.02489
1.01825
1.01385
1.01299
1.01309
1.01325
1.01336
1.01336
1.01328
1.01317
1.01298
1.01269
1.01242
1.01224
1.012
1.01167
1.01135
1.01096
1.01052
1.0102
1.00999
1.01892
1.01902
1.01999
1.01974
1.02013
1.01942
1.01922
1.01796
1.01709
1.01514
1.01344
1.01066
1.00851
1.00536
1.00402
1.00378
1.00565
1.00745
1.00939
1.0108
1.0113
1.01158
1.01184
1.01243
1.01271
1.01296
1.01296
1.01302
1.01301
1.01302
1.01288
1.01269
1.01244
1.01221
1.01191
1.01152
1.01121
1.0109
1.0106
1.01045
1.00517
1.00594
1.00583
1.00666
1.00683
1.0081
1.00869
1.01043
1.0116
1.01395
1.01573
1.01868
1.02066
1.02345
1.02496
1.02598
1.0262
1.02594
1.02451
1.02221
1.01987
1.01719
1.01562
1.01499
1.0148
1.01462
1.01422
1.01393
1.01368
1.01341
1.01321
1.01299
1.01282
1.01249
1.01219
1.0119
1.01148
1.0113
1.01101
1.01071
1.01721
1.01752
1.0179
1.01768
1.01765
1.01696
1.01649
1.01534
1.01437
1.01277
1.0115
1.0099
1.00903
1.0083
1.00902
1.00989
1.01059
1.01113
1.01157
1.01248
1.013
1.01321
1.01319
1.01335
1.01345
1.01374
1.01368
1.01365
1.01355
1.01354
1.01332
1.01322
1.01306
1.01275
1.01235
1.012
1.01169
1.0115
1.01139
1.01116
1.00776
1.00867
1.00908
1.00998
1.01053
1.01172
1.01248
1.01396
1.0149
1.01657
1.01752
1.01911
1.01996
1.02118
1.02178
1.02242
1.02259
1.02233
1.02153
1.02053
1.01941
1.01792
1.01684
1.01637
1.01613
1.0155
1.01481
1.01446
1.01408
1.01387
1.01366
1.01338
1.01321
1.01289
1.01265
1.01224
1.01192
1.01177
1.01154
1.0113
1.01599
1.01625
1.01633
1.01613
1.01591
1.01538
1.01487
1.01403
1.01335
1.01258
1.01197
1.01145
1.01138
1.01157
1.01206
1.01284
1.01299
1.01316
1.01332
1.01388
1.01399
1.01404
1.01404
1.01427
1.0144
1.01449
1.01444
1.01437
1.01426
1.01409
1.01397
1.01384
1.01346
1.01313
1.0128
1.01239
1.01217
1.01206
1.01197
1.01179
1.01024
1.01121
1.01171
1.01262
1.01322
1.0142
1.01481
1.01577
1.0164
1.01731
1.0179
1.01862
1.01913
1.01977
1.02011
1.02028
1.02017
1.01993
1.01965
1.01924
1.01862
1.01773
1.01724
1.01707
1.01661
1.0158
1.01528
1.01498
1.01467
1.01437
1.01414
1.01403
1.01379
1.01343
1.01307
1.01262
1.01242
1.01221
1.01202
1.0118
1.01528
1.01553
1.01549
1.01548
1.0153
1.01513
1.01483
1.01456
1.01432
1.01425
1.01418
1.01434
1.01442
1.01461
1.01465
1.01472
1.01472
1.01478
1.01499
1.01519
1.01511
1.01502
1.01513
1.01525
1.0153
1.01533
1.01527
1.01511
1.015
1.01481
1.0146
1.0143
1.01407
1.01375
1.01327
1.01292
1.01273
1.01262
1.0125
1.01225
1.01254
1.01348
1.01389
1.01469
1.01521
1.01605
1.01651