/*--------------------------------*- C++ -*----------------------------------*\
  =========                 |
  \\      /  F ield         | OpenFOAM: The Open Source CFD Toolbox
   \\    /   O peration     | Website:  https://openfoam.org
    \\  /    A nd           | Version:  11
     \\/     M anipulation  |
\*---------------------------------------------------------------------------*/
FoamFile
{
    format      ascii;
    class       surfaceScalarField;
    location    "6";
    object      phi;
}
// * * * * * * * * * * * * * * * * * * * * * * * * * * * * * * * * * * * * * //

dimensions      [0 3 -1 0 0 0 0];

internalField   nonuniform List<scalar> 
18960
(
0.0477019
0.000502167
-0.0482041
0.0471349
0.000567007
0.0466336
0.000501379
0.046212
0.000421555
0.0457511
0.000460927
0.0452323
0.000518786
0.0448491
0.00038319
0.0446316
0.000217488
0.0444104
0.000221194
0.044117
0.000293459
0.043921
0.000195974
0.0438651
5.58315e-05
0.0438962
-3.10633e-05
0.0440603
-0.000164132
0.0442602
-0.000199832
0.0440911
0.000169088
0.0433734
0.000717637
0.0425695
0.000803911
0.042073
0.000496585
0.041719
0.000353919
0.041503
0.00021599
0.0414312
7.1873e-05
0.0414318
-6.44249e-07
0.0413925
3.93466e-05
0.0413639
2.8557e-05
0.0415158
-0.000151913
0.0420354
-0.000519559
0.0430935
-0.00105815
0.0450128
-0.0019193
0.0485259
-0.00351304
0.0534449
-0.00491897
0.0584923
-0.00504746
0.0613475
-0.00285517
0.0619465
-0.000599039
0.0604653
0.0014812
0.057581
0.00288434
0.0534262
0.00415482
0.0507252
0.00270101
0.0482815
0.00244367
0.000261893
0.0480196
0.0479095
0.000770362
-0.0481777
0.0476298
0.000846704
0.0472834
0.000847724
0.0469644
0.000740593
0.0466434
0.000781921
0.0463466
0.000815582
0.046096
0.000633857
0.0458226
0.000490863
0.0456027
0.000441096
0.0454562
0.000439893
0.0453307
0.000321518
0.0452852
0.00010131
0.0453333
-7.91762e-05
0.045641
-0.000471836
0.0459683
-0.00052712
0.0460666
7.08112e-05
0.0460918
0.000692395
0.0461902
0.000705533
0.046188
0.000498805
0.046033
0.000508957
0.0456815
0.000567461
0.0452678
0.000485595
0.0449872
0.000279932
0.0448208
0.00020578
0.04472
0.00012931
0.0448042
-0.000236068
0.0451086
-0.000823989
0.0457688
-0.0017184
0.0468048
-0.00295523
0.0486154
-0.00532362
0.0514151
-0.00771867
0.0554816
-0.00911399
0.0595364
-0.00691004
0.0625872
-0.00364978
0.0637873
0.000281039
0.0640787
0.00259302
0.0628556
0.00537788
0.0606571
0.00489954
0.0587066
0.00439416
0.00212895
0.0568395
0.0478502
0.00114229
-0.0482221
0.0474983
0.00119857
0.0471175
0.00122855
0.0467072
0.00115085
0.0463464
0.00114274
0.046078
0.00108393
0.0458055
0.000906363
0.0455547
0.000741716
0.0453912
0.000604616
0.045277
0.000554074
0.0452515
0.000346968
0.0452763
7.64987e-05
0.0453788
-0.000181614
0.0456123
-0.000705347
0.0459528
-0.000867663
0.0463251
-0.000301475
0.0466617
0.000355808
0.0468582
0.000508998
0.0468282
0.00052887
0.0466345
0.000702607
0.0462345
0.000967514
0.0457853
0.000934799
0.0454902
0.000575035
0.0451807
0.000515262
0.0447614
0.000548585
0.0444581
6.7272e-05
0.0443751
-0.000740966
0.0447467
-0.00209009
0.0455991
-0.00380761
0.0472365
-0.00696099
0.0499278
-0.01041
0.0544415
-0.0136277
0.0593707
-0.0118393
0.0630985
-0.00737761
0.064323
-0.000943445
0.0641378
0.00277821
0.0625073
0.00700844
0.0602347
0.00717217
0.0573402
0.00728865
0.00390018
0.0555689
0.0477891
0.00151011
-0.048157
0.0474448
0.00154289
0.0470731
0.00160023
0.0467161
0.00150793
0.0464181
0.0014407
0.0461615
0.00134052
0.0459146
0.00115328
0.0457331
0.000923252
0.0455732
0.000764435
0.045467
0.000660307
0.0454318
0.000382144
0.0454689
3.94788e-05
0.045579
-0.000291735
0.0457938
-0.000920178
0.046086
-0.00115985
0.0465015
-0.000716947
0.0469473
-8.9972e-05
0.0473292
0.000127074
0.047447
0.000411032
0.0474183
0.000731365
0.0472721
0.0011137
0.0469977
0.00120915
0.046661
0.000911783
0.0463839
0.00079229
0.046039
0.00089353
0.045671
0.000435272
0.045427
-0.000496932
0.0454719
-0.00213505
0.0457877
-0.00412339
0.0467477
-0.00792095
0.0481743
-0.0118366
0.0511304
-0.0165838
0.0556381
-0.016347
0.0612139
-0.0129533
0.0649879
-0.00471746
0.0667847
0.000981335
0.0664373
0.00735586
0.0648393
0.00877014
0.0623873
0.00974068
0.00629926
0.0599882
0.0477699
0.00188198
-0.0481418
0.0473958
0.00191701
0.0470371
0.00195891
0.0466968
0.00184824
0.0463594
0.00177804
0.0460832
0.00161676
0.045842
0.00139454
0.0456325
0.00113274
0.0454736
0.000923313
0.0453917
0.00074218
0.0453816
0.000392258
0.0454249
-3.86351e-06
0.0456039
-0.000470658
0.045816
-0.0011323
0.0460251
-0.001369
0.0464322
-0.00112397
0.0470769
-0.000734715
0.0477084
-0.000504426
0.048022
9.74503e-05
0.0481162
0.00063718
0.048049
0.00118087
0.0477686
0.00148961
0.0472464
0.00143391
0.0466574
0.00138132
0.0460573
0.00149363
0.0455034
0.00098916
0.0450521
-4.56149e-05
0.0449091
-0.0019921
0.0450226
-0.00423684
0.045662
-0.0085604
0.0467948
-0.0129694
0.0493047
-0.0190937
0.0533717
-0.0204139
0.0590962
-0.0186778
0.0638066
-0.00942791
0.0666433
-0.00185532
0.0667521
0.00724702
0.0655084
0.0100139
0.0629619
0.0122872
0.00872835
0.0605329
0.0476769
0.00225438
-0.0480493
0.047311
0.00228288
0.0469799
0.00228997
0.0466281
0.00220007
0.0462994
0.00210675
0.0460599
0.00185628
0.045821
0.00163339
0.0456541
0.0012996
0.0455264
0.00105105
0.0454715
0.0007971
0.0454828
0.00038095
0.0456278
-0.000148866
0.0458055
-0.000648395
0.0460166
-0.00134334
0.046195
-0.00154742
0.0466467
-0.00157565
0.047275
-0.00136305
0.0478663
-0.00109569
0.0482459
-0.000282142
0.048423
0.000460051
0.0483814
0.00122244
0.048236
0.00163504
0.0478802
0.00178972
0.0474367
0.00182482
0.0469215
0.00200882
0.0463966
0.00151408
0.0457368
0.000614191
0.0452903
-0.00154561
0.0449807
-0.00392728
0.0452293
-0.00880896
0.045772
-0.0135121
0.0473362
-0.0206578
0.0504515
-0.0235293
0.0562332
-0.0244595
0.0625956
-0.0157903
0.0676797
-0.0069395
0.0695863
0.00534046
0.0691189
0.0104813
0.0667032
0.0147029
0.0115397
0.0638918
0.0476378
0.00263576
-0.0480192
0.0472886
0.00263213
0.0469546
0.00262396
0.0466003
0.00255436
0.0463149
0.00239217
0.0460429
0.00212823
0.0458339
0.00184241
0.0456793
0.00145417
0.045547
0.00118339
0.045512
0.000832108
0.0455369
0.000356014
0.0456464
-0.00025833
0.0458266
-0.000828611
0.0460233
-0.00154007
0.0462735
-0.00179758
0.046724
-0.00202618
0.0473333
-0.00197236
0.0479262
-0.00168855
0.0484074
-0.000763379
0.0487211
0.000146396
0.0487578
0.00118573
0.0486473
0.00174557
0.0483072
0.00212979
0.0477499
0.00238212
0.0470942
0.00266446
0.0464422
0.00216615
0.0457094
0.00134696
0.0451584
-0.000994648
0.0446052
-0.00337404
0.0443506
-0.0085544
0.0444013
-0.0135628
0.0454262
-0.0216828
0.0476581
-0.0257612
0.0525461
-0.0293475
0.059349
-0.0225931
0.0661254
-0.013716
0.0701001
0.00136579
0.070922
0.00965935
0.0689033
0.0167216
0.0145042
0.0659388
0.0475384
0.00301144
-0.0479141
0.0471901
0.00298043
0.0468539
0.00296012
0.0465462
0.00286213
0.0462454
0.00269298
0.0459981
0.00237553
0.0457971
0.00204337
0.045656
0.00159529
0.0455574
0.00128197
0.0455532
0.000836329
0.0455965
0.000312726
0.0457708
-0.000432631
0.0459749
-0.00103277
0.0461992
-0.00176437
0.0464761
-0.00207444
0.0469023
-0.00245239
0.0474681
-0.00253811
0.0480618
-0.00228229
0.0485648
-0.00126641
0.0488989
-0.000187708
0.0489563
0.00112837
0.048848
0.00185392
0.0485376
0.00244009
0.048115
0.00280481
0.047572
0.00320745
0.0469972
0.00274088
0.0462131
0.00213107
0.045469
-0.000250473
0.04472
-0.00262508
0.0440666
-0.007901
0.0435521
-0.0130483
0.043844
-0.0219746
0.0452317
-0.0271489
0.0491901
-0.0333059
0.0560415
-0.0294445
0.064352
-0.0220265
0.0708382
-0.00512036
0.0737637
0.00673386
0.0730061
0.0174792
0.0172075
0.0703027
0.0474993
0.00338717
-0.0478751
0.0471589
0.00332089
0.0468277
0.00329134
0.0465331
0.00315666
0.0462511
0.00297505
0.0460225
0.00260414
0.0458213
0.00224455
0.0456917
0.00172492
0.0455954
0.00137823
0.0456261
0.000805598
0.0457113
0.000227609
0.0458644
-0.000585741
0.0460506
-0.00121902
0.0462954
-0.00200918
0.0466042
-0.00238322
0.0470465
-0.00289466
0.0475837
-0.0030753
0.0481216
-0.00282018
0.0486388
-0.00178363
0.0490473
-0.000596229
0.0491977
0.000977953
0.0491287
0.0019229
0.0488191
0.0027497
0.0483842
0.00323973
0.0477531
0.00383855
0.0471195
0.00337454
0.0463154
0.00293508
0.0455145
0.000550479
0.0446114
-0.00172199
0.0435848
-0.00687441
0.0425289
-0.0119924
0.0421557
-0.0216014
0.0426231
-0.0276162
0.0452605
-0.0359433
0.0512324
-0.0354164
0.0601516
-0.0309457
0.0691913
-0.0141601
0.0747488
0.00117631
0.0754781
0.01675
0.0194996
0.073186
0.0473947
0.00374704
-0.0477545
0.0470705
0.00364503
0.046731
0.00363089
0.0464498
0.0034378
0.0462062
0.0032187
0.0459912
0.00281906
0.0458035
0.00243232
0.0456882
0.00184019
0.045643
0.00142345
0.0456973
0.000751231
0.0457913
0.000133666
0.0459548
-0.000749266
0.0461755
-0.00143974
0.0464313
-0.00226491
0.0467845
-0.00273641
0.0471997
-0.00330986
0.0476902
-0.00356587
0.0481906
-0.00332056
0.0487188
-0.00231187
0.0491872
-0.00106461
0.0494158
0.000749367
0.0493597
0.00197903
0.0490369
0.00307249
0.0486074
0.00366917
0.0480369
0.0044091
0.047412
0.00399945
0.046618
0.00372907
0.0457428
0.00142567
0.0447777
-0.000756862
0.0435611
-0.00565789
0.0420577
-0.010489
0.0407596
-0.0203033
0.0402999
-0.0271566
0.0416074
-0.0372508
0.046357
-0.040166
0.0549291
-0.0395178
0.066246
-0.0254769
0.0753329
-0.00791062
0.0788838
0.0131991
0.0206968
0.0776865
0.0473546
0.00410707
-0.0477146
0.0470233
0.00397629
0.0467224
0.00393175
0.0464637
0.00369656
0.0462157
0.00346671
0.0460193
0.00301549
0.0458459
0.00260571
0.0457575
0.00192857
0.0457406
0.00144034
0.0458007
0.000691099
0.045891
4.33757e-05
0.0460778
-0.000936049
0.0463332
-0.00169519
0.0465795
-0.00251116
0.0469104
-0.00306728
0.047323
-0.00372251
0.047821
-0.00406384
0.0483472
-0.00384675
0.0488032
-0.00276789
0.0492604
-0.00152182
0.0495429
0.000466845
0.0496278
0.00189417
0.0493865
0.00331375
0.0490183
0.00403737
0.0483724
0.00505497
0.0476721
0.00469978
0.0467995
0.00460164
0.0457823
0.0024429
0.0446447
0.000380714
0.0432298
-0.00424293
0.0414943
-0.00875349
0.0393845
-0.0181935
0.0380017
-0.0257737
0.0377178
-0.036967
0.0406426
-0.0430908
0.0476178
-0.046493
0.0602196
-0.0380787
0.0729697
-0.0206607
0.0805766
0.00559216
0.0203552
0.0809183
0.0472522
0.00444437
-0.0475895
0.0469414
0.00428705
0.0466358
0.00423735
0.046389
0.00394332
0.0461734
0.00368238
0.0459847
0.0032042
0.0458438
0.00274659
0.0457927
0.00197968
0.0457885
0.00144455
0.0458789
0.000600626
0.0459866
-6.42683e-05
0.0461903
-0.00113975
0.0464587
-0.0019636
0.0467051
-0.00275757
0.0470678
-0.00342993
0.0474924
-0.00414717
0.0479592
-0.00453068
0.0484348
-0.00432234
0.0488765
-0.0032095
0.0493236
-0.00196894
0.0496985
9.19065e-05
0.0498624
0.00173023
0.0496988
0.00347739
0.0493648
0.00437135
0.0487422
0.00567761
0.0480143
0.00542766
0.0470944
0.00552151
0.0460044
0.00353287
0.0447786
0.00160661
0.043266
-0.00273033
0.0413968
-0.00688431
0.0385921
-0.0153889
0.0363305
-0.0235121
0.0346006
-0.0352371
0.0358042
-0.0442944
0.04015
-0.0508388
0.0518144
-0.0497431
0.067132
-0.0359783
0.0808481
-0.00812393
0.0169813
0.084222
0.0472231
0.0047836
-0.0475623
0.0469186
0.00459157
0.0466457
0.00451025
0.0464161
0.0041729
0.0461992
0.00389926
0.0460431
0.00336036
0.0459329
0.00285681
0.0458839
0.00202861
0.0458922
0.00143624
0.0459934
0.00049949
0.0461452
-0.000216084
0.0463351
-0.00132963
0.0466044
-0.00223297
0.0469149
-0.003068
0.0472741
-0.00378918
0.047658
-0.00453103
0.048042
-0.00491465
0.0485377
-0.0048181
0.0490243
-0.00369604
0.049464
-0.00240871
0.0498053
-0.000249366
0.0500212
0.00151432
0.049952
0.00354661
0.049784
0.00453931
0.0492502
0.00621145
0.0485421
0.00613578
0.0475823
0.00648126
0.0463513
0.00476395
0.0449241
0.00303375
0.0431273
-0.000933487
0.0411779
-0.00493494
0.0380386
-0.0122495
0.035122
-0.0205956
0.0319641
-0.0320791
0.0314874
-0.0438178
0.0331026
-0.052454
0.0417246
-0.0583651
0.0564574
-0.0507112
0.0769668
-0.0286333
0.00806975
0.0858783
0.0471069
0.00510081
-0.0474242
0.0468127
0.00488581
0.0465626
0.00476035
0.0463466
0.00438894
0.0461664
0.00407938
0.0460358
0.00349099
0.0459454
0.00294719
0.0459281
0.00204593
0.0459732
0.00139111
0.04608
0.00039269
0.0462532
-0.000389273
0.0464674
-0.00154378
0.0467528
-0.00251839
0.0470748
-0.00338999
0.0474505
-0.00416484
0.0478072
-0.00488775
0.0482118
-0.00531925
0.0486582
-0.00526449
0.0491265
-0.00416436
0.0495488
-0.00283098
0.049902
-0.00060258
0.0501733
0.00124294
0.0502304
0.00348958
0.0501321
0.00463763
0.0497365
0.00660706
0.0490915
0.00678072
0.0481749
0.00739789
0.0468979
0.00604093
0.0454631
0.00446858
0.0435876
0.000942005
0.0415573
-0.00290462
0.0382509
-0.00894316
0.0347874
-0.0171321
0.0303677
-0.0276594
0.0282248
-0.0416749
0.0274197
-0.0516489
0.0325283
-0.0634737
0.0434786
-0.0616615
0.0668413
-0.0519959
-0.00827399
0.083185
0.0471095
0.00541174
-0.0474204
0.0468371
0.00515819
0.0466093
0.00498814
0.0463847
0.00461349
0.0462245
0.00423964
0.0461249
0.00359061
0.0460556
0.0030164
0.046041
0.00206056
0.0461215
0.00131066
0.0462399
0.000274244
0.0464209
-0.000570237
0.0466628
-0.00178566
0.0469464
-0.00280202
0.047268
-0.00371164
0.0476442
-0.00454102
0.0480223
-0.00526586
0.0483841
-0.00568097
0.0488024
-0.00568286
0.0492098
-0.00457178
0.0496614
-0.00328254
0.0500465
-0.000987716
0.0503664
0.000923067
0.0504178
0.00343821
0.0503967
0.00465867
0.0501623
0.00684145
0.0496604
0.00728262
0.0489198
0.00813851
0.0477213
0.00723943
0.0462396
0.00595033
0.0442302
0.00295137
0.0419924
-0.000666759
0.0386419
-0.00559274
0.0349565
-0.0134467
0.029572
-0.0222749
0.0253476
-0.0374505
0.0217935
-0.0480948
0.0231292
-0.0648094
0.0302162
-0.0687485
0.0520379
-0.0738176
-0.0298753
0.0736392
0.0469789
0.00570211
-0.0472693
0.0467242
0.00541296
0.0465105
0.0052018
0.0463418
0.00478217
0.0462222
0.0043592
0.046128
0.00368484
0.0460969
0.00304757
0.0461269
0.00203054
0.0462122
0.00122538
0.0463497
0.00013669
0.046558
-0.000778543
0.0468111
-0.00203877
0.0471308
-0.00312169
0.0474663
-0.00404712
0.0478424
-0.00491714
0.0482311
-0.00565458
0.0485642
-0.00601405
0.0489399
-0.00605852
0.0493279
-0.00495981
0.0497616
-0.00371626
0.0501551
-0.0013812
0.0505251
0.00055306
0.0506697
0.00329356
0.0506949
0.0046335
0.0505832
0.00695321
0.0502016
0.00766419
0.0496473
0.00869278
0.0485861
0.0083006
0.0471797
0.00735679
0.0452145
0.00491655
0.0430372
0.00151057
0.0397602
-0.00231581
0.0359291
-0.00961551
0.0303575
-0.0167033
0.024032
-0.0311251
0.0177185
-0.0417812
0.0149509
-0.0620417
0.0174505
-0.0712481
0.0332228
-0.0895898
-0.0558673
0.0592148
0.0470037
0.00598293
-0.0472845
0.0467781
0.00563859
0.0465771
0.0054028
0.0464304
0.00492884
0.0463115
0.0044781
0.0462551
0.00374122
0.0462502
0.00305253
0.0463008
0.00197988
0.0464048
0.00112138
0.04655
-8.43891e-06
0.0467825
-0.00101113
0.0470219
-0.00227808
0.0473335
-0.00343329
0.0476949
-0.00440852
0.0480841
-0.00530643
0.0484524
-0.0060228
0.0487534
-0.00631507
0.0491209
-0.00642603
0.0495012
-0.0053401
0.049894
-0.00410907
0.0502721
-0.00175926
0.0507262
9.89576e-05
0.0509698
0.00304995
0.0510371
0.00456614
0.0510252
0.00696513
0.0507107
0.00797869
0.0502979
0.00910562
0.0494082
0.00919029
0.0481993
0.0085657
0.046221
0.00689483
0.0441532
0.00357839
0.0411843
0.000653084
0.0370594
-0.00549067
0.0320879
-0.0117318
0.0249212
-0.0239583
0.0165906
-0.0334506
0.0100016
-0.0554527
0.00659617
-0.0678427
0.0121146
-0.0951083
-0.0812112
0.0374585
0.046896
0.0062362
-0.0471493
0.0466823
0.00585234
0.0465143
0.00557081
0.0463864
0.00505675
0.0463237
0.00454079
0.0462943
0.00377059
0.0463145
0.00303235
0.0463882
0.00190616
0.0465187
0.000990893
0.0467057
-0.000195461
0.0469475
-0.00125293
0.0471982
-0.00252879
0.0475276
-0.00376268
0.0479081
-0.00478901
0.0482947
-0.00569306
0.0486818
-0.00640987
0.0490189
-0.00665219
0.0493097
-0.0067168
0.0496239
-0.00565432
0.0500339
-0.00451908
0.0504352
-0.00216053
0.0508774
-0.000343203
0.0512755
0.00265183
0.0514091
0.00443249
0.051515
0.00685929
0.0512898
0.00820385
0.0509702
0.00942524
0.0502174
0.00994311
0.0492851
0.00949796
0.0474414
0.00873849
0.0451883
0.00583156
0.0429394
0.002902
0.0390634
-0.00161476
0.0344295
-0.0070979
0.0275792
-0.017108
0.0189841
-0.0248555
0.00937954
-0.0458482
0.00112921
-0.0595924
-0.00307041
-0.0909087
-0.0943941
0.0101125
0.0469474
0.00647715
-0.0471883
0.0467644
0.00603527
0.0466283
0.00570689
0.0465149
0.0051702
0.0464697
0.00458594
0.0464802
0.00376016
0.0465149
0.0029976
0.0466167
0.00180439
0.046748
0.0008596
0.0469516
-0.000399132
0.0472044
-0.0015057
0.0474803
-0.0028047
0.047807
-0.00408939
0.0481402
-0.00512222
0.0485212
-0.00607406
0.0489292
-0.00681786
0.0492909
-0.00701383
0.0495829
-0.00700882
0.0498864
-0.00595787
0.0502356
-0.00486824
0.050655
-0.00257995
0.0510697
-0.000757913
0.0515872
0.00213433
0.051823
0.00419673
0.0520715
0.00661075
0.0519542
0.00832118
0.0518327
0.00954671
0.0510743
0.0107016
0.0502513
0.0103209
0.0490607
0.00992918
0.0467504
0.00814186
0.0444459
0.0052065
0.0410447
0.00178645
0.0366544
-0.00270765
0.030474
-0.0109275
0.0225188
-0.0169004
0.0104262
-0.0337556
4.86259e-05
-0.0492148
-0.0123254
-0.0785347
-0.0949876
-0.011732
0.0468494
0.00666912
-0.0470413
0.046696
0.00618867
0.0465775
0.00582539
0.0465057
0.00524195
0.0464791
0.00461256
0.0465395
0.00369971
0.0466064
0.00293076
0.0467492
0.00166154
0.0468825
0.000726355
0.0471222
-0.000638877
0.0474068
-0.00179026
0.0476949
-0.00309283
0.048036
-0.0044305
0.0484224
-0.00550858
0.0488026
-0.00645424
0.0491661
-0.00718134
0.0494979
-0.00734564
0.0498108
-0.00732172
0.0501638
-0.0063109
0.0504703
-0.00517475
0.0508852
-0.00299479
0.0512383
-0.00111108
0.0517877
0.00158494
0.0521399
0.00384454
0.0525914
0.0061593
0.0525389
0.00837365
0.0526245
0.00946112
0.0523047
0.0110214
0.0513328
0.0112927
0.0504259
0.0108361
0.0485729
0.00999486
0.046435
0.00734439
0.0434931
0.00472834
0.0394396
0.00134585
0.0338371
-0.00532497
0.0270735
-0.0101369
0.0146332
-0.0213153
0.00261038
-0.037192
-0.0135624
-0.0623619
-0.086598
-0.021952
0.0469736
0.00685246
-0.0471569
0.0468278
0.00633445
0.0467388
0.00591433
0.0467078
0.00527296
0.0467048
0.00461561
0.0467733
0.00363123
0.0468731
0.00283092
0.0470199
0.00151475
0.047214
0.000532272
0.0474293
-0.000854216
0.0477385
-0.0020995
0.0480317
-0.00338595
0.0483642
-0.00476306
0.0487214
-0.00586578
0.0491215
-0.00685433
0.049455
-0.00751483
0.0498513
-0.00774199
0.0501127
-0.00758308
0.0504451
-0.00664332
0.0507223
-0.0054519
0.0512205
-0.00349302
0.0515304
-0.00142102
0.0521596
0.000955748
0.0524284
0.00357576
0.0530678
0.00551996
0.0532716
0.00816983
0.0532826
0.00945012
0.0534071
0.0108969
0.0527409
0.0119589
0.0520125
0.0115645
0.0504549
0.0115525
0.048536
0.00926321
0.0460603
0.00720404
0.0426027
0.00480351
0.0376261
-0.000348379
0.0317598
-0.00427063
0.0212597
-0.0108152
0.00787092
-0.0238031
-0.00939146
-0.0450995
-0.0720139
-0.0239756
0.0468661
0.00698437
-0.046998
0.0467784
0.00642211
0.0467183
0.00597443
0.0467242
0.00526711
0.046754
0.0045858
0.0468651
0.0035201
0.0470015
0.00269448
0.0471711
0.00134515
0.0474152
0.000288244
0.0476468
-0.00108584
0.0479988
-0.00245148
0.0483061
-0.00369327
0.0486913
-0.00514823
0.0489932
-0.00616775
0.0494049
-0.00726597
0.0497323
-0.00784222
0.0501132
-0.00812297
0.0503811
-0.00785092
0.0507905
-0.00705274
0.050983
-0.00564438
0.051516
-0.0040261
0.0517589
-0.00166384
0.0524822
0.000232452
0.0528638
0.00319416
0.0533999
0.00498384
0.0539683
0.00760145
0.0540189
0.0093995
0.0542467
0.0106691
0.0539472
0.0122584
0.0535257
0.011986
0.0524224
0.0126558
0.0507041
0.0109815
0.0486343
0.00927386
0.0459643
0.00747349
0.0419707
0.00364526
0.0371264
0.000573666
0.0295305
-0.00321932
0.0171636
-0.0114362
-0.00115294
-0.0267829
-0.0531218
-0.020045
0.047069
0.00711039
-0.047195
0.0469952
0.00649587
0.0469781
0.00599157
0.0469904
0.00525481
0.0470716
0.00450462
0.0471853
0.00340639
0.0473648
0.00251493
0.0475381
0.00117186
0.0478006
2.57906e-05
0.048065
-0.00135025
0.0484212
-0.00280771
0.0486938
-0.00396582
0.0491182
-0.00557261
0.0494226
-0.00647224
0.0498044
-0.00764772
0.0500965
-0.00813434
0.0505059
-0.00853233
0.0506834
-0.00802846
0.0511594
-0.00752873
0.0513174
-0.00580237
0.0518786
-0.00458734
0.0521902
-0.0019754
0.0527647
-0.000342087
0.0533969
0.002562
0.0538516
0.00452909
0.0546159
0.00683715
0.0549152
0.00910024
0.0552838
0.0103005
0.0552465
0.0122956
0.0549251
0.0123074
0.0543802
0.0132007
0.0529711
0.0123907
0.051179
0.011066
0.0490666
0.00958591
0.0459554
0.00675645
0.0423826
0.00414639
0.0371151
0.00204825
0.0279579
-0.00227904
0.0118177
-0.0106427
-0.0318029
-0.00950125
0.0469949
0.00719658
-0.047081
0.0469615
0.0065292
0.0469854
0.00596772
0.0470498
0.00519036
0.0471309
0.00442354
0.0472921
0.00324521
0.0475333
0.00227375
0.0477296
0.000975511
0.0480868
-0.000331394
0.0483149
-0.00157839
0.048761
-0.00325372
0.049045
-0.00424986
0.0494498
-0.00597743
0.0497468
-0.00676927
0.0501743
-0.00807521
0.0504156
-0.00837556
0.0508471
-0.00896386
0.051036
-0.00821734
0.0514587
-0.00795144
0.0516817
-0.00602542
0.0521333
-0.00503895
0.0526088
-0.00245087
0.0530832
-0.000816509
0.0538484
0.00179683
0.054362
0.00401548
0.0551872
0.006012
0.0557831
0.00850433
0.0562256
0.00985796
0.0566609
0.0118604
0.0564148
0.0125535
0.0562146
0.0134008
0.0553503
0.013255
0.0538281
0.0125881
0.0519272
0.0114868
0.049387
0.00929667
0.047053
0.00648037
0.0439651
0.00513619
0.0383833
0.00330277
0.0278011
-6.05736e-05
-0.0136456
0.00964384
0.0473295
0.00727287
-0.0474058
0.0473312
0.00652743
0.0473549
0.00594402
0.0474546
0.00509069
0.0475839
0.00429426
0.0477513
0.00307779
0.0479765
0.00204861
0.0481904
0.000761562
0.04861
-0.000750966
0.0488257
-0.00179413
0.0492669
-0.00369489
0.0495787
-0.00456162
0.0499746
-0.00637336
0.0502937
-0.00708844
0.0506797
-0.00846117
0.0509047
-0.00860056
0.0512729
-0.00933208
0.0514637
-0.00840816
0.0517944
-0.00828213
0.0521353
-0.00636627
0.0525085
-0.00541217
0.0530729
-0.00301526
0.0534898
-0.00123344
0.0543391
0.000947574
0.0549548
0.00339973
0.0557677
0.00519907
0.0566638
0.00760826
0.0572207
0.00930103
0.0578557
0.0112254
0.0581417
0.0122676
0.0580585
0.013484
0.0575138
0.0137996
0.0569017
0.0132003
0.0554688
0.0129197
0.0529308
0.0118347
0.0504085
0.00900263
0.0485451
0.00699957
0.0459263
0.00592157
0.0404447
0.00542111
-0.0019382
0.0287373
0.0473001
0.00728294
-0.0473102
0.0473339
0.00649358
0.0474135
0.00586444
0.0475276
0.00497659
0.0477305
0.00409143
0.0478887
0.00291956
0.0482663
0.00167094
0.0484903
0.000537623
0.0488968
-0.00115746
0.0492294
-0.00212672
0.0495835
-0.00404903
0.050024
-0.00500206
0.0503441
-0.00669348
0.0507216
-0.00746593
0.0510751
-0.00881474
0.0513783
-0.00890366
0.0516204
-0.00957419
0.0519414
-0.00872919
0.0521375
-0.00847828
0.052567
-0.00679575
0.0528187
-0.00566385
0.0534367
-0.00363322
0.0539646
-0.00176138
0.05471
0.000202165
0.0555941
0.00251568
0.0564453
0.00434783
0.0573951
0.00665851
0.0583652
0.00833093
0.0591728
0.0104178
0.059658
0.0117824
0.060299
0.0128429
0.0599755
0.0141232
0.0593045
0.0138712
0.0589476
0.0132766
0.0575015
0.0132808
0.0546115
0.0118926
0.0521459
0.00946525
0.0509173
0.00715009
0.0485316
0.00780688
0.00348573
0.0431076
0.0478278
0.00726548
-0.0478103
0.0478588
0.00646254
0.0480159
0.0057073
0.0481049
0.00488761
0.0483824
0.00381397
0.0485378
0.00276411
0.0489439
0.00126482
0.0492218
0.00025978
0.0495053
-0.00144102
0.0499994
-0.00262079
0.0502637
-0.00431334
0.0507527
-0.00549108
0.0510146
-0.00695535
0.0514354
-0.00788669
0.0516717
-0.00905111
0.0520275
-0.00925944
0.0521522
-0.0096989
0.0524755
-0.00905252
0.0526066
-0.00860933
0.0530099
-0.00719905
0.0533272
-0.00598114
0.0538572
-0.00416324
0.0544836
-0.00238777
0.0552092
-0.000523483
0.0561056
0.00161929
0.0571189
0.00333451
0.0582802
0.00549724
0.0592459
0.0073652
0.0605668
0.00909699
0.0612622
0.011087
0.0619204
0.0121848
0.0626739
0.0133696
0.0622434
0.0143017
0.0615522
0.0139678
0.0612721
0.0135609
0.0600536
0.0131111
0.057034
0.0124849
0.0549844
0.0091997
0.053339
0.00945222
0.00637887
0.0504459
0.0477709
0.00711998
-0.0476254
0.0479086
0.0063248
0.0481027
0.0055132
0.0483068
0.00468359
0.0486562
0.00346456
0.0489785
0.00244178
0.049224
0.00101937
0.0496585
-0.000174729
0.0499676
-0.00175013
0.0504878
-0.00314097
0.0508122
-0.0046378
0.0512906
-0.00596946
0.0516066
-0.00727133
0.0519743
-0.00825445
0.0521959
-0.00927273
0.0525173
-0.00958078
0.0526542
-0.00983578
0.0529169
-0.00931524
0.0530818
-0.00877423
0.0534181
-0.00753535
0.0537018
-0.00626485
0.0542519
-0.00471336
0.0548568
-0.00299268
0.0556319
-0.00129855
0.0567046
0.000546562
0.0576652
0.00237393
0.0590806
0.00408186
0.0603246
0.00612113
0.0616224
0.00779919
0.0630453
0.00966412
0.0639966
0.0112335
0.0648047
0.0125615
0.0654865
0.01362
0.0653882
0.0140661
0.064535
0.0144141
0.0644166
0.0132294
0.0630436
0.0138579
0.0607441
0.0114993
0.0586635
0.0115328
0.00907072
0.0559716
0.0485081
0.0070045
-0.0483927
0.0487135
0.00611941
0.0489297
0.00529707
0.0492859
0.00432733
0.0494956
0.00325486
0.0499223
0.00201509
0.0501951
0.000746588
0.05065
-0.000629661
0.0510175
-0.00211763
0.0514647
-0.00358814
0.0518644
-0.00503747
0.0522206
-0.00632564
0.0525715
-0.00762229
0.0528634
-0.00854638
0.0530963
-0.00950555
0.053288
-0.00977251
0.0534143
-0.00996209
0.0536422
-0.00954313
0.0537409
-0.00887288
0.0539852
-0.00777968
0.0543355
-0.00661519
0.0547265
-0.00510434
0.0553706
-0.00363679
0.0561704
-0.00209829
0.0571567
-0.000439741
0.0583206
0.00120995
0.0597155
0.00268699
0.0612015
0.00463512
0.0627668
0.0062339
0.0644286
0.00800235
0.065853
0.00980911
0.0672237
0.0111908
0.0680227
0.012821
0.0690187
0.01307
0.0688522
0.0145806
0.0685565
0.013525
0.0681476
0.0142669
0.0668332
0.0128137
0.0653643
0.0130017
0.011434
0.063001
0.0485315
0.00685251
-0.0483795
0.0487955
0.00585546
0.0490608
0.00503178
0.0494744
0.00391372
0.0498683
0.00286091
0.0502607
0.00162276
0.0507708
0.00023648
0.0511683
-0.00102719
0.0517422
-0.00269147
0.0521502
-0.00399622
0.0526508
-0.00553802
0.0529868
-0.00666163
0.0533561
-0.00799161
0.0536497
-0.00884001
0.0538315
-0.00968734
0.0539908
-0.0099318
0.0540931
-0.0100644
0.0541807
-0.00963071
0.0543248
-0.00901701
0.0545167
-0.00797156
0.0547821
-0.00688062
0.0552652
-0.00558744
0.0558705
-0.00424207
0.0565791
-0.00280689
0.0577071
-0.00156778
0.0589398
-2.26588e-05
0.0603126
0.00131412
0.0620883
0.00285938
0.0638082
0.00451404
0.0658561
0.00595446
0.0674559
0.00820932
0.06963
0.00901662
0.0710015
0.0114495
0.0722703
0.0118013
0.0733015
0.0135495
0.0735936
0.0132329
0.0736344
0.014226
0.0731028
0.0133453
0.0724804
0.0136242
0.0127978
0.0711166
0.0498779
0.00662997
-0.0496554
0.0501499
0.00558341
0.0505552
0.00462647
0.0508043
0.00366471
0.0512659
0.00239929
0.0515541
0.0013345
0.0521008
-0.000310212
0.0526132
-0.00153952
0.0530503
-0.00312866
0.0535179
-0.00446379
0.0538778
-0.00589791
0.0543222
-0.00710606
0.0545358
-0.0082052
0.0548002
-0.00910444
0.0549078
-0.00979485
0.0550164
-0.0100404
0.0549378
-0.00998587
0.0550905
-0.00978332
0.0550752
-0.00900173
0.0551534
-0.00804978
0.0554914
-0.00721863
0.0558672
-0.00596321
0.0563137
-0.00468857
0.0572284
-0.00372161
0.0581805
-0.00251984
0.0595324
-0.00137459
0.0608154
3.10786e-05
0.0629092
0.000765596
0.0646516
0.00277168
0.0668679
0.00373811
0.0691909
0.00588632
0.071476
0.00673152
0.0736171
0.00930849
0.0756276
0.00979071
0.0772593
0.0119179
0.0782989
0.0121933
0.0792527
0.0132721
0.079468
0.0131301
0.0794848
0.0136074
0.0135688
0.0787138
0.0500803
0.00622213
-0.0496725
0.0504929
0.00517082
0.0509984
0.00412095
0.0515161
0.00314705
0.0520093
0.00190607
0.0526624
0.000681423
0.0530518
-0.000699659
0.0537258
-0.00221352
0.0541192
-0.00352203
0.0546612
-0.00500577
0.0549701
-0.00620679
0.0554384
-0.00757443
0.0555476
-0.00831438
0.0558023
-0.0093591
0.0558513
-0.00984387
0.0557962
-0.00998529
0.0557718
-0.00996143
0.055809
-0.00982061
0.055614
-0.00880669
0.0558171
-0.00825285
0.0559449
-0.00734646
0.0563352
-0.00635347
0.0567327
-0.00508615
0.0577284
-0.00471724
0.0585101
-0.00330161
0.0598886
-0.00275309
0.0614002
-0.00148045
0.0631976
-0.00103184
0.0652993
0.000670017
0.0677077
0.00132971
0.070277
0.00331699
0.0728942
0.00411431
0.0759028
0.00629986
0.0784269
0.00726662
0.081075
0.00926973
0.0830401
0.0102283
0.0849234
0.0113888
0.0858871
0.0121664
0.0869883
0.0125062
0.0134892
0.0870678
0.0519194
0.00582599
-0.0515232
0.0523329
0.00475727
0.0527349
0.00371892
0.0532434
0.0026386
0.0537289
0.00142057
0.0544588
-4.85104e-05
0.0549176
-0.00115846
0.0555542
-0.00285009
0.0560326
-0.00400044
0.0565069
-0.0054801
0.0569015
-0.00660132
0.0571855
-0.00785844
0.0573365
-0.0084654
0.057504
-0.00952663
0.0572928
-0.00963261
0.0573288
-0.0100214
0.0570808
-0.00971339
0.056955
-0.00969484
0.0567604
-0.00861206
0.0568267
-0.0083191
0.0567643
-0.00728408
0.057086
-0.00667523
0.0575672
-0.00556735
0.05819
-0.00534001
0.0591862
-0.00429777
0.0603997
-0.00396665
0.0619609
-0.00304159
0.0635622
-0.00263316
0.0658705
-0.00163826
0.0681835
-0.000983284
0.0711124
0.000388062
0.0739033
0.00132343
0.0774937
0.00270938
0.0806198
0.00414057
0.0842993
0.00559017
0.0872504
0.00727723
0.0902616
0.00837764
0.0924479
0.0099801
0.0943958
0.0105583
0.0123825
0.0955025
0.0529419
0.00513094
-0.0522469
0.053747
0.00395219
0.0544717
0.00299419
0.0552472
0.00186316
0.0559226
0.000745119
0.0564481
-0.000574013
0.0571366
-0.00184698
0.0577325
-0.003446
0.0581522
-0.00442007
0.0586495
-0.0059774
0.0588527
-0.00680455
0.0589611
-0.00796684
0.0590732
-0.00857745
0.0589298
-0.00938324
0.0587159
-0.00941875
0.0585223
-0.00982779
0.0581956
-0.00938667
0.0578085
-0.00930775
0.0576821
-0.00848568
0.0574583
-0.00809528
0.0574347
-0.00726042
0.0575561
-0.0067967
0.0580946
-0.00610583
0.0585707
-0.00581614
0.059582
-0.00530902
0.0606213
-0.00500592
0.0622313
-0.0046516
0.063789
-0.00419087
0.0660045
-0.00385378
0.0682321
-0.00321086
0.0712758
-0.00265565
0.0743916
-0.00179235
0.0781804
-0.00107946
0.0820911
0.000229868
0.0864968
0.00118446
0.0907764
0.00299764
0.0950811
0.00407299
0.0989578
0.00610341
0.102443
0.0070727
0.00987255
0.104953
0.0553482
0.00467624
-0.0548935
0.0558296
0.00347074