/*--------------------------------*- C++ -*----------------------------------*\
  =========                 |
  \\      /  F ield         | OpenFOAM: The Open Source CFD Toolbox
   \\    /   O peration     | Website:  https://openfoam.org
    \\  /    A nd           | Version:  11
     \\/     M anipulation  |
\*---------------------------------------------------------------------------*/
FoamFile
{
    format      ascii;
    class       volVectorField;
    location    "6";
    object      U;
}
// * * * * * * * * * * * * * * * * * * * * * * * * * * * * * * * * * * * * * //

dimensions      [0 1 -1 0 0 0 0];

internalField   nonuniform List<vector> 
9600
(
(0.970521 0.00155814 5.95052e-21)
(0.967168 0.0021492 0)
(0.962518 0.00227929 0)
(0.959604 0.00258302 1.04736e-22)
(0.957154 0.00323632 0)
(0.951284 0.00362361 -1.12784e-22)
(0.94473 0.00316523 -3.75006e-21)
(0.942608 0.0027579 3.73393e-21)
(0.943664 0.00275596 -3.90885e-21)
(0.941648 0.00324856 3.96345e-21)
(0.937272 0.00219643 0)
(0.937133 0.00120604 -3.85825e-21)
(0.939405 0.000708447 3.89316e-21)
(0.943076 0.000117034 -5.55242e-23)
(0.950371 -0.000388813 1.56366e-21)
(0.954113 -9.79888e-05 -1.53573e-21)
(0.947873 0.000823847 0)
(0.925253 0.000864251 -3.18332e-22)
(0.912448 0.000118831 3.19601e-22)
(0.904899 7.30238e-05 -1.70752e-25)
(0.898677 0.000392473 -3.81271e-25)
(0.895847 0.00016012 -1.98004e-22)
(0.897113 -0.000358866 1.99279e-22)
(0.897897 -0.00182554 0)
(0.896775 -0.00376215 0)
(0.898477 -0.00700316 3.55665e-22)
(0.906383 -0.0115225 3.78155e-22)
(0.923848 -0.0158418 -7.59695e-22)
(0.953955 -0.0191064 3.70823e-23)
(1.00383 -0.0176049 -4.41374e-23)
(1.08062 -0.01023 0)
(1.17299 0.0023348 1.69759e-21)
(1.23965 0.016313 -1.65121e-21)
(1.25538 0.0211813 9.28655e-22)
(1.24712 0.018382 -9.14267e-22)
(1.22168 0.00868418 -6.05977e-23)
(1.15627 -0.00285738 0)
(1.07453 -0.014856 -1.99556e-21)
(1.03953 -0.0115551 2.00918e-21)
(0.977598 -0.0203959 -2.18141e-23)
(0.972757 0.000242656 2.93232e-22)
(0.971728 0.000453176 0)
(0.969723 3.48327e-05 0)
(0.967327 -0.00074241 -3.24134e-22)
(0.965995 -0.000932778 -7.29397e-21)
(0.965082 -0.000737618 1.14463e-20)
(0.96338 -0.00134476 -3.78998e-21)
(0.96145 -0.00231448 -1.23652e-22)
(0.960804 -0.00217994 -1.25194e-22)
(0.961205 -0.00199363 0)
(0.962367 -0.00195154 -1.27223e-22)
(0.964622 -0.00211769 -4.07042e-21)
(0.967451 -0.00219657 5.78026e-21)
(0.972431 -0.00285783 -1.88461e-21)
(0.98378 -0.00250449 -2.62721e-23)
(0.992329 0.000193567 0)
(0.995793 0.00347701 -4.43866e-22)
(0.997857 0.00426173 4.78916e-22)
(0.998903 0.00303237 -6.51944e-23)
(0.997776 0.00237478 6.51203e-23)
(0.992618 0.00138065 -7.22762e-23)
(0.982777 0.00064445 6.85221e-23)
(0.975888 0.000695022 0)
(0.970798 0.00240746 2.86355e-22)
(0.964343 0.00446344 -2.8582e-22)
(0.959794 0.00573534 1.98244e-24)
(0.959789 0.00678309 -6.18941e-22)
(0.965752 0.00620543 6.05004e-22)
(0.984077 0.00209229 -1.09737e-22)
(1.02048 -0.010576 -2.8146e-21)
(1.07981 -0.0249619 3.03674e-21)
(1.16219 -0.0359797 -2.23731e-21)
(1.24924 -0.0320606 2.1866e-21)
(1.3059 -0.0210963 -1.41304e-23)
(1.31918 -0.000543844 -3.15996e-21)
(1.30484 0.0161511 3.13719e-21)
(1.26065 0.0352337 0)
(1.18308 0.0357754 -2.65924e-21)
(1.1504 0.0313227 2.68074e-21)
(1.08774 0.0244716 7.14997e-23)
(0.971511 0.00038911 6.17915e-21)
(0.970782 0.000947695 -2.06158e-22)
(0.969047 0.00139403 0)
(0.966684 0.00151231 2.21899e-22)
(0.96508 0.00219866 0)
(0.96437 0.00250922 -4.10477e-21)
(0.963474 0.00199736 -9.12721e-23)
(0.961363 0.00201094 4.12793e-21)
(0.961152 0.0018985 1.28059e-22)
(0.961838 0.00202607 0)
(0.963796 0.00140398 3.90241e-22)
(0.966362 0.00038466 -4.01971e-21)
(0.96964 -0.000562041 4.15772e-21)
(0.973775 -0.00262168 1.73986e-22)
(0.981415 -0.00306643 -1.04522e-22)
(0.993647 -0.000654535 4.46401e-23)
(1.00486 0.00219637 -4.90339e-22)
(1.01146 0.00178192 1.73912e-22)
(1.01314 0.0013643 3.20203e-22)
(1.0117 0.00209789 -2.87606e-25)
(1.00478 0.00373548 -8.35303e-25)
(0.993374 0.0039321 -2.14295e-22)
(0.986036 0.00266275 2.17177e-22)
(0.980642 0.000836266 3.06699e-22)
(0.972824 -0.00159442 -3.0613e-22)
(0.964441 -0.00509929 0)
(0.962175 -0.00992558 -1.38611e-23)
(0.967084 -0.0159647 1.00186e-22)
(0.984334 -0.0214322 7.37051e-23)
(1.01732 -0.0305154 -2.65042e-22)
(1.06716 -0.0392617 -2.91463e-22)
(1.14012 -0.0418408 2.58336e-21)
(1.228 -0.0270874 -1.11265e-21)
(1.29475 -0.00818951 -1.25215e-21)
(1.31397 0.00776489 6.07678e-23)
(1.30934 0.0129766 0)
(1.28554 0.0203605 1.36343e-22)
(1.21579 0.0164802 -2.86335e-21)
(1.171 0.0160383 2.86648e-21)
(1.10244 0.00224248 -5.0626e-23)
(0.971404 0.000844669 4.12893e-22)
(0.970595 0.00133027 -2.15493e-22)
(0.968788 0.00175447 0)
(0.966173 0.00148211 0)
(0.964552 0.00129084 -7.28427e-21)
(0.96385 0.000853151 7.56074e-21)
(0.962231 0.000356659 3.86536e-21)
(0.960384 -0.000728539 -3.88521e-21)
(0.960413 -0.00141181 4.2465e-21)
(0.961365 -0.00156541 -3.9933e-21)
(0.963516 -0.00243418 -2.66883e-22)
(0.966021 -0.00351903 -1.2987e-22)
(0.969879 -0.00466815 -1.26168e-22)
(0.974452 -0.00687833 -1.18442e-22)
(0.981652 -0.00741948 1.78368e-21)
(0.994181 -0.00456191 -2.40557e-22)
(1.00703 -0.00148628 -1.81348e-21)
(1.0182 0.000546569 4.84427e-22)
(1.0257 0.00189121 -7.03712e-24)
(1.02636 0.00318485 5.5114e-25)
(1.02443 0.00444441 8.08396e-23)
(1.01948 0.00449749 -3.10472e-22)
(1.01188 0.00322357 2.46036e-22)
(1.0045 0.00471505 2.84629e-23)
(0.994435 0.00768675 0)
(0.982605 0.00788702 0)
(0.974612 0.00494194 -5.38965e-22)
(0.973588 -0.000626706 5.73147e-22)
(0.981772 -0.0094576 -2.52322e-21)
(1.00839 -0.0251614 2.70093e-21)
(1.05464 -0.0425412 1.98755e-22)
(1.11627 -0.064129 -1.88387e-22)
(1.19685 -0.0616209 1.5618e-22)
(1.27798 -0.0429151 -3.61702e-22)
(1.32857 -0.00584027 -1.768e-21)
(1.3339 0.0189104 6.18008e-21)
(1.3106 0.0454109 -3.87647e-21)
(1.24157 0.0503003 2.75345e-22)
(1.19395 0.0523374 -2.90266e-22)
(1.12662 0.0379775 1.46033e-22)
(0.970766 0.000768683 6.34916e-21)
(0.969923 0.00123125 -5.42407e-24)
(0.968114 0.00181828 0)
(0.96585 0.00154136 0)
(0.964409 0.00156499 -4.92672e-22)
(0.963248 0.00155363 7.68537e-22)
(0.961628 0.000907035 -3.98362e-21)
(0.960438 0.000526093 8.24494e-21)
(0.960591 0.00035213 -4.28059e-21)
(0.96155 0.000153792 -2.72996e-22)
(0.963984 -0.000709671 0)
(0.967188 -0.00182942 -8.33883e-21)
(0.971202 -0.00295174 8.3706e-21)
(0.977183 -0.00531045 -2.05028e-21)
(0.982885 -0.00614382 1.70945e-21)
(0.991736 -0.00440509 -1.82569e-22)
(1.0066 -0.00153889 -5.59755e-22)
(1.0232 -0.000797145 1.78061e-22)
(1.03468 0.00114063 3.11783e-22)
(1.041 0.00341693 -2.62553e-25)
(1.04054 0.00564544 8.61347e-23)
(1.03666 0.00734102 -3.29572e-22)
(1.02669 0.00683403 2.28067e-22)
(1.01272 0.00528604 -2.91882e-23)
(0.999814 0.00419775 -2.07703e-23)
(0.986446 0.000462395 1.50215e-22)
(0.976452 -0.00368677 -1.16143e-22)
(0.973404 -0.0116384 -9.8025e-24)
(0.980188 -0.0194971 -1.29931e-22)
(1.0017 -0.0364443 0)
(1.04562 -0.0552003 -2.00902e-22)
(1.10251 -0.0768027 0)
(1.17708 -0.0766757 -5.13192e-22)
(1.25847 -0.0631346 0)
(1.32411 -0.024479 0)
(1.34413 0.00438013 3.79984e-21)
(1.3285 0.036178 -4.05142e-21)
(1.26898 0.0440001 -4.80591e-21)
(1.21889 0.0509656 4.41092e-21)
(1.14318 0.0344887 -1.49253e-22)
(0.970346 0.00128733 0)
(0.96949 0.00185423 -5.80655e-24)
(0.967621 0.00227683 0)
(0.965881 0.00220619 0)
(0.963621 0.00238752 -8.30886e-21)
(0.962427 0.00168848 3.56375e-21)
(0.961198 0.00121948 8.68472e-21)
(0.959928 0.000116553 -4.4087e-21)
(0.960016 -0.000856429 0)
(0.961136 -0.00155673 0)
(0.963554 -0.00303302 0)
(0.966709 -0.00521121 -3.72041e-21)
(0.971477 -0.0071998 4.02223e-21)
(0.977903 -0.010085 2.08257e-21)
(0.983573 -0.0105595 -2.06037e-21)
(0.992815 -0.0096278 -1.22003e-21)
(1.00825 -0.00832192 8.99733e-22)
(1.02555 -0.0063325 4.89657e-22)
(1.03751 -0.00188291 -5.83607e-23)
(1.0459 0.00165971 5.8384e-23)
(1.04711 0.00523818 -2.17961e-24)
(1.04462 0.00718365 -1.54261e-23)
(1.03878 0.00786773 3.69282e-23)
(1.02676 0.00943678 0)
(1.01301 0.0122059 2.13138e-23)
(0.998212 0.0119792 -5.48749e-23)
(0.985198 0.00825965 -3.56044e-24)
(0.975867 -0.00146438 1.56705e-21)
(0.978037 -0.0127205 -3.92335e-21)
(0.991277 -0.033152 2.24076e-21)
(1.03103 -0.0524041 3.97399e-21)
(1.08152 -0.0834246 -2.91426e-21)
(1.15235 -0.0935595 3.61938e-22)
(1.23069 -0.0901433 1.25688e-21)
(1.31137 -0.0449527 -1.84233e-21)
(1.35563 -0.00452046 4.80113e-22)
(1.35256 0.0452478 0)
(1.30292 0.0620491 -4.99449e-21)
(1.2481 0.0760566 6.97544e-22)
(1.15936 0.0602518 4.10881e-21)
(0.969624 0.00119094 8.17602e-21)
(0.968759 0.0017224 -6.15785e-24)
(0.966994 0.00216882 0)
(0.965094 0.00236713 0)
(0.962858 0.00223334 8.07022e-21)
(0.962063 0.00155221 -8.11462e-21)
(0.960671 0.00081468 4.52444e-21)
(0.959693 -0.000457761 6.20628e-22)
(0.960048 -0.00108871 -4.62426e-21)
(0.961154 -0.00188352 4.59828e-21)
(0.963739 -0.00334937 -4.05141e-21)
(0.967574 -0.0051334 -4.62738e-21)
(0.972667 -0.00684489 4.89732e-21)
(0.978899 -0.00931672 0)
(0.98456 -0.00981584 1.84587e-21)
(0.995066 -0.0099261 -3.13647e-21)
(1.00958 -0.00843093 8.36389e-22)
(1.02601 -0.00649483 1.881e-22)
(1.03922 -0.00217033 2.35389e-22)
(1.05113 0.00181914 5.43072e-23)
(1.05473 0.00664698 -1.00268e-22)
(1.05262 0.00957436 -1.84987e-22)
(1.04678 0.0117883 2.48054e-22)
(1.03398 0.0120622 5.06415e-22)
(1.01844 0.012268 -5.05849e-22)
(1.00206 0.00923423 3.48245e-24)
(0.988346 0.00511886 5.24853e-24)
(0.976146 -0.00415626 -6.32069e-23)
(0.977062 -0.0142332 0)
(0.983342 -0.0375707 -3.1528e-21)
(1.01846 -0.0603577 2.57579e-21)
(1.06252 -0.094687 3.01655e-21)
(1.13401 -0.109636 -3.43948e-21)
(1.20546 -0.11953 -2.07082e-21)
(1.29613 -0.0818992 1.56962e-21)
(1.35776 -0.0378991 5.5607e-23)
(1.37576 0.0282737 0)
(1.33427 0.0586672 -4.98471e-21)
(1.28182 0.084764 1.46651e-21)
(1.18253 0.0711332 3.9859e-21)
(0.969113 0.00182342 6.59878e-21)
(0.968212 0.00230134 -4.98925e-22)
(0.966596 0.00280942 8.35224e-21)
(0.964496 0.00301857 -8.421e-21)
(0.962461 0.0027367 5.48279e-22)
(0.961481 0.0019503 -5.64324e-22)
(0.960055 0.00095899 0)
(0.959162 -0.000473379 3.55685e-21)
(0.959671 -0.00128837 -4.76429e-21)
(0.961116 -0.00267851 0)
(0.963813 -0.00451238 3.45226e-21)
(0.967714 -0.00740632 -4.08159e-21)
(0.972666 -0.00992376 -1.37794e-24)
(0.979154 -0.0130987 0)
(0.986087 -0.0139027 1.64607e-21)
(0.996427 -0.0146775 -1.46108e-21)
(1.01047 -0.0144317 -4.89947e-22)
(1.0267 -0.01252 1.9402e-22)
(1.04161 -0.00700293 2.60699e-22)
(1.05446 -0.00104423 4.88239e-23)
(1.05901 0.00541243 0)
(1.0569 0.00902727 -2.7682e-22)
(1.0512 0.0116031 2.67929e-22)
(1.0394 0.0146489 0)
(1.0247 0.0179778 6.69129e-23)
(1.00752 0.0173146 0)
(0.993802 0.0150731 -2.56461e-22)
(0.9779 0.00317943 1.70664e-21)
(0.976404 -0.00766886 -1.56694e-21)
(0.976027 -0.0323371 6.47386e-22)
(1.00291 -0.0549541 3.08271e-21)
(1.03788 -0.096191 -7.57729e-21)
(1.10992 -0.118192 4.08896e-21)
(1.17628 -0.140541 -2.28768e-21)
(1.27285 -0.111655 3.49867e-21)
(1.3477 -0.0683943 -1.26977e-21)
(1.39654 0.0114916 0)
(1.367 0.0600738 -6.80608e-21)
(1.32312 0.102344 -5.03265e-23)
(1.22223 0.0952694 6.51855e-21)
(0.968345 0.0017511 0)
(0.967469 0.00216181 1.00918e-21)
(0.965871 0.00269168 0)
(0.963527 0.00275741 1.11522e-21)
(0.961843 0.0025631 8.08683e-21)
(0.960849 0.00156451 -4.57489e-21)
(0.959565 0.000399775 -4.7701e-21)
(0.958891 -0.00116274 6.08963e-22)
(0.959576 -0.00210713 0)
(0.961485 -0.00383599 0)
(0.963924 -0.00597084 5.35426e-21)
(0.968361 -0.00915037 -5.36009e-21)
(0.973419 -0.0113394 -8.33488e-22)
(0.980073 -0.0140342 -2.55502e-22)
(0.987831 -0.0147719 1.66829e-21)
(0.998396 -0.016396 -1.4844e-21)
(1.01235 -0.0161785 -4.88924e-22)
(1.02788 -0.0140712 2.00824e-22)
(1.04231 -0.00806525 2.47082e-22)
(1.05622 -0.0016958 4.17284e-23)
(1.06325 0.00617381 -6.20421e-24)
(1.06214 0.0111038 -3.62385e-22)
(1.05645 0.0158156 3.88275e-22)
(1.04309 0.0185569 4.771e-23)
(1.0288 0.0211167 -1.46506e-22)
(1.00869 0.0188681 0)
(0.995528 0.01641 -2.08693e-22)
(0.977198 0.00583447 1.16112e-22)
(0.973969 -0.00488998 2.15963e-22)
(0.968748 -0.0305011 -6.15501e-22)
(0.991424 -0.0564929 4.13733e-22)
(1.01579 -0.10076 4.27363e-21)
(1.08416 -0.127294 -4.73897e-21)
(1.14414 -0.162583 8.32058e-22)
(1.24738 -0.150503 2.33979e-22)
(1.32815 -0.117992 1.15899e-21)
(1.40942 -0.0290062 -1.30209e-21)
(1.39855 0.0403624 -7.00161e-21)
(1.36109 0.104192 6.91013e-21)
(1.25509 0.108549 0)
(0.967781 0.00239009 0)
(0.966877 0.00267842 0)
(0.965131 0.00335954 1.01362e-20)
(0.962929 0.00335289 -1.95512e-20)
(0.961553 0.00301693 9.37192e-21)
(0.960239 0.00180737 0)
(0.959035 0.000691469 4.99052e-21)
(0.958428 -0.00141759 1.48892e-23)
(0.959452 -0.00251037 -4.43734e-21)
(0.961598 -0.00508788 0)
(0.963818 -0.00737874 -6.21724e-22)
(0.968718 -0.0107318 6.00395e-22)
(0.973836 -0.0133774 2.75222e-21)
(0.980471 -0.0168395 -1.92799e-21)
(0.989086 -0.0183495 0)
(1.00034 -0.0201322 1.35446e-21)
(1.01321 -0.0206285 -1.99397e-21)
(1.0282 -0.0183836 8.16615e-22)
(1.04304 -0.0123245 -2.80882e-22)
(1.05846 -0.00515153 -6.30332e-25)
(1.06745 0.00472775 1.52879e-22)
(1.0674 0.0112661 -1.39348e-22)
(1.06136 0.0167013 5.37719e-23)
(1.04725 0.0203935 -4.91396e-23)
(1.03205 0.0250576 7.99777e-23)
(1.01191 0.0240837 0)
(0.996351 0.0237199 0)
(0.976577 0.0121654 8.84371e-23)
(0.972228 0.00145607 -1.88402e-21)
(0.961432 -0.0227241 2.17671e-21)
(0.977701 -0.0460389 0)
(0.989606 -0.0966008 -4.36586e-21)
(1.05095 -0.128114 4.38051e-21)
(1.10178 -0.174689 -3.70074e-21)
(1.2095 -0.178107 3.22827e-21)
(1.29098 -0.162464 3.87941e-22)
(1.40451 -0.0771094 -2.28582e-22)
(1.42776 0.0106631 0)
(1.40728 0.104259 0)
(1.30315 0.128317 -1.14905e-21)
(0.966957 0.00225038 -1.23429e-22)
(0.965973 0.00244822 9.79328e-21)
(0.964076 0.0031923 -1.14953e-21)
(0.962124 0.00289004 -1.20412e-21)
(0.961002 0.00256404 -9.95419e-21)
(0.959419 0.00115401 1.51196e-20)
(0.958583 1.00632e-05 -5.12482e-21)
(0.958432 -0.00243634 5.21038e-21)
(0.959358 -0.00392168 -6.55287e-21)
(0.961879 -0.00675408 -5.7991e-21)
(0.96434 -0.00903923 1.08415e-20)
(0.968546 -0.0131079 -1.04564e-20)
(0.974531 -0.0159265 4.8173e-21)
(0.982199 -0.0192779 0)
(0.989947 -0.0207704 0)
(1.00133 -0.0232291 -1.7589e-21)
(1.01431 -0.0235413 1.18236e-21)
(1.03065 -0.0216052 4.83558e-22)
(1.0453 -0.0150502 3.37554e-23)
(1.05874 -0.00724637 -2.31421e-23)
(1.06917 0.00393211 -7.28591e-24)
(1.07123 0.0120167 -4.20404e-22)
(1.06719 0.0199259 3.63923e-22)
(1.05371 0.0245799 8.54725e-22)
(1.0386 0.0300953 -8.53751e-22)
(1.01415 0.0289691 0)
(0.998151 0.0283831 0)
(0.973798 0.017517 3.18521e-23)
(0.965398 0.00747519 -1.69492e-21)
(0.950314 -0.0172489 1.68516e-21)
(0.964675 -0.0413529 3.74986e-21)
(0.965005 -0.0919648 1.0533e-21)
(1.01625 -0.127854 -3.91853e-21)
(1.05649 -0.183748 -3.7253e-21)
(1.16205 -0.205985 8.69435e-21)
(1.24305 -0.21297 -4.45392e-21)
(1.37936 -0.146432 3.98803e-23)
(1.44316 -0.0461954 -7.64451e-21)
(1.45577 0.0815674 6.38326e-21)
(1.34993 0.135779 -1.99319e-22)
(0.966187 0.00287016 -8.94919e-21)
(0.965242 0.0030663 1.72029e-20)
(0.963371 0.00377002 2.51172e-22)
(0.961683 0.00324349 -1.99192e-20)
(0.960366 0.00292219 1.27143e-20)
(0.958842 0.00137403 0)
(0.958103 -5.69876e-06 0)
(0.958068 -0.00300145 1.35472e-21)
(0.959332 -0.00468905 6.76097e-22)
(0.961529 -0.00806906 -3.96979e-21)
(0.964444 -0.0107195 5.35021e-21)
(0.968505 -0.0151799 -4.92728e-21)
(0.975038 -0.0184051 7.24143e-21)
(0.982852 -0.021608 -1.75371e-21)
(0.990981 -0.0240912 1.74584e-21)
(1.00306 -0.0265146 -2.93173e-21)
(1.0159 -0.0276706 7.52056e-22)
(1.03155 -0.025202 1.78991e-22)
(1.04631 -0.0182508 2.48706e-22)
(1.05988 -0.0103263 1.31458e-23)
(1.0715 0.00202407 0)
(1.07533 0.0119209 -4.12279e-22)
(1.07268 0.0216898 4.66095e-22)
(1.05984 0.0270179 0)
(1.04409 0.0345298 0)
(1.01891 0.0338268 4.99259e-22)
(0.999982 0.035306 -6.28186e-22)
(0.972193 0.0247982 9.84249e-23)
(0.961979 0.0147383 1.06875e-22)
(0.941235 -0.0081725 0)
(0.950411 -0.0293165 -3.60661e-21)
(0.939655 -0.0778893 3.20906e-21)
(0.979952 -0.119851 -1.03557e-21)
(1.00868 -0.181447 0)
(1.10831 -0.220258 0)
(1.18677 -0.2474 -3.17836e-21)
(1.3334 -0.217055 2.59857e-21)
(1.42633 -0.124626 -6.93742e-21)
(1.5017 0.0346452 9.81496e-21)
(1.40267 0.136329 1.41578e-21)
(0.965368 0.00257479 -9.3549e-21)
(0.964127 0.00260985 1.06798e-20)
(0.962587 0.00332313 0)
(0.960863 0.00259688 2.59338e-21)
(0.959552 0.00221825 -2.66821e-21)
(0.958233 0.000464506 6.85546e-21)
(0.95763 -0.00114214 -6.9201e-21)
(0.957927 -0.00442014 9.74534e-24)
(0.959321 -0.00646949 -5.57252e-21)
(0.961158 -0.0103126 9.71344e-21)
(0.964883 -0.0129765 -4.16439e-21)
(0.969394 -0.0179452 5.72684e-21)
(0.974709 -0.02149 -2.74949e-21)
(0.983854 -0.0248339 -2.92332e-21)
(0.993773 -0.0273357 0)
(1.00468 -0.0304109 0)
(1.01687 -0.0311981 0)
(1.03157 -0.0291163 -2.37931e-22)
(1.04871 -0.0215213 2.09369e-22)
(1.0626 -0.0128453 0)
(1.07371 0.000258813 -1.99454e-22)
(1.07741 0.0111766 -3.17372e-22)
(1.07691 0.0231687 -1.30638e-22)
(1.06516 0.0300509 5.7601e-22)
(1.05237 0.0397564 0)
(1.0255 0.0402381 -7.56389e-22)
(1.00609 0.0424651 3.68807e-22)
(0.973676 0.0328884 3.10584e-22)
(0.958894 0.0237723 -3.92964e-23)
(0.92985 0.000932648 0)
(0.935642 -0.0212536 -3.03359e-21)
(0.917981 -0.0651191 3.01181e-21)
(0.947924 -0.109396 2.08033e-21)
(0.965305 -0.174805 -3.33313e-21)
(1.05753 -0.230361 1.08946e-20)
(1.13043 -0.273862 -7.52739e-21)
(1.28835 -0.283897 0)
(1.37756 -0.222807 -7.61155e-21)
(1.53518 -0.0596658 6.83106e-21)
(1.45566 0.115368 1.75944e-21)
(0.964518 0.00319697 0)
(0.963244 0.00315373 1.01822e-20)
(0.961639 0.0038153 2.49714e-22)
(0.960101 0.00292445 -1.34055e-20)
(0.958657 0.00241227 1.11733e-20)
(0.95741 0.000325368 -1.1281e-20)
(0.957391 -0.00142362 1.43597e-21)
(0.95738 -0.00525335 4.34447e-21)
(0.958868 -0.00760663 -7.30638e-21)
(0.961291 -0.0119109 7.12818e-21)
(0.964316 -0.0150944 -1.12289e-20)
(0.969578 -0.0202305 4.86672e-21)
(0.975418 -0.0243888 2.41397e-21)
(0.984293 -0.0279154 -2.42596e-21)
(0.99543 -0.0310454 -2.29822e-21)
(1.00608 -0.0339011 3.20611e-21)
(1.01857 -0.0348154 -1.86687e-21)
(1.03366 -0.0330761 4.26176e-22)
(1.05028 -0.0252594 1.30724e-23)
(1.06431 -0.0163386 5.5155e-24)
(1.07585 -0.00167593 -2.26369e-22)
(1.07979 0.0103284 1.62217e-22)
(1.08139 0.0246214 -6.28668e-24)
(1.07092 0.0322212 1.44427e-21)
(1.05919 0.0444132 -1.26682e-21)
(1.03318 0.0459482 3.79751e-22)
(1.0129 0.0504587 1.80481e-22)
(0.97703 0.0421518 -3.95488e-23)
(0.960149 0.0337528 -9.62506e-22)
(0.927429 0.0127788 -9.43933e-22)
(0.925985 -0.00822152 1.8121e-21)
(0.90129 -0.0450267 3.64708e-21)
(0.920013 -0.0925458 -4.67117e-21)
(0.927043 -0.156621 -4.66379e-21)
(1.00176 -0.228064 6.87905e-21)
(1.06896 -0.281349 0)
(1.23147 -0.329909 0)
(1.31819 -0.302721 -5.71292e-21)
(1.52722 -0.197494 4.35663e-21)
(1.50456 0.0500784 -3.62744e-21)
(0.963491 0.0026706 -1.18488e-22)
(0.962305 0.00255879 9.06198e-21)
(0.960557 0.00294527 1.37825e-21)
(0.959398 0.00203788 1.40184e-21)
(0.957871 0.00138279 1.4566e-20)
(0.956639 -0.00101921 -7.31341e-21)
(0.957126 -0.0029584 -7.50155e-21)
(0.957007 -0.00713152 0)
(0.95835 -0.00978929 1.50792e-21)
(0.961654 -0.0146185 4.39743e-21)
(0.964033 -0.0181493 -7.39529e-21)
(0.969869 -0.0236182 -5.39711e-21)
(0.976533 -0.0279754 6.08235e-21)
(0.985251 -0.0319743 0)
(0.996438 -0.0351138 2.34398e-21)
(1.00844 -0.0377411 -1.83885e-21)
(1.02123 -0.0388171 -4.55304e-22)
(1.03564 -0.0371636 3.4612e-22)
(1.05187 -0.0292288 1.55475e-22)
(1.06542 -0.0191866 3.06908e-23)
(1.07906 -0.00380585 1.41498e-23)
(1.08337 0.00934232 0)
(1.08555 0.02492 8.55534e-23)
(1.07455 0.0339873 -1.78877e-22)
(1.06444 0.0483162 1.8453e-22)
(1.03991 0.051759 -1.28053e-21)
(1.02125 0.0579815 1.44383e-21)
(0.985233 0.0523824 -6.25601e-22)
(0.966158 0.0449963 0)
(0.927533 0.0260163 0)
(0.919625 0.00463412 -2.46022e-21)
(0.889283 -0.0285034 2.44129e-21)
(0.896559 -0.0743306 0)
(0.897441 -0.132544 -2.2191e-21)
(0.943072 -0.2201 -9.40703e-21)
(1.00703 -0.279026 1.40905e-21)
(1.12849 -0.361974 7.78544e-21)
(1.24908 -0.367335 -3.22913e-21)
(1.4812 -0.343258 3.27703e-21)
(1.53963 -0.0640769 1.58828e-22)
(0.962481 0.00324467 -1.07246e-20)
(0.961126 0.00294875 1.08738e-20)
(0.959532 0.00324745 -1.42115e-21)
(0.957965 0.00220939 0)
(0.957137 0.00116495 -1.36754e-20)
(0.955925 -0.00147889 1.84905e-20)
(0.955984 -0.00372191 -4.69974e-21)
(0.957167 -0.00825235 0)
(0.95776 -0.0116369 1.40586e-20)
(0.961164 -0.016701 -7.23977e-21)
(0.964151 -0.0204883 -6.16791e-21)
(0.969755 -0.0265364 -5.5814e-21)
(0.976644 -0.0315482 7.49782e-21)
(0.986465 -0.0354851 -1.967e-21)
(0.997692 -0.0390527 2.376e-21)
(1.01048 -0.0420739 -2.07187e-21)
(1.02325 -0.0429231 -4.40132e-22)
(1.03762 -0.0413109 2.76144e-22)
(1.05392 -0.0322887 2.19381e-22)
(1.06748 -0.0230873 -5.05099e-23)
(1.08116 -0.00631244 -3.09579e-23)
(1.08629 0.00741117 -7.38786e-22)
(1.08994 0.0260449 8.41641e-22)
(1.07922 0.0356543 1.65115e-21)
(1.07029 0.0519469 -1.83677e-21)
(1.0464 0.0570504 1.22667e-21)
(1.02883 0.065143 -9.30868e-22)
(0.993344 0.0625557 0)
(0.973178 0.056697 -5.9889e-23)
(0.932008 0.0407325 -9.23516e-22)
(0.918732 0.0200643 -1.32845e-21)
(0.886634 -0.00515624 2.07349e-21)
(0.875762 -0.0525291 0)
(0.881114 -0.0982743 -3.35101e-21)
(0.881765 -0.195115 3.2291e-21)
(0.950834 -0.25712 1.19026e-21)
(0.987461 -0.369462 -1.00597e-21)
(1.18589 -0.409445 0)
(1.37113 -0.478921 0)
(1.54307 -0.213502 3.0996e-21)
(0.961522 0.00248337 -1.12714e-20)
(0.960204 0.00197437 1.14374e-20)
(0.958362 0.00208977 0)
(0.957093 0.000849753 0)
(0.956386 -0.000307092 0)
(0.955373 -0.00313509 0)
(0.955401 -0.00568601 0)
(0.956684 -0.010823 0)
(0.957572 -0.0144959 -9.78878e-21)
(0.961457 -0.0199031 1.14258e-20)
(0.963902 -0.0243194 6.13854e-21)
(0.970274 -0.0307851 -1.15618e-21)
(0.976709 -0.035904 -3.17822e-21)
(0.987366 -0.0400479 -3.28043e-21)
(0.999732 -0.0440234 -2.42313e-21)
(1.01304 -0.0468276 7.09717e-22)
(1.02618 -0.0468852 9.826e-22)
(1.04009 -0.0452114 2.61526e-22)
(1.05699 -0.0367987 2.16743e-22)
(1.07059 -0.0264806 -8.43931e-23)
(1.08358 -0.00929101 -1.88782e-24)
(1.08951 0.00559998 -9.3431e-22)
(1.09601 0.0259404 1.88678e-21)
(1.08552 0.0372784 -6.76169e-22)
(1.07764 0.0546394 0)
(1.0532 0.0621977 -4.36962e-22)
(1.03623 0.0711567 -2.99723e-22)
(1.00051 0.0718398 0)
(0.97969 0.0686574 2.59889e-22)
(0.939225 0.0561085 -3.8291e-22)
(0.915152 0.0358189 3.46201e-22)
(0.891418 0.0161539 0)
(0.858196 -0.0298692 0)
(0.86963 -0.0688859 -4.16016e-21)
(0.839181 -0.15709 4.11665e-21)
(0.902085 -0.220959 -6.87848e-23)
(0.887502 -0.361326 4.97999e-24)
(1.13332 -0.419174 1.65783e-21)
(1.21337 -0.579614 -2.58277e-21)
(1.49795 -0.392112 -1.38308e-21)
(0.960177 0.00282191 0)
(0.958659 0.00216127 0)
(0.957093 0.00211473 0)
(0.955825 0.000605719 0)
(0.954702 -0.000889823 0)
(0.954912 -0.00402086 8.49499e-21)
(0.954315 -0.00705134 -6.86749e-21)
(0.955706 -0.012701 -6.85344e-21)
(0.956819 -0.0165108 1.54249e-20)
(0.96087 -0.0225837 -3.57913e-21)
(0.964205 -0.0275173 -7.52352e-21)
(0.970579 -0.0338675 1.56234e-21)
(0.976641 -0.0400083 7.2166e-22)
(0.988008 -0.0449552 -6.39929e-22)
(1.00065 -0.0487834 1.91372e-21)
(1.01494 -0.0512649 -2.12753e-21)
(1.02989 -0.0510524 -3.95641e-22)
(1.04366 -0.0500612 3.96701e-22)
(1.05978 -0.0405932 9.709e-23)
(1.07238 -0.0303486 -1.29406e-22)
(1.08792 -0.0115464 -2.15361e-24)
(1.09266 0.00279133 1.04298e-22)
(1.10117 0.0254341 -2.43159e-22)
(1.09201 0.0386282 2.16534e-21)
(1.08562 0.0572227 -2.13397e-21)
(1.06079 0.067597 9.63809e-22)
(1.04415 0.0776202 -1.38526e-21)
(1.00813 0.0814354 1.37716e-21)
(0.98507 0.0802578 -2.10116e-22)
(0.951434 0.0734727 0)
(0.911936 0.0510658 -1.16101e-21)
(0.895033 0.0350574 3.28946e-21)
(0.850638 0.0019571 -2.12127e-21)
(0.858629 -0.0383155 0)
(0.818785 -0.110329 0)
(0.849408 -0.167423 -1.00632e-20)
(0.835017 -0.321423 1.08462e-20)
(1.03283 -0.393127 -5.0796e-21)
(1.1184 -0.607225 4.92617e-21)
(1.37745 -0.555096 -2.22955e-22)
(0.959162 0.00174842 0)
(0.957594 0.000685903 0)
(0.956097 0.000586745 1.33438e-20)
(0.954674 -0.00114546 -1.52322e-20)
(0.953739 -0.00296033 1.40454e-20)
(0.954165 -0.0065476 -1.77702e-20)
(0.953753 -0.00985726 -9.01226e-21)
(0.955706 -0.0157168 -1.73991e-21)
(0.956305 -0.0202585 9.07276e-21)
(0.960598 -0.0267489 0)
(0.964574 -0.0319801 1.71663e-21)
(0.970608 -0.0389539 -7.85291e-21)
(0.978398 -0.0452386 5.52124e-21)
(0.988998 -0.0501355 6.65042e-22)
(1.00198 -0.0544774 5.4468e-22)
(1.01577 -0.0571732 8.56378e-24)
(1.03394 -0.0564144 -2.3625e-22)
(1.04745 -0.0539583 3.40754e-22)
(1.06546 -0.0444015 1.94096e-22)
(1.07621 -0.0341887 -1.55906e-22)
(1.09305 -0.0157053 2.25435e-23)
(1.09673 0.0001754 -1.06659e-21)
(1.10688 0.0234626 1.06457e-21)
(1.09929 0.0394737 -2.93284e-22)
(1.09496 0.0591019 0)
(1.07119 0.0717355 -5.3068e-22)
(1.05475 0.0839465 1.71763e-21)
(1.02205 0.091023 -4.22878e-21)
(0.988154 0.0890341 1.20663e-21)
(0.965105 0.0889242 1.80763e-21)
(0.918441 0.0735355 1.07541e-22)
(0.899866 0.0524185 -2.17905e-21)
(0.850516 0.0258408 2.03374e-21)
(0.846759 -0.00748325 0)
(0.8128 -0.0696206 0)
(0.804327 -0.115652 0)
(0.796552 -0.254008 -6.12258e-23)
(0.886176 -0.349099 7.52255e-21)
(1.04311 -0.561852 -6.30969e-21)
(1.17494 -0.628253 1.65931e-22)
(0.957364 0.00187688 -1.31556e-20)
(0.956076 0.000499511 1.3352e-20)
(0.953926 0.000159327 0)
(0.953362 -0.00183058 1.78105e-21)
(0.951934 -0.0040124 0)
(0.952328 -0.00822151 3.76192e-21)
(0.952681 -0.0115649 -1.5169e-20)
(0.954311 -0.0182414 1.15656e-20)
(0.956026 -0.0229807 -3.61438e-21)
(0.959142 -0.0301309 5.6709e-21)
(0.964203 -0.0360663 6.12689e-24)
(0.970647 -0.0430606 8.17103e-21)
(0.978808 -0.0501085 -6.52437e-21)
(0.989482 -0.0554802 -6.77181e-22)
(1.00518 -0.0598342 -5.66955e-22)
(1.01718 -0.06282 1.02421e-23)
(1.03666 -0.0615101 -1.32498e-22)
(1.04989 -0.0589435 4.20913e-23)
(1.07065 -0.0488251 -2.42521e-22)
(1.08134 -0.0383434 2.00544e-22)
(1.0986 -0.0185104 5.29583e-22)
(1.10116 -0.00232751 -1.70979e-21)
(1.11136 0.0209117 -1.33557e-22)
(1.10429 0.0396796 1.33691e-21)
(1.10233 0.0604147 -3.63668e-22)
(1.08228 0.0769523 -3.15937e-21)
(1.06086 0.087561 2.45654e-21)
(1.04001 0.101915 5.14038e-22)
(0.998177 0.101849 3.93594e-22)
(0.975058 0.100641 1.70949e-22)
(0.928128 0.0929781 2.48087e-22)
(0.908517 0.0744782 0)
(0.857918 0.0528251 -4.56813e-22)
(0.842732 0.0255196 0)
(0.814583 -0.0280874 6.79756e-22)
(0.773056 -0.0662115 0)
(0.764324 -0.166754 -1.96884e-21)
(0.776767 -0.285036 7.10519e-21)
(0.929035 -0.472112 -4.24158e-21)
(1.03232 -0.635878 -3.56831e-21)
(0.955793 9.92734e-05 1.2071e-20)
(0.954899 -0.00142833 0)
(0.952516 -0.00209989 1.86372e-21)
(0.952127 -0.00441275 -1.72107e-20)
(0.950894 -0.00692961 1.55243e-20)
(0.951393 -0.0116434 -3.97678e-21)
(0.951921 -0.0151743 1.79568e-20)
(0.953029 -0.0227 -2.01725e-20)
(0.956543 -0.0272564 1.98178e-21)
(0.95907 -0.0354697 1.94281e-21)
(0.964573 -0.0416821 -9.38343e-22)
(0.971202 -0.0489545 -8.84372e-22)
(0.980312 -0.0566572 3.00498e-21)
(0.989738 -0.0620021 -2.32066e-21)
(1.0081 -0.0668132 0)
(1.01925 -0.0689725 1.24334e-23)
(1.04129 -0.067556 -1.08801e-22)
(1.0551 -0.0642772 0)
(1.07617 -0.0541891 2.53413e-22)
(1.08609 -0.0421481 -2.53674e-22)
(1.1055 -0.0231772 -3.02063e-23)
(1.10882 -0.00479345 0)
(1.11863 0.0181918 0)
(1.11327 0.0386729 0)
(1.10724 0.0587857 7.9562e-22)
(1.09725 0.0813857 7.18577e-22)
(1.06976 0.0912846 -2.54984e-21)
(1.05285 0.107215 1.99519e-21)
(1.01346 0.114932 -9.17546e-22)
(0.990897 0.112913 3.71424e-22)
(0.942411 0.111298 6.07887e-22)
(0.92018 0.094994 -7.95592e-22)
(0.869559 0.0780567 -2.41832e-22)
(0.846007 0.0574158 2.03328e-21)
(0.822089 0.0124302 -8.29954e-21)
(0.767178 -0.0213516 5.51448e-21)
(0.734138 -0.0863186 9.60693e-22)
(0.743566 -0.206538 7.50596e-21)
(0.823665 -0.373195 -1.77789e-21)
(0.912717 -0.579946 -4.0945e-21)
(0.952874 -0.000175434 1.80603e-21)
(0.952365 -0.00213072 -1.91251e-21)
(0.950222 -0.00293349 4.48748e-23)
(0.949389 -0.00574221 1.99769e-21)
(0.949324 -0.00842628 0)
(0.948308 -0.01413 -4.19248e-21)
(0.950744 -0.0178557 8.52322e-21)
(0.951287 -0.0256266 1.05355e-20)
(0.954667 -0.0313404 -8.52158e-21)
(0.958419 -0.0393725 2.07047e-21)
(0.96403 -0.0469372 0)
(0.97055 -0.0540931 -6.09739e-21)
(0.982742 -0.0624305 1.10206e-20)
(0.990579 -0.0680493 -2.41072e-21)
(1.00926 -0.0732749 -5.63697e-22)
(1.02187 -0.075265 1.43248e-21)
(1.04409 -0.0742442 -1.11572e-21)
(1.05861 -0.0694969 0)
(1.08266 -0.0590121 0)
(1.09279 -0.0460392 0)
(1.11074 -0.0274623 3.89696e-23)
(1.11673 -0.00713349 0)
(1.12278 0.0141104 -1.7259e-21)
(1.1248 0.0409151 5.32658e-21)
(1.11239 0.057065 -4.02545e-21)
(1.10807 0.0836303 -9.22955e-22)
(1.08014 0.0987448 0)
(1.06389 0.111744 0)
(1.02524 0.125387 -1.12371e-22)
(1.00313 0.126289 -3.34409e-21)
(0.956761 0.130545 4.3891e-22)
(0.934485 0.115396 1.53543e-21)
(0.885381 0.10211 1.28579e-22)
(0.852927 0.0872528 -1.37969e-21)
(0.831978 0.053044 1.24879e-21)
(0.785031 0.0254517 4.90493e-22)
(0.718016 -0.0159857 0)
(0.725332 -0.10156 -8.14279e-22)
(0.755671 -0.251048 4.11055e-21)
(0.781525 -0.468229 -4.07449e-21)
(0.951178 -0.00273826 -1.75706e-20)
(0.950659 -0.00504374 1.98647e-21)
(0.948809 -0.00604939 -2.05712e-21)
(0.947333 -0.00943587 2.17536e-21)
(0.94829 -0.012536 -2.22562e-21)
(0.946718 -0.0185495 1.56394e-20)
(0.950036 -0.0229081 -1.81352e-20)
(0.950616 -0.0313409 0)
(0.954214 -0.037353 2.25329e-21)
(0.958327 -0.0458148 6.30844e-21)
(0.965324 -0.0545317 -8.55951e-21)
(0.970274 -0.0611758 -8.28163e-21)
(0.984321 -0.0706851 9.70794e-21)
(0.993362 -0.0754859 -3.24748e-21)
(1.01217 -0.081668 2.56326e-23)
(1.02562 -0.0825972 0)
(1.0486 -0.0818463 -1.97625e-22)
(1.06454 -0.0757184 4.18478e-22)
(1.08657 -0.0660333 -3.40552e-22)
(1.10282 -0.0502467 0)
(1.11554 -0.0346521 -4.0833e-23)
(1.12913 -0.00817185 -1.78884e-21)
(1.12886 0.00855298 2.28124e-21)
(1.13615 0.038324 -5.28094e-22)
(1.12243 0.0573003 0)
(1.11997 0.0818459 2.03367e-21)
(1.09433 0.1021 0)
(1.07954 0.116501 0)
(1.04239 0.134388 1.46944e-21)
(1.01969 0.135313 0)
(0.973773 0.14548 7.39419e-22)
(0.950503 0.136787 -1.20429e-21)
(0.905393 0.124292 1.09257e-21)
(0.867069 0.113425 1.19601e-22)
(0.840253 0.0867931 -2.40255e-21)
(0.810558 0.0649869 1.855e-21)
(0.734528 0.0392856 0)
(0.710431 -0.0116794 4.78916e-22)
(0.721024 -0.111851 -3.66835e-21)