/*--------------------------------*- C++ -*----------------------------------*\
  =========                 |
  \\      /  F ield         | OpenFOAM: The Open Source CFD Toolbox
   \\    /   O peration     | Website:  https://openfoam.org
    \\  /    A nd           | Version:  10
     \\/     M anipulation  |
\*---------------------------------------------------------------------------*/
FoamFile
{
    format      ascii;
    class       surfaceScalarField;
    location    "0.19956";
    object      phi;
}
// * * * * * * * * * * * * * * * * * * * * * * * * * * * * * * * * * * * * * //

dimensions      [1 0 -1 0 0 0 0];

internalField   nonuniform List<scalar> 
31672
(
0.000401161
-3.53589e-05
0.00040124
-3.3897e-05
0.000401091
-3.21926e-05
0.00040057
-3.02201e-05
0.000399626
-2.79837e-05
0.000398217
-2.5544e-05
0.000396283
-2.29836e-05
0.000393791
-2.04258e-05
0.000390654
-1.80318e-05
0.000386904
-1.59773e-05
0.000382551
-1.44506e-05
0.00037763
-1.36286e-05
0.000372294
-1.36468e-05
0.000366695
-1.45726e-05
0.000361025
-1.64043e-05
0.000355487
-1.90568e-05
0.000350291
-2.23809e-05
0.00034559
-2.61815e-05
0.000341514
-3.02524e-05
0.00033813
-3.44059e-05
0.000335443
-3.84278e-05
0.000333412
-4.2251e-05
0.000331959
-4.57909e-05
0.000330944
-4.8938e-05
0.000330386
-5.17067e-05
0.000330233
-5.41242e-05
0.000330356
-5.61856e-05
0.000330705
-5.78795e-05
0.000331212
-5.92751e-05
0.000331827
-6.03366e-05
0.00033251
-6.11048e-05
0.000333181
-6.15342e-05
0.000333815
-6.16312e-05
0.000334345
-6.13267e-05
0.000334713
-6.05926e-05
0.000334899
-5.93559e-05
0.00033488
-5.75603e-05
0.000334747
-5.52185e-05
0.000334421
-5.21684e-05
0.000334039
-4.83865e-05
0.000333673
-4.39189e-05
0.000333504
-3.88218e-05
0.000333711
-3.32226e-05
0.000334421
-2.72346e-05
0.00033579
-2.10206e-05
0.000337924
-1.47528e-05
0.00034084
-8.58963e-06
0.000344582
-2.66958e-06
0.00034909
2.89552e-06
0.000354153
8.14848e-06
0.000359827
1.28979e-05
0.000366015
1.72159e-05
0.00037252
2.11235e-05
2.46378e-05
0.000379244
0.000400863
-3.14917e-05
0.000401285
-3.01846e-05
0.000401461
-2.87366e-05
0.000401238
-2.71305e-05
0.00040057
-2.53396e-05
0.000399356
-2.34544e-05
0.000397548
-2.15254e-05
0.000395082
-1.96841e-05
0.000391821
-1.80649e-05
0.000387811
-1.68161e-05
0.000383074
-1.61169e-05
0.000377662
-1.60849e-05
0.000371775
-1.68196e-05
0.000365604
-1.83341e-05
0.000359412
-2.05838e-05
0.000353439
-2.34461e-05
0.000347915
-2.67454e-05
0.000343042
-3.02914e-05
0.000338916
-3.38924e-05
0.000335563
-3.73855e-05
0.000333029
-4.06409e-05
0.000331161
-4.35888e-05
0.000329895
-4.62521e-05
0.000329143
-4.85365e-05
0.000328819
-5.04832e-05
0.000328893
-5.21243e-05
0.000329251
-5.35329e-05
0.000329821
-5.468e-05
0.000330566
-5.56373e-05
0.000331427
-5.63931e-05
0.000332368
-5.69703e-05
0.000333349
-5.7344e-05
0.000334295
-5.74966e-05
0.000335196
-5.73856e-05
0.000336003
-5.69558e-05
0.00033666
-5.61322e-05
0.000337176
-5.48496e-05
0.000337481
-5.31028e-05
0.000337757
-5.07362e-05
0.000337869
-4.77177e-05
0.000337981
-4.40046e-05
0.000338201
-3.96388e-05
0.000338665
-3.46652e-05
0.000339519
-2.91985e-05
0.000340906
-2.33585e-05
0.000342932
-1.72948e-05
0.000345663
-1.11581e-05
0.000349144
-5.09414e-06
0.00035335
7.76957e-07
0.000358209
6.38788e-06
0.000363568
1.16804e-05
0.000369431
1.66286e-05
0.000375672
2.11577e-05
2.5311e-05
0.000382237
0.000400582
-2.78499e-05
0.000401272
-2.67312e-05
0.000401688
-2.55915e-05
0.000401707
-2.43743e-05
0.000401229
-2.30739e-05
0.000400159
-2.17821e-05
0.000398428
-2.05342e-05
0.000395924
-1.94677e-05
0.000392528
-1.86898e-05
0.000388251
-1.83253e-05
0.00038315
-1.85128e-05
0.000377317
-1.93121e-05
0.000370944
-2.07754e-05
0.00036432
-2.28524e-05
0.000357743
-2.54453e-05
0.000351475
-2.83974e-05
0.000345798
-3.15228e-05
0.000340881
-3.46491e-05
0.0003368
-3.76053e-05
0.000333602
-4.02906e-05
0.000331244
-4.26333e-05
0.000329569
-4.4613e-05
0.000328474
-4.62972e-05
0.000327931
-4.76687e-05
0.000327803
-4.87626e-05
0.000328045
-4.96169e-05
0.000328574
-5.03569e-05
0.000329282
-5.09628e-05
0.000330173
-5.14931e-05
0.000331212
-5.19643e-05
0.000332317
-5.23599e-05
0.000333505
-5.26938e-05
0.000334702
-5.29154e-05
0.000335885
-5.29906e-05
0.000337017
-5.28663e-05
0.000338063
-5.24598e-05
0.000339012
-5.16965e-05
0.000339821
-5.04894e-05
0.000340563
-4.88498e-05
0.000341229
-4.65637e-05
0.000341834
-4.36267e-05
0.00034247
-4.00291e-05
0.000343292
-3.57974e-05
0.000344403
-3.09606e-05
0.000345937
-2.56274e-05
0.000347984
-1.99275e-05
0.000350665
-1.39782e-05
0.000353994
-7.92709e-06
0.000358001
-1.90018e-06
0.000362656
3.9936e-06
0.000367752
9.72571e-06
0.000373387
1.5163e-05
0.000379442
2.02935e-05
2.5091e-05
0.000385786
0.000400292
-2.44376e-05
0.000401182
-2.35706e-05
0.000401764
-2.27792e-05
0.000401938
-2.19864e-05
0.0004016
-2.12392e-05
0.000400612
-2.05798e-05
0.000398885
-2.00631e-05
0.000396301
-1.98364e-05
0.000392746
-1.99435e-05
0.000388219
-2.05124e-05
0.000382788
-2.16071e-05
0.000376588
-2.32453e-05
0.000369843
-2.53941e-05
0.000362916
-2.796e-05
0.000356107
-3.07779e-05
0.000349729
-3.36712e-05
0.000344069
-3.64592e-05
0.000339242
-3.89936e-05
0.000335325
-4.11563e-05
0.000332331
-4.29047e-05
0.000330191
-4.42355e-05
0.000328725
-4.51938e-05
0.000327785
-4.58295e-05
0.00032738
-4.62549e-05
0.000327388
-4.65025e-05
0.000327712
-4.65816e-05
0.000328304
-4.66604e-05
0.000329112
-4.67695e-05
0.00033005
-4.68918e-05
0.000331144
-4.70989e-05
0.000332342
-4.73488e-05
0.000333627
-4.76556e-05
0.000334979
-4.7975e-05
0.000336368
-4.82511e-05
0.000337762
-4.84276e-05
0.000339128
-4.84331e-05
0.000340433
-4.81732e-05
0.000341666
-4.75651e-05
0.000342833
-4.653e-05
0.00034398
-4.50151e-05
0.000345122
-4.28881e-05
0.000346263
-4.00914e-05
0.000347487
-3.66253e-05
0.000348966
-3.25314e-05
0.000350757
-2.78233e-05
0.00035298
-2.26187e-05
0.000355705
-1.70098e-05
0.000359026
-1.11324e-05
0.000362959
-5.10918e-06
0.000367444
9.42154e-07
0.000372481
6.99504e-06
0.000377903
1.28383e-05
0.000383756
1.85009e-05
2.39426e-05
0.000389888
0.000399987
-2.12596e-05
0.000401008
-2.07343e-05
0.000401697
-2.0332e-05
0.000401957
-2.00243e-05
0.000401671
-1.98799e-05
0.000400685
-1.99034e-05
0.000398934
-2.01952e-05
0.000396206
-2.0836e-05
0.000392483
-2.18604e-05
0.000387735
-2.33847e-05
0.000381982
-2.53627e-05
0.000375516
-2.77951e-05
0.00036857
-3.05404e-05
0.000361483
-3.34567e-05
0.000354647
-3.63424e-05
0.000348357
-3.90052e-05
0.000342853
-4.12808e-05
0.000338257
-4.30623e-05
0.000334591
-4.43047e-05
0.000331851
-4.50169e-05
0.000329904
-4.52605e-05
0.000328682
-4.51961e-05
0.00032784
-4.47763e-05
0.000327502
-4.42284e-05
0.000327539
-4.36237e-05
0.000327908
-4.30133e-05
0.000328466
-4.24647e-05
0.000329225
-4.20972e-05
0.00033014
-4.18742e-05
0.000331188
-4.18478e-05
0.000332396
-4.20079e-05
0.000333717
-4.23134e-05
0.000335133
-4.27451e-05
0.000336625
-4.32441e-05
0.000338192
-4.37376e-05
0.000339789
-4.4149e-05
0.000341395
-4.4391e-05
0.00034301
-4.43714e-05
0.000344599
-4.3983e-05
0.000346182
-4.31884e-05
0.000347797
-4.18263e-05
0.000349461
-3.98861e-05
0.000351187
-3.72433e-05
0.000353079
-3.39253e-05
0.000355241
-2.9965e-05
0.000357747
-2.5366e-05
0.000360689
-2.02474e-05
0.000364105
-1.46973e-05
0.000368069
-8.82823e-06
0.000372563
-2.7551e-06
0.00037753
3.42933e-06
0.000382871
9.6449e-06
0.000388577
1.57728e-05
2.17694e-05
0.000394606
0.000399683
-1.83422e-05
0.00040071
-1.8224e-05
0.000401432
-1.82907e-05
0.000401729
-1.85566e-05
0.000401395
-1.90667e-05
0.000400408
-1.98422e-05
0.000398525
-2.09873e-05
0.000395665
-2.25082e-05
0.000391757
-2.44984e-05
0.00038676
-2.6918e-05
0.000380848
-2.97422e-05
0.000374196
-3.28406e-05
0.000367193
-3.60459e-05
0.000360173
-3.9131e-05
0.000353501
-4.18854e-05
0.000347475
-4.41197e-05
0.000342266
-4.57113e-05
0.000338015
-4.66049e-05
0.000334689
-4.68239e-05
0.000332212
-4.64426e-05
0.000330465
-4.55729e-05
0.000329349
-4.44267e-05
0.000328602
-4.30375e-05
0.000328287
-4.15537e-05
0.000328266
-4.01283e-05
0.000328532
-3.88538e-05
0.000328994
-3.77742e-05
0.000329606
-3.69656e-05
0.000330412
-3.64768e-05
0.000331347
-3.62658e-05
0.000332437
-3.63669e-05
0.000333695
-3.67331e-05
0.000335094
-3.73096e-05
0.000336636
-3.80459e-05
0.000338287
-3.8872e-05
0.00034004
-3.96987e-05
0.000341897
-4.04479e-05
0.000343804
-4.10064e-05
0.000345769
-4.12826e-05
0.000347775
-4.11696e-05
0.00034986
-4.06312e-05
0.000352014
-3.94642e-05
0.000354267
-3.7716e-05
0.000356663
-3.52245e-05
0.000359279
-3.20738e-05
0.000362173
-2.82041e-05
0.000365436
-2.37011e-05
0.000369124
-1.86262e-05
0.000373232
-1.30593e-05
0.000377824
-7.12286e-06
0.000382869
-9.1285e-07
0.000388188
5.50936e-06
0.000393905
1.19984e-05
1.85088e-05
0.000399871
0.000399268
-1.57484e-05
0.00040026
-1.60979e-05
0.00040094
-1.67173e-05
0.000401196
-1.76404e-05
0.000400803
-1.88681e-05
0.000399714
-2.04768e-05
0.000397683
-2.24929e-05
0.000394654
-2.49396e-05
0.000390571
-2.78468e-05
0.000385401
-3.11126e-05
0.000379397
-3.46575e-05
0.000372781
-3.82659e-05
0.00036587
-4.1712e-05
0.000359105
-4.47495e-05
0.000352783
-4.7154e-05
0.000347185
-4.87617e-05
0.00034246
-4.95059e-05
0.00033861
-4.93909e-05
0.00033565
-4.85089e-05
0.000333476
-4.69989e-05
0.000331868
-4.50203e-05
0.00033077
-4.28177e-05
0.000330035
-4.04761e-05
0.000329654
-3.81603e-05
0.000329509
-3.5975e-05
0.000329563
-3.40915e-05
0.000329819
-3.25696e-05
0.000330214
-3.14099e-05
0.00033076
-3.06899e-05
0.000331503
-3.03966e-05
0.000332429
-3.04905e-05
0.000333533
-3.09478e-05
0.000334835
-3.17168e-05
0.000336332
-3.27282e-05
0.000337994
-3.39061e-05
0.000339856
-3.51697e-05
0.000341875
-3.64246e-05
0.000344026
-3.75681e-05
0.000346315
-3.85017e-05
0.000348718
-3.91139e-05
0.00035123
-3.93082e-05
0.000353882
-3.90282e-05
0.000356664
-3.80961e-05
0.000359607
-3.65334e-05
0.000362737
-3.42106e-05
0.000366135
-3.11819e-05
0.00036983
-2.74097e-05
0.000373883
-2.2941e-05
0.000378323
-1.78397e-05
0.000383166
-1.21911e-05
0.000388374
-6.08566e-06
0.000393856
3.88763e-07
0.000399661
7.12454e-06
1.41059e-05
0.000405655
0.000398685
-1.34586e-05
0.000399602
-1.44111e-05
0.0004002
-1.56833e-05
0.000400296
-1.73394e-05
0.000399842
-1.93817e-05
0.000398567
-2.18764e-05
0.00039642
-2.47819e-05
0.000393223
-2.81753e-05
0.000388965
-3.18997e-05
0.000383797
-3.59259e-05
0.000377777
-4.00003e-05
0.000371329
-4.39102e-05
0.000364775
-4.73579e-05
0.000358458
-5.00926e-05
0.000352684
-5.19088e-05
0.000347653
-5.26976e-05
0.00034346
-5.24388e-05
0.000340099
-5.12176e-05
0.000337502
-4.91858e-05
0.000335549
-4.65251e-05
0.000334095
-4.34926e-05
0.000332952
-4.02501e-05
0.00033211
-3.70229e-05
0.000331544
-3.39475e-05
0.000331197
-3.11385e-05
0.000330962
-2.87274e-05
0.000330865
-2.68135e-05
0.000330955
-2.5425e-05
0.000331193
-2.45614e-05
0.000331622
-2.4226e-05
0.000332265
-2.43952e-05
0.000333145
-2.50098e-05
0.000334283
-2.60187e-05
0.000335648
-2.73432e-05
0.000337286
-2.89072e-05
0.000339171
-3.06279e-05
0.000341287
-3.24042e-05
0.000343636
-3.41419e-05
0.000346191
-3.57341e-05
0.000348952
-3.70745e-05
0.000351894
-3.80579e-05
0.000354982
-3.85801e-05
0.000358311
-3.85701e-05
0.000361808
-3.78909e-05
0.00036553
-3.65039e-05
0.000369492
-3.43655e-05
0.000373733
-3.14299e-05
0.000378285
-2.76948e-05
0.000383184
-2.32141e-05
0.000388423
-1.80104e-05
0.000393987
-1.21801e-05
0.000399779
-5.78335e-06
0.000405761
1.17421e-06
8.4486e-06
0.000411893
0.00039789
-1.15833e-05
0.000398648
-1.3221e-05
0.000399072
-1.52758e-05
0.000399078
-1.77352e-05
0.000398405
-2.07032e-05
0.00039701
-2.40767e-05
0.000394684
-2.79523e-05
0.000391355
-3.2162e-05
0.000387099
-3.66766e-05
0.000381918
-4.12545e-05
0.000376159
-4.56711e-05
0.000370075
-4.96115e-05
0.000364043
-5.27877e-05
0.000358362
-5.49586e-05
0.000353284
-5.59571e-05
0.000348949
-5.57292e-05
0.000345364
-5.4338e-05
0.000342503
-5.19345e-05
0.000340246
-4.86983e-05
0.000338463
-4.48921e-05
0.000337072
-4.08616e-05
0.000335853
-3.66881e-05
0.000334832
-3.26243e-05
0.000333958
-2.88452e-05
0.000333187
-2.54891e-05
0.000332585
-2.27107e-05
0.000332099
-2.05171e-05
0.000331727
-1.89607e-05
0.000331544
-1.80618e-05
0.000331598
-1.77924e-05
0.000331897
-1.81013e-05
0.000332478
-1.8944e-05
0.000333373
-2.02473e-05
0.000334563
-2.19356e-05
0.000336089
-2.39271e-05
0.000337947
-2.61333e-05
0.000340113
-2.84572e-05
0.000342593
-3.08024e-05
0.000345367
-3.30668e-05
0.000348434
-3.5142e-05
0.000351754
-3.69246e-05
0.000355325
-3.83025e-05
0.000359154
-3.91759e-05
0.000363196
-3.9452e-05
0.000367544
-3.90371e-05
0.000372125
-3.78542e-05
0.000377002
-3.58352e-05
0.00038218
-3.29732e-05
0.000387657
-2.92374e-05
0.000393448
-2.46378e-05
0.000399512
-1.92351e-05
0.000405726
-1.30087e-05
0.000412112
-6.07605e-06
1.43928e-06
0.000418574
0.000396746
-1.0175e-05
0.000397288
-1.26107e-05
0.000397557
-1.55381e-05
0.000397349
-1.89509e-05
0.000396515
-2.28356e-05
0.000394971
-2.71993e-05
0.000392521
-3.19469e-05
0.000389156
-3.69702e-05
0.000384954
-4.20859e-05
0.000380055
-4.70359e-05
0.000374669
-5.15233e-05
0.000369173
-5.52237e-05
0.000363865
-5.78439e-05
0.000359012
-5.91831e-05
0.000354758
-5.91356e-05
0.000351159
-5.77215e-05
0.000348234
-5.50778e-05
0.000345831
-5.13924e-05
0.000343878
-4.69586e-05
0.0003422
-4.20598e-05
0.00034072
-3.70009e-05
0.000339274
-3.19653e-05
0.000337965
-2.71802e-05
0.000336713
-2.28222e-05
0.000335521
-1.90417e-05
0.000334378
-1.59547e-05
0.000333336
-1.36056e-05
0.000332457
-1.20192e-05
0.000331784
-1.11809e-05
0.000331353
-1.106e-05
0.000331238
-1.16106e-05
0.000331459
-1.27554e-05
0.000332026
-1.44249e-05
0.00033299
-1.65352e-05
0.000334356
-1.90033e-05
0.00033612
-2.17341e-05
0.000338284
-2.4638e-05
0.000340853
-2.76175e-05
0.000343801
-3.05742e-05
0.000347114
-3.34008e-05
0.000350783
-3.59978e-05
0.000354785
-3.82515e-05
0.00035911
-4.00586e-05
0.00036374
-4.13098e-05
0.00036869
-4.19048e-05
0.00037394
-4.174e-05
0.000379519
-4.07574e-05
0.000385405
-3.88566e-05
0.000391602
-3.60036e-05
0.000398095
-3.21624e-05
0.000404802
-2.7315e-05
0.000411683
-2.14646e-05
0.000418672
-1.46827e-05
-7.0331e-06
0.000425622
0.000395166
-9.30913e-06
0.000395456
-1.26857e-05
0.000395483
-1.65635e-05
0.000395076
-2.09967e-05
0.000394108
-2.58955e-05
0.000392421
-3.12199e-05
0.000389955
-3.68162e-05
0.000386711
-4.25246e-05
0.000382718
-4.80637e-05
0.000378236
-5.31556e-05
0.000373524
-5.74494e-05
0.00036882
-6.06125e-05
0.000364428
-6.24034e-05
0.000360518
-6.26569e-05
0.000357169
-6.13514e-05
0.000354405
-5.85839e-05
0.000352082
-5.45657e-05
0.000350117
-4.95585e-05
0.000348349
-4.38722e-05
0.000346769
-3.79166e-05
0.000345027
-3.18831e-05
0.000343315
-2.60296e-05
0.000341568
-2.0594e-05
0.000339765
-1.57634e-05
0.00033795
-1.16719e-05
0.000336192
-8.42613e-06
0.000334539
-6.04725e-06
0.000333039
-4.5382e-06
0.000331762
-3.86929e-06
0.000330795
-4.0186e-06
0.000330185
-4.90101e-06
0.00032998
-6.4468e-06
0.000330184
-8.55728e-06
0.000330859
-1.11585e-05
0.000332014
-1.41581e-05
0.00033364
-1.74653e-05
0.000335758
-2.09899e-05
0.000338362
-2.46371e-05
0.000341433
-2.83141e-05
0.000344961
-3.19199e-05
0.000348932
-3.53571e-05
0.00035332
-3.85128e-05
0.000358116
-4.1285e-05
0.000363303
-4.3557e-05
0.000368879
-4.52186e-05
0.000374836
-4.61553e-05
0.00038116
-4.62737e-05
0.000387852
-4.54566e-05
0.000394877
-4.362e-05
0.000402193
-4.06845e-05
0.000409784
-3.65745e-05
0.000417524
-3.12703e-05
0.00042531
-2.47657e-05
-1.70996e-05
0.000432982
0.000393001
-9.04496e-06
0.000393052
-1.34605e-05
0.000392812
-1.84465e-05
0.000392216
-2.39383e-05
0.000391121
-2.98968e-05
0.000389392
-3.61476e-05
0.000387053
-4.2527e-05
0.000384024
-4.87624e-05
0.000380531
-5.45426e-05
0.000376749
-5.95286e-05
0.000372849
-6.33458e-05
0.000369179
-6.57159e-05
0.000365878
-6.63979e-05
0.000363057
-6.53339e-05
0.000360706
-6.25689e-05
0.000358723
-5.83065e-05
0.000357004
-5.27794e-05
0.000355377
-4.63664e-05
0.000353724
-3.94425e-05
0.000351943
-3.23677e-05
0.000349955
-2.53923e-05
0.000347772
-1.87955e-05
0.000345436
-1.27867e-05
0.000342986
-7.60659e-06
0.000340459
-3.31843e-06
0.000337942
-3.25122e-08
0.000335548
2.22935e-06
0.000333352
3.53703e-06
0.000331415
3.90601e-06
0.000329827
3.37366e-06
0.000328667
2.04791e-06
0.000327972
5.35398e-09
0.000327776
-2.62967e-06
0.000328115
-5.80467e-06
0.000329
-9.4028e-06
0.000330455
-1.33439e-05
0.000332484
-1.75373e-05
0.000335079
-2.18962e-05
0.000338222
-2.63312e-05
0.000341926
-3.07509e-05
0.000346145
-3.50603e-05
0.000350877
-3.91542e-05
0.00035612
-4.29311e-05
0.000361832
-4.62725e-05
0.000368022
-4.90627e-05
0.000374682
-5.11795e-05
0.000381793
-5.24946e-05
0.00038935
-5.28832e-05
0.000397323
-5.22072e-05
0.000405663
-5.03413e-05
0.000414291
-4.71597e-05
0.000423098
-4.25636e-05
0.000431933
-3.64922e-05
-2.89277e-05
0.000440587
0.00039017
-9.49277e-06
0.000389881
-1.50444e-05
0.000389435
-2.11697e-05
0.000388678
-2.78248e-05
0.000387527
-3.4813e-05
0.000385917
-4.1975e-05
0.000383806
-4.90166e-05
0.00038131
-5.56396e-05
0.000378512
-6.14474e-05
0.000375618
-6.60945e-05
0.000372903
-6.91972e-05
0.000370474
-7.05062e-05
0.000368409
-6.98497e-05
0.000366768
-6.72511e-05
0.000365424
-6.28457e-05
0.00036424
-5.687e-05
0.000363021
-4.97469e-05
0.000361623
-4.18156e-05
0.000359997
-3.36245e-05
0.000357914
-2.5378e-05
0.000355431
-1.74662e-05
0.000352646
-1.01448e-05
0.000349572
-3.69345e-06
0.000346277
1.76589e-06
0.000342911
6.08819e-06
0.000339542
9.2864e-06
0.000336304
1.13359e-05
0.000333283
1.22827e-05
0.000330595
1.22053e-05
0.000328331
1.11679e-05
0.000326554
9.27917e-06
0.000325316
6.64622e-06
0.000324686
3.36403e-06
0.000324653
-4.59702e-07
0.00032525
-4.73363e-06
0.000326502
-9.37098e-06
0.000328397
-1.42901e-05
0.000330939
-1.94102e-05
0.000334128
-2.4649e-05
0.000337942
-2.99243e-05
0.000342375
-3.51469e-05
0.000347414
-4.02221e-05
0.000353036
-4.50505e-05
0.00035924
-4.95151e-05
0.000366027
-5.35056e-05
0.000373372
-5.68863e-05
0.000381291
-5.95124e-05
0.000389767
-6.12435e-05
0.000398773
-6.18877e-05
0.000408265
-6.12838e-05
0.000418137
-5.92226e-05
0.000428268
-5.55367e-05
0.00043843
-5.00723e-05
-4.27377e-05
0.000448375
0.000386459
-1.06177e-05
0.000385909
-1.74127e-05
0.000385229
-2.47969e-05
0.00038438
-3.26076e-05
0.000383308
-4.06453e-05
0.000381939
-4.86391e-05
0.000380361
-5.62515e-05
0.000378563
-6.30962e-05
0.000376777
-6.87629e-05
0.000375162
-7.28611e-05
0.000373786
-7.50376e-05
0.000372789
-7.50622e-05
0.000372177
-7.28536e-05
0.000371821
-6.8497e-05
0.000371491
-6.22252e-05
0.000371055
-5.44053e-05
0.000370264
-4.54804e-05
0.000368959
-3.59915e-05
0.000367094
-2.63136e-05
0.000364535
-1.68944e-05
0.000361468
-8.00223e-06
0.000357852
-1.78116e-08
0.000353834
6.81232e-06
0.000349557
1.24136e-05
0.000345169
1.66883e-05
0.000340823
1.9651e-05
0.00033662
2.13235e-05
0.000332708
2.17777e-05
0.000329212
2.11071e-05
0.000326217
1.94226e-05
0.000323783
1.68445e-05
0.000321984
1.34922e-05
0.000320853
9.478e-06
0.000320417
4.90703e-06
0.000320707
-1.29542e-07
0.000321712
-5.5326e-06
0.000323444
-1.12398e-05
0.000325903
-1.71765e-05
0.000329083
-2.32699e-05
0.000332979
-2.94478e-05
0.000337564
-3.56302e-05
0.000342851
-4.17333e-05
0.000348812
-4.76683e-05
0.000355444
-5.33174e-05
0.000362779
-5.8584e-05
0.000370787
-6.33263e-05
0.000379497
-6.73911e-05
0.000388917
-7.06141e-05
0.000399046
-7.27825e-05
0.000409816
-7.36615e-05
0.00042112
-7.29589e-05
0.00043283
-7.0418e-05
0.000444645
-6.57666e-05
-5.88097e-05
0.00045625
0.000381855
-1.24656e-05
0.00038097
-2.05988e-05
0.000380142
-2.92737e-05
0.000379291
-3.82753e-05
0.000378428
-4.73318e-05
0.000377549
-5.61023e-05
0.000376682
-6.41817e-05
0.000375983
-7.11369e-05
0.000375488
-7.65171e-05
0.000375348
-7.99163e-05
0.000375686
-8.09941e-05
0.000376403
-7.95632e-05
0.00037734
-7.55915e-05
0.000378321
-6.92808e-05
0.000379078
-6.09008e-05
0.000379306
-5.09952e-05
0.00037879
-4.01289e-05
0.000377487
-2.87996e-05
0.000375117
-1.75195e-05
0.000371959
-6.77594e-06
0.000367957
3.06465e-06
0.000363308
1.1674e-05
0.000358169
1.88463e-05
0.000352709
2.45009e-05
0.000347123
2.86031e-05
0.000341652
3.11818e-05
0.000336406
3.23155e-05
0.00033151
3.21056e-05
0.000327125
3.06928e-05
0.000323331
2.82102e-05
0.000320219
2.48012e-05
0.000317826
2.06066e-05
0.000316178
1.57441e-05
0.000315324
1.03283e-05
0.000315279
4.45441e-06
0.000316022
-1.80424e-06
0.000317568
-8.36237e-06
0.000319908
-1.51756e-05
0.000323049
-2.2176e-05
0.000326976
-2.93095e-05
0.000331661
-3.64961e-05
0.000337138
-4.36844e-05
0.000343361
-5.07738e-05
0.000350357
-5.76766e-05
0.000358169
-6.43008e-05
0.000366782
-7.05091e-05
0.00037624
-7.61592e-05
0.000386596
-8.10472e-05
0.000397882
-8.49658e-05
0.000410032
-8.75828e-05
0.000422977
-8.85481e-05
0.000436531
-8.74546e-05
0.000450339
-8.38796e-05
-7.74873e-05
0.000464004
0.000376125
-1.50089e-05
0.000374981
-2.45502e-05
0.00037403
-3.45571e-05
0.000373353
-4.47613e-05
0.000372875
-5.48132e-05
0.000372703
-6.43185e-05
0.000372886
-7.28086e-05
0.000373496
-7.9806e-05
0.000374687
-8.48256e-05
0.00037643
-8.74489e-05
0.000378713
-8.73039e-05
0.000381332
-8.42716e-05
0.000384107
-7.83706e-05
0.000386558
-6.98154e-05
0.0003883
-5.90716e-05
0.000389159
-4.68354e-05
0.000388911
-3.36765e-05
0.000387171
-2.02538e-05
0.00038429
-7.16722e-06
0.000380093
5.03327e-06
0.000374962
1.59051e-05
0.000369
2.51167e-05
0.000362432
3.25937e-05
0.000355583
3.81876e-05
0.000348674
4.19633e-05
0.000341923
4.39962e-05
0.000335482
4.44131e-05
0.000329543
4.33715e-05
0.00032421
4.1045e-05
0.000319592
3.76018e-05
0.000315769
3.32183e-05
0.00031275
2.80401e-05
0.000310591
2.2213e-05
0.000309306
1.58518e-05
0.0003089
9.0449e-06
0.000309376
1.85886e-06
0.000310716
-5.61827e-06
0.000312913
-1.33691e-05
0.000315982
-2.13336e-05
0.000319885
-2.94718e-05
0.000324619
-3.77152e-05
0.000330215
-4.60265e-05
0.000336616
-5.43263e-05
0.000343895
-6.25496e-05
0.000352062
-7.06103e-05
0.000361182
-7.8394e-05
0.000371308
-8.57811e-05
0.000382543
-9.25421e-05
0.000394961
-9.84725e-05
0.000408513
-0.00010314
0.000423206
-0.000106114
0.000438791
-0.000106799
0.000454864
-0.000104598
-9.90038e-05
0.000470954
0.000369173
-1.82091e-05
0.000367806
-2.92025e-05
0.000366902
-4.05765e-05
0.000366442
-5.198e-05
0.000366624
-6.30383e-05
0.000367394
-7.32649e-05
0.000368906
-8.2174e-05
0.000371241
-8.92266e-05
0.000374383
-9.39038e-05
0.000378409
-9.5709e-05
0.000382946
-9.44144e-05
0.000387892
-8.95741e-05
0.000392667
-8.16439e-05
0.000396607
-7.0436e-05
0.000399515
-5.70624e-05
0.000401013
-4.20363e-05
0.000400568
-2.62163e-05
0.000398472
-1.02852e-05
0.000394477
4.92011e-06
0.000389158
1.87316e-05
0.000382446
3.06554e-05
0.000374811
4.05829e-05
0.000366606
4.8227e-05
0.000358101
5.36542e-05
0.000349647
5.69386e-05
0.000341468
5.82401e-05
0.000333749
5.77472e-05
0.000326659
5.5674e-05
0.000320326
5.22415e-05
0.000314849
4.76649e-05
0.000310277
4.21456e-05
0.000306652
3.58463e-05
0.000303982
2.89344e-05
0.00030227
2.15168e-05
0.000301511
1.36893e-05
0.000301704
5.51499e-06
0.000302833
-2.96701e-06
0.00030487
-1.17079e-05
0.000307829
-2.06885e-05
0.000311672
-2.98713e-05
0.000316398
-3.92204e-05
0.000322022
-4.86946e-05
0.00032852
-5.82505e-05
0.000335956
-6.78443e-05
0.000344352
-7.74135e-05
0.000353824
-8.68728e-05
0.000364463
-9.61545e-05
0.000376424
-0.000104992
0.00038985
-0.000113233
0.000404707
-0.000120246
0.000421074
-0.000125631
0.000438592
-0.000128402
0.000456814
-0.000127847
-0.000123336
0.000475341
0.000360902
-2.19546e-05
0.000359382
-3.44615e-05
0.000358536
-4.72184e-05
0.000358574
-5.98601e-05
0.000359532
-7.19389e-05
0.000361567
-8.29658e-05
0.000364717
-9.2369e-05
0.000369049
-9.96104e-05
0.000374624
-0.000104023
0.000381267
-0.000105276
0.000388602
-0.000102591
0.000395961
-9.62662e-05
0.00040341
-8.56192e-05
0.000408974
-7.18645e-05
0.000413284
-5.52339e-05
0.000415029
-3.68298e-05
0.000414498
-1.75775e-05
0.000411381
1.29261e-06
0.000406204
1.89056e-05
0.000398938
3.45126e-05
0.000390355
4.77582e-05
0.000380756
5.82309e-05
0.00037052
6.60462e-05
0.000360114
7.11379e-05
0.000349871
7.37282e-05
0.000340095
7.40739e-05
0.000330963
7.2434e-05
0.000322651
6.91036e-05
0.000315292
6.43563e-05
0.000308947
5.84555e-05
0.000303651
5.16246e-05
0.000299421
4.40729e-05
0.00029624
3.59427e-05
0.000294123
2.73665e-05
0.000293031
1.84321e-05
0.000292956
9.18343e-06
0.000293869
-3.51486e-07
0.00029574
-1.01422e-05
0.000298556
-2.01845e-05
0.000302312
-3.04527e-05
0.000306975
-4.09345e-05
0.000312532
-5.15906e-05
0.00031903
-6.24323e-05
0.000326472
-7.34175e-05
0.000334914
-8.45442e-05
0.000344527
-9.57535e-05
0.000355454
-0.000107063
0.000367792
-0.000118166
0.00038188
-0.000128879
0.000397573
-0.000138489
0.000415108
-0.000146551
0.00043384
-0.000151459
0.000453329
-0.000152654
-0.00014973
0.00047356
0.000351201
-2.61482e-05
0.000349552
-4.0192e-05
0.000348961
-5.43762e-05
0.00034957
-6.83027e-05
0.000351575
-8.15052e-05
0.000355008
-9.34477e-05
0.000360125
-0.000103551
0.000366841
-0.000111214
0.000375188
-0.000115642
0.000385026
-0.000116403
0.000395308
-0.000112926
0.000406478
-0.00010444
0.000415926
-9.16435e-05
0.000424145
-7.43983e-05
0.000429427
-5.38501e-05
0.000431688
-3.10788e-05
0.000430567
-7.84516e-06
0.00042639
1.46171e-05
0.000419212
3.50805e-05
0.000409851
5.28741e-05
0.000398716
6.74549e-05
0.000386559
7.85882e-05
0.000373998
8.6357e-05
0.000361332
9.08949e-05
0.000349106
9.25398e-05
0.000337588
9.1635e-05
0.000326955
8.85822e-05
0.000317373
8.37318e-05
0.000308956
7.74367e-05
0.00030175
6.99984e-05
0.000295743
6.16957e-05
0.000290933
5.27288e-05
0.000287301
4.32622e-05
0.000284818
3.34271e-05
0.000283413
2.33052e-05
0.00028307
1.29155e-05
0.000283785
2.27108e-06
0.00028549
-8.62153e-06
0.00028816
-1.97611e-05
0.000291789
-3.11445e-05
0.000296322
-4.27665e-05
0.000301751
-5.46172e-05
0.000308103
-6.67264e-05
0.000315374
-7.90917e-05
0.000323647
-9.17704e-05
0.000333035
-0.000104757
0.000343849
-0.000118077
0.000356065
-0.000131489
0.000370102
-0.000144741
0.000385538
-0.000156862
0.000402833
-0.000167506
0.00042063
-0.000174072
0.000439328
-0.000177137
-0.000176607
0.000459311
0.000339898
-3.06402e-05
0.000338249
-4.62643e-05
0.000337982
-6.19214e-05
0.000339368
-7.72192e-05
0.000342457
-9.16963e-05
0.000347604
-0.000104766
0.00035493
-0.000115853
0.000364209
-0.000124315
0.000375732
-0.000129123
0.000389045
-0.000130014
0.000403327
-0.000125534
0.000417538
-0.000115692
0.000431088
-9.99392e-05
0.000441658
-7.88631e-05
0.000448757
-5.32381e-05
0.000451312
-2.51699e-05
0.000449317
3.20441e-06
0.000443261
2.99288e-05
0.000433771
5.39807e-05
0.000421571
7.41961e-05
0.000407485
9.03082e-05
0.000392321
0.000102018
0.000376785
0.000109575
0.000361528
0.000113293
0.00034703
0.000113612
0.000333593
0.000111111
0.000321386
0.000106308
0.000310531
9.9624e-05
0.000301068
9.15005e-05
0.000293045
8.23145e-05
0.000286407
7.23402e-05
0.000281093
6.18112e-05
0.000277038
5.0902e-05
0.000274234
3.97158e-05
0.000272572
2.83238e-05
0.000272017
1.67322e-05
0.000272555
4.92855e-06
0.000274106
-7.10872e-06
0.000276641
-1.93728e-05
0.000280118
-3.18821e-05
0.000284466
-4.46336e-05
0.000289687
-5.76485e-05
0.000295734
-7.09691e-05
0.000302616
-8.46398e-05
0.000310404
-9.87649e-05
0.000319163
-0.000113406
0.000329193
-0.000128589
0.000340317
-0.000144048
0.000352967
-0.000159406
0.00036621
-0.000173365
0.000380756
-0.000185964
0.000394309
-0.000193141
0.00040945
-0.000198987
-0.000204957
0.000429049
0.000326965
-3.5283e-05
0.000325328
-5.25192e-05
0.000325482
-6.97139e-05
0.000327648
-8.65283e-05
0.000332078
-0.000102441
0.000338922
-0.000116968
0.00034846
-0.000129393
0.00036072
-0.000138987
0.000375251
-0.000144789
0.000392498
-0.000145808
0.000410371
-0.000141368
0.000429083
-0.000130121
0.000446056
-0.000111577
0.000460396
-8.60792e-05
0.000469898
-5.46455e-05
0.00047343
-1.98003e-05
0.000470778
1.51095e-05
0.000462674
4.76358e-05
0.00045002
7.60031e-05
0.000434179
9.92294e-05
0.000416231
0.000116992
0.000397284
0.00012918
0.000378612
0.000136118
0.000360483
0.00013855
0.000343492
0.000137124
0.000328025
0.000132633
0.000314117
0.000125642
0.000301941
0.000116773
0.000291492
0.000106536
0.000282709
9.53426e-05
0.000275509
8.35089e-05
0.000269783
7.12869e-05
0.000265408
5.88267e-05
0.000262341
4.62045e-05
0.000260479
3.34861e-05
0.000259758
2.06388e-05
0.000260153
7.62684e-06
0.000261594
-5.57603e-06
0.000264002
-1.89854e-05
0.000267321
-3.26141e-05
0.000271466
-4.64582e-05
0.000276385
-6.05694e-05
0.000281982
-7.49743e-05
0.00028822
-8.97811e-05
0.000295091
-0.000105096
0.000302611
-0.000121054
0.000310867
-0.00013757
0.000319536
-0.0001544
0.000328698
-0.000170922
0.00033683
-0.000185144
0.000345158
-0.000198806
0.000353129
-0.000208234
0.000369136
-0.000225546
-0.000246856
0.000391448
0.00031228
-3.99129e-05
0.000310699
-5.87953e-05
0.000311303
-7.76143e-05
0.000314245
-9.60718e-05
0.000319893
-0.000113644
0.000328555
-0.00012994
0.000340062
-0.000143948
0.000354632
-0.000154954
0.00037204
-0.000161866
0.000391419
-0.000163708
0.000412946
-0.000159311
0.000434638
-0.000147233
0.000456063
-0.000126934
0.000475265
-9.85049e-05
0.000488762
-6.05822e-05
0.000494374
-1.68234e-05
0.000491568
2.69363e-05
0.000481575
6.70982e-05
0.000466099
0.00010112
0.000446344
0.000128232
0.000424078
0.000148105
0.000401032
0.000160448
0.000378473
0.000166444
0.000357067
0.000167048
0.000337462
0.000163297
0.000319913
0.000156196
0.000304454
0.000146564
0.000291124
0.000135109
0.000279839
0.000122428
0.000270468
0.00010899
0.000262848
9.51193e-05
0.000256837
8.10624e-05
0.000252282
6.69639e-05
0.000249072
5.2861e-05
0.000247092
3.8759e-05
0.000246277
2.4616e-05
0.000246596
1.03677e-05
0.000247963
-4.04065e-06
0.00025029
-1.85969e-05
0.000253476
-3.33216e-05
0.000257394
-4.81994e-05
0.000261947
-6.32668e-05
0.000266923
-7.85554e-05
0.000272226
-9.41523e-05
0.000277632
-0.000110203
0.000283066
-0.000126778
0.000288224
-0.000143752
0.000292407
-0.000160615
0.00029524
-0.000176397
0.000295249
-0.000189155
0.000295899
-0.000206056
0.000313066
-0.000235456
0.000341633
-0.000285609
-0.000321074
0.0003625
0.000295721
-4.43767e-05
0.000294253
-6.49196e-05
0.000295238
-8.54379e-05
0.000298873