/*--------------------------------*- C++ -*----------------------------------*\
  =========                 |
  \\      /  F ield         | OpenFOAM: The Open Source CFD Toolbox
   \\    /   O peration     | Website:  https://openfoam.org
    \\  /    A nd           | Version:  10
     \\/     M anipulation  |
\*---------------------------------------------------------------------------*/
FoamFile
{
    format      ascii;
    class       volScalarField;
    location    "0.19956";
    object      T;
}
// * * * * * * * * * * * * * * * * * * * * * * * * * * * * * * * * * * * * * //

dimensions      [0 0 0 1 0 0 0];

internalField   nonuniform List<scalar> 
15984
(
0.00848756
0.00848698
0.00848849
0.00849273
0.00850077
0.0085107
0.00852449
0.00854067
0.00855933
0.00858214
0.00860499
0.00863164
0.00865861
0.00868651
0.00871339
0.00873949
0.0087628
0.00878295
0.00879932
0.00881111
0.00881841
0.00882147
0.00882064
0.00881678
0.00880889
0.00880023
0.00878786
0.00877627
0.00876217
0.0087501
0.0087367
0.00872588
0.00871556
0.00870788
0.0087018
0.00869955
0.00869952
0.00870155
0.00870654
0.00871535
0.00872437
0.00873694
0.00874905
0.00876042
0.00877201
0.00878074
0.00878732
0.00879203
0.00879207
0.00879137
0.00878667
0.00878083
0.00877095
0.00876083
0.00847296
0.00847261
0.00847454
0.008479
0.00848771
0.00849786
0.00851342
0.00852987
0.0085504
0.0085756
0.00860092
0.00863074
0.00866094
0.00869207
0.00872242
0.00875072
0.00877656
0.00879833
0.00881484
0.00882733
0.00883453
0.00883632
0.00883505
0.00883057
0.00882106
0.00881179
0.00879877
0.00878565
0.00877168
0.0087578
0.00874451
0.00873216
0.00872089
0.00871261
0.00870499
0.00870082
0.00869854
0.00869968
0.00870317
0.00870803
0.00871751
0.00872615
0.00873742
0.00874824
0.00875898
0.00876814
0.00877564
0.00878081
0.00878298
0.00878281
0.00877967
0.00877507
0.0087671
0.00875765
0.00845968
0.00845975
0.00846195
0.00846728
0.00847637
0.00848765
0.00850418
0.00852186
0.00854465
0.00857119
0.00860041
0.00863195
0.00866544
0.0086998
0.0087324
0.00876294
0.00879062
0.00881221
0.00883002
0.0088417
0.00884811
0.00884945
0.00884732
0.00884188
0.00883198
0.00882141
0.00880845
0.00879372
0.00878064
0.00876499
0.00875186
0.00873869
0.00872702
0.00871739
0.00870917
0.00870388
0.00870055
0.00869969
0.00870115
0.00870518
0.00871077
0.00871913
0.00872803
0.00873795
0.00874793
0.00875671
0.00876511
0.00876957
0.00877446
0.0087737
0.00877295
0.00876856
0.00876265
0.00875325
0.00844792
0.00844869
0.00845118
0.00845826
0.0084676
0.00848015
0.00849767
0.00851727
0.0085422
0.00857043
0.00860264
0.00863627
0.00867296
0.00870921
0.00874367
0.00877615
0.00880385
0.00882556
0.00884319
0.00885406
0.0088597
0.00885999
0.00885717
0.00885092
0.0088408
0.00882892
0.00881682
0.00880091
0.00878712
0.00877244
0.00875847
0.00874555
0.00873348
0.00872347
0.00871455
0.0087081
0.00870338
0.00870182
0.00870197
0.0087034
0.0087082
0.00871355
0.00872162
0.00872995
0.00873834
0.00874712
0.00875407
0.00876101
0.00876358
0.00876608
0.00876496
0.00876216
0.00875681
0.00874951
0.008438
0.0084395
0.00844319
0.00845148
0.00846113
0.00847592
0.00849462
0.00851568
0.00854413
0.00857249
0.00860802
0.00864481
0.00868255
0.00872048
0.0087567
0.00878852
0.00881661
0.00883767
0.00885429
0.00886429
0.00886855
0.00886847
0.0088644
0.00885743
0.0088478
0.00883493
0.00882212
0.00880759
0.00879304
0.00877889
0.00876535
0.00875185
0.00874002
0.00872926
0.00872109
0.00871305
0.00870884
0.00870493
0.00870399
0.00870445
0.0087072
0.00871138
0.00871637
0.00872436
0.00873055
0.00873894
0.00874499
0.0087511
0.00875552
0.00875699
0.00875735
0.00875521
0.00875115
0.00874532
0.0084304
0.0084326
0.00843838
0.00844632
0.00845836
0.00847553
0.00849349
0.00852026
0.00854664
0.00858095
0.00861645
0.00865558
0.00869529
0.00873348
0.0087698
0.00880111
0.0088278
0.00884907
0.00886258
0.00887218
0.00887518
0.00887415
0.00886964
0.00886172
0.00885133
0.00884033
0.0088258
0.00881272
0.00879791
0.00878422
0.00877082
0.00875832
0.00874648
0.00873639
0.00872659
0.00872014
0.00871376
0.00870982
0.00870766
0.00870714
0.00870796
0.00871089
0.00871428
0.00871981
0.00872537
0.00873146
0.00873756
0.00874254
0.00874613
0.00874953
0.00874892
0.0087484
0.00874485
0.00873954
0.00842459
0.00842843
0.00843574
0.00844525
0.00845875
0.00847719
0.00849809
0.00852623
0.00855567
0.00859109
0.00862979
0.00866856
0.00870933
0.00874806
0.00878269
0.00881402
0.00883787
0.00885695
0.00887024
0.00887646
0.00887906
0.00887744
0.00887224
0.00886367
0.00885373
0.00884216
0.00882883
0.0088156
0.00880216
0.00878904
0.00877619
0.00876372
0.00875277
0.00874226
0.00873355
0.00872678
0.00871958
0.00871587
0.00871219
0.0087111
0.00871052
0.00871142
0.00871408
0.00871697
0.00872159
0.00872604
0.00873074
0.00873541
0.0087385
0.00874102
0.0087413
0.00874085
0.00873808
0.00873409
0.0084228
0.00842738
0.00843538
0.0084471
0.00846364
0.00848122
0.00850823
0.00853342
0.00857013
0.00860416
0.00864466
0.00868557
0.00872509
0.00876254
0.00879595
0.00882446
0.00884698
0.00886364
0.00887437
0.00888026
0.00888024
0.00887805
0.00887235
0.00886445
0.00885367
0.00884238
0.00883042
0.00881736
0.00880444
0.00879257
0.00877983
0.00876937
0.00875799
0.00874863
0.00874063
0.00873252
0.00872692
0.00872166
0.00871814
0.00871549
0.00871392
0.00871416
0.00871443
0.00871665
0.00871902
0.00872205
0.00872548
0.0087288
0.00873147
0.00873315
0.00873399
0.00873293
0.00873163
0.00872714
0.00842234
0.00842933
0.00843803
0.00845384
0.00846789
0.00849424
0.00851593
0.00855124
0.008583
0.00862285
0.00866246
0.00870292
0.00874184
0.00877709
0.00880899
0.00883404
0.00885405
0.00886822
0.00887701
0.00888013
0.00888012
0.00887709
0.00887011
0.00886215
0.00885239
0.00884198
0.00882938
0.0088178
0.00880601
0.00879498
0.00878328
0.00877353
0.00876311
0.00875419
0.00874674
0.00873911
0.00873324
0.00872814
0.00872394
0.00872086
0.00871796
0.00871737
0.00871632
0.00871689
0.00871805
0.00871926
0.0087217
0.00872333
0.008725
0.00872631
0.0087263
0.00872571
0.00872393
0.00872068
0.00842542
0.00843322
0.00844631
0.00845977
0.00848169
0.00850456
0.00853357
0.00856641
0.00860367
0.00864149
0.00868187
0.00872183
0.0087583
0.00879198
0.00881903
0.00884273
0.00885934
0.00887059
0.00887713
0.00887899
0.00887768
0.00887313
0.00886746
0.00885833
0.00884941
0.00883858
0.00882785
0.00881716
0.00880668
0.00879593
0.00878639
0.00877613
0.00876745
0.00875965
0.00875179
0.00874537
0.00873931
0.00873458
0.00872951
0.00872637
0.00872284
0.00872089
0.00871886
0.00871833
0.00871784
0.00871795
0.00871835
0.00871908
0.00871962
0.00871992
0.00871949
0.0087185
0.00871647
0.00871297
0.00843198
0.00844013
0.00845664
0.00847254
0.00849597
0.00852073
0.00855304
0.00858583
0.00862435
0.00866345
0.00870272
0.00873941
0.0087751
0.00880409
0.00883019
0.00884869
0.00886257
0.0088714
0.00887579
0.00887579
0.00887265
0.00886883
0.00886154
0.00885306
0.00884466
0.00883482
0.00882489
0.00881492
0.00880588
0.00879643
0.00878778
0.00877879
0.00877076
0.00876405
0.00875662
0.00875079
0.00874523
0.00874025
0.00873538
0.0087316
0.00872765
0.00872475
0.00872206
0.00872019
0.00871857
0.00871734
0.00871648
0.0087156
0.00871488
0.00871425
0.00871294
0.00871147
0.00870886
0.0087057
0.00843949
0.00845279
0.00846724
0.00849009
0.00851183
0.00854189
0.00857334
0.00860849
0.00864784
0.00868436
0.00872274
0.00875873
0.00878932
0.00881679
0.00883677
0.00885373
0.00886365
0.00887018
0.0088719
0.00887088
0.00886801
0.00886125
0.00885556
0.00884689
0.00883836
0.00882965
0.00882106
0.0088122
0.00880358
0.00879581
0.00878808
0.00878029
0.00877363
0.0087666
0.00876096
0.00875539
0.0087503
0.00874514
0.00874074
0.00873658
0.00873198
0.00872913
0.00872524
0.00872235
0.00871989
0.00871737
0.00871534
0.00871332
0.0087113
0.0087093
0.00870691
0.00870485
0.00870151
0.00869817
0.00845182
0.00846477
0.00848644
0.00850574
0.00853465
0.00856223
0.00859769
0.00863206
0.00867031
0.00870664
0.00874399
0.00877302
0.0088036
0.00882508
0.00884396
0.00885536
0.00886366
0.00886709
0.00886718
0.00886481
0.00885928
0.00885498
0.00884653
0.00884003
0.00883117
0.00882423
0.00881582
0.00880799
0.00880115
0.00879425
0.00878749
0.0087813
0.00877506
0.0087693
0.00876425
0.00875916
0.00875416
0.0087498
0.00874519
0.00874077
0.00873667
0.00873242
0.00872854
0.00872502
0.00872138
0.00871784
0.00871516
0.00871139
0.00870879
0.00870509
0.00870208
0.00869847
0.00869446
0.00869074
0.00846563
0.00848432
0.00850298
0.00852971
0.00855568
0.00858818
0.00862119
0.00865664
0.00869405
0.00872761
0.00876002
0.0087901
0.00881374
0.00883281
0.00884662
0.00885687
0.00885989
0.0088627
0.0088615
0.00885599
0.00885345
0.00884434
0.00883844
0.00883105
0.00882471
0.00881656
0.00881005
0.00880379
0.00879772
0.00879189
0.00878605
0.00878126
0.00877557
0.00877115
0.00876648
0.00876189
0.0087576
0.00875333
0.00874902
0.00874465
0.00874004
0.00873622
0.00873106
0.00872781
0.0087231
0.00871882
0.00871513
0.00871066
0.00870688
0.00870151
0.00869799
0.00869312
0.00868825
0.00868386
0.00848349
0.00850213
0.00852658
0.00855096
0.00858223
0.00861178
0.0086474
0.0086804
0.00871488
0.00874737
0.00877775
0.00880052
0.00882256
0.00883797
0.00884832
0.00885377
0.00885747
0.00885625
0.00885255
0.00884997
0.00884111
0.00883645
0.00882889
0.00882219
0.00881616
0.00881039
0.00880305
0.00879849
0.00879364
0.008789
0.00878473
0.0087798
0.008776
0.00877209
0.00876796
0.00876371
0.00876019
0.0087558
0.00875233
0.00874716
0.0087434
0.00873885
0.00873377
0.00873021
0.00872498
0.00872014
0.00871545
0.00871098
0.00870541
0.00869978
0.00869489
0.00868875
0.00868294
0.00867763
0.00850358
0.00852425
0.00854984
0.00857722
0.00860604
0.00863932
0.00867014
0.00870466
0.0087352
0.00876432
0.00879014
0.00881194
0.00882938
0.00883865
0.00884823
0.00885207
0.00885026
0.00884871
0.00884539
0.00883707
0.00883449
0.00882439
0.00881941
0.00881293
0.00880768
0.00880173
0.0087971
0.00879335
0.00878872
0.00878604
0.00878158
0.00877817
0.00877532
0.00877182
0.00876861
0.00876508
0.00876165
0.00875754
0.00875449
0.00874901
0.00874622
0.00874052
0.00873662
0.00873209
0.00872693
0.0087223
0.00871655
0.00871218
0.00870531
0.00869964
0.00869402
0.00868694
0.00868032
0.00867405
0.00852395
0.0085494
0.00857344
0.00860291
0.00863338
0.00866219
0.00869599
0.00872371
0.00875447
0.00877859
0.00880119
0.00881991
0.00883133
0.00884101
0.00884635
0.00884509
0.00884461
0.00884103
0.00883233
0.00883155
0.00881753
0.00881714
0.00880769
0.00880353
0.00879873
0.00879406
0.00878998
0.00878686
0.00878408
0.00878164
0.00877894
0.00877657
0.00877374
0.00877123
0.00876846
0.00876568
0.00876223
0.0087587
0.00875552
0.00875067
0.00874778
0.00874244
0.00873875
0.00873392
0.00872909
0.00872468
0.00871857
0.00871438
0.00870675
0.00870154
0.00869501
0.00868732
0.00868081
0.00867458
0.00854876
0.00857234
0.00860015
0.00862972
0.00865738
0.00868897
0.00871441
0.00874566
0.00876778
0.00879344
0.00880414
0.00883062
0.00882915
0.00883897
0.00883814
0.00883749
0.00883353
0.00882654
0.0088247
0.00881248
0.00881469
0.0088015
0.00879832
0.00879238
0.00878982
0.00878538
0.00878295
0.00878071
0.0087794
0.00877695
0.00877572
0.00877341
0.00877192
0.0087702
0.00876751
0.00876553
0.00876206
0.00875923
0.00875546
0.00875248
0.00874751
0.00874471
0.00874005
0.00873567
0.00873108
0.00872762
0.00872065
0.00871732
0.00871023
0.00870624
0.00869877
0.00869098
0.00868469
0.00867607
0.00857156
0.00859788
0.00862607
0.00865409
0.0086837
0.00870818
0.00873944
0.00875637
0.008788
0.00879345
0.00882138
0.00881908
0.00883268
0.0088322
0.00883198
0.00882876
0.0088225
0.00881761
0.00880524
0.00880692
0.00879275
0.00879648
0.00878553
0.00878338
0.00878039
0.00877713
0.0087749
0.00877408
0.00877351
0.00877266
0.00877177
0.00877084
0.00876995
0.00876828
0.00876601
0.0087646
0.00876191
0.00875855
0.00875547
0.00875255
0.00874806
0.00874576
0.00874095
0.00873777
0.00873332
0.00873081
0.00872534
0.00872187
0.00871652
0.00871202
0.00870367
0.00869823
0.00868989
0.00866885
0.0085975
0.00862291
0.0086516
0.00867907
0.0087039
0.00873354
0.00875146
0.00877472
0.00879559
0.00880784
0.00881438
0.00882854
0.00882459
0.00882456
0.00882052
0.0088144
0.00880895
0.00880039
0.00879843
0.00878713
0.00878354
0.00877664
0.00877506
0.00877261
0.00877146
0.00877011
0.00876874
0.00876818
0.00876846
0.00876835
0.00876795
0.00876774
0.00876731
0.00876613
0.0087646
0.00876286
0.00876075
0.00875736
0.00875491
0.00875149
0.00874856
0.00874622
0.00874214
0.0087403
0.00873698
0.00873536
0.0087315
0.00873
0.00872529
0.00872312
0.00870384
0.00870367
0.00864883
0.00856407
0.00862143
0.00864746
0.00867676
0.00870129
0.00872686
0.00874806
0.00877262
0.00878322
0.00880712
0.00880754
0.0088192
0.00881741
0.00881889
0.00881453
0.00880708
0.0088002
0.00878984
0.00878422
0.00877351
0.00877407
0.00876565
0.00876726
0.00876156
0.00875868
0.00875863
0.00875733
0.00875795
0.00876025
0.00876155
0.00876279
0.00876365
0.0087638
0.00876391
0.00876355
0.00876246
0.00876092
0.00875937
0.00875601
0.00875379
0.00875071
0.00874868
0.00874625
0.00874399
0.00874292
0.00874218
0.0087421
0.00873993
0.00874177
0.00873324
0.00872972
0.0086714
0.00866586
0.00836945
0.00792925
0.00864346
0.00867241
0.00869929
0.00872232
0.00874752
0.0087664
0.00878129
0.00880269
0.00880857
0.00881875
0.00881278
0.00880811
0.00880088
0.00878041
0.00877056
0.00877252
0.00876329
0.00876962
0.00875816
0.00875421
0.00874917
0.00875017
0.00875167
0.00875199
0.00875259
0.00875261
0.00875321
0.00875516
0.00875736
0.00875883
0.00876036
0.00876129
0.00876134
0.0087608
0.00875943
0.00875855
0.008757
0.00875415
0.00875229
0.00874946
0.0087486
0.00874657
0.00874676
0.00874707
0.00874855
0.00875028
0.0087501
0.00874871
0.00872903
0.00872179
0.00850421
0.00831106
0.00717126
0.00618348
0.00866717
0.00869517
0.00872013
0.00874169
0.00876692
0.00877688
0.00880074
0.00881199
0.00881562
0.00881494
0.00879888
0.00877448
0.00871356
0.00862784
0.0086173
0.00863466
0.00867134
0.00870258
0.00872743
0.00873309
0.00873022
0.00872799
0.00872791
0.00873101
0.00873609
0.00873944
0.00874276
0.00874725
0.00875083
0.00875285
0.00875514
0.00875722
0.0087579
0.00875738
0.00875681
0.00875591
0.00875476
0.00875192
0.00875078
0.00874859
0.00874859
0.0087486
0.00875005
0.00875331
0.00875531
0.00875507
0.00875216
0.00874767
0.00867944
0.00857224
0.00785028
0.00642647
0.00530198
0.00482849
0.00868815
0.00871766
0.00873951
0.00876096
0.00878409
0.00879636
0.00881719
0.00881502
0.0088118
0.00877088
0.00868417
0.00849232
0.00824819
0.00785476
0.00786226
0.00786076
0.00821804
0.0084811
0.0086168
0.00869022
0.00871357
0.00872133
0.00872351
0.00872583
0.00872809
0.00873054
0.0087338
0.00873865
0.00874483
0.00874889
0.00875164
0.00875328
0.00875398
0.00875395
0.0087534
0.00875294
0.00875196
0.00874942
0.00874893
0.00874832
0.00874924
0.00875192
0.00875572
0.00875767
0.0087582
0.00875521
0.00874775
0.00866694
0.0085248
0.0076778
0.00599269
0.00482322
0.00450783
0.00441194
0.00871237
0.00873555
0.00876205
0.00877777
0.0088035
0.0088159
0.00882248
0.00878529
0.00876443
0.00846498
0.00815179
0.00713926
0.00647696
0.00585832
0.00577625
0.00600317
0.00634514
0.0074213
0.00817608
0.00848976
0.00862678
0.00867283
0.00869645
0.00871312
0.00872014
0.00872378
0.00872855
0.0087338
0.00873804
0.00874199
0.00874612
0.00874914
0.00875026
0.00875011
0.00874954
0.00874914
0.00874877
0.00874731
0.00874765
0.00874875
0.00875147
0.00875626
0.00875917
0.00875882
0.00875524
0.00873389
0.00868104
0.00844616
0.00764876
0.00566545
0.00463351
0.00441492
0.00436565
0.00434577
0.00873049
0.00875265
0.00878234
0.00879378
0.00882404
0.00881725
0.00879872
0.0086044
0.00834051
0.00731331
0.0058908
0.00514282
0.00479532
0.00462031
0.0046077
0.0046899
0.00473637
0.00550594
0.00688042
0.00810507
0.00853088
0.00866964
0.0086982
0.00869869
0.00870439
0.0087098
0.00871531
0.00872569
0.00873307
0.00873854
0.0087423
0.00874485
0.00874592
0.0087459
0.00874598
0.00874594
0.00874588
0.00874576
0.00874703
0.00875075
0.00875513
0.00875851
0.00875767
0.00874931
0.00872231
0.00865059
0.00841294
0.00764639
0.00550599
0.00457321
0.00437237
0.00434716
0.00433713
0.00433019
0.00875078
0.00877087
0.00879424
0.00881808
0.00882167
0.00873588
0.00857045
0.00784141
0.00644948
0.00517435
0.00462808
0.00446624
0.00441652
0.00441499
0.00444045
0.00447156
0.004571
0.00469142
0.00541603
0.00692058
0.00810675
0.0085271
0.00865425
0.00868889
0.00869677
0.00870272
0.00870723
0.00871659
0.00872439
0.0087315
0.00873708
0.00873982
0.00874054
0.00874097
0.00874115
0.00874183
0.00874311
0.00874478
0.00874878
0.00875336
0.00875652
0.00875525
0.0087404
0.00869736
0.0086032
0.00835256
0.00759018
0.00553611
0.00450134
0.00436374
0.00434538
0.00433644
0.00433163
0.00432215
0.00876085
0.00879195
0.00881026
0.00880942
0.00872891
0.00832209
0.00727345
0.0055812
0.00473359
0.00447403
0.00440795
0.00439463
0.00439018
0.00441093
0.00447878
0.00467256
0.00474535
0.0048467
0.00528489
0.00649429
0.00765998
0.00833013
0.00859774
0.00867058
0.00868549
0.00869238
0.00870205
0.00871143
0.0087198
0.00872571
0.00873103
0.00873382
0.00873464
0.00873542
0.00873681
0.00873846
0.00874133
0.00874571
0.00875083
0.00875396
0.00875169
0.00873195
0.00865228
0.00851778
0.00822337
0.00744299
0.00546967
0.00448826
0.00436073
0.00434525
0.00433964
0.00432864
0.00432164
0.00431082
0.00878038
0.00880557
0.00879369
0.00865517
0.00811386
0.00653185
0.0050177
0.00451149
0.0044283
0.0044119
0.00440056
0.00439463
0.00440228
0.00445919
0.00462119
0.00498412
0.00547483
0.00539361
0.00562891
0.0066136
0.00769345
0.0083057
0.0085548
0.00864589
0.00867084
0.00868072
0.00869247
0.00870384
0.00871207
0.00871995
0.00872491
0.00872762
0.00872828
0.00872978
0.00873242
0.00873563
0.00874107
0.00874709
0.00875075
0.00874803
0.00872209
0.00861358
0.00834156
0.00799684
0.00717776
0.00518052
0.00445694
0.00435737
0.00434272
0.00433862
0.00432719
0.00432066
0.00430948
0.00430032
0.00878762
0.00878298
0.00856244
0.0075091
0.00584936
0.00458015
0.00445637
0.00443207
0.00442147
0.00441352
0.00440525
0.00440409
0.00442181
0.00449638
0.00471474
0.00524383
0.00623511
0.00674653
0.00651519
0.00705337
0.00784053
0.00833939
0.00855733
0.00863561
0.00865678
0.0086678
0.00868275
0.00869542
0.00870625
0.00871195
0.00871687
0.00871958
0.00872104
0.00872389
0.00872787
0.00873387
0.00874189
0.00874717
0.0087449
0.00871331
0.00856594
0.00809757
0.00759232
0.00657365
0.00487157
0.00443791
0.00435477
0.0043392
0.00433623
0.00432413
0.0043143
0.00430581
0.00429507
0.00428501
0.00866032
0.00854624
0.00687143
0.0046766
0.00449799
0.00444813
0.00443534
0.00442807
0.00442115
0.00441211
0.00440712
0.00440833
0.00443334
0.00452008
0.00475965
0.0053602
0.00662779
0.00753785
0.00754679
0.00771452
0.00815577
0.00844148
0.00857772
0.00863179
0.00864839
0.00866019
0.00867709
0.00869069
0.00869812
0.00870494
0.00870938
0.00871085
0.00871432
0.00871826
0.00872521
0.00873286
0.00874167
0.00874253
0.00871553
0.00852218
0.00790818
0.00678262
0.0056173
0.00468652
0.00441727
0.00435046
0.00433555
0.00433419
0.00432203
0.00431183
0.00430353
0.00429279
0.00428309
0.00427336
0.00661048
0.00509288
0.00460265
0.00447316
0.00444236
0.00443596
0.0044331
0.00442746
0.00442052
0.0044128
0.00440995
0.00441375
0.00444185
0.0045316
0.0047672
0.00534228
0.0066537
0.00790867
0.00814029
0.00817221
0.00839668
0.00853181
0.008597
0.00862865
0.00864065
0.00865463
0.00867116
0.00868101
0.00868968
0.00869501
0.00869939
0.00870338
0.00870691
0.00871358
0.00872184
0.00873279
0.00873857
0.00872265
0.00854283
0.00763967
0.00585841
0.00490184
0.00456499
0.00439436
0.00434501
0.00433254
0.00433089
0.00431821
0.00430948
0.00429904
0.00428922
0.00427873
0.00426875
0.0042613
0.00480848
0.00454848
0.00446025
0.00444034
0.00443538
0.00443402
0.00443167
0.00442688
0.00442078
0.00441486
0.00441325
0.00442019
0.00445346
0.00454932
0.00477758
0.005281
0.00630693
0.00785825
0.00836411
0.00844222
0.00852924
0.00858109
0.00860996
0.00862499
0.00863457
0.00864961
0.00866559
0.00867384
0.00868246
0.00868772
0.0086909
0.00869299
0.00870025
0.00870914
0.00871969
0.00872998
0.00872749
0.00857231
0.00738738
0.0053169
0.00465704
0.00446562
0.00437885
0.00434226
0.00433129
0.00432286
0.00431973
0.00430469
0.00429588
0.00428502
0.0042742
0.00426448
0.00425553
0.00425009
0.00449305
0.00444667
0.00443536
0.00443313
0.00443433
0.00443322
0.00443135
0.00442718
0.00442157
0.00441659
0.00441575
0.00442359
0.00445829
0.00455611
0.00478457
0.00526087
0.00613003
0.00755698
0.00838236
0.00854086
0.00857856
0.00860447
0.00861371
0.0086232
0.00863081
0.00864874
0.00866014
0.00866447
0.00867264
0.00867733
0.00868054
0.00868447
0.00869204
0.00870371
0.00871527
0.00871433
0.00855947
0.00748163
0.00532644
0.00459584
0.00441919
0.00436364
0.0043394
0.00432883
0.00432146
0.00431466
0.00430196
0.00429398
0.00428129
0.00427073
0.00425903
0.00425019
0.00424298
0.00423994
0.00442876
0.00442439
0.00443062
0.00443326
0.00443364
0.00443327
0.00443126
0.00442764
0.00442218
0.00441703
0.0044163
0.00442343
0.00445288
0.00454043
0.00475552
0.00522206
0.00607738
0.00743263
0.00833765
0.00855596
0.008598
0.00861259
0.00861587
0.00862128
0.00863053
0.00864526
0.00865351
0.0086576
0.00866427
0.00866622
0.00867013
0.00867575
0.00868649
0.00869652
0.00869935
0.00859912
0.0078611
0.00583801
0.00468908
0.00441541
0.00435703
0.00433667
0.00432755
0.00432344
0.00430889
0.00430217
0.0042893
0.00427917
0.00426666
0.00425518
0.00424435
0.00423655
0.00423137
0.00423032
0.00441787
0.00442293
0.00442852
0.00443236
0.00443342
0.00443325
0.00443132
0.00442798
0.00442249
0.00441571
0.004414
0.00441803
0.00443844
0.00450162
0.00465895
0.0050062
0.00572271
0.00704123
0.00817301
0.00857216
0.00858889
0.0086119
0.00861882
0.00862145
0.00863059
0.00864074
0.00864574
0.00864887
0.00865536
0.00865771
0.00866186
0.00866797
0.00867803
0.00868626
0.00867413
0.00847692
0.00746556
0.00542116
0.00455416
0.0043705
0.00433644
0.00432629
0.00431756
0.00431332
0.00429636
0.00429108
0.00427535
0.00426407
0.00425202
0.00423919
0.00423006
0.00422318
0.00422069
0.004222
0.00441586
0.00442246
0.00442879
0.00443234
0.00443337
0.0044333
0.00443122
0.00442803
0.00442217
0.00441572
0.00441354
0.00441675
0.00443416
0.0044885
0.00462153
0.00490282
0.00545274
0.00647819
0.00791484
0.00848041
0.00858685
0.00860462
0.00861594
0.00862368
0.0086289
0.00863606
0.00863902
0.00864295
0.00864702
0.00864787
0.00865204
0.00866087
0.00866856
0.00866924
0.00861724
0.00828708
0.00706309
0.0052027
0.00446626
0.00434548
0.0043232
0.00431594
0.00430938
0.00429956
0.00428613
0.00427567
0.0042613
0.00424916
0.0042363
0.00422381
0.00421613
0.00421145
0.00421042
0.00421423
0.00441562
0.00442362
0.00442937
0.00443206
0.00443316
0.00443317
0.00443102
0.00442719
0.00442031
0.00441301
0.00440974
0.00441173
0.00442493
0.00446955
0.00457719
0.00479867
0.00521886
0.00598981
0.00729339
0.00829754
0.00859527
0.00858717
0.00861825
0.00862153
0.00862847
0.0086294
0.00863242
0.0086345
0.00863774
0.00864037
0.0086458
0.0086495
0.00864792
0.00861188
0.00844742
0.00783331
0.0061917
0.00471057
0.00441722
0.00432286
0.00431566
0.00430416
0.00430213
0.00428112
0.00427824
0.00425691
0.00425031
0.00423171
0.00422082
0.0042093
0.00420251
0.00420105
0.00420019
0.0042093
0.00441639
0.00442495
0.00442967
0.0044319
0.00443278
0.00443232
0.0044301
0.00442535
0.00441819
0.00441033
0.00440619
0.00440759
0.0044198
0.00446185
0.00455883
0.00475274
0.00510461
0.00570999
0.0066955
0.00798838
0.00844634
0.008601
0.00859114
0.00862376
0.00862153
0.00862663
0.00862632
0.00863068
0.00863296
0.00863056
0.00862999
0.00862122
0.0085625
0.00838153
0.00785091
0.00644191
0.00495147
0.00451192
0.0043315
0.00431127
0.00430072
0.00429934
0.00428099
0.00427434
0.0042597
0.00424533
0.00423341
0.00421664
0.0042051
0.00419518
0.00419057
0.00419025
0.00419267
0.0042037
0.00441812
0.00442579
0.00442963
0.00443149
0.00443206
0.00443115
0.00442827
0.00442248
0.00441456
0.00440537
0.00439957
0.00439979
0.00440953
0.00444805
0.00453609
0.00471006
0.00501993
0.00553474
0.00634516
0.00748008
0.0084043
0.00853508
0.00859756
0.0086081
0.0086223
0.00862009
0.00862351
0.0086216
0.00862164
0.00861457
0.00857912
0.00846257
0.0081942
0.00750997
0.00606021
0.00497398
0.00455592
0.00435469
0.00431098
0.00429818
0.00429982
0.00427789
0.00427762
0.00425275
0.00425173
0.0042271
0.00421906
0.00420059
0.00419083
0.00418259
0.0041788
0.00418085
0.00418591
0.00419908
0.00441962
0.00442623
0.00442928
0.00443068
0.00443086
0.00442935
0.00442547
0.00441861
0.00441037
0.00439984
0.00439209
0.00439161
0.00439954
0.00443675
0.00452137
0.00468968
0.0049818
0.0054514
0.00616459
0.00715833
0.00820055
0.00845021
0.00858992
0.00859425
0.00861068
0.00861914
0.00861506
0.00861245
0.00858006
0.00849325
0.00831817
0.00793758
0.00666063
0.00557198
0.00486879
0.00454433
0.0043687
0.00432023
0.00429753
0.00429719
0.00427911
0.00427594
0.00425221
0.00424945
0.00423065
0.00421606
0.00420251
0.00418637
0.00417746
0.00417058
0.00416803
0.00417307
0.00418061
0.0041952
0.0044206
0.00442619
0.00442856
0.0044294
0.00442897
0.00442671
0.00442147
0.00441446
0.0044052
0.00439375
0.00438196
0.00438043
0.00438278
0.00440808
0.00447865
0.00462228
0.00489046
0.00532948
0.00598596
0.00687496
0.00786474
0.00853028
0.00849215
0.00856887
0.00860768
0.00859746
0.00859712
0.00853592
0.00846849
0.00821971
0.00753678
0.00586305
0.00518918
0.00470227
0.00448746
0.00437177
0.00431091
0.00429619
0.00428685
0.00428385
0.00426646
0.00426187
0.0042422
0.00423714
0.00421434
0.00420364
0.00418648
0.0041738
0.00416556
0.00416117
0.00416031
0.00416661
0.00417644
0.00419295
0.00442094
0.00442556
0.00442712
0.00442756
0.00442653
0.00442333
0.00441705
0.00440963
0.00439944
0.00438752
0.00437401
0.00437072
0.00437159
0.00439045
0.00445182
0.00457796
0.00481351
0.00521343
0.00583151
0.0066847
0.00769269
0.00827186
0.00853392
0.00852155
0.00853515
0.00857585
0.00850679
0.00838462
0.0078488
0.0067349
0.0055085
0.00480548
0.00465966
0.00441936
0.00437249
0.0043105
0.00429719
0.00428278
0.0042826
0.0042639
0.00426315
0.00424096
0.00423762
0.00421884
0.00420393
0.00418879
0.00417329
0.00416257
0.00415477
0.00415237
0.00415342
0.00416145
0.00417398
0.00419063
0.00442084
0.00442417
0.0044251
0.00442514
0.0044233
0.00441913
0.00441285
0.00440488
0.00439442
0.00438153
0.0043685
0.00435648
0.00435484
0.00435679
0.00438247
0.0044598
0.00462954
0.00494791
0.00548634
0.00627807
0.00723139
0.00836235
0.00827143
0.00842526
0.00844642
0.00836967
0.00814681
0.00743856
0.00610097
0.00517703
0.00467675
0.00452105
0.00440005
0.00434365
0.00430893
0.00429373
0.00428203
0.00427888
0.00426494
0.00426096
0.00424707
0.00423458
0.00422431
0.00420699
0.00419275
0.00417599
0.00416308
0.00415198
0.00414719
0.00414501
0.00414925
0.00415827
0.00417229
0.00419027
0.00441966
0.00442189
0.00442255
0.004422
0.00441931
0.00441455
0.00440815
0.00440012
0.00438987
0.00437769
0.00436584
0.0043541
0.00434694
0.00434539
0.00435025
0.00437856
0.00445049
0.00460504
0.00490199
0.00541455
0.00619742
0.00694457
0.00805969
0.00778242
0.00781179
0.00759926
0.00669718
0.0055795
0.00490051
0.0045466
0.00445025
0.00436345
0.00432718
0.00430143
0.00428889
0.00428131
0.00427733
0.00426901
0.004257
0.00424709
0.00424212
0.0042237
0.00421459
0.00419669
0.00418154
0.00416582
0.00415324
0.00414469
0.0041411
0.00414053
0.00414656
0.00415658
0.00417246
0.00419126
0.00441715
0.0044189
0.00441927
0.00441795
0.00441473
0.0044098
0.00440361
0.00439555
0.00438554
0.00437517
0.00436432
0.00435522
0.00434521
0.00434061
0.00433952
0.00434533
0.00436782
0.00442108
0.00453139
0.00473528
0.00505806
0.00548864
0.00585068
0.00596481
0.00602198
0.00566873
0.00515528
0.00456732
0.00451152
0.00436248
0.00435721
0.00430858
0.00430065
0.00428499
0.00428236
0.00427266
0.00427213
0.00425681
0.004256
0.00423853
0.00423744
0.00421483
0.00420716
0.00418751
0.00417362
0.00415779
0.00414725
0.00413957
0.00413777
0.00413831
0.00414578
0.00415711
0.00417376
0.00419331
0.00441348
0.00441491
0.00441495
0.00441325
0.00440976
0.00440514
0.00439896
0.00439175
0.00438291
0.00437328
0.00436464
0.00435652
0.00435003
0.00434237
0.00433971
0.00433917
0.0043437
0.00435822
0.00439094
0.00445235
0.00455124
0.00468144
0.00482249
0.00483447
0.00485119
0.00471772
0.00450346
0.00435841
0.00435894
0.00431089
0.0043094
0.00428883
0.00428655
0.00427808
0.00427731
0.00426799
0.00426629
0.00425377
0.00425153
0.00423536
0.00422908
0.00421122
0.0042
0.00418219
0.00416778
0.00415345
0.00414383
0.00413811
0.00413612
0.00413839
0.00414672
0.00415953
0.0041767
0.00419703
0.00440882
0.00441002
0.00440968
0.00440771
0.00440464
0.00440005
0.00439482
0.00438817
0.00438021
0.00437268
0.00436584
0.00435893
0.00435371
0.00434742
0.00434384
0.00434073
0.00433954
0.00434066
0.00434619
0.0043588
0.00438162
0.00441226
0.00444692
0.00444776
0.00444883
0.00439144
0.00433687
0.00430273
0.00430384
0.00429283
0.0042901
0.0042825
0.00427943
0.00427409
0.00427224
0.00426558
0.00426359
0.0042517
0.00424766
0.00423331
0.00422494
0.00421001
0.00419599
0.00417975
0.00416526
0.00415245
0.00414285
0.00413841
0.00413646
0.00413977
0.00414918
0.00416318
0.00418124
0.00420092
0.00440309
0.00440415
0.00440364
0.00440194
0.00439894
0.00439509
0.00439088
0.00438516
0.00437911
0.00437235
0.00436688
0.00436253
0.00435676
0.00435228
0.00434844
0.00434461
0.00434128
0.00433822
0.00433518
0.00433386
0.0043336
0.0043351
0.00433703
0.00433853
0.00432926
0.00431283
0.00429721
0.00429046
0.00428917
0.00428658
0.00428398
0.00427946
0.00427704
0.00427323
0.00427145
0.0042659
0.00426143
0.00425139
0.00424758
0.00423412
0.0042245
0.00421016
0.00419524
0.00417933
0.00416608
0.00415193
0.00414484
0.00413964
0.00413879
0.00414394
0.0041519
0.00416725
0.00418646
0.0042077
0.00439638
0.00439738
0.00439698
0.00439562
0.00439342
0.00439065
0.00438708
0.0043824
0.0043776
0.00437342
0.00436828
0.00436518
0.00435973
0.00435619
0.00435147
0.0043477
0.00434291
0.00433791
0.0043324
0.00432642
0.00432087
0.00431602
0.00431099
0.00430714
0.00429981
0.00429326
0.00428712
0.00428415
0.00428326
0.00428252
0.00428075
0.00427812
0.00427643
0.0042741
0.00427214
0.00426775
0.00426186
0.00425348
0.00424816
0.00423541
0.00422488
0.00421093
0.00419574
0.00418133
0.00416794