/*--------------------------------*- C++ -*----------------------------------*\
  =========                 |
  \\      /  F ield         | OpenFOAM: The Open Source CFD Toolbox
   \\    /   O peration     | Website:  https://openfoam.org
    \\  /    A nd           | Version:  10
     \\/     M anipulation  |
\*---------------------------------------------------------------------------*/
FoamFile
{
    format      ascii;
    class       volScalarField;
    location    "0.599718";
    object      rho;
}
// * * * * * * * * * * * * * * * * * * * * * * * * * * * * * * * * * * * * * //

dimensions      [1 -3 0 0 0 0 0];

internalField   nonuniform List<scalar> 
15984
(
1.02541
1.02621
1.0268
1.02723
1.0276
1.02791
1.02812
1.02831
1.02844
1.0286
1.02883
1.02907
1.02938
1.0297
1.03015
1.03061
1.03119
1.03182
1.03246
1.03324
1.03391
1.03469
1.03547
1.03627
1.03711
1.03789
1.0387
1.03945
1.04018
1.04087
1.04149
1.04205
1.04255
1.04298
1.04335
1.04361
1.04381
1.04395
1.04399
1.04389
1.0438
1.04348
1.04324
1.04273
1.04227
1.04158
1.04095
1.04007
1.03929
1.03821
1.03729
1.03605
1.03501
1.03357
1.02758
1.02856
1.0289
1.02954
1.03007
1.03028
1.03025
1.03032
1.0304
1.03054
1.03071
1.03088
1.0311
1.03137
1.03165
1.03206
1.03248
1.03296
1.0335
1.03407
1.03469
1.03531
1.03602
1.0367
1.03743
1.03814
1.03887
1.03954
1.04022
1.04083
1.0414
1.04192
1.0424
1.04281
1.04316
1.04343
1.04363
1.04378
1.04381
1.04377
1.04365
1.04342
1.04312
1.0427
1.04221
1.04154
1.04099
1.03994
1.03935
1.03798
1.03733
1.03565
1.03495
1.03305
1.03005
1.03066
1.031
1.03138
1.03161
1.03192
1.03208
1.03226
1.03239
1.03247
1.03255
1.03263
1.03275
1.03292
1.0331
1.03338
1.03367
1.03407
1.03446
1.03495
1.03542
1.03598
1.03654
1.03714
1.03777
1.03843
1.03903
1.03968
1.04026
1.04084
1.04138
1.04187
1.04232
1.04272
1.04306
1.04334
1.04355
1.04371
1.04376
1.04374
1.04363
1.04346
1.04313
1.04279
1.04223
1.0417
1.04093
1.04026
1.03913
1.03843
1.03688
1.03616
1.03421
1.0332
1.03126
1.032
1.03281
1.03329
1.03363
1.03391
1.034
1.03412
1.03416
1.03419
1.03423
1.03424
1.0343
1.03437
1.03448
1.03462
1.03484
1.0351
1.03544
1.03575
1.03619
1.03659
1.03711
1.03761
1.03816
1.0387
1.03929
1.03983
1.0404
1.04092
1.04143
1.04191
1.04233
1.04273
1.04307
1.04338
1.04359
1.04377
1.04384
1.04386
1.04377
1.04363
1.04332
1.043
1.04245
1.04193
1.04112
1.04035
1.03944
1.03831
1.03723
1.03588
1.03453
1.03298
1.03241
1.0335
1.03413
1.03476
1.03509
1.0354
1.03561
1.03568
1.03576
1.03577
1.03577
1.03575
1.03572
1.03571
1.03575
1.03581
1.03594
1.03612
1.03633
1.03659
1.03689
1.03722
1.0376
1.03807
1.03852
1.03901
1.03953
1.04005
1.04056
1.04108
1.04155
1.04201
1.04245
1.04285
1.0432
1.04351
1.04375
1.04394
1.04405
1.04408
1.04403
1.04393
1.04364
1.04331
1.04278
1.04225
1.04144
1.0407
1.03964
1.03857
1.0374
1.03594
1.03447
1.03281
1.03355
1.03472
1.03537
1.0361
1.03645
1.03683
1.03702
1.03717
1.03721
1.03721
1.03717
1.03709
1.03702
1.03696
1.03691
1.03693
1.03695
1.03704
1.03717
1.03734
1.03756
1.03781
1.03814
1.03847
1.03889
1.03932
1.03979
1.04028
1.04075
1.04126
1.04174
1.0422
1.04264
1.04306
1.04342
1.04375
1.04402
1.04424
1.04438
1.04445
1.04446
1.04431
1.04408
1.04377
1.04323
1.04272
1.04189
1.04113
1.03998
1.03897
1.03755
1.0361
1.03449
1.03264
1.0345
1.03547
1.0365
1.03705
1.03767
1.03797
1.03826
1.03841
1.03846
1.03846
1.03839
1.0383
1.03819
1.03807
1.03798
1.03789
1.03787
1.03788
1.03792
1.03802
1.03815
1.03834
1.03859
1.0389
1.03925
1.03967
1.04011
1.04056
1.04105
1.04153
1.04202
1.04248
1.04293
1.04336
1.04376
1.04412
1.04443
1.04467
1.04485
1.04494
1.04498
1.04487
1.04469
1.04431
1.04389
1.04321
1.04254
1.04157
1.04053
1.03931
1.03783
1.03633
1.03447
1.03251
1.03486
1.03611
1.03698
1.03785
1.03837
1.03889
1.03919
1.03939
1.03951
1.03952
1.03946
1.03937
1.0392
1.03906
1.03889
1.03876
1.03867
1.03861
1.03859
1.03861
1.0387
1.03885
1.03904
1.0393
1.03962
1.04
1.04043
1.04089
1.04136
1.04185
1.04234
1.04282
1.04331
1.04377
1.0442
1.04459
1.04495
1.04523
1.04545
1.04557
1.04561
1.04557
1.04535
1.04505
1.04457
1.04398
1.04318
1.04224
1.04108
1.0398
1.03825
1.03652
1.03448
1.03238
1.035
1.03646
1.03755
1.03845
1.03915
1.03976
1.04012
1.04038
1.04051
1.04049
1.04044
1.04028
1.04013
1.03991
1.03973
1.03953
1.03937
1.03927
1.03919
1.03917
1.0392
1.0393
1.03946
1.03969
1.04
1.04035
1.04076
1.04123
1.0417
1.04222
1.04273
1.04326
1.04377
1.04428
1.04475
1.04519
1.04558
1.04592
1.04616
1.04634
1.04639
1.04639
1.0462
1.04592
1.04539
1.04484
1.04391
1.04302
1.04168
1.04046
1.0386
1.03677
1.03452
1.03215
1.03456
1.03634
1.03746
1.03874
1.0397
1.04014
1.0407
1.04106
1.04118
1.04113
1.04104
1.04096
1.04078
1.04061
1.04038
1.04016
1.03995
1.03979
1.03968
1.03963
1.03963
1.03969
1.03983
1.04004
1.04032
1.04068
1.04109
1.04158
1.04209
1.04263
1.04322
1.04376
1.04434
1.04489
1.04541
1.04589
1.04634
1.04672
1.04702
1.04724
1.04731
1.04735
1.04717
1.04689
1.04634
1.04577
1.04481
1.04387
1.04236
1.04137
1.03872
1.03713
1.03446
1.03207
1.0349
1.03577
1.03777
1.03859
1.03985
1.04041
1.04104
1.04138
1.04161
1.0418
1.04197
1.04187
1.04156
1.04118
1.04082
1.04058
1.04037
1.04021
1.0401
1.04002
1.03999
1.04003
1.04015
1.04035
1.04063
1.04101
1.04145
1.04197
1.04251
1.0431
1.04373
1.04433
1.04497
1.04558
1.04616
1.0467
1.04719
1.04764
1.048
1.04825
1.04838
1.04841
1.04826
1.04799
1.04743
1.04684
1.04583
1.0448
1.04327
1.04173
1.03939
1.03738
1.03449
1.03245
1.03335
1.03593
1.03688
1.03869
1.03944
1.04054
1.04101
1.04161
1.04209
1.04222
1.0421
1.04184
1.04157
1.04144
1.04123
1.04098
1.04088
1.04076
1.04054
1.04036
1.04023
1.04022
1.04033
1.04056
1.04088
1.04129
1.04178
1.04235
1.04296
1.04362
1.04427
1.04497
1.04566
1.04634
1.04701
1.04762
1.04819
1.04869
1.04909
1.04939
1.04955
1.04959
1.04951
1.04918
1.04866
1.04804
1.04677
1.04601
1.04379
1.04274
1.03971
1.03818
1.03395
1.03321
1.03276
1.035
1.03647
1.03814
1.03918
1.0403
1.04111
1.04173
1.04202
1.04217
1.0422
1.04217
1.04204
1.04179
1.04152
1.0411
1.04091
1.04085
1.04077
1.0406
1.04053
1.04045
1.04052
1.04074
1.04111
1.04159
1.04214
1.04279
1.04346
1.04421
1.04496
1.04573
1.04647
1.04723
1.04795
1.04864
1.04927
1.04982
1.05029
1.05066
1.05085
1.05089
1.05085
1.0505
1.05005
1.04916
1.04826
1.04668
1.04535
1.04257
1.04162
1.03766
1.03797
1.03752
1.03211
1.03347
1.03611
1.03717
1.03916
1.0398
1.04095
1.04147
1.04198
1.04219
1.04224
1.04223
1.04194
1.04185
1.04169
1.04145
1.04107
1.04067
1.0405
1.0404
1.0404
1.04047
1.04066
1.04097
1.04138
1.04189
1.04253
1.04321
1.04399
1.04483
1.04566
1.04653
1.04734
1.04817
1.04897
1.04972
1.05043
1.05108
1.05162
1.05205
1.05228
1.05232
1.0523
1.05197
1.05146
1.05052
1.04945
1.04782
1.04619
1.04362
1.04329
1.03937
1.05255
1.04684
1.02961
1.03313
1.0342
1.03692
1.03783
1.03958
1.04035
1.04126
1.04168
1.04202
1.04213
1.04209
1.04194
1.04168
1.04149
1.04102
1.04088
1.04081
1.04068
1.04051
1.04045
1.04041
1.04058
1.04094
1.04143
1.04207
1.04285
1.04367
1.04455
1.04545
1.04638
1.04734
1.04826
1.04918
1.05007
1.05091
1.05169
1.05242
1.05303
1.05351
1.05378
1.05385
1.05383
1.0535
1.05294
1.05194
1.05073
1.04909
1.0475
1.04464
1.04919
1.04556
1.0981
1.09338
1.02949
1.03061
1.03399
1.03517
1.03759
1.03846
1.03994
1.0406
1.04132
1.04164
1.04179
1.04182
1.04165
1.04149
1.04109
1.04085
1.04066
1.04049
1.04028
1.04015
1.04012
1.04028
1.04049
1.0409
1.04148
1.04222
1.04307
1.04403
1.04505
1.04609
1.04716
1.04825
1.04929
1.05034
1.05135
1.05226
1.0531
1.05388
1.05456
1.05509
1.05539
1.05548
1.05548
1.05511
1.05456
1.05326
1.05227
1.04978
1.04988
1.0467
1.06912
1.07781
1.23633
1.55234
1.02628
1.03039
1.03145
1.03465
1.03587
1.03808
1.03884
1.04005
1.0406
1.04111
1.04132
1.04133
1.04122
1.04097
1.04076
1.04024
1.04012
1.04002
1.03985
1.03972
1.03975
1.03988
1.04022
1.04071
1.04141
1.0423
1.04336
1.04447
1.04566
1.04679
1.04801
1.04919
1.05034
1.05148
1.05258
1.05361
1.05455
1.05541
1.05614
1.05673
1.05706
1.05719
1.05717
1.05685
1.0559
1.05507
1.05307
1.05142
1.05628
1.0594
1.14086
1.33472
1.64723
1.86984
1.02493
1.02781
1.03065
1.03276
1.03511
1.03646
1.03808
1.03916
1.03999
1.04042
1.0407
1.04075
1.04063
1.04039
1.04007
1.03981
1.03938
1.03933
1.03931
1.0392
1.03931
1.0395
1.03995
1.0406
1.04135
1.04234
1.04351
1.04476
1.04608
1.0474
1.04873
1.05011
1.05146
1.05274
1.05395
1.05504
1.05602
1.05689
1.05769
1.05834
1.05878
1.05893
1.05895
1.05846
1.05774
1.05608
1.05531
1.05458
1.08079
1.13531
1.40977
1.80405
1.98763
2.02455
1.0229
1.02586
1.02919
1.03115
1.03408
1.03513
1.03709
1.03808
1.03909
1.03961
1.03993
1.03998
1.0399
1.03967
1.03923
1.03909
1.03884
1.0385
1.03825
1.03833
1.03845
1.0389
1.0393
1.04009
1.04103
1.04215
1.04347
1.04494
1.04654
1.04811
1.04964
1.05114
1.05262
1.05403
1.05539
1.05661
1.05772
1.0587
1.05959
1.06026
1.06073
1.06088
1.06066
1.06019
1.05907
1.05791
1.05807
1.07781
1.14922
1.50529
1.85353
1.99452
2.03955
2.0419
1.02062
1.02413
1.02698
1.03008
1.03186
1.03456
1.03576
1.03731
1.03796
1.0387
1.039
1.03905
1.03893
1.03869
1.03832
1.03792
1.03773
1.03753
1.03728
1.03726
1.03735
1.03796
1.03852
1.03941
1.04059
1.04195
1.04347
1.04513
1.04691
1.04874
1.05054
1.05228
1.0539
1.05542
1.05688
1.05822
1.05943
1.06049
1.06138
1.06204
1.06255
1.06262
1.06231
1.06169
1.06052
1.06051
1.07324
1.15037
1.51615
1.89439
2.04302
2.06887
2.05936
2.04271
1.01956
1.02252
1.02521
1.02822
1.0305
1.03293
1.0344
1.03597
1.03686
1.03756
1.03792
1.03808
1.03789
1.03761
1.03718
1.03676
1.03638
1.03598
1.03587
1.03597
1.0363
1.0368
1.03752
1.03846
1.03975
1.04134
1.04311
1.04502
1.047
1.04915
1.05129
1.0533
1.05514
1.05683
1.05843
1.05987
1.06115
1.06229
1.06319
1.06388
1.06439
1.0644
1.06401
1.06302
1.06239
1.06987
1.1343
1.47938
1.91757
2.06291
2.08005
2.07137
2.05693
2.03971
1.02283
1.02311
1.02472
1.02677
1.0291
1.03106
1.03311
1.03439
1.03563
1.03624
1.03659
1.03668
1.03655
1.03619
1.03576
1.03525
1.03483
1.03443
1.03433
1.03437
1.03467
1.03551
1.03626
1.03739
1.03888
1.04066
1.04261
1.04469
1.04688
1.04915
1.05161
1.05409
1.05626
1.05822
1.05996
1.06151
1.06288
1.0641
1.06502
1.06578
1.06613
1.06604
1.06537
1.06458
1.0677
1.11016
1.4003
1.91411
2.07637
2.09227
2.08295
2.07004
2.05418
2.03543
1.03901
1.03069
1.02793
1.02743
1.02857
1.03006
1.03163
1.03322
1.03413
1.03496
1.0353
1.03541
1.03514
1.03464
1.03399
1.03384
1.03299
1.03334
1.03301
1.03402
1.03479
1.03546
1.0366
1.03827
1.03946
1.04089
1.04283
1.04504
1.04731
1.04951
1.05188
1.05451
1.05705
1.05935
1.0614
1.06312
1.06464
1.06591
1.0669
1.0676
1.06776
1.06749
1.06648
1.06682
1.09038
1.2825
1.88685
2.08551
2.10369
2.09385
2.08148
2.06769
2.05097
2.02927
1.08042
1.05185
1.0383
1.03221
1.03025
1.03012
1.03084
1.03181
1.03267
1.03325
1.03354
1.03359
1.0329
1.03324
1.03201
1.03289
1.03226
1.03513
1.03895
1.03863
1.04097
1.04662
1.04804
1.04828
1.0516
1.04837
1.04629
1.04582
1.04748
1.05004
1.05236
1.05511
1.0579
1.06049
1.06277
1.06471
1.06638
1.06774
1.06876
1.06921
1.06918
1.06861
1.06787
1.07657
1.19261
1.79242
2.09059
2.11369
2.10425
2.09255
2.0809
2.06569
2.04609
2.02128
1.16918
1.0984
1.06096
1.04318
1.03502
1.03198
1.03131
1.03154
1.03199
1.03235
1.03229
1.03245
1.03121
1.03386
1.03213
1.04316
1.04129
1.05103
1.06561
1.07735
1.10605
1.13169
1.13212
1.14391
1.10983
1.09605
1.0755
1.06329
1.0556
1.0528
1.05372
1.05585
1.05869
1.06154
1.06406
1.06623
1.06803
1.06947
1.07038
1.07066
1.07044
1.06924
1.07039
1.12803
1.63694
2.08314
2.12092
2.11383
2.10291
2.09224
2.07928
2.0619
2.03987
2.01048
1.25773
1.15024
1.08909
1.0574
1.04166
1.03467
1.0322
1.0313
1.03104
1.03149
1.03109
1.03342
1.03739
1.04129
1.06295
1.06125
1.1233
1.2118
1.31427
1.39352
1.4853
1.52358
1.52822
1.48625
1.48727
1.33616
1.19103
1.1071
1.06857
1.0572
1.05503
1.05673
1.05949
1.06254
1.06533
1.06771
1.06967
1.07109
1.07175
1.07187
1.07136
1.06986
1.08457
1.42118
2.03109
2.12419
2.12204
2.11239
2.10219
2.09174
2.07656
2.05733
2.03207
1.99706
1.27504
1.15703
1.09076
1.05679
1.04029
1.03334
1.0307
1.0299
1.03067
1.03294
1.03457
1.05361
1.06015
1.13066
1.26859
1.44595
1.59014
1.70871
1.78637
1.83393
1.86238
1.86424
1.86753
1.82095
1.81058
1.68865
1.56225
1.26096
1.12263
1.07435
1.06053
1.05836
1.06042
1.06354
1.06655
1.06909
1.07119
1.07236
1.07291
1.07288
1.07127
1.07682
1.27995
1.92639
2.11963
2.12854
2.12074
2.11111
2.10206
2.08954
2.07291
2.05193
2.02313
1.98265
1.21334
1.11875
1.06841
1.04392
1.03314
1.02832
1.0297
1.03174
1.04157
1.05704
1.11292
1.23485
1.46732
1.66357
1.80099
1.88574
1.931
1.95369
1.96352
1.96688
1.96869
1.96604
1.96238
1.94079
1.93806
1.87097
1.78655
1.50368
1.23499
1.11128
1.0699
1.06057
1.06146
1.06458
1.06775
1.07043
1.07233
1.07338
1.07371
1.07314
1.08023
1.21477
1.82243
2.10331
2.13301
2.1275
2.1188
2.11044
2.10038
2.08666
2.06932
2.04658
2.01481
1.96946
1.10383
1.05696
1.036
1.02631
1.02518
1.03183
1.04533
1.09019
1.17296
1.41954
1.66605
1.83361
1.92241
1.96035
1.97342
1.97357
1.969
1.95964
1.9487
1.94244
1.93722
1.93671
1.94185
1.94207
1.94575
1.92929
1.87332
1.66165
1.31536
1.13354
1.07383
1.06149
1.06227
1.06563
1.06888
1.0716
1.07318
1.07404
1.07495
1.08873
1.22086
1.78332
2.08119
2.13432
2.13282
2.1251
2.11724
2.10906
2.09796
2.08408
2.06601
2.04235
2.00874
1.95977
1.02885
1.01951
1.01891
1.02965
1.05671
1.14959
1.34835
1.6286
1.83624
1.9457
1.98469
1.99207
1.98133
1.96707
1.93582
1.90911
1.84969
1.80617
1.80202
1.78799
1.79185
1.8105
1.84381
1.89292
1.92489
1.92731
1.87752
1.66636
1.30856
1.12838
1.07185
1.06117
1.06295
1.06667
1.07005
1.07237
1.07385
1.07579
1.09426
1.2215
1.75812
2.06135
2.13272
2.13668
2.13034
2.12255
2.11527
2.10607
2.09553
2.0812
2.06309
2.03911
2.00486
1.95457
1.02409
1.05699
1.1365
1.29675
1.53558
1.83021
1.96916
2.00808
2.01395
2.00417
1.98287
1.94341
1.88285
1.78374
1.69527
1.58153
1.4984
1.44526
1.40404
1.40797
1.43362
1.48721
1.55598
1.70862
1.84989
1.8893
1.84615
1.60692
1.26004
1.10832
1.06464
1.0601
1.06368
1.06766
1.0708
1.07277
1.07578
1.10039
1.21166
1.72644
2.03942
2.12844
2.13846
2.13424
2.12712
2.1203
2.11205
2.10282
2.09231
2.07849
2.06099
2.03874
2.00726
1.95956
1.42827
1.62179
1.8455
1.97254
2.01256
2.01933
2.01459
2.0001
1.96811
1.9105
1.82871
1.70269
1.52856
1.38301
1.22575
1.15727
1.13047
1.11469
1.11795
1.13243
1.16461
1.22363
1.36429
1.61451
1.82038
1.87566
1.82721
1.51826
1.17936
1.07531
1.05818
1.06014
1.0645
1.06837
1.07149
1.07879
1.10817
1.18836
1.70569
2.0059
2.12339
2.1386
2.13669
2.13049
2.12399
2.11645
2.1083
2.09849
2.08848
2.07554
2.05885
2.03854
2.01146
1.97194
1.96686
1.99452
2.00677
2.01086
2.00463
1.98426
1.94599
1.88549
1.79488
1.6616
1.48216
1.2676
1.12385
1.07826
1.07273
1.07354
1.07435
1.07869
1.09245
1.10632
1.1354
1.20972
1.38267
1.64545
1.80282
1.7949
1.6313
1.26798
1.09909
1.05891
1.05651
1.06074
1.06509
1.06911
1.0772
1.09767
1.16717
1.71339
1.95776
2.11485
2.1371
2.13816
2.1329
2.12708
2.1204
2.11305
2.10392
2.09483
2.08354
2.07118
2.05514
2.0359
2.01156
1.97816
1.99681
1.99621
1.98694
1.96367
1.92368
1.86337
1.77444
1.64897
1.47944
1.26347
1.10361
1.04539
1.041
1.05133
1.08655
1.15527
1.23664
1.20544
1.14857
1.13619
1.17728
1.29797
1.53665
1.7048
1.79253
1.74139
1.35867
1.12063
1.06161
1.05297
1.05665
1.06222
1.06865
1.07796
1.09462
1.16449
1.71611
1.92698
2.09779
2.13483
2.13886
2.13485
2.12935
2.12367
2.11685
2.10854
2.0998
2.08931
2.07891
2.0661
2.05154
2.03351
2.0118
1.98327
1.96455
1.93933
1.89956
1.84131
1.75963
1.64559
1.49702
1.30871
1.12805
1.04576
1.02207
1.02466
1.05741
1.13973
1.2495
1.33358
1.35712
1.34379
1.31595
1.30475
1.37574
1.516
1.6196
1.68348
1.60627
1.37122
1.13576
1.06321
1.04945
1.05196
1.05665
1.062
1.0682
1.08666
1.18801
1.69728
1.91119
2.08606
2.12671
2.13891
2.13578
2.13068
2.12542
2.11943
2.11182
2.10385
2.0944
2.08451
2.07308
2.06187
2.04867
2.03389
2.01538
1.99337
1.87463
1.81812
1.74193
1.64104
1.51519
1.36578
1.19398
1.07231
1.02142
1.01334
1.01709
1.04166
1.09449
1.19257
1.30905
1.37163
1.3936
1.40662
1.41768
1.44261
1.49183
1.54547
1.58354
1.54
1.31749
1.10331
1.06839
1.04512
1.04832
1.05458
1.06416
1.07901
1.12162
1.22179
1.60831
1.95909
2.05738
2.12768
2.13461
2.13609
2.13122
2.12644
2.12096
2.11428
2.10653
2.09844
2.0888
2.07891
2.06741
2.05635
2.04343
2.03066
2.01622
1.99834
1.7303
1.63811
1.52741
1.40252
1.26874
1.1297
1.04728
1.0111
1.00992
1.00747
1.01985
1.04782
1.09505
1.1662
1.27043
1.3402
1.38497
1.39833
1.42166
1.44215
1.46359
1.4611
1.37493
1.1976
1.10284
1.04113
1.04746
1.04234
1.04967
1.05371
1.06353
1.1031
1.19566
1.63641
1.90777
2.0788
2.11035
2.13419
2.13368
2.1319
2.1263
2.12248
2.11553
2.10941
2.1008
2.09286
2.0828
2.07319
2.06148
2.05041
2.0376
2.02487
2.01085
1.99667
1.54788
1.4346
1.31604
1.20014
1.09521
1.03426
1.00816
1.00733
1.00257
1.0045
1.00966
1.02377
1.04794
1.08773
1.14756
1.21895
1.28162
1.2992
1.3188
1.31522
1.27294
1.20853
1.11312
1.04905
1.05003
1.03276
1.04097
1.04427
1.04996
1.09788
1.15238
1.2365
1.73973
1.89182
2.07396
2.10807
2.13
2.13202
2.13104
2.12628
2.1227
2.11659
2.11092
2.10287
2.09509
2.08601
2.07655
2.06639
2.05525
2.04372
2.03138
2.01875
2.00519
1.99092
1.37079
1.25718
1.15285
1.07349
1.02493
1.00748
1.00796
1.00166
1.00034
1.00032
1.00397
1.01024
1.02036
1.03543
1.05784
1.0829
1.11068
1.11485
1.12261
1.10684
1.08643
1.04852
1.04029
1.02763
1.0356
1.03894
1.05189
1.0672
1.1102
1.10659
1.38016
1.77835
1.91917
2.06267
2.10496
2.12622
2.12894
2.12907
2.1249
2.1229
2.11598
2.1119
2.10366
2.09639
2.08777
2.07871
2.06909
2.05877
2.04784
2.03626
2.02418
2.01181
1.99901
1.98565
1.22586
1.12983
1.05696
1.0199
1.00768
1.00796
1.00183
1.00009
0.999539
0.999478
1.00074
1.0031
1.00647
1.01103
1.01788
1.02778
1.03101
1.03539
1.03691
1.03134
1.02813
1.02195
1.02801
1.03047
1.03812
1.0427
1.05186
1.06888
1.15326
1.67078
1.69389
1.9817
2.03549
2.10612
2.1189
2.12546
2.12592
2.12304
2.1215
2.11554
2.11147
2.10503
2.09739
2.08961
2.08098
2.0714
2.06193
2.05131
2.04059
2.02906
2.01714
2.00464
1.99179
1.9784
1.13661
1.04732
1.01916
1.01091
1.00927
1.00213
1.00048
0.999861
1.00008
1.00032
1.00098
1.00167
1.00272
1.00415
1.00628
1.00887
1.0103
1.01293
1.01394
1.0143
1.01881
1.02233
1.02794
1.033
1.04126
1.06929
1.15028
1.30125
1.65067
1.86676
1.89807
2.06582
2.08376
2.11579
2.12028
2.12209
2.1211
2.11874
2.11532
2.10987
2.10565
2.097
2.09077
2.08169
2.07314
2.06362
2.05394
2.04355
2.03257
2.02109
2.00897
1.99667
1.98401
1.97113
1.08803
1.03442
1.01366
1.01327
1.00361
1.00151
0.999891
1.00091
1.0014
1.00228
1.00304
1.00357
1.00409
1.00475
1.00582
1.00735
1.00937
1.01206
1.01544
1.01977
1.02579
1.03381
1.04603
1.06672
1.1097
1.19457
1.38828
1.6865
1.92935
1.97272
2.03491
2.08807
2.11103
2.11501
2.11786
2.11789
2.1148
2.11378
2.10745
2.10501
2.09603
2.09226
2.08152
2.07471
2.06455
2.05572
2.0453
2.0353
2.02423
2.01323
2.00143
1.98934
1.97663
1.96353
1.08156
1.00964
1.0192
1.00641
1.00505
1.00005
1.00123
1.00148
1.00298
1.00403
1.00516
1.00623
1.00731
1.00861
1.01022
1.01224
1.01481
1.01822
1.02212
1.02747
1.03452
1.04574
1.06864
1.1208
1.27095
1.5306
1.84802
1.8723
2.02572
2.03521
2.0904
2.10251
2.11125
2.11236
2.11391
2.11172
2.11121
2.10559
2.10387
2.09538
2.09179
2.08163
2.07468
2.0653
2.05605
2.04631
2.0362
2.02571
2.01484
2.00358
1.99197
1.98005
1.96774
1.95494
1.06795
1.03556
1.00747
1.01074
1.00334
1.00044
1.00257
1.00292
1.0046
1.00613
1.00784
1.00951
1.01132
1.01337
1.0157
1.01843
1.02205
1.02727
1.03489
1.04837
1.07293
1.11768
1.20026
1.39048
1.62321
1.89308
1.90381
2.03108
2.04848
2.0869
2.0983
2.10574
2.10873
2.10984
2.10949
2.10709
2.10468
2.10032
2.09548
2.0888
2.08211
2.07351
2.06553
2.0555
2.04621
2.03572
2.0254
2.01451
2.0037
1.99265
1.98149
1.96997
1.95788
1.94511
1.12941
1.03588
1.01566
1.01391
1.00559
1.00438
1.00426
1.00491
1.00736
1.00923
1.01147
1.01377
1.01634
1.01925
1.02314
1.0281
1.03536
1.04632
1.06412
1.09514
1.14877
1.25617
1.47502
1.70996
1.93621
1.95871
2.04436
2.05941
2.08632
2.09418
2.10091
2.10471
2.10573
2.1057
2.10291
2.10256
2.09718
2.09451
2.08688
2.08136
2.07322
2.06462
2.05579
2.04558
2.03584
2.02525
2.01488
2.00414
1.99337
1.98227
1.97095
1.9591
1.94683
1.93388
1.24142
1.10648
1.02064
1.02412
1.0163
1.00696
1.00807
1.00843
1.01091
1.01323
1.01602
1.01939
1.02311
1.02778
1.03463
1.04365
1.05793
1.08075
1.11948
1.18984
1.32726
1.55003
1.80799
1.89584
2.0057
2.01266
2.06831
2.07457
2.09196
2.09549
2.10049
2.10118
2.10254
2.10032
2.10028
2.09491
2.09303
2.08515
2.08007
2.07276
2.06402
2.05499
2.04506
2.03466
2.02434
2.01332
2.0025
1.9914
1.98047
1.96928
1.95799
1.94618
1.9339
1.92093
1.44094
1.25793
1.12795
1.03569
1.04044
1.02749
1.0187
1.0195
1.01885
1.02203
1.02523
1.03053
1.03648
1.04496
1.05776
1.07608
1.10597
1.15619
1.25012
1.41876
1.62764
1.8112
1.92196
2.0131
2.01932
2.06765
2.07289
2.08951
2.09281
2.09784
2.09864
2.10036
2.09889
2.09667
2.09395
2.09061
2.08485
2.07877
2.07203
2.06332
2.05418
2.04432
2.03374
2.02293
2.01152
1.9999
1.98883
1.977
1.96587
1.95429
1.94302
1.9311
1.91894
1.90588
1.7039
1.55153
1.36759
1.20398
1.12553
1.07977
1.07996
1.05282
1.05541
1.05339
1.0568
1.06573
1.07808
1.09404
1.12221
1.16554
1.24215
1.36959
1.52193
1.69526
1.84723
1.99123
1.9953
2.04385
2.05773
2.07347
2.09031
2.0912
2.09697
2.09691
2.09797
2.09724
2.09502
2.09222
2.09035
2.08325
2.07945
2.07106
2.06397
2.05392
2.04469
2.03312
2.02167
2.00933
1.99712
1.9857
1.97229
1.9609
1.94721
1.93629
1.92341
1.91263
1.9002
1.88714
1.85722
1.79133
1.69809
1.58247
1.45602
1.34862
1.24396
1.25003
1.20587
1.21532
1.21433
1.23124
1.26359
1.29326
1.35892
1.43933
1.54168
1.65316
1.78925
1.90437
1.9832
2.04113
2.0403
2.0688
2.0741
2.08849
2.09309
2.09616
2.09711
2.09756
2.09606
2.09515
2.09173
2.0898
2.08433
2.07909
2.07204
2.06374
2.05501
2.04448
2.03362
2.02111
2.00882
1.9961
1.98294
1.96827
1.95512
1.94136
1.92878
1.91594
1.90374
1.8914
1.87842
1.86375
1.93292
1.91101
1.87626
1.82817
1.769
1.7056
1.65801
1.60595
1.58613
1.56146
1.5704
1.57359
1.59792
1.61959
1.67125
1.73773
1.80564
1.8841
1.96197
2.01645
2.0467
2.06806
2.06965
2.08582
2.08749
2.09569
2.09638
2.09848
2.09747
2.09753
2.09483
2.09363
2.08889
2.08631
2.07913
2.07476
2.06521
2.05803
2.04657
2.03609
2.02289
2.00969
1.99524
1.98014
1.96476
1.94926
1.9336
1.91909
1.90494
1.89237
1.88138
1.8708
1.85862
1.84409
1.96106
1.95866
1.95184
1.94016
1.92322
1.90125
1.87877
1.85866
1.84464
1.83127
1.84111
1.84156
1.84997
1.86875
1.89731
1.94056
1.97446
2.01473
2.04827
2.06896
2.07963
2.08887
2.0888
2.0976
2.09786
2.101
2.10056
2.10055
2.09907
2.09764
2.09475
2.09189
2.08727
2.08234
2.07603
2.06859
2.06002
2.05047
2.03848
2.02578
2.01118
1.99608
1.98049
1.96339
1.94702
1.93086
1.91503
1.90057
1.88795
1.87547
1.86457
1.85186
1.83829
1.82002
1.9719
1.97589
1.97914
1.98129
1.98181
1.98061
1.97877
1.97647
1.97618
1.97873
1.98144
1.98563
1.99583
2.00646
2.02392
2.04557
2.06033
2.07755
2.0899
2.09713
2.10064
2.10385
2.10511
2.10768
2.10546
2.10661
2.10403
2.10364
2.10033
2.09877
2.09425
2.09169
2.08508
2.08114
2.07181
2.06609
2.05388
2.04428
2.02975
2.01638
1.99932
1.98327
1.9648
1.94686
1.92872
1.90952
1.89364
1.87946
1.86731
1.85764
1.84974
1.84239
1.83478
1.82053
1.97644
1.98301
1.99019
1.99745
2.00451
2.01148
2.01837
2.02523
2.03246
2.03971
2.04551
2.0562
2.06387
2.07401
2.0844
2.09467
2.10243
2.1097
2.11369
2.11669
2.11693
2.11726
2.11666
2.11615
2.11221
2.11187
2.10787
2.1066
2.10251
2.10023
2.09467
2.09133
2.08431
2.0791
2.06995
2.06187
2.04977
2.03763
2.02254
2.00637
1.98888
1.9694
1.94957
1.92778
1.90712
1.89099
1.87601
1.86435
1.85783
1.85602
1.85825
1.86173
1.86274
1.85712
1.97876
1.98689
1.99568
2.00488
2.01523
2.02529
2.03573
2.04647
2.05675
2.06736
2.07795
2.0877
2.09721
2.10608
2.11452
2.1213
2.12583
2.1292
2.13087
2.13136
2.12962
2.12942
2.12547
2.12383
2.11893
2.11664
2.11246
2.10966
2.10538
2.10164
2.0961
2.09186
2.08444
2.07833
2.06831
2.0594
2.04576
2.03318
2.01541
1.99876
1.97746
1.95588
1.93264
1.91104
1.8919
1.87593
1.86487
1.86114
1.86399
1.87049
1.87593
1.87892
1.87844
1.87158
1.03235
1.03092
1.02942
1.0279
1.02627
1.02462
1.02286
1.02108
1.01916
1.0172
1.01517
1.01308
1.01094
1.00874
1.00653
1.00424
1.00199
0.999688
0.997428
0.995204
1.0322
1.03007
1.02878
1.02714
1.02537
1.02355
1.0217
1.01973
1.01766
1.0155
1.01328
1.01099
1.00868
1.00628
1.00393
1.00149
0.999135
0.996749
0.994434
0.992121
1.03163
1.03005
1.02831
1.02647
1.02454
1.02253
1.02043
1.01821
1.01596
1.01358
1.01119
1.00872
1.00623
1.00379
1.00112
0.998869
0.996087
0.993905
0.991273
0.98923
1.03129
1.02953
1.0276
1.02563
1.02353
1.02131
1.01903
1.01662
1.01415
1.01157
1.00899
1.00626
1.00383
1.00069
0.998992
0.994942
0.993977
0.990028
0.988963
0.98549
1.031
1.02904
1.02703
1.02478
1.0225
1.02002
1.01753
1.01485
1.01217
1.00937
1.0065
1.00385
1.00055
0.998806
0.994273
0.993862
0.988975
0.988737
0.983808
0.984214
1.03069
1.02858
1.02629
1.02384
1.02128
1.01858
1.01576
1.01289
1.00989
1.00692
1.00381
1.00088
0.997791
0.995031
0.992256
0.989061
0.987587
0.983168
0.983238
0.978537
1.0304
1.02799
1.02545
1.02276
1.01986
1.01688
1.01376
1.01058
1.00733
1.00402
1.00091
0.997316
0.994959
0.990738
0.989071
0.985491
0.983465
0.980759
0.978689
0.976604
1.02992
1.02732
1.0245
1.02141
1.01822
1.01481
1.01139
1.00781
1.00427
1.00076
0.997135
0.993916
0.990519
0.987493
0.984649
0.981828
0.979447
0.976939
0.975005
0.973121
1.02945
1.02652
1.02331
1.01977
1.01615
1.01227
1.00853
1.00447
1.00071
0.996785
0.99293
0.989444
0.986028
0.982915
0.98013
0.977693
0.974959
0.972898
0.970949
0.969516
1.02892
1.02566
1.02203
1.01806
1.01413
1.01015
1.00624
1.0017
0.998008
0.992061
0.989154
0.983456
0.98118
0.976737
0.974979
0.972048
0.970357
0.968401
0.966922
0.965286
1.02761
1.02567
1.021
1.01806
1.01571
1.01382
1.0112
1.00828
1.00323
0.9958
0.988435
0.983145
0.976081
0.973605
0.969203
0.967354
0.964009
0.963066
0.962122
0.962146
1.02749
1.0303
1.02299
1.03129
1.03905
1.04777
1.05375
1.05938
1.05145
1.03591
1.0289
0.997632
0.998822
0.974048
0.968009
0.96143
0.958924
0.957067
0.955243
0.95595
1.03105
1.04912
1.06798
1.09965
1.15219
1.20158
1.2445
1.27796
1.26343
1.26234
1.17984
1.17
1.0449
1.03551
0.994056
0.97599
0.957262
0.953133
0.952194
0.951788
1.08405
1.13611
1.25443
1.39705
1.53295
1.61412
1.66723
1.67567
1.65991
1.60928
1.58972
1.45033
1.52453
1.27114
1.11536
1.01546
0.996678
0.964497
0.947563
0.944624
1.31577
1.53206
1.699
1.81152
1.85056
1.85957
1.84342
1.81101
1.78966
1.75005
1.71274
1.68305
1.60757
1.54273
1.47424
1.35086
1.045
1.01167
0.980916
0.958441
1.70537
1.85768
1.92962
1.94396
1.92374
1.88853
1.86425
1.79726
1.77585
1.70472
1.68429
1.66025
1.63405
1.627
1.56442
1.43843
1.62731
1.14241
0.997715
0.971052
1.99102
2.00331
1.98392
1.95862
1.92208
1.88097
1.78017
1.75626
1.63436
1.52337
1.47841
1.46261
1.49369
1.54272
1.53338
1.53487
1.44409
1.54001
1.28394
1.03093
2.01594
2.00324
1.98031
1.94542
1.9042
1.8309
1.77358
1.6351
1.5137
1.39642
1.30462
1.26708
1.25421
1.30703
1.41337
1.4709
1.47148
1.45217
1.47288
1.20267
2.02598
2.00324
1.97448
1.93826
1.8875
1.82851
1.73079
1.61475
1.48349
1.35794
1.25992
1.20021
1.17926
1.17822
1.21012
1.34495
1.43042
1.44002
1.44793
1.3511
2.02213
1.99803
1.96889
1.93119
1.88546
1.8241
1.74421
1.62933
1.49106
1.34798
1.24291
1.18352
1.15001
1.14284
1.13873
1.19769
1.32254
1.38641
1.41985
1.39223
2.01833
1.99298
1.96188
1.92317
1.87532
1.81872
1.74763
1.66497
1.57155
1.43125
1.28388
1.19826
1.17248
1.15034
1.15112
1.1696
1.27788
1.35279
1.39857
1.39423
2.01195
1.98318
1.94707
1.90351
1.85141
1.79338
1.72821
1.65704
1.58345
1.49973
1.36383
1.23001
1.17902
1.19769
1.19428
1.21113
1.27414
1.34871
1.38849
1.39226
2.00229
1.96798
1.92493
1.87266
1.81159
1.74717
1.68309
1.62451
1.57024
1.50916
1.43453
1.29049
1.1631
1.18189
1.25542
1.28527
1.32559
1.35859
1.38606
1.38933
1.98879
1.94642
1.89203
1.8241
1.74733
1.66757
1.59558
1.54544
1.51512
1.49022
1.44938
1.38763
1.21763
1.11297
1.25379
1.31001
1.34824
1.36884
1.3824
1.38624
1.97065
1.91707
1.84584
1.75723
1.65554
1.55328
1.45742
1.40331
1.38357
1.39864
1.41906
1.40889
1.34719
1.15514
1.12938
1.28542
1.34412
1.36487
1.38414
1.36064
1.94869
1.88176
1.79206
1.67965
1.55368
1.42433
1.30821
1.2166
1.19022
1.20069
1.27873
1.3727
1.39342
1.29156
1.12657
1.15117
1.28417
1.3383
1.34129
1.33068
1.92576
1.84596
1.73985
1.61048
1.46516
1.32065
1.18901
1.09328
1.03998
1.03512
1.06365
1.19327
1.35123
1.37059
1.24088
1.11368
1.14465
1.22145
1.26372
1.20751
1.9042
1.81263
1.69258
1.54932
1.3929
1.24171
1.11793
1.03612
1.00535
0.992522
1.00214
1.04222
1.17342
1.31997
1.3288
1.1737
1.08548
1.09574
1.11968
1.10432
1.88812
1.78638
1.65271
1.49317
1.32706
1.1724
1.06256
1.00574
0.987525
0.986454
0.993773
1.01882
1.08069
1.20459
1.26474
1.24066
1.10717
1.04159
1.03355
1.0281
1.88041
1.77413
1.6314
1.46091
1.28551
1.13582
1.02819
0.994007
0.987846
0.987813
1.00774
1.03175
1.07337
1.15123
1.21644
1.2295
1.16702
1.05564
1.00477
0.987914
1.88555
1.77498
1.62597
1.45009
1.26821
1.10136
1.03383
0.992275
0.982074
0.998921
1.02812
1.07879
1.11631
1.16255
1.20131
1.21436
1.19327
1.10916
1.02464
0.98225
1.91048
1.81374
1.67064
1.48546
1.28617
1.11728
0.996506
0.997012
0.981445
0.999433
1.04069
1.10246
1.16197
1.22208
1.21767
1.23297
1.22049
1.17062
1.089
1.02043
1.92892
1.85265
1.73629
1.57336
1.37473
1.17214
1.06101
0.973601
0.980187
0.976443
1.01706
1.0902
1.17127
1.20509
1.24606
1.23811
1.22712
1.20082
1.13486
1.07563
1.94318
1.88373
1.79318
1.66044
1.48512
1.28862
1.12355
0.977219
0.987364
0.95932
0.961126
0.995418
1.06779
1.13219
1.22073
1.20944
1.21838
1.1902
1.13983
1.07989
1.96422
1.92344
1.86192
1.76883
1.63165
1.45099
1.25365
1.10919
0.961747
0.977427
0.950343
0.954963
0.958187
1.0041
1.06022
1.0933
1.12951
1.12206
1.09903
1.04339
1.97753
1.95042
1.91486
1.86183
1.78395
1.66712
1.50159
1.29816
1.1094
1.03385
0.930499
0.955349
0.944927
0.938091
0.94766
0.964792
0.979595
0.991343
0.988421
0.974007
1.98001
1.96109
1.937
1.90946
1.87069
1.81398
1.72903
1.60733
1.44882
1.24497
1.12945
0.926514
0.990909
0.948327
0.947568
0.933465
0.94549
0.948765
0.960003
0.95935
1.97587
1.95995
1.94292
1.92132
1.89836
1.86953
1.83358
1.78669
1.71443
1.62355
1.49549
1.35221
1.13467
1.04717
0.981361
0.974713
0.976656
0.963762
0.955089
0.97594
1.97155
1.95658
1.94087
1.92475
1.90805
1.89003
1.87063
1.84826
1.82908
1.79988
1.76618
1.71943
1.65902
1.56585
1.43939
1.29097
1.18539
1.09923
1.09469
1.04161