/*--------------------------------*- C++ -*----------------------------------*\
  =========                 |
  \\      /  F ield         | OpenFOAM: The Open Source CFD Toolbox
   \\    /   O peration     | Website:  https://openfoam.org
    \\  /    A nd           | Version:  10
     \\/     M anipulation  |
\*---------------------------------------------------------------------------*/
FoamFile
{
    format      ascii;
    class       volScalarField;
    location    "0.599718";
    object      T;
}
// * * * * * * * * * * * * * * * * * * * * * * * * * * * * * * * * * * * * * //

dimensions      [0 0 0 1 0 0 0];

internalField   nonuniform List<scalar> 
15984
(
0.00880804
0.0088102
0.00881219
0.00881392
0.00881491
0.00881549
0.00881625
0.0088169
0.00881789
0.00881884
0.0088195
0.00882058
0.0088216
0.00882324
0.00882456
0.00882641
0.00882798
0.00882985
0.00883218
0.00883389
0.00883692
0.00883935
0.00884208
0.00884475
0.00884704
0.00884977
0.00885203
0.00885442
0.00885664
0.00885862
0.00886057
0.0088623
0.00886386
0.00886517
0.00886608
0.00886697
0.00886735
0.00886727
0.00886699
0.00886685
0.0088655
0.00886499
0.00886263
0.00886155
0.00885887
0.00885716
0.00885379
0.0088516
0.00884752
0.00884499
0.00884019
0.00883724
0.00883186
0.00882895
0.00881548
0.00881654
0.00882068
0.00882069
0.00882042
0.0088216
0.00882396
0.00882522
0.00882609
0.00882641
0.00882664
0.00882722
0.00882792
0.00882874
0.0088301
0.00883098
0.00883249
0.00883413
0.00883576
0.00883777
0.00883984
0.0088423
0.00884419
0.00884662
0.00884874
0.00885092
0.0088529
0.0088551
0.00885696
0.00885894
0.00886084
0.00886248
0.00886386
0.00886507
0.00886602
0.0088668
0.00886723
0.00886717
0.00886708
0.00886658
0.0088657
0.00886464
0.00886302
0.00886139
0.00885911
0.00885729
0.00885325
0.00885237
0.00884652
0.00884604
0.00883862
0.00883872
0.0088297
0.0088297
0.0088175
0.00882191
0.00882656
0.00882909
0.00883143
0.00883179
0.00883242
0.00883234
0.00883232
0.00883247
0.00883271
0.00883315
0.00883364
0.00883422
0.00883518
0.00883586
0.00883712
0.00883804
0.00883966
0.00884094
0.00884293
0.00884455
0.0088466
0.00884848
0.00885039
0.00885211
0.00885427
0.00885591
0.00885793
0.0088596
0.00886129
0.00886293
0.00886426
0.00886542
0.0088664
0.00886708
0.00886755
0.00886752
0.00886741
0.00886697
0.00886623
0.00886487
0.00886372
0.00886152
0.00885997
0.00885701
0.00885484
0.00885058
0.00884901
0.00884252
0.00884206
0.00883334
0.00883383
0.00882515
0.00882697
0.00883089
0.00883211
0.00883414
0.00883581
0.0088366
0.00883796
0.00883816
0.00883856
0.00883868
0.00883862
0.00883887
0.00883897
0.00883936
0.00883979
0.00884051
0.00884109
0.00884192
0.0088427
0.00884426
0.00884528
0.00884711
0.00884838
0.00885018
0.00885171
0.00885358
0.00885509
0.00885705
0.0088586
0.00886043
0.00886196
0.00886345
0.00886492
0.00886602
0.008867
0.00886759
0.00886812
0.00886813
0.00886812
0.00886755
0.00886687
0.00886555
0.00886439
0.00886219
0.00886063
0.00885761
0.00885559
0.00885193
0.00884812
0.00884478
0.0088396
0.00883533
0.00882967
0.00882425
0.00883361
0.00883543
0.00883889
0.00884026
0.00884257
0.00884337
0.00884383
0.00884451
0.00884438
0.00884428
0.00884412
0.00884393
0.00884405
0.00884413
0.00884422
0.00884448
0.00884476
0.00884516
0.00884586
0.00884676
0.00884785
0.00884921
0.00885071
0.00885182
0.0088534
0.00885501
0.00885647
0.00885807
0.00885971
0.00886125
0.00886287
0.00886444
0.00886574
0.00886688
0.00886788
0.00886855
0.00886911
0.00886925
0.00886914
0.00886875
0.00886804
0.00886662
0.00886553
0.00886352
0.00886186
0.0088588
0.00885664
0.00885243
0.00884937
0.00884489
0.00883961
0.00883513
0.00882919
0.00882321
0.00883703
0.00883918
0.00884335
0.00884479
0.00884746
0.00884819
0.0088491
0.00884926
0.00884939
0.00884922
0.00884893
0.00884881
0.00884852
0.00884829
0.00884824
0.00884798
0.00884812
0.00884829
0.0088486
0.00884924
0.00885004
0.00885119
0.00885223
0.00885376
0.00885496
0.00885653
0.00885793
0.00885942
0.0088611
0.00886249
0.00886406
0.00886555
0.00886694
0.00886809
0.00886917
0.00886996
0.00887052
0.00887079
0.0088707
0.0088703
0.00886942
0.00886857
0.00886714
0.00886513
0.00886352
0.00886023
0.00885801
0.0088535
0.00885066
0.0088448
0.00884064
0.00883485
0.00882855
0.00882238
0.00883863
0.00884364
0.00884566
0.00884955
0.00885082
0.00885289
0.00885349
0.00885391
0.00885403
0.00885376
0.0088535
0.00885304
0.00885258
0.00885214
0.00885168
0.00885151
0.00885111
0.00885104
0.00885128
0.00885155
0.00885234
0.00885322
0.00885424
0.00885535
0.00885661
0.00885778
0.00885913
0.00886069
0.00886211
0.00886376
0.00886525
0.00886688
0.00886834
0.00886965
0.00887074
0.00887167
0.00887227
0.00887268
0.00887264
0.00887243
0.00887154
0.00887065
0.00886902
0.00886761
0.00886493
0.00886293
0.00885897
0.0088558
0.00885125
0.00884629
0.00884137
0.00883455
0.00882856
0.00882123
0.00884171
0.00884579
0.00885043
0.00885275
0.00885587
0.00885694
0.00885804
0.0088584
0.00885823
0.00885792
0.00885739
0.00885663
0.00885619
0.00885544
0.00885496
0.00885435
0.00885388
0.00885358
0.00885352
0.00885377
0.0088542
0.00885478
0.00885573
0.00885676
0.00885794
0.00885914
0.00886048
0.00886189
0.00886351
0.0088652
0.00886688
0.00886865
0.00887014
0.00887152
0.00887281
0.00887381
0.00887447
0.00887495
0.00887506
0.00887489
0.00887426
0.00887318
0.00887195
0.00886995
0.00886771
0.00886467
0.0088614
0.00885734
0.00885306
0.00884743
0.00884172
0.00883512
0.00882861
0.00881997
0.00884329
0.00884694
0.00885122
0.00885466
0.00885734
0.00885866
0.00886003
0.00886047
0.00886048
0.00886057
0.00886004
0.00885965
0.00885873
0.00885816
0.00885726
0.00885666
0.00885606
0.00885541
0.00885525
0.00885531
0.00885558
0.00885608
0.00885691
0.00885793
0.00885897
0.00886036
0.00886183
0.00886335
0.00886516
0.00886683
0.00886872
0.00887048
0.0088722
0.00887374
0.00887519
0.00887633
0.0088772
0.00887771
0.008878
0.00887783
0.00887738
0.00887617
0.00887491
0.00887264
0.00887076
0.00886709
0.00886445
0.00885923
0.00885541
0.00884805
0.00884341
0.00883568
0.00882851
0.00881942
0.00884623
0.00884884
0.00885457
0.00885611
0.00885799
0.00886188
0.00886245
0.00886274
0.00886333
0.00886392
0.00886379
0.00886262
0.00886179
0.00886043
0.00885945
0.00885854
0.00885781
0.00885714
0.00885668
0.00885651
0.00885664
0.00885714
0.00885787
0.00885889
0.00886018
0.00886158
0.00886324
0.00886485
0.00886675
0.00886873
0.0088705
0.0088727
0.00887449
0.00887623
0.00887783
0.00887925
0.00888025
0.00888094
0.00888131
0.00888114
0.00888092
0.00887957
0.00887836
0.0088761
0.00887414
0.00887026
0.00886736
0.00886167
0.0088582
0.00884747
0.00884771
0.0088357
0.00882938
0.00881717
0.00883898
0.00885142
0.00885131
0.00885845
0.00885919
0.00886328
0.00886429
0.00886559
0.00886584
0.00886476
0.00886259
0.00886163
0.00886181
0.00886194
0.00886167
0.00886051
0.00885935
0.00885831
0.00885746
0.00885711
0.00885723
0.00885769
0.00885846
0.00885964
0.00886109
0.00886259
0.00886443
0.0088662
0.00886839
0.0088706
0.00887268
0.00887513
0.00887718
0.00887922
0.00888109
0.00888271
0.00888392
0.00888466
0.00888501
0.00888504
0.0088847
0.00888361
0.00888226
0.00887987
0.00887776
0.00887363
0.00887043
0.0088646
0.00886002
0.00885236
0.00884793
0.00883692
0.00882942
0.00881073
0.0088447
0.00884446
0.00885519
0.00885567
0.00886249
0.00886325
0.00886679
0.00886683
0.00886561
0.00886557
0.00886614
0.00886655
0.00886633
0.00886415
0.00886235
0.00886094
0.00885848
0.0088567
0.0088565
0.00885683
0.0088577
0.00885849
0.0088595
0.00886063
0.00886215
0.00886382
0.00886586
0.00886786
0.00887027
0.00887264
0.00887535
0.00887786
0.00888029
0.00888261
0.00888461
0.00888643
0.0088878
0.00888868
0.0088893
0.00888933
0.00888906
0.00888809
0.00888628
0.00888428
0.00888149
0.00887707
0.00887532
0.00886615
0.00886601
0.00885249
0.00885172
0.00883408
0.00883469
0.00880111
0.00883906
0.00884376
0.00885217
0.0088558
0.00886176
0.00886388
0.00886584
0.00886655
0.00886779
0.00886809
0.00886765
0.00886638
0.00886492
0.00886369
0.00886218
0.00886199
0.00885999
0.00885755
0.0088559
0.00885607
0.00885644
0.00885801
0.00885958
0.00886123
0.00886284
0.00886472
0.00886694
0.00886926
0.00887202
0.00887469
0.0088776
0.00888046
0.00888347
0.00888612
0.00888852
0.00889056
0.00889223
0.00889342
0.00889402
0.00889396
0.00889368
0.00889289
0.00889076
0.00888875
0.00888506
0.00888231
0.00887661
0.00887321
0.00886404
0.00886314
0.00884257
0.00884278
0.00880244
0.00876255
0.00883088
0.00884531
0.00884605
0.00885686
0.00885659
0.00886429
0.00886466
0.00886745
0.00886749
0.00886792
0.00886774
0.00886651
0.00886634
0.00886374
0.00886118
0.00885918
0.00885869
0.00885885
0.008858
0.0088575
0.00885751
0.00885801
0.00885902
0.00886053
0.0088626
0.00886506
0.00886756
0.0088707
0.00887379
0.00887694
0.0088804
0.00888365
0.00888726
0.0088903
0.00889305
0.00889544
0.00889724
0.00889832
0.00889887
0.00889881
0.00889852
0.00889784
0.00889558
0.00889323
0.00888961
0.00888659
0.00888138
0.0088771
0.00886883
0.00886393
0.00883593
0.00883251
0.00868392
0.00868382
0.00883556
0.00883416
0.00885044
0.00884937
0.00886018
0.0088601
0.00886506
0.0088656
0.0088673
0.00886725
0.00886693
0.00886618
0.00886493
0.0088637
0.00886121
0.00886111
0.00885835
0.00885573
0.00885442
0.00885475
0.00885537
0.00885731
0.00885908
0.00886101
0.00886333
0.00886587
0.00886845
0.00887181
0.00887543
0.00887951
0.00888359
0.00888749
0.00889152
0.00889504
0.00889804
0.00890061
0.00890256
0.00890375
0.00890434
0.00890422
0.0089039
0.00890307
0.00890066
0.00889808
0.0088944
0.00889124
0.00888614
0.00888054
0.00887033
0.0088655
0.00879442
0.00878509
0.00832504
0.00831743
0.00881821
0.00883906
0.00883813
0.00885238
0.00885226
0.00886135
0.00886167
0.0088654
0.00886556
0.00886624
0.00886598
0.00886493
0.00886387
0.00886172
0.00886104
0.00885877
0.00885635
0.00885448
0.00885395
0.00885415
0.00885487
0.00885557
0.00885795
0.00886038
0.00886317
0.00886626
0.00886977
0.00887354
0.00887765
0.00888225
0.00888688
0.00889128
0.00889572
0.00889946
0.00890268
0.00890558
0.00890782
0.00890923
0.00890984
0.0089097
0.00890934
0.00890837
0.00890573
0.0089031
0.00889884
0.00889735
0.00888928
0.00888963
0.00886348
0.00885903
0.00863965
0.00852764
0.00738792
0.00584718
0.00882442
0.008823
0.00884347
0.00884281
0.00885511
0.00885449
0.00886221
0.00886245
0.0088649
0.00886462
0.00886427
0.00886347
0.00886195
0.00886053
0.00885799
0.00885806
0.00885495
0.00885243
0.00885175
0.00885214
0.0088528
0.00885457
0.00885675
0.00885976
0.00886294
0.00886637
0.00886993
0.00887431
0.00887899
0.00888468
0.00888991
0.00889537
0.00890052
0.00890498
0.00890869
0.00891167
0.00891381
0.00891514
0.00891574
0.00891549
0.00891504
0.00891372
0.00891103
0.00890762
0.00890615
0.00889986
0.00889926
0.00889092
0.00882383
0.00876399
0.0081023
0.00689203
0.00554982
0.00485368
0.00881304
0.00882475
0.00883303
0.00884362
0.00884795
0.00885631
0.00885813
0.00886075
0.00886154
0.00886247
0.00886182
0.00886079
0.00885935
0.00885774
0.00885601
0.00885357
0.00885299
0.00885003
0.00884816
0.00884876
0.00884921
0.00885135
0.00885385
0.00885693
0.00886135
0.00886584
0.0088705
0.00887588
0.0088817
0.00888813
0.0088945
0.00890021
0.00890553
0.00891036
0.00891449
0.00891802
0.00892072
0.00892245
0.00892275
0.00892229
0.00892102
0.00891942
0.00891605
0.0089136
0.00890941
0.00890932
0.00889718
0.00887982
0.00863702
0.00819088
0.00656101
0.00510017
0.00459781
0.00447834
0.00880616
0.00881994
0.00882671
0.00884068
0.00884188
0.00885433
0.00885466
0.00885912
0.00885904
0.00885971
0.00885898
0.00885791
0.00885599
0.0088541
0.00885305
0.00884929
0.00884694
0.00884641
0.00884669
0.00884602
0.00884699
0.00884784
0.00885209
0.00885565
0.00886044
0.00886602
0.00887183
0.00887786
0.0088839
0.00889064
0.00889778
0.0089047
0.00891079
0.00891627
0.00892052
0.008924
0.00892643
0.00892762
0.00892745
0.0089268
0.00892532
0.00892355
0.00892187
0.00891861
0.00891706
0.0089117
0.00889054
0.00870346
0.00813447
0.00618435
0.00499593
0.00461226
0.00447658
0.00443356
0.00880053
0.00881252
0.00882579
0.00883234
0.00884509
0.00884525
0.00885298
0.00885363
0.0088572
0.0088563
0.00885581
0.00885455
0.00885273
0.00885044
0.00884834
0.00884649
0.00884329
0.00884145
0.00884183
0.00884226
0.00884423
0.00884478
0.00884913
0.00885374
0.00885869
0.00886472
0.00887161
0.00887899
0.00888631
0.00889371
0.00890119
0.00890855
0.00891566
0.00892192
0.00892674
0.00893039
0.00893267
0.0089336
0.00893344
0.00893277
0.00893078
0.0089294
0.00892793
0.00892534
0.00892336
0.00890727
0.00878059
0.00816756
0.00617503
0.0049181
0.00453291
0.00444509
0.00443011
0.00442607
0.00878461
0.00880394
0.00882102
0.00883025
0.00884057
0.00884434
0.00885104
0.00885203
0.00885412
0.00885369
0.00885244
0.00884985
0.0088481
0.00884546
0.00884326
0.00884098
0.00883906
0.00883861
0.00883775
0.00883757
0.00883801
0.00884081
0.00884532
0.00885155
0.00885819
0.00886522
0.00887305
0.00888155
0.00889049
0.00889835
0.00890591
0.00891354
0.00892114
0.00892787
0.00893298
0.00893678
0.00893909
0.00893974
0.00893941
0.00893816
0.00893575
0.00893453
0.00893313
0.00893295
0.00892546
0.00884544
0.0083221
0.00636201
0.00488701
0.00451778
0.00445174
0.00443731
0.00443073
0.00442557
0.00873239
0.00877719
0.00880564
0.00882502
0.00883644
0.00884545
0.00884813
0.00885202
0.00885122
0.00885143
0.00884983
0.00884731
0.00884411
0.0088412
0.00883809
0.0088358
0.00883359
0.00883275
0.00883168
0.00883216
0.00883349
0.00883455
0.00884073
0.00884763
0.00885538
0.00886402
0.00887386
0.00888456
0.00889541
0.00890572
0.00891387
0.00892046
0.00892761
0.00893412
0.00893944
0.00894326
0.00894539
0.00894554
0.00894497
0.00894261
0.00894091
0.00893995
0.00894036
0.00893772
0.00889771
0.00853905
0.00675397
0.00492267
0.00451557
0.00445489
0.00444423
0.00443682
0.00443109
0.00442695
0.00857465
0.00869291
0.00876005
0.0088026
0.00882544
0.00883944
0.00884678
0.00884822
0.00885016
0.00884802
0.00884567
0.00884192
0.00883881
0.00883574
0.00883332
0.0088269
0.00882745
0.00881978
0.00882025
0.00881263
0.00881063
0.00881434
0.0088191
0.00882388
0.00883732
0.00885266
0.00886658
0.00888036
0.00889447
0.00890916
0.00892157
0.00893002
0.00893665
0.00894222
0.00894648
0.00894975
0.00895104
0.00895077
0.00894927
0.00894685
0.008946
0.00894584
0.00894851
0.00893571
0.00872827
0.00740615
0.00501925
0.00452098
0.00445811
0.00445107
0.00444502
0.00443749
0.00443151
0.00443164
0.00822774
0.00850115
0.00865648
0.00874654
0.00879646
0.0088249
0.0088398
0.00884651
0.00884836
0.0088474
0.00884432
0.00883975
0.00883849
0.00882654
0.00882738
0.00881128
0.00880879
0.00877851
0.00874368
0.00874743
0.00873304
0.00869639
0.00870072
0.00872008
0.00871767
0.00877778
0.00883008
0.00887086
0.00889427
0.00890996
0.00892651
0.0089372
0.00894441
0.00894962
0.00895335
0.00895554
0.00895584
0.00895467
0.00895256
0.0089517
0.00895145
0.00895286
0.00895267
0.00887005
0.00799482
0.00530725
0.00453328
0.00446197
0.0044567
0.00445211
0.00444294
0.00443661
0.00443494
0.00443996
0.00758841
0.00812708
0.00845782
0.00864103
0.00874269
0.0087957
0.00882233
0.00883489
0.0088394
0.00883905
0.00883753
0.00883001
0.00883088
0.00879756
0.00880018
0.00869779
0.00870486
0.00861678
0.00849614
0.00840407
0.0081914
0.0080174
0.00803
0.00797281
0.00823748
0.00837916
0.00857992
0.00872082
0.00882648
0.00889116
0.00892308
0.00894224
0.0089517
0.00895668
0.00895957
0.00896052
0.00895993
0.0089579
0.00895624
0.00895596
0.00895635
0.00896197
0.00894518
0.00847863
0.0058345
0.00456874
0.00446898
0.00446143
0.00445808
0.00444996
0.00444218
0.00443904
0.00444107
0.00445454
0.00704135
0.00774913
0.00822765
0.0085129
0.00867472
0.00876022
0.00880146
0.00882278
0.00883206
0.00882929
0.00882852
0.00880029
0.00875431
0.00870849
0.00852003
0.00852074
0.0080421
0.00744828
0.00686369
0.00647457
0.0060802
0.00593759
0.00593566
0.00611904
0.00613573
0.00686926
0.00773673
0.00837047
0.0087191
0.00885833
0.00891938
0.00894502
0.00895756
0.00896261
0.00896435
0.00896406
0.00896218
0.00896006
0.00895989
0.00896033
0.00896217
0.00896865
0.00883896
0.00674091
0.00470286
0.00448083
0.00446594
0.00446293
0.00445706
0.00444746
0.00444328
0.0044429
0.00445073
0.0044755
0.00693638
0.00769371
0.00820485
0.00850713
0.00867468
0.00875915
0.00880081
0.00881998
0.00881844
0.00879799
0.00877722
0.00860861
0.00854078
0.00799418
0.00711488
0.00622938
0.00565508
0.00525387
0.00502099
0.00489078
0.00482018
0.00482499
0.00483086
0.00497119
0.00502349
0.00541687
0.0058913
0.00734852
0.00830112
0.00872022
0.00887953
0.00894046
0.00896104
0.00896682
0.00896751
0.00896618
0.00896309
0.00896278
0.00896319
0.0089643
0.00897497
0.00892232
0.00750012
0.00497298
0.00450586
0.00447048
0.00446666
0.00446282
0.00445376
0.00444776
0.00444583
0.00444844
0.00446319
0.00449961
0.00728112
0.00794755
0.00836673
0.00860153
0.00872329
0.00878925
0.00879514
0.00878761
0.0087074
0.00857704
0.00813846
0.00732185
0.00614846
0.00540855
0.00498105
0.00474303
0.00462184
0.00456082
0.00453469
0.00452826
0.00453017
0.00454756
0.0045725
0.00464349
0.00467633
0.00487479
0.00514597
0.00615394
0.00754361
0.00843505
0.00880869
0.00893042
0.00896215
0.00896886
0.00896852
0.00896615
0.00896459
0.00896503
0.008967
0.00897236
0.00891054
0.00791536
0.00526849
0.0045537
0.00447566
0.00446975
0.00446716
0.00446005
0.00445254
0.0044486
0.00444777
0.00445378
0.00447467
0.00452203
0.00799901
0.00840513
0.00862006
0.00873912
0.00877909
0.00874501
0.00864686
0.00829814
0.00771188
0.00636753
0.00541602
0.00490796
0.00466544
0.0045578
0.0045108
0.00449572
0.00449569
0.00451097
0.0045352
0.00455322
0.00457442
0.00459015
0.00459763
0.00462107
0.00464169
0.00471619
0.0048984
0.00556765
0.00708054
0.00827164
0.00878189
0.00893
0.0089634
0.00896844
0.00896762
0.00896482
0.00896578
0.00896758
0.00896451
0.00885081
0.0078875
0.00539327
0.0046121
0.00448488
0.00447255
0.00447032
0.00446526
0.0044573
0.00445165
0.00444777
0.00444834
0.00445625
0.00448134
0.00453724
0.00857866
0.00870762
0.00875636
0.00869969
0.00850269
0.00783229
0.00668665
0.00553838
0.00490968
0.00462563
0.00452178
0.00448847
0.00449404
0.00450692
0.00456041
0.00460765
0.00474323
0.00485137
0.00486262
0.00490748
0.00491035
0.00487944
0.00481642
0.00472139
0.00467725
0.0047106
0.00488071
0.0055497
0.00711895
0.0083119
0.00880256
0.00893833
0.00896375
0.0089657
0.00896356
0.00896361
0.00896512
0.00895748
0.00880936
0.00788956
0.00547724
0.00466368
0.00449704
0.00447536
0.00447235
0.00446941
0.00446251
0.00445633
0.00444933
0.00444638
0.00444719
0.00445609
0.00448296
0.00454244
0.00861808
0.00839143
0.00783635
0.00689207
0.00583576
0.00490705
0.00456485
0.00447432
0.0044543
0.00446447
0.00449668
0.00456853
0.00469321
0.00492951
0.00516252
0.00551297
0.00580383
0.0060116
0.00619057
0.00618533
0.00609512
0.0059037
0.00567666
0.0052077
0.00485127
0.00479459
0.0049571
0.00574846
0.00739097
0.00846336
0.0088654
0.00895102
0.00896109
0.0089603
0.00895962
0.00896208
0.00895003
0.00875675
0.00795401
0.00558088
0.00471851
0.00451215
0.00447948
0.00447417
0.00447198
0.00446618
0.00446068
0.00445426
0.00444704
0.00444323
0.00444304
0.00444878
0.00447022
0.00452435
0.0061704
0.00546168
0.00482051
0.0045245
0.0044428
0.0044317
0.00444202
0.00446956
0.00453275
0.00465505
0.00484414
0.00517837
0.00574042
0.00631218
0.00708864
0.00748084
0.00764237
0.00774515
0.00772944
0.00765054
0.00747021
0.00714871
0.00645398
0.00549712
0.00492053
0.00482386
0.00500767
0.00608121
0.0078984
0.008725
0.00892117
0.00895188
0.0089548
0.0089543
0.0089531
0.00891056
0.00868509
0.00810299
0.00564822
0.00479892
0.0045265
0.00448445
0.00447612
0.00447406
0.00446969
0.0044646
0.00445824
0.00445269
0.00444431
0.00443886
0.00443743
0.00443978
0.00445255
0.00448898
0.00448238
0.00443787
0.00442454
0.00442543
0.00444462
0.00449141
0.00457696
0.00471681
0.00494329
0.00532211
0.00594371
0.00691619
0.00775958
0.00804668
0.00805142
0.00801633
0.00799221
0.00795368
0.0078633
0.00779022
0.00762805
0.0072046
0.00634751
0.00538283
0.00496367
0.005041
0.00561302
0.00728951
0.00847773
0.00886066
0.00893498
0.00894582
0.00894797
0.00894564
0.00890248
0.00875071
0.0082365
0.00561726
0.00491499
0.00454567
0.00449041
0.0044776
0.00447537
0.00447159
0.00446675
0.00446049
0.00445538
0.00444785
0.00444213
0.00443564
0.00443352
0.00443448
0.00444259
0.00446687
0.0044094
0.00442498
0.00445663
0.00451679
0.00461403
0.00476285
0.00499698
0.00536861
0.00597095
0.00696662
0.00794183
0.00834743
0.00834212
0.00821794
0.00791237
0.00741173
0.00690796
0.00708192
0.00744507
0.00755721
0.00733458
0.00670062
0.00570773
0.0051938
0.00499699
0.00520735
0.0067316
0.00824645
0.00877496
0.00890851
0.0089313
0.00893038
0.00891435
0.00886723
0.00875295
0.00823693
0.00559794
0.0049872
0.00458001
0.00449549
0.00447833
0.00447526
0.00447253
0.00446745
0.00446207
0.00445712
0.00445044
0.00444529
0.00443761
0.00443217
0.00442754
0.00442683
0.00443066
0.00444589
0.00447484
0.00454453
0.00464826
0.00480076
0.00502566
0.0053724
0.00590016
0.00673927
0.0077961
0.00838716
0.00855046
0.00849254
0.00818943
0.00755874
0.00686089
0.00640298
0.00627774
0.00634223
0.00649551
0.00658202
0.00628174
0.00573912
0.00541945
0.00527022
0.00558557
0.00660336
0.00806193
0.00869241
0.00887501
0.00891385
0.00892651
0.00892605
0.00891016
0.00878479
0.00805602
0.00564459
0.00501837
0.00459983
0.00451001
0.0044781
0.00447503
0.00447323
0.00446895
0.00446353
0.00445896
0.0044526
0.00444682
0.00443972
0.00443394
0.00442529
0.00441809
0.00441137
0.00440952
0.00441203
0.00468106
0.00483615
0.00505494
0.00537019
0.00581786
0.00645322
0.00737775
0.00820022
0.00859265
0.00863948
0.00857873
0.00834275
0.0079044
0.00721966
0.00655077
0.00623214
0.00612434
0.00607119
0.00604157
0.00596561
0.00580656
0.00564707
0.00556282
0.00577856
0.0068099
0.00823049
0.00857957
0.00884333
0.00888319
0.00888855
0.00885842
0.00877884
0.00847911
0.00780174
0.00593749
0.0048852
0.00465406
0.00450264
0.00448433
0.00447389
0.00447344
0.00446986
0.00446498
0.00446004
0.00445493
0.00444815
0.00444227
0.00443463
0.00442851
0.0044196
0.00441224
0.00440193
0.00439234
0.00438752
0.00506254
0.00535607
0.0057512
0.00626804
0.00693179
0.0077867
0.00839443
0.00868398
0.00868023
0.00868226
0.00855203
0.00829519
0.00790768
0.00739707
0.00676696
0.0064002
0.00618811
0.00613587
0.00605551
0.0059989
0.00595081
0.00600509
0.00642749
0.00744403
0.00817187
0.00873912
0.00876074
0.00887023
0.00887137
0.00888873
0.0088516
0.00857571
0.00794123
0.00581719
0.0050018
0.00459703
0.00453063
0.00448013
0.00447598
0.00447119
0.00447115
0.00446445
0.00446163
0.00445456
0.00445045
0.00444269
0.00443727
0.00442872
0.00442261
0.00441347
0.00440625
0.00439651
0.00438705
0.00437525
0.00565023
0.00610499
0.00666286
0.00731322
0.00801859
0.00849315
0.0087089
0.0087089
0.0087397
0.0087078
0.00864378
0.00850223
0.00828287
0.00795812
0.00752487
0.00707298
0.00672553
0.00664432
0.00656736
0.0066117
0.00686932
0.0072875
0.0079816
0.00854358
0.00860876
0.00882485
0.00882521
0.00885906
0.00886725
0.00853048
0.00816298
0.00764462
0.00543278
0.00502212
0.00459442
0.00452572
0.00448068
0.00447423
0.00446985
0.00447004
0.00446464
0.00446166
0.00445514
0.00445127
0.00444462
0.00443866
0.00443156
0.004424
0.00441654
0.0044081
0.00439991
0.00439054
0.00438091
0.00437049
0.00637215
0.0069573
0.00759719
0.00816452
0.0085593
0.00870942
0.00870448
0.0087556
0.00876087
0.00875103
0.00870583
0.00863623
0.00853455
0.0083955
0.0082052
0.00800902
0.00781256
0.00779393
0.00776542
0.0079124
0.00810619
0.00845381
0.00858279
0.00875317
0.00875371
0.00879272
0.00874904
0.00868368
0.00839504
0.00844338
0.00682129
0.00530433
0.00492882
0.00460132
0.00452013
0.00447834
0.00447265
0.00446845
0.00446953
0.00446274
0.00446316
0.00445489
0.00445288
0.00444652
0.00444096
0.00443441
0.00442726
0.00441987
0.00441203
0.00440375
0.00439491
0.0043852
0.00437462
0.00436306
0.00712005
0.00773436
0.00827419
0.0085876
0.00869842
0.00870008
0.00875538
0.00877142
0.00877464
0.00877054
0.00875248
0.0087234
0.00868531
0.00863784
0.00857438
0.00849049
0.00847122
0.00845207
0.00846558
0.00854686
0.00861718
0.00871944
0.00872309
0.00876046
0.00875556
0.00877721
0.00875459
0.00866296
0.00808125
0.00561056
0.00554588
0.00476067
0.00464494
0.00450164
0.0044813
0.0044696
0.00446691
0.00446757
0.00446178
0.00446214
0.00445555
0.00445126
0.0044471
0.00444107
0.00443486
0.00442892
0.00442112
0.00441421
0.00440597
0.00439782
0.00438879
0.00437944
0.0043693
0.00435849
0.00766917
0.00833414
0.00857688
0.00865969
0.00867995
0.00874882
0.00876937
0.00877949
0.00878038
0.00877911
0.00877259
0.00876464
0.00875329
0.00873944
0.00872172
0.00870393
0.00870247
0.00869806
0.00871456
0.00874451
0.00874481
0.0087591
0.00875895
0.00876542
0.00874593
0.00856722
0.00801496
0.00712991
0.00563264
0.00500913
0.00494289
0.00456327
0.00453353
0.0044738
0.004468
0.00446469
0.00446338
0.00446145
0.00445839
0.0044565
0.00444916
0.00444861
0.00444061
0.00443661
0.00442964
0.00442312
0.00441547
0.00440792
0.00440027
0.00439227
0.00438408
0.00437458
0.00436416
0.00435255
0.00801482
0.00843877
0.00862025
0.00863335
0.00872669
0.00875572
0.00877941
0.00877907
0.00878226
0.00878061
0.00877898
0.00877853
0.00877792
0.00877674
0.00877381
0.00876992
0.00876612
0.00876169
0.00875668
0.00874916
0.00873216
0.00870289
0.00864178
0.00851621
0.00822743
0.0076864
0.00664532
0.00549937
0.00482468
0.00473662
0.004609
0.00450947
0.00446811
0.00446558
0.00446149
0.00446012
0.0044615
0.00445534
0.00445709
0.00444761
0.00444931
0.00443746
0.00443821
0.00442866
0.00442456
0.00441612
0.00440977
0.00440127
0.00439388
0.00438506
0.00437657
0.00436706
0.00435706
0.00434606
0.00806208
0.00862988
0.00856569
0.00868967
0.00871453
0.008772
0.00877515
0.0087851
0.00878395
0.00878567
0.00878611
0.00878635
0.00878641
0.00878492
0.00878188
0.00877722
0.00877049
0.0087599
0.0087489
0.00872944
0.00869944
0.00863848
0.00848803
0.00812988
0.00720889
0.00601578
0.00499653
0.00495134
0.00459877
0.00459326
0.00448648
0.00447168
0.0044595
0.0044602
0.00445706
0.00445834
0.00445261
0.00445464
0.00444526
0.00444742
0.00443641
0.00443729
0.00442914
0.00442434
0.0044177
0.00441079
0.00440349
0.00439596
0.00438822
0.00438022
0.0043717
0.00436234
0.00435196
0.00434059
0.00815321
0.00841996
0.00866223
0.00865244
0.00873035
0.00877419
0.00877255
0.00878544
0.00878677
0.00878887
0.008789
0.00878905
0.00878752
0.0087839
0.00877816
0.00876994
0.00875546
0.00872925
0.00868516
0.00859583
0.00842432
0.00811624
0.0075866
0.00657269
0.00565701
0.00486819
0.00485649
0.00457311
0.00454969
0.00447958
0.00446616
0.0044578
0.00445519
0.00445379
0.00445245
0.00445217
0.00444885
0.00444653
0.00444237
0.00443932
0.00443389
0.00443028
0.00442342
0.00441922
0.00441204
0.00440627
0.00439917
0.00439246
0.00438471
0.00437658
0.00436754
0.00435784
0.00434753
0.00433659
0.00770135
0.00840972
0.00859405
0.00862644
0.00871633
0.00874705
0.00876867
0.00878224
0.00878074
0.00878407
0.00878404
0.00878303
0.00877913
0.0087717
0.00875552
0.00873022
0.00868613
0.00861269
0.00848684
0.00826564
0.00790032
0.0072471
0.00618866
0.00536017
0.00475336
0.00471322
0.00453074
0.00451435
0.00446902
0.00446235
0.00445552
0.00445199
0.00445135
0.00445013
0.00445165
0.00444518
0.00444617
0.00443883
0.00443889
0.00443202
0.00442837
0.00442358
0.00441746
0.00441275
0.00440579
0.00439968
0.00439238
0.00438529
0.00437767
0.00437007
0.00436198
0.0043537
0.00434448
0.00433453
0.00700557
0.00785957
0.00854923
0.00854326
0.00863053
0.0087336
0.00874744
0.00876682
0.00876862
0.00877208
0.00877152
0.00876548
0.00875555
0.00873638
0.00869785
0.00864082
0.00854125
0.00837712
0.00810334
0.00764138
0.00686803
0.0058998
0.00506695
0.00484554
0.0046
0.00459536
0.00448731
0.0044847
0.00445758
0.00445692
0.00445084
0.0044511
0.00444758
0.00444864
0.00444228
0.00444419
0.00443616
0.00443784
0.00443095
0.00442629
0.00442242
0.00441718
0.00441216
0.00440678
0.0044002
0.00439441
0.00438777
0.00438142
0.00437451
0.00436778
0.00436053
0.00435318
0.00434491
0.00433571
0.00602327
0.0069214
0.0077237
0.00845089
0.00843504
0.00856933
0.0086706
0.00868796
0.00872005
0.00872034
0.00872068
0.00870209
0.00867697
0.00862932
0.00854549
0.00841855
0.00820762
0.00786693
0.00729091
0.00643798
0.00562668
0.00506854
0.00478751
0.00458208
0.00458087
0.00448476
0.00448348
0.00445623
0.00445563
0.00444901
0.004449
0.0044448
0.00444471
0.00444351
0.00444066
0.00443624
0.00443424
0.00443026
0.00442509
0.00442167
0.00441699
0.00441191
0.00440681
0.00440102
0.00439577
0.0043906
0.00438414
0.00437954
0.00437364
0.00436882
0.00436298
0.00435738
0.00435023
0.00434215
0.00508391
0.00560079
0.00637421
0.0072703
0.0077953
0.00816797
0.00819279
0.00842827
0.00843735
0.00848383
0.00848682
0.00844437
0.00837439
0.00827647
0.00809021
0.00780897
0.00734452
0.00667606
0.00602197
0.00541517
0.00498135
0.00463408
0.0046302
0.00453178
0.00450847
0.00448247
0.00445207
0.00445535
0.00444689
0.00444817
0.00444514
0.00444361
0.00444274
0.00444046
0.00443369
0.00443515
0.00442677
0.00442569
0.00441926
0.00441669
0.00441023
0.00440696
0.00440202
0.00439805
0.00439336
0.00438692
0.00438541
0.00438012
0.00438088
0.00437639
0.00437634
0.00437072
0.00436636
0.00435964
0.00465705
0.00484595
0.00513109
0.0055273
0.00603273
0.00653911
0.00712237
0.00711164
0.00740227
0.0073757
0.00741034
0.00733731
0.00717614
0.00703582
0.00671678
0.00635935
0.00595292
0.00556565
0.00515468
0.00485049
0.0046637
0.00454357
0.00454939
0.00449349
0.00448644
0.00445955
0.00445313
0.00444838
0.00444703
0.00444471
0.00444462
0.00444105
0.00444038
0.00443413
0.00443262
0.00442798
0.00442444
0.00442092
0.00441571
0.00441194
0.00440672
0.00440333
0.00439815
0.00439323
0.00438922
0.00438929
0.00438705
0.00438797
0.00438802
0.00439037
0.00439233
0.00439426
0.00439476
0.00439383
0.00446749
0.00453748
0.00464209
0.00478629
0.00496975
0.00517858
0.00535053
0.00555046
0.00564459
0.0057643
0.00575775
0.00577099
0.00570732
0.00565319
0.00549803
0.00530469
0.00511982
0.00491887
0.00473347
0.00461163
0.00454901
0.00450593
0.00450567
0.00447334
0.00447114
0.00445468
0.00445326
0.00444785
0.00444767
0.00444373
0.00444375
0.00443849
0.00443841
0.00443127
0.00443123
0.0044226
0.00442205
0.00441377
0.00441192
0.00440548
0.00440276
0.00439834
0.00439555
0.00439384
0.0043933