/*--------------------------------*- C++ -*----------------------------------*\
  =========                 |
  \\      /  F ield         | OpenFOAM: The Open Source CFD Toolbox
   \\    /   O peration     | Website:  https://openfoam.org
    \\  /    A nd           | Version:  10
     \\/     M anipulation  |
\*---------------------------------------------------------------------------*/
FoamFile
{
    format      ascii;
    class       volScalarField;
    location    "0.0975229";
    object      p;
}
// * * * * * * * * * * * * * * * * * * * * * * * * * * * * * * * * * * * * * //

dimensions      [1 -1 -2 0 0 0 0];

internalField   nonuniform List<scalar> 
15984
(
2.50193
2.50275
2.50376
2.50487
2.50596
2.50694
2.50771
2.50822
2.5084
2.50822
2.50769
2.50675
2.50547
2.5039
2.50207
2.50003
2.49784
2.49557
2.49329
2.49107
2.48899
2.48712
2.48553
2.48429
2.48346
2.48311
2.48326
2.48393
2.48525
2.48724
2.48988
2.49318
2.49715
2.50176
2.507
2.51279
2.51908
2.52576
2.5327
2.53975
2.54672
2.55345
2.55972
2.56536
2.57021
2.57413
2.57703
2.57885
2.57958
2.57932
2.57817
2.57602
2.57307
2.56955
2.51608
2.51738
2.51868
2.51984
2.52075
2.52133
2.52151
2.52125
2.52053
2.51928
2.51756
2.51542
2.51292
2.5101
2.50704
2.50379
2.50044
2.49706
2.49372
2.49051
2.48752
2.4848
2.48244
2.4805
2.47906
2.47818
2.47793
2.47828
2.47933
2.48127
2.48403
2.48764
2.49212
2.49748
2.50371
2.51074
2.51851
2.52685
2.5356
2.54456
2.55346
2.56206
2.57009
2.57731
2.58352
2.58854
2.59227
2.59464
2.59565
2.59541
2.59412
2.59154
2.58794
2.58359
2.53086
2.53253
2.53395
2.53497
2.53551
2.53549
2.53494
2.5337
2.53183
2.52936
2.52637
2.52294
2.51913
2.51501
2.51068
2.5062
2.50167
2.49718
2.4928
2.48863
2.48473
2.48121
2.47813
2.47557
2.4736
2.47231
2.47177
2.47199
2.47301
2.47513
2.47833
2.48259
2.48798
2.49452
2.5022
2.51094
2.52065
2.53105
2.54197
2.5531
2.56411
2.57464
2.58437
2.59302
2.60034
2.60615
2.61035
2.61289
2.61381
2.61331
2.61146
2.60814
2.60365
2.5983
2.54628
2.54812
2.54941
2.55004
2.54994
2.54916
2.54752
2.54508
2.5419
2.53807
2.53371
2.5289
2.52374
2.5183
2.51268
2.50699
2.50131
2.49572
2.49034
2.48525
2.48052
2.47624
2.4725
2.46939
2.46699
2.46541
2.46473
2.46498
2.46621
2.46881
2.47277
2.47809
2.48483
2.49303
2.50267
2.51363
2.52568
2.53862
2.55204
2.56555
2.57872
2.59112
2.60237
2.61216
2.62023
2.62642
2.63066
2.63296
2.63338
2.63229
2.62951
2.62514
2.61957
2.61307
2.5622
2.56387
2.5647
2.5646
2.56366
2.56167
2.55871
2.55483
2.55019
2.54491
2.5391
2.53286
2.52631
2.51957
2.51272
2.50586
2.49909
2.49248
2.48619
2.48024
2.47475
2.4698
2.46549
2.46192
2.4592
2.45745
2.4568
2.45725
2.45896
2.4624
2.46749
2.47429
2.48288
2.49328
2.50542
2.51913
2.53403
2.54979
2.56591
2.58185
2.59709
2.61112
2.62355
2.63404
2.64238
2.64846
2.65227
2.65388
2.6535
2.65139
2.64736
2.64175
2.63496
2.62721
2.57825
2.57934
2.5793
2.57821
2.57588
2.57242
2.56786
2.56238
2.55615
2.5493
2.54198
2.53434
2.52647
2.51849
2.51049
2.50257
2.49481
2.48734
2.4802
2.47352
2.46737
2.46185
2.45708
2.45317
2.45026
2.4485
2.44806
2.44892
2.45144
2.45607
2.46273
2.4715
2.48248
2.49563
2.5108
2.52766
2.5458
2.5646
2.58344
2.60166
2.61863
2.63387
2.64696
2.6576
2.66566
2.6711
2.67401
2.67452
2.67307
2.66952
2.66406
2.65713
2.64905
2.64004
2.59387
2.5939
2.59267
2.58998
2.58597
2.58069
2.57433
2.56707
2.55914
2.55073
2.54196
2.53297
2.52387
2.51476
2.50573
2.49688
2.4883
2.48008
2.47229
2.46501
2.45835
2.4524
2.4473
2.4432
2.44026
2.43869
2.43868
2.44019
2.44392
2.45017
2.45887
2.47016
2.48407
2.50052
2.5192
2.5396
2.56108
2.58286
2.60417
2.62424
2.64243
2.65825
2.67133
2.68149
2.68869
2.693
2.69457
2.69381
2.69082
2.68567
2.67876
2.67049
2.66115
2.65096
2.60836
2.60698
2.60387
2.59925
2.59316
2.58581
2.57747
2.5684
2.5588
2.54884
2.53868
2.52844
2.51824
2.50816
2.49829
2.48869
2.47948
2.47071
2.46244
2.45475
2.44774
2.44153
2.43628
2.43216
2.4294
2.42826
2.42885
2.43144
2.43682
2.44516
2.45644
2.47079
2.48819
2.5084
2.53091
2.55494
2.57964
2.60407
2.6273
2.64853
2.66719
2.68283
2.6952
2.70425
2.71006
2.71282
2.7128
2.71054
2.70578
2.69904
2.69074
2.68123
2.67074
2.6595
2.62115
2.6176
2.61226
2.60523
2.5968
2.58729
2.57695
2.56604
2.55478
2.54335
2.53192
2.52059
2.50947
2.49861
2.48809
2.47799
2.46837
2.45927
2.45072
2.44282
2.43566
2.42938
2.42417
2.42026
2.41792
2.41749
2.41898
2.42312
2.43067
2.44161
2.45604
2.47399
2.49535
2.51962
2.546
2.57347
2.60094
2.62732
2.65165
2.67318
2.69143
2.70609
2.71708
2.72448
2.7285
2.72943
2.72784
2.72368
2.71726
2.70908
2.69956
2.68896
2.6775
2.6654
2.63124
2.62517
2.61709
2.60749
2.59665
2.58488
2.57251
2.5598
2.54698
2.53424
2.52169
2.50946
2.49761
2.48619
2.47526
2.46489
2.45508
2.44586
2.43726
2.42936
2.42227
2.41615
2.41123
2.40779
2.4062
2.40674
2.40959
2.41585
2.42609
2.44022
2.45834
2.48038
2.50598
2.53434
2.56433
2.59465
2.62406
2.65141
2.6758
2.69666
2.71362
2.72658
2.73563
2.74099
2.74299
2.74216
2.73871
2.7328
2.72487
2.71547
2.70489
2.6934
2.68121
2.66848
2.63811
2.62902
2.61812
2.60585
2.59252
2.57852
2.56419
2.5498
2.53557
2.52166
2.50819
2.49525
2.48288
2.47111
2.46002
2.44959
2.43981
2.4307
2.42226
2.41458
2.4078
2.4021
2.39775
2.39512
2.39463
2.3964
2.40135
2.41036
2.42384
2.44174
2.46403
2.49047
2.52033
2.55244
2.58533
2.61754
2.64775
2.67489
2.69826
2.71748
2.73238
2.74308
2.74984
2.753
2.75296
2.75029
2.74493
2.73747
2.72841
2.71812
2.70683
2.69476
2.6821
2.66899
2.64128
2.62912
2.61531
2.60031
2.58456
2.56843
2.55227
2.53636
2.52088
2.506
2.4918
2.47833
2.46563
2.45374
2.44268
2.43239
2.42284
2.41403
2.40598
2.39876
2.39254
2.38754
2.3841
2.38267
2.38359
2.38725
2.39493
2.40738
2.42473
2.44687
2.47372
2.50459
2.53833
2.57342
2.60811
2.64091
2.6706
2.69631
2.71763
2.73438
2.74668
2.75479
2.75901
2.75982
2.75798
2.7535
2.74676
2.73827
2.72844
2.71754
2.70579
2.69339
2.68046
2.66715
2.64076
2.62551
2.6088
2.59121
2.57317
2.55508
2.53728
2.52002
2.50348
2.4878
2.47303
2.45921
2.44636
2.43452
2.42363
2.41364
2.40448
2.39617
2.38869
2.38216
2.37678
2.37281
2.37067
2.37089
2.37354
2.38009
2.39123
2.40775
2.42948
2.45637
2.48783
2.52275
2.55956
2.59639
2.63147
2.6634
2.69121
2.71437
2.73278
2.7465
2.75575
2.76101
2.76285
2.76188
2.75833
2.75244
2.74469
2.73553
2.72525
2.71407
2.70215
2.68963
2.67663
2.66324
2.63679
2.61852
2.59909
2.57909
2.55898
2.53914
2.5199
2.50148
2.48405
2.46771
2.45251
2.43846
2.42559
2.4139
2.4033
2.3937
2.38507
2.3774
2.37069
2.36509
2.36084
2.3583
2.35795
2.36002
2.36552
2.37557
2.39108
2.41219
2.43894
2.47073
2.50649
2.54462
2.58321
2.62025
2.6541
2.68367
2.70837
2.72809
2.74292
2.75313
2.75937
2.76212
2.76194
2.7593
2.75437
2.74753
2.73925
2.72985
2.71948
2.70831
2.69644
2.68396
2.67096
2.65754
2.62974
2.60872
2.58684
2.5647
2.54276
2.52139
2.5009
2.48149
2.4633
2.44642
2.43087
2.41667
2.40384
2.39233
2.38205
2.37292
2.36491
2.358
2.35225
2.34784
2.34508
2.34442
2.3461
2.35096
2.36009
2.37469
2.39515
2.42163
2.45366
2.49013
2.52941
2.56946
2.60817
2.64367
2.67468
2.70057
2.72119
2.73676
2.74765
2.75454
2.75794
2.75838
2.75659
2.75261
2.74683
2.73958
2.73122
2.72192
2.71176
2.70082
2.68915
2.67678
2.66379
2.65027
2.62028
2.59684
2.57282
2.54884
2.52533
2.50265
2.48108
2.4608
2.44194
2.42457
2.40869
2.39434
2.38153
2.37019
2.36022
2.35158
2.34425
2.33823
2.33363
2.3307
2.32984
2.33136
2.33576
2.3444
2.35823
2.37813
2.40438
2.43668
2.47395
2.51442
2.55592
2.59618
2.63314
2.66538
2.69213
2.71329
2.72914
2.74025
2.74734
2.75099
2.75185
2.7506
2.74742
2.74265
2.73652
2.72936
2.72131
2.71243
2.70272
2.69216
2.68074
2.66845
2.65535
2.64154
2.60914
2.58365
2.55786
2.53232
2.50749
2.48368
2.46115
2.44008
2.42058
2.4027
2.38646
2.3719
2.35901
2.34775
2.33804
2.32987
2.32327
2.31827
2.31505
2.31396
2.31529
2.31946
2.32777
2.3412
2.36067
2.38675
2.41945
2.45773
2.49969
2.54294
2.58497
2.6235
2.65683
2.68433
2.70571
2.72142
2.73219
2.73891
2.74231
2.7431
2.74198
2.73929
2.73534
2.73026
2.72433
2.71763
2.71022
2.70201
2.69292
2.6828
2.67157
2.65919
2.64574
2.63137
2.59708
2.56995
2.5427
2.51589
2.48992
2.46512
2.44171
2.41985
2.39967
2.38121
2.36449
2.34957
2.33646
2.32515
2.31562
2.30788
2.30207
2.29825
2.29671
2.29772
2.30161
2.30967
2.32276
2.34211
2.36809
2.40128
2.44083
2.48471
2.53027
2.57465
2.61523
2.65015
2.67844
2.69982
2.71507
2.72497
2.73071
2.7332
2.73328
2.73173
2.729
2.72544
2.72117
2.7163
2.71094
2.70507
2.69857
2.69121
2.68282
2.6731
2.66191
2.64917
2.63499
2.61962
2.58478
2.55639
2.52799
2.50012
2.47317
2.44744
2.42315
2.40047
2.37949
2.3603
2.34293
2.32744
2.31391
2.30239
2.29291
2.28559
2.28066
2.27825
2.27869
2.28201
2.28965
2.30244
2.32163
2.34768
2.38142
2.42234
2.46853
2.51706
2.56464
2.60813
2.64528
2.67485
2.69668
2.7114
2.72017
2.72436
2.72522
2.7239
2.72114
2.71765
2.71385
2.70985
2.70573
2.70147
2.69705
2.69225
2.6869
2.68051
2.67278
2.66336
2.65195
2.63844
2.62302
2.60607
2.57286
2.54352
2.51422
2.48545
2.45761
2.43096
2.40573
2.38208
2.36014
2.33999
2.32173
2.30543
2.29124
2.27929
2.26974
2.2628
2.25892
2.25826
2.26072
2.26752
2.27981
2.29873
2.32492
2.35915
2.40135
2.45003
2.50207
2.55371
2.60126
2.64181
2.67376
2.69673
2.71138
2.71908
2.72143
2.72015
2.71655
2.7118
2.7067
2.7018
2.69731
2.69331
2.6897
2.68636
2.68316
2.67967
2.67551
2.67021
2.66312
2.65377
2.6418
2.627
2.60971
2.59053
2.56178
2.53174
2.5017
2.47215
2.44343
2.4158
2.38951
2.36472
2.34156
2.32016
2.30068
2.28326
2.26812
2.25551
2.24571
2.23919
2.23663
2.2379
2.24311
2.25465
2.27301
2.29924
2.33373
2.377
2.42806
2.48388
2.54033
2.593
2.63835
2.67411
2.69953
2.71513
2.72236
2.72308
2.71945
2.71303
2.70545
2.69782
2.69086
2.68491
2.68014
2.67645
2.67363
2.67146
2.66957
2.66756
2.66478
2.66058
2.65415
2.64457
2.63144
2.6148
2.59487
2.57273
2.55184
2.52129
2.49065
2.46036
2.43074
2.40199
2.37446
2.34826
2.32355
2.30049
2.27938
2.26047
2.24405
2.23045
2.22016
2.21417
2.2133
2.21683
2.22639
2.24406
2.26982
2.30436
2.34854
2.40176
2.46127
2.52284
2.58153
2.63292
2.67404
2.70357
2.72169
2.72971
2.72969
2.72404
2.71473
2.70382
2.69281
2.68278
2.67433
2.66769
2.6629
2.65976
2.65787
2.65698
2.65658
2.65617
2.65491
2.65202
2.64624
2.63631
2.62157
2.60309
2.57964
2.55381
2.54325
2.5123
2.48112
2.45018
2.41952
2.38946
2.36052
2.33261
2.30584
2.28055
2.25714
2.23638
2.21836
2.2033
2.19213
2.18701
2.1882
2.19531
2.21111
2.23655
2.27123
2.31573
2.37046
2.43331
2.49998
2.56506
2.62342
2.67125
2.70654
2.72899
2.73963
2.74035
2.7338
2.72221
2.70804
2.69327
2.67939
2.66738
2.65777
2.65069
2.64605
2.64353
2.64267
2.64311
2.64437
2.64569
2.6461
2.64474
2.64006
2.6302
2.61449
2.5961
2.56977
2.54085
2.53611
2.50487
2.47316
2.44144
2.4099
2.37812
2.34779
2.31786
2.28847
2.26019
2.2333
2.21017
2.19045
2.17278
2.16001
2.15641
2.16001
2.17274
2.19713
2.23182
2.27701
2.33321
2.39909
2.47058
2.54217
2.60798
2.66344
2.70584
2.73432
2.74947
2.75297
2.74734
2.7348
2.71826
2.70002
2.68205
2.6658
2.65221
2.64168
2.63428
2.62985
2.62798
2.62814
2.62997
2.63294
2.63618
2.63878
2.63932
2.63633
2.6277
2.6123
2.59485
2.56871
2.53956
2.53047
2.49901
2.4669
2.43429
2.40148
2.3685
2.33688
2.30497
2.27246
2.24141
2.20905
2.18225
2.16092
2.1384
2.12211
2.12182
2.13084
2.15168
2.18635
2.23222
2.28921
2.35749
2.43352
2.51149
2.58502
2.64864
2.69905
2.73484
2.75618
2.7644
2.76172
2.75046
2.73318
2.71266
2.69121
2.67069
2.65255
2.63766
2.62638
2.61874
2.61447
2.61318
2.61428
2.61753
2.62233
2.6278
2.63296
2.63651
2.63586
2.63051
2.61648
2.59471
2.57736
2.55556
2.52636
2.49471
2.4623
2.42877
2.39488
2.36009
2.33116
2.29465
2.26508
2.22527
2.19102
2.16065
2.1366
2.10134
2.07736
2.08097
2.09459
2.12999
2.17737
2.23649
2.3072
2.38734
2.47151
2.55283
2.62507
2.6841
2.72804
2.75678
2.77135
2.77351
2.76574
2.75006
2.72923
2.7058
2.68197
2.65955
2.63994
2.62399
2.61206
2.60415
2.59998
2.59913
2.60105
2.60567
2.61244
2.62034
2.62856
2.63568
2.64051
2.63992
2.63556
2.62172
2.60873
2.59432
2.52383
2.49229
2.4595
2.42516
2.39044
2.3556
2.32676
2.3008
2.25458
2.21218
2.1825
2.16358
2.14051
2.09306
2.05761
2.04308
2.06984
2.1164
2.17575
2.24717
2.33047
2.42025
2.50929
2.59058
2.65892
2.71179
2.74879
2.77082
2.77946
2.77683
2.7651
2.74643
2.72325
2.69791
2.67254
2.6488
2.62811
2.61132
2.5988
2.59058
2.58635
2.58577
2.58834
2.59424
2.603
2.61355
2.62531
2.63628
2.64517
2.6614
2.66614
2.65405
2.64038
2.62419
2.52269
2.49176
2.45924
2.42316
2.38607
2.35106
2.31134
2.29957
2.27562
2.23218
2.19256
2.16804
2.14559
2.11168
2.06587
2.04731
2.06445
2.11785
2.1868
2.26797
2.35954
2.45383
2.54338
2.6214
2.68405
2.73017
2.76054
2.77672
2.78066
2.77459
2.76027
2.73982
2.71547
2.6891
2.66296
2.63848
2.61707
2.59963
2.58657
2.57798
2.57357
2.57301
2.57597
2.58299
2.59373
2.60721
2.62267
2.6369
2.65577
2.67682
2.68415
2.68263
2.67363
2.65628
2.52283
2.49198
2.46099
2.42578
2.37474
2.35142
2.33893
2.28146
2.24692
2.22224
2.19961
2.17894
2.15846
2.13206
2.09899
2.07277
2.09074
2.1423
2.21377
2.29935
2.3923
2.48542
2.57107
2.64332
2.6993
2.73887
2.76345
2.77508
2.77569
2.7673
2.75155
2.73055
2.70619
2.67919
2.65315
2.62851
2.60675
2.58888
2.57531
2.56629
2.56149
2.56061
2.56361
2.57174
2.58478
2.60026
2.61999
2.64086
2.6704
2.69361
2.70532
2.70826
2.70269
2.68729
2.52519
2.49175
2.4527
2.45108
2.38838
2.32966
2.3087
2.27909
2.25013
2.2253
2.20703
2.19272
2.17908
2.16277
2.14351
2.13147
2.13852
2.18587
2.25419
2.33703
2.42536
2.51222
2.59096
2.65597
2.70503
2.73862
2.75861
2.76682
2.76518
2.75561
2.73947
2.71862
2.69473
2.66888
2.6431
2.6187
2.597
2.57895
2.56504
2.55551
2.54999
2.54834
2.55126
2.56092
2.57725
2.58813
2.62356
2.65718
2.6885
2.71344
2.7283
2.73399
2.73074
2.7173
2.5222
2.51412
2.46358
2.40433
2.37285
2.33318
2.30055
2.2727
2.24932
2.23112
2.21906
2.21166
2.20654
2.20137
2.19542
2.19245
2.20205
2.24262
2.29807
2.37697
2.45597
2.53326
2.60321
2.66026
2.70272
2.73126
2.74738
2.75308
2.75005
2.74011
2.72457
2.70478
2.68198
2.65737
2.63249
2.60878
2.58753
2.56971
2.55579
2.54578
2.53945
2.5371
2.54017
2.54855
2.56392
2.60081
2.6372
2.67485
2.70805
2.73424
2.75132
2.75899
2.75789
2.74643
2.51544
2.47529
2.44796
2.40156
2.36193
2.32561
2.29454
2.26928
2.25074
2.23938
2.2348
2.23539
2.23936
2.24457
2.24994
2.25623
2.26715
2.29352
2.35025
2.41433
2.48252
2.54858
2.6091
2.65787
2.69396
2.71786
2.7309
2.73492
2.73152
2.72201
2.70756
2.6892
2.66792
2.64479
2.6212
2.59853
2.57812
2.5609
2.54733
2.53728
2.53023
2.5273
2.52969
2.54268
2.57723
2.61374
2.65547
2.69466
2.72903
2.75648
2.77517
2.78404
2.78453
2.77467
2.51254
2.47015
2.43278
2.39222
2.35299
2.31857
2.29034
2.26915
2.25627
2.2514
2.25395
2.26256
2.27515
2.28924
2.30302
2.31618
2.33102
2.35213
2.38707
2.45055
2.50156
2.55668
2.60984
2.64988
2.68003
2.69988
2.71071
2.7139
2.71069
2.7021
2.68903
2.67231
2.65274
2.63127
2.60919
2.58787
2.56863
2.55253
2.53985
2.52955
2.52018
2.52036
2.52848
2.55621
2.59011
2.63188
2.67495
2.71546
2.75102
2.77963
2.79962
2.80954
2.81102
2.80202
2.5012
2.46167
2.422
2.38302
2.34609
2.31429
2.28911
2.27248
2.26518
2.26612
2.27546
2.29126
2.31105
2.33184
2.35103
2.36777
2.38405
2.40326
2.42785
2.4591
2.51623
2.55816
2.60211
2.63619
2.66171
2.67882
2.68824
2.69112
2.68848
2.68105
2.6695
2.6545
2.6367
2.61698
2.59651
2.57672
2.55903
2.54467
2.53288
2.52017
2.51741
2.52093
2.53779
2.56816
2.60735
2.65121
2.69562
2.73731
2.774
2.80364
2.82465
2.83553
2.83764
2.82895
2.49104
2.45268
2.41426
2.37675
2.34244
2.31354
2.29174
2.27966
2.27682
2.28281
2.29755
2.31876
2.34348
2.36813
2.38988
2.40764
2.42296
2.43863
2.45685
2.47718
2.50584
2.54945
2.58985
2.61884
2.64083
2.65582
2.66435
2.66731
2.66551
2.65937
2.64941
2.63614
2.62011
2.60213
2.58334
2.56517
2.54924
2.53705
2.52617
2.51131
2.52047
2.52604
2.54683
2.5826
2.62529
2.67128
2.71716
2.76008
2.79779
2.82833
2.85012
2.86169
2.86375
2.85394
2.48367
2.44665
2.40985
2.37467
2.34321
2.31746
2.29903
2.2904
2.29076
2.30011
2.31791
2.34178
2.36822
2.39323
2.41422
2.43089
2.44464
2.45792
2.4726
2.49051
2.51324
2.54758
2.57612
2.60073
2.61868
2.63172
2.63969
2.643
2.6422
2.63748
2.62915
2.61761
2.60333
2.58707
2.56988
2.55308
2.53816
2.52693
2.51737
2.50515
2.52223
2.53345
2.55852
2.59807
2.64365
2.6918
2.73929
2.78345
2.82216
2.85349
2.87563
2.88706
2.88831
2.87586
2.47944
2.44451
2.41012
2.37784
2.34956
2.32685
2.31123
2.30468
2.30611
2.31619
2.33389
2.3567
2.38109
2.40378
2.42239
2.43717
2.44937
2.46129
2.47451
2.49121
2.5123
2.53748
2.56508
2.58107
2.59598
2.60697
2.61458
2.61848
2.61885
2.61567
2.60906
2.59928
2.58678
2.57224
2.55664
2.54115
2.52721
2.51746
2.51061
2.50131
2.51729
2.53741
2.57048
2.61377
2.6623
2.71252
2.76156
2.80691
2.84649
2.87823
2.90022
2.91053
2.90952
2.89247
2.47929
2.4472
2.41601
2.38715
2.36196
2.34164
2.32738
2.32089
2.3211
2.32883
2.34283
2.3612
2.38073
2.39859
2.41343
2.42598
2.4374
2.4495
2.46351
2.4799
2.50003
2.5233
2.54727
2.55827
2.57082
2.5814
2.58894
2.59385
2.59563
2.59417
2.5894
2.58146
2.57077
2.55794
2.54403
2.53031
2.51794
2.50449
2.50606
2.50411
2.51667
2.54563
2.58415
2.63023
2.681
2.73295
2.7833
2.82963
2.86973
2.90129
2.92201
2.93029
2.92491
2.90116
2.484
2.45554
2.42804
2.40243
2.37965
2.36061
2.34609
2.3373
2.33397
2.3359
2.34308
2.35375
2.36582
2.37751
2.38854
2.39977
2.41188
2.42583
2.44193
2.45901
2.4782
2.498
2.51656
2.53034
2.54365
2.55415
2.56285
2.56906
2.57257
2.57306
2.57031
2.56436
2.55555
2.54448
2.53202
2.51873
2.50425
2.49647
2.50006
2.50401
2.52478
2.55684
2.59861
2.64672
2.69913
2.75242
2.80364
2.85046
2.89038
2.9207
2.93885
2.94355
2.93153
2.89924
2.49396
2.46933
2.44518
2.42212
2.40071
2.38151
2.36504
2.35177
2.34205
2.3361
2.33403
2.33501
2.33882
2.34471
2.35296
2.36428
2.37856
2.39552
2.41433
2.43347
2.45207
2.46979
2.48613
2.49982
2.51458
2.52615
2.53629
2.54401
2.54988
2.55264
2.55208
2.54822
2.54132
2.53048
2.51867
2.49914
2.49111
2.49199
2.49618
2.50759
2.53298
2.56813
2.61216
2.66225
2.71576
2.76972
2.82129
2.86789
2.90654
2.9342
2.94792
2.94725
2.92668
2.88429
2.50809
2.48686
2.46535
2.4438
2.42243
2.40151
2.38131
2.36212
2.3445
2.32922
2.31678
2.30849
2.30512
2.3067
2.31366
2.3263
2.34354
2.36393
2.38577
2.40735
2.42676
2.44369
2.45826
2.47302
2.4901
2.49573
2.50836
2.5181
2.52645
2.53257
2.53466
2.53293
2.5261
2.51346
2.50117
2.48691
2.48477
2.48748
2.4953
2.51318
2.54089
2.57847
2.62424
2.67556
2.72965
2.78369
2.83484
2.88004
2.91576
2.93901
2.94725
2.93859
2.90743
2.85407
2.52432
2.50566
2.48571
2.46442
2.44175
2.41777
2.3926
2.36671
2.34096
2.31669
2.29534
2.27923
2.27137
2.27056
2.27742
2.2918
2.31173
2.33503
2.35939
2.38269
2.40338
2.42018
2.43355
2.44529
2.45947
2.47798
2.47991
2.49
2.50294
2.51266
2.51745
2.51596
2.50673
2.50215
2.48402
2.47996
2.47937
2.4848
2.49757
2.51839
2.54857
2.58784
2.63448
2.68603
2.73991
2.79315
2.84272
2.885
2.91635
2.93329
2.93458
2.91458
2.87161
2.80827
2.53995
2.52278
2.50321
2.481
2.45599
2.42815
2.3976
2.36546
2.33273
2.3015
2.27397
2.25319
2.24311
2.24155
2.24883
2.2645
2.28626
2.31144
2.33734
2.36191
2.3836
2.40134
2.415
2.42491
2.43534
2.44964
2.46808
2.46788
2.47649
2.49247
2.49952
2.4913
2.4872
2.49526
2.47444
2.47591
2.47616
2.48511
2.50015
2.52353
2.55544
2.59557
2.64223
2.69323
2.74586
2.79709
2.84364
2.88147
2.90681
2.91551
2.90581
2.87325
2.81923
2.7488
2.55224
2.53547
2.51528
2.49137
2.46356
2.43196
2.39686
2.35987
2.32252
2.28742
2.25704
2.23454
2.22399
2.22239
2.23005
2.24632
2.26859
2.29414
2.3206
2.34597
2.36867
2.38797
2.40349
2.41544
2.42517
2.43474
2.44973
2.46331
2.46193
2.48108
2.47444
2.47935
2.48456
2.47528
2.46765
2.46892
2.47424
2.48563
2.50306
2.52801
2.56093
2.60101
2.64687
2.69633
2.74669
2.79493
2.83678
2.86781
2.88303
2.8823
2.85989
2.81538
2.75236
2.67907
2.55902
2.54185
2.52049
2.49466
2.46433
2.42968
2.39195
2.35255
2.31361
2.27783
2.24756
2.22553
2.21542
2.21397
2.22139
2.23688
2.25824
2.28307
2.30912
2.33425
2.35726
2.37745
2.39458
2.40884
2.42084
2.43108
2.44115
2.45275
2.45778
2.46716
2.46854
2.46761
2.46849
2.46345
2.462
2.46514
2.47347
2.48671
2.50567
2.53157
2.5645
2.60377
2.64801
2.69505
2.74218
2.7851
2.81948
2.84059
2.84608
2.83299
2.79776
2.74291
2.67472
2.60345
2.55937
2.54143
2.51889
2.49163
2.45982
2.42402
2.38569
2.34657
2.30876
2.27455
2.24603
2.22528
2.21577
2.2143
2.22089
2.23504
2.25483
2.27806
2.30256
2.3268
2.34951
2.3698
2.38737
2.40232
2.41502
2.42585
2.43471
2.44306
2.45002
2.45579
2.45839
2.45882
2.45829
2.45746
2.45865
2.46375
2.47343
2.4878
2.50746
2.53351
2.5657
2.60346
2.64531
2.68863
2.72978
2.76491
2.78976
2.80017
2.79462
2.76815
2.72133
2.65919
2.5908
2.52671
2.55367
2.5351
2.51193
2.48426
2.45246
2.4175
2.38086
2.34416
2.30925
2.27815
2.25251
2.23352
2.22448
2.22268
2.22786
2.23979
2.25706
2.27789
2.30057
2.32341
2.34512
2.36502
2.38267
2.39788
2.4108
2.42174
2.43061
2.43823
2.44411
2.44825
2.45072
2.45186
2.45254
2.4536
2.45667
2.4633
2.4737
2.48853
2.50833
2.5336
2.56432
2.59959
2.63724
2.67446
2.70797
2.73367
2.74716
2.74732
2.72844
2.68957
2.63378
2.56881
2.50524
2.45305
2.54339
2.5248
2.502
2.47525
2.44514
2.41273
2.37938
2.34647
2.31556
2.28815
2.26552
2.24847
2.2395
2.2371
2.24053
2.24997
2.26434
2.28232
2.30243
2.32328
2.34367
2.36268
2.37971
2.39461
2.40733
2.41801
2.42659
2.43379
2.43927
2.44304
2.44563
2.44746
2.44906
2.45153
2.45599
2.46329
2.47394
2.48853
2.50757
2.53138
2.55948
2.5904
2.62208
2.6517
2.67574
2.69072
2.69363
2.68096
2.64951
2.60039
2.53928
2.47604
2.42211
2.3858
2.53094
2.51311
2.49169
2.46707
2.43994
2.41123
2.38204
2.35355
2.32687
2.30316
2.28333
2.26805
2.25891
2.25573
2.25739
2.26428
2.27565
2.29058
2.30787
2.32634
2.34487
2.36256
2.37875
2.39304
2.4053
2.41562
2.42385
2.43074
2.43609
2.43977
2.44274
2.44522
2.44763
2.45099
2.456
2.46334
2.47357
2.48723
2.50462
2.52566
2.5495
2.57467
2.5988
2.61922
2.633
2.63686
2.62809
2.60318
2.56114
2.50484
2.44192
2.38431
2.34449
2.32344
2.51857
2.50225
2.48306
2.46143
2.43798
2.41343
2.38864
2.36453
2.34187
2.32152
2.30418
2.29049
2.28104
2.27712
2.27715
2.28164
2.29014
2.30204
2.31642
2.33231
2.34872
2.36475
2.37973
2.39318
2.40489
2.41478
2.42274
2.42948
2.43479
2.43859
2.4419
2.44475
2.44763
2.4512
2.45609
2.4628
2.47183
2.48363
2.49819
2.51498
2.53308
2.55103
2.56632
2.57668
2.57982
2.57267
2.55235
2.5173
2.46783
2.40752
2.34511
2.29563
2.26992
2.26271
2.50794
2.49369
2.47724
2.45896
2.43932
2.4189
2.3983
2.37817
2.3591
2.34169
2.32653
2.31413
2.30486
2.30003
2.29881
2.30114
2.30706
2.31612
2.32768
2.34096
2.3551
2.3693
2.38288
2.39533
2.40636
2.41575
2.42356
2.43012
2.43542
2.43935
2.44274
2.44557
2.44834
2.45147
2.45545
2.46072
2.46775
2.47642
2.48661
2.49775
2.50869
2.51836
2.52393
2.52472
2.51738
2.49969
2.46994
2.42787
2.37462
2.31309
2.25106
2.20839
2.19276
2.19762
2.49996
2.48802
2.47441
2.45942
2.4434
2.42675
2.40987
2.39322
2.37727
2.36242
2.34917
2.33797
2.32919
2.3235
2.32134
2.32199
2.32572
2.33228
2.34125
2.35203
2.36392
2.37622
2.38829
2.39962
2.40987
2.41869
2.42628
2.43261
2.4377
2.44154
2.44459
2.44687
2.44886
2.45079
2.45302
2.45592
2.45954
2.4637
2.4681
2.47238
2.47549
2.47612
2.47295
2.46407
2.44749
2.42149
2.38534
2.33954
2.28558
2.22466
2.1607
2.11536
2.10132
2.12249
2.49475
2.48509
2.47416
2.46217
2.44934
2.43594
2.42226
2.4086
2.39531
2.38271
2.3712
2.36116
2.35298
2.34693
2.344
2.34347
2.34543
2.3499
2.35661
2.36513
2.3749
2.38533
2.39584
2.40595
2.41524
2.42342
2.43053
2.43641
2.44098
2.44422
2.44641
2.44753
2.44795
2.4479
2.44728
2.44645
2.4454
2.44383
2.44155
2.43826
2.43325
2.42541
2.41375
2.39684
2.37335
2.34218
2.30307
2.25662
2.20401
2.14509
2.0782
2.01488
1.98799
2.01932
2.49202
2.48438
2.47579
2.46636
2.45624
2.44559
2.43459
2.42346
2.41246
2.40185
2.39195
2.38307
2.37557
2.36971
2.36613
2.36484
2.36551
2.36834
2.37318
2.37973
2.38757
2.3962
2.40514
2.41393
2.42206
2.4294
2.43568
2.44072
2.44429
2.44631
2.44697
2.44631
2.44432
2.44113
2.43658
2.43088
2.42401
2.41591
2.40645
2.39553
2.3827
2.36733
2.34885
2.32635
2.29906
2.26628
2.22754
2.18286
2.13203
2.0744
2.00421
1.91054
1.81971
1.7964
2.56565
2.56155
2.55745
2.55353
2.55
2.54703
2.54475
2.54325
2.54262
2.5428
2.54363
2.54512
2.54701
2.54904
2.55096
2.55256
2.55361
2.55394
2.55348
2.55224
2.5787
2.57345
2.56801
2.56258
2.55734
2.55247
2.54809
2.54433
2.54126
2.5389
2.53719
2.53615
2.53559
2.53537
2.53529
2.53518
2.5349
2.53425
2.53315
2.53153
2.59229
2.58579
2.57899
2.57208
2.56523
2.5586
2.55233
2.54653
2.54129
2.53666
2.53268
2.52924
2.52635
2.52392
2.52181
2.5199
2.51805
2.51614
2.51408
2.51178
2.60583
2.59805
2.5899
2.58157
2.57321
2.56497
2.55699
2.54938
2.54221
2.53556
2.52946
2.5239
2.51888
2.51436
2.51026
2.5065
2.503
2.49966
2.49642
2.49319
2.61871
2.60965
2.60021
2.59054
2.58081
2.57114
2.56165
2.55244
2.54359
2.53515
2.52719
2.51972
2.51276
2.50629
2.5003
2.49473
2.48955
2.48469
2.48012
2.47579
2.63032
2.62005
2.60942
2.59857
2.58763
2.57671
2.56592
2.55534
2.54503
2.53506
2.52547
2.51631
2.50759
2.49935
2.49158
2.48428
2.47744
2.47104
2.46506
2.4595
2.64011
2.62877
2.61711
2.60524
2.59329
2.58134
2.56947
2.55775
2.54622
2.53494
2.52395
2.51331
2.50304
2.4932
2.48379
2.47486
2.46641
2.45848
2.45107
2.4442
2.64768
2.63546
2.62296
2.61029
2.59753
2.58476
2.57203
2.55939
2.54686
2.5345
2.52234
2.51042
2.49881
2.48753
2.47664
2.46619
2.45623
2.44682
2.43799
2.42979
2.65283
2.63992
2.62678
2.61351
2.60015
2.58677
2.57338
2.56003
2.54673
2.5335
2.52037
2.50739
2.49462
2.4821
2.46989
2.45806
2.4467
2.43588
2.42568
2.41617
2.65537
2.642
2.62845
2.61478
2.60103
2.58723
2.57339
2.55952
2.54562
2.53171
2.51781
2.50397
2.49023
2.47664
2.46328
2.45024
2.43761
2.4255
2.41403
2.40327
2.65557
2.64192
2.62811
2.61418
2.60017
2.58607
2.57192
2.55767
2.54334
2.52892
2.51443
2.49992
2.4854
2.47094
2.45661
2.44253
2.4288
2.41556
2.40294
2.39104
2.65355
2.63975
2.62578
2.61169
2.59751
2.58321
2.56885
2.55434
2.5397
2.52492
2.51002
2.49501
2.47991
2.46476
2.44966
2.43474
2.42011
2.40592
2.39232
2.37944
2.64956
2.63564
2.62155
2.60733
2.593
2.57855
2.56403
2.54935
2.53451
2.51952
2.50437
2.48903
2.47351
2.45788
2.44222
2.42667
2.41136
2.39644
2.38208
2.36841
2.64376
2.62971
2.61545
2.60105
2.58654
2.57196
2.5573
2.54252
2.52759
2.51253
2.49728
2.48178
2.46603
2.45011
2.4341
2.41815
2.40239
2.38699
2.37211
2.35789
2.63629
2.62198
2.60742
2.59273
2.57797
2.56323
2.54846
2.53363
2.51876
2.5038
2.4886
2.4731
2.45731
2.44129
2.42516
2.40904
2.39309
2.37746
2.36231
2.3478
2.62716
2.61236
2.5973
2.58215
2.56701
2.5521
2.53724
2.52251
2.5079
2.4932
2.47823
2.46292
2.44728
2.43137
2.41532
2.39927
2.38336
2.36776
2.35261
2.33806
2.61625
2.60064
2.58477
2.56892
2.55331
2.53816
2.52333
2.50897
2.49486
2.48065
2.46614
2.45124
2.43595
2.42037
2.40461
2.38884
2.37321
2.35786
2.34295
2.32862
2.60332
2.58643
2.56933
2.55248
2.53626
2.5209
2.50643
2.49281
2.47954
2.46616
2.45241
2.43817
2.42347
2.40841
2.39314
2.37785
2.36269
2.34781
2.33336
2.31947
2.58797
2.56917
2.55026
2.53198
2.51504
2.49973
2.48614
2.47379
2.46188
2.44979
2.43718
2.42393
2.41007
2.39575
2.38115
2.3665
2.35197
2.33773
2.32391
2.31065
2.56985
2.54821
2.52657
2.50624
2.48848
2.47383
2.46192
2.45167
2.4419
2.43176
2.42081
2.40891
2.39615
2.38274
2.36895
2.35505
2.34127
2.32779
2.31474
2.30226
2.54856
2.52278
2.497
2.47369
2.45507
2.4422
2.43312
2.4262
2.41969
2.41239
2.40374
2.39364
2.38225
2.36989
2.35696
2.34385
2.33088
2.31824
2.30606
2.29449
2.52503
2.49326
2.46116
2.43296
2.41343
2.40361
2.39916
2.39745
2.39573
2.39235
2.38669
2.37877
2.36893
2.35766
2.34556
2.33323
2.3211
2.30938
2.29819
2.28762
2.5054
2.46378
2.42139
2.3845
2.36187
2.3573
2.35984
2.3658
2.37104
2.37263
2.37084
2.36552
2.35716
2.3467
2.33516
2.32346
2.31214
2.30143
2.29132
2.28185
2.49803
2.44579
2.38906
2.33409
2.30453
2.30367
2.3153
2.33342
2.34722
2.35479
2.35692
2.35454
2.34787
2.33774
2.32638
2.3151
2.30461
2.29502
2.28608
2.27767
2.52562
2.47399
2.40601
2.33019
2.26913
2.25463
2.27662
2.30659
2.32809
2.34179
2.34809
2.34711
2.34114
2.33043
2.31842
2.30732
2.29791
2.28989
2.28252
2.27537
2.55833
2.50753
2.44235
2.36869
2.28114
2.23938
2.26604
2.29388
2.31666
2.33682
2.34672
2.34678
2.34001
2.32738
2.31327
2.30166
2.29347
2.28704
2.28114
2.27478
2.59249
2.54684
2.48762
2.41753
2.34401
2.30108
2.28085
2.29063
2.31429
2.33753
2.3464
2.34605
2.33761
2.3218
2.30533
2.29396
2.2898
2.28704
2.28386
2.2785
2.62769
2.58752
2.53609
2.47597
2.41579
2.36874
2.34065
2.33162
2.33824
2.35216
2.36181
2.36052
2.34816
2.32595
2.30237
2.28929
2.28627
2.28533
2.28536
2.28148
2.6615
2.62562
2.58067
2.5293
2.47721
2.43105
2.39567
2.37262
2.36139
2.35648
2.35338
2.34734
2.33271
2.31201
2.2924
2.28447
2.28911
2.2996
2.30364
2.29568
2.69384
2.66101
2.62001
2.57307
2.52396
2.47707
2.43636
2.40449
2.38129
2.36494
2.35132
2.33713
2.32122
2.30415
2.29038
2.28467
2.28512
2.28855
2.2913
2.29069
2.72496
2.69414
2.65491
2.60889
2.55881
2.50843
2.46182
2.42224
2.39067
2.36635
2.34663
2.32914
2.31267
2.29744
2.2854
2.27893
2.27678
2.27711
2.27824
2.27845
2.75461
2.7247
2.68549
2.63813
2.58495
2.5297
2.4769
2.43049
2.39227
2.36173
2.33743
2.31749
2.30072
2.28685
2.27647
2.27055
2.26836
2.26847
2.26998
2.2712
2.78244
2.75187
2.71061
2.65966
2.60155
2.5407
2.48241
2.43083
2.38802
2.35371
2.32675
2.30548
2.28856
2.2754
2.26599
2.26103
2.25951
2.26056
2.26362
2.26753
2.80811
2.77501
2.72958
2.67306
2.60879
2.54216
2.47892
2.42351
2.37795
2.34188
2.31394
2.29259
2.27634
2.26435
2.2567
2.25348
2.25336
2.25623
2.26123
2.26743
2.83053
2.79285
2.74115
2.67757
2.60666
2.53474
2.46809
2.41094
2.3648
2.32887
2.30155
2.28118
2.2663
2.25602
2.25067
2.24921
2.25095
2.25567
2.2627
2.27125
2.84786
2.80355
2.74393
2.67259
2.59555
2.52005
2.45236
2.39601
2.35157
2.31766
2.29245
2.27407
2.26104
2.25268
2.24921
2.24924
2.25284
2.25945
2.26836
2.27892
2.85773
2.80509
2.73687
2.65835
2.57713
2.50088
2.43519
2.38232
2.34172
2.31133
2.28886
2.27272
2.26156
2.2553
2.2532
2.25469
2.25967
2.26769
2.27807
2.2902
2.85786
2.79603
2.71963
2.63608
2.55396
2.48058
2.42006
2.373
2.3376
2.31132
2.2922
2.27862
2.26938
2.26474
2.26354
2.26595
2.2717
2.28053
2.29192
2.30513
2.84631
2.7753
2.69285
2.60791
2.52908
2.46226
2.40954
2.3698
2.34037
2.31883
2.3032
2.29207
2.28452
2.28098
2.28028
2.28312
2.28897
2.29811
2.30998
2.32387
2.82126
2.74296
2.65827
2.57652
2.50524
2.44806
2.40487
2.37315
2.35011
2.3333
2.32103
2.31214
2.30604
2.30322
2.30279
2.30562
2.31134
2.32035
2.33233
2.34657
2.78239
2.70062