/*--------------------------------*- C++ -*----------------------------------*\
  =========                 |
  \\      /  F ield         | OpenFOAM: The Open Source CFD Toolbox
   \\    /   O peration     | Website:  https://openfoam.org
    \\  /    A nd           | Version:  10
     \\/     M anipulation  |
\*---------------------------------------------------------------------------*/
FoamFile
{
    format      ascii;
    class       surfaceScalarField;
    location    "0.0975229";
    object      phi;
}
// * * * * * * * * * * * * * * * * * * * * * * * * * * * * * * * * * * * * * //

dimensions      [1 0 -1 0 0 0 0];

internalField   nonuniform List<scalar> 
31672
(
0.000389644
-2.37857e-05
0.000388805
-2.55017e-05
0.000388215
-2.68898e-05
0.000387889
-2.79067e-05
0.000387818
-2.85184e-05
0.00038799
-2.87099e-05
0.000388369
-2.84792e-05
0.00038892
-2.7832e-05
0.000389613
-2.67948e-05
0.000390381
-2.53811e-05
0.00039117
-2.36158e-05
0.00039194
-2.15604e-05
0.000392635
-1.92746e-05
0.000393238
-1.68191e-05
0.000393727
-1.42466e-05
0.000394067
-1.16135e-05
0.000394243
-8.97515e-06
0.000394256
-6.38004e-06
0.000394106
-3.87184e-06
0.000393797
-1.49033e-06
0.000393354
7.28281e-07
0.00039279
2.75975e-06
0.000392125
4.58803e-06
0.000391384
6.19882e-06
0.000390591
7.58478e-06
0.000389766
8.74175e-06
0.000388937
9.65992e-06
0.000388167
1.03382e-05
0.000387412
1.08343e-05
0.000386705
1.10769e-05
0.000386069
1.10491e-05
0.00038552
1.07527e-05
0.000385066
1.01734e-05
0.000384717
9.28676e-06
0.000384481
8.0674e-06
0.000384367
6.493e-06
0.000384386
4.54809e-06
0.000384549
2.23072e-06
0.000384869
-4.49178e-07
0.000385349
-3.4443e-06
0.000385999
-6.72141e-06
0.000386834
-1.0195e-05
0.000387844
-1.37759e-05
0.000389018
-1.73674e-05
0.000390341
-2.08606e-05
0.000391785
-2.41494e-05
0.000393314
-2.71348e-05
0.000394889
-2.97286e-05
0.000396463
-3.18577e-05
0.000397976
-3.34686e-05
0.000399379
-3.45466e-05
0.000400662
-3.50459e-05
0.000401763
-3.49531e-05
-3.42695e-05
0.000402638
0.000389542
-2.50491e-05
0.000389068
-2.69387e-05
0.000388863
-2.84752e-05
0.000388923
-2.96055e-05
0.000389235
-3.02926e-05
0.000389768
-3.05088e-05
0.000390503
-3.02676e-05
0.000391359
-2.95397e-05
0.0003923
-2.83495e-05
0.000393268
-2.67214e-05
0.000394204
-2.47116e-05
0.000395062
-2.23759e-05
0.000395806
-1.97808e-05
0.000396397
-1.69883e-05
0.000396809
-1.4062e-05
0.000397025
-1.10666e-05
0.000397035
-8.06492e-06
0.000396841
-5.11464e-06
0.00039645
-2.27049e-06
0.000395879
4.24222e-07
0.000395156
2.91482e-06
0.000394299
5.18433e-06
0.000393337
7.20066e-06
0.0003923
8.94421e-06
0.000391218
1.04009e-05
0.000390116
1.15606e-05
0.00038902
1.24153e-05
0.000387966
1.29482e-05
0.000386962
1.31975e-05
0.000386012
1.31247e-05
0.000385137
1.26796e-05
0.00038435
1.18691e-05
0.00038366
1.06784e-05
0.000383078
9.08436e-06
0.000382615
7.06634e-06
0.000382286
4.61077e-06
0.000382114
1.71252e-06
0.000382123
-1.60334e-06
0.000382318
-5.2859e-06
0.000382744
-9.29299e-06
0.00038341
-1.35292e-05
0.000384338
-1.7884e-05
0.00038552
-2.22381e-05
0.000386951
-2.64643e-05
0.000388607
-3.04365e-05
0.000390452
-3.40374e-05
0.000392439
-3.71649e-05
0.000394513
-3.97365e-05
0.000396612
-4.16911e-05
0.000398661
-4.30165e-05
0.000400599
-4.3662e-05
0.00040241
-4.36353e-05
0.000404003
-4.29282e-05
-4.16021e-05
0.000405333
0.000389329
-2.75368e-05
0.000389225
-2.95614e-05
0.000389417
-3.11906e-05
0.000389885
-3.23663e-05
0.000390606
-3.30344e-05
0.000391557
-3.32049e-05
0.000392636
-3.27977e-05
0.000393829
-3.1867e-05
0.000395063
-3.03978e-05
0.000396272
-2.84508e-05
0.000397389
-2.60821e-05
0.00039837
-2.33601e-05
0.00039917
-2.03503e-05
0.000399754
-1.71252e-05
0.000400099
-1.37577e-05
0.000400189
-1.03195e-05
0.000400022
-6.88369e-06
0.000399604
-3.51617e-06
0.000398947
-2.74892e-07
0.00039809
2.77051e-06
0.000397048
5.58549e-06
0.000395856
8.12832e-06
0.000394549
1.03642e-05
0.000393165
1.22665e-05
0.000391735
1.38141e-05
0.000390293
1.49898e-05
0.000388866
1.5779e-05
0.000387487
1.61715e-05
0.000386158
1.61775e-05
0.000384903
1.57406e-05
0.00038373
1.4829e-05
0.000382649
1.34374e-05
0.000381674
1.15448e-05
0.000380818
9.12843e-06
0.000380097
6.17302e-06
0.000379533
2.67915e-06
0.000379188
-1.37439e-06
0.000379038
-5.82673e-06
0.000379167
-1.07095e-05
0.000379602
-1.58855e-05
0.000380372
-2.12221e-05
0.000381498
-2.65665e-05
0.000382973
-3.17696e-05
0.000384789
-3.6672e-05
0.000386909
-4.11324e-05
0.000389284
-4.50268e-05
0.000391849
-4.82562e-05
0.000394533
-5.07493e-05
0.000397249
-5.24644e-05
0.000399909
-5.34287e-05
0.000402452
-5.35772e-05
0.000404826
-5.29137e-05
0.000406936
-5.15243e-05
-4.94731e-05
0.000408724
0.000389026
-3.11279e-05
0.000389311
-3.32276e-05
0.000389921
-3.48724e-05
0.000390831
-3.59887e-05
0.000392021
-3.65723e-05
0.000393363
-3.65031e-05
0.000394864
-3.58451e-05
0.000396433
-3.45625e-05
0.000397995
-3.27001e-05
0.000399467
-3.03222e-05
0.000400788
-2.74926e-05
0.000401907
-2.42821e-05
0.000402778
-2.0767e-05
0.000403362
-1.70251e-05
0.000403638
-1.31421e-05
0.000403595
-9.19953e-06
0.000403241
-5.2738e-06
0.000402577
-1.43567e-06
0.000401637
2.23714e-06
0.000400452
5.67611e-06
0.000399051
8.84347e-06
0.000397478
1.16843e-05
0.000395776
1.41585e-05
0.000393985
1.62323e-05
0.000392147
1.78767e-05
0.000390297
1.90663e-05
0.000388466
1.97776e-05
0.00038669
2.00091e-05
0.000384968
1.9739e-05
0.00038333
1.88736e-05
0.000381781
1.74168e-05
0.000380333
1.53437e-05
0.000379004
1.26242e-05
0.000377814
9.23601e-06
0.000376792
5.17284e-06
0.000375983
4.47961e-07
0.000375407
-4.88487e-06
0.000375155
-1.07139e-05
0.000375266
-1.69464e-05
0.000375791
-2.34187e-05
0.000376772
-2.99444e-05
0.000378219
-3.63292e-05
0.000380129
-4.23892e-05
0.000382477
-4.79418e-05
0.000385209
-5.28354e-05
0.000388255
-5.69484e-05
0.000391528
-6.01928e-05
0.000394936
-6.25127e-05
0.000398383
-6.39259e-05
0.000401736
-6.44268e-05
0.00040494
-6.3941e-05
0.000407919
-6.25966e-05
0.000410568
-6.04508e-05
-5.76124e-05
0.000412832
0.00038867
-3.56333e-05
0.000389366
-3.77211e-05
0.000390434
-3.92673e-05
0.000391849
-4.02573e-05
0.000393464
-4.05331e-05
0.000395299
-4.01654e-05
0.000397245
-3.90825e-05
0.000399222
-3.73339e-05
0.000401135
-3.49746e-05
0.000402897
-3.20664e-05
0.000404445
-2.86814e-05
0.000405715
-2.48944e-05
0.00040666
-2.08001e-05
0.000407246
-1.64826e-05
0.000407453
-1.20325e-05
0.000407272
-7.53733e-06
0.000406716
-3.0828e-06
0.000405775
1.27565e-06
0.000404529
5.38339e-06
0.00040298
9.24672e-06
0.00040118
1.27816e-05
0.000399177
1.59319e-05
0.000397022
1.86502e-05
0.000394764
2.08946e-05
0.000392448
2.26273e-05
0.000390113
2.3813e-05
0.000387802
2.44161e-05
0.000385541
2.44567e-05
0.00038334
2.38286e-05
0.000381223
2.24578e-05
0.000379202
2.03467e-05
0.000377293
1.74582e-05
0.000375523
1.37531e-05
0.000373925
9.21369e-06
0.000372533
3.85842e-06
0.000371444
-2.31823e-06
0.00037067
-9.10329e-06
0.000370328
-1.64514e-05
0.000370486
-2.41551e-05
0.0003712
-3.19942e-05
0.000372518
-3.97267e-05
0.000374433
-4.71308e-05
0.000376937
-5.39797e-05
0.000379978
-6.00871e-05
0.00038348
-6.53013e-05
0.000387345
-6.95127e-05
0.000391462
-7.2653e-05
0.00039571
-7.46975e-05
0.000399973
-7.57175e-05
0.000404099
-7.56196e-05
0.000408041
-7.44566e-05
0.000411667
-7.23405e-05
0.000414895
-6.94086e-05
-6.57329e-05
0.000417643
0.000388298
-4.07941e-05
0.000389448
-4.27441e-05
0.000391038
-4.41195e-05
0.000392903
-4.47346e-05
0.00039506
-4.46741e-05
0.000397408
-4.38044e-05
0.000399837
-4.21909e-05
0.000402244
-3.98806e-05
0.000404528
-3.69265e-05
0.000406598
-3.33986e-05
0.000408377
-2.93846e-05
0.000409805
-2.49683e-05
0.000410833
-2.02462e-05
0.000411423
-1.53098e-05
0.000411556
-1.02567e-05
0.000411227
-5.17933e-06
0.000410443
-1.68353e-07
0.000409233
4.69384e-06
0.000407632
9.28265e-06
0.000405682
1.35713e-05
0.000403437
1.74748e-05
0.000400952
2.09317e-05
0.000398285
2.38863e-05
0.000395491
2.62869e-05
0.000392623
2.80848e-05
0.000389719
2.92329e-05
0.000386831
2.96866e-05
0.00038399
2.94707e-05
0.000381204
2.83892e-05
0.000378496
2.6401e-05
0.000375885
2.3501e-05
0.000373402
1.9632e-05
0.000371088
1.47525e-05
0.000368991
8.86691e-06
0.000367182
2.00922e-06
0.000365745
-5.75608e-06
0.000364793
-1.42013e-05
0.000364419
-2.31653e-05
0.000364714
-3.23878e-05
0.000365751
-4.15811e-05
0.000367549
-5.04627e-05
0.000370104
-5.87743e-05
0.000373375
-6.62775e-05
0.00037728
-7.27881e-05
0.000381711
-7.81701e-05
0.000386539
-8.23362e-05
0.000391627
-8.52419e-05
0.000396851
-8.69556e-05
0.000401992
-8.74206e-05
0.000406985
-8.66427e-05
0.000411716
-8.47545e-05
0.000416041
-8.18611e-05
0.000419862
-7.80979e-05
-7.35704e-05
0.00042312
0.000387971
-4.62798e-05
0.000389645
-4.80176e-05
0.000391686
-4.89511e-05
0.000394138
-4.91937e-05
0.000396844
-4.85388e-05
0.00039972
-4.70992e-05
0.000402662
-4.48663e-05
0.000405519
-4.18999e-05
0.000408181
-3.82796e-05
0.000410568
-3.40813e-05
0.000412592
-2.93952e-05
0.000414187
-2.43121e-05
0.000415298
-1.89311e-05
0.000415892
-1.3353e-05
0.000415944
-7.67849e-06
0.000415458
-2.00604e-06
0.00041443
3.57104e-06
0.000412915
8.93249e-06
0.000410938
1.40018e-05
0.000408553
1.87089e-05
0.000405819
2.2972e-05
0.000402799
2.67212e-05
0.000399558
2.98916e-05
0.000396154
3.24206e-05
0.000392651
3.42451e-05
0.000389087
3.52992e-05
0.000385502
3.55729e-05
0.000381981
3.49766e-05
0.00037848
3.33273e-05
0.000375042
3.05963e-05
0.000371702
2.67386e-05
0.000368514
2.16949e-05
0.000365534
1.54425e-05
0.000362843
8.00164e-06
0.00036055
-5.5072e-07
0.000358772
-1.00567e-05
0.000357661
-2.02484e-05
0.000357334
-3.08556e-05
0.000357893
-4.15553e-05
0.000359402
-5.19992e-05
0.000361856
-6.18854e-05
0.000365233
-7.09252e-05
0.000369448
-7.88945e-05
0.000374384
-8.56264e-05
0.000379896
-9.10113e-05
0.000385826
-9.49922e-05
0.000391996
-9.75717e-05
0.000398271
-9.88466e-05
0.000404407
-9.86801e-05
0.00041034
-9.71927e-05
0.000415901
-9.45557e-05
0.000420969
-9.08858e-05
0.000425429
-8.62938e-05
-8.09147e-05
0.00042922
0.000387781
-5.18006e-05
0.000389891
-5.30419e-05
0.000392544
-5.35604e-05
0.000395557
-5.31342e-05
0.000398866
-5.18755e-05
0.000402309
-4.97501e-05
0.000405735
-4.68233e-05
0.000409038
-4.31597e-05
0.000412104
-3.884e-05
0.000414812
-3.39407e-05
0.000417085
-2.85578e-05
0.000418849
-2.27912e-05
0.000420046
-1.67393e-05
0.000420641
-1.05118e-05
0.000420607
-4.21262e-06
0.000419949
2.05792e-06
0.000418668
8.18918e-06
0.00041682
1.40467e-05
0.000414438
1.95813e-05
0.000411581
2.46919e-05
0.000408314
2.92947e-05
0.000404704
3.33114e-05
0.000400822
3.66661e-05
0.000396731
3.92824e-05
0.000392494
4.10814e-05
0.000388163
4.19818e-05
0.000383791
4.19813e-05
0.000379428
4.09051e-05
0.000375055
3.85353e-05
0.000370735
3.48931e-05
0.00036651
2.98903e-05
0.000362469
2.34691e-05
0.000358693
1.56407e-05
0.000355308
6.46012e-06
0.000352489
-3.94064e-06
0.000350393
-1.52703e-05
0.000349192
-2.7205e-05
0.00034903
-3.93829e-05
0.000350015
-5.1415e-05
0.000352168
-6.29281e-05
0.000355471
-7.35967e-05
0.000359851
-8.31444e-05
0.000365181
-9.13725e-05
0.000371302
-9.81457e-05
0.000378029
-0.000103387
0.000385169
-0.000107077
0.000392568
-0.000109323
0.000399918
-0.000109993
0.000407149
-0.000109196
0.000414097
-0.000107043
0.000420538
-0.000103679
0.000426382
-9.92457e-05
0.000431531
-9.38521e-05
-8.76381e-05
0.000435875
0.000387645
-5.68405e-05
0.000390376
-5.76396e-05
0.0003936
-5.74396e-05
0.00039724
-5.6371e-05
0.000401132
-5.43947e-05
0.000405112
-5.15456e-05
0.000409065
-4.79036e-05
0.000412833
-4.35261e-05
0.000416276
-3.84882e-05
0.000419321
-3.28852e-05
0.000421847
-2.68014e-05
0.000423781
-2.03488e-05
0.000425064
-1.36283e-05
0.000425655
-6.75189e-06
0.00042553
1.70082e-07
0.000424692
7.02708e-06
0.00042314
1.36997e-05
0.000420937
2.00493e-05
0.000418121
2.60296e-05
0.000414755
3.15227e-05
0.000410907
3.64388e-05
0.00040665
4.06896e-05
0.000402056
4.41864e-05
0.000397193
4.6836e-05
0.000392121
4.85397e-05
0.000386895
4.92283e-05
0.00038161
4.88276e-05
0.000376239
4.71077e-05
0.000370823
4.38742e-05
0.000365436
3.91279e-05
0.000360162
3.27699e-05
0.000355101
2.47819e-05
0.00035041
1.51861e-05
0.000346269
4.12455e-06
0.0003429
-8.17139e-06
0.000340547
-2.13393e-05
0.000339368
-3.48932e-05
0.000339537
-4.8467e-05
0.000341124
-6.16007e-05
0.000344114
-7.39298e-05
0.000348453
-8.51271e-05
0.000354009
-9.49554e-05
0.000360606
-0.000103253
0.000368039
-0.000109923
0.000376092
-0.000114922
0.000384573
-0.00011833
0.000393174
-0.000120111
0.000401772
-0.000120226
0.000410154
-0.000118834
0.000418129
-0.000116066
0.000425547
-0.000112037
0.000432242
-0.000106876
0.000438092
-0.000100721
-9.37039e-05
0.000443042
0.000387773
-6.12973e-05
0.000391072
-6.13254e-05
0.000394922
-6.04733e-05
0.000399164
-5.86598e-05
0.000403623
-5.59537e-05
0.000408172
-5.24017e-05
0.000412628
-4.80439e-05
0.000416857
-4.29613e-05
0.000420718
-3.72199e-05
0.000424083
-3.09203e-05
0.000426864
-2.41528e-05
0.00042897
-1.702e-05
0.000430343
-9.63525e-06
0.000430932
-2.11109e-06
0.000430703
5.43201e-06
0.000429673
1.28681e-05
0.000427839
2.00644e-05
0.000425257
2.69125e-05
0.000421978
3.33208e-05
0.000418064
3.91769e-05
0.000413586
4.43778e-05
0.000408619
4.88234e-05
0.000403234
5.24096e-05
0.000397504
5.5025e-05
0.000391464
5.65519e-05
0.000385231
5.69588e-05
0.00037887
5.59809e-05
0.000372302
5.34357e-05
0.000365653
4.91697e-05
0.000359007
4.31075e-05
0.000352483
3.52137e-05
0.000346261
2.54614e-05
0.000340556
1.39636e-05
0.000335626
9.63629e-07
0.000331779
-1.32056e-05
0.000329236
-2.80267e-05
0.00032825
-4.30199e-05
0.00032894
-5.77077e-05
0.000331318
-7.16631e-05
0.000335342
-8.45231e-05
0.000340885
-9.60047e-05
0.000347758
-0.000105917
0.000355739
-0.000114147
0.000364591
-0.000120634
0.000374045
-0.000125382
0.000383908
-0.000128486
0.00039384
-0.000129821
0.000403748
-0.000129455
0.000413335
-0.000127574
0.000422424
-0.000124263
0.000430843
-0.000119648
0.000438437
-0.000113839
0.000445087
-0.000106951
-9.91526e-05
0.000450683
0.000388113
-6.46692e-05
0.000392036
-6.40706e-05
0.000396467
-6.24628e-05
0.000401314
-5.99478e-05
0.00040638
-5.65651e-05
0.000411474
-5.23298e-05
0.000416443
-4.72961e-05
0.000421118
-4.15432e-05
0.000425382
-3.51423e-05
0.000429093
-2.81694e-05
0.000432142
-2.07306e-05
0.000434431
-1.29271e-05
0.000435898
-4.87646e-06
0.000436477
3.30276e-06
0.000436143
1.14692e-05
0.000434912
1.94936e-05
0.000432764
2.72316e-05
0.00042978
3.45757e-05
0.000426002
4.14089e-05
0.000421495
4.76117e-05
0.000416331
5.30686e-05
0.000410583
5.7665e-05
0.000404322
6.1278e-05
0.000397613
6.37731e-05
0.000390493
6.50633e-05
0.000383127
6.49897e-05
0.00037548
6.33097e-05
0.000367503
5.97506e-05
0.0003594
5.42262e-05
0.000351287
4.66685e-05
0.000343343
3.70376e-05
0.000335825
2.53913e-05
0.000329045
1.19386e-05
0.000323357
-2.9527e-06
0.000319102
-1.88157e-05
0.000316578
-3.50689e-05
0.000315977
-5.11737e-05
0.000317381
-6.6655e-05
0.000320743
-8.11259e-05
0.000325962
-9.42544e-05
0.00033284
-0.000105823
0.000341132
-0.000115688
0.000350578
-0.000123781
0.000360901
-0.000130075
0.00037189
-0.000134672
0.000383122
-0.000137413
0.000394468
-0.00013842
0.000405704
-0.000137742
0.000416555
-0.000135506
0.000426838
-0.000131795
0.000436376
-0.000126691
0.000444966
-0.000120298
0.000452467
-0.000112739
-0.000104168
0.000458791
0.000388732
-6.70416e-05
0.000393209
-6.57083e-05
0.00039827
-6.34575e-05
0.000403711
-6.03314e-05
0.000409337
-5.63097e-05
0.00041497
-5.14694e-05
0.000420453
-4.58451e-05
0.000425626
-3.94843e-05
0.000430308
-3.24573e-05
0.000434374
-2.48471e-05
0.000437701
-1.6747e-05
0.000440185
-8.26843e-06
0.000441754
4.68283e-07
0.000442323
9.32073e-06
0.000441879
1.8142e-05
0.000440425
2.67927e-05
0.000437941
3.51053e-05
0.00043452
4.29652e-05
0.000430199
5.02336e-05
0.000425044
5.67758e-05
0.000419126
6.24625e-05
0.000412513
6.71602e-05
0.000405272
7.07295e-05
0.000397423
7.30184e-05
0.000389139
7.39825e-05
0.000380443
7.31937e-05
0.000371252
7.06216e-05
0.000361682
6.58483e-05
0.00035193
5.88651e-05
0.000342132
4.96265e-05
0.000332611
3.81154e-05
0.000323727
2.45124e-05
0.00031588
9.1719e-06
0.000309535
-7.43877e-06
0.000305057
-2.47065e-05
0.00030274
-4.20566e-05
0.000302731
-5.89047e-05
0.00030503
-7.48617e-05
0.00030954
-8.95674e-05
0.000316068
-0.000102761
0.000324368
-0.00011429
0.000334175
-0.000124065
0.000345135
-0.000132008
0.000356983
-0.000138229
0.000369334
-0.00014264
0.000382091
-0.000145259
0.000394903
-0.000146132
0.000407538
-0.000145325
0.000419769
-0.000142922
0.000431348
-0.000138952
0.000442083
-0.00013347
0.000451786
-0.000126565
0.000460276
-0.000118337
-0.000108965
0.000467414
0.000389515
-6.82615e-05
0.000394612
-6.638e-05
0.000400267
-6.36155e-05
0.000406261
-5.99304e-05
0.000412476
-5.54353e-05
0.00041868
-5.00976e-05
0.000424704
-4.39636e-05
0.000430363
-3.70725e-05
0.000435486
-2.94727e-05
0.000439953
-2.12457e-05
0.000443599
-1.24824e-05
0.000446304
-3.30291e-06
0.000447981
6.15714e-06
0.000448535
1.57429e-05
0.000447972
2.52866e-05
0.000446274
3.46288e-05
0.000443419
4.35816e-05
0.000439513
5.20043e-05
0.000434588
5.97367e-05
0.000428712
6.66231e-05
0.000421952
7.25148e-05
0.000414376
7.72573e-05
0.000406026
8.06872e-05
0.000396918
8.27553e-05
0.000387326
8.30505e-05
0.000377055
8.15181e-05
0.000366094
7.77271e-05
0.000354714
7.15377e-05
0.000343038
6.29391e-05
0.000331416
5.18301e-05
0.000320236
3.8363e-05
0.000309978
2.28689e-05
0.000301167
5.8278e-06
0.000294307
-1.21725e-05
0.000289851
-3.05396e-05
0.000287939
-4.85439e-05
0.000288719
-6.58052e-05
0.000292063
-8.19428e-05
0.000297825
-9.66712e-05
0.000305776
-0.000109826
0.000315542
-0.000121242
0.000326786
-0.000130921
0.000339245
-0.000138877
0.000352583
-0.000145114
0.000366489
-0.000149573
0.000380734
-0.000152272
0.000395033
-0.000153246
0.00040915
-0.000152549
0.000422836
-0.000150162
0.000435852
-0.000146084
0.000447969
-0.000140334
0.000458935
-0.000132962
0.00046854
-0.00012406
-0.000113805
0.00047662
0.000390517
-6.85529e-05
0.000396155
-6.62628e-05
0.000402349
-6.30776e-05
0.000408985
-5.90925e-05
0.000415764
-5.42355e-05
0.000422546
-4.85468e-05
0.000429132
-4.20186e-05
0.000435355
-3.46754e-05
0.000441014
-2.65525e-05
0.000445908
-1.77152e-05
0.000449907
-8.26695e-06
0.000452867
1.66897e-06
0.000454669
1.19356e-05
0.000455218
2.23523e-05
0.000454522
3.27323e-05
0.000452541
4.28736e-05
0.000449265
5.2565e-05
0.000444805
6.1628e-05
0.000439195
6.98742e-05
0.0004325
7.71209e-05
0.000424786
8.31943e-05
0.000416103
8.79135e-05
0.000406447
9.1209e-05
0.000396073
9.27212e-05
0.000384851
9.23694e-05
0.000372735
8.96475e-05
0.000359844
8.44848e-05
0.000346352
7.67113e-05
0.000332654
6.62403e-05
0.000319081
5.31808e-05
0.000306213
3.78032e-05
0.000294684
2.05901e-05
0.0002851
2.15679e-06
0.000278001
-1.68589e-05
0.000273704
-3.5829e-05
0.000272437
-5.41797e-05
0.000274133
-7.15321e-05
0.000278649
-8.76406e-05
0.000285752
-0.000102273
0.000295034
-0.000115292
0.00030624
-0.000126691
0.000318957
-0.000136407
0.00033289
-0.000144548
0.000347657
-0.000150985
0.000363095
-0.000155742
0.00037887
-0.000158779
0.000394721
-0.000160142
0.000410412
-0.000159765
0.000425697
-0.000157631
0.000440312
-0.000153624
0.000453993
-0.000147712
0.000466438
-0.000139899
0.000477379
-0.000130259
-0.00011898
0.00048656
0.000391524
-6.8067e-05
0.000397713
-6.55559e-05
0.000404541
-6.22574e-05
0.000411707
-5.80986e-05
0.000419108
-5.3095e-05
0.000426556
-4.72191e-05
0.00043381
-4.04254e-05
0.000440651
-3.27106e-05
0.00044688
-2.4098e-05
0.000452314
-1.46411e-05
0.000456736
-4.44547e-06
0.000460002
6.3304e-06
0.00046196
1.75396e-05
0.000462505
2.89379e-05
0.000461666
4.0313e-05
0.000459349
5.14165e-05
0.000455577
6.19836e-05
0.000450467
7.17992e-05
0.000444054
8.06311e-05
0.000436409
8.8263e-05
0.000427585
9.44932e-05
0.000417581
9.91908e-05
0.000406649
0.000102112
0.000394648
0.000103019
0.000381524
0.000101562
0.000367377
9.75476e-05
0.000352253
9.07929e-05
0.000336559
8.11398e-05
0.000320626
6.86993e-05
0.000305092
5.36703e-05
0.000290658
3.65425e-05
0.000278042
1.79268e-05
0.000267917
-1.49263e-06
0.000260796
-2.10893e-05
0.000256954
-4.0298e-05
0.000256465
-5.86453e-05
0.000259191
-7.588e-05
0.000264904
-9.18127e-05
0.000273253
-0.000106298
0.000283906
-0.000119284
0.000296436
-0.000130763
0.000310559
-0.000140796
0.000325854
-0.000149231
0.000342088
-0.000156142
0.000358989
-0.000161441
0.000376307
-0.000165148
0.000393753
-0.000167194
0.000411144
-0.000167414
0.000428238
-0.000165784
0.000444678
-0.000162029
0.000460194
-0.000156068
0.000474392
-0.000147815
0.0004869
-0.000137324
-0.0001248
0.000497396
0.0003925
-6.70683e-05
0.000399233
-6.46332e-05
0.000406564
-6.14072e-05
0.00041441
-5.73566e-05
0.000422535
-5.24319e-05
0.000430673
-4.65315e-05
0.000438663
-3.96061e-05
0.000446275
-3.16102e-05
0.00045322
-2.25292e-05
0.000459296
-1.24155e-05
0.00046425
-1.38151e-06
0.000467886
1.03962e-05
0.000470045
2.27149e-05
0.000470592
3.53054e-05
0.000469576
4.78941e-05
0.00046685
6.01748e-05
0.00046248
7.1805e-05
0.000456585
8.25201e-05
0.000449211
9.20312e-05
0.00044044
0.000100078
0.000430228
0.000106491
0.000418893
0.000111049
0.000406297
0.000113427
0.000392434
0.000113407
0.000377201
0.000110713
0.000360707
0.000105072
0.000343224
9.64368e-05
0.000325084
8.47609e-05
0.000306965
7.0255e-05
0.000289571
5.34032e-05
0.00027376
3.48024e-05
0.000260342
1.51756e-05
0.000249959
-4.76401e-06
0.000243071
-2.45408e-05
0.000239848
-4.36696e-05
0.000240228
-6.17585e-05
0.000243987
-7.87507e-05
0.000250837
-9.44733e-05
0.000260376
-0.000108877
0.00027225
-0.000121987
0.000286064
-0.000133767
0.000301385
-0.000144171
0.000318001
-0.000153254
0.000335628
-0.000160915
0.000353977
-0.000167077
0.000372848
-0.000171751
0.000391977
-0.000174769
0.000411213
-0.000175918
0.000430303
-0.00017507
0.000448869
-0.000171799
0.000466549
-0.00016591
0.000482851
-0.000157198
0.000497279
-0.000145697
-0.000131618
0.000509387
0.000393166
-6.58398e-05
0.000400429
-6.37381e-05
0.000408463
-6.09317e-05
0.000416956
-5.72404e-05
0.00042582
-5.2607e-05
0.000434838
-4.691e-05
0.000443743
-3.99996e-05
0.000452283
-3.18046e-05
0.000460135
-2.22694e-05
0.000467
-1.14298e-05
0.000472593
5.84847e-07
0.000476707
1.35585e-05
0.000479122
2.72364e-05
0.000479686
4.1291e-05
0.000478455
5.53727e-05
0.000475227
6.91097e-05
0.000470117
8.20412e-05
0.000463254
9.38407e-05
0.000454712
0.000104145
0.000444482
0.000112697
0.000432868
0.000119259
0.000419824
0.00012344
0.0004053
0.000125133
0.000389252
0.000123923
0.000371575
0.000119618
0.000352566
0.000112129
0.000332459
0.00010137
0.000311938
8.75048e-05
0.000291676
7.10302e-05
0.000272664
5.25552e-05
0.000255826
3.28606e-05
0.00024196
1.2651e-05
0.00023156
-7.29177e-06
0.000225129
-2.69979e-05
0.000222581
-4.57427e-05
0.000223848
-6.34996e-05
0.000228583
-8.01806e-05
0.000236448
-9.57694e-05
0.000247078
-0.000110246
0.000260032
-0.000123633
0.000274873
-0.000135875
0.000291383
-0.000147006
0.000309233
-0.000156907
0.000328086
-0.000165602
0.000347849
-0.000172915
0.000368262
-0.000178912
0.000389119
-0.000183225
0.00041037
-0.000185662
0.000431723
-0.000185942
0.000452763
-0.000183449
0.00047306
-0.000177814
0.000491965
-0.00016862
0.000508716
-0.000155878
-0.000139837
0.000522775
0.00039343
-6.46161e-05
0.000401278
-6.32283e-05
0.000409854
-6.10977e-05
0.000419141
-5.80677e-05
0.000428969
-5.40298e-05
0.000438996
-4.87344e-05
0.000449014
-4.20169e-05
0.000458695
-3.37213e-05
0.00046766
-2.37371e-05
0.000475575
-1.2077e-05
0.000482026
1.11169e-06
0.000486756
1.55433e-05
0.000489493
3.08909e-05
0.000490083
4.67511e-05
0.000488575
6.26886e-05
0.000484705
7.82328e-05
0.000478659
9.27651e-05
0.000470584
0.000105876
0.000460515
0.000117135
0.000448712
0.00012627
0.000435254
0.000132791
0.000420229
0.000136559
0.000403323
0.00013719
0.000384784
0.000134427
0.000364425
0.000128334
0.000342584
0.00011858
0.000319932
0.0001055
0.000297029
8.94625e-05
0.000274935
7.1154e-05
0.000254653
5.14413e-05
0.000237132
3.10665e-05
0.000223092
1.0725e-05
0.000213079
-9.07274e-06
0.000207142
-2.82504e-05
0.000205348
-4.654e-05
0.00020739
-6.38929e-05
0.000212975
-8.03473e-05
0.000221726
-9.59296e-05
0.000233238
-0.000110659
0.000247057
-0.000124484
0.000262879
-0.000137452
0.000280333
-0.000149448
0.000299244
-0.000160493
0.000319285
-0.000170453
0.000340339
-0.000179276
0.000362248
-0.000186813
0.000384903
-0.000192857
0.000408285
-0.000196998
0.000432196
-0.000198815
0.000456157
-0.000197541
0.000479596
-0.000192399
0.000501608
-0.000182676
0.000521161
-0.000168399
-0.000149925
0.000537628
0.000392945
-6.36564e-05
0.000401339
-6.32524e-05
0.000410727
-6.2199e-05
0.00042088
-6.0136e-05
0.000431745
-5.6983e-05
0.000442965
-5.23685e-05
0.00045439
-4.60623e-05
0.000465579
-3.78002e-05
0.000476037
-2.73716e-05
0.000485256
-1.4762e-05
0.000492756
-1.47674e-07
0.000498268
1.60729e-05
0.000501432
3.34758e-05
0.000502068
5.15686e-05
0.00050022
6.98179e-05
0.000495525
8.76163e-05
0.000488284
0.000104126
0.000478639
0.000118822
0.000466734
0.000131288
0.000452979
0.00014088
0.000437385
0.000147367
0.000419697
0.000150313
0.000400225
0.000149576
0.000378747
0.000145077
0.000355349
0.00013667
0.000330735
0.000124429
0.00030543
0.000108944
0.000280479
9.07889e-05
0.000256915
7.09868e-05
0.000235845
5.03568e-05
0.00021809
2.9731e-05
0.000204245
9.58588e-06
0.000194608
-9.71566e-06
0.000189287
-2.83321e-05
0.000188151
-4.61292e-05
0.000190882
-6.31498e-05
0.000197164
-7.95021e-05
0.000206574
-9.52243e-05
0.000218735
-0.000110352
0.000233276
-0.000124876
0.000249831
-0.000138718
0.000268134
-0.000151839
0.000287905
-0.000164182
0.000308948
-0.000175638
0.000331173
-0.000186241
0.000354445
-0.000195645
0.000378965
-0.000203799
0.000404568
-0.000210133
0.000431272
-0.000214065
0.000458547
-0.00021452
0.000485517
-0.000210137
0.000511107
-0.000199864
0.000533919
-0.000183717
-0.000162399
0.000553275
0.000391533
-6.30561e-05
0.000400583
-6.40571e-05
0.000410622
-6.43554e-05
0.000421776
-6.36544e-05
0.000433925
-6.17477e-05
0.000446691
-5.8145e-05
0.000459871
-5.25335e-05
0.000472882
-4.44988e-05
0.00048522
-3.36678e-05
0.000496162
-1.99436e-05
0.000505063
-3.57316e-06
0.000511615
1.48667e-05
0.000515346
3.47891e-05
0.000516064
5.56234e-05
0.000513779
7.67672e-05
0.000508016
9.73798e-05
0.000499212
0.000116347
0.000487518
0.000133032
0.000473507
0.00014682
0.0004573
0.000156882
0.000438671
0.000163001
0.000418169
0.000164907
0.000395422
0.000162481
0.000370695
0.000155747
0.000344214
0.000144723
0.000316635
0.000129778
0.000289045
0.000111822
0.000262411
9.18341e-05
0.000237945
7.07893e-05
0.000216525
4.97144e-05
0.000198914
2.91308e-05
0.000185489
9.43589e-06
0.000176402
-9.25399e-06
0.000171659
-2.73025e-05
0.00017106
-4.46949e-05
0.000174272
-6.14704e-05
0.000180996
-7.78768e-05
0.000190871
-9.39448e-05
0.000203523
-0.000109692
0.000218568
-0.000125019
0.000235666
-0.000139913
0.000254568
-0.000154308
0.000275028
-0.00016811
0.000296863
-0.000181278
0.000320111
-0.000193766
0.000344569
-0.000205371
0.000370792
-0.000216056
0.00039846
-0.000225093
0.000427971
-0.000231756
0.000458509
-0.000234389
0.000489016
-0.000231008
0.000518169
-0.000220134
0.000544296
-0.000201929
-0.000177741
0.000566938
0.000388844
-6.29316e-05
0.000398441
-6.56379e-05
0.000409382
-6.77208e-05
0.000421696
-6.8776e-05
0.000435288
-6.85197e-05
0.000449757
-6.63314e-05
0.000465069
-6.18404e-05
0.000480523
-5.43328e-05
0.000495351
-4.31837e-05
0.00050851
-2.81518e-05
0.000519149
-9.59767e-06
0.000527006
1.15808e-05
0.000531501
3.45588e-05
0.000532371
5.87632e-05
0.000529542
8.35601e-05
0.000522426
0.000107732
0.000511527
0.000129782
0.000497464
0.000148892
0.000480623
0.000164029
0.000461094
0.000174439
0.000439244
0.000180039
0.000415069
0.00018045
0.000388771
0.000176024
0.000360432
0.000166508
0.000330534
0.000152543
0.000300324
0.000134748
0.000270799
0.000114528
0.000243101
9.28821e-05
0.000218229
7.10618e-05
0.000197027
4.97582e-05
0.000179857
2.95035e-05
0.000167002
1.0346e-05
0.00015848
-7.73064e-06
0.000154251
-2.53728e-05
0.000153965
-4.23647e-05
0.000157471
-5.9137e-05
0.000164473
-7.58013e-05
0.000174572
-9.23673e-05
0.000187464
-0.000108837
0.000202799
-0.000125172
0.000220255
-0.000141224
0.000239558
-0.000156962
0.000260468
-0.000172291
0.000282869
-0.000187218
0.00030676
-0.000201742
0.000332119
-0.000215764
0.000359652
-0.000229299
0.000388953
-0.000241503
0.000420696
-0.000251298
0.000453465
-0.000256323
0.000486284
-0.000254002
0.000518108
-0.000242858
0.000546821
-0.000222829
-0.000196614
0.000572518
0.000384614
-6.32432e-05
0.000394799
-6.80403e-05
0.000406556
-7.21965e-05
0.000420069
-7.55579e-05
0.00043521
-7.74025e-05
0.000451835
-7.71187e-05
0.000469687
-7.43046e-05
0.000487831
-6.77562e-05
0.000505653
-5.64725e-05
0.000521619
-3.99545e-05
0.000534536
-1.87376e-05
0.000544249
5.70396e-06
0.00054996
3.23127e-05
0.000551243
6.0674e-05
0.000547821
9.01449e-05
0.000539036
0.000118873
0.000525386
0.000144888
0.000508166
0.000166864
0.000487543
0.000183499
0.00046424
0.000194041
0.000438241
0.000198709
0.000409997
0.000197233
0.000379392
0.000190176
0.000347228
0.000177527
0.000314275
0.00016034
0.000281692
0.000139763
0.000250845
0.000117366
0.000222676
9.44969e-05
0.000198076
7.20665e-05
0.000177423
5.08226e-05
0.00016103
3.09078e-05
0.000148878
1.22766e-05
0.000140832
-5.26414e-06
0.000136861
-2.25723e-05
0.000136821
-3.95112e-05
0.000140434
-5.64241e-05
0.000147428
-7.34816e-05
0.000157576
-9.07455e-05
0.000170534
-0.000108083
0.000185952
-0.000125459
0.000203543
-0.000142734
0.000223047
-0.000159839
0.000244153
-0.000176653
0.00026676
-0.000193309
0.000290885
-0.000209816
0.000316631
-0.000226296
0.000344532
-0.000242592
0.000374203
-0.000257975
0.000406104
-0.000270623
0.000438403
-0.000277769
0.000470376
-0.000276258
0.000502371
-0.000266379
0.000530799
-0.000245459
-0.000219258
0.000557395
0.000378579
-6.39076e-05
0.000389114
-7.11503e-05
0.000401709
-7.77813e-05
0.00041657
-8.39259e-05
0.000433243
-8.82275e-05
0.000451812
-9.04101e-05
0.000471788
-8.97676e-05
0.000492893
-8.4863e-05
0.000514067
-7.36881e-05
0.000533174
-5.5742e-05
0.00054878
-3.16128e-05
0.000561178
-3.80303e-06