/*--------------------------------*- C++ -*----------------------------------*\
  =========                 |
  \\      /  F ield         | OpenFOAM: The Open Source CFD Toolbox
   \\    /   O peration     | Website:  https://openfoam.org
    \\  /    A nd           | Version:  10
     \\/     M anipulation  |
\*---------------------------------------------------------------------------*/
FoamFile
{
    format      ascii;
    class       volScalarField;
    location    "0.0975229";
    object      rho;
}
// * * * * * * * * * * * * * * * * * * * * * * * * * * * * * * * * * * * * * //

dimensions      [1 -3 0 0 0 0 0];

internalField   nonuniform List<scalar> 
15984
(
1.00055
1.00079
1.00108
1.00139
1.0017
1.00196
1.00218
1.00232
1.00236
1.00231
1.00215
1.00187
1.0015
1.00104
1.00052
0.999938
0.999313
0.998667
0.998014
0.99739
0.996788
0.996258
0.995807
0.995456
0.995225
0.995128
0.99517
0.995363
0.995776
0.996339
0.997101
0.998054
0.999196
1.00052
1.00203
1.00369
1.0055
1.00741
1.00939
1.01141
1.01339
1.0153
1.01708
1.01868
1.02005
1.02115
1.02197
1.02247
1.02267
1.0226
1.02226
1.02164
1.02078
1.01979
1.00459
1.00496
1.00533
1.00565
1.0059
1.00606
1.0061
1.00603
1.00581
1.00544
1.00495
1.00433
1.00361
1.0028
1.00193
1.00101
1.00005
0.999081
0.998139
0.997217
0.996362
0.995589
0.994918
0.994368
0.993961
0.993714
0.993645
0.993737
0.994068
0.994633
0.99543
0.99647
0.997761
0.999305
1.0011
1.00312
1.00534
1.00773
1.01023
1.01279
1.01532
1.01776
1.02003
1.02208
1.02382
1.02523
1.02627
1.02693
1.0272
1.02715
1.02675
1.02603
1.02497
1.02375
1.0088
1.00927
1.00966
1.00995
1.01009
1.01009
1.00991
1.00956
1.009
1.0083
1.00744
1.00645
1.00537
1.00419
1.00296
1.00168
1.00039
0.999112
0.997867
0.996669
0.995562
0.994559
0.993682
0.992953
0.992397
0.99203
0.991887
0.991932
0.992251
0.992883
0.993803
0.995032
0.996585
0.998468
1.00068
1.00319
1.00597
1.00894
1.01206
1.01522
1.01834
1.02132
1.02407
1.0265
1.02856
1.03018
1.03135
1.03205
1.0323
1.03216
1.03163
1.03066
1.0294
1.02787
1.01318
1.01368
1.01404
1.01421
1.01419
1.01394
1.01348
1.01276
1.01186
1.01076
1.00951
1.00814
1.00666
1.00511
1.00351
1.0019
1.00027
0.998696
0.997151
0.995696
0.994349
0.993132
0.992067
0.991182
0.990502
0.990052
0.989871
0.989919
0.990303
0.991083
0.99222
0.993752
0.995694
0.998055
1.00082
1.00397
1.00741
1.0111
1.01492
1.01875
1.02247
1.02597
1.02913
1.03187
1.03413
1.03585
1.03703
1.03765
1.03778
1.03747
1.03665
1.03543
1.03382
1.032
1.01768
1.01813
1.01836
1.01834
1.01805
1.01749
1.01664
1.0155
1.01419
1.01268
1.01102
1.00924
1.00738
1.00546
1.00351
1.00156
0.999625
0.997765
0.995949
0.994256
0.992692
0.991282
0.990055
0.989039
0.988267
0.987774
0.987594
0.987701
0.988238
0.989253
0.990719
0.992678
0.995151
0.998142
1.00163
1.00555
1.0098
1.01428
1.01885
1.02336
1.02764
1.03159
1.03506
1.03799
1.04031
1.04199
1.04304
1.04348
1.04339
1.04275
1.04167
1.04
1.03814
1.03595
1.02222
1.02249
1.02249
1.02214
1.02153
1.02049
1.0192
1.01765
1.01585
1.01391
1.01183
1.00965
1.00741
1.00514
1.00286
1.0006
0.998398
0.996277
0.994225
0.992321
0.990569
0.988998
0.987638
0.986526
0.985699
0.985212
0.985078
0.985315
0.986089
0.98746
0.989372
0.991898
0.995055
0.998831
1.00318
1.008
1.01316
1.01848
1.0238
1.02892
1.03368
1.03794
1.04159
1.04454
1.04677
1.04827
1.04907
1.04923
1.04882
1.04778
1.04625
1.04432
1.04204
1.03951
1.02661
1.02661
1.02621
1.0255
1.02431
1.02282
1.02099
1.01897
1.01669
1.01431
1.01181
1.00924
1.00665
1.00406
1.0015
0.998957
0.996535
0.994182
0.991946
0.989874
0.987975
0.986281
0.984828
0.983662
0.982824
0.982407
0.982367
0.982818
0.983953
0.985785
0.988287
0.991535
0.995533
1.00025
1.00559
1.0114
1.01749
1.02364
1.02963
1.03524
1.04033
1.04473
1.04835
1.05116
1.05315
1.05433
1.05477
1.05454
1.05373
1.05228
1.05028
1.04803
1.04538
1.04255
1.03072
1.03024
1.02941
1.02804
1.02633
1.02427
1.02192
1.01929
1.01661
1.01375
1.01086
1.00794
1.00504
1.00216
0.999359
0.996589
0.994016
0.991478
0.98911
0.986919
0.984919
0.983152
0.981653
0.980486
0.979702
0.979402
0.979541
0.980311
0.98194
0.984367
0.987615
0.991738
0.996734
1.00252
1.00894
1.01576
1.02273
1.0296
1.0361
1.04202
1.04721
1.05154
1.05495
1.05745
1.05905
1.0598
1.05983
1.05916
1.05782
1.05597
1.05367
1.05094
1.04806
1.0449
1.03427
1.03326
1.03168
1.02976
1.02737
1.02468
1.0217
1.01869
1.01543
1.01219
1.00893
1.0057
1.00252
0.999422
0.996422
0.993514
0.990824
0.988172
0.985732
0.983476
0.981437
0.979646
0.978166
0.977055
0.976405
0.976291
0.976695
0.977958
0.980195
0.983371
0.987522
0.992683
0.9988
1.00573
1.01323
1.021
1.02872
1.0361
1.04287
1.04887
1.05392
1.05796
1.06099
1.06302
1.06412
1.0644
1.06397
1.06277
1.06098
1.05871
1.05603
1.05314
1.04989
1.04651
1.03716
1.0353
1.0331
1.03037
1.02731
1.02398
1.0205
1.01686
1.01325
1.0096
1.00601
1.00251
0.999115
0.995856
0.992717
0.989752
0.986994
0.984298
0.981842
0.979588
0.977569
0.975824
0.974432
0.973457
0.973041
0.973152
0.973978
0.975933
0.978915
0.982996
0.988204
0.994529
1.00185
1.00992
1.01841
1.02695
1.03519
1.0428
1.04958
1.05536
1.06004
1.06361
1.06609
1.06756
1.06813
1.06786
1.06696
1.06525
1.06306
1.06045
1.0575
1.05431
1.05092
1.04736
1.03897
1.0365
1.03336
1.02984
1.0262
1.02218
1.01816
1.01405
1.00998
1.006
1.00215
0.998446
0.994877
0.991529
0.988304
0.985355
0.98258
0.97991
0.977501
0.975316
0.973379
0.971766
0.970531
0.969803
0.969682
0.970195
0.971594
0.974378
0.978311
0.983447
0.989861
0.997435
1.00594
1.01505
1.02433
1.03336
1.04179
1.04931
1.05579
1.06111
1.06521
1.06814
1.06999
1.07083
1.07084
1.07009
1.06863
1.06655
1.06407
1.06115
1.05802
1.0547
1.05111
1.04744
1.04005
1.03645
1.03254
1.02839
1.02387
1.01938
1.01472
1.01024
1.00581
1.00154
0.997448
0.993585
0.9899
0.986525
0.983273
0.980398
0.977659
0.975077
0.972777
0.970724
0.968955
0.967544
0.966579
0.966218
0.966435
0.967582
0.969813
0.973506
0.978592
0.984975
0.992655
1.00146
1.01105
1.02096
1.03071
1.03987
1.04811
1.05524
1.06115
1.06576
1.06912
1.07133
1.07248
1.07275
1.07225
1.07094
1.06912
1.06671
1.06401
1.06098
1.0577
1.05424
1.05061
1.04688
1.03977
1.03549
1.03079
1.02576
1.02068
1.01558
1.01049
1.00562
1.0008
0.996296
0.992062
0.988068
0.984336
0.98095
0.977736
0.974972
0.972316
0.969873
0.967749
0.965892
0.96438
0.963262
0.962704
0.962742
0.963633
0.965419
0.968847
0.973622
0.980007
0.987695
0.996696
1.00664
1.01705
1.02741
1.03722
1.04611
1.05381
1.06023
1.06531
1.06906
1.0716
1.07306
1.07356
1.07326
1.0723
1.07063
1.06848
1.06593
1.06306
1.05994
1.0566
1.05313
1.04944
1.04568
1.03879
1.03355
1.02794
1.0224
1.01671
1.01103
1.00554
1.00021
0.99529
0.990538
0.98614
0.982039
0.978317
0.974934
0.9718
0.969174
0.966639
0.964389
0.962488
0.960919
0.959736
0.959049
0.958967
0.959655
0.96119
0.96425
0.968791
0.974984
0.982701
0.991856
1.00201
1.01281
1.02369
1.03407
1.0435
1.05171
1.05854
1.064
1.06807
1.07091
1.07258
1.07332
1.07328
1.07252
1.07114
1.06924
1.06694
1.06427
1.06141
1.05824
1.05491
1.05141
1.04774
1.04399
1.03675
1.03072
1.02461
1.01832
1.01199
1.00597
1.00011
0.994548
0.989243
0.984346
0.979853
0.975656
0.971977
0.968589
0.965559
0.963106
0.960706
0.958695
0.957083
0.955867
0.955138
0.954987
0.955512
0.956979
0.959882
0.96386
0.970013
0.977735
0.987
0.997351
1.00851
1.0198
1.03067
1.04058
1.0492
1.05637
1.06206
1.06639
1.06937
1.07124
1.07218
1.07227
1.07171
1.07063
1.06897
1.06697
1.06464
1.06186
1.05917
1.05605
1.05273
1.04927
1.04556
1.04174
1.03416
1.02752
1.02054
1.01372
1.00711
1.00063
0.994338
0.988531
0.983051
0.977948
0.973374
0.969093
0.965443
0.962031
0.959106
0.956823
0.954589
0.952857
0.951596
0.950834
0.950692
0.951105
0.952555
0.955199
0.95913
0.965028
0.972729
0.982143
0.992743
1.0043
1.01598
1.02727
1.03762
1.04659
1.05402
1.05984
1.06427
1.06732
1.06926
1.07022
1.07042
1.07005
1.06913
1.06776
1.06601
1.06396
1.06181
1.05908
1.05653
1.05341
1.05017
1.04662
1.04292
1.03898
1.03109
1.02348
1.01647
1.00905
1.00191
0.995092
0.988572
0.982464
0.97683
0.971544
0.966787
0.962406
0.958745
0.955315
0.952484
0.950385
0.94834
0.946915
0.946095
0.945911
0.946309
0.947752
0.950219
0.954192
0.960219
0.967311
0.977198
0.988096
1.00016
1.01229
1.02413
1.03491
1.04419
1.05182
1.05775
1.06207
1.06509
1.06692
1.0678
1.06803
1.06763
1.06681
1.06562
1.06436
1.06228
1.06072
1.05843
1.05593
1.05354
1.0505
1.04726
1.04369
1.03998
1.03569
1.02759
1.01992
1.01202
1.00416
0.99682
0.989727
0.982831
0.976539
0.970535
0.965114
0.960232
0.955764
0.95202
0.948511
0.945754
0.943823
0.941977
0.940921
0.940654
0.940995
0.942465
0.944652
0.948936
0.954593
0.96209
0.97187
0.983193
0.996008
1.00874
1.02126
1.03254
1.0423
1.05016
1.0561
1.06029
1.06304
1.06463
1.06529
1.06525
1.0647
1.06392
1.06285
1.06156
1.06019
1.05847
1.05692
1.05485
1.05252
1.05037
1.04736
1.04423
1.04045
1.03659
1.03183
1.02424
1.01563
1.00802
0.99954
0.992048
0.984386
0.97724
0.970731
0.964542
0.958965
0.953734
0.949079
0.945182
0.941566
0.938825
0.937119
0.935438
0.934898
0.935151
0.936448
0.938602
0.942972
0.948469
0.956239
0.966421
0.977595
0.991433
1.00498
1.01847
1.03055
1.04094
1.04916
1.05518
1.05928
1.06166
1.06282
1.06309
1.06261
1.0618
1.06074
1.05955
1.05835
1.0571
1.0557
1.05449
1.05281
1.0512
1.04922
1.04698
1.04444
1.04099
1.03688
1.03272
1.02737
1.02065
1.01222
1.00397
0.995047
0.987371
0.979411
0.972144
0.965246
0.958598
0.952817
0.947233
0.942413
0.938377
0.934541
0.931806
0.930259
0.928817
0.928774
0.929704
0.931816
0.936274
0.941378
0.949747
0.959597
0.971884
0.985918
1.00079
1.01546
1.02871
1.03993
1.04877
1.05518
1.05929
1.06138
1.06198
1.06163
1.06057
1.05917
1.05764
1.05612
1.05479
1.05353
1.0523
1.05113
1.05024
1.04887
1.04755
1.04598
1.04374
1.04126
1.03732
1.03277
1.02809
1.02222
1.01752
1.00855
1.00025
0.991138
0.983261
0.974844
0.96704
0.959998
0.952999
0.947032
0.940902
0.935715
0.931419
0.927233
0.924417
0.923049
0.921953
0.922415
0.924307
0.928433
0.93368
0.942204
0.951961
0.964981
0.979949
0.995257
1.01177
1.02648
1.03897
1.04892
1.05595
1.06024
1.06227
1.06245
1.06134
1.05957
1.05738
1.05516
1.05301
1.05123
1.04962
1.04849
1.04736
1.04659
1.04588
1.04475
1.04427
1.04274
1.0413
1.03787
1.03366
1.02878
1.02483
1.01899
1.01436
1.00573
0.996751
0.987708
0.979227
0.970504
0.962969
0.955002
0.947252
0.941039
0.934366
0.928791
0.924291
0.919558
0.916636
0.915437
0.914799
0.915656
0.919004
0.924355
0.932852
0.942952
0.956814
0.971752
0.989278
1.00657
1.02318
1.03738
1.04892
1.05695
1.06202
1.06435
1.06433
1.06265
1.05998
1.05689
1.05376
1.05075
1.04821
1.04608
1.04452
1.0433
1.04245
1.04182
1.04155
1.04093
1.04113
1.03994
1.03853
1.03437
1.03138
1.02905
1.02811
1.02414
1.01165
1.00355
0.993013
0.985428
0.975582
0.967464
0.958735
0.949787
0.941758
0.935556
0.928064
0.92167
0.916569
0.911323
0.907352
0.906616
0.906885
0.909309
0.915422
0.922612
0.934043
0.946829
0.962986
0.981475
1.00051
1.0182
1.03485
1.04831
1.05772
1.06406
1.06696
1.06727
1.06538
1.06204
1.05802
1.05384
1.04974
1.04627
1.04324
1.04096
1.03922
1.03819
1.0374
1.0375
1.03726
1.03759
1.0379
1.03738
1.03597
1.03185
1.03997
1.05502
1.06415
1.06935
1.00922
1.00152
0.989615
0.98399
0.9715
0.965114
0.953891
0.945055
0.93769
0.933357
0.925373
0.919099
0.912575
0.905075
0.899714
0.895529
0.895878
0.900239
0.907811
0.920398
0.93421
0.95154
0.971019
0.991584
1.01202
1.03041
1.04582
1.05736
1.06557
1.06949
1.07073
1.06911
1.06562
1.06088
1.05568
1.0505
1.04578
1.04162
1.03833
1.03585
1.03405
1.03318
1.03264
1.03323
1.03355
1.03477
1.03512
1.03606
1.03495
1.03974
1.08157
1.18114
1.19981
1.23446
1.00815
0.998321
0.989983
0.980798
0.967919
0.962562
0.954212
0.942936
0.941162
0.949282
0.944512
0.940039
0.930306
0.918291
0.897184
0.898105
0.894345
0.896597
0.906563
0.920547
0.938338
0.958746
0.981531
1.00314
1.02452
1.04114
1.05545
1.06572
1.07116
1.07366
1.07297
1.06995
1.06522
1.05921
1.05308
1.0471
1.04172
1.03714
1.0335
1.03082
1.02891
1.02837
1.02816
1.02928
1.03015
1.03227
1.03396
1.03954
1.041
1.11014
1.27034
1.56033
1.55112
1.62785
1.00717
0.996123
0.989802
0.976796
0.972255
0.955902
0.968233
0.945529
1.00066
1.0609
1.06818
1.04755
1.08976
1.06984
1.0542
0.938784
0.896471
0.890279
0.900909
0.918983
0.942214
0.966701
0.991333
1.0147
1.03471
1.05101
1.06305
1.07095
1.07537
1.0761
1.07405
1.06982
1.06391
1.05715
1.05029
1.04373
1.03775
1.0328
1.02878
1.02604
1.02418
1.02383
1.02413
1.0256
1.02771
1.03105
1.03524
1.055
1.09512
1.33656
1.79867
1.91427
1.8789
2.02459
1.00594
0.995418
0.988682
0.976873
0.979437
0.964894
1.00375
1.0399
1.35444
1.43088
1.41222
1.4795
1.65882
1.62175
1.56715
1.30956
1.05079
0.946976
0.919084
0.924138
0.947762
0.973844
1.00071
1.02496
1.04331
1.05796
1.06867
1.07534
1.07745
1.07675
1.07382
1.06888
1.06215
1.05483
1.04744
1.04028
1.034
1.0285
1.0243
1.0214
1.01975
1.01984
1.02059
1.02278
1.02658
1.03305
1.05028
1.10879
1.35016
1.8401
2.06011
2.05746
2.07295
2.07097
1.00436
0.996938
0.988446
0.981424
0.999718
1.05019
1.10865
1.51426
1.76513
1.78727
1.81259
1.79553
1.77585
1.73296
1.63333
1.46494
1.16254
0.975723
0.92679
0.932405
0.951153
0.984056
1.00927
1.03171
1.05102
1.06256
1.07075
1.07589
1.07728
1.07618
1.07232
1.06681
1.0599
1.05211
1.04436
1.03703
1.03012
1.02455
1.02019
1.01737
1.01581
1.016
1.01808
1.02232
1.03017
1.04952
1.11709
1.34427
1.87543
2.08564
2.09121
2.09649
2.10058
2.08928
1.00552
0.99947
0.995134
1.02097
1.13885
1.3162
1.8333
1.85506
1.83467
1.83453
1.82415
1.80812
1.79165
1.76199
1.71436
1.58087
1.32768
1.0476
0.959011
0.945495
0.962061
0.986144
1.01433
1.03629
1.05291
1.06436
1.07166
1.07589
1.07607
1.07365
1.0699
1.06402
1.05711
1.04904
1.04132
1.03361
1.02664
1.02077
1.01632
1.01367
1.01232
1.0139
1.02027
1.02965
1.05314
1.13054
1.38336
1.88246
2.0826
2.10272
2.11012
2.11463
2.11458
2.1043
1.01219
1.01646
1.01408
1.30549
1.82894
1.82709
1.87816
1.86055
1.85091
1.83605
1.82511
1.81749
1.80805
1.78899
1.75626
1.7018
1.52957
1.16486
0.986768
0.96147
0.972463
0.995807
1.01856
1.03931
1.05358
1.06318
1.069
1.0725
1.0724
1.07046
1.06607
1.06061
1.05356
1.04591
1.038
1.03025
1.02323
1.01748
1.01309
1.01028
1.00946
1.01862
1.04041
1.06825
1.16141
1.45892
1.90818
2.0753
2.10082
2.11553
2.1248
2.13029
2.12971
2.1219
1.02689
1.10405
1.70714
1.86644
1.8992
1.88765
1.87864
1.86265
1.85201
1.83977
1.83285
1.8283
1.82506
1.81821
1.79957
1.76733
1.68199
1.43931
1.06452
0.98322
0.9834
0.998108
1.02024
1.03817
1.05212
1.06056
1.0657
1.06856
1.06789
1.06542
1.06177
1.05633
1.04958
1.04229
1.03441
1.02696
1.02
1.01425
1.01022
1.00823
1.01304
1.05524
1.12503
1.22202
1.56974
1.94765
2.06321
2.09346
2.11099
2.12713
2.13776
2.14438
2.14422
2.13838
1.56703
1.73486
1.90883
1.9296
1.90897
1.89514
1.87755
1.86187
1.85307
1.84564
1.84264
1.84283
1.84438
1.84484
1.83994
1.82481
1.78464
1.64772
1.31272
1.02934
0.999624
1.00673
1.02057
1.03697
1.04865
1.05581
1.06007
1.06265
1.06201
1.06037
1.05659
1.05167
1.04543
1.03819
1.03086
1.02333
1.0169
1.01156
1.0081
1.01222
1.05182
1.2026
1.40356
1.68238
1.96821
2.04544
2.08221
2.10298
2.12361
2.13942
2.15165
2.15809
2.15907
2.15376
1.8741
1.95223
1.9394
1.93499
1.90784
1.89241
1.87475
1.8637
1.85669
1.85342
1.85428
1.85945
1.86569
1.8725
1.87572
1.87322
1.86105
1.80121
1.62189
1.2284
1.0232
1.01675
1.02218
1.03393
1.0434
1.04965
1.05363
1.05608
1.05584
1.05394
1.05099
1.04673
1.0407
1.03404
1.02688
1.02004
1.01368
1.00924
1.01119
1.04634
1.22285
1.60581
1.83463
1.9827
2.02753
2.06687
2.09298
2.1145
2.13556
2.15273
2.1654
2.17225
2.17356
2.16902
1.97565
1.97441
1.94403
1.93172
1.90515
1.89027
1.87479
1.8664
1.86199
1.8626
1.86748
1.87662
1.88711
1.89834
1.90632
1.91083
1.90911
1.88523
1.80129
1.59297
1.1895
1.02163
1.0228
1.02987
1.0377
1.04333
1.04721
1.04954
1.04893
1.0481
1.04528
1.041
1.03585
1.02962
1.02287
1.01642
1.01106
1.00985
1.03237
1.16784
1.59151
1.89592
1.98637
2.01727
2.05229
2.07965
2.10127
2.12765
2.14849
2.16656
2.17955
2.18663
2.18837
2.18346
1.99409
1.96836
1.94615
1.92678
1.90478
1.89038
1.87728
1.87089
1.8692
1.8726
1.88088
1.89305
1.90662
1.91949
1.92868
1.93549
1.93618
1.91756
1.85515
1.68452
1.35501
1.04378
1.02212
1.02565
1.03088
1.03588
1.03944
1.04167
1.04196
1.04111
1.03908
1.03584
1.03083
1.02499
1.0189
1.01294
1.00874
1.01355
1.06038
1.28772
1.75919
1.96615
2.00709
2.03849
2.06283
2.08768
2.11534
2.13998
2.16234
2.18086
2.1939
2.20116
2.20245
2.19729
1.98834
1.96614
1.94459
1.92552
1.90684
1.89304
1.88236
1.8775
1.87779
1.88288
1.89294
1.90677
1.92173
1.93447
1.94397
1.95173
1.95429
1.94651
1.91744
1.82511
1.60409
1.23235
1.02844
1.02331
1.02501
1.02843
1.03174
1.03472
1.03539
1.03467
1.03313
1.0299
1.02578
1.02049
1.01453
1.00932
1.00703
1.01431
1.06238
1.27156
1.73194
1.96954
2.01729
2.04875
2.07109
2.0996
2.12837
2.15343
2.17682
2.19487
2.20826
2.21498
2.21608
2.20902
1.9851
1.96666
1.94529
1.92809
1.91153
1.89893
1.88987
1.88613
1.88677
1.89261
1.90253
1.91585
1.92918
1.94075
1.94919
1.95637
1.95879
1.95617
1.94071
1.89456
1.76787
1.51078
1.14798
1.02116
1.02182
1.02315
1.02536
1.02666
1.02762
1.02798
1.02703
1.02479
1.02067
1.01554
1.01067
1.00865
1.01665
1.05558
1.17876
1.50408
1.85659
1.98902
2.03283
2.05171
2.08557
2.11106
2.14127
2.16702
2.19065
2.20911
2.22163
2.22807
2.22733
2.21821
1.98565
1.96864
1.94968
1.93414
1.91927
1.90777
1.89963
1.89574
1.89574
1.89984
1.90803
1.91867
1.92916
1.9378
1.94555
1.95184
1.95571
1.95729
1.95269
1.93311
1.86576
1.70381
1.40674
1.08575
1.01448
1.0163
1.01699
1.02004
1.02148
1.02161
1.02131
1.01913
1.01544
1.01172
1.0123
1.02981
1.09651
1.28626
1.61618
1.88335
1.94074
2.00982
2.04349
2.06015
2.09923
2.12068
2.15534
2.18049
2.20399
2.22168
2.23399
2.23856
2.23589
2.22267
1.98904
1.97375
1.95745
1.94339
1.92981
1.91915
1.91063
1.90547
1.9034
1.90404
1.90846
1.91445
1.92101
1.92626
1.93246
1.93797
1.94253
1.94662
1.94638
1.93675
1.89961
1.79658
1.58579
1.26247
1.0418
1.00997
1.01088
1.01209
1.0143
1.01554
1.01556
1.01407
1.01242
1.018
1.05203
1.16467
1.46527
1.70635
1.92431
1.93483
1.99588
2.02595
2.04878
2.07025
2.10974
2.13431
2.16673
2.19247
2.21558
2.23278
2.24298
2.24589
2.23911
2.22226
1.99526
1.98173
1.96789
1.95477
1.94235
1.93129
1.92169
1.91408
1.9081
1.90439
1.90332
1.90417
1.90536
1.90804
1.91288
1.91884
1.92566
1.93263
1.93841
1.93786
1.92292
1.86738
1.7298
1.47069
1.13935
1.01219
1.00731
1.00684
1.00886
1.01031
1.01063
1.01281
1.02534
1.07757
1.23493
1.61961
1.78042
1.93964
1.94516
1.98328
2.00909
2.03449
2.05361
2.08304
2.11817
2.14554
2.1769
2.20307
2.22482
2.24033
2.24809
2.24751
2.23727
2.21254
2.00353
1.99212
1.97965
1.96739
1.95501
1.94294
1.93126
1.92022
1.90942
1.90066
1.89369
1.88873
1.88622
1.8868
1.89137
1.8982
1.90705
1.91717
1.92585
1.92861
1.9202
1.88832
1.80623
1.63988
1.36507
1.08521
1.00244
1.00555
1.00404
1.00626
1.01208
1.03357
1.10568
1.30608
1.7342
1.82239
1.94672
1.95641
1.97899
1.99677
2.01678
2.03898
2.06097
2.09402
2.12507
2.15537
2.18488
2.20986
2.23005
2.24305
2.24757
2.24309
2.22535
2.19847
2.01305
2.00306
1.99137
1.9793
1.9662
1.95239
1.9379
1.92286
1.90748
1.8936
1.88151
1.87201
1.86662
1.86614
1.87054
1.87887
1.89005
1.90292
1.91545
1.92557
1.92866
1.91626
1.8737
1.76886
1.57629
1.29206
1.06765
0.997607
1.00696
1.01442
1.03664
1.12153
1.3765
1.81496
1.84179
1.95532
1.96055
1.97698
1.98919
2.00371
2.02088
2.04308
2.06981
2.10082
2.13122
2.16167
2.18954
2.21309
2.23061
2.23993
2.24046
2.22948
2.20687
2.17076
2.02233
2.01268
2.00149
1.98882
1.97443
1.95847
1.94092
1.92205
1.90293
1.88492
1.86914
1.85694
1.85042
1.84954
1.85441
1.86356
1.87624
1.89078
1.90524
1.91782
1.92562
1.92477
1.90737
1.85952
1.75127
1.55547
1.27837
1.08738
1.03318
1.06072
1.16659
1.47003
1.72336
1.9544
1.92004
1.9745
1.97296
1.98369
1.99173
2.00814
2.02366
2.04975
2.07566
2.10576
2.13532
2.16423
2.19009
2.21136
2.22513
2.23018
2.22489
2.2065
2.17934
2.1373
2.02954
2.01984
2.00845
1.99477
1.97883
1.96071
1.94057
1.91882
1.89719
1.87678
1.85929
1.84597
1.83938
1.83855
1.8437
1.85314
1.86649
1.88147
1.89693
1.91087
1.92246
1.92971
1.93005
1.91823
1.88348
1.81147
1.68126
1.49834
1.40177
1.42425
1.58181
1.79348
1.94857
1.9334
1.9673
1.97364
1.97797
1.9844
1.99712
2.00882
2.02978
2.05312
2.07956
2.10789
2.13618
2.1633
2.1865
2.20385
2.21237
2.21142
2.20001
2.176
2.13968
2.10259
2.03335
2.02355
2.01144
1.99672
1.97936
1.95952
1.93774
1.91468
1.89212
1.87121
1.85374
1.84072
1.83446
1.83371
1.83861
1.84791
1.86068
1.87523
1.89039
1.90486
1.91775
1.92778
1.93466
1.93765
1.93506
1.92561
1.90815
1.87388
1.84449
1.83824
1.87073
1.94196
1.95695
1.97586
1.97172
1.97283
1.97838
1.98817
1.99793
2.01273
2.03326
2.05538
2.08113
2.1076
2.13403
2.15811
2.17707
2.18906
2.19154
2.18622
2.16302
2.13908
2.09472
2.06053
2.03352
2.02339
2.01057
1.99505
1.97684
1.95632
1.93414
1.91132
1.88932
1.86942
1.85285
1.84079
1.83484
1.83414
1.83839
1.84698
1.85869
1.87235
1.88686
1.90085
1.9137
1.92448
1.93346
1.93998
1.94415
1.94647
1.94786
1.94841
1.94569
1.94926
1.95417
1.96857
1.97117
1.97306
1.97117
1.9737
1.98056
1.98989
1.99936
2.0172
2.03384
2.05628
2.08032
2.10413
2.1275
2.14727
2.16102
2.16712
2.16336
2.14938
2.12244
2.08954
2.05066
2.01508
2.03035
2.01985
2.00667
1.99091
1.97271
1.9526
1.93137
1.91001
1.88972
1.87153
1.85653
1.84568
1.84006
1.83921
1.84254
1.84972
1.85996
1.87224
1.88577
1.89877
1.91108
1.92214
1.93141
1.93886
1.94451
1.94893
1.95295
1.95727
1.96004
1.96237
1.9659
1.96935
1.97108
1.9711
1.97107
1.97517
1.98287
1.9905
2.00143
2.01754
2.03358
2.05543
2.076
2.0965
2.11592
2.12984
2.13778
2.13747
2.12691
2.10583
2.07343
2.03824
2.00271
1.97242
2.0246
2.01407
2.00108
1.98581
1.96854
1.94987
1.93055
1.91142
1.89344
1.87739
1.86424
1.85442
1.84897
1.8476
1.84991
1.85563
1.86423
1.87487
1.88652
1.89857
1.91026
1.92085
1.93001
1.93774
1.94379
1.94866
1.95301
1.95748
1.96049
1.96292
1.96565
1.9679
1.96923
1.96979
1.97202
1.97666
1.98384
1.991
2.00216
2.01637
2.0322
2.05025
2.06728
2.08463
2.09755
2.10628
2.10791
2.10067
2.08285
2.05562
2.02043
1.985
1.95535
1.93255
2.01759
2.00748
1.99525
1.98118
1.96556
1.94902
1.93212
1.91557
1.90001
1.88623
1.87466
1.86586
1.86045
1.85857
1.85979
1.86401
1.87078
1.87951
1.88961
1.90024
1.91092
1.92078
1.92968
1.93722
1.9434
1.94835
1.95282
1.95698
1.95957
1.96182
1.96435
1.96675
1.96824
1.97011
1.97317
1.97761
1.98382
1.99112
2.00061
2.01379
2.02661
2.04115
2.05481
2.06575
2.07394
2.07628
2.07131
2.05712
2.03307
2.00193
1.96447
1.93213
1.90882
1.89727
2.01059
2.00133
1.99034
1.97795
1.96445
1.95029
1.93597
1.92194
1.90879
1.89696
1.88684
1.87889
1.87355
1.8712
1.87137
1.87405
1.87905
1.88616
1.89448
1.90366
1.913
1.92207
1.93036
1.93758
1.94368
1.94869
1.95326
1.95712
1.95969
1.96195
1.96443
1.96683
1.9685
1.97073
1.97366
1.97845
1.982
1.99032
1.99764
2.0077
2.0176
2.02788
2.03611
2.0423
2.04421
2.04025
2.0291
2.00925
1.98037
1.94591
1.90734
1.88026
1.8647
1.86227
2.00457
1.99646
1.98703
1.97653
1.96522
1.95344
1.94154
1.92987
1.91883
1.9087
1.89991
1.89273
1.88749
1.88459
1.88391
1.88541
1.88895
1.89426
1.90094
1.90857
1.91666
1.9247
1.93226
1.93903
1.94489
1.9499
1.95446
1.95818
1.96069
1.96312
1.96549
1.96753
1.96927
1.97141
1.97363
1.97747
1.97976
1.98651
1.99118
1.99794
2.00389
2.00907
2.01225
2.01307
2.00903
1.99919
1.98226
1.95756
1.92562
1.89037
1.85221
1.82814
1.8187
1.82358
2.00003
1.99322
1.9854
1.97679
1.96757
1.95796
1.94822
1.93861
1.92936
1.92076
1.9131
1.90662
1.90158
1.89834
1.89706
1.89755
1.89977
1.90358
1.90875
1.91494
1.92174
1.92871
1.93543
1.94166
1.94719
1.9521
1.95655
1.96001
1.96252
1.96489
1.96695
1.96851
1.96993
1.9714
1.97239
1.97406
1.97621
1.97856
1.98094
1.9833
1.98475
1.98478
1.98296
1.97838
1.96908
1.95524
1.93519
1.90952
1.87773
1.83832
1.79646
1.76865
1.76278
1.77914
1.99707
1.99154
1.98526
1.97836
1.97098
1.96326
1.95537
1.9475
1.93981
1.93254
1.92589
1.9201
1.91539
1.91201
1.91023
1.90995
1.91115
1.91376
1.91763
1.92252
1.92808
1.93399
1.93983
1.94542
1.95049
1.95523
1.95928
1.96239
1.96478
1.96684
1.96832
1.96914
1.96967
1.96979
1.96891
1.9687
1.96806
1.9669
1.96555
1.96357
1.96042
1.95563
1.94924
1.94
1.92669
1.90886
1.88567
1.8562
1.82121
1.78562
1.7471
1.70974
1.69661
1.71774
1.99551
1.99113
1.98619
1.98076
1.97494
1.96881
1.96247
1.95607
1.94973
1.94362
1.93791
1.9328
1.9285
1.9252
1.9231
1.92232
1.92276
1.9244
1.92717
1.93095
1.93539
1.94027
1.94522
1.95008
1.95466
1.95891
1.96237
1.96503
1.96702
1.9683
1.96868
1.96852
1.96778
1.96553
1.96281
1.95972
1.9555
1.95074
1.94515
1.93876
1.93111
1.92205
1.91167
1.89902
1.88379
1.86608
1.84579
1.82112
1.79145
1.75268
1.70182
1.63497
1.57269
1.56592
1.01868
1.01752
1.01636
1.01525
1.01426
1.01342
1.01278
1.01236
1.01219
1.01224
1.0125
1.01291
1.01347
1.01404
1.01458
1.01502
1.0153
1.01538
1.01526
1.01487
1.02236
1.02087
1.01934
1.0178
1.01632
1.01495
1.01371
1.01266
1.01179
1.01113
1.01066
1.01037
1.01021
1.01015
1.01013
1.01009
1.01001
1.00981
1.00949
1.009
1.02617
1.02434
1.02242
1.02047
1.01854
1.01667
1.0149
1.01326
1.01178
1.01048
1.00935
1.00838
1.00757
1.00688
1.00629
1.00574
1.00521
1.00466
1.00406
1.00339
1.02996
1.02777
1.02547
1.02313
1.02077
1.01845
1.0162
1.01404
1.01202
1.01014
1.00842
1.00685
1.00543
1.00414
1.00298
1.00191
1.00091
0.999954
0.999021
0.998089
1.03355
1.031
1.02835
1.02563
1.0229
1.02016
1.01751
1.01489
1.01239
1.01001
1.00775
1.00564
1.00366
1.00183
1.00012
0.998539
0.997058
0.995669
0.994359
0.993109
1.03678
1.0339
1.03092
1.02787
1.0248
1.02171
1.0187
1.01568
1.01277
1.00996
1.00724
1.00465
1.00217
0.999832
0.997622
0.995539
0.993584
0.991753
0.990036
0.98844
1.03951
1.03632
1.03305
1.02972
1.02636
1.02299
1.01968
1.01634
1.01309
1.0099
1.00679
1.00377
1.00086
0.998058
0.995381
0.99283
0.990416
0.988143
0.986015
0.984041
1.04159
1.03817
1.03466
1.03112
1.02752
1.02395
1.02036
1.01678
1.01324
1.00975
1.00631
1.00293
0.999632
0.996424
0.993322
0.990336
0.987488
0.984785
0.98225
0.979887
1.043
1.03938
1.03569
1.03199
1.0282
1.02451
1.0207
1.01693
1.01318
1.00944
1.00572
1.00204
0.998419
0.994852
0.991375
0.987989
0.984742
0.981628
0.978702
0.975951
1.04369
1.03993
1.03613
1.0323
1.02842
1.0246
1.02066
1.01674
1.01283
1.0089
1.00497
1.00105
0.99715
0.993274
0.989472
0.98573
0.982122
0.978633
0.975333
0.972226
1.04369
1.03984
1.036
1.03204
1.02815
1.02421
1.02018
1.01618
1.01214
1.00807
1.00398
0.999865
0.995754
0.991626
0.987548
0.983507
0.979574
0.975764
0.972121
0.968689
1.04306
1.03916
1.03528
1.03124
1.02736
1.02333
1.01924
1.01517
1.01106
1.00689
1.0027
0.998441
0.994168
0.989841
0.985546
0.981259
0.977058
0.972981
0.969042
0.965324
1.04182
1.03792
1.03395
1.02992
1.026
1.0219
1.01779
1.01369
1.00953
1.00532
1.00106
0.996714
0.992325
0.987864
0.983397
0.978936
0.974533
0.970233
0.966081
0.962111
1.04004
1.03614
1.03202
1.02803
1.02404
1.01987
1.01577
1.01165
1.0075
1.00327
0.999009
0.994624
0.99018
0.985635
0.981061
0.976489
0.971941
0.967504
0.963193
0.959062
1.03771
1.03378
1.02948
1.02552
1.02143
1.0172
1.01311
1.00899
1.00491
1.00072
0.996513
0.992123
0.98769
0.983111
0.978496
0.973877
0.96927
0.964743
0.96035
0.956136
1.0349
1.03074
1.02635
1.02229
1.01806
1.01379
1.00973
1.00568
1.00171
0.997644
0.993517
0.989212
0.984811
0.980289
0.975687
0.971065
0.966489
0.961939
0.957548
0.953299
1.03156
1.027
1.02247
1.01826
1.0138
1.00953
1.00552
1.00164
0.997878
0.993987
0.99004
0.985859
0.981582
0.977143
0.972644
0.968083
0.963568
0.959105
0.95475
0.950571
1.02762
1.02247
1.01775
1.01329
1.00853
1.00424
1.00042
0.996822
0.993373
0.98979
0.986064
0.982134
0.977996
0.973747
0.969364
0.964945
0.960545
0.956224
0.951992
0.947916
1.02281
1.01699
1.01184
1.00705
1.00198
0.997753
0.994275
0.99115
0.988158
0.985035
0.981667
0.978068
0.974179
0.970109
0.965949
0.961703
0.957484
0.953283
0.949275
0.945368
1.01706
1.0104
1.0045
0.999262
0.99376
0.989778
0.986961
0.984512
0.982311
0.979779
0.976958
0.973731
0.970213
0.966379
0.962439
0.958407
0.954393
0.950458
0.946592
0.942933
1.01326
1.00567
0.997559
0.990436
0.983875
0.97988
0.977964
0.976849
0.975694
0.974174
0.972036
0.969372
0.96619
0.962745
0.958915
0.955205
0.951346
0.947644
0.944087
0.94067
1.01889
1.01254
1.00066
0.988241
0.97686
0.969908
0.968094
0.967593
0.968259
0.968188
0.967087
0.965008
0.962343
0.959083
0.955657
0.952043
0.948472
0.945051
0.941773
0.93863
1.0738
1.07937
1.06144
1.02826
0.993917
0.970916
0.960676
0.960003
0.961064
0.96212
0.962112
0.961237
0.958889
0.955926
0.952628
0.948934
0.945883
0.942564
0.939685
0.936953
1.31009
1.38563
1.35565
1.25846
1.1503
1.02628
0.973127
0.958475
0.956841
0.957977
0.958592
0.95795
0.956039
0.953101
0.949761
0.94662
0.943249
0.940486
0.937926
0.935372
1.82542
1.83366
1.74522
1.63362
1.40038
1.15389
1.02249
0.971341
0.955891
0.954142
0.95492
0.9548
0.952915
0.950216
0.946804
0.943899
0.941248
0.938834
0.936885
0.934761
2.01502
1.97218
1.8981
1.77025
1.57354
1.21177
1.05339
0.993702
0.967813
0.959469
0.956622
0.955609
0.952582
0.949011
0.945061
0.941855
0.93964
0.937414
0.936184
0.933711
2.04987
2.01784
1.97171
1.91433
1.81716
1.65904
1.42709
1.23427
1.12382
1.02871
0.999426
0.987713
0.980331
0.970288
0.963776
0.951731
0.944275
0.939676
0.937563
0.935619
2.07017
2.05166
2.0181
1.9835
1.94481
1.90886
1.87851
1.82311
1.71098
1.624
1.59536
1.58641
1.54295
1.45713
1.32973
1.23005
1.06515
0.9945
0.967705
0.954107
2.09115
2.06865
2.04334
2.01286
1.98392
1.95546
1.93929
1.92638
1.92015
1.9154
1.91205
1.90633
1.89349
1.86565
1.81486
1.71562
1.55494
1.45713
1.42218
1.3834
2.1088
2.09022
2.0665
2.03948
2.01078
1.9847
1.96119
1.94689
1.92987
1.9232
1.91403
1.9055
1.89447
1.88451
1.87595
1.87208
1.87131
1.87053
1.86076
1.83996
2.12614
2.10891
2.08645
2.06024
2.03154
2.00288
1.97693
1.95469
1.93617
1.92318
1.91115
1.90111
1.89083
1.88168
1.87468
1.87104
1.86945
1.86897
1.86697
1.86165
2.14274
2.12573
2.10373
2.07683
2.04675
2.01548
1.98572
1.95956
1.93764
1.9203
1.90602
1.89425
1.88424
1.87597
1.86999
1.86669
1.86534
1.86525
1.86508
1.86392
2.15787
2.14092
2.11762
2.08901
2.05622
2.02192
1.98899
1.95966
1.93518
1.91559
1.89984
1.88745
1.8775
1.86983
1.86455
1.86149
1.86043
1.86091
1.86208
1.86351
2.17212
2.15348
2.12823
2.09647
2.0604
2.02283
1.98709
1.9554
1.92942
1.90855
1.89239
1.87987
1.87042
1.86356
1.85916
1.85717
1.85715
1.8587
1.86122
1.8642
2.18425
2.16332
2.13454
2.09901
2.05926
2.01874
1.98092
1.94822
1.92179
1.90095
1.88509
1.8732
1.86453