/*--------------------------------*- C++ -*----------------------------------*\
  =========                 |
  \\      /  F ield         | OpenFOAM: The Open Source CFD Toolbox
   \\    /   O peration     | Website:  https://openfoam.org
    \\  /    A nd           | Version:  10
     \\/     M anipulation  |
\*---------------------------------------------------------------------------*/
FoamFile
{
    format      ascii;
    class       volVectorField;
    location    "0.0975229";
    object      U;
}
// * * * * * * * * * * * * * * * * * * * * * * * * * * * * * * * * * * * * * //

dimensions      [0 1 -1 0 0 0 0];

internalField   nonuniform List<vector> 
15984
(
(0.499145 -0.0301204 0)
(0.497776 -0.0322111 0)
(0.496709 -0.0338648 0)
(0.49597 -0.0350467 0)
(0.495568 -0.0357285 0)
(0.495503 -0.0359018 0)
(0.495754 -0.0355663 0)
(0.496287 -0.0347358 0)
(0.497057 -0.0334378 0)
(0.498008 -0.0317007 0)
(0.499085 -0.0295663 0)
(0.500228 -0.0270932 0)
(0.501369 -0.0243468 0)
(0.502449 -0.0213907 0)
(0.50342 -0.0182968 0)
(0.504246 -0.0151368 0)
(0.504894 -0.011972 0)
(0.505342 -0.00885377 0)
(0.505582 -0.00583755 0)
(0.505604 -0.00297025 0)
(0.505419 -0.000286259 0)
(0.505038 0.00219225 0)
(0.504471 0.00443817 0)
(0.503739 0.00643879 0)
(0.502865 0.00819014 0)
(0.501877 0.00968228 0)
(0.500821 0.0109124 0)
(0.499699 0.0119019 0)
(0.498489 0.0126792 0)
(0.497236 0.0131782 0)
(0.495986 0.0133888 0)
(0.494752 0.0133039 0)
(0.493544 0.0129048 0)
(0.492375 0.0121602 0)
(0.491263 0.0110366 0)
(0.490226 0.00950324 0)
(0.489288 0.00753656 0)
(0.488477 0.00512937 0)
(0.487827 0.00229619 0)
(0.487364 -0.00095171 0)
(0.487123 -0.00455544 0)
(0.487144 -0.00842804 0)
(0.487453 -0.012475 0)
(0.488063 -0.0165939 0)
(0.488977 -0.020663 0)
(0.490185 -0.0245632 0)
(0.491661 -0.0281784 0)
(0.493365 -0.0314004 0)
(0.495228 -0.0341348 0)
(0.49716 -0.0363031 0)
(0.499151 -0.0378983 0)
(0.501167 -0.0388353 0)
(0.503099 -0.0390878 0)
(0.504854 -0.0386325 0)
(0.496766 -0.0308353 0)
(0.495811 -0.0331163 0)
(0.495194 -0.0349593 0)
(0.494943 -0.036313 0)
(0.495058 -0.0371355 0)
(0.495522 -0.0373991 0)
(0.496299 -0.037112 0)
(0.497339 -0.0362566 0)
(0.498592 -0.0348697 0)
(0.499998 -0.0329716 0)
(0.501478 -0.0306123 0)
(0.502954 -0.027862 0)
(0.504355 -0.0247964 0)
(0.505622 -0.0214923 0)
(0.506708 -0.0180251 0)
(0.50758 -0.014469 0)
(0.508211 -0.0108978 0)
(0.508582 -0.00737955 0)
(0.508688 -0.00397818 0)
(0.508532 -0.000752818 0)
(0.508134 0.00226035 0)
(0.507507 0.00501426 0)
(0.506673 0.00747847 0)
(0.505659 0.00963114 0)
(0.504495 0.0114571 0)
(0.503207 0.0129459 0)
(0.501843 0.0140842 0)
(0.500447 0.0148621 0)
(0.498954 0.0153343 0)
(0.497366 0.0154357 0)
(0.495769 0.0151253 0)
(0.494179 0.014406 0)
(0.492594 0.0132623 0)
(0.49102 0.0116672 0)
(0.489474 0.0095949 0)
(0.487984 0.00702721 0)
(0.486587 0.0039576 0)
(0.485333 0.000416161 0)
(0.48426 -0.00358506 0)
(0.483434 -0.0079663 0)
(0.482917 -0.0126394 0)
(0.482762 -0.017491 0)
(0.483009 -0.0223934 0)
(0.483682 -0.0272112 0)
(0.484787 -0.0318043 0)
(0.486309 -0.0360408 0)
(0.48821 -0.0398023 0)
(0.490435 -0.0429882 0)
(0.492896 -0.0455191 0)
(0.495467 -0.047355 0)
(0.498134 -0.048455 0)
(0.500865 -0.0487964 0)
(0.503522 -0.0483631 0)
(0.505989 -0.047184 0)
(0.494202 -0.0330925 0)
(0.493658 -0.0355492 0)
(0.493516 -0.0375391 0)
(0.493794 -0.0389931 0)
(0.494479 -0.0398547 0)
(0.495521 -0.0401141 0)
(0.49689 -0.039726 0)
(0.498522 -0.0387111 0)
(0.500336 -0.0370723 0)
(0.502259 -0.0348577 0)
(0.504189 -0.0321338 0)
(0.506039 -0.0289767 0)
(0.507735 -0.0254677 0)
(0.509217 -0.0216893 0)
(0.510441 -0.0177259 0)
(0.511371 -0.0136644 0)
(0.511981 -0.009589 0)
(0.51226 -0.00557924 0)
(0.512206 -0.00171329 0)
(0.511843 0.00195261 0)
(0.511185 0.00535529 0)
(0.510255 0.00844418 0)
(0.509088 0.011179 0)
(0.507717 0.0135282 0)
(0.506179 0.0154667 0)
(0.504503 0.016975 0)
(0.502736 0.0180367 0)
(0.500948 0.018634 0)
(0.499061 0.018796 0)
(0.497025 0.0184605 0)
(0.494953 0.0175805 0)
(0.492885 0.0161563 0)
(0.490801 0.0141686 0)
(0.488703 0.0115933 0)
(0.486617 0.00841388 0)
(0.484582 0.00463022 0)
(0.482672 0.000270281 0)
(0.480931 -0.00463996 0)
(0.47944 -0.0100081 0)
(0.478299 -0.0157224 0)
(0.477589 -0.0216479 0)
(0.477383 -0.0276242 0)
(0.477727 -0.0334902 0)
(0.478646 -0.0390766 0)
(0.480141 -0.0442277 0)
(0.48218 -0.0488041 0)
(0.484706 -0.0526904 0)
(0.487639 -0.0557984 0)
(0.490851 -0.0580673 0)
(0.494213 -0.0595066 0)
(0.497696 -0.0600456 0)
(0.501244 -0.0596932 0)
(0.504697 -0.0584844 0)
(0.507904 -0.0564891 0)
(0.491464 -0.036793 0)
(0.491366 -0.0393748 0)
(0.491751 -0.0414298 0)
(0.492625 -0.0428768 0)
(0.493931 -0.0436817 0)
(0.495643 -0.0437716 0)
(0.497693 -0.0431425 0)
(0.499984 -0.0418023 0)
(0.502437 -0.0397598 0)
(0.504928 -0.0370925 0)
(0.507352 -0.0338713 0)
(0.509613 -0.0301768 0)
(0.511636 -0.0260987 0)
(0.513358 -0.0217309 0)
(0.514728 -0.0171684 0)
(0.515712 -0.0125084 0)
(0.516292 -0.00784411 0)
(0.516454 -0.00326411 0)
(0.516217 0.00113765 0)
(0.515599 0.00529863 0)
(0.514625 0.00914371 0)
(0.51333 0.0126126 0)
(0.511756 0.0156552 0)
(0.509946 0.0182295 0)
(0.507941 0.0203001 0)
(0.505776 0.0218368 0)
(0.503501 0.0228123 0)
(0.501204 0.0232188 0)
(0.498778 0.0230455 0)
(0.496147 0.0221984 0)
(0.49346 0.0206617 0)
(0.490762 0.0184186 0)
(0.488025 0.0154432 0)
(0.485258 0.011715 0)
(0.482503 0.00723232 0)
(0.479835 0.00201427 0)
(0.477309 -0.00386894 0)
(0.475045 -0.0103484 0)
(0.473168 -0.0172746 0)
(0.471785 -0.0244818 0)
(0.471007 -0.0317773 0)
(0.470914 -0.0389529 0)
(0.471551 -0.0458134 0)
(0.472939 -0.0521616 0)
(0.475054 -0.0578314 0)
(0.477839 -0.0626849 0)
(0.481206 -0.066618 0)
(0.485046 -0.0695597 0)
(0.489173 -0.0714974 0)
(0.493471 -0.0724421 0)
(0.497927 -0.07231 0)
(0.502403 -0.0711825 0)
(0.506704 -0.0691239 0)
(0.510688 -0.0662366 0)
(0.488603 -0.0417383 0)
(0.489017 -0.0443552 0)
(0.490011 -0.0463585 0)
(0.491536 -0.0476978 0)
(0.493575 -0.0482666 0)
(0.49605 -0.0480429 0)
(0.498847 -0.0470152 0)
(0.501893 -0.0451847 0)
(0.505033 -0.042608 0)
(0.508136 -0.0393533 0)
(0.511094 -0.0355077 0)
(0.513801 -0.0311614 0)
(0.516171 -0.026411 0)
(0.518138 -0.0213608 0)
(0.519655 -0.0161156 0)
(0.520687 -0.0107799 0)
(0.521218 -0.00545851 0)
(0.521232 -0.0002585 0)
(0.520766 0.00474088 0)
(0.519845 0.0094413 0)
(0.518496 0.0137648 0)
(0.516765 0.0176423 0)
(0.514703 0.021013 0)
(0.512361 0.0238239 0)
(0.509785 0.0260274 0)
(0.507015 0.0275805 0)
(0.504117 0.0284416 0)
(0.501179 0.0286225 0)
(0.498038 0.0280355 0)
(0.494637 0.0265787 0)
(0.491168 0.0242564 0)
(0.487659 0.0210367 0)
(0.484088 0.0168857 0)
(0.480481 0.0117944 0)
(0.476904 0.00577998 0)
(0.473473 -0.00109437 0)
(0.470294 -0.00873623 0)
(0.467511 -0.0169689 0)
(0.465294 -0.0256003 0)
(0.463785 -0.0343957 0)
(0.463109 -0.0430993 0)
(0.46334 -0.0514675 0)
(0.464512 -0.0592657 0)
(0.466622 -0.0662878 0)
(0.469611 -0.072367 0)
(0.473384 -0.0773782 0)
(0.477818 -0.0812379 0)
(0.482743 -0.0839011 0)
(0.487948 -0.0854249 0)
(0.493375 -0.0857485 0)
(0.498926 -0.0848543 0)
(0.504399 -0.0828788 0)
(0.50961 -0.0799218 0)
(0.514404 -0.0760864 0)
(0.485715 -0.0476362 0)
(0.486731 -0.0501597 0)
(0.4884 -0.0520043 0)
(0.490706 -0.0530423 0)
(0.493573 -0.053236 0)
(0.496879 -0.052542 0)
(0.500535 -0.050942 0)
(0.504374 -0.0484844 0)
(0.508251 -0.0452475 0)
(0.512011 -0.0412974 0)
(0.515527 -0.036727 0)
(0.518693 -0.0316382 0)
(0.521421 -0.0261351 0)
(0.523638 -0.0203286 0)
(0.525294 -0.0143336 0)
(0.526356 -0.00826503 0)
(0.526799 -0.00224149 0)
(0.526647 0.00362755 0)
(0.525908 0.00924875 0)
(0.524617 0.0145151 0)
(0.522821 0.0193369 0)
(0.520575 0.0236353 0)
(0.517936 0.0273386 0)
(0.514959 0.0303803 0)
(0.511697 0.0326988 0)
(0.508189 0.0342349 0)
(0.504542 0.034934 0)
(0.500796 0.0348229 0)
(0.496731 0.0337024 0)
(0.492362 0.0315027 0)
(0.48791 0.028227 0)
(0.48338 0.02383 0)
(0.478769 0.0182778 0)
(0.474136 0.0115786 0)
(0.469601 0.00378757 0)
(0.465295 -0.00497369 0)
(0.461415 -0.0145465 0)
(0.458161 -0.0246768 0)
(0.455724 -0.0350878 0)
(0.454273 -0.0454753 0)
(0.453925 -0.0555333 0)
(0.45474 -0.0649895 0)
(0.456725 -0.0735867 0)
(0.459831 -0.0811252 0)
(0.463955 -0.0874531 0)
(0.468956 -0.0924688 0)
(0.474666 -0.0961144 0)
(0.480835 -0.0984202 0)
(0.487297 -0.0993884 0)
(0.494006 -0.098979 0)
(0.500756 -0.0972865 0)
(0.507293 -0.0944139 0)
(0.513451 -0.090526 0)
(0.519095 -0.085712 0)
(0.482933 -0.0541138 0)
(0.484622 -0.0564308 0)
(0.487112 -0.0579092 0)
(0.490288 -0.0585117 0)
(0.494057 -0.0581624 0)
(0.498322 -0.0568164 0)
(0.502881 -0.0545297 0)
(0.507562 -0.0513461 0)
(0.512195 -0.047344 0)
(0.516631 -0.0426137 0)
(0.520728 -0.0372434 0)
(0.524368 -0.0313408 0)
(0.527456 -0.0250221 0)
(0.529916 -0.0184066 0)
(0.531696 -0.0116179 0)
(0.532759 -0.00478141 0)
(0.533092 0.00198011 0)
(0.53271 0.00854292 0)
(0.531643 0.0147949 0)
(0.529925 0.0206331 0)
(0.52761 0.0259558 0)
(0.524762 0.0306713 0)
(0.521446 0.0346944 0)
(0.51772 0.0379432 0)
(0.51364 0.0403379 0)
(0.50925 0.0417972 0)
(0.504703 0.0422846 0)
(0.499944 0.0417494 0)
(0.494713 0.0399494 0)
(0.489152 0.0368409 0)
(0.483482 0.0324059 0)
(0.477693 0.0265914 0)
(0.471815 0.019383 0)
(0.465966 0.0108171 0)
(0.460338 0.0010155 0)
(0.455108 -0.0098362 0)
(0.450561 -0.0214574 0)
(0.446942 -0.0335267 0)
(0.444472 -0.0456841 0)
(0.443323 -0.0575597 0)
(0.443584 -0.0688232 0)
(0.44528 -0.079175 0)
(0.448372 -0.0883697 0)
(0.45275 -0.0962258 0)
(0.458258 -0.10262 0)
(0.464708 -0.107484 0)
(0.471843 -0.110796 0)
(0.479437 -0.112664 0)
(0.487348 -0.112958 0)
(0.495427 -0.111761 0)
(0.503436 -0.109229 0)
(0.511101 -0.105477 0)
(0.518253 -0.100638 0)
(0.524772 -0.0948434 0)
(0.480373 -0.0607925 0)
(0.482894 -0.0626891 0)
(0.486291 -0.0636707 0)
(0.490429 -0.0636608 0)
(0.495242 -0.062589 0)
(0.500483 -0.0605065 0)
(0.505973 -0.0574368 0)
(0.511525 -0.0534535 0)
(0.516947 -0.0486246 0)
(0.522075 -0.0430428 0)
(0.526762 -0.0368143 0)
(0.530878 -0.0300518 0)
(0.534319 -0.0228785 0)
(0.537007 -0.0154222 0)
(0.538887 -0.0078143 0)
(0.53992 -0.000190364 0)
(0.540102 0.00732037 0)
(0.539439 0.0145816 0)
(0.537981 0.0214729 0)
(0.535765 0.0278786 0)
(0.532851 0.0336898 0)
(0.529308 0.0388024 0)
(0.525205 0.0431152 0)
(0.520602 0.0465281 0)
(0.515551 0.048939 0)
(0.510136 0.0502422 0)
(0.504492 0.0504287 0)
(0.498457 0.0493143 0)
(0.491815 0.046645 0)
(0.484805 0.0424223 0)
(0.47764 0.0365845 0)
(0.470331 0.0290938 0)
(0.462962 0.0199605 0)
(0.45573 0.00929118 0)
(0.448905 -0.00271155 0)
(0.442782 -0.0157577 0)
(0.437683 -0.0294582 0)
(0.433898 -0.0434012 0)
(0.431663 -0.0571567 0)
(0.431115 -0.070322 0)
(0.4323 -0.0825538 0)
(0.435189 -0.0935573 0)
(0.439673 -0.103118 0)
(0.445576 -0.111087 0)
(0.452687 -0.11738 0)
(0.460761 -0.121961 0)
(0.469455 -0.124901 0)
(0.478629 -0.126179 0)
(0.488143 -0.125782 0)
(0.497669 -0.123812 0)
(0.506968 -0.120446 0)
(0.515807 -0.115826 0)
(0.524006 -0.11006 0)
(0.531429 -0.103298 0)
(0.478248 -0.0671824 0)
(0.481683 -0.0685406 0)
(0.486098 -0.0688519 0)
(0.491335 -0.0680711 0)
(0.497176 -0.0662258 0)
(0.503435 -0.0633268 0)
(0.509892 -0.0594187 0)
(0.516328 -0.0545704 0)
(0.522556 -0.0488681 0)
(0.52839 -0.0424019 0)
(0.533666 -0.0352856 0)
(0.538252 -0.0276381 0)
(0.542034 -0.0195883 0)
(0.544931 -0.0112725 0)
(0.546875 -0.0028368 0)
(0.547854 0.00558888 0)
(0.547827 0.0138449 0)
(0.546833 0.0217998 0)
(0.544916 0.0293243 0)
(0.542124 0.0362868 0)
(0.538522 0.0425661 0)
(0.534181 0.0480444 0)
(0.529169 0.0526023 0)
(0.523544 0.0561174 0)
(0.517355 0.0584606 0)
(0.51074 0.0595251 0)
(0.503774 0.0592554 0)
(0.496156 0.0573732 0)
(0.487809 0.0536225 0)
(0.479071 0.0480327 0)
(0.470123 0.0405292 0)
(0.461029 0.0310889 0)
(0.451963 0.0197894 0)
(0.443247 0.00683138 0)
(0.435219 -0.00747151 0)
(0.428298 -0.0226997 0)
(0.42286 -0.0383798 0)
(0.419198 -0.0540132 0)
(0.41752 -0.0691175 0)
(0.417909 -0.0832978 0)
(0.420344 -0.0962145 0)
(0.424718 -0.107613 0)
(0.430845 -0.11732 0)
(0.438486 -0.125232 0)
(0.447372 -0.131298 0)
(0.45716 -0.135562 0)
(0.467585 -0.138062 0)
(0.478497 -0.138708 0)
(0.489639 -0.137628 0)
(0.500676 -0.134944 0)
(0.511328 -0.1308 0)
(0.521387 -0.125329 0)
(0.530677 -0.118674 0)
(0.539043 -0.11097 0)
(0.476684 -0.072927 0)
(0.481143 -0.0735759 0)
(0.486703 -0.0730965 0)
(0.493007 -0.0715206 0)
(0.49994 -0.0688391 0)
(0.507239 -0.0650873 0)
(0.514673 -0.0603129 0)
(0.522014 -0.0545863 0)
(0.52905 -0.0479906 0)
(0.535588 -0.04063 0)
(0.541455 -0.0326125 0)
(0.546503 -0.0240671 0)
(0.550614 -0.0151275 0)
(0.553692 -0.0059405 0)
(0.555687 0.00334967 0)
(0.556544 0.0125734 0)
(0.556262 0.0215828 0)
(0.554878 0.0302296 0)
(0.552436 0.0383739 0)
(0.548984 0.0458728 0)
(0.544594 0.0525896 0)
(0.539336 0.0583886 0)
(0.533276 0.0631293 0)
(0.526462 0.0666631 0)
(0.518962 0.0688313 0)
(0.510933 0.0695632 0)
(0.502339 0.0686168 0)
(0.492818 0.0657217 0)
(0.482457 0.060662 0)
(0.471681 0.0534313 0)
(0.460651 0.0439865 0)
(0.449532 0.0323443 0)
(0.438632 0.0186935 0)
(0.42841 0.00335636 0)
(0.419294 -0.0132273 0)
(0.411795 -0.0305102 0)
(0.4063 -0.0479353 0)
(0.40311 -0.064951 0)
(0.402349 -0.0810833 0)
(0.404009 -0.0959588 0)
(0.407991 -0.10928 0)
(0.414097 -0.120844 0)
(0.422065 -0.130532 0)
(0.431601 -0.138281 0)
(0.442344 -0.144075 0)
(0.453964 -0.148014 0)
(0.466253 -0.15 0)
(0.478983 -0.15009 0)
(0.491808 -0.148417 0)
(0.504385 -0.145113 0)
(0.516458 -0.140279 0)
(0.527802 -0.134037 0)
(0.538233 -0.126527 0)
(0.547588 -0.117907 0)
(0.475825 -0.0776689 0)
(0.481413 -0.0775164 0)
(0.488077 -0.0762473 0)
(0.495529 -0.0738329 0)
(0.503547 -0.0703226 0)
(0.511896 -0.0657277 0)
(0.520319 -0.0601004 0)
(0.52857 -0.0535093 0)
(0.536426 -0.0460377 0)
(0.543677 -0.0377866 0)
(0.550135 -0.028869 0)
(0.555642 -0.0194149 0)
(0.560068 -0.00956853 0)
(0.563314 0.00051561 0)
(0.565314 0.0106718 0)
(0.566013 0.0207207 0)
(0.565418 0.0304992 0)
(0.56357 0.0398455 0)
(0.560518 0.0486036 0)
(0.556311 0.0566189 0)
(0.55102 0.063737 0)
(0.544712 0.0698007 0)
(0.537442 0.074644 0)
(0.52925 0.078085 0)
(0.520261 0.0799742 0)
(0.51053 0.0801715 0)
(0.499932 0.0783336 0)
(0.488192 0.0741506 0)
(0.475493 0.0675029 0)
(0.46235 0.0583614 0)
(0.44897 0.0467072 0)
(0.43565 0.0326818 0)
(0.422872 0.0165876 0)
(0.411225 -0.00109505 0)
(0.40124 -0.0197908 0)
(0.393489 -0.0388635 0)
(0.388341 -0.0576823 0)
(0.385999 -0.0757063 0)
(0.386491 -0.0925218 0)
(0.389718 -0.10779 0)
(0.395482 -0.121283 0)
(0.403496 -0.132853 0)
(0.413434 -0.142407 0)
(0.424954 -0.149933 0)
(0.437625 -0.155517 0)
(0.451192 -0.159133 0)
(0.465434 -0.160739 0)
(0.479977 -0.160415 0)
(0.494489 -0.158297 0)
(0.508667 -0.15448 0)
(0.522243 -0.14905 0)
(0.53497 -0.142117 0)
(0.546637 -0.133808 0)
(0.557053 -0.124285 0)
(0.475764 -0.081181 0)
(0.482446 -0.0802779 0)
(0.490288 -0.0782047 0)
(0.498849 -0.0750205 0)
(0.507966 -0.0707242 0)
(0.517377 -0.0653397 0)
(0.526799 -0.0589153 0)
(0.535975 -0.051506 0)
(0.544662 -0.0431896 0)
(0.552639 -0.0340601 0)
(0.559705 -0.0242381 0)
(0.565681 -0.0138572 0)
(0.570413 -0.00307751 0)
(0.573817 0.0079458 0)
(0.575781 0.0190057 0)
(0.576274 0.029918 0)
(0.575302 0.0404994 0)
(0.572912 0.050572 0)
(0.569156 0.0599572 0)
(0.56408 0.0684795 0)
(0.557753 0.0759629 0)
(0.550234 0.0822256 0)
(0.541561 0.087073 0)
(0.5318 0.0902936 0)
(0.521058 0.0917857 0)
(0.509299 0.0911289 0)
(0.496319 0.0881611 0)
(0.481973 0.0824013 0)
(0.46663 0.0738859 0)
(0.45082 0.0625452 0)
(0.434878 0.048489 0)
(0.41929 0.0319814 0)
(0.404721 0.0135001 0)
(0.391879 -0.00632741 0)
(0.381387 -0.0268258 0)
(0.373782 -0.0472767 0)
(0.369369 -0.0670815 0)
(0.368223 -0.0857532 0)
(0.370259 -0.102938 0)
(0.375276 -0.118365 0)
(0.382978 -0.131849 0)
(0.393028 -0.143318 0)
(0.405029 -0.152754 0)
(0.41851 -0.160183 0)
(0.433128 -0.165634 0)
(0.448686 -0.169029 0)
(0.464874 -0.170439 0)
(0.48129 -0.169923 0)
(0.497578 -0.167543 0)
(0.513442 -0.163357 0)
(0.528615 -0.157437 0)
(0.542831 -0.149866 0)
(0.555852 -0.140769 0)
(0.567449 -0.130316 0)
(0.476416 -0.083447 0)
(0.484252 -0.0818262 0)
(0.493214 -0.0790799 0)
(0.502906 -0.0752107 0)
(0.513131 -0.0702302 0)
(0.523602 -0.0641619 0)
(0.534039 -0.0570257 0)
(0.544169 -0.0488643 0)
(0.553734 -0.0397416 0)
(0.562481 -0.0297503 0)
(0.570184 -0.0190087 0)
(0.576644 -0.00766451 0)
(0.581717 0.00412203 0)
(0.585243 0.0161366 0)
(0.587142 0.028179 0)
(0.587381 0.0400347 0)
(0.585964 0.0514904 0)
(0.58294 0.0623429 0)
(0.57836 0.0723842 0)
(0.572272 0.0814111 0)
(0.56474 0.0892205 0)
(0.555813 0.0956009 0)
(0.545515 0.100325 0)
(0.533976 0.103238 0)
(0.521113 0.104002 0)
(0.506916 0.102306 0)
(0.491205 0.0978006 0)
(0.473896 0.0902134 0)
(0.455583 0.0795079 0)
(0.436861 0.0657606 0)
(0.418276 0.0491874 0)
(0.400495 0.0302494 0)
(0.384391 0.00959714 0)
(0.370693 -0.012031 0)
(0.360119 -0.033878 0)
(0.353098 -0.0552747 0)
(0.349777 -0.0756662 0)
(0.350113 -0.0946554 0)
(0.353903 -0.111948 0)
(0.360871 -0.127347 0)
(0.370614 -0.140783 0)
(0.382676 -0.152197 0)
(0.396634 -0.161618 0)
(0.4121 -0.169103 0)
(0.428756 -0.174572 0)
(0.446309 -0.177988 0)
(0.464413 -0.179416 0)
(0.482699 -0.178901 0)
(0.500841 -0.17646 0)
(0.518529 -0.172089 0)
(0.535472 -0.165803 0)
(0.551368 -0.157657 0)
(0.565918 -0.147762 0)
(0.578852 -0.1363 0)
(0.47775 -0.0845098 0)
(0.48666 -0.0823358 0)
(0.496762 -0.0790551 0)
(0.507575 -0.0746679 0)
(0.518897 -0.069174 0)
(0.530459 -0.0625555 0)
(0.54196 -0.0548187 0)
(0.553105 -0.0459822 0)
(0.563604 -0.0360966 0)
(0.573189 -0.0252462 0)
(0.581599 -0.013551 0)
(0.588604 -0.00117221 0)
(0.594027 0.0117059 0)
(0.597685 0.0248376 0)
(0.599499 0.0379927 0)
(0.599426 0.0509217 0)
(0.597474 0.0633668 0)
(0.593698 0.0750871 0)
(0.588145 0.0858364 0)
(0.580864 0.0953759 0)
(0.571915 0.103468 0)
(0.561332 0.109864 0)
(0.549208 0.11438 0)
(0.535499 0.116709 0)
(0.52015 0.116503 0)
(0.503117 0.113387 0)
(0.484232 0.107042 0)
(0.463652 0.0972705 0)
(0.442102 0.0841338 0)
(0.420374 0.0678299 0)
(0.399189 0.0487675 0)
(0.379476 0.0276132 0)
(0.362225 0.00515915 0)
(0.348172 -0.0178075 0)
(0.337942 -0.0405303 0)
(0.331846 -0.062432 0)
(0.329914 -0.0830405 0)
(0.331942 -0.102063 0)
(0.337633 -0.119295 0)
(0.346551 -0.134642 0)
(0.358257 -0.148074 0)
(0.372313 -0.159578 0)
(0.388209 -0.169188 0)
(0.405587 -0.176859 0)
(0.424209 -0.182574 0)
(0.443739 -0.186295 0)
(0.463791 -0.188051 0)
(0.484017 -0.187813 0)
(0.504113 -0.185533 0)
(0.523788 -0.181142 0)
(0.542716 -0.174601 0)
(0.560532 -0.16592 0)
(0.576871 -0.155187 0)
(0.591385 -0.142579 0)
(0.47954 -0.0845542 0)
(0.489544 -0.0820361 0)
(0.500722 -0.078453 0)
(0.512644 -0.0737706 0)
(0.525107 -0.0679535 0)
(0.537812 -0.0609657 0)
(0.55045 -0.0527664 0)
(0.562708 -0.0433497 0)
(0.574265 -0.0327398 0)
(0.584802 -0.0210119 0)
(0.594015 -0.00829446 0)
(0.601655 0.00523945 0)
(0.607474 0.0193485 0)
(0.61129 0.0337786 0)
(0.613004 0.0482426 0)
(0.612555 0.0624343 0)
(0.609957 0.0760363 0)
(0.605272 0.0887544 0)
(0.598549 0.10029 0)
(0.589841 0.110359 0)
(0.579198 0.118682 0)
(0.566723 0.125025 0)
(0.552379 0.129138 0)
(0.536132 0.130568 0)
(0.517828 0.129054 0)
(0.497486 0.124137 0)
(0.475098 0.115578 0)
(0.45095 0.103318 0)
(0.426042 0.0875624 0)
(0.401325 0.0686781 0)
(0.377824 0.0473307 0)
(0.356596 0.0243385 0)
(0.338676 0.000574728 0)
(0.324714 -0.0232138 0)
(0.31527 -0.0463534 0)
(0.310444 -0.0683454 0)
(0.310093 -0.0888806 0)
(0.313899 -0.107779 0)
(0.321442 -0.124932 0)
(0.332259 -0.140309 0)
(0.345861 -0.153862 0)
(0.361723 -0.165643 0)
(0.379461 -0.175627 0)
(0.398748 -0.183777 0)
(0.419267 -0.190028 0)
(0.440693 -0.194376 0)
(0.462671 -0.196767 0)
(0.484923 -0.197112 0)
(0.507159 -0.195265 0)
(0.529065 -0.19107 0)
(0.550274 -0.184398 0)
(0.570352 -0.175189 0)
(0.58883 -0.1635 0)
(0.60525 -0.149528 0)
(0.4816 -0.0838388 0)
(0.492595 -0.081266 0)
(0.504856 -0.0776553 0)
(0.517914 -0.0729443 0)
(0.531546 -0.0670565 0)
(0.545479 -0.0599052 0)
(0.559387 -0.0514033 0)
(0.572912 -0.0415026 0)
(0.585695 -0.0301998 0)
(0.597365 -0.0175548 0)
(0.607546 -0.00370542 0)
(0.615952 0.0111497 0)
(0.622257 0.0267182 0)
(0.626278 0.0426998 0)
(0.627879 0.0587377 0)
(0.626976 0.0744483 0)
(0.623588 0.0894332 0)
(0.617789 0.103325 0)
(0.609634 0.115754 0)
(0.599185 0.126374 0)
(0.586552 0.134906 0)
(0.571793 0.141079 0)
(0.554785 0.144437 0)
(0.535465 0.144704 0)
(0.513776 0.141416 0)
(0.489689 0.134287 0)
(0.46343 0.123165 0)
(0.43559 0.108159 0)
(0.407329 0.0896867 0)
(0.379921 0.068389 0)
(0.354541 0.0451175 0)
(0.332349 0.0207947 0)
(0.314269 -0.00371756 0)
(0.300902 -0.0278019 0)
(0.292548 -0.0509102 0)
(0.289171 -0.0727174 0)
(0.290457 -0.0930425 0)
(0.295987 -0.111798 0)
(0.30529 -0.128948 0)
(0.317858 -0.144461 0)
(0.333166 -0.158371 0)
(0.350753 -0.170645 0)
(0.370202 -0.181257 0)
(0.391216 -0.190175 0)
(0.413531 -0.19733 0)
(0.436812 -0.202651 0)
(0.460762 -0.206049 0)
(0.485138 -0.207303 0)
(0.509703 -0.206192 0)
(0.53415 -0.202438 0)
(0.558056 -0.195776 0)
(0.58087 -0.186034 0)
(0.601966 -0.173221 0)
(0.620723 -0.157571 0)
(0.483562 -0.0826848 0)
(0.495567 -0.0803789 0)
(0.508863 -0.0770844 0)
(0.523072 -0.0726616 0)
(0.537975 -0.0669878 0)
(0.553276 -0.0599135 0)
(0.568634 -0.051293 0)
(0.583657 -0.0410179 0)
(0.597918 -0.0290409 0)
(0.610971 -0.0154026 0)
(0.62236 -0.000254738 0)
(0.631704 0.016149 0)
(0.638645 0.0334819 0)
(0.642938 0.0513559 0)
(0.64441 0.0693228 0)
(0.642949 0.0868956 0)
(0.638582 0.103561 0)
(0.6314 0.118854 0)
(0.621466 0.132303 0)
(0.608919 0.143537 0)
(0.59388 0.152234 0)
(0.576273 0.15792 0)
(0.556055 0.16029 0)
(0.533189 0.158883 0)
(0.507499 0.153408 0)
(0.479307 0.143624 0)
(0.448999 0.129586 0)
(0.417415 0.11167 0)
(0.386104 0.0905654 0)
(0.356469 0.067172 0)
(0.329837 0.0424705 0)
(0.307302 0.0173718 0)
(0.28961 -0.00739749 0)
(0.277139 -0.0313009 0)
(0.270087 -0.0540654 0)
(0.268187 -0.0755086 0)
(0.271045 -0.0955817 0)
(0.278166 -0.114253 0)
(0.289054 -0.131516 0)
(0.303158 -0.147385 0)
(0.319987 -0.161843 0)
(0.339084 -0.174869 0)
(0.360077 -0.186442 0)
(0.382693 -0.196461 0)
(0.406671 -0.204865 0)
(0.43172 -0.211529 0)
(0.457638 -0.216307 0)
(0.484289 -0.218873 0)
(0.511439 -0.218885 0)
(0.538816 -0.215876 0)
(0.565941 -0.209399 0)
(0.592103 -0.199107 0)
(0.616437 -0.184941 0)
(0.6381 -0.167193 0)
(0.485136 -0.0813921 0)
(0.498044 -0.0797538 0)
(0.5124 -0.0771421 0)
(0.527834 -0.0733664 0)
(0.544112 -0.0682391 0)
(0.560966 -0.0615301 0)
(0.578035 -0.0530034 0)
(0.59487 -0.042477 0)
(0.610967 -0.029836 0)
(0.625761 -0.015096 0)
(0.638673 0.00157277 0)
(0.649226 0.0198524 0)
(0.656991 0.0393357 0)
(0.661657 0.0595398 0)
(0.662993 0.0798973 0)
(0.660837 0.0997776 0)
(0.65523 0.118504 0)
(0.646292 0.135471 0)
(0.63416 0.150112 0)
(0.619036 0.16204 0)
(0.60092 0.170671 0)
(0.579887 0.175655 0)
(0.555832 0.176542 0)
(0.528702 0.173021 0)
(0.498645 0.164794 0)
(0.465976 0.151934 0)
(0.431521 0.134717 0)
(0.396503 0.113874 0)
(0.362619 0.0904021 0)
(0.331466 0.0653816 0)
(0.304242 0.0398134 0)
(0.281905 0.0145065 0)
(0.265029 -0.0100184 0)
(0.253783 -0.0334466 0)
(0.248062 -0.0557116 0)
(0.247571 -0.0767486 0)
(0.251818 -0.0966064 0)
(0.260321 -0.115329 0)
(0.272533 -0.132896 0)
(0.287947 -0.149338 0)
(0.306067 -0.16461 0)
(0.326446 -0.178682 0)
(0.34877 -0.19148 0)
(0.372791 -0.202935 0)
(0.39829 -0.212945 0)
(0.425032 -0.22136 0)
(0.452921 -0.227943 0)
(0.481921 -0.232286 0)
(0.51192 -0.233886 0)
(0.542683 -0.232054 0)
(0.573651 -0.226032 0)
(0.603894 -0.215182 0)
(0.632214 -0.199361 0)
(0.65748 -0.178985 0)
(0.485869 -0.0802657 0)
(0.499689 -0.0796941 0)
(0.515086 -0.0781858 0)
(0.531808 -0.0754696 0)
(0.549627 -0.0712741 0)
(0.56829 -0.065258 0)
(0.587413 -0.0570922 0)
(0.606483 -0.0464777 0)
(0.624889 -0.0331951 0)
(0.64191 -0.0172065 0)
(0.656777 0.00128624 0)
(0.668898 0.0218512 0)
(0.677746 0.0439785 0)
(0.682925 0.0670618 0)
(0.684119 0.0903905 0)
(0.681089 0.113141 0)
(0.673887 0.134407 0)
(0.662718 0.153387 0)
(0.647849 0.169494 0)
(0.629388 0.182011 0)
(0.607489 0.190411 0)
(0.582211 0.19424 0)
(0.553554 0.19314 0)
(0.521617 0.186878 0)
(0.486597 0.175429 0)
(0.449384 0.15909 0)
(0.41101 0.138582 0)
(0.37302 0.114979 0)
(0.33735 0.0895523 0)
(0.305427 0.0634387 0)
(0.27835 0.0375684 0)
(0.256769 0.0125332 0)
(0.240985 -0.0113785 0)
(0.230947 -0.0341713 0)
(0.226504 -0.05585 0)
(0.227252 -0.0765524 0)
(0.232657 -0.0963416 0)
(0.242257 -0.115277 0)
(0.255541 -0.133389 0)
(0.271966 -0.150632 0)
(0.291108 -0.166975 0)
(0.312557 -0.18234 0)
(0.335988 -0.196668 0)
(0.361189 -0.209852 0)
(0.388003 -0.221813 0)
(0.416275 -0.232338 0)
(0.44607 -0.241224 0)
(0.477481 -0.247888 0)
(0.510517 -0.251731 0)
(0.545045 -0.251643 0)
(0.580452 -0.246462 0)
(0.61548 -0.235061 0)
(0.648485 -0.217226 0)
(0.678079 -0.193648 0)
(0.485397 -0.0795168 0)
(0.500035 -0.0804666 0)
(0.5165 -0.0805061 0)
(0.534607 -0.0792994 0)
(0.554152 -0.0764851 0)
(0.574916 -0.0715836 0)
(0.596503 -0.0641324 0)
(0.618358 -0.0536532 0)
(0.639724 -0.0397632 0)
(0.659626 -0.0223378 0)
(0.677058 -0.0016388 0)
(0.691168 0.0217343 0)
(0.701422 0.0471084 0)
(0.707306 0.0737561 0)
(0.708372 0.100803 0)
(0.704244 0.127145 0)
(0.69498 0.151555 0)
(0.681019 0.173017 0)
(0.662562 0.190784 0)
(0.639857 0.203754 0)
(0.613165 0.211559 0)
(0.582737 0.213675 0)
(0.548671 0.209981 0)
(0.511239 0.200418 0)
(0.471121 0.185211 0)
(0.429348 0.165139 0)
(0.387512 0.141353 0)
(0.347384 0.11535 0)
(0.310759 0.0884603 0)
(0.278926 0.0618152 0)
(0.252582 0.0361032 0)
(0.232108 0.0116657 0)
(0.217587 -0.0114892 0)
(0.208764 -0.0335333 0)
(0.205413 -0.0547208 0)
(0.207119 -0.0751853 0)
(0.213414 -0.0950861 0)
(0.223802 -0.114445 0)
(0.237819 -0.133307 0)
(0.255005 -0.151591 0)
(0.274915 -0.169212 0)
(0.297136 -0.186094 0)
(0.321413 -0.202173 0)
(0.347556 -0.217348 0)
(0.375466 -0.231545 0)
(0.405022 -0.244576 0)
(0.436497 -0.256245 0)
(0.470117 -0.265884 0)
(0.506154 -0.272716 0)
(0.544555 -0.275097 0)
(0.584523 -0.271201 0)
(0.624468 -0.259283 0)
(0.662273 -0.23903 0)
(0.696515 -0.211803 0)
(0.483236 -0.0792963 0)
(0.498667 -0.0822101 0)
(0.516194 -0.0842945 0)
(0.535749 -0.0851285 0)
(0.557205 -0.0842299 0)
(0.580394 -0.0809553 0)
(0.604936 -0.0747012 0)
(0.630232 -0.0647164 0)
(0.655353 -0.0503162 0)
(0.678971 -0.0312184 0)
(0.69972 -0.00780787 0)
(0.716408 0.0190432 0)
(0.728534 0.0484086 0)
(0.735448 0.0794867 0)
(0.736452 0.111232 0)
(0.730938 0.142102 0)
(0.719041 0.170428 0)
(0.701439 0.194968 0)
(0.678283 0.214432 0)
(0.650046 0.227661 0)
(0.61747 0.234339 0)
(0.580827 0.234194 0)
(0.540586 0.227172 0)
(0.497201 0.213591 0)
(0.451681 0.194172 0)
(0.405824 0.170216 0)
(0.361368 0.143438 0)
(0.320032 0.115463 0)
(0.283432 0.0876637 0)
(0.252401 0.0609273 0)
(0.2273 0.0357183 0)
(0.208164 0.0120648 0)
(0.194915 -0.0102492 0)
(0.187127 -0.0316917 0)
(0.184639 -0.0524972 0)
(0.187051 -0.072913 0)
(0.193884 -0.0931121 0)
(0.204744 -0.113138 0)
(0.2192 -0.132944 0)
(0.236842 -0.152441 0)
(0.257251 -0.171528 0)
(0.280009 -0.190095 0)
(0.30486 -0.20807 0)
(0.331653 -0.225409 0)
(0.360298 -0.242052 0)
(0.390736 -0.257954 0)
(0.423437 -0.27286 0)
(0.458736 -0.286181 0)
(0.49715 -0.296677 0)
(0.538534 -0.302313 0)
(0.581742 -0.300165 0)
(0.624952 -0.287854 0)
(0.665943 -0.265 0)
(0.703572 -0.234403 0)
(0.479011 -0.0796327 0)
(0.495095 -0.0849696 0)
(0.51364 -0.0895998 0)
(0.53468 -0.0930737 0)
(0.558206 -0.0947122 0)
(0.584058 -0.0937363 0)
(0.611932 -0.0893916 0)
(0.641319 -0.0805032 0)
(0.671059 -0.0658004 0)
(0.699327 -0.0447333 0)
(0.724282 -0.0179439 0)
(0.744372 0.013154 0)
(0.759133 0.0473232 0)
(0.767729 0.0839032 0)
(0.768953 0.121649 0)
(0.761786 0.158263 0)
(0.746578 0.191526 0)
(0.724136 0.219662 0)
(0.694725 0.240776 0)
(0.659558 0.253907 0)
(0.619744 0.258883 0)
(0.575807 0.255639 0)
(0.528447 0.244594 0)
(0.478687 0.226341 0)
(0.428229 0.202428 0)
(0.379017 0.174778 0)
(0.332955 0.145345 0)
(0.291504 0.115905 0)
(0.255773 0.0876225 0)
(0.226177 0.0611455 0)
(0.20265 0.0365856 0)
(0.184978 0.0137276 0)
(0.172887 -0.00795577 0)
(0.165918 -0.0288433 0)
(0.164049 -0.0494211 0)
(0.166817 -0.0700225 0)
(0.173871 -0.0907475 0)
(0.184884 -0.111619 0)
(0.199514 -0.132555 0)
(0.217347 -0.153422 0)
(0.237986 -0.174081 0)
(0.261019 -0.19441 0)
(0.286176 -0.21432 0)
(0.313284 -0.233849 0)
(0.342195 -0.25304 0)
(0.372908 -0.271975 0)
(0.405916 -0.290382 0)
(0.441688 -0.307817 0)
(0.480639 -0.322361 0)
(0.521979 -0.331826 0)
(0.563816 -0.330946 0)
(0.604908 -0.318217 0)
(0.644121 -0.293169 0)
(0.680107 -0.261407 0)
(0.472272 -0.0804767 0)
(0.488875 -0.088699 0)
(0.508318 -0.0964406 0)
(0.53072 -0.103148 0)
(0.556278 -0.108094 0)
(0.584679 -0.11007 0)
(0.615809 -0.108585 0)
(0.649319 -0.101612 0)
(0.683856 -0.0871245 0)
(0.717192 -0.0639872 0)
(0.747025 -0.0331046 0)
(0.77192 0.00310299 0)
(0.790898 0.0429405 0)
(0.802806 0.0865952 0)
(0.805232 0.132373 0)
(0.796521 0.176459 0)
(0.77728 0.21637 0)
(0.748516 0.24877 0)
(0.711221 0.27132 0)
(0.667555 0.283874 0)
(0.619111 0.286082 0)
(0.566795 0.278766 0)
(0.511765 0.26252 0)
(0.45564 0.239079 0)
(0.400744 0.210552 0)
(0.349273 0.179378 0)
(0.302782 0.147748 0)
(0.262226 0.117261 0)
(0.22815 0.088816 0)
(0.200425 0.0627192 0)
(0.178622 0.0388172 0)
(0.162282 0.0165792 0)
(0.151304 -0.00453925 0)
(0.145073 -0.0251271 0)
(0.143437 -0.0458074 0)
(0.146246 -0.0668216 0)
(0.153223 -0.0882864 0)
(0.164105 -0.110175 0)
(0.178603 -0.132362 0)
(0.196386 -0.154681 0)
(0.217063 -0.176946 0)
(0.240189 -0.19903 0)
(0.265392 -0.220781 0)
(0.292397 -0.242344 0)
(0.320933 -0.263917 0)
(0.351007 -0.285684 0)
(0.382766 -0.307377 0)
(0.416694 -0.32853 0)
(0.451981 -0.346228 0)
(0.48721 -0.3586 0)
(0.517734 -0.355612 0)
(0.545321 -0.338725 0)
(0.57356 -0.312384 0)
(0.596174 -0.281933 0)
(0.462648 -0.0816491 0)
(0.479474 -0.0931508 0)
(0.499589 -0.104577 0)
(0.523006 -0.115275 0)
(0.550131 -0.124128 0)
(0.580041 -0.129539 0)
(0.612833 -0.132018 0)
(0.648185 -0.127907 0)
(0.684634 -0.114227 0)
(0.721033 -0.0896683 0)
(0.754742 -0.0550486 0)
(0.785234 -0.0138473 0)
(0.812131 0.0321149 0)
(0.831818 0.0847261 0)
(0.838647 0.141542 0)
(0.830494 0.194732 0)
(0.807863 0.241769 0)
(0.771608 0.27929 0)
(0.725153 0.30382 0)
(0.671685 0.315711 0)
(0.613425 0.315135 0)
(0.55198 0.303006 0)
(0.489048 0.28107 0)
(0.427317 0.25205 0)