/*--------------------------------*- C++ -*----------------------------------*\
  =========                 |
  \\      /  F ield         | OpenFOAM: The Open Source CFD Toolbox
   \\    /   O peration     | Website:  https://openfoam.org
    \\  /    A nd           | Version:  11
     \\/     M anipulation  |
\*---------------------------------------------------------------------------*/
FoamFile
{
    format      ascii;
    class       volScalarField;
    location    "5.5";
    object      p;
}
// * * * * * * * * * * * * * * * * * * * * * * * * * * * * * * * * * * * * * //

dimensions      [0 2 -2 0 0 0 0];

internalField   nonuniform List<scalar> 
9600
(
0.0558182
0.0564652
0.0574796
0.058784
0.060169
0.0614661
0.0626404
0.063575
0.0638178
0.0630522
0.0611887
0.058032
0.0531253
0.0458451
0.0357799
0.0238881
0.00971347
-0.00540197
-0.0201716
-0.0329506
-0.0416864
-0.0442571
-0.0403022
-0.0299893
-0.0144845
0.00321857
0.0197775
0.0323719
0.0372888
0.0301609
0.0114859
-0.0118994
-0.0343138
-0.0448139
-0.0415754
-0.0326508
-0.0254084
-0.0202345
-0.0169209
-0.0150966
0.0561961
0.0570645
0.0583054
0.0596979
0.0610395
0.0622944
0.0634032
0.0639616
0.0639114
0.0627678
0.0604199
0.0568396
0.0514619
0.043821
0.0336267
0.0215568
0.00748529
-0.0069656
-0.0214014
-0.0335928
-0.0419236
-0.0448553
-0.0416007
-0.0323856
-0.0179538
-0.000849753
0.0159184
0.0297128
0.0372795
0.0344963
0.0197332
-0.00279472
-0.0264214
-0.043193
-0.0455968
-0.0388187
-0.0304983
-0.0240693
-0.019629
-0.0170439
0.0564797
0.0574168
0.0587007
0.0600234
0.0612667
0.0624124
0.0632974
0.0637816
0.0635095
0.062151
0.0597681
0.0560253
0.0505925
0.0428441
0.0327708
0.020634
0.00736647
-0.00725442
-0.0215527
-0.0338846
-0.0420196
-0.0450216
-0.041695
-0.03247
-0.0183035
-0.00153093
0.0149476
0.0286976
0.0371959
0.0359112
0.022545
0.00124646
-0.0227223
-0.0407762
-0.0458283
-0.0396474
-0.0311722
-0.0243849
-0.019668
-0.0169844
0.0568386
0.0578626
0.0592545
0.0606261
0.0618612
0.0629907
0.0638228
0.0641506
0.0636668
0.0621356
0.0595462
0.0554878
0.0495576
0.0417771
0.0315708
0.0191904
0.00599189
-0.00852862
-0.0226878
-0.0348365
-0.0430776
-0.0461687
-0.0435041
-0.0352076
-0.0218731
-0.00481367
0.0121177
0.0266845
0.0365913
0.0378935
0.0275908
0.0079291
-0.0162704
-0.037889
-0.0484852
-0.0452759
-0.0368409
-0.0288742
-0.0229731
-0.0193361
0.0572697
0.0583615
0.0598205
0.0611782
0.0623572
0.0633535
0.0639479
0.0640274
0.0632512
0.0614911
0.0585125
0.0541449
0.0484549
0.0405773
0.0301002
0.017968
0.00485531
-0.00934111
-0.0233254
-0.0352597
-0.0437303
-0.0468282
-0.0438652
-0.0356092
-0.0229792
-0.00672191
0.0102638
0.0251576
0.0361631
0.0394479
0.0315541
0.0137038
-0.0102986
-0.0328433
-0.0478254
-0.0481964
-0.0405193
-0.0316643
-0.0246296
-0.0206856
0.0577656
0.0588972
0.0603839
0.0617264
0.0628567
0.0637229
0.0641796
0.0641286
0.0632077
0.0613478
0.0583574
0.0540607
0.0476376
0.0396081
0.0291869
0.0170116
0.00385898
-0.0104218
-0.0246476
-0.0365121
-0.0448209
-0.0483428
-0.0461415
-0.0386447
-0.0261052
-0.00991357
0.00745503
0.0232166
0.0354084
0.04065
0.0353366
0.0195729
-0.00400736
-0.0281351
-0.0467495
-0.0517672
-0.0459658
-0.0367697
-0.0284716
-0.0235501
0.0583086
0.0594584
0.0609463
0.0622789
0.063355
0.0640954
0.0644146
0.0641308
0.0629951
0.0609103
0.057465
0.0525327
0.046559
0.0383254
0.0278739
0.0157542
0.00257837
-0.0115928
-0.0256583
-0.0376346
-0.0461459
-0.0496638
-0.0472359
-0.0391988
-0.0277147
-0.0123821
0.00471516
0.0211633
0.0344616
0.0415323
0.0387672
0.025299
0.00273063
-0.0225705
-0.0442593
-0.0544207
-0.0516042
-0.0425415
-0.0329444
-0.0266654
0.0588831
0.0600442
0.0615283
0.062839
0.0638471
0.0644802
0.0646285
0.0641087
0.0627917
0.0605359
0.0570526
0.0524133
0.045827
0.0373748
0.0268815
0.0147237
0.00146372
-0.0127891
-0.0268728
-0.0388473
-0.0475448
-0.0513234
-0.0498809
-0.0428617
-0.0310949
-0.0154142
0.00166829
0.0186445
0.0331341
0.0420772
0.041931
0.0309936
0.00974872
-0.0164135
-0.0412124
-0.0562168
-0.0572964
-0.0491849
-0.0385491
-0.0308703
0.0595031
0.0606596
0.0621226
0.0633972
0.0643389
0.0648607
0.0648129
0.0640925
0.0626152
0.0601938
0.056537
0.0514996
0.0448471
0.0361975
0.0256464
0.0134614
9.9597e-05
-0.0142065
-0.028383
-0.0406468
-0.0493758
-0.0533121
-0.0518418
-0.0449491
-0.0332257
-0.0183674
-0.00136175
0.0159104
0.0314889
0.0422189
0.0446677
0.0364326
0.0170465
-0.00919925
-0.0368886
-0.0567281
-0.0627793
-0.0568457
-0.0455489
-0.0362111
0.0601607
0.0613052
0.0627329
0.0639606
0.0648362
0.0652377
0.0649869
0.0640921
0.0624498
0.0598489
0.056015
0.0508644
0.044041
0.0352076
0.0245516
0.0122916
-0.00124122
-0.0156828
-0.0299585
-0.042268
-0.0512153
-0.0554468
-0.0543454
-0.0480004
-0.0366143
-0.0217558
-0.00479036
0.0128457
0.0294112
0.0418277
0.0470195
0.041687
0.0246327
-0.00124721
-0.0312964
-0.0562115
-0.0681308
-0.065673
-0.0543472
-0.0432257
0.0608511
0.0619719
0.0633644
0.0645366
0.0653343
0.065603
0.0651734
0.0640994
0.0622966
0.0595198
0.055553
0.0502269
0.0431998
0.0341598
0.0233821
0.0109892
-0.00273699
-0.017337
-0.0317829
-0.0443295
-0.0536514
-0.0582698
-0.0572009
-0.0510507
-0.0400501
-0.0253812
-0.00848399
0.00959463
0.0268919
0.0407849
0.0487177
0.0464527
0.0323726
0.00747562
-0.0241314
-0.0539724
-0.0724647
-0.0750739
-0.0650304
-0.0522777
0.0615759
0.0626685
0.0640136
0.0651255
0.0658418
0.0659709
0.0653726
0.0641227
0.0621666
0.0592362
0.0551207
0.0496243
0.042393
0.0331163
0.0221791
0.00965161
-0.00432196
-0.0191584
-0.0338491
-0.0466458
-0.0559743
-0.0608857
-0.0603438
-0.0544951
-0.0439134
-0.0294406
-0.0126727
0.00575793
0.0238093
0.0389095
0.0495973
0.0506177
0.0401551
0.0169649
-0.0153457
-0.0498476
-0.075389
-0.0850896
-0.0784112
-0.0646002
0.0623298
0.0633862
0.0646831
0.0657339
0.066357
0.066346
0.0655891
0.0641829
0.0620683
0.0589925
0.0547438
0.04904
0.0415743
0.0320791
0.0209596
0.00820547
-0.00608773
-0.0211894
-0.0361166
-0.0491741
-0.0587894
-0.0640036
-0.0638949
-0.0583354
-0.0481121
-0.0338739
-0.0171653
0.00143162
0.0202431
0.0360775
0.0492605
0.0536747
0.0474734
0.0270681
-0.00460964
-0.0436265
-0.0763053
-0.0946418
-0.0939707
-0.0804903
0.0631236
0.0641343
0.0653848
0.066365
0.0668816
0.0667363
0.0658474
0.0642878
0.0620152
0.0588174
0.0544168
0.0484737
0.0407856
0.0310385
0.0196491
0.00661757
-0.00797769
-0.0234075
-0.0386428
-0.0520731
-0.062107
-0.0674867
-0.0677239
-0.0625431
-0.0526766
-0.0387007
-0.0220308
-0.0036728
0.0154993
0.0324498
0.047736
0.0554433
0.0536955
0.0374814
0.00803523
-0.0348415
-0.0739483
-0.102911
-0.111079
-0.101062
0.0639636
0.0649193
0.0661142
0.0670203
0.0674282
0.0671655
0.0661627
0.0644469
0.0620354
0.0586659
0.0541005
0.0479543
0.0399779
0.0299411
0.0182663
0.00493667
-0.0100525
-0.0258877
-0.0414961
-0.0552256
-0.0655582
-0.0713086
-0.0719955
-0.0672344
-0.0576681
-0.044011
-0.0273747
-0.00931041
0.0100363
0.0281283
0.0447563
0.0553597
0.058217
0.0474795
0.0221458
-0.0226512
-0.0675846
-0.109578
-0.128275
-0.125918
0.064851
0.0657498
0.0668813
0.0677041
0.068019
0.0676495
0.0665263
0.0646783
0.0621128
0.0585893
0.0538496
0.0474224
0.0391414
0.0288137
0.0167996
0.00305382
-0.0123912
-0.0286159
-0.0445942
-0.0587196
-0.0695115
-0.0756193
-0.076659
-0.0723756
-0.0631264
-0.0498183
-0.033195
-0.0154263
0.00378714
0.0225957
0.0404484
0.053577
0.0603841
0.0559185
0.0364465
-0.00619492
-0.0558915
-0.113199
-0.144255
-0.154347
0.0657885
0.0666275
0.0676924
0.068445
0.0686853
0.0682047
0.0669839
0.0649805
0.0622444
0.0586196
0.0536115
0.0469018
0.0383083
0.0275994
0.0151795
0.000972038
-0.0149372
-0.0316186
-0.0480632
-0.0626464
-0.073802
-0.0803118
-0.0817559
-0.0780102
-0.0690671
-0.0561376
-0.0397243
-0.0220742
-0.00296114
0.0163614
0.0348422
0.0500396
0.0597922
0.0616574
0.0487337
0.0140947
-0.0383763
-0.111274
-0.157296
-0.183918
0.0667808
0.0675711
0.0685764
0.0692588
0.0694237
0.0688616
0.0675296
0.0653881
0.0624802
0.0586349
0.0534109
0.0463831
0.037392
0.0262883
0.0134285
-0.00131881
-0.0177659
-0.0349961
-0.0519395
-0.0669242
-0.0784917
-0.0855132
-0.087359
-0.0841516
-0.0755901
-0.0630672
-0.0469408
-0.0292693
-0.0104121
0.00904225
0.0277278
0.0448848
0.0565293
0.0639353
0.0567602
0.0347935
-0.015321
-0.0966369
-0.162919
-0.210128
0.0678528
0.0685936
0.0695552
0.0701745
0.0702727
0.0696326
0.0681516
0.0659129
0.062801
0.0586948
0.0532064
0.0458467
0.0364467
0.0248345
0.0114832
-0.0038578
-0.0209561
-0.0387501
-0.0561947
-0.071717
-0.0837588
-0.091284
-0.0934896
-0.0908398
-0.0827244
-0.0705765
-0.0547914
-0.0372441
-0.0186369
0.00103192
0.0194772
0.0380114
0.0507478
0.0624394
0.0601128
0.0501288
0.00937307
-0.0635269
-0.155008
-0.222585
0.0690383
0.0697285
0.0706508
0.0712279
0.0712589
0.07053
0.0689131
0.0665074
0.0631978
0.0588611
0.0529951
0.0452359
0.0353983
0.0232261
0.00930754
-0.00671474
-0.0245027
-0.0429028
-0.060941
-0.0770762
-0.089484
-0.0975647
-0.100208
-0.0980833
-0.0905289
-0.0788191
-0.0634313
-0.0459382
-0.0276901
-0.00786568
0.0101894
0.0285551
0.0428143
0.0572846
0.0599397
0.0571141
0.0267385
-0.0150673
-0.13221
-0.202992
0.0703564
0.0709989
0.0718998
0.0724369
0.0723904
0.0715711
0.0697983
0.0672069
0.0636922
0.0590297
0.0528372
0.0445156
0.0341839
0.0214317
0.00681281
-0.00990392
-0.0284644
-0.0476155
-0.0662487
-0.0829877
-0.095772
-0.10452
-0.107638
-0.106003
-0.0989978
-0.0878355
-0.0729607
-0.0554364
-0.037633
-0.0181233
0.000223112
0.0179288
0.0335309
0.0483102
0.0566394
0.0583934
0.036375
0.0203284
-0.096607
-0.139119
0.0718231
0.0724437
0.0733456
0.0738301
0.0736842
0.0727485
0.0708571
0.0680394
0.0642564
0.0592316
0.0526112
0.0436915
0.032823
0.0193778
0.00396004
-0.0134824
-0.0329482
-0.0529447
-0.0720905
-0.08955
-0.102794
-0.112043
-0.115696
-0.114616
-0.108287
-0.0974874
-0.0834162
-0.0661881
-0.0483825
-0.0291933
-0.0104879
0.00678673
0.0229528
0.036833
0.0484463
0.0526615
0.0416306
0.0349402
-0.0415024
-0.0921156
0.0734983
0.0740917
0.0750046
0.0754599
0.075192
0.0740566
0.0720558
0.0690205
0.0648935
0.0594041
0.052301
0.0427476
0.0311552
0.0170477
0.000695968
-0.0176823
-0.0379844
-0.0588913
-0.0787014
-0.096872
-0.110518
-0.120413
-0.12459
-0.123882
-0.118532
-0.108124
-0.0947812
-0.0779963
-0.0600097
-0.0413177
-0.0226057
-0.00481713
0.0115632
0.0247719
0.0367557
0.0423941
0.0393712
0.035134
-0.000645251
-0.0599992
0.0754402
0.0760124
0.0769164
0.0772926
0.0769507
0.0756332
0.0733515
0.0701512
0.0656245
0.0595083
0.0519284
0.0416103
0.0291363
0.0143482
-0.00311063
-0.0224979
-0.0436649
-0.0656194
-0.0861121
-0.105003
-0.119157
-0.129309
-0.134465
-0.134095
-0.129485
-0.119887
-0.106998
-0.0910018
-0.0731271
-0.0545648
-0.0355652
-0.0178349
-0.00137461
0.012139
0.0240041
0.0307901
0.0314275
0.0289138
0.0146837
-0.0405016
0.0777039
0.0782217
0.0791399
0.0794203
0.078923
0.0775121
0.0749041
0.0712552
0.0663882
0.0596052
0.0512576
0.0402019
0.0267369
0.01103
-0.00751072
-0.0280714
-0.0502496
-0.0732857
-0.0945156
-0.113869
-0.128931
-0.139225
-0.145152
-0.145398
-0.14141
-0.132669
-0.120434
-0.105274
-0.0877059
-0.0692688
-0.0503314
-0.0318984
-0.0150914
-0.00153437
0.0106243
0.0191598
0.0207099
0.0143019
0.0213344
-0.0214382
0.0803533
0.0807897
0.081694
0.0819659
0.0811993
0.0795103
0.0766787
0.0724564
0.06706
0.0595304
0.050291
0.0385575
0.0237399
0.00696815
-0.0126012
-0.034574
-0.0578722
-0.0818091
-0.104113
-0.123794
-0.139749
-0.150269
-0.156646
-0.157795
-0.154422
-0.146637
-0.135196
-0.120862
-0.10408
-0.0854098
-0.0668136
-0.0479108
-0.0299829
-0.0156804
-0.0035785
0.00663002
0.0117954
0.00931007
0.00871743
-0.0155957
0.0834514
0.0838188
0.0846423
0.0848119
0.0838416
0.0817323
0.0785292
0.0737051
0.0675883
0.0593986
0.0488799
0.0362092
0.020222
0.00201354
-0.0187657
-0.0421621
-0.066765
-0.09154
-0.115022
-0.134997
-0.151614
-0.162795
-0.169286
-0.171329
-0.168645
-0.161853
-0.151382
-0.13786
-0.122335
-0.103795
-0.0850277
-0.0664433
-0.0471708
-0.0311101
-0.0184009
-0.00734546
0.000482025
0.000797044
-0.0030746
-0.0187902
0.0870772
0.0873532
0.088051
0.0879623
0.0868212
0.0842662
0.0804084
0.0751214
0.0678629
0.0587848
0.0471371
0.0329579
0.0158686
-0.00396192
-0.0262932
-0.0510094
-0.0771193
-0.102778
-0.127197
-0.147892
-0.164724
-0.176758
-0.183283
-0.186015
-0.184269
-0.17822
-0.169232
-0.156511
-0.142036
-0.125348
-0.105627
-0.0869016
-0.0677898
-0.0491063
-0.0341661
-0.0227384
-0.0128432
-0.00701228
-0.00982451
-0.0194259
0.0913981
0.0914523
0.0920217
0.0916253
0.0899801
0.0870544
0.0824054
0.0761833
0.0680263
0.0574884
0.0445622
0.0288499
0.0101283
-0.0112411
-0.0353447
-0.0616153
-0.0891063
-0.116101
-0.140969
-0.162592
-0.179575
-0.192067
-0.199872
-0.202032
-0.201345
-0.196221
-0.188071
-0.177646
-0.163749
-0.148483
-0.130609
-0.110567
-0.0908067
-0.071859
-0.0541252
-0.0399249
-0.0292642
-0.0205259
-0.0153525
-0.0161711
0.096648
0.0963275
0.0964093
0.0957648
0.0935626
0.0898151
0.0845438
0.0769177
0.0674059
0.05549
0.0408727
0.02339
0.00293725
-0.0205665
-0.0463322
-0.0745068
-0.103314
-0.13134
-0.157104
-0.178882
-0.19674
-0.209102
-0.217345
-0.220403
-0.219313
-0.215744
-0.208875
-0.199787
-0.188422
-0.174452
-0.158107
-0.139225
-0.118778
-0.0983527
-0.0791221
-0.0619983
-0.0485711
-0.0380225
-0.0294056
-0.0241994
0.102548
0.101921
0.101594
0.100159
0.0974078
0.0928742
0.0864985
0.0773094
0.0661066
0.0523121
0.0356951
0.016164
-0.00653709
-0.0319324
-0.0602379
-0.0898395
-0.120297
-0.149147
-0.17581
-0.197882
-0.215666
-0.22868
-0.236394
-0.240513
-0.239893
-0.236566
-0.231185
-0.223863
-0.214937
-0.203145
-0.189253
-0.172099
-0.151995
-0.131047
-0.11046
-0.0906908
-0.0736725
-0.0600529
-0.0491331
-0.0420722
0.109396
0.108063
0.107271
0.105231
0.101343
0.0951701
0.0870337
0.0764351
0.0629037
0.0471848
0.0280013
0.00609289
-0.0191392
-0.0467002
-0.0772939
-0.109023
-0.140346
-0.170636
-0.197558
-0.2198
-0.237529
-0.250563
-0.258168
-0.26206
-0.262612
-0.259282
-0.25534
-0.249858
-0.24275
-0.234635
-0.223672
-0.209002
-0.191964
-0.171356
-0.149443
-0.128483
-0.107851
-0.09013
-0.0765354
-0.0668563
0.117452
0.115398
0.113857
0.11085
0.105687
0.0977045
0.087035
0.0743621
0.0581929
0.0392934
0.017645
-0.00761722
-0.0354146
-0.0658909
-0.0985172
-0.132298
-0.164972
-0.195825
-0.223455
-0.24528
-0.263155
-0.275397
-0.282579
-0.285836
-0.286586
-0.284732
-0.280831
-0.277248
-0.273254
-0.266987
-0.260383
-0.250909
-0.235943
-0.219752
-0.199701
-0.177138
-0.155031
-0.133992
-0.115132
-0.102244
0.126023
0.122656
0.119782
0.114782
0.107103
0.0970125
0.0838495
0.0679176
0.0490078
0.0266092
0.00156284
-0.0267118
-0.0579856
-0.0909568
-0.126321
-0.161513
-0.195277
-0.22666
-0.2542
-0.275699
-0.292815
-0.304801
-0.310522
-0.313182
-0.31369
-0.310812
-0.308842
-0.307475
-0.303916
-0.302121
-0.298933
-0.292616
-0.285008
-0.274247
-0.258541
-0.240623
-0.219131
-0.196129
-0.174923
-0.157375
0.138155
0.133026
0.127924
0.120705
0.109895
0.0955946
0.0787444
0.058362
0.0347173
0.00858342
-0.02055
-0.05279
-0.087127
-0.123327
-0.160778
-0.197622
-0.23182
-0.263756
-0.290459
-0.311117
-0.327237
-0.33816
-0.342171
-0.344715
-0.343846
-0.341582
-0.340284
-0.33899
-0.338205
-0.338292
-0.337456
-0.337092
-0.335788
-0.331381
-0.325012
-0.314461
-0.29979
-0.282164
-0.262039
-0.242971
0.144257
0.135282
0.126031
0.115397
0.101987
0.0835658
0.0627278
0.0382042
0.0100448
-0.0207288
-0.0543257
-0.0902496
-0.127497
-0.166213
-0.205148
-0.242697
-0.277094
-0.308007
-0.333541
-0.352378
-0.366093
-0.374363
-0.376684
-0.376785
-0.376269
-0.375056
-0.373629
-0.37365
-0.374737
-0.376004
-0.378658
-0.381727
-0.385997
-0.391313
-0.395131
-0.396272
-0.394645
-0.389746
-0.38103
-0.370618
0.168106
0.155389
0.138287
0.116879
0.0930869
0.0652026
0.0346807
0.00237835
-0.0329128
-0.0699202
-0.109344
-0.150489
-0.191885
-0.233181
-0.273716
-0.311322
-0.344824
-0.372316
-0.393575
-0.407292
-0.41414
-0.41639
-0.414688
-0.411372
-0.409641
-0.408903
-0.409559
-0.410517
-0.411697
-0.411889
-0.411793
-0.413224
-0.418585
-0.429721
-0.447655
-0.469097
-0.48939
-0.50447
-0.515202
-0.522041
0.124664
0.102287
0.0813797
0.0580823
0.0312381
6.82956e-06
-0.0349586
-0.0728033
-0.113946
-0.157102
-0.201576
-0.246954
-0.291948
-0.335877
-0.377862
-0.416843
-0.450588
-0.476286
-0.494507
-0.503295
-0.504457
-0.498598
-0.489257
-0.477825
-0.469477
-0.465306
-0.466791
-0.472205
-0.478909
-0.482445
-0.479322
-0.468103
-0.452341
-0.442166
-0.448699
-0.475777
-0.520532
-0.568112
-0.608647
-0.634624
0.195324
0.156073
0.112866
0.0695863
0.0282059
-0.0141304
-0.0592953
-0.105753
-0.153789
-0.202235
-0.249915
-0.296484
-0.34047
-0.381127
-0.417781
-0.449192
-0.474712
-0.493293
-0.504233
-0.506364
-0.500842
-0.487934
-0.470819
-0.451177
-0.434331
-0.423318
-0.423305
-0.437307
-0.465259
-0.500531
-0.529319
-0.530766
-0.50226
-0.45357
-0.406864
-0.379359
-0.381353
-0.404122
-0.436008
-0.469376
-0.145061
-0.181377
-0.224487
-0.279197
-0.338422
-0.396557
-0.454983
-0.511969
-0.567663
-0.618418
-0.660792
-0.69559
-0.725995
-0.753734
-0.777798
-0.794571
-0.802759
-0.803079
-0.794538
-0.778702
-0.754003
-0.72122
-0.680495
-0.635958
-0.590928
-0.551714
-0.52153
-0.506668
-0.507902
-0.528471
-0.553472
-0.547881
-0.542076
-0.534546
-0.525009
-0.515267
-0.507347
-0.502412
-0.501294
-0.505118
-0.0134208
-0.0122572
-0.012576
-0.0113777
-0.00968085
-0.00779559
-0.00747686
-0.00725214
-0.00363101
-0.00148278
0.000189117
0.000388651
0.000289929
2.10291e-05
-0.000291587
-0.000455297
-0.000552672
-0.000533253
-0.000414417
-0.000259491
-9.5088e-05
0.00011513
0.00029762
0.000536125
0.000844542
0.00117148
0.00148953
0.00179412
0.00206957
0.00229756
0.00246792
0.00262927
0.00275336
0.00287238
0.00296044
0.00308434
0.00329559
0.00343627
0.00350698
0.00300781
-0.0127355
-0.0135742
-0.0143488
-0.0130964
-0.0112452
-0.00901498
-0.0078408
-0.00837464
-0.00322181
-0.00104487
0.000623504
0.000581278
0.000491441
8.21886e-05
-0.000239752
-0.000486
-0.00060215
-0.000653743
-0.00055735
-0.000421384
-0.000218417
2.15882e-05
0.000228999
0.000468542
0.000726492
0.0010322
0.00136017
0.00170072
0.0019922
0.0022268
0.00241646
0.00258463
0.00271496
0.00282895
0.00293218
0.00311334
0.0033059
0.00340101
0.00310637
0.00194277
-0.0141873
-0.0148515
-0.0163634
-0.0153667
-0.0131566
-0.0104508
-0.00817582
-0.00898231
-0.00274266
-0.000455593
0.00108416
0.000903205
0.000744526
0.000181766
-0.000153281
-0.000521601
-0.000700745
-0.000775435
-0.000730634
-0.000611764
-0.000371583
-0.000123212
0.000140997
0.000419096
0.000658695
0.000946172
0.00123538
0.00157971
0.0018457
0.00208936
0.00229211
0.00248721
0.00264219
0.00277794
0.00292555
0.00312903
0.00331801
0.0035321
0.00372673
0.00391384
-0.0154641
-0.0163199
-0.0188212
-0.0183368
-0.0155312
-0.0121983
-0.00840566
-0.00919945
-0.00200974
0.000340171
0.00174105
0.00133512
0.00105101
0.000336179
-9.23414e-05
-0.000565166
-0.000787517
-0.000863068
-0.000871653
-0.000744628
-0.000530914
-0.000330187
-2.24616e-05
0.000300539
0.000585468
0.000874925
0.00112325
0.00144501
0.00168783
0.00193844
0.00215458
0.00239153
0.00257513
0.00275577
0.00293537
0.00312822
0.003286
0.00341128
0.00328024
0.00270802
-0.0174317
-0.0183705
-0.0217922
-0.0221069
-0.0185408
-0.0143055
-0.00855858
-0.00894724
-0.0010725
0.00140161
0.00255774
0.00188156
0.00142178
0.000553217
-2.37288e-06
-0.000563762
-0.000854243
-0.000957491
-0.000979742
-0.000823175
-0.000673191
-0.000527814
-0.000213635
0.000124578
0.00046455
0.000750115
0.000998805
0.00129493
0.00152651
0.00178254
0.0020169
0.00227971
0.0024864
0.00269136
0.00286876
0.00304839
0.00320968
0.00341871
0.00368483
0.00403807
-0.019648
-0.0210652
-0.0256765
-0.0269408
-0.022428
-0.0168457
-0.00877473
-0.00812985
5.9096e-05
0.00282438
0.00352282
0.00250484
0.00191654
0.000875629
0.000128566
-0.000511438
-0.000883764
-0.0010487
-0.00106604
-0.000912887
-0.000800779
-0.000635265
-0.000329035
-3.23657e-05
0.000315978
0.00058192
0.000847224
0.00110975
0.00134538
0.0015988
0.00183898
0.00210174
0.00231374
0.00251156
0.00270666
0.00291064
0.00310127
0.00327895
0.00329303
0.00308703
-0.0222893
-0.0247674
-0.030857
-0.0331695
-0.0274693
-0.0198541
-0.00941662
-0.00650439
0.00145098
0.00467841
0.00472639
0.00332424
0.00255648
0.00125313
0.000337957
-0.00038709
-0.000852401
-0.00114036
-0.00115866
-0.00106907
-0.000930172
-0.000708488
-0.000404189
-0.000153937
0.000170803
0.00039353
0.000666894
0.000910123
0.00116705
0.0014069
0.00164429
0.00190032
0.00211748
0.00234237
0.00258611
0.00281767
0.00304229
0.00327477
0.00354341
0.0039041
-0.0253131
-0.0295473
-0.0378
-0.0412327
-0.0340316
-0.0234904
-0.0104017
-0.00417882
0.00325095
0.00677923
0.00617326
0.00436961
0.00329412
0.00170999
0.000631024
-0.000206696
-0.000801762
-0.00122271
-0.00124769
-0.00127361
-0.00110914
-0.000867212
-0.00053052
-0.000285116
7.30435e-06
0.000196344
0.000489892
0.000732318
0.00101957
0.00126548
0.00153653
0.00180342
0.00205382
0.00231649
0.0025726
0.00279869
0.00301353
0.00319442
0.0032672
0.00325742
-0.0289727
-0.035953
-0.0473041
-0.0517154
-0.0425977
-0.0279044
-0.0117836
-0.00119325
0.00539669
0.00906633
0.00782119
0.00563637
0.0040886
0.00231455
0.000988554
1.95764e-05
-0.0006957
-0.00121793
-0.00134247
-0.00149991
-0.00132354
-0.00109157
-0.000760243
-0.000513645
-0.000232248
-3.84544e-05
0.000278813
0.000540977
0.000875517
0.00116658
0.00149855
0.00178356
0.00204892
0.00231601
0.00254022
0.00272527
0.00291719
0.00311246
0.00335002
0.00365734
-0.033638
-0.0445679
-0.0604206
-0.0655208
-0.0537581
-0.0334098
-0.0135453
0.00176491
0.00815701
0.0116855
0.00958085
0.00711589
0.00493746
0.00306261
0.001421
0.00025936
-0.000565994
-0.00116781
-0.00140258
-0.00162186
-0.00146909
-0.0013153
-0.00106106
-0.000850492
-0.000592578
-0.000369445
-3.61515e-05
0.000262295
0.000633546
0.000963905
0.00132885
0.00160815
0.00186691
0.00211053
0.00229311
0.00250395
0.00271773
0.00294988
0.00313715
0.00327892
-0.0394988
-0.0567797
-0.0787199
-0.0842732
-0.0683348
-0.0404209
-0.0156756
0.00435821
0.0116854
0.014636
0.0114545
0.00875163
0.00583899
0.0038125
0.0018268
0.000448889
-0.000466219
-0.00109289
-0.00142874
-0.00165301
-0.00157343
-0.00152579
-0.00137342
-0.00122271
-0.000999832
-0.000747202
-0.000415934
-0.000101391
0.000264045
0.000610789
0.000958239
0.00122846
0.001484
0.00173347
0.00196837
0.0022624
0.00253542
0.00284005
0.00309898
0.00336606
-0.0474989
-0.0742624
-0.104643
-0.110112
-0.0874463
-0.0494772
-0.0182172
0.00660211
0.0156321
0.0176672
0.0135888
0.0105013
0.00682353
0.00449958
0.00222975
0.000656473
-0.000404012
-0.00107853
-0.00154963
-0.00175318
-0.00180141
-0.00179696
-0.00169354
-0.00156843
-0.00135353
-0.00109024
-0.000757561
-0.000429435
-4.60319e-05
0.000314923
0.000649567
0.000942357
0.0012312
0.00151976
0.00179788
0.00212397
0.00241905
0.00273628
0.00296258
0.0031625
-0.0586431
-0.0994074
-0.144209
-0.146825
-0.112604
-0.0611984
-0.0212671
0.00840601
0.0196231
0.020708
0.0160466
0.0124021
0.00801149
0.00523463
0.0027343
0.000870753
-0.000390162
-0.00117473
-0.0018023
-0.00201639
-0.00218554
-0.00216213
-0.00206918
-0.00193853
-0.00171183
-0.00143472
-0.00105564
-0.000689555
-0.00023454
0.000148896
0.000515525
0.000827878
0.00115118
0.00143906
0.00172185
0.00203943
0.00230091
0.00259358
0.00284622
0.00311987
-0.0769682
-0.136492
-0.199164
-0.200695
-0.145312
-0.0760743
-0.0252461
0.00989542
0.0234998
0.0238446
0.0187295
0.0144667
0.00944661
0.00614499
0.00332789
0.00113461
-0.000334607
-0.00129508
-0.00204873
-0.00231997
-0.00261982
-0.00262698
-0.00259796
-0.00246003
-0.00221749
-0.00192123
-0.00149648
-0.00108899
-0.000578218
-0.000196882
0.000223395
0.000559609
0.000930034
0.00121703
0.00153099
0.00181438
0.00206956
0.00240719
0.002723
0.0029977
-0.104489
-0.191595
-0.276426
-0.269556
-0.18581
-0.0941304
-0.0306442
0.0112964
0.0270719
0.0269268
0.0215479
0.0162446
0.0109293
0.0071967
0.00385616
0.00152769
-0.000166907
-0.00129616
-0.00217462
-0.00259126
-0.00303347
-0.00311968
-0.00321146
-0.0030762
-0.00286753
-0.00255191
-0.00211803
-0.00169965
-0.00120715
-0.000836094
-0.000376177
-2.75269e-05
0.00040657
0.000756354
0.00116679
0.00147369
0.00180714
0.00215524
0.00246834
0.00278641
-0.147669
-0.261797
-0.380895
-0.352118
-0.232079
-0.114656
-0.0356108
0.0106026
0.0298831
0.0293663
0.0238994
0.0175122
0.0120514
0.00797477
0.00430205
0.00194803
-2.18415e-05
-0.00125509
-0.00230223
-0.00283786
-0.00339898
-0.00353241
-0.00368877
-0.00350885
-0.00336581
-0.00300615
-0.00262665
-0.00222639
-0.00179036
-0.0014283
-0.000978865
-0.000609994
-9.94867e-05
0.000334519
0.000828217
0.00116322
0.00155133
0.00189011
0.00225116
0.00260452
-0.215195
-0.351363
-0.511442
-0.445691
-0.279945
-0.136107
-0.0418628
0.00946218
0.0315232
0.0306908
0.0252275
0.0185036
0.0126047
0.00833975
0.00463735
0.00213408
-8.6652e-05
-0.00141416
-0.00263528
-0.0032
-0.00377018
-0.00380919
-0.00394766
-0.00368453
-0.00357599
-0.00317254
-0.00290214
-0.00248995
-0.002132
-0.00177481
-0.00139201
-0.00101579
-0.000513088
-7.8641e-05
0.000425975
0.000773894
0.00119419
0.00151962
0.00188597
0.00214125
-0.296656
-0.472454
-0.659985
-0.537122
-0.321983
-0.155726
-0.0486546
0.00745929
0.0311753
0.0309328
0.0256359
0.0190692
0.0128538
0.00852686
0.00460675
0.00188107
-0.00047702
-0.00194592
-0.0032066
-0.00376992
-0.00429113
-0.00427561
-0.00439321
-0.00410231
-0.00400292
-0.00357247
-0.00335816
-0.00291808
-0.00265618
-0.00230949
-0.00203052
-0.00164298
-0.00120344
-0.000738
-0.000258506
0.000160991
0.000642186
0.00104083
0.00144932
0.00160356
-0.371894
-0.612729
-0.793227
-0.604385
-0.345839
-0.170513
-0.0549381
0.00440178
0.0280162
0.029592
0.025061
0.0188387
0.0129977
0.00851357
0.00430618
0.00142235
-0.00108882
-0.00270135
-0.00401212
-0.00468056
-0.0052574
-0.00536487
-0.0054613
-0.00521304
-0.00505292
-0.00459951
-0.00434192
-0.00385327
-0.0036243
-0.0032222
-0.00294437
-0.00247987
-0.00205581
-0.00153316
-0.00103431
-0.000477982
5.14908e-05
0.000553108
0.000952075
0.00110226
-0.420483
-0.700016
-0.849631
-0.605859
-0.35754
-0.176192
-0.060039
-0.000345396
0.0217755
0.0254566
0.0229572
0.0174417
0.0126815
0.00809011
0.00400372
0.00108133
-0.00165763
-0.00349551
-0.00500849
-0.00584024
-0.00652796
-0.00674648
-0.00678877
-0.00653815
-0.00623855
-0.00572637
-0.00532747
-0.0047657
-0.00445013
-0.00392867
-0.00358544
-0.00303916
-0.00257874
-0.00200642
-0.00150263
-0.000897555
-0.000317445
0.0001947
0.000499474
0.000697661
-0.425638
-0.646195
-0.75461
-0.535719
-0.336803
-0.171205
-0.0642347
-0.00899412
0.0129589
0.0187725
0.0186831
0.0145162
0.0112489
0.00698235
0.00349593
0.00047491
-0.00218091
-0.00422051
-0.00578392
-0.00668608
-0.00731391
-0.00755877
-0.00746232
-0.00722251
-0.00677477
-0.00623172
-0.00571245
-0.00514869
-0.004714
-0.00415437
-0.00374259
-0.00316589
-0.00273984
-0.00217848
-0.00169292
-0.00111043
-0.000625081
-0.000196643
0.00011971
0.000362484
-0.367894
-0.51152
-0.556252
-0.424317
-0.290291
-0.155417
-0.068918
-0.0224765
0.000480708
0.00979604
0.0115196
0.0099117
0.00812136
0.00463311
0.0020623
-0.00103197
-0.00309279
-0.00499289
-0.00619522
-0.00715239
-0.00753803
-0.00781213
-0.00761773
-0.00744306
-0.00694467
-0.00658641
-0.00603048
-0.00560221
-0.00509665
-0.00463992
-0.00416509
-0.00364872
-0.00318473
-0.00263951
-0.00217044
-0.00161593
-0.0011863
-0.000751974
-0.000386152
-0.000127297
-0.254883
-0.371036
-0.37808
-0.310935
-0.228501
-0.138225
-0.081365
-0.0409407
-0.0165068
-0.00325487
0.000842348
0.00294019
0.00263887
0.000443026
-0.000951441
-0.00371418
-0.00487217
-0.00661046
-0.00733669
-0.00833819
-0.00853873
-0.00892482
-0.00870689
-0.00865651
-0.00821778
-0.00801022
-0.00747985
-0.0071547
-0.0065847
-0.00618304
-0.00557957
-0.00509534
-0.0045025
-0.00397491
-0.00337263
-0.00279429
-0.00222733
-0.00166383
-0.00117852
-0.000923245
-0.146382
-0.230663
-0.240485
-0.22539
-0.181868
-0.133653
-0.100129
-0.0634679
-0.0379193
-0.021201
-0.0133607
-0.00729972
-0.00583693
-0.00547461
-0.00590044
-0.00768138
-0.00825946
-0.00973887
-0.0102394
-0.0111033
-0.0112808
-0.011645
-0.0114116
-0.0113821
-0.010885
-0.0106428
-0.0100376
-0.00962549
-0.00892007
-0.00840863
-0.007692
-0.00714711
-0.00643445
-0.00582132
-0.00501021
-0.00431888
-0.00350583
-0.00282561
-0.00222894
-0.00204038
-0.0737463
-0.132597
-0.153812
-0.166784
-0.152761
-0.141411
-0.117916
-0.088534
-0.0660703
-0.0441832
-0.0312165
-0.0208433
-0.0166598
-0.012844
-0.0123736
-0.012215
-0.0126707
-0.0133356
-0.0138914
-0.0142975
-0.0145242
-0.0145198
-0.0142927
-0.0139154
-0.0133795
-0.0128486
-0.012139
-0.0115096
-0.0107244
-0.0100875
-0.00938479
-0.00874183
-0.00801311
-0.00726624
-0.00638256
-0.00556405
-0.00468345
-0.00399689
-0.00340914
-0.00323812
-0.0359201
-0.0806023
-0.10523
-0.126849
-0.139835
-0.150659
-0.138259
-0.122433
-0.0974207
-0.0730405
-0.0530002
-0.0384878
-0.029061
-0.0223503
-0.0193206
-0.0171236
-0.0169
-0.016354
-0.0168078
-0.0164854
-0.0166855
-0.0161668
-0.0159584
-0.0151377
-0.0146972
-0.0138335
-0.0132361
-0.0124041
-0.011759
-0.0110354
-0.0104463
-0.00973154
-0.00909619
-0.00824742
-0.00747111
-0.00661508
-0.00586633
-0.00512846
-0.00456607
-0.00435303
-0.0127617
-0.0559718
-0.0761055
-0.106339
-0.138822
-0.16038
-0.164915
-0.157995
-0.131972
-0.108151
-0.0800532
-0.0614477
-0.0452676
-0.035622
-0.0284652
-0.0246023
-0.0219825
-0.0207463
-0.0200062
-0.0193211
-0.0189939
-0.0182828
-0.0178883
-0.0170647
-0.0166156
-0.0157778
-0.0151868
-0.0143103
-0.0136485
-0.0128526
-0.0122298
-0.0114404
-0.0107255
-0.00980371
-0.00902228
-0.0080865
-0.00733513
-0.00652513
-0.0059118
-0.00550307
-0.0144657
-0.0449587
-0.0562771
-0.0943831
-0.138457
-0.171446
-0.191015
-0.192305
-0.173301
-0.145383
-0.11549
-0.0900536
-0.0688399
-0.0540189
-0.0431361
-0.036184
-0.0310427
-0.0286766
-0.0261757
-0.0252039
-0.0238855
-0.0232327
-0.0224202
-0.0218488
-0.0210865
-0.0203179
-0.0193494
-0.0184312
-0.0173822
-0.0165225
-0.0155444
-0.0146583
-0.0135841
-0.0125825
-0.0115137
-0.0104219
-0.00938053
-0.00837984
-0.00761027
-0.00720682
-0.0199896
-0.043772
-0.0559676
-0.0873391
-0.137504
-0.178296
-0.210443
-0.223846
-0.215504
-0.186959
-0.154507
-0.121986
-0.0965926
-0.0755071
-0.0612263
-0.0502833
-0.0432399
-0.0380018
-0.0346443
-0.0323591
-0.0304718
-0.0293427
-0.0282405
-0.0273783
-0.0263507
-0.0254163
-0.0242333