/*--------------------------------*- C++ -*----------------------------------*\
  =========                 |
  \\      /  F ield         | OpenFOAM: The Open Source CFD Toolbox
   \\    /   O peration     | Website:  https://openfoam.org
    \\  /    A nd           | Version:  11
     \\/     M anipulation  |
\*---------------------------------------------------------------------------*/
FoamFile
{
    format      ascii;
    class       surfaceScalarField;
    location    "5.5";
    object      phi;
}
// * * * * * * * * * * * * * * * * * * * * * * * * * * * * * * * * * * * * * //

dimensions      [0 3 -1 0 0 0 0];

internalField   nonuniform List<scalar> 
18960
(
0.0477032
0.000511898
-0.0482151
0.0471921
0.000511082
0.0467234
0.000468714
0.0462125
0.000510919
0.0456953
0.000517188
0.0453102
0.000385147
0.0450638
0.000246368
0.0447182
0.000345565
0.0442653
0.000452918
0.0439332
0.000332138
0.0438143
0.000118892
0.0438079
6.40586e-06
0.0438423
-3.44094e-05
0.0436319
0.000210385
0.0426931
0.000938818
0.0414921
0.00120095
0.0408694
0.000622714
0.0407056
0.000163816
0.0407218
-1.62128e-05
0.0410696
-0.00034776
0.0417138
-0.000644178
0.0422574
-0.000543608
0.0426122
-0.000354809
0.0430328
-0.000420595
0.0436316
-0.000598825
0.0445216
-0.000889981
0.0460412
-0.00151964
0.0486584
-0.00261716
0.0523997
-0.00374134
0.0562374
-0.00383772
0.0585473
-0.00230983
0.0590721
-0.000524774
0.0582082
0.000863897
0.0563013
0.00190681
0.0534374
0.00286395
0.0508994
0.00253796
0.0487726
0.0021268
0.047912
0.000860647
0.0467557
0.00115632
-0.000200297
0.046956
0.0479201
0.000779393
-0.0481876
0.0476326
0.000798618
0.0472941
0.000807163
0.0469691
0.000835969
0.0466484
0.000837895
0.0463761
0.000657431
0.0460925
0.000529928
0.0457886
0.000649513
0.0455734
0.000668067
0.0454063
0.000499312
0.0452816
0.000243578
0.0452294
5.85863e-05
0.0452964
-0.000101426
0.0452774
0.000229445
0.0450765
0.00113966
0.0449569
0.00132053
0.0449111
0.000668505
0.0448957
0.000179225
0.0448241
5.54678e-05
0.0448132
-0.000336869
0.0449744
-0.000805438
0.0453084
-0.000877577
0.0455658
-0.000612177
0.0458313
-0.000686114
0.0463137
-0.00108123
0.0471352
-0.00171155
0.0481975
-0.00258189
0.0497822
-0.00420181
0.0521667
-0.00612588
0.0553928
-0.00706384
0.0585504
-0.00546739
0.0607752
-0.00274964
0.0616426
-3.46492e-06
0.0618196
0.00172982
0.0609582
0.00372536
0.0593819
0.00411417
0.0576155
0.00389324
0.0558785
0.00259764
0.0547504
0.00228438
0.00125921
0.0532909
0.047861
0.00115471
-0.0482363
0.0475003
0.00115936
0.0471283
0.00117911
0.0467556
0.00120872
0.0464256
0.00116793
0.046087
0.000995973
0.0457507
0.000866209
0.0455113
0.000888934
0.0453515
0.000827893
0.0452021
0.000648675
0.0451208
0.000324913
0.0451029
7.64654e-05
0.0451451
-0.000143636
0.0452833
9.13021e-05
0.0454502
0.000972701
0.0455556
0.00121512
0.0455402
0.000683959
0.0454165
0.000302945
0.0452848
0.000187153
0.0452596
-0.00031172
0.0454182
-0.000963979
0.0456748
-0.00113426
0.0457493
-0.000686648
0.0457066
-0.00064343
0.0458084
-0.00118299
0.0462802
-0.00218336
0.0471868
-0.0034885
0.0485887
-0.00560366
0.0508111
-0.00834832
0.054203
-0.0104557
0.0579271
-0.00919155
0.0605922
-0.00541471
0.0614875
-0.000898821
0.061301
0.00191634
0.0601869
0.00483949
0.0583419
0.00595915
0.0562133
0.00602183
0.0544825
0.00432846
0.0529487
0.00381821
0.00197908
0.0522288
0.0477843
0.00153277
-0.0481624
0.047432
0.00151172
0.0470835
0.00152759
0.046741
0.0015512
0.0464255
0.00148346
0.0461473
0.00127417
0.0458994
0.00111411
0.045725
0.00106336
0.0455524
0.00100049
0.0454291
0.000771953
0.045351
0.000403013
0.0453332
9.42645e-05
0.0453942
-0.000204594
0.0455655
-8.0019e-05
0.0457938
0.000744388
0.0460596
0.000949309
0.0462211
0.000522466
0.0462868
0.000237216
0.0463314
0.000142577
0.046477
-0.000457289
0.0465345
-0.00102148
0.0466399
-0.00123964
0.0467074
-0.000754186
0.0467194
-0.000655474
0.0467238
-0.00118732
0.0469142
-0.00237383
0.0474518
-0.00402609
0.0485101
-0.00666194
0.0500551
-0.00989335
0.0526002
-0.0130008
0.0561538
-0.0127451
0.0600293
-0.00929014
0.0625505
-0.00342011
0.0636616
0.000805228
0.0634473
0.00505385
0.0623395
0.0070669
0.0604914
0.00786992
0.0587843
0.00603561
0.0569918
0.00561072
0.00342896
0.0555419
0.0477637
0.00191797
-0.0481489
0.0473952
0.00188022
0.0470473
0.00187552
0.0466799
0.0019186
0.0463546
0.0018088
0.0460751
0.00155367
0.045797
0.0013922
0.0455763
0.00128403
0.0454082
0.00116861
0.0453126
0.000867515
0.0452576
0.000458079
0.0452552
9.6597e-05
0.0452927
-0.000242051
0.0453994
-0.000186738
0.0458033
0.000340498
0.0463949
0.00035766
0.0468095
0.000107931
0.047007
3.97262e-05
0.0471374
1.21612e-05
0.0471689
-0.000488799
0.0470331
-0.000885658
0.0468767
-0.00108323
0.046785
-0.000662478
0.0466323
-0.000502858
0.0464493
-0.00100427
0.0464388
-0.00236337
0.0467971
-0.00438431
0.0476591
-0.00752393
0.0489117
-0.011146
0.0510697
-0.0151588
0.0543757
-0.0160511
0.0584202
-0.0133347
0.0614895
-0.00648941
0.0631706
-0.000875877
0.0632744
0.00495007
0.0624053
0.00793603
0.0605548
0.00972041
0.058701
0.0078894
0.0568018
0.00750993
0.0048117
0.0554191
0.04766
0.00230511
-0.0480471
0.0473077
0.00223254
0.0469525
0.00223066
0.046597
0.00227414
0.0463151
0.00209068
0.0460493
0.00181951
0.0457922
0.00164928
0.0456052
0.001471
0.0454723
0.00130156
0.0454345
0.000905223
0.0454047
0.000487909
0.0454669
3.44302e-05
0.0455043
-0.000279474
0.0456641
-0.000346548
0.0460929
-8.82589e-05
0.0466945
-0.000243958
0.0470414
-0.000238988
0.0472678
-0.000186624
0.0474763
-0.000196336
0.047612
-0.000624561
0.0475729
-0.000846543
0.0474511
-0.000961464
0.0473312
-0.000542513
0.0472058
-0.000377455
0.0470017
-0.000800218
0.0468433
-0.00220494
0.046832
-0.00437304
0.0473169
-0.00800886
0.0482531
-0.0120821
0.0499644
-0.0168701
0.0527849
-0.0188716
0.0571759
-0.0177257
0.0614982
-0.0108117
0.0644974
-0.00387503
0.0655002
0.00394721
0.0651435
0.00829274
0.0634915
0.0113724
0.0616583
0.00972261
0.0597862
0.00938201
0.00645514
0.0581428
0.0476228
0.00269108
-0.0480088
0.0472782
0.00257713
0.0469218
0.00258711
0.0465919
0.002604
0.0463169
0.00236564
0.0460109
0.00212552
0.0457731
0.0018871
0.0455885
0.0016556
0.0454825
0.00140757
0.0454529
0.000934811
0.0454239
0.000516908
0.0454375
2.0858e-05
0.0454761
-0.000318085
0.0457047
-0.000575143
0.0461778
-0.000561319
0.0467429
-0.000809058
0.0472145
-0.000710602
0.0475711
-0.000543302
0.0478284
-0.000453628
0.0479445
-0.00074057
0.0478968
-0.00079886
0.047727
-0.000791677
0.0474887
-0.000304256
0.0472198
-0.000108574
0.0469212
-0.000501614
0.0466198
-0.0019035
0.0464475
-0.00420071
0.0466447
-0.00820611
0.0471772
-0.0126146
0.0485359
-0.0182288
0.0508458
-0.0211815
0.054805
-0.0216849
0.0594631
-0.0154698
0.0635526
-0.00796451
0.0657142
0.00178558
0.0661133
0.0078937
0.0648639
0.0126217
0.0629843
0.0116022
0.0609642
0.0114022
0.00822438
0.0591949
0.0475212
0.00306838
-0.0478985
0.0471674
0.00293086
0.0468207
0.00293385
0.0465311
0.0028936
0.0462265
0.00267023
0.0459555
0.00239659
0.0457345
0.00210803
0.0455839
0.00180626
0.0455079
0.0014835
0.0454852
0.00095756
0.0454729
0.000529189
0.0455745
-8.07548e-05
0.045682
-0.000425521
0.0459376
-0.000830812
0.046402
-0.00102573
0.0469504
-0.00135738
0.0474184
-0.00117867
0.0477858
-0.000910713
0.0480166
-0.000684424
0.0480919
-0.000815783
0.0480422
-0.000749254
0.0479294
-0.000678862
0.0477418
-0.000116641
0.0474971
0.000136145
0.0472203
-0.000224848
0.0468571
-0.00154023
0.0464711
-0.00381478
0.0463513
-0.00808624
0.0464844
-0.0127478
0.0474053
-0.0191496
0.0492508
-0.0230271
0.0529976
-0.0254317
0.0581427
-0.0206149
0.0633915
-0.0132133
0.0669666
-0.0017895
0.0684599
0.00640036
0.067834
0.0132476
0.0660599
0.0133764
0.0638928
0.0135693
0.0102292
0.0618879
0.0474868
0.00343871
-0.0478572
0.0471327
0.003285
0.0467922
0.00327431
0.046519
0.0031668
0.0462252
0.00296402
0.04596
0.00266185
0.0457427
0.00232532
0.0456222
0.00192669
0.0455401
0.00156563
0.0455412
0.00095642
0.0455577
0.000512696
0.0456254
-0.000148427
0.0457485
-0.000548621
0.0460696
-0.00115191
0.0465285
-0.00148457
0.0470473
-0.00187627
0.0475178
-0.00164915
0.0479186
-0.00131145
0.0482089
-0.000974815
0.0482858
-0.000892613
0.0482203
-0.000683818
0.0480724
-0.000530875
0.0478272
0.000128478
0.0475365
0.000426927
0.0471761
0.000135475
0.0467913
-0.00115544
0.0462649
-0.00328832
0.0458703
-0.00769161
0.0456122
-0.0124897
0.0460979
-0.0196353
0.047402
-0.0243312
0.0505148
-0.0285445
0.0552777
-0.0253777
0.0613049
-0.0192405
0.0662749
-0.00675951
0.0691202
0.00355503
0.0693247
0.0130432
0.0678626
0.0148385
0.0656518
0.01578
0.012485
0.063396
0.0473763
0.00380082
-0.0477384
0.0470275
0.00363372
0.0466991
0.00360271
0.0464281
0.00343788
0.0461514
0.00324071
0.0459143
0.00289892
0.0457366
0.00250302
0.0456402
0.00202311
0.0455818
0.00162405
0.0455834
0.000954801
0.0456285
0.000467571
0.0457337
-0.00025366
0.0459184
-0.000733232
0.0462411
-0.00147468
0.0466786
-0.00192203
0.0471527
-0.00235038
0.0476667
-0.00216315
0.0481108
-0.0017556
0.0484015
-0.00126549
0.0484471
-0.000938216
0.0483328
-0.000569504
0.0481359
-0.000334004
0.0478919
0.000372522
0.0475992
0.000719635
0.0472296
0.000505024
0.0468118
-0.000737569
0.0462678
-0.00274434
0.0456887
-0.0071125
0.0450466
-0.0118476
0.0449745
-0.0195632
0.0456726
-0.0250293
0.0482876
-0.0311595
0.0528768
-0.0299668
0.0594855
-0.0258493
0.06583
-0.013104
0.0704892
-0.00110414
0.0721986
0.0113337
0.0714543
0.0155827
0.0694189
0.0178155
0.014863
0.0670409
0.0473432
0.00416577
-0.0477081
0.0469966
0.00398034
0.0467042
0.00389508
0.0464255
0.00371662
0.0461467
0.00351943
0.0459457
0.00309998
0.0457733
0.00267538
0.0456891
0.00210735
0.0456427
0.00167045
0.0456543
0.000943194
0.0457222
0.000399651
0.0458573
-0.000388797
0.0460373
-0.000913237
0.0463767
-0.00181402
0.0468486
-0.00239391
0.0473143
-0.00281612
0.0477794
-0.00262828
0.048198
-0.00217412
0.0485248
-0.00159231
0.0486777
-0.00109114
0.0485825
-0.000474354
0.0483818
-0.000133234
0.048033
0.000721325
0.0476312
0.00112139
0.0471341
0.00100215
0.0466434
-0.000246863
0.0459502
-0.0020512
0.0451609
-0.00632318
0.0442276
-0.0109143
0.0436872
-0.0190228
0.0437277
-0.0250699
0.0454797
-0.0329115
0.049301
-0.0337881
0.0559276
-0.0324759
0.063545
-0.0207214
0.0701024
-0.00766158
0.0735077
0.00792841
0.0735928
0.0154976
0.071722
0.0196862
0.0174334
0.0691516
0.0472108
0.00451592
-0.0475609
0.0468993
0.00429179
0.0465924
0.00420197
0.0463239
0.00398516
0.0460961
0.00374727
0.0459129
0.0032831
0.0457643
0.00282406
0.0457101
0.00216147
0.0456806
0.00169997
0.0457314
0.000892452
0.0458091
0.000321859
0.0459708
-0.000550466
0.0461817
-0.0011241
0.0465352
-0.0021675
0.0470094
-0.00286813
0.0474305
-0.00323719
0.047888
-0.00308579
0.0483244
-0.00261052
0.0486785
-0.00194647
0.0488506
-0.00126319
0.0487998
-0.000423582
0.0485532
0.000113429
0.0481704
0.00110409
0.0477244
0.00156741
0.0471316
0.0015949
0.0465275
0.000357212
0.0457775
-0.00130119
0.0449073
-0.00545296
0.0436929
-0.00969996
0.0425477
-0.0178775
0.041786
-0.0243082
0.0426012
-0.0337267
0.0456213
-0.0368083
0.0518805
-0.0387351
0.0605693
-0.0294102
0.0691125
-0.0162048
0.0750367
0.00200424
0.0770426
0.0134917
0.0759139
0.0208149
0.0199919
0.0733554
0.0471967
0.00485779
-0.0475386
0.0468806
0.00460793
0.0465918
0.00449073
0.0463494
0.00422753
0.0461231
0.00397364
0.0459597
0.00344651
0.0458333
0.00295044
0.0457784
0.00221633
0.0457626
0.00171577
0.0458378
0.000817316
0.0459328
0.000226815
0.0461224
-0.000740018
0.0463816
-0.00138337
0.0467043
-0.0024902
0.0471191
-0.00328293
0.0475713
-0.00368933
0.0480394
-0.00355392
0.0484761
-0.00304721
0.0487877
-0.00225814
0.0489863
-0.00146173
0.0490152
-0.000452467
0.0488353
0.000293289
0.0484638
0.00147556
0.0479833
0.00204795
0.0472375
0.00234067
0.0464927
0.00110207
0.0455012
-0.000309695
0.0443625
-0.0043143
0.042913
-0.0082505
0.0413203
-0.0162847
0.0399354
-0.0229233
0.0395953
-0.0333866
0.0412979
-0.0385109
0.0462183
-0.0436555
0.0552565
-0.0384483
0.0657946
-0.0267429
0.0747988
-0.00699999
0.0792662
0.00902438
0.0793379
0.0207432
0.0225143
0.0768155
0.0470617
0.00518002
-0.0473839
0.0467604
0.00490921
0.0464989
0.00475222
0.0462704
0.00445603
0.0460861
0.00415791
0.0459373
0.00359531
0.0458309
0.00305684
0.0458167
0.00223056
0.0458306
0.00170189
0.0459269
0.00072101
0.0460534
0.000100299
0.0462622
-0.000948811
0.0465471
-0.00166825
0.0468681
-0.00281121
0.0472694
-0.00368425
0.047718
-0.00413793
0.0481854
-0.00402136
0.0485656
-0.00342737
0.0489011
-0.00259364
0.049118
-0.00167863
0.0492142
-0.000548703
0.0490803
0.000427264
0.048735
0.00182087
0.0482445
0.00253842
0.0474878
0.00309737
0.0466245
0.0019653
0.0455225
0.000792332
0.0442813
-0.00307303
0.0426949
-0.00666416
0.0405956
-0.0141855
0.0385199
-0.0208475
0.0370437
-0.0319105
0.037515
-0.0389822
0.0405517
-0.0466922
0.0487264
-0.046623
0.0601447
-0.0381612
0.0725483
-0.0194036
0.0808283
0.000744387
0.0835019
0.0180696
0.02428
0.0817361
0.047063
0.0054942
-0.0473771
0.0467855
0.00518668
0.0465365
0.00500122
0.0463019
0.00469066
0.0461324
0.00432739
0.0460119
0.00371583
0.0459192
0.00314945
0.0459248
0.00222502
0.0459648
0.00166185
0.0460706
0.000615204
0.0462414
-7.04575e-05
0.0464459
-0.0011533
0.0467205
-0.00194289
0.0470767
-0.00316736
0.0474594
-0.00406702
0.0478597
-0.00453818
0.0482846
-0.00444629
0.0487004
-0.00384318
0.0490458
-0.002939
0.0492629
-0.00189571
0.0493075
-0.000593382
0.0492537
0.000481151
0.0490107
0.00206381
0.0486331
0.00291609
0.0478983
0.0038321
0.0470087
0.0028549
0.0457815
0.00201959
0.0442658
-0.0015574
0.0424404
-0.00483873
0.0399498
-0.0116949
0.0374706
-0.0183683
0.0349623
-0.0294023
0.0341912
-0.038211
0.0352007
-0.0477017
0.0413135
-0.0527358
0.051683
-0.0485307
0.0670171
-0.0347377
0.0796526
-0.0118911
0.0865221
0.0112001
0.0245422
0.0862599
0.0469349
0.00578705
-0.0472278
0.0466666
0.00545498
0.0464433
0.0052246
0.0462579
0.00487599
0.0461073
0.00447804
0.0460176
0.0038055
0.0459591
0.00320795
0.0459641
0.00222008
0.0460413
0.00158462
0.046192
0.000464487
0.0463845
-0.000262912
0.0466176
-0.00138639
0.0469215
-0.00224681
0.0472727
-0.00351862
0.0476329
-0.00442714
0.0480058
-0.00491109
0.0484153
-0.00485585
0.0488206
-0.00424846
0.049159
-0.00327739
0.0493979
-0.00213461
0.049478
-0.000673467
0.0494464
0.000512754
0.0492631
0.00224708
0.0489666
0.00321257
0.0483316
0.00446715
0.0474342
0.0037523
0.0461924
0.00326133
0.0445559
7.91118e-05
0.042759
-0.0030418
0.0401015
-0.00903741
0.0371532
-0.0154199
0.0335391
-0.0257882
0.0315263
-0.0361983
0.0306775
-0.0468528
0.0345692
-0.0566275
0.0422826
-0.0562441
0.0582999
-0.0507549
0.0744278
-0.028019
0.0877074
-0.0020795
0.0218531
0.0903965
0.0469727
0.0060719
-0.0472575
0.0467254
0.00570231
0.0464984
0.00545156
0.0463236
0.00505077
0.0461873
0.00461439
0.0461402
0.00385261
0.0461114
0.00323674
0.0461205
0.00221093
0.046222
0.00148309
0.0463731
0.000313475
0.0465901
-0.000479908
0.0468443
-0.00164062
0.0471683
-0.00257083
0.0474813
-0.00383157
0.047798
-0.00474386
0.048174
-0.00528714
0.0485833
-0.00526509
0.048975
-0.00464022
0.0493061
-0.00360846
0.0496023
-0.00243084
0.0497232
-0.000794283
0.0496829
0.000552978
0.0494804
0.00244962
0.0492295
0.00346347
0.0486819
0.00501476
0.0478481
0.00458611
0.0467451
0.00436426
0.0450591
0.00176519
0.0431344
-0.00111716
0.0402953
-0.00619829
0.0372198
-0.0123444
0.0328213
-0.0213898
0.029322
-0.0326989
0.0261883
-0.0437191
0.0274566
-0.0578958
0.0322144
-0.0610019
0.0464398
-0.0649803
0.064079
-0.0456583
0.0845563
-0.0225568
0.0135816
0.0928278
0.0468386
0.00633317
-0.0470999
0.0466101
0.00593083
0.0464254
0.00563623
0.0462902
0.00518602
0.0461985
0.00470607
0.0461423
0.00390886
0.0461531
0.00322589
0.0462223
0.00214176
0.0463504
0.00135494
0.0465106
0.000153305
0.0467481
-0.000717407
0.0470615
-0.00195398
0.0473965
-0.00290588
0.0477115
-0.00414655
0.0480148
-0.00504723
0.0483384
-0.00561071
0.0487266
-0.00565331
0.0491205
-0.00503404
0.049488
-0.00397598
0.0497954
-0.00273828
0.049929
-0.000927897
0.0499517
0.000530314
0.0497975
0.00260379
0.0495277
0.00373327
0.0491232
0.00541931
0.0483294
0.00537987
0.0472918
0.00540188
0.0456176
0.00343941
0.0437526
0.000747847
0.0410098
-0.00345552
0.0379316
-0.00926615
0.0330837
-0.0165419
0.0282175
-0.0278328
0.0228966
-0.0383981
0.0204159
-0.0554152
0.0215188
-0.0621048
0.0313453
-0.0748067
0.048213
-0.0625261
0.0744752
-0.0488189
-0.00289547
0.0909522
0.0468972
0.006585
-0.047149
0.046685
0.00614307
0.0465306
0.00579059
0.0464129
0.00530368
0.046343
0.00477604
0.0463051
0.00394669
0.0463378
0.0031932
0.0464405
0.00203909
0.0465627
0.00123273
0.0467566
-4.05911e-05
0.0469875
-0.000948337
0.0473006
-0.00226702
0.0476324
-0.00323775
0.0479881
-0.00450217
0.0483142
-0.00537342
0.0485789
-0.00587539
0.0489357
-0.00601011
0.049342
-0.00544032
0.0497123
-0.00434629
0.0500316
-0.00305751
0.0502264
-0.00112278
0.0503107
0.000446042
0.0502206
0.00269388
0.049955
0.00399889
0.0496394
0.0057349
0.048894
0.00612532
0.0479978
0.00629807
0.0464274
0.00500976
0.0446262
0.00254905
0.0417793
-0.000608585
0.0386517
-0.00613861
0.0340187
-0.0119088
0.0282793
-0.0220934
0.0217107
-0.0318295
0.0150724
-0.0487769
0.0112953
-0.0583277
0.014711
-0.0782224
0.0285228
-0.0763379
0.0548087
-0.0751048
-0.0278693
0.0797825
0.0467698
0.00679884
-0.0469837
0.0466077
0.00630521
0.0464702
0.00592803
0.0463802
0.00539376
0.0463496
0.00480656
0.0463636
0.00393272
0.0464197
0.00313712
0.0465451
0.00191363
0.046703
0.00107487
0.0469652
-0.000302737
0.0472048
-0.00118796
0.0475587
-0.00262093
0.0478725
-0.00355153
0.0482131
-0.00484278
0.0485577
-0.00571806
0.0488638
-0.00618142
0.0491895
-0.00633588
0.0495382
-0.00578904
0.049848
-0.00465606
0.0501742
-0.00338369
0.050437
-0.0013856
0.0505833
0.000299779
0.0506143
0.00266282
0.0504307
0.00418248
0.0502278
0.00593787
0.0496008
0.00675228
0.0488373
0.00706155
0.0472819
0.00656515
0.0456383
0.00419268
0.0430235
0.00200623
0.0397374
-0.0028525
0.0356631
-0.00783449
0.0297232
-0.0161536
0.0230039
-0.0251102
0.0136667
-0.0394397
0.00567101
-0.050332
0.0024379
-0.0749892
0.0083529
-0.0822529
0.0263167
-0.0930686
-0.060507
0.0589544
0.0468818
0.00699536
-0.0470783
0.0467265
0.00646056
0.04662
0.00603453
0.0465593
0.00545447
0.0465523
0.00481351
0.0465977
0.00388736
0.0466761
0.00305869
0.0468254
0.00176431
0.046989
0.000911315
0.0472587
-0.000572433
0.0475172
-0.00144644
0.0478783
-0.00298207
0.0482373
-0.00391058
0.0485271
-0.00513253
0.0488883
-0.00607924
0.0491751
-0.00646821
0.0494894
-0.00665019
0.0498475
-0.00614722
0.0501818
-0.00499031
0.0504313
-0.00363315
0.0506956
-0.00164993
0.0508514
0.000143966
0.0510381
0.00247614
0.0508978
0.00432272
0.0508417
0.00599401
0.050298
0.00729599
0.0498291
0.00753037
0.0484291
0.00796518
0.0467266
0.00589521
0.0446586
0.00407418
0.0412827
0.000523433
0.0375647
-0.00411648
0.0316736
-0.0102625
0.0251705
-0.0186072
0.0153124
-0.0295816
0.00496932
-0.039989
-0.00349191
-0.066528
-0.007049
-0.0786958
-0.000334501
-0.0997831
-0.0868346
0.025993
0.0467713
0.00714189
-0.0469178
0.046654
0.00657788
0.0465858
0.00610269
0.0465761
0.00546417
0.0465858
0.00480381
0.0466863
0.00378681
0.0467974
0.00294761
0.0470096
0.00155214
0.0472069
0.000714012
0.0474992
-0.000864782
0.0477874
-0.00173458
0.0481148
-0.00330945
0.0485411
-0.00433694
0.0488379
-0.00542932
0.0492026
-0.00644394
0.0494961
-0.00676168
0.0497896
-0.00694372
0.0500747
-0.00643226
0.050431
-0.0053466
0.0506847
-0.00388693
0.0509757
-0.00194087
0.0511086
1.1047e-05
0.0513715
0.00221321
0.051289
0.00440527
0.0514237
0.00585926
0.0509471
0.00777261
0.0506093
0.0078682
0.0497763
0.00879815
0.048073
0.00759855
0.0462383
0.00590886
0.0432503
0.00351142
0.0399849
-0.000851019
0.0345897
-0.00486731
0.0280897
-0.0121072
0.0186854
-0.0201772
0.00818018
-0.0294838
-0.00655423
-0.0517936
-0.0148463
-0.0704038
-0.0218783
-0.0927511
-0.0973517
-0.0113611
0.0469668
0.0072681
-0.047093
0.0468835
0.00666121
0.04683
0.00615616
0.0468329
0.00546127
0.0468911
0.00474564
0.0470131
0.00366483
0.047155
0.00280569
0.0473657
0.00134146
0.0475863
0.000493388
0.0478665
-0.00114498
0.0482385
-0.00210655
0.0485272
-0.00359817
0.0489357
-0.00474549
0.0492632
-0.00575679
0.0496059
-0.00678668
0.0498924
-0.00704819
0.0502313
-0.00728258
0.0504834
-0.00668436
0.0507937
-0.00565693
0.0510138
-0.00410701
0.0513776
-0.00230468
0.0514811
-9.24413e-05
0.0519199
0.00177441
0.051855
0.00447022
0.0520606
0.00565364
0.0518758
0.00795742
0.0514194
0.0083246
0.0509124
0.00930511
0.0496078
0.0089032
0.0480037
0.0075129
0.0454148
0.00610037
0.0423884
0.00217534
0.0380222
-0.000501063
0.0319976
-0.00608264
0.0234851
-0.0116647
0.0135244
-0.0195231
-0.00294139
-0.0353278
-0.0164022
-0.056943
-0.0304999
-0.0786533
-0.0949409
-0.0329108
0.0468637
0.00735519
-0.0469508
0.0468227
0.00670212
0.0468091
0.0061698
0.0468823
0.00538804
0.0469802
0.00464774
0.0471625
0.00348258
0.047355
0.00261322
0.0475838
0.00111264
0.0478678
0.000209379
0.0481452
-0.00142239
0.0485528
-0.0025142
0.0488465
-0.00389178
0.0493047
-0.00520375
0.049613
-0.00606506
0.049985
-0.00715872
0.0502759
-0.00733904
0.0505672
-0.00757389
0.0508033
-0.00692048
0.0511563
-0.00600996
0.0513036
-0.00425432
0.0517493
-0.00275032
0.0518196
-0.000162799
0.0522807
0.00131331
0.0524702
0.00428072
0.052632
0.00549189
0.0526978
0.00789158
0.0524438
0.00857865
0.0520575
0.00969134
0.0511118
0.00984895
0.0496935
0.00893113
0.0477038
0.00809012
0.0447491
0.00512998
0.0415475
0.0027006
0.0368543
-0.00138944
0.0300648
-0.00487514
0.0209024
-0.0103608
0.00642794
-0.0208533
-0.0116998
-0.0388153
-0.029188
-0.0611651
-0.083076
-0.041053
0.0471577
0.00743357
-0.0472361
0.0471456
0.0067142
0.047177
0.00613845
0.0472754
0.0052896
0.0473945
0.00452866
0.0475897
0.00328735
0.0478284
0.00237449
0.0480727
0.000868399
0.0483925
-0.000110444
0.0486824
-0.00171231
0.0490928
-0.00292459
0.0493811
-0.00418007
0.0498331
-0.00565575
0.0501366
-0.0063686
0.0504941
-0.00751619
0.0507772
-0.00762208
0.0511107
-0.00790739
0.0512836
-0.00709344
0.0516231
-0.00634946
0.0517492
-0.0043804
0.0521608
-0.00316188
0.0523952
-0.000397226
0.0527336
0.000974933
0.0530838
0.00393048
0.0533665
0.00520924
0.0536107
0.00764729
0.0535401
0.00864928
0.0534063
0.00982516
0.0528481
0.0104072
0.0516924
0.0100869
0.0502357
0.00954674
0.0476855
0.00768021
0.0445873
0.00579883
0.0410715
0.0021263
0.0366815
-0.000485082
0.029491
-0.0031703
0.0180285
-0.00939079
0.000593355
-0.0213801
-0.0204557
-0.040116
-0.0644072
-0.0391244
0.047111
0.00744484
-0.0471223
0.0471484
0.00667685
0.0472349
0.00605188
0.0473709
0.00515362
0.04756
0.00433953
0.0477692
0.00307819
0.0480638
0.00207992
0.0483194
0.000612792
0.0487694
-0.000560472
0.0490207
-0.00196361
0.0495107
-0.00341459
0.0498345
-0.00450387
0.0502466
-0.00606788
0.0506035
-0.00672544
0.0509192
-0.00783193
0.0512155
-0.00791834
0.051502
-0.0081939
0.051687
-0.00727849
0.052017
-0.00667939
0.0522463
-0.00460978
0.0525396
-0.00345512
0.0529231
-0.000780764
0.0531821
0.000715982
0.0537511
0.00336143
0.0539857
0.00497464
0.0545137
0.00711936
0.0546923
0.00847069
0.0546647
0.00985273
0.0544966
0.0105753
0.0537407
0.0108428
0.0524756
0.0108118
0.0509107
0.00924511
0.0483253
0.0083843
0.0447322
0.00571933
0.0417922
0.00245496
0.0376577
0.000964148
0.0297318
-0.00146487
0.0156303
-0.00727856
-0.00557215
-0.0189136
-0.0415201
-0.0284593
0.0476127
0.00746698
-0.0476348
0.0476564
0.00663314
0.0478213
0.00588704
0.0479434
0.00503149
0.0482043
0.00407857
0.0483888
0.00289377
0.0487812
0.0016875
0.0489967
0.000397231
0.0494534
-0.0010171
0.0497274
-0.00223769
0.050231
-0.00391812
0.0505945
-0.00486736
0.0509121
-0.0063855
0.0513324
-0.00714576
0.0515908
-0.00809036
0.0518946
-0.0082221
0.0521257
-0.00842506
0.0523523
-0.00750501
0.0525179
-0.00684506
0.0528673
-0.00495917
0.0530185
-0.00360633
0.0535671
-0.00132935
0.053825
0.000458074
0.0544209
0.00276552
0.0548928
0.00450277
0.0553929
0.00661924
0.0558826
0.00798105
0.0561453
0.00958998
0.0560786
0.010642
0.0559012
0.0110202
0.0550553
0.0116577
0.0536051
0.0106952
0.0522197
0.00976977
0.0492456
0.00869343
0.0458316
0.0058689
0.0432482
0.00354756
0.0394531
0.00233026
0.0314948
0.000679694
0.0162093
-0.00362805
-0.0191158
-0.00619501
0.0476528
0.00735114
-0.0475369
0.0477639
0.006522
0.0479691
0.00568186
0.0481017
0.00489888
0.0484566
0.00372362
0.0487076
0.00264282
0.0491397
0.00125537
0.0494302
0.000106772
0.0498664
-0.00145332
0.0503111
-0.00268236
0.0506766
-0.00428365
0.0511602
-0.00535095
0.0514666
-0.00669187
0.0518596
-0.00753884
0.0521202
-0.00835092
0.0524264
-0.00852829
0.0525793
-0.00857793
0.0528732
-0.00779888
0.0529766
-0.00694848
0.0533789
-0.00536149
0.0535632
-0.00379062
0.0540245
-0.00179064
0.0545079
-2.53229e-05
0.055027
0.0022464
0.0556633
0.00386641
0.056425
0.00585755
0.0569571
0.00744896
0.0576967
0.00885037
0.0579855
0.0103533
0.0579112
0.0110945
0.057863
0.0117059
0.0566395
0.0119187
0.0554871
0.0109222
0.0538801
0.0103004
0.0507709
0.00897815
0.0476607
0.00665777
0.0455061
0.00448478
0.0426843
0.00350155
0.0358794
0.00317681
-0.00417479
0.0209384
0.0484543
0.00718461
-0.0482878
0.048569
0.00640731
0.0487948
0.00545603
0.0490866
0.00460709
0.0493733
0.00343696
0.0497335
0.00228257
0.0500111
0.000977799
0.0504898
-0.000371953
0.0508053
-0.00176882
0.0513453
-0.00322237
0.0516834
-0.00462173
0.052152
-0.00581956
0.0524517
-0.00699158
0.0527926
-0.00787968
0.0530193
-0.00857763
0.0532651
-0.00877411
0.0533749
-0.0086877
0.0535776
-0.00800162
0.0537254
-0.00709626
0.0539596
-0.00559567
0.0542822
-0.00411323
0.0546551
-0.00216352
0.0551705
-0.000540807
0.0559013
0.00151566
0.0565044
0.00326327
0.0574558
0.00490621
0.0583218
0.00658292
0.0590335
0.00813872
0.0599437
0.009443
0.0601921
0.0108461
0.0604309
0.011467
0.0602678
0.0120818
0.0591145
0.0120755
0.0579662
0.0114486
0.0564495
0.0104949
0.0536227
0.00948459
0.0503224
0.00778504
0.0486331
0.00519088
0.0462618
0.00554808
0.00205499
0.0400321
0.0483798
0.00695507
-0.0481502
0.0487224
0.00606468
0.0489824
0.00519601
0.0494261
0.00416339
0.0497499
0.00311318
0.0503139
0.00171858
0.0506129
0.000678765
0.0511298
-0.000888895
0.0516202
-0.00225921
0.0520804
-0.00368251
0.0525311
-0.00507242
0.0529037
-0.00619219
0.0532769
-0.00736476
0.0535428
-0.00814564
0.0537881
-0.00882286
0.0539177
-0.00890376
0.0541049
-0.00887486
0.0541756
-0.00807234
0.0543508
-0.00727142
0.0545798
-0.00582475
0.0548662
-0.00439956
0.0553349
-0.00263223
0.0558512
-0.00105707
0.056571
0.000795838
0.0574832
0.00235103
0.0583952
0.00399421
0.0595406
0.00543752
0.0606191
0.00706021
0.061662
0.00840015
0.0626932
0.00981492
0.0632835
0.0108767
0.0635486
0.0118168
0.0634959
0.0121281
0.0626824
0.0122622
0.0612456
0.0119316
0.0600885
0.0106417
0.0572299
0.0106436
0.0544411
0.00797958
0.0522587
0.00773049
0.00501733
0.0492964
0.0496472
0.00678828
-0.0494804
0.0499699
0.00574195
0.0503008
0.00486509
0.0507707
0.00369351
0.0511168
0.00276708
0.0515235
0.0013119
0.0520972
0.00010503
0.0524792
-0.0012709
0.053093
-0.00287296
0.0534424
-0.00403194
0.0539512
-0.00558116
0.0542298
-0.0064708
0.0546253
-0.00776032
0.0548024
-0.00832271
0.054988
-0.00900845
0.0550945
-0.00901026
0.0551282
-0.00890857
0.0552195
-0.00816362
0.0553034
-0.00735535
0.0554763
-0.0059976
0.0557573
-0.0046806
0.056181
-0.0030559
0.0566864
-0.00156248
0.0575217
-3.95255e-05
0.0584318
0.00144097
0.0595131
0.00291291
0.0607764
0.00417426
0.0621012
0.00573532
0.0635164
0.00698503
0.0648696
0.00846166
0.0660355
0.00971079
0.067005
0.0108473
0.067318
0.0118151
0.0677417
0.0118385
0.0669808
0.0126926
0.0661231
0.0114994
0.0648569
0.0119098
0.0625881
0.0102484
0.0601734
0.0101452
0.00802624
0.0571645
0.0499164
0.00641989
-0.049548
0.0504351
0.00522324
0.050898
0.00440218
0.0513789
0.00321262
0.0519841
0.00216193
0.0524146
0.00088139
0.0530604
-0.000540737
0.0535783
-0.00178881
0.0540854
-0.00338009
0.0545996
-0.00454611
0.0549698
-0.00595143
0.0553972
-0.00689816
0.0555991
-0.00796222
0.055881
-0.0086046
0.0558976
-0.00902505
0.0559943
-0.00910703
0.0559832
-0.00889743
0.0560236
-0.00820402
0.0559749
-0.00730665
0.0562439
-0.00626663
0.0563861
-0.00482273
0.0568212
-0.00349102
0.0575469
-0.00228818
0.0582064
-0.000698985
0.059241
0.000406294
0.060593
0.00156094
0.0619114
0.00285583
0.0635067
0.0041401
0.0652324
0.00525929
0.067157
0.00653708
0.0685234
0.00834436
0.0705244
0.00884635
0.0716093
0.0107302
0.0724809
0.0109669
0.0731499
0.0120236
0.0729828
0.0116665
0.0723757
0.0125169
0.0713066
0.0113175
0.0698764
0.0115754
0.0106355
0.0672671
0.0517632
0.00609177
-0.051435
0.0521735
0.00481288
0.0526517
0.003924
0.0531028
0.00276151
0.0537138
0.00155096
0.0543544
0.000240812
0.0549424
-0.00112878
0.0555849
-0.0024313
0.0560135
-0.00380874
0.0566025
-0.00513506
0.0569091
-0.00625806
0.0572765
-0.00726553
0.0574475
-0.00813317
0.05758
-0.00873709
0.0574775
-0.00892257
0.0575056
-0.00913518
0.0573568
-0.00874856
0.0572215
-0.00806875
0.0572399
-0.0073251
0.0572784
-0.00630506
0.0573477
-0.00489211
0.0578791
-0.00402238
0.0583654
-0.00277448
0.0592132
-0.00154679
0.0602579
-0.000638402
0.0617528
6.60373e-05
0.0630306
0.00157804
0.065051
0.00211973
0.066831
0.00347926
0.0690133
0.00435482
0.071296
0.00606164
0.0734729
0.0066694
0.0755572
0.00864597
0.0775538
0.00897027
0.078976
0.0106013
0.0798884
0.0107541
0.0807051
0.0117003
0.0804679
0.0115546
0.0801691
0.0118743
0.011915
0.0788896
0.0531374
0.00526637
-0.052312
0.0537808
0.00416945
0.0546198
0.00308495
0.0552865
0.00209489
0.0559746
0.000862807
0.0565547
-0.000339247
0.0571452
-0.00171935
0.0577961
-0.0030822
0.0582526
-0.00426519
0.0586867
-0.00556923
0.0589645
-0.00653584
0.0591354
-0.00743643
0.0592489
-0.00824669
0.059148
-0.00863613
0.0590646
-0.00883915
0.0589063
-0.00897689
0.058568
-0.00841028
0.0584795
-0.0079803
0.0582785
-0.00712406
0.0582478
-0.00627435
0.0583345
-0.00497884
0.0587341
-0.00442196
0.0591704
-0.00321076
0.0601437
-0.00252016
0.0611317
-0.00162634
0.0625532
-0.00135545
0.0642109
-7.96653e-05
0.0660884
0.000242234
0.0682076
0.00136007
0.0706291
0.00193324
0.0733477
0.00334312
0.0760336
0.00398347
0.0790481
0.00563148
0.0816837
0.0063347
0.0845946
0.00769043
0.086619
0.00872968