/*--------------------------------*- C++ -*----------------------------------*\
  =========                 |
  \\      /  F ield         | OpenFOAM: The Open Source CFD Toolbox
   \\    /   O peration     | Website:  https://openfoam.org
    \\  /    A nd           | Version:  11
     \\/     M anipulation  |
\*---------------------------------------------------------------------------*/
FoamFile
{
    format      ascii;
    class       volVectorField;
    location    "5.5";
    object      U;
}
// * * * * * * * * * * * * * * * * * * * * * * * * * * * * * * * * * * * * * //

dimensions      [0 1 -1 0 0 0 0];

internalField   nonuniform List<vector> 
9600
(
(0.970149 0.00147978 4.8394e-21)
(0.966379 0.00167112 0)
(0.963966 0.00189263 0)
(0.960918 0.00259031 8.32496e-23)
(0.954693 0.00284699 0)
(0.948976 0.00269129 -8.79811e-23)
(0.947871 0.0025443 -2.85992e-21)
(0.948413 0.00321746 2.87445e-21)
(0.943759 0.00390709 -2.93072e-21)
(0.936636 0.0034011 2.94364e-21)
(0.934699 0.00226694 0)
(0.936255 0.00179567 -2.55096e-21)
(0.939505 0.00155968 2.6068e-21)
(0.942147 0.00169543 -3.24734e-23)
(0.935841 0.00278996 7.06881e-22)
(0.905626 0.00297998 -7.02276e-22)
(0.885264 0.00107039 0)
(0.879508 -5.00665e-05 1.51571e-22)
(0.878879 -0.000195031 -1.50365e-22)
(0.880947 -0.00135684 1.52014e-24)
(0.893606 -0.00286031 -1.9268e-24)
(0.910426 -0.00406154 -4.974e-22)
(0.920887 -0.00572677 5.01097e-22)
(0.930438 -0.0080601 0)
(0.942402 -0.010859 0)
(0.958441 -0.0139479 2.70649e-22)
(0.982337 -0.0171512 3.42867e-22)
(1.02208 -0.0179465 -6.34022e-22)
(1.08277 -0.0132761 2.72225e-23)
(1.15646 -0.00382929 -2.35419e-23)
(1.21223 0.00632623 0)
(1.22776 0.0103362 -1.05896e-21)
(1.22208 0.00827909 1.03686e-21)
(1.2042 0.00276507 1.94294e-21)
(1.15951 -0.0063206 -1.95483e-21)
(1.09594 -0.0125364 -5.05283e-23)
(1.047 -0.0147725 0)
(1.01332 -0.0170931 -1.66045e-21)
(0.994917 -0.0134513 1.6698e-21)
(0.96267 -0.018546 -2.19615e-23)
(0.972817 0.000330601 2.38441e-22)
(0.971488 0.00032055 0)
(0.969676 -6.01849e-06 0)
(0.968555 -0.000118418 -2.56961e-22)
(0.967408 -0.000231874 -5.69394e-21)
(0.964879 -0.00114202 8.91686e-21)
(0.962542 -0.00205478 -2.93928e-21)
(0.961533 -0.00178791 -9.38336e-23)
(0.960899 -0.00146955 -9.35392e-23)
(0.960193 -0.00222067 0)
(0.960616 -0.00287493 -8.87973e-23)
(0.962036 -0.0030488 -2.66e-21)
(0.965601 -0.00310061 3.69625e-21)
(0.971818 -0.00152071 -1.14596e-21)
(0.973602 0.0029256 -1.309e-23)
(0.971656 0.00478611 0)
(0.970277 0.00250908 2.47273e-24)
(0.969595 0.000567957 3.13187e-24)
(0.968807 -0.000305119 1.67014e-22)
(0.968041 -0.00197933 -1.6768e-22)
(0.969107 -0.00273434 -2.5819e-22)
(0.976417 -0.00070116 2.48881e-22)
(0.984348 0.00252359 0)
(0.987009 0.0040836 6.10027e-22)
(0.991582 0.00527379 -6.08031e-22)
(1.00239 0.00567143 4.43044e-25)
(1.02037 0.00357464 -5.37203e-22)
(1.04816 -0.00442113 5.26362e-22)
(1.09422 -0.0146349 -8.33984e-23)
(1.15883 -0.0222729 -1.21631e-21)
(1.22697 -0.0195125 1.31821e-21)
(1.27217 -0.0106921 6.95176e-22)
(1.28307 0.0032268 -6.82198e-22)
(1.27397 0.0147287 6.07813e-23)
(1.24198 0.0292132 -4.04564e-21)
(1.18356 0.0322987 3.95532e-21)
(1.14302 0.0317627 0)
(1.09557 0.0250729 -1.99454e-21)
(1.07507 0.0240186 2.00883e-21)
(1.03253 0.0189823 7.0004e-23)
(0.971898 0.00040824 5.04085e-21)
(0.970665 0.000752321 -1.66411e-22)
(0.968651 0.00120473 0)
(0.967457 0.0017819 1.75686e-22)
(0.966621 0.0021185 0)
(0.964814 0.00178872 -3.16835e-21)
(0.96231 0.00194352 -3.27352e-23)
(0.961368 0.00287481 3.12026e-21)
(0.961722 0.00305936 9.51756e-23)
(0.962159 0.00281312 0)
(0.962182 0.00183176 2.72291e-22)
(0.963188 0.000999877 -2.60663e-21)
(0.965848 0.000171939 2.68945e-21)
(0.971095 0.00177173 9.84349e-23)
(0.979697 0.00585379 -4.97087e-23)
(0.984563 0.00592293 1.52931e-23)
(0.984853 0.0029125 -1.24481e-24)
(0.981924 0.000532584 1.79589e-22)
(0.979572 0.000567514 -1.87843e-22)
(0.97785 -0.000618776 3.32043e-24)
(0.978775 -0.00327056 -4.08795e-24)
(0.986331 -0.00550941 -5.27658e-22)
(0.993052 -0.00590897 5.35406e-22)
(0.992981 -0.0073938 6.24604e-22)
(0.993836 -0.011106 -6.25109e-22)
(1.00105 -0.0160354 0)
(1.01945 -0.0206552 -1.1862e-23)
(1.04644 -0.0261919 8.72246e-23)
(1.08723 -0.0343261 5.69385e-23)
(1.14599 -0.0367764 -1.6625e-22)
(1.21529 -0.0264972 -1.08252e-22)
(1.26707 -0.0106581 -5.04784e-22)
(1.2819 0.00144763 -9.97203e-22)
(1.2782 0.0057722 1.42604e-21)
(1.25888 0.0108393 1.34349e-22)
(1.20536 0.012101 0)
(1.15741 0.0105729 9.97211e-23)
(1.10809 0.0054929 -2.05321e-21)
(1.08385 0.00345989 2.04336e-21)
(1.04593 -0.000947286 -4.84805e-23)
(0.971792 0.000909466 3.35734e-22)
(0.970476 0.0011549 -1.72855e-22)
(0.968114 0.00147271 0)
(0.966745 0.001631 0)
(0.965678 0.00142985 -5.65518e-21)
(0.963329 0.000697055 5.8763e-21)
(0.961036 2.82753e-05 2.93672e-21)
(0.960642 -0.00038297 -2.92217e-21)
(0.961083 -0.000604409 3.06335e-21)
(0.961112 -0.00150224 -2.91991e-21)
(0.961312 -0.00305549 -1.86317e-22)
(0.962966 -0.00409706 -8.44819e-23)
(0.966074 -0.00492851 -7.88189e-23)
(0.971473 -0.00390282 -6.67746e-23)
(0.982387 4.26963e-07 7.42106e-22)
(0.990708 0.00170342 -3.11176e-22)
(0.995939 0.000633554 -3.09551e-22)
(0.998512 0.000351565 -1.61862e-23)
(0.999631 1.08477e-05 8.77376e-24)
(1.0025 -0.00277467 -6.88527e-24)
(1.00574 -0.00556609 2.88985e-22)
(1.00831 -0.00451604 -8.54983e-22)
(1.01119 0.000255214 6.05027e-22)
(1.00963 0.00230946 5.58817e-23)
(1.00779 0.00138558 0)
(1.00882 -0.00202077 0)
(1.01817 -0.00817733 -4.85549e-22)
(1.04338 -0.0198139 5.23944e-22)
(1.08039 -0.0331062 -1.86684e-21)
(1.13069 -0.0452221 1.97623e-21)
(1.19406 -0.0428011 7.79791e-23)
(1.25603 -0.026364 -1.42344e-23)
(1.2926 -0.000649695 -4.08365e-23)
(1.29556 0.0175228 2.10825e-21)
(1.27729 0.0359159 -6.61618e-21)
(1.22523 0.0434994 8.46435e-21)
(1.1808 0.0458901 -3.8105e-21)
(1.12822 0.0373399 1.80311e-22)
(1.10433 0.0357624 -2.03622e-22)
(1.06241 0.0255757 1.16686e-22)
(0.971216 0.000847892 5.1546e-21)
(0.970063 0.00109124 -3.11759e-24)
(0.967798 0.00140283 0)
(0.966213 0.00174077 0)
(0.964666 0.0018824 -3.84332e-22)
(0.962565 0.00118133 5.92517e-22)
(0.961004 0.000897705 -3.00771e-21)
(0.960426 0.0014175 6.16763e-21)
(0.960831 0.00153383 -3.1772e-21)
(0.961629 0.000987532 -1.95938e-22)
(0.9629 1.70439e-05 0)
(0.964525 -0.000910635 -5.27538e-21)
(0.967399 -0.00191688 5.2977e-21)
(0.971402 -0.00109215 -1.04312e-21)
(0.98075 0.0023567 8.66087e-22)
(0.995444 0.00336126 -5.87104e-23)
(1.007 0.00161271 2.21913e-23)
(1.01241 0.000329078 1.84135e-22)
(1.01626 0.00043015 -2.13687e-22)
(1.01992 -0.000982944 3.54381e-24)
(1.01909 -0.00260268 2.92748e-22)
(1.01606 -0.00444687 -8.88552e-22)
(1.01451 -0.00410701 5.5691e-22)
(1.01236 -0.0044183 -5.76427e-23)
(1.00921 -0.00715306 -3.98256e-23)
(1.00899 -0.0134735 4.56789e-23)
(1.0168 -0.0210312 -1.69869e-23)
(1.03881 -0.0321296 -5.57728e-24)
(1.07474 -0.0463382 -1.1493e-22)
(1.12238 -0.0620049 0)
(1.1826 -0.0622942 -1.06586e-22)
(1.24573 -0.0468854 0)
(1.29141 -0.0193656 8.68539e-23)
(1.30333 0.00214082 0)
(1.29026 0.0232433 0)
(1.24424 0.0343134 4.36947e-21)
(1.19644 0.039678 -4.59295e-21)
(1.14123 0.0316873 -3.13639e-21)
(1.11435 0.0294773 2.86336e-21)
(1.07011 0.0192444 -1.19228e-22)
(0.970921 0.00146337 0)
(0.969646 0.00161359 -3.38258e-24)
(0.967284 0.00185818 0)
(0.965323 0.0026223 0)
(0.963437 0.00226251 -6.41778e-21)
(0.962165 0.00142581 2.79161e-21)
(0.960236 0.00121843 6.58081e-21)
(0.959556 0.000620533 -3.27975e-21)
(0.960036 0.000248804 0)
(0.961063 -0.00116333 0)
(0.96221 -0.00301006 0)
(0.964495 -0.00490428 -2.32859e-21)
(0.967868 -0.00621944 2.53736e-21)
(0.972465 -0.00579853 1.04582e-21)
(0.982527 -0.0034042 -1.01067e-21)
(0.998563 -0.00372023 -2.49625e-22)
(1.01001 -0.00346851 3.30701e-22)
(1.01685 -0.00221293 -4.40525e-23)
(1.02229 -0.00175022 2.05319e-22)
(1.02781 -0.00440107 -2.05385e-22)
(1.03033 -0.00534579 -9.43564e-24)
(1.02885 -0.00476184 -4.04245e-23)
(1.02632 -0.000718357 7.78573e-23)
(1.02175 0.0017292 0)
(1.01722 0.000721602 4.0985e-23)
(1.01412 -0.00465854 3.28038e-23)
(1.01714 -0.0141395 -8.19228e-23)
(1.03219 -0.0294515 1.46629e-21)
(1.0648 -0.0463725 -3.43451e-21)
(1.10978 -0.0659286 1.86254e-21)
(1.16683 -0.0724895 1.78697e-21)
(1.2297 -0.0622247 -1.28201e-21)
(1.287 -0.0267294 -4.61362e-23)
(1.31388 0.00412317 -1.92245e-21)
(1.30795 0.035373 -3.10258e-21)
(1.26702 0.0510671 4.63854e-21)
(1.2164 0.0619463 0)
(1.1567 0.0536462 -3.28937e-21)
(1.12696 0.0529274 4.6444e-22)
(1.08182 0.0395727 2.69066e-21)
(0.970197 0.0014269 6.60832e-21)
(0.96892 0.00140976 -3.62653e-24)
(0.966611 0.00197685 0)
(0.964462 0.00262179 0)
(0.962953 0.00209857 6.20769e-21)
(0.961471 0.00149246 -6.24855e-21)
(0.95953 0.000966629 3.38593e-21)
(0.959258 0.000512686 3.83674e-22)
(0.959812 9.90343e-05 -3.34679e-21)
(0.961136 -0.00135369 3.16262e-21)
(0.96306 -0.00256014 -2.80382e-21)
(0.965511 -0.00370656 -2.86297e-21)
(0.968782 -0.00429326 3.01036e-21)
(0.973818 -0.0044352 0)
(0.984651 -0.0034018 6.94022e-22)
(0.999745 -0.00351245 -9.02388e-22)
(1.01189 -0.00281803 3.14048e-22)
(1.02194 -0.00225976 1.94464e-22)
(1.02995 -0.00150111 -1.6022e-23)
(1.03568 -0.00218568 -2.18307e-22)
(1.03726 -0.00214252 -3.16774e-22)
(1.03533 -0.0021226 -3.33946e-22)
(1.03053 -0.000695346 5.85105e-22)
(1.02416 -0.000266754 9.20271e-22)
(1.01857 -0.00217079 -9.18125e-22)
(1.0138 -0.00863774 -1.04978e-22)
(1.0154 -0.0185963 1.14243e-22)
(1.0274 -0.0355258 -6.74152e-23)
(1.05565 -0.05515 0)
(1.09807 -0.0787205 -2.30735e-21)
(1.15504 -0.0890168 1.90453e-21)
(1.21443 -0.0866458 5.98394e-22)
(1.27993 -0.0559677 -7.43649e-22)
(1.31931 -0.0210618 1.88762e-21)
(1.32556 0.0215283 -1.46449e-21)
(1.28965 0.0464529 -1.44075e-23)
(1.24107 0.0648128 0)
(1.17713 0.0584159 -3.31563e-21)
(1.14581 0.056803 1.22777e-21)
(1.09649 0.0425766 2.46241e-21)
(0.969679 0.00204726 5.31688e-21)
(0.968407 0.00206062 -3.94704e-22)
(0.965978 0.00261561 6.52222e-21)
(0.96365 0.00312574 -6.57436e-21)
(0.962153 0.00256389 4.23473e-22)
(0.960374 0.00194775 -4.31319e-22)
(0.958815 0.00108882 0)
(0.958833 0.000463216 2.57256e-21)
(0.959667 -0.00033014 -3.46422e-21)
(0.960978 -0.00216673 0)
(0.96265 -0.00358681 2.23994e-21)
(0.965529 -0.00624044 -2.68283e-21)
(0.969236 -0.00766872 -2.99023e-24)
(0.975529 -0.00869858 0)
(0.98604 -0.00844815 5.85055e-22)
(1.0007 -0.00945755 -5.32921e-22)
(1.01417 -0.00809249 8.00742e-23)
(1.02544 -0.00599823 2.00591e-22)
(1.03399 -0.00456733 -7.14916e-23)
(1.03879 -0.0051378 -2.50627e-22)
(1.04037 -0.00458944 0)
(1.03898 -0.0037238 -6.15022e-22)
(1.03574 0.000501126 6.23072e-22)
(1.02863 0.00323387 0)
(1.02229 0.00228133 1.13395e-22)
(1.01641 -0.00317621 0)
(1.01545 -0.0136769 -2.72409e-22)
(1.02266 -0.0329252 1.79696e-21)
(1.04515 -0.0533629 -1.66411e-21)
(1.0817 -0.0817145 5.80798e-22)
(1.13928 -0.0979531 1.70952e-21)
(1.19862 -0.103741 -3.34243e-21)
(1.26948 -0.073252 1.20008e-21)
(1.31945 -0.0342429 1.51094e-21)
(1.34301 0.0182594 -6.79804e-21)
(1.31584 0.0523995 5.55712e-21)
(1.2716 0.0806506 0)
(1.20338 0.0777033 -4.90259e-21)
(1.16619 0.0775574 7.20218e-22)
(1.10974 0.0615725 3.91902e-21)
(0.968899 0.00202147 0)
(0.967519 0.00183366 8.02451e-22)
(0.965028 0.00252729 0)
(0.962876 0.00288395 8.63268e-22)
(0.961527 0.00244866 6.17816e-21)
(0.959532 0.00169062 -3.54509e-21)
(0.958467 0.000834967 -3.5925e-21)
(0.958794 -3.30071e-05 4.46909e-22)
(0.95971 -0.001053 0)
(0.960868 -0.00315191 0)
(0.962912 -0.00486339 3.47595e-21)
(0.96641 -0.00687883 -3.459e-21)
(0.970219 -0.00764312 -4.81708e-22)
(0.977393 -0.00944993 -1.28632e-22)
(0.987895 -0.0101661 5.65424e-22)
(1.00186 -0.0110866 -5.20385e-22)
(1.01524 -0.00921118 1.02565e-22)
(1.02716 -0.0070563 2.07368e-22)
(1.03747 -0.00486484 -5.88759e-23)
(1.04328 -0.0043519 -2.52535e-22)
(1.04402 -0.00242083 -2.27771e-23)
(1.04209 -0.000925061 -8.06932e-22)
(1.03739 0.00252271 8.5635e-22)
(1.02935 0.00389201 8.44506e-23)
(1.02213 0.00307205 -2.43246e-22)
(1.01465 -0.00289026 0)
(1.0138 -0.0129121 -2.09811e-22)
(1.01649 -0.0340223 1.05401e-22)
(1.03695 -0.0575188 2.30834e-22)
(1.06769 -0.0898395 -5.9835e-22)
(1.12324 -0.109717 3.06166e-22)
(1.1825 -0.124635 1.74107e-21)
(1.25729 -0.105118 -1.73365e-21)
(1.31531 -0.0687804 -1.2479e-22)
(1.35603 -0.00771249 -2.68775e-22)
(1.33847 0.0400341 7.30176e-21)
(1.29995 0.0800248 -6.47919e-21)
(1.22828 0.0844488 -5.5074e-21)
(1.18631 0.0875544 5.45942e-21)
(1.12329 0.0700504 0)
(0.968181 0.00262811 0)
(0.966837 0.00255544 0)
(0.964352 0.00329083 7.8558e-21)
(0.962389 0.00331358 -1.51008e-20)
(0.960564 0.00297674 7.22071e-21)
(0.958564 0.002139 0)
(0.958029 0.000995342 3.67571e-21)
(0.958478 -0.000515278 -7.28444e-23)
(0.95945 -0.00172858 -3.20581e-21)
(0.960563 -0.00432176 0)
(0.963046 -0.00562435 -4.07798e-22)
(0.966834 -0.00853078 3.71436e-22)
(0.970741 -0.0102479 1.49813e-21)
(0.978905 -0.012695 -1.04265e-21)
(0.989219 -0.0138408 0)
(1.002 -0.0151356 1.60247e-22)
(1.01592 -0.0132939 -3.11334e-23)
(1.03002 -0.0103552 -5e-22)
(1.04163 -0.00736887 3.42543e-22)
(1.04768 -0.00507474 -8.62519e-25)
(1.04725 -0.0031905 4.45644e-22)
(1.04403 -0.00148425 -3.98572e-22)
(1.03884 0.0031835 1.04526e-22)
(1.0303 0.00626837 -8.69376e-23)
(1.02203 0.00601692 1.30349e-22)
(1.01331 0.000620928 0)
(1.01077 -0.00877088 0)
(1.01219 -0.0300416 1.05922e-22)
(1.02615 -0.052571 -2.09346e-21)
(1.05021 -0.0902249 2.38975e-21)
(1.10237 -0.11549 0)
(1.16119 -0.141235 -2.23512e-21)
(1.24022 -0.126169 2.05342e-21)
(1.30718 -0.0970955 9.6302e-22)
(1.36427 -0.0286 -9.19022e-22)
(1.36369 0.0292679 6.18434e-21)
(1.33701 0.0862591 -6.91953e-21)
(1.26487 0.101777 0)
(1.21869 0.109659 0)
(1.15016 0.0929939 -6.41108e-22)
(0.967165 0.00245321 -5.23429e-23)
(0.965779 0.00237738 7.74625e-21)
(0.963526 0.00293631 -8.92463e-22)
(0.96157 0.00285324 -9.25728e-22)
(0.959669 0.00276336 -7.55747e-21)
(0.958001 0.00160497 1.14146e-20)
(0.95793 0.000386208 -3.82836e-21)
(0.958237 -0.00154657 3.7308e-21)
(0.95939 -0.00271324 -4.68291e-21)
(0.960639 -0.0054256 -3.88642e-21)
(0.96308 -0.00721019 7.0669e-21)
(0.967632 -0.0103441 -6.41041e-21)
(0.971993 -0.0118665 2.84085e-21)
(0.979293 -0.0152611 0)
(0.990222 -0.0169981 0)
(1.00408 -0.0183121 -2.11184e-22)
(1.01759 -0.016186 2.606e-22)
(1.03123 -0.0132307 -1.58437e-22)
(1.04227 -0.00910671 -3.26026e-22)
(1.05106 -0.0061876 3.15384e-22)
(1.05243 -0.00221079 -2.52714e-23)
(1.04925 0.000576517 -8.89262e-22)
(1.04224 0.00594123 7.836e-22)
(1.03078 0.00868119 1.40462e-21)
(1.02034 0.00864976 -1.40098e-21)
(1.00852 0.00308273 0)
(1.00441 -0.00598457 0)
(1.00057 -0.0278063 5.81846e-23)
(1.01393 -0.0524781 -2.04739e-21)
(1.03191 -0.0925128 2.03631e-21)
(1.07814 -0.121457 3.21446e-21)
(1.13298 -0.156369 -1.57721e-22)
(1.21638 -0.155256 -2.32695e-21)
(1.29042 -0.138093 4.86429e-22)
(1.36748 -0.0697906 -5.0202e-21)
(1.38548 -0.000587451 3.75212e-21)
(1.37339 0.0749112 1.05628e-21)
(1.29967 0.104472 -7.93629e-21)
(1.24895 0.121138 6.85808e-21)
(1.16643 0.105857 -1.47241e-22)
(0.966491 0.00323087 -7.07863e-21)
(0.965024 0.0030798 1.3522e-20)
(0.962954 0.00354741 1.42877e-22)
(0.960758 0.00348119 -1.52816e-20)
(0.958778 0.00323677 9.71404e-21)
(0.957412 0.00177123 0)
(0.957305 0.000240698 0)
(0.957833 -0.00207637 9.74343e-22)
(0.958909 -0.00348886 4.75901e-22)
(0.960323 -0.00672589 -2.60922e-21)
(0.963368 -0.0086546 3.54487e-21)
(0.967753 -0.0120939 -2.8688e-21)
(0.972834 -0.0141122 4.06643e-21)
(0.980119 -0.0183175 -9.31907e-22)
(0.991782 -0.0206986 5.02875e-22)
(1.0049 -0.0216927 -5.48005e-22)
(1.01796 -0.0198771 2.85307e-22)
(1.03253 -0.016064 2.7146e-22)
(1.04475 -0.0117977 -1.38816e-22)
(1.05496 -0.00666607 -3.21122e-22)
(1.05692 -0.00137916 0)
(1.05338 0.00182487 -8.39678e-22)
(1.04501 0.00771717 9.64355e-22)
(1.03214 0.0112733 0)
(1.02013 0.0122394 0)
(1.00459 0.00663711 6.65704e-22)
(0.997648 -0.00145068 -7.70889e-22)
(0.991794 -0.0227337 2.04606e-23)
(0.999965 -0.0442621 1.71603e-22)
(1.01016 -0.0883765 0)
(1.04883 -0.121127 -3.46514e-21)
(1.09645 -0.167973 3.06584e-21)
(1.18015 -0.175337 -6.65664e-22)
(1.26011 -0.174297 0)
(1.3573 -0.111623 0)
(1.40118 -0.0358739 8.19058e-21)
(1.41135 0.0574853 -8.44186e-21)
(1.34644 0.109955 -8.20957e-21)
(1.29357 0.141005 1.17028e-20)
(1.201 0.131101 8.25846e-22)
(0.965435 0.00288725 -7.36156e-21)
(0.963928 0.00259068 8.37242e-21)
(0.962054 0.00313237 0)
(0.959603 0.00280612 1.98585e-21)
(0.958108 0.00258584 -2.02321e-21)
(0.956749 0.00084357 5.08105e-21)
(0.956925 -0.00064112 -5.11462e-21)
(0.957522 -0.00340278 1.29373e-24)
(0.958668 -0.0049765 -3.81642e-21)
(0.960648 -0.00838123 6.51781e-21)
(0.963744 -0.0106062 -2.76287e-21)
(0.967832 -0.0146173 3.30526e-21)
(0.974469 -0.0166049 -1.73858e-21)
(0.982113 -0.0215081 -1.46047e-21)
(0.991506 -0.0244785 0)
(1.0049 -0.025482 0)
(1.01974 -0.0231628 0)
(1.0351 -0.0192371 4.71162e-22)
(1.04705 -0.0138947 -3.2283e-22)
(1.05585 -0.00867408 0)
(1.06037 -0.0022486 -5.05774e-22)
(1.05818 0.0034161 -5.40649e-22)
(1.05107 0.0108396 -8.86983e-23)
(1.03653 0.0150236 1.00272e-21)
(1.02209 0.0170459 0)
(1.00206 0.0113488 -9.80389e-22)
(0.990999 0.00384446 5.72902e-22)
(0.978164 -0.0177143 2.92559e-22)
(0.982759 -0.040323 -3.3424e-23)
(0.98573 -0.0848094 0)
(1.01948 -0.119528 -3.26831e-21)
(1.05435 -0.173511 3.24517e-21)
(1.13823 -0.19558 1.47724e-21)
(1.21488 -0.214569 -1.9757e-22)
(1.3303 -0.167889 -2.29826e-21)
(1.39965 -0.0925206 2.93807e-21)
(1.44699 0.0206341 0)
(1.39381 0.0978593 -1.26352e-20)
(1.34442 0.150504 1.1395e-20)
(1.23446 0.150147 1.31449e-21)
(0.964537 0.00366473 0)
(0.963008 0.00330995 7.88668e-21)
(0.961165 0.00372336 1.37299e-22)
(0.958775 0.00328671 -1.02577e-20)
(0.957219 0.00286084 8.37678e-21)
(0.956258 0.000861718 -8.45615e-21)
(0.95614 -0.000901776 1.05121e-21)
(0.956796 -0.00426414 3.03885e-21)
(0.958541 -0.00593145 -5.11444e-21)
(0.960179 -0.0100833 4.67198e-21)
(0.963794 -0.0123855 -7.13364e-21)
(0.968656 -0.0168754 3.01025e-21)
(0.974918 -0.0195261 1.19845e-21)
(0.983298 -0.0247689 -1.20441e-21)
(0.992406 -0.028326 -6.01873e-22)
(1.00567 -0.0291924 4.20684e-22)
(1.02154 -0.0272305 2.89305e-22)
(1.03606 -0.0228585 -2.14326e-22)
(1.0486 -0.0167321 -7.95202e-23)
(1.05829 -0.01002 2.85536e-23)
(1.06385 -0.0019044 -5.51691e-22)
(1.06303 0.00461758 4.11396e-22)
(1.05613 0.0136445 -8.60482e-24)
(1.04072 0.0186786 2.22843e-21)
(1.0256 0.0226328 -1.94772e-21)
(1.00278 0.016871 5.01262e-22)
(0.987506 0.0106353 2.0726e-22)
(0.970996 -0.0109532 -9.46345e-24)
(0.970892 -0.0300904 -1.73558e-21)
(0.964706 -0.0738899 -1.0613e-21)
(0.990301 -0.111274 2.62592e-21)
(1.0136 -0.173807 3.54852e-21)
(1.09297 -0.206255 -4.33696e-21)
(1.16389 -0.242479 -1.29474e-21)
(1.28836 -0.222871 1.7123e-21)
(1.37648 -0.158024 0)
(1.46576 -0.0372999 0)
(1.44366 0.0703236 -1.48173e-20)
(1.40529 0.15459 1.14419e-20)
(1.28567 0.174429 -3.03498e-21)
(0.963429 0.00310242 -3.68328e-23)
(0.961897 0.00259798 7.0649e-21)
(0.960119 0.00290418 1.05406e-21)
(0.957853 0.00247146 1.06842e-21)
(0.956267 0.00180105 1.08901e-20)
(0.955754 -0.000290044 -5.52972e-21)
(0.955573 -0.00224808 -5.4928e-21)
(0.95627 -0.00607066 0)
(0.958509 -0.00791086 1.04108e-21)
(0.960096 -0.0126045 2.82188e-21)
(0.964149 -0.0150239 -4.7666e-21)
(0.969877 -0.0198927 -3.01555e-21)
(0.975222 -0.0229251 3.37463e-21)
(0.984741 -0.0283773 0)
(0.99435 -0.0319901 5.69009e-22)
(1.00667 -0.0335198 -4.05445e-22)
(1.02198 -0.0314179 3.15209e-22)
(1.03737 -0.0260846 1.62247e-22)
(1.05107 -0.0191284 -1.01871e-21)
(1.06142 -0.0115931 3.96424e-22)
(1.06634 -0.00279445 3.71833e-23)
(1.06483 0.00534914 0)
(1.06024 0.0159102 1.53505e-22)
(1.04697 0.0225479 -2.84551e-22)
(1.03136 0.028411 2.64029e-22)
(1.00701 0.0236616 -1.6039e-21)
(0.989264 0.0191293 1.66031e-21)
(0.965189 -0.00193704 -6.33155e-22)
(0.960224 -0.0215156 0)
(0.943916 -0.0645791 0)
(0.965243 -0.102488 -3.38612e-21)
(0.974734 -0.167428 3.35769e-21)
(1.05034 -0.211872 0)
(1.11195 -0.263522 -1.55423e-21)
(1.24755 -0.274455 2.59009e-22)
(1.33369 -0.234563 5.81111e-21)
(1.46563 -0.122846 -5.77849e-21)
(1.48159 0.0136693 -1.34003e-20)
(1.46984 0.138232 1.4875e-20)
(1.34374 0.191492 -4.06971e-22)
(0.962335 0.00376096 -8.34455e-21)
(0.960766 0.00319754 8.43443e-21)
(0.959095 0.00337767 -1.08677e-21)
(0.957031 0.00270491 0)
(0.955565 0.0018584 -1.01842e-20)
(0.954555 -0.000730846 1.36773e-20)
(0.955424 -0.00282282 -3.43893e-21)
(0.95547 -0.00726414 0)
(0.957469 -0.009358 9.44731e-21)
(0.96064 -0.0144743 -5.0193e-21)
(0.963669 -0.0175731 -3.9619e-21)
(0.970265 -0.022755 -3.07099e-21)
(0.976427 -0.0261244 3.9493e-21)
(0.985477 -0.0323369 -9.6615e-22)
(0.995258 -0.0364343 5.01826e-22)
(1.00767 -0.0376647 -3.68202e-22)
(1.02264 -0.0352618 3.72369e-22)
(1.03894 -0.0296701 2.86521e-22)
(1.05268 -0.0224521 -3.02125e-22)
(1.06381 -0.0139299 -4.36687e-22)
(1.06954 -0.00293706 -7.93823e-23)
(1.0687 0.00592823 -1.38812e-21)
(1.06402 0.0184696 1.56607e-21)
(1.05151 0.0257282 2.46051e-21)
(1.03683 0.0347222 -2.72594e-21)
(1.01168 0.0307069 1.49698e-21)
(0.991431 0.0283869 -1.16262e-21)
(0.962882 0.00790936 0)
(0.954191 -0.00982644 -9.37153e-22)
(0.931529 -0.0471206 -1.11878e-21)
(0.944862 -0.0861099 -1.74183e-21)
(0.942335 -0.15348 3.26076e-21)
(1.00727 -0.210935 0)
(1.05883 -0.270919 -2.2659e-21)
(1.19826 -0.312105 2.62136e-21)
(1.28538 -0.298072 6.68664e-23)
(1.44819 -0.226966 7.77921e-22)
(1.49692 -0.0763494 0)
(1.53868 0.0896699 0)
(1.4107 0.198341 4.86525e-21)
(0.961202 0.00295782 -8.71852e-21)
(0.959558 0.00225003 8.81843e-21)
(0.958064 0.00228957 0)
(0.956282 0.0016339 0)
(0.954605 0.000537867 0)
(0.953994 -0.00241372 0)
(0.95473 -0.00469366 0)
(0.955338 -0.0096162 0)
(0.957235 -0.0120685 -6.56976e-21)
(0.960103 -0.0177347 7.55389e-21)
(0.963825 -0.0209117 3.66657e-21)
(0.971176 -0.0262346 -9.90806e-22)
(0.977639 -0.0302593 -1.93241e-21)
(0.98746 -0.0367411 -1.48773e-21)
(0.99618 -0.0404613 -4.51038e-22)
(1.00911 -0.0417015 5.74656e-22)
(1.02454 -0.0397485 1.75227e-22)
(1.04112 -0.0341304 3.83724e-22)
(1.05487 -0.0256348 -2.30493e-24)
(1.06692 -0.0158241 -5.21375e-22)
(1.07489 -0.00361746 -2.65654e-24)
(1.07405 0.00685159 -1.7282e-21)
(1.06803 0.020067 3.24997e-21)
(1.05556 0.0290106 -1.12251e-21)
(1.04095 0.0398671 0)
(1.01463 0.0381952 -5.57222e-22)
(0.995108 0.0377282 -3.38962e-22)
(0.962426 0.0209669 0)
(0.950629 0.00326915 -4.86838e-22)
(0.92023 -0.0323614 3.09745e-22)
(0.92828 -0.0709849 6.81053e-22)
(0.915667 -0.133068 0)
(0.962463 -0.200602 0)
(1.00259 -0.270756 -3.88795e-21)
(1.12763 -0.342002 3.84938e-21)
(1.21877 -0.349345 3.53392e-22)
(1.41196 -0.337198 -3.46208e-22)
(1.47989 -0.193836 -1.63625e-20)
(1.60001 -0.011838 1.78408e-20)
(1.48637 0.180203 -2.73795e-21)
(0.959906 0.0034952 0)
(0.958162 0.00267272 0)
(0.956908 0.00251861 0)
(0.954937 0.00145404 0)
(0.953965 0.000121668 0)
(0.952777 -0.00322405 6.16057e-21)
(0.953156 -0.00583098 -4.96785e-21)
(0.955336 -0.0109387 -4.70306e-21)
(0.95654 -0.0142545 1.04182e-20)
(0.959842 -0.0203995 -2.53982e-21)
(0.96331 -0.0239051 -4.74092e-21)
(0.970964 -0.0302363 8.83469e-22)
(0.978905 -0.0344828 3.54086e-22)
(0.98916 -0.0405694 -2.46574e-22)
(0.997675 -0.0448754 2.34584e-22)
(1.01073 -0.0466782 -2.22983e-22)
(1.02511 -0.0445523 5.15884e-22)
(1.04272 -0.0379464 -5.17267e-22)
(1.05814 -0.028692 3.28103e-22)
(1.07102 -0.0186713 -6.23933e-22)
(1.07884 -0.0046896 -3.05955e-24)
(1.07908 0.00716713 2.03603e-22)
(1.0744 0.023133 -4.14504e-22)
(1.05958 0.0320583 3.15438e-21)
(1.04599 0.0458129 -3.11251e-21)
(1.01904 0.0459897 1.22648e-21)
(0.998626 0.0476631 -1.46961e-21)
(0.962625 0.0332813 1.46101e-21)
(0.948863 0.0159218 -1.3856e-22)
(0.914831 -0.0126409 0)
(0.913398 -0.0499823 -2.7224e-21)
(0.898116 -0.103604 6.46801e-21)
(0.915966 -0.180189 -3.73389e-21)
(0.951725 -0.249841 0)
(1.03021 -0.355312 0)
(1.12844 -0.381707 -1.83563e-21)
(1.31517 -0.435491 8.59095e-22)
(1.41984 -0.323211 1.76631e-20)
(1.62219 -0.174004 -1.77555e-20)
(1.56766 0.115436 -3.60437e-21)
(0.958754 0.00243676 0)
(0.957049 0.00138694 0)
(0.955603 0.0010803 1.00687e-20)
(0.954147 -0.000248037 -1.14863e-20)
(0.953242 -0.00173589 1.03071e-20)
(0.952138 -0.00551797 -1.30289e-20)
(0.952658 -0.0083778 -6.35485e-21)
(0.954534 -0.0142127 -1.05857e-21)
(0.956292 -0.0176243 6.17871e-21)
(0.96017 -0.0241157 0)
(0.963303 -0.0283017 1.04391e-21)
(0.971526 -0.0347286 -4.16024e-21)
(0.979198 -0.0391526 2.91144e-21)
(0.990265 -0.0459388 2.5625e-22)
(1.00139 -0.0494925 1.04731e-22)
(1.01384 -0.0509836 1.3669e-23)
(1.02773 -0.049329 4.91452e-22)
(1.04518 -0.0428996 3.59139e-22)
(1.06214 -0.0333696 -1.78457e-22)
(1.07493 -0.0218183 -6.53736e-22)
(1.085 -0.00597763 5.18405e-23)
(1.08534 0.00754019 -1.88691e-21)
(1.08273 0.0249827 1.88333e-21)
(1.06661 0.0360531 -4.44789e-22)
(1.05385 0.0503545 0)
(1.02487 0.0540617 -6.7374e-22)
(1.00484 0.0566659 1.84459e-21)
(0.966451 0.0473242 -4.05938e-21)
(0.949451 0.0321414 1.65834e-21)
(0.914152 0.00687563 -1.44908e-22)
(0.897331 -0.0316437 3.03276e-21)
(0.888637 -0.0739727 -5.63649e-21)
(0.870172 -0.149488 4.28006e-21)
(0.914991 -0.217768 0)
(0.927358 -0.340502 0)
(1.0337 -0.392319 0)
(1.13651 -0.502516 3.81237e-22)
(1.3383 -0.446992 -1.71466e-20)
(1.55092 -0.383653 1.54143e-20)
(1.62473 -0.0221868 7.369e-21)
(0.957148 0.00278719 -1.00832e-20)
(0.955267 0.00136438 1.02163e-20)
(0.954026 0.000818684 0)
(0.952525 -0.000810261 1.33657e-21)
(0.951298 -0.00264393 0)
(0.951513 -0.00665096 2.72915e-21)
(0.951009 -0.0102752 -1.06309e-20)
(0.953293 -0.0165095 8.23054e-21)
(0.955297 -0.0201795 -2.22515e-21)
(0.959535 -0.0277525 3.74294e-21)
(0.963799 -0.0319257 -1.88241e-24)
(0.971339 -0.0395637 4.24821e-21)
(0.980464 -0.0442116 -3.34315e-21)
(0.990752 -0.0509068 -2.32947e-22)
(1.0023 -0.0548352 -1.09014e-22)
(1.01634 -0.0557264 1.59485e-23)
(1.03216 -0.0540425 1.2038e-22)
(1.04821 -0.0477622 1.10275e-21)
(1.06509 -0.0372566 -1.83901e-21)
(1.07679 -0.0249674 7.34882e-22)
(1.08934 -0.00743742 1.05766e-21)
(1.08984 0.00731957 -3.09895e-21)
(1.08978 0.0272132 -5.53671e-24)
(1.07404 0.0396739 2.09921e-21)
(1.0624 0.0554449 -4.99641e-22)
(1.03293 0.0622831 -3.85944e-21)
(1.01284 0.0670283 2.96856e-21)
(0.974271 0.061845 5.25679e-22)
(0.949242 0.0458518 3.36369e-22)
(0.920915 0.0292023 3.51573e-23)
(0.884085 -0.00901866 -1.04632e-22)
(0.88268 -0.0434578 0)
(0.838541 -0.111618 -9.21278e-22)
(0.883389 -0.174496 0)
(0.84689 -0.293027 1.12617e-21)
(0.932373 -0.365849 0)
(0.989874 -0.525893 -9.3493e-22)
(1.27011 -0.533975 -1.09575e-20)
(1.36677 -0.579386 -1.15551e-20)
(1.59594 -0.237638 2.29265e-20)
(0.955595 0.00113445 9.31137e-21)
(0.954133 -0.000546802 0)
(0.952603 -0.00129405 1.40475e-21)
(0.951586 -0.00317947 -1.27917e-20)
(0.950166 -0.00533849 1.14908e-20)
(0.95055 -0.00983749 -2.87592e-21)
(0.950737 -0.0135667 1.25706e-20)
(0.953159 -0.0204554 -1.40594e-20)
(0.954823 -0.0246956 1.32146e-21)
(0.95895 -0.0329516 1.24042e-21)
(0.964453 -0.0368434 -5.62245e-22)
(0.971467 -0.0457712 -4.80925e-22)
(0.982632 -0.0496577 1.20093e-21)
(0.99312 -0.0568151 -9.66736e-22)
(1.00516 -0.0608504 0)
(1.01979 -0.0612724 1.86225e-23)
(1.0364 -0.0601211 1.69671e-22)
(1.05189 -0.0529322 0)
(1.07237 -0.0413615 8.28447e-22)
(1.0826 -0.028678 -8.29301e-22)
(1.09485 -0.0104453 -6.436e-23)
(1.09514 0.00626554 0)
(1.09738 0.0272776 0)
(1.08192 0.0433699 0)
(1.07156 0.059589 1.09121e-21)
(1.04247 0.0698846 9.11934e-22)
(1.02146 0.0756962 -2.79416e-21)
(0.988013 0.0776276 2.22638e-21)
(0.951229 0.0614568 -8.11642e-22)
(0.928897 0.0498556 2.51248e-22)
(0.881361 0.0190921 -6.52005e-22)
(0.876217 -0.0169429 3.14387e-21)
(0.825132 -0.0724688 -2.11172e-21)
(0.850175 -0.13418 4.26112e-21)
(0.794941 -0.22926 -1.46158e-20)
(0.834911 -0.308808 9.13644e-21)
(0.920677 -0.515484 6.18679e-22)
(1.14012 -0.559752 -5.3211e-21)
(1.19266 -0.705573 -1.42083e-20)
(1.4864 -0.494645 1.65185e-20)
(0.953227 0.00102575 1.38729e-21)
(0.952206 -0.00100072 -1.4494e-21)
(0.949891 -0.00200272 3.11931e-23)
(0.94966 -0.00431322 1.48985e-21)
(0.947995 -0.00691323 0)
(0.948771 -0.0118381 -2.96065e-21)
(0.949301 -0.0158338 6.08458e-21)
(0.950822 -0.0241089 7.12397e-21)
(0.955025 -0.0279514 -5.7407e-21)
(0.957646 -0.0374836 1.30103e-21)
(0.964377 -0.0418274 0)
(0.971423 -0.0509765 -2.93896e-21)
(0.982329 -0.056128 4.98771e-21)
(0.994925 -0.0623983 -9.78718e-22)
(1.00825 -0.066932 -2.64763e-23)
(1.02233 -0.0667198 -1.13527e-21)
(1.04184 -0.0651714 8.95304e-22)
(1.05574 -0.0581714 0)
(1.0763 -0.0460747 0)
(1.0877 -0.0317357 0)
(1.10122 -0.0121864 7.74925e-23)
(1.1005 0.00645635 0)
(1.10379 0.0280246 -2.66805e-21)
(1.08817 0.0466724 7.80663e-21)
(1.07854 0.0635012 -5.72058e-21)
(1.05278 0.0791927 -1.17587e-21)
(1.02603 0.0821039 0)
(1.00148 0.0930313 0)
(0.959827 0.080713 -1.25017e-22)
(0.936761 0.0680605 -2.02125e-21)
(0.88587 0.0460739 1.21354e-21)
(0.873978 0.0134918 -8.4076e-23)
(0.818928 -0.0259451 -3.68462e-22)
(0.827651 -0.088857 -4.25683e-21)
(0.761469 -0.164176 3.56082e-21)
(0.763269 -0.24017 9.79526e-22)
(0.849663 -0.440829 0)
(0.939788 -0.558262 -5.54894e-22)
(1.10008 -0.72336 -1.05215e-20)
(1.26049 -0.68956 9.57628e-21)
(0.951083 -0.00145044 -1.34991e-20)
(0.950789 -0.00373973 1.50412e-21)
(0.948386 -0.00488882 -1.54517e-21)
(0.948214 -0.00764531 1.61651e-21)
(0.947017 -0.0106261 -1.63469e-21)
(0.947486 -0.0165293 1.1134e-20)
(0.94914 -0.020512 -1.2891e-20)
(0.94973 -0.0295361 0)
(0.954897 -0.0337327 1.47818e-21)
(0.95725 -0.0441296 3.75837e-21)
(0.965397 -0.0481119 -5.17286e-21)
(0.973333 -0.0582271 -3.96042e-21)
(0.983846 -0.0639813 4.24478e-21)
(0.996812 -0.0691677 -1.17523e-21)
(1.01261 -0.0748372 4.23446e-23)
(1.02569 -0.0738824 0)
(1.04813 -0.0717081 1.4186e-21)
(1.0628 -0.0640556 1.16099e-22)
(1.0836 -0.0520409 -1.6736e-21)
(1.09428 -0.0356474 0)
(1.10956 -0.0159536 -8.11982e-23)
(1.10887 0.00495571 -2.97979e-21)
(1.11287 0.0266735 3.75864e-21)
(1.10107 0.050438 -7.80126e-22)
(1.08679 0.0640862 0)
(1.0684 0.0872383 2.59574e-21)
(1.03565 0.0910194 0)
(1.01321 0.101991 0)
(0.96975 0.098867 1.41264e-21)
(0.947235 0.0884721 0)
(0.895804 0.0737077 3.79532e-22)
(0.878566 0.0410963 2.81639e-22)
(0.820641 0.0159925 1.98221e-22)
(0.816281 -0.0382546 6.78504e-22)
(0.749207 -0.0973192 -6.88769e-21)
(0.723535 -0.171068 5.77732e-21)
(0.757607 -0.32256 0)
(0.824187 -0.511537 6.67679e-22)