/*--------------------------------*- C++ -*----------------------------------*\
  =========                 |
  \\      /  F ield         | OpenFOAM: The Open Source CFD Toolbox
   \\    /   O peration     | Website:  https://openfoam.org
    \\  /    A nd           | Version:  10
     \\/     M anipulation  |
\*---------------------------------------------------------------------------*/
FoamFile
{
    format      ascii;
    class       volScalarField;
    location    "0.448024";
    object      p;
}
// * * * * * * * * * * * * * * * * * * * * * * * * * * * * * * * * * * * * * //

dimensions      [1 -1 -2 0 0 0 0];

internalField   nonuniform List<scalar> 
15708
(
2.3958
2.40559
2.41605
2.42709
2.43868
2.45079
2.46334
2.47621
2.48929
2.50243
2.51544
2.52817
2.54043
2.55208
2.56296
2.57295
2.58197
2.58993
2.59681
2.60258
2.60724
2.61084
2.6134
2.615
2.61568
2.61556
2.61473
2.61318
2.61108
2.60852
2.60557
2.60231
2.59882
2.59516
2.59139
2.58758
2.58376
2.57998
2.57626
2.57264
2.56912
2.56572
2.56246
2.55932
2.55632
2.55344
2.55069
2.54806
2.54554
2.54313
2.54083
2.39391
2.40405
2.41493
2.42645
2.43855
2.45118
2.46423
2.47757
2.49106
2.50453
2.5178
2.5307
2.54307
2.55474
2.56561
2.57555
2.58449
2.59238
2.59919
2.60491
2.60955
2.61316
2.61577
2.61745
2.61825
2.61825
2.6176
2.61625
2.61434
2.61198
2.60922
2.60615
2.60283
2.59932
2.59568
2.59197
2.58822
2.58448
2.58077
2.57713
2.57356
2.57009
2.56673
2.56348
2.56035
2.55734
2.55444
2.55167
2.549
2.54645
2.54402
2.3929
2.40347
2.41485
2.42692
2.4396
2.45281
2.46641
2.48025
2.49416
2.50797
2.52148
2.53453
2.54696
2.55862
2.56941
2.57924
2.58805
2.5958
2.60247
2.60808
2.61264
2.61619
2.61879
2.62048
2.62134
2.62142
2.62088
2.61966
2.61789
2.61568
2.61307
2.61014
2.60694
2.60354
2.6
2.59635
2.59264
2.58891
2.58518
2.5815
2.57787
2.57432
2.57086
2.56749
2.56424
2.5611
2.55807
2.55516
2.55236
2.54969
2.54713
2.39282
2.40387
2.41583
2.42852
2.44184
2.45568
2.46987
2.48423
2.49858
2.51272
2.52646
2.53963
2.55208
2.56369
2.57435
2.58401
2.59262
2.60017
2.60664
2.61206
2.61647
2.6199
2.6224
2.62405
2.62489
2.62498
2.62449
2.62333
2.62165
2.61953
2.61701
2.61416
2.61105
2.60772
2.60422
2.6006
2.59691
2.59316
2.58941
2.58567
2.58198
2.57834
2.57478
2.57131
2.56795
2.56469
2.56155
2.55852
2.55562
2.55283
2.55018
2.39369
2.4053
2.4179
2.43127
2.44528
2.45978
2.47459
2.4895
2.50429
2.51876
2.5327
2.54596
2.55839
2.56989
2.58037
2.58981
2.59816
2.60543
2.61164
2.61681
2.62098
2.62421
2.62656
2.62807
2.62882
2.62886
2.62834
2.62717
2.62551
2.62341
2.62093
2.61812
2.61504
2.61173
2.60825
2.60464
2.60093
2.59716
2.59337
2.58958
2.58582
2.5821
2.57846
2.57491
2.57145
2.5681
2.56487
2.56175
2.55876
2.5559
2.55316
2.39553
2.40776
2.42105
2.43515
2.4499
2.46511
2.48056
2.49602
2.51124
2.52601
2.54013
2.55344
2.56581
2.57712
2.58739
2.59656
2.6046
2.61153
2.6174
2.62224
2.62611
2.62907
2.63117
2.63248
2.63304
2.63296
2.63232
2.63108
2.62937
2.62723
2.62471
2.62189
2.6188
2.61548
2.61199
2.60835
2.60462
2.60082
2.59698
2.59314
2.58933
2.58556
2.58186
2.57824
2.57472
2.57131
2.56802
2.56485
2.5618
2.55889
2.5561
2.39842
2.41131
2.42534
2.44019
2.4557
2.47163
2.48772
2.50371
2.51934
2.53439
2.54864
2.56194
2.57425
2.58527
2.59529
2.60417
2.61181
2.61837
2.62383
2.62827
2.63176
2.63437
2.63615
2.63716
2.63746
2.63719
2.63634
2.63495
2.6331
2.63086
2.62828
2.62538
2.62223
2.61886
2.61533
2.61165
2.60788
2.60405
2.60018
2.59631
2.59246
2.58866
2.58493
2.58128
2.57774
2.57431
2.571
2.56781
2.56474
2.5618
2.55899
2.40241
2.41593
2.43075
2.44635
2.46262
2.47925
2.49596
2.51247
2.52848
2.54377
2.55812
2.57134
2.58352
2.59434
2.60403
2.61246
2.6197
2.62577
2.63078
2.63477
2.63782
2.64
2.64137
2.64202
2.64199
2.64143
2.64029
2.63867
2.63662
2.63421
2.63148
2.62846
2.62521
2.62177
2.61817
2.61445
2.61065
2.60679
2.6029
2.59902
2.59517
2.59137
2.58765
2.58402
2.5805
2.57709
2.5738
2.57063
2.56759
2.56466
2.56186
2.40741
2.42169
2.43719
2.45356
2.47055
2.48787
2.50518
2.52216
2.53851
2.55399
2.56839
2.58157
2.59349
2.60406
2.61333
2.62132
2.62807
2.63365
2.63813
2.64161
2.64415
2.64584
2.64675
2.64694
2.64654
2.64557
2.64408
2.64215
2.63984
2.63719
2.63425
2.63107
2.62769
2.62414
2.62046
2.61669
2.61285
2.60897
2.60509
2.60123
2.59741
2.59366
2.59
2.58643
2.58298
2.57964
2.57643
2.57333
2.57034
2.56747
2.56471
2.4135
2.42845
2.44466
2.46176
2.47939
2.49738
2.51523
2.53262
2.54925
2.56486
2.57926
2.59231
2.60397
2.61421
2.62309
2.63058
2.63682
2.64185
2.64577
2.64868
2.65067
2.6518
2.65216
2.65187
2.65098
2.64953
2.64763
2.64532
2.64267
2.63973
2.63654
2.63314
2.62959
2.62591
2.62213
2.6183
2.61443
2.61056
2.60671
2.60291
2.59916
2.59551
2.59195
2.58851
2.58518
2.58197
2.57888
2.5759
2.57303
2.57025
2.56756
2.42063
2.43621
2.45308
2.47083
2.48911
2.5076
2.52591
2.54364
2.56049
2.57618
2.59052
2.60336
2.61475
2.6246
2.63311
2.64006
2.64578
2.65021
2.65355
2.65586
2.65724
2.65777
2.65755
2.65668
2.65521
2.65325
2.65086
2.64811
2.64506
2.64176
2.63826
2.63461
2.63085
2.62701
2.62313
2.61924
2.61535
2.61151
2.60773
2.60402
2.6004
2.5969
2.59351
2.59025
2.58711
2.58409
2.58118
2.57838
2.57566
2.57302
2.57043
2.42877
2.4449
2.46231
2.48063
2.49944
2.51838
2.53704
2.55502
2.572
2.5877
2.60194
2.6146
2.62566
2.63513
2.64311
2.64959
2.65472
2.6586
2.66133
2.66301
2.66375
2.66365
2.66282
2.66127
2.65922
2.65667
2.65373
2.65047
2.64695
2.64324
2.63939
2.63544
2.63144
2.62743
2.62343
2.61948
2.61559
2.6118
2.60812
2.60455
2.60111
2.59781
2.59466
2.59164
2.58876
2.586
2.58334
2.58077
2.57826
2.57579
2.57335
2.43781
2.4544
2.47222
2.49101
2.51021
2.52947
2.54837
2.56651
2.58353
2.59918
2.61327
2.6257
2.63644
2.64552
2.65301
2.65899
2.66357
2.66686
2.66898
2.67004
2.67013
2.66941
2.66783
2.66566
2.66293
2.65975
2.6562
2.65237
2.64833
2.64415
2.6399
2.63562
2.63135
2.62712
2.623
2.61899
2.61512
2.6114
2.60785
2.60448
2.60128
2.59825
2.5954
2.59271
2.59016
2.58772
2.58538
2.58309
2.58085
2.57861
2.57635
2.44778
2.4646
2.48274
2.50173
2.52116
2.54062
2.55964
2.57784
2.59483
2.61037
2.62427
2.63644
2.64686
2.65556
2.6626
2.6681
2.67216
2.6749
2.67641
2.67686
2.67636
2.67489
2.67264
2.66975
2.66633
2.66247
2.65826
2.65381
2.64919
2.64448
2.63978
2.63511
2.63053
2.62609
2.62183
2.61776
2.61392
2.61031
2.60693
2.6038
2.6009
2.59821
2.59574
2.59345
2.5913
2.58927
2.58732
2.5854
2.58347
2.58151
2.57947
2.45837
2.47534
2.49354
2.51261
2.53207
2.55156
2.57059
2.58874
2.60564
2.62102
2.63471
2.64662
2.65673
2.66508
2.67173
2.67679
2.68038
2.6826
2.68359
2.68344
2.68231
2.68012
2.67717
2.67357
2.66942
2.66484
2.65992
2.65479
2.64954
2.64426
2.63903
2.63392
2.62901
2.62433
2.6199
2.61578
2.61197
2.60849
2.60533
2.60249
2.59995
2.59769
2.59568
2.59387
2.59222
2.59068
2.58919
2.5877
2.58617
2.58453
2.58275
2.46955
2.48638
2.50441
2.5234
2.54264
2.56208
2.5809
2.599
2.61564
2.63089
2.64431
2.656
2.66587
2.67392
2.68025
2.68494
2.68811
2.68988
2.69036
2.68972
2.68793
2.6851
2.68145
2.67712
2.67223
2.66689
2.66122
2.65535
2.6494
2.64348
2.63768
2.63209
2.62678
2.6218
2.61721
2.61302
2.60925
2.60592
2.60302
2.60053
2.59843
2.59667
2.59522
2.59398
2.59293
2.59197
2.59104
2.59006
2.58898
2.58773
2.58625
2.48109
2.49758
2.51526
2.5338
2.55279
2.57175
2.5905
2.60832
2.62452
2.63973
2.65278
2.66439
2.67409
2.68193
2.68801
2.69243
2.6953
2.6967
2.69675
2.69567
2.69328
2.68981
2.6855
2.68045
2.67479
2.66865
2.66218
2.65553
2.64882
2.64219
2.63575
2.62961
2.62385
2.61854
2.61372
2.60945
2.60574
2.60259
2.59998
2.5979
2.59632
2.59516
2.59435
2.59381
2.59345
2.59317
2.59289
2.59252
2.59196
2.59115
2.59003
2.49281
2.5087
2.52568
2.54366
2.56208
2.58059
2.59879
2.6162
2.63237
2.64718
2.66026
2.67164
2.6812
2.68893
2.6949
2.69918
2.70186
2.70301
2.70278
2.70129
2.69835
2.69432
2.68936
2.6836
2.67716
2.6702
2.66288
2.65538
2.64784
2.64043
2.63327
2.6265
2.62022
2.61451
2.60944
2.60506
2.60139
2.59843
2.59616
2.59457
2.59358
2.59312
2.59308
2.59334
2.59381
2.59433
2.5948
2.59511
2.59515
2.59486
2.59414
2.50471
2.51948
2.53561
2.55258
2.57024
2.58809
2.60573
2.62271
2.63862
2.6532
2.66621
2.67754
2.68709
2.69486
2.70085
2.70514
2.70777
2.70881
2.70841
2.70661
2.70324
2.69868
2.6931
2.68664
2.67941
2.6716
2.66339
2.65497
2.64653
2.63824
2.63027
2.62278
2.61588
2.6097
2.60432
2.59979
2.59615
2.59339
2.59151
2.59046
2.59017
2.59051
2.59138
2.59261
2.59402
2.59548
2.59682
2.59792
2.59865
2.5989
2.59863
2.51634
2.52984
2.54468
2.56041
2.57707
2.594
2.61096
2.62747
2.64305
2.65753
2.67051
2.68192
2.69163
2.69959
2.70579
2.71027
2.71303
2.71412
2.71366
2.71168
2.70799
2.70297
2.69681
2.68965
2.68163
2.67293
2.66377
2.65437
2.64493
2.63567
2.62678
2.61845
2.61083
2.60408
2.59829
2.59355
2.58991
2.58737
2.58592
2.5855
2.58597
2.58729
2.58924
2.59158
2.5941
2.59664
2.59899
2.60099
2.6025
2.60338
2.60354
2.52756
2.53961
2.55281
2.56693
2.58224
2.59805
2.61417
2.63024
2.64554
2.65991
2.67296
2.68457
2.69461
2.70299
2.70963
2.71452
2.71763
2.71895
2.71858
2.71656
2.71268
2.70728
2.70057
2.69273
2.68391
2.67429
2.66412
2.65364
2.64311
2.63275
2.62281
2.6135
2.60503
2.59757
2.59127
2.58624
2.58256
2.58024
2.57926
2.57952
2.58091
2.5834
2.58659
2.59022
2.59406
2.59785
2.60135
2.60438
2.60675
2.60834
2.60903
2.53835
2.54834
2.55945
2.57201
2.58541
2.60009
2.61521
2.63065
2.64561
2.66004
2.67333
2.68534
2.69594
2.70498
2.71232
2.71787
2.72157
2.72335
2.72323
2.72135
2.71738
2.71168
2.70448
2.69597
2.68634
2.67575
2.6645
2.65286
2.64111
2.62952
2.61836
2.60791
2.59841
2.59009
2.58312
2.57769
2.5739
2.57179
2.57133
2.5723
2.57487
2.57867
2.58332
2.5885
2.59387
2.59911
2.60393
2.60812
2.61147
2.61383
2.61508
2.54823
2.55568
2.56452
2.5749
2.58668
2.59948
2.61376
2.62822
2.64308
2.65758
2.67121
2.68393
2.69542
2.70544
2.71377
2.72028
2.72483
2.72733
2.72769
2.72607
2.72221
2.71628
2.70862
2.69946
2.68899
2.6774
2.66498
2.65206
2.63896
2.62597
2.61343
2.60162
2.59089
2.5815
2.57369
2.56769
2.5637
2.56178
2.56187
2.56369
2.5676
2.57293
2.57928
2.5863
2.59348
2.6004
2.60672
2.61221
2.61665
2.61986
2.62171
2.55682
2.56154
2.56758
2.57556
2.58492
2.59617
2.60915
2.62296
2.63762
2.65212
2.66629
2.68007
2.69287
2.70419
2.71384
2.72167
2.72742
2.73091
2.73203
2.73081
2.72716
2.7211
2.71305
2.70325
2.69191
2.67925
2.66557
2.65125
2.63668
2.6221
2.608
2.59456
2.58241
2.57175
2.56284
2.5561
2.55179
2.55002
2.55067
2.55356
2.55883
2.56598
2.57439
2.58358
2.59286
2.60166
2.60965
2.61659
2.62224
2.62637
2.62885
2.56394
2.56536
2.56844
2.57364
2.58051
2.58958
2.60092
2.61431
2.62813
2.64295
2.65813
2.67373
2.6882
2.70114
2.7125
2.72194
2.72923
2.73404
2.73617
2.73554
2.73229
2.72618
2.71776
2.70733
2.6951
2.68128
2.66627
2.65042
2.63422
2.61789
2.60205
2.58687
2.57289
2.56094
2.55082
2.54316
2.53831
2.53625
2.53757
2.54156
2.54841
2.5573
2.56842
2.58044
2.59209
2.60286
2.61261
2.62111
2.62804
2.63315
2.63627
2.56903
2.56679
2.56683
2.56959
2.57363
2.58029
2.59012
2.60208
2.61633
2.63017
2.64614
2.66475
2.68115
2.69613
2.7096
2.72108
2.73023
2.73666
2.74005
2.74021
2.73743
2.73141
2.72268
2.71162
2.69845
2.68342
2.66697
2.64949
2.63153
2.61328
2.59597
2.57856
2.56281
2.5499
2.53826
2.52959
2.52431
2.5228
2.52403
2.52783
2.53765
2.54772
2.56084
2.5764
2.5909
2.6039
2.6155
2.62557
2.63381
2.6399
2.64363
2.57229
2.56586
2.56222
2.56091
2.56255
2.56743
2.57588
2.58744
2.60153
2.61516
2.63301
2.65522
2.67239
2.68951
2.70537
2.71913
2.7304
2.73868
2.74351
2.74464
2.74234
2.7365
2.72752
2.71586
2.70173
2.68544
2.66753
2.64848
2.62882
2.60868
2.5895
2.57086
2.55239
2.5361
2.5224
2.51243
2.50617
2.50408
2.50596
2.51231
2.52513
2.53765
2.55584
2.57363
2.58964
2.60494
2.61832
2.62985
2.63927
2.64623
2.65048
2.57105
2.5644
2.55969
2.55595
2.55399
2.55473
2.55866
2.56708
2.5789
2.59339
2.61326
2.64084
2.66145
2.68275
2.70101
2.71666
2.73
2.74016
2.74642
2.74852
2.7467
2.74106
2.7319
2.71967
2.70456
2.68706
2.66784
2.64754
2.62631
2.60363
2.58058
2.55881
2.53853
2.51953
2.50295
2.49017
2.4822
2.47993
2.48249
2.49036
2.50429
2.52213
2.54431
2.56741
2.5882
2.60605
2.62098
2.63375
2.64414
2.65173
2.6563
2.57605
2.56599
2.55607
2.54732
2.54132
2.53913
2.54099
2.54768
2.5585
2.5737
2.59505
2.62135
2.65021
2.67228
2.69573
2.71447
2.72957
2.74119
2.74861
2.75152
2.75009
2.7446
2.73531
2.72255
2.70653
2.6881
2.6679
2.64543
2.62055
2.59551
2.57013
2.54479
2.52078
2.49897
2.48052
2.46676
2.45858
2.45676
2.46046
2.47035
2.48639
2.50733
2.53302
2.56136
2.58658
2.607
2.62325
2.63698
2.64798
2.65587
2.66054
2.57717
2.56393
2.55122
2.53871
2.52871
2.52303
2.5226
2.52713
2.53757
2.55411
2.57676
2.60513
2.63699
2.66417
2.69103
2.71193
2.72868
2.74149
2.74973
2.75317
2.75202
2.74659
2.73716
2.72399
2.7074
2.68801
2.6648
2.63972
2.61222
2.58343
2.55502
2.52761
2.50204
2.47853
2.45851
2.44384
2.43533
2.43394
2.43863
2.45059
2.4695
2.49373
2.52334
2.55636
2.5852
2.60739
2.62411
2.63862
2.65008
2.65818
2.66293
2.57768
2.56221
2.54721
2.53053
2.51661
2.50817
2.507
2.51151
2.52112
2.53771
2.56113
2.59097
2.62608
2.65784
2.68639
2.70905
2.72722
2.7408
2.74939
2.75301
2.75194
2.74649
2.73682
2.72372
2.70584
2.6836
2.65732
2.62828
2.59872
2.56858
2.53911
2.51098
2.48514
2.46
2.43869
2.42344
2.41585
2.41438
2.41936
2.43283
2.45448
2.48231
2.51501
2.55081
2.58302
2.60438
2.62309
2.63825
2.64995
2.65819
2.6629
2.57717
2.55937
2.53741
2.5185
2.50323
2.49417
2.49204
2.49582
2.50683
2.52453
2.55019
2.58274
2.61959
2.65494
2.68307
2.70641
2.72511
2.73889
2.74755
2.75109
2.7497
2.7438
2.73387
2.72171
2.69792
2.67136
2.64363
2.61424
2.58408
2.55366
2.52434
2.49648
2.46847
2.44386
2.42249
2.40598
2.39722
2.39707
2.40437
2.4181
2.44177
2.47272
2.50892
2.54761
2.57619
2.60103
2.62015
2.63566
2.64726
2.65505
2.65905
2.57669
2.556
2.53479
2.51448
2.49663
2.48527
2.48265
2.48645
2.49794
2.51844
2.5476
2.58178
2.61847
2.65214
2.68044
2.70333
2.72168
2.73525
2.74383
2.7474
2.74589
2.74015
2.72864
2.70788
2.68392
2.65755
2.62908
2.59956
2.57016
2.54199
2.51386
2.4861
2.45998
2.43458
2.41198
2.39483
2.38529
2.38359
2.39445
2.41173
2.43643
2.47006
2.50987
2.54071
2.57267
2.59581
2.61488
2.63013
2.64107
2.64772
2.65468
2.57913
2.55961
2.53876
2.51782
2.49941
2.48655
2.48266
2.4879
2.5017
2.52374
2.55246
2.58558
2.6205
2.65111
2.67704
2.69892
2.71651
2.72924
2.73765
2.74187
2.73953
2.72926
2.71315
2.69262
2.66861
2.64196
2.61382
2.58575
2.55928
2.5316
2.50692
2.48145
2.45549
2.43047
2.40815
2.39419
2.38363
2.38359
2.39485
2.41229
2.44201
2.46186
2.49875
2.53978
2.56673
2.58829
2.60665
2.62215
2.63114
2.63906
2.64588
2.58713
2.56944
2.55111
2.5328
2.51688
2.50635
2.50208
2.50615
2.51799
2.53536
2.55915
2.59315
2.62258
2.64882
2.6726
2.69284
2.70907
2.71995
2.72848
2.73135
2.72449
2.71237
2.69605
2.67567
2.65181
2.62587
2.59959
2.57547
2.54844
2.52636
2.50347
2.47939
2.4556
2.43299
2.41319
2.39907
2.39243
2.39348
2.4036
2.42196
2.44137
2.47892
2.50835
2.53634
2.55895
2.57899
2.59784
2.60635
2.61872
2.62987
2.63461
2.59929
2.5854
2.5708
2.55595
2.5429
2.53202
2.52669
2.52873
2.53644
2.55522
2.5757
2.59867
2.62356
2.64572
2.66592
2.68421
2.70116
2.70984
2.714
2.71248
2.70531
2.69347
2.67744
2.65748
2.63464
2.61049
2.58715
2.56557
2.54251
2.52255
2.50063
2.47895
2.45799
2.43804
2.41928
2.4075
2.40193
2.40191
2.41137
2.42932
2.4563
2.48253
2.50656
2.52952
2.55082
2.57233
2.57933
2.59535
2.60718
2.61643
2.62183
2.61559
2.6051
2.59379
2.58217
2.57014
2.56039
2.55543
2.55542
2.55971
2.57188
2.58735
2.60484
2.62342
2.64225
2.65747
2.67455
2.6936
2.69272
2.69456
2.69165
2.68464
2.6733
2.65792
2.63901
2.61799
2.59655
2.57639
2.55673
2.53759
2.51849
2.49858
2.47933
2.4609
2.44348
2.42845
2.41907
2.41552
2.41721
2.42551
2.4398
2.45986
2.48069
2.5019
2.52814
2.5436
2.55108
2.57652
2.58144
2.59391
2.60185
2.60772
2.63492
2.62713
2.61827
2.60844
2.59811
2.58852
2.58216
2.57974
2.58087
2.58686
2.59622
2.60906
2.62243
2.6427
2.65197
2.663
2.66972
2.67182
2.67306
2.67008
2.66332
2.65255
2.63798
2.62085
2.60206
2.58338
2.56751
2.54906
2.53066
2.51398
2.49672
2.47961
2.46359
2.44895
2.43648
2.42876
2.42577
2.42717
2.43309
2.44378
2.45908
2.47968
2.5039
2.51388
2.53192
2.54265
2.5582
2.56892
2.57879
2.58701
2.59323
2.65607
2.65069
2.64373
2.63533
2.62574
2.6159
2.6072
2.60094
2.59819
2.59851
2.60349
2.61685
2.62396
2.63401
2.63662
2.64286
2.64942
2.65116
2.65136
2.64825
2.64175
2.63172
2.61851
2.60315
2.5866
2.57014
2.55461
2.54051
2.52677
2.50997
2.49514
2.47983
2.46616
2.45376
2.44326
2.43577
2.43266
2.4331
2.43734
2.44909
2.46413
2.47632
2.49891
2.50448
2.51968
2.53188
2.5428
2.5555
2.5644
2.57244
2.57877
2.67762
2.67396
2.66856
2.66066
2.65082
2.63965
2.62846
2.61882
2.61387
2.61315
2.61335
2.61874
2.61372
2.61801
2.62513
2.62626
2.62998
2.63073
2.62983
2.62645
2.62031
2.61132
2.5997
2.58619
2.57178
2.55734
2.54381
2.5305
2.52081
2.50706
2.49361
2.47964
2.46727
2.4562
2.44674
2.43971
2.43695
2.43936
2.44446
2.45095
2.45977
2.47038
2.48927
2.496
2.50896
2.51998
2.53065
2.5414
2.55045
2.55843
2.56497
2.69721
2.69684
2.69323
2.68493
2.67454
2.66247
2.65056
2.63918
2.62849
2.6202
2.61388
2.61226
2.60874
2.60795
2.60973
2.6099
2.61085
2.61042
2.60867
2.60516
2.5995
2.59163
2.58177
2.57036
2.55807
2.54566
2.53406
2.52469
2.50886
2.50212
2.49184
2.47802
2.46672
2.45706
2.44972
2.4445
2.44142
2.4397
2.44328
2.44844
2.45319
2.4666
2.47656
2.48711
2.49751
2.50795
2.51804
2.5279
2.53688
2.54489
2.55166
2.72799
2.72458
2.71994
2.71277
2.70151
2.68758
2.67229
2.65632
2.64044
2.62557
2.61572
2.60701
2.60072
2.59711
2.59509
2.59356
2.59237
2.59072
2.5883
2.58464
2.5795
2.57279
2.56461
2.55523
2.54504
2.53453
2.52415
2.51432
2.50405
2.49697
2.48658
2.47721
2.46678
2.45735
2.44909
2.44335
2.44024
2.43919
2.44035
2.44446
2.44892
2.45826
2.46665
2.47626
2.48595
2.49558
2.50532
2.51484
2.52378
2.53184
2.53887
2.76184
2.76071
2.75734
2.74829
2.73462
2.71689
2.69622
2.67399
2.65193
2.63145
2.6156
2.60229
2.59284
2.58598
2.58116
2.57767
2.57487
2.57213
2.56915
2.56542
2.56079
2.55512
2.5484
2.54077
2.53243
2.52365
2.51479
2.50601
2.49884
2.49063
2.47938
2.47181
2.46325
2.4549
2.44727
2.44129
2.43697
2.43621
2.43564
2.43737
2.44306
2.44899
2.45671
2.46505
2.47399
2.48327
2.49273
2.50211
2.51108
2.51937
2.52678
2.79542
2.79655
2.79246
2.78226
2.76581
2.74382
2.71774
2.6896
2.66172
2.63614
2.61497
2.59821
2.58496
2.57525
2.5681
2.56276
2.55869
2.55517
2.5517
2.54801
2.54385
2.53906
2.53357
2.5274
2.52062
2.51337
2.50593
2.49825
2.49157
2.48348
2.47443
2.4665
2.45852
2.45073
2.4436
2.43751
2.43272
2.4303
2.42942
2.43068
2.43398
2.43937
2.44581
2.45342
2.46192
2.47101
2.4804
2.48983
2.49898
2.50762
2.51555
2.82589
2.82783
2.82385
2.81227
2.7931
2.76712
2.73619
2.70289
2.67006
2.64007
2.61447
2.59378
2.5776
2.56537
2.5562
2.54938
2.54427
2.54013
2.53636
2.53277
2.52906
2.52503
2.52055
2.51557
2.51007
2.50416
2.49814
2.49122
2.48401
2.4771
2.46938
2.4616
2.45378
2.44611
2.43888
2.43255
2.42705
2.42402
2.42203
2.42222
2.42452
2.42865
2.43432
2.44145
2.44974
2.45886
2.46842
2.47811
2.48763
2.49679
2.50539
2.85261
2.85482
2.85049
2.83763
2.81611
2.78683
2.75188
2.71424
2.67708
2.64307
2.61378
2.58979
2.57099
2.55666
2.54588
2.53786
2.53193
2.52727
2.52344
2.52
2.51669
2.51331
2.50967
2.50567
2.50122
2.49635
2.49111
2.48521
2.47884
2.47214
2.46501
2.4575
2.44973
2.44193
2.43443
2.42755
2.42145
2.41688
2.41365
2.41282
2.41399
2.41701
2.42208
2.42898
2.43738
2.44687
2.45695
2.46718
2.47728
2.48712
2.49648
2.87572
2.87783
2.87282
2.85868
2.83517
2.8032
2.76503
2.72384
2.68309
2.64562
2.61315
2.58655
2.56537
2.54941
2.53734
2.52842
2.52183
2.51692
2.51309
2.50987
2.50697
2.50416
2.50125
2.49808
2.49453
2.49054
2.48601
2.48096
2.47532
2.46903
2.46219
2.4548
2.44693
2.43879
2.43069
2.42297
2.4159
2.40975
2.40478
2.40267
2.4025
2.4046
2.40916
2.41608
2.42496
2.43525
2.44623
2.45731
2.46822
2.47885
2.48922
2.89556
2.89724
2.89135
2.87598
2.85085
2.8168
2.77609
2.7321
2.68834
2.64802
2.613
2.58417
2.56129
2.54383
2.53077
2.5212
2.51419
2.50915
2.50545
2.50249
2.50001
2.49776
2.49551
2.49309
2.49037
2.48707
2.48327
2.47898
2.47393
2.46807
2.46143
2.45401
2.44585
2.43712
2.42809
2.4191
2.41052
2.40255
2.39549
2.3911
2.38956
2.39042
2.39442
2.40156
2.4114
2.42316
2.43583
2.44845
2.4605
2.47211
2.48349
2.91242
2.91352
2.90669
2.89025
2.86379
2.82814
2.78551
2.73939
2.6933
2.65071
2.61359
2.58301
2.55871
2.54009
2.52632
2.51628
2.50908
2.50404
2.50053
2.49792
2.49591
2.49421
2.4926
2.49089
2.4889
2.48634
2.4833
2.47961
2.47504
2.46951
2.46298
2.4554
2.44681
2.43732
2.42705
2.41636
2.40571
2.39545
2.38587
2.37858
2.37525
2.37501
2.37874
2.3867
2.39829
2.41242
2.42749
2.44195
2.45494
2.46697
2.47937
2.92678
2.92713
2.91938
2.90204
2.87462
2.83788
2.7937
2.74625
2.69812
2.65405
2.61506
2.5832
2.55776
2.53838
2.52402
2.51371
2.50649
2.50161
2.49834
2.49619
2.4947
2.49358
2.49262
2.49159
2.49029
2.48845
2.48603
2.48295
2.47891
2.47374
2.46731
2.45946
2.45021
2.4396
2.42785
2.41509
2.40177
2.38849
2.37573
2.36433
2.35797
2.3562
2.35891
2.36729
2.38069
2.39774
2.41622
2.43385
2.44892
2.46162
2.47507
2.93893
2.93847
2.92988
2.91181
2.88371
2.8463
2.80131
2.75284
2.70348
2.6581
2.61782
2.58488
2.55858
2.53865
2.52393
2.5135
2.50642
2.50173
2.49888
2.49725
2.49626
2.49573
2.49543
2.49512
2.49456
2.49356
2.49186
2.48944
2.4859
2.48109
2.47471
2.46662
2.45665
2.44469
2.43087
2.41556
2.39888
2.38165
2.36457
2.34897
2.33797
2.33393
2.33537
2.34535
2.36283
2.38554
2.41019
2.43278
2.45062
2.46155
2.47011
2.53864
2.53658
2.53466
2.5329
2.53131
2.52994
2.52883
2.52801
2.52753
2.52744
2.52774
2.52852
2.52982
2.53164
2.534
2.5369
2.54033
2.54427
2.54869
2.55354
2.55878
2.56434
2.57017
2.5762
2.58237
2.58862
2.5417
2.53951
2.53747
2.53558
2.53388
2.53239
2.53114
2.53018
2.52954
2.52926
2.52937
2.5299
2.53093
2.53245
2.53446
2.53698
2.54
2.54349
2.54743
2.55177
2.55648
2.56148
2.56674
2.57219
2.57779
2.58347
2.5447
2.5424
2.54025
2.53826
2.53645
2.53485
2.53349
2.53239
2.5316
2.53116
2.53109
2.53139
2.53215
2.53339
2.53508
2.53724
2.53985
2.54291
2.54638
2.55022
2.55439
2.55884
2.56352
2.56839
2.57339
2.57848
2.54765
2.54526
2.54301
2.54093
2.53903
2.53733
2.53586
2.53465
2.53372
2.53312
2.53286
2.53297
2.53347
2.53443
2.53581
2.53762
2.53985
2.54248
2.54548
2.54883
2.55247
2.55637
2.56048
2.56475
2.56914
2.57363
2.55056
2.5481
2.54578
2.54362
2.54164
2.53985
2.53828
2.53695
2.53589
2.53513
2.53469
2.5346
2.53486
2.53553
2.5366
2.53807
2.53991
2.54213
2.54468
2.54754
2.55066
2.55401
2.55755
2.56123
2.56503
2.56891
2.55344
2.55093
2.54855
2.54633
2.54428
2.54241
2.54074
2.5393
2.5381
2.53717
2.53655
2.53624
2.53628
2.53665
2.53741
2.53853
2.53999
2.54179
2.5439
2.54627
2.54889
2.55171
2.55469
2.5578
2.56101
2.5643
2.55631
2.55376
2.55135
2.54908
2.54696
2.545
2.54323
2.54167
2.54032
2.53923
2.5384
2.53787
2.53765
2.53774
2.53817
2.53894
2.54002
2.5414
2.54306
2.54497
2.54709
2.54939
2.55184
2.5544
2.55705
2.55976
2.55918
2.55661
2.55417
2.55186
2.54967
2.54763
2.54575
2.54404
2.54253
2.54125
2.5402
2.53942
2.53892
2.53871
2.53881
2.53921
2.5399
2.54087
2.54209
2.54353
2.54518
2.54698
2.54892
2.55096
2.55309
2.55527
2.56205
2.55949
2.55704
2.55468
2.55242
2.55028
2.54827
2.54641
2.54471
2.5432
2.54191
2.54085
2.54005
2.53951
2.53925
2.53927
2.53956
2.54011
2.54088
2.54188
2.54306
2.54439
2.54586
2.54741
2.54906
2.55078
2.56495
2.56241
2.55994
2.55754
2.55521
2.55296
2.5508
2.54876
2.54685
2.54509
2.54351
2.54214
2.54099
2.54008
2.53942
2.53903
2.5389
2.53902
2.53936
2.53991
2.54064
2.54152
2.54256
2.54368
2.54491
2.54621
2.5679
2.56539
2.56292
2.56048
2.55806
2.55569
2.55336
2.5511
2.54893
2.54688
2.54497
2.54323
2.54169
2.54036
2.53926
2.53842
2.53783
2.53749
2.53741
2.53751
2.53781
2.53828
2.53892
2.53967
2.54055
2.5415
2.57091
2.56847
2.566
2.56351
2.561
2.55847
2.55594
2.55343
2.55096
2.54855
2.54626
2.54409
2.54209
2.54029
2.5387
2.53735
2.53626
2.53545
2.53489
2.53456
2.53445
2.53455
2.53482
2.53528
2.53587
2.53659
2.57404
2.57167
2.56921
2.56667
2.56404
2.56133
2.55856
2.55574
2.55291
2.55009
2.54734
2.54468
2.54215
2.5398
2.53765
2.53574
2.5341
2.53276
2.5317
2.53094
2.53043
2.53018
2.53018
2.53038
2.5308
2.53135
2.57732
2.57503
2.57259
2.56999
2.56722
2.56429
2.56123
2.55805
2.55479
2.55149
2.54819
2.54495
2.54181
2.53882
2.53603
2.53349
2.53123
2.5293
2.52771
2.52649
2.52562
2.52506
2.52481
2.52485
2.52517
2.5257
2.58079
2.5786
2.57618
2.5735
2.57056
2.56738
2.56397
2.56036
2.5566
2.55273
2.54881
2.54489
2.54103
2.5373
2.53377
2.53049
2.52753
2.52493
2.52276
2.52104
2.51978
2.51896
2.51854
2.51853
2.51888
2.51951
2.5845
2.58243
2.58001
2.57724
2.57411
2.57062
2.56681
2.56271
2.55836
2.55383
2.54917
2.54445
2.53976
2.53517
2.53076
2.52662
2.52284
2.5195
2.51666
2.51439
2.51273
2.51167
2.5112
2.51123
2.51172
2.51265
2.58852
2.58657
2.58416
2.58128
2.57791
2.57407
2.56979
2.56511
2.56008
2.55477
2.54926
2.54362
2.53795
2.53235
2.52691
2.52177
2.51701
2.51279
2.50919
2.50631
2.50423
2.503
2.50251
2.50272
2.50353
2.50489
2.5929
2.59109
2.58868
2.58565
2.582
2.57775
2.57293
2.56758
2.56177
2.55556
2.54908
2.54237
2.53558
2.5288
2.52216
2.51583
2.50989
2.50464
2.50015
2.49657
2.49406
2.49266
2.49227
2.49274
2.49404
2.49611
2.59771
2.59604
2.59362
2.59042
2.58644
2.58171
2.57627
2.57014
2.56345
2.55623
2.54862
2.54069
2.53262
2.52452
2.51649
2.5088
2.50138
2.49496
2.48939
2.48503
2.48205
2.48048
2.48021
2.48112
2.48311
2.48611
2.60298
2.6015
2.59903
2.59562
2.59126
2.58598
2.57982
2.57281
2.56511
2.55673
2.54789
2.53858
2.52915
2.51954
2.51013
2.50096
2.49182
2.48418
2.47726
2.472
2.46849
2.46653
2.46629
2.46778
2.47047
2.47476
2.60878
2.60749
2.60497
2.6013
2.59649
2.59056
2.58359
2.5756
2.56676
2.5571
2.54691
2.53611
2.52544
2.51429
2.50316
2.4925
2.4817
2.47257
2.464
2.45762
2.45346
2.45181
2.45118
2.45279
2.45639
2.46223
2.61515
2.61404
2.61145
2.60746
2.6021
2.59545
2.58754
2.57847
2.56841
2.55744
2.54597
2.53371
2.5216
2.50902
2.49439
2.4815
2.46876
2.45788
2.44835
2.44029
2.4345
2.4311
2.43157
2.43466
2.43972
2.44952
2.62212
2.62111
2.61842
2.61404
2.60806
2.60057
2.59163
2.58141
2.57009
2.55798
2.54503
2.53135
2.51539
2.50027
2.48629
2.47153
2.45606
2.44131
2.42797
2.417
2.40959
2.40606
2.40682
2.41104
2.41869
2.42988
2.62959
2.62862
2.62578
2.62091
2.6142
2.60576
2.5957
2.58441
2.57197
2.55809
2.54222
2.52628
2.51166
2.49465
2.47639
2.45731
2.43863
2.42128
2.40611
2.39388
2.3858
2.38268
2.3837
2.38852
2.39766
2.41057
2.63731
2.63634
2.63323
2.62779
2.62026
2.61084
2.59977
2.58712
2.57213
2.55621
2.54129
2.5239
2.50496
2.48505
2.4643
2.44372
2.4236
2.40525
2.38798
2.3743
2.36571
2.36178
2.36262
2.36829
2.37895
2.39406
2.64493
2.64388
2.64038
2.63429
2.62589
2.61556
2.60332
2.58819
2.57313
2.55609
2.53772
2.51812
2.49775
2.47691
2.45527
2.43406
2.41163
2.39013
2.37219
2.35862
2.35023
2.34626
2.34741
2.3533
2.36466
2.38111
2.65198
2.65078
2.64681
2.64004
2.63076
2.61888
2.60403
2.58938
2.57181
2.55276
2.53298
2.51268
2.49226
2.47161
2.44861
2.4252
2.40303
2.38179
2.36245
2.34719
2.3382
2.3346
2.33633
2.34277
2.35556
2.37389
2.65791
2.65654
2.65215
2.64477
2.63419
2.62152
2.60524
2.58744
2.56858
2.54889
2.52863
2.50867
2.48879
2.46657
2.44545
2.42312
2.40024
2.37759
2.35702
2.34078
2.3304
2.32669
2.3296
2.33877
2.35309
2.37204
2.66216
2.66074
2.65603
2.64757
2.63609
2.62065
2.60317
2.58452
2.56492
2.5451
2.52608
2.50759
2.48688
2.46675
2.44579
2.42379
2.40136
2.37904
2.35939
2.34336
2.33358
2.33024
2.33243
2.34017
2.35447
2.37386
2.6646
2.66309
2.65685
2.64813
2.63443
2.61819
2.60004
2.58068
2.56126
2.54317
2.52604
2.50631
2.48804
2.46856
2.44812
2.42709
2.40608
2.38584
2.36756
2.35277
2.34254
2.33863
2.34077
2.34914
2.3619
2.37805
2.66443
2.66405
2.6565
2.6453
2.63146
2.61473
2.59611
2.57696
2.55906
2.54242
2.52316
2.50685
2.48936
2.47063
2.45131
2.43159
2.41181
2.39302
2.37631
2.36192
2.35282
2.34923
2.35068
2.35747
2.36841
2.38203
2.66209
2.65935
2.65229
2.64166
2.62758
2.61078
2.59236
2.57381
2.55633
2.53941
2.52332
2.50728
2.49034
2.47264
2.45451
2.43605
2.4176
2.40013
2.38432
2.37132
2.36247
2.35876
2.35914
2.36391
2.37229
2.3833
2.65599
2.65305
2.64677
2.63657
2.6229
2.60661
2.58871
2.57121
2.55615
2.53758
2.52214
2.50748
2.49092
2.47404
2.45718
2.43979
2.42245
2.40599
2.39092
2.37809
2.369
2.3648
2.36431
2.36808
2.3757
2.38605
2.64752
2.64509
2.63938
2.63009
2.61763
2.60274
2.58638
2.56987
2.55516
2.53942
2.52065
2.50795
2.49112
2.47537
2.45925
2.44249
2.42563
2.4096
2.39476
2.38204
2.37302
2.36945
2.36936
2.37236
2.37552
2.38113
2.63653
2.63505
2.63019
2.62229
2.61154
2.59844
2.58364
2.56805
2.55258
2.53791
2.52312
2.50694
2.49137
2.47619
2.46029
2.44394
2.42753
2.41165
2.3973
2.38478
2.37468
2.3709
2.37035
2.3712
2.37462
2.3798
2.62401
2.62321
2.61921
2.61265
2.60372
2.59274
2.58015
2.56652
2.55265
2.53868
2.52353
2.50842
2.49341
2.4783
2.46254
2.44642
2.42977
2.41435
2.39973
2.38682
2.3769
2.37142
2.36963
2.36976
2.37199
2.37628
2.61023
2.61022
2.60723
2.60188
2.5945
2.58537
2.57467
2.56277
2.5501
2.53674
2.52252
2.5081
2.49347
2.47835
2.46262
2.44645
2.4302
2.41446
2.3996
2.38648
2.37593
2.36969
2.36687
2.36628
2.36775
2.37095
2.59636
2.59705
2.59521
2.5911
2.58519
2.57764
2.56857
2.55816
2.54664
2.53411
2.52075
2.50683
2.49233
2.47715
2.46134
2.4451
2.4287
2.4126
2.3974
2.38403
2.37311
2.36601
2.36258
2.36165
2.36252
2.36502
2.58282
2.58404
2.5833
2.58055
2.57595
2.56969
2.56189
2.55265
2.54207
2.53028
2.51748
2.50381
2.48929
2.47399
2.45805
2.44167
2.42504
2.40867
2.39312
2.37921
2.36797
2.36047
2.35676
2.35561
2.35627
2.3585
2.56957
2.5716
2.57184
2.57029
2.56699
2.5619
2.55513
2.54676
2.53687
2.52559
2.51307
2.49941
2.48473
2.46917
2.4529
2.43616
2.41918
2.40236
2.38643
2.37211
2.3602
2.35281
2.34907
2.34804
2.3489
2.35133
2.55682
2.55983
2.56086
2.56041
2.55817
2.55412
2.54823
2.54053
2.53109
2.52002
2.50747
2.49357
2.4785
2.46245
2.44563
2.42829
2.41071
2.39329
2.37664
2.36159
2.34998
2.34251
2.33926
2.33853
2.34013
2.34334
2.54464
2.5486
2.55066
2.551
2.54967
2.54644
2.54124
2.53404
2.52486
2.51378
2.50094
2.48651
2.47071
2.4538
2.43605
2.41775
2.39927
2.38106
2.36353
2.34803
2.33574
2.32886
2.32639
2.32648
2.32952
2.33425
2.53312
2.53807
2.5412
2.54219
2.54162
2.53904
2.53432
2.52739
2.51824
2.50692
2.49355
2.47829
2.4614
2.44318
2.42399
2.40424
2.38441
2.36494
2.3464
2.32977
2.31745
2.31099
2.30931
2.31126
2.31646
2.32365