/*--------------------------------*- C++ -*----------------------------------*\
  =========                 |
  \\      /  F ield         | OpenFOAM: The Open Source CFD Toolbox
   \\    /   O peration     | Website:  https://openfoam.org
    \\  /    A nd           | Version:  10
     \\/     M anipulation  |
\*---------------------------------------------------------------------------*/
FoamFile
{
    format      ascii;
    class       surfaceScalarField;
    location    "0.448024";
    object      phi;
}
// * * * * * * * * * * * * * * * * * * * * * * * * * * * * * * * * * * * * * //

dimensions      [1 0 -1 0 0 0 0];

internalField   nonuniform List<scalar> 
31108
(
0.000478189
-3.2461e-05
0.000473092
-2.9918e-05
0.000467874
-2.75316e-05
0.000462525
-2.53042e-05
0.000457049
-2.32444e-05
0.00045144
-2.13625e-05
0.000445711
-1.96551e-05
0.000439879
-1.81115e-05
0.000433968
-1.67128e-05
0.000428007
-1.54367e-05
0.00042201
-1.42526e-05
0.000416017
-1.31305e-05
0.00041006
-1.20408e-05
0.000404165
-1.09549e-05
0.00039836
-9.85037e-06
0.00039266
-8.70866e-06
0.000387086
-7.51625e-06
0.000381639
-6.26662e-06
0.000376347
-4.95574e-06
0.000371172
-3.58533e-06
0.000366154
-2.1538e-06
0.000361274
-6.70717e-07
0.000356507
8.62681e-07
0.000351887
2.43392e-06
0.000347387
4.03558e-06
0.00034302
5.688e-06
0.000338766
7.34361e-06
0.000334637
9.01089e-06
0.000330638
1.06921e-05
0.000326775
1.23756e-05
0.000323058
1.4055e-05
0.000319504
1.5723e-05
0.000316121
1.73712e-05
0.000312929
1.89899e-05
0.000309946
2.05696e-05
0.000307186
2.2099e-05
0.000304671
2.35645e-05
0.000302422
2.49543e-05
0.000300453
2.62536e-05
0.000298775
2.745e-05
0.000297405
2.85248e-05
0.000296346
2.94699e-05
0.000295606
3.02655e-05
0.000295189
3.09031e-05
0.000295091
3.1368e-05
0.000295303
3.16511e-05
0.000295815
3.17456e-05
0.000296611
3.16435e-05
0.000297667
3.13432e-05
0.000298956
3.08444e-05
3.01527e-05
0.000300446
0.000480544
-2.59232e-05
0.000475376
-2.37856e-05
0.00047007
-2.18325e-05
0.000464623
-2.00426e-05
0.000459031
-1.84261e-05
0.000453313
-1.69901e-05
0.000447473
-1.57287e-05
0.000441546
-1.4629e-05
0.000435555
-1.36717e-05
0.000429524
-1.2827e-05
0.000423487
-1.20637e-05
0.000417477
-1.13498e-05
0.000411517
-1.06539e-05
0.000405638
-9.94656e-06
0.000399863
-9.20437e-06
0.000394207
-8.4099e-06
0.00038868
-7.55111e-06
0.000383288
-6.61938e-06
0.00037804
-5.61364e-06
0.000372933
-4.53391e-06
0.000367964
-3.38109e-06
0.000363128
-2.166e-06
0.000358421
-8.86134e-07
0.000353847
4.44032e-07
0.000349385
1.81702e-06
0.000345052
3.24705e-06
0.000340822
4.70685e-06
0.000336722
6.18874e-06
0.000332735
7.69145e-06
0.000328878
9.21143e-06
0.000325162
1.07413e-05
0.000321596
1.22728e-05
0.000318193
1.37981e-05
0.00031497
1.53073e-05
0.000311944
1.67895e-05
0.000309128
1.82332e-05
0.00030654
1.96241e-05
0.000304204
2.0949e-05
0.000302131
2.21939e-05
0.000300338
2.33418e-05
0.000298832
2.43807e-05
0.000297625
2.52948e-05
0.000296721
2.60675e-05
0.000296128
2.66898e-05
0.000295841
2.71486e-05
0.000295855
2.74324e-05
0.000296162
2.75385e-05
0.00029675
2.74592e-05
0.000297599
2.71946e-05
0.000298685
2.67464e-05
2.61212e-05
0.000299986
0.000482583
-1.95684e-05
0.000477355
-1.7848e-05
0.00047195
-1.63241e-05
0.000466399
-1.49671e-05
0.0004607
-1.37888e-05
0.000454866
-1.27905e-05
0.000448926
-1.19657e-05
0.000442907
-1.13005e-05
0.00043684
-1.07698e-05
0.000430758
-1.03431e-05
0.000424685
-9.9875e-06
0.000418658
-9.6692e-06
0.000412703
-9.35592e-06
0.000406846
-9.01762e-06
0.000401105
-8.63017e-06
0.000395501
-8.17929e-06
0.000390027
-7.65196e-06
0.0003847
-7.04032e-06
0.000379515
-6.34075e-06
0.000374463
-5.5563e-06
0.000369558
-4.68941e-06
0.000364772
-3.74216e-06
0.000360118
-2.72101e-06
0.000355594
-1.63894e-06
0.000351175
-4.92895e-07
0.000346878
7.18311e-07
0.00034269
1.98188e-06
0.000338614
3.28403e-06
0.000334652
4.62124e-06
0.00033081
5.99252e-06
0.000327101
7.39061e-06
0.000323532
8.80674e-06
0.000320118
1.0232e-05
0.000316873
1.16568e-05
0.00031381
1.30692e-05
0.000310947
1.44548e-05
0.000308299
1.58009e-05
0.000305883
1.70886e-05
0.000303719
1.83051e-05
0.000301817
1.94314e-05
0.00030019
2.04545e-05
0.000298842
2.1355e-05
0.000297779
2.21203e-05
0.000297016
2.27363e-05
0.000296551
2.31914e-05
0.000296383
2.34765e-05
0.000296498
2.35856e-05
0.00029689
2.35164e-05
0.000297548
2.32675e-05
0.000298451
2.28445e-05
2.22547e-05
0.000299573
0.000484322
-1.34571e-05
0.000479029
-1.21573e-05
0.000473536
-1.10615e-05
0.000467877
-1.01331e-05
0.000462078
-9.38405e-06
0.000456138
-8.81039e-06
0.000450102
-8.40868e-06
0.000443998
-8.15924e-06
0.000437863
-8.03491e-06
0.000431728
-8.0054e-06
0.000425627
-8.03649e-06
0.000419594
-8.09336e-06
0.000413649
-8.14264e-06
0.000407822
-8.15992e-06
0.000402119
-8.11059e-06
0.000396559
-7.99671e-06
0.000391145
-7.78824e-06
0.000385875
-7.49285e-06
0.000380753
-7.09962e-06
0.000375764
-6.61093e-06
0.000370911
-6.02821e-06
0.00036619
-5.35478e-06
0.000361597
-4.5958e-06
0.000357125
-3.76159e-06
0.000352758
-2.84509e-06
0.000348503
-1.84881e-06
0.000344363
-7.79077e-07
0.000340319
3.49802e-07
0.000336391
1.53141e-06
0.000332579
2.76809e-06
0.000328889
4.05189e-06
0.000325332
5.37235e-06
0.000321916
6.72092e-06
0.000318656
8.08558e-06
0.000315569
9.45393e-06
0.000312667
1.08104e-05
0.000309967
1.21357e-05
0.000307481
1.34156e-05
0.000305229
1.46267e-05
0.00030322
1.57549e-05
0.000301468
1.6781e-05
0.000299986
1.76844e-05
0.000298779
1.84519e-05
0.000297852
1.90684e-05
0.000297212
1.95209e-05
0.00029686
1.9801e-05
0.000296793
1.99032e-05
0.000297001
1.98251e-05
0.000297476
1.95707e-05
0.000298204
1.91429e-05
1.85552e-05
0.000299165
0.000485776
-7.64549e-06
0.000480406
-6.76425e-06
0.000474834
-6.09833e-06
0.000469075
-5.58883e-06
0.000463172
-5.2616e-06
0.000457141
-5.09298e-06
0.000451013
-5.09387e-06
0.000444828
-5.23245e-06
0.000438632
-5.48769e-06
0.000432448
-5.82714e-06
0.000426334
-6.21442e-06
0.000420288
-6.61908e-06
0.000414373
-7.00689e-06
0.000408567
-7.3548e-06
0.000402908
-7.61509e-06
0.000397416
-7.82915e-06
0.000392022
-7.92266e-06
0.00038683
-7.93953e-06
0.000381768
-7.84291e-06
0.000376832
-7.6462e-06
0.000372036
-7.34818e-06
0.000367378
-6.94945e-06
0.000362846
-6.4562e-06
0.000358427
-5.86711e-06
0.000354117
-5.18507e-06
0.000349924
-4.40485e-06
0.000345835
-3.5207e-06
0.000341845
-2.55624e-06
0.000337961
-1.52634e-06
0.000334187
-4.11742e-07
0.000330526
7.757e-07
0.000326992
2.01678e-06
0.000323591
3.31016e-06
0.000320331
4.63934e-06
0.000317229
5.98877e-06
0.000314297
7.34087e-06
0.000311549
8.67415e-06
0.000309001
9.96727e-06
0.000306662
1.11999e-05
0.000304551
1.235e-05
0.00030268
1.33957e-05
0.000301057
1.43167e-05
0.000299701
1.50952e-05
0.000298614
1.57146e-05
0.000297799
1.61631e-05
0.000297267
1.64298e-05
0.000297018
1.65108e-05
0.000297044
1.64038e-05
0.000297342
1.61162e-05
0.000297901
1.56528e-05
1.50285e-05
0.000298708
0.000486947
-2.20686e-06
0.000481499
-1.71894e-06
0.000475845
-1.49465e-06
0.000469995
-1.37457e-06
0.000464009
-1.46447e-06
0.000457879
-1.67253e-06
0.000451683
-2.04783e-06
0.000445416
-2.54426e-06
0.000439173
-3.14508e-06
0.000432961
-3.8141e-06
0.000426818
-4.51952e-06
0.000420772
-5.22359e-06
0.000414867
-5.92732e-06
0.000409094
-6.55574e-06
0.000403454
-7.11171e-06
0.000398005
-7.63932e-06
0.000392691
-8.01625e-06
0.000387529
-8.32759e-06
0.000382529
-8.52168e-06
0.000377658
-8.60907e-06
0.000372927
-8.59354e-06
0.000368331
-8.46975e-06
0.000363861
-8.24208e-06
0.000359512
-7.90825e-06
0.000355268
-7.45541e-06
0.000351141
-6.88525e-06
0.000347113
-6.19017e-06
0.000343193
-5.39507e-06
0.000339368
-4.50022e-06
0.000335649
-3.4994e-06
0.00033203
-2.38365e-06
0.000328535
-1.21627e-06
0.000325157
4.3267e-08
0.000321909
1.35943e-06
0.000318804
2.71429e-06
0.000315852
4.08711e-06
0.000313064
5.45312e-06
0.00031045
6.78535e-06
0.000308031
8.06101e-06
0.000305816
9.253e-06
0.000303818
1.03355e-05
0.000302062
1.1286e-05
0.000300548
1.20827e-05
0.000299289
1.27078e-05
0.000298299
1.31465e-05
0.000297581
1.33899e-05
0.000297138
1.34323e-05
0.000296981
1.32746e-05
0.000297104
1.29219e-05
0.000297501
1.23887e-05
1.16874e-05
0.000298164
0.00048782
2.86144e-06
0.000482263
2.94095e-06
0.000476601
2.72031e-06
0.000470667
2.44577e-06
0.000464598
1.98039e-06
0.000458422
1.40639e-06
0.000452108
7.0519e-07
0.000445831
-1.10919e-07
0.000439485
-1.00743e-06
0.000433303
-1.96249e-06
0.00042705
-2.93748e-06
0.000421113
-3.87909e-06
0.00041519
-4.88696e-06
0.000409456
-5.75328e-06
0.000403837
-6.62535e-06
0.000398377
-7.29878e-06
0.000393131
-8.03808e-06
0.000387987
-8.56124e-06
0.000383039
-9.07099e-06
0.000378229
-9.43654e-06
0.000373561
-9.70404e-06
0.000369033
-9.85695e-06
0.000364638
-9.89982e-06
0.000360364
-9.8224e-06
0.000356204
-9.60712e-06
0.000352146
-9.24389e-06
0.000348206
-8.73586e-06
0.000344361
-8.10947e-06
0.000340613
-7.34532e-06
0.000336964
-6.44618e-06
0.000333426
-5.41716e-06
0.000329982
-4.27977e-06
0.000326643
-3.03975e-06
0.000323417
-1.71631e-06
0.000320314
-3.34243e-07
0.000317346
1.0844e-06
0.000314521
2.50678e-06
0.000311849
3.90392e-06
0.000309348
5.24487e-06
0.000307027
6.49876e-06
0.000304903
7.63471e-06
0.000302994
8.62664e-06
0.000301312
9.44803e-06
0.000299874
1.00799e-05
0.000298693
1.0504e-05
0.000297778
1.07109e-05
0.000297142
1.06958e-05
0.000296791
1.04613e-05
0.000296737
1.00146e-05
0.000296967
9.36877e-06
8.54708e-06
0.000297482
0.000488433
7.53744e-06
0.000482826
7.08344e-06
0.000477092
6.54959e-06
0.000471114
5.83105e-06
0.000464949
5.06166e-06
0.000458718
4.13239e-06
0.00045237
3.14939e-06
0.000446001
2.06317e-06
0.000439706
9.23976e-07
0.000433335
-2.51826e-07
0.000427351
-1.44706e-06
0.000421125
-2.66388e-06
0.000415284
-3.75429e-06
0.000409583
-4.88316e-06
0.000404004
-5.94622e-06
0.000398615
-6.93162e-06
0.000393335
-7.82914e-06
0.000388274
-8.67359e-06
0.000383314
-9.40597e-06
0.000378548
-1.00643e-05
0.000373948
-1.06117e-05
0.0003695
-1.10485e-05
0.00036518
-1.13713e-05
0.000360979
-1.15552e-05
0.000356911
-1.15744e-05
0.000352935
-1.14293e-05
0.000349095
-1.11255e-05
0.000345354
-1.06618e-05
0.000341709
-1.00284e-05
0.000338159
-9.22693e-06
0.000334699
-8.26451e-06
0.000331334
-7.15407e-06
0.000328057
-5.91433e-06
0.000324869
-4.56239e-06
0.000321794
-3.1324e-06
0.00031882
-1.63692e-06
0.000315963
-1.38679e-07
0.000313229
1.3509e-06
0.000310639
2.78169e-06
0.000308208
4.11832e-06
0.000305946
5.32589e-06
0.000303869
6.37195e-06
0.000302005
7.22631e-06
0.000300371
7.86467e-06
0.000298982
8.26838e-06
0.000297854
8.42656e-06
0.000297003
8.33465e-06
0.00029645
7.99362e-06
0.000296196
7.41636e-06
0.000296257
6.61829e-06
5.6251e-06
0.000296633
0.000488732
1.16274e-05
0.000483111
1.08175e-05
0.000477361
9.84462e-06
0.000471353
8.77239e-06
0.000465123
7.71478e-06
0.000458866
6.47216e-06
0.000452478
5.26701e-06
0.000446072
3.97833e-06
0.000439715
2.66524e-06
0.000433432
1.33134e-06
0.000427235
-6.271e-09
0.00042117
-1.32837e-06
0.000415281
-2.6292e-06
0.000409557
-3.8924e-06
0.000403964
-5.11922e-06
0.000398549
-6.30742e-06
0.000393333
-7.43599e-06
0.000388271
-8.50527e-06
0.000383384
-9.50375e-06
0.000378655
-1.04295e-05
0.00037409
-1.12582e-05
0.000369687
-1.19851e-05
0.000365449
-1.26045e-05
0.00036135
-1.30485e-05
0.000357353
-1.33226e-05
0.000353518
-1.34016e-05
0.000349795
-1.33135e-05
0.00034618
-1.30221e-05
0.00034266
-1.25231e-05
0.000339233
-1.18186e-05
0.000335889
-1.09135e-05
0.000332623
-9.82264e-06
0.000329429
-8.56554e-06
0.000326304
-7.16506e-06
0.000323258
-5.65854e-06
0.000320293
-4.07463e-06
0.000317413
-2.46003e-06
0.000314624
-8.51125e-07
0.000311941
6.95055e-07
0.000309386
2.1381e-06
0.000306969
3.43796e-06
0.000304712
4.55415e-06
0.000302645
5.45103e-06
0.000300787
6.09854e-06
0.00029916
6.47819e-06
0.0002978
6.57287e-06
0.00029672
6.38087e-06
0.000295935
5.90578e-06
0.000295476
5.15863e-06
0.000295353
4.16352e-06
2.94944e-06
0.000295568
0.000488624
1.52571e-05
0.000483185
1.40076e-05
0.000477296
1.26234e-05
0.000471397
1.12482e-05
0.000465157
9.84591e-06
0.000458824
8.4903e-06
0.000452503
7.06629e-06
0.000446029
5.65809e-06
0.000439649
4.24073e-06
0.000433339
2.82912e-06
0.000427133
1.42536e-06
0.00042106
6.80746e-08
0.000415149
-1.36663e-06
0.000409379
-2.7009e-06
0.000403806
-4.07728e-06
0.000398361
-5.39503e-06
0.000393121
-6.73632e-06
0.00038805
-8.00901e-06
0.00038316
-9.26299e-06
0.000378454
-1.04565e-05
0.000373937
-1.15743e-05
0.000369606
-1.26171e-05
0.000365456
-1.35373e-05
0.000361412
-1.42611e-05
0.000357564
-1.4791e-05
0.000353862
-1.51473e-05
0.000350298
-1.52793e-05
0.000346829
-1.51706e-05
0.000343471
-1.48179e-05
0.000340201
-1.42112e-05
0.000336997
-1.33619e-05
0.000333867
-1.22808e-05
0.000330789
-1.09926e-05
0.000327749
-9.52277e-06
0.00032475
-7.91401e-06
0.000321813
-6.21034e-06
0.000318913
-4.45227e-06
0.00031606
-2.69031e-06
0.000313278
-9.94766e-07
0.000310586
5.79762e-07
0.000307997
1.99761e-06
0.000305541
3.20448e-06
0.00030324
4.15678e-06
0.000301129
4.81977e-06
0.000299242
5.16998e-06
0.000297609
5.19007e-06
0.000296269
4.87534e-06
0.000295234
4.23473e-06
0.000294538
3.27771e-06
0.000294209
2.03721e-06
5.43262e-07
0.000294261
0.000488353
1.8318e-05
0.000482877
1.6613e-05
0.000477134
1.48932e-05
0.000471204
1.31992e-05
0.000465016
1.16054e-05
0.000458736
1.00664e-05
0.000452372
8.55519e-06
0.00044594
7.10564e-06
0.000439604
5.68116e-06
0.000433163
4.28841e-06
0.00042712
2.89853e-06
0.000420883
1.49055e-06
0.000414903
1.59686e-07
0.000409129
-1.27637e-06
0.000403506
-2.67664e-06
0.000398026
-4.1502e-06
0.00039271
-5.601e-06
0.000387634
-7.11392e-06
0.000382696
-8.59229e-06
0.000377974
-1.00754e-05
0.000373479
-1.14965e-05
0.000369215
-1.2889e-05
0.000365099
-1.41152e-05
0.00036121
-1.51264e-05
0.000357503
-1.60006e-05
0.000353967
-1.66324e-05
0.000350564
-1.70094e-05
0.000347289
-1.71083e-05
0.000344139
-1.69097e-05
0.000341059
-1.64125e-05
0.000338051
-1.56206e-05
0.000335085
-1.4541e-05
0.000332155
-1.32093e-05
0.000329236
-1.16447e-05
0.000326321
-9.90995e-06
0.000323405
-8.04916e-06
0.0003205
-6.11659e-06
0.000317596
-4.16116e-06
0.000314716
-2.28558e-06
0.000311864
-5.33968e-07
0.000309078
1.03155e-06
0.000306395
2.35357e-06
0.000303829
3.37978e-06
0.000301429
4.06785e-06
0.000299242
4.38729e-06
0.000297291
4.3222e-06
0.000295643
3.86474e-06
0.000294326
3.02211e-06
0.000293365
1.81519e-06
0.000292802
2.74822e-07
-1.5561e-06
0.000292662
0.000487698
2.08081e-05
0.0004824
1.8629e-05
0.00047671
1.66064e-05
0.000470854
1.46174e-05
0.000464834
1.28828e-05
0.000458593
1.12598e-05
0.000452242
9.75845e-06
0.00044587
8.35819e-06
0.000439491
7.03189e-06
0.000433159
5.75266e-06
0.00042687
4.48728e-06
0.00042072
3.21012e-06
0.000414682
1.91894e-06
0.000408763
5.32582e-07
0.000403046
-8.94006e-07
0.000397453
-2.43391e-06
0.000392064
-4.02712e-06
0.000386887
-5.72037e-06
0.000381925
-7.45185e-06
0.000377193
-9.2198e-06
0.000372727
-1.10033e-05
0.000368506
-1.27393e-05
0.000364471
-1.4258e-05
0.000360673
-1.56867e-05
0.000357152
-1.6887e-05
0.000353786
-1.78447e-05
0.000350606
-1.85061e-05
0.000347566
-1.88403e-05
0.000344647
-1.88204e-05
0.000341818
-1.84483e-05
0.000339047
-1.77152e-05
0.000336305
-1.66355e-05
0.000333561
-1.52424e-05
0.000330794
-1.35568e-05
0.000327996
-1.16682e-05
0.000325137
-9.60666e-06
0.000322226
-7.4568e-06
0.000319284
-5.27814e-06
0.000316286
-3.15797e-06
0.000313269
-1.19309e-06
0.000310263
5.63145e-07
0.000307302
2.03431e-06
0.000304431
3.15908e-06
0.000301693
3.8866e-06
0.000299146
4.18074e-06
0.000296842
4.01904e-06
0.000294833
3.39798e-06
0.00029317
2.32218e-06
0.000291907
8.1873e-07
0.000291081
-1.07962e-06
-3.31451e-06
0.000290717
0.000486675
2.25815e-05
0.00048162
2.00404e-05
0.000476156
1.76217e-05
0.000470429
1.55578e-05
0.000464559
1.36917e-05
0.000458436
1.20857e-05
0.0004522
1.06885e-05
0.000445875
9.4463e-06
0.000439533
8.33441e-06
0.000433145
7.2886e-06
0.000426845
6.25308e-06
0.000420578
5.1916e-06
0.000414439
4.05212e-06
0.000408402
2.7932e-06
0.000402493
1.39402e-06
0.000396778
-1.65799e-07
0.000391235
-1.8825e-06
0.000385918
-3.74465e-06
0.000380852
-5.73839e-06
0.00037607
-7.82619e-06
0.000371617
-1.00195e-05
0.000367361
-1.20482e-05
0.000363417
-1.40366e-05
0.000359806
-1.58614e-05
0.000356428
-1.74742e-05
0.000353297
-1.87992e-05
0.000350379
-1.9788e-05
0.000347615
-2.03926e-05
0.000345015
-2.05894e-05
0.000342461
-2.03506e-05
0.000339998
-1.9689e-05
0.000337532
-1.86132e-05
0.000335019
-1.71221e-05
0.000332477
-1.53276e-05
0.000329824
-1.3224e-05
0.000327056
-1.09214e-05
0.000324164
-8.49784e-06
0.000321163
-6.03308e-06
0.000318055
-3.6272e-06
0.000314848
-1.37954e-06
0.000311589
6.15969e-07
0.000308316
2.28108e-06
0.000305081
3.53796e-06
0.000301947
4.32641e-06
0.000298975
4.60324e-06
0.000296243
4.34317e-06
0.000293814
3.53442e-06
0.000291755
2.19331e-06
0.000290128
3.42029e-07
0.000288989
-1.97219e-06
-4.68708e-06
0.000288369
0.000485427
2.37982e-05
0.000480554
2.07605e-05
0.000475379
1.81154e-05
0.000469974
1.58621e-05
0.000464278
1.40224e-05
0.000458392
1.25172e-05
0.000452288
1.13619e-05
0.000446053
1.03925e-05
0.000439726
9.637e-06
0.000433357
8.95585e-06
0.00042694
8.2725e-06
0.000420556
7.53819e-06
0.000414243
6.65662e-06
0.000408013
5.59409e-06
0.000401876
4.29841e-06
0.00039594
2.74891e-06
0.000390186
9.40263e-07
0.000384676
-1.11491e-06
0.000379456
-3.35382e-06
0.000374578
-5.8405e-06
0.000370027
-8.40158e-06
0.000365828
-1.0906e-05
0.000361986
-1.33592e-05
0.000358493
-1.56767e-05
0.000355328
-1.77544e-05
0.000352458
-1.95135e-05
0.000349836
-2.08874e-05
0.00034743
-2.18184e-05
0.000345175
-2.2264e-05
0.000343014
-2.21978e-05
0.000340905
-2.16069e-05
0.000338773
-2.05111e-05
0.000336613
-1.89615e-05
0.000334308
-1.69792e-05
0.000331842
-1.46303e-05
0.000329204
-1.20337e-05
0.00032636
-9.26644e-06
0.000323312
-6.44955e-06
0.000320069
-3.68296e-06
0.000316652
-1.08918e-06
0.000313096
1.21642e-06
0.000309463
3.13059e-06
0.000305808
4.56566e-06
0.000302207
5.44655e-06
0.000298745
5.72074e-06
0.000295502
5.35788e-06
0.000292572
4.34971e-06
0.000290036
2.70276e-06
0.000287974
4.56722e-07
0.00028646
-2.34924e-06
-5.61937e-06
0.000285537
0.000483807
2.42114e-05
0.000479301
2.0787e-05
0.000474556
1.79395e-05
0.000469486
1.55513e-05
0.000464095
1.38934e-05
0.000458486
1.25448e-05
0.000452585
1.18072e-05
0.000446513
1.12089e-05
0.000440212
1.09743e-05
0.000433799
1.08112e-05
0.000427284
1.0622e-05
0.000420714
1.03506e-05
0.000414169
9.82488e-06
0.000407632
9.05123e-06
0.000401225
7.92526e-06
0.000394948
6.42531e-06
0.000388892
4.5425e-06
0.000383132
2.29525e-06
0.000377689
-2.74137e-07
0.000372634
-3.16284e-06
0.000367999
-6.14559e-06
0.000363782
-9.21739e-06
0.000360032
-1.22321e-05
0.000356703
-1.51238e-05
0.000353768
-1.77516e-05
0.000351207
-2.00271e-05
0.000348955
-2.18592e-05
0.000346962
-2.31736e-05
0.000345135
-2.39164e-05
0.000343445
-2.40509e-05
0.000341776
-2.35615e-05
0.000340102
-2.24629e-05
0.0003383
-2.07894e-05
0.000336309
-1.85873e-05
0.000334129
-1.59659e-05
0.000331663
-1.29993e-05
0.000328884
-9.81443e-06
0.000325789
-6.54383e-06
0.000322405
-3.33249e-06
0.000318746
-3.06823e-07
0.000314846
2.392e-06
0.000310776
4.63032e-06
0.000306619
6.3028e-06
0.000302469
7.31564e-06
0.00029842
7.6107e-06
0.00029458
7.14983e-06
0.000291065
5.92084e-06
0.000287972
3.93569e-06
0.00028539
1.23429e-06
0.000283414
-2.12922e-06
-6.05145e-06
0.000282128
0.000481663
2.38852e-05
0.000477903
2.00092e-05
0.000473515
1.69361e-05
0.000469187
1.4654e-05
0.000464037
1.30668e-05
0.00045892
1.23253e-05
0.000453243
1.18241e-05
0.0004473
1.20568e-05
0.000441057
1.24233e-05
0.000434587
1.29276e-05
0.000427941
1.34245e-05
0.000421121
1.37177e-05
0.000414276
1.36533e-05
0.000407395
1.32738e-05
0.000400558
1.23924e-05
0.000393852
1.09856e-05
0.000387389
9.04107e-06
0.000381235
6.57504e-06
0.000375482
3.64981e-06
0.000370191
2.97788e-07
0.000365419
-3.25843e-06
0.000361175
-6.94599e-06
0.000357488
-1.06399e-05
0.000354329
-1.42072e-05
0.000351671
-1.74959e-05
0.000349484
-2.03859e-05
0.000347664
-2.277e-05
0.000346144
-2.45423e-05
0.000344877
-2.56441e-05
0.00034373
-2.60197e-05
0.000342627
-2.56507e-05
0.000341469
-2.45435e-05
0.000340156
-2.27349e-05
0.000338595
-2.02826e-05
0.000336712
-1.72977e-05
0.000334462
-1.38785e-05
0.000331794
-1.01812e-05
0.000328693
-6.3574e-06
0.00032515
-2.58347e-06
0.000321203
9.88986e-07
0.000316919
4.17629e-06
0.000312341
6.83853e-06
0.000307584
8.81959e-06
0.000302773
1.00199e-05
0.000298025
1.03686e-05
0.000293468
9.8161e-06
0.000289237
8.35254e-06
0.000285472
5.98892e-06
0.000282266
2.77329e-06
0.000279764
-1.22544e-06
-5.91032e-06
0.000278026
0.000479297
2.26587e-05
0.000476105
1.83703e-05
0.0004727
1.5188e-05
0.000468664
1.29648e-05
0.000464563
1.17444e-05
0.000459437
1.14252e-05
0.000454342
1.18421e-05
0.000448787
1.27949e-05
0.000442411
1.39331e-05
0.000436202
1.53596e-05
0.000429046
1.65984e-05
0.000422002
1.76666e-05
0.000414606
1.8364e-05
0.000407201
1.84283e-05
0.000399827
1.78583e-05
0.000392596
1.65753e-05
0.000385584
1.45636e-05
0.000378924
1.18532e-05
0.000372793
8.48873e-06
0.000367166
4.60032e-06
0.000362197
3.85382e-07
0.000357885
-4.08663e-06
0.000354248
-8.58117e-06
0.000351296
-1.29603e-05
0.000348949
-1.70396e-05
0.000347175
-2.06693e-05
0.000345875
-2.37036e-05
0.000344953
-2.60309e-05
0.000344326
-2.75652e-05
0.000343858
-2.82309e-05
0.000343431
-2.80086e-05
0.00034292
-2.68912e-05
0.000342203
-2.49201e-05
0.000341161
-2.21635e-05
0.000339702
-1.87349e-05
0.000337742
-1.47637e-05
0.000335217
-1.04306e-05
0.000332094
-5.91738e-06
0.000328383
-1.43988e-06
0.000324118
2.80817e-06
0.000319353
6.6247e-06
0.000314179
9.81998e-06
0.00030872
1.22062e-05
0.000303133
1.36639e-05
0.000297555
1.4099e-05
0.000292151
1.34791e-05
0.000287076
1.17586e-05
0.000282496
8.9763e-06
0.00027856
5.18526e-06
0.000275388
4.66118e-07
-5.09751e-06
0.000273107
0.000476366
2.02776e-05
0.000474257
1.57836e-05
0.000471686
1.23231e-05
0.000468612
1.05188e-05
0.000465104
9.68588e-06
0.000460908
1.0121e-05
0.000456069
1.14086e-05
0.000450672
1.33336e-05
0.00044457
1.56764e-05
0.000437955
1.8092e-05
0.000430798
2.04935e-05
0.000423223
2.24492e-05
0.000415377
2.39419e-05
0.000407338
2.46327e-05
0.000399218
2.44648e-05
0.000391224
2.33523e-05
0.000383505
2.1271e-05
0.0003762
1.82633e-05
0.000369461
1.43981e-05
0.000363435
9.84299e-06
0.000358202
4.78358e-06
0.000353789
-5.95984e-07
0.000350222
-6.06081e-06
0.000347449
-1.14172e-05
0.00034549
-1.64451e-05
0.000344211
-2.09605e-05
0.000343494
-2.47778e-05
0.00034331
-2.77712e-05
0.000343447
-2.98173e-05
0.000343789
-3.08373e-05
0.000344198
-3.07893e-05
0.000344466
-2.9665e-05
0.000344487
-2.75006e-05
0.000344102
-2.43742e-05
0.000343159
-2.04034e-05
0.000341572
-1.57539e-05
0.00033925
-1.06334e-05
0.000336127
-5.26815e-06
0.00033222
9.53276e-08
0.000327594
5.17683e-06
0.000322279
9.79775e-06
0.000316398
1.36697e-05
0.000310098
1.65674e-05
0.000303581
1.83602e-05
0.000297017
1.8959e-05
0.00029058
1.82724e-05
0.000284503
1.62984e-05
0.000278956
1.30479e-05
0.000274139
8.58792e-06
0.00027019
3.03627e-06
-3.4863e-06
0.000267226
0.000473225
1.6845e-05
0.00047212
1.18159e-05
0.000470808
8.4824e-06
0.000468931
6.90082e-06
0.000466275
6.78874e-06
0.00046286
8.14947e-06
0.000458645
1.0587e-05
0.000453509
1.37888e-05
0.000447537
1.75552e-05
0.000440777
2.1298e-05
0.000433214
2.50425e-05
0.000425144
2.81351e-05
0.000416561
3.06197e-05
0.000407667
3.20808e-05
0.000398648
3.24137e-05
0.000389691
3.15105e-05
0.000381052
2.93448e-05
0.000372918
2.59702e-05
0.000365454
2.14988e-05
0.000358891
1.61073e-05
0.000353273
1.00417e-05
0.0003487
3.5504e-06
0.000345197
-3.10231e-06
0.000342677
-9.63232e-06
0.000341116
-1.5798e-05
0.000340433
-2.13642e-05
0.000340472
-2.61311e-05
0.000341102
-2.99109e-05
0.000342184
-3.25732e-05
0.000343516
-3.40205e-05
0.00034489
-3.41846e-05
0.000346149
-3.30545e-05
0.000347072
-3.0661e-05
0.000347482
-2.70848e-05
0.000347203
-2.24589e-05
0.000346088
-1.69719e-05
0.000344031
-1.08778e-05
0.00034095
-4.45437e-06
0.000336829
2.00797e-06
0.000331746
8.14419e-06
0.00032577
1.37797e-05
0.000319106
1.84629e-05
0.000311831
2.20166e-05
0.000304194
2.42821e-05
0.000296437
2.51014e-05
0.000288777
2.43954e-05
0.000281466
2.21441e-05
0.000274746
1.838e-05
0.000268842
1.31752e-05
0.00026396
6.65004e-06
-1.02325e-06
0.000260253
0.000469149
1.18309e-05
0.000469641
6.29487e-06
0.000470159
3.16017e-06
0.000469625
1.93154e-06
0.000468221
2.89292e-06
0.000465955
5.37528e-06
0.000462128
9.33385e-06
0.00045766
1.40588e-05
0.000451594
1.94467e-05
0.000444678
2.50386e-05
0.000436787
3.0312e-05
0.000427782
3.49928e-05
0.000418285
3.86202e-05
0.000408292
4.10137e-05
0.000398108
4.19379e-05
0.000387972
4.12801e-05
0.000378171
3.90016e-05
0.000368968
3.51703e-05
0.000360594
2.9944e-05
0.000353323
2.35282e-05
0.000347243
1.62137e-05
0.000342456
8.35564e-06
0.000338982
2.8722e-07
0.000336759
-7.66268e-06
0.000335702
-1.51976e-05
0.000335713
-2.2029e-05
0.000336634
-2.79149e-05
0.000338267
-3.26406e-05
0.000340458
-3.60366e-05
0.00034295
-3.79889e-05
0.000345533
-3.84139e-05
0.000347974
-3.72851e-05
0.000350013
-3.46212e-05
0.000351423
-3.05073e-05
0.000351966
-2.50835e-05
0.000351436
-1.85693e-05
0.000349717
-1.12622e-05
0.000346695
-3.52715e-06
0.000342387
4.27538e-06
0.000336796
1.17937e-05
0.000330026
1.86093e-05
0.00032233
2.43327e-05
0.000313878
2.87543e-05
0.000304904
3.16125e-05
0.000295709
3.27353e-05
0.000286606
3.2042e-05
0.000277872
2.95119e-05
0.00026978
2.5181e-05
0.000262586
1.9133e-05
0.000256554
1.15063e-05
2.49595e-06
0.000251895
0.000464359
4.66045e-06
0.000467298
-9.92788e-07
0.000469451
-3.96176e-06
0.000470739
-4.53479e-06
0.000471139
-2.40063e-06
0.000469812
1.52267e-06
0.000467106
7.28979e-06
0.000462679
1.42469e-05
0.000456949
2.16287e-05
0.000449765
2.92852e-05
0.000441132
3.65266e-05
0.000431405
4.29983e-05
0.000420714
4.81194e-05
0.000409337
5.16515e-05
0.000397621
5.33055e-05
0.000385934
5.2949e-05
0.000374658
5.05147e-05
0.000364138
4.6102e-05
0.000354677
3.99227e-05
0.000346532
3.22178e-05
0.00033991
2.33852e-05
0.000334834
1.3859e-05
0.000331373
4.05993e-06
0.000329477
-5.60922e-06
0.000329027
-1.47771e-05
0.000329867
-2.31162e-05
0.000331825
-3.03291e-05
0.00033467
-3.61618e-05
0.000338162
-4.04359e-05
0.000342079
-4.29922e-05
0.000346094
-4.37319e-05
0.000349938
-4.26078e-05
0.000353309
-3.96218e-05
0.000355924
-3.48701e-05
0.000357454
-2.84741e-05
0.00035767
-2.07081e-05
0.000356378
-1.19219e-05
0.000353467
-2.55688e-06
0.000348933
6.89393e-06
0.000342769
1.61237e-05
0.0003351
2.44221e-05
0.000326169
3.14774e-05
0.000316301
3.69796e-05
0.000305779
4.05939e-05
0.000294918
4.21257e-05
0.000284077
4.14887e-05
0.000273604
3.86639e-05
0.000263845
3.37078e-05
0.00025511
2.66986e-05
0.000247728
1.7802e-05
7.25284e-06
0.000241933
0.000458753
-4.89665e-06
0.00046415
-1.06835e-05
0.000468945
-1.34246e-05
0.000472724
-1.29016e-05
0.000474641
-9.59186e-06
0.000475051
-3.37902e-06
0.000473275
4.48259e-06
0.0004697
1.39995e-05
0.000463582
2.40701e-05
0.000456034
3.41415e-05
0.00044662
4.38734e-05
0.000435627
5.24995e-05
0.000423457
5.94057e-05
0.000410451
6.42789e-05
0.00039696
6.68296e-05
0.000383417
6.6819e-05
0.000370306
6.41807e-05
0.000358108
5.90177e-05
0.000347248
5.16012e-05
0.000338016
4.23459e-05
0.000330693
3.15988e-05
0.000325345
2.00337e-05
0.000321983
8.13956e-06
0.000320519
-3.59005e-06
0.000320808
-1.47046e-05
0.000322689
-2.48274e-05
0.000325875
-3.36005e-05
0.000330138
-4.07351e-05
0.000335225
-4.60524e-05
0.000340776
-4.92989e-05
0.000346476
-5.04062e-05
0.000351961
-4.92576e-05
0.000356859
-4.58587e-05
0.000360813
-4.03428e-05
0.000363426
-3.274e-05
0.000364454
-2.34734e-05
0.000363614
-1.29156e-05
0.000360821
-1.59615e-06
0.000356006
9.91588e-06
0.000349156
2.11415e-05
0.000340512
3.13271e-05
0.000330183
4.01055e-05
0.000318573
4.69345e-05
0.000306169
5.14881e-05
0.000293349
5.35248e-05
0.000280513
5.29752e-05
0.000268057
4.98574e-05
0.000256369
4.42083e-05
0.000245823
3.6108e-05
0.000236832
2.57428e-05
1.33933e-05
0.000229724
0.000451663
-1.76066e-05
0.000460595
-2.35167e-05
0.000468088
-2.56013e-05
0.000474605
-2.38447e-05
0.000479011
-1.84601e-05
0.000480799
-9.94704e-06
0.000480464
1.03275e-06
0.000476968
1.33897e-05
0.00047109
2.66531e-05
0.000462583
4.00638e-05
0.000452051
5.26086e-05
0.000439532
6.38271e-05
0.000425444
7.277e-05
0.000410359
7.9185e-05
0.000394771
8.27161e-05
0.00037912
8.30909e-05
0.000364001
8.01788e-05
0.000349993
7.40935e-05
0.000337668
6.51453e-05
0.000327316
5.39138e-05
0.000319304
4.08698e-05
0.000313695
2.68048e-05
0.000310511
1.23847e-05
0.0003096
-1.79385e-06
0.000310806
-1.52089e-05
0.000313905
-2.74117e-05
0.000318541
-3.80059e-05
0.000324533
-4.66329e-05
0.000331423
-5.31765e-05
0.000338832
-5.71343e-05
0.000346404
-5.86291e-05
0.000353504
-5.72735e-05
0.000359829
-5.32944e-05
0.000364981
-4.67969e-05
0.000368463
-3.76973e-05
0.000370075
-2.66699e-05
0.000369565
-1.41001e-05
0.00036677
-5.61347e-07
0.000361595
1.33478e-05
0.000354024
2.69239e-05
0.000344031
3.95693e-05
0.000332141
5.02799e-05
0.000318594
5.88758e-05
0.000304093
6.44606e-05
0.000289055
6.70841e-05
0.000274011
6.66319e-05
0.000259449
6.31902e-05
0.000245788
5.6777e-05
0.000233431
4.74497e-05
0.000222837
3.54041e-05
2.09789e-05
0.000214385
0.00044257
-3.39028e-05
0.000454561
-3.92901e-05
0.000465349
-4.046e-05
0.00047414
-3.72399e-05
0.000480492
-2.93983e-05
0.000484236
-1.78079e-05
0.000484716
-3.59056e-06
0.000481893
1.26498e-05
0.000476032
2.99052e-05
0.000467312
4.66802e-05
0.000454961
6.32183e-05
0.000440632
7.71499e-05
0.000424571
8.83936e-05
0.000407181
9.65678e-05
0.000389226
0.000101172
0.000371374
0.00010187
0.000354202
9.85509e-05
0.000338362
9.12804e-05
0.000324524
8.0423e-05
0.000313129
6.6782e-05
0.000304516
5.09366e-05
0.000298866
3.39018e-05
0.000296108
1.65014e-05
0.000296062
-5.31345e-07
0.000298488
-1.66165e-05
0.000303159
-3.11952e-05
0.000309569
-4.3891e-05
0.000317475
-5.41837e-05
0.000326406
-6.19617e-05
0.000335557
-6.65121e-05
0.00034474
-6.81184e-05
0.000352954
-6.62079e-05
0.000360054
-6.1169e-05
0.000365542
-5.35041e-05
0.000369374
-4.27687e-05
0.000371049
-2.97295e-05