/*--------------------------------*- C++ -*----------------------------------*\
  =========                 |
  \\      /  F ield         | OpenFOAM: The Open Source CFD Toolbox
   \\    /   O peration     | Website:  https://openfoam.org
    \\  /    A nd           | Version:  10
     \\/     M anipulation  |
\*---------------------------------------------------------------------------*/
FoamFile
{
    format      ascii;
    class       volScalarField;
    location    "0.448024";
    object      rho;
}
// * * * * * * * * * * * * * * * * * * * * * * * * * * * * * * * * * * * * * //

dimensions      [1 -3 0 0 0 0 0];

internalField   nonuniform List<scalar> 
15708
(
0.969651
0.972514
0.97558
0.978801
0.98214
0.985654
0.989214
0.992923
0.996633
1.00042
1.00412
1.00773
1.01121
1.0145
1.01757
1.02042
1.02294
1.02524
1.02713
1.0289
1.03004
1.03127
1.03189
1.03236
1.0326
1.03258
1.03233
1.03193
1.03132
1.03062
1.02977
1.02886
1.02788
1.02683
1.02577
1.02468
1.02358
1.0225
1.02146
1.02042
1.01944
1.01847
1.01755
1.01664
1.0158
1.01497
1.01419
1.01343
1.01273
1.01203
1.01139
0.969082
0.972096
0.975244
0.978655
0.982123
0.985788
0.989518
0.993337
0.997199
1.00105
1.00482
1.0085
1.01201
1.0153
1.01838
1.0212
1.02373
1.02596
1.02788
1.02951
1.03083
1.03186
1.0326
1.03309
1.03336
1.03337
1.03319
1.03283
1.0323
1.03163
1.03085
1.02999
1.02905
1.02805
1.02702
1.02596
1.02489
1.02381
1.02277
1.02173
1.02073
1.01974
1.01879
1.01786
1.01697
1.01611
1.01529
1.01448
1.01373
1.01299
1.0123
0.968725
0.971905
0.97522
0.978753
0.982435
0.98624
0.990135
0.994103
0.99807
1.00202
1.00587
1.00957
1.0131
1.01639
1.01945
1.02222
1.02476
1.0269
1.02885
1.0304
1.03172
1.03273
1.03346
1.03396
1.03424
1.03428
1.03413
1.0338
1.03332
1.0327
1.03196
1.03113
1.03022
1.02927
1.02825
1.02721
1.02615
1.02508
1.02402
1.02299
1.02197
1.02098
1.01997
1.019
1.01808
1.01718
1.01634
1.01549
1.01469
1.01393
1.01321
0.968704
0.971972
0.975538
0.979178
0.983084
0.987055
0.991134
0.99524
0.999346
1.00338
1.00729
1.01102
1.01456
1.01781
1.02086
1.02355
1.02602
1.02814
1.03
1.03153
1.03278
1.03376
1.03448
1.03498
1.03524
1.03529
1.03515
1.03483
1.03438
1.03379
1.03309
1.03229
1.03142
1.03046
1.02946
1.02843
1.02738
1.02631
1.02524
1.02418
1.02312
1.02209
1.02109
1.0201
1.01913
1.01821
1.0173
1.01646
1.01561
1.01484
1.01406
0.968952
0.972385
0.976109
0.97999
0.984044
0.988239
0.9925
0.996749
1.00099
1.00511
1.00904
1.01287
1.01626
1.01968
1.02241
1.02534
1.02752
1.02962
1.03143
1.03287
1.03403
1.03495
1.03565
1.03609
1.03633
1.03636
1.03622
1.03593
1.03547
1.03489
1.0342
1.0334
1.03255
1.0316
1.03061
1.02959
1.02853
1.02746
1.02637
1.02528
1.02421
1.02315
1.0221
1.02111
1.02011
1.01915
1.01824
1.01735
1.01651
1.01568
1.0149
0.969587
0.973074
0.977059
0.981028
0.985419
0.98972
0.99423
0.998642
1.00293
1.00722
1.01114
1.01496
1.01834
1.02163
1.02446
1.02707
1.02938
1.0313
1.033
1.03438
1.03546
1.03632
1.03693
1.03733
1.03751
1.03751
1.03733
1.03701
1.03656
1.03595
1.03525
1.03447
1.0336
1.03265
1.03166
1.03063
1.02958
1.0285
1.02738
1.0263
1.02518
1.02409
1.02307
1.02201
1.02102
1.02005
1.01911
1.01817
1.01733
1.01648
1.01571
0.970258
0.974242
0.977987
0.982827
0.986841
0.991829
0.996169
1.00085
1.00535
1.00936
1.01393
1.01667
1.02169
1.0231
1.02753
1.02869
1.03161
1.03309
1.03473
1.03599
1.03702
1.03775
1.03831
1.03862
1.03874
1.03867
1.03846
1.03809
1.03758
1.03697
1.03624
1.03544
1.03456
1.0336
1.03259
1.03154
1.03048
1.02938
1.02827
1.02717
1.02604
1.02496
1.02389
1.02284
1.02183
1.02085
1.0199
1.01898
1.0181
1.0173
1.01648
0.971008
0.975978
0.979368
0.984633
0.988822
0.993883
0.998543
1.00337
1.00777
1.01246
1.01566
1.02098
1.02246
1.02709
1.02854
1.03217
1.0332
1.0355
1.03662
1.03772
1.03865
1.03932
1.03979
1.03998
1.03999
1.03984
1.03952
1.03911
1.03855
1.03789
1.03713
1.03627
1.0354
1.03439
1.03338
1.03232
1.03126
1.03012
1.02902
1.0279
1.02681
1.0257
1.0246
1.02358
1.02256
1.02159
1.02063
1.01973
1.01886
1.018
1.01725
0.973039
0.977285
0.981445
0.98667
0.99117
0.996301
1.00128
1.00606
1.01071
1.01512
1.01917
1.02279
1.02623
1.02905
1.03181
1.03388
1.03589
1.03742
1.03875
1.0397
1.04047
1.04093
1.04124
1.04132
1.04122
1.04095
1.04058
1.04006
1.03944
1.03869
1.03791
1.037
1.03608
1.03504
1.03401
1.03293
1.03182
1.03074
1.02961
1.02851
1.02741
1.02632
1.02525
1.02422
1.02321
1.02224
1.02136
1.02043
1.01958
1.01875
1.01799
0.974626
0.978982
0.984116
0.988263
0.994482
0.998594
1.00432
1.00901
1.01372
1.01814
1.02217
1.02579
1.02916
1.03187
1.03448
1.03653
1.03828
1.0397
1.04082
1.04163
1.04224
1.04259
1.04276
1.04264
1.04241
1.04203
1.04155
1.04098
1.04016
1.03945
1.03848
1.03758
1.03657
1.03556
1.03443
1.03336
1.03228
1.03114
1.03004
1.02893
1.02786
1.02678
1.02577
1.02473
1.02379
1.02285
1.02196
1.02114
1.02026
1.01948
1.01872
0.976584
0.981575
0.986075
0.991493
0.996585
1.00194
1.00713
1.01225
1.01681
1.02167
1.02468
1.03005
1.03127
1.03539
1.03676
1.03965
1.04049
1.0422
1.043
1.04359
1.044
1.04423
1.04413
1.04394
1.04359
1.04304
1.04248
1.04163
1.0409
1.03993
1.03899
1.03796
1.03691
1.03584
1.03474
1.03361
1.03249
1.03139
1.0303
1.02924
1.02814
1.02714
1.02619
1.02519
1.0243
1.02344
1.02253
1.02179
1.02098
1.02023
1.01947
0.979007
0.98398
0.988991
0.994056
0.999653
1.00508
1.01028
1.01539
1.02018
1.02459
1.02858
1.03195
1.03529
1.03764
1.04002
1.04181
1.04317
1.04432
1.04509
1.04557
1.04581
1.04585
1.04568
1.04514
1.04469
1.04403
1.04319
1.04237
1.04133
1.04037
1.03926
1.03821
1.03706
1.03593
1.0348
1.03369
1.03253
1.03145
1.03039
1.02936
1.02834
1.02739
1.02645
1.02558
1.02471
1.02393
1.02312
1.02239
1.02163
1.02097
1.02024
0.982229
0.9861
0.992402
0.996874
1.00278
1.00812
1.01357
1.01863
1.02344
1.02788
1.03159
1.03534
1.03795
1.04086
1.04258
1.04449
1.0456
1.0466
1.04713
1.04749
1.0476
1.04747
1.04687
1.04644
1.04568
1.04483
1.04389
1.04288
1.04166
1.04075
1.03919
1.03843
1.03687
1.03587
1.03471
1.03356
1.03242
1.03134
1.03032
1.02933
1.02839
1.02751
1.02667
1.02585
1.0251
1.02433
1.02367
1.02296
1.02233
1.02167
1.02107
0.984466
0.989788
0.994642
1.00041
1.0057
1.01148
1.01668
1.02199
1.0265
1.03108
1.03475
1.03819
1.04097
1.0435
1.04535
1.04685
1.04808
1.04871
1.0492
1.04941
1.0492
1.04891
1.04836
1.04748
1.04665
1.04554
1.0445
1.04316
1.04205
1.04057
1.03953
1.03789
1.03685
1.03561
1.03436
1.03318
1.03209
1.03106
1.03005
1.02915
1.02828
1.02749
1.02678
1.02607
1.02542
1.0248
1.02416
1.0236
1.02299
1.02246
1.02185
0.988128
0.99267
0.997959
1.00352
1.00883
1.01457
1.01979
1.02506
1.02968
1.03392
1.03776
1.04093
1.0438
1.04603
1.04782
1.04932
1.05015
1.05091
1.05118
1.05119
1.05075
1.05041
1.04943
1.04865
1.04742
1.04626
1.04487
1.04355
1.04205
1.04057
1.03922
1.03763
1.03659
1.03491
1.03384
1.03271
1.03158
1.03055
1.02961
1.02879
1.02803
1.02733
1.02671
1.02615
1.02564
1.02514
1.02466
1.02423
1.02377
1.02325
1.02273
0.99132
0.995452
1.00185
1.00571
1.01318
1.0163
1.02397
1.02712
1.03282
1.03628
1.04051
1.04346
1.04634
1.04846
1.05031
1.05145
1.05239
1.05283
1.05302
1.0528
1.05242
1.05161
1.05069
1.04951
1.04823
1.04676
1.04535
1.0436
1.04204
1.0404
1.0388
1.03726
1.03581
1.03442
1.0331
1.03186
1.03084
1.02982
1.02905
1.02821
1.02762
1.0271
1.02658
1.02617
1.02581
1.02547
1.02513
1.0248
1.0245
1.02404
1.02374
0.994864
0.998883
1.00439
1.00979
1.01433
1.02146
1.02397
1.03211
1.03359
1.04053
1.04206
1.04655
1.04833
1.05052
1.05215
1.05348
1.05429
1.05464
1.05467
1.05453
1.05371
1.05298
1.05172
1.05043
1.04895
1.04723
1.0456
1.04365
1.04189
1.04002
1.03832
1.03657
1.03505
1.03351
1.03216
1.03094
1.0299
1.02894
1.02817
1.02753
1.02703
1.02663
1.02632
1.02609
1.02593
1.02579
1.02564
1.02545
1.02526
1.02499
1.02469
0.998725
1.00157
1.00808
1.012
1.01772
1.02271
1.02805
1.03252
1.03736
1.04113
1.04488
1.04793
1.0504
1.05265
1.05417
1.05531
1.05605
1.05638
1.05634
1.05587
1.05521
1.05412
1.05284
1.05133
1.04948
1.04786
1.04564
1.04362
1.04168
1.0395
1.03768
1.03578
1.03399
1.03245
1.03101
1.02976
1.02871
1.02787
1.02706
1.02661
1.02628
1.02609
1.026
1.02595
1.02603
1.02603
1.02614
1.02614
1.0261
1.026
1.02573
1.00097
1.00633
1.00961
1.01553
1.01985
1.02494
1.02975
1.0348
1.03867
1.04318
1.04624
1.04949
1.05209
1.05414
1.05582
1.05694
1.05759
1.05793
1.05785
1.05727
1.05658
1.05516
1.05388
1.05216
1.05017
1.04809
1.04586
1.04356
1.04119
1.03906
1.03681
1.03476
1.03288
1.03112
1.02964
1.02835
1.02732
1.02649
1.02587
1.02543
1.0253
1.0254
1.02563
1.02583
1.02614
1.02644
1.02664
1.02683
1.02692
1.02697
1.02688
1.00413
1.00916
1.01183
1.01866
1.02136
1.02708
1.03188
1.03514
1.04171
1.04289
1.04881
1.05033
1.05317
1.0553
1.05703
1.05828
1.05901
1.05934
1.05925
1.0586
1.05778
1.05631
1.05479
1.05292
1.05085
1.04839
1.04606
1.04338
1.04084
1.03834
1.03587
1.03363
1.03154
1.02967
1.02809
1.0267
1.02564
1.02488
1.02432
1.02418
1.02421
1.02439
1.02489
1.02546
1.02595
1.02653
1.02709
1.02757
1.02791
1.02805
1.02812
1.00891
1.0105
1.01656
1.0178
1.02492
1.02706
1.03346
1.0365
1.04061
1.04497
1.04815
1.05145
1.05411
1.05645
1.05802
1.05936
1.06005
1.06055
1.06051
1.06003
1.05909
1.05779
1.05579
1.05391
1.05137
1.0489
1.04604
1.04333
1.04029
1.03758
1.03488
1.03233
1.02999
1.02794
1.02621
1.02466
1.02362
1.02282
1.02238
1.02248
1.02271
1.0232
1.02389
1.02502
1.02596
1.02697
1.0277
1.02846
1.02895
1.02929
1.02958
1.01142
1.01391
1.01669
1.02179
1.02358
1.02977
1.03159
1.03857
1.04062
1.04462
1.04834
1.05145
1.05423
1.0568
1.05885
1.06039
1.06131
1.06171
1.0617
1.06109
1.06009
1.05868
1.05674
1.05465
1.05198
1.04921
1.04635
1.04294
1.03996
1.03668
1.03374
1.03082
1.02826
1.02599
1.02394
1.02234
1.02119
1.02035
1.02009
1.02002
1.021
1.0218
1.02283
1.02428
1.02575
1.02721
1.02839
1.02946
1.03015
1.0305
1.03078
1.0141
1.01594
1.01981
1.02065
1.02646
1.02712
1.03365
1.03536
1.04134
1.04327
1.04701
1.05063
1.05359
1.05598
1.05841
1.06036
1.06168
1.0625
1.06272
1.06245
1.06157
1.06009
1.05809
1.0558
1.05279
1.04984
1.04648
1.04271
1.03967
1.03556
1.0327
1.02911
1.02623
1.02353
1.02127
1.01944
1.01837
1.01761
1.01723
1.01793
1.01852
1.01973
1.02131
1.02327
1.02509
1.02663
1.02821
1.02989
1.03127
1.03213
1.03275
1.01701
1.01814
1.01945
1.02311
1.02356
1.02845
1.03014
1.03576
1.03753
1.04436
1.04624
1.04952
1.05289
1.05562
1.05794
1.06031
1.06222
1.06343
1.06394
1.06363
1.06275
1.06105
1.05918
1.05653
1.05361
1.05022
1.04698
1.04226
1.03964
1.0341
1.03177
1.0265
1.02485
1.0205
1.01897
1.0178
1.01726
1.01647
1.01672
1.01658
1.01702
1.01951
1.02032
1.0225
1.02495
1.02687
1.02833
1.02988
1.03145
1.03276
1.03377
1.01953
1.01981
1.02162
1.02506
1.02926
1.03431
1.03783
1.04353
1.04219
1.04745
1.04978
1.05252
1.05458
1.05618
1.05806
1.05961
1.06118
1.06308
1.06405
1.06461
1.064
1.06253
1.06056
1.05752
1.05487
1.05061
1.04755
1.04185
1.03917
1.03284
1.03122
1.02505
1.02553
1.02246
1.0242
1.02778
1.03247
1.03632
1.036
1.0375
1.03197
1.02704
1.03111
1.02651
1.02679
1.02808
1.02952
1.03062
1.03207
1.03382
1.03515
1.02269
1.02757
1.0405
1.06583
1.07898
1.11448
1.13486
1.13103
1.13861
1.11264
1.09429
1.08047
1.06872
1.06318
1.06177
1.06141
1.06218
1.06335
1.06469
1.065
1.06497
1.06384
1.0619
1.05883
1.05592
1.05133
1.04798
1.04174
1.03927
1.03264
1.03714
1.03012
1.04345
1.06583
1.07555
1.11495
1.15224
1.18406
1.18739
1.16968
1.17388
1.11939
1.07467
1.05828
1.04765
1.03874
1.03433
1.03328
1.03408
1.03574
1.03726
1.05016
1.12317
1.22428
1.34615
1.45345
1.56205
1.62584
1.6154
1.61892
1.53135
1.41664
1.26499
1.1529
1.09828
1.0731
1.06453
1.06319
1.06404
1.06538
1.06597
1.066
1.06509
1.063
1.06018
1.05686
1.05222
1.04792
1.04303
1.04427
1.04482
1.07759
1.08871
1.17996
1.29295
1.42004
1.55419
1.62815
1.69917
1.72153
1.70717
1.66531
1.55277
1.46354
1.24364
1.10531
1.05986
1.04261
1.03693
1.03621
1.0375
1.03914
1.43534
1.63476
1.77463
1.8514
1.89439
1.91302
1.92677
1.92844
1.92528
1.85964
1.8392
1.6721
1.46306
1.22811
1.11673
1.07951
1.06803
1.06554
1.06633
1.06721
1.06723
1.06643
1.06436
1.06177
1.05746
1.05387
1.05009
1.06046
1.08364
1.16064
1.28217
1.50967
1.67752
1.79288
1.85597
1.88449
1.89789
1.91699
1.91869
1.91522
1.90786
1.85104
1.78189
1.58902
1.30556
1.13238
1.06908
1.04409
1.03824
1.03891
1.04072
1.91221
1.94362
1.95333
1.94396
1.92869
1.90924
1.89776
1.90304
1.90798
1.89486
1.89654
1.83124
1.73634
1.42343
1.20677
1.11095
1.07717
1.06834
1.06743
1.06845
1.06843
1.0678
1.06583
1.06266
1.05929
1.06525
1.08601
1.17139
1.38074
1.65239
1.82146
1.90262
1.9202
1.91798
1.90121
1.88365
1.86294
1.86317
1.87076
1.8834
1.89349
1.89392
1.87054
1.76648
1.50274
1.19189
1.07148
1.04323
1.03807
1.04008
1.04275
1.98405
1.94906
1.90087
1.79375
1.7347
1.65927
1.62632
1.64081
1.69966
1.79918
1.84619
1.84382
1.77835
1.53026
1.2381
1.11379
1.07613
1.06793
1.06781
1.0692
1.06949
1.06897
1.0667
1.06549
1.079
1.15462
1.36771
1.71203
1.9138
1.96885
1.96762
1.93324
1.87748
1.79011
1.69893
1.62785
1.59395
1.60635
1.64912
1.73263
1.81994
1.85977
1.85985
1.76722
1.46245
1.1654
1.06006
1.03823
1.03853
1.04155
1.04463
1.87388
1.73511
1.5795
1.41632
1.3157
1.24741
1.25521
1.28779
1.36873
1.5518
1.74354
1.79755
1.75546
1.48919
1.2082
1.10042
1.07042
1.06618
1.06781
1.06955
1.07031
1.06941
1.0689
1.0998
1.27233
1.71296
1.9449
2.02563
2.01829
1.96663
1.8726
1.7265
1.56386
1.39873
1.28582
1.23359
1.22909
1.24715
1.29569
1.40426
1.61751
1.8101
1.82184
1.64782
1.4124
1.08182
1.03903
1.03568
1.03944
1.04626
1.07306
1.56835
1.34167
1.17089
1.11198
1.09654
1.10277
1.11726
1.15254
1.285
1.55191
1.72933
1.77923
1.64647
1.36124
1.13693
1.0735
1.06278
1.06486
1.06792
1.06986
1.06991
1.06797
1.12392
1.50742
1.95778
2.06804
2.05448
2.0091
1.91072
1.75629
1.56143
1.32874
1.16579
1.10724
1.10159
1.10922
1.12227
1.16504
1.29098
1.42527
1.66279
1.76262
1.69072
1.63236
1.10054
1.05241
1.03102
1.03613
1.04955
1.10245
1.33707
1.19166
1.08663
1.06036
1.06306
1.08097
1.12486
1.17455
1.28348
1.46454
1.63619
1.72013
1.65595
1.43704
1.15505
1.07388
1.05914
1.05993
1.06432
1.06769
1.07134
1.09297
1.2738
1.84063
2.0684
2.08163
2.05419
1.98433
1.8553
1.66329
1.41745
1.19052
1.07504
1.0523
1.06466
1.10484
1.17286
1.24947
1.32768
1.42588
1.57196
1.63384
1.66966
1.69686
1.10905
1.06596
1.02908
1.03514
1.05441
1.12574
1.42742
1.86789
1.06411
1.04496
1.05731
1.10541
1.20135
1.31072
1.42658
1.48847
1.56491
1.60387
1.54992
1.39574
1.14151
1.06273
1.05433
1.05351
1.05962
1.06594
1.08583
1.17369
1.57203
1.98699
2.09041
2.08546
2.04963
1.96436
1.8155
1.60313
1.34332
1.12486
1.04856
1.03745
1.05732
1.13353
1.2417
1.35885
1.43588
1.45896
1.54729
1.58597
1.64767
1.68156
1.07146
1.06201
1.02626
1.03168
1.05359
1.16689
1.53968
1.852
2.04741
1.04178
1.04241
1.0801
1.15288
1.26153
1.35379
1.40866
1.45347
1.46272
1.42367
1.23461
1.0755
1.061
1.04035
1.04862
1.05425
1.06788
1.11222
1.28385
1.75645
2.0291
2.09287
2.08659
2.04702
1.95734
1.8072
1.59653
1.34676
1.1308
1.04462
1.02893
1.0461
1.08316
1.18183
1.28294
1.35424
1.39557
1.45684
1.45692
1.45135
1.33061
1.05921
1.04771
1.02322
1.0336
1.07345
1.2243
1.64007
1.8709
2.04745
2.05447
1.03868
1.03984
1.05595
1.09655
1.14202
1.21062
1.21515
1.22889
1.18494
1.06745
1.07518
1.03137
1.04071
1.04565
1.05169
1.08195
1.16977
1.45695
1.86008
2.05601
2.08982
2.08628
2.04926
1.96755
1.83275
1.64291
1.41397
1.18865
1.05007
1.02529
1.02163
1.01964
1.05224
1.10069
1.16235
1.19804
1.2242
1.22139
1.1703
1.08994
1.04533
1.01762
1.03059
1.03622
1.09902
1.31684
1.72253
1.88734
2.03265
2.04838
2.06048
1.03554
1.03145
1.03306
1.04207
1.05941
1.0568
1.06131
1.05722
1.0401
1.02757
1.03272
1.03338
1.04123
1.05513
1.11598
1.2816
1.66588
1.9629
2.04292
2.0886
2.08387
2.05862
1.99285
1.88823
1.73055
1.52836
1.30655
1.11109
1.04001
1.01522
1.00869
1.00343
1.00677
1.0207
1.03034
1.03689
1.03687
1.03167
1.02082
1.00737
1.01873
1.0307
1.06944
1.18259
1.47895
1.71586
1.97612
1.97893
2.04263
2.05133
2.05856
1.0425
1.03491
1.03109
1.02935
1.02974
1.02867
1.02824
1.02847
1.02833
1.03404
1.03973
1.05777
1.10338
1.2247
1.50353
1.78636
2.01284
2.04436
2.08174
2.08284
2.06613
2.02299
1.95109
1.83575
1.67358
1.47013
1.25595
1.08827
1.02129
1.01752
1.00334
0.99694
0.993031
0.994606
0.995734
0.99721
1.00084
1.00152
1.00951
1.01866
1.04489
1.11493
1.32316
1.61415
1.78116
1.95877
1.97018
2.0265
2.04142
2.0483
2.05175
1.05251
1.04757
1.04069
1.03747
1.03783
1.03883
1.03881
1.04164
1.05115
1.06888
1.11235
1.2195
1.4602
1.68825
1.96515
1.97271
2.06294
2.06911
2.07769
2.06963
2.04422
1.99915
1.9263
1.81364
1.66049
1.47343
1.27556
1.0995
1.0459
1.01319
1.01008
1.00112
0.99665
0.996909
0.999359
1.00253
1.00827
1.02218
1.04968
1.11063
1.26369
1.51736
1.70522
1.87706
1.92275
1.98698
2.00766
2.03068
2.03758
2.04139
2.04195
1.09682
1.08135
1.06843
1.06427
1.06683
1.07542
1.08676
1.11594
1.17347
1.29826
1.50031
1.69076
1.93931
1.93862
2.04
2.04034
2.06851
2.06942
2.06831
2.05519
2.03095
1.99245
1.9268
1.82887
1.69559
1.52797
1.34682
1.18387
1.05236
1.04203
1.0231
1.01972
1.01291
1.01499
1.02496
1.0423
1.07833
1.14839
1.29412
1.47509
1.65598
1.79326
1.88303
1.95864
1.97491
2.00744
2.01425
2.0253
2.03019
2.03129
2.03347
1.2813
1.18009
1.19195
1.18587
1.2135
1.27778
1.37281
1.48177
1.63907
1.76979
1.88124
1.95707
2.0225
2.02129
2.05456
2.05599
2.06256
2.06212
2.0569
2.04445
2.02633
1.99477
1.94311
1.86794
1.76369
1.62965
1.47583
1.32034
1.20205
1.08948
1.09766
1.0751
1.08588
1.10406
1.16242
1.25785
1.37193
1.51819
1.64348
1.76819
1.85366
1.93152
1.93971
1.97943
1.99061
2.00465
2.01287
2.01802
2.01998
2.02239
2.02631
1.68545
1.6442
1.60688
1.59973
1.64324
1.73703
1.8014
1.88103
1.94093
1.98355
2.01382
2.04262
2.03682
2.05291
2.05212
2.05449
2.05389
2.05161
2.04676
2.03725
2.02402
2.00029
1.96424
1.91247
1.84073
1.74799
1.63947
1.52649
1.42713
1.35049
1.33397
1.31943
1.34231
1.40304
1.49399
1.5961
1.68237
1.77982
1.84359
1.8882
1.93845
1.94727
1.97314
1.98361
1.9929
2.00082
2.00428
2.0088
2.01215
2.01576
2.01823
2.00303
1.962
1.96068
1.94982
1.96999
2.00587
2.02659
2.03856
2.04795
2.05912
2.04739
2.05564
2.04682
2.05097
2.04714
2.04641
2.04452
2.04208
2.03719
2.03093
2.02106
2.00529
1.98167
1.94965
1.90541
1.84916
1.78322
1.7135
1.6493
1.62473
1.60107
1.60242
1.62938
1.68378
1.7553
1.81062
1.8548
1.89501
1.92848
1.9377
1.95637
1.96163
1.97417
1.98228
1.98825
1.99209
1.99687
2.00061
2.00493
2.0077
2.01106
2.11992
2.11906
2.11159
2.10627
2.10544
2.10635
2.1003
2.0908
2.08192
2.07565
2.05907
2.05433
2.05057
2.04364
2.0409
2.03815
2.03536
2.03284
2.02861
2.02405
2.017
2.00638
1.99156
1.97261
1.94708
1.91598
1.88083
1.84462
1.81246
1.80298
1.79159
1.79575
1.81761
1.85244
1.88802
1.90611
1.92448
1.9381
1.9461
1.95667
1.95863
1.96623
1.97131
1.97663
1.97976
1.98514
1.98834
1.99344
1.99659
2.00051
2.00375
2.16856
2.16876
2.16568
2.16072
2.15246
2.14203
2.1263
2.1107
2.09395
2.0777
2.06486
2.05432
2.04529
2.03872
2.03442
2.03033
2.02715
2.02419
2.02084
2.01689
2.01202
2.00458
1.99516
1.98382
1.96902
1.95229
1.93383
1.91805
1.90311
1.89868
1.89297
1.89793
1.91077
1.92627
1.93752
1.94053
1.94691
1.94999
1.95398
1.95409
1.95736
1.96121
1.96494
1.96836
1.97283
1.97691
1.98132
1.98583
1.9895
1.99382
1.99691
2.19136
2.19281
2.19015
2.18421
2.17256
2.15833
2.13895
2.11977
2.09864
2.08168
2.06473
2.05175
2.04187
2.03359
2.02801
2.02343
2.01988
2.01678
2.01377
2.01036
2.00682
2.00158
1.99538
1.98829
1.97953
1.97029
1.96057
1.95322
1.94676
1.94267
1.94021
1.94302
1.94739
1.95123
1.95149
1.95062
1.95074
1.95033
1.95102
1.95001
1.95182
1.95446
1.95723
1.96071
1.96542
1.9692
1.97437
1.97842
1.98244
1.98643
1.98933
2.20611
2.20758
2.20477
2.19763
2.18553
2.16743
2.14804
2.12466
2.10362
2.08148
2.0662
2.04831
2.04021
2.02824
2.02312
2.01791
2.01385
2.01094
2.00806
2.00522
2.00245
1.99883
1.99464
1.98971
1.98434
1.97875
1.97326
1.9692
1.96481
1.96202
1.9598
1.95991
1.9595
1.95824
1.95525
1.95269
1.95
1.94763
1.9458
1.94467
1.94512
1.94664
1.94941
1.95267
1.9574
1.96141
1.96693
1.97011
1.97455
1.9772
1.97932
2.21737
2.21845
2.21528
2.208
2.19374
2.17635
2.15344
2.13068
2.10499
2.08451
2.06387
2.04874
2.03535
2.02578
2.01915
2.01303
2.00978
2.00627
2.00376
2.00136
1.9991
1.99645
1.9935
1.99002
1.98643
1.98281
1.97927
1.97622
1.97286
1.97032
1.96781
1.96616
1.96327
1.95977
1.95509
1.95086
1.94634
1.9424
1.93885
1.93726
1.93581
1.93702
1.93914
1.9426
1.94761
1.95262
1.95812
1.96204
1.96628
1.96998
1.97377
2.22686
2.22754
2.22379
2.21557
2.20126
2.18215
2.15864
2.13418
2.10809
2.08501
2.06434
2.04737
2.03352
2.02415
2.01533
2.01025
2.00637
2.0031
2.00079
1.99877
1.99702
1.99515
1.99324
1.99066
1.98791
1.98545
1.98291
1.98042
1.97769
1.97502
1.97195
1.96871
1.96477
1.95992
1.95463
1.94925
1.94362
1.93846
1.93352
1.92894
1.92742
1.92725
1.92995
1.9336
1.93946
1.94554
1.9507
1.95586
1.95921
1.96167
1.96338
2.23467
2.23474
2.23062
2.22151
2.20817
2.18348
2.16913
2.13128
2.11645
2.08235
2.06791
2.04552
2.03372
2.02189
2.01391
2.00857
2.00414
2.0016
1.99957
1.998
1.99672
1.99546
1.99418
1.99255
1.99053
1.98851
1.98638
1.98412
1.98157
1.97862
1.97545
1.97137
1.96694
1.96113
1.95468
1.94775
1.94011
1.93225
1.92426
1.91731
1.91465
1.91385
1.91567
1.92016
1.92555
1.93407
1.94109
1.94747
1.95144
1.95525
1.95897
2.2415
2.24091
2.2366
2.22669
2.21318
2.18791
2.17298
2.13465
2.11902
2.0842
2.06926
2.04574
2.0339
2.02174
2.01337
2.00816
2.00381
2.00173
1.99975
1.99874
1.99782
1.99705
1.99624
1.99532
1.99393
1.99241
1.99079
1.98896
1.98647
1.98388
1.98008
1.97555
1.96987
1.96238
1.95396
1.94463
1.93379
1.92274
1.912
1.90436
1.89489
1.89193
1.89203
1.89573
1.91155
1.92065
1.94032
1.94911
1.95926
1.96125
1.96412
1.01077
1.01017
1.00963
1.00912
1.00866
1.00825
1.00793
1.00768
1.00753
1.0075
1.00758
1.00779
1.00815
1.00867
1.00931
1.01016
1.01109
1.01224
1.01348
1.01488
1.01638
1.01796
1.01964
1.02137
1.02315
1.02494
1.01166
1.01102
1.01045
1.0099
1.00942
1.00898
1.00862
1.00834
1.00815
1.00806
1.00808
1.00823
1.00852
1.00895
1.0095
1.01022
1.01109
1.01208
1.01319
1.01445
1.01579
1.01722
1.01874
1.02029
1.02189
1.02351
1.0125
1.01186
1.01127
1.01067
1.01016
1.0097
1.0093
1.00899
1.00876
1.00863
1.0086
1.00869
1.00891
1.00924
1.00974
1.01035
1.01108
1.01198
1.01297
1.01405
1.01525
1.01651
1.01786
1.01924
1.02069
1.02213
1.01336
1.01267
1.01201
1.01144
1.0109
1.01042
1.01
1.00965
1.00939
1.00921
1.00913
1.00916
1.00931
1.00959
1.00998
1.01048
1.01114
1.01187
1.01273
1.01371
1.01473
1.01583
1.01702
1.0182
1.01951
1.02071
1.01415
1.01347
1.0128
1.0122
1.01163
1.01112
1.01069
1.01031
1.01001
1.0098
1.00966
1.00963
1.00971
1.0099
1.01023
1.01064
1.01117
1.01179
1.01255
1.01332
1.01423
1.01517
1.01619
1.01719
1.01834
1.01935
1.01495
1.01423
1.01357
1.01295
1.01236
1.01183
1.01137
1.01096
1.01063
1.01038
1.0102
1.0101
1.01011
1.01023
1.01046
1.01077
1.0112
1.01169
1.0123
1.01296
1.01374
1.01451
1.01541
1.01622
1.0172
1.01803
1.01573
1.015
1.01432
1.01367
1.01311
1.01254
1.01204
1.01163
1.01125
1.01095
1.01073
1.01058
1.01051
1.01053
1.01064
1.01086
1.01115
1.01157
1.01213
1.01266
1.01329
1.01389
1.0146
1.0152
1.01605
1.01669
1.01649
1.01574
1.01509
1.01442
1.01383
1.01326
1.01274
1.01228
1.01186
1.01151
1.01122
1.01103
1.01086
1.01082
1.01086
1.01099
1.01119
1.01145
1.01182
1.01216
1.01269
1.01313
1.01373
1.01421
1.01489
1.01542
1.01724
1.01651
1.01587
1.01517
1.01458
1.01398
1.01343
1.01292
1.01244
1.01204
1.01169
1.01139
1.0112
1.01103
1.01098
1.011
1.01109
1.01127
1.0115
1.01173
1.01209
1.01239
1.01283
1.01318
1.01368
1.01412
1.018
1.01728
1.01661
1.01593
1.01531
1.0147
1.01411
1.01357
1.01307
1.01255
1.01213
1.01177
1.01148
1.01125
1.01103
1.01095
1.01093
1.01095
1.01103
1.01116
1.01136
1.01158
1.01188
1.01215
1.01249
1.01281
1.01878
1.01815
1.01736
1.01673
1.01606
1.01544
1.01479
1.01419
1.01364
1.01305
1.01257
1.0121
1.01168
1.01133
1.01105
1.01076
1.01063
1.01056
1.01053
1.01055
1.01062
1.01067
1.01085
1.01101
1.01125
1.01145
1.01955
1.01891
1.01822
1.0175
1.01688
1.01618
1.01552
1.01485
1.01417
1.01357
1.01294
1.01236
1.01183
1.01134
1.01095
1.01051
1.01026
1.00994
1.0098
1.00977
1.00971
1.00969
1.0097
1.00979
1.00987
1.01002
1.02033
1.01976
1.01907
1.01838
1.01764
1.01695
1.01628
1.01548
1.01476
1.01401
1.01327
1.01256
1.01185
1.01125
1.01068
1.01014
1.0097
1.00923
1.00897
1.00877
1.00857
1.00841
1.00839
1.00839
1.00846
1.00854
1.02124
1.02059
1.01999
1.01921
1.01854
1.01777
1.01697
1.01615
1.01527
1.01442
1.01353
1.01266
1.01184
1.01103
1.01027
1.0096
1.009
1.00835
1.00788
1.00746
1.00725
1.0071
1.00694
1.00683
1.00681
1.00684
1.02218
1.02154
1.02096
1.02023
1.01943
1.0186
1.01771
1.01678
1.0158
1.01476
1.01375
1.01267
1.01164
1.01064
1.0097
1.00882
1.00801
1.00731
1.00654
1.00603
1.00566
1.00541
1.00518
1.00507
1.00505
1.00506
1.02313
1.02259
1.02202
1.02127
1.02042
1.01951
1.01849
1.01745
1.01628
1.01513
1.01382
1.01261
1.01137
1.01011
1.00897
1.00781
1.00677
1.00586
1.0049
1.00418
1.00373
1.00337
1.00315
1.003
1.00289
1.00307
1.02422
1.02371
1.02304
1.0223
1.02145
1.02039
1.01936
1.01801
1.01686
1.0153
1.01397
1.01242
1.01095
1.00947
1.00796
1.00657
1.00518
1.00402
1.00279
1.00192
1.0012
1.0007
1.00041
1.00047
1.00071
1.00089
1.02538
1.02489
1.02418
1.02344
1.02259
1.02134
1.0203
1.01869
1.01741
1.01552
1.01409
1.01201
1.01055
1.00841
1.00683
1.00517
1.00337
1.00198
1.00085
0.999739
0.998868
0.998289
0.998022
0.997802
0.997899
0.998147
1.02664
1.02618
1.02549
1.02464
1.02384
1.02241
1.02134
1.0193
1.01819
1.01554
1.01437
1.01125
1.01042
1.00709
1.00697
1.00379
1.00287
1.00236
1.00134
1.00194
1.0011
1.00039
0.999416
0.998548
0.997505
0.996949
1.02795
1.02753
1.02686
1.02596
1.02509
1.02361
1.02237
1.02018
1.0188
1.01573
1.01445
1.01089
1.0112
1.00737
1.01155
1.00754
1.01288
1.01942
1.02215
1.03034
1.03286
1.02979
1.02814
1.01918
1.01157
1.00514
1.02951
1.02922
1.02858
1.02757
1.02669
1.02473
1.02366
1.02074
1.01943
1.01582
1.01566
1.01176
1.01982
1.01606
1.04137
1.03988
1.07648
1.1199
1.14341
1.18639
1.1962
1.19624
1.16656
1.13307
1.08763
1.05261
1.03089
1.03055
1.02998
1.02917
1.02774
1.02652
1.02441
1.02184
1.0205
1.01747
1.02234
1.0241
1.0625
1.07586
1.1625
1.26852
1.37853
1.48027
1.54153
1.58824
1.59611
1.57875
1.5674
1.49595
1.42902
1.25527
1.033
1.03272
1.03205
1.03102
1.02968
1.02812
1.02573
1.02391
1.02479
1.02978
1.0588
1.12157
1.23
1.42109
1.58027
1.6833
1.73787
1.75305
1.75665
1.75101
1.74406
1.74001
1.72652
1.71469
1.65654
1.60767
1.03415
1.03416
1.03382
1.03307
1.03151
1.02981
1.0281
1.03507
1.04851
1.11569
1.26253
1.49926
1.69351
1.78945
1.82007
1.81519
1.796
1.76171
1.73724
1.69571
1.68948
1.69426
1.70724
1.71176
1.71477
1.68579
1.03585
1.03626
1.03591
1.03521
1.03368
1.03312
1.04396
1.08325
1.22247
1.49348
1.73999
1.85122
1.87291
1.85919
1.8229
1.75163
1.65872
1.52627
1.44855
1.38529
1.3829
1.40787
1.48394
1.60806
1.67538
1.6774
1.03804
1.03846
1.03829
1.03738
1.038
1.05421
1.12621
1.37678
1.71775
1.88312
1.92043
1.90776
1.86152
1.76249
1.6054
1.40963
1.24178
1.15767
1.14092
1.14703
1.16396
1.19586
1.28996
1.48087
1.61608
1.65288
1.04014
1.04087
1.04069
1.0421
1.06497
1.18505
1.57271
1.86788
1.95927
1.95685
1.91415
1.81088
1.63736
1.41241
1.19369
1.08358
1.06222
1.07241
1.09826
1.13908
1.17824
1.23625
1.39701
1.54839
1.60221
1.58927
1.04227
1.04291
1.04464
1.07599
1.25934
1.72207
1.96375
1.99839
1.97195
1.88986
1.73232
1.51428
1.26721
1.09423
1.03203
1.02454
1.05235
1.12241
1.23157
1.32098
1.41559
1.46742
1.50312
1.52478
1.49535
1.37278
1.04438
1.045
1.08301
1.35536
1.84961
2.01271
2.01517
1.96743
1.85091
1.66749
1.43861
1.19672
1.04617
1.01586
1.00799
1.0314
1.09223
1.20239
1.31498
1.36387
1.37459
1.37935
1.34809
1.26972
1.15165
1.06275
1.0505
1.1167
1.50782
1.93609
2.0331
2.02301
1.95807
1.82733
1.63988
1.41121
1.17556
1.03403
1.01508
0.999583
1.00727
1.02859
1.04871
1.06086
1.07714
1.09883
1.10097
1.08308
1.03976
1.00756
1.00257
0.972858
1.22544
1.72662
2.01078
2.04775
2.02929
1.95777
1.82915
1.64675
1.42193
1.19791
1.03985
1.0201
1.00157
0.993251
0.98585
0.984252
0.987311
0.981267
0.982853
0.97712
0.975397
0.970481
0.96563
0.964075
0.965527
0.968171
1.83169
2.03403
2.05455
2.03715
1.97233
1.86345
1.70548
1.50266
1.28173
1.08997
1.03862
1.00887
1.00021
0.990059
0.983122
0.977545
0.973178
0.969424
0.962958
0.963665
0.959836
0.962359
0.963498
0.968471
0.975893
0.992666
2.03258
2.05901
2.04745
2.0065
1.92651
1.81329
1.65107
1.44613
1.22722
1.08121
1.02749
1.01708
1.00222
0.992482
0.98597
0.98259
0.979624
0.978242
0.977983
0.982599
0.989495
1.00514
1.03044
1.07407
1.15056
1.28726
2.05653
2.06092
2.03312
1.98428
1.90801
1.79488
1.64234
1.46359
1.28702
1.15245
1.06901
1.06451
1.04329
1.03815
1.03604
1.05169
1.07788
1.10958
1.15602
1.2134
1.29886
1.39608
1.51772
1.64179
1.76451
1.82014
2.06339
2.0556
2.03265
2.00199
1.96036
1.90057
1.81604
1.70422
1.57422
1.45084
1.39788
1.36373
1.36243
1.37985
1.4344
1.51441
1.58594
1.67175
1.72663
1.79297
1.83112
1.86503
1.88867
1.89072
1.90907
1.91975
2.06159
2.05356
2.04163
2.02963
2.01306
1.99173
1.96467
1.93358
1.9014
1.88133
1.86336
1.85884
1.86151
1.88051
1.90894
1.92059
1.93407
1.92746
1.92577
1.91809
1.91951
1.92027
1.91894
1.92456
1.92631
1.93037
2.05846
2.05401
2.04908
2.04269
2.0357
2.02853
2.0202
2.0125
2.00513
1.99865
1.99237
1.98664
1.98061
1.97515
1.96776
1.96077
1.95318
1.94568
1.9384
1.93209
1.92877
1.92341
1.92421
1.92389
1.92538
1.92771
2.05007
2.04853
2.04561
2.0423
2.03763
2.03324
2.02816
2.02307
2.01696
2.01136
2.00433
1.99777
1.9903
1.98289
1.97466
1.96602
1.95753
1.94962
1.93781
1.93439
1.92468
1.9237
1.92086
1.92124
1.92206
1.92361
2.04155
2.0422
2.03958
2.03736
2.03384
2.03072
2.02638
2.02206
2.01627
2.01095
2.0042
1.99767
1.98996
1.98188
1.97315
1.96406
1.95532
1.94652
1.93859
1.92863
1.92564
1.9193
1.91898
1.9183
1.91898
1.92024
2.03403
2.03392
2.03304
2.03173
2.02913
2.02665
2.02262
2.0187
2.01323
2.00794
2.00134
1.99438
1.98666
1.97831
1.96985
1.96089
1.95197
1.94314
1.93376
1.92508
1.92116
1.91532
1.91488
1.91426
1.91511
1.91624
2.02593
2.02821
2.02703
2.02667
2.02479
2.0228
2.01952
2.01593
2.01051
2.00549
1.99823
1.99133
1.98275
1.97429
1.96514
1.95613
1.94645
1.93668
1.92869
1.91651
1.91456
1.9081
1.9087
1.90813
1.90975
1.91128
2.01983
2.02106
2.02156
2.02166
2.02044
2.01879
2.01587
2.01229
2.00686
2.0015
1.99378
1.98648
1.97733
1.96838
1.95854
1.94848
1.93839
1.92794
1.92036
1.90708
1.90453
1.89849
1.90005
1.90001
1.90289
1.90581
2.01268
2.01467
2.01562