/*--------------------------------*- C++ -*----------------------------------*\
  =========                 |
  \\      /  F ield         | OpenFOAM: The Open Source CFD Toolbox
   \\    /   O peration     | Website:  https://openfoam.org
    \\  /    A nd           | Version:  10
     \\/     M anipulation  |
\*---------------------------------------------------------------------------*/
FoamFile
{
    format      ascii;
    class       volVectorField;
    location    "0.149786";
    object      U;
}
// * * * * * * * * * * * * * * * * * * * * * * * * * * * * * * * * * * * * * //

dimensions      [0 1 -1 0 0 0 0];

internalField   nonuniform List<vector> 
15984
(
(0.530972 -0.111456 0)
(0.533137 -0.109332 0)
(0.53504 -0.106522 0)
(0.536619 -0.103209 0)
(0.537838 -0.099447 0)
(0.538677 -0.095262 0)
(0.539106 -0.0906872 0)
(0.539108 -0.085745 0)
(0.538658 -0.0804403 0)
(0.537732 -0.07478 0)
(0.536306 -0.0687708 0)
(0.534353 -0.0624129 0)
(0.531845 -0.0557113 0)
(0.528749 -0.0486804 0)
(0.525039 -0.041352 0)
(0.520828 -0.0337825 0)
(0.516066 -0.026058 0)
(0.510526 -0.0182442 0)
(0.504216 -0.0104815 0)
(0.497283 -0.00300285 0)
(0.489881 0.00398263 0)
(0.482002 0.0102126 0)
(0.473749 0.0154655 0)
(0.465281 0.0195324 0)
(0.456786 0.0222525 0)
(0.448478 0.0235252 0)
(0.440591 0.0233282 0)
(0.433361 0.021721 0)
(0.427015 0.0188352 0)
(0.421749 0.0148506 0)
(0.417716 0.00997839 0)
(0.415016 0.00444154 0)
(0.413681 -0.00155485 0)
(0.41372 -0.00781491 0)
(0.415055 -0.0141878 0)
(0.41758 -0.0205561 0)
(0.421166 -0.0268288 0)
(0.425639 -0.0329635 0)
(0.430879 -0.0388786 0)
(0.4367 -0.0445188 0)
(0.442946 -0.0498205 0)
(0.449506 -0.0546998 0)
(0.456153 -0.0591097 0)
(0.462714 -0.0629612 0)
(0.469017 -0.066147 0)
(0.474897 -0.0685301 0)
(0.480229 -0.0700049 0)
(0.484865 -0.0703847 0)
(0.488704 -0.0695391 0)
(0.491682 -0.0673497 0)
(0.493778 -0.0637145 0)
(0.49513 -0.0586632 0)
(0.495883 -0.052248 0)
(0.49625 -0.0446181 0)
(0.532953 -0.104745 0)
(0.535712 -0.102374 0)
(0.538152 -0.0993096 0)
(0.540226 -0.0957376 0)
(0.541897 -0.0916999 0)
(0.543146 -0.0872399 0)
(0.543962 -0.082383 0)
(0.544327 -0.0771562 0)
(0.544226 -0.071584 0)
(0.54364 -0.065682 0)
(0.542544 -0.0594653 0)
(0.540909 -0.052953 0)
(0.538699 -0.0461692 0)
(0.535871 -0.0391471 0)
(0.532379 -0.031935 0)
(0.528313 -0.024601 0)
(0.523611 -0.0172232 0)
(0.518005 -0.00993801 0)
(0.511449 -0.00289855 0)
(0.504093 0.00375457 0)
(0.495975 0.00971749 0)
(0.48717 0.0147961 0)
(0.477791 0.0187791 0)
(0.468024 0.0215015 0)
(0.458122 0.0228511 0)
(0.448372 0.0227921 0)
(0.43909 0.0213701 0)
(0.430591 0.0187121 0)
(0.423156 0.0150045 0)
(0.417012 0.0104609 0)
(0.412326 0.00530695 0)
(0.409183 -0.000249511 0)
(0.407604 -0.00601738 0)
(0.407543 -0.0118547 0)
(0.408895 -0.0176583 0)
(0.411521 -0.0233602 0)
(0.415242 -0.0289242 0)
(0.419921 -0.0343524 0)
(0.425399 -0.03953 0)
(0.431523 -0.0444988 0)
(0.438141 -0.0491882 0)
(0.445067 -0.0535837 0)
(0.452158 -0.0576288 0)
(0.459259 -0.0612434 0)
(0.466227 -0.0643216 0)
(0.472911 -0.0667338 0)
(0.479161 -0.0683525 0)
(0.484856 -0.069056 0)
(0.489904 -0.0686918 0)
(0.494213 -0.0671377 0)
(0.497712 -0.0642465 0)
(0.500445 -0.0599638 0)
(0.502509 -0.0543385 0)
(0.504048 -0.0473971 0)
(0.535163 -0.0971519 0)
(0.538513 -0.0945658 0)
(0.541499 -0.0912947 0)
(0.544073 -0.0875055 0)
(0.546201 -0.0832478 0)
(0.547873 -0.0785557 0)
(0.549079 -0.0734635 0)
(0.549804 -0.068 0)
(0.550038 -0.062195 0)
(0.549764 -0.0560792 0)
(0.548956 -0.049679 0)
(0.54758 -0.0430293 0)
(0.54559 -0.0361722 0)
(0.542932 -0.029162 0)
(0.539541 -0.0220708 0)
(0.535503 -0.0149713 0)
(0.530697 -0.00797182 0)
(0.524842 -0.00125604 0)
(0.5179 0.00507926 0)
(0.509876 0.0107446 0)
(0.500896 0.0155518 0)
(0.491036 0.0193238 0)
(0.480423 0.021864 0)
(0.469311 0.0230627 0)
(0.45802 0.0228828 0)
(0.446922 0.02137 0)
(0.436419 0.0186593 0)
(0.426885 0.014947 0)
(0.418637 0.0104682 0)
(0.411913 0.00546219 0)
(0.406858 0.000142821 0)
(0.403538 -0.00529992 0)
(0.401927 -0.0107252 0)
(0.401934 -0.0160411 0)
(0.403415 -0.0212055 0)
(0.406197 -0.0261912 0)
(0.410077 -0.0310495 0)
(0.414952 -0.0357006 0)
(0.420665 -0.040197 0)
(0.426987 -0.0445309 0)
(0.433822 -0.0486864 0)
(0.44104 -0.0526359 0)
(0.448479 -0.0563328 0)
(0.456015 -0.0596952 0)
(0.463523 -0.0626403 0)
(0.470861 -0.0650551 0)
(0.477896 -0.066812 0)
(0.484508 -0.067769 0)
(0.490595 -0.0677944 0)
(0.49609 -0.0667569 0)
(0.500906 -0.0645252 0)
(0.504986 -0.060955 0)
(0.508392 -0.0560454 0)
(0.511186 -0.0498086 0)
(0.537561 -0.0888828 0)
(0.541504 -0.0861194 0)
(0.545032 -0.0826893 0)
(0.548111 -0.0787372 0)
(0.550705 -0.074308 0)
(0.552807 -0.0694384 0)
(0.554408 -0.0641615 0)
(0.555496 -0.0585097 0)
(0.556057 -0.0525153 0)
(0.556075 -0.0462181 0)
(0.555522 -0.039662 0)
(0.554352 -0.032894 0)
(0.552511 -0.0259763 0)
(0.549924 -0.0189868 0)
(0.546528 -0.0120301 0)
(0.542376 -0.00517709 0)
(0.537315 0.00144115 0)
(0.53102 0.0076049 0)
(0.523413 0.0130764 0)
(0.51454 0.0176931 0)
(0.504528 0.021258 0)
(0.493452 0.0235876 0)
(0.481493 0.024551 0)
(0.468995 0.0241052 0)
(0.45637 0.0223094 0)
(0.444075 0.0193128 0)
(0.432581 0.0153374 0)
(0.4223 0.0106473 0)
(0.413558 0.00551222 0)
(0.406565 0.000169241 0)
(0.401437 -0.00518362 0)
(0.398188 -0.0104014 0)
(0.39674 -0.0153991 0)
(0.396949 -0.0201467 0)
(0.398646 -0.0246441 0)
(0.401592 -0.0289609 0)
(0.405661 -0.0330989 0)
(0.410717 -0.0370676 0)
(0.416529 -0.0409536 0)
(0.423013 -0.0447179 0)
(0.430031 -0.0483715 0)
(0.437429 -0.0519092 0)
(0.445115 -0.0552908 0)
(0.452969 -0.0584449 0)
(0.460882 -0.0612909 0)
(0.468748 -0.0637191 0)
(0.476445 -0.0656005 0)
(0.483859 -0.0667916 0)
(0.490887 -0.0671414 0)
(0.497438 -0.0665144 0)
(0.503455 -0.0647957 0)
(0.508854 -0.0618486 0)
(0.513578 -0.0575648 0)
(0.517678 -0.051953 0)
(0.540112 -0.0801513 0)
(0.544638 -0.0772583 0)
(0.548705 -0.0737213 0)
(0.552291 -0.0696604 0)
(0.555357 -0.0651167 0)
(0.557897 -0.0601245 0)
(0.5599 -0.0547153 0)
(0.561355 -0.0489226 0)
(0.562245 -0.0427843 0)
(0.562543 -0.0363429 0)
(0.562214 -0.029658 0)
(0.561207 -0.0227956 0)
(0.559446 -0.0158352 0)
(0.556832 -0.00889119 0)
(0.553332 -0.00207555 0)
(0.548956 0.00460694 0)
(0.543411 0.0107483 0)
(0.53643 0.0162531 0)
(0.527955 0.0208455 0)
(0.518028 0.0243584 0)
(0.506758 0.0265921 0)
(0.494291 0.0273698 0)
(0.480894 0.0266741 0)
(0.467013 0.0245431 0)
(0.453161 0.0211406 0)
(0.439874 0.0167257 0)
(0.427668 0.0116037 0)
(0.416965 0.00608638 0)
(0.408058 0.000453923 0)
(0.40111 -0.00507307 0)
(0.396179 -0.0103331 0)
(0.393215 -0.0152396 0)
(0.392081 -0.0197704 0)
(0.392598 -0.0239419 0)
(0.394518 -0.0278385 0)
(0.397672 -0.0315395 0)
(0.401917 -0.0350363 0)
(0.407065 -0.0384476 0)
(0.413003 -0.0417672 0)
(0.419577 -0.0450385 0)
(0.426655 -0.0483034 0)
(0.434154 -0.0515316 0)
(0.441982 -0.0546867 0)
(0.450053 -0.0577057 0)
(0.458281 -0.0604965 0)
(0.466573 -0.0629552 0)
(0.474832 -0.0649528 0)
(0.482958 -0.0663415 0)
(0.490844 -0.0669694 0)
(0.49839 -0.0666804 0)
(0.505508 -0.0653429 0)
(0.512138 -0.0628546 0)
(0.518195 -0.0590994 0)
(0.523605 -0.053985 0)
(0.542768 -0.0711828 0)
(0.547863 -0.068211 0)
(0.552462 -0.0646232 0)
(0.556556 -0.0605117 0)
(0.560102 -0.0559113 0)
(0.563089 -0.0508524 0)
(0.565507 -0.0453638 0)
(0.567338 -0.0394786 0)
(0.568558 -0.0332382 0)
(0.569132 -0.0266934 0)
(0.569007 -0.0199095 0)
(0.56812 -0.0129788 0)
(0.566365 -0.00601124 0)
(0.563656 0.000907695 0)
(0.559966 0.00761088 0)
(0.555136 0.0139769 0)
(0.548927 0.0196713 0)
(0.541079 0.0244821 0)
(0.531478 0.0281561 0)
(0.520244 0.0304756 0)
(0.507494 0.0312924 0)
(0.49348 0.0304841 0)
(0.478605 0.0281074 0)
(0.463396 0.0243376 0)
(0.448478 0.0194401 0)
(0.434456 0.0137695 0)
(0.421855 0.0077002 0)
(0.411064 0.00156591 0)
(0.402305 -0.00437649 0)
(0.395681 -0.00993328 0)
(0.391174 -0.0149952 0)
(0.388656 -0.0195409 0)
(0.387945 -0.0236069 0)
(0.388795 -0.0272682 0)
(0.390975 -0.030672 0)
(0.394335 -0.0338187 0)
(0.398713 -0.0368313 0)
(0.403968 -0.0397488 0)
(0.409942 -0.0426427 0)
(0.416501 -0.0456018 0)
(0.423579 -0.0486 0)
(0.431097 -0.0516403 0)
(0.438997 -0.0546703 0)
(0.447213 -0.0576307 0)
(0.455679 -0.0604268 0)
(0.464326 -0.062947 0)
(0.473074 -0.0650594 0)
(0.48184 -0.0666181 0)
(0.490524 -0.0674671 0)
(0.499019 -0.0674474 0)
(0.507216 -0.0664094 0)
(0.515014 -0.0642276 0)
(0.522348 -0.0608186 0)
(0.52911 -0.0560981 0)
(0.545479 -0.0621979 0)
(0.551124 -0.0592024 0)
(0.556248 -0.055622 0)
(0.56085 -0.0515196 0)
(0.564881 -0.0469219 0)
(0.568328 -0.0418534 0)
(0.571175 -0.0363387 0)
(0.573396 -0.0304102 0)
(0.574956 -0.0241109 0)
(0.575806 -0.0174986 0)
(0.575869 -0.0106496 0)
(0.575055 -0.00367507 0)
(0.573288 0.00334006 0)
(0.570375 0.0101708 0)
(0.566342 0.0167269 0)
(0.560965 0.0227565 0)
(0.553866 0.0279906 0)
(0.544866 0.0320557 0)
(0.533897 0.034734 0)
(0.521107 0.0358106 0)
(0.506704 0.0351585 0)
(0.491039 0.0327778 0)
(0.474671 0.0287955 0)
(0.458264 0.023516 0)
(0.442509 0.017327 0)
(0.428047 0.0106522 0)
(0.415375 0.00389598 0)
(0.404796 -0.00260675 0)
(0.396466 -0.00864735 0)
(0.390393 -0.0140954 0)
(0.386472 -0.0188948 0)
(0.384506 -0.0230767 0)
(0.38426 -0.0267259 0)
(0.385444 -0.0300239 0)
(0.387889 -0.0329933 0)
(0.39145 -0.0357542 0)
(0.395945 -0.0383886 0)
(0.401236 -0.0409871 0)
(0.407157 -0.0436718 0)
(0.413649 -0.0464501 0)
(0.420664 -0.0493388 0)
(0.428145 -0.0523156 0)
(0.436058 -0.0553376 0)
(0.444363 -0.0583329 0)
(0.453022 -0.0612045 0)
(0.461985 -0.0638335 0)
(0.471185 -0.0660822 0)
(0.480551 -0.0677973 0)
(0.489994 -0.0688202 0)
(0.499405 -0.0689912 0)
(0.508662 -0.0681565 0)
(0.517643 -0.0661789 0)
(0.526221 -0.0629476 0)
(0.534315 -0.0584127 0)
(0.548187 -0.0534024 0)
(0.554364 -0.050443 0)
(0.560001 -0.0469321 0)
(0.56511 -0.0429015 0)
(0.569635 -0.0383673 0)
(0.573559 -0.0333462 0)
(0.576853 -0.0278598 0)
(0.579482 -0.0219366 0)
(0.581398 -0.0156202 0)
(0.582528 -0.00897821 0)
(0.582777 -0.00209232 0)
(0.582048 0.00494815 0)
(0.580137 0.0119099 0)
(0.576992 0.0186458 0)
(0.572495 0.025085 0)
(0.566339 0.0307628 0)
(0.558164 0.0354503 0)
(0.547758 0.0387421 0)
(0.535165 0.0403696 0)
(0.520596 0.0401764 0)
(0.504377 0.0380749 0)
(0.487028 0.0341718 0)
(0.46925 0.0287416 0)
(0.451826 0.0221881 0)
(0.435511 0.0149918 0)
(0.420925 0.00762007 0)
(0.408501 0.000466926 0)
(0.398426 -0.00619044 0)
(0.390721 -0.0121506 0)
(0.385333 -0.0173508 0)
(0.382084 -0.0218357 0)
(0.380713 -0.0256903 0)
(0.380887 -0.0290648 0)
(0.382419 -0.032061 0)
(0.385145 -0.0347364 0)
(0.388857 -0.0372536 0)
(0.393421 -0.0396999 0)
(0.398653 -0.0422038 0)
(0.404477 -0.0448429 0)
(0.410859 -0.0476188 0)
(0.417761 -0.0505539 0)
(0.425164 -0.0536145 0)
(0.433054 -0.0567558 0)
(0.441421 -0.0598923 0)
(0.450245 -0.0629226 0)
(0.4595 -0.0657196 0)
(0.469143 -0.0681384 0)
(0.479108 -0.0700167 0)
(0.48931 -0.0711898 0)
(0.499637 -0.0714925 0)
(0.509959 -0.0707677 0)
(0.520132 -0.0688735 0)
(0.530004 -0.0656952 0)
(0.539423 -0.0611517 0)
(0.550829 -0.0449821 0)
(0.557515 -0.0421257 0)
(0.563657 -0.0387492 0)
(0.569274 -0.0348543 0)
(0.574307 -0.0304458 0)
(0.578722 -0.0255332 0)
(0.582488 -0.0201289 0)
(0.585553 -0.0142581 0)
(0.587841 -0.00796586 0)
(0.589265 -0.00131499 0)
(0.589718 0.00560402 0)
(0.588988 0.0125986 0)
(0.586929 0.0195148 0)
(0.583489 0.026233 0)
(0.578391 0.0324496 0)
(0.571257 0.0378024 0)
(0.561768 0.0418898 0)
(0.549703 0.0443263 0)
(0.535242 0.0448898 0)
(0.518715 0.0434196 0)
(0.500594 0.0399423 0)
(0.481592 0.0346825 0)
(0.462566 0.0280403 0)
(0.444391 0.0205303 0)
(0.427816 0.0126812 0)
(0.413403 0.00496218 0)
(0.401443 -0.00228096 0)
(0.392063 -0.00883314 0)
(0.385189 -0.0145645 0)
(0.380588 -0.0194791 0)
(0.378007 -0.0236813 0)
(0.377142 -0.0273152 0)
(0.377749 -0.0304989 0)
(0.379634 -0.0332784 0)
(0.382568 -0.0358511 0)
(0.386376 -0.038305 0)
(0.390912 -0.0407853 0)
(0.396041 -0.0433952 0)
(0.401725 -0.046163 0)
(0.407955 -0.0491227 0)
(0.414716 -0.0522666 0)
(0.422012 -0.0555684 0)
(0.429861 -0.0589621 0)
(0.43828 -0.0623596 0)
(0.44727 -0.0656493 0)
(0.456827 -0.0686871 0)
(0.466924 -0.0713229 0)
(0.477508 -0.073386 0)
(0.488498 -0.0747025 0)
(0.499777 -0.0751001 0)
(0.511205 -0.0744114 0)
(0.522615 -0.0724911 0)
(0.533822 -0.069223 0)
(0.544634 -0.0645283 0)
(0.553336 -0.0371006 0)
(0.560509 -0.034417 0)
(0.567147 -0.0312424 0)
(0.573276 -0.0275514 0)
(0.578827 -0.0233362 0)
(0.583761 -0.0185933 0)
(0.588029 -0.0133287 0)
(0.591559 -0.00756233 0)
(0.594259 -0.00133621 0)
(0.596017 0.00528925 0)
(0.59662 0.0121593 0)
(0.595889 0.0191375 0)
(0.593699 0.0260277 0)
(0.589849 0.0327198 0)
(0.583978 0.0386947 0)
(0.575689 0.0436621 0)
(0.564593 0.0470997 0)
(0.550655 0.0486741 0)
(0.534148 0.048166 0)
(0.515527 0.0454934 0)
(0.495506 0.0407895 0)
(0.474981 0.0344182 0)
(0.454947 0.0269 0)
(0.436314 0.0188133 0)
(0.419789 0.0106953 0)
(0.40582 0.0029736 0)
(0.394568 -0.00407538 0)
(0.386003 -0.0102987 0)
(0.379932 -0.0156956 0)
(0.376067 -0.0203537 0)
(0.374086 -0.0243627 0)
(0.373724 -0.0278614 0)
(0.374744 -0.0309237 0)
(0.376888 -0.0336923 0)
(0.379951 -0.0363253 0)
(0.383778 -0.0389391 0)
(0.388218 -0.0416554 0)
(0.393204 -0.0445513 0)
(0.39872 -0.0476447 0)
(0.404768 -0.0509621 0)
(0.411364 -0.0544917 0)
(0.418545 -0.0581866 0)
(0.426353 -0.0619761 0)
(0.434829 -0.0657597 0)
(0.444002 -0.0694149 0)
(0.453891 -0.0727858 0)
(0.464484 -0.0757106 0)
(0.475736 -0.0780054 0)
(0.487571 -0.0794834 0)
(0.49987 -0.0799591 0)
(0.512478 -0.079256 0)
(0.525205 -0.0772188 0)
(0.53783 -0.073727 0)
(0.550114 -0.0687042 0)
(0.555636 -0.0298862 0)
(0.563275 -0.027451 0)
(0.5704 -0.0245554 0)
(0.577044 -0.0211434 0)
(0.583133 -0.0171934 0)
(0.588611 -0.0126897 0)
(0.593415 -0.00762815 0)
(0.597447 -0.00202465 0)
(0.600601 0.00409304 0)
(0.60268 0.0106157 0)
(0.603486 0.0174399 0)
(0.602774 0.0243833 0)
(0.600424 0.0313181 0)
(0.596061 0.0378579 0)
(0.58923 0.043638 0)
(0.579552 0.0481729 0)
(0.566664 0.0509568 0)
(0.550645 0.0516895 0)
(0.531925 0.0501776 0)
(0.511188 0.0464396 0)
(0.489353 0.0407529 0)
(0.467522 0.0336117 0)
(0.446774 0.0256196 0)
(0.427996 0.0173728 0)
(0.411792 0.00937151 0)
(0.398455 0.00195539 0)
(0.388007 -0.00469562 0)
(0.380283 -0.0105214 0)
(0.374971 -0.0155742 0)
(0.371741 -0.0199593 0)
(0.370299 -0.0238231 0)
(0.370362 -0.0272504 0)
(0.371688 -0.030359 0)
(0.374001 -0.0332933 0)
(0.377102 -0.0361872 0)
(0.380857 -0.0391613 0)
(0.385151 -0.0423126 0)
(0.389955 -0.0456749 0)
(0.395272 -0.0492826 0)
(0.40112 -0.0531372 0)
(0.407547 -0.057218 0)
(0.414617 -0.0614635 0)
(0.422396 -0.0657958 0)
(0.430952 -0.0701005 0)
(0.440341 -0.0742404 0)
(0.450603 -0.0780525 0)
(0.461746 -0.0813591 0)
(0.47374 -0.0839605 0)
(0.486509 -0.0856511 0)
(0.499931 -0.0862252 0)
(0.513836 -0.0854858 0)
(0.528005 -0.0832641 0)
(0.542173 -0.0794316 0)
(0.55605 -0.0739109 0)
(0.557649 -0.0234372 0)
(0.565727 -0.0213409 0)
(0.573333 -0.0188072 0)
(0.580499 -0.0157604 0)
(0.587143 -0.0121601 0)
(0.593199 -0.00797646 0)
(0.598579 -0.00319338 0)
(0.603172 0.00219174 0)
(0.606807 0.00812598 0)
(0.609272 0.014536 0)
(0.610293 0.0212856 0)
(0.609667 0.0281943 0)
(0.607067 0.0351297 0)
(0.602051 0.041558 0)
(0.594167 0.047097 0)
(0.582875 0.0511956 0)
(0.567968 0.0533679 0)
(0.549721 0.0533294 0)
(0.528731 0.0509612 0)
(0.505917 0.046411 0)
(0.482473 0.0400909 0)
(0.459625 0.0326003 0)
(0.438477 0.0245804 0)
(0.419837 0.0166002 0)
(0.404144 0.00905436 0)
(0.391538 0.00219259 0)
(0.381897 -0.00390489 0)
(0.374932 -0.00925997 0)
(0.370288 -0.0139714 0)
(0.367592 -0.0181834 0)
(0.366549 -0.0219993 0)
(0.366921 -0.0255061 0)
(0.368419 -0.0288268 0)
(0.370777 -0.0321145 0)
(0.373818 -0.035469 0)
(0.377424 -0.0389966 0)
(0.381528 -0.0427559 0)
(0.386119 -0.0467723 0)
(0.391211 -0.0510683 0)
(0.39685 -0.0556335 0)
(0.403109 -0.0604248 0)
(0.410077 -0.0653796 0)
(0.417847 -0.0704026 0)
(0.426516 -0.0753682 0)
(0.436164 -0.0801332 0)
(0.446854 -0.0845164 0)
(0.458617 -0.0883236 0)
(0.471439 -0.0913374 0)
(0.485254 -0.0933259 0)
(0.499938 -0.0940542 0)
(0.515301 -0.093297 0)
(0.531088 -0.0908577 0)
(0.546983 -0.0865884 0)
(0.562631 -0.0804084 0)
(0.559279 -0.0178312 0)
(0.567773 -0.0161715 0)
(0.57585 -0.0141016 0)
(0.583545 -0.0115218 0)
(0.590769 -0.00837156 0)
(0.597439 -0.00460527 0)
(0.60345 -0.000191982 0)
(0.608655 0.00487978 0)
(0.612837 0.0105745 0)
(0.615734 0.016814 0)
(0.617036 0.0234531 0)
(0.616502 0.0304036 0)
(0.613659 0.0372104 0)
(0.607887 0.0435878 0)
(0.598718 0.048923 0)
(0.585664 0.052633 0)
(0.568627 0.0542952 0)
(0.548052 0.0536654 0)
(0.524799 0.0506935 0)
(0.500088 0.0456946 0)
(0.475287 0.0391855 0)
(0.45174 0.0318272 0)
(0.430492 0.0242444 0)
(0.412189 0.0169011 0)
(0.397124 0.0101077 0)
(0.385244 0.00396985 0)
(0.376325 -0.00150766 0)
(0.369991 -0.00640683 0)
(0.365806 -0.0108821 0)
(0.36345 -0.0150188 0)
(0.362683 -0.01891 0)
(0.363213 -0.0226539 0)
(0.36474 -0.0263797 0)
(0.36702 -0.0302051 0)
(0.369903 -0.0342035 0)
(0.373298 -0.038458 0)
(0.377171 -0.0429937 0)
(0.381518 -0.0478397 0)
(0.38637 -0.0529933 0)
(0.3918 -0.0584276 0)
(0.3979 -0.0640902 0)
(0.404783 -0.069905 0)
(0.412568 -0.0757671 0)
(0.421379 -0.0815462 0)
(0.431327 -0.0870841 0)
(0.442503 -0.0921911 0)
(0.454964 -0.0966514 0)
(0.468717 -0.100223 0)
(0.483713 -0.102641 0)
(0.499827 -0.10363 0)
(0.516852 -0.102918 0)
(0.534494 -0.100266 0)
(0.55237 -0.0954904 0)
(0.57004 -0.0884984 0)
(0.560423 -0.0131133 0)
(0.569305 -0.0120128 0)
(0.577841 -0.0105289 0)
(0.586074 -0.00853755 0)
(0.593902 -0.00596243 0)
(0.601227 -0.00273519 0)
(0.607924 0.00119629 0)
(0.613807 0.00584641 0)
(0.618616 0.0112102 0)
(0.622025 0.0172099 0)
(0.623751 0.0237692 0)
(0.623283 0.0306484 0)
(0.620094 0.0374454 0)
(0.613594 0.0437769 0)
(0.603032 0.04895 0)
(0.588055 0.0524376 0)
(0.56879 0.053807 0)
(0.545889 0.052845 0)
(0.52051 0.0496886 0)
(0.494125 0.0447041 0)
(0.4683 0.0385373 0)
(0.444353 0.0318198 0)
(0.423218 0.0250915 0)
(0.405374 0.0187208 0)
(0.390907 0.0128576 0)
(0.379648 0.00752774 0)
(0.371258 0.00266516 0)
(0.365298 -0.00191658 0)
(0.361403 -0.00626284 0)
(0.359259 -0.0104484 0)
(0.358573 -0.0145612 0)
(0.359073 -0.0187267 0)
(0.360465 -0.0230523 0)
(0.362553 -0.0275967 0)
(0.365195 -0.0324233 0)
(0.368325 -0.0375627 0)
(0.371923 -0.043043 0)
(0.375995 -0.048873 0)
(0.380598 -0.0550356 0)
(0.385821 -0.0614889 0)
(0.391772 -0.0681711 0)
(0.398587 -0.0749948 0)
(0.40641 -0.08185 0)
(0.41539 -0.0886006 0)
(0.425673 -0.0950781 0)
(0.437386 -0.101084 0)
(0.450616 -0.106384 0)
(0.465405 -0.110706 0)
(0.481731 -0.113742 0)
(0.499476 -0.11516 0)
(0.518421 -0.11462 0)
(0.538222 -0.111812 0)
(0.558417 -0.106494 0)
(0.578452 -0.0985451 0)
(0.56095 -0.00932693 0)
(0.570185 -0.00892668 0)
(0.579171 -0.0081718 0)
(0.587945 -0.00692291 0)
(0.596403 -0.00507816 0)
(0.604435 -0.00254407 0)
(0.611883 0.000755261 0)
(0.618525 0.00485063 0)
(0.624058 0.00976741 0)
(0.628148 0.0154734 0)
(0.63032 0.0219161 0)
(0.630008 0.0286831 0)
(0.626599 0.0355573 0)
(0.619189 0.0419123 0)
(0.607161 0.0471186 0)
(0.590286 0.0506203 0)
(0.568784 0.0520217 0)
(0.543651 0.0512063 0)
(0.516344 0.0483611 0)
(0.488595 0.0440018 0)
(0.462022 0.0387304 0)
(0.437906 0.0331424 0)
(0.417003 0.027655 0)
(0.399576 0.0224585 0)
(0.385591 0.017632 0)
(0.374749 0.0131003 0)
(0.366604 0.0087092 0)
(0.360782 0.00436501 0)
(0.356957 -1.31587e-06 0)
(0.3548 -0.00445097 0)
(0.354008 -0.00900673 0)
(0.354286 -0.013808 0)
(0.35541 -0.0189043 0)
(0.357189 -0.024342 0)
(0.359516 -0.0301457 0)
(0.362334 -0.0363255 0)
(0.365622 -0.0429009 0)
(0.369407 -0.0498596 0)
(0.373757 -0.0571686 0)
(0.378775 -0.0647792 0)
(0.384589 -0.0726202 0)
(0.391346 -0.0805971 0)
(0.399217 -0.0885976 0)
(0.408383 -0.0964807 0)
(0.41902 -0.104083 0)
(0.431301 -0.111188 0)
(0.445359 -0.117555 0)
(0.461279 -0.122874 0)
(0.479085 -0.126788 0)
(0.498688 -0.128882 0)
(0.519857 -0.128721 0)
(0.542199 -0.125883 0)
(0.565148 -0.120032 0)
(0.588001 -0.110994 0)
(0.560712 -0.00648805 0)
(0.570265 -0.00695747 0)
(0.579675 -0.00711502 0)
(0.588988 -0.00679452 0)
(0.5981 -0.00587189 0)
(0.606883 -0.00422861 0)
(0.615155 -0.00175732 0)
(0.622661 0.0016431 0)
(0.62908 0.00596446 0)
(0.634007 0.0113235 0)
(0.636781 0.0174386 0)
(0.636724 0.0242814 0)
(0.6331 0.0312461 0)
(0.624912 0.0378182 0)
(0.611479 0.0433593 0)
(0.592673 0.047304 0)
(0.569059 0.0492478 0)
(0.541887 0.0491673 0)
(0.512928 0.0473291 0)
(0.48407 0.044219 0)
(0.456997 0.0404436 0)
(0.432809 0.0364281 0)
(0.412083 0.0324326 0)
(0.394932 0.028558 0)
(0.381167 0.0247315 0)
(0.370401 0.0208647 0)
(0.362233 0.0167779 0)
(0.356303 0.012493 0)
(0.352266 0.00789216 0)
(0.349861 0.00299072 0)
(0.34876 -0.00227577 0)
(0.34867 -0.00790869 0)
(0.349392 -0.0139612 0)
(0.350777 -0.0204454 0)
(0.352732 -0.0273662 0)
(0.355187 -0.0347369 0)
(0.358137 -0.042547 0)
(0.361624 -0.0507679 0)
(0.365723 -0.0593552 0)
(0.37054 -0.0682512 0)
(0.37622 -0.0773773 0)
(0.382922 -0.086643 0)
(0.390843 -0.0959323 0)
(0.400181 -0.10512 0)
(0.411166 -0.114035 0)
(0.424017 -0.122473 0)
(0.438921 -0.130179 0)
(0.456038 -0.13681 0)
(0.475461 -0.14194 0)
(0.497149 -0.145059 0)
(0.52088 -0.145595 0)
(0.546204 -0.142946 0)
(0.572425 -0.136631 0)
(0.598656 -0.12639 0)
(0.559529 -0.00461775 0)
(0.569343 -0.00615985 0)
(0.579151 -0.00743977 0)
(0.588997 -0.00827595 0)
(0.598776 -0.00851919 0)
(0.608362 -0.00801646 0)
(0.617564 -0.0066153 0)
(0.626073 -0.00416153 0)
(0.633571 -0.000524593 0)
(0.639438 0.00423856 0)
(0.64307 0.0101338 0)
(0.643578 0.0169497 0)
(0.639872 0.0242381 0)
(0.631012 0.0313668 0)
(0.616322 0.037757 0)
(0.59583 0.042607 0)
(0.570264 0.0459644 0)
(0.541302 0.0472947 0)
(0.51092 0.04729 0)
(0.481204 0.0461569 0)
(0.453686 0.0443951 0)
(0.429361 0.0422913 0)
(0.408626 0.0399784 0)
(0.391412 0.037388 0)
(0.377504 0.0344684 0)
(0.366464 0.0310036 0)
(0.357936 0.0270301 0)
(0.351599 0.0224944 0)
(0.347125 0.0174137 0)
(0.344226 0.0118003 0)
(0.342614 0.00561039 0)
(0.342026 -0.00108982 0)
(0.342261 -0.00827817 0)
(0.343185 -0.015963 0)
(0.344696 -0.0241536 0)
(0.346749 -0.0328395 0)
(0.349349 -0.0419969 0)
(0.352537 -0.0515881 0)
(0.356386 -0.0615611 0)
(0.361009 -0.071849 0)
(0.366553 -0.082372 0)
(0.373189 -0.0930459 0)
(0.381131 -0.103762 0)
(0.390607 -0.114414 0)
(0.401889 -0.124842 0)
(0.415249 -0.13487 0)
(0.430965 -0.144227 0)
(0.449292 -0.152549 0)
(0.470412 -0.159338 0)
(0.494358 -0.163959 0)
(0.520948 -0.165641 0)
(0.549672 -0.163518 0)
(0.57967 -0.15689 0)
(0.609856 -0.145384 0)
(0.557189 -0.00372054 0)
(0.567209 -0.00656405 0)
(0.57736 -0.00922892 0)
(0.587708 -0.0114981 0)
(0.59816 -0.0131967 0)
(0.608591 -0.0141521 0)
(0.618816 -0.0141064 0)
(0.628546 -0.0128827 0)
(0.637274 -0.0103014 0)
(0.644474 -0.00620783 0)
(0.649285 -0.000517851 0)
(0.650571 0.00641082 0)
(0.647209 0.0142721 0)
(0.638078 0.0224537 0)
(0.622344 0.0302722 0)
(0.60043 0.037212 0)
(0.573275 0.0424847 0)
(0.54268 0.046557 0)
(0.511214 0.0490379 0)
(0.480534 0.05061 0)
(0.452508 0.0513596 0)
(0.427769 0.0514119 0)
(0.406614 0.0507749 0)
(0.388932 0.0493788 0)
(0.374368 0.047043 0)
(0.362637 0.0437467 0)
(0.353444 0.0395465 0)
(0.3464 0.0344531 0)
(0.341233 0.0285748 0)
(0.337632 0.0219369 0)
(0.335324 0.0146157 0)
(0.334127 0.00667264 0)
(0.333821 -0.00184853 0)
(0.334217 -0.0109023 0)
(0.335263 -0.0204995 0)
(0.336912 -0.0306165 0)
(0.339161 -0.0412254 0)
(0.342051 -0.0522853 0)
(0.345658 -0.0637381 0)
(0.35009 -0.0755087 0)
(0.355489 -0.0875245 0)
(0.362034 -0.0997039 0)
(0.369942 -0.111968 0)
(0.379478 -0.124222 0)
(0.390946 -0.136363 0)
(0.404696 -0.148231 0)
(0.421098 -0.159582 0)
(0.44052 -0.170041 0)
(0.463267 -0.179039 0)
(0.489465 -0.185754 0)
(0.518982 -0.18915 0)
(0.551232 -0.187974 0)
(0.585183 -0.181279 0)
(0.61962 -0.168567 0)
(0.553453 -0.00379239 0)
(0.563587 -0.00820512 0)
(0.574012 -0.0125494 0)
(0.584824 -0.0165766 0)
(0.59592 -0.0200722 0)
(0.607255 -0.0228325 0)
(0.618636 -0.0245668 0)
(0.629672 -0.0249566 0)
(0.640024 -0.0236845 0)
(0.648976 -0.0204508 0)
(0.655416 -0.0151802 0)
(0.658097 -0.00787894 0)
(0.655608 0.00108761 0)
(0.6466 0.0110787 0)
(0.6306 0.0212886 0)
(0.60752 0.0312376 0)
(0.578987 0.0399657 0)
(0.5472 0.0475601 0)
(0.514246 0.0537037 0)
(0.482781 0.0584563 0)
(0.453707 0.0621269 0)
(0.428072 0.0644405 0)
(0.405964 0.0653987 0)
(0.387159 0.0648572 0)
(0.371464 0.0627831 0)
(0.358658 0.0592876 0)
(0.348387 0.0544251 0)
(0.340365 0.0484058 0)
(0.334278 0.0413511 0)
(0.329829 0.0333864 0)
(0.326757 0.0246633 0)
(0.32485 0.0152617 0)
(0.323911 0.00526232 0)
(0.323783 -0.00530428 0)
(0.32434 -0.0164136 0)
(0.325578 -0.0280661 0)
(0.327483 -0.040226 0)
(0.330092 -0.0528401 0)
(0.33347 -0.0658495 0)
(0.337713 -0.0791804 0)
(0.342954 -0.0927561 0)
(0.349366 -0.106516 0)
(0.357162 -0.120407 0)
(0.366631 -0.134385 0)
(0.378113 -0.148398 0)
(0.39202 -0.162349 0)
(0.408823 -0.17604 0)
(0.429013 -0.189104 0)
(0.453018 -0.20088 0)
(0.481011 -0.210307 0)
(0.512889 -0.216012 0)
(0.547909 -0.216256 0)
(0.584928 -0.209764 0)
(0.622924 -0.196321 0)
(0.54807 -0.00482909 0)
(0.558192 -0.0111086 0)
(0.56878 -0.0174381 0)
(0.579986 -0.0235654 0)
(0.591715 -0.0293132 0)
(0.603913 -0.0343445 0)
(0.616502 -0.0383265 0)
(0.629217 -0.040767 0)
(0.641527 -0.0411715 0)
(0.652683 -0.0391991 0)
(0.661517 -0.0342595 0)
(0.66644 -0.0263333 0)
(0.665692 -0.0156797 0)
(0.657777 -0.00274107 0)
(0.641865 0.0110704 0)
(0.618401 0.0254886 0)
(0.588807 0.0390201 0)
(0.555512 0.0514268 0)
(0.521217 0.0621615 0)
(0.488023 0.0708562 0)
(0.45761 0.0775874 0)
(0.43022 0.0820949 0)
(0.406346 0.0843001 0)
(0.385776 0.0842167 0)
(0.368395 0.0819514 0)
(0.354004 0.0776767 0)
(0.342352 0.0717056 0)
(0.333105 0.0643035 0)
(0.325906 0.0556795 0)
(0.320493 0.0460746 0)
(0.31659 0.0356663 0)
(0.313932 0.0245964 0)
(0.312354 0.012954 0)
(0.311711 0.000760569 0)
(0.311817 -0.011968 0)
(0.312663 -0.0252423 0)
(0.314255 -0.0390242 0)
(0.31661 -0.0532609 0)
(0.319777 -0.0678827 0)
(0.323839 -0.0828146 0)
(0.328907 -0.0979891 0)
(0.335127 -0.113364 0)
(0.342707 -0.128923 0)
(0.351932 -0.14468 0)
(0.363159 -0.160668 0)
(0.376852 -0.176878 0)
(0.393545 -0.193178 0)
(0.413805 -0.209218 0)
(0.438103 -0.22416 0)
(0.466492 -0.236667 0)
(0.498763 -0.245119 0)
(0.534037 -0.246972 0)
(0.570996 -0.240991 0)
(0.609511 -0.227568 0)
(0.540716 -0.0067852 0)
(0.550718 -0.0152261 0)
(0.56136 -0.0238897 0)
(0.572773 -0.0325709 0)
(0.584984 -0.0410138 0)
(0.598088 -0.0488468 0)
(0.612023 -0.0556262 0)
(0.626555 -0.0607533 0)
(0.641183 -0.0634996 0)
(0.655263 -0.0630066 0)
(0.667475 -0.0585181 0)
(0.675761 -0.0495809 0)
(0.678222 -0.0362959 0)
(0.67237 -0.0192439 0)
(0.657775 0.0001386 0)
(0.634366 0.0207325 0)
(0.603774 0.0407951 0)
(0.569077 0.0596293 0)
(0.532415 0.0756119 0)
(0.497031 0.0888965 0)
(0.463827 0.0986698 0)
(0.433866 0.105162 0)
(0.407351 0.108167 0)
(0.384277 0.107947 0)
(0.364567 0.104812 0)
(0.348197 0.099142 0)
(0.334874 0.0914646 0)
(0.324175 0.0821119 0)
(0.315775 0.0714881 0)
(0.309363 0.0598911 0)
(0.304617 0.047551 0)
(0.301255 0.0346252 0)
(0.299082 0.0211964 0)
(0.297907 0.00726642 0)
(0.297622 -0.00719188 0)
(0.298116 -0.0221679 0)
(0.299437 -0.0376369 0)
(0.301574 -0.053547 0)
(0.304563 -0.0698191 0)
(0.308455 -0.0863738 0)
(0.313333 -0.103148 0)
(0.319305 -0.120123 0)
(0.326545 -0.13732 0)
(0.3353 -0.154823 0)
(0.345896 -0.172767 0)
(0.358794 -0.191253 0)
(0.374497 -0.210196 0)
(0.393557 -0.229244 0)
(0.416238 -0.247219 0)
(0.441918 -0.262532 0)
(0.470394 -0.273186 0)
(0.500469 -0.276955 0)
(0.531043 -0.270418 0)
(0.563575 -0.257599 0)
(0.531171 -0.00957098 0)
(0.540839 -0.020511 0)
(0.55127 -0.0318703 0)
(0.562735 -0.0435103 0)
(0.575335 -0.0551616 0)
(0.589159 -0.0664134 0)
(0.604289 -0.0766981 0)
(0.62066 -0.0852564 0)
(0.637923 -0.0909949 0)
(0.655375 -0.0925168 0)
(0.671636 -0.0886541 0)
(0.684648 -0.0783505 0)
(0.691789 -0.0613453 0)
(0.690367 -0.0386853 0)
(0.678488 -0.0111125 0)
(0.656125 0.0171631 0)
(0.625045 0.046653 0)
(0.587932 0.0727926 0)
(0.548307 0.0955792 0)
(0.50914 0.113213 0)
(0.472245 0.126283 0)
(0.438405 0.134255 0)
(0.408165 0.137435 0)
(0.381773 0.13631 0)
(0.359207 0.131485 0)
(0.340485 0.12368 0)
(0.325255 0.113542 0)
(0.313045 0.101691 0)
(0.30346 0.0885952 0)
(0.296104 0.0746566 0)
(0.29061 0.0601313 0)
(0.286633 0.0451693 0)
(0.283943 0.0298135 0)
(0.282316 0.014045 0)
(0.2817 -0.00219406 0)
(0.281898 -0.0189101 0)
(0.282997 -0.0361141 0)
(0.284971 -0.0537341 0)
(0.287827 -0.0716755 0)
(0.291582 -0.0898443 0)
(0.29627 -0.10818 0)
(0.301944 -0.126681 0)
(0.308714 -0.145391 0)
(0.316713 -0.164457 0)
(0.32615 -0.184122 0)
(0.337383 -0.204576 0)
(0.3507 -0.22572 0)
(0.366429 -0.247109 0)
(0.38412 -0.266901 0)
(0.401994 -0.283726 0)
(0.418661 -0.292414 0)
(0.43536 -0.295739 0)
(0.452056 -0.28911 0)
(0.468559 -0.277254 0)
(0.519062 -0.0131486 0)
(0.528198 -0.0268233 0)
(0.538245 -0.0412266 0)
(0.549423 -0.0562431 0)
(0.561994 -0.071633 0)
(0.576207 -0.0869148 0)
(0.592134 -0.10133 0)
(0.609725 -0.113989 0)
(0.628731 -0.12337 0)
(0.648519 -0.127764 0)
(0.668046 -0.12513 0)
(0.685617 -0.113558 0)
(0.69872 -0.0925156 0)
(0.704551 -0.0620912 0)
(0.699106 -0.0239926 0)
(0.680715 0.0164129 0)
(0.650475 0.0574136 0)
(0.610825 0.0934368 0)
(0.567194 0.123397 0)
(0.523432 0.146365 0)
(0.481684 0.162224 0)
(0.442773 0.17096 0)
(0.407915 0.173277 0)
(0.377439 0.170048 0)
(0.351496 0.162377 0)
(0.330122 0.151338 0)
(0.312914 0.13789 0)
(0.299242 0.122837 0)
(0.288586 0.106792 0)
(0.280455 0.090167 0)
(0.274359 0.0732262 0)
(0.269896 0.0560777 0)
(0.266793 0.0387116 0)
(0.264841 0.0210542 0)
(0.263957 0.00298919 0)
(0.263983 -0.0155403 0)
(0.264938 -0.0345263 0)
(0.266823 -0.0538838 0)
(0.26961 -0.0734924 0)
(0.273271 -0.0932427 0)
(0.277796 -0.11306 0)
(0.283156 -0.132946 0)
(0.289328 -0.152906 0)
(0.2962 -0.173113 0)
(0.303736 -0.193913 0)
(0.312022 -0.215513 0)
(0.320821 -0.237617 0)
(0.330084 -0.259488 0)
(0.337381 -0.278285 0)
(0.341669 -0.291997 0)
(0.337438 -0.295362 0)
(0.329347 -0.290778 0)
(0.327459 -0.288102 0)
(0.323687 -0.282094 0)
(0.504206 -0.0173206 0)
(0.512586 -0.0339551 0)
(0.521808 -0.0516924 0)
(0.532291 -0.0704687 0)
(0.544319 -0.0899899 0)
(0.558043 -0.109574 0)
(0.573309 -0.128394 0)
(0.589837 -0.145533 0)
(0.606896 -0.158403 0)