/*--------------------------------*- C++ -*----------------------------------*\
  =========                 |
  \\      /  F ield         | OpenFOAM: The Open Source CFD Toolbox
   \\    /   O peration     | Website:  https://openfoam.org
    \\  /    A nd           | Version:  11
     \\/     M anipulation  |
\*---------------------------------------------------------------------------*/
FoamFile
{
    format      ascii;
    class       volScalarField;
    location    "3.5";
    object      p;
}
// * * * * * * * * * * * * * * * * * * * * * * * * * * * * * * * * * * * * * //

dimensions      [0 2 -2 0 0 0 0];

internalField   nonuniform List<scalar> 
9600
(
0.0666145
0.0672379
0.0681723
0.0691121
0.0699791
0.0706392
0.0711093
0.0713493
0.071146
0.0708683
0.0702209
0.0674465
0.0661404
0.0642425
0.0617065
0.0583304
0.0542708
0.0497158
0.0447634
0.0396577
0.0344754
0.0291862
0.0239239
0.0194003
0.0156878
0.0125821
0.0102782
0.00868518
0.00782557
0.00749918
0.0075226
0.0077311
0.00796208
0.00833009
0.0087491
0.00898579
0.00918898
0.00933731
0.00931684
0.00965932
0.0669694
0.0677909
0.0687723
0.0697295
0.0704453
0.0710301
0.0715071
0.0717097
0.0713204
0.0706238
0.0695991
0.0667675
0.0643849
0.063356
0.0605243
0.0564538
0.0523288
0.0479746
0.0433194
0.0385106
0.0336227
0.028648
0.0236679
0.0193486
0.015718
0.0128691
0.0105505
0.00897473
0.00795127
0.00750602
0.00746666
0.00770008
0.00800793
0.00830664
0.00889737
0.00922753
0.00953656
0.0097813
0.00960078
0.00880094
0.0673435
0.0681738
0.0691211
0.0699671
0.0706314
0.0711464
0.0714696
0.0715896
0.0711636
0.0703559
0.0689801
0.0669702
0.0661504
0.0638796
0.0609586
0.0578495
0.054207
0.0499027
0.0451599
0.0402225
0.0351796
0.0300316
0.024957
0.020445
0.0164984
0.013248
0.0108491
0.00909142
0.00800266
0.00746947
0.00736278
0.00748569
0.00766166
0.00785503
0.00810016
0.0083523
0.00860667
0.00889602
0.00931474
0.0095633
0.0677668
0.0685867
0.0695143
0.070335
0.0709564
0.0713858
0.071671
0.0717402
0.0711991
0.0701894
0.0688209
0.0672054
0.0645392
0.0625731
0.0596235
0.0557291
0.0514735
0.0470801
0.0425224
0.0378687
0.0331427
0.0282585
0.023427
0.0191842
0.0156376
0.012767
0.0105352
0.00895711
0.0079157
0.00737306
0.00728586
0.00749453
0.00785274
0.00830872
0.00885579
0.00932487
0.00967248
0.00979231
0.00941819
0.00881415
0.0682303
0.0690201
0.0699369
0.0707204
0.0712721
0.0716227
0.0718904
0.0719415
0.0710916
0.0699118
0.0685645
0.0672337
0.0653041
0.0631076
0.060345
0.0570528
0.0535387
0.0494692
0.0449645
0.0402764
0.0353695
0.0303782
0.0255107
0.0210311
0.0171101
0.0137201
0.0113046
0.00919952
0.00797569
0.00728676
0.00709274
0.00714523
0.00725862
0.00742501
0.0076025
0.00778347
0.00813028
0.0085691
0.00939546
0.00995841
0.068735
0.0694815
0.0703663
0.0711129
0.0716197
0.0719143
0.0721452
0.0720099
0.0710156
0.0700359
0.0687511
0.0673363
0.06498
0.0625089
0.0593767
0.0555299
0.0512254
0.0467442
0.0421628
0.0375378
0.0328695
0.0280106
0.0232214
0.018926
0.0152876
0.0123622
0.00976238
0.00852913
0.00762551
0.00702926
0.00686603
0.00708715
0.00745925
0.00805266
0.00868527
0.00926893
0.00970467
0.00978075
0.00944179
0.00903921
0.0692811
0.0699612
0.0708091
0.0715354
0.0720044
0.072253
0.0724092
0.0720807
0.0711538
0.07016
0.0689004
0.0672874
0.065141
0.0627017
0.0597296
0.0563591
0.0527118
0.0487062
0.0443552
0.0398724
0.0351647
0.030304
0.0255774
0.0211739
0.0173049
0.0140413
0.0115553
0.00909183
0.00762163
0.00691348
0.00662943
0.00667185
0.00676729
0.00691271
0.00713982
0.00729526
0.0075907
0.00817573
0.0091837
0.00993644
0.0698454
0.0704595
0.0712644
0.0719811
0.0724464
0.0726503
0.0726617
0.0722026
0.0713241
0.0703752
0.0691523
0.0674438
0.0651701
0.0625622
0.0593843
0.0555814
0.0512873
0.0467421
0.0420933
0.0374163
0.0326757
0.0278036
0.0230025
0.018559
0.0146455
0.0114819
0.00905936
0.0078531
0.00697893
0.00635447
0.00619948
0.00636669
0.00680129
0.00745136
0.00821247
0.00906949
0.00973227
0.00977293
0.00945429
0.00913649
0.0704183
0.0709791
0.071765
0.072477
0.072919
0.0730624
0.0729625
0.0724359
0.0716077
0.070669
0.0693412
0.0675655
0.0652597
0.0626007
0.0594478
0.0558612
0.052
0.0479171
0.0435638
0.0391258
0.0345853
0.0298164
0.0251766
0.0208739
0.0170503
0.0138536
0.0110684
0.00869382
0.00695963
0.00616643
0.00587382
0.00593119
0.0061063
0.00628932
0.00652222
0.00674024
0.00715465
0.00803537
0.00891134
0.00981875
0.0710111
0.0715488
0.0723233
0.0730174
0.0734227
0.0735015
0.0733135
0.0727991
0.0719708
0.0710014
0.0697365
0.0678029
0.0654
0.0626483
0.0594509
0.0556999
0.0514236
0.0468632
0.0421431
0.0373456
0.032514
0.027568
0.0226793
0.0180599
0.01388
0.0105458
0.00829411
0.00656645
0.0058936
0.00533919
0.00513846
0.00531321
0.00577215
0.00649177
0.00738049
0.00843658
0.00927889
0.00947386
0.00953224
0.00922626
0.0716535
0.0721761
0.0729411
0.073614
0.073951
0.0739843
0.0737927
0.0732357
0.0723869
0.071437
0.0700361
0.0679815
0.0655113
0.0627363
0.0594837
0.0557322
0.0515771
0.0472758
0.0428381
0.0382377
0.0336868
0.0289924
0.02432
0.0200578
0.0162449
0.012972
0.0101049
0.00776051
0.00596172
0.00498869
0.00471669
0.00477362
0.00510352
0.00542364
0.00572292
0.00604694
0.0064987
0.00728012
0.00825551
0.00946507
0.072375
0.0728698
0.0736167
0.0742518
0.0745283
0.0745588
0.0743576
0.0737602
0.0728988
0.0718462
0.0703519
0.0682481
0.0657368
0.0629226
0.0596071
0.055774
0.0515225
0.0469484
0.0421357
0.0371942
0.0322602
0.0272208
0.0222041
0.0174064
0.013022
0.00937259
0.00682929
0.00555982
0.00444593
0.00388249
0.00369066
0.00383152
0.00431931
0.00510281
0.00611798
0.0073615
0.00847657
0.00893498
0.00891644
0.00899963
0.0731946
0.0736394
0.0743382
0.0749568
0.0752027
0.0752213
0.0750113
0.0743698
0.0734429
0.0723824
0.0707918
0.0685621
0.0659679
0.0630908
0.0597
0.0558011
0.051481
0.0469121
0.0422031
0.0373659
0.0326168
0.0278787
0.0230803
0.0187035
0.0148508
0.0115117
0.00860633
0.00611324
0.00449179
0.00334141
0.00301073
0.00315639
0.0035645
0.00412126
0.00458091
0.00503463
0.00561258
0.00652892
0.00767699
0.00882155
0.0740968
0.074474
0.0751239
0.0757193
0.0759915
0.075984
0.075724
0.0750536
0.0741083
0.072941
0.0712317
0.0689444
0.0662919
0.0633404
0.0598924
0.055921
0.0515101
0.0468156
0.0419439
0.0368983
0.0318005
0.0266675
0.0215198
0.0165363
0.011918
0.00800126
0.00508305
0.00324826
0.00198087
0.00163824
0.00162086
0.0018317
0.00236983
0.00319386
0.00430583
0.00566901
0.00704231
0.007899
0.00819391
0.00843528
0.0750872
0.0753919
0.0759902
0.0765659
0.0768576
0.0768262
0.076541
0.0758502
0.0748091
0.0735294
0.0717947
0.0694598
0.0666923
0.0636259
0.0600538
0.055983
0.0514596
0.0466251
0.0417165
0.036649
0.0315302
0.0265422
0.0215361
0.0168749
0.0128396
0.00936334
0.00638011
0.00402509
0.00225001
0.00108205
0.000612517
0.000822804
0.00134385
0.00212325
0.00289188
0.00355224
0.00428436
0.00533021
0.00664717
0.00784627
0.0761217
0.0763759
0.0769693
0.0775483
0.0778277
0.0777777
0.0774482
0.0767111
0.0756026
0.0742499
0.0724299
0.0700202
0.0671482
0.0639274
0.0602486
0.0560878
0.051461
0.0465433
0.0414812
0.0362704
0.0310235
0.0257648
0.0204789
0.0153318
0.0105025
0.00627637
0.00296874
0.000719733
-0.000406403
-0.00125632
-0.00124355
-0.000903643
-0.000330795
0.000601139
0.00177664
0.00327056
0.0049041
0.00618464
0.00690689
0.00747288
0.077253
0.0774827
0.0780421
0.0786048
0.0788962
0.0788312
0.0784541
0.0777179
0.0765755
0.0750433
0.0731057
0.0706866
0.0676874
0.0643006
0.0604808
0.0561827
0.0514407
0.0463296
0.0411009
0.0358125
0.0304226
0.0251442
0.019865
0.0147439
0.0102358
0.00650434
0.00340412
0.000989697
-0.000784264
-0.00201761
-0.0026287
-0.00244516
-0.00180877
-0.000850605
0.000272029
0.00129838
0.00227879
0.00348048
0.00499868
0.0062486
0.0784911
0.0786886
0.0792308
0.0798216
0.0801471
0.0800242
0.0795831
0.0788592
0.0776111
0.0759051
0.0738949
0.0714286
0.0682954
0.0646989
0.0607072
0.0562813
0.0513654
0.0461277
0.0407921
0.0353621
0.0298672
0.024386
0.0188688
0.0135584
0.00857239
0.00404724
0.000309727
-0.00242426
-0.00405995
-0.00473138
-0.00502627
-0.00464988
-0.00398094
-0.00297062
-0.00167417
-8.28136e-05
0.00177162
0.00349789
0.00488154
0.00593278
0.0798686
0.0799883
0.0805417
0.081197
0.0815456
0.0813478
0.0808361
0.0800956
0.0787775
0.0769318
0.0747637
0.0722222
0.0689646
0.0651496
0.0609841
0.0563859
0.0513365
0.0459231
0.0403298
0.0347524
0.0290971
0.0234546
0.0178456
0.0123819
0.0073541
0.00309726
-0.000391901
-0.00311064
-0.00506216
-0.0063108
-0.00680768
-0.00682637
-0.00614989
-0.00503109
-0.00368327
-0.00216662
-0.0007811
0.000566289
0.00210897
0.00357445
0.0814096
0.0814719
0.0820692
0.0827544
0.0830908
0.0828454
0.0822423
0.0814624
0.0801173
0.0780911
0.0756985
0.0730402
0.0697091
0.0656882
0.0612372
0.0564779
0.0512612
0.0456068
0.0398345
0.0340889
0.0282953
0.0225806
0.016783
0.0111001
0.00584327
0.00102171
-0.00311158
-0.00631113
-0.00849212
-0.00973588
-0.0102601
-0.00990221
-0.00905208
-0.00784349
-0.0064035
-0.00469765
-0.00261473
-0.000468173
0.00140109
0.00264619
0.0830872
0.0831285
0.0837951
0.0844855
0.084793
0.084526
0.0838384
0.0829847
0.0815634
0.0793696
0.076731
0.0739246
0.0705261
0.0662647
0.0615099
0.0565288
0.051131
0.0453441
0.0393335
0.0333644
0.0274012
0.0214503
0.0154634
0.00956049
0.00403273
-0.000899127
-0.00499273
-0.00817417
-0.0105309
-0.0120016
-0.0128093
-0.0128751
-0.0122087
-0.0109413
-0.00932419
-0.00744345
-0.00548236
-0.00371558
-0.00178175
2.38165e-05
0.0849987
0.0850251
0.0857213
0.0864063
0.0867011
0.0864411
0.08567
0.0846596
0.0831277
0.0807867
0.0779038
0.0748709
0.0713175
0.0668802
0.0617938
0.0565422
0.0510199
0.0449938
0.0386819
0.0324951
0.0262911
0.020183
0.0141425
0.00801136
0.00224533
-0.00291219
-0.00747726
-0.0113043
-0.0141929
-0.0159696
-0.0168606
-0.0168416
-0.0160897
-0.0147577
-0.0130571
-0.0111375
-0.00885036
-0.00634627
-0.0039414
-0.00209226
0.0871909
0.0871977
0.0879059
0.088577
0.0888377
0.0885772
0.0877098
0.0864826
0.084817
0.0823536
0.0792074
0.0758412
0.072085
0.0674872
0.0621034
0.0565503
0.0507594
0.0445244
0.0379681
0.031495
0.0251833
0.0188782
0.0126068
0.00634777
0.000244623
-0.00539247
-0.0103544
-0.0143615
-0.0174041
-0.019497
-0.0205907
-0.0209216
-0.0204394
-0.0190453
-0.0173561
-0.0151783
-0.0127191
-0.0103126
-0.00794916
-0.00578422
0.0897238
0.089653
0.0903406
0.0910111
0.0912389
0.0909582
0.0900049
0.0885307
0.0866582
0.0840791
0.0806417
0.0768639
0.0728368
0.0680674
0.0624233
0.0564398
0.0503506
0.0439715
0.0371585
0.0304109
0.0239451
0.0173438
0.010786
0.00439704
-0.00196875
-0.00786433
-0.0130324
-0.0175536
-0.0212692
-0.0239808
-0.0255575
-0.0261462
-0.0258417
-0.0248436
-0.0228016
-0.0203994
-0.0178106
-0.0150769
-0.0122228
-0.00984901
0.092611
0.0924514
0.0930951
0.0937571
0.0939247
0.0935446
0.0924979
0.0907752
0.088626
0.0859045
0.0822324
0.0779247
0.07353
0.0686122
0.0626765
0.0561948
0.0498169
0.0432749
0.0362653
0.029079
0.0222694
0.0157059
0.00899925
0.0022871
-0.00426075
-0.0104174
-0.0160875
-0.021231
-0.0254482
-0.0286801
-0.0308241
-0.0317785
-0.031746
-0.0308959
-0.0291384
-0.0267868
-0.0238515
-0.0207799
-0.0179512
-0.0155202
0.0958802
0.0956124
0.0961994
0.0968324
0.0969687
0.0964128
0.0952237
0.0933026
0.0907711
0.0877539
0.0839929
0.0792094
0.0740915
0.0689391
0.0629284
0.055962
0.0489232
0.0422546
0.0353282
0.0277545
0.0203109
0.0135569
0.00695863
0.000216495
-0.0065695
-0.0133499
-0.0195981
-0.0250483
-0.0296711
-0.0335761
-0.0365019
-0.0383396
-0.0388679
-0.0383161
-0.0368023
-0.0344835
-0.0315737
-0.0282879
-0.0250332
-0.0222753
0.0996049
0.0992025
0.0997324
0.100237
0.100319
0.0996295
0.0981545
0.0959725
0.0931113
0.0896431
0.0855657
0.0805998
0.0748037
0.0689768
0.0628741
0.0557429
0.0479842
0.0406083
0.0337668
0.0265407
0.0187269
0.0110581
0.00417755
-0.00241168
-0.00909939
-0.0160803
-0.0228487
-0.0290872
-0.0345985
-0.0391923
-0.0427509
-0.0452921
-0.0466117
-0.0468062
-0.0458641
-0.0438846
-0.0411441
-0.0377599
-0.033996
-0.0308524
0.103853
0.103266
0.103767
0.104177
0.104034
0.103152
0.101389
0.0988411
0.0955474
0.0916277
0.0870568
0.0817718
0.0756088
0.0689476
0.0623101
0.0551494
0.0471485
0.0388961
0.0314002
0.0244051
0.0170684
0.00907981
0.00148689
-0.00562674
-0.0123164
-0.0190359
-0.0259021
-0.0330567
-0.0397185
-0.0453746
-0.0498652
-0.0532137
-0.0553613
-0.0564227
-0.0562633
-0.0550378
-0.0527722
-0.0497627
-0.0460564
-0.0424748
0.10876
0.107918
0.108272
0.108569
0.108178
0.106973
0.10482
0.101822
0.0980444
0.0935872
0.0884836
0.0825931
0.076094
0.0688198
0.0613666
0.0538245
0.0458601
0.0372674
0.0289974
0.0214081
0.0143227
0.00684729
-0.00079512
-0.00846559
-0.0156511
-0.022688
-0.0296076
-0.0370133
-0.0443343
-0.0513147
-0.0573708
-0.0624978
-0.0659205
-0.0680489
-0.0686172
-0.0679166
-0.0663341
-0.0638404
-0.0607245
-0.0576789
0.114439
0.11326
0.113341
0.113442
0.112789
0.111156
0.108506
0.104916
0.100593
0.0954046
0.0896657
0.0831121
0.0759772
0.0682226
0.0600703
0.0518165
0.0436796
0.0351185
0.0265431
0.0182943
0.010898
0.00366569
-0.00339054
-0.0110403
-0.0185857
-0.0260022
-0.0333692
-0.0411662
-0.0491682
-0.0572272
-0.0646443
-0.071643
-0.0772198
-0.0813065
-0.0836695
-0.0841776
-0.0832664
-0.0812832
-0.0785483
-0.076006
0.120936
0.119377
0.119061
0.118738
0.117717
0.115615
0.112427
0.108042
0.102999
0.0970896
0.0903951
0.0831441
0.0752606
0.0667706
0.0580766
0.0491224
0.0404769
0.0318864
0.0234216
0.0148973
0.00719842
-6.63328e-05
-0.00678339
-0.0139569
-0.0213691
-0.0287709
-0.0365339
-0.0447363
-0.0535737
-0.0628956
-0.0720026
-0.0807787
-0.0888319
-0.0954397
-0.100467
-0.103403
-0.104332
-0.103674
-0.101781
-0.099692
0.128443
0.126368
0.125548
0.124594
0.122869
0.119958
0.11601
0.110869
0.104881
0.0979429
0.0903355
0.0821385
0.073425
0.0641059
0.0547782
0.0453609
0.0361827
0.0274455
0.0189661
0.0109229
0.00305982
-0.00383983
-0.0106901
-0.0173565
-0.0241064
-0.0312031
-0.0390194
-0.047485
-0.0566273
-0.066878
-0.077716
-0.0886805
-0.0998086
-0.110036
-0.118819
-0.125753
-0.130216
-0.132343
-0.132267
-0.131129
0.137069
0.134325
0.132981
0.131498
0.129166
0.125437
0.1203
0.113855
0.106501
0.0983455
0.0895067
0.0800562
0.0702241
0.0601549
0.0501819
0.040267
0.0306749
0.0217313
0.0133738
0.00578217
-0.00170935
-0.00830316
-0.0147344
-0.0205708
-0.0266542
-0.0330952
-0.0402363
-0.048239
-0.0576373
-0.0683304
-0.0800133
-0.0929889
-0.107048
-0.12172
-0.135948
-0.149163
-0.160241
-0.168745
-0.173976
-0.176573
0.146084
0.142057
0.139486
0.13649
0.132636
0.127586
0.121414
0.114104
0.105399
0.0959976
0.0856499
0.0750076
0.0639406
0.0531698
0.0425732
0.0323653
0.0226513
0.0138043
0.00579651
-0.0013744
-0.0079166
-0.0137516
-0.019204
-0.0241308
-0.0292112
-0.0345252
-0.0406941
-0.0477041
-0.0561024
-0.0658312
-0.0775898
-0.0913224
-0.107265
-0.12551
-0.145712
-0.167098
-0.18794
-0.207759
-0.2252
-0.239794
0.159369
0.155014
0.151278
0.147
0.141353
0.133999
0.124801
0.114294
0.102536
0.0904899
0.0780461
0.06557
0.0533501
0.041586
0.0304145
0.0199046
0.0102704
0.00189912
-0.00546614
-0.0116611
-0.0167443
-0.0210321
-0.0249916
-0.0283315
-0.0318109
-0.0354556
-0.0398687
-0.044949
-0.05121
-0.0587443
-0.0682295
-0.0795905
-0.0938818
-0.111894
-0.134252
-0.16072
-0.191603
-0.225795
-0.261899
-0.297935
0.166151
0.15769
0.150441
0.143323
0.135637
0.126619
0.116147
0.104443
0.0913711
0.0775522
0.0635585
0.0495613
0.0361485
0.0233854
0.0116841
0.00128695
-0.00786901
-0.0153848
-0.0213588
-0.0258958
-0.0290009
-0.0310029
-0.0324435
-0.0336203
-0.0348053
-0.0364178
-0.0384745
-0.0411556
-0.0446215
-0.0492533
-0.0549354
-0.061774
-0.0705282
-0.0820781
-0.0972288
-0.117679
-0.14492
-0.179635
-0.222617
-0.272072
0.191918
0.18362
0.174039
0.16223
0.148098
0.132223
0.115033
0.0976118
0.0802817
0.0632537
0.0465976
0.0304365
0.0149915
0.000698785
-0.0119904
-0.022962
-0.0317199
-0.0384786
-0.0430153
-0.0454673
-0.0461845
-0.0455843
-0.0441143
-0.0424645
-0.041105
-0.0407406
-0.0411773
-0.0422096
-0.0436712
-0.0457196
-0.0479653
-0.04985
-0.0520775
-0.0545878
-0.0578076
-0.0626186
-0.0700337
-0.081386
-0.100308
-0.123521
0.161537
0.143608
0.12696
0.11096
0.0945757
0.0774459
0.0590362
0.0394603
0.0193476
-0.000607934
-0.0196054
-0.0372083
-0.0528971
-0.0664585
-0.0773672
-0.085588
-0.0907758
-0.0931286
-0.0926422
-0.089686
-0.0844608
-0.0776028
-0.0698784
-0.0623494
-0.0560535
-0.0518943
-0.0502323
-0.0511213
-0.0521791
-0.0540725
-0.0559278
-0.0556602
-0.0526877
-0.0486131
-0.04471
-0.0405209
-0.0351943
-0.0284028
-0.0239028
-0.027951
0.231404
0.206174
0.178394
0.150687
0.12357
0.0970262
0.071255
0.0462525
0.0224373
0.000182725
-0.01988
-0.0373536
-0.0518599
-0.0632993
-0.0712515
-0.0755352
-0.0758075
-0.0720581
-0.0643296
-0.0527441
-0.0380142
-0.0206871
-0.00285673
0.0141938
0.0280198
0.0368443
0.0390438
0.0334526
0.0195554
-0.00122818
-0.0255758
-0.0413201
-0.0339355
-0.0222072
-0.0244161
-0.0374776
-0.0490975
-0.0539859
-0.0538443
-0.0546248
-0.0295315
-0.0609332
-0.0933052
-0.131715
-0.173803
-0.215573
-0.255004
-0.291177
-0.321605
-0.344946
-0.362437
-0.377356
-0.390103
-0.398937
-0.402138
-0.398181
-0.386797
-0.367836
-0.342114
-0.310678
-0.274879
-0.23576
-0.194374
-0.152344
-0.111761
-0.0759305
-0.0479741
-0.031435
-0.0285282
-0.0413674
-0.0703628
-0.0820545
-0.079498
-0.0818851
-0.0845828
-0.0903151
-0.0953746
-0.0988705
-0.101827
-0.10645
0.00946367
0.00988667
0.00983187
0.0101437
0.0106812
0.0112101
0.0118443
0.0122632
0.0123838
0.0121512
0.0114569
0.0101486
0.0082699
0.00601619
0.00364622
0.00140442
-0.000632751
-0.00251011
-0.00377072
-0.00498622
-0.00597116
-0.00664949
-0.00710469
-0.00736632
-0.00755948
-0.00765949
-0.00767266
-0.00755392
-0.00736306
-0.00720791
-0.00706907
-0.00689084
-0.00673092
-0.00656245
-0.00639099
-0.00622238
-0.00588723
-0.00570815
-0.00497961
-0.00597966
0.00837499
0.0098801
0.0100549
0.0103361
0.0109199
0.0114206
0.0122046
0.0128237
0.0130983
0.0128348
0.0120388
0.0106489
0.00862779
0.00619016
0.00367717
0.00132396
-0.000834242
-0.00275755
-0.00402692
-0.00533219
-0.00633772
-0.00702947
-0.00750959
-0.00775593
-0.00794814
-0.00803551
-0.00801747
-0.00786532
-0.0076538
-0.00748809
-0.00734012
-0.0071668
-0.0070111
-0.00681139
-0.00661914
-0.0063988
-0.00612294
-0.0058812
-0.00597677
-0.00761442
0.0101391
0.00993819
0.0101827
0.0104764
0.0110552
0.0116261
0.0125358
0.0133579
0.0137826
0.0135767
0.0127037
0.0112503
0.00911272
0.006506
0.00386291
0.00143684
-0.000935976
-0.00281409
-0.00429697
-0.00563131
-0.00662573
-0.00737885
-0.00785271
-0.00813171
-0.00830418
-0.00837319
-0.00832156
-0.00815473
-0.00796006
-0.00782099
-0.00765765
-0.0074839
-0.00729878
-0.00706376
-0.00685052
-0.0065997
-0.00634759
-0.00600686
-0.00547929
-0.00503863
0.00887886
0.00996338
0.0102422
0.0105748
0.0112073
0.0119315
0.0129313
0.0138934
0.0144477
0.0143754
0.0134608
0.0119385
0.00970924
0.00694851
0.00416687
0.00165519
-0.000956681
-0.00281368
-0.00453794
-0.00588682
-0.00691544
-0.00768067
-0.00822698
-0.00855366
-0.00872354
-0.00879684
-0.0086945
-0.00848082
-0.00831059
-0.00818247
-0.00797905
-0.00779843
-0.00757322
-0.00731618
-0.00707443
-0.00680035
-0.00656424
-0.00634242
-0.00636657
-0.00708938
0.0106379
0.0100796
0.0102387
0.0106646
0.0114414
0.0123112
0.013381
0.0144464
0.0151085
0.015226
0.014323
0.0127215
0.0104024
0.00748351
0.00454027
0.00187453
-0.000833665
-0.0028446
-0.00471328
-0.00607897
-0.0072019
-0.00801643
-0.00862065
-0.008986
-0.00917754
-0.00926534
-0.00916244
-0.00889927
-0.00874077
-0.0085769
-0.00833698
-0.00812967
-0.0078616
-0.00758847
-0.00732015
-0.00704131
-0.00679843
-0.00649358
-0.00595157
-0.00526453
0.00930275
0.010098
0.0102734
0.0108292
0.0117415
0.0126701
0.0138232
0.0150474
0.0158266
0.0161205
0.0152983
0.0136218
0.0111883
0.00808406
0.00496367
0.00207352
-0.000614378
-0.0029067
-0.00483038
-0.00628334
-0.0074398
-0.00833411
-0.00898278
-0.00937258
-0.00958698
-0.00971297
-0.00961566
-0.00935132
-0.00921591
-0.00901819
-0.00876654
-0.00852106
-0.00820609
-0.00790796
-0.00761202
-0.00732486
-0.00705952
-0.00683974
-0.00680917
-0.0070803
0.0108544
0.0101158
0.0104071
0.0110532
0.0120503
0.0130174
0.0142706
0.0156538
0.016652
0.0170851
0.01638
0.0146317
0.012058
0.00874874
0.00547019
0.00233452
-0.000388026
-0.00295035
-0.00488798
-0.00648544
-0.00770534
-0.0086566
-0.00933929
-0.00973671
-0.0100104
-0.0101586
-0.0100172
-0.00982413
-0.00972329
-0.0094956
-0.0092436
-0.00896637
-0.00861474
-0.0082915
-0.00796509
-0.00765128
-0.00734884
-0.00703286
-0.00654642
-0.00587218
0.00953
0.01007
0.0105839
0.0112737
0.0122851
0.0133961
0.0147817
0.01625
0.0175371
0.0181412
0.0175556
0.0157447
0.013013
0.0094649
0.00604218
0.00270281
-0.000162034
-0.00289753
-0.00492861
-0.00666374
-0.00799495
-0.0090272
-0.00976988
-0.0101971
-0.010553
-0.0106663
-0.0104712
-0.0103656
-0.0102774
-0.0100103
-0.00975646
-0.00943324
-0.00905283
-0.00869494
-0.00832847
-0.00797506
-0.00765213
-0.00738866
-0.00728671
-0.00730047
0.0108927
0.0100447
0.0106748
0.0113993
0.0124485
0.0137302
0.0152733
0.0169125
0.0184543
0.0193036
0.0188483
0.0169806
0.0141088
0.0102575
0.0066547
0.00313121
7.2671e-05
-0.00276645
-0.00495845
-0.00682976
-0.0083128
-0.00945672
-0.0102585
-0.0107245
-0.0111634
-0.0112335
-0.011063
-0.0110268
-0.0108937
-0.0105863
-0.0102792
-0.00987503
-0.0094523
-0.0090464
-0.008655
-0.00829185
-0.00795953
-0.00761574
-0.00716435
-0.00662629
0.00981293
0.010042
0.0106647
0.0114571
0.012548
0.0139913
0.0156857
0.0176243
0.0194514
0.0206169
0.0202957
0.0183321
0.0153577
0.0111647
0.00731428
0.00362418
0.000340447
-0.00259877
-0.00500994
-0.0069765
-0.008651
-0.00990011
-0.0107517
-0.0113101
-0.0118125
-0.0118611
-0.0117824
-0.0117416
-0.0114948
-0.0111152
-0.0107112
-0.0102625
-0.00981897
-0.00939931
-0.0090055
-0.00864409
-0.00830562
-0.0079958
-0.00780014
-0.00766427
0.010277
0.00998692
0.0105888
0.0114655
0.0126049
0.0142437
0.0161296
0.018401
0.0205465
0.0220884
0.0219303
0.0198097
0.0166953
0.0120324
0.00802578
0.00419389
0.000632754
-0.00242046
-0.00510501
-0.00715719
-0.00901232
-0.0103517
-0.0112681
-0.0119589
-0.0124666
-0.0124884
-0.0124597
-0.0123562
-0.0120214
-0.0116072
-0.0111846
-0.0107461
-0.0102982
-0.00987384
-0.00947278
-0.00910344
-0.00873455
-0.00836488
-0.00791273
-0.00738366
0.00968801
0.00980555
0.0104206
0.0113525
0.0125814
0.014485
0.0166186
0.0192156
0.0217272
0.0236973
0.0237729
0.0214044
0.017895
0.0128499
0.00894408
0.00485226
0.000968255
-0.00225698
-0.00515559
-0.00740932
-0.00938063
-0.010833
-0.0118251
-0.0126164
-0.0130571
-0.013068
-0.0131039
-0.012997
-0.0126636
-0.0122859
-0.0118683
-0.0114117
-0.0109361
-0.0104946
-0.0100566
-0.00963512
-0.0092053
-0.00880461
-0.00841938
-0.00809114
0.00986015
0.00965305
0.0101234
0.0111783
0.0125293
0.0146592
0.0170534
0.0199795
0.022962
0.0254246
0.0258007
0.0230759
0.0193695
0.0140376
0.00983576
0.0055827
0.00141311
-0.00211213
-0.00516172
-0.00772103
-0.00979262
-0.0113836
-0.0124116
-0.013258
-0.0136716
-0.0137943
-0.013943
-0.0138281
-0.0134891
-0.0131282
-0.0126687
-0.0121741
-0.0116595
-0.0111676
-0.0106586
-0.0101843
-0.00970637
-0.00924704
-0.00872998
-0.00824125
0.00921638
0.00954576
0.00983364
0.010936
0.0124388
0.0147477
0.0173904
0.0206476
0.0241983
0.0272433
0.0279823
0.0249008
0.0210568
0.0155044
0.0108253
0.00633083
0.00195318
-0.00194538
-0.00515375
-0.00805419
-0.0102828
-0.0119335
-0.0130115
-0.0139673
-0.0144267
-0.0146724
-0.0148654
-0.0147159
-0.0143734
-0.0139809
-0.0134734
-0.0129301
-0.0123823
-0.0118452
-0.0112916
-0.0107817
-0.0102578
-0.00974823
-0.0092111
-0.00881084
0.00896383
0.00927491
0.00953909
0.0105801
0.0122338
0.0147368
0.0176327
0.0212033
0.025398
0.029179
0.0303425
0.0269666
0.0225778
0.0168671
0.0119879
0.00714484
0.00240558
-0.00164824
-0.00511899
-0.00836014
-0.0107408
-0.0124423
-0.0136539
-0.0146859
-0.0152013
-0.015553
-0.0157536
-0.0155584
-0.0152216
-0.0147796
-0.0142461
-0.0137039
-0.0131824
-0.0126386
-0.0120713
-0.0115193
-0.0109372
-0.0103645
-0.0097985
-0.00948946
0.00819861
0.00876158
0.00907676
0.0100421
0.0117946
0.0145818
0.0178202
0.0216886
0.0265251
0.0312024
0.0329378
0.029312
0.0238222
0.0182916
0.0133573
0.00801639
0.00300894
-0.00126742
-0.0050589
-0.00858867
-0.0110995
-0.0129683
-0.0143899
-0.0154277
-0.0160368
-0.0165038
-0.016677
-0.0164326
-0.0161003
-0.0156253
-0.0151198
-0.0146245
-0.014139
-0.013584
-0.0129878
-0.0123743
-0.0117216
-0.011084
-0.0104758
-0.0101596
0.00741937
0.00805023
0.00841295
0.00933819
0.0110951
0.0141423
0.0178715
0.022076
0.0275757
0.033249
0.0358299
0.0319742
0.0250861
0.0199504
0.0148552
0.0092051
0.00389576
-0.000811693
-0.00495804
-0.00876057
-0.0115169
-0.0136047
-0.0152105
-0.0162847
-0.016987
-0.0175351
-0.0176825
-0.017435
-0.0171163
-0.0166299
-0.0161475
-0.0156548
-0.015157
-0.0145348
-0.0138834
-0.0131978
-0.0125062
-0.0118487
-0.0112173
-0.0108883
0.00643838
0.00724265
0.00759757
0.00843687
0.0101694
0.013333
0.0176259
0.0222376
0.0284621
0.0352407
0.0390224
0.0350829
0.0268804
0.0220076
0.0165509
0.0107281
0.00495615
-0.000168995
-0.00492683
-0.00894937
-0.0120051
-0.0143118
-0.0160359
-0.017206
-0.0180292
-0.018639
-0.0187961
-0.0186041
-0.0182903
-0.0177753
-0.0172647
-0.0167053
-0.0161403
-0.0154503
-0.0147542
-0.0140243
-0.0133126
-0.0126188
-0.0119919
-0.0117067
0.0049959
0.0061602
0.00651327
0.00724362
0.00906098
0.012194
0.0169595
0.0220913
0.0290374
0.0370235
0.0423382
0.0389344
0.029539
0.0245455
0.0186527
0.0125558
0.00619608
0.000439549
-0.00486917
-0.00909877
-0.0124209
-0.0149843
-0.0168373
-0.0181642
-0.0191776
-0.0198626
-0.0200569
-0.0199353
-0.0195945
-0.0190613
-0.0185246
-0.0179127
-0.0172987
-0.0165677
-0.0158463
-0.0150694
-0.0143083
-0.0135119
-0.0128579
-0.0126069
0.00335592
0.00449433
0.00491845
0.00549276
0.00748869
0.0106046
0.0156407
0.0214565
0.0291727
0.0384808
0.0457103
0.0432831
0.033153
0.0276882
0.0212673
0.0147589
0.00762946
0.00119165
-0.00466691
-0.00914149
-0.0127711
-0.015628
-0.0176529
-0.0192082
-0.0204034
-0.0211762
-0.0214157
-0.0213723
-0.0210477
-0.0205737
-0.0200537
-0.0194656
-0.0188493
-0.0180668
-0.0172695
-0.0163943
-0.0155557
-0.0146668
-0.013932
-0.0136141
0.00121522
0.00224867
0.00260937
0.00290144
0.00494099
0.00816066
0.0133671
0.0200208
0.0287048
0.039531
0.048598
0.0480005
0.0377535
0.0316131
0.0245483
0.0173336
0.00930137
0.00214981
-0.00430942
-0.00913538
-0.0132161
-0.0163436
-0.0186027
-0.020359
-0.0216814
-0.0225224
-0.0228067
-0.0228395
-0.0225573
-0.0221755
-0.021709
-0.0211671
-0.0205202
-0.0196638
-0.0187971
-0.0178542
-0.0169586
-0.0160473
-0.0152507
-0.0148263
-0.00116284
-0.00033283
-0.000292438
-0.000426189
0.00139103
0.00472518
0.00993993
0.0174345
0.0272555
0.0398597
0.0506573
0.0527215
0.0434948
0.0364324
0.0285423
0.0202937
0.0112856
0.00320184
-0.00381386
-0.00931038
-0.0138837
-0.0173005
-0.0198232
-0.0217171
-0.0231008
-0.0239404
-0.02423
-0.0242855
-0.0240232
-0.0237104
-0.0232432
-0.0227081
-0.0220317
-0.0211905
-0.0203489
-0.0194005
-0.0185404
-0.0176287
-0.0167793
-0.0162681
-0.00442781
-0.00337015
-0.0036313
-0.00412448
-0.00282907
0.00046187
0.00543588
0.01358
0.0244181
0.0388161
0.0515204
0.0562423
0.0508793
0.0424421
0.0334263
0.0237906
0.0136472
0.00443057
-0.00333036
-0.00971498
-0.014735
-0.0184756
-0.0212713
-0.0233524
-0.0248224
-0.0256606
-0.0260391
-0.0260859
-0.0258155
-0.0254622
-0.0249538
-0.0244688
-0.023811
-0.023048
-0.0221672
-0.021193
-0.0202825
-0.0192804
-0.0184254
-0.0178712
-0.00864629
-0.00770475
-0.00841222
-0.00929145
-0.00854607
-0.00540496
-0.000666656
0.00789843
0.01986
0.0356209
0.0504462
0.0589658
0.0581653
0.0495668
0.0392622
0.027896
0.0164619
0.00614612
-0.00264827
-0.00993102
-0.015432
-0.0196245
-0.0228502
-0.0252616
-0.0270371
-0.0280548
-0.028582
-0.0286414
-0.0284008
-0.0280034
-0.0275402
-0.0270433
-0.0262864
-0.0253621
-0.0242311
-0.0231324
-0.0220114
-0.0209136
-0.0200875
-0.0195927
-0.0142698
-0.0139369
-0.0155663
-0.01749
-0.0175178
-0.0148112
-0.00988677
-0.00101403
0.0124188
0.0296071
0.046711
0.0596581
0.0639189
0.0572983
0.0456555
0.0325009
0.0198369
0.00841807
-0.0015155
-0.00956211
-0.0157099
-0.0205749
-0.0243871
-0.0272651
-0.0294181
-0.0306696
-0.0313888
-0.0316211
-0.0314925
-0.031124
-0.0306066
-0.0298538
-0.0287845
-0.0275755
-0.0263181
-0.0251476
-0.023908
-0.0227736
-0.0218813
-0.021503
-0.0209972
-0.0216027
-0.0244601
-0.0281506
-0.0296581
-0.0283052
-0.0234217
-0.0143777
0.00035923
0.0198125
0.0397148
0.057149
0.0674642
0.0644603
0.0522105
0.0373259
0.0233727
0.0106908
-0.000237158
-0.00895749
-0.0158664
-0.0214244
-0.025673
-0.0289603
-0.0313795
-0.0329152
-0.0339478
-0.0343162
-0.0342234
-0.033808
-0.0331535
-0.0322425
-0.0311316
-0.0300295
-0.0288992
-0.0277642
-0.0264989
-0.0252802
-0.0242656
-0.0238969
-0.029565
-0.0309121
-0.0349267
-0.0404461
-0.0441159
-0.0446762
-0.0412014
-0.032823
-0.0175735
0.00473868
0.028601
0.0506333
0.0684517
0.0703396
0.0583413
0.0418892
0.0264852
0.0124029
0.000493456
-0.00898614
-0.0166159
-0.022694
-0.0273394
-0.03104
-0.0337374
-0.0355369
-0.0366341
-0.036965
-0.0369697
-0.0366432
-0.0361469
-0.0354342
-0.0345661
-0.0336674
-0.0326023
-0.031406
-0.0299956
-0.0286134
-0.027414
-0.026923
-0.0413204
-0.0435129
-0.0493366
-0.0573409
-0.0642266
-0.0672165
-0.0657746
-0.0585535
-0.0427503
-0.0173202
0.0119307
0.0392773
0.0658718
0.0736102
0.0627718
0.045566
0.028891
0.0132503
0.000373911
-0.0100363
-0.0184793
-0.0253045
-0.0306523
-0.0347368
-0.0376264
-0.0394901
-0.0405314
-0.0411061
-0.0413693
-0.0412136
-0.0408501
-0.0401384
-0.0392808
-0.0382866
-0.0370091
-0.0355955
-0.0339999
-0.0325031
-0.0311616
-0.0305647
-0.0574427
-0.0616266
-0.0706489
-0.0830373
-0.095207
-0.103509
-0.103851
-0.0974313
-0.0787243
-0.0480745
-0.0117363
0.0214301
0.0586017
0.0720982
0.0636471
0.0469866
0.0297685
0.0131782
-0.000518646
-0.012055
-0.0214052
-0.0292007
-0.0350867
-0.0394769
-0.0425153
-0.0445468
-0.0458431
-0.046577
-0.0469652
-0.0467505
-0.0462746
-0.0454217
-0.0443785
-0.0431212
-0.0416058
-0.0400577
-0.0383763
-0.0368447
-0.0354157
-0.0347804
-0.0773567
-0.0854434
-0.0996441
-0.118364
-0.137514
-0.153525
-0.16049
-0.154509
-0.129687
-0.0894553
-0.0430249
-0.000927507
0.0407705
0.0629672
0.0581246
0.0437053
0.0272958
0.0109787
-0.00318522
-0.0152478
-0.0251323
-0.0334319