/*--------------------------------*- C++ -*----------------------------------*\
  =========                 |
  \\      /  F ield         | OpenFOAM: The Open Source CFD Toolbox
   \\    /   O peration     | Website:  https://openfoam.org
    \\  /    A nd           | Version:  11
     \\/     M anipulation  |
\*---------------------------------------------------------------------------*/
FoamFile
{
    format      ascii;
    class       volVectorField;
    location    "3.5";
    object      U;
}
// * * * * * * * * * * * * * * * * * * * * * * * * * * * * * * * * * * * * * //

dimensions      [0 1 -1 0 0 0 0];

internalField   nonuniform List<vector> 
9600
(
(0.993946 0.000483674 -6.50591e-21)
(0.993866 0.000544433 0)
(0.993918 0.000883631 -6.73502e-21)
(0.99312 0.00100461 6.7201e-21)
(0.992624 0.000474011 0)
(0.992813 0.000129956 3.45018e-21)
(0.993653 -3.31904e-05 -6.93778e-21)
(0.995597 0.000699468 3.46955e-21)
(0.996082 0.00559207 3.51404e-21)
(0.983411 0.0117003 -3.54737e-21)
(0.952698 0.0123118 2.74694e-23)
(0.93474 0.00677186 0)
(0.931714 -0.00045199 0)
(0.937773 -0.00719232 -1.5807e-21)
(0.956523 -0.0154123 7.4618e-23)
(0.978055 -0.0229612 1.50952e-21)
(0.996704 -0.0286534 0)
(1.01278 -0.0324098 0)
(1.02667 -0.0339679 2.18445e-24)
(1.03802 -0.0345848 0)
(1.04738 -0.0335345 0)
(1.05515 -0.0327181 -1.4344e-24)
(1.06106 -0.0305553 2.3597e-24)
(1.06464 -0.0296719 -4.48914e-22)
(1.06681 -0.0270275 4.4467e-22)
(1.06612 -0.0252389 2.88368e-22)
(1.06437 -0.0229322 -2.88937e-22)
(1.06137 -0.021417 -4.17564e-22)
(1.05758 -0.0189662 4.11333e-22)
(1.05245 -0.017036 0)
(1.04649 -0.0148238 0)
(1.04078 -0.0119677 3.9589e-22)
(1.0349 -0.0102221 -7.98671e-22)
(1.02972 -0.00705449 4.05691e-22)
(1.02458 -0.00526361 0)
(1.01995 -0.00277331 7.03371e-24)
(1.01557 -0.000814501 9.17729e-22)
(1.01162 0.00133276 -9.04213e-22)
(1.00808 0.00277398 -7.15899e-24)
(1.0046 0.00727836 -1.84837e-21)
(0.994783 -5.64466e-05 -6.65792e-21)
(0.995083 -7.27112e-05 -1.96793e-22)
(0.995192 -0.000257883 -4.35861e-23)
(0.995603 -0.00053325 7.02816e-21)
(0.99623 -0.000563799 3.58224e-21)
(0.99656 -0.000502494 -3.59412e-21)
(0.996768 -0.000404665 5.66658e-23)
(0.997003 0.000138594 2.82847e-23)
(0.99803 0.00225763 -3.61746e-21)
(1.00116 0.00444225 3.70143e-21)
(1.00359 0.00296098 -2.80103e-23)
(1.00408 -0.00230768 5.37014e-23)
(1.00352 -0.00421587 1.58126e-21)
(1.00443 -0.00428375 -3.19832e-21)
(1.00874 -0.00174774 1.61416e-21)
(1.01758 0.00662049 1.41959e-21)
(1.02442 0.0152136 -1.43384e-21)
(1.03011 0.0215533 6.02946e-22)
(1.03557 0.0253267 -5.95534e-22)
(1.04084 0.0276783 0)
(1.04588 0.0281315 0)
(1.05034 0.0287952 -3.35582e-22)
(1.05404 0.0283764 3.3255e-22)
(1.0559 0.0280928 3.93106e-24)
(1.0561 0.027071 0)
(1.05512 0.026791 3.05443e-22)
(1.05362 0.0252447 -4.80926e-23)
(1.04933 0.0244311 1.88296e-22)
(1.04652 0.0223686 -4.33396e-22)
(1.04038 0.0206997 -6.02284e-24)
(1.03593 0.0182475 3.89497e-22)
(1.02908 0.015235 -3.91616e-22)
(1.02405 0.0131979 4.23091e-22)
(1.01828 0.00897271 -8.54046e-22)
(1.01255 0.00758062 4.23526e-22)
(1.00774 0.00429085 -7.20605e-24)
(1.0037 0.00258298 -7.38371e-24)
(0.999094 -0.000262547 0)
(0.997402 -0.00157414 7.37188e-24)
(0.992293 -0.00748489 -8.63824e-22)
(0.994868 -8.95258e-05 0)
(0.99513 -0.000202648 7.14784e-21)
(0.995383 -0.00014709 -7.06556e-21)
(0.995746 -7.5216e-05 0)
(0.996108 -0.00016547 0)
(0.996661 -0.00035164 -1.15664e-22)
(0.997945 -0.000557595 -1.74504e-22)
(1.00035 0.000368138 0)
(1.00296 0.00505904 -3.81835e-21)
(1.00317 0.00969215 3.66214e-21)
(1.00162 0.0103678 0)
(0.994347 0.00698935 -5.4779e-23)
(0.986554 0.000302896 5.39844e-23)
(0.987746 -0.00731385 0)
(0.993594 -0.0162106 -1.60139e-21)
(1.00305 -0.023955 1.578e-21)
(1.01491 -0.0295936 4.40868e-23)
(1.02639 -0.0339659 -1.01756e-23)
(1.03756 -0.0360779 -2.75088e-22)
(1.0464 -0.0370917 2.84278e-22)
(1.05493 -0.0360088 2.17132e-22)
(1.06139 -0.0349144 -2.26216e-22)
(1.06794 -0.031748 5.05686e-24)
(1.07078 -0.0304796 -4.91387e-22)
(1.07434 -0.0267621 4.84292e-22)
(1.07413 -0.0248376 3.0336e-22)
(1.07405 -0.0207268 -3.1869e-22)
(1.07061 -0.0192222 4.51836e-22)
(1.06808 -0.0153312 -4.51548e-22)
(1.0622 -0.0132599 6.16765e-24)
(1.05774 -0.00973293 0)
(1.05151 -0.00741642 3.9734e-22)
(1.04618 -0.00484875 -8.08538e-22)
(1.04125 -0.00158863 4.04716e-22)
(1.0359 -0.00101744 4.41564e-22)
(1.03182 0.00265381 -1.30529e-21)
(1.02853 0.00283194 -2.80818e-23)
(1.02372 0.00547673 9.00754e-22)
(1.02114 0.00634858 -1.49794e-23)
(1.01526 0.00866632 -5.82768e-27)
(0.994903 -0.000241157 -1.40496e-20)
(0.995185 -0.000385717 7.15752e-21)
(0.995456 -0.000325626 7.3692e-21)
(0.995817 -0.000389446 -7.39747e-21)
(0.996397 -0.000590571 0)
(0.997311 -0.000976523 3.92843e-21)
(0.998612 -0.001108 -3.69536e-21)
(1.00024 0.00031751 3.93185e-21)
(1.00393 0.00468285 -4.15175e-23)
(1.00697 0.00705233 -3.809e-21)
(1.00837 0.00604584 -3.53859e-21)
(1.01203 0.000902776 7.32269e-21)
(1.01925 -0.00605789 -1.84922e-21)
(1.02676 -0.0117954 -3.3852e-21)
(1.03275 -0.0125859 1.65928e-21)
(1.03812 -0.0068721 1.50535e-21)
(1.04283 0.00174055 -1.48337e-21)
(1.04582 0.00909205 -2.05762e-23)
(1.0477 0.0147372 -9.34642e-24)
(1.04937 0.018637 0)
(1.05147 0.0205702 0)
(1.05424 0.0226084 6.21442e-24)
(1.05741 0.0240081 0)
(1.05881 0.0248539 0)
(1.05878 0.0255645 -7.08777e-24)
(1.05779 0.0265714 1.10265e-23)
(1.05629 0.02619 -2.55204e-22)
(1.05311 0.0261476 -1.77821e-22)
(1.04933 0.024991 4.70126e-22)
(1.04423 0.0238021 -3.95886e-22)
(1.04027 0.0215335 3.94949e-22)
(1.03404 0.0189299 1.22922e-23)
(1.02873 0.0164015 4.2039e-22)
(1.02369 0.0125205 -4.31748e-22)
(1.0171 0.0105418 -4.70457e-22)
(1.0124 0.00602659 -5.25906e-22)
(1.00773 0.004723 -2.47334e-23)
(1.00295 0.00143687 1.02573e-21)
(1.00068 0.000348363 1.53344e-23)
(0.997648 -0.00416866 1.48173e-23)
(0.994921 -0.000399402 0)
(0.995215 -0.000639794 7.70443e-21)
(0.99549 -0.000564096 -1.53321e-20)
(0.995914 -0.000694167 7.61682e-21)
(0.996784 -0.00109741 0)
(0.997786 -0.00148675 0)
(0.998849 -0.00140987 0)
(1.0003 -5.17434e-05 1.2307e-22)
(1.00501 0.00385514 -3.74754e-21)
(1.01252 0.00734229 3.89461e-21)
(1.01778 0.006324 -1.18647e-22)
(1.01944 0.000679001 3.55551e-21)
(1.01759 -0.00618053 -5.47183e-21)
(1.01446 -0.0111016 1.78814e-21)
(1.01265 -0.0163988 0)
(1.01453 -0.0217946 1.49461e-21)
(1.02077 -0.0265303 -1.54549e-21)
(1.02877 -0.0308919 2.11012e-23)
(1.03826 -0.0333618 0)
(1.0464 -0.035271 0)
(1.05422 -0.0349608 -2.30117e-22)
(1.06025 -0.0346113 2.30071e-22)
(1.06628 -0.0314861 0)
(1.06946 -0.0298659 -5.33306e-22)
(1.0725 -0.025834 5.47102e-22)
(1.07321 -0.0237 3.48465e-22)
(1.07352 -0.0186273 -3.3913e-22)
(1.07123 -0.0164018 4.61931e-22)
(1.06844 -0.0113893 -4.90469e-22)
(1.06345 -0.00976823 -1.2387e-23)
(1.05924 -0.0054063 0)
(1.05259 -0.00283639 -1.25999e-23)
(1.0484 -9.43332e-05 -3.90348e-22)
(1.04222 0.00328819 4.02044e-22)
(1.03813 0.00431505 -1.40321e-23)
(1.03335 0.00732936 0)
(1.03056 0.0076029 0)
(1.02529 0.00906237 9.69626e-22)
(1.02254 0.00943743 -9.32605e-22)
(1.01628 0.0103489 3.13653e-23)
(0.994828 -0.000546092 -7.21919e-21)
(0.995182 -0.000935429 -2.3854e-22)
(0.995563 -0.00088972 2.4265e-22)
(0.996227 -0.0010237 2.47702e-22)
(0.996964 -0.00146016 0)
(0.997785 -0.00190046 0)
(0.99928 -0.00193232 0)
(1.00264 -0.000408158 3.76448e-21)
(1.00812 0.00286933 -8.27991e-21)
(1.01184 0.00406661 3.74766e-21)
(1.01555 0.00219178 0)
(1.02079 -0.0018563 3.64858e-21)
(1.02704 -0.00791265 -3.77582e-21)
(1.0335 -0.0142853 -1.74148e-21)
(1.04028 -0.017597 1.74393e-21)
(1.04644 -0.0157725 5.00955e-23)
(1.05174 -0.00965526 -4.65858e-23)
(1.05484 -0.00324849 0)
(1.05701 0.00308269 1.94176e-23)
(1.05878 0.00800724 0)
(1.05953 0.0117699 -3.81891e-24)
(1.0608 0.014733 -1.3091e-23)
(1.06278 0.0180681 0)
(1.06367 0.0202728 5.08966e-22)
(1.06405 0.0225359 -5.05145e-22)
(1.06219 0.0249919 2.93171e-22)
(1.0599 0.0257576 -3.35112e-22)
(1.05676 0.026754 -4.45291e-22)
(1.05353 0.0265725 4.46436e-22)
(1.04862 0.0264247 3.30857e-25)
(1.04456 0.0246263 2.38963e-23)
(1.03883 0.0228919 -2.42938e-23)
(1.0337 0.0200115 4.36963e-22)
(1.02863 0.0168085 -9.0555e-22)
(1.02199 0.0143817 4.6842e-22)
(1.01725 0.00926944 0)
(1.01207 0.00776489 3.0014e-23)
(1.00726 0.00430196 -3.10417e-23)
(1.00474 0.00334463 -3.2386e-23)
(1.00105 -0.000999882 9.88759e-22)
(0.994957 -0.000768852 -2.01216e-22)
(0.995312 -0.00125945 -1.55805e-20)
(0.995683 -0.00123672 1.62488e-22)
(0.996482 -0.00139419 7.85001e-21)
(0.997347 -0.00181624 0)
(0.998247 -0.0023956 2.60127e-22)
(0.999955 -0.00279876 2.60962e-22)
(1.0033 -0.0018609 0)
(1.00942 0.0014579 4.35729e-21)
(1.01428 0.0032704 -3.60032e-21)
(1.0184 0.000642856 0)
(1.02384 -0.00622798 2.46163e-22)
(1.02844 -0.0125876 -1.8732e-21)
(1.03038 -0.0161515 1.87626e-21)
(1.02964 -0.0186694 0)
(1.02865 -0.021281 1.55309e-21)
(1.03006 -0.023703 -1.60623e-21)
(1.03414 -0.0272907 0)
(1.04049 -0.0296598 -3.50445e-22)
(1.04753 -0.031868 3.10691e-22)
(1.05445 -0.0317144 7.83164e-24)
(1.06034 -0.0321405 2.68358e-23)
(1.06568 -0.0295858 -2.23813e-23)
(1.06946 -0.0281087 -5.85516e-22)
(1.07198 -0.0237642 5.81477e-22)
(1.07302 -0.0214414 2.42477e-23)
(1.07367 -0.0163724 3.02862e-22)
(1.07242 -0.0135575 -3.33863e-22)
(1.06965 -0.00767941 -4.10648e-22)
(1.06527 -0.0057889 4.12456e-22)
(1.06094 -0.00128008 -2.45313e-23)
(1.05472 0.00143315 1.30506e-24)
(1.05041 0.00459261 0)
(1.04396 0.00758643 -2.5873e-23)
(1.0403 0.00985969 -4.14488e-22)
(1.03511 0.0118037 -4.38751e-22)
(1.0324 0.0125794 -8.09516e-23)
(1.02698 0.0132636 9.26735e-22)
(1.02417 0.0129399 -1.07861e-21)
(1.01764 0.012919 1.09421e-21)
(0.994849 -0.00116389 8.03189e-21)
(0.995341 -0.00164767 3.40582e-22)
(0.995992 -0.00175691 -1.63437e-20)
(0.996874 -0.00193849 8.1187e-21)
(0.997665 -0.00226058 0)
(0.9987 -0.00320278 -2.67117e-22)
(1.00101 -0.00410231 -4.28148e-21)
(1.00493 -0.00269946 8.82353e-21)
(1.00992 0.000362145 -8.23327e-21)
(1.01489 0.000339791 3.97281e-21)
(1.01915 -0.00386148 0)
(1.02407 -0.00906736 3.85819e-21)
(1.02842 -0.0137595 -3.8706e-21)
(1.03401 -0.0178278 -1.72169e-21)
(1.04102 -0.0202895 1.84163e-21)
(1.04813 -0.0204559 0)
(1.05512 -0.0171805 3.32039e-25)
(1.05968 -0.013192 0)
(1.06246 -0.00781326 4.07634e-23)
(1.06477 -0.00302491 -9.06888e-24)
(1.06669 0.00213715 -4.01812e-24)
(1.06747 0.00598581 -1.37631e-23)
(1.06894 0.0108558 2.30032e-23)
(1.06933 0.014405 -5.21533e-22)
(1.07021 0.0182139 5.32383e-22)
(1.06858 0.0222794 3.104e-22)
(1.06532 0.0246104 -3.09907e-22)
(1.06113 0.0265116 -4.30667e-22)
(1.05799 0.0273263 8.46066e-22)
(1.05362 0.0281778 -7.50831e-22)
(1.04938 0.027446 3.75098e-22)
(1.04383 0.0265255 2.4271e-23)
(1.03908 0.0243417 0)
(1.03335 0.0212739 2.65691e-23)
(1.02736 0.0189087 0)
(1.02232 0.0139801 0)
(1.01655 0.0117532 0)
(1.01199 0.00790687 1.1203e-21)
(1.00912 0.00739637 -1.17929e-21)
(1.00484 0.00312866 -6.78333e-23)
(0.995062 -0.00145289 -7.76452e-21)
(0.995752 -0.00214436 4.05691e-24)
(0.996401 -0.00239631 -9.16877e-21)
(0.997203 -0.00250597 8.94275e-21)
(0.99796 -0.00301937 -5.51802e-22)
(0.99925 -0.00440177 -4.69992e-21)
(1.00147 -0.00501857 3.88312e-21)
(1.00545 -0.00370041 -2.75686e-22)
(1.0107 -0.0018291 -4.63215e-21)
(1.0156 -0.00235872 8.67438e-21)
(1.02008 -0.00630846 -4.58237e-21)
(1.02498 -0.012389 0)
(1.03004 -0.0179101 -3.79148e-22)
(1.03471 -0.0214506 -1.2137e-22)
(1.03885 -0.0229742 1.15458e-22)
(1.04127 -0.0237156 1.56862e-21)
(1.04295 -0.0237223 -1.62881e-21)
(1.04464 -0.0251696 0)
(1.04767 -0.0265662 -4.17505e-23)
(1.05143 -0.0287844 1.06474e-26)
(1.05655 -0.028198 0)
(1.06188 -0.0287779 1.39807e-23)
(1.06662 -0.0265767 2.33054e-23)
(1.07024 -0.0254624 1.91975e-23)
(1.07224 -0.0210969 -3.08347e-23)
(1.0739 -0.0185892 0)
(1.07475 -0.013871 0)
(1.07439 -0.0104463 4.84445e-22)
(1.07167 -0.00424486 -4.58431e-22)
(1.06805 -0.00165225 -2.21446e-23)
(1.06323 0.00312046 0)
(1.05746 0.00566065 -3.90099e-22)
(1.05273 0.00913953 7.45638e-22)
(1.04625 0.0121031 -7.66553e-22)
(1.0426 0.0147857 3.88115e-22)
(1.03727 0.0163687 -5.72773e-23)
(1.03426 0.0177715 -8.51184e-22)
(1.02865 0.0179611 9.09068e-22)
(1.02583 0.0170298 1.18154e-21)
(1.01902 0.0160818 -2.28679e-21)
(0.995066 -0.00204641 -8.63582e-21)
(0.995757 -0.00281356 1.64443e-20)
(0.996415 -0.00310524 9.03534e-23)
(0.997347 -0.00318137 -9.54896e-21)
(0.998078 -0.00387501 5.67651e-22)
(0.999441 -0.00541548 2.85414e-22)
(1.00225 -0.00635945 2.86062e-22)
(1.00592 -0.00524751 4.5465e-21)
(1.01125 -0.00379784 -5.66566e-23)
(1.01638 -0.00535759 -4.52021e-21)
(1.02039 -0.010535 -4.08557e-21)
(1.02501 -0.0161684 4.077e-22)
(1.02956 -0.0204671 6.54595e-21)
(1.03412 -0.0236099 -3.99456e-21)
(1.04023 -0.0249503 1.83458e-21)
(1.04734 -0.0247613 2.23198e-22)
(1.05472 -0.0224008 0)
(1.0611 -0.0199006 -7.13788e-22)
(1.0655 -0.015739 1.05466e-21)
(1.06821 -0.0122282 -3.09461e-22)
(1.0711 -0.00723982 0)
(1.07326 -0.00287271 -4.17669e-22)
(1.07506 0.00288815 3.79136e-22)
(1.07544 0.00787863 -5.12081e-22)
(1.07627 0.0127074 4.81408e-22)
(1.0757 0.0180426 2.77831e-22)
(1.0726 0.0225628 -5.5651e-22)
(1.06785 0.0254788 -1.60283e-22)
(1.06365 0.0274244 3.70534e-22)
(1.05926 0.0291084 4.32438e-23)
(1.05475 0.0296838 0)
(1.04964 0.0298571 4.1983e-23)
(1.04436 0.028657 0)
(1.03824 0.0261022 4.33837e-22)
(1.03315 0.0239174 -4.83115e-22)
(1.02722 0.0194832 -1.09659e-21)
(1.02124 0.0168915 1.03105e-21)
(1.01667 0.0128146 0)
(1.01358 0.0125311 -1.1458e-21)
(1.00873 0.00835948 1.19571e-21)
(0.995276 -0.00249315 -9.48611e-21)
(0.995965 -0.00345009 5.65765e-22)
(0.996669 -0.00374732 -9.27567e-21)
(0.997555 -0.0039307 1.04895e-20)
(0.998559 -0.00495362 0)
(1.00003 -0.00694368 0)
(1.00219 -0.007647 0)
(1.00669 -0.00671778 0)
(1.01253 -0.00650783 -4.66667e-21)
(1.01722 -0.00884411 4.68237e-21)
(1.02106 -0.0135904 0)
(1.02497 -0.0190467 -2.77907e-22)
(1.02989 -0.0232202 -2.37438e-21)
(1.03476 -0.0264988 2.10983e-21)
(1.04072 -0.0280909 0)
(1.046 -0.0280465 1.65649e-21)
(1.05082 -0.0266107 -1.8783e-21)
(1.05376 -0.0260921 0)
(1.05648 -0.0254006 -2.1956e-23)
(1.05909 -0.0267806 0)
(1.06213 -0.0259017 0)
(1.06565 -0.0259997 1.45249e-23)
(1.0695 -0.0235055 2.40297e-23)
(1.07291 -0.0222571 3.86602e-23)
(1.07451 -0.0182313 6.12379e-23)
(1.07574 -0.0156644 4.27442e-22)
(1.07652 -0.0104416 -3.60688e-22)
(1.07691 -0.00681401 4.77437e-22)
(1.07451 -0.000470102 -4.48932e-22)
(1.07164 0.00252365 -2.10692e-23)
(1.06665 0.00775221 0)
(1.06127 0.0102894 -2.044e-23)
(1.05597 0.0141554 0)
(1.04942 0.0165792 0)
(1.04542 0.0195153 5.24815e-23)
(1.03975 0.0211536 8.58824e-22)
(1.03627 0.0230994 -1.61371e-21)
(1.03049 0.0230623 1.79091e-21)
(1.02758 0.0220039 1.37355e-22)
(1.02091 0.0202921 -1.16993e-21)
(0.994971 -0.00327618 -1.02756e-23)
(0.995852 -0.00432221 1.89154e-20)
(0.996553 -0.00469668 -1.91816e-20)
(0.997619 -0.00496312 -6.64388e-22)
(0.998791 -0.00640598 1.46805e-20)
(1.00026 -0.00806396 -4.92599e-21)
(1.0028 -0.00914887 0)
(1.00739 -0.00931839 -4.88557e-21)
(1.01296 -0.00966602 6.40043e-23)
(1.01793 -0.0121269 4.85667e-21)
(1.02196 -0.0168162 -2.96952e-22)
(1.02534 -0.0223598 2.88676e-22)
(1.02913 -0.0267216 5.56268e-22)
(1.03335 -0.030057 0)
(1.03892 -0.0310191 0)
(1.04592 -0.0305027 0)
(1.05354 -0.0277187 1.0226e-25)
(1.06047 -0.0256791 0)
(1.06706 -0.0219882 6.75848e-23)
(1.07123 -0.0192509 -9.93665e-24)
(1.07482 -0.0150696 8.64706e-24)
(1.07756 -0.0107799 -1.49776e-23)
(1.08034 -0.00502393 -2.47789e-23)
(1.08143 0.000821643 -5.58126e-22)
(1.08262 0.0067845 4.86592e-22)
(1.08266 0.0127934 2.51551e-22)
(1.08071 0.019009 -2.42044e-22)
(1.07597 0.0237573 -3.45477e-24)
(1.07107 0.0268111 -2.62265e-22)
(1.06643 0.0295655 2.65082e-22)
(1.06128 0.0311774 0)
(1.05618 0.0325152 0)
(1.05076 0.0328246 2.80874e-22)
(1.04434 0.0312132 5.9641e-23)
(1.03915 0.0293529 -8.15665e-22)
(1.03234 0.0255264 -5.98304e-22)
(1.0267 0.0232052 -2.21936e-22)
(1.02141 0.0188605 1.20051e-21)
(1.0181 0.018352 1.15915e-21)
(1.01252 0.0140917 -1.13983e-21)
(0.995193 -0.00391774 0)
(0.99617 -0.00515136 6.18367e-22)
(0.996906 -0.00551286 -6.27258e-22)
(0.997985 -0.00597345 0)
(0.999241 -0.00769273 0)
(1.00111 -0.0101201 0)
(1.00384 -0.0113861 -6.4473e-22)
(1.00816 -0.0115477 -6.41708e-22)
(1.01353 -0.0125815 5.02945e-21)
(1.01804 -0.0155622 -5.36194e-21)
(1.02142 -0.0201792 3.06355e-22)
(1.02495 -0.0253289 4.38801e-21)
(1.0287 -0.0290681 -7.2398e-21)
(1.03259 -0.0322472 2.25912e-21)
(1.03841 -0.0337312 -1.31113e-22)
(1.0452 -0.0338811 1.76237e-21)
(1.05254 -0.0316866 -1.77448e-21)
(1.05894 -0.0300698 0)
(1.06374 -0.0273787 -4.64116e-23)
(1.06765 -0.0269732 1.02571e-23)
(1.07043 -0.0250947 -8.92599e-24)
(1.0726 -0.0243642 0)
(1.07547 -0.0214315 0)
(1.07814 -0.0195788 0)
(1.07944 -0.015592 0)
(1.07994 -0.012682 3.5271e-22)
(1.07993 -0.00727729 -6.43498e-22)
(1.08063 -0.00355582 6.01274e-22)
(1.07864 0.00331071 -3.88375e-22)
(1.07602 0.00688584 -2.04868e-22)
(1.07132 0.0125162 2.09786e-22)
(1.0661 0.0153901 -2.31664e-22)
(1.06042 0.0194996 2.64572e-22)
(1.05383 0.0217001 3.12481e-23)
(1.04914 0.0248039 0)
(1.043 0.0262733 -7.21705e-22)
(1.03921 0.0285782 -4.14393e-23)
(1.03288 0.0287309 8.7559e-22)
(1.02968 0.0279799 1.03454e-21)
(1.02326 0.0255213 -2.2921e-21)
(0.994657 -0.00507791 -1.07376e-20)
(0.99593 -0.00612899 9.66681e-21)
(0.996915 -0.0067851 -9.7141e-21)
(0.997914 -0.00755668 -1.05473e-20)
(0.999348 -0.00978786 1.06004e-20)
(1.00127 -0.0121902 6.71478e-22)
(1.00424 -0.0131352 6.65438e-22)
(1.00843 -0.0140841 -6.56654e-24)
(1.01333 -0.0159407 -5.23602e-21)
(1.01755 -0.0189972 5.58077e-21)
(1.02141 -0.0230394 0)
(1.02467 -0.027854 0)
(1.02775 -0.0320784 0)
(1.0315 -0.0359176 -2.51573e-21)
(1.03661 -0.0375416 2.36888e-21)
(1.04315 -0.0376368 2.53758e-22)
(1.05163 -0.0348469 0)
(1.05916 -0.0326157 0)
(1.06722 -0.028495 0)
(1.07342 -0.0255219 0)
(1.07848 -0.0213669 9.00619e-24)
(1.08204 -0.0173842 0)
(1.08556 -0.0119637 0)
(1.08766 -0.00614314 -5.54758e-22)
(1.08923 0.000863558 1.26757e-22)
(1.08962 0.00726755 3.60795e-22)
(1.08868 0.0144787 0)
(1.0851 0.0208674 1.72251e-22)
(1.08012 0.0255685 -5.79362e-23)
(1.075 0.0294643 -1.29782e-22)
(1.06947 0.0322102 1.03258e-23)
(1.06326 0.0345774 0)
(1.05848 0.0363323 1.97184e-22)
(1.05129 0.0362843 1.26353e-23)
(1.04604 0.035381 -2.63441e-22)
(1.03852 0.0322104 4.02583e-23)
(1.03256 0.0302745 -4.92033e-23)
(1.02676 0.025883 1.05175e-21)
(1.0229 0.0256479 -1.03691e-21)
(1.01683 0.0205633 0)
(0.99495 -0.00600049 -1.05635e-20)
(0.996474 -0.00733662 1.00898e-20)
(0.997865 -0.00814476 8.39446e-23)
(0.998858 -0.00924836 -2.19899e-20)
(1.00031 -0.0118639 1.10842e-20)
(1.00202 -0.0142604 -6.9372e-22)
(1.00514 -0.0156389 0)
(1.00919 -0.0169666 -7.59675e-24)
(1.01338 -0.0192213 -4.76799e-21)
(1.01753 -0.0223325 5.82228e-21)
(1.02112 -0.0261711 0)
(1.02442 -0.0310842 0)
(1.02801 -0.0348994 2.74331e-21)
(1.03098 -0.0385939 -1.8424e-21)
(1.03544 -0.0402783 0)
(1.04177 -0.0410651 1.88657e-21)
(1.05019 -0.0388388 -2.02104e-21)
(1.0593 -0.0367505 0)
(1.06709 -0.032759 0)
(1.07348 -0.0304655 -1.07398e-23)
(1.07863 -0.0268374 -9.3239e-24)
(1.08167 -0.0247904 0)
(1.08427 -0.02097 0)
(1.08646 -0.0180574 3.92358e-23)
(1.08741 -0.0134946 2.9042e-23)
(1.08734 -0.0101865 0)
(1.08608 -0.00439998 1.94549e-22)
(1.08582 -0.000298383 -1.88148e-22)
(1.08407 0.00708759 0)
(1.0818 0.0113948 0)
(1.07749 0.0175599 0)
(1.07194 0.0206366 0)
(1.06648 0.0253196 0)
(1.05943 0.0274556 2.07075e-22)
(1.05424 0.031 -1.81986e-22)
(1.0473 0.0323154 -4.158e-23)
(1.04341 0.0346378 7.829e-22)
(1.03627 0.0347585 -7.38682e-22)
(1.03234 0.0348509 0)
(1.02603 0.0318229 -6.7215e-23)
(0.994334 -0.00741087 6.85699e-22)
(0.995801 -0.00879197 1.19637e-20)
(0.997375 -0.00971321 -1.13332e-20)
(0.998502 -0.0114716 -1.0823e-20)
(0.999997 -0.014116 1.7425e-20)
(1.00164 -0.0167376 -5.10905e-21)
(1.00488 -0.0181571 -5.08239e-21)
(1.00879 -0.0196789 1.23446e-20)
(1.01267 -0.0222982 -8.09828e-22)
(1.01657 -0.0258533 -6.08345e-21)
(1.02056 -0.0296636 0)
(1.02439 -0.0339286 0)
(1.02795 -0.0375219 -3.23169e-22)
(1.03115 -0.0414164 -2.71394e-21)
(1.03548 -0.0434788 2.41059e-21)
(1.04071 -0.0453044 2.09187e-21)
(1.04901 -0.0433982 -2.09524e-21)
(1.05752 -0.0415693 0)
(1.06683 -0.0369686 0)
(1.07542 -0.0331749 1.11246e-23)
(1.08241 -0.0280149 9.37397e-24)
(1.08759 -0.0236305 0)
(1.09174 -0.0177795 0)
(1.09468 -0.0124531 -5.02796e-22)
(1.09663 -0.00475734 5.02005e-22)
(1.09737 0.00221161 1.79353e-22)
(1.09704 0.0100364 -1.7899e-22)
(1.0945 0.0168297 1.55358e-23)
(1.0904 0.0237044 6.40106e-23)
(1.08473 0.0285675 -6.37905e-23)
(1.07971 0.0332352 0)
(1.07219 0.036133 0)
(1.06689 0.0395278 1.02115e-23)
(1.05994 0.0404027 7.82643e-23)
(1.05386 0.041896 -2.88149e-22)
(1.04662 0.0393248 2.09703e-22)
(1.03959 0.0385469 -8.99594e-22)
(1.03316 0.0337907 1.83952e-21)
(1.02833 0.0341441 9.43571e-23)
(1.02184 0.0285997 -9.68977e-22)
(0.994833 -0.00874596 0)
(0.996206 -0.0105671 1.10796e-20)
(0.998196 -0.0122544 -2.46239e-20)
(0.999762 -0.014068 1.12983e-20)
(1.00105 -0.0164803 -7.68984e-22)
(1.00244 -0.019042 -6.87808e-21)
(1.00517 -0.0207348 4.61384e-21)
(1.00914 -0.0225418 0)
(1.01249 -0.0256825 -5.22139e-21)
(1.01629 -0.0298731 5.25998e-21)
(1.02076 -0.0330691 0)
(1.02425 -0.0372544 5.52358e-21)
(1.02872 -0.0406615 -5.54137e-21)
(1.03238 -0.0444707 0)
(1.03623 -0.0466433 -2.04339e-21)
(1.04095 -0.0487518 2.35334e-21)
(1.04773 -0.047541 1.29821e-22)
(1.05667 -0.0461407 0)
(1.06641 -0.041492 -5.18125e-23)
(1.07538 -0.037927 0)
(1.08363 -0.0321669 -1.82942e-25)
(1.08968 -0.0280699 3.13345e-23)
(1.09322 -0.0226526 4.89596e-23)
(1.09619 -0.0185181 0)
(1.09708 -0.012563 0)
(1.09763 -0.00855855 1.99298e-22)
(1.09586 -0.00203919 -2.87053e-22)
(1.09438 0.00234564 7.54125e-23)
(1.09202 0.00980066 -1.15684e-22)
(1.0894 0.0150306 1.11407e-22)
(1.08584 0.022485 0)
(1.07976 0.0262156 0)
(1.07441 0.031428 0)
(1.06687 0.0336637 1.2597e-24)
(1.06121 0.0376932 3.04157e-24)
(1.05372 0.0390732 -2.20247e-23)
(1.04893 0.0418979 -3.88844e-22)
(1.0418 0.0416673 4.73558e-22)
(1.03635 0.0428422 -4.69234e-23)
(1.02968 0.038941 -1.00055e-21)
(0.993854 -0.0102749 -1.30428e-20)
(0.995004 -0.012815 7.68382e-22)
(0.997049 -0.0144777 1.25879e-20)
(0.998659 -0.0162294 -2.46243e-20)
(0.999888 -0.0185035 2.00443e-20)
(1.00157 -0.0214199 -6.45706e-21)
(1.0041 -0.0236704 1.61342e-21)
(1.0079 -0.0259335 6.37394e-21)
(1.01173 -0.0293373 -1.34763e-20)
(1.01545 -0.0334927 1.32451e-20)
(1.01956 -0.036892 -6.18327e-21)
(1.02359 -0.0409684 -5.78895e-21)
(1.02863 -0.0439927 5.45174e-21)
(1.03311 -0.0477299 0)
(1.03798 -0.049277 -3.16591e-22)
(1.04177 -0.0521753 2.2546e-21)
(1.04797 -0.0517458 -2.39322e-21)
(1.05562 -0.0512816 9.12999e-22)
(1.06435 -0.0473656 -8.06628e-22)
(1.07395 -0.0434922 1.15221e-23)
(1.08304 -0.0370598 -2.95215e-22)
(1.09118 -0.0315297 7.0735e-22)
(1.09725 -0.023901 -4.56992e-22)
(1.10205 -0.0181619 -4.64373e-22)
(1.10421 -0.0101803 4.63411e-22)
(1.10622 -0.00303668 9.10531e-23)
(1.10588 0.00604398 -9.10347e-23)
(1.10473 0.0128513 1.43832e-23)
(1.10117 0.0213554 1.25929e-23)
(1.09595 0.0270263 4.02707e-22)
(1.09097 0.0338513 -4.61874e-22)
(1.08378 0.03771 0)
(1.07739 0.0428287 5.16255e-23)
(1.07024 0.0440227 -1.88198e-22)
(1.0633 0.0478153 2.38096e-22)
(1.05598 0.0465846 -7.04802e-23)
(1.04852 0.0477126 -4.39858e-22)
(1.04106 0.0431296 -2.60847e-22)
(1.03513 0.0442871 1.5546e-21)
(1.0281 0.0384607 -7.9288e-22)
(0.994645 -0.0127267 1.60799e-21)
(0.995743 -0.0156668 1.31038e-20)
(0.997351 -0.0175313 -1.15359e-20)
(0.999115 -0.0193084 -1.67968e-21)
(1.00048 -0.0214496 0)
(1.00261 -0.0243276 0)
(1.00458 -0.026909 -8.43908e-22)
(1.00768 -0.0297036 0)
(1.01181 -0.0327579 6.62063e-21)
(1.01531 -0.0374886 -1.23029e-20)
(1.01974 -0.040986 6.50682e-21)
(1.02364 -0.0449481 3.91012e-22)
(1.0289 -0.0479027 -3.8202e-24)
(1.03412 -0.0515424 3.54466e-22)
(1.03958 -0.0528656 0)
(1.04436 -0.0555118 0)
(1.04949 -0.055431 -1.39915e-22)
(1.05557 -0.0560655 1.24999e-22)
(1.06394 -0.0521919 -5.54419e-23)
(1.07306 -0.0487859 -1.19847e-23)
(1.08217 -0.0421219 0)
(1.0919 -0.0360313 0)
(1.0987 -0.0281518 -9.74123e-23)
(1.10535 -0.0221564 -3.9867e-22)
(1.10783 -0.013942 4.47858e-22)
(1.11009 -0.00873562 0)
(1.10848 -0.000805217 2.34807e-25)
(1.10722 0.00414594 -1.4954e-23)
(1.1035 0.0124985 -4.8956e-22)
(1.10022 0.0174751 4.44616e-22)
(1.09572 0.0263384 6.3237e-23)
(1.09043 0.0309657 0)
(1.08451 0.0380584 -5.36206e-23)
(1.07724 0.0402184 -6.77862e-23)
(1.07008 0.0452698 2.80732e-23)
(1.06248 0.0457986 2.45332e-22)
(1.05596 0.0502581 -2.25929e-22)
(1.04897 0.049399 -3.8557e-23)
(1.04265 0.0524247 1.7847e-23)
(1.03532 0.0480546 -4.7753e-23)
(0.993314 -0.0146149 -1.45748e-20)
(0.994366 -0.0176934 1.38633e-20)
(0.995257 -0.0198868 -2.88971e-20)
(0.996756 -0.0218982 3.01944e-20)
(0.998351 -0.0238542 -1.43416e-20)
(1.00064 -0.0266509 -7.18201e-21)
(1.00292 -0.0299194 7.22474e-21)
(1.00559 -0.0333502 7.10989e-21)
(1.00985 -0.0368535 -1.32503e-20)
(1.01423 -0.0418486 1.38816e-20)
(1.01897 -0.0452101 -6.86636e-21)
(1.02298 -0.049437 -4.06994e-22)
(1.02843 -0.0518147 -2.26174e-21)
(1.03375 -0.055973 -1.77922e-22)
(1.04054 -0.0568464 3.21989e-21)
(1.04628 -0.0590414 2.60439e-21)
(1.05189 -0.0588046 -2.30291e-21)
(1.0581 -0.0597052 -8.23308e-25)
(1.06465 -0.0572009 5.63645e-23)
(1.07294 -0.0546806 0)
(1.08137 -0.0483614 -9.91708e-24)
(1.09108 -0.0428307 0)
(1.09912 -0.0338264 4.92516e-23)
(1.10776 -0.0264935 -4.01109e-24)
(1.11222 -0.0167382 1.23111e-22)
(1.11662 -0.00925258 -1.55424e-22)
(1.11729 0.00165792 -2.12607e-22)
(1.11734 0.00892972 -4.94727e-22)
(1.11436 0.0192325 7.16722e-22)
(1.11028 0.0253857 4.48357e-23)
(1.1044 0.034039 0)
(1.09808 0.0383735 8.38289e-22)
(1.09065 0.0459174 -8.33811e-22)
(1.0832 0.0481879 7.05087e-23)
(1.075 0.0539259 0)
(1.06746 0.0535262 0)
(1.05915 0.0572817 0)
(1.05096 0.0531211 0)
(1.04434 0.0553847 -3.58679e-22)
(1.0362 0.0501888 8.0808e-22)
(0.993679 -0.0180102 1.4474e-20)
(0.995137 -0.0210043 -8.64057e-22)
(0.995493 -0.0232287 -2.97637e-20)
(0.996711 -0.0253426 -1.02388e-21)
(0.998421 -0.0272455 1.52394e-20)
(1.00108 -0.0303896 0)
(1.00404 -0.0339362 0)
(1.00619 -0.0382348 0)
(1.01012 -0.0416812 6.48629e-21)
(1.01425 -0.0464363 -8.36743e-21)
(1.01939 -0.0497679 4.49897e-22)
(1.02335 -0.0539298 -6.75268e-21)
(1.02848 -0.0563507 6.36701e-21)
(1.03439 -0.0606737 -3.91861e-22)
(1.04136 -0.0615601 1.64348e-24)
(1.04821 -0.0637675 9.48087e-26)
(1.05505 -0.0627544 0)
(1.06158 -0.0640302 -2.69127e-22)
(1.06734 -0.0617631 -5.8823e-23)
(1.07497 -0.0599048 -1.22397e-23)
(1.08159 -0.0543411 3.10858e-22)
(1.09146 -0.0489094 -3.2132e-22)
(1.09943 -0.039375 4.39362e-23)
(1.1095 -0.0321175 -3.06109e-23)
(1.11558 -0.0207022 2.38612e-23)
(1.12159 -0.0130683 -1.27766e-22)
(1.12271 -0.00235177 1.3865e-22)
(1.12352 0.00392157 8.62902e-22)
(1.11994 0.0141247 5.10104e-23)
(1.11713 0.0198772 -1.04871e-21)
(1.11103 0.0297677 0)
(1.1062 0.0344385 -1.71372e-22)
(1.09855 0.0440365 0)
(1.09149 0.0465173 -7.77078e-22)
(1.0832 0.0541029 1.67759e-21)
(1.07502 0.0536388 -1.91841e-21)
(1.06662 0.0596027 2.05877e-21)
(1.05898 0.0582328 -8.72757e-22)
(1.05192 0.0629175 1.52729e-22)
(1.04294 0.0589583 -1.27208e-22)
(0.990903 -0.0200613 -9.7675e-22)
(0.992729 -0.0232722 1.76328e-20)
(0.993291 -0.0254997 -1.57978e-20)
(0.994127 -0.0279283 1.01937e-21)
(0.995633 -0.0303726 0)
(0.998045 -0.0339865 -1.0337e-21)
(1.00152 -0.0377465 0)
(1.00395 -0.0424037 9.05078e-21)
(1.00745 -0.0456591 -1.19658e-21)
(1.01149 -0.0510978 -6.94276e-21)
(1.01738 -0.0543095 -4.69834e-22)
(1.02238 -0.0591713 -4.60049e-22)
(1.02816 -0.0612951 0)
(1.0343 -0.065733 -2.75636e-21)
(1.04152 -0.0669675 2.79514e-21)
(1.04938 -0.0690585 2.48656e-21)
(1.05628 -0.0678172 -2.82485e-21)
(1.06477 -0.0685215 1.40224e-22)
(1.0711 -0.0656851 -3.82847e-22)
(1.07866 -0.0645252 4.5545e-22)
(1.08438 -0.0589999 -1.04325e-23)
(1.09316 -0.0551201 6.26784e-23)
(1.09992 -0.0462858 -4.59414e-23)
(1.10992 -0.039608 2.22329e-23)
(1.11701 -0.0277498 -9.68854e-24)
(1.12465 -0.0192591 -2.93798e-22)
(1.12833 -0.00603418 3.10431e-22)
(1.13141 0.00291355 1.231e-21)
(1.13032 0.0158294 -1.26593e-21)
(1.12811 0.0231383 -1.07826e-22)
(1.12256 0.0346832 0)
(1.11677 0.0396681 1.7633e-21)
(1.10852 0.0491453 -1.35676e-21)
(1.10039 0.0523365 -1.27434e-21)
(1.09172 0.0603244 1.13435e-21)
(1.08253 0.0610524 0)
(1.07445 0.0670392 1.33294e-21)
(1.06398 0.0642031 -1.34789e-21)
(1.05716 0.0674452 0)
(1.04678 0.0637245 -1.17786e-23)
(0.990771 -0.0240279 8.63677e-22)
(0.992532 -0.0274642 -1.77412e-20)
(0.993702 -0.0294384 1.70447e-20)
(0.99463 -0.0322001 -3.55047e-20)
(0.996266 -0.0349564 2.71928e-20)
(0.99817 -0.0391568 -7.6793e-21)
(1.00168 -0.0428753 0)
(1.00483 -0.0477682 -1.07023e-21)
(1.00864 -0.0510555 -7.3556e-21)
(1.01265 -0.056781 7.42855e-21)
(1.01815 -0.0605689 5.0831e-22)
(1.02389 -0.0654979 -7.56732e-21)
(1.02975 -0.0669339 1.0711e-20)
(1.03608 -0.0714172 -3.59607e-21)
(1.0428 -0.0723797 0)
(1.05084 -0.0751064 0)
(1.0578 -0.073498 1.65247e-22)
(1.06758 -0.0738813 -9.29327e-22)
(1.07467 -0.0707337 1.40327e-21)
(1.08396 -0.0693941 -4.52635e-22)
(1.08924 -0.0639486 2.9711e-22)
(1.09723 -0.0614969 -2.89264e-22)
(1.10299 -0.0524747 -3.802e-23)
(1.11195 -0.0465987 -1.94607e-22)
(1.11863 -0.0348839 1.7095e-22)
(1.12721 -0.0259583 -4.22938e-22)
(1.1322 -0.0114243 -2.88581e-22)
(1.13735 -0.00215502 -9.13774e-22)
(1.13732 0.011682 1.84803e-21)
(1.13702 0.0192258 2.51196e-22)
(1.13196 0.0321098 -2.92165e-22)
(1.12712 0.0376639 2.96303e-22)
(1.11944 0.0494342 -2.2859e-22)
(1.11139 0.0526142 -2.01932e-21)
(1.10209 0.0624253 3.59117e-21)
(1.09267 0.0631619 -1.59477e-21)
(1.08354 0.0704971 0)
(1.0734 0.0694541 0)
(1.06623 0.0752243 0)
(1.05466 0.0724327 -9.99728e-22)
(0.98743 -0.0263895 0)
(0.988899 -0.0304327 1.80292e-20)
(0.990224 -0.0325943 -1.93398e-20)
(0.991518 -0.0356262 1.85569e-20)
(0.993167 -0.0387191 -2.10438e-20)
(0.994862 -0.0433473 -1.19244e-21)
(0.997961 -0.047107 1.18783e-21)
(1.00131 -0.0529168 0)
(1.00574 -0.0561179 9.00643e-21)
(1.01016 -0.0620346 -9.0594e-21)
(1.0158 -0.0658716 -5.33085e-22)
(1.02185 -0.0713954 8.53855e-21)
(1.02772 -0.0728687 -7.57537e-21)
(1.03568 -0.0769291 -3.06621e-21)
(1.04215 -0.0782113 3.54081e-21)
(1.05177 -0.0814316 1.91557e-22)
(1.05867 -0.0796954 0)
(1.06913 -0.0807877 -1.5114e-22)