/*--------------------------------*- C++ -*----------------------------------*\
  =========                 |
  \\      /  F ield         | OpenFOAM: The Open Source CFD Toolbox
   \\    /   O peration     | Website:  https://openfoam.org
    \\  /    A nd           | Version:  10
     \\/     M anipulation  |
\*---------------------------------------------------------------------------*/
FoamFile
{
    format      ascii;
    class       volScalarField;
    location    "0.351479";
    object      rho;
}
// * * * * * * * * * * * * * * * * * * * * * * * * * * * * * * * * * * * * * //

dimensions      [1 -3 0 0 0 0 0];

internalField   nonuniform List<scalar> 
15708
(
1.00642
1.00159
0.997049
0.992765
0.988796
0.985147
0.981843
0.978875
0.976301
0.974029
0.97211
0.970526
0.96908
0.967952
0.966926
0.966084
0.965379
0.964764
0.964302
0.963971
0.963773
0.963698
0.963791
0.964118
0.964563
0.965237
0.966074
0.967076
0.968288
0.969502
0.970969
0.972319
0.973766
0.975243
0.976597
0.977983
0.979224
0.980369
0.981422
0.982378
0.983177
0.983903
0.984537
0.985071
0.985556
0.985963
0.986377
0.986721
0.987106
0.987485
0.987924
1.00726
1.00219
0.9974
0.992834
0.988601
0.984628
0.981032
0.977797
0.974929
0.972533
0.970371
0.968673
0.967186
0.96601
0.965033
0.964319
0.963758
0.963369
0.963108
0.963028
0.963084
0.963312
0.963704
0.964222
0.964936
0.965812
0.966825
0.967935
0.969209
0.970527
0.971845
0.973249
0.974583
0.975871
0.977109
0.978291
0.979345
0.980336
0.981215
0.981972
0.982717
0.983293
0.983922
0.984379
0.98489
0.985347
0.9858
0.986287
0.986802
0.987337
0.987966
1.0079
1.00264
0.997592
0.992767
0.988237
0.983991
0.980115
0.976605
0.973525
0.970867
0.968598
0.966751
0.96523
0.964053
0.963159
0.962554
0.962152
0.961961
0.961943
0.962151
0.962482
0.963047
0.963683
0.96453
0.965456
0.966551
0.96775
0.968987
0.970339
0.971645
0.973
0.974264
0.975508
0.976648
0.977731
0.978643
0.979615
0.980273
0.981108
0.981646
0.982261
0.982754
0.983307
0.98378
0.984252
0.984778
0.985318
0.985898
0.986545
0.987239
0.988042
1.00843
1.00298
0.997658
0.99261
0.987792
0.983305
0.979145
0.97538
0.97207
0.96918
0.966781
0.964803
0.963233
0.962088
0.961259
0.960752
0.960517
0.960529
0.960824
0.961265
0.961977
0.962772
0.963794
0.964885
0.966121
0.967401
0.968794
0.970197
0.971573
0.972905
0.974225
0.975397
0.976491
0.977536
0.978325
0.979177
0.979769
0.980435
0.98091
0.981419
0.981851
0.982285
0.982709
0.98318
0.983694
0.984249
0.984864
0.985552
0.986317
0.98719
0.988117
1.00878
1.00316
0.997652
0.992357
0.987279
0.982526
0.978131
0.974118
0.970588
0.967543
0.964939
0.962898
0.961264
0.960084
0.959329
0.958961
0.958876
0.959151
0.95962
0.960496
0.961457
0.962606
0.963948
0.965326
0.966877
0.968376
0.969944
0.971436
0.972941
0.974225
0.97555
0.976612
0.977553
0.97844
0.979068
0.979663
0.980142
0.980497
0.980871
0.981187
0.981492
0.981849
0.982249
0.982632
0.983199
0.983767
0.984475
0.985279
0.986185
0.987186
0.988292
1.00901
1.00325
0.997545
0.991984
0.986681
0.981682
0.977067
0.972821
0.969099
0.965819
0.963157
0.960921
0.959288
0.958114
0.957441
0.957158
0.95727
0.957754
0.958563
0.959671
0.961028
0.962464
0.964192
0.965881
0.967633
0.969443
0.971143
0.972815
0.974288
0.975746
0.976805
0.97796
0.978648
0.979414
0.979812
0.980233
0.980482
0.980699
0.980884
0.981053
0.981264
0.981486
0.981791
0.982264
0.982728
0.983402
0.984207
0.985088
0.986123
0.987242
0.988489
1.00911
1.00319
0.997232
0.991541
0.986015
0.980801
0.975984
0.971527
0.967641
0.964168
0.961301
0.959119
0.95726
0.956256
0.955514
0.95542
0.955707
0.956389
0.957519
0.958943
0.960585
0.962469
0.964427
0.966412
0.968591
0.970433
0.972478
0.974157
0.975839
0.977055
0.978326
0.979167
0.979835
0.980422
0.980629
0.980853
0.980965
0.980954
0.980966
0.980998
0.981093
0.98123
0.981538
0.981915
0.982449
0.983201
0.984004
0.985028
0.986137
0.9874
0.98875
1.00897
1.00289
0.996948
0.990948
0.985295
0.979849
0.974845
0.970262
0.966121
0.962564
0.9596
0.957138
0.955548
0.954249
0.953783
0.95372
0.95414
0.95516
0.956422
0.958408
0.960055
0.962563
0.964641
0.967116
0.969388
0.971656
0.97376
0.975542
0.977336
0.978509
0.979794
0.980431
0.981114
0.981377
0.981528
0.981562
0.981459
0.981334
0.981175
0.981045
0.981039
0.981155
0.981396
0.981723
0.982342
0.983044
0.983984
0.985076
0.986299
0.987688
0.98912
1.0088
1.00252
0.996464
0.990285
0.984518
0.978822
0.973777
0.968883
0.964658
0.960968
0.957845
0.95546
0.953605
0.952556
0.952033
0.952124
0.952705
0.953869
0.955627
0.957512
0.95997
0.962419
0.965105
0.967697
0.970397
0.972746
0.975007
0.97712
0.97861
0.980205
0.981006
0.981909
0.982227
0.982494
0.982497
0.982311
0.982085
0.98179
0.981412
0.981338
0.981104
0.981232
0.981355
0.981787
0.982367
0.983146
0.984114
0.985302
0.986628
0.987995
0.989681
1.00829
1.00198
0.995839
0.989581
0.983543
0.977907
0.972481
0.967655
0.963176
0.959398
0.956253
0.953624
0.951998
0.950767
0.9504
0.950606
0.951351
0.952815
0.954665
0.957109
0.95965
0.962548
0.965441
0.968433
0.971311
0.973849
0.976372
0.978372
0.980267
0.98146
0.982593
0.983201
0.98347
0.983612
0.983435
0.983152
0.982711
0.98234
0.981889
0.981611
0.981471
0.98138
0.981593
0.981982
0.982602
0.983395
0.984471
0.985646
0.987127
0.988575
0.990174
1.00753
1.00143
0.994953
0.988786
0.982577
0.976801
0.971283
0.966324
0.961676
0.957983
0.954491
0.952135
0.950237
0.949269
0.948871
0.949221
0.950087
0.951925
0.953879
0.956718
0.959496
0.962683
0.965891
0.969138
0.972128
0.975115
0.977547
0.979892
0.981561
0.982972
0.98401
0.984473
0.984818
0.98471
0.984479
0.984024
0.983543
0.983015
0.982427
0.982195
0.981898
0.981825
0.981989
0.982425
0.983006
0.983924
0.985041
0.986265
0.987754
0.989356
0.990884
1.0068
1.00054
0.994053
0.987801
0.981516
0.975589
0.970072
0.964926
0.960389
0.956308
0.953131
0.950513
0.948787
0.947801
0.947508
0.947947
0.949179
0.950872
0.953451
0.9563
0.959457
0.962961
0.96634
0.969825
0.973157
0.976128
0.978949
0.981047
0.98313
0.984353
0.98535
0.985905
0.986035
0.985936
0.985537
0.985036
0.984409
0.983844
0.983137
0.982862
0.982509
0.982445
0.982605
0.983011
0.983688
0.984624
0.985751
0.987133
0.988551
0.990179
0.99184
1.00587
0.999487
0.993021
0.98672
0.980357
0.974352
0.968809
0.963482
0.959065
0.954825
0.951705
0.949074
0.947383
0.946455
0.94633
0.946924
0.94818
0.950501
0.952872
0.956158
0.959457
0.963315
0.966849
0.970648
0.974065
0.97734
0.980024
0.982559
0.984365
0.985803
0.986745
0.987256
0.987303
0.98718
0.986689
0.986115
0.9854
0.984774
0.98408
0.983637
0.983362
0.983232
0.983409
0.983853
0.984578
0.985547
0.986773
0.988111
0.989675
0.991217
0.992962
1.00446
0.998397
0.991761
0.985527
0.979049
0.973114
0.967255
0.962261
0.957423
0.953628
0.950143
0.947849
0.94607
0.945366
0.945343
0.946029
0.947617
0.949922
0.952744
0.956133
0.95982
0.963544
0.967667
0.971356
0.975131
0.978318
0.981426
0.983694
0.985831
0.987176
0.988131
0.988573
0.988684
0.988386
0.987963
0.987239
0.986487
0.985825
0.985081
0.984696
0.984332
0.984262
0.984419
0.984933
0.9857
0.986716
0.987977
0.989367
0.990911
0.992556
0.994192
1.00313
0.99699
0.99052
0.983927
0.977813
0.971567
0.965921
0.96072
0.956097
0.952089
0.948956
0.946503
0.945021
0.944349
0.944525
0.94542
0.947269
0.94961
0.952863
0.956328
0.960101
0.964401
0.968218
0.972423
0.97605
0.979615
0.98246
0.985203
0.987012
0.988648
0.989451
0.990017
0.989943
0.98974
0.989241
0.988382
0.987769
0.986876
0.986201
0.985706
0.985447
0.985417
0.985648
0.986188
0.98707
0.98816
0.989441
0.990863
0.992449
0.994105
0.995729
1.00164
0.995226
0.989066
0.982473
0.976179
0.970093
0.964378
0.959222
0.954624
0.950744
0.947669
0.945301
0.944124
0.94353
0.943924
0.945079
0.94707
0.949819
0.953116
0.956726
0.960922
0.964997
0.969303
0.973365
0.977279
0.980725
0.983825
0.986503
0.988441
0.989872
0.990995
0.991215
0.991347
0.991079
0.990529
0.989776
0.988924
0.988096
0.987472
0.986957
0.986655
0.986656
0.987041
0.987614
0.988553
0.98977
0.991109
0.992658
0.994235
0.995892
0.997479
0.999982
0.993499
0.987316
0.980866
0.9745
0.968376
0.962816
0.957611
0.953015
0.949408
0.946265
0.944426
0.943187
0.94298
0.943519
0.945013
0.947249
0.950314
0.953599
0.957673
0.961789
0.966055
0.97043
0.974568
0.978506
0.982091
0.985144
0.987794
0.989868
0.991307
0.992303
0.992708
0.992727
0.992425
0.991845
0.990992
0.990243
0.989389
0.98865
0.988257
0.987997
0.988115
0.988498
0.989247
0.990266
0.991586
0.99298
0.994672
0.996186
0.997882
0.999465
0.997694
0.991808
0.985291
0.97895
0.972664
0.966658
0.960951
0.95586
0.951607
0.947901
0.945115
0.943384
0.94243
0.94255
0.943512
0.945235
0.947773
0.95108
0.954783
0.958781
0.963022
0.967498
0.97173
0.975994
0.979941
0.983401
0.986647
0.989233
0.991168
0.992894
0.993574
0.994157
0.994162
0.993729
0.993146
0.992329
0.991438
0.990699
0.989995
0.989543
0.9894
0.98956
0.990054
0.990969
0.992108
0.993564
0.995122
0.996675
0.998514
1.00005
1.00172
0.995729
0.989586
0.98337
0.976856
0.970559
0.96468
0.95887
0.954094
0.949772
0.946388
0.943964
0.942354
0.941942
0.94233
0.94362
0.945843
0.948792
0.952141
0.9562
0.960343
0.964647
0.969167
0.973481
0.977552
0.981671
0.984931
0.988215
0.99074
0.992721
0.994177
0.995108
0.995555
0.995475
0.995159
0.994431
0.993559
0.992679
0.991871
0.991268
0.990816
0.990795
0.991043
0.991666
0.992648
0.993989
0.995552
0.997329
0.999168
1.00089
1.00262
1.00413
0.993304
0.987307
0.981227
0.974494
0.968475
0.962278
0.956864
0.951799
0.947886
0.94467
0.942528
0.941497
0.941467
0.942271
0.944226
0.946716
0.950214
0.953839
0.957975
0.962378
0.966754
0.971251
0.97555
0.979511
0.983508
0.986846
0.989869
0.992391
0.994324
0.995688
0.996713
0.996879
0.996877
0.996406
0.995638
0.994766
0.993733
0.992733
0.992042
0.991825
0.991891
0.992167
0.993059
0.994378
0.996059
0.997826
0.999668
1.00167
1.00353
1.00532
1.00681
0.990863
0.985062
0.978554
0.972004
0.965876
0.959728
0.954226
0.949325
0.945844
0.942854
0.941081
0.940468
0.940944
0.942599
0.944902
0.948394
0.951919
0.956147
0.960331
0.96488
0.969245
0.973789
0.977888
0.981925
0.985551
0.988994
0.99175
0.994145
0.996031
0.997319
0.997946
0.998356
0.997983
0.997456
0.996584
0.995581
0.99441
0.993412
0.99278
0.992521
0.992782
0.993664
0.994646
0.996013
0.997832
1.00006
1.00214
1.00444
1.00644
1.00845
1.0099
0.988636
0.98214
0.975976
0.969201
0.962499
0.956688
0.950793
0.946469
0.942747
0.940431
0.939524
0.939591
0.940659
0.942929
0.946083
0.949891
0.954131
0.958493
0.963232
0.967762
0.972334
0.976687
0.980823
0.984591
0.988079
0.991283
0.993846
0.996147
0.997845
0.998734
0.99964
0.999377
0.999075
0.998215
0.997189
0.995887
0.994728
0.993606
0.992805
0.992689
0.993139
0.993951
0.995329
0.997302
0.999511
1.00208
1.00462
1.00705
1.00928
1.01136
1.01308
0.985986
0.97962
0.972776
0.966007
0.959472
0.952738
0.948246
0.941151
0.94016
0.936843
0.936725
0.937693
0.94033
0.943687
0.947793
0.952263
0.957023
0.961892
0.966737
0.971466
0.975983
0.980179
0.984142
0.987664
0.990993
0.99379
0.996163
0.998274
0.999424
1.00053
1.00048
1.00045
0.999659
0.998608
0.997186
0.995814
0.994322
0.993048
0.992199
0.991884
0.992569
0.993696
0.994843
0.99718
1.00029
1.00369
1.00722
1.01029
1.01291
1.01501
1.01668
0.981537
0.976818
0.971267
0.964546
0.958242
0.952857
0.945428
0.94159
0.936298
0.935298
0.934611
0.935894
0.939292
0.943964
0.949241
0.954546
0.960001
0.965366
0.9705
0.975331
0.979946
0.984038
0.987882
0.991213
0.994233
0.99661
0.998742
1.00039
1.0011
1.00178
1.00152
1.00072
0.999718
0.998226
0.996929
0.9955
0.995639
0.995062
0.994166
0.994016
0.993151
0.994831
0.995787
0.998303
1.00117
1.00435
1.00802
1.01157
1.01504
1.01795
1.02022
0.981842
0.984739
0.979585
0.976226
0.977815
0.973421
0.965624
0.955271
0.950093
0.938939
0.932244
0.933749
0.938553
0.944063
0.950681
0.957438
0.963836
0.969673
0.97508
0.980087
0.984541
0.988472
0.991994
0.995123
0.99764
0.99968
1.00145
1.00226
1.00298
1.00242
1.00187
1.00088
1.00167
0.999301
1.00395
1.01089
1.01552
1.02582
1.02871
1.02918
1.01955
1.0085
1.01644
1.00323
1.0029
1.00726
1.01089
1.01519
1.01871
1.02161
1.02416
0.996993
1.03271
1.06859
1.08543
1.13329
1.12956
1.12723
1.06785
1.01265
0.980526
0.965646
0.953064
0.946344
0.947717
0.952891
0.959839
0.967156
0.97404
0.97991
0.985114
0.989528
0.993322
0.996543
0.999408
1.00131
1.00299
1.00401
1.00434
1.00391
1.00333
1.00372
1.0037
1.01788
1.02172
1.06478
1.13342
1.19643
1.28995
1.33939
1.31383
1.30109
1.20034
1.0629
1.05064
1.02513
1.01327
1.0147
1.01787
1.02203
1.02532
1.0281
1.19703
1.32979
1.46616
1.5485
1.61354
1.59588
1.57758
1.47007
1.46148
1.25718
1.02431
0.956996
0.946611
0.950905
0.957087
0.964372
0.971898
0.978824
0.985035
0.990255
0.994675
0.998299
1.0014
1.00385
1.0052
1.00635
1.00635
1.0059
1.00619
1.00614
1.01898
1.03779
1.11029
1.25711
1.47097
1.65038
1.74968
1.82842
1.82969
1.80026
1.76412
1.59291
1.53207
1.16569
1.04391
1.02613
1.02031
1.02118
1.02501
1.02881
1.03205
1.69507
1.77915
1.81279
1.81029
1.79374
1.76847
1.74749
1.68097
1.67956
1.51822
1.40767
1.10053
0.992565
0.961002
0.962133
0.968885
0.976689
0.984043
0.990391
0.995839
1.00014
1.00349
1.00636
1.00798
1.00914
1.0089
1.0086
1.00908
1.01851
1.03723
1.12348
1.31969
1.60762
1.80258
1.89303
1.92285
1.92174
1.91401
1.90682
1.89259
1.87209
1.80642
1.73635
1.51016
1.18534
1.05899
1.02796
1.02514
1.02866
1.03276
1.03605
1.88821
1.87054
1.84277
1.80578
1.76998
1.71955
1.69548
1.6711
1.6668
1.61566
1.58272
1.31616
1.07355
0.9882
0.970703
0.974098
0.981743
0.989433
0.995916
1.00132
1.00545
1.00877
1.01096
1.01236
1.01195
1.01202
1.01427
1.03683
1.09943
1.27882
1.63983
1.86373
1.94711
1.96053
1.94634
1.9234
1.8852
1.85401
1.80306
1.79329
1.81306
1.80701
1.77648
1.62796
1.2688
1.07471
1.03172
1.02766
1.032
1.03683
1.04041
1.88521
1.84182
1.78063
1.68055
1.6182
1.50913
1.49084
1.51179
1.59678
1.60885
1.58208
1.41896
1.14573
1.01739
0.980188
0.979726
0.986834
0.994713
1.00145
1.00662
1.01072
1.0135
1.01546
1.01518
1.01528
1.02676
1.0628
1.25866
1.60525
1.85995
1.97639
1.99227
1.97506
1.94041
1.88024
1.79805
1.70821
1.62661
1.59176
1.57632
1.61883
1.73628
1.76166
1.58875
1.24836
1.06403
1.02993
1.02947
1.03553
1.04052
1.04355
1.82652
1.73213
1.60873
1.46529
1.35666
1.24561
1.24052
1.28006
1.44692
1.54587
1.56554
1.39114
1.1303
1.01661
0.985113
0.984077
0.991813
0.999951
1.00645
1.01149
1.01518
1.01779
1.01817
1.01778
1.03602
1.19145
1.41804
1.8885
2.01259
2.0126
2.00202
1.97062
1.91091
1.81486
1.68298
1.53616
1.39007
1.2938
1.28318
1.30094
1.52847
1.71947
1.69941
1.55434
1.14696
1.04251
1.02698
1.03246
1.03898
1.0441
1.04758
1.71224
1.5606
1.37883
1.19296
1.08073
1.05624
1.07271
1.17821
1.41683
1.52757
1.48627
1.34866
1.0915
1.00187
0.982789
0.987812
0.996573
1.00447
1.01084
1.01595
1.01892
1.01962
1.02059
1.04712
1.29124
1.87751
2.00815
2.02724
2.0246
2.00733
1.96621
1.88816
1.75625
1.57244
1.36568
1.19882
1.12936
1.14307
1.21151
1.37997
1.56912
1.65588
1.59872
1.30746
1.05321
1.0316
1.02701
1.03554
1.04208
1.0478
1.06198
1.56167
1.34385
1.1198
1.00553
0.977052
1.00186
1.07717
1.24471
1.38942
1.4333
1.38153
1.13248
1.02077
0.983466
0.983027
0.99159
1.00115
1.00943
1.01496
1.01768
1.01982
1.02685
1.11849
1.5758
1.94487
2.03054
2.04041
2.03527
2.01546
1.9686
1.87613
1.71696
1.49805
1.2553
1.10911
1.06992
1.09151
1.17734
1.31554
1.44526
1.51419
1.50734
1.3196
1.05487
1.03594
1.02327
1.03132
1.0411
1.05408
1.07888
1.14799
1.3947
1.1425
0.991004
0.960199
0.962339
1.02205
1.12283
1.21533
1.26651
1.25464
1.11546
1.0112
0.982137
0.978036
0.985891
0.996809
1.00543
1.01122
1.01691
1.0237
1.05561
1.24023
1.73024
1.97713
2.04062
2.04998
2.04542
2.02632
1.97873
1.88326
1.71652
1.48346
1.21822
1.08324
1.03746
1.04728
1.10457
1.20579
1.31611
1.32754
1.33558
1.21686
1.03273
1.02998
1.01919
1.02561
1.03453
1.04812
1.07229
1.16226
1.54901
1.26974
1.0341
0.966313
0.946615
0.9617
1.0014
1.04573
1.07019
1.07988
1.0452
0.991541
0.968994
0.972367
0.978893
0.990871
0.999151
1.00807
1.01631
1.03048
1.09084
1.34352
1.79948
1.99499
2.0481
2.05792
2.05542
2.04045
1.99918
1.91559
1.76273
1.53701
1.27589
1.09313
1.02261
1.02274
1.03187
1.06889
1.11906
1.12029
1.13162
1.09293
1.00636
1.01615
1.00948
1.02208
1.03131
1.05521
1.07981
1.20428
1.64449
1.95179
1.204
1.01461
0.950347
0.93991
0.942279
0.959078
0.97041
0.98036
0.983329
0.952841
0.965686
0.96037
0.973381
0.982846
0.99345
1.0046
1.01652
1.04783
1.1473
1.46706
1.8467
2.00738
2.05208
2.06441
2.06419
2.05487
2.02528
1.96399
1.84602
1.66145
1.42399
1.18078
1.04383
1.01695
1.01086
1.01119
1.01986
1.02624
1.02753
1.02157
1.00223
1.00211
1.00821
1.0206
1.02764
1.05876
1.08646
1.27546
1.66475
1.89956
2.07864
1.194
0.999327
0.953561
0.938196
0.934442
0.936174
0.939871
0.945125
0.93944
0.951616
0.952397
0.966759
0.975409
0.98888
1.00149
1.02544
1.08425
1.25965
1.62937
1.92124
1.99813
2.05911
2.06669
2.07088
2.06711
2.0507
2.01406
1.94038
1.81186
1.62129
1.38686
1.15707
1.03423
1.01433
1.0071
0.999213
0.996284
0.996621
0.99726
0.996786
0.997816
1.0078
1.01461
1.03314
1.09049
1.09569
1.42015
1.69932
2.00896
2.02327
2.10428
1.24388
1.02844
0.948256
0.948085
0.934889
0.931996
0.933021
0.936414
0.944272
0.949568
0.962363
0.973337
0.987072
1.01113
1.05739
1.17893
1.45125
1.73569
1.97235
2.00847
2.0565
2.06901
2.07486
2.07564
2.06837
2.05228
2.01247
1.9364
1.80519
1.61518
1.38579
1.16072
1.07048
1.00931
1.01602
1.00122
0.999928
0.998116
1.00075
1.00537
1.01419
1.03007
1.05748
1.0923
1.15361
1.76211
1.71779
1.95863
2.076
2.08294
2.11561
1.36631
1.12006
1.00495
0.940946
0.949479
0.938873
0.939548
0.945361
0.952165
0.961878
0.975854
1.0001
1.04253
1.14417
1.35608
1.62534
1.92398
1.93725
2.03259
2.04964
2.06875
2.07652
2.07955
2.07901
2.07387
2.05759
2.02275
1.9578
1.84961
1.68998
1.48692
1.27164
1.11598
1.01942
1.03509
1.01865
1.01451
1.01327
1.01919
1.03073
1.05108
1.09399
1.19923
1.45701
1.90847
1.77825
2.01247
2.05137
2.10149
2.10901
2.1208
1.55591
1.34516
1.13679
0.966679
0.984089
0.960122
0.964384
0.966467
0.978724
1.00412
1.05116
1.145
1.35658
1.60031
1.84993
1.87454
1.9968
2.01814
2.05232
2.06527
2.07577
2.08025
2.08349
2.08456
2.08012
2.06756
2.0418
1.99357
1.91355
1.79238
1.63042
1.44339
1.26099
1.15184
1.05684
1.07893
1.06323
1.07346
1.09048
1.1574
1.26951
1.45876
1.68099
1.83367
1.96574
1.96427
2.07521
2.08862
2.11248
2.11912
2.1236
1.73458
1.60329
1.43847
1.27332
1.12916
1.0894
1.07733
1.09291
1.13335
1.24502
1.41174
1.60379
1.78293
1.87314
1.96187
1.9804
2.027
2.0455
2.06128
2.07147
2.07977
2.0845
2.08819
2.08949
2.08747
2.07867
2.06179
2.03015
1.97843
1.89977
1.79153
1.65947
1.52077
1.40246
1.32943
1.29009
1.28719
1.31058
1.40769
1.54774
1.66807
1.80941
1.94391
1.98093
2.04208
2.05473
2.09326
2.10574
2.11752
2.12277
2.12505
1.83889
1.77943
1.70101
1.61108
1.53822
1.46796
1.48451
1.48678
1.54651
1.6629
1.78222
1.87581
1.92114
1.9733
1.99362
2.02251
2.04094
2.05493
2.06687
2.07504
2.08278
2.08791
2.0924
2.09484
2.09411
2.08899
2.07893
2.06004
2.02985
1.98448
1.92226
1.84547
1.76344
1.69311
1.64774
1.63379
1.63252
1.67268
1.7691
1.85034
1.92277
1.97918
2.03258
2.04283
2.07092
2.08465
2.10135
2.11169
2.11926
2.12346
2.12539
1.88642
1.86337
1.83673
1.80661
1.77977
1.76186
1.77031
1.78121
1.82079
1.87804
1.91352
1.95081
1.97157
1.99711
2.01667
2.03404
2.04702
2.05978
2.06934
2.07818
2.08571
2.09145
2.09644
2.09938
2.10025
2.09763
2.09212
2.08143
2.06479
2.04074
2.00866
1.96987
1.92869
1.89772
1.87684
1.86959
1.87332
1.91099
1.95902
1.99163
2.01592
2.04293
2.0534
2.06936
2.08164
2.09361
2.10445
2.11212
2.11913
2.12374
2.12536
1.90522
1.89473
1.88658
1.87939
1.87457
1.87544
1.88357
1.89555
1.91365
1.93653
1.95474
1.97522
1.99104
2.00974
2.02517
2.03819
2.05069
2.0623
2.07154
2.08135
2.08796
2.09422
2.09997
2.10348
2.10535
2.10485
2.10186
2.09592
2.08661
2.07363
2.05714
2.03815
2.02082
2.00453
1.99612
1.98956
1.99648
2.01258
2.0287
2.03872
2.0479
2.05606
2.06413
2.0747
2.08435
2.09413
2.10317
2.11123
2.11829
2.12299
2.12504
1.91361
1.9065
1.90321
1.90177
1.90344
1.90858
1.91615
1.92618
1.94013
1.95457
1.9698
1.9848
1.99993
2.01431
2.02862
2.04044
2.0528
2.0642
2.07349
2.08307
2.08999
2.09682
2.10283
2.10671
2.10968
2.11049
2.10919
2.10585
2.10036
2.09295
2.0835
2.07354
2.06437
2.05486
2.0475
2.04462
2.04572
2.04917
2.05119
2.05459
2.05527
2.05968
2.06594
2.07372
2.08226
2.09097
2.10065
2.10876
2.11674
2.12186
2.12428
1.91906
1.91318
1.91083
1.91101
1.91419
1.92016
1.92871
1.93765
1.94996
1.96257
1.9756
1.98947
2.00338
2.01687
2.03023
2.04231
2.05432
2.06519
2.07478
2.08387
2.09155
2.09873
2.10494
2.10927
2.11286
2.11481
2.11476
2.11281
2.1097
2.10522
2.09972
2.09321
2.08589
2.07924
2.0732
2.06879
2.0653
2.06224
2.05906
2.0568
2.05708
2.05801
2.06232
2.06831
2.07612
2.08662
2.09579
2.1058
2.11375
2.12008
2.12419
1.92369
1.91746
1.91561
1.91599
1.91958
1.9257
1.93436
1.94292
1.95444
1.96648
1.97898
1.99218
2.00538
2.01848
2.0313
2.04338
2.05498
2.06566
2.07554
2.08449
2.09268
2.09998
2.10638
2.11121
2.11539
2.11796
2.11895
2.11816
2.11656
2.1136
2.10941
2.10405
2.09828
2.09192
2.08549
2.07914
2.07282
2.06663
2.06084
2.05635
2.05381
2.05357
2.05567
2.06052
2.06835
2.07802
2.08919
2.09957
2.11036
2.11836
2.12023
1.9281
1.92214
1.91991
1.92026
1.9238
1.92961
1.93799
1.94656
1.95755
1.9693
1.98145
1.99406
2.00704
2.0194
2.03199
2.04366
2.05507
2.06564
2.07555
2.08448
2.0929
2.10033
2.1071
2.11201
2.11667
2.11988
2.12177
2.12175
2.12083
2.11875
2.11518
2.1107
2.10525
2.09893
2.09203
2.0846
2.07654
2.06822
2.06005
2.05282
2.04644
2.04373
2.04346
2.04733
2.05448
2.06566
2.07922
2.09169
2.10511
2.11524
2.12076
1.93334
1.92691
1.92454
1.92472
1.92819
1.93366
1.9416
1.95006
1.96072
1.97194
1.98355
1.9959
2.0081
2.02018
2.03228
2.04364
2.0548
2.06522
2.07495
2.08393
2.09227
2.09989
2.10676
2.11209
2.11714
2.12094
2.12324
2.12385
2.12362
2.12193
2.11893
2.11496
2.10975
2.10343
2.09607
2.08763
2.07812
2.06768
2.05709
2.04726
2.03796
2.03118
2.03046
2.0307
2.03778
2.05089
2.06748
2.08376
2.10028
2.11396
2.11865
1.93928
1.93216
1.92974
1.92966
1.93272
1.93798
1.9454
1.9538
1.96389
1.97463
1.98574
1.99762
2.00908
2.02083
2.03225
2.04338
2.05412
2.06435
2.07376
2.0828
2.091
2.09882
2.10578
2.1117
2.11667
2.12089
2.12371
2.12502
2.12515
2.12402
2.12145
2.11773
2.1126
2.10611
2.09826
2.08891
2.07775
2.06513
2.05142
2.03697
2.02218
2.00896
2.00134
1.99944
2.00293
2.01626
2.03576
2.057
2.08022
2.10133
2.10889
1.94565
1.9381
1.93532
1.935
1.93766
1.94261
1.94973
1.95782
1.96728
1.97752
1.98812
1.99913
2.0101
2.02127
2.03215
2.04287
2.05314
2.06296
2.07218
2.08115
2.0893
2.09711
2.10404
2.11018
2.11524
2.11961
2.12285
2.12474
2.12508
2.12455
2.12235
2.11895
2.11376
2.10714
2.09866
2.08808
2.07484
2.05905
2.04083
2.02114
1.99779
1.97557
1.95483
1.94259
1.93187
1.93467
1.96502
2.00082
2.04597
2.08593
2.11188
0.988425
0.989036
0.989695
0.990543
0.991495
0.992596
0.993854
0.995259
0.996837
0.998518
1.0004
1.0023
1.00438
1.0065
1.00864
1.01087
1.01303
1.01519
1.01727
1.01935
1.02127
1.02316
1.02488
1.02654
1.02804
1.02946
0.988632
0.989435
0.990302
0.991283
0.992382
0.993599
0.994966
0.99639
0.998024
0.999652
1.00149
1.00331
1.00523
1.0072
1.00919
1.01114
1.01312
1.01507
1.01694
1.01875
1.02051
1.02219
1.02378
1.02532
1.02676
1.02813
0.988888
0.98983
0.990879
0.992038
0.993251
0.994594
0.996022
0.997506
0.9991
1.00075
1.00244
1.00424
1.00597
1.00777
1.00957
1.01131
1.01308
1.01473
1.01644
1.01806
1.01961
1.02114
1.02259
1.02399
1.02538
1.02672
0.989179
0.990287
0.991513
0.992745
0.994121
0.995523
0.996995
0.998554
1.00009
1.00174
1.00331
1.00497
1.00656
1.00823
1.00971
1.01138
1.01282
1.01437
1.01577
1.01718
1.01862
1.01994
1.02129
1.02262
1.02392
1.02525
0.989448
0.990759
0.992037
0.993519
0.994902
0.996447
0.997907
0.99949
1.00099
1.00254
1.00412
1.00547
1.00712
1.0084
1.00993
1.01108
1.01257
1.01372
1.01503
1.01626
1.01745
1.01866
1.01994
1.02113
1.02243
1.02372
0.989808
0.991244
0.99262
0.994205
0.995686
0.997239
0.998774
1.00032
1.00177
1.00326
1.00467
1.00599
1.00734
1.00849
1.00981
1.01086
1.01206
1.01309
1.01419
1.01519
1.01625
1.01731
1.01845
1.01961
1.02087
1.02217
0.990222
0.991712
0.993304
0.994825
0.996456
0.998022
0.999557
1.00102
1.00252
1.0037
1.0052
1.00611
1.00761
1.00839
1.00971
1.01046
1.01158
1.01231
1.01306
1.01405
1.01492
1.01589
1.01698
1.01804
1.01928
1.02061
0.990662
0.992307
0.993883
0.995549
0.997155
0.998696
1.00025
1.00162
1.00306
1.00416
1.00551
1.00642
1.00747
1.00837
1.00918
1.00994
1.01071
1.01132
1.01211
1.01279
1.01359
1.01447
1.01543
1.01645
1.01772
1.01905
0.99118
0.992931
0.994513
0.996241
0.997793
0.999341
1.00082
1.00216
1.00346
1.00449
1.00568
1.00647
1.00739
1.00802
1.00874
1.00924
1.00982
1.01037
1.01085
1.01151
1.01214
1.01298
1.01386
1.01489
1.0161
1.01751
0.991932
0.993508
0.995317
0.996859
0.998538
0.999941
1.00137
1.00257
1.00379
1.00481
1.00567
1.00641
1.00707
1.00758
1.00803
1.00843
1.00886
1.00923
1.00963
1.01016
1.01072
1.01134
1.0123
1.01328
1.01457
1.01599
0.992657
0.994298
0.996046
0.997637
0.999126
1.00063
1.00181
1.00304
1.00399
1.00495
1.00553
1.00623
1.00666
1.00708
1.00733
1.00757
1.00779
1.00797
1.00827
1.00865
1.00916
1.00983
1.01057
1.01169
1.01298
1.01453
0.993566
0.995215
0.996875
0.998479
0.999834
1.00117
1.00239
1.00335
1.00423
1.00491
1.00547
1.0059
1.00613
1.00636
1.00644
1.00655
1.00666
1.00673
1.00683
1.00707
1.00748
1.00808
1.00891
1.01009
1.01159
1.01324
0.994579
0.996268
0.997807
0.999385
1.00067
1.00184
1.00283
1.00372
1.00437
1.00485
1.00528
1.00545
1.00558
1.00554
1.00551
1.00545
1.0053
1.00521
1.00528
1.00544
1.00583
1.00639
1.00729
1.00845
1.00988
1.01173
0.995895
0.997374
0.999004
1.00033
1.00154
1.00253
1.00342
1.00403
1.00455
1.00486
1.00501
1.00503
1.00489
1.00471
1.0044
1.00412
1.00386
1.00363
1.0036
1.00363
1.00397
1.00448
1.00548
1.00677
1.0085
1.0103
0.997328
0.998855
1.00014
1.00151
1.00249
1.00337
1.00401
1.00445
1.00473
1.0048
1.00473
1.00454
1.00423
1.00373
1.0033
1.00276
1.0023
1.00192
1.00166
1.00172
1.0019
1.00251
1.00341
1.00502
1.00674
1.0089
0.999047
1.00047
1.0016
1.00279
1.00365
1.00431
1.00472
1.00494
1.00494
1.0048
1.00446
1.00403
1.00337
1.00276
1.00195
1.00128
1.00062
1.00002
0.999583
0.999564
0.999605
1.00012
1.00136
1.00297
1.00489
1.00735
1.00087
1.00234
1.00324
1.00431
1.00494
1.00544
1.0056
1.00556
1.00532
1.0049
1.00427
1.00344
1.00255
1.00153
1.0005
0.999507
0.998548
0.997837
0.99716
0.997029
0.996972
0.997621
0.999076
1.00061
1.00302
1.00576
1.00304
1.00432
1.00531
1.00595
1.00652
1.00672
1.00665
1.00636
1.0058
1.00503
1.00409
1.00291
1.00173
1.00032
0.998892
0.997478
0.996173
0.99511
0.994253
0.993715
0.994016
0.99429
0.995927
0.997918
1.00063
1.00396
1.00554
1.00659
1.00752
1.008
1.00827
1.00827
1.00794
1.00731
1.00646
1.00526
1.00406
1.00231
1.00075
0.99893
0.997145
0.995212
0.993806
0.992454
0.992051
0.991419
0.991053
0.992234
0.992839
0.994876
0.997997
1.00177
1.00818
1.00915
1.00996
1.01032
1.01037
1.0101
1.0095
1.00838
1.00746
1.00535
1.00426
1.00141
1.00011
0.997525
0.995613
0.994217
0.994813
0.994746
0.997379
0.998126
0.998192
0.996256
0.995617
0.995039
0.996755
1.00015
1.01132
1.01219
1.01282
1.01298
1.01286
1.01212
1.01141
1.00957
1.00852
1.00569
1.00424
1.0008
1.00147
0.997421
1.00146
1.00289
1.02093
1.02866
1.04684
1.05667
1.05189
1.05241
1.03141
1.01618
1.00701
1.00398
1.01437
1.01527
1.01573
1.01578
1.01549
1.01451
1.01325
1.01141
1.00908
1.00612
1.00569
1.00232
1.013
1.00999
1.04551
1.08566
1.14781
1.20416
1.28318
1.31571
1.31566
1.27746
1.22448
1.13797
1.07207
1.03428
1.01801
1.01886
1.01921
1.0191
1.01853
1.01723
1.01542
1.0128
1.01055
1.00912
1.01372
1.02388
1.06279
1.13405
1.25607
1.41822
1.55679
1.63731
1.68511
1.68519
1.66305
1.65677
1.58222
1.51796
1.29602
1.1395
1.02171
1.02269
1.02288
1.02256
1.02178
1.02005
1.01734
1.01575
1.01514
1.03043
1.05821
1.15341
1.32419
1.55487
1.7124
1.79041
1.81579
1.80647
1.79142
1.76491
1.75137
1.7141
1.72048
1.66323
1.63987
1.3652
1.02563
1.02659
1.02664
1.02615
1.02488
1.02242
1.02067
1.02503
1.05146
1.12396
1.32791
1.5866
1.78391
1.86352
1.87823
1.86249
1.83526
1.78741
1.73932
1.67311
1.62819
1.64033
1.67362
1.69031
1.67154
1.54095
1.02968
1.03064
1.03055
1.02989
1.02773
1.02583
1.03367
1.08339
1.2465
1.5576
1.79931
1.90528
1.92457
1.91005
1.87547
1.81089
1.71284
1.57661
1.47749
1.31985
1.31626
1.37042
1.52349
1.62203
1.6348
1.52912
1.03398
1.03469
1.03456
1.03308
1.03044
1.03927
1.11815
1.40439
1.76153
1.92401
1.96416
1.95497
1.92339
1.85703
1.74437
1.59076
1.41637
1.25508
1.12836
1.11438
1.15308
1.26452
1.46164
1.5779
1.58081
1.43532
1.0379
1.03842
1.03813
1.03493
1.03952
1.15018
1.57228
1.90233
1.99212
1.99311
1.97278
1.92351
1.82855
1.68554
1.503
1.30111
1.12401
1.04892
1.04507
1.09559
1.20509
1.37206
1.49749
1.5169
1.42845
1.22191
1.04196
1.04132
1.04013
1.0477
1.17643
1.68628
1.9796
2.02462
2.01376
1.98498
1.92249
1.81641
1.66392
1.46818
1.24933
1.0629
1.00822
1.01147
1.05288
1.16258
1.30639
1.36189
1.37745
1.29418
1.12703
1.04616
1.04472
1.04658
1.06779
1.23359
1.75951
2.02019
2.04528
2.03104
1.99889
1.93579
1.83344
1.68079
1.47607
1.2526
1.04761
0.994448
0.989958
0.998231
1.05816
1.08856
1.10897
1.11831
1.09292
1.0242
1.00925
0.998166
1.05413
1.09831
1.34491
1.86437
2.04778
2.06127
2.04752
2.01819
1.96247
1.87083
1.7277
1.53034
1.3031
1.07779
1.02307
0.979545
0.974807
0.972394
0.983374
0.987007
0.991156
0.991113
0.980322
0.978551
0.984033
0.989519
1.12798
1.4164
1.89393
2.05337
2.07385
2.06325
2.04019
1.9958
1.9246
1.81024
1.64322
1.43202
1.21236
1.06121
0.983949
0.982912
0.969373
0.962995
0.960355
0.961634
0.962864
0.963771
0.965606
0.973143
0.981891
0.989274
1.45434
1.92646
2.04537
2.08662
2.07798
2.0626
2.03298
1.98569
1.90794
1.78502
1.60992
1.39592
1.18774
1.02012
1.00369
0.979545
0.971826
0.959701
0.958629
0.957632
0.959312
0.962956
0.969602
0.978644
0.990805
1.00911
1.94675
2.03477
2.09406
2.09211
2.08203
2.06461
2.03662
1.99516
1.92747
1.82297
1.6708
1.47818
1.27612
1.12192
1.00779
1.01635
0.987202
0.978072
0.967648
0.971811
0.978265
0.995087
1.02343
1.06963
1.15092
1.27549
2.04085
2.10068
2.10076
2.0968
2.08537
2.06844
2.04589
2.01597
1.97465
1.91544
1.82831
1.70485
1.54645
1.37623
1.26568
1.16303
1.18156
1.16173
1.17323
1.20186
1.27111
1.36951
1.4832
1.61963
1.75321
1.85901
2.08205
2.11016
2.1069
2.09982
2.08867
2.07392
2.05545
2.03381
2.00796
1.97693
1.93759