/*--------------------------------*- C++ -*----------------------------------*\
  =========                 |
  \\      /  F ield         | OpenFOAM: The Open Source CFD Toolbox
   \\    /   O peration     | Website:  https://openfoam.org
    \\  /    A nd           | Version:  10
     \\/     M anipulation  |
\*---------------------------------------------------------------------------*/
FoamFile
{
    format      ascii;
    class       volScalarField;
    location    "0.351479";
    object      T;
}
// * * * * * * * * * * * * * * * * * * * * * * * * * * * * * * * * * * * * * //

dimensions      [0 0 0 1 0 0 0];

internalField   nonuniform List<scalar> 
15708
(
0.00873555
0.00871915
0.00870304
0.00868802
0.00867398
0.00866119
0.00864967
0.00863959
0.00863042
0.00862281
0.00861598
0.0086097
0.00860525
0.00860057
0.00859713
0.0085939
0.00859109
0.00858902
0.00858708
0.00858555
0.00858453
0.00858436
0.00858469
0.00858519
0.00858708
0.00858934
0.00859249
0.00859631
0.00860013
0.00860547
0.00860967
0.00861559
0.00862091
0.00862581
0.00863127
0.00863564
0.00864023
0.00864445
0.00864817
0.00865139
0.00865463
0.00865722
0.00865945
0.00866149
0.00866308
0.00866466
0.00866573
0.00866719
0.00866834
0.00866985
0.00867142
0.00873786
0.00872071
0.00870364
0.00868766
0.00867235
0.00865879
0.00864626
0.00863516
0.00862551
0.00861634
0.00860956
0.00860281
0.00859795
0.00859363
0.00859048
0.00858754
0.00858546
0.00858383
0.00858295
0.00858236
0.00858244
0.00858286
0.00858398
0.00858601
0.00858844
0.00859144
0.00859507
0.00859946
0.00860368
0.00860844
0.00861373
0.00861838
0.00862341
0.00862829
0.00863278
0.00863676
0.00864073
0.00864408
0.00864724
0.00865035
0.00865252
0.00865525
0.00865674
0.00865913
0.0086606
0.00866231
0.00866401
0.00866557
0.00866727
0.00866935
0.00867138
0.00874019
0.00872201
0.00870423
0.00868726
0.00867113
0.00865648
0.00864298
0.00863101
0.00862024
0.0086108
0.00860289
0.00859603
0.00859072
0.00858647
0.0085834
0.00858096
0.00857952
0.00857872
0.00857876
0.00857892
0.00858022
0.00858145
0.00858401
0.00858657
0.00859022
0.00859394
0.00859808
0.0086029
0.00860734
0.00861247
0.00861705
0.00862199
0.00862635
0.00863066
0.00863435
0.00863837
0.00864066
0.0086446
0.00864598
0.00864909
0.00865082
0.00865308
0.00865447
0.00865639
0.00865834
0.00866002
0.00866195
0.00866407
0.00866628
0.00866889
0.00867148
0.00874182
0.00872283
0.00870453
0.00868644
0.0086696
0.00865374
0.00863946
0.0086266
0.00861496
0.00860507
0.0085963
0.00858921
0.0085837
0.00857927
0.00857641
0.00857459
0.0085738
0.00857389
0.00857421
0.00857613
0.00857792
0.00858103
0.008584
0.00858804
0.00859221
0.00859708
0.00860171
0.00860661
0.00861171
0.00861678
0.00862119
0.00862584
0.00862993
0.00863308
0.00863709
0.00863919
0.00864237
0.00864386
0.00864622
0.00864766
0.00864941
0.00865099
0.00865275
0.00865439
0.00865611
0.00865814
0.0086604
0.00866292
0.00866575
0.00866867
0.00867214
0.00874318
0.0087233
0.00870408
0.00868528
0.00866768
0.00865105
0.00863572
0.00862207
0.00860963
0.0085987
0.00858988
0.00858207
0.00857652
0.00857245
0.00856971
0.00856817
0.00856822
0.00856855
0.00857092
0.00857279
0.00857639
0.00858045
0.00858461
0.00858989
0.00859465
0.00860044
0.00860576
0.00861141
0.00861619
0.00862178
0.00862556
0.00863001
0.00863377
0.00863625
0.00863934
0.00864124
0.00864296
0.00864483
0.0086459
0.00864715
0.00864845
0.00864957
0.00865082
0.00865295
0.00865438
0.00865688
0.00865932
0.00866214
0.00866531
0.00866885
0.00867264
0.00874368
0.00872307
0.0087031
0.00868399
0.00866556
0.0086482
0.00863192
0.00861753
0.00860423
0.0085932
0.00858313
0.00857583
0.00856962
0.00856556
0.0085629
0.00856216
0.00856247
0.0085638
0.00856676
0.00857046
0.00857467
0.00858041
0.00858527
0.00859166
0.00859808
0.00860402
0.0086104
0.00861597
0.0086218
0.00862589
0.00863139
0.00863379
0.00863807
0.00863954
0.00864234
0.00864335
0.00864469
0.00864549
0.00864612
0.00864685
0.00864752
0.00864875
0.00865016
0.00865127
0.00865381
0.00865596
0.00865849
0.00866188
0.0086654
0.00866953
0.00867378
0.00874346
0.00872237
0.00870247
0.00868212
0.00866311
0.00864499
0.00862787
0.00861283
0.00859867
0.0085873
0.0085774
0.00856842
0.00856365
0.00855817
0.00855696
0.00855609
0.00855677
0.00855938
0.00856301
0.00856783
0.0085737
0.00857975
0.00858673
0.00859438
0.00860046
0.008609
0.00861452
0.0086215
0.0086262
0.00863244
0.00863542
0.00863937
0.00864213
0.00864316
0.00864537
0.00864584
0.00864611
0.00864671
0.00864689
0.00864713
0.00864749
0.00864847
0.00864927
0.00865107
0.00865319
0.00865524
0.00865869
0.00866199
0.00866619
0.00867052
0.00867536
0.00874317
0.00872195
0.00870011
0.00868038
0.00866024
0.00864186
0.00862405
0.00860786
0.00859383
0.00858133
0.00857075
0.00856321
0.00855553
0.00855285
0.00855004
0.00855035
0.00855188
0.00855451
0.00856046
0.00856414
0.00857417
0.00857891
0.00858899
0.00859613
0.0086048
0.00861237
0.00861951
0.008627
0.00863141
0.00863801
0.00864023
0.00864477
0.00864579
0.00864771
0.00864836
0.00864834
0.00864843
0.008648
0.00864785
0.00864798
0.00864809
0.00864837
0.00864928
0.00865136
0.00865299
0.00865609
0.00865916
0.00866291
0.0086673
0.00867179
0.00867716
0.00874118
0.0087205
0.00869806
0.00867814
0.00865707
0.00863886
0.00861933
0.00860385
0.00858867
0.00857566
0.00856516
0.00855604
0.00855038
0.00854572
0.00854434
0.00854462
0.00854695
0.00855117
0.00855608
0.00856453
0.0085714
0.00858078
0.00858951
0.00859938
0.00860754
0.00861712
0.00862494
0.00863087
0.00863861
0.00864149
0.00864738
0.00864851
0.00865116
0.00865132
0.00865139
0.00865144
0.00865059
0.00864983
0.00865001
0.00864833
0.00864934
0.00864896
0.00865045
0.00865154
0.00865387
0.0086568
0.00866044
0.0086643
0.00866881
0.00867452
0.00867862
0.00874005
0.00871862
0.00869574
0.00867501
0.00865468
0.00863417
0.00861623
0.00859839
0.00858384
0.00857024
0.00855885
0.00855124
0.00854335
0.00854069
0.00853895
0.00853949
0.00854262
0.00854696
0.00855438
0.00856152
0.00857155
0.00858095
0.00859167
0.00860155
0.00861128
0.00862176
0.00862923
0.00863745
0.00864227
0.00864871
0.00865115
0.00865389
0.00865568
0.00865535
0.00865542
0.00865454
0.00865384
0.00865216
0.0086516
0.0086506
0.00865002
0.00865099
0.00865147
0.008653
0.00865524
0.00865866
0.00866211
0.0086669
0.00867089
0.00867667
0.00868224
0.00873875
0.00871492
0.00869399
0.00867129
0.00865111
0.00863041
0.00861183
0.00859376
0.00857943
0.00856398
0.0085549
0.00854443
0.00853901
0.00853456
0.00853421
0.0085348
0.00853914
0.00854285
0.00855256
0.00855965
0.00857126
0.00858181
0.00859334
0.00860428
0.00861593
0.00862484
0.00863494
0.00864134
0.00864878
0.00865339
0.00865624
0.00865942
0.00865944
0.00865998
0.00865911
0.00865823
0.00865641
0.00865479
0.00865433
0.00865203
0.0086522
0.00865272
0.0086535
0.00865484
0.00865782
0.00866072
0.00866447
0.00866954
0.00867412
0.00867912
0.00868574
0.00873484
0.00871206
0.00869056
0.00866777
0.00864724
0.00862675
0.00860705
0.00858959
0.00857332
0.0085606
0.00854825
0.00854002
0.00853337
0.00852988
0.00852989
0.00853108
0.00853442
0.00854216
0.00854928
0.00855957
0.00857121
0.00858236
0.00859565
0.00860748
0.00861874
0.00862999
0.00863833
0.00864805
0.00865245
0.00865885
0.00866177
0.00866349
0.00866444
0.00866396
0.00866331
0.00866153
0.00865985
0.00865752
0.00865723
0.00865466
0.00865493
0.00865524
0.0086561
0.00865802
0.00866067
0.00866404
0.00866834
0.00867261
0.00867833
0.00868348
0.0086891
0.00873022
0.00870844
0.00868645
0.00866353
0.00864298
0.00862239
0.0086021
0.00858559
0.00856768
0.00855602
0.00854309
0.00853526
0.00852897
0.00852605
0.00852597
0.00852745
0.0085329
0.00853767
0.00854953
0.00855891
0.00857235
0.0085834
0.0085982
0.00860991
0.00862275
0.00863324
0.00864428
0.00865118
0.00865864
0.00866334
0.00866657
0.00866819
0.00866914
0.00866812
0.0086673
0.00866515
0.00866335
0.00866077
0.00865975
0.00865826
0.00865769
0.00865857
0.00865956
0.00866162
0.0086645
0.00866824
0.00867229
0.00867748
0.00868231
0.00868841
0.00869325
0.00872728
0.00870294
0.00868239
0.0086586
0.00863866
0.00861697
0.00859902
0.00857918
0.00856491
0.00854932
0.00854004
0.0085299
0.00852551
0.00852204
0.00852256
0.00852532
0.0085303
0.00853785
0.00854831
0.00855949
0.0085722
0.00858708
0.00859912
0.00861406
0.00862567
0.00863857
0.00864713
0.00865732
0.00866243
0.00866817
0.00867123
0.00867313
0.00867302
0.00867293
0.00867077
0.00866928
0.0086671
0.00866429
0.00866333
0.00866116
0.00866143
0.00866205
0.00866368
0.00866576
0.00866906
0.00867313
0.00867753
0.00868279
0.00868811
0.00869337
0.00869892
0.00872113
0.00869795
0.00867611
0.00865546
0.00863217
0.00861304
0.00859308
0.00857507
0.00855916
0.008546
0.00853443
0.00852697
0.00852151
0.00851971
0.00852024
0.00852367
0.00852887
0.00853878
0.0085479
0.00856084
0.00857512
0.00858708
0.00860385
0.008616
0.00863049
0.00864132
0.00865324
0.00865998
0.00866847
0.00867191
0.00867631
0.00867694
0.00867808
0.00867677
0.0086748
0.00867395
0.00867007
0.00866899
0.00866726
0.00866612
0.00866574
0.00866646
0.00866811
0.00867093
0.00867413
0.00867841
0.0086834
0.00868893
0.00869418
0.00869931
0.00870459
0.00871397
0.00869379
0.00866961
0.00864912
0.00862748
0.00860701
0.00858782
0.00856975
0.00855435
0.00854107
0.00853042
0.00852404
0.00851805
0.00851805
0.00851877
0.00852288
0.00852977
0.00853865
0.00854977
0.00856366
0.00857617
0.00859185
0.00860581
0.00862055
0.00863355
0.00864633
0.00865669
0.00866455
0.00867227
0.00867772
0.00867936
0.00868285
0.00868205
0.00868104
0.00867907
0.00867696
0.00867491
0.0086731
0.00867095
0.00867025
0.00867073
0.00867187
0.00867318
0.00867689
0.00868073
0.00868495
0.00869033
0.00869542
0.00870108
0.00870615
0.0087113
0.00870584
0.00868701
0.00866351
0.00864206
0.00862125
0.00860138
0.00858123
0.00856433
0.00855006
0.00853593
0.00852797
0.00851937
0.00851686
0.00851655
0.00851867
0.00852326
0.00853119
0.00854006
0.00855376
0.0085655
0.00858036
0.00859564
0.00860998
0.00862473
0.00863809
0.00865007
0.00866118
0.00866954
0.00867624
0.00868171
0.00868445
0.00868631
0.00868626
0.0086853
0.00868335
0.00868181
0.00867865
0.00867706
0.00867611
0.00867478
0.00867563
0.00867666
0.00867938
0.00868298
0.00868754
0.00869221
0.00869826
0.00870294
0.00870961
0.00871433
0.00871904
0.00870088
0.00867762
0.00865753
0.00863544
0.00861421
0.00859366
0.00857547
0.00855861
0.00854286
0.00853183
0.00852347
0.00851728
0.008516
0.00851633
0.00851852
0.00852515
0.00853407
0.00854387
0.00855623
0.00857048
0.00858548
0.00859967
0.00861568
0.00862949
0.00864278
0.00865577
0.00866508
0.00867391
0.00868174
0.00868456
0.00868996
0.00869009
0.00868996
0.00868978
0.00868754
0.00868547
0.00868336
0.00868076
0.00867982
0.00867962
0.00868043
0.0086823
0.00868581
0.00868976
0.00869511
0.00870035
0.00870645
0.00871346
0.00871791
0.00872413
0.00872771
0.00869096
0.00867058
0.00864823
0.00862788
0.00860695
0.00858568
0.00856922
0.00855089
0.00853784
0.00852682
0.00851887
0.00851592
0.00851455
0.00851638
0.00852111
0.00852823
0.00853761
0.00855029
0.00856187
0.00857645
0.00859182
0.00860596
0.00862112
0.00863622
0.0086474
0.00866152
0.00866988
0.0086787
0.00868566
0.00869043
0.00869325
0.00869415
0.00869435
0.0086927
0.00869136
0.00868922
0.00868682
0.00868481
0.00868332
0.00868391
0.00868479
0.00868759
0.00869217
0.00869784
0.00870381
0.00871036
0.0087165
0.00872247
0.0087289
0.00873372
0.00873832
0.00868304
0.00866177
0.00863829
0.00861982
0.00859643
0.0085783
0.00855916
0.00854505
0.00853092
0.00852205
0.00851623
0.00851355
0.00851429
0.00851802
0.00852338
0.00853395
0.00854297
0.00855668
0.00857006
0.00858383
0.00859918
0.00861341
0.00862805
0.00864311
0.00865416
0.00866635
0.00867582
0.00868357
0.00868996
0.00869472
0.00869594
0.00869844
0.00869737
0.00869627
0.00869443
0.00869164
0.00869005
0.00868962
0.00868924
0.00868868
0.00869022
0.00869493
0.00869992
0.00870564
0.00871173
0.00871941
0.00872749
0.00873398
0.00874046
0.00874544
0.00875005
0.00867356
0.00865035
0.00863018
0.00860953
0.0085867
0.00856819
0.00855065
0.00853692
0.00852202
0.00851571
0.00851245
0.00851282
0.00851518
0.00851953
0.00852965
0.0085376
0.00855154
0.00856372
0.00857931
0.0085932
0.00860897
0.00862223
0.00863743
0.00865018
0.00866265
0.00867201
0.00868197
0.00868911
0.00869438
0.00869839
0.00870172
0.00870091
0.00870195
0.00869997
0.00869777
0.00869475
0.00869353
0.00869261
0.008692
0.00869284
0.00869428
0.00869667
0.00870431
0.00871351
0.00872238
0.0087298
0.00873903
0.00874562
0.0087526
0.00875655
0.00876158
0.00866054
0.00864243
0.008618
0.00859799
0.00857919
0.00855728
0.00854385
0.00852692
0.0085179
0.00851117
0.0085076
0.00850958
0.0085154
0.00852456
0.00853586
0.00854829
0.00856165
0.00857697
0.00859037
0.00860571
0.00861968
0.00863365
0.00864677
0.00865964
0.00867079
0.00867962
0.00868869
0.00869422
0.00869878
0.00870389
0.00870255
0.0087055
0.00870406
0.00870304
0.00870026
0.0086983
0.00869531
0.00869471
0.00869552
0.00869617
0.00869814
0.00870477
0.00871345
0.0087224
0.00873302
0.00874229
0.00875181
0.00876058
0.00876793
0.00877262
0.00877567
0.00864932
0.00862807
0.00860733
0.0085849
0.00856267
0.00854794
0.00852235
0.00853208
0.00850225
0.00851171
0.00851034
0.00851319
0.00851737
0.00852879
0.00854164
0.00855661
0.00857202
0.00858758
0.00860291
0.00861766
0.00863185
0.00864578
0.00865816
0.00867034
0.00867967
0.00868871
0.00869608
0.00869973
0.00870542
0.00870517
0.00870881
0.00870684
0.0087067
0.00870435
0.00870216
0.00869831
0.00869645
0.00869569
0.00869691
0.00870036
0.0087028
0.00871113
0.00872767
0.00873996
0.00874943
0.00875777
0.00876403
0.00877149
0.00877866
0.008785
0.00878902
0.0086516
0.00861222
0.00857635
0.00854988
0.00852259
0.0084942
0.00849407
0.0084753
0.00848963
0.00848752
0.00850101
0.00851445
0.00852771
0.00854047
0.00855436
0.00857143
0.00858806
0.00860432
0.00861999
0.00863483
0.00864756
0.00866056
0.00867119
0.00868159
0.00868979
0.00869842
0.00870328
0.0087061
0.00871098
0.00871008
0.00871144
0.00871224
0.00870959
0.00870676
0.00869919
0.008692
0.00867276
0.00866398
0.00866485
0.00866791
0.00868716
0.00869657
0.00872237
0.00874099
0.00876153
0.00877982
0.0087916
0.00880025
0.0088039
0.00880559
0.00880537
0.00861005
0.00850126
0.0084549
0.00839375
0.00829419
0.00825377
0.00825427
0.00828709
0.00830657
0.00840905
0.00848701
0.00851655
0.0085342
0.00855528
0.00857081
0.008586
0.00860252
0.00862004
0.00863623
0.00865031
0.00866353
0.00867569
0.00868589
0.0086941
0.00870224
0.00870855
0.00871082
0.00871528
0.00871457
0.00871899
0.00871784
0.00871477
0.00869138
0.00869076
0.00862719
0.00854319
0.00848202
0.00838054
0.0083483
0.00834589
0.00843842
0.00856112
0.00853825
0.00870268
0.00876193
0.0087794
0.0087997
0.00880851
0.00881657
0.00882121
0.00881982
0.00844194
0.0080691
0.00770973
0.00750235
0.00710704
0.00706002
0.00702123
0.00734216
0.00772543
0.00799224
0.00815181
0.00833041
0.00846859
0.00854241
0.00858489
0.00861017
0.00862717
0.00864091
0.00865578
0.00866864
0.00868095
0.00869171
0.0087009
0.00870701
0.0087152
0.00871854
0.00872091
0.00872311
0.00872577
0.00872443
0.00870877
0.00869132
0.00854849
0.0084908
0.00811854
0.00760127
0.00717679
0.00664045
0.00638791
0.00651194
0.0065886
0.00717567
0.00814446
0.00830797
0.0085847
0.00875033
0.0087984
0.00882428
0.0088321
0.00883651
0.00883443
0.00700519
0.00623423
0.00558559
0.00522249
0.00495308
0.0049537
0.00496537
0.00528511
0.00532071
0.00621141
0.00763478
0.0082701
0.00846684
0.0085343
0.00858402
0.0086192
0.00864342
0.00866233
0.00867674
0.00868968
0.0087004
0.00870974
0.00871604
0.00872105
0.00872805
0.00872925
0.00873361
0.00873536
0.008725
0.00871191
0.00858408
0.00840571
0.00782977
0.00688803
0.00586292
0.00520507
0.00488929
0.00466061
0.0046464
0.00472082
0.00482902
0.00537905
0.00564085
0.00748535
0.00843493
0.00866132
0.00878029
0.00883352
0.00884951
0.00885262
0.00884766
0.00491878
0.004629
0.0044829
0.00442799
0.00440924
0.00442136
0.00443341
0.00457795
0.00457799
0.00508934
0.00551851
0.00719014
0.00807785
0.00846945
0.00858112
0.00863311
0.00866283
0.00868261
0.00869775
0.00870852
0.00871846
0.0087272
0.00873159
0.00873859
0.00874089
0.00874717
0.00874699
0.00873326
0.00863722
0.00846178
0.00778931
0.0066063
0.0054048
0.00480099
0.00454863
0.00445275
0.00442941
0.0044241
0.00442586
0.00445611
0.00451621
0.00471184
0.00495663
0.00577311
0.0074405
0.00841351
0.00874496
0.00883672
0.0088599
0.00886263
0.00885781
0.00438646
0.0043703
0.00437567
0.00440367
0.00443364
0.00450992
0.00453155
0.0045713
0.00458166
0.00475049
0.00490939
0.00599469
0.00749057
0.00827501
0.00855429
0.00864439
0.00868171
0.00870192
0.00871697
0.00872746
0.00873694
0.00874292
0.00874932
0.00875291
0.00876226
0.00875912
0.00872991
0.00852361
0.00801607
0.00686961
0.00534272
0.00468488
0.00446363
0.00440741
0.00440952
0.00442955
0.00448696
0.00453442
0.00464414
0.00466476
0.00462843
0.00468182
0.00482558
0.00535136
0.00695966
0.00831185
0.00874423
0.00885145
0.00887009
0.00886799
0.00886101
0.00436501
0.00440769
0.00449569
0.00469688
0.00481362
0.00510075
0.00511617
0.00502073
0.00475829
0.00475536
0.00490739
0.005574
0.00704196
0.00808014
0.0085254
0.00865483
0.00870033
0.00872039
0.00873321
0.00874456
0.00875218
0.00876003
0.00876458
0.00877755
0.0087763
0.00866942
0.00836027
0.00704034
0.00550571
0.00473811
0.00444223
0.00438505
0.00439592
0.0044414
0.00454532
0.00471036
0.00491482
0.00512312
0.00521425
0.00526035
0.00514231
0.0048454
0.00485364
0.00548405
0.00708855
0.0084185
0.00878994
0.00886978
0.00887518
0.00887241
0.00887025
0.00447745
0.00465526
0.004941
0.00534989
0.00570318
0.00614246
0.00611777
0.00590415
0.00523654
0.00494685
0.00497021
0.00571169
0.00717923
0.00813751
0.00854101
0.00867742
0.0087177
0.00873499
0.00874866
0.00875931
0.0087684
0.00877524
0.00879004
0.00879947
0.00863881
0.0075015
0.00628811
0.00470918
0.00440724
0.0043896
0.00439139
0.00443328
0.00453672
0.00473473
0.00505548
0.00547906
0.00599398
0.00638269
0.00640791
0.00632522
0.00541847
0.00488152
0.00503261
0.0056149
0.00773138
0.00861823
0.00884524
0.00887538
0.00887774
0.00887432
0.00886821
0.00474821
0.00513485
0.00573035
0.00653512
0.00712273
0.00720886
0.00704523
0.00639834
0.00534634
0.0050194
0.00526193
0.00592863
0.00748875
0.00831542
0.00862119
0.00870341
0.00873264
0.00874995
0.00876263
0.00877021
0.00878276
0.00880319
0.00880928
0.00859096
0.00695539
0.00478222
0.00445941
0.00440547
0.0043953
0.00441142
0.00447627
0.00462656
0.00493059
0.00545324
0.00621322
0.00699177
0.00734093
0.00719991
0.00676097
0.00594084
0.00527493
0.00508166
0.00537131
0.00670303
0.0084481
0.00874016
0.00887425
0.00887797
0.00888015
0.00887122
0.00877406
0.0051796
0.00593444
0.00702818
0.00772786
0.00786072
0.00759384
0.00701407
0.00606638
0.00547564
0.00539009
0.00571069
0.0071292
0.00807412
0.00853468
0.00867811
0.00872448
0.00874297
0.00875385
0.00877107
0.00879645
0.00881292
0.00877583
0.00806581
0.00572363
0.00463731
0.00443913
0.00440781
0.00440406
0.00442758
0.00450721
0.00469667
0.00509042
0.00578125
0.00683209
0.00763997
0.00783706
0.00760605
0.00700375
0.00625517
0.00570736
0.0055057
0.00562644
0.00654776
0.00834862
0.00862702
0.00884165
0.00886546
0.00885785
0.00880545
0.00863912
0.00813292
0.00578339
0.00696565
0.00793303
0.00809567
0.00799462
0.00746768
0.00677053
0.0062652
0.00606727
0.00622481
0.00715074
0.0080552
0.00845578
0.00864021
0.00870526
0.00872571
0.00874784
0.00877662
0.00878968
0.00877715
0.0085409
0.00728276
0.00523459
0.00458355
0.00443957
0.00441387
0.00441249
0.00443744
0.00452151
0.00472137
0.00514265
0.00590372
0.00712888
0.00793286
0.00820282
0.00805002
0.00756977
0.00689691
0.00631834
0.00628509
0.00631021
0.00702777
0.00843993
0.00859482
0.00880357
0.00884959
0.00886297
0.0088218
0.00867444
0.00803387
0.00603587
0.00635065
0.0077
0.00815045
0.0082397
0.00804358
0.00768188
0.00734432
0.00720424
0.00721381
0.00757128
0.00813042
0.00847816
0.00860027
0.00868458
0.00870629
0.0087435
0.00875762
0.00876138
0.00869906
0.00825506
0.00672225
0.0050391
0.00455628
0.00444147
0.0044189
0.00441739
0.00443741
0.00451078
0.00468303
0.00505747
0.00576086
0.00689497
0.00797123
0.00844499
0.0083751
0.00823762
0.00790663
0.0075204
0.0075103
0.00747283
0.00781187
0.00860247
0.00863466
0.00881345
0.00881082
0.00882534
0.00870629
0.00857503
0.00773409
0.0056859
0.00480025
0.00671122
0.00786037
0.00831525
0.00834237
0.00827081
0.00810099
0.00800948
0.00796915
0.00802552
0.00840393
0.00842909
0.00861969
0.00864672
0.00869455
0.00872016
0.00872498
0.00870568
0.00851315
0.00782959
0.00614632
0.00490731
0.00453208
0.00444389
0.00442112
0.00441949
0.00443221
0.00448408
0.00460531
0.00487442
0.00538352
0.00624283
0.00748449
0.00839321
0.00854943
0.00854181
0.00848719
0.00837703
0.0083061
0.00829965
0.00838636
0.008621
0.0087128
0.00876528
0.00875908
0.00879217
0.00861086
0.00846221
0.00727848
0.00559337
0.00492964
0.00451651
0.00677689
0.00800713
0.0083244
0.00840724
0.00840845
0.00838229
0.00836541
0.0083673
0.00850141
0.00850226
0.00862133
0.00862399
0.00867698
0.00867894
0.0086755
0.00856509
0.00817113
0.00708665
0.00552749
0.00470849
0.00454907
0.0044321
0.0044255
0.00441988
0.004426
0.00445427
0.00452273
0.00467616
0.00498348
0.00553848
0.00643916
0.0076763
0.00852558
0.00863516
0.0086449
0.00867183
0.00866815
0.00865373
0.00865715
0.00869593
0.00874859
0.00874312
0.00877332
0.0087031
0.00830265
0.00830068
0.0064812
0.00546083
0.00465136
0.00463688
0.00447181
0.00652061
0.0078188
0.0084059
0.00837074
0.00847148
0.00849834
0.00851496
0.0085364
0.00854448
0.00859866
0.00859715
0.00861676
0.00861138
0.00851446
0.00823201
0.00746952
0.00611571
0.0051551
0.00457456
0.00451778
0.00443427
0.00442314
0.00442003
0.00442164
0.00443574
0.00446426
0.00454108
0.00470253
0.00502186
0.00558494
0.00647745
0.00770673
0.0083071
0.00873093
0.00863728
0.00873458
0.00872494
0.00873355
0.00872045
0.00871065
0.00868566
0.00861882
0.00846506
0.00824795
0.00787557
0.00515242
0.00536123
0.00475744
0.00451302
0.00451602
0.00445711
0.00594301
0.00720945
0.00798353
0.00848198
0.00840475
0.00850959
0.00853345
0.00853348
0.00854677
0.00855122
0.00852846
0.00842209
0.00817565
0.0075536
0.0064343
0.00542415
0.00463088
0.00463085
0.00445203
0.00444012
0.00442014
0.00441862
0.0044216
0.00442659
0.00443719
0.00446754
0.00453485
0.0046706
0.0049241
0.00536503
0.00607118
0.00707979
0.00802556
0.00870505
0.00854449
0.00865584
0.00867421
0.00868009
0.00863555
0.00856142
0.00843417
0.00815615
0.00749736
0.00623938
0.00475724
0.00514861
0.00460164
0.00455158
0.0044689
0.00446953
0.00445369
0.00522679
0.00601297
0.00708253
0.00831713
0.00816692
0.00838192
0.00837615
0.00840622
0.00836735
0.00823378
0.00795139
0.00739017
0.00630262
0.00542331
0.00473118
0.00471795
0.0044755
0.0044627
0.00442114
0.00441851
0.00441628
0.00442173
0.00442486
0.00442764
0.00443806
0.00446215
0.00451106
0.00460814
0.00478413
0.0050865
0.00556715
0.00626238
0.00714247
0.00778114
0.00841656
0.00823043
0.00833348
0.00825016
0.00812252
0.00767453
0.00703326
0.00615896
0.00536394
0.00495613
0.00465444
0.00468917
0.00448318
0.00448203
0.00445482
0.00445558
0.00445356
0.00470231
0.00505709
0.00561514
0.0063372
0.00714587
0.00743269
0.00754298
0.00747448
0.00726498
0.00667709
0.00595323
0.00529667
0.00481624
0.00464227
0.00448349
0.00448373
0.00442198
0.00441628
0.0044128
0.00441591
0.00441833
0.00442365
0.00442671
0.00443067
0.00443753
0.00445547
0.00448706
0.00454773
0.00465312
0.00482814
0.00509826
0.00547845
0.00595
0.0064287
0.00675488
0.00692952
0.00693187
0.00680599
0.00633908
0.00577381
0.00537836
0.00498735
0.00465894
0.00460893
0.00450054
0.00450204
0.00445404
0.00445283
0.00444906
0.00445239
0.00445444
0.00444743
0.00457012
0.00476613
0.00503114
0.0052705
0.00553338
0.00550247
0.00552573
0.00535352
0.00502428
0.00474089
0.00455185
0.00449287
0.00442704
0.00442618
0.00440519
0.00440325
0.00440674
0.00441065
0.00441792
0.00442198
0.00442708
0.00442967
0.00443296
0.00443898
0.00445088
0.00446994
0.00450444
0.00456095
0.00465081
0.00478315
0.00496123
0.00517139
0.00536121
0.00548954
0.00551393
0.00550258
0.00536594
0.00507318
0.00485706
0.00468601
0.00457519
0.0044783
0.00448297
0.00445042
0.00444876
0.00444144
0.00444348
0.00444746
0.00445299
0.00445585
0.00434498
0.00437689
0.00443003
0.0045023
0.00457457
0.00463609
0.00463641
0.00463891
0.00457444
0.00447506
0.00443553
0.00439763
0.00439711
0.00438819
0.00438837
0.00439089
0.00439959
0.00440514
0.00441376
0.00441991
0.00442494
0.00442989
0.00443272
0.00443653
0.00444122
0.00444945
0.00446085
0.0044797
0.00450796
0.00454983
0.00460778
0.00468153
0.00476372
0.00482151
0.00485295
0.00485348
0.00482889
0.00472546
0.0046065
0.00453397
0.00448876
0.00444397
0.00444246
0.00443209
0.00443178
0.00443263
0.0044354
0.00444236
0.00444727
0.00445236
0.0044565
0.00431124
0.00431541
0.00432559
0.00434095
0.00435889
0.00437247
0.00437626
0.00437858
0.00437205
0.00435884
0.00435981
0.0043585
0.00436796
0.00437114
0.00437928
0.00439012
0.00439914
0.00440683
0.00441607
0.00442064
0.00442838
0.00443336
0.00443595
0.00444012
0.00444472
0.00445043
0.0044581
0.00446896
0.00448371
0.00450295
0.00452711
0.00455489
0.00457734
0.00459459
0.00459424
0.00459076
0.00455842
0.00450948
0.00446726
0.00444398
0.00442911
0.00442245
0.00442203
0.0044204
0.004424
0.00442857
0.00443456
0.00444082
0.00444619
0.00445225
0.0044567
0.00430134
0.00429913
0.00429915
0.0043019
0.00430635
0.00431118
0.00431746
0.00432428
0.00432724
0.00433291
0.00433977
0.004349
0.00435864
0.00436943
0.00437879
0.00439137
0.00440016
0.00440813
0.0044175
0.00442303
0.00443092
0.00443576
0.00443912
0.00444398
0.00444794
0.00445299
0.00445861
0.00446578
0.00447422
0.00448338
0.0044937
0.00450232
0.00450621
0.00450826
0.0045047
0.00449122
0.00447023
0.00444649
0.0044318
0.00441859
0.00441726
0.00441482
0.0044145
0.00441622
0.00442033
0.00442641
0.00443133
0.00443866
0.00444401
0.00445131
0.00445699
0.00429918
0.00429424
0.00429271
0.00429238
0.0042943
0.00429792
0.00430228
0.00431145
0.00431759
0.00432661
0.00433733
0.0043478
0.00435873
0.00437007
0.00438043
0.00439167
0.0044008
0.00440978
0.00441869
0.00442574
0.00443277
0.00443782
0.00444196
0.00444712
0.00445109
0.00445553
0.00446024
0.00446574
0.00447073
0.00447513
0.00447833
0.0044802
0.00448051
0.00447662
0.00446943
0.00445774
0.00444432
0.00443165
0.00442238
0.00441656
0.00441164
0.00441176
0.00441132
0.00441361
0.00441764
0.00441998
0.00442737
0.00443339
0.00444216
0.00445037
0.00445527
0.00430005
0.00429562
0.00429278
0.00429235
0.00429366
0.00429714
0.00430121
0.00431085
0.00431818
0.00432763
0.00433843
0.00434913
0.00436026
0.00437126
0.00438176
0.00439226
0.00440176
0.00441096
0.00441936
0.00442708
0.00443363
0.00443924
0.00444395
0.00444913
0.00445296
0.00445743
0.00446152
0.00446562
0.00446869
0.00447123
0.00447257
0.00447281
0.00447041
0.00446598
0.00445897
0.00444989
0.00444001
0.00443045
0.00442218
0.00441499
0.00441005
0.00440736
0.00440638
0.00440751
0.00440982
0.00441441
0.00442014
0.00442966
0.00443774
0.00444746
0.00446238
0.00430312
0.00429725
0.00429492
0.00429444
0.00429578
0.0042998
0.00430421
0.00431328
0.00432101
0.00433017
0.00434059
0.00435124
0.00436152
0.00437285
0.00438277
0.00439329
0.00440261
0.0044117
0.00441998
0.00442792
0.00443443
0.00444039
0.00444503
0.00445091
0.00445464
0.00445879
0.00446228
0.00446581
0.00446842
0.00447012
0.00447102
0.00447024
0.00446767
0.00446322
0.00445663
0.00444836
0.00443952
0.00443052
0.00442221
0.0044147
0.00440932
0.00440395
0.00440212
0.00439998
0.00440146
0.00440401
0.00440913
0.00442138
0.00443249
0.00444633
0.00445853
0.00430624
0.00430038
0.00429771
0.00429722
0.00429835
0.00430275
0.00430764
0.0043162
0.00432376
0.00433294
0.00434318
0.00435297
0.00436348
0.00437402
0.00438376
0.00439392
0.00440301
0.00441193
0.00442032
0.00442815
0.00443503
0.00444099
0.00444598
0.00445159
0.00445521
0.00445885
0.00446256
0.00446583
0.00446766
0.00446946
0.00447004
0.00446894
0.00446637
0.00446205
0.0044559
0.00444832
0.00443979
0.00443101
0.00442211
0.00441242
0.00440439
0.00439663
0.00438781
0.00438717
0.00438681
0.00438825
0.00439429
0.00440885
0.00442472
0.00444081
0.00446207
0.00430988
0.00430436
0.00430091
0.00430049
0.00430196
0.00430616
0.00431152
0.00431925
0.00432695
0.0043358
0.00434564
0.00435481
0.0043653
0.00437498
0.00438476
0.00439422
0.00440324
0.00441183
0.00442043
0.0044279
0.00443509
0.00444083
0.004446
0.00445083
0.00445509
0.00445838
0.00446181
0.0044646
0.00446634
0.00446778
0.00446833
0.00446746
0.00446531
0.00446154
0.00445597
0.00444881
0.00444086
0.00443221
0.00442264
0.0044135
0.00440592
0.00439767
0.00438903
0.00438387
0.00438352
0.00438437
0.00439113
0.00440871
0.00442616
0.00444356
0.00447521
0.00431473
0.00430876
0.00430504
0.00430458
0.00430611
0.00431018
0.00431526
0.00432256
0.0043303
0.0043387
0.00434792
0.00435719
0.00436691
0.00437612
0.00438548
0.00439442
0.00440327
0.0044118
0.00442013
0.00442731
0.00443438
0.00444012
0.00444548
0.00445015
0.00445458
0.00445797
0.00446119
0.00446365
0.00446562
0.00446657
0.00446722
0.00446647
0.00446508
0.00446185
0.00445715
0.00445105
0.00444454
0.00443707
0.00442915
0.00441987
0.00441642
0.0044111
0.00440961
0.0044148
0.00443736
0.00446754
0.00446738
0.00448179
0.0044855
0.00449276
0.00449719
0.00867328
0.00867526
0.00867814
0.00868087
0.00868439
0.00868842
0.00869296
0.00869813
0.00870364
0.00871001
0.00871623
0.00872362
0.00873056
0.00873805
0.00874575
0.00875295
0.00876055
0.00876777
0.00877502
0.00878146
0.00878813
0.00879386
0.00879977
0.00880489
0.00880997
0.00881448
0.00867401
0.00867655
0.00867976
0.00868333
0.00868732
0.00869177
0.00869641
0.00870202
0.0087072
0.0087137
0.00871947
0.00872632
0.00873299
0.00873967
0.0087464
0.00875344
0.00876005
0.00876642
0.00877281
0.00877906
0.00878482
0.00879046
0.00879583
0.00880072
0.0088055
0.00881001
0.0086747
0.00867815
0.00868182
0.00868569
0.00869027
0.00869488
0.00869986
0.00870539
0.0087109
0.0087167
0.00872278
0.00872841
0.00873502
0.00874102
0.00874702
0.00875332
0.00875905
0.00876535
0.00877061
0.00877604
0.00878142
0.00878638
0.0087914
0.00879631
0.00880085
0.00880534
0.00867552
0.00867953
0.00868353
0.00868844
0.008693
0.00869814
0.0087034
0.00870852
0.00871435
0.00871945
0.00872553
0.00873086