/*--------------------------------*- C++ -*----------------------------------*\
  =========                 |
  \\      /  F ield         | OpenFOAM: The Open Source CFD Toolbox
   \\    /   O peration     | Website:  https://openfoam.org
    \\  /    A nd           | Version:  10
     \\/     M anipulation  |
\*---------------------------------------------------------------------------*/
FoamFile
{
    format      ascii;
    class       volScalarField;
    location    "0.551757";
    object      p;
}
// * * * * * * * * * * * * * * * * * * * * * * * * * * * * * * * * * * * * * //

dimensions      [1 -1 -2 0 0 0 0];

internalField   nonuniform List<scalar> 
15708
(
2.56017
2.56981
2.5785
2.58639
2.59357
2.60014
2.60619
2.61182
2.6171
2.62212
2.62693
2.6316
2.63615
2.64064
2.64507
2.64947
2.65384
2.6582
2.66254
2.66686
2.67115
2.6754
2.67961
2.68375
2.68782
2.6918
2.69568
2.69945
2.7031
2.70663
2.71001
2.71325
2.71632
2.71922
2.72195
2.7245
2.72686
2.72904
2.73103
2.73283
2.73444
2.73586
2.73708
2.73811
2.73895
2.7396
2.74004
2.74027
2.74029
2.7401
2.73965
2.56251
2.57191
2.58036
2.58803
2.59499
2.60134
2.60719
2.61261
2.6177
2.62253
2.62714
2.6316
2.63595
2.64022
2.64443
2.64861
2.65276
2.65689
2.66101
2.6651
2.66917
2.67321
2.67721
2.68116
2.68505
2.68886
2.6926
2.69624
2.69978
2.70322
2.70653
2.70971
2.71275
2.71564
2.71837
2.72094
2.72334
2.72556
2.72761
2.72949
2.73117
2.73267
2.73398
2.73509
2.73601
2.73673
2.73723
2.73752
2.73757
2.7374
2.73696
2.56387
2.57302
2.58124
2.5887
2.59547
2.60165
2.60732
2.61258
2.61751
2.62217
2.62662
2.63092
2.6351
2.63919
2.64323
2.64723
2.6512
2.65515
2.65907
2.66298
2.66687
2.67073
2.67456
2.67834
2.68208
2.68575
2.68936
2.6929
2.69635
2.69971
2.70297
2.70611
2.70913
2.71201
2.71476
2.71736
2.7198
2.72208
2.72419
2.72613
2.7279
2.72947
2.73085
2.73204
2.73301
2.73378
2.73433
2.73465
2.73471
2.73454
2.73409
2.56429
2.5732
2.5812
2.58846
2.59505
2.60106
2.60658
2.61171
2.6165
2.62104
2.62537
2.62955
2.63361
2.63758
2.64148
2.64534
2.64917
2.65297
2.65675
2.66051
2.66425
2.66796
2.67165
2.6753
2.6789
2.68247
2.68598
2.68943
2.69281
2.69612
2.69933
2.70245
2.70546
2.70835
2.71112
2.71375
2.71624
2.71858
2.72076
2.72277
2.7246
2.72625
2.7277
2.72895
2.72998
2.73078
2.73136
2.73168
2.73174
2.73155
2.73106
2.56385
2.57249
2.58026
2.58732
2.59374
2.5996
2.60501
2.61002
2.61472
2.61917
2.62342
2.62751
2.63149
2.63537
2.63919
2.64296
2.64668
2.65038
2.65405
2.65769
2.66132
2.66492
2.66849
2.67203
2.67554
2.67902
2.68245
2.68584
2.68916
2.69243
2.69561
2.69872
2.70173
2.70464
2.70744
2.71012
2.71266
2.71506
2.71731
2.71939
2.7213
2.72301
2.72453
2.72583
2.7269
2.72774
2.72833
2.72865
2.72869
2.72846
2.72791
2.5626
2.57097
2.5785
2.58536
2.59161
2.59734
2.60264
2.60755
2.6122
2.61658
2.6208
2.62483
2.62877
2.63261
2.63637
2.64008
2.64375
2.64738
2.65098
2.65454
2.65808
2.6616
2.66509
2.66856
2.672
2.67541
2.67879
2.68212
2.6854
2.68864
2.69181
2.69491
2.69794
2.70088
2.70371
2.70644
2.70904
2.71151
2.71383
2.71599
2.71796
2.71975
2.72133
2.72269
2.7238
2.72466
2.72526
2.72557
2.72557
2.7253
2.72467
2.56063
2.5687
2.57599
2.58263
2.58871
2.59432
2.59952
2.60436
2.60896
2.61332
2.61751
2.62155
2.62547
2.62931
2.63305
2.63674
2.64039
2.64399
2.64755
2.65107
2.65456
2.65803
2.66147
2.66489
2.66828
2.67164
2.67497
2.67827
2.68153
2.68474
2.68791
2.69102
2.69407
2.69704
2.69993
2.70271
2.70538
2.70792
2.71031
2.71255
2.7146
2.71646
2.7181
2.71951
2.72067
2.72155
2.72216
2.72245
2.72242
2.72208
2.72137
2.55797
2.56574
2.57279
2.5792
2.58511
2.5906
2.59571
2.60051
2.60507
2.60943
2.61362
2.61768
2.62164
2.6255
2.62924
2.63296
2.63662
2.64023
2.64378
2.6473
2.65078
2.65423
2.65765
2.66103
2.66439
2.66772
2.67102
2.67429
2.67753
2.68074
2.68391
2.68704
2.69011
2.69312
2.69606
2.6989
2.70164
2.70426
2.70674
2.70905
2.71119
2.71313
2.71484
2.71631
2.71751
2.71843
2.71903
2.71931
2.71924
2.71885
2.71804
2.55484
2.56224
2.56897
2.57516
2.58089
2.58625
2.5913
2.59602
2.60058
2.60495
2.60918
2.61328
2.61728
2.62119
2.62501
2.62878
2.63248
2.63612
2.63971
2.64326
2.64675
2.6502
2.65361
2.65699
2.66032
2.66363
2.66692
2.67018
2.67341
2.67662
2.6798
2.68295
2.68605
2.68911
2.69209
2.695
2.69782
2.70052
2.70308
2.70549
2.70772
2.70974
2.71154
2.71308
2.71434
2.71528
2.7159
2.71617
2.71607
2.71561
2.71471
2.5512
2.55822
2.56463
2.57059
2.57613
2.58135
2.5863
2.59102
2.59556
2.59995
2.60422
2.60838
2.61246
2.61645
2.62036
2.62421
2.628
2.63172
2.63537
2.63896
2.64249
2.64596
2.64938
2.65276
2.6561
2.6594
2.66268
2.66593
2.66916
2.67237
2.67557
2.67873
2.68187
2.68497
2.68801
2.69099
2.69388
2.69667
2.69934
2.70185
2.70418
2.7063
2.70819
2.70981
2.71113
2.71213
2.71277
2.71305
2.71292
2.7124
2.71143
2.54723
2.55383
2.55991
2.5656
2.57093
2.576
2.58084
2.58551
2.59004
2.59446
2.59879
2.60303
2.60721
2.61132
2.61535
2.61932
2.62321
2.62703
2.63077
2.63443
2.63802
2.64153
2.64498
2.64837
2.65172
2.65502
2.65829
2.66154
2.66477
2.66799
2.67119
2.67438
2.67755
2.68069
2.68379
2.68684
2.68982
2.69271
2.69547
2.6981
2.70055
2.70278
2.70478
2.7065
2.70791
2.70897
2.70966
2.70995
2.7098
2.70925
2.7082
2.54296
2.54915
2.55487
2.56025
2.56536
2.57025
2.57497
2.57959
2.58411
2.58856
2.59296
2.5973
2.6016
2.60584
2.61003
2.61414
2.61817
2.6221
2.62595
2.6297
2.63336
2.63693
2.64042
2.64384
2.6472
2.65051
2.65378
2.65702
2.66024
2.66346
2.66667
2.66987
2.67306
2.67625
2.67941
2.68253
2.6856
2.68859
2.69148
2.69423
2.69681
2.69918
2.70131
2.70315
2.70467
2.70582
2.70657
2.70689
2.70675
2.70617
2.70504
2.53854
2.54424
2.54959
2.55463
2.55949
2.56419
2.56875
2.57331
2.57782
2.5823
2.58678
2.59125
2.59569
2.60009
2.60444
2.6087
2.61288
2.61696
2.62093
2.62479
2.62854
2.63219
2.63573
2.63918
2.64256
2.64587
2.64913
2.65237
2.65558
2.65878
2.66198
2.66519
2.6684
2.67162
2.67484
2.67804
2.6812
2.68431
2.68733
2.69022
2.69295
2.69548
2.69777
2.69976
2.70141
2.70267
2.70351
2.70389
2.70378
2.70318
2.70202
2.53403
2.53926
2.54416
2.54884
2.55339
2.55786
2.56229
2.56674
2.57123
2.57576
2.58033
2.58492
2.58952
2.59409
2.59861
2.60305
2.60741
2.61165
2.61578
2.61976
2.62362
2.62734
2.63094
2.63443
2.63782
2.64113
2.64438
2.64758
2.65077
2.65394
2.65712
2.66032
2.66355
2.6668
2.67006
2.67334
2.6766
2.67983
2.683
2.68605
2.68896
2.69168
2.69415
2.69631
2.69813
2.69954
2.7005
2.70097
2.70091
2.70032
2.69913
2.5295
2.53423
2.53865
2.54292
2.54713
2.55133
2.55559
2.55994
2.56441
2.56898
2.57364
2.57836
2.58312
2.58787
2.59259
2.59725
2.6018
2.60623
2.61052
2.61466
2.61863
2.62244
2.6261
2.62962
2.63301
2.63631
2.63952
2.64269
2.64582
2.64895
2.65209
2.65526
2.65848
2.66174
2.66506
2.66841
2.67178
2.67514
2.67846
2.68171
2.68482
2.68775
2.69044
2.69282
2.69484
2.69644
2.69755
2.69814
2.69816
2.69761
2.69641
2.52505
2.52921
2.53312
2.53694
2.54077
2.54469
2.54874
2.55298
2.55741
2.56201
2.56674
2.57161
2.57654
2.58151
2.58645
2.59134
2.59612
2.60076
2.60523
2.60952
2.61362
2.61753
2.62124
2.62478
2.62817
2.63143
2.63459
2.63769
2.64074
2.64379
2.64687
2.64999
2.65318
2.65644
2.65979
2.66321
2.66669
2.6702
2.67371
2.67716
2.68051
2.68369
2.68664
2.68928
2.69155
2.69337
2.69468
2.69542
2.69555
2.69507
2.69389
2.52074
2.5243
2.52765
2.53096
2.53438
2.53798
2.54179
2.54588
2.55024
2.55486
2.55969
2.5647
2.56984
2.57504
2.58023
2.58538
2.59041
2.59528
2.59997
2.60443
2.60867
2.61266
2.61642
2.61997
2.62333
2.62653
2.62961
2.6326
2.63555
2.63848
2.64146
2.6445
2.64763
2.65087
2.65424
2.65773
2.66132
2.66499
2.6687
2.6724
2.67602
2.67949
2.68275
2.68569
2.68825
2.69034
2.69189
2.69284
2.69311
2.69273
2.69161
2.51665
2.51955
2.52229
2.52505
2.528
2.53122
2.53472
2.53865
2.54294
2.54757
2.5525
2.55769
2.56305
2.56851
2.57399
2.57943
2.58474
2.58988
2.5948
2.59945
2.60382
2.60791
2.61171
2.61525
2.61855
2.62166
2.62461
2.62745
2.63024
2.63302
2.63585
2.63876
2.64181
2.645
2.64837
2.65192
2.65563
2.65947
2.66341
2.66738
2.67132
2.67513
2.67874
2.68205
2.68495
2.68737
2.68921
2.6904
2.69088
2.69062
2.68958
2.51287
2.51503
2.51708
2.51922
2.52162
2.52439
2.52759
2.5313
2.5355
2.54015
2.5452
2.55058
2.5562
2.56197
2.56778
2.57355
2.57919
2.58463
2.5898
2.59465
2.59917
2.60334
2.60716
2.61067
2.61388
2.61685
2.61963
2.62227
2.62484
2.62741
2.63004
2.63278
2.63569
2.63881
2.64215
2.64574
2.64957
2.6536
2.65779
2.66208
2.66638
2.6706
2.67463
2.67835
2.68167
2.68447
2.68665
2.68814
2.68886
2.68875
2.68784
2.50944
2.51078
2.51205
2.51348
2.51526
2.51751
2.52036
2.52382
2.52793
2.53261
2.53779
2.5434
2.54932
2.55545
2.56165
2.56781
2.57382
2.5796
2.58505
2.59013
2.59479
2.59904
2.60287
2.60631
2.60939
2.61217
2.61471
2.61709
2.61938
2.62166
2.62402
2.62652
2.62925
2.63224
2.63554
2.63916
2.64308
2.64734
2.65181
2.65647
2.66118
2.66586
2.67038
2.6746
2.67839
2.68164
2.68423
2.68607
2.68708
2.68717
2.6864
2.50641
2.50685
2.50722
2.50782
2.50889
2.51057
2.51298
2.5162
2.52019
2.52491
2.53026
2.53614
2.54243
2.54898
2.55563
2.56226
2.56871
2.57487
2.58064
2.58596
2.59079
2.59511
2.59892
2.60225
2.60514
2.60767
2.6099
2.61193
2.61385
2.61577
2.61778
2.61998
2.62245
2.62526
2.62847
2.63209
2.63614
2.64061
2.64541
2.65049
2.65565
2.66088
2.66598
2.67077
2.67513
2.6789
2.68197
2.68422
2.68555
2.6859
2.68528
2.50387
2.50322
2.50256
2.50224
2.50249
2.50348
2.50541
2.50835
2.51225
2.51702
2.52259
2.5288
2.53552
2.54258
2.54979
2.55696
2.56392
2.57053
2.57667
2.58227
2.58726
2.59164
2.5954
2.59857
2.60122
2.60342
2.60526
2.60684
2.6083
2.60974
2.61131
2.61311
2.61524
2.61781
2.62088
2.62447
2.62864
2.63334
2.63852
2.64405
2.64981
2.65565
2.66139
2.66686
2.67187
2.67626
2.67988
2.6826
2.68432
2.68496
2.6845
2.50175
2.49983
2.49802
2.49661
2.49595
2.49624
2.49756
2.50018
2.50397
2.50885
2.51466
2.52127
2.52855
2.53625
2.54413
2.55196
2.55954
2.56668
2.57325
2.57915
2.58432
2.58875
2.59242
2.59539
2.59772
2.59949
2.60083
2.60185
2.60273
2.60359
2.60459
2.60588
2.60758
2.6098
2.61268
2.61622
2.62044
2.62541
2.63104
2.63709
2.64352
2.65007
2.65657
2.66282
2.66859
2.6737
2.67796
2.68122
2.68337
2.68433
2.68405
2.49978
2.49648
2.49334
2.49071
2.48904
2.48859
2.48937
2.49162
2.49535
2.50036
2.50648
2.51354
2.52154
2.53
2.53867
2.54731
2.55564
2.5634
2.57046
2.57671
2.58208
2.58654
2.5901
2.59279
2.59471
2.59596
2.59667
2.59701
2.59716
2.5973
2.5976
2.59825
2.59939
2.60117
2.60373
2.60716
2.61151
2.61675
2.62283
2.62956
2.6367
2.64412
2.65147
2.6586
2.66526
2.67119
2.67616
2.68003
2.68267
2.68398
2.68388
2.4976
2.49284
2.48825
2.48432
2.48148
2.48022
2.48049
2.48234
2.48597
2.49124
2.49775
2.50527
2.51445
2.52394
2.53356
2.54317
2.55235
2.56082
2.56842
2.57506
2.58065
2.58514
2.58852
2.59087
2.59227
2.59289
2.59284
2.59234
2.59159
2.59084
2.5903
2.59019
2.59061
2.59179
2.59391
2.59721
2.60164
2.60735
2.61393
2.62134
2.62938
2.63767
2.64611
2.65421
2.66188
2.6687
2.67444
2.67895
2.6821
2.68375
2.68381
2.49493
2.48885
2.48246
2.47736
2.47346
2.47167
2.47138
2.47293
2.47641
2.48182
2.48844
2.49547
2.50658
2.5179
2.52883
2.53968
2.54982
2.55903
2.56724
2.57431
2.58011
2.58459
2.58776
2.58967
2.59046
2.59029
2.58935
2.58781
2.58599
2.58419
2.58265
2.58161
2.58121
2.58161
2.58298
2.58629
2.59055
2.59705
2.60411
2.61218
2.6212
2.63048
2.64006
2.64931
2.65816
2.66601
2.67256
2.67773
2.68138
2.68335
2.68352
2.491
2.48355
2.47559
2.46853
2.46369
2.46137
2.46152
2.4632
2.46738
2.47455
2.47892
2.48727
2.50104
2.51249
2.52444
2.53705
2.54819
2.55816
2.56701
2.5745
2.58048
2.58491
2.58778
2.58915
2.58922
2.58818
2.58612
2.58339
2.58029
2.57719
2.57466
2.57252
2.57101
2.5706
2.57128
2.57389
2.57853
2.58545
2.59371
2.60277
2.61258
2.62271
2.63384
2.64371
2.65391
2.66287
2.67026
2.67608
2.68022
2.68244
2.68262
2.48624
2.47735
2.46741
2.45824
2.45115
2.44686
2.44554
2.44779
2.45275
2.4596
2.46845
2.47833
2.49244
2.50817
2.52089
2.53611
2.54798
2.55848
2.56782
2.57565
2.58176
2.58602
2.58847
2.58919
2.58847
2.58635
2.58308
2.57894
2.57446
2.56991
2.56637
2.56238
2.56089
2.55904
2.55913
2.56132
2.56578
2.57146
2.57919
2.58918
2.60041
2.61262
2.62593
2.63977
2.65048
2.65942
2.66761
2.67405
2.67851
2.6808
2.68081
2.48045
2.46761
2.45498
2.44379
2.43567
2.4315
2.43135
2.43431
2.44044
2.44873
2.45901
2.47064
2.48647
2.50319
2.519
2.53576
2.54944
2.5608
2.57031
2.57813
2.58403
2.58789
2.58972
2.58961
2.58791
2.58457
2.58015
2.57436
2.56877
2.56301
2.55984
2.55183
2.54565
2.54111
2.53919
2.54024
2.5444
2.55162
2.56128
2.57289
2.58629
2.60085
2.61627
2.63143
2.64475
2.65583
2.66452
2.6714
2.67606
2.67819
2.67784
2.4729
2.45939
2.44502
2.4321
2.42274
2.41872
2.4188
2.4223
2.42989
2.44006
2.45235
2.46651
2.48332
2.50185
2.52101
2.53699
2.55262
2.5645
2.574
2.58158
2.58703
2.59025
2.59125
2.59016
2.58732
2.58257
2.57747
2.56922
2.56505
2.55427
2.54372
2.53399
2.52616
2.52109
2.518
2.51956
2.52432
2.53286
2.54422
2.55763
2.57216
2.58825
2.60541
2.62268
2.63866
2.65136
2.66078
2.66784
2.67246
2.67437
2.67347
2.46633
2.44787
2.43197
2.41932
2.41121
2.40836
2.41028
2.41569
2.42418
2.43498
2.44823
2.46415
2.48285
2.50401
2.52466
2.54213
2.55766
2.56944
2.57867
2.58571
2.59049
2.59283
2.59276
2.59046
2.58632
2.57922
2.5758
2.56379
2.55162
2.53895
2.5277
2.51677
2.50643
2.49939
2.49543
2.49606
2.50144
2.51135
2.52451
2.54038
2.55749
2.57566
2.59445
2.6134
2.63124
2.64433
2.65487
2.66276
2.66732
2.66905
2.6682
2.45865
2.44173
2.42489
2.41095
2.40216
2.39982
2.40283
2.40989
2.4205
2.43328
2.44828
2.46651
2.48752
2.51037
2.53226
2.55016
2.56437
2.57546
2.58401
2.59026
2.59407
2.59526
2.59394
2.58996
2.58702
2.5775
2.56597
2.55357
2.53987
2.52349
2.50908
2.49714
2.48811
2.48145
2.47899
2.48053
2.48688
2.49713
2.51115
2.52767
2.54436
2.56287
2.58256
2.60324
2.62123
2.63571
2.64761
2.65554
2.65994
2.66253
2.65818
2.45598
2.43809
2.42055
2.40582
2.39671
2.39502
2.39977
2.40875
2.42093
2.43585
2.45374
2.47478
2.49827
2.52191
2.54213
2.55899
2.57239
2.58236
2.58975
2.59466
2.59723
2.59727
2.59675
2.59033
2.5812
2.57106
2.55923
2.5447
2.53004
2.51621
2.5018
2.48786
2.47552
2.4665
2.46292
2.46425
2.4711
2.48128
2.49494
2.51223
2.53104
2.55026
2.57212
2.59169
2.61159
2.6264
2.63779
2.64663
2.65094
2.64788
2.64015
2.45721
2.43997
2.42293
2.40959
2.40149
2.39955
2.40445
2.41564
2.43018
2.44695
2.46714
2.49017
2.51378
2.53504
2.55445
2.56899
2.58043
2.58913
2.59541
2.59889
2.60125
2.5995
2.59426
2.58733
2.578
2.56595
2.5527
2.53955
2.52469
2.50903
2.49314
2.47867
2.46494
2.45295
2.44704
2.44796
2.45489
2.46736
2.48424
2.49733
2.516
2.54227
2.5581
2.58123
2.5987
2.6137
2.62693
2.63328
2.63377
2.62829
2.62029
2.46314
2.44828
2.43413
2.42321
2.41749
2.41724
2.42293
2.43419
2.44966
2.46834
2.48823
2.50807
2.529
2.54956
2.5653
2.57769
2.58787
2.59518
2.60176
2.60449
2.60331
2.59987
2.59403
2.58572
2.5749
2.56222
2.54973
2.53609
2.52127
2.50542
2.48834
2.46996
2.45478
2.44429
2.43933
2.44182
2.44981
2.45787
2.46967
2.48948
2.51101
2.5248
2.54799
2.56574
2.58526
2.60216
2.61006
2.61212
2.61124
2.6067
2.59946
2.47282
2.46203
2.45203
2.44395
2.44094
2.44125
2.44803
2.45883
2.47284
2.48982
2.50837
2.52791
2.54572
2.56135
2.57489
2.58605
2.59732
2.60488
2.60824
2.60895
2.60704
2.6022
2.59464
2.58498
2.57389
2.56166
2.54911
2.53535
2.5197
2.50282
2.48525
2.46764
2.453
2.4429
2.43797
2.43921
2.44448
2.45197
2.46438
2.47063
2.4941
2.51832
2.53637
2.55354
2.57176
2.58396
2.58759
2.58802
2.58697
2.58307
2.57669
2.4842
2.47556
2.468
2.46369
2.46215
2.46472
2.47204
2.48206
2.49626
2.51191
2.52813
2.54425
2.55891
2.57238
2.58717
2.59972
2.60847
2.61417
2.61685
2.61601
2.61188
2.60497
2.59623
2.58656
2.57452
2.56282
2.54979
2.53542
2.52016
2.50413
2.48741
2.47065
2.45659
2.44628
2.44131
2.44164
2.44384
2.44589
2.45572
2.478
2.49314
2.50989
2.52681
2.54197
2.55728
2.55787
2.56356
2.56294
2.56144
2.55752
2.55136
2.49655
2.49015
2.48494
2.48247
2.48267
2.48662
2.4941
2.50385
2.51628
2.53009
2.54483
2.56073
2.57577
2.58969
2.60429
2.61382
2.62377
2.62719
2.62752
2.62396
2.61753
2.60904
2.59938
2.5885
2.57709
2.56491
2.55172
2.53749
2.52256
2.50686
2.48993
2.47542
2.45883
2.44698
2.44208
2.43997
2.44208
2.45219
2.45952
2.46901
2.48683
2.50229
2.51374
2.52982
2.53021
2.53554
2.53768
2.53756
2.53567
2.53164
2.52573
2.5084
2.50395
2.50107
2.50042
2.50208
2.50657
2.51392
2.52332
2.53496
2.54928
2.56518
2.58255
2.59516
2.61072
2.62449
2.63414
2.64035
2.64153
2.63895
2.633
2.62439
2.61457
2.60517
2.59144
2.58007
2.56797
2.55476
2.54074
2.52621
2.51127
2.49611
2.48172
2.46827
2.4576
2.45092
2.44744
2.44712
2.44992
2.45881
2.47115
2.48539
2.49004
2.49375
2.50738
2.50849
2.51257
2.51367
2.51318
2.51101
2.50693
2.50125
2.51999
2.51625
2.51488
2.51552
2.51857
2.52386
2.5317
2.54293
2.55691
2.57278
2.58963
2.6097
2.62392
2.63826
2.64866
2.65588
2.65864
2.65737
2.65201
2.64342
2.63263
2.62135
2.61144
2.5962
2.58437
2.57223
2.5585
2.54469
2.53039
2.51597
2.50155
2.48767
2.47458
2.46337
2.45478
2.44957
2.44984
2.456
2.46728
2.45955
2.46581
2.47575
2.47918
2.48658
2.48905
2.49129
2.49172
2.49074
2.48826
2.48423
2.47877
2.53002
2.52896
2.53042
2.53392
2.5395
2.5473
2.55829
2.57124
2.58715
2.6053
2.62177
2.63869
2.65348
2.66575
2.67413
2.67825
2.67863
2.6747
2.66678
2.65565
2.64242
2.62888
2.61509
2.60371
2.59248
2.57729
2.56298
2.549
2.53479
2.52019
2.5058
2.49208
2.47879
2.46783
2.46217
2.46013
2.45851
2.45061
2.45019
2.45539
2.45586
2.46212
2.46436
2.46897
2.47091
2.47203
2.47195
2.4706
2.46791
2.46392
2.45864
2.54614
2.54796
2.55163
2.55755
2.56521
2.57462
2.58904
2.60229
2.61946
2.63653
2.65293
2.66838
2.68205
2.6928
2.69936
2.70167
2.70004
2.69393
2.68373
2.67033
2.65502
2.63957
2.62595
2.60719
2.59647
2.58478
2.56766
2.55359
2.53873
2.524
2.5107
2.49914
2.48809
2.47757
2.46631
2.4574
2.45038
2.44773
2.4442
2.44541
2.44642
2.44955
2.45098
2.45328
2.45436
2.45495
2.45456
2.45292
2.45015
2.44618
2.44108
2.56091
2.56523
2.57137
2.57944
2.58956
2.60134
2.61568
2.63147
2.64841
2.66556
2.68199
2.69717
2.71016
2.71983
2.72505
2.72626
2.72317
2.71541
2.70348
2.68827
2.67107
2.65335
2.63634
2.62111
2.60405
2.58933
2.57433
2.56032
2.54617
2.5319
2.5169
2.50196
2.48943
2.47754
2.46501
2.45496
2.44754
2.44177
2.43928
2.43719
2.43726
2.43776
2.43855
2.43951
2.44003
2.44016
2.43942
2.43778
2.43503
2.43114
2.42621
2.57446
2.58128
2.58977
2.6
2.61208
2.62586
2.6413
2.65807
2.67561
2.69315
2.7099
2.72512
2.73784
2.74686
2.75135
2.75195
2.74787
2.73891
2.72559
2.7088
2.68982
2.67015
2.65156
2.63072
2.61416
2.5977
2.5814
2.56595
2.55081
2.53585
2.52059
2.50557
2.49156
2.47822
2.46536
2.45339
2.44474
2.43714
2.43267
2.42919
2.42754
2.42708
2.42701
2.42729
2.42749
2.42743
2.42672
2.42514
2.42254
2.41887
2.41414
2.58707
2.59621
2.60681
2.61919
2.63314
2.64835
2.66519
2.68307
2.70139
2.71955
2.73682
2.7523
2.765
2.77378
2.77798
2.77831
2.77358
2.76376
2.74932
2.73116
2.71051
2.68882
2.66751
2.64649
2.62635
2.60791
2.59027
2.57336
2.55685
2.54066
2.5246
2.50879
2.49342
2.47865
2.46464
2.45247
2.44142
2.43262
2.42602
2.42139
2.41832
2.41698
2.41646
2.41643
2.41661
2.41666
2.41621
2.41492
2.41267
2.40939
2.40495
2.59859
2.60991
2.62263
2.63687
2.65255
2.66952
2.68769
2.70667
2.72594
2.74488
2.76273
2.77862
2.79152
2.80032
2.8045
2.80472
2.79956
2.78907
2.77367
2.75423
2.73205
2.70848
2.68525
2.6618
2.63969
2.61912
2.59969
2.58119
2.56331
2.54585
2.52865
2.51166
2.49507
2.47891
2.46388
2.45018
2.438
2.42754
2.41937
2.41318
2.40928
2.40733
2.40664
2.40663
2.40712
2.40763
2.40773
2.40709
2.40549
2.40273
2.39874
2.60907
2.62248
2.63721
2.65332
2.67073
2.68932
2.70888
2.72904
2.74933
2.76911
2.78763
2.80402
2.81725
2.82623
2.83051
2.83068
2.82521
2.81411
2.79782
2.77716
2.75354
2.72823
2.70239
2.67711
2.65306
2.63044
2.60921
2.58912
2.56984
2.55107
2.53261
2.5144
2.49651
2.47911
2.46272
2.44752
2.43374
2.42188
2.41206
2.40469
2.40009
2.39788
2.39725
2.39762
2.39875
2.40015
2.40121
2.40152
2.40084
2.39888
2.39549
2.6185
2.63395
2.65064
2.6686
2.68773
2.7079
2.72885
2.75024
2.77157
2.79223
2.81147
2.82842
2.84204
2.85121
2.85565
2.85575
2.85
2.83837
2.82119
2.79926
2.77416
2.747
2.71928
2.69201
2.66598
2.6415
2.61857
2.59695
2.57628
2.55622
2.53652
2.51705
2.49783
2.47907
2.46109
2.44424
2.42886
2.4152
2.40398
2.39537
2.39017
2.38797
2.3876
2.3888
2.39107
2.39375
2.39629
2.39801
2.39858
2.39777
2.39513
2.6269
2.64433
2.66294
2.68271
2.70355
2.72527
2.74762
2.77023
2.79262
2.81416
2.83413
2.85166
2.86568
2.87506
2.87967
2.8796
2.87347
2.86146
2.84343
2.82042
2.79378
2.76492
2.73535
2.70623
2.6784
2.65223
2.62775
2.6047
2.58271
2.5614
2.54045
2.51969
2.49908
2.47875
2.45903
2.44029
2.42302
2.40779
2.39481
2.38489
2.37932
2.37734
2.37764
2.38022
2.38421
2.38869
2.39297
2.39651
2.39867
2.39923
2.39753
2.63426
2.65361
2.67407
2.69562
2.71813
2.74139
2.7651
2.78893
2.81238
2.83478
2.85548
2.87355
2.88797
2.89772
2.90219
2.902
2.89581
2.88314
2.86439
2.84033
2.81232
2.78189
2.75067
2.71987
2.69043
2.66275
2.63688
2.61254
2.58933
2.56681
2.54461
2.52247
2.50031
2.47824
2.45655
2.4357
2.41623
2.39913
2.3841
2.37263
2.3665
2.36459
2.36582
2.37004
2.37615
2.38295
2.38939
2.39482
2.39903
2.40172
2.40195
2.64053
2.66171
2.68397
2.70724
2.73136
2.75611
2.78119
2.8062
2.83064
2.85392
2.87533
2.89396
2.90876
2.91877
2.92327
2.92304
2.91655
2.90341
2.884
2.85898
2.82974
2.79797
2.76534
2.73311
2.70228
2.6733
2.64619
2.6207
2.59637
2.57268
2.54921
2.52565
2.50187
2.4779
2.45399
2.43055
2.40842
2.38898
2.37138
2.35792
2.35098
2.34915
2.35198
2.35906
2.36867
2.37899
2.38834
2.39587
2.40166
2.40776
2.41096
2.73893
2.73793
2.73662
2.73497
2.73296
2.73055
2.72773
2.72445
2.7207
2.71645
2.71168
2.70638
2.70053
2.69412
2.68715
2.6796
2.67147
2.66277
2.65351
2.64368
2.6333
2.62238
2.61095
2.59902
2.58662
2.57378
2.73625
2.73523
2.7339
2.73223
2.73019
2.72777
2.72492
2.72164
2.7179
2.71367
2.70896
2.70373
2.69798
2.6917
2.68488
2.67751
2.6696
2.66114
2.65213
2.64259
2.63251
2.62192
2.61082
2.59924
2.58721
2.57474
2.73335
2.73229
2.73091
2.72919
2.72709
2.72461
2.72173
2.71842
2.71467
2.71046
2.70578
2.70063
2.69498
2.68884
2.6822
2.67504
2.66737
2.65919
2.65049
2.64128
2.63157
2.62136
2.61067
2.59952
2.58792
2.57591
2.73026
2.72914
2.72768
2.72588
2.7237
2.72115
2.7182
2.71484
2.71106
2.70685
2.70221
2.69712
2.69158
2.68558
2.67912
2.67219
2.66479
2.65692
2.64857
2.63974
2.63045
2.62069
2.61047
2.59982
2.58874
2.57726
2.72703
2.72582
2.72427
2.72236
2.72008
2.71742
2.71438
2.71095
2.70713
2.7029
2.69827
2.69324
2.68779
2.68194
2.67567
2.66898
2.66187
2.65433
2.64637
2.63797
2.62914
2.61988
2.6102
2.60011
2.58962
2.57875
2.7237
2.72238
2.72071
2.71867
2.71627
2.71349
2.71034
2.70681
2.70292
2.69865
2.69402
2.68902
2.68366
2.67794
2.67187
2.66542
2.65861
2.65143
2.64387
2.63594
2.62762
2.61892
2.60983
2.60037
2.59055
2.58036
2.7203
2.71886
2.71705
2.71487
2.71232
2.70939
2.70611
2.70246
2.69847
2.69414
2.68948
2.6845
2.67921
2.67362
2.66772
2.66152
2.65502
2.6482
2.64108
2.63363
2.62587
2.61777
2.60933
2.60057
2.59147
2.58205
2.71686
2.71529
2.71334
2.71099
2.70828
2.70519
2.70174
2.69795
2.69384
2.68942
2.68471
2.67972
2.67448
2.66898
2.66325
2.65729
2.65108
2.64465
2.63797
2.63104
2.62385
2.6164
2.60867
2.60066
2.59237
2.58379
2.71343
2.71172
2.7096
2.70709
2.70419
2.70092
2.69729
2.69333
2.68907
2.68453
2.67974
2.67471
2.66948
2.66407
2.65848
2.65272
2.64681
2.64075
2.63452
2.62812
2.62155
2.61478
2.60781
2.60061
2.59319
2.58552
2.71002
2.70817
2.70589
2.7032
2.7001
2.69663
2.6928
2.68864
2.6842
2.67951
2.6746
2.66951
2.66426
2.65888
2.6534
2.64784
2.6422
2.63649
2.63071
2.62486
2.61891
2.61286
2.60669
2.60037
2.59388
2.58719
2.70668
2.70469
2.70225
2.69937
2.69606
2.69237
2.68831
2.68393
2.67928
2.6744
2.66934
2.66413
2.65882
2.65345
2.64804
2.64263
2.63723
2.63186
2.62652
2.6212
2.61591
2.6106
2.60527
2.59987
2.59438
2.58876
2.70343
2.70131
2.6987
2.69563
2.69211
2.68817
2.68387
2.67924
2.67434
2.66923
2.66397
2.6586
2.65319
2.64777
2.64239
2.63709
2.63188
2.62682
2.62189
2.61711
2.61247
2.60794
2.60348
2.59907
2.59464
2.59016
2.70031
2.69807
2.6953
2.69202
2.68828
2.68409
2.67952
2.67461
2.66943
2.66405
2.65854
2.65295
2.64736
2.64184
2.63643
2.63119
2.62614
2.62133
2.61679
2.61253
2.60854
2.60479
2.60125
2.59787
2.59458
2.59132
2.69735
2.69499
2.69207
2.6886
2.68462
2.68017
2.6753
2.67009
2.6646
2.6589
2.65308
2.64721
2.64138
2.63567
2.63015
2.62489
2.61995
2.61535
2.61115
2.60738
2.60403
2.60109
2.5985
2.5962
2.59412
2.59216
2.69457
2.69213
2.68905
2.68539
2.68117
2.67644
2.67127
2.66572
2.65987
2.65381
2.64762
2.6414
2.63525
2.62926
2.62354
2.61817
2.61323
2.6088
2.60489
2.60157
2.59885
2.59672
2.59511
2.59396
2.59315
2.59261
2.69202
2.68949
2.68627
2.68242
2.67796
2.67295
2.66745
2.66154
2.65529
2.64881
2.64219
2.63554
2.62897
2.62261
2.61657
2.61098
2.60594
2.60155
2.59789
2.59498
2.59288
2.59156
2.59097
2.59102
2.59157
2.59254
2.68973
2.68711
2.68377
2.67973
2.67504
2.66972
2.66389
2.65756
2.65088
2.64391
2.63679
2.62962
2.62254
2.61567
2.60919
2.60326
2.59798
2.59351
2.58999
2.58747
2.58597
2.58546
2.58588
2.58722
2.58926
2.59184
2.6877
2.68503
2.68158
2.67735
2.67243
2.66677
2.6606
2.65382
2.64668
2.63914
2.63147
2.62366
2.61596
2.60844
2.60137
2.59496
2.58929
2.58458
2.58109
2.57889
2.57797
2.57826
2.57972
2.58248
2.58605
2.59038
2.68598
2.68326
2.67972
2.6753
2.67013
2.66417
2.65757
2.65034
2.64265
2.6345
2.62622
2.6177
2.60927
2.60096
2.59312
2.5861
2.57984
2.5747
2.57113
2.56914
2.56877
2.56974
2.57241
2.57658
2.5819
2.58813
2.68459
2.68185
2.6782
2.6736
2.66817
2.66184
2.65486
2.6471
2.63886
2.63007
2.621
2.61174
2.60268
2.5934
2.58455
2.57699
2.56985
2.56411
2.56029
2.55834
2.55845
2.56008
2.56386
2.56938
2.57644
2.58488
2.68356
2.68079
2.67703
2.67225
2.66653
2.65985
2.65241
2.64409
2.63529
2.6257
2.61602
2.60576
2.59656
2.58594
2.576
2.56804
2.5597
2.55286
2.54902
2.54697
2.54765
2.55008
2.55464
2.56146
2.57015
2.58059
2.68289
2.68008
2.6762
2.67123
2.66519
2.65813
2.65019
2.64137
2.63194
2.62156
2.61133
2.6002
2.59035
2.57792
2.56798
2.55681
2.54671
2.54006
2.53563
2.53337
2.53385
2.53714
2.54354
2.55198
2.56231
2.57714
2.68254
2.67967
2.67564
2.67046
2.66408
2.65661
2.64818
2.63889
2.62888
2.61788
2.6066
2.59541
2.58125
2.56861
2.5573
2.54517
2.53393
2.52503
2.51904
2.51642
2.51735
2.52179
2.52973
2.54013
2.55341
2.5692
2.68242
2.67946
2.67521
2.66973
2.66299
2.65507
2.64625
2.63659
2.62606
2.61378
2.60135
2.58725
2.57351
2.55875
2.54436
2.53082
2.51858
2.50899
2.50263
2.50033
2.50227
2.50807
2.51741
2.53
2.54539
2.56342
2.68235
2.67922
2.67465
2.66878
2.66157
2.65316
2.64416
2.63382
2.62199
2.60811
2.59385
2.57844
2.56263
2.5469
2.53241
2.51957
2.50725
2.49663
2.48952
2.48714
2.48976
2.49636
2.50627
2.52033
2.53788
2.55829
2.68195
2.67855
2.67355
2.66718
2.65947
2.65049
2.64029
2.62992
2.61524
2.59955
2.58377
2.56789
2.55281
2.53857
2.52407
2.50925
2.49622
2.48582
2.47866
2.47662
2.47974
2.48747
2.49915
2.51431
2.53296
2.55507
2.68081
2.67696
2.67135
2.66447
2.65634
2.64629
2.63392
2.61978
2.60427
2.58887
2.57375
2.55958
2.54572
2.53134
2.51786
2.50419
2.49052
2.47834
2.46992
2.46768
2.4714
2.48035
2.49368
2.51056
2.53099
2.55523
2.67857
2.67406
2.66727
2.65997
2.65126
2.63754
2.62215
2.60699
2.59213
2.57877
2.56579
2.55321
2.54101
2.52799
2.51452
2.50053
2.48648
2.47379
2.46511
2.46315
2.46734
2.47726
2.49239
2.51097
2.53314
2.55922
2.67499
2.66986
2.66119
2.65376
2.63902
2.62318
2.6077
2.5933
2.58066
2.56911
2.55971
2.54878
2.53705
2.52451
2.51143
2.49815
2.48515
2.4743
2.46762
2.46681
2.47168
2.48243
2.49789
2.5175
2.53978
2.56419
2.66983
2.66637
2.65314
2.63741
2.62217
2.60705
2.59317
2.58145
2.5714
2.56259
2.55337
2.54316
2.53212
2.52053
2.50876
2.4972
2.48681
2.47834
2.47397
2.47304
2.47848
2.48915
2.50403
2.52341
2.54599
2.57186
2.66378
2.65176
2.63652
2.62074
2.60536
2.59175
2.58053
2.57063
2.56251
2.55433
2.54556
2.53614
2.52614
2.51584
2.5056
2.49592
2.48732
2.48162
2.479
2.48037
2.48694
2.49803
2.51326
2.53183
2.5527
2.57538
2.64745
2.63394
2.61849
2.60296
2.58965
2.57848
2.56834
2.5597
2.55231
2.54439
2.53622
2.52769
2.51879
2.50988
2.50131
2.49356
2.48726
2.48358
2.48289
2.4855
2.49265
2.50342
2.51822
2.53589
2.55581
2.57796
2.62895
2.61535
2.60101
2.58685
2.5745
2.565
2.55488
2.54821
2.54101
2.53367
2.52614
2.51827
2.51034
2.50256
2.49537
2.48926
2.48466
2.48279
2.48339
2.48739
2.49535
2.50716
2.5228
2.54139
2.56203
2.58279
2.60942
2.5971
2.58397
2.57134
2.56081
2.55146
2.543
2.53595
2.52938
2.52255
2.5157
2.50872
2.50162
2.49456
2.48802
2.48295
2.47932
2.47865
2.48086
2.48653
2.4958
2.50877
2.52462
2.54273
2.56337
2.58363
2.58977
2.57877
2.56749
2.55676
2.54794
2.53927
2.53142
2.5239
2.51737
2.51053
2.50326
2.49502
2.48748
2.48064
2.47478
2.47178
2.46988
2.47122
2.4756
2.48328
2.49422
2.50848
2.5254
2.54366
2.5636
2.58357
2.56854
2.55843
2.54728
2.53698
2.52732
2.51859
2.51052
2.50279
2.49553
2.48794
2.48163
2.47364
2.46757
2.46165
2.45833
2.45673
2.45726
2.46063
2.46695
2.47635
2.48875
2.50394
2.52138
2.54027
2.5599
2.57968
2.54344
2.53408
2.52394
2.51385
2.5041
2.49492
2.4864
2.47852
2.47123
2.46429
2.45786
2.45169
2.44646
2.44251
2.44061
2.44053
2.44275
2.44774
2.45563
2.46649
2.48016
2.49629
2.51433
2.53361
2.55339
2.573
2.51824
2.50954
2.50016
2.49059
2.48114
2.47207
2.46356
2.45571
2.44849
2.44184
2.4358
2.43037
2.42594
2.42317
2.42231
2.42329
2.42674
2.43297
2.44211
2.45407
2.46876
2.48579
2.50455
2.52435
2.54446
2.56416
2.49419
2.48607
2.4773
2.46824
2.45918
2.45038
2.44203
2.43425
2.42707
2.42053
2.41468
2.40957
2.40556
2.40351
2.40309
2.40472
2.40889
2.41589
2.42585
2.43871
2.4543
2.4722
2.49178
2.5123
2.53297
2.55308
2.47209
2.46446
2.45619
2.44757
2.43887
2.43032
2.42209
2.41433
2.4071
2.4005
2.3946
2.38945
2.38554
2.38351
2.38315
2.38489
2.38924
2.39653
2.4069
2.42034
2.43666
2.45542
2.47594
2.49741
2.51896
2.53982
2.45226
2.44501
2.43712
2.42885
2.42042
2.41203
2.40385
2.39601
2.3886
2.38175
2.37555
2.37012
2.36574
2.36309
2.36238
2.36365
2.36756
2.37456
2.38485
2.39852
2.41541
2.43503
2.45667
2.47941
2.50225
2.5243
2.43494
2.42798
2.42039
2.41236
2.40411
2.3958
2.38756
2.37953
2.37179
2.36446
2.35767
2.35155
2.3463
2.34242
2.34074
2.3409
2.34366
2.3497
2.35931
2.37276
2.38996
2.41045
2.43344
2.45788
2.48258
2.5064
2.4203
2.41356
2.40618
2.39833
2.39017
2.38184
2.37345
2.36511
2.35687
2.34884
2.34112
2.33389
2.32737
2.32182
2.31803
2.31657
2.31743
2.32163
2.32982
2.34246
2.35961