/*--------------------------------*- C++ -*----------------------------------*\
  =========                 |
  \\      /  F ield         | OpenFOAM: The Open Source CFD Toolbox
   \\    /   O peration     | Website:  https://openfoam.org
    \\  /    A nd           | Version:  10
     \\/     M anipulation  |
\*---------------------------------------------------------------------------*/
FoamFile
{
    format      ascii;
    class       surfaceScalarField;
    location    "0.551757";
    object      phi;
}
// * * * * * * * * * * * * * * * * * * * * * * * * * * * * * * * * * * * * * //

dimensions      [1 0 -1 0 0 0 0];

internalField   nonuniform List<scalar> 
31108
(
0.000377972
-7.18864e-05
0.00037342
-6.99773e-05
0.000369299
-6.79172e-05
0.000365586
-6.57377e-05
0.000362245
-6.34643e-05
0.000359244
-6.11132e-05
0.000356548
-5.86977e-05
0.000354128
-5.62277e-05
0.000351955
-5.37118e-05
0.000349997
-5.11551e-05
0.00034824
-4.85654e-05
0.000346656
-4.59458e-05
0.000345247
-4.33017e-05
0.000343983
-4.0638e-05
0.000342874
-3.79547e-05
0.000341896
-3.52607e-05
0.000341046
-3.25511e-05
0.000340337
-2.98355e-05
0.000339737
-2.71112e-05
0.000339273
-2.43821e-05
0.000338936
-2.16514e-05
0.000338717
-1.89201e-05
0.000338623
-1.61922e-05
0.00033866
-1.34715e-05
0.000338815
-1.07619e-05
0.000339087
-8.06779e-06
0.000339473
-5.39478e-06
0.000339972
-2.74922e-06
0.000340579
-1.38514e-07
0.000341286
2.42895e-06
0.000342086
4.94583e-06
0.000342971
7.40277e-06
0.000343933
9.7902e-06
0.000344968
1.20959e-05
0.000346066
1.43078e-05
0.000347218
1.64115e-05
0.000348414
1.83937e-05
0.000349641
2.02409e-05
0.000350891
2.19352e-05
0.000352148
2.3467e-05
0.000353398
2.48193e-05
0.000354632
2.59771e-05
0.000355838
2.69328e-05
0.00035699
2.76777e-05
0.000358073
2.82078e-05
0.000359071
2.85142e-05
0.000359964
2.86058e-05
0.000360737
2.84847e-05
0.000361371
2.8162e-05
0.000361848
2.76545e-05
2.69785e-05
0.000362146
0.000380235
-6.83101e-05
0.000375772
-6.63013e-05
0.000371734
-6.41526e-05
0.000368089
-6.18909e-05
0.000364805
-5.95404e-05
0.000361846
-5.71216e-05
0.000359182
-5.4649e-05
0.000356784
-5.21327e-05
0.000354623
-4.95831e-05
0.000352676
-4.7004e-05
0.000350921
-4.4405e-05
0.000349344
-4.17869e-05
0.000347928
-3.91598e-05
0.000346664
-3.65225e-05
0.000345543
-3.38835e-05
0.000344557
-3.12424e-05
0.0003437
-2.8604e-05
0.00034297
-2.59699e-05
0.000342368
-2.33422e-05
0.000341891
-2.07227e-05
0.000341536
-1.81129e-05
0.000341304
-1.55147e-05
0.000341195
-1.29308e-05
0.000341206
-1.03636e-05
0.000341333
-7.81648e-06
0.000341574
-5.29317e-06
0.000341925
-2.79813e-06
0.000342384
-3.37389e-07
0.000342944
2.08217e-06
0.000343597
4.4534e-06
0.000344331
6.76956e-06
0.00034514
9.02247e-06
0.000346016
1.1201e-05
0.000346952
1.32944e-05
0.00034794
1.52903e-05
0.000348968
1.71761e-05
0.000350027
1.89375e-05
0.000351105
2.05634e-05
0.000352192
2.20352e-05
0.000353276
2.33441e-05
0.000354341
2.44791e-05
0.000355381
2.542e-05
0.000356383
2.61662e-05
0.000357326
2.67091e-05
0.000358204
2.70494e-05
0.000358996
2.71782e-05
0.000359691
2.71093e-05
0.000360276
2.68479e-05
0.000360732
2.64082e-05
0.000361055
2.58086e-05
2.50712e-05
0.000361218
0.000382532
-6.47471e-05
0.000378143
-6.26297e-05
0.000374171
-6.03838e-05
0.00037058
-5.80325e-05
0.000367334
-5.55983e-05
0.000364404
-5.31059e-05
0.000361758
-5.05685e-05
0.000359372
-4.80011e-05
0.000357216
-4.54097e-05
0.000355271
-4.2804e-05
0.000353511
-4.01886e-05
0.000351925
-3.75685e-05
0.000350497
-3.49513e-05
0.000349217
-3.23384e-05
0.000348081
-2.97369e-05
0.000347072
-2.71482e-05
0.000346195
-2.45763e-05
0.000345443
-2.20239e-05
0.000344816
-1.94917e-05
0.000344315
-1.69812e-05
0.000343937
-1.44932e-05
0.000343682
-1.20287e-05
0.000343547
-9.5891e-06
0.00034353
-7.17604e-06
0.000343625
-4.79151e-06
0.000343829
-2.43837e-06
0.000344138
-1.20364e-07
0.00034455
2.15686e-06
0.000345056
4.38849e-06
0.000345647
6.56899e-06
0.000346311
8.6911e-06
0.00034704
1.0747e-05
0.000347827
1.27265e-05
0.000348664
1.46182e-05
0.000349539
1.64109e-05
0.000350443
1.80925e-05
0.000351365
1.96482e-05
0.000352295
2.10684e-05
0.000353222
2.23337e-05
0.000354136
2.34357e-05
0.000355025
2.43659e-05
0.000355873
2.5108e-05
0.000356681
2.5656e-05
0.000357435
2.60062e-05
0.000358126
2.61621e-05
0.000358728
2.61177e-05
0.00035924
2.5886e-05
0.000359656
2.54778e-05
0.000359964
2.49091e-05
0.000360157
2.4203e-05
2.33759e-05
0.000360213
0.000384846
-6.11507e-05
0.000380525
-5.89277e-05
0.000376608
-5.65892e-05
0.000373055
-5.41485e-05
0.000369842
-5.1631e-05
0.00036693
-4.90648e-05
0.0003643
-4.64616e-05
0.000361918
-4.38402e-05
0.000359762
-4.12031e-05
0.00035781
-3.85671e-05
0.000356037
-3.59303e-05
0.000354436
-3.33034e-05
0.000352985
-3.06914e-05
0.00035168
-2.80986e-05
0.000350513
-2.5531e-05
0.000349475
-2.29915e-05
0.000348565
-2.04836e-05
0.000347781
-1.80117e-05
0.000347119
-1.55748e-05
0.000346581
-1.31729e-05
0.000346167
-1.08068e-05
0.000345876
-8.47634e-06
0.000345704
-6.18172e-06
0.000345645
-3.92322e-06
0.000345699
-1.70154e-06
0.000345861
4.80848e-07
0.000346122
2.62215e-06
0.000346483
4.71865e-06
0.000346931
6.7662e-06
0.000347458
8.7612e-06
0.000348048
1.06962e-05
0.000348693
1.25635e-05
0.000349388
1.43537e-05
0.000350122
1.60557e-05
0.000350887
1.76585e-05
0.000351667
1.91503e-05
0.000352454
2.05156e-05
0.000353237
2.17446e-05
0.000354003
2.28225e-05
0.000354747
2.37337e-05
0.000355461
2.44721e-05
0.00035613
2.50293e-05
0.000356752
2.53897e-05
0.000357318
2.5558e-05
0.000357819
2.55327e-05
0.00035825
2.53196e-05
0.000358599
2.49194e-05
0.000358865
2.43584e-05
0.000359044
2.36485e-05
0.000359119
2.28105e-05
2.188e-05
0.000359104
0.000387144
-5.75031e-05
0.000382892
-5.51785e-05
0.00037903
-5.27562e-05
0.000375514
-5.02294e-05
0.000372329
-4.76359e-05
0.000369431
-4.4995e-05
0.000366815
-4.23371e-05
0.000364423
-3.96482e-05
0.000362263
-3.69765e-05
0.000360295
-3.42951e-05
0.000358497
-3.16449e-05
0.000356872
-2.89967e-05
0.00035538
-2.63919e-05
0.000354042
-2.38141e-05
0.000352841
-2.12779e-05
0.000351756
-1.87838e-05
0.000350801
-1.63387e-05
0.000349977
-1.39466e-05
0.000349273
-1.16033e-05
0.000348687
-9.30991e-06
0.000348228
-7.06599e-06
0.000347892
-4.87028e-06
0.000347671
-2.72136e-06
0.000347562
-6.18251e-07
0.000347568
1.43803e-06
0.000347677
3.44933e-06
0.000347884
5.41558e-06
0.000348186
7.3335e-06
0.000348572
9.20135e-06
0.000349029
1.1016e-05
0.000349544
1.27707e-05
0.000350108
1.44581e-05
0.00035071
1.60695e-05
0.000351342
1.75944e-05
0.000351992
1.9021e-05
0.000352647
2.03385e-05
0.000353296
2.15302e-05
0.000353931
2.25848e-05
0.000354541
2.34912e-05
0.000355117
2.42288e-05
0.000355654
2.47919e-05
0.000356147
2.51738e-05
0.000356585
2.5363e-05
0.000356968
2.53541e-05
0.000357292
2.5153e-05
0.00035755
2.47705e-05
0.000357744
2.42012e-05
0.000357872
2.34754e-05
0.000357934
2.26086e-05
0.000357916
2.16221e-05
2.05585e-05
0.00035784
0.000389529
-5.37724e-05
0.000385295
-5.13556e-05
0.000381442
-4.88679e-05
0.000377961
-4.62621e-05
0.00037479
-4.36039e-05
0.000371911
-4.08917e-05
0.000369309
-3.81738e-05
0.000366893
-3.544e-05
0.000364736
-3.27163e-05
0.000362721
-3.00078e-05
0.000360912
-2.73233e-05
0.00035922
-2.46741e-05
0.00035771
-2.20679e-05
0.000356308
-1.94917e-05
0.000355062
-1.69932e-05
0.000353917
-1.45247e-05
0.000352908
-1.21542e-05
0.000352029
-9.83849e-06
0.00035127
-7.58774e-06
0.000350631
-5.40257e-06
0.000350111
-3.28125e-06
0.000349713
-1.22113e-06
0.000349434
7.78948e-07
0.000349273
2.72257e-06
0.000349223
4.61386e-06
0.000349276
6.45407e-06
0.000349427
8.24504e-06
0.000349671
9.98695e-06
0.000349995
1.1679e-05
0.000350383
1.33176e-05
0.000350822
1.48994e-05
0.000351302
1.64163e-05
0.000351812
1.78608e-05
0.00035234
1.9222e-05
0.000352875
2.0488e-05
0.000353404
2.16467e-05
0.000353913
2.26843e-05
0.000354396
2.35824e-05
0.000354849
2.43312e-05
0.000355257
2.49169e-05
0.000355618
2.53203e-05
0.00035593
2.55391e-05
0.000356184
2.55674e-05
0.000356383
2.53915e-05
0.000356532
2.5021e-05
0.000356621
2.4462e-05
0.000356663
2.37231e-05
0.000356661
2.28202e-05
0.000356612
2.17799e-05
0.000356516
2.06251e-05
1.93978e-05
0.000356383
0.00039188
-4.98784e-05
0.000387642
-4.74562e-05
0.000383815
-4.4909e-05
0.000380363
-4.22525e-05
0.000377196
-3.95209e-05
0.000374324
-3.67654e-05
0.000371728
-3.39869e-05
0.000369317
-3.12179e-05
0.000367131
-2.84402e-05
0.000365091
-2.57027e-05
0.000363219
-2.29865e-05
0.000361487
-2.03233e-05
0.000359951
-1.76941e-05
0.000358525
-1.51682e-05
0.000357265
-1.26436e-05
0.000356033
-1.02623e-05
0.000354965
-7.93804e-06
0.000353994
-5.68924e-06
0.000353151
-3.53087e-06
0.000352423
-1.45433e-06
0.000351819
5.41314e-07
0.000351345
2.46034e-06
0.000350994
4.30888e-06
0.000350768
6.08943e-06
0.000350658
7.81384e-06
0.000350655
9.48112e-06
0.000350753
1.10962e-05
0.00035094
1.26638e-05
0.000351203
1.41822e-05
0.000351524
1.56511e-05
0.00035189
1.70671e-05
0.000352289
1.84233e-05
0.00035271
1.97133e-05
0.000353137
2.09255e-05
0.000353559
2.20476e-05
0.000353962
2.30661e-05
0.000354334
2.39668e-05
0.000354664
2.47302e-05
0.000354949
2.53419e-05
0.000355184
2.57898e-05
0.00035536
2.60556e-05
0.000355485
2.6126e-05
0.000355556
2.59995e-05
0.000355568
2.56705e-05
0.000355537
2.51312e-05
0.000355461
2.43974e-05
0.000355347
2.34792e-05
0.000355214
2.23905e-05
0.000355056
2.11584e-05
0.000354882
1.9811e-05
1.83881e-05
0.000354704
0.000394043
-4.59399e-05
0.00039008
-4.34349e-05
0.000386355
-4.08264e-05
0.00038283
-3.81381e-05
0.000379619
-3.5377e-05
0.00037675
-3.2593e-05
0.000374119
-2.97875e-05
0.000371723
-2.69564e-05
0.000369494
-2.41674e-05
0.00036743
-2.13765e-05
0.000365523
-1.86373e-05
0.000363788
-1.594e-05
0.000362161
-1.33251e-05
0.000360704
-1.07609e-05
0.000359267
-8.32567e-06
0.000357998
-5.9488e-06
0.000356812
-3.67155e-06
0.000355749
-1.50154e-06
0.000354827
5.63377e-07
0.000354036
2.52482e-06
0.000353369
4.39015e-06
0.000352817
6.16515e-06
0.000352383
7.85833e-06
0.000352079
9.47528e-06
0.000351904
1.10267e-05
0.000351843
1.25182e-05
0.000351884
1.3957e-05
0.000352015
1.53487e-05
0.000352217
1.66962e-05
0.000352472
1.79999e-05
0.000352767
1.92575e-05
0.000353089
2.04642e-05
0.000353421
2.16122e-05
0.000353752
2.2691e-05
0.000354064
2.36883e-05
0.00035434
2.45863e-05
0.000354573
2.53697e-05
0.000354748
2.60219e-05
0.000354868
2.65191e-05
0.000354928
2.68478e-05
0.00035492
2.6993e-05
0.000354846
2.69356e-05
0.000354718
2.66674e-05
0.000354541
2.61889e-05
0.00035432
2.54885e-05
0.000354067
2.45776e-05
0.000353795
2.34747e-05
0.000353524
2.21838e-05
0.000353251
2.07408e-05
0.000353006
1.9177e-05
1.75294e-05
0.000352784
0.000396354
-4.17337e-05
0.000392165
-3.92442e-05
0.000388434
-3.66524e-05
0.000385048
-3.39598e-05
0.000381996
-3.12119e-05
0.000379193
-2.84045e-05
0.000376618
-2.55504e-05
0.000374175
-2.27122e-05
0.000371944
-1.98613e-05
0.000369832
-1.70502e-05
0.000367876
-1.42682e-05
0.000366038
-1.15564e-05
0.000364317
-8.91517e-06
0.000362708
-6.36604e-06
0.000361198
-3.91945e-06
0.000359801
-1.58649e-06
0.000358537
6.27514e-07
0.000357393
2.71991e-06
0.000356371
4.68713e-06
0.000355471
6.5338e-06
0.000354703
8.26658e-06
0.000354073
9.89239e-06
0.000353578
1.14239e-05
0.000353211
1.28693e-05
0.000352968
1.42429e-05
0.000352841
1.55535e-05
0.00035282
1.68124e-05
0.000352891
1.80271e-05
0.000353033
1.92043e-05
0.00035323
2.03467e-05
0.000353464
2.14534e-05
0.000353718
2.2521e-05
0.000353974
2.35414e-05
0.000354215
2.45039e-05
0.000354421
2.5395e-05
0.000354575
2.61958e-05
0.000354669
2.68867e-05
0.000354694
2.74476e-05
0.00035464
2.78584e-05
0.00035451
2.80922e-05
0.000354308
2.8134e-05
0.000354034
2.79686e-05
0.000353699
2.75759e-05
0.000353316
2.69528e-05
0.000352891
2.61005e-05
0.000352455
2.50106e-05
0.000352009
2.37117e-05
0.00035159
2.22071e-05
0.000351199
2.0532e-05
0.000350872
1.87232e-05
1.68115e-05
0.000350603
0.000398524
-3.73821e-05
0.000394486
-3.4931e-05
0.000390852
-3.23713e-05
0.00038753
-2.97228e-05
0.000384529
-2.69679e-05
0.00038167
-2.41547e-05
0.000378992
-2.12902e-05
0.000376511
-1.84199e-05
0.000374213
-1.55398e-05
0.000372073
-1.26945e-05
0.000370081
-9.88204e-06
0.000368189
-7.14305e-06
0.000366379
-4.4813e-06
0.000364684
-1.93269e-06
0.000363066
5.16001e-07
0.000361555
2.8151e-06
0.000360173
4.96718e-06
0.000358907
6.98566e-06
0.000357766
8.85277e-06
0.000356755
1.0579e-05
0.000355886
1.21727e-05
0.000355155
1.36415e-05
0.000354562
1.50026e-05
0.000354115
1.62675e-05
0.000353806
1.74534e-05
0.000353622
1.85751e-05
0.000353549
1.96473e-05
0.000353568
2.06818e-05
0.000353666
2.1688e-05
0.000353818
2.2672e-05
0.000354002
2.36348e-05
0.000354203
2.45735e-05
0.000354392
2.54815e-05
0.000354546
2.63465e-05
0.000354655
2.71523e-05
0.000354696
2.78809e-05
0.000354652
2.8506e-05
0.000354519
2.9005e-05
0.000354297
2.93514e-05
0.000353977
2.95212e-05
0.000353565
2.94858e-05
0.000353076
2.92273e-05
0.000352515
2.87313e-05
0.000351906
2.79771e-05
0.000351267
2.6972e-05
0.000350622
2.5708e-05
0.000349988
2.42037e-05
0.000349404
2.24709e-05
0.000348881
2.05418e-05
0.000348457
1.84594e-05
1.62488e-05
0.000348149
0.000400829
-3.27864e-05
0.000396736
-3.04378e-05
0.000393012
-2.79514e-05
0.000389669
-2.53583e-05
0.000386597
-2.26625e-05
0.00038382
-1.98659e-05
0.000381229
-1.70162e-05
0.000378831
-1.41212e-05
0.000376556
-1.12208e-05
0.000374403
-8.32747e-06
0.000372331
-5.48076e-06
0.000370341
-2.69561e-06
0.00036841
-8.37613e-09
0.000366581
2.55362e-06
0.00036485
4.98081e-06
0.000363271
7.25274e-06
0.000361767
9.36644e-06
0.000360355
1.13022e-05
0.000359051
1.30704e-05
0.000357899
1.46714e-05
0.0003569
1.61162e-05
0.000356054
1.74144e-05
0.000355363
1.8594e-05
0.00035483
1.96646e-05
0.000354442
2.06511e-05
0.000354195
2.15722e-05
0.000354071
2.24486e-05
0.000354054
2.32954e-05
0.000354119
2.41281e-05
0.000354241
2.49543e-05
0.000354393
2.57791e-05
0.00035455
2.65998e-05
0.000354689
2.74103e-05
0.00035478
2.81978e-05
0.000354799
2.89439e-05
0.000354732
2.96252e-05
0.00035456
3.02159e-05
0.000354276
3.06842e-05
0.00035387
3.09997e-05
0.000353352
3.1131e-05
0.000352726
3.10496e-05
0.000352002
3.0726e-05
0.000351205
3.01387e-05
0.000350347
2.92763e-05
0.000349469
2.81215e-05
0.000348591
2.66859e-05
0.000347751
2.49648e-05
0.000346983
2.29915e-05
0.000346315
2.07844e-05
0.000345765
1.83852e-05
1.58539e-05
0.000345401
0.000402616
-2.79824e-05
0.000398639
-2.57749e-05
0.000395054
-2.34344e-05
0.000391835
-2.09483e-05
0.00038887
-1.83166e-05
0.000386137
-1.5576e-05
0.000383556
-1.27176e-05
0.000381142
-9.81917e-06
0.000378855
-6.88276e-06
0.000376635
-3.9475e-06
0.00037451
-1.04744e-06
0.000372449
1.77968e-06
0.000370442
4.50279e-06
0.000368497
7.09188e-06
0.00036662
9.5221e-06
0.000364812
1.17725e-05
0.000363118
1.38353e-05
0.000361545
1.56927e-05
0.000360105
1.73521e-05
0.000358815
1.88183e-05
0.000357685
2.01016e-05
0.000356719
2.12198e-05
0.000355922
2.21975e-05
0.000355307
2.30579e-05
0.000354863
2.38277e-05
0.000354569
2.45324e-05
0.000354409
2.5199e-05
0.000354365
2.58489e-05
0.000354413
2.65009e-05
0.00035452
2.71693e-05
0.000354658
2.78599e-05
0.000354791
2.85734e-05
0.000354894
2.93032e-05
0.000354937
3.00344e-05
0.000354888
3.07461e-05
0.000354722
3.1412e-05
0.000354427
3.20001e-05
0.000353991
3.24749e-05
0.000353408
3.27973e-05
0.00035268
3.29275e-05
0.000351823
3.28297e-05
0.000350853
3.24713e-05
0.000349788
3.18217e-05
0.000348666
3.08593e-05
0.000347516
2.9575e-05
0.000346381
2.79611e-05
0.000345294
2.60258e-05
0.000344309
2.3792e-05
0.000343461
2.12802e-05
0.000342784
1.85416e-05
1.56197e-05
0.000342321
0.000404517
-2.30046e-05
0.000400484
-2.09803e-05
0.000397059
-1.88192e-05
0.000393949
-1.64652e-05
0.000391066
-1.39403e-05
0.000388377
-1.12425e-05
0.000385805
-8.43719e-06
0.000383398
-5.51771e-06
0.000381093
-2.54163e-06
0.000378867
4.48074e-07
0.000376673
3.40724e-06
0.000374532
6.29682e-06
0.00037241
9.06854e-06
0.000370323
1.17008e-05
0.000368283
1.41447e-05
0.000366314
1.63836e-05
0.000364438
1.83981e-05
0.000362672
2.01775e-05
0.00036105
2.17228e-05
0.000359589
2.30421e-05
0.000358291
2.41491e-05
0.000357179
2.50664e-05
0.000356273
2.5822e-05
0.000355572
2.64481e-05
0.000355056
2.69778e-05
0.000354713
2.74443e-05
0.000354527
2.78819e-05
0.000354473
2.83195e-05
0.000354524
2.87816e-05
0.000354646
2.92873e-05
0.000354802
2.98468e-05
0.000354952
3.04626e-05
0.000355051
3.11281e-05
0.000355053
3.1827e-05
0.000354933
3.25341e-05
0.000354681
3.32201e-05
0.000354277
3.38459e-05
0.000353701
3.43676e-05
0.000352942
3.47379e-05
0.000352004
3.49101e-05
0.000350901
3.48376e-05
0.000349657
3.44773e-05
0.000348304
3.37936e-05
0.000346879
3.27594e-05
0.000345428
3.13523e-05
0.000343995
2.95689e-05
0.000342631
2.74131e-05
0.000341392
2.49015e-05
0.000340324
2.20616e-05
0.000339465
1.89368e-05
1.55988e-05
0.00033889
0.000406078
-1.77596e-05
0.000402277
-1.60324e-05
0.000398815
-1.41124e-05
0.000395712
-1.19449e-05
0.000392905
-9.55339e-06
0.00039036
-6.94355e-06
0.000387951
-4.16218e-06
0.000385644
-1.23823e-06
0.000383381
1.78546e-06
0.000381147
4.84468e-06
0.000378895
7.88732e-06
0.000376645
1.08617e-05
0.000374396
1.37162e-05
0.000372132
1.64036e-05
0.000369908
1.88799e-05
0.000367733
2.11163e-05
0.000365631
2.30877e-05
0.000363655
2.47867e-05
0.000361818
2.62088e-05
0.00036015
2.73658e-05
0.000358678
2.82761e-05
0.000357419
2.89674e-05
0.000356384
2.94745e-05
0.00035558
2.98365e-05
0.000354997
3.00953e-05
0.000354622
3.02957e-05
0.000354432
3.04786e-05
0.000354395
3.06828e-05
0.000354474
3.094e-05
0.000354633
3.12752e-05
0.000354832
3.1704e-05
0.000355019
3.22304e-05
0.000355137
3.28486e-05
0.000355137
3.35412e-05
0.000354996
3.42791e-05
0.000354694
3.50251e-05
0.000354192
3.57327e-05
0.00035347
3.63495e-05
0.000352522
3.68194e-05
0.000351354
3.70828e-05
0.000349988
3.70816e-05
0.000348448
3.67642e-05
0.000346769
3.60835e-05
0.000345006
3.50006e-05
0.000343207
3.34942e-05
0.000341433
3.15473e-05
0.000339745
2.91645e-05
0.000338203
2.63609e-05
0.000336874
2.31656e-05
0.000335809
1.96237e-05
1.57997e-05
0.000335067
0.000407056
-1.23902e-05
0.000403368
-1.10022e-05
0.00040016
-9.37609e-06
0.000397343
-7.44811e-06
0.000394799
-5.23006e-06
0.000392412
-2.70213e-06
0.00039015
4.76342e-08
0.000387915
2.9885e-06
0.000385694
6.08289e-06
0.00038343
9.24194e-06
0.000381133
1.24026e-05
0.00037879
1.54945e-05
0.000376383
1.84567e-05
0.000373949
2.12275e-05
0.000371506
2.37555e-05
0.000369081
2.60035e-05
0.000366733
2.79406e-05
0.0003645
2.95573e-05
0.000362401
3.0847e-05
0.000360503
3.18247e-05
0.000358823
3.25126e-05
0.000357392
3.29455e-05
0.000356225
3.31676e-05
0.000355313
3.32273e-05
0.000354664
3.31759e-05
0.000354263
3.30726e-05
0.000354084
3.29665e-05
0.000354091
3.29086e-05
0.000354239
3.29398e-05
0.000354482
3.30922e-05
0.000354763
3.33879e-05
0.000355021
3.38325e-05
0.000355204
3.44222e-05
0.000355258
3.51374e-05
0.00035513
3.59429e-05
0.000354777
3.67957e-05
0.000354175
3.76383e-05
0.000353316
3.84092e-05
0.000352189
3.90366e-05
0.000350788
3.94506e-05
0.000349134
3.95791e-05
0.000347262
3.93554e-05
0.000345221
3.87206e-05
0.000343066
3.76279e-05
0.000340864
3.60419e-05
0.000338686
3.39454e-05
0.000336606
3.13337e-05
0.000334702
2.82241e-05
0.000333055
2.46436e-05
0.000331717
2.06418e-05
1.62858e-05
0.000330782
0.000407651
-6.92072e-06
0.000404282
-5.98338e-06
0.000401366
-4.71074e-06
0.000398818
-3.04158e-06
0.000396567
-1.00563e-06
0.000394431
1.38302e-06
0.000392325
4.1226e-06
0.000390177
7.13049e-06
0.000388026
1.0332e-05
0.000385851
1.36292e-05
0.000383534
1.69438e-05
0.000381045
2.02083e-05
0.000378433
2.33194e-05
0.000375739
2.62121e-05
0.000373019
2.88218e-05
0.00037032
3.10989e-05
0.000367693
3.30075e-05
0.000365175
3.45352e-05
0.00036281
3.56787e-05
0.000360648
3.64535e-05
0.000358729
3.68879e-05
0.000357093
3.70255e-05
0.000355762
3.69173e-05
0.000354745
3.66258e-05
0.000354036
3.62168e-05
0.000353624
3.57602e-05
0.00035348
3.5322e-05
0.000353559
3.49638e-05
0.000353812
3.47395e-05
0.000354181
3.46922e-05
0.000354593
3.48462e-05
0.000354981
3.52157e-05
0.000355278
3.57957e-05
0.00035541
3.65646e-05
0.000355327
3.74833e-05
0.000354976
3.84954e-05
0.000354324
3.95357e-05
0.000353337
4.05281e-05
0.000352002
4.1386e-05
0.000350344
4.20216e-05
0.000348374
4.23484e-05
0.00034613
4.22821e-05
0.000343677
4.1749e-05
0.000341079
4.06895e-05
0.000338412
3.90561e-05
0.000335767
3.68242e-05
0.000333231
3.39866e-05
0.000330896
3.05564e-05
0.00032885
2.65642e-05
0.000327166
2.20532e-05
1.70976e-05
0.00032594
0.000407522
-1.55102e-06
0.000404605
-1.0943e-06
0.000402101
-2.41612e-07
0.000399856
1.09573e-06
0.000397907
2.95121e-06
0.00039611
5.27249e-06
0.00039433
8.02458e-06
0.000392472
1.11257e-05
0.000390464
1.44608e-05
0.000388297
1.79682e-05
0.000385891
2.15209e-05
0.000383292
2.50051e-05
0.000380536
2.83245e-05
0.000377664
3.1387e-05
0.000374709
3.41149e-05
0.000371677
3.64484e-05
0.000368649
3.83433e-05
0.000365734
3.97826e-05
0.000362993
4.07642e-05
0.000360499
4.13072e-05
0.000358307
4.14494e-05
0.000356445
4.12409e-05
0.000354939
4.07461e-05
0.000353809
4.00434e-05
0.000353048
3.92138e-05
0.000352648
3.83435e-05
0.000352571
3.75157e-05
0.000352767
3.68085e-05
0.000353181
3.62912e-05
0.00035373
3.60148e-05
0.000354337
3.60172e-05
0.000354912
3.63156e-05
0.000355377
3.69059e-05
0.000355656
3.77643e-05
0.000355664
3.88451e-05
0.000355342
4.00822e-05
0.000354648
4.1393e-05
0.000353548
4.26863e-05
0.000352025
4.38619e-05
0.000350092
4.48053e-05
0.000347772
4.54158e-05
0.000345113
4.55842e-05
0.000342184
4.52206e-05
0.000339066
4.42479e-05
0.000335851
4.26074e-05
0.000332643
4.02629e-05
0.000329557
3.72026e-05
0.000326702
3.34385e-05
0.000324178
2.9003e-05
0.00032208
2.39396e-05
1.83203e-05
0.000320513
0.000406132
3.39073e-06
0.000403798
3.30996e-06
0.000401931
3.76069e-06
0.000400408
4.80602e-06
0.000399123
6.48761e-06
0.00039786
8.77642e-06
0.000396421
1.15984e-05
0.000394816
1.48634e-05
0.000392949
1.84614e-05
0.000390835
2.22506e-05
0.000388412
2.61145e-05
0.0003857
2.99076e-05
0.000382729
3.35082e-05
0.000379546
3.68002e-05
0.00037621
3.96924e-05
0.000372802
4.21079e-05
0.000369404
4.40085e-05
0.000366095
4.53593e-05
0.000362968
4.61659e-05
0.000360111
4.64466e-05
0.00035759
4.6249e-05
0.000355447
4.56344e-05
0.000353735
4.46853e-05
0.000352475
4.34944e-05
0.000351674
4.21643e-05
0.000351306
4.08028e-05
0.000351328
3.95135e-05
0.000351693
3.83931e-05
0.000352319
3.75324e-05
0.000353117
3.69911e-05
0.000353991
3.68242e-05
0.000354831
3.70527e-05
0.00035554
3.76755e-05
0.000356024
3.86641e-05
0.000356186
3.99642e-05
0.000355946
4.15032e-05
0.000355239
4.31723e-05
0.000354037
4.48614e-05
0.000352322
4.64589e-05
0.000350098
4.78126e-05
0.000347385
4.88117e-05
0.00034425
4.93109e-05
0.000340774
4.91991e-05
0.000337052
4.83818e-05
0.000333199
4.67831e-05
0.000329332
4.4357e-05
0.000325588
4.10843e-05
0.000322103
3.69734e-05
0.000318996
3.20593e-05
0.000316382
2.63978e-05
2.0045e-05
0.000314377
0.000402599
7.36991e-06
0.000401443
6.80589e-06
0.00040067
6.88667e-06
0.000400109
7.70951e-06
0.000399636
9.30638e-06
0.000399094
1.16638e-05
0.000398306
1.46707e-05
0.00039718
1.82395e-05
0.000395622
2.2199e-05
0.000393613
2.64064e-05
0.00039119
3.07057e-05
0.000388351
3.49207e-05
0.00038512
3.89027e-05
0.00038158
4.25127e-05
0.000377805
4.56376e-05
0.000373928
4.81803e-05
0.000370056
5.01007e-05
0.000366266
5.13598e-05
0.000362678
5.19656e-05
0.000359379
5.19458e-05
0.000356466
5.13499e-05
0.000354013
5.02589e-05
0.000352069
4.87682e-05
0.000350664
4.69947e-05
0.000349811
4.50656e-05
0.000349495
4.31143e-05
0.000349667
4.12693e-05
0.000350266
3.96577e-05
0.000351186
3.8384e-05
0.00035232
3.75347e-05
0.000353551
3.71726e-05
0.000354752
3.73316e-05
0.000355804
3.80087e-05
0.000356571
3.91744e-05
0.000356962
4.07652e-05
0.000356853
4.26843e-05
0.000356178
4.48418e-05
0.000354894
4.70203e-05
0.00035297
4.91838e-05
0.000350438
5.10511e-05
0.000347298
5.25758e-05
0.000343619
5.35212e-05
0.000339501
5.37609e-05
0.00033507
5.31869e-05
0.000330465
5.16934e-05
0.000325835
4.92238e-05
0.000321326
4.57494e-05
0.000317086
4.12796e-05
0.000313271
3.58562e-05
0.00031002
2.95363e-05
2.23768e-05
0.000307445
0.000396302
9.70102e-06
0.000396963
8.74917e-06
0.000397847
8.5898e-06
0.000398706
9.35165e-06
0.000399452
1.10363e-05
0.000399912
1.36001e-05
0.000399962
1.69938e-05
0.000399435
2.10342e-05
0.000398351
2.55493e-05
0.000396613
3.03456e-05
0.000394197
3.52546e-05
0.000391202
4.00513e-05
0.000387732
4.45462e-05
0.000383864
4.85795e-05
0.000379639
5.20159e-05
0.000375189
5.47474e-05
0.000370684
5.67183e-05
0.000366254
5.78913e-05
0.000362073
5.82726e-05
0.000358249
5.78999e-05
0.000354881
5.68347e-05
0.000352056
5.51746e-05
0.000349834
5.3037e-05
0.000348271
5.05653e-05
0.000347382
4.79163e-05
0.000347144
4.52541e-05
0.000347514
4.27384e-05
0.000348414
4.05321e-05
0.00034972
3.87603e-05
0.000351303
3.75396e-05
0.000353018
3.69499e-05
0.0003547
3.70306e-05
0.000356195
3.77888e-05
0.000357363
3.91883e-05
0.000358033
4.11492e-05
0.000358191
4.35604e-05
0.000357549
4.62855e-05
0.000356257
4.91594e-05
0.000354117
5.198e-05
0.000351217
5.45926e-05
0.000347587
5.67527e-05
0.000343282
5.83053e-05
0.000338439
5.90007e-05
0.000333182
5.87771e-05
0.000327689
5.74653e-05
0.000322127
5.49992e-05
0.000316672
5.13446e-05
0.000311506
4.65038e-05
0.000306831
4.05247e-05
0.0003028
3.34961e-05
2.54516e-05
0.000299552
0.000386692
9.59011e-06
0.000389743
8.445e-06
0.000392821
8.26592e-06
0.000395691
9.18112e-06
0.000398179
1.11617e-05
0.000400083
1.42345e-05
0.00040126
1.82462e-05
0.000401673
2.29935e-05
0.000401202
2.82948e-05
0.000399833
3.39663e-05
0.000397588
3.96949e-05
0.000394466
4.52915e-05
0.000390609
5.04835e-05
0.000386194
5.5083e-05
0.000381356
5.89345e-05
0.000376267
6.19213e-05
0.00037109
6.39793e-05
0.000365977
6.50717e-05
0.000361094
6.52076e-05
0.00035661
6.44258e-05
0.000352673
6.28079e-05
0.0003494
6.04662e-05
0.000346881
5.75493e-05
0.000345167
5.42319e-05
0.000344276
5.07074e-05
0.000344171
4.71803e-05
0.000344811
4.38483e-05
0.000346099
4.09159e-05
0.000347899
3.85413e-05
0.000350054
3.68714e-05
0.000352374
3.6007e-05
0.000354666
3.60047e-05
0.000356751
3.68742e-05
0.000358438
3.85709e-05
0.000359532
4.10018e-05
0.000359928
4.40516e-05
0.000359491
4.75008e-05
0.000358081
5.12303e-05
0.000355775
5.48966e-05
0.000352546
5.84046e-05
0.000348309
6.13641e-05
0.000343291
6.36891e-05
0.000337563
6.50591e-05
0.00033133
6.5295e-05
0.000324766
6.42589e-05
0.000318105
6.18516e-05
0.000311552
5.80416e-05
0.000305311
5.28277e-05
0.0002996
4.62569e-05
0.000294625
3.84347e-05
2.94347e-05
0.000290526
0.00037401
6.33702e-06
0.00038003
5.29586e-06
0.00038586
5.32523e-06
0.000391178
6.66063e-06
0.000395734
9.28522e-06
0.000399483
1.30711e-05
0.000402187
1.80117e-05
0.000403686
2.38449e-05
0.000404032
3.02912e-05
0.000403134
3.70831e-05
0.000401039
4.39798e-05
0.000397841
5.06425e-05
0.000393659
5.67569e-05
0.00038869
6.21059e-05
0.000383129
6.65165e-05
0.000377219
6.98442e-05
0.00037119
7.20285e-05
0.000365232
7.30418e-05
0.000359545
7.29002e-05
0.000354313
7.16438e-05
0.000349719
6.93692e-05
0.000345911
6.62113e-05
0.000343007
6.23519e-05
0.000341081
5.80076e-05
0.000340165
5.34169e-05
0.000340239
4.88343e-05
0.000341252
4.45097e-05
0.000343061
4.06866e-05
0.00034552
3.75783e-05
0.000348427
3.53635e-05
0.000351549
3.41707e-05
0.000354654
3.40738e-05
0.000357497
3.50939e-05
0.000359809
3.71864e-05
0.000361467
4.02141e-05
0.00036218
4.40497e-05
0.000361879
4.84646e-05
0.000360489
5.32045e-05
0.000357855
5.79882e-05
0.00035407
6.2569e-05
0.000349199
6.6595e-05
0.000343313
6.98632e-05
0.000336577
7.20441e-05
0.000329194
7.29038e-05
0.000321382
7.22517e-05
0.000313416
6.99743e-05
0.000305544
6.60442e-05
0.000298011
6.04542e-05
0.000291071
5.3259e-05
0.000284968
4.45463e-05
3.44914e-05
0.000279846
0.000358152
-3.70744e-07
0.000367558
-1.23528e-06
0.000376571
-7.8386e-07
0.000384769
1.31993e-06
0.000391939
4.87407e-06
0.000397812
9.86704e-06
0.000402271
1.60772e-05
0.000405264
2.32753e-05
0.00040656
3.12398e-05
0.000406214
3.96448e-05
0.000404365
4.80428e-05
0.000400983
5.6155e-05
0.000396337
6.34404e-05
0.000390656
6.97769e-05
0.000384206
7.49179e-05
0.00037729
7.86873e-05
0.000370232
8.10317e-05
0.000363273
8.19576e-05
0.000356628
8.14912e-05
0.000350536
7.96703e-05
0.000345218
7.66065e-05
0.000340854
7.24596e-05
0.0003376
6.74561e-05
0.000335545
6.18654e-05
0.000334731
5.59764e-05
0.000335136
5.01047e-05
0.000336678
4.45655e-05
0.000339204
3.96655e-05
0.00034253
3.5668e-05
0.000346386
3.27996e-05
0.000350504
3.12161e-05
0.000354584
3.10347e-05
0.000358329
3.2298e-05
0.000361373
3.49162e-05
0.000363566
3.87731e-05
0.000364597
4.36446e-05
0.000364307
4.92366e-05
0.00036265
5.52722e-05
0.000359587
6.14109e-05
0.000355138
6.72634e-05
0.000349245
7.26712e-05
0.000342198
7.70838e-05
0.000334174
8.02465e-05
0.000325387
8.18505e-05
0.000316098
8.16779e-05
0.00030663
7.95848e-05
0.000297236
7.55548e-05
0.000288205
6.95679e-05
0.000279841
6.16872e-05
0.000272402
5.20148e-05
4.07541e-05
0.000266117
0.000339585
-1.09916e-05
0.000352704
-1.1491e-05
0.000365254
-1.03223e-05
0.000376448
-6.98558e-06
0.000386246
-2.12537e-06
0.000394268
4.51831e-06
0.0004004
1.2465e-05
0.00040468
2.1366e-05
0.00040693
3.12561e-05
0.000407128
4.15827e-05
0.000405344
5.18785e-05
0.000401644
6.19386e-05
0.000396613
7.04951e-05
0.000390246
7.81146e-05
0.000382872
8.42214e-05
0.000374935
8.853e-05
0.000366784
9.10671e-05
0.000358727
9.18978e-05
0.000351075
9.10429e-05
0.000344104
8.85379e-05
0.000338079
8.45101e-05
0.000333229
7.91668e-05
0.000329733
7.27716e-05
0.000327698
6.56584e-05
0.000327156
5.81915e-05
0.000328098
5.0757e-05
0.000330418
4.37465e-05
0.000333943
3.75658e-05
0.00033842
3.25236e-05
0.000343514
2.89017e-05
0.000348898
2.69243e-05
0.000354121
2.67603e-05
0.000358752
2.84613e-05
0.000362439
3.18782e-05
0.00036483
3.69275e-05
0.000365843
4.31398e-05
0.000365137
5.02968e-05
0.000362834
5.79391e-05
0.000358812
6.56668e-05
0.000353136
7.31878e-05
0.000346022
7.99544e-05
0.000337491
8.58817e-05
0.000327664
9.01421e-05
0.000317123
9.25075e-05
0.0003061
9.28081e-05
0.00029494
9.08787e-05
0.000283904
8.67228e-05
0.000273247