/*--------------------------------*- C++ -*----------------------------------*\
  =========                 |
  \\      /  F ield         | OpenFOAM: The Open Source CFD Toolbox
   \\    /   O peration     | Website:  https://openfoam.org
    \\  /    A nd           | Version:  10
     \\/     M anipulation  |
\*---------------------------------------------------------------------------*/
FoamFile
{
    format      ascii;
    class       volVectorField;
    location    "0.551757";
    object      U;
}
// * * * * * * * * * * * * * * * * * * * * * * * * * * * * * * * * * * * * * //

dimensions      [0 1 -1 0 0 0 0];

internalField   nonuniform List<vector> 
15708
(
(0.479012 -0.0928001 0)
(0.471648 -0.090212 0)
(0.465128 -0.087465 0)
(0.45922 -0.0845937 0)
(0.453905 -0.0816284 0)
(0.449128 -0.0785846 0)
(0.444829 -0.075475 0)
(0.440953 -0.0723096 0)
(0.437453 -0.0690978 0)
(0.434287 -0.065846 0)
(0.431417 -0.0625594 0)
(0.428808 -0.0592422 0)
(0.426435 -0.055899 0)
(0.424275 -0.0525327 0)
(0.42231 -0.0491463 0)
(0.420527 -0.0457426 0)
(0.418916 -0.0423254 0)
(0.417471 -0.0388965 0)
(0.416187 -0.0354595 0)
(0.415062 -0.0320167 0)
(0.414096 -0.0285715 0)
(0.413288 -0.0251278 0)
(0.412637 -0.0216893 0)
(0.412145 -0.018261 0)
(0.41181 -0.0148485 0)
(0.41163 -0.0114578 0)
(0.411603 -0.00809529 0)
(0.411726 -0.00476867 0)
(0.411991 -0.00148824 0)
(0.412397 0.00174017 0)
(0.412935 0.0049029 0)
(0.413598 0.00799145 0)
(0.414379 0.0109943 0)
(0.41527 0.0138972 0)
(0.416259 0.0166857 0)
(0.41734 0.0193428 0)
(0.418496 0.0218532 0)
(0.41972 0.0241997 0)
(0.420999 0.0263626 0)
(0.422311 0.0283297 0)
(0.423649 0.0300753 0)
(0.424997 0.0315885 0)
(0.426332 0.0328538 0)
(0.427633 0.0338664 0)
(0.428888 0.0346048 0)
(0.430075 0.0350755 0)
(0.431167 0.0352752 0)
(0.432151 0.0352081 0)
(0.432995 0.0348873 0)
(0.43369 0.0343263 0)
(0.434223 0.0335487 0)
(0.481536 -0.088226 0)
(0.474321 -0.0855281 0)
(0.467927 -0.0826895 0)
(0.462124 -0.079738 0)
(0.456899 -0.0766999 0)
(0.452198 -0.0735943 0)
(0.447961 -0.0704355 0)
(0.444136 -0.0672352 0)
(0.440675 -0.0640016 0)
(0.437541 -0.0607412 0)
(0.434697 -0.0574599 0)
(0.43211 -0.0541618 0)
(0.429755 -0.0508506 0)
(0.42761 -0.0475309 0)
(0.425659 -0.044206 0)
(0.423886 -0.0408799 0)
(0.422285 -0.037555 0)
(0.420847 -0.0342352 0)
(0.41957 -0.0309218 0)
(0.41845 -0.0276176 0)
(0.417487 -0.0243252 0)
(0.416679 -0.0210469 0)
(0.416027 -0.0177865 0)
(0.415527 -0.0145478 0)
(0.41518 -0.0113349 0)
(0.414982 -0.00815297 0)
(0.414929 -0.00500787 0)
(0.415015 -0.00190796 0)
(0.415238 0.00114249 0)
(0.415585 0.00413042 0)
(0.416054 0.00704809 0)
(0.416635 0.00988644 0)
(0.41732 0.0126336 0)
(0.418099 0.0152754 0)
(0.41896 0.017798 0)
(0.419895 0.0201863 0)
(0.42089 0.0224239 0)
(0.421934 0.0244968 0)
(0.423019 0.0263839 0)
(0.42412 0.0280743 0)
(0.425231 0.0295515 0)
(0.426342 0.0307974 0)
(0.427431 0.0318051 0)
(0.428478 0.032566 0)
(0.429474 0.0330763 0)
(0.430405 0.0333299 0)
(0.431247 0.0333384 0)
(0.43199 0.0331064 0)
(0.432611 0.0326506 0)
(0.433103 0.0319908 0)
(0.433458 0.0311514 0)
(0.484201 -0.0837122 0)
(0.477115 -0.0809042 0)
(0.470831 -0.0779662 0)
(0.46512 -0.0749213 0)
(0.45997 -0.0717973 0)
(0.45533 -0.0686172 0)
(0.451141 -0.0653968 0)
(0.447353 -0.0621475 0)
(0.443921 -0.0588775 0)
(0.440806 -0.0555938 0)
(0.437974 -0.0523031 0)
(0.435394 -0.0490101 0)
(0.433041 -0.0457204 0)
(0.430894 -0.0424383 0)
(0.428937 -0.0391678 0)
(0.427158 -0.0359127 0)
(0.425547 -0.0326763 0)
(0.424099 -0.0294614 0)
(0.422811 -0.0262699 0)
(0.421679 -0.0231032 0)
(0.420704 -0.0199629 0)
(0.419882 -0.0168506 0)
(0.419212 -0.0137687 0)
(0.418693 -0.0107196 0)
(0.418321 -0.00770641 0)
(0.418092 -0.00473324 0)
(0.418 -0.00180622 0)
(0.418044 0.00107328 0)
(0.41821 0.0038933 0)
(0.418493 0.00664653 0)
(0.418886 0.00932599 0)
(0.41938 0.0119225 0)
(0.419964 0.0144245 0)
(0.420627 0.0168179 0)
(0.421356 0.019089 0)
(0.422144 0.0212239 0)
(0.422977 0.0232056 0)
(0.423842 0.025022 0)
(0.424732 0.026652 0)
(0.42563 0.0280845 0)
(0.426521 0.0293098 0)
(0.427401 0.030305 0)
(0.428255 0.0310685 0)
(0.429064 0.0315917 0)
(0.42982 0.0318801 0)
(0.430514 0.031921 0)
(0.431131 0.0317358 0)
(0.431661 0.0313319 0)
(0.432088 0.0307283 0)
(0.43241 0.0299492 0)
(0.432625 0.0290188 0)
(0.487006 -0.0792193 0)
(0.480034 -0.0762984 0)
(0.473846 -0.0732561 0)
(0.468215 -0.0701105 0)
(0.463129 -0.0668917 0)
(0.458539 -0.0636265 0)
(0.454387 -0.060334 0)
(0.450623 -0.0570235 0)
(0.447205 -0.0537089 0)
(0.444095 -0.0503932 0)
(0.441259 -0.0470874 0)
(0.43867 -0.0437927 0)
(0.436301 -0.040519 0)
(0.434134 -0.0372691 0)
(0.432154 -0.0340482 0)
(0.430349 -0.0308605 0)
(0.42871 -0.0277098 0)
(0.427234 -0.0245983 0)
(0.425917 -0.021527 0)
(0.424757 -0.0184969 0)
(0.423751 -0.0155083 0)
(0.422898 -0.0125618 0)
(0.422196 -0.00965845 0)
(0.421642 -0.00679908 0)
(0.421232 -0.00398615 0)
(0.42096 -0.00122208 0)
(0.420824 0.00149405 0)
(0.420812 0.00415107 0)
(0.420915 0.00674441 0)
(0.421126 0.00926932 0)
(0.421439 0.0117183 0)
(0.421841 0.0140822 0)
(0.422319 0.0163494 0)
(0.422862 0.0185067 0)
(0.423457 0.0205409 0)
(0.424095 0.0224381 0)
(0.424764 0.0241814 0)
(0.42545 0.0257593 0)
(0.426146 0.0271518 0)
(0.426841 0.0283458 0)
(0.427517 0.0293326 0)
(0.42817 0.0300967 0)
(0.428795 0.0306291 0)
(0.429378 0.0309279 0)
(0.429904 0.0309964 0)
(0.430376 0.0308323 0)
(0.430787 0.0304483 0)
(0.431126 0.0298648 0)
(0.431384 0.0290986 0)
(0.431561 0.0281764 0)
(0.431665 0.0271296 0)
(0.489934 -0.0746901 0)
(0.483069 -0.0716573 0)
(0.476969 -0.0685194 0)
(0.47141 -0.0652784 0)
(0.46638 -0.0619675 0)
(0.461827 -0.0586167 0)
(0.4577 -0.0552514 0)
(0.453949 -0.0518716 0)
(0.450531 -0.0485108 0)
(0.447412 -0.0451535 0)
(0.444557 -0.0418302 0)
(0.441942 -0.0385231 0)
(0.439539 -0.0352601 0)
(0.437335 -0.0320351 0)
(0.435314 -0.028858 0)
(0.433464 -0.025731 0)
(0.431779 -0.0226642 0)
(0.430257 -0.0196563 0)
(0.428893 -0.0167052 0)
(0.427686 -0.0138112 0)
(0.426633 -0.0109746 0)
(0.425733 -0.00819456 0)
(0.424983 -0.00547083 0)
(0.424379 -0.00280378 0)
(0.423919 -0.000189925 0)
(0.423596 0.00236991 0)
(0.4234 0.00486879 0)
(0.423324 0.00730646 0)
(0.423359 0.00967857 0)
(0.423495 0.0119818 0)
(0.423723 0.0142086 0)
(0.424029 0.01635 0)
(0.424398 0.0183947 0)
(0.424818 0.0203307 0)
(0.425278 0.0221439 0)
(0.425764 0.0238215 0)
(0.426268 0.0253455 0)
(0.426775 0.0267027 0)
(0.427275 0.027878 0)
(0.427765 0.0288523 0)
(0.428228 0.029617 0)
(0.428658 0.0301655 0)
(0.429055 0.03048 0)
(0.429413 0.030563 0)
(0.42972 0.0304157 0)
(0.429978 0.0300504 0)
(0.430192 0.029463 0)
(0.430356 0.0286883 0)
(0.430459 0.0277427 0)
(0.430513 0.0266517 0)
(0.430531 0.0254625 0)
(0.493008 -0.0700628 0)
(0.486225 -0.0669123 0)
(0.480193 -0.0636841 0)
(0.474701 -0.0603602 0)
(0.46972 -0.0569755 0)
(0.465195 -0.0535579 0)
(0.461091 -0.0501267 0)
(0.457337 -0.046692 0)
(0.453907 -0.0432782 0)
(0.450762 -0.0398862 0)
(0.447875 -0.0365349 0)
(0.44522 -0.0332229 0)
(0.442764 -0.0299651 0)
(0.440508 -0.0267587 0)
(0.438428 -0.0236214 0)
(0.436511 -0.0205475 0)
(0.434755 -0.0175565 0)
(0.433165 -0.0146473 0)
(0.431737 -0.0118132 0)
(0.430464 -0.00905531 0)
(0.429347 -0.00637223 0)
(0.428382 -0.00376198 0)
(0.427569 -0.00122029 0)
(0.426905 0.00125832 0)
(0.426383 0.00367169 0)
(0.425995 0.00601954 0)
(0.425734 0.00830411 0)
(0.425591 0.0105255 0)
(0.425554 0.0126812 0)
(0.425612 0.014768 0)
(0.425753 0.0167804 0)
(0.425962 0.0187089 0)
(0.426222 0.0205435 0)
(0.426519 0.0222727 0)
(0.426842 0.0238817 0)
(0.427176 0.0253578 0)
(0.427511 0.0266827 0)
(0.427837 0.02784 0)
(0.428141 0.0288171 0)
(0.42842 0.0295932 0)
(0.428668 0.0301564 0)
(0.428873 0.0305001 0)
(0.42904 0.0306134 0)
(0.429171 0.030489 0)
(0.429262 0.0301343 0)
(0.42931 0.0295607 0)
(0.429329 0.0287682 0)
(0.429325 0.0277878 0)
(0.429283 0.0266435 0)
(0.429229 0.0253618 0)
(0.429176 0.0239939 0)
(0.496205 -0.0653546 0)
(0.489503 -0.0621367 0)
(0.483509 -0.0588554 0)
(0.47806 -0.0554419 0)
(0.473109 -0.0519717 0)
(0.46861 -0.048478 0)
(0.464519 -0.044976 0)
(0.460766 -0.0414919 0)
(0.45732 -0.0380161 0)
(0.454143 -0.0345918 0)
(0.45121 -0.0312057 0)
(0.448498 -0.0278857 0)
(0.445989 -0.0246198 0)
(0.443661 -0.0214417 0)
(0.441507 -0.0183264 0)
(0.439509 -0.0153116 0)
(0.437658 -0.0124073 0)
(0.435977 -0.00958355 0)
(0.434459 -0.00686311 0)
(0.433098 -0.00424176 0)
(0.431893 -0.00171356 0)
(0.430848 0.000730294 0)
(0.429956 0.00309095 0)
(0.429215 0.00537012 0)
(0.428619 0.00757428 0)
(0.428162 0.00970992 0)
(0.427833 0.0117809 0)
(0.42762 0.0137878 0)
(0.427511 0.0157306 0)
(0.427492 0.0176074 0)
(0.427548 0.019414 0)
(0.42766 0.021142 0)
(0.427812 0.0227811 0)
(0.427988 0.0243202 0)
(0.428175 0.0257442 0)
(0.428357 0.0270384 0)
(0.428523 0.0281862 0)
(0.428665 0.0291666 0)
(0.42877 0.0299646 0)
(0.428834 0.0305649 0)
(0.428858 0.0309468 0)
(0.428836 0.0311013 0)
(0.428768 0.0310249 0)
(0.428664 0.0307051 0)
(0.428532 0.0301465 0)
(0.428366 0.0293599 0)
(0.428188 0.0283573 0)
(0.428015 0.0271582 0)
(0.427832 0.0257934 0)
(0.427675 0.0242943 0)
(0.427558 0.0227097 0)
(0.499448 -0.0604386 0)
(0.492789 -0.0572044 0)
(0.486893 -0.0538517 0)
(0.481545 -0.0503975 0)
(0.476623 -0.0468795 0)
(0.472137 -0.0433386 0)
(0.46804 -0.0397945 0)
(0.464282 -0.0362553 0)
(0.460806 -0.0327478 0)
(0.457581 -0.0292756 0)
(0.454591 -0.0258574 0)
(0.451817 -0.0225071 0)
(0.449215 -0.0192356 0)
(0.446805 -0.0160657 0)
(0.444552 -0.0129882 0)
(0.442417 -0.0100368 0)
(0.440464 -0.0071997 0)
(0.438683 -0.00447564 0)
(0.437046 -0.00187417 0)
(0.435577 0.000614547 0)
(0.434272 0.00299229 0)
(0.433128 0.00526045 0)
(0.432143 0.00742919 0)
(0.431316 0.00950817 0)
(0.43064 0.011505 0)
(0.430108 0.0134283 0)
(0.429708 0.0152847 0)
(0.429424 0.0170779 0)
(0.429243 0.0188108 0)
(0.42915 0.0204837 0)
(0.429124 0.0220927 0)
(0.429145 0.0236317 0)
(0.429194 0.0250905 0)
(0.429253 0.0264575 0)
(0.429306 0.0277172 0)
(0.429339 0.0288521 0)
(0.429336 0.0298449 0)
(0.429289 0.0306742 0)
(0.429193 0.0313185 0)
(0.429038 0.0317622 0)
(0.428828 0.0319859 0)
(0.428568 0.0319721 0)
(0.428257 0.0317152 0)
(0.427908 0.0312116 0)
(0.427539 0.0304518 0)
(0.427151 0.029452 0)
(0.426769 0.0282306 0)
(0.426417 0.0267966 0)
(0.426088 0.0251888 0)
(0.425826 0.0234425 0)
(0.425648 0.0216042 0)
(0.502757 -0.0553843 0)
(0.496169 -0.0521545 0)
(0.490328 -0.0487526 0)
(0.484996 -0.0452955 0)
(0.480124 -0.041757 0)
(0.47567 -0.0381879 0)
(0.471604 -0.0345872 0)
(0.467837 -0.0309986 0)
(0.464339 -0.0274444 0)
(0.461079 -0.0239272 0)
(0.458025 -0.0204691 0)
(0.45516 -0.0170914 0)
(0.452459 -0.0138156 0)
(0.449923 -0.0106398 0)
(0.447535 -0.00760761 0)
(0.445287 -0.00470251 0)
(0.443199 -0.00192281 0)
(0.441275 0.000704908 0)
(0.439511 0.00319204 0)
(0.437912 0.0055358 0)
(0.436481 0.00774523 0)
(0.43522 0.00983009 0)
(0.434129 0.0118018 0)
(0.433205 0.0136726 0)
(0.432443 0.0154551 0)
(0.431832 0.0171602 0)
(0.431359 0.0187978 0)
(0.431007 0.020376 0)
(0.430759 0.0219011 0)
(0.430596 0.0233749 0)
(0.430496 0.0247953 0)
(0.430435 0.0261575 0)
(0.430391 0.0274516 0)
(0.430341 0.0286657 0)
(0.430268 0.0297838 0)
(0.430155 0.0307851 0)
(0.429987 0.0316489 0)
(0.429752 0.0323538 0)
(0.429447 0.0328739 0)
(0.429069 0.033186 0)
(0.428617 0.0332727 0)
(0.428102 0.0331139 0)
(0.427536 0.0326934 0)
(0.426927 0.0320111 0)
(0.426301 0.03106 0)
(0.425678 0.0298448 0)
(0.425075 0.0283916 0)
(0.424527 0.0267062 0)
(0.424043 0.0248305 0)
(0.423667 0.0228054 0)
(0.42342 0.0206719 0)
(0.505966 -0.05005 0)
(0.499507 -0.0468197 0)
(0.493766 -0.0434753 0)
(0.488501 -0.0400366 0)
(0.483686 -0.0365095 0)
(0.479279 -0.0329297 0)
(0.475223 -0.0293084 0)
(0.471437 -0.0257047 0)
(0.467904 -0.0221004 0)
(0.464589 -0.0185528 0)
(0.461461 -0.0150559 0)
(0.4585 -0.0116571 0)
(0.455689 -0.00835909 0)
(0.453024 -0.00519663 0)
(0.450494 -0.00216749 0)
(0.448099 0.000705615 0)
(0.445855 0.00340613 0)
(0.443767 0.00594708 0)
(0.441839 0.00830944 0)
(0.440085 0.0105044 0)
(0.43851 0.0125425 0)
(0.437116 0.014437 0)
(0.435906 0.0162037 0)
(0.434876 0.0178584 0)
(0.43402 0.0194166 0)
(0.433328 0.0208947 0)
(0.432784 0.0223071 0)
(0.43237 0.0236668 0)
(0.432064 0.024983 0)
(0.431844 0.0262609 0)
(0.431684 0.0275008 0)
(0.431555 0.0286988 0)
(0.431429 0.0298457 0)
(0.431284 0.0309284 0)
(0.431096 0.0319291 0)
(0.430844 0.0328251 0)
(0.430514 0.0335906 0)
(0.430093 0.0342001 0)
(0.429576 0.0346256 0)
(0.428964 0.0348383 0)
(0.428262 0.0348123 0)
(0.427478 0.034529 0)
(0.426633 0.033968 0)
(0.425747 0.0331165 0)
(0.424844 0.0319795 0)
(0.423957 0.0305485 0)
(0.423112 0.0288507 0)
(0.422347 0.026898 0)
(0.421688 0.0247276 0)
(0.42118 0.0223887 0)
(0.420855 0.0199146 0)
(0.509193 -0.0444532 0)
(0.502861 -0.0413051 0)
(0.497168 -0.0380548 0)
(0.491967 -0.0346771 0)
(0.487208 -0.0311967 0)
(0.482843 -0.0276266 0)
(0.478808 -0.0240175 0)
(0.475043 -0.020386 0)
(0.471502 -0.0167518 0)
(0.468148 -0.0131535 0)
(0.464948 -0.00961418 0)
(0.461882 -0.00616891 0)
(0.458935 -0.00284402 0)
(0.456125 0.000341321 0)
(0.453434 0.00335896 0)
(0.450844 0.00618557 0)
(0.44842 0.00881696 0)
(0.446154 0.0112479 0)
(0.444034 0.0134812 0)
(0.442101 0.0155232 0)
(0.440357 0.0173845 0)
(0.438811 0.0190807 0)
(0.437466 0.0206298 0)
(0.436319 0.0220531 0)
(0.435365 0.0233737 0)
(0.434592 0.0246131 0)
(0.433982 0.0257913 0)
(0.433515 0.026926 0)
(0.433166 0.0280311 0)
(0.432906 0.0291157 0)
(0.432703 0.0301827 0)
(0.432524 0.0312292 0)
(0.432338 0.0322471 0)
(0.432114 0.0332213 0)
(0.431825 0.0341315 0)
(0.431446 0.0349528 0)
(0.430961 0.0356547 0)
(0.430357 0.0362044 0)
(0.429627 0.0365694 0)
(0.428773 0.036716 0)
(0.427804 0.0366119 0)
(0.426737 0.0362286 0)
(0.425591 0.0355465 0)
(0.424398 0.0345465 0)
(0.423191 0.0332243 0)
(0.42201 0.0315807 0)
(0.42089 0.0296272 0)
(0.419878 0.0273876 0)
(0.419018 0.0248947 0)
(0.418352 0.0221979 0)
(0.417925 0.0193479 0)
(0.512252 -0.0385321 0)
(0.505987 -0.0355978 0)
(0.500412 -0.0324678 0)
(0.495329 -0.0292105 0)
(0.490686 -0.0258064 0)
(0.48641 -0.0222868 0)
(0.482434 -0.0186721 0)
(0.478696 -0.0150162 0)
(0.47515 -0.0113481 0)
(0.471751 -0.00769687 0)
(0.468472 -0.00411232 0)
(0.465295 -0.00061687 0)
(0.462216 0.002749 0)
(0.459226 0.00595337 0)
(0.456331 0.00894805 0)
(0.453547 0.0117385 0)
(0.450897 0.0143152 0)
(0.448399 0.0166429 0)
(0.446069 0.0187455 0)
(0.443931 0.0206246 0)
(0.441999 0.0222934 0)
(0.440282 0.0237723 0)
(0.438786 0.0250848 0)
(0.437513 0.0262581 0)
(0.436459 0.0273215 0)
(0.435609 0.0283043 0)
(0.434944 0.0292331 0)
(0.434439 0.0301321 0)
(0.434065 0.0310207 0)
(0.433786 0.0319122 0)
(0.433566 0.0328124 0)
(0.433364 0.0337205 0)
(0.433142 0.0346285 0)
(0.432863 0.0355193 0)
(0.432494 0.0363699 0)
(0.432006 0.0371508 0)
(0.431376 0.0378267 0)
(0.430592 0.0383577 0)
(0.429646 0.0387031 0)
(0.428542 0.0388215 0)
(0.427292 0.0386747 0)
(0.425916 0.0382262 0)
(0.424444 0.0374464 0)
(0.422913 0.0363164 0)
(0.421365 0.0348204 0)
(0.41985 0.0329628 0)
(0.418415 0.0307451 0)
(0.41712 0.0281999 0)
(0.416015 0.0253535 0)
(0.415163 0.0222584 0)
(0.414606 0.0189774 0)
(0.515112 -0.0323989 0)
(0.508972 -0.0296533 0)
(0.503555 -0.0267439 0)
(0.498593 -0.0236323 0)
(0.494086 -0.0203406 0)
(0.489937 -0.016887 0)
(0.486051 -0.0133068 0)
(0.482355 -0.00964139 0)
(0.478823 -0.00593169 0)
(0.475394 -0.00222668 0)
(0.472042 0.00143425 0)
(0.468749 0.00499557 0)
(0.465507 0.00841179 0)
(0.462324 0.0116391 0)
(0.459211 0.014649 0)
(0.456192 0.017416 0)
(0.453293 0.0199216 0)
(0.450541 0.0221549 0)
(0.447964 0.0241189 0)
(0.445587 0.025821 0)
(0.443433 0.0272791 0)
(0.441519 0.028518 0)
(0.439856 0.0295695 0)
(0.438449 0.0304682 0)
(0.43729 0.0312507 0)
(0.436367 0.0319544 0)
(0.435658 0.0326141 0)
(0.435134 0.0332619 0)
(0.43476 0.0339236 0)
(0.434492 0.0346179 0)
(0.434286 0.0353551 0)
(0.434094 0.0361362 0)
(0.433869 0.0369536 0)
(0.433564 0.037789 0)
(0.433141 0.0386154 0)
(0.432563 0.0393969 0)
(0.431805 0.04009 0)
(0.430848 0.0406484 0)
(0.429685 0.0410216 0)
(0.428321 0.041159 0)
(0.426772 0.0410116 0)
(0.425062 0.0405349 0)
(0.423229 0.0396908 0)
(0.42132 0.0384512 0)
(0.419387 0.0367976 0)
(0.417491 0.0347248 0)
(0.415692 0.0322393 0)
(0.414063 0.0293673 0)
(0.412666 0.0261357 0)
(0.411578 0.0225998 0)
(0.410852 0.0188292 0)
(0.517634 -0.025929 0)
(0.511678 -0.0234781 0)
(0.506428 -0.0208673 0)
(0.501682 -0.0179687 0)
(0.497354 -0.0148351 0)
(0.493364 -0.0114658 0)
(0.489614 -0.00793785 0)
(0.486027 -0.00426257 0)
(0.482543 -0.000501586 0)
(0.479109 0.00328583 0)
(0.47569 0.00703109 0)
(0.472273 0.0106772 0)
(0.468857 0.0141687 0)
(0.465454 0.0174531 0)
(0.46209 0.020489 0)
(0.458795 0.0232425 0)
(0.455604 0.025692 0)
(0.452555 0.027823 0)
(0.449686 0.0296363 0)
(0.447033 0.0311441 0)
(0.444627 0.0323682 0)
(0.442492 0.0333396 0)
(0.440645 0.0340983 0)
(0.439092 0.0346878 0)
(0.437829 0.0351548 0)
(0.436842 0.0355468 0)
(0.436106 0.0359091 0)
(0.435587 0.036283 0)
(0.435243 0.0367026 0)
(0.435023 0.0371934 0)
(0.434872 0.0377703 0)
(0.434732 0.0384368 0)
(0.434544 0.0391853 0)
(0.434253 0.0399959 0)
(0.433809 0.0408355 0)
(0.43317 0.0416615 0)
(0.4323 0.0424231 0)
(0.43118 0.0430635 0)
(0.4298 0.0435204 0)
(0.428165 0.0437317 0)
(0.426294 0.0436362 0)
(0.424218 0.0431771 0)
(0.421985 0.042307 0)
(0.419649 0.0409872 0)
(0.417276 0.0391932 0)
(0.41494 0.0369126 0)
(0.412718 0.0341521 0)
(0.41069 0.0309309 0)
(0.408935 0.0272813 0)
(0.407558 0.0232567 0)
(0.406612 0.0189378 0)
(0.519702 -0.019232 0)
(0.513942 -0.0172027 0)
(0.508953 -0.0149003 0)
(0.504489 -0.0122777 0)
(0.50045 -0.00933759 0)
(0.496711 -0.00608127 0)
(0.49316 -0.00258515 0)
(0.489727 0.00110594 0)
(0.486327 0.00495039 0)
(0.4829 0.00883555 0)
(0.47942 0.0126988 0)
(0.475877 0.0164603 0)
(0.472273 0.0200612 0)
(0.46863 0.0234288 0)
(0.464981 0.0265101 0)
(0.461368 0.0292612 0)
(0.457838 0.0316545 0)
(0.454443 0.0336738 0)
(0.451233 0.0353223 0)
(0.448258 0.0366139 0)
(0.445558 0.0375758 0)
(0.443169 0.038247 0)
(0.441114 0.0386754 0)
(0.439403 0.038916 0)
(0.438035 0.0390271 0)
(0.436994 0.0390678 0)
(0.436253 0.0390964 0)
(0.435772 0.0391661 0)
(0.4355 0.0393216 0)
(0.435375 0.0395961 0)
(0.43533 0.0400113 0)
(0.435294 0.0405735 0)
(0.435195 0.041275 0)
(0.434966 0.0420929 0)
(0.434544 0.0429891 0)
(0.433876 0.043913 0)
(0.43292 0.0448037 0)
(0.431649 0.0455901 0)
(0.430051 0.0461963 0)
(0.428132 0.0465465 0)
(0.425913 0.0465642 0)
(0.423434 0.0461792 0)
(0.420749 0.0453304 0)
(0.417927 0.0439672 0)
(0.415049 0.0420564 0)
(0.412202 0.0395806 0)
(0.409479 0.0365385 0)
(0.406976 0.0329502 0)
(0.40479 0.0288492 0)
(0.403045 0.024292 0)
(0.401815 0.0193548 0)
(0.521011 -0.0123277 0)
(0.515627 -0.010808 0)
(0.511031 -0.00893132 0)
(0.506967 -0.0066202 0)
(0.503321 -0.0039103 0)
(0.499937 -0.000796023 0)
(0.496665 0.00266902 0)
(0.493458 0.00640595 0)
(0.490203 0.0103476 0)
(0.486812 0.0143752 0)
(0.483288 0.0183977 0)
(0.479618 0.0223442 0)
(0.475806 0.0261034 0)
(0.471879 0.0295969 0)
(0.467894 0.0327556 0)
(0.463905 0.0355264 0)
(0.459978 0.0378743 0)
(0.456179 0.0397831 0)
(0.452574 0.0412536 0)
(0.449227 0.0423024 0)
(0.446191 0.0429638 0)
(0.443513 0.0432862 0)
(0.441224 0.0433302 0)
(0.439343 0.0431643 0)
(0.437869 0.0428619 0)
(0.436787 0.0424976 0)
(0.436067 0.0421445 0)
(0.435662 0.0418697 0)
(0.43551 0.0417304 0)
(0.435536 0.0417709 0)
(0.43566 0.0420186 0)
(0.435793 0.0424849 0)
(0.435848 0.0431626 0)
(0.43574 0.044026 0)
(0.435392 0.0450297 0)
(0.434739 0.0461118 0)
(0.433727 0.0471998 0)
(0.432322 0.0482077 0)
(0.430508 0.0490442 0)
(0.42829 0.0496126 0)
(0.425692 0.0498195 0)
(0.422763 0.0495769 0)
(0.419567 0.0488069 0)
(0.416188 0.0474465 0)
(0.412723 0.0454501 0)
(0.409277 0.0427924 0)
(0.405962 0.039468 0)
(0.402892 0.0354947 0)
(0.400183 0.0309063 0)
(0.39798 0.0257595 0)
(0.396375 0.0201348 0)
(0.521222 -0.00534281 0)
(0.516408 -0.0044275 0)
(0.512414 -0.00305811 0)
(0.508932 -0.00113458 0)
(0.505812 0.00133636 0)
(0.502924 0.00431472 0)
(0.500084 0.00776156 0)
(0.497201 0.0116001 0)
(0.49415 0.0156805 0)
(0.49085 0.0199185 0)
(0.487319 0.0241863 0)
(0.483527 0.0283695 0)
(0.479479 0.0323401 0)
(0.475241 0.0360049 0)
(0.470873 0.0392757 0)
(0.466448 0.0420887 0)
(0.462053 0.0444026 0)
(0.457775 0.0461945 0)
(0.453701 0.0474665 0)
(0.449912 0.0482405 0)
(0.446481 0.0485582 0)
(0.443467 0.0484792 0)
(0.440914 0.0480782 0)
(0.438844 0.0474395 0)
(0.437264 0.0466549 0)
(0.436159 0.0458181 0)
(0.435494 0.045021 0)
(0.435213 0.0443485 0)
(0.435242 0.0438735 0)
(0.435491 0.0436522 0)
(0.435859 0.0437216 0)
(0.436242 0.0440994 0)
(0.436531 0.0447787 0)
(0.436619 0.0457292 0)
(0.436411 0.0468987 0)
(0.435825 0.0482129 0)
(0.434796 0.0495809 0)
(0.433278 0.0509013 0)
(0.431249 0.0520629 0)
(0.428713 0.0529436 0)
(0.4257 0.0534321 0)
(0.422264 0.0534164 0)
(0.418486 0.0527987 0)
(0.414463 0.0514994 0)
(0.410314 0.0494586 0)
(0.406164 0.0466407 0)
(0.402148 0.0430365 0)
(0.398399 0.0386592 0)
(0.395052 0.0335465 0)
(0.392278 0.0277509 0)
(0.390201 0.0213566 0)
(0.51958 0.00134676 0)
(0.515721 0.00159418 0)
(0.512656 0.00243273 0)
(0.510081 0.00394029 0)
(0.507796 0.00617087 0)
(0.505633 0.00906861 0)
(0.503407 0.0125695 0)
(0.500976 0.0165544 0)
(0.498228 0.0208871 0)
(0.495103 0.0254326 0)
(0.491575 0.0300429 0)
(0.487643 0.0345442 0)
(0.48334 0.0388098 0)
(0.478734 0.0427122 0)
(0.473912 0.046146 0)
(0.468974 0.0490353 0)
(0.464029 0.0513275 0)
(0.459189 0.0529977 0)
(0.454566 0.0540482 0)
(0.450262 0.0545067 0)
(0.446369 0.0544244 0)
(0.442966 0.0538756 0)
(0.440109 0.0529507 0)
(0.437833 0.0517544 0)
(0.436148 0.0504007 0)
(0.43504 0.0490065 0)
(0.434469 0.0476866 0)
(0.434371 0.0465472 0)
(0.434655 0.0456825 0)
(0.435213 0.0451611 0)
(0.435923 0.045036 0)
(0.436656 0.0453299 0)
(0.437276 0.046037 0)
(0.437654 0.047122 0)
(0.437667 0.0485243 0)
(0.437213 0.0501564 0)
(0.436213 0.0519043 0)
(0.434611 0.0536446 0)
(0.432371 0.0552451 0)
(0.429498 0.0565517 0)
(0.426026 0.0574333 0)
(0.422018 0.0577457 0)
(0.417568 0.0573683 0)
(0.412798 0.0562018 0)
(0.407845 0.0541683 0)
(0.402865 0.0512209 0)
(0.398017 0.0473434 0)
(0.393458 0.0425469 0)
(0.389341 0.036872 0)
(0.385858 0.0303723 0)
(0.383187 0.0231273 0)
(0.514992 0.00726264 0)
(0.512754 0.00682619 0)
(0.511189 0.0071376 0)
(0.509992 0.00829313 0)
(0.508944 0.010342 0)
(0.507841 0.013249 0)
(0.506475 0.0168956 0)
(0.504715 0.0211553 0)
(0.502441 0.0258735 0)
(0.499576 0.0308512 0)
(0.496113 0.0359135 0)
(0.492057 0.0408661 0)
(0.487468 0.0455368 0)
(0.482436 0.0497705 0)
(0.477079 0.053439 0)
(0.47153 0.0564497 0)
(0.465928 0.0587411 0)
(0.460419 0.060287 0)
(0.45514 0.0610909 0)
(0.450222 0.0611873 0)
(0.445782 0.060639 0)
(0.44192 0.0595357 0)
(0.438711 0.0579894 0)
(0.436202 0.0561298 0)
(0.434411 0.0540974 0)
(0.433325 0.0520375 0)
(0.432899 0.0500931 0)
(0.433058 0.0483991 0)
(0.433691 0.0470713 0)
(0.434666 0.0462014 0)
(0.435838 0.0458564 0)
(0.437044 0.0460677 0)
(0.438117 0.0468303 0)
(0.438897 0.0481061 0)
(0.439235 0.0498194 0)
(0.438998 0.0518677 0)
(0.438083 0.0541259 0)
(0.436429 0.0564012 0)
(0.433984 0.0585967 0)
(0.430752 0.0604552 0)
(0.426773 0.0618886 0)
(0.42211 0.0626512 0)
(0.416887 0.0626271 0)
(0.411245 0.0616827 0)
(0.40535 0.0597201 0)
(0.399389 0.0566792 0)
(0.393552 0.0525351 0)
(0.388026 0.0472997 0)
(0.382985 0.0410201 0)
(0.378635 0.0337572 0)
(0.375223 0.0255725 0)
(0.506392 0.0115489 0)
(0.506614 0.0105406 0)
(0.507304 0.0104395 0)
(0.508138 0.0113899 0)
(0.508889 0.0134229 0)
(0.509307 0.0164864 0)
(0.509184 0.0204721 0)
(0.508389 0.0252214 0)
(0.506779 0.0304968 0)
(0.504311 0.0360904 0)
(0.500986 0.0418048 0)
(0.496825 0.0473773 0)
(0.49192 0.0525963 0)
(0.486396 0.0572753 0)
(0.480408 0.0612635 0)
(0.474132 0.0644523 0)
(0.467748 0.0667702 0)
(0.461436 0.0681881 0)
(0.455372 0.0687128 0)
(0.44972 0.0683874 0)
(0.444628 0.0672896 0)
(0.440223 0.0655282 0)
(0.436602 0.063241 0)
(0.433829 0.0605862 0)
(0.431931 0.0577377 0)
(0.430898 0.0548759 0)
(0.430679 0.0521793 0)
(0.431183 0.049819 0)
(0.432277 0.0479356 0)
(0.433802 0.0466521 0)
(0.435581 0.0460519 0)
(0.437411 0.0461767 0)
(0.439088 0.047028 0)
(0.440411 0.048558 0)
(0.441196 0.0506773 0)
(0.441287 0.0532636 0)
(0.440519 0.056153 0)
(0.438862 0.0591562 0)
(0.436223 0.0620763 0)
(0.432611 0.064694 0)
(0.428074 0.0668002 0)
(0.422644 0.068197 0)
(0.416529 0.0686387 0)
(0.409863 0.0680416 0)
(0.402857 0.0662337 0)
(0.395733 0.0631511 0)
(0.388719 0.0587608 0)
(0.38204 0.0530723 0)
(0.375898 0.0461388 0)
(0.370497 0.0380446 0)
(0.366148 0.0288342 0)
(0.493032 0.0132558 0)
(0.496634 0.0118603 0)
(0.500432 0.011563 0)
(0.504067 0.012533 0)
(0.507254 0.0148003 0)
(0.509762 0.0182967 0)
(0.511364 0.0229222 0)
(0.511875 0.0284183 0)
(0.511193 0.0345208 0)
(0.509328 0.0410296 0)
(0.506257 0.047618 0)
(0.502009 0.0540341 0)
(0.496743 0.05999 0)
(0.490632 0.0652676 0)
(0.483886 0.0696929 0)
(0.476733 0.0731387 0)
(0.469407 0.0755249 0)
(0.462134 0.0768205 0)
(0.455134 0.0770373 0)
(0.448607 0.0762278 0)
(0.442739 0.0744847 0)
(0.43769 0.0719407 0)
(0.433587 0.0687639 0)
(0.430513 0.0651499 0)
(0.428508 0.0613146 0)
(0.427566 0.0574821 0)
(0.427633 0.0538736 0)
(0.428596 0.0507042 0)
(0.430294 0.0481494 0)
(0.432541 0.0463669 0)
(0.43511 0.0454636 0)
(0.437756 0.0454974 0)
(0.440224 0.0464707 0)
(0.442262 0.0483301 0)
(0.443645 0.0509718 0)
(0.444166 0.054249 0)
(0.443655 0.0579335 0)
(0.442024 0.0618796 0)
(0.439191 0.065719 0)
(0.435156 0.069314 0)
(0.429978 0.0723002 0)
(0.423685 0.0744884 0)
(0.416515 0.0756022 0)
(0.408674 0.0754616 0)
(0.400343 0.0739075 0)
(0.391841 0.0708439 0)
(0.383426 0.0662313 0)
(0.375366 0.0600777 0)
(0.367909 0.0524356 0)
(0.361255 0.0434191 0)
(0.355738 0.0330955 0)
(0.474804 0.0113245 0)
(0.482661 0.00984995 0)
(0.490358 0.00970549 0)
(0.497522 0.0110454 0)
(0.503839 0.0138883 0)
(0.509049 0.0181637 0)
(0.512856 0.0237514 0)
(0.515058 0.0303756 0)
(0.515643 0.0377324 0)
(0.514566 0.0454988 0)
(0.511827 0.0533503 0)
(0.507533 0.0609273 0)
(0.501845 0.0678857 0)
(0.495036 0.0739684 0)
(0.487383 0.0789702 0)
(0.479178 0.0827506 0)
(0.47072 0.0852313 0)
(0.462294 0.0863915 0)
(0.454171 0.0862497 0)
(0.446598 0.084869 0)
(0.439807 0.082359 0)
(0.434002 0.0788781 0)
(0.429342 0.0746308 0)
(0.425938 0.0698575 0)
(0.423847 0.064824 0)
(0.423062 0.0598081 0)
(0.423525 0.0550856 0)
(0.425099 0.0509225 0)
(0.42759 0.047548 0)
(0.43077 0.0451581 0)
(0.434361 0.0438892 0)
(0.438057 0.0438178 0)
(0.441539 0.0449553 0)
(0.444492 0.0472416 0)
(0.446634 0.050541 0)
(0.447689 0.0546762 0)
(0.447488 0.0594071 0)
(0.445879 0.0644662 0)
(0.44279 0.0695096 0)
(0.438245 0.0743011 0)
(0.432253 0.0784202 0)
(0.424943 0.0816472 0)
(0.416522 0.0836581 0)
(0.407237 0.0841406 0)
(0.397365 0.0829596 0)
(0.387234 0.0799888 0)
(0.377164 0.0751849 0)
(0.367465 0.0685603 0)
(0.358436 0.0601685 0)
(0.3503 0.0501265 0)
(0.343386 0.0385771 0)
(0.452144 0.0051668 0)
(0.464799 0.00386774 0)
(0.477022 0.0041407 0)
(0.488329 0.00622739 0)
(0.498312 0.0100648 0)
(0.50671 0.015557 0)
(0.513207 0.0225169 0)
(0.517531 0.0306735 0)
(0.519623 0.0396911 0)
(0.519538 0.0491724 0)
(0.517275 0.0586679 0)
(0.512891 0.0678138 0)
(0.506685 0.0760849 0)
(0.499009 0.0832693 0)
(0.490226 0.0890972 0)
(0.480732 0.0933793 0)
(0.470914 0.0960406 0)
(0.461126 0.0970836 0)
(0.451691 0.0965417 0)
(0.442911 0.0944884 0)
(0.435071 0.0910577 0)
(0.428425 0.0864427 0)
(0.423175 0.0808931 0)
(0.419463 0.0747072 0)
(0.41736 0.0682105 0)
(0.416864 0.0617461 0)
(0.417903 0.0556612 0)
(0.420313 0.0502861 0)
(0.423859 0.0459106 0)
(0.428259 0.0427846 0)
(0.433162 0.0410725 0)
(0.438187 0.0408872 0)
(0.442924 0.0422581 0)
(0.446954 0.0451019 0)
(0.449928 0.0492685 0)
(0.451535 0.0545112 0)
(0.451529 0.0605572 0)
(0.449755 0.0670059 0)
(0.446194 0.0735753 0)
(0.440819 0.0797605 0)
(0.433749 0.0853735 0)
(0.425122 0.0898565 0)
(0.41509 0.0929042 0)
(0.404034 0.0942632 0)
(0.392293 0.0936115 0)
(0.380245 0.0908327 0)
(0.368256 0.0858893 0)
(0.35667 0.0787932 0)
(0.345821 0.0696022 0)
(0.335989 0.0584383 0)
(0.327483 0.0455141 0)
(0.425579 -0.0058331 0)
(0.443475 -0.00679868 0)
(0.460592 -0.00585045 0)
(0.476276 -0.00258521 0)
(0.490048 0.0026829 0)
(0.501645 0.0100406 0)
(0.510717 0.0190053 0)
(0.517092 0.029312 0)
(0.52075 0.0406751 0)
(0.521623 0.052531 0)
(0.519801 0.064284 0)
(0.51534 0.0755227 0)
(0.508573 0.0852442 0)
(0.500042 0.093671 0)
(0.490074 0.100441 0)
(0.479189 0.105278 0)
(0.467914 0.108138 0)
(0.456681 0.109055 0)
(0.445863 0.108059 0)
(0.435828 0.105217 0)
(0.426935 0.100682 0)
(0.419498 0.0946918 0)
(0.413771 0.0875571 0)
(0.409921 0.0796454 0)
(0.408032 0.0713622 0)
(0.408103 0.0631303 0)
(0.410045 0.0553783 0)
(0.41365 0.0485387 0)
(0.418629 0.0429555 0)
(0.424614 0.03894 0)
(0.431157 0.036707 0)
(0.437764 0.0364393 0)
(0.443867 0.0381771 0)
(0.448932 0.0418124 0)
(0.452519 0.0471853 0)
(0.45426 0.0538641 0)
(0.453917 0.0615541 0)
(0.451409 0.069822 0)
(0.446677 0.0782188 0)
(0.439943 0.0862779 0)
(0.43123 0.0935798 0)
(0.420619 0.099698 0)
(0.408643 0.104033 0)
(0.395486 0.106217 0)
(0.381524 0.106163 0)
(0.367311 0.103599 0)
(0.353225 0.0985261 0)
(0.339618 0.0909448 0)
(0.326854 0.0809034 0)
(0.315277 0.0685278 0)
(0.305171 0.0540598 0)
(0.396705 -0.0221132 0)
(0.41936 -0.0224514 0)
(0.44051 -0.0204358 0)
(0.459276 -0.0151256 0)
(0.475407 -0.00841212 0)
(0.48908 0.00114469 0)
(0.49978 0.0123729 0)
(0.507489 0.024806 0)
(0.512123 0.0387165 0)
(0.513585 0.0533903 0)
(0.512094 0.0682042 0)
(0.507265 0.0829991 0)
(0.499974 0.0946532 0)
(0.491114 0.104897 0)
(0.480488 0.113024 0)
(0.468762 0.11852 0)
(0.456625 0.121607 0)
(0.444516 0.12236 0)
(0.432812 0.120787 0)
(0.421964 0.116972 0)
(0.412442 0.111089 0)
(0.40465 0.103427 0)
(0.398903 0.0943712 0)
(0.395406 0.0843689 0)
(0.394254 0.0739188 0)
(0.395433 0.0635518 0)
(0.398848 0.0538178 0)
(0.404215 0.0452353 0)
(0.411127 0.0382394 0)
(0.419085 0.0332369 0)
(0.427478 0.0304727 0)
(0.4356 0.0303496 0)
(0.442669 0.0328099 0)
(0.448078 0.0376731 0)
(0.451252 0.0449033 0)
(0.45192 0.0534455 0)
(0.450041 0.0633422 0)
(0.445531 0.0738508 0)
(0.438584 0.0841481 0)
(0.429375 0.0943301 0)
(0.418237 0.103563 0)
(0.405209 0.111391 0)
(0.390476 0.117315 0)
(0.374938 0.120733 0)