/*--------------------------------*- C++ -*----------------------------------*\
  =========                 |
  \\      /  F ield         | OpenFOAM: The Open Source CFD Toolbox
   \\    /   O peration     | Website:  https://openfoam.org
    \\  /    A nd           | Version:  11
     \\/     M anipulation  |
\*---------------------------------------------------------------------------*/
FoamFile
{
    format      ascii;
    class       volScalarField;
    location    "2";
    object      mag(U);
}
// * * * * * * * * * * * * * * * * * * * * * * * * * * * * * * * * * * * * * //

dimensions      [0 1 -1 0 0 0 0];

internalField   nonuniform List<scalar> 
9600
(
0.997552
0.995821
0.996194
0.996089
0.978373
0.935901
0.914903
0.915986
0.933251
0.956925
0.978024
0.995147
1.0085
1.01903
1.02769
1.03496
1.04101
1.04569
1.04914
1.05183
1.0537
1.05461
1.05413
1.05238
1.04979
1.04655
1.0429
1.03852
1.03401
1.0293
1.02518
1.02099
1.01725
1.01348
1.01037
1.00769
1.0056
1.00329
1.00061
0.998017
0.997993
0.997688
0.997022
0.993519
0.993312
0.995542
0.995763
0.994727
0.996784
1.00284
1.00727
1.00994
1.01196
1.01522
1.02011
1.025
1.0291
1.03212
1.03437
1.03614
1.03756
1.03806
1.03712
1.0354
1.03293
1.03002
1.02656
1.02221
1.01824
1.01253
1.00966
1.00357
1.00142
0.996291
0.994905
0.990599
0.989574
0.987384
0.986082
0.985677
0.997941
0.997983
0.999228
0.999911
0.996344
0.98962
0.976724
0.968939
0.969983
0.979403
0.991959
1.004
1.01516
1.02488
1.0329
1.03949
1.04502
1.04942
1.05272
1.05543
1.05726
1.05837
1.05862
1.0572
1.0551
1.05162
1.0485
1.04365
1.04034
1.03492
1.03217
1.02738
1.02526
1.02057
1.01873
1.01429
1.01295
1.009
1.00618
1.00188
0.998604
0.999117
1.00006
1.00154
1.00236
1.0051
1.01315
1.01862
1.02275
1.02679
1.0272
1.0251
1.02411
1.02437
1.02513
1.0279
1.0318
1.0346
1.03672
1.03837
1.03984
1.04014
1.03881
1.03692
1.03509
1.03242
1.02985
1.02514
1.02201
1.01575
1.01236
1.00728
1.00282
0.999393
0.996644
0.993326
0.993087
0.991003
0.989339
0.991702
0.999155
0.99977
1.00218
1.00613
1.01039
1.01321
1.00913
0.998998
0.99059
0.988756
0.994877
1.00456
1.01443
1.02388
1.03228
1.03904
1.04439
1.0484
1.05145
1.05419
1.05579
1.05693
1.05785
1.05694
1.05498
1.05156
1.0484
1.0437
1.04039
1.03561
1.03275
1.02871
1.02634
1.0224
1.01983
1.01566
1.01339
1.00873
1.00659
1.00025
0.99996
1.00098
1.00475
1.00898
1.01104
1.01456
1.0196
1.02403
1.02855
1.03235
1.0359
1.03522
1.03348
1.03292
1.03321
1.03396
1.03555
1.03787
1.03982
1.04146
1.04297
1.04301
1.04199
1.03953
1.0377
1.03519
1.03328
1.02883
1.02549
1.01967
1.01552
1.01038
1.00572
1.00187
0.999207
0.996653
0.996407
0.994289
0.993903
0.996993
1.001
1.00266
1.00654
1.01114
1.01467
1.01719
1.01729
1.01508
1.00926
1.00349
1.00254
1.00745
1.01509
1.02353
1.03161
1.03858
1.04419
1.04821
1.05106
1.05376
1.05515
1.05593
1.05741
1.05712
1.0554
1.05197
1.04855
1.0443
1.04036
1.03648
1.03342
1.02997
1.02748
1.024
1.02094
1.01643
1.01288
1.00872
1.00616
0.999087
1.00209
1.00428
1.00879
1.01188
1.01497
1.01966
1.02147
1.02339
1.02802
1.03361
1.03742
1.03906
1.03901
1.03898
1.03936
1.04004
1.0407
1.04228
1.04321
1.0453
1.04658
1.04635
1.0455
1.04323
1.04115
1.03864
1.03661
1.03292
1.02932
1.02396
1.01914
1.01384
1.00907
1.00454
1.00214
1.00046
0.999376
0.997718
0.998975
1.00035
1.00288
1.00581
1.00994
1.01301
1.01689
1.01973
1.0204
1.0208
1.02069
1.01896
1.01589
1.01547
1.01893
1.02475
1.03169
1.03843
1.04402
1.0487
1.05141
1.05384
1.05579
1.05608
1.05724
1.05764
1.05639
1.05295
1.04933
1.04483
1.04104
1.0374
1.03408
1.03101
1.0282
1.02529
1.02155
1.01691
1.01233
1.00852
1.00547
0.998038
1.0037
1.00742
1.0116
1.01417
1.01696
1.01968
1.02117
1.02303
1.02788
1.03308
1.03686
1.03912
1.04075
1.04202
1.04387
1.04504
1.04591
1.04722
1.04784
1.04919
1.05102
1.05121
1.04981
1.04687
1.04513
1.04259
1.04026
1.03681
1.03343
1.02827
1.02312
1.01762
1.01223
1.00767
1.0054
1.00362
1.00209
1.00174
1.00224
1.00235
1.00517
1.00937
1.01266
1.0154
1.01721
1.01859
1.02048
1.02318
1.02524
1.02612
1.0262
1.02563
1.02607
1.02922
1.03396
1.03953
1.0449
1.04944
1.05262
1.05521
1.05695
1.05681
1.05832
1.05911
1.05809
1.05469
1.05104
1.04611
1.04207
1.03829
1.03488
1.03168
1.02905
1.02606
1.02184
1.01698
1.01181
1.00851
1.0046
0.997228
1.00691
1.01042
1.01319
1.01565
1.01677
1.01779
1.01982
1.02279
1.02736
1.03247
1.0363
1.03917
1.04152
1.04408
1.04628
1.04851
1.05038
1.05168
1.05325
1.05416
1.05547
1.0567
1.05532
1.05188
1.04975
1.04707
1.04472
1.04109
1.03779
1.03261
1.02725
1.02146
1.01621
1.0109
1.00839
1.00693
1.00573
1.00485
1.00382
1.00348
1.00821
1.01087
1.01306
1.01481
1.01547
1.01651
1.01836
1.02254
1.02725
1.03047
1.03276
1.03393
1.03429
1.03547
1.03859
1.04284
1.04729
1.05187
1.05506
1.05748
1.0594
1.05911
1.06027
1.0615
1.06034
1.05752
1.05357
1.0486
1.04393
1.03965
1.03627
1.03253
1.02981
1.02681
1.02189
1.01712
1.01188
1.00818
1.00351
0.997443
1.00849
1.01082
1.01257
1.01366
1.0141
1.01493
1.01729
1.02188
1.02672
1.03204
1.03638
1.03969
1.04259
1.04566
1.04881
1.0516
1.05439
1.0564
1.05837
1.0596
1.06049
1.06228
1.06144
1.05769
1.05512
1.05236
1.04991
1.04582
1.04232
1.0372
1.03173
1.02585
1.02056
1.01463
1.01146
1.01025
1.00873
1.00721
1.0056
1.00406
1.00892
1.0109
1.01219
1.01261
1.01283
1.01375
1.01617
1.02055
1.02605
1.03222
1.03696
1.03987
1.04166
1.04277
1.04512
1.04833
1.05174
1.05556
1.05871
1.06094
1.06302
1.06293
1.0637
1.06491
1.06371
1.06083
1.05728
1.05226
1.04706
1.04189
1.03817
1.03401
1.03081
1.0276
1.02259
1.01739
1.012
1.00805
1.00371
0.998942
1.00849
1.0104
1.01159
1.01157
1.01194
1.0129
1.01537
1.02026
1.02562
1.03228
1.03821
1.04264
1.04595
1.04873
1.05229
1.05539
1.05844
1.06109
1.06338
1.06525
1.06628
1.06789
1.06801
1.0645
1.06164
1.0586
1.05597
1.05171
1.04747
1.04236
1.03649
1.03054
1.02503
1.01915
1.01524
1.01348
1.01151
1.00873
1.00765
1.00492
1.00857
1.01039
1.01144
1.01113
1.0117
1.01267
1.01523
1.01952
1.02465
1.03205
1.0391
1.0441
1.04774
1.04966
1.05209
1.05504
1.05767
1.06108
1.06423
1.06626
1.06848
1.06854
1.06887
1.06964
1.06866
1.06564
1.06223
1.05737
1.05195
1.04579
1.041
1.03641
1.03201
1.02882
1.02375
1.01854
1.0127
1.0089
1.00532
1.00099
1.00767
1.00943
1.01081
1.01054
1.01126
1.01264
1.01511
1.01879
1.02344
1.03096
1.0389
1.04466
1.04933
1.05243
1.05596
1.05964
1.0628
1.066
1.06894
1.07127
1.07263
1.07389
1.07503
1.07239
1.06945
1.06601
1.0631
1.05851
1.05368
1.04837
1.04236
1.03587
1.02972
1.02417
1.01897
1.01695
1.01379
1.01081
1.0088
1.00528
1.00754
1.0093
1.01098
1.01072
1.01128
1.01292
1.0153
1.01857
1.02252
1.0293
1.03805
1.04485
1.05092
1.0552
1.05857
1.06239
1.06537
1.06817
1.07111
1.07327
1.07544
1.07566
1.07582
1.07612
1.07549
1.07214
1.0685
1.06341
1.05833
1.05184
1.04606
1.04072
1.03477
1.03107
1.0254
1.02043
1.01431
1.01084
1.00643
1.00416
1.00695
1.00845
1.01022
1.01039
1.0109
1.01292
1.01561
1.0188
1.02221
1.02805
1.03713
1.04497
1.05203
1.05742
1.06167
1.06597
1.06982
1.07302
1.076
1.07873
1.08077
1.08141
1.0828
1.08129
1.07863
1.07487
1.07164
1.06666
1.06134
1.05555
1.04938
1.04291
1.03574
1.03
1.02344
1.02037
1.01622
1.01285
1.00908
1.00629
1.00695
1.00776
1.0098
1.01073
1.01131
1.01352
1.01657
1.01974
1.02276
1.0275
1.03628
1.04479
1.05269
1.05984
1.06547
1.07039
1.07448
1.07764
1.08061
1.08277
1.08526
1.08571
1.08565
1.085
1.08433
1.08083
1.07715
1.0718
1.06633
1.0599
1.05306
1.04727
1.03982
1.03507
1.02852
1.02334
1.01705
1.01325
1.00831
1.00614
1.0054
1.00648
1.00899
1.01091
1.01165
1.01351
1.0169
1.0206
1.02377
1.02753
1.0354
1.04459
1.05338
1.06187
1.06909
1.07487
1.07952
1.08314
1.08625
1.0884
1.09101
1.09161
1.09244
1.09133
1.08954
1.08579
1.08215
1.07698
1.07096
1.06468
1.0575
1.05144
1.04336
1.03726
1.0295
1.0248
1.01924
1.01543
1.01035
1.00722
1.00649
1.00728
1.00909
1.01127
1.01239
1.01391
1.01749
1.02197
1.02568
1.02891
1.03549
1.04456
1.05394
1.06314
1.07197
1.07926
1.08505
1.08929
1.09305
1.09495
1.09702
1.09804
1.09835
1.09712
1.09602
1.09258
1.08884
1.08361
1.07713
1.07062
1.06253
1.05645
1.04786
1.04187
1.0344
1.02847
1.02132
1.01704
1.01145
1.00801
1.00447
1.00553
1.00715
1.00991
1.01234
1.01433
1.01798
1.02325
1.02772
1.03116
1.03679
1.04494
1.05436
1.06399
1.07391
1.08296
1.09032
1.09568
1.10002
1.10261
1.10462
1.10519
1.1057
1.10462
1.10334
1.09985
1.0957
1.09078
1.08388
1.07762
1.06855
1.062
1.05311
1.04645
1.03802
1.03196
1.02467
1.0199
1.01404
1.00976
1.0058
1.00717
1.00842
1.01092
1.01375
1.01605
1.01908
1.02472
1.03012
1.03409
1.03949
1.04686
1.05561
1.06512
1.07545
1.08587
1.09534
1.1022
1.10776
1.11096
1.11351
1.11393
1.11429
1.11291
1.11148
1.10841
1.10359
1.09893
1.09144
1.08563
1.07594
1.06876
1.05913
1.05183
1.04314
1.03673
1.02885
1.02337
1.01698
1.01211
1.0024
1.00461
1.00622
1.00869
1.0123
1.01572
1.01921
1.02519
1.03226
1.03758
1.04318
1.05054
1.05873
1.06747
1.07748
1.08833
1.09926
1.108
1.11543
1.11981
1.1231
1.12392
1.12412
1.12282
1.12071
1.11826
1.11263
1.10835
1.1
1.09445
1.08449
1.07709
1.06658
1.05899
1.04893
1.04226
1.03341
1.02782
1.02016
1.01529
1.00371
1.00682
1.00906
1.01137
1.01475
1.01864
1.02246
1.02812
1.03565
1.04219
1.04813
1.05576
1.06422
1.07239
1.08133
1.09148
1.10291
1.11283
1.12211
1.12831
1.13297
1.13508
1.13521
1.13446
1.13127
1.12958
1.12334
1.11955
1.11045
1.1047
1.09438
1.08648
1.07566
1.06719
1.05669
1.04854
1.03906
1.03206
1.02449
1.01817
0.999235
1.00258
1.00557
1.00866
1.01246
1.01727
1.02232
1.02847
1.03663
1.04484
1.05214
1.06077
1.0709
1.07986
1.08833
1.09702
1.10766
1.1178
1.12767
1.13584
1.14184
1.14617
1.14683
1.14777
1.14345
1.14236
1.13521
1.13207
1.12234
1.11676
1.10602
1.09871
1.08677
1.07911
1.06666
1.05944
1.0477
1.04064
1.03045
1.02339
1.00164
1.00488
1.00849
1.01264
1.01726
1.02242
1.0279
1.03396
1.04205
1.05106
1.05927
1.06787
1.07922
1.08997
1.09932
1.10727
1.11632
1.12565
1.13422
1.14331
1.14951
1.15697
1.15833
1.16212
1.15834
1.15835
1.15068
1.14731
1.13779
1.131
1.12013
1.1118
1.09973
1.09012
1.07831
1.06749
1.05678
1.04685
1.03862
1.02928
0.995932
0.999669
1.00333
1.0077
1.01293
1.01928
1.02617
1.03325
1.0422
1.05286
1.06368
1.07316
1.08542
1.0985
1.1103
1.12008
1.12864
1.1387
1.14507
1.15395
1.15756
1.16652
1.16808
1.17454
1.17197
1.1742
1.16834
1.16563
1.1563
1.15027
1.13843
1.13076
1.11773
1.10875
1.09569
1.08579
1.07313
1.06273
1.05017
1.03962
0.999345
1.00407
1.00832
1.01279
1.01836
1.02541
1.03389
1.04208
1.05185
1.06312
1.0757
1.0866
1.09726
1.11151
1.12379
1.13643
1.14355
1.15606
1.16199
1.17216
1.17266
1.18046
1.18046
1.18646
1.18604
1.18808
1.18532
1.18271
1.17757
1.1692
1.16159
1.14866
1.1391
1.12426
1.11363
1.09825
1.08773
1.07277
1.0637
1.0511
0.989949
0.995368
1.0011
1.00675
1.01399
1.02177
1.03118
1.04121
1.05208
1.06524
1.07802
1.09384
1.10374
1.11997
1.13108
1.14925
1.15679
1.17032
1.177
1.18964
1.19341
1.20039
1.19912
1.203
1.20174
1.20301
1.20062
1.20067
1.1958
1.19193
1.18502
1.1768
1.1662
1.15462
1.14232
1.12877
1.11542
1.10092
1.08742
1.07121
0.99625
1.00203
1.00842
1.01468
1.02265
1.033
1.04223
1.05621
1.06616
1.08339
1.09381
1.11423
1.12432
1.14223
1.15152
1.1703
1.18079
1.19371
1.20088
1.20911
1.2192
1.22339
1.22957
1.22813
1.23118
1.22782
1.22886
1.22244
1.22173
1.21468
1.21319
1.20199
1.19733
1.18335
1.17532
1.15738
1.14577
1.12852
1.11463
1.0996
0.985206
0.994188
1.00127
1.01146
1.01912
1.03242
1.04135
1.05836
1.06889
1.08804
1.10132
1.12059
1.13571
1.15294
1.16635
1.18278
1.19569
1.21036
1.21914
1.2288
1.23474
1.24225
1.24653
1.25042
1.25178
1.25364
1.25457
1.25424
1.25352
1.2492
1.24465
1.23671
1.23045
1.21947
1.21128
1.19618
1.18792
1.16778
1.15982
1.13626
0.993417
1.00202
1.01034
1.02123
1.03251
1.04889
1.06402
1.08134
1.10103
1.11705
1.13803
1.15414
1.17539
1.1904
1.20996
1.22248
1.24066
1.25094
1.26776
1.27216
1.28486
1.28565
1.29622
1.29377
1.30144
1.29631
1.30135
1.2955
1.29831
1.2913
1.2914
1.28205
1.27912
1.26756
1.26039
1.24895
1.24072
1.22868
1.21893
1.20469
0.983691
0.999868
1.01214
1.02767
1.04185
1.05686
1.07449
1.0925
1.11399
1.13322
1.15566
1.17482
1.19672
1.2144
1.23492
1.24969
1.26703
1.27807
1.2921
1.29909
1.30867
1.31137
1.31809
1.31768
1.32374
1.32065
1.32698
1.32193
1.32911
1.32334
1.33024
1.32346
1.32785
1.31762
1.32026
1.30369
1.30556
1.28532
1.28494
1.26652
0.992801
1.00509
1.02632
1.04346
1.07513
1.09522
1.12646
1.14537
1.17403
1.19252
1.21924
1.23771
1.26172
1.27855
1.29952
1.31386
1.33017
1.34072
1.35185
1.3592
1.365
1.36928
1.37023
1.37227
1.3707
1.37248
1.37098
1.37417
1.37376
1.37894
1.38038
1.38606
1.38906
1.39319
1.39373
1.39626
1.39098
1.38923
1.37917
1.37023
1.00822
1.02643
1.05627
1.07367
1.10245
1.12273
1.15221
1.17612
1.20581
1.23134
1.25922
1.28394
1.30812
1.32999
1.34938
1.36727
1.38056
1.3937
1.40024
1.40904
1.40968
1.41455
1.41007
1.41177
1.40439
1.40543
1.39822
1.40199
1.39686
1.40495
1.40265
1.41448
1.41373
1.43118
1.43184
1.45168
1.44445
1.4613
1.44205
1.45342
1.06351
1.09907
1.14695
1.1855
1.22842
1.26352
1.30183
1.33508
1.36948
1.40034
1.4293
1.45607
1.47835
1.50038
1.51554
1.5324
1.53981
1.55004
1.54905
1.55077
1.54114
1.53529
1.5195
1.50636
1.48542
1.46802
1.44547
1.42717
1.40603
1.38966
1.37224
1.35865
1.34728
1.33181
1.31897
1.2994
1.2684
1.22897
1.1543
1.1356
1.23858
1.27308
1.30823
1.34504
1.38138
1.41539
1.4458
1.47143
1.49457
1.51127
1.52558
1.53742
1.54601
1.55463
1.55589
1.5567
1.54715
1.53792
1.51676
1.49762
1.46543
1.43675
1.39334
1.35321
1.29793
1.24647
1.18215
1.12319
1.05522
0.99296
0.926403
0.864439
0.80238
0.742583
0.671706
0.597692
0.509737
0.347312
0.255026
0.283152
0.992289
0.991912
0.995767
0.996506
0.997356
0.993992
0.990954
0.988802
0.988409
0.988212
0.988817
0.989962
0.991596
0.993588
0.99577
0.9979
0.99975
1.00123
1.00246
1.00324
1.00369
1.00393
1.00439
1.00526
1.00615
1.00665
1.00695
1.00718
1.00704
1.00679
1.00633
1.0058
1.00551
1.00515
1.00485
1.00457
1.00402
1.00346
1.00263
1.00697
0.992268
0.992835
0.995967
0.99683
0.996734
0.993631
0.990369
0.98807
0.987519
0.987401
0.988079
0.989284
0.991007
0.993125
0.995451
0.997685
0.999659
1.00125
1.00258
1.0035
1.00403
1.00421
1.00456
1.00532
1.00612
1.00685
1.00723
1.00743
1.00743
1.0072
1.00676
1.0063
1.00603
1.00564
1.0054
1.00511
1.00469
1.004
1.00219
1.00156
0.994902
0.993832
0.995346
0.99666
0.996406
0.993539
0.990045
0.987414
0.986496
0.986449
0.987262
0.988673
0.990556
0.992901
0.995441
0.997866
0.999922
1.00154
1.00286
1.0038
1.0045
1.00486
1.00527
1.00587
1.0065
1.00736
1.00789
1.00789
1.00762
1.00714
1.00666
1.00638
1.0062
1.00582
1.00562
1.00533
1.005
1.00474
1.00457
1.00622
0.993823
0.994093
0.995217
0.996448
0.99602
0.993298
0.989742
0.986605
0.985582
0.985589
0.986368
0.98776
0.989737
0.992249
0.99491
0.997403
0.999613
1.00136
1.00274
1.00392
1.00475
1.00513
1.00558
1.00626
1.00701
1.0076
1.00818
1.00809
1.0077
1.00721
1.00684
1.00668
1.00653
1.0062
1.00606
1.00569
1.00534
1.00475
1.00384
1.00312
0.995856
0.994912
0.995256
0.99601
0.995749
0.993327
0.989442
0.985934
0.984439
0.984485
0.985338
0.986867
0.988986
0.99171
0.99461
0.997241
0.999579
1.00139
1.00284
1.00406
1.00506
1.00581
1.00639
1.00708
1.00781
1.00825
1.00851
1.00829
1.00786
1.00732
1.00701
1.00687
1.00677
1.00648
1.00629
1.00597
1.00574
1.00554
1.0052
1.00522
0.995578
0.994975
0.994856
0.995522
0.995435
0.993269
0.98898
0.985202
0.983362
0.983381
0.984233
0.985777
0.988009
0.990932
0.993903
0.996632
0.99908
1.00094
1.00247
1.0039
1.00518
1.00599
1.00662
1.00741
1.00819
1.00853
1.00854
1.0085
1.00824
1.00763
1.00746
1.00743
1.00717
1.00681
1.00657
1.00625
1.00598
1.00568
1.0051
1.00472
0.996631
0.99561
0.995214
0.995305
0.995107
0.992938
0.988276
0.984316
0.982171
0.982099
0.983041
0.984559
0.986889
0.99009
0.993377
0.996296
0.998925
1.00083
1.00251
1.00419
1.00566
1.00651
1.00717
1.00803
1.0088
1.00901
1.00862
1.00856
1.00832
1.0078
1.00769
1.00775
1.00743
1.00716
1.00685
1.00663
1.0063
1.00622
1.00583
1.00518
0.99701
0.995735
0.994811
0.994649
0.994347
0.992308
0.987329
0.983239
0.980924
0.980741
0.981689
0.98331
0.985785
0.989083
0.992412
0.995481
0.998284
1.00034
1.00223
1.00415
1.00569
1.00665
1.0073
1.00832
1.0094
1.00929
1.00892
1.00869
1.00845
1.00815
1.00812
1.00819
1.00767
1.00742
1.00714
1.00691
1.00658
1.00642
1.00613
1.00597
0.997295
0.996354
0.995211
0.994225
0.993351
0.991379
0.986339
0.982147
0.979722
0.979226
0.980204
0.981817
0.98446
0.988093
0.991745
0.995064
0.998057
1.00026
1.00236
1.00434
1.00595
1.00698
1.00781
1.00914
1.00999
1.00992
1.00966
1.00929
1.00871
1.0084
1.00841
1.00841
1.00794
1.00778
1.00752
1.00724
1.00692
1.00684
1.00647
1.00571
0.998224
0.996722
0.994613
0.993025
0.992256
0.990744
0.985146
0.980675
0.978342
0.977675
0.978564
0.980266
0.983046
0.986776
0.990642
0.994182
0.99742
0.999827
1.00205
1.00403
1.00573
1.00706
1.00825
1.00975
1.01026
1.01015
1.01016
1.00962
1.00901
1.00886
1.00898
1.00889
1.00841
1.00818
1.00794
1.0076
1.00726
1.00708
1.00692
1.00684
0.997937
0.997095
0.994898
0.992219
0.991361
0.989886
0.983944
0.979322
0.976943
0.975905
0.976724
0.978534
0.981492
0.985622
0.98981
0.993487
0.996925
0.99963
1.00209
1.00407
1.00589
1.0076
1.00906
1.01035
1.01038
1.01016
1.0102
1.00987
1.00938
1.00938
1.00949
1.00915
1.00875
1.00855
1.00829
1.00793
1.00762
1.0074
1.00709
1.00658
0.999233
0.997494
0.99389
0.990985
0.990271
0.9885
0.9824
0.977788
0.97519
0.973934
0.974615
0.976536
0.979684
0.983951
0.988495
0.992415
0.996075
0.999071
1.00181
1.00391
1.0059
1.0081
1.00984
1.01064
1.01053
1.01034
1.01039
1.01014
1.00982
1.00991
1.00988
1.00942
1.00914
1.009
1.00876
1.00836
1.00807
1.00778
1.00748
1.00748
0.998604
0.997522
0.994453
0.990682
0.989118
0.987131
0.980856
0.976074
0.973066
0.971637
0.972338
0.974404
0.977746
0.982458
0.987413
0.991486
0.995456
0.99884
1.00193
1.00424
1.00657
1.00891
1.01041
1.01093
1.01061
1.01049
1.01059
1.01041
1.01029
1.01039
1.01019
1.00969
1.00937
1.0093
1.00912
1.00871
1.00842
1.00806
1.00765
1.00741
0.999981
0.997966
0.993954
0.98953
0.987477
0.985516
0.97933
0.974174
0.970452
0.968803
0.969473
0.971755
0.975516
0.980527
0.986001
0.990495
0.994545
0.998149
1.0017
1.00457
1.00741
1.00963
1.01062
1.01076
1.01053
1.01059
1.01095
1.01102
1.011
1.01104
1.01068
1.0102
1.00992
1.0098
1.00958
1.00925
1.00903
1.0087
1.00824
1.00796
0.999231
0.997804
0.994584
0.988932
0.985554
0.983668
0.977858
0.972018
0.967376
0.965582
0.966376
0.968934
0.973192
0.978739
0.984762
0.989459
0.993864
0.997785
1.0018
1.00522
1.00824
1.00999
1.01077
1.01062
1.01052
1.01081
1.01133
1.01144
1.01154
1.01154
1.0111
1.01064
1.01044
1.01036
1.0101
1.00965
1.00936
1.00896
1.00863
1.00842
1.00053
0.997671
0.994082
0.98801
0.983347
0.981151
0.975891
0.969531
0.963819
0.961705
0.962646
0.965662
0.97052
0.976472
0.983071
0.98835
0.992985
0.997366
1.00178
1.00564
1.00881
1.01013
1.01067
1.01057
1.01058
1.01101
1.01168
1.01195
1.01213
1.01223
1.01186
1.01152
1.01133
1.01114
1.01085
1.01049
1.01011
1.00955
1.00914
1.00893
1.00001
0.997527
0.994263
0.987702
0.981006
0.978242
0.973673
0.966589
0.960004
0.957576
0.958592
0.961947
0.967643
0.974295
0.981517
0.987079
0.992334
0.997214
1.00204
1.00614
1.00909
1.01
1.01056
1.01065
1.01083
1.01149
1.01235
1.01282
1.01298
1.01299
1.01245
1.01205
1.01189
1.01164
1.01129
1.01095
1.01054
1.01007
1.00964
1.00944
1.00168
0.997128
0.993433
0.987037
0.978827
0.975039
0.970388
0.962929
0.95576
0.952836
0.953822
0.957573
0.964185
0.971716
0.97968
0.985837
0.991399
0.996943
1.00219
1.00645
1.00893
1.0099
1.0106
1.01097
1.01166
1.01258
1.01341
1.01372
1.0139
1.01357
1.01316
1.01283
1.01261
1.01242
1.01203
1.01171
1.01123
1.01068
1.01025
1.01005
1.00088
0.996288
0.992698
0.986647
0.976777
0.971371
0.965982
0.958451
0.951053
0.947497
0.948338
0.952371
0.960218
0.969194
0.978002
0.984481
0.99064
0.996845
1.00262
1.00668
1.00877
1.00985
1.01085
1.0115
1.01253
1.01359
1.01398
1.01407
1.01418
1.0138
1.01343
1.01329
1.01314
1.01299
1.01266
1.01235
1.01191
1.01136
1.01093
1.01072
1.00298
0.99689
0.991887
0.985959
0.975284
0.967394
0.960547
0.953209
0.94561
0.94093
0.941583
0.946113
0.955291
0.965993
0.976042
0.983288
0.989769
0.996644
1.00268
1.00651
1.00837
1.00965
1.01128
1.01241
1.01341
1.01433
1.0146
1.01493
1.01517
1.01492
1.01432
1.01429
1.01413
1.01395
1.01359
1.0132
1.01266
1.01209
1.01166
1.01147
1.00203
0.99592
0.9901
0.98468
0.973707
0.963243
0.95488
0.947054
0.938948
0.933028
0.933119
0.938239
0.949033
0.961974
0.973896
0.982161
0.989283
0.996695
1.00289
1.00663
1.00838
1.01001
1.01214
1.01371
1.01462
1.01524
1.01551
1.01598
1.0161
1.01604
1.0153
1.01524
1.01507
1.01478
1.01437
1.01398
1.01332
1.01286
1.01236
1.01223
1.00352
0.997575
0.989698
0.983621
0.972679
0.959653
0.949696
0.940138
0.930559
0.923425
0.922323
0.928137
0.940555
0.956282
0.971238
0.981284
0.98894
0.996936
1.00289
1.00703
1.00915
1.0113
1.01328
1.01501
1.01591
1.0165
1.01682
1.01761
1.01757
1.01724
1.01674
1.01618
1.0162
1.01561
1.0152
1.01482
1.01409
1.0137
1.01315
1.01307
1.00346
0.997658
0.988534
0.981691
0.970737
0.956414
0.944278
0.932296
0.920694
0.912011
0.908833
0.914608
0.928946
0.948851
0.968247
0.980737
0.989061
0.997828
1.00386
1.00818
1.01078
1.01325
1.01475
1.01629
1.01724
1.01798
1.01819
1.01893
1.01871
1.01823
1.01799
1.01734
1.01744
1.01684
1.01643
1.01597
1.01524
1.01473
1.01417
1.01407
1.00481
0.999156
0.9894
0.980723
0.969387
0.953862
0.938537
0.923564
0.909688
0.898343
0.891877
0.896446
0.913012
0.938831
0.964603
0.98049
0.98934
0.999113
1.00564
1.01009
1.01321
1.01555
1.01668
1.01803
1.01872
1.01969
1.01991
1.02012
1.02011
1.01955
1.01951
1.01914
1.01902
1.01857
1.01801
1.01745
1.01663
1.01602
1.01541
1.01534
1.00666
0.999677
0.990165
0.979884
0.967842
0.951689
0.933939
0.915125
0.897498
0.882066
0.870393
0.872011
0.89097
0.924787
0.959763
0.98037
0.990267
1.00124
1.00849
1.0133
1.01668
1.01816
1.01922
1.02055
1.02078
1.0215
1.0218
1.02175
1.02199
1.02127
1.02134
1.02094
1.02074
1.02021
1.01957
1.01891
1.01811
1.01747
1.01684
1.01683
1.00938
1.00085
0.991554
0.980253
0.967611
0.9496
0.930753
0.908937
0.884863
0.862949
0.843502
0.839615
0.860519
0.904617
0.95256
0.979356
0.991534
1.00399
1.01195
1.01705
1.02079
1.02152
1.02266
1.02376
1.02386
1.02428
1.0247
1.02457
1.02411
1.02322
1.0232
1.02251
1.02222
1.02158
1.02088
1.02023
1.01939
1.01884
1.01814
1.01819
1.01266
1.00277
0.992668
0.98098
0.967834
0.947463
0.927894
0.905064
0.873526
0.841823
0.811323
0.798112
0.819738
0.876365
0.94099
0.976231
0.992212
1.00679
1.01535
1.02037
1.02496
1.02592
1.02705
1.02748
1.02776
1.02802
1.0281
1.02784
1.02691
1.02578
1.02561
1.02444
1.02405
1.02333
1.02236
1.02179
1.02077
1.02019
1.0195
1.01957
1.01691
1.00616
0.99549
0.983144
0.969122
0.948705
0.926805
0.90259
0.864978
0.820888
0.775343
0.747491
0.767013
0.837506
0.922074
0.968875
0.990266
1.00804
1.01769
1.02363
1.0293
1.0306
1.03223
1.032
1.03245
1.03316
1.03274
1.03216
1.03081
1.02978
1.0291
1.02791
1.02734
1.0264
1.0252
1.02425
1.02305
1.02223
1.02163
1.02147
1.02256
1.01208
1.00216
0.988489
0.972429
0.954749
0.929767
0.901608
0.859597
0.802011
0.737858
0.688794
0.70062
0.784208
0.8913
0.954431
0.983592
1.00551
1.01768
1.02653
1.0335
1.03493
1.03746
1.03734
1.0381
1.03915
1.03812
1.03719
1.03576
1.03484
1.03362
1.0328
1.03189
1.03044
1.02936
1.0278
1.02685
1.02558
1.02493
1.02463
1.03206
1.02076
1.0116
0.998781
0.98064
0.965786
0.94108
0.904792
0.856267
0.784938
0.700392
0.624465
0.619174
0.711273
0.842029
0.928693
0.969995
0.998783
1.0155
1.02803
1.03704
1.03973
1.04304
1.04304
1.04404
1.04427
1.04274
1.04215
1.04026
1.03945
1.03801
1.03678
1.03601
1.03417
1.034
1.03201
1.03141
1.02956
1.02884
1.02841
1.04106
1.03346
1.02373
1.01276
0.995818
0.981037
0.961656
0.916612
0.854185
0.768302
0.663805
0.558376
0.523527
0.613427
0.76655
0.884249
0.945771
0.986098
1.01048
1.02746
1.04021
1.04526
1.04922
1.04883
1.05003
1.04951
1.04783
1.04752
1.0449
1.04425
1.04293
1.04156
1.04157
1.03945
1.03961
1.03668
1.03594
1.03344
1.03264
1.03215
1.06257
1.05289
1.04249
1.03249
1.02237
1.00721
0.987185
0.935923
0.854349
0.750503
0.62768
0.494914
0.417881
0.487378
0.658516
0.811368
0.902983
0.959292
0.996038
1.02132
1.03928
1.04832
1.05496
1.05623
1.05843
1.05821
1.05621
1.05622
1.05365
1.05357
1.05262
1.05107
1.05036
1.04673
1.04593
1.04193
1.0414
1.0383
1.0382
1.0373
1.08583
1.08183
1.07766
1.07469
1.07216
1.05494
1.01932
0.955595
0.854735
0.729351
0.588142
0.434838
0.31094
0.334581
0.51247
0.703675
0.83197
0.910433
0.965059
1.00298
1.02919
1.04508
1.05762
1.06234
1.06629
1.06737
1.06619
1.06682
1.06467
1.0651
1.06288
1.06065
1.05869
1.05468
1.05387
1.05024
1.05026
1.04749
1.04755
1.04634
1.13247
1.13405
1.13122
1.14317
1.14276
1.11074
1.04924
0.964723
0.844299
0.699038
0.539908
0.375076
0.220564
0.164894
0.327289
0.551014
0.722051
0.832414
0.909515
0.964323
1.00366
1.02927
1.04888
1.05811
1.06575
1.07012
1.07053
1.07293
1.07087
1.0715
1.06921
1.06853
1.06741
1.06544
1.06486
1.06177
1.06204
1.05923
1.06031
1.05663
1.1987
1.19599
1.2103
1.21478
1.1796
1.12787
1.04654
0.942108
0.804439
0.646765
0.476718
0.309959
0.171158
0.0749707
0.099243
0.343027
0.561633
0.715445
0.821153
0.899302
0.957212
0.994766
1.02484
1.0429
1.05578
1.06638
1.06976
1.07576
1.07659
1.07954
1.07944
1.08059
1.08057
1.0809
1.08061
1.07903
1.07787
1.07479
1.07362
1.07126
1.27403
1.29523
1.28612
1.24879
1.18978
1.11925
1.0139
0.880988
0.723012
0.558157
0.396134
0.256734
0.204171
0.225184
0.147542
0.174007
0.368805
0.555741
0.691468
0.795886
0.878534
0.936122
0.98254
1.01643
1.03638
1.05742
1.06686
1.07815
1.08413
1.08977
1.0934
1.09652
1.0983
1.09979
1.10026
1.10051
1.09841
1.09467
1.0911
1.09033
1.36218
1.34538
1.31071
1.2524
1.17674
1.0659
0.924366
0.755655
0.576156
0.403453
0.272747
0.259609
0.308336
0.42503
0.450629
0.36533
0.161023
0.345287
0.507303
0.639461
0.751171
0.844722
0.910607
0.972439
1.00478
1.03724
1.05688
1.07147
1.0844
1.09331
1.10223
1.10724
1.11282
1.11642
1.11927
1.12082
1.12223
1.12264
1.1217
1.12003
1.40995
1.35038
1.2697
1.1746
1.05686
0.905263
0.731091
0.531828
0.329068
0.128468
0.0792409
0.232354
0.352874
0.453596
0.578242
0.5663
0.497623
0.217754
0.230862
0.447864
0.561993
0.694545
0.776251
0.866904
0.928109
0.985264
1.0254
1.05436
1.07373
1.08495
1.09414
1.09824
1.10301
1.11126
1.1138
1.12039
1.12181
1.12885
1.13301
1.14365
1.02663
0.87905
0.718116
0.543902
0.358759
0.195981
0.164231
0.283335
0.40565
0.468252
0.531795
0.575908
0.611618
0.632959
0.663505
0.637333
0.612173
0.545469
0.464596
0.497361
0.16118
0.223034
0.389791
0.496294
0.649462
0.743447
0.836691
0.894376
0.939525
0.985539
1.01777
1.05411
1.07155
1.09589
1.11524
1.13513
1.15246
1.16434
1.17516
1.18054
0.365223
0.463885
0.551048
0.633301
0.699946
0.749379
0.785731
0.802229
0.807356
0.802447
0.786419
0.765876
0.727572
0.690162
0.642593
0.584044
0.523241
0.455203
0.416203
0.467308
0.429005
0.373032
0.37091
0.363891
0.357122
0.330842
0.0617566
0.555665
0.608612
0.642292
0.681694
0.703114
0.753982
0.778461
0.83447
0.858542
0.916551
0.945948
1.01442
1.05241
1.01253
1.01253
1.0149
1.01571
1.0163
1.01717
1.01714
1.01787
1.01756
1.01823
1.01779
1.01823
1.01797
1.01816
1.01805
1.01807
1.018
1.01791
1.01772
1.01746
1.01713
1.01667
1.01606
1.01523
1.01406
1.01237
1.00981
1.00591
1.00027
0.9927
0.982846
0.971276
0.963366
0.968504
0.984541
0.99502
1.00093
1.00193
1.00144
1.00225
0.996721
0.99705
0.996954
0.996293
0.996782
0.99635
0.997087
0.996656
0.9971
0.996977
0.997004
0.997092
0.997017
0.997078
0.997057
0.997072
0.997002
0.996943
0.996914
0.996874
0.996819
0.996776
0.996815
0.996992
0.997456
0.99836
0.999908
1.00233
1.00608
1.01117
1.01642
1.02078
1.02269
1.02274
1.01829
1.00844
1.00456
1.0033
1.00327
1.00304
1.00841
1.01045
1.01239
1.01443
1.01466
1.01619
1.01595
1.01701
1.01644
1.01738
1.01665
1.0173
1.01685
1.0171
1.01686
1.0169
1.01676
1.01663
1.01626
1.01581
1.01521
1.01442
1.01338
1.01202
1.01027
1.00802
1.00512
1.00143
0.997241
0.993707
0.991487
0.990613
0.992675
0.999349
1.00231
1.00286
1.00249
1.00204
1.0028
1.00324
1.00208
1.00109
1.00058
0.999796
0.999791
0.999343
0.99925
0.999427
0.998987
0.999443
0.998992
0.999327
0.999038
0.999264
0.999182
0.999245
0.999162
0.999184
0.999345
0.999587
0.999863
1.0003
1.00094
1.00187
1.0032
1.00502
1.00729
1.00991
1.01296
1.01643
1.01941
1.02048
1.02081
1.01965
1.01686
1.01307
1.00861
1.00609
1.00525
1.00438
1.00562
1.00892
1.01019
1.01233
1.01296
1.01411
1.01413
1.01506
1.01472
1.01543
1.0151
1.01541
1.01521
1.01527
1.0151
1.01508
1.015
1.01478
1.01429
1.01367
1.01289
1.01188
1.01064
1.00912
1.00733
1.00534
1.00307
1.0006
0.998528
0.997682
0.99781
0.997882
0.999485
1.00357
1.00519
1.00522
1.00487
1.00464
1.00485
1.00494
1.00505
1.00367
1.00318
1.00291
1.00248
1.00238
1.00197
1.00212
1.0017
1.00195
1.00159
1.00188
1.00163
1.00183
1.00176
1.00174
1.00162
1.00176
1.00206
1.00247
1.003
1.00371
1.0046
1.0057
1.00702
1.00855
1.01007
1.01136
1.01277
1.01466
1.01561
1.01527
1.01512
1.01479
1.01338
1.01109
1.00895
1.00728
1.00622
1.00556
1.00478
1.00764
1.0087
1.01034
1.01122
1.0122
1.01246
1.01315
1.01314
1.01362
1.01344
1.01375
1.01354
1.01363
1.0135
1.01358
1.01345
1.01316
1.01258
1.01186
1.01102
1.01001
1.00882
1.00746
1.00603
1.00452
1.00292
1.0014
1.00058
1.00089
1.00119
1.00098
1.00223
1.00482
1.00601
1.00619
1.00626
1.00628
1.00626
1.00592
1.00652
1.00563
1.00514
1.00507
1.00511
1.00499
1.00477
1.00478
1.00453
1.00458
1.00445
1.00449
1.00443
1.00448
1.00432
1.00424
1.00418
1.00439
1.00474
1.00519
1.00574
1.00645
1.00726
1.00812
1.00909
1.01011
1.01087
1.01131
1.01203
1.01278
1.01273
1.0119
1.01133
1.01112
1.0103
1.00883
1.0079
1.00712
1.00646
1.00604
1.00506
1.00722
1.00816
1.00932
1.00998
1.01078
1.01111
1.01168
1.01176
1.01212
1.01212
1.0123
1.01226
1.01236
1.01242
1.01245
1.01229
1.01194
1.01137
1.01067
1.00987
1.00893
1.0079
1.0068
1.00575
1.00488
1.00408
1.0035
1.00367
1.00445
1.00479
1.00457
1.00542
1.00679
1.00711
1.00711
1.00713
1.00712
1.00686
1.00632
1.00723
1.00689
1.0068
1.00673
1.00674
1.00694
1.00715
1.00719
1.00714
1.00715
1.00707
1.00707
1.00699
1.00685
1.00665
1.00657
1.0066
1.00679
1.00709
1.00744
1.00782
1.00837
1.00903
1.00966
1.0102
1.01055
1.01063
1.01073
1.01117
1.01137
1.01096
1.00995
1.00939
1.00919
1.00836
1.00777
1.00746
1.00714
1.00688
1.00651
1.00608
1.00738
1.00809
1.00906
1.00962
1.0102
1.01037
1.01082
1.01087
1.01118
1.01124
1.01142
1.01156