/*--------------------------------*- C++ -*----------------------------------*\
  =========                 |
  \\      /  F ield         | OpenFOAM: The Open Source CFD Toolbox
   \\    /   O peration     | Website:  https://openfoam.org
    \\  /    A nd           | Version:  11
     \\/     M anipulation  |
\*---------------------------------------------------------------------------*/
FoamFile
{
    format      ascii;
    class       volScalarField;
    location    "2";
    object      p;
}
// * * * * * * * * * * * * * * * * * * * * * * * * * * * * * * * * * * * * * //

dimensions      [0 2 -2 0 0 0 0];

internalField   nonuniform List<scalar> 
9600
(
0.0369942
0.0366716
0.0360648
0.0359797
0.0363596
0.0344558
0.030815
0.0295449
0.0292983
0.0273061
0.0241434
0.0205331
0.0167107
0.0126685
0.0084364
0.00404009
-0.000355823
-0.00451327
-0.00834758
-0.0120119
-0.0154307
-0.0183331
-0.0204614
-0.0216904
-0.0222245
-0.0221993
-0.0216055
-0.0203227
-0.0185397
-0.016457
-0.0144474
-0.0124085
-0.0105062
-0.00884103
-0.00730908
-0.00600826
-0.00492578
-0.00374493
-0.00269149
-0.000480487
0.0368536
0.0365883
0.0364589
0.0360259
0.0356388
0.032751
0.0285491
0.0273974
0.0267951
0.0244405
0.0215253
0.0181934
0.0145684
0.0106853
0.00664516
0.00246105
-0.00170239
-0.00555196
-0.00908973
-0.0125545
-0.0158473
-0.0184996
-0.0204594
-0.0216622
-0.0222841
-0.0223344
-0.021803
-0.0205734
-0.018887
-0.0168027
-0.014794
-0.0126823
-0.0107148
-0.00885001
-0.00732962
-0.00582752
-0.00473324
-0.00403713
-0.00358294
-0.00434531
0.0368678
0.0366204
0.0363587
0.0356172
0.0348047
0.0321022
0.0303191
0.0303741
0.0280477
0.0273381
0.0240646
0.0201751
0.0162191
0.012037
0.00777257
0.00342802
-0.000735459
-0.00465986
-0.00834007
-0.0118728
-0.0151802
-0.0181454
-0.0203866
-0.0217571
-0.022453
-0.0225943
-0.0221727
-0.0211218
-0.019635
-0.0178403
-0.0160762
-0.0142242
-0.0124975
-0.0108551
-0.00925104
-0.00779898
-0.00634718
-0.00488021
-0.00318576
-0.000973707
0.0369189
0.036627
0.0361468
0.0349734
0.0341448
0.0314673
0.028498
0.0268155
0.0252608
0.0227869
0.0195462
0.0164115
0.0129584
0.00915219
0.00523589
0.00109443
-0.00304784
-0.00674148
-0.0101073
-0.0134696
-0.0166991
-0.0191323
-0.0208952
-0.0220311
-0.0227185
-0.0228516
-0.0223516
-0.0211491
-0.0194478
-0.0173299
-0.0152309
-0.0130423
-0.0109447
-0.00909474
-0.00754041
-0.00620104
-0.0052674
-0.00437584
-0.00416695
-0.00519914
0.0369029
0.0365212
0.0356866
0.0346436
0.0332638
0.0312871
0.0306411
0.0295731
0.0280924
0.0252948
0.0231874
0.0194872
0.015566
0.011337
0.00695428
0.00272567
-0.00141442
-0.00515349
-0.00867278
-0.012091
-0.0152446
-0.0182413
-0.0206545
-0.0222261
-0.0229311
-0.0231706
-0.0228627
-0.0219889
-0.0206957
-0.0191576
-0.0175674
-0.0160198
-0.0144281
-0.0128426
-0.0110253
-0.00922919
-0.00758854
-0.00598036
-0.00406813
-0.0018515
0.0367821
0.0363298
0.0352904
0.0342458
0.0328955
0.0310512
0.0286596
0.0267621
0.0245183
0.0215653
0.018451
0.0150982
0.0116895
0.00787741
0.00383114
-0.000259088
-0.00427853
-0.00800809
-0.0113342
-0.0146383
-0.0178381
-0.0201642
-0.0218638
-0.02278
-0.0235044
-0.0236609
-0.0232509
-0.022076
-0.0203
-0.0181408
-0.0158975
-0.0135473
-0.0112786
-0.00947518
-0.00797221
-0.00678953
-0.0058628
-0.00497228
-0.00475134
-0.0053693
0.0366032
0.0360632
0.0350283
0.0340718
0.0323783
0.030909
0.0292321
0.0280804
0.0266589
0.0241038
0.0213728
0.0183559
0.0146249
0.0104548
0.0060872
0.00178759
-0.00229962
-0.00599692
-0.0094115
-0.0127273
-0.0157645
-0.0186672
-0.0210664
-0.0230551
-0.0238301
-0.024039
-0.0237688
-0.0229704
-0.0217856
-0.0204278
-0.0190103
-0.0176442
-0.0162075
-0.0145481
-0.0127115
-0.0104562
-0.00857663
-0.00694799
-0.00513774
-0.00308755
0.0364228
0.0358246
0.0347922
0.0339554
0.0322335
0.0306298
0.0286732
0.0270106
0.0244783
0.0211203
0.017615
0.014322
0.0106497
0.00669345
0.00256775
-0.00158947
-0.00562683
-0.00934055
-0.0127262
-0.0160614
-0.019281
-0.021683
-0.0234664
-0.0240454
-0.0246388
-0.0248995
-0.0244659
-0.0233409
-0.0215315
-0.0192945
-0.016885
-0.0144098
-0.0119338
-0.0100222
-0.0086367
-0.0075877
-0.00653025
-0.00564472
-0.00536961
-0.0055509
0.0363509
0.0356536
0.0346191
0.0336832
0.0322173
0.0303644
0.0286289
0.0271896
0.0249854
0.0222952
0.0199035
0.0169336
0.0132559
0.00922602
0.00494038
0.000644279
-0.00346462
-0.0072052
-0.0105971
-0.0138464
-0.0167226
-0.0195284
-0.0217738
-0.0242759
-0.0251899
-0.0253367
-0.0250921
-0.0241823
-0.0230076
-0.0217158
-0.0204251
-0.0191064
-0.0177955
-0.0161575
-0.0141058
-0.0116348
-0.00955323
-0.00778919
-0.00610633
-0.00420426
0.0364131
0.0354657
0.0344608
0.0334606
0.0321242
0.0300004
0.0284604
0.0267867
0.023975
0.0207199
0.0177195
0.0136468
0.00976284
0.00564346
0.00135598
-0.00291307
-0.00700486
-0.0108145
-0.0143636
-0.0177572
-0.0209715
-0.0236583
-0.025658
-0.0258276
-0.0262535
-0.0265098
-0.0260672
-0.0249798
-0.0231937
-0.0208681
-0.0183021
-0.0157256
-0.0130534
-0.01096
-0.00957587
-0.00855299
-0.00748456
-0.00645257
-0.00599286
-0.00586621
0.0364171
0.0353523
0.0344233
0.0333795
0.03193
0.0300066
0.0283674
0.026549
0.02394
0.0210859
0.0182237
0.0151828
0.0115974
0.00763955
0.003413
-0.000855486
-0.00502024
-0.00884508
-0.012313
-0.0156039
-0.018394
-0.0208185
-0.0230051
-0.0259104
-0.0270554
-0.0271889
-0.0267702
-0.0258147
-0.0245134
-0.0231553
-0.0218537
-0.0205392
-0.0192831
-0.0176891
-0.0154358
-0.0127648
-0.0105033
-0.00864838
-0.00692753
-0.0051128
0.0363596
0.0354018
0.0344457
0.0332954
0.0317788
0.0299127
0.0282998
0.02639
0.0235276
0.0201455
0.0168112
0.0135647
0.00910567
0.00468533
0.000237476
-0.00421843
-0.00849278
-0.0125074
-0.0162829
-0.0197107
-0.023053
-0.0261458
-0.0283493
-0.0282211
-0.028442
-0.0286288
-0.0281629
-0.0269772
-0.0252625
-0.0229193
-0.0201944
-0.0174942
-0.0146573
-0.0122481
-0.0108459
-0.00994066
-0.00875898
-0.00750325
-0.00673496
-0.00621465
0.0363846
0.035538
0.0344473
0.0332019
0.0317671
0.0300489
0.0282723
0.026053
0.0231932
0.0201056
0.0168679
0.0135257
0.00984571
0.00583029
0.00154721
-0.0028267
-0.00707159
-0.0110749
-0.014654
-0.0179925
-0.0208278
-0.0229836
-0.0251886
-0.0281079
-0.0294986
-0.0296392
-0.0291063
-0.0279978
-0.0264626
-0.0249007
-0.0234593
-0.022027
-0.020749
-0.0191365
-0.0165774
-0.0138162
-0.0114324
-0.00956294
-0.00766578
-0.0059474
0.0365005
0.0356691
0.034464
0.0331989
0.0318646
0.0301193
0.028107
0.0257863
0.0229916
0.0196596
0.0161006
0.0124509
0.00842769
0.00380573
-0.000927766
-0.00568047
-0.0102525
-0.0145189
-0.0185213
-0.0221118
-0.0255342
-0.0288506
-0.0309781
-0.0311964
-0.0312841
-0.0313669
-0.0308057
-0.0295696
-0.0278026
-0.0254771
-0.0226469
-0.0197423
-0.0167863
-0.0141974
-0.0128643
-0.0117089
-0.0104073
-0.00894055
-0.00767625
-0.00671623
0.0366621
0.0357495
0.034559
0.0332742
0.0320061
0.0302233
0.0279913
0.0255077
0.0226773
0.0193798
0.0158407
0.0121693
0.00816641
0.00385148
-0.000657826
-0.00529014
-0.00974748
-0.0139411
-0.0177209
-0.0211523
-0.0241051
-0.0262588
-0.0285306
-0.0310744
-0.0326361
-0.0327676
-0.0321763
-0.0308642
-0.0291089
-0.0271843
-0.0254518
-0.0237703
-0.0222489
-0.0204768
-0.0177488
-0.0149721
-0.0124914
-0.0105652
-0.00871064
-0.00693722
0.0368903
0.0358843
0.0346782
0.0333984
0.0321897
0.03034
0.0278443
0.0252475
0.022516
0.0191852
0.0153465
0.0114298
0.00721511
0.0025211
-0.00246661
-0.00752773
-0.0124184
-0.0169862
-0.0212372
-0.0250635
-0.0285499
-0.0318597
-0.0339663
-0.034877
-0.0348964
-0.0349025
-0.0342226
-0.0328387
-0.0309134
-0.028604
-0.0257356
-0.0226398
-0.0195658
-0.0168033
-0.0149869
-0.0136169
-0.0121885
-0.0105171
-0.00895127
-0.00763201
0.037201
0.0361424
0.0348415
0.0335721
0.0323827
0.0304641
0.0277583
0.0250796
0.0223585
0.0188819
0.0148337
0.0108049
0.00651795
0.00178947
-0.00317975
-0.00822508
-0.0130423
-0.0175258
-0.0216007
-0.0252302
-0.0283728
-0.0307361
-0.0330353
-0.0349902
-0.0366302
-0.0367553
-0.0361252
-0.0346982
-0.0326299
-0.03029
-0.0281084
-0.0260175
-0.0240895
-0.0221149
-0.0194517
-0.0165173
-0.0138462
-0.011794
-0.00995863
-0.00819978
0.0375747
0.0364724
0.0350764
0.0337866
0.0325964
0.0306346
0.0277786
0.0249508
0.0221389
0.0185773
0.0143883
0.0101789
0.00569781
0.000685223
-0.00462028
-0.0100065
-0.0152439
-0.020139
-0.0246793
-0.0287869
-0.0323818
-0.0356633
-0.0382012
-0.0396472
-0.0395037
-0.039407
-0.0386821
-0.0370643
-0.034913
-0.0324455
-0.0295908
-0.0263254
-0.0230705
-0.0200373
-0.0177018
-0.0159781
-0.0142493
-0.012292
-0.0104968
-0.00887263
0.0380311
0.0368416
0.0354202
0.0340909
0.0328538
0.0308736
0.0278762
0.0248087
0.0219025
0.0183025
0.0139084
0.00939386
0.00466787
-0.000552036
-0.00605457
-0.0115878
-0.0169212
-0.021847
-0.0263313
-0.0303454
-0.0337866
-0.0364062
-0.0384723
-0.0398018
-0.0417144
-0.0418914
-0.0411552
-0.0396108
-0.0373455
-0.0345972
-0.0318224
-0.0291561
-0.0266647
-0.0243311
-0.0216099
-0.0186031
-0.0157492
-0.013477
-0.0115383
-0.00973407
0.0385453
0.0372971
0.035907
0.0345083
0.0331705
0.0311477
0.0280062
0.0246879
0.0216435
0.0179764
0.013347
0.00850632
0.00358276
-0.00180192
-0.00756729
-0.0134161
-0.0191125
-0.0244095
-0.0292438
-0.0336399
-0.0374551
-0.0407447
-0.0436551
-0.0455053
-0.0453966
-0.0451091
-0.0443434
-0.0426496
-0.0401863
-0.0373353
-0.0343212
-0.030971
-0.0274711
-0.0240628
-0.0211336
-0.0188481
-0.0167577
-0.0144564
-0.01234
-0.0105685
0.0391696
0.0379229
0.0365366
0.0350213
0.0335258
0.0314425
0.0282139
0.024623
0.0213431
0.0175602
0.0127299
0.00756581
0.00236971
-0.00328262
-0.00942516
-0.0156375
-0.0216065
-0.0271288
-0.0321069
-0.036547
-0.0404077
-0.0434278
-0.0457094
-0.0476309
-0.0486101
-0.0485437
-0.0476837
-0.0459331
-0.0434296
-0.0403293
-0.0370315
-0.0336959
-0.0305049
-0.0275986
-0.0245961
-0.0214605
-0.0183948
-0.0158097
-0.0135549
-0.0116365
0.0399536
0.0386633
0.0372283
0.035572
0.0339046
0.0317907
0.0285073
0.0245949
0.0209793
0.0170617
0.0120364
0.00647702
0.000899343
-0.00506525
-0.0115242
-0.0180479
-0.024307
-0.0301362
-0.0353851
-0.0400932
-0.0442327
-0.0475733
-0.0503594
-0.052414
-0.0530359
-0.0526331
-0.0516533
-0.0498405
-0.0472035
-0.043879
-0.0403524
-0.0367283
-0.0329886
-0.0292405
-0.0256322
-0.0225049
-0.0199108
-0.0172502
-0.0147348
-0.0126618
0.0409245
0.0395087
0.0380114
0.036236
0.034394
0.0322319
0.0288956
0.0246167
0.0206066
0.0164397
0.0111546
0.00519129
-0.00081683
-0.00709518
-0.0138795
-0.0208034
-0.0274472
-0.0336482
-0.0392351
-0.0441692
-0.0484933
-0.0519771
-0.0545774
-0.0564149
-0.0573336
-0.0571628
-0.0560955
-0.0541705
-0.0514586
-0.0479896
-0.0441434
-0.0402103
-0.0362076
-0.0324941
-0.0290043
-0.025512
-0.0220326
-0.0190346
-0.0163366
-0.014088
0.0419832
0.0404402
0.03891
0.0370311
0.0349572
0.0326511
0.0292664
0.02465
0.0201418
0.0156722
0.0100948
0.00365163
-0.00284438
-0.00949488
-0.0166401
-0.0240136
-0.0310859
-0.0376523
-0.0436026
-0.0487746
-0.0532832
-0.0569315
-0.0596392
-0.0616152
-0.0627579
-0.0625178
-0.0613281
-0.0592423
-0.0563886
-0.052784
-0.0486291
-0.0443702
-0.0400778
-0.0358196
-0.0316544
-0.0276445
-0.0242396
-0.0210945
-0.0182046
-0.0157498
0.0431856
0.0415493
0.0399512
0.0379557
0.0356188
0.033079
0.0296513
0.0247568
0.0196432
0.0147753
0.00888006
0.00184542
-0.00529828
-0.0123826
-0.0198845
-0.0277081
-0.0352833
-0.0422516
-0.0485943
-0.05409
-0.0587798
-0.0626336
-0.0655264
-0.0674569
-0.0685296
-0.0685
-0.0672848
-0.065079
-0.062048
-0.0583323
-0.0539373
-0.0492952
-0.0445934
-0.0399038
-0.0354869
-0.031361
-0.0273471
-0.0237443
-0.0205362
-0.0177673
0.044662
0.0428808
0.0411626
0.038987
0.0363258
0.0334289
0.0298834
0.0247947
0.0189993
0.0135971
0.00742052
-0.000214686
-0.00821583
-0.0158995
-0.0237723
-0.0320094
-0.0401403
-0.0476079
-0.0543819
-0.0602476
-0.0651784
-0.0691908
-0.0722138
-0.0741978
-0.0753522
-0.075437
-0.0742183
-0.0719007
-0.0686596
-0.0647731
-0.0601907
-0.0551805
-0.0500519
-0.0449163
-0.039962
-0.0352853
-0.0309849
-0.0270608
-0.0235679
-0.0205212
0.0464467
0.0443901
0.0424891
0.0401382
0.0371665
0.0338408
0.0300209
0.0247289
0.0182224
0.0120461
0.00558271
-0.00253495
-0.0115485
-0.0200946
-0.0284353
-0.0370678
-0.0457829
-0.0538441
-0.0610976
-0.067377
-0.0726238
-0.0768205
-0.0799569
-0.0819679
-0.0830779
-0.0832286
-0.0821756
-0.07988
-0.0764668
-0.0723367
-0.0675118
-0.0621658
-0.0566498
-0.0510832
-0.0455537
-0.0402223
-0.0351785
-0.0307296
-0.0267238
-0.0232519
0.0485682
0.046179
0.0440555
0.0414671
0.038102
0.0341961
0.0298552
0.0243198
0.017187
0.00994529
0.00291374
-0.00545838
-0.0153788
-0.0250401
-0.0340668
-0.0431186
-0.0524164
-0.061182
-0.0689633
-0.0756761
-0.0812751
-0.0856627
-0.0889913
-0.091104
-0.0921436
-0.0922443
-0.0912565
-0.0890641
-0.0855952
-0.081292
-0.0763676
-0.0708686
-0.0650781
-0.0591301
-0.0531858
-0.0474893
-0.0418705
-0.036505
-0.0316434
-0.0276188
0.051061
0.0482937
0.0457519
0.0427736
0.0389707
0.0344519
0.0294562
0.0235402
0.0158802
0.00740714
-0.00063232
-0.00926683
-0.0198316
-0.0307797
-0.0407872
-0.0503562
-0.0601945
-0.0697432
-0.0781572
-0.0852666
-0.0912389
-0.0959
-0.0993526
-0.101591
-0.102657
-0.102745
-0.101679
-0.0996434
-0.0963946
-0.0920128
-0.086912
-0.0812486
-0.0750146
-0.0684877
-0.0618198
-0.0550663
-0.0486452
-0.0428536
-0.0375457
-0.0328437
0.0537655
0.0505298
0.0475069
0.0441265
0.0399019
0.0346563
0.0286273
0.0220228
0.0138579
0.00424506
-0.00529641
-0.0146389
-0.0255416
-0.0377486
-0.0491898
-0.0593727
-0.0695574
-0.0798337
-0.089106
-0.0966957
-0.102811
-0.10782
-0.111595
-0.114024
-0.115125
-0.115471
-0.114518
-0.112511
-0.109414
-0.105171
-0.0999561
-0.0941487
-0.0876878
-0.0809362
-0.0738887
-0.0668157
-0.0596916
-0.0525119
-0.0456233
-0.0400142
0.0567851
0.0529513
0.0493896
0.045478
0.0406869
0.034789
0.0277692
0.0200795
0.0111275
0.000410573
-0.0110294
-0.021767
-0.0329035
-0.0459327
-0.0592166
-0.0706591
-0.0809463
-0.0914989
-0.101749
-0.110164
-0.116434
-0.121533
-0.125406
-0.128244
-0.12988
-0.129962
-0.128946
-0.127246
-0.124394
-0.120456
-0.115566
-0.109682
-0.103048
-0.0957376
-0.0879405
-0.0799095
-0.0717171
-0.0638521
-0.056743
-0.0503323
0.0602555
0.0556077
0.0511389
0.046211
0.0402452
0.0332315
0.0251642
0.0161739
0.00614381
-0.0053695
-0.0183569
-0.0313075
-0.0436106
-0.0566389
-0.0708508
-0.0847009
-0.0962821
-0.106626
-0.116657
-0.126081
-0.133548
-0.138801
-0.142136
-0.14482
-0.146796
-0.147446
-0.147509
-0.146325
-0.143403
-0.139624
-0.135046
-0.129124
-0.122038
-0.114475
-0.106469
-0.0980661
-0.0895624
-0.080986
-0.0722111
-0.0642799
0.0641342
0.058779
0.0537948
0.0482648
0.0413931
0.0330544
0.0232516
0.0121462
-1.68626e-05
-0.0131975
-0.0275088
-0.0427693
-0.0574059
-0.071135
-0.0853231
-0.100526
-0.114462
-0.12586
-0.135201
-0.144226
-0.152817
-0.159114
-0.163041
-0.165287
-0.166703
-0.167537
-0.167366
-0.165812
-0.163772
-0.161491
-0.157787
-0.152529
-0.146407
-0.139567
-0.131524
-0.122312
-0.11278
-0.103428
-0.0941751
-0.0864031
0.0668579
0.0592122
0.0522398
0.0446678
0.0360347
0.0262917
0.0153204
0.00274311
-0.0111205
-0.0262935
-0.0423357
-0.0591576
-0.0760229
-0.0918242
-0.106958
-0.122093
-0.136812
-0.14988
-0.160291
-0.168635
-0.175928
-0.182229
-0.186752
-0.189312
-0.190414
-0.191225
-0.191611
-0.191555
-0.190634
-0.18844
-0.184842
-0.180617
-0.175548
-0.169488
-0.162181
-0.154205
-0.145651
-0.136115
-0.126125
-0.11642
0.074085
0.0668265
0.0595311
0.0507044
0.0392528
0.0251616
0.00954104
-0.00765724
-0.0257892
-0.0441065
-0.0628746
-0.0819146
-0.100798
-0.119086
-0.136035
-0.15193
-0.166788
-0.180799
-0.192482
-0.201217
-0.207728
-0.212947
-0.216895
-0.219387
-0.220468
-0.220651
-0.220376
-0.220047
-0.219729
-0.219037
-0.217735
-0.215643
-0.212148
-0.207095
-0.201014
-0.194934
-0.188252
-0.181154
-0.173487
-0.166993
0.0687721
0.055713
0.0426497
0.0291024
0.0152038
0.000349077
-0.0162525
-0.0348872
-0.054894
-0.0757807
-0.0969283
-0.118198
-0.138907
-0.159173
-0.178142
-0.195527
-0.210763
-0.224103
-0.235245
-0.243765
-0.249554
-0.25313
-0.255002
-0.255857
-0.255962
-0.255637
-0.255274
-0.255186
-0.255739
-0.256504
-0.257545
-0.257833
-0.257421
-0.256083
-0.253348
-0.2492
-0.244087
-0.237862
-0.232372
-0.228473
0.0940183
0.0831691
0.0675572
0.0469965
0.0223252
-0.00346843
-0.029093
-0.0543746
-0.0794298
-0.10441
-0.129389
-0.153978
-0.177556
-0.199953
-0.220787
-0.239406
-0.255317
-0.268199
-0.278349
-0.28558
-0.290014
-0.291742
-0.291202
-0.289206
-0.286643
-0.284394
-0.283272
-0.283579
-0.285722
-0.289931
-0.295913
-0.303477
-0.31147
-0.318481
-0.324896
-0.328709
-0.32988
-0.328458
-0.32509
-0.320525
0.0246292
-0.000711499
-0.0253014
-0.0498397
-0.0747762
-0.101007
-0.128554
-0.157481
-0.187227
-0.217264
-0.24683
-0.275325
-0.302052
-0.326509
-0.348251
-0.366682
-0.381449
-0.392181
-0.398985
-0.401863
-0.401311
-0.397369
-0.390371
-0.381048
-0.370471
-0.359869
-0.350673
-0.343808
-0.340251
-0.340488
-0.34509
-0.354083
-0.36752
-0.385602
-0.407388
-0.430056
-0.452728
-0.474748
-0.495788
-0.513369
0.104713
0.0691189
0.028459
-0.011949
-0.0504302
-0.0875748
-0.124294
-0.160529
-0.196299
-0.230785
-0.263544
-0.293837
-0.321279
-0.345628
-0.366585
-0.383703
-0.396546
-0.404539
-0.407266
-0.404402
-0.395432
-0.380587
-0.360898
-0.337768
-0.312898
-0.288028
-0.264796
-0.244834
-0.229385
-0.219994
-0.21729
-0.222237
-0.23472
-0.254071
-0.280486
-0.314245
-0.352484
-0.39134
-0.426434
-0.456914
-0.295285
-0.335189
-0.377821
-0.430283
-0.489245
-0.547571
-0.603618
-0.655658
-0.702565
-0.742567
-0.776785
-0.807605
-0.836559
-0.861952
-0.882021
-0.894582
-0.899143
-0.894989
-0.882426
-0.861766
-0.833738
-0.799348
-0.758686
-0.712016
-0.66038
-0.605613
-0.550268
-0.49684
-0.447636
-0.404791
-0.370201
-0.345552
-0.332745
-0.331713
-0.343015
-0.361384
-0.375752
-0.38492
-0.387907
-0.390073
-0.00089986
-0.000914339
-0.00254048
-0.000656931
-0.000896483
0.000981193
0.00136347
0.00212589
0.0023451
0.00282926
0.0030295
0.00292945
0.00259761
0.00205023
0.00132977
0.00060593
-6.67392e-06
-0.000467439
-0.000785829
-0.000909725
-0.000912198
-0.000858485
-0.000810151
-0.000872641
-0.000920855
-0.000878163
-0.000712409
-0.000636195
-0.000649461
-0.000612092
-0.000514233
-0.000452898
-0.000384771
-0.000228603
-2.6934e-06
0.000111129
0.000447429
0.000599735
0.00203916
0.000525061
-0.00432999
-0.00184341
-0.00208063
-0.00106298
-0.000500991
0.000887358
0.00167514
0.0024134
0.00277389
0.00314573
0.00324968
0.00306198
0.00265354
0.00201652
0.00119702
0.000370494
-0.000322111
-0.000827224
-0.00114346
-0.0012487
-0.00127602
-0.00123927
-0.00116683
-0.0011569
-0.00113962
-0.00117359
-0.00113703
-0.00096665
-0.000936534
-0.000864741
-0.000723856
-0.000658081
-0.000562862
-0.0003533
-0.000147127
1.14742e-05
0.000259748
0.000571608
0.000498078
-0.00181702
-0.00035145
-0.00183519
-0.00186695
-0.00130723
-0.000288086
0.000894214
0.00182849
0.00267443
0.00315342
0.00346795
0.00352527
0.00327797
0.0027911
0.00206466
0.00116708
0.000257991
-0.000495968
-0.00106762
-0.00142528
-0.00158756
-0.00166417
-0.0016567
-0.0015815
-0.00149955
-0.00145505
-0.0014752
-0.00151789
-0.00135999
-0.00121866
-0.00100725
-0.000808776
-0.000803528
-0.000706899
-0.000458485
-0.000272299
-0.000107963
0.000119941
0.000530034
0.00131873
0.00204561
-0.00454493
-0.00252914
-0.00187196
-0.00136768
-0.000262142
0.000884525
0.00190711
0.00292118
0.00350487
0.00379467
0.00385609
0.00358469
0.00302146
0.00221025
0.00124053
0.000268156
-0.000558956
-0.00121679
-0.00165129
-0.00191107
-0.00202611
-0.00205409
-0.00200407
-0.00192605
-0.00193333
-0.00187168
-0.00185342
-0.00165498
-0.00138487
-0.00111133
-0.000916395
-0.000945954
-0.000832447
-0.000596555
-0.000415989
-0.000215005
-1.97943e-05
0.00012674
0.000205784
-0.000551245
-0.000793032
-0.00222913
-0.0019588
-0.00137308
-0.000349727
0.000789606
0.00196529
0.00311299
0.0038713
0.00416746
0.004246
0.00395977
0.00333381
0.00244421
0.00140312
0.0003743
-0.000529241
-0.00128133
-0.00180818
-0.00215095
-0.00234463
-0.002447
-0.00241008
-0.0023572
-0.0024354
-0.00232898
-0.00210989
-0.00187977
-0.00163638
-0.0013093
-0.00114634
-0.00114874
-0.00102993
-0.000777907
-0.000561928
-0.00032205
-0.000113258
0.000160734
0.00070075
0.00157819
-0.00478674
-0.00281569
-0.00207469
-0.00139425
-0.00047911
0.000695495
0.00208249
0.00327978
0.00423339
0.00458896
0.00468709
0.00439891
0.00371955
0.00274886
0.00163755
0.000541788
-0.000436602
-0.00126716
-0.00188334
-0.00234977
-0.00268834
-0.00280171
-0.00274252
-0.00269443
-0.00277887
-0.00271168
-0.00238659
-0.00218067
-0.00197004
-0.00160431
-0.0014715
-0.00144266
-0.00124433
-0.0009375
-0.00068148
-0.000429162
-0.000230452
-0.000122333
-6.73233e-05
-0.000187291
-0.00158233
-0.00262451
-0.00227254
-0.00148623
-0.000548646
0.000739083
0.00230984
0.00349524
0.00459836
0.00506013
0.00518202
0.00491223
0.00419145
0.0031447
0.00195132
0.000778487
-0.000290865
-0.00121502
-0.00195613
-0.00258607
-0.00300724
-0.00311039
-0.00305669
-0.00298416
-0.00309274
-0.00301216
-0.00272465
-0.00254233
-0.00227131
-0.00196018
-0.0018309
-0.00174115
-0.00143684
-0.00110094
-0.000825749
-0.000570117
-0.000338212
-0.000116229
0.000222483
0.000811218
-0.00505075
-0.00305335
-0.0024518
-0.00156579
-0.000436443
0.000976505
0.00259851
0.00375495
0.00497607
0.00559275
0.00573917
0.00547205
0.0047219
0.00360593
0.00232636
0.00105265
-0.000116578
-0.00115051
-0.00204209
-0.00278652
-0.00320862
-0.00335761
-0.00338214
-0.00335441
-0.00347494
-0.00333525
-0.00316065
-0.00298512
-0.00264854
-0.00234575
-0.00218264
-0.00200869
-0.00159744
-0.00126189
-0.000999157
-0.000739808
-0.000489597
-0.000345559
-0.000249991
-0.000102664
-0.0023075
-0.00314972
-0.00260444
-0.00158435
-0.000203074
0.00127561
0.00291248
0.00407951
0.0053655
0.00617006
0.00637068
0.00610844
0.0053174
0.00412144
0.00273563
0.00133787
5.52903e-05
-0.00109325
-0.00209781
-0.00285851
-0.00328484
-0.00353312
-0.00375375
-0.00393391
-0.00392584
-0.00376704
-0.00374437
-0.00356012
-0.00310382
-0.00273003
-0.00254931
-0.00227558
-0.00181977
-0.0015001
-0.00122911
-0.000937732
-0.000667714
-0.000442521
-0.000162995
0.000242338
-0.00529663
-0.00366293
-0.00265092
-0.0014671
-4.16819e-05
0.00137182
0.00313771
0.00449921
0.00582808
0.00680614
0.00709154
0.00683342
0.00598769
0.00469293
0.00318775
0.00168207
0.000291218
-0.000960156
-0.00203064
-0.00281904
-0.00332231
-0.0037359
-0.00418472
-0.00460386
-0.00448708
-0.00431214
-0.00431559
-0.00406086
-0.00354697
-0.00318375
-0.00300857
-0.00263087
-0.00212667
-0.00178484
-0.00148678
-0.00116101
-0.000881982
-0.000653262
-0.000443658
-0.00017575
-0.00321077
-0.00368196
-0.00270678
-0.00134913
7.83604e-06
0.0014108
0.00330318
0.00497512
0.00639819
0.00752713
0.00790942
0.0076468
0.00674345
0.00534974
0.0037278
0.00211985
0.000635212
-0.000720963
-0.00188052
-0.00275689
-0.00341098
-0.00407235
-0.00468823
-0.00516776
-0.00503532
-0.00483596
-0.00477959
-0.00449042
-0.00401705
-0.00370865
-0.00348343
-0.00295569
-0.00242663
-0.00208235
-0.00175756
-0.00140107
-0.00109831
-0.000825463
-0.000515809
-0.000173582
-0.00553552
-0.00404191
-0.0027243
-0.00138694
-3.52594e-05
0.0015974
0.00358917
0.00549708
0.00708209
0.00833515
0.00881784
0.00857554
0.00762168
0.00613078
0.00438646
0.00267324
0.00104967
-0.000457315
-0.00174171
-0.00274734
-0.00362226
-0.00452172
-0.00527073
-0.00565628
-0.00558109
-0.0054258
-0.00532712
-0.00496835
-0.00449633
-0.00421101
-0.00386672
-0.00324604
-0.00273566
-0.00239234
-0.00205607
-0.00168033
-0.00135107
-0.00104571
-0.00072465
-0.000358334
-0.00413511
-0.00413181
-0.00296221
-0.00158562
-7.9376e-05
0.00183705
0.00399347
0.0060791
0.00787457
0.00927021
0.00985833
0.0096448
0.00864102
0.00704147
0.00515454
0.00327913
0.00147263
-0.000206256
-0.00164363
-0.00284057
-0.00399527
-0.0050551
-0.00583296
-0.00614247
-0.00613999
-0.00607162
-0.00591411
-0.00550081
-0.0050473
-0.00471888
-0.00424659
-0.00358463
-0.0030769
-0.00273796
-0.00238407
-0.0019837
-0.00163541
-0.00129573
-0.00091982
-0.000583103
-0.00580182
-0.00450071
-0.00328626
-0.00174577
-7.99652e-05
0.00203609
0.00447442
0.006772
0.00878647
0.0103458
0.0110583
0.0108943
0.00981691
0.00807628
0.00600299
0.00392111
0.00189882
3.29002e-05
-0.00160608
-0.00307007
-0.00441265
-0.00555036
-0.00627611
-0.00654939
-0.00656724
-0.00657839
-0.00647019
-0.00611692
-0.00565735
-0.00527156
-0.00469933
-0.00400404
-0.00350661
-0.00316737
-0.00278967
-0.00237096
-0.00199785
-0.00161367
-0.00119889
-0.000822789
-0.00503158
-0.0047219
-0.00360887
-0.00182187
3.99561e-05
0.00228849
0.00505359
0.0075935
0.00983529
0.0115817
0.0124367
0.0123042
0.0111313
0.00924185
0.00697183
0.00465776
0.00236489
0.000260749
-0.00163749
-0.00338353
-0.00477918
-0.00588578
-0.00665191
-0.00697203
-0.00702303
-0.00707808
-0.00701611
-0.00666026
-0.00623167
-0.00583774
-0.00522988
-0.00455508
-0.00409676
-0.00374579
-0.00332199
-0.00285568
-0.0024266
-0.00195217
-0.00149062
-0.00122467
-0.00628736
-0.00509226
-0.00393832
-0.00188761
0.000245416
0.00270035
0.00574059
0.00852492
0.0110046
0.0129799
0.0139941
0.0138609
0.0125851
0.0105723
0.00809449
0.00549804
0.00288162
0.000491889
-0.00166674
-0.00359119
-0.00513413
-0.00621729
-0.00700818
-0.00734979
-0.0074385
-0.00753134
-0.0075083
-0.00721818
-0.00689343
-0.00654462
-0.00591452
-0.0052449
-0.00478928
-0.00439055
-0.00390343
-0.00340225
-0.00291312
-0.0023712
-0.00187718
-0.0016117
-0.00629008
-0.00561889
-0.00418018
-0.00194609
0.000512097
0.00318753
0.00642568
0.0095476
0.0123098
0.0145314
0.0157334
0.015619
0.0142246
0.012068
0.00934166
0.00642158
0.00347244
0.000802079
-0.00158849
-0.00371292
-0.0054113
-0.00654731
-0.00733112
-0.0076883
-0.00787299
-0.00810661
-0.00819601
-0.00800273
-0.00776772
-0.00736293
-0.00660503
-0.00591828
-0.00545387
-0.0050121
-0.00448668
-0.00395904
-0.00341642
-0.0028357
-0.00232422
-0.00205788
-0.00728463
-0.00613594
-0.00432786
-0.00201175
0.000807735
0.00371266
0.00714005
0.0106943
0.0138337
0.016308
0.0176929
0.0176208
0.0160865
0.0137122
0.0106954
0.00743363
0.00419298
0.00122373
-0.00138102
-0.00384312
-0.0055396
-0.00685069
-0.00772043
-0.00815462
-0.00849721
-0.00889717
-0.0090251
-0.00881049
-0.00854478
-0.00797597
-0.00716264
-0.00651301
-0.00607223
-0.00562426
-0.00509811
-0.0045671
-0.00398926
-0.00337027
-0.00284095
-0.00256749
-0.00794174
-0.00637825
-0.00448184
-0.00203543
0.00117176
0.00434573
0.00803017
0.0120303
0.0156131
0.0184016
0.0199295
0.0199147
0.0182055
0.0155361
0.0122141
0.00858792
0.00502248
0.00170708
-0.00114404
-0.00378615
-0.00564643
-0.00712764
-0.0081169
-0.00867293
-0.00916973
-0.009618
-0.00964026
-0.00939469
-0.0091077
-0.0084969
-0.0077324
-0.00715914
-0.00676974
-0.0063284
-0.00580881
-0.00526211
-0.00464879
-0.00399955
-0.00344737
-0.00315026
-0.00893682
-0.00680031
-0.00473939
-0.00216106
0.00149577
0.00505234
0.00915515
0.0136191
0.017633
0.0208676
0.0225405
0.0225544
0.0206512
0.0176586
0.0139997
0.00994081
0.00597396
0.00227383
-0.000962991
-0.00360753
-0.00577844
-0.00740248
-0.00851796
-0.00919847
-0.00977925
-0.0101896
-0.0101968
-0.0100847
-0.00986633
-0.0092832
-0.00854894
-0.00803461
-0.00763165
-0.0071654
-0.00661077
-0.0060163
-0.00533677
-0.00465694
-0.00409725
-0.00379778
-0.00974921
-0.00721551
-0.00492532
-0.00223358
0.00165848
0.00579537
0.010405
0.0154499
0.0199238
0.0236788
0.0256321
0.0256178
0.0235525
0.0202599
0.0161442
0.0115126
0.00702292
0.00290783
-0.000727513
-0.00352519
-0.00594047
-0.00777482
-0.00902023
-0.0097999
-0.0104565
-0.0108951
-0.0110238
-0.0110625
-0.0109003
-0.0103209
-0.00960422
-0.00905949
-0.00857775
-0.00803917
-0.00740409
-0.00675552
-0.00602241
-0.00533239
-0.00477127
-0.00450594
-0.0107307
-0.00791004
-0.00526804
-0.0023871
0.00172114
0.0065078
0.0116002
0.0173557
0.0225372
0.0268332
0.0292593
0.0292301
0.0270483
0.0233859
0.0186063
0.0132327
0.00812714
0.00357128
-0.000388427
-0.00357558
-0.00620527
-0.00824314
-0.00957789
-0.0105007
-0.0112935
-0.0118083
-0.0120531
-0.0122191
-0.0120509
-0.0114188
-0.0106979
-0.0100718
-0.00953442
-0.00892824
-0.00827223
-0.00759072
-0.00683727
-0.00612844
-0.00554842
-0.00531206
-0.0118725
-0.00884462
-0.00573031
-0.0025673
0.00188913
0.00723914
0.0128354
0.0192846
0.0254534
0.030443
0.033459
0.0335243
0.031159
0.0268759
0.0212669
0.0150276
0.00927843
0.00425535
-5.11212e-05
-0.0036649
-0.00650202
-0.00868694
-0.0101547
-0.0113278
-0.0122612
-0.0127983
-0.0131548
-0.0133768
-0.01312
-0.0124872
-0.0117816
-0.0111988
-0.0106937
-0.0100804
-0.00943071
-0.00869004
-0.00789584
-0.00713027
-0.00651776
-0.00628309
-0.0132007
-0.0100624
-0.00656069
-0.00301849
0.00182201
0.00785305
0.0141732
0.0213876
0.0286493
0.0346087
0.0383013
0.038574
0.0358136
0.0305994
0.0240632
0.0168556
0.0104932
0.0049772
0.000256029
-0.00367307
-0.00678329
-0.00918955
-0.0109091
-0.0123219
-0.0132756
-0.0138142
-0.0142413
-0.014429
-0.0142192
-0.0136923
-0.0131115
-0.0126648
-0.0121603
-0.0115425
-0.0108267
-0.00999672
-0.00913748
-0.00830576
-0.00765258
-0.00742389
-0.015012
-0.0116125
-0.00784579
-0.00386204
0.00135321
0.00813299
0.0153575
0.0236063
0.0321305
0.0392913
0.0438809
0.0444225
0.0410391
0.0346536
0.0270253
0.0187432
0.011772
0.00572953
0.000555666
-0.00370504
-0.0071988
-0.00992645
-0.0119368
-0.0134452
-0.0143521
-0.0149571
-0.0154807
-0.0157648
-0.0156639
-0.0151799
-0.0147109
-0.0142657
-0.0136878
-0.0130043
-0.0121829
-0.0112828
-0.0103949
-0.00954693
-0.00888481
-0.00863924
-0.0172922
-0.0133728
-0.00943679
-0.0050774
0.000424935
0.00807723
0.0163252
0.0256616
0.0357492
0.0443922
0.0501908
0.0510795
0.0469115
0.0391148
0.0301357
0.0208463
0.0131703
0.00652876
0.000766573
-0.00392917
-0.00781178
-0.0108821
-0.0131127
-0.0146721
-0.0156942
-0.0165203
-0.0172136
-0.0175162
-0.0173036
-0.0167943
-0.0163482
-0.015785
-0.015106
-0.0143524
-0.0134506
-0.0125244
-0.0116183
-0.010755
-0.0100948
-0.00983769
-0.019938
-0.0155972
-0.0114401
-0.00671232
-0.00100502
0.0074968
0.0170933
0.0274067
0.0391731
0.0497066
0.0570089
0.0583973
0.0533644
0.0439093
0.0333934
0.0232727
0.0147631
0.0073567
0.000913142
-0.00425981
-0.00855296
-0.0118777
-0.0143031
-0.0161242
-0.0174536
-0.0185315
-0.019328
-0.0195566
-0.01925
-0.0187411
-0.018219
-0.0175246
-0.0168236
-0.0160171
-0.0150424
-0.0140776
-0.0130741
-0.0121437
-0.01147
-0.0112442
-0.0236975
-0.0189163
-0.0145072