/*--------------------------------*- C++ -*----------------------------------*\
  =========                 |
  \\      /  F ield         | OpenFOAM: The Open Source CFD Toolbox
   \\    /   O peration     | Website:  https://openfoam.org
    \\  /    A nd           | Version:  11
     \\/     M anipulation  |
\*---------------------------------------------------------------------------*/
FoamFile
{
    format      ascii;
    class       volVectorField;
    location    "2";
    object      U;
}
// * * * * * * * * * * * * * * * * * * * * * * * * * * * * * * * * * * * * * //

dimensions      [0 1 -1 0 0 0 0];

internalField   nonuniform List<vector> 
9600
(
(0.997552 0.000346904 -3.58926e-21)
(0.995821 0.000199307 0)
(0.996194 0.000727317 -3.50593e-21)
(0.996056 0.00811257 3.4848e-21)
(0.978213 0.0176738 0)
(0.935773 0.0154861 1.62023e-21)
(0.9149 0.00228675 -3.12836e-21)
(0.91589 -0.0132754 1.49324e-21)
(0.932849 -0.0273736 1.41427e-21)
(0.956101 -0.0397146 -1.42017e-21)
(0.976916 -0.0465373 8.96944e-24)
(0.993957 -0.0486505 0)
(1.00736 -0.0479052 0)
(1.018 -0.0457944 -2.66797e-22)
(1.02678 -0.0431251 1.0922e-22)
(1.03418 -0.0402225 1.57454e-22)
(1.04035 -0.0371759 0)
(1.04512 -0.0343792 0)
(1.04867 -0.0314998 -4.32585e-25)
(1.05144 -0.0286192 0)
(1.05339 -0.0257381 0)
(1.05437 -0.0224129 9.13608e-25)
(1.05395 -0.0194329 -2.02901e-24)
(1.05224 -0.0169214 5.6133e-22)
(1.0497 -0.0140322 -5.56515e-22)
(1.04649 -0.0112109 -5.54499e-22)
(1.04287 -0.00759926 5.58077e-22)
(1.03851 -0.00475648 9.89125e-22)
(1.03401 -0.00117068 -9.71918e-22)
(1.0293 0.00115581 0)
(1.02517 0.00437992 0)
(1.02097 0.00615478 -5.78524e-22)
(1.01721 0.00889645 1.05428e-21)
(1.01343 0.0103528 -4.80342e-22)
(1.01029 0.0123246 0)
(1.00759 0.0139629 -4.53616e-24)
(1.00548 0.0158529 -4.26441e-22)
(1.00311 0.018941 4.20291e-22)
(1.0004 0.0203817 2.36489e-24)
(0.997536 0.0309956 1.21316e-22)
(0.997993 0.00044391 -3.65475e-21)
(0.997688 0.000947263 -3.73731e-23)
(0.997018 0.0029018 5.63973e-23)
(0.993508 0.0047644 3.67628e-21)
(0.9933 0.00482119 1.71355e-21)
(0.995541 0.00165428 -1.7192e-21)
(0.995756 -0.00376925 2.32011e-23)
(0.994722 -0.00304832 1.11449e-23)
(0.996776 0.00400094 -1.29893e-21)
(1.00266 0.0190371 1.33504e-21)
(1.00678 0.031283 -9.17969e-24)
(1.00922 0.0381534 1.54643e-23)
(1.01115 0.0405864 3.13803e-22)
(1.01442 0.0403746 -5.50994e-22)
(1.01937 0.038878 2.27485e-22)
(1.02434 0.036901 1.04911e-23)
(1.02851 0.0347576 -9.34851e-24)
(1.0316 0.0327021 -9.6169e-23)
(1.03392 0.030348 9.56186e-23)
(1.03576 0.028075 0)
(1.03724 0.025785 0)
(1.03781 0.0229788 2.50456e-22)
(1.03692 0.0205987 -2.46914e-22)
(1.03523 0.0185561 -4.39833e-24)
(1.0328 0.0161149 0)
(1.02993 0.0136866 -5.8108e-22)
(1.02651 0.0103634 1.83963e-23)
(1.02218 0.00734101 -4.80413e-22)
(1.01823 0.00350464 1.01027e-21)
(1.01253 0.000629837 1.39351e-23)
(1.00966 -0.00273938 -7.05684e-22)
(1.00356 -0.00507489 7.08947e-22)
(1.00139 -0.00790934 -5.09196e-22)
(0.996247 -0.00935152 9.10844e-22)
(0.994833 -0.0119635 -3.97856e-22)
(0.990504 -0.0137387 4.68228e-24)
(0.989437 -0.0164945 3.80795e-24)
(0.98717 -0.0205574 0)
(0.985832 -0.0222015 -2.44944e-24)
(0.985284 -0.0278158 4.2985e-22)
(0.997941 0.000870479 0)
(0.997982 0.00138421 3.77666e-21)
(0.999223 0.00314484 -3.71585e-21)
(0.999863 0.00975273 0)
(0.99622 0.0157093 0)
(0.989511 0.0147176 -5.13438e-23)
(0.976716 0.00384724 -7.17031e-23)
(0.968896 -0.00915181 0)
(0.969756 -0.0209801 -1.49596e-21)
(0.978855 -0.0327625 1.43468e-21)
(0.991067 -0.0420549 0)
(1.00291 -0.0468244 -1.58364e-23)
(1.014 -0.0484706 1.27319e-23)
(1.02373 -0.0484881 0)
(1.03183 -0.0469179 -1.51629e-22)
(1.03856 -0.0440139 1.48816e-22)
(1.04424 -0.0404335 -1.29411e-24)
(1.04876 -0.037107 1.06156e-24)
(1.05218 -0.033623 6.53836e-23)
(1.055 -0.0300505 -6.73199e-23)
(1.05693 -0.0265376 -1.10995e-22)
(1.05813 -0.0223729 1.16763e-22)
(1.05846 -0.0185432 -4.24802e-24)
(1.05709 -0.0153406 5.8808e-22)
(1.05503 -0.01175 -5.78121e-22)
(1.05159 -0.00829548 -5.66019e-22)
(1.04849 -0.00394846 5.9336e-22)
(1.04365 -0.00101822 -1.07862e-21)
(1.04033 0.00337461 1.0766e-21)
(1.03491 0.00489503 -1.42704e-23)
(1.03213 0.00907037 0)
(1.02733 0.00967857 -7.01057e-22)
(1.02518 0.0129964 1.31938e-21)
(1.02048 0.0133235 -6.09083e-22)
(1.0186 0.0163546 -4.56536e-22)
(1.01415 0.0168123 1.17434e-21)
(1.01275 0.0203263 -1.50743e-22)
(1.00875 0.0223816 -5.77798e-22)
(1.00592 0.0229238 5.86692e-24)
(1.00147 0.028798 6.93973e-25)
(0.998603 0.00100049 -7.70721e-21)
(0.999115 0.00180295 3.8234e-21)
(1.00004 0.00585794 3.72467e-21)
(1.00148 0.0106419 -3.76184e-21)
(1.0023 0.0107825 0)
(1.00509 0.00492368 1.63184e-21)
(1.01313 -0.00683058 -1.55185e-21)
(1.01855 -0.0118675 1.44229e-21)
(1.0227 -0.0105952 -1.07607e-22)
(1.02679 0.000486792 -1.286e-21)
(1.02708 0.0159277 -9.3477e-22)
(1.02477 0.0258173 1.79822e-21)
(1.02365 0.0305707 -4.96577e-22)
(1.02386 0.0322828 -4.95651e-22)
(1.02462 0.0324344 1.94617e-22)
(1.02741 0.03162 -2.4848e-23)
(1.03136 0.0301543 2.74497e-23)
(1.03419 0.0290097 2.53439e-24)
(1.03635 0.0275649 1.96816e-24)
(1.03804 0.0261644 0)
(1.03954 0.0248412 0)
(1.03989 0.0229263 -3.97666e-24)
(1.03859 0.0211536 0)
(1.03673 0.0197853 0)
(1.03493 0.0182279 9.81737e-24)
(1.03229 0.0160827 -1.9321e-23)
(1.02976 0.0132619 5.71665e-22)
(1.02509 0.0100258 4.74536e-22)
(1.02199 0.00663043 -1.13274e-21)
(1.01575 0.0031395 8.79428e-22)
(1.01236 -4.30596e-05 -8.77362e-22)
(1.00727 -0.00322338 -2.44181e-23)
(1.0028 -0.00589626 -5.15792e-22)
(0.999361 -0.00801837 5.35452e-22)
(0.996591 -0.0103089 3.50527e-22)
(0.993243 -0.0128589 2.44073e-22)
(0.992949 -0.016533 -9.65389e-23)
(0.990813 -0.0194165 -5.08132e-22)
(0.989094 -0.0220078 -6.01117e-24)
(0.991365 -0.0258421 -4.98452e-24)
(0.999154 0.00132751 0)
(0.999767 0.002579 3.97943e-21)
(1.00216 0.00676811 -7.77826e-21)
(1.00607 0.0110983 3.81136e-21)
(1.01033 0.0113884 0)
(1.01319 0.00603309 0)
(1.00912 -0.00408361 0)
(0.998942 -0.0105603 4.82716e-23)
(0.990467 -0.0156337 -1.42412e-21)
(0.988507 -0.0221894 1.47135e-21)
(0.994389 -0.0311591 -3.69139e-23)
(1.00378 -0.0394635 9.41518e-22)
(1.01346 -0.0442964 -1.34867e-21)
(1.02284 -0.0461995 3.74669e-22)
(1.03124 -0.0462689 0)
(1.03806 -0.045022 1.66329e-23)
(1.04355 -0.0419242 -1.83228e-23)
(1.0477 -0.0383013 -2.59918e-24)
(1.05088 -0.0345323 0)
(1.05375 -0.0303842 0)
(1.05546 -0.0265935 1.17254e-22)
(1.0567 -0.0220487 -1.17232e-22)
(1.05771 -0.0172886 0)
(1.05685 -0.0134732 6.31506e-22)
(1.05494 -0.00939046 -6.50712e-22)
(1.05154 -0.00579406 -6.42197e-22)
(1.0484 -0.000827166 6.20729e-22)
(1.0437 0.00208184 -1.1496e-21)
(1.04037 0.00707806 1.21944e-21)
(1.03558 0.00838889 3.22732e-23)
(1.03267 0.0127639 0)
(1.02862 0.013359 2.50299e-23)
(1.0262 0.016843 7.27322e-22)
(1.02227 0.0164159 -7.46779e-22)
(1.01964 0.0196755 1.58482e-23)
(1.01547 0.0194926 0)
(1.01313 0.0230081 0)
(1.00844 0.0240553 -5.4244e-22)
(1.00626 0.0256062 5.23932e-22)
(0.999851 0.0283645 -1.19332e-23)
(0.999959 0.00166637 -3.89495e-21)
(1.00097 0.00330901 -1.24602e-22)
(1.00472 0.00740425 1.22315e-22)
(1.00893 0.00957127 1.18628e-22)
(1.01101 0.00802985 0)
(1.01456 -0.000198526 0)
(1.01956 -0.00893734 0)
(1.02394 -0.0132987 1.34529e-21)
(1.02845 -0.0144879 -2.8322e-21)
(1.0323 -0.010387 1.21847e-21)
(1.0359 0.00132116 0)
(1.03515 0.0117626 7.32787e-22)
(1.03332 0.0183796 -7.64178e-22)
(1.03269 0.0219879 -1.67304e-22)
(1.03293 0.0238924 1.67578e-22)
(1.03367 0.0246315 6.8672e-25)
(1.03526 0.024336 2.93732e-24)
(1.03759 0.0241089 0)
(1.03955 0.0236105 -4.65594e-24)
(1.0412 0.0232524 0)
(1.04272 0.0228441 1.88638e-24)
(1.04278 0.0220998 8.68554e-24)
(1.04178 0.0210923 0)
(1.03933 0.0203225 -6.84897e-22)
(1.03751 0.0196193 6.84795e-22)
(1.03503 0.0181645 -6.28941e-22)
(1.03315 0.0163631 7.11227e-22)
(1.02875 0.0130822 1.16823e-21)
(1.02544 0.0103668 -1.16912e-21)
(1.01965 0.00656171 1.14044e-24)
(1.01551 0.00337182 -6.18452e-23)
(1.01038 -1.38947e-05 5.51231e-23)
(1.00571 -0.00329049 -5.84773e-22)
(1.00186 -0.00546746 1.07298e-21)
(0.999174 -0.00817596 -4.88407e-22)
(0.996595 -0.0107359 0)
(0.9963 -0.0145986 -2.50887e-23)
(0.994138 -0.0173371 2.06247e-23)
(0.993683 -0.0209278 1.51662e-23)
(0.996733 -0.0227742 -5.62134e-22)
(1.001 0.00185617 -1.69142e-22)
(1.00265 0.00347007 -7.96627e-21)
(1.00652 0.00704493 2.36587e-22)
(1.0111 0.00855029 3.81711e-21)
(1.01465 0.0058882 0)
(1.01718 -0.00325442 1.10142e-22)
(1.01723 -0.0110517 1.04289e-22)
(1.015 -0.0131225 0)
(1.00917 -0.0135404 1.56124e-21)
(1.00336 -0.0159822 -1.31108e-21)
(1.0023 -0.0220433 0)
(1.00698 -0.0308812 6.03995e-23)
(1.01439 -0.0376149 -3.67325e-22)
(1.02269 -0.0415126 3.68009e-22)
(1.03071 -0.0430147 0)
(1.03769 -0.0429465 -8.25547e-24)
(1.04338 -0.0410209 8.18895e-24)
(1.04752 -0.0379883 0)
(1.0505 -0.0343135 9.15705e-23)
(1.05334 -0.02983 -8.17139e-23)
(1.05484 -0.0256576 -3.95956e-24)
(1.05572 -0.0212441 -1.8265e-23)
(1.05729 -0.0156997 2.05364e-23)
(1.05706 -0.0111597 7.12223e-22)
(1.05538 -0.0066404 -7.12016e-22)
(1.05197 -0.00308352 -4.3829e-23)
(1.04855 0.00208463 -6.85984e-22)
(1.04429 0.00509383 7.68327e-22)
(1.04031 0.0101767 1.19562e-21)
(1.03641 0.0116526 -1.19398e-21)
(1.0333 0.0159694 6.34886e-23)
(1.02984 0.0165996 1.50522e-24)
(1.02728 0.0202225 0)
(1.02381 0.0196845 4.42105e-23)
(1.02069 0.0227267 6.64698e-22)
(1.0162 0.02156 4.25905e-22)
(1.01257 0.0248744 -1.74207e-22)
(1.0084 0.0252713 -9.02255e-22)
(1.00579 0.0272384 4.63375e-22)
(0.998714 0.0272971 -4.71208e-22)
(1.00209 0.00179471 4.15479e-21)
(1.00427 0.00333899 3.41574e-23)
(1.00877 0.00609125 -7.99536e-21)
(1.01186 0.00608576 3.8847e-21)
(1.01497 0.00186624 0)
(1.01963 -0.00780649 -1.13417e-22)
(1.02139 -0.012972 -1.64915e-21)
(1.02329 -0.0141657 3.27688e-21)
(1.02792 -0.014554 -2.79463e-21)
(1.03352 -0.0135366 1.27795e-21)
(1.03738 -0.00860779 0)
(1.03906 -0.00122042 7.19287e-22)
(1.039 0.0054304 -7.29046e-22)
(1.03893 0.0102715 -1.24607e-22)
(1.03927 0.0137444 1.39874e-22)
(1.03992 0.0159732 0)
(1.04056 0.01722 5.39365e-25)
(1.04212 0.0180146 0)
(1.04304 0.0186169 -1.07713e-23)
(1.04512 0.0193461 3.54299e-24)
(1.04639 0.0200566 2.0524e-24)
(1.04615 0.0204417 9.36735e-24)
(1.0453 0.0202061 -2.08585e-23)
(1.04303 0.0202394 7.58048e-22)
(1.04095 0.0204975 -7.83767e-22)
(1.03845 0.0197231 -7.4584e-22)
(1.03644 0.0190288 7.43714e-22)
(1.03279 0.0164837 1.3059e-21)
(1.02922 0.0143492 -2.57394e-21)
(1.0239 0.0106581 2.23301e-21)
(1.01911 0.00745919 -1.08112e-21)
(1.01383 0.00418326 -5.96593e-23)
(1.00907 0.00027903 0)
(1.00454 -0.00239189 -4.54171e-23)
(1.00213 -0.00491989 0)
(1.00043 -0.00741873 0)
(0.999315 -0.0110174 0)
(0.997617 -0.0142228 -6.41583e-22)
(0.998824 -0.0173542 6.80317e-22)
(1.00019 -0.0178629 3.0836e-23)
(1.00288 0.00137729 -4.03921e-21)
(1.00581 0.00284798 -1.32916e-24)
(1.00993 0.0046894 -4.34788e-21)
(1.013 0.00370985 4.21614e-21)
(1.01689 -0.00244415 -2.41791e-22)
(1.01967 -0.010904 -1.90219e-21)
(1.0203 -0.0146371 1.57713e-21)
(1.02069 -0.0150801 -1.021e-22)
(1.02058 -0.0147043 -1.50637e-21)
(1.01885 -0.0147134 2.70354e-21)
(1.01574 -0.0177242 -1.36489e-21)
(1.01518 -0.0240597 0)
(1.01847 -0.0306641 -6.76381e-23)
(1.02413 -0.0356156 -1.54396e-23)
(1.03098 -0.038346 6.09571e-24)
(1.03769 -0.0392138 -4.16662e-23)
(1.04331 -0.0384038 3.95216e-23)
(1.04808 -0.0361203 0)
(1.0509 -0.0328952 1.17729e-23)
(1.05345 -0.0285378 2.10376e-25)
(1.05552 -0.0239318 0)
(1.0559 -0.0196969 -1.05366e-23)
(1.05715 -0.0138281 -2.31288e-23)
(1.0576 -0.00871341 -2.35289e-23)
(1.05638 -0.00357813 4.84656e-23)
(1.05295 0.000186828 0)
(1.04932 0.00513414 0)
(1.0448 0.00810151 -1.46092e-21)
(1.04096 0.013113 1.36823e-21)
(1.0373 0.0147409 8.19779e-23)
(1.03391 0.0190006 0)
(1.03082 0.0196793 1.19684e-21)
(1.02794 0.0232973 -2.16295e-21)
(1.02503 0.0231971 1.9536e-21)
(1.02124 0.0252581 -9.17182e-22)
(1.01664 0.0232325 7.60289e-23)
(1.01198 0.0264828 9.77542e-22)
(1.00819 0.0258004 -1.03768e-21)
(1.0051 0.0273727 -6.542e-22)
(0.997707 0.0256882 1.01529e-21)
(1.0037 0.000547213 -4.29646e-21)
(1.00742 0.00209085 8.0855e-21)
(1.0116 0.0028607 -1.23361e-22)
(1.01417 0.000217776 -4.44922e-21)
(1.01694 -0.00704809 2.49263e-22)
(1.01959 -0.0137871 1.1758e-22)
(1.02104 -0.0161258 1.11639e-22)
(1.02291 -0.0158292 1.58904e-21)
(1.02777 -0.0149449 -1.90553e-22)
(1.03298 -0.0142178 -1.41261e-21)
(1.03678 -0.0130215 -9.19664e-22)
(1.03907 -0.00972206 3.10132e-22)
(1.04074 -0.00554188 1.03674e-21)
(1.04202 -0.00121931 -3.57524e-22)
(1.04387 0.00274896 1.05614e-22)
(1.04502 0.00620794 -6.04966e-24)
(1.04587 0.00866957 0)
(1.04716 0.0108202 2.02045e-22)
(1.04776 0.0126663 -3.37411e-22)
(1.04909 0.0144276 1.25058e-22)
(1.05089 0.0162354 0)
(1.05105 0.0182529 4.06689e-22)
(1.04964 0.0189412 -3.71859e-22)
(1.04669 0.0195278 8.35399e-22)
(1.04492 0.0208434 -7.80916e-22)
(1.04238 0.0209992 -7.87227e-22)
(1.04004 0.0213227 1.70672e-21)
(1.03662 0.019695 7.21546e-22)
(1.03327 0.0182151 -1.43913e-21)
(1.02816 0.0152712 -1.71583e-22)
(1.02305 0.0123114 0)
(1.01758 0.00901482 -1.40006e-22)
(1.01222 0.00510198 0)
(1.00767 0.00179032 -6.42531e-22)
(1.0054 -0.000471402 7.37548e-22)
(1.00362 -0.00281445 9.99945e-22)
(1.00207 -0.00630552 -9.25192e-22)
(1.00169 -0.00950076 0)
(1.00217 -0.0117295 7.16872e-22)
(1.00228 -0.0116174 -7.45439e-22)
(1.00517 -0.000195056 -4.82809e-21)
(1.00937 0.000949086 2.77871e-22)
(1.01266 0.00029486 -4.28827e-21)
(1.01539 -0.00383199 4.83855e-21)
(1.01716 -0.0105731 0)
(1.01847 -0.0159016 0)
(1.02034 -0.017147 0)
(1.02304 -0.0168195 0)
(1.0251 -0.0168079 -1.46057e-21)
(1.02598 -0.0166994 1.44871e-21)
(1.02606 -0.0170822 0)
(1.02543 -0.0200219 -5.83949e-23)
(1.02575 -0.0257478 -3.57991e-22)
(1.02877 -0.0305571 3.16242e-22)
(1.03341 -0.0337091 0)
(1.03894 -0.0349829 -9.30735e-23)
(1.04431 -0.0350268 1.11046e-22)
(1.04891 -0.0332208 0)
(1.05218 -0.0302704 7.39933e-24)
(1.05487 -0.0266242 0)
(1.05672 -0.0218197 0)
(1.05667 -0.0171706 -1.21555e-23)
(1.05826 -0.0113594 -2.65672e-23)
(1.05909 -0.0061613 -5.59256e-23)
(1.05809 -0.000526597 -1.12236e-22)
(1.05468 0.00393386 -1.00178e-21)
(1.051 0.00894242 8.32953e-22)
(1.04605 0.0113845 -1.7597e-21)
(1.04195 0.0160211 1.64718e-21)
(1.03814 0.0177927 8.98364e-23)
(1.03465 0.0219768 0)
(1.03142 0.0229665 7.35667e-23)
(1.02872 0.0260442 0)
(1.02572 0.0263129 0)
(1.02146 0.0276908 -1.00393e-22)
(1.01667 0.0252077 -1.57127e-21)
(1.01143 0.0276371 2.62013e-21)
(1.00818 0.0258408 -2.13337e-21)
(1.00423 0.0273151 2.21749e-22)
(0.996939 0.0240156 7.8383e-22)
(1.00691 -0.00146233 1.16987e-22)
(1.01042 -0.00102658 9.18154e-21)
(1.01319 -0.00286712 -8.96579e-21)
(1.01562 -0.00769613 -9.8235e-23)
(1.01668 -0.0132322 6.31017e-21)
(1.01763 -0.0178394 -2.0383e-21)
(1.01964 -0.019358 0)
(1.02263 -0.0182697 -1.65963e-21)
(1.02722 -0.017107 2.08788e-22)
(1.03235 -0.0160302 1.46497e-21)
(1.03619 -0.0153438 -7.08365e-23)
(1.03907 -0.0144842 5.71392e-23)
(1.04143 -0.0135281 8.3822e-23)
(1.04402 -0.010981 0)
(1.04625 -0.00747201 0)
(1.0485 -0.00392406 0)
(1.05038 -0.000474701 2.15695e-24)
(1.05168 0.00265757 0)
(1.05323 0.00584196 -2.4124e-23)
(1.05412 0.00863464 5.02769e-24)
(1.05541 0.0116596 -5.85221e-24)
(1.05659 0.0152017 1.25353e-23)
(1.05518 0.0172898 2.73987e-23)
(1.05172 0.0184508 1.0234e-21)
(1.04954 0.0208446 -9.05269e-22)
(1.04684 0.0219795 -9.05557e-22)
(1.04446 0.0232122 8.41444e-22)
(1.04084 0.0228202 -4.61465e-24)
(1.03756 0.0220225 1.51668e-21)
(1.03241 0.0200874 -1.52055e-21)
(1.0271 0.0176725 0)
(1.02136 0.0145766 0)
(1.01615 0.0109116 -7.48547e-22)
(1.01087 0.00711142 1.26468e-22)
(1.00838 0.00502046 1.44989e-21)
(1.00693 0.00315093 5.46385e-22)
(1.00573 -0.000330935 1.88661e-24)
(1.00484 -0.00336893 -1.12503e-21)
(1.00381 -0.00476777 -8.281e-22)
(1.00347 -0.00435398 8.12953e-22)
(1.00821 -0.00286188 0)
(1.01087 -0.00309364 2.97281e-22)
(1.01304 -0.00583124 -2.89198e-22)
(1.01475 -0.0109743 0)
(1.01535 -0.0158092 0)
(1.01632 -0.0195887 0)
(1.01816 -0.0203859 -2.4036e-22)
(1.02235 -0.0195914 -2.21894e-22)
(1.02707 -0.019091 1.49329e-21)
(1.0303 -0.0189163 -1.58441e-21)
(1.03259 -0.0188961 7.30815e-23)
(1.03374 -0.0199484 7.51383e-22)
(1.03403 -0.0232912 -1.12564e-21)
(1.03511 -0.0272325 2.74184e-22)
(1.03815 -0.0301382 -6.63821e-25)
(1.04236 -0.0314966 -1.64458e-22)
(1.04681 -0.0317166 1.56966e-22)
(1.05144 -0.0301253 0)
(1.05471 -0.0273452 1.70261e-23)
(1.05721 -0.0240096 -5.19012e-24)
(1.05923 -0.0190317 6.04133e-24)
(1.05901 -0.0144374 0)
(1.06023 -0.00879811 0)
(1.0615 -0.00320082 0)
(1.06034 0.00287382 0)
(1.05749 0.00775837 -1.02999e-21)
(1.05349 0.0131728 2.1521e-21)
(1.04849 0.0153956 -2.77777e-21)
(1.04375 0.019486 2.00839e-21)
(1.03944 0.0211075 1.57482e-21)
(1.03597 0.0250339 -1.57344e-21)
(1.03219 0.0263924 1.47472e-21)
(1.02941 0.0287565 -1.6213e-21)
(1.02639 0.0294065 -1.42435e-22)
(1.02144 0.0302909 0)
(1.01674 0.0276289 1.71203e-21)
(1.01147 0.0286465 -3.72181e-22)
(1.00783 0.0264447 -1.48673e-21)
(1.00314 0.027221 -8.43163e-22)
(0.997185 0.0226988 1.58458e-21)
(1.00848 -0.00456291 -5.37698e-21)
(1.01081 -0.00541012 4.51456e-21)
(1.01253 -0.00908535 -4.54923e-21)
(1.01356 -0.0142914 -4.52979e-21)
(1.01394 -0.0180195 4.55262e-21)
(1.01471 -0.0209473 2.65151e-22)
(1.01704 -0.0224474 2.48489e-22)
(1.02165 -0.0217445 2.41448e-24)
(1.02651 -0.0206162 -1.51861e-21)
(1.03186 -0.019098 1.61318e-21)
(1.03621 -0.0186077 0)
(1.03953 -0.0184613 0)
(1.04241 -0.019138 0)
(1.04549 -0.0186002 -6.92735e-23)
(1.04868 -0.0162377 5.27661e-23)
(1.05152 -0.0133246 -2.20988e-23)
(1.05435 -0.00971271 0)
(1.05638 -0.00574652 0)
(1.05837 -0.00164091 0)
(1.0596 0.00247867 0)
(1.06047 0.00645892 -7.0631e-24)
(1.06222 0.0112869 0)
(1.06133 0.0153527 0)
(1.05755 0.0172892 1.20659e-21)
(1.05492 0.0205353 7.56139e-23)
(1.05212 0.0226846 -1.13493e-21)
(1.04961 0.0250375 0)
(1.04551 0.025537 -1.93258e-21)
(1.042 0.026021 1.47134e-22)
(1.0369 0.0248314 1.91001e-21)
(1.03146 0.0234859 -1.02934e-22)
(1.02564 0.0206941 0)
(1.02041 0.0177417 -1.0986e-21)
(1.01454 0.0135673 4.38708e-22)
(1.01139 0.0115243 9.51253e-22)
(1.0102 0.00977211 -1.16735e-22)
(1.00871 0.0070073 9.96561e-23)
(1.0072 0.00469167 -1.07022e-21)
(1.0056 0.00278842 1.07794e-21)
(1.00405 0.00323341 0)
(1.0089 -0.00660866 -5.26239e-21)
(1.01087 -0.00792149 4.66668e-21)
(1.01212 -0.0122659 -1.76458e-22)
(1.01247 -0.0169882 -9.56975e-21)
(1.01264 -0.0196784 4.71782e-21)
(1.0135 -0.0225797 -2.73934e-22)
(1.01588 -0.0241304 0)
(1.02027 -0.0239546 2.46825e-24)
(1.0258 -0.0226841 -1.34003e-21)
(1.03199 -0.0217351 1.64295e-21)
(1.03673 -0.0218838 0)
(1.03963 -0.0222629 0)
(1.04138 -0.0241285 2.59924e-22)
(1.04243 -0.0265012 -1.91819e-22)
(1.04473 -0.0283774 0)
(1.04792 -0.0292268 -2.69349e-22)
(1.05133 -0.0292213 2.82647e-22)
(1.0552 -0.0275697 0)
(1.05842 -0.0245652 0)
(1.06073 -0.0212333 6.8065e-24)
(1.0629 -0.0162291 7.30712e-24)
(1.06287 -0.0115046 0)
(1.06368 -0.00607427 0)
(1.06491 3.03848e-05 -7.31968e-23)
(1.06369 0.00649772 -7.50197e-23)
(1.06077 0.0114445 0)
(1.05713 0.0176445 -1.17838e-21)
(1.05206 0.0202747 1.18302e-21)
(1.04679 0.0238387 0)
(1.04159 0.0250535 0)
(1.03778 0.0283958 0)
(1.03358 0.0299711 0)
(1.03031 0.032178 0)
(1.02708 0.0327758 -1.55292e-21)
(1.02204 0.0336406 1.38814e-21)
(1.01693 0.0305054 1.20573e-22)
(1.01155 0.0303043 -1.8709e-21)
(1.00767 0.0276072 1.74202e-21)
(1.00333 0.0275014 0)
(0.99869 0.022444 6.32477e-23)
(1.00845 -0.00845534 3.35881e-22)
(1.01035 -0.0104262 5.50748e-21)
(1.01147 -0.0153658 -5.20935e-21)
(1.01138 -0.0193925 -4.56365e-21)
(1.01171 -0.0215401 7.23743e-21)
(1.01262 -0.023988 -2.06299e-21)
(1.01503 -0.0263558 -1.74065e-21)
(1.01992 -0.0263229 4.0634e-21)
(1.0253 -0.0254943 -4.46049e-22)
(1.03199 -0.0244267 -1.6867e-21)
(1.03794 -0.0237404 0)
(1.04238 -0.0232425 0)
(1.04568 -0.0238173 -3.71227e-23)
(1.04844 -0.024511 -1.64135e-23)
(1.05203 -0.0232764 1.01114e-24)
(1.05518 -0.0211266 -3.87641e-22)
(1.05829 -0.0179845 3.88263e-22)
(1.061 -0.0137134 0)
(1.06334 -0.00907812 0)
(1.06524 -0.00398915 -7.05003e-24)
(1.06628 0.00105307 -8.68036e-24)
(1.06787 0.00664371 0)
(1.06793 0.0127803 0)
(1.06438 0.0161293 1.35916e-21)
(1.06145 0.0203134 -1.35669e-21)
(1.05835 0.0231294 -1.34133e-21)
(1.05563 0.026803 1.33799e-21)
(1.05133 0.028252 -3.16726e-22)
(1.04704 0.030153 2.29068e-21)
(1.04193 0.0297929 -2.28372e-21)
(1.03607 0.0295449 0)
(1.03018 0.0271542 0)
(1.02472 0.0252649 -1.37858e-21)
(1.01893 0.0213196 -1.09034e-23)
(1.01506 0.0192506 2.42986e-21)
(1.01333 0.01734 -1.20938e-21)
(1.01139 0.0157974 1.92265e-21)
(1.00864 0.0131346 -3.21262e-21)
(1.00758 0.0116873 2.1184e-22)
(1.00486 0.0106082 1.12816e-21)
(1.00851 -0.0111989 0)
(1.0103 -0.0135681 5.05043e-21)
(1.01128 -0.0181572 -1.09938e-20)
(1.0109 -0.0216169 4.94018e-21)
(1.01143 -0.0233056 -3.14169e-22)
(1.01235 -0.0256007 -2.55972e-21)
(1.01483 -0.0284249 1.73261e-21)
(1.0191 -0.0293834 0)
(1.02425 -0.0287006 -1.40751e-21)
(1.03169 -0.0271754 1.44845e-21)
(1.03876 -0.0264999 0)
(1.04377 -0.0262124 6.91386e-22)
(1.0474 -0.0266912 -6.93614e-22)
(1.04929 -0.0278712 0)
(1.0517 -0.0285799 2.0988e-22)
(1.05465 -0.0286122 -2.29964e-22)
(1.0573 -0.0280388 -3.57019e-23)
(1.06076 -0.0261159 0)
(1.06399 -0.0226824 2.92696e-23)
(1.06609 -0.0190388 0)
(1.06839 -0.0138606 -6.10207e-25)
(1.06851 -0.00863403 -4.20175e-23)
(1.06887 -0.00300557 -9.00981e-23)
(1.06963 0.00333291 0)
(1.06861 0.0103243 0)
(1.06553 0.0152694 -1.46644e-21)
(1.062 0.0218782 2.88371e-21)
(1.05706 0.0255325 1.44616e-21)
(1.05154 0.0293532 -5.36439e-21)
(1.04535 0.030212 2.50222e-21)
(1.04048 0.0327435 0)
(1.03585 0.0340363 0)
(1.03138 0.0361917 0)
(1.02817 0.0365766 1.90254e-22)
(1.02306 0.0374595 -3.48033e-22)
(1.01797 0.0340823 1.45741e-22)
(1.01215 0.0332496 1.71152e-21)
(1.00846 0.0298539 -2.07474e-21)
(1.0049 0.0290553 9.68956e-23)
(1.0007 0.0239609 1.1162e-21)
(1.00757 -0.0138962 -6.34051e-21)
(1.0093 -0.0163167 3.57267e-22)
(1.0106 -0.0204404 5.45236e-21)
(1.01026 -0.0236774 -1.04409e-20)
(1.01094 -0.0252783 8.18279e-21)
(1.01227 -0.0272686 -2.54897e-21)
(1.01464 -0.0309023 5.63315e-22)
(1.01827 -0.0324527 1.91814e-21)
(1.02294 -0.0319911 -3.82124e-21)
(1.0305 -0.0307547 3.22131e-21)
(1.03847 -0.030047 -1.36059e-21)
(1.04425 -0.0293271 -6.57677e-22)
(1.04894 -0.0286587 6.3297e-22)
(1.05202 -0.0292778 0)
(1.05556 -0.0288933 2.04001e-23)
(1.05929 -0.0271689 -5.28817e-22)
(1.06251 -0.0248534 5.66618e-22)
(1.0658 -0.0208945 -4.70454e-22)
(1.06882 -0.0159501 4.06903e-22)
(1.07122 -0.0103349 -9.71242e-24)
(1.07262 -0.00424265 3.67617e-22)
(1.07389 0.00193992 -1.09011e-21)
(1.07499 0.00971942 7.68662e-22)
(1.07229 0.0147132 1.66056e-21)
(1.06926 0.0201529 -1.65715e-21)
(1.06575 0.0236918 -1.63131e-21)
(1.06271 0.028681 1.41896e-21)
(1.05805 0.0311948 1.99117e-22)
(1.05312 0.0343999 1.74878e-22)
(1.04778 0.0352806 2.5604e-21)
(1.04173 0.0361447 -2.86596e-21)
(1.0353 0.0342164 0)
(1.02918 0.0333399 2.5324e-22)
(1.02374 0.0298315 -1.52917e-21)
(1.01858 0.0281565 2.86765e-21)
(1.01662 0.025971 -1.34996e-21)
(1.01347 0.0253729 2.25467e-21)
(1.01057 0.0219071 -3.0543e-22)
(1.00858 0.0212539 -3.41274e-21)
(1.00511 0.0186598 1.40419e-21)
(1.0074 -0.0167481 7.69049e-22)
(1.00911 -0.0193737 5.89842e-21)
(1.01072 -0.0228858 -5.20957e-21)
(1.01039 -0.0260051 -7.05391e-22)
(1.0109 -0.0276435 0)
(1.01249 -0.0295142 0)
(1.01475 -0.0332973 -2.92769e-22)
(1.01795 -0.0353983 0)
(1.0219 -0.035464 1.70935e-21)
(1.02872 -0.0346451 -2.89926e-21)
(1.0375 -0.0338244 1.38151e-21)
(1.04434 -0.0325946 4.81656e-23)
(1.05046 -0.0312413 5.71443e-24)
(1.05474 -0.0311169 -6.40016e-24)
(1.05811 -0.0311616 0)
(1.06196 -0.0302746 0)
(1.06498 -0.0289173 4.9161e-23)
(1.06784 -0.0266232 -6.31829e-23)
(1.07087 -0.0224501 3.48594e-23)
(1.07312 -0.0180371 1.01056e-23)
(1.07537 -0.012428 0)
(1.07564 -0.00657153 0)
(1.07582 -0.000192718 2.16891e-22)
(1.0761 0.00637294 1.66223e-21)
(1.0754 0.014144 -1.89354e-21)
(1.07196 0.0195023 0)
(1.06818 0.0261791 2.16215e-22)
(1.06298 0.0303473 -2.07056e-22)
(1.05774 0.0353245 -3.09818e-21)
(1.0512 0.0366966 2.893e-21)
(1.04534 0.0388053 3.27978e-22)
(1.03997 0.0394578 0)
(1.03394 0.0413168 -2.6306e-22)
(1.03025 0.0411982 -2.54467e-22)
(1.02453 0.0422204 2.0573e-22)
(1.01969 0.0387821 2.85794e-21)
(1.01361 0.0377169 -4.23791e-22)
(1.01028 0.0337438 -2.26796e-21)
(1.0059 0.0326657 -1.21645e-22)
(1.00378 0.0275552 9.35454e-23)
(1.00675 -0.0200889 -6.99827e-21)
(1.0082 -0.0222928 6.20548e-21)
(1.00991 -0.0250053 -1.26396e-20)
(1.01 -0.0280524 1.26084e-20)
(1.01045 -0.0300964 -5.85242e-21)
(1.01242 -0.0318423 -2.57328e-21)
(1.01499 -0.0355967 2.58859e-21)
(1.01808 -0.0383365 2.03856e-21)
(1.02146 -0.0390815 -3.56372e-21)
(1.02732 -0.038793 3.14892e-21)
(1.03643 -0.0380661 -1.39835e-21)
(1.04432 -0.0367309 -5.01343e-23)
(1.05145 -0.0347914 -8.67805e-26)
(1.05687 -0.0341624 2.58322e-22)
(1.06113 -0.034013 -2.60245e-22)
(1.06547 -0.0325305 -7.7923e-22)
(1.06939 -0.0303419 6.88161e-22)
(1.07268 -0.0268241 -7.51677e-24)
(1.07578 -0.0217432 -4.36963e-23)
(1.07861 -0.0160285 0)
(1.08073 -0.00895239 1.38676e-23)
(1.08141 -0.0024004 0)
(1.08278 0.00636517 -1.1687e-22)
(1.08121 0.0130522 -1.10881e-23)
(1.07844 0.0201776 -1.79585e-21)
(1.07458 0.024931 2.04768e-21)
(1.07119 0.0309819 -1.96299e-21)
(1.0661 0.0346656 -2.01911e-21)
(1.06063 0.0389103 3.94765e-21)
(1.05476 0.0407564 2.0077e-22)
(1.04848 0.0433388 0)
(1.04205 0.0423227 2.58502e-21)
(1.03487 0.0424595 -2.57104e-21)
(1.02925 0.0393724 2.64617e-22)
(1.02273 0.0381939 0)
(1.01975 0.035495 0)
(1.0156 0.0354973 0)
(1.01236 0.0315551 0)
(1.0086 0.0311688 2.20221e-21)
(1.00593 0.0269479 -3.46568e-21)
(1.0067 -0.0226438 6.73554e-21)
(1.00746 -0.0247865 -6.54134e-22)
(1.00942 -0.0275394 -1.29649e-20)
(1.01026 -0.0307529 -1.19377e-22)
(1.01076 -0.0332621 6.17079e-21)
(1.01292 -0.0348303 0)
(1.01585 -0.0382997 0)
(1.01889 -0.0415053 0)
(1.02186 -0.0428981 1.54535e-21)
(1.02659 -0.0431744 -2.00789e-21)
(1.0354 -0.0427927 7.20373e-23)
(1.04397 -0.0414586 -4.64274e-22)
(1.05196 -0.0392567 4.48604e-22)
(1.05917 -0.037618 2.46066e-23)
(1.06484 -0.0365359 -1.16863e-23)
(1.06983 -0.0347467 -6.85574e-24)
(1.074 -0.0321097 0)
(1.07725 -0.0290199 1.61589e-22)
(1.08034 -0.0242283 4.56024e-23)
(1.0826 -0.0189908 1.42498e-23)
(1.08519 -0.0124097 -5.28801e-22)
(1.0857 -0.00569319 5.65993e-22)
(1.08565 0.00181378 -1.42667e-22)
(1.08497 0.00820416 1.3809e-22)
(1.08419 0.017203 -2.89515e-22)
(1.08057 0.0235471 -1.97324e-21)
(1.07671 0.0309314 2.26552e-21)
(1.07122 0.0353431 4.17204e-21)
(1.06554 0.0410306 -7.71146e-22)
(1.05901 0.0435304 -3.89871e-21)
(1.05204 0.0464473 0)
(1.04623 0.0466443 -4.05871e-22)
(1.03869 0.0484196 0)
(1.03398 0.0475714 -2.0546e-21)
(1.02736 0.0488918 4.45017e-21)
(1.02234 0.0452507 -5.6604e-21)
(1.01608 0.0442997 6.83601e-21)
(1.01246 0.0399949 -3.22021e-21)
(1.00756 0.0389588 2.07478e-21)
(1.00558 0.0336018 -2.17789e-21)
(1.00508 -0.0253121 -4.59683e-22)
(1.00608 -0.0282783 7.85689e-21)
(1.00851 -0.0310775 -7.02137e-21)
(1.01034 -0.0338944 4.18311e-22)
(1.011 -0.0363694 0)
(1.0128 -0.037847 -3.78118e-22)
(1.01607 -0.0410419 0)
(1.01962 -0.0446584 2.47446e-21)
(1.02271 -0.0466136 -6.12586e-22)
(1.02643 -0.047558 -1.636e-21)
(1.0343 -0.0478223 -7.51611e-23)
(1.04354 -0.0467975 -3.55862e-23)
(1.05244 -0.0443827 0)
(1.06104 -0.04195 3.82569e-22)
(1.06834 -0.0400447 -3.44855e-22)
(1.0742 -0.0378295 -9.95986e-22)
(1.07895 -0.0349297 1.1306e-21)
(1.08269 -0.0313879 -8.89266e-23)
(1.08594 -0.0261391 4.11148e-22)
(1.0882 -0.0206045 -4.84322e-22)
(1.09093 -0.0128163 1.64541e-23)
(1.0916 -0.00570327 -1.48098e-22)
(1.09243 0.00373396 1.49183e-22)
(1.09127 0.0116067 -1.68708e-22)
(1.08935 0.0202153 1.57247e-22)
(1.08546 0.0266297 -3.2247e-21)
(1.08161 0.0341936 2.89719e-21)
(1.07629 0.0386491 4.73284e-21)
(1.07004 0.0444071 -4.76355e-21)
(1.06365 0.0469182 -2.79188e-22)
(1.05627 0.05089 0)
(1.0502 0.0510622 3.7781e-21)
(1.04202 0.0528806 -2.92139e-21)
(1.03604 0.0502561 -2.57986e-21)
(1.02829 0.0497971 2.26951e-21)
(1.02375 0.0464348 0)
(1.01818 0.0465024 3.2403e-21)
(1.01455 0.0421677 -3.24689e-21)
(1.00949 0.0417447 0)
(1.00655 0.036711 -1.37612e-22)
(1.00606 -0.029377 1.63992e-22)
(1.00677 -0.0321368 -8.17499e-21)
(1.0085 -0.0344831 7.17058e-21)
(1.0106 -0.0367982 -1.45353e-20)
(1.01162 -0.0395125 1.06146e-20)
(1.01306 -0.0414078 -2.89423e-21)
(1.01652 -0.0444833 0)
(1.02082 -0.0484244 -3.07719e-22)
(1.02442 -0.0507977 -1.60239e-21)
(1.02759 -0.052181 1.66282e-21)
(1.03412 -0.053323 6.75406e-23)
(1.04323 -0.0527848 -2.14271e-22)
(1.05273 -0.050433 3.28496e-23)
(1.06207 -0.0476102 2.03998e-22)
(1.07104 -0.0447133 0)
(1.07845 -0.0417522 0)
(1.08439 -0.0377851 -8.407e-23)
(1.08877 -0.0337544 8.32267e-22)
(1.09269 -0.0279146 -1.36429e-21)
(1.09473 -0.0219417 5.43502e-22)
(1.09693 -0.0144063 -6.75407e-22)
(1.09802 -0.00674526 6.46693e-22)
(1.09835 0.00279908 1.85826e-22)
(1.09708 0.00990576 3.13151e-21)
(1.09585 0.0193835 -2.94847e-21)
(1.09225 0.0267425 -2.95958e-21)
(1.08826 0.0356431 -2.7005e-22)
(1.08284 0.0409345 -2.25846e-21)
(1.07609 0.047398 6.05883e-21)
(1.06944 0.0502728 6.1272e-22)
(1.06111 0.0548347 -5.87077e-22)
(1.055 0.0554168 5.32201e-22)
(1.04625 0.0580738 -4.32783e-22)
(1.04033 0.0566552 -3.44005e-21)
(1.03277 0.0580302 6.06424e-21)
(1.02702 0.0545589 -2.67226e-21)
(1.01989 0.0539638 0)
(1.01586 0.0490537 0)
(1.01028 0.048566 0)
(1.0071 0.0427676 -2.50942e-21)
(1.00394 -0.0325242 0)
(1.00492 -0.0351386 7.94756e-21)
(1.00644 -0.0377761 -8.51305e-21)
(1.0091 -0.0405341 7.32956e-21)
(1.0114 -0.0436962 -8.28399e-21)
(1.01329 -0.0459327 -4.24789e-22)
(1.01682 -0.0486039 3.83447e-22)
(1.02189 -0.0526855 0)
(1.02623 -0.0553885 1.88893e-21)
(1.0296 -0.0567476 -1.90005e-21)
(1.03513 -0.0585819 -7.08325e-23)
(1.04327 -0.0591234 7.25225e-23)
(1.05281 -0.0570818 -5.5504e-23)
(1.06262 -0.0540528 6.328e-22)
(1.07273 -0.050352 -7.09359e-22)
(1.08197 -0.0463671 -8.80198e-23)
(1.08953 -0.0415051 0)
(1.09506 -0.0367126 1.21838e-22)
(1.0996 -0.0302486 -7.08514e-23)
(1.10236 -0.0236414 0)
(1.10451 -0.0155351 2.1774e-23)
(1.10516 -0.00807243 9.31432e-23)
(1.1057 0.00215883 -1.95149e-22)
(1.10457 0.0106932 0)
(1.10315 0.0206792 2.23372e-22)
(1.09949 0.0282185 -2.50966e-21)
(1.09505 0.0377278 3.34878e-21)
(1.0899 0.0437899 -6.22785e-21)