/*--------------------------------*- C++ -*----------------------------------*\
  =========                 |
  \\      /  F ield         | OpenFOAM: The Open Source CFD Toolbox
   \\    /   O peration     | Website:  https://openfoam.org
    \\  /    A nd           | Version:  10
     \\/     M anipulation  |
\*---------------------------------------------------------------------------*/
FoamFile
{
    format      ascii;
    class       volScalarField;
    location    "0.799866";
    object      rho;
}
// * * * * * * * * * * * * * * * * * * * * * * * * * * * * * * * * * * * * * //

dimensions      [1 -3 0 0 0 0 0];

internalField   nonuniform List<scalar> 
15708
(
0.985015
0.986407
0.988386
0.989384
0.990511
0.991507
0.992285
0.99294
0.993465
0.993877
0.994209
0.994466
0.99461
0.994703
0.994719
0.994642
0.994536
0.994372
0.994196
0.994002
0.993811
0.993609
0.993429
0.993272
0.993149
0.99307
0.993035
0.993071
0.993158
0.993328
0.993568
0.99389
0.994323
0.994822
0.995428
0.99613
0.996914
0.997785
0.998754
0.999792
1.0009
1.00211
1.00335
1.00469
1.00606
1.0075
1.00895
1.01048
1.01201
1.01358
1.01521
0.984568
0.986447
0.987888
0.988962
0.990178
0.991158
0.991989
0.992662
0.993217
0.993678
0.994033
0.994315
0.9945
0.994618
0.994659
0.994646
0.994573
0.994452
0.994326
0.994178
0.994021
0.993882
0.993745
0.993633
0.993552
0.993509
0.993514
0.993586
0.993705
0.993919
0.994195
0.994555
0.994994
0.995537
0.996148
0.996864
0.997665
0.998551
0.999543
1.0006
1.00173
1.00296
1.00421
1.00558
1.00694
1.00842
1.0099
1.01144
1.01301
1.01459
1.01621
0.984719
0.985589
0.987635
0.988292
0.990038
0.990699
0.991525
0.99228
0.992901
0.993398
0.993805
0.994128
0.994373
0.994532
0.994637
0.994664
0.994647
0.994574
0.994487
0.994384
0.99428
0.994178
0.994092
0.994022
0.994002
0.993996
0.994052
0.994163
0.994333
0.994567
0.994893
0.995277
0.995758
0.99633
0.99696
0.997706
0.998512
0.999435
1.00041
1.0015
1.00264
1.00387
1.00515
1.00652
1.00791
1.00938
1.01088
1.01243
1.01401
1.01562
1.01725
0.983257
0.985723
0.986401
0.988345
0.989011
0.990236
0.991073
0.991827
0.992463
0.992987
0.993431
0.993804
0.994114
0.994335
0.994499
0.994598
0.994637
0.994641
0.99461
0.994565
0.994519
0.994479
0.994449
0.994445
0.99447
0.994527
0.994635
0.994789
0.995008
0.995277
0.995636
0.996059
0.996567
0.997156
0.997832
0.998575
0.999424
1.00035
1.00135
1.00245
1.0036
1.00484
1.00612
1.0075
1.0089
1.01038
1.01188
1.01344
1.01503
1.01664
1.0183
0.98333
0.984533
0.986099
0.987241
0.988452
0.989508
0.990448
0.991253
0.991954
0.992543
0.993056
0.993498
0.993859
0.994146
0.994361
0.994522
0.994602
0.994676
0.994711
0.994733
0.994755
0.994779
0.994815
0.994863
0.994945
0.995066
0.995223
0.995438
0.9957
0.99603
0.996419
0.996897
0.997428
0.998053
0.998741
0.999522
1.00037
1.00131
1.00234
1.00343
1.00459
1.00585
1.00712
1.0085
1.0099
1.0114
1.01289
1.01446
1.01605
1.01766
1.01932
0.982056
0.983578
0.985027
0.986357
0.987633
0.988764
0.989765
0.990643
0.991413
0.992074
0.992653
0.993169
0.993614
0.993979
0.994255
0.99446
0.994606
0.994717
0.994812
0.994901
0.994984
0.995077
0.995174
0.995284
0.995419
0.995594
0.9958
0.996064
0.996385
0.996766
0.997214
0.997733
0.99832
0.998983
0.999707
1.0005
1.00138
1.00234
1.00337
1.00448
1.00564
1.00689
1.00818
1.00955
1.01095
1.01242
1.01393
1.01547
1.01707
1.01868
1.02032
0.980656
0.983097
0.983712
0.98589
0.986699
0.988044
0.989101
0.990044
0.990844
0.991528
0.992141
0.992696
0.993197
0.993629
0.993998
0.99428
0.994493
0.994684
0.994859
0.995014
0.995157
0.995286
0.995442
0.995635
0.995872
0.99614
0.996475
0.996822
0.997218
0.997635
0.998107
0.998641
0.999255
0.999931
1.00068
1.00151
1.00241
1.00338
1.00443
1.00555
1.00672
1.00797
1.00926
1.01062
1.01203
1.01349
1.015
1.01652
1.01811
1.01971
1.02133
0.979998
0.981387
0.983061
0.984468
0.985847
0.987065
0.988175
0.989161
0.990045
0.990849
0.991553
0.992186
0.992742
0.993233
0.993684
0.994061
0.99437
0.994625
0.994862
0.995075
0.995281
0.995479
0.995723
0.99602
0.996356
0.996736
0.997115
0.997532
0.99798
0.998478
0.999014
0.999591
1.00024
1.00093
1.0017
1.00255
1.00346
1.00446
1.00553
1.00666
1.00785
1.00909
1.01039
1.01174
1.01314
1.01459
1.01607
1.01761
1.01915
1.02075
1.02236
0.978346
0.980676
0.981473
0.983601
0.984559
0.985969
0.987076
0.988185
0.989143
0.990073
0.990938
0.991712
0.992346
0.992857
0.993273
0.993672
0.99405
0.994423
0.994801
0.995156
0.995508
0.995841
0.996172
0.996519
0.996892
0.997292
0.997724
0.998195
0.9987
0.999255
0.999858
1.00051
1.0012
1.00197
1.00278
1.00365
1.0046
1.00561
1.00669
1.00783
1.00902
1.01026
1.01155
1.0129
1.01429
1.01572
1.01719
1.0187
1.02022
1.0218
1.02336
0.977478
0.978374
0.980788
0.98164
0.983759
0.984504
0.986368
0.987004
0.988329
0.989233
0.990146
0.990932
0.991616
0.992211
0.992783
0.99333
0.99388
0.99441
0.994888
0.995301
0.995683
0.996069
0.996484
0.996907
0.997343
0.997801
0.998282
0.998815
0.999382
1
1.00067
1.00138
1.00215
1.00295
1.00384
1.00476
1.00576
1.00679
1.00791
1.00904
1.01024
1.01148
1.01277
1.0141
1.01548
1.0169
1.01835
1.01983
1.02133
1.02287
1.0244
0.974701
0.977545
0.978187
0.980751
0.981711
0.983739
0.984844
0.986107
0.987241
0.988257
0.989161
0.990022
0.990844
0.991615
0.992323
0.992981
0.993594
0.994152
0.994687
0.995217
0.995743
0.99624
0.996729
0.997224
0.997746
0.99831
0.998905
0.999532
1.0002
1.00088
1.00162
1.00238
1.0032
1.00405
1.00496
1.00592
1.00694
1.00799
1.0091
1.01027
1.01148
1.01273
1.01403
1.01535
1.01673
1.01811
1.01954
1.02099
1.02246
1.02396
1.02548
0.972796
0.97556
0.976433
0.978962
0.979895
0.982225
0.983371
0.984993
0.98616
0.98728
0.988272
0.989201
0.990052
0.990877
0.99166
0.992401
0.993118
0.993793
0.994446
0.995091
0.995739
0.996369
0.996976
0.997583
0.998203
0.998845
0.999513
1.00021
1.00094
1.00171
1.00251
1.00334
1.00422
1.00513
1.00609
1.00709
1.00815
1.00925
1.0104
1.01156
1.01278
1.01403
1.01532
1.01664
1.018
1.01939
1.0208
1.02222
1.02366
1.02511
1.02658
0.97296
0.972635
0.975895
0.976389
0.979179
0.979926
0.982281
0.983052
0.984946
0.985983
0.987128
0.988177
0.98919
0.990108
0.991007
0.99186
0.992715
0.99353
0.994312
0.995057
0.995775
0.996482
0.997183
0.997887
0.99861
0.999338
1.0001
1.00087
1.00168
1.00251
1.00337
1.00427
1.00521
1.0062
1.00722
1.00828
1.00937
1.01051
1.01169
1.01289
1.01412
1.0154
1.0167
1.01802
1.01936
1.02071
1.02209
1.02348
1.02488
1.0263
1.02771
0.972648
0.972317
0.974506
0.974913
0.977678
0.978159
0.980704
0.981767
0.983229
0.984622
0.985919
0.987149
0.988319
0.989392
0.990429
0.991413
0.992376
0.993277
0.994128
0.994947
0.995759
0.996556
0.997362
0.998178
0.998978
0.999802
1.00063
1.0015
1.00239
1.00331
1.00426
1.00523
1.00624
1.00729
1.00838
1.00951
1.01066
1.01183
1.01302
1.01427
1.01553
1.01682
1.01812
1.01943
1.02075
1.02209
1.02344
1.02481
1.02618
1.02754
1.02892
0.973897
0.977524
0.971232
0.976025
0.973745
0.977391
0.977785
0.980165
0.981621
0.983182
0.984565
0.985907
0.987224
0.988484
0.989674
0.990763
0.991772
0.992755
0.99372
0.994664
0.995586
0.996509
0.997424
0.998356
0.999303
1.00025
1.00121
1.00216
1.00313
1.00412
1.00513
1.00619
1.00726
1.00837
1.00953
1.01071
1.01193
1.01316
1.01441
1.01568
1.01698
1.01829
1.01961
1.02092
1.02222
1.02355
1.02486
1.02619
1.02752
1.02886
1.03018
0.988796
0.979898
0.976923
0.973696
0.976404
0.974359
0.977109
0.977673
0.979888
0.98137
0.982966
0.984447
0.985882
0.987264
0.988571
0.989834
0.991062
0.992232
0.993341
0.994418
0.995464
0.99651
0.997536
0.998565
0.999594
1.00061
1.00168
1.0027
1.0038
1.00486
1.006
1.00712
1.00831
1.00949
1.01073
1.01198
1.01325
1.01453
1.01584
1.01715
1.01847
1.0198
1.02114
1.02247
1.02378
1.02508
1.02639
1.02768
1.02898
1.03025
1.03151
1.0218
0.999009
0.986315
0.978432
0.975146
0.974596
0.975264
0.976511
0.978125
0.979854
0.981559
0.983189
0.984724
0.986181
0.987565
0.988932
0.990273
0.991578
0.992845
0.994085
0.995306
0.996511
0.997664
0.998809
0.999896
1.00105
1.0021
1.00333
1.00437
1.00568
1.00673
1.00813
1.00923
1.01065
1.01185
1.01322
1.01459
1.01592
1.01727
1.01865
1.02001
1.02139
1.02273
1.02407
1.02539
1.02669
1.02798
1.02925
1.03051
1.03174
1.03295
1.09613
1.04161
1.00863
0.990079
0.981092
0.976461
0.975113
0.975435
0.976555
0.978109
0.979842
0.981605
0.983307
0.984976
0.986587
0.988125
0.989591
0.991024
0.992414
0.993761
0.995052
0.996337
0.997621
0.998882
1.00015
1.00135
1.00266
1.00373
1.0052
1.00611
1.00783
1.00863
1.01055
1.01139
1.01334
1.0144
1.0159
1.01732
1.01878
1.02019
1.02161
1.02303
1.02443
1.02581
1.02713
1.02845
1.02971
1.03096
1.03216
1.03332
1.03447
1.20338
1.11493
1.05443
1.01295
0.991987
0.980534
0.976678
0.974877
0.975277
0.976496
0.978078
0.979859
0.981669
0.983488
0.985279
0.987025
0.9887
0.990291
0.991837
0.993334
0.994794
0.996179
0.997539
0.998909
1.00023
1.00166
1.00287
1.00445
1.00545
1.00723
1.00806
1.01006
1.01091
1.01299
1.01386
1.01598
1.01692
1.01901
1.02024
1.02181
1.02328
1.0247
1.02612
1.0275
1.02889
1.03016
1.03149
1.03267
1.0339
1.03502
1.03612
1.3166
1.20965
1.11728
1.06106
1.01504
0.996179
0.979431
0.977593
0.974854
0.975762
0.977076
0.978642
0.980388
0.982214
0.9841
0.985997
0.987869
0.98965
0.991327
0.992923
0.994434
0.99595
0.997384
0.998899
1.00023
1.00187
1.00305
1.00485
1.00605
1.00769
1.00925
1.01053
1.01245
1.01355
1.01569
1.01671
1.01894
1.01994
1.02212
1.02333
1.02498
1.02651
1.02798
1.02933
1.03074
1.03201
1.03333
1.03451
1.03571
1.0368
1.03783
1.42346
1.28285
1.1833
1.09456
1.05221
1.00427
1.00049
0.974699
0.977862
0.973237
0.97524
0.977067
0.978974
0.980962
0.982979
0.984965
0.986935
0.988845
0.990688
0.992432
0.994074
0.995683
0.997225
0.998762
1.00042
1.00173
1.00361
1.00473
1.00683
1.0078
1.0101
1.01112
1.01348
1.01456
1.0168
1.0185
1.01983
1.0219
1.02319
1.02536
1.02662
1.02856
1.03002
1.03144
1.03284
1.03412
1.03532
1.03654
1.03764
1.03873
1.03969
1.47729
1.36366
1.23752
1.1476
1.07211
1.03372
0.996391
0.99827
0.973774
0.976851
0.974472
0.975553
0.977451
0.979532
0.981676
0.983827
0.985956
0.988006
0.990009
0.991862
0.993687
0.995323
0.997082
0.998601
1.00045
1.00186
1.00376
1.00523
1.00702
1.00878
1.0102
1.01241
1.01371
1.01612
1.0174
1.01987
1.02116
1.02361
1.02507
1.02678
1.02857
1.03018
1.0318
1.0333
1.03482
1.03623
1.03755
1.03869
1.03985
1.04081
1.04174
1.49298
1.37551
1.26396
1.16748
1.10346
1.04727
1.01755
0.991142
0.991277
0.975277
0.974689
0.975533
0.976735
0.978497
0.980553
0.982743
0.984944
0.987096
0.989201
0.991202
0.993137
0.994962
0.996741
0.998484
1.00023
1.00208
1.00367
1.00565
1.00708
1.00934
1.01075
1.01319
1.01456
1.01715
1.01851
1.02118
1.0226
1.02495
1.02703
1.02868
1.03051
1.03227
1.03388
1.03544
1.03689
1.03832
1.03964
1.04084
1.04193
1.04292
1.04381
1.45627
1.35038
1.24904
1.15853
1.09737
1.05018
1.01723
0.999849
0.985239
0.983345
0.975036
0.974539
0.975983
0.977854
0.979873
0.981983
0.984121
0.98628
0.988389
0.990448
0.992425
0.99446
0.996195
0.998304
0.999814
1.00206
1.00343
1.00591
1.0072
1.00988
1.01117
1.014
1.01581
1.01732
1.02005
1.02162
1.02448
1.02617
1.02829
1.03067
1.03244
1.03422
1.03607
1.03776
1.03933
1.04066
1.0419
1.04301
1.04401
1.04483
1.04558
1.38105
1.28954
1.20798
1.1349
1.08135
1.04202
1.01216
0.99516
0.984799
0.979234
0.978534
0.975051
0.974932
0.97666
0.978786
0.981017
0.983233
0.985458
0.987595
0.989709
0.991697
0.993836
0.995574
0.997776
0.999261
1.00162
1.00312
1.00568
1.00722
1.00993
1.01148
1.0144
1.01608
1.01901
1.02043
1.02358
1.02509
1.02822
1.03006
1.03208
1.03454
1.03632
1.03817
1.03994
1.04156
1.04303
1.04434
1.04552
1.0466
1.04747
1.04807
1.16644
1.13379
1.09826
1.06734
1.03696
1.01559
0.997854
0.986689
0.980581
0.975805
0.975605
0.974731
0.974936
0.976239
0.978267
0.980569
0.982829
0.98507
0.987157
0.989251
0.991174
0.993283
0.995051
0.997235
0.998862
1.00109
1.00253
1.00508
1.00663
1.00957
1.01129
1.01448
1.01641
1.01971
1.02177
1.02433
1.02685
1.02952
1.03165
1.03436
1.03641
1.03887
1.04062
1.04257
1.04453
1.04624
1.04768
1.04895
1.05018
1.05098
1.05149
1.04413
1.03872
1.02766
1.01814
1.00651
0.997358
0.989168
0.982116
0.97857
0.975374
0.975227
0.975987
0.976593
0.978371
0.980558
0.98292
0.985256
0.987384
0.989184
0.990898
0.992378
0.993988
0.995418
0.997245
0.998719
1.0008
1.00231
1.00459
1.00635
1.00897
1.01104
1.01399
1.01639
1.01964
1.02211
1.02528
1.02808
1.03095
1.03356
1.0364
1.03908
1.04135
1.04392
1.04623
1.04865
1.05097
1.05319
1.05502
1.05636
1.05687
1.05677
1.13541
1.10712
1.07927
1.0578
1.03875
1.02459
1.01373
1.00428
1.00008
0.996676
0.996614
0.996911
0.999616
1.00122
1.00288
1.0058
1.00721
1.00737
1.00614
1.00437
1.00248
1.00099
1
0.999843
1.00018
1.0013
1.00246
1.00437
1.00618
1.00866
1.01101
1.014
1.01642
1.0199
1.02293
1.02615
1.02965
1.03281
1.03588
1.03926
1.04274
1.04645
1.05108
1.05636
1.06101
1.06599
1.07038
1.07273
1.07295
1.06964
1.0672
1.37927
1.36196
1.33922
1.31133
1.28277
1.25523
1.23246
1.20488
1.19349
1.17475
1.17213
1.15999
1.16064
1.1608
1.1604
1.15435
1.15225
1.14019
1.10783
1.07441
1.05004
1.03227
1.01973
1.0117
1.00711
1.00492
1.00439
1.00502
1.00633
1.00854
1.01097
1.01392
1.01686
1.02058
1.02392
1.02764
1.03153
1.03579
1.04104
1.04869
1.05968
1.07378
1.08927
1.10296
1.11549
1.12582
1.1303
1.13043
1.11651
1.10122
1.08525
1.26646
1.31076
1.33691
1.35544
1.37426
1.39122
1.40959
1.41959
1.43651
1.44487
1.45977
1.46428
1.47434
1.48075
1.48257
1.47729
1.46796
1.453
1.42053
1.34904
1.25501
1.16851
1.10315
1.0598
1.03365
1.01879
1.01143
1.0083
1.00777
1.00882
1.01119
1.01405
1.01752
1.02162
1.02629
1.03266
1.04306
1.06061
1.08632
1.12108
1.16913
1.22249
1.26777
1.3018
1.3217
1.32937
1.32645
1.28244
1.19594
1.12606
1.08761
1.08921
1.12413
1.17712
1.23943
1.30262
1.35309
1.39539
1.42738
1.46663
1.5029
1.54483
1.5762
1.60807
1.62463
1.64242
1.65068
1.6551
1.6494
1.60843
1.48655
1.32466
1.20013
1.11591
1.06405
1.0342
1.01805
1.01022
1.00739
1.00723
1.00887
1.01217
1.01688
1.02528
1.04113
1.06613
1.10606
1.16733
1.2509
1.33855
1.41701
1.48264
1.52863
1.55638
1.56632
1.57015
1.56551
1.49087
1.29862
1.1639
1.09795
1.07981
1.14644
1.11933
1.10997
1.11719
1.14452
1.19555
1.25549
1.31166
1.36861
1.42154
1.48781
1.56223
1.62435
1.6775
1.70991
1.71886
1.71457
1.68219
1.59903
1.43994
1.27798
1.16104
1.08574
1.03983
1.01721
1.00831
1.00615
1.00798
1.01414
1.03217
1.06403
1.10727
1.17777
1.26997
1.3659
1.45605
1.52711
1.57939
1.62226
1.65774
1.69966
1.71469
1.72435
1.74491
1.74064
1.63644
1.41757
1.18387
1.10193
1.1103
1.24363
1.20852
1.12432
1.07842
1.07201
1.07881
1.09832
1.1338
1.18774
1.26219
1.36246
1.48511
1.58589
1.6676
1.70497
1.71731
1.71016
1.67453
1.58214
1.41364
1.22169
1.09911
1.04134
1.01794
1.01437
1.02004
1.04231
1.09076
1.15968
1.25395
1.36566
1.46788
1.54305
1.58858
1.60972
1.62514
1.64169
1.66005
1.68032
1.70625
1.73247
1.75176
1.80311
1.84979
1.82203
1.72672
1.49141
1.19496
1.14633
1.20997
1.54783
1.74693
1.21529
1.13833
1.10462
1.09956
1.10611
1.13385
1.19246
1.27901
1.37088
1.48333
1.57846
1.63372
1.65652
1.65827
1.61173
1.51049
1.33804
1.17641
1.08146
1.04949
1.04776
1.07027
1.1545
1.28077
1.39673
1.51545
1.60476
1.65657
1.67224
1.65954
1.62505
1.60871
1.60011
1.60013
1.60881
1.62334
1.64583
1.66888
1.68994
1.75524
1.83782
1.87922
1.85503
1.75159
1.45784
1.2535
1.23532
1.40992
1.69513
1.75073
1.69431
1.36888
1.34004
1.32478
1.32222
1.32736
1.35544
1.40162
1.42951
1.45708
1.48551
1.50494
1.46456
1.37812
1.27848
1.19383
1.13754
1.11929
1.13043
1.17139
1.33568
1.45644
1.5974
1.69122
1.70227
1.65245
1.58123
1.52962
1.46946
1.40907
1.36421
1.35099
1.3586
1.37706
1.40436
1.42898
1.45934
1.52072
1.60853
1.72003
1.82595
1.86579
1.8585
1.70459
1.41299
1.34096
1.3681
1.62411
1.71553
1.71371
1.58012
1.30585
1.24897
1.26946
1.27078
1.2772
1.27441
1.26715
1.26512
1.25099
1.23286
1.21656
1.18957
1.17882
1.18123
1.20739
1.23332
1.3336
1.4421
1.55469
1.64098
1.67174
1.61608
1.51095
1.38619
1.25312
1.17455
1.13268
1.10254
1.09181
1.13598
1.17167
1.18807
1.20481
1.23266
1.26861
1.32639
1.41591
1.53145
1.6749
1.78176
1.81034
1.79828
1.58227
1.4529
1.4334
1.52772
1.69355
1.71888
1.64804
1.4447
1.24755
1.18742
1.05544
1.07644
1.10395
1.12554
1.14492
1.16754
1.19347
1.21799
1.24393
1.28253
1.34759
1.4123
1.48096
1.55585
1.60262
1.62877
1.60359
1.5107
1.39519
1.21874
1.11004
1.06601
1.04964
1.05584
1.09566
1.15576
1.1871
1.19615
1.2043
1.19687
1.18885
1.19945
1.22875
1.27628
1.3627
1.50615
1.66513
1.73049
1.75421
1.68622
1.5242
1.51537
1.52148
1.67168
1.72506
1.72275
1.60819
1.40134
1.30225
1.26735
1.26446
1.40953
1.41005
1.41539
1.43655
1.46688
1.50325
1.54449
1.58084
1.61181
1.63431
1.64334
1.62962
1.58501
1.52456
1.44182
1.31466
1.16629
1.07345
1.03611
1.03156
1.03876
1.07705
1.14071
1.23489
1.30005
1.3275
1.33564
1.32096
1.28138
1.23505
1.2273
1.23777
1.28853
1.41443
1.541
1.6312
1.65188
1.65503
1.56481
1.54075
1.55726
1.65077
1.76507
1.77596
1.76492
1.6434
1.5082
1.44675
1.43324
1.48385
1.62282
1.75679
1.75578
1.74943
1.73869
1.72467
1.70977
1.6846
1.65411
1.60817
1.55402
1.4808
1.38199
1.27814
1.16401
1.06578
1.01873
1.01677
1.01612
1.02928
1.06129
1.11719
1.20167
1.29711
1.34445
1.37359
1.37715
1.3806
1.37022
1.35326
1.3525
1.3598
1.39465
1.46903
1.53901
1.5685
1.58992
1.56884
1.56566
1.57714
1.64021
1.76129
1.832
1.84342
1.83158
1.76193
1.685
1.67676
1.7073
1.79985
1.85653
1.9498
1.78872
1.76781
1.74064
1.70741
1.66473
1.61321
1.55059
1.47813
1.395
1.30463
1.21355
1.13083
1.06133
1.00394
1.01061
1.00646
1.0154
1.03281
1.06497
1.11862
1.18039
1.25543
1.32349
1.35934
1.3771
1.38213
1.39056
1.39617
1.40319
1.41428
1.4355
1.46527
1.49684
1.52325
1.53879
1.55442
1.58101
1.62643
1.76113
1.8734
1.89139
1.9179
1.91185
1.89103
1.88277
1.89602
1.94537
1.97398
2.02273
2.06668
2.10571
1.78065
1.74514
1.70303
1.6519
1.5919
1.52326
1.44662
1.36403
1.2782
1.19309
1.11417
1.04842
1.0154
1.00572
1.01281
1.01682
1.03532
1.05826
1.0961
1.14272
1.18945
1.24325
1.28763
1.32872
1.35439
1.3724
1.38319
1.39676
1.40948
1.4287
1.44843
1.47579
1.50314
1.5285
1.56479
1.62645
1.74429
1.89661
1.92066
1.9739
1.99014
2.00786
2.01463
2.02378
2.0353
2.05778
2.08605
2.10549
2.12879
2.14921
2.16096
1.7802
1.74014
1.69227
1.63546
1.56885
1.49325
1.41097
1.32417
1.23732
1.15704
1.08638
1.047
1.0204
1.02993
1.03097
1.04495
1.06198
1.09025
1.1284
1.16605
1.20913
1.24391
1.28277
1.3127
1.33902
1.36229
1.38097
1.40155
1.41899
1.44447
1.47133
1.5087
1.55611
1.63284
1.75649
1.86712
1.92977
1.99004
2.00759
2.0388
2.05624
2.07252
2.08589
2.09924
2.11399
2.13104
2.14554
2.15707
2.16792
2.17519
2.17848
1.79803
1.7613
1.71755
1.66483
1.60367
1.53353
1.45756
1.37601
1.29591
1.21876
1.15307
1.10043
1.08757
1.07249
1.08082
1.09265
1.10477
1.1343
1.16319
1.20054
1.23499
1.26334
1.29636
1.32374
1.35302
1.37651
1.40265
1.43252
1.46657
1.51482
1.58144
1.67395
1.7659
1.87161
1.92251
1.98348
2.00221
2.03515
2.05429
2.07548
2.09147
2.10536
2.11934
2.13269
2.14517
2.15637
2.16633
2.17414
2.18094
2.18475
2.18677
1.8285
1.8004
1.76654
1.72551
1.6769
1.62323
1.56025
1.49908
1.43152
1.37208
1.31188
1.26946
1.23066
1.22179
1.21156
1.21965
1.22351
1.24009
1.25741
1.28368
1.31025
1.33355
1.36468
1.39597
1.43717
1.47636
1.52647
1.58782
1.6563
1.72904
1.80246
1.862
1.924
1.96143
1.99367
2.01458
2.03697
2.05778
2.07423
2.08949
2.1033
2.11907
2.12979
2.14516
2.15433
2.16561
2.17327
2.18121
2.1865
2.19001
2.19132
1.8506
1.83115
1.80699
1.77861
1.74565
1.70829
1.66862
1.62275
1.57477
1.51676
1.51903
1.44497
1.45918
1.42757
1.43729
1.43797
1.44679
1.45973
1.47816
1.50286
1.52194
1.54736
1.57705
1.61556
1.65665
1.69348
1.74075
1.78967
1.83501
1.87773
1.91873
1.94986
1.9811
1.99427
2.01635
2.03333
2.04966
2.06358
2.07904
2.09094
2.11024
2.11921
2.13638
2.14442
2.15907
2.16546
2.17685
2.18111
2.18856
2.18985
2.19152
1.86885
1.85525
1.83988
1.82104
1.80048
1.77664
1.75052
1.7239
1.69665
1.67109
1.64369
1.63119
1.62342
1.61538
1.62255
1.62736
1.63851
1.65137
1.67185
1.69059
1.71123
1.73245
1.76019
1.78729
1.81482
1.83926
1.87173
1.89823
1.92115
1.94585
1.96427
1.98364
1.99685
2.01165
2.02608
2.03874
2.05277
2.06465
2.07981
2.09316
2.10718
2.11999
2.13361
2.14463
2.15677
2.16573
2.17495
2.18158
2.1867
2.19104
2.19099
1.8802
1.87042
1.85997
1.84843
1.83571
1.82241
1.80791
1.79266
1.77759
1.76378
1.75143
1.74578
1.7396
1.74644
1.74995
1.7582
1.76779
1.78132
1.79783
1.81291
1.82984
1.84615
1.86575
1.88278
1.89741
1.91371
1.93017
1.9448
1.96067
1.97106
1.98467
1.99651
2.00704
2.01825
2.02821
2.03984
2.05109
2.06312
2.07653
2.08911
2.10218
2.11493
2.12735
2.13802
2.14999
2.15792
2.16882
2.17443
2.18115
2.18462
2.18555
1.88637
1.87954
1.87191
1.86439
1.8566
1.84911
1.84147
1.83384
1.82674
1.82075
1.81652
1.81486
1.81753
1.82117
1.82825
1.8353
1.84501
1.85524
1.8678
1.87997
1.89154
1.90348
1.91445
1.92538
1.93691
1.94633
1.95697
1.9666
1.97628
1.98433
1.99381
2.00157
2.01044
2.01937
2.02843
2.03843
2.04825
2.05926
2.07121
2.08255
2.09448
2.10663
2.11845
2.13068
2.14181
2.15223
2.16141
2.16887
2.1756
2.17957
2.1804
1.88996
1.88456
1.8792
1.87357
1.86887
1.86448
1.86081
1.8575
1.85508
1.85374
1.85348
1.85498
1.8581
1.86298
1.86913
1.87651
1.88476
1.89317
1.90248
1.91158
1.92105
1.92987
1.93926
1.94709
1.95523
1.96347
1.96929
1.97917
1.98373
1.99274
1.9985
2.00616
2.01291
2.02015
2.02742
2.03534
2.04352
2.05303
2.0629
2.07299
2.08437
2.09588
2.10742
2.11899
2.12924
2.13949
2.14813
2.15647
2.16391
2.16957
2.17204
1.89172
1.88758
1.88309
1.87896
1.87537
1.87262
1.87055
1.86906
1.86863
1.8696
1.87163
1.87484
1.87881
1.88386
1.88955
1.89773
1.90345
1.91289
1.91907
1.92969
1.93453
1.94531
1.94891
1.95977
1.96388
1.9735
1.97864
1.98693
1.99226
1.99867
2.00329
2.0097
2.01389
2.01933
2.02443
2.02967
2.03491
2.04073
2.04655
2.05417
2.06214
2.07139
2.08081
2.09056
2.10065
2.10981
2.11869
2.12656
2.13349
2.13904
2.14126
1.89284
1.88962
1.88554
1.88229
1.87949
1.8777
1.87657
1.87611
1.87667
1.87818
1.88079
1.88449
1.88911
1.8946
1.90068
1.90743
1.91448
1.92199
1.92996
1.93698
1.94506
1.95209
1.96009
1.96764
1.97389
1.98152
1.98764
1.99383
1.99791
2.00372
2.00634
2.01059
2.0121
2.01448
2.01497
2.01675
2.01847
2.02395
2.02847
2.03807
2.04737
2.05979
2.072
2.08567
2.09803
2.11017
2.12064
2.12989
2.13752
2.14322
2.14558
1.01677
1.01843
1.02002
1.02171
1.02329
1.02502
1.02666
1.02834
1.02999
1.03169
1.03337
1.03507
1.03676
1.03846
1.04017
1.04184
1.04352
1.04516
1.04678
1.04833
1.04983
1.05123
1.05256
1.05375
1.05485
1.05577
1.01785
1.0195
1.02116
1.02282
1.0245
1.02615
1.02784
1.0295
1.03119
1.0329
1.03456
1.03626
1.03796
1.03959
1.0413
1.04292
1.04456
1.04614
1.04768
1.04919
1.0506
1.05194
1.05317
1.0543
1.05529
1.05615
1.0189
1.02055
1.02228
1.02386
1.02566
1.02726
1.029
1.03066
1.03233
1.03402
1.03572
1.03738
1.03906
1.0407
1.04233
1.04395
1.04552
1.04707
1.04855
1.04998
1.05134
1.05261
1.05377
1.0548
1.05573
1.05649
1.01991
1.02165
1.02328
1.02498
1.02668
1.02839
1.03008
1.03176
1.03343
1.0351
1.03679
1.03844
1.04009
1.04172
1.04332
1.0449
1.04643
1.04793
1.04936
1.05074
1.05203
1.05323
1.05433
1.0553
1.05615
1.05685
1.02094
1.02266
1.02431
1.02603
1.0277
1.02943
1.0311
1.03278
1.03446
1.03613
1.03778
1.03944
1.04106
1.04267
1.04424
1.04577
1.04729
1.04872
1.05011
1.05144
1.05266
1.05382
1.05485
1.05577
1.05656
1.05719
1.02198
1.02366
1.02532
1.02703
1.02871
1.0304
1.03208
1.03375
1.03541
1.03709
1.03873
1.04035
1.04195
1.04353
1.04505
1.04657
1.04803
1.04944
1.05079
1.05207
1.05325
1.05435
1.05534
1.05619
1.05694
1.05752
1.02299
1.02464
1.02631
1.02799
1.02965
1.03134
1.03301
1.03467
1.03632
1.03794
1.03956
1.04117
1.04274
1.04429
1.04581
1.04727
1.04871
1.05008
1.05139
1.05262
1.05377
1.05481
1.05577
1.05658
1.05728
1.05783
1.02397
1.02563
1.02725
1.02892
1.03056
1.03222
1.03387
1.03549
1.03711
1.03874
1.04032
1.04191
1.04344
1.04496
1.04643
1.04788
1.04927
1.05061
1.05188
1.0531
1.0542
1.05523
1.05613
1.05694
1.05759
1.05812
1.02497
1.02659
1.0282
1.02983
1.03145
1.03307
1.03469
1.0363
1.03789
1.03945
1.04103
1.04255
1.04406
1.04554
1.04699
1.04838
1.04975
1.05105
1.05231
1.05347
1.05457
1.05557
1.05645
1.05723
1.05787
1.05838
1.02598
1.02754
1.02913
1.03073
1.03231
1.03387
1.03546
1.03703
1.03857
1.0401
1.04164
1.0431
1.04461
1.04602
1.04744
1.0488
1.05012
1.05141
1.0526
1.05377
1.05483
1.05581
1.05669
1.05747
1.05808
1.05862
1.02699
1.02853
1.03007
1.0316
1.03316
1.03467
1.03621
1.03772
1.03921
1.04073
1.04215
1.04364
1.04503
1.04645
1.0478
1.04913
1.05042
1.05166
1.05286
1.05397
1.05503
1.05599
1.05687
1.05762
1.05827
1.0588
1.02805
1.02954
1.031
1.03251
1.03398
1.03546
1.03692
1.03838
1.03982
1.04125
1.04266
1.04403
1.04546
1.04673
1.04814
1.04931
1.05063
1.05179
1.05297
1.05408
1.0551
1.05609
1.05693
1.05775
1.05837
1.05897
1.02916
1.03056
1.03202
1.03341
1.03484
1.03627
1.03763
1.03904
1.0404
1.04179
1.04307
1.04445
1.04567
1.04704
1.04822
1.04948
1.05069
1.05183
1.05295
1.05408
1.05508
1.05604
1.05694
1.05773
1.05846
1.05903
1.03028
1.03167
1.033
1.03438
1.03572
1.03705
1.03841
1.03967
1.04101
1.04225
1.04354
1.04474
1.04594
1.04718
1.04829
1.04952
1.0506
1.05177
1.05285
1.05397
1.05491
1.05595
1.05685
1.05766
1.05843
1.05907
1.03151
1.03279
1.03411
1.03535
1.03665
1.03787
1.03911
1.04032
1.04152
1.04271
1.04383
1.04504
1.04601
1.04743
1.04804
1.04961
1.05024
1.05181
1.05264
1.0536
1.05464
1.0557
1.05657
1.05749
1.05835
1.05901
1.03279
1.03398
1.03523
1.03639
1.03761
1.03874
1.0399
1.04099
1.04208
1.04312
1.04417
1.04516
1.04618
1.04711
1.04816
1.04915
1.05014
1.05113
1.05229
1.05299
1.05436
1.05503
1.05632
1.05723
1.05807
1.05879
1.03415
1.03528
1.03644
1.0375
1.03862
1.03963
1.04068
1.04165
1.04259
1.04353
1.04444
1.04524
1.04616
1.04699
1.04791
1.04889
1.04944
1.05078
1.05128
1.05271
1.05325
1.05474
1.05548
1.05687
1.0578
1.05873
1.03561
1.03666
1.03773
1.03871
1.03969
1.04059
1.04148
1.04231
1.04311
1.04391
1.04463
1.04531
1.04611
1.04665
1.04765
1.04797
1.04916
1.04955
1.0509
1.05146
1.05298
1.05386
1.05545
1.05663
1.05777
1.05891
1.03715
1.03816
1.03905
1.04
1.04081
1.04165
1.04237
1.04312
1.04372
1.04432
1.04483
1.04543
1.04575
1.04624
1.04671
1.04765
1.0481
1.04899
1.05016
1.05165
1.05326
1.05534
1.05732
1.05924
1.06106
1.06274
1.03881
1.03975
1.04058
1.04142
1.0421
1.04279
1.04333
1.04386
1.04425
1.0446
1.04493
1.04504
1.04527
1.04573
1.04645
1.04741
1.04822
1.05029
1.05322
1.05673
1.06186
1.06871
1.07342
1.07957
1.08451
1.08675
1.04058
1.04142
1.04218
1.04287
1.04342
1.04393
1.04431
1.04461
1.04479
1.0449
1.04475
1.04482
1.04494
1.04592
1.0487
1.05002
1.05547
1.06278
1.07975
1.09387
1.1167
1.14117
1.15761
1.17944
1.19667
1.20006
1.04256
1.04325
1.04391
1.04442
1.04482
1.04511
1.0453
1.04533
1.04523
1.04478
1.04485
1.0447
1.04735
1.04858
1.06591
1.07087
1.10577
1.15138
1.21792
1.28814
1.35812
1.42608
1.47464
1.5207
1.55704
1.56718
1.04454
1.04517
1.04566
1.04598
1.04623
1.04625
1.04628
1.04565
1.04522
1.04514
1.0462
1.04791
1.06144
1.07876
1.14525
1.24035
1.35921
1.45064
1.51936
1.57092
1.61004
1.64404
1.67491
1.70882
1.75003
1.77846
1.04618
1.04674
1.04715
1.04738
1.0474
1.04722
1.04639
1.04635
1.04602
1.04941
1.05425
1.09179
1.13685
1.30562
1.43981
1.51135
1.54906
1.57059
1.58885
1.60386
1.61458
1.63308
1.66669
1.7028
1.73226
1.76092
1.04856
1.04892
1.04919
1.04927
1.04882
1.04809
1.04797
1.04813
1.05633
1.06931
1.1427
1.29911
1.46253
1.51652
1.549
1.53722
1.50038
1.43511
1.39108
1.3517
1.30808
1.3034
1.31287
1.34196
1.40376
1.54384
1.05186
1.05206
1.05207
1.05135
1.05055
1.05055
1.05236
1.06827
1.10956
1.25474
1.45776
1.54285
1.55017
1.49785
1.40544
1.2817
1.24995
1.23815
1.22871
1.21811
1.20028
1.18938
1.19433
1.21365
1.26093
1.38176
1.05635
1.05613
1.05479
1.05352
1.05406
1.06061
1.08917
1.18943
1.45219
1.56069
1.5902
1.51167
1.35132
1.20627
1.19009
1.20595
1.24648
1.31323
1.32479
1.30219
1.26751
1.21858
1.21292
1.23853
1.31511
1.51401
1.06417
1.06052
1.05755
1.05912
1.07438
1.14483
1.34538
1.57844
1.65025
1.55883
1.37423
1.16692
1.13898
1.16681
1.25465
1.41993
1.48531
1.504
1.46886
1.32154
1.2698
1.26549
1.32104
1.48093
1.62857
1.71032
1.07242
1.06365
1.06854
1.10013
1.25182
1.56463
1.71425
1.64012
1.41645
1.14413
1.10329
1.11468
1.18028
1.361
1.47198
1.52131
1.52447
1.51289
1.4876
1.47836
1.48041
1.53893
1.58939
1.61201
1.62118
1.57515
1.07077
1.08093
1.18253
1.44919
1.7228
1.73554
1.48622
1.15342
1.08168
1.08202
1.11437
1.1831
1.3019
1.42675
1.47323
1.49123
1.49902
1.5034
1.50516
1.5057
1.50731
1.50559
1.47074
1.38388
1.32999
1.30729
1.12606
1.30205
1.71539
1.84297
1.60691
1.17347
1.07834
1.07392
1.08594
1.11434
1.14699
1.18562
1.22148
1.26062
1.29745
1.31549
1.32527
1.32643
1.32579
1.31045
1.30382
1.3002
1.30154
1.32492
1.38477
1.48515
1.63903
1.79777
1.73423
1.34489
1.10506
1.07728
1.075
1.0846
1.1019
1.11662
1.13529
1.15611
1.1751
1.19233
1.20986
1.2264
1.24477
1.26699
1.29221
1.32358
1.3669
1.43658
1.55605
1.71696
1.87431
1.99451
1.76456
1.5871
1.23161
1.09772
1.08147
1.07979
1.08972
1.11074
1.13555
1.1635
1.19716
1.23264
1.26983
1.31137
1.35908
1.41513
1.48321
1.56185
1.64509
1.73932
1.84361
1.94458
2.00485
2.0553
2.0723
2.10414
1.4471
1.16912
1.10323
1.09401
1.09538
1.11809
1.16712
1.23928
1.33911
1.45911
1.56044
1.63354
1.71214
1.78587
1.83618
1.89892
1.94266
1.97566
2.02231
2.04239
2.073
2.08344
2.09673
2.10248
2.10942
2.11499
1.15802
1.12517
1.1219
1.13684
1.20584
1.33851
1.53052
1.68771
1.77913
1.87773
1.92498
1.97938
2.00369
2.03768
2.06385
2.06043
2.07932
2.08199
2.09025
2.09377
2.09793
2.10187
2.10575
2.10907
2.11269
2.11543
1.17347
1.17944
1.24939
1.41978
1.64037
1.79656
1.88962
1.97861
2.0367
2.05223
2.07702
2.09434
2.08818
2.09938
2.09516
2.09805
2.09648
2.09747
2.09816
2.09962
2.10176
2.10421
2.10679
2.10955
2.1123
2.1149
1.32579
1.50276
1.70106
1.84708
1.9622
2.02291
2.07227
2.09458
2.109
2.1122
2.11556
2.11154
2.11026
2.10684
2.10356
2.10141
2.09962
2.09898
2.09915
2.10043
2.10203
2.10429
2.10674
2.1094
2.11199
2.1143
1.76567
1.89762
1.99591
2.0529
2.09763
2.11799
2.12893
2.13077
2.13086
2.12662
2.12318
2.11678
2.11275
2.10795
2.10473
2.10191
2.09921
2.09858
2.09873
2.09962
2.10127
2.10326
2.10564
2.10815
2.11061
2.11292
2.03236
2.07644
2.11579
2.13397
2.14437
2.14618
2.14496
2.14045
2.13622
2.12981
2.12473
2.11811
2.11324
2.10781
2.10363
2.09998
2.09779
2.09716
2.09693
2.09799
2.09954
2.10171
2.1041
2.10671
2.10919
2.11144
2.134
2.14759
2.1576
2.15983
2.15921
2.1549
2.15058
2.14424