/*--------------------------------*- C++ -*----------------------------------*\
  =========                 |
  \\      /  F ield         | OpenFOAM: The Open Source CFD Toolbox
   \\    /   O peration     | Website:  https://openfoam.org
    \\  /    A nd           | Version:  11
     \\/     M anipulation  |
\*---------------------------------------------------------------------------*/
FoamFile
{
    format      ascii;
    class       volScalarField;
    location    "8";
    object      p;
}
// * * * * * * * * * * * * * * * * * * * * * * * * * * * * * * * * * * * * * //

dimensions      [0 2 -2 0 0 0 0];

internalField   nonuniform List<scalar> 
9600
(
0.0553431
0.055657
0.0562165
0.0568963
0.0575545
0.0580205
0.0582726
0.0582351
0.0580062
0.0575683
0.0568491
0.0557765
0.0542314
0.0523321
0.0500741
0.0475851
0.044898
0.042089
0.0393015
0.0365423
0.0339877
0.0318256
0.0301582
0.028937
0.0278733
0.027565
0.0281316
0.0290902
0.0291879
0.0295748
0.0304138
0.0307582
0.0305561
0.0297855
0.0279148
0.0250643
0.0211904
0.016834
0.0121189
0.00719937
0.0555834
0.0560195
0.0566768
0.0573762
0.0579792
0.05834
0.0583854
0.058242
0.0579424
0.0574113
0.0565617
0.0553165
0.0537553
0.0518658
0.0496511
0.0471604
0.0444937
0.0417702
0.039063
0.0363969
0.0339264
0.0318243
0.0301847
0.0290273
0.0282171
0.0276725
0.0279152
0.0286476
0.0290341
0.02954
0.0302183
0.0308235
0.030944
0.0305074
0.0291344
0.0268864
0.0235896
0.019325
0.0148113
0.0102864
0.0558217
0.0562929
0.0569186
0.0575366
0.0580186
0.0582996
0.0583156
0.0581697
0.0578603
0.0573007
0.0564281
0.0552274
0.0536337
0.0517258
0.0495213
0.0470681
0.0444228
0.0417114
0.0390298
0.0363891
0.0339384
0.0318429
0.0301262
0.0288585
0.0281183
0.0275495
0.0277149
0.0283339
0.0292034
0.029696
0.0301272
0.0307242
0.0311169
0.0309406
0.0298545
0.0277994
0.0248889
0.0208278
0.0168871
0.0121693
0.0560847
0.0565458
0.0571951
0.0578107
0.0582629
0.0585017
0.0584873
0.0582702
0.0578729
0.0572526
0.0563072
0.0549789
0.053354
0.0514358
0.0492512
0.0467842
0.0441364
0.0414334
0.0387519
0.0361621
0.0337442
0.0316888
0.0299776
0.0287061
0.0278729
0.0276081
0.0276271
0.0281308
0.0288293
0.0295866
0.0302595
0.0306665
0.0313206
0.0313511
0.0306133
0.0289266
0.0263953
0.0226374
0.0185282
0.0139958
0.056382
0.0568355
0.0574978
0.0581007
0.0584916
0.0586433
0.0585443
0.0582621
0.0578581
0.0571947
0.0561857
0.0548563
0.0531943
0.0512646
0.0490679
0.0466155
0.0439725
0.0412759
0.0386162
0.0360554
0.0336625
0.0315907
0.0298657
0.0285163
0.0277326
0.0272973
0.02732
0.0277981
0.028559
0.0295851
0.0305272
0.0306975
0.0315422
0.0318398
0.0314902
0.0301741
0.0280844
0.0247619
0.020828
0.0165947
0.0567081
0.0571427
0.0578004
0.0583825
0.0587246
0.0588072
0.0586515
0.0583337
0.0578994
0.0572117
0.0561758
0.0547169
0.0530172
0.0510709
0.0488801
0.0464057
0.0437397
0.0410238
0.0383524
0.0357889
0.0333948
0.0313274
0.0296443
0.0282646
0.0274248
0.026936
0.0270467
0.0275144
0.0283157
0.0292987
0.030111
0.0308624
0.0317395
0.0322606
0.0322594
0.0313525
0.0296184
0.0267968
0.022987
0.0187323
0.0570666
0.0574762
0.0581097
0.0586653
0.058977
0.0589982
0.0587928
0.0584409
0.0579826
0.0572192
0.0560571
0.0546166
0.0528973
0.0509245
0.0487005
0.0462088
0.0435288
0.0407785
0.0381
0.0355332
0.0331611
0.0311005
0.0293593
0.0279737
0.0270823
0.0266191
0.0266754
0.0270831
0.0278463
0.0289467
0.0300789
0.0310845
0.0319224
0.0326554
0.0330043
0.032577
0.0312663
0.0290238
0.025651
0.0215713
0.0574551
0.0578253
0.0584294
0.0589612
0.0592468
0.059226
0.0589674
0.058589
0.0580887
0.0572684
0.0560902
0.0545621
0.0527894
0.0507773
0.0485298
0.0460107
0.0432755
0.0404909
0.0377929
0.0352212
0.0328275
0.0307375
0.0289733
0.0275776
0.0266938
0.0261564
0.0262354
0.0267149
0.0274411
0.0285458
0.0298027
0.0309305
0.0320682
0.0329231
0.0336488
0.0337055
0.0328707
0.0312656
0.0283751
0.0245815
0.0578717
0.0582034
0.0587696
0.0592784
0.0595376
0.059483
0.0591845
0.0587656
0.0582301
0.0573655
0.0560818
0.0545095
0.0526972
0.0506672
0.0483635
0.0457829
0.0430208
0.0401922
0.0374524
0.0348649
0.0324247
0.0303379
0.0285609
0.0271163
0.0262114
0.0256909
0.0257012
0.0261746
0.0269005
0.0279317
0.0292753
0.0307583
0.0323096
0.0331359
0.0341905
0.0347254
0.0343546
0.0334197
0.0310766
0.0284018
0.0583179
0.0586025
0.0591323
0.0596224
0.0598651
0.0597744
0.059441
0.058986
0.0584186
0.0574945
0.0561373
0.0544958
0.0526305
0.0505453
0.0481918
0.0455545
0.0427499
0.0398541
0.0370595
0.0344441
0.0319849
0.0298648
0.0280466
0.026573
0.0256273
0.0251187
0.0250921
0.025605
0.0264072
0.0273343
0.0286463
0.0303463
0.0321063
0.0333288
0.0345307
0.0355553
0.0355976
0.0353699
0.0338702
0.0321758
0.0587963
0.0590363
0.0595284
0.0599948
0.0602261
0.0601202
0.0597447
0.0592537
0.0586324
0.057661
0.0562224
0.0545006
0.0525643
0.0504313
0.0480291
0.0453075
0.0424345
0.0394888
0.0366432
0.0339789
0.0314607
0.0292759
0.0274461
0.0259621
0.0249761
0.0244533
0.0244348
0.0248846
0.0256764
0.0266461
0.0278934
0.0295813
0.0315459
0.0335722
0.034716
0.0362245
0.0367016
0.0370805
0.0364979
0.0358617
0.0593108
0.0595012
0.0599606
0.0604095
0.0606396
0.060518
0.060104
0.0595688
0.0588951
0.0578635
0.0563376
0.0545257
0.052527
0.0503141
0.0478401
0.0450328
0.0421074
0.0391073
0.0361594
0.0334162
0.0308595
0.0286358
0.026783
0.0252552
0.0242238
0.0236711
0.0236453
0.0240753
0.0248867
0.0259176
0.0271458
0.0287759
0.0308654
0.033207
0.0347758
0.0366373
0.0374979
0.0384252
0.0386817
0.0388505
0.0598665
0.0600112
0.0604407
0.0608802
0.0611088
0.0609715
0.0605175
0.0599286
0.0591951
0.05808
0.0564905
0.0545862
0.0524931
0.0501843
0.0476417
0.044765
0.0417252
0.038647
0.0356246
0.032794
0.0301943
0.0278966
0.0259969
0.0244242
0.0233624
0.0228174
0.0227818
0.023159
0.0239313
0.0249919
0.0262624
0.0279343
0.0299686
0.0322878
0.0345651
0.0366703
0.0379724
0.0395252
0.0404416
0.0411819
0.060472
0.0605653
0.0609837
0.0614215
0.061639
0.061483
0.060989
0.0603347
0.0595302
0.0583488
0.0566782
0.0546608
0.0524745
0.0500654
0.047422
0.0444504
0.0412916
0.0381394
0.0350377
0.0320971
0.0294145
0.0270377
0.0251314
0.0235248
0.0223988
0.0218468
0.0217856
0.0220964
0.0228324
0.023912
0.0252525
0.0269537
0.0289179
0.031309
0.0339576
0.0362636
0.0381387
0.0401017
0.0416616
0.0429001
0.0611311
0.0611829
0.0615916
0.0620287
0.0622362
0.0620622
0.0615282
0.0607843
0.0599051
0.0586404
0.0568886
0.0547596
0.0524629
0.0499397
0.0471627
0.0440922
0.040828
0.0375524
0.0343397
0.0313092
0.028552
0.0260857
0.0241389
0.0225096
0.0213303
0.0207294
0.0206303
0.0209055
0.0216128
0.0226791
0.0240239
0.0257984
0.0277318
0.0302298
0.0328611
0.0353217
0.0378619
0.0400934
0.0422682
0.0440077
0.0618672
0.0618784
0.0622733
0.0627143
0.062907
0.062716
0.0621258
0.061292
0.0603338
0.0589699
0.05714
0.0548972
0.0524436
0.0497895
0.0468809
0.0436931
0.0402939
0.036884
0.033536
0.0304086
0.0275936
0.0250354
0.0230115
0.0213526
0.0201302
0.0194807
0.0193568
0.0196108
0.0202593
0.0213044
0.0225659
0.024354
0.0263335
0.0288516
0.0315085
0.0341589
0.0370109
0.0395278
0.0420468
0.0442496
0.0626884
0.0626655
0.0630443
0.063467
0.063638
0.0634202
0.0628093
0.0618646
0.0607969
0.0593511
0.0574083
0.0550405
0.0524191
0.0496147
0.0465571
0.0432236
0.0396721
0.0361201
0.032666
0.0293645
0.0264717
0.0238671
0.0217511
0.0200687
0.018798
0.0180938
0.0179192
0.0181659
0.0187458
0.0197561
0.0209043
0.0226441
0.0246939
0.0271702
0.029952
0.0326435
0.0355721
0.0384539
0.0412406
0.0438342
0.0636087
0.0635382
0.0639085
0.0643283
0.0644694
0.064203
0.0635595
0.0625129
0.0613054
0.0597599
0.0576949
0.055196
0.0523912
0.0494044
0.0461711
0.0426755
0.0389805
0.0352261
0.0316622
0.0282288
0.0251642
0.022523
0.0203519
0.0186441
0.0173306
0.0165515
0.016296
0.0165757
0.0171034
0.0180632
0.0191047
0.0206921
0.0227729
0.0251505
0.0280139
0.0308121
0.0338339
0.0368574
0.0398485
0.042587
0.0646343
0.0645285
0.0648775
0.0652781
0.065394
0.0650627
0.0643628
0.0632379
0.0618703
0.0601997
0.0580028
0.055351
0.052356
0.0491357
0.04572
0.0420324
0.0381816
0.0342224
0.0304596
0.0269465
0.0237358
0.0210058
0.0187653
0.0170244
0.0156759
0.0148772
0.0145441
0.014832
0.0152228
0.0161506
0.0171415
0.018476
0.0205585
0.0228654
0.0256673
0.0285616
0.0316088
0.0346744
0.0377489
0.0404365
0.0657914
0.0656333
0.0659612
0.066325
0.0664234
0.0660268
0.0652599
0.0640591
0.0625035
0.0607145
0.058325
0.0554809
0.0522897
0.0488039
0.0451771
0.0412912
0.0372243
0.0330718
0.0290983
0.0254608
0.0221173
0.0192732
0.0169688
0.0152175
0.0138327
0.0130775
0.0126094
0.012891
0.0131974
0.0139714
0.0150661
0.0162081
0.018039
0.0202868
0.0229592
0.0258539
0.0289024
0.0319689
0.0350736
0.0376757
0.0670806
0.0668647
0.0671807
0.0674973
0.0675817
0.0671239
0.066225
0.0649514
0.0631736
0.0611795
0.0586632
0.0555723
0.0521639
0.0484209
0.0445103
0.0404039
0.0361094
0.0317484
0.0275296
0.023754
0.0202867
0.0173392
0.0149231
0.0131954
0.0117689
0.0110689
0.0105448
0.0107196
0.0111057
0.0115647
0.0125916
0.0137264
0.0153157
0.0173656
0.0198423
0.0226346
0.0256583
0.028678
0.0317397
0.0342248
0.0685346
0.0682517
0.0685618
0.0688272
0.0688475
0.0683543
0.0672714
0.0659022
0.0639793
0.0616636
0.0589795
0.0556508
0.0519629
0.0479595
0.0437189
0.039333
0.0347704
0.0302302
0.0257448
0.0217474
0.0181594
0.0152147
0.0126118
0.0109015
0.00950254
0.00875801
0.00834761
0.0082754
0.00878119
0.0091869
0.00993442
0.0109745
0.0123495
0.0141752
0.0164521
0.0190105
0.0218761
0.024778
0.0277707
0.0303191
0.0701936
0.0698196
0.0700922
0.070323
0.0702276
0.0697183
0.068514
0.0668549
0.0647904
0.0622066
0.0592313
0.0556789
0.0516603
0.0473265
0.0427396
0.0380818
0.0331826
0.0284054
0.0236836
0.0195049
0.0157134
0.012728
0.0100229
0.0082838
0.00702283
0.00614205
0.00592135
0.00577427
0.00614704
0.00659948
0.00717098
0.00798134
0.00915651
0.0106799
0.012625
0.014936
0.017601
0.0202973
0.0232397
0.0255446
0.0720849
0.0716105
0.0718119
0.072017
0.071791
0.0711588
0.0698886
0.0679614
0.0656181
0.0627373
0.059448
0.0556249
0.051237
0.0465611
0.0415399
0.0365506
0.031316
0.0262682
0.0212738
0.0169333
0.0128894
0.00979879
0.00722312
0.00523435
0.00417138
0.00332623
0.00313102
0.00313058
0.00338595
0.00376385
0.00426078
0.00484872
0.00576874
0.00694139
0.00857499
0.0104504
0.0128368
0.0153211
0.0179058
0.0200639
0.074227
0.0736357
0.073728
0.0739299
0.0736395
0.0727309
0.071251
0.0690811
0.0664576
0.0632989
0.0596007
0.0554603
0.0506016
0.0455627
0.0401014
0.0346641
0.0290592
0.0237595
0.018411
0.0138096
0.00976171
0.00635499
0.00391795
0.00192733
0.000884898
0.000227264
5.83538e-05
0.000163283
0.000513696
0.000837299
0.00125577
0.00162333
0.00221099
0.00291963
0.00413152
0.00556432
0.00748005
0.00960245
0.0118622
0.0137015
0.0767073
0.0759892
0.0759442
0.0759813
0.0756287
0.0745324
0.0727355
0.070307
0.0672485
0.0638096
0.0596289
0.0551121
0.0498006
0.0442308
0.0382833
0.0324077
0.0263866
0.0206077
0.015166
0.0101398
0.0060431
0.00248799
-6.70857e-07
-0.00185833
-0.00292024
-0.00334612
-0.00326263
-0.00302747
-0.00255905
-0.00221131
-0.00183624
-0.00167601
-0.00138209
-0.00114006
-0.000509455
0.000348983
0.00163341
0.00310791
0.00492277
0.00636826
0.0795378
0.0786738
0.0784678
0.0783191
0.077708
0.0764142
0.0742999
0.0715723
0.0680327
0.0642013
0.0595334
0.0544557
0.0487329
0.0425356
0.0360821
0.0295149
0.0231574
0.0168987
0.0111849
0.0058776
0.00161593
-0.00199449
-0.00460547
-0.00633512
-0.00713529
-0.00738915
-0.00707399
-0.00655124
-0.0058233
-0.00535986
-0.00494376
-0.00489651
-0.00493784
-0.00516652
-0.00520484
-0.005087
-0.00454416
-0.00385619
-0.00300846
-0.00220434
0.0827201
0.0816694
0.0812961
0.0809244
0.0800803
0.078518
0.0759338
0.0728124
0.0689591
0.0643712
0.059279
0.0534473
0.0471765
0.0403392
0.0332823
0.0260798
0.0191683
0.0124129
0.006371
0.000881384
-0.00366083
-0.00733925
-0.00988359
-0.0115653
-0.0121567
-0.0120578
-0.0113476
-0.0104137
-0.0093225
-0.00856406
-0.00803798
-0.00800956
-0.00833917
-0.00902392
-0.0097061
-0.010522
-0.0110165
-0.0112331
-0.0111899
-0.0112962
0.0864595
0.0851374
0.0844442
0.0838319
0.082612
0.0806288
0.0777419
0.0739233
0.069493
0.0643021
0.0585141
0.0520004
0.0449642
0.037423
0.0296916
0.0217993
0.0142641
0.00702663
0.000590171
-0.0052139
-0.00991069
-0.0136968
-0.0162584
-0.0177723
-0.0180742
-0.0175286
-0.0163678
-0.0147679
-0.0131676
-0.0118352
-0.0110039
-0.0107759
-0.0112011
-0.012322
-0.0136851
-0.0155225
-0.0173093
-0.0187993
-0.0196986
-0.0204751
0.0907325
0.0891021
0.0880614
0.0869793
0.0853527
0.0828716
0.0794628
0.0750274
0.0697964
0.063848
0.0571938
0.0498589
0.0419955
0.033509
0.0250471
0.0163869
0.00818798
0.000429801
-0.00645552
-0.0125919
-0.0175046
-0.0213753
-0.0239331
-0.0252038
-0.0253055
-0.0241276
-0.0224489
-0.0199485
-0.0175622
-0.0153386
-0.0138547
-0.0130639
-0.0133034
-0.0145055
-0.0164983
-0.0193288
-0.0226018
-0.0259064
-0.0284545
-0.0303689
0.0954719
0.0933331
0.0920248
0.0904857
0.0882209
0.0850643
0.0809764
0.075877
0.0698364
0.0628483
0.055284
0.0467666
0.0380025
0.0285402
0.019054
0.00954281
0.00063589
-0.00771303
-0.0151422
-0.0215701
-0.0268314
-0.0306201
-0.0332843
-0.0342407
-0.034015
-0.032397
-0.0300549
-0.0266298
-0.0230953
-0.0195952
-0.016921
-0.0149495
-0.0143577
-0.0149585
-0.016935
-0.0204003
-0.0252003
-0.0308442
-0.0361092
-0.0407553
0.10097
0.0981882
0.0963694
0.0942449
0.0912209
0.0870966
0.0819762
0.0756623
0.0686479
0.0604778
0.051753
0.0422028
0.0321577
0.0216787
0.0110375
0.000731054
-0.00908649
-0.018024
-0.0260849
-0.032768
-0.0382813
-0.0421389
-0.0446993
-0.0454088
-0.0447487
-0.0426929
-0.0394779
-0.035338
-0.0307187
-0.0255871
-0.0209655
-0.0170169
-0.0146554
-0.0136056
-0.0146229
-0.0176791
-0.0227356
-0.0297828
-0.0380827
-0.047302
0.1073
0.103706
0.101337
0.0987003
0.0951666
0.0901117
0.0839885
0.076352
0.0673724
0.0576648
0.0470524
0.03601
0.024379
0.0127543
0.000978641
-0.0103716
-0.0211554
-0.0308267
-0.0394781
-0.0465571
-0.0522775
-0.0562786
-0.0586353
-0.0592068
-0.0580638
-0.0553441
-0.0512747
-0.0461579
-0.0402624
-0.0337512
-0.0271029
-0.0205838
-0.0153318
-0.0111035
-0.00894822
-0.00904784
-0.0123412
-0.0185079
-0.0278944
-0.0394532
0.114496
0.109546
0.105421
0.100984
0.095579
0.0889695
0.0810082
0.0718533
0.0616362
0.0505265
0.0384235
0.0257531
0.0125398
-0.000577731
-0.0135185
-0.0258912
-0.0374373
-0.0478623
-0.0568336
-0.0642826
-0.0701972
-0.0742252
-0.0764641
-0.0768939
-0.0754182
-0.0721517
-0.0673115
-0.0611803
-0.0539587
-0.0461694
-0.0376142
-0.0284506
-0.0196879
-0.0110583
-0.00386333
0.00167104
0.00419393
0.0038531
-0.000920609
-0.00888524
0.124499
0.119106
0.114155
0.10875
0.101956
0.0933889
0.0828959
0.0706013
0.0566848
0.041927
0.026741
0.0114429
-0.00383528
-0.0188509
-0.0332389
-0.0468423
-0.059415
-0.0705615
-0.0800481
-0.0877342
-0.0935463
-0.0975034
-0.0996384
-0.0999824
-0.0985162
-0.0953579
-0.090259
-0.0834943
-0.0749892
-0.0651694
-0.0543245
-0.0427195
-0.0305785
-0.0182084
-0.00575932
0.00631997
0.0171156
0.026183
0.0334968
0.0386776
0.128626
0.118817
0.109537
0.100148
0.0901966
0.0789147
0.0662376
0.0527381
0.0378115
0.0215446
0.00454839
-0.0126902
-0.0298085
-0.0464276
-0.0621927
-0.0768034
-0.0899299
-0.101361
-0.110939
-0.118423
-0.123932
-0.127528
-0.129342
-0.129639
-0.128438
-0.125891
-0.121728
-0.115759
-0.10758
-0.0973119
-0.0847862
-0.0705514
-0.0546583
-0.0378912
-0.0199836
-0.00188931
0.0161523
0.0340799
0.0518554
0.069909
0.151123
0.142075
0.131602
0.119131
0.104364
0.0872913
0.0679785
0.047202
0.0260403
0.00480663
-0.0160224
-0.0362295
-0.0557136
-0.0743414
-0.0918539
-0.107767
-0.121741
-0.133546
-0.143294
-0.150749
-0.156185
-0.159721
-0.161709
-0.162597
-0.162513
-0.161919
-0.160742
-0.158627
-0.155178
-0.149077
-0.139672
-0.12617
-0.108441
-0.0871125
-0.0631857
-0.0388366
-0.0143208
0.00926594
0.0320944
0.0538143
0.119073
0.0986853
0.0789985
0.0591597
0.0387886
0.0179582
-0.00332801
-0.0256052
-0.0490805
-0.0731268
-0.0972891
-0.120573
-0.142729
-0.162958
-0.181241
-0.196933
-0.210082
-0.220146
-0.227459
-0.231916
-0.233933
-0.233847
-0.232214
-0.229588
-0.226955
-0.225159
-0.225328
-0.227365
-0.231586
-0.236377
-0.240666
-0.241285
-0.235622
-0.219656
-0.195228
-0.164361
-0.129059
-0.0935794
-0.0618838
-0.0376295
0.187172
0.161045
0.132475
0.103345
0.0736332
0.0431263
0.0120258
-0.0187028
-0.0485206
-0.0769983
-0.103876
-0.128733
-0.151243
-0.17117
-0.188179
-0.20194
-0.212208
-0.218631
-0.221243
-0.220009
-0.215288
-0.207405
-0.19706
-0.185525
-0.174717
-0.166539
-0.16328
-0.166397
-0.178107
-0.199509
-0.232438
-0.276777
-0.336913
-0.39373
-0.418848
-0.42023
-0.406727
-0.382791
-0.35689
-0.328354
-0.0679183
-0.104636
-0.142898
-0.18632
-0.232708
-0.279467
-0.325019
-0.36874
-0.408883
-0.443695
-0.472234
-0.496732
-0.518906
-0.538958
-0.555083
-0.565875
-0.569851
-0.566934
-0.556899
-0.540593
-0.518402
-0.491134
-0.459417
-0.424623
-0.388055
-0.352051
-0.318619
-0.290667
-0.270248
-0.260395
-0.263126
-0.281073
-0.317531
-0.338162
-0.343168
-0.351353
-0.357925
-0.363336
-0.366928
-0.368748
0.0030238
0.00174658
-0.00367407
-0.0154093
-0.0361567
-0.120359
-0.226139
-0.213063
-0.118457
-0.0516888
-0.0134983
0.0171842
0.0206151
0.0173905
0.0142283
0.0113153
0.00845278
0.00658939
0.00444221
0.00317238
0.00180368
0.000817509
3.14379e-05
-0.000579614
-0.000947257
-0.00126656
-0.00146066
-0.00159805
-0.00168047
-0.00173032
-0.00173838
-0.00176582
-0.00172185
-0.00163984
-0.0014834
-0.00138822
-0.00136769
-0.00139918
-0.00220397
-0.00202661
0.00581237
0.00272659
-0.00236194
-0.0170311
-0.0429276
-0.142867
-0.284282
-0.247706
-0.132417
-0.0589644
-0.0165744
0.0152998
0.0195583
0.0172036
0.0138048
0.0112435
0.00850872
0.00654211
0.00449559
0.00309223
0.00174063
0.000670899
-9.14481e-05
-0.000709489
-0.00107246
-0.00137312
-0.00155864
-0.00167364
-0.00173749
-0.00175504
-0.00174731
-0.00177535
-0.00172872
-0.0016554
-0.00152731
-0.00145845
-0.00140215
-0.00152115
-0.0018905
-0.00191779
0.00756436
0.00460905
-0.00183405
-0.0167192
-0.0523105
-0.168652
-0.343529
-0.278111
-0.144063
-0.0666248
-0.0200917
0.0107027
0.0173933
0.0163521
0.0134716
0.0111149
0.00858081
0.00654044
0.00456221
0.00304345
0.00164587
0.000528519
-0.000270397
-0.000913054
-0.00131602
-0.0016298
-0.00182451
-0.00192549
-0.00196551
-0.00194446
-0.00192492
-0.00191774
-0.00187405
-0.00180866
-0.00169673
-0.00162735
-0.00152028
-0.00158852
-0.00171929
-0.00167809
0.00989436
0.00678276
-0.00123876
-0.00968345
-0.0630613
-0.198062
-0.395533
-0.297794
-0.151297
-0.074152
-0.0252895
0.00390607
0.0137449
0.0146987
0.0129381
0.0109406
0.00864755
0.00666075
0.00468798
0.00310833
0.00162465
0.000462051
-0.000422339
-0.00110108
-0.00156759
-0.00189108
-0.00213114
-0.00222949
-0.00230806
-0.00230055
-0.00230534
-0.00225361
-0.00218858
-0.0020675
-0.00194006
-0.00180334
-0.00164584
-0.00163298
-0.00159488
-0.00135949
0.0123567
0.00795813
0.000522018
-0.000835798
-0.0678646
-0.222321
-0.429172
-0.294981
-0.157998
-0.0811331
-0.032917
-0.00530585
0.00825083
0.0122101
0.0118117
0.0106383
0.00862477
0.00685389
0.00488792
0.00327707
0.00175338
0.000544913
-0.000390817
-0.00109073
-0.00159812
-0.0019507
-0.00225624
-0.00238753
-0.00256014
-0.00255807
-0.00260484
-0.00250362
-0.00239338
-0.00219376
-0.00204756
-0.00187001
-0.00170589
-0.00168249
-0.00179824
-0.00196987
0.0150377
0.00966237
0.00626892
0.0015431
-0.0621114
-0.223915
-0.424285
-0.28129
-0.158499
-0.0882971
-0.0436901
-0.0178388
0.00127119
0.00867495
0.0101012
0.010047
0.00841405
0.00695476
0.00506455
0.00341084
0.00192824
0.00069341
-0.000259217
-0.0009901
-0.00151058
-0.00190227
-0.00225279
-0.00242119
-0.00261578
-0.00258723
-0.00265719
-0.00252018
-0.00241206
-0.00218269
-0.00208496
-0.00188893
-0.00176181
-0.00169787
-0.00155648
-0.00124317
0.0171517
0.0139663
0.0152539
0.00407154
-0.0502512
-0.21211
-0.357596
-0.246781
-0.154796
-0.0960264
-0.0581563
-0.0334458
-0.00838648
0.00379065
0.0078758
0.00905059
0.00799879
0.00678218
0.00511057
0.00331788
0.00194452
0.000639556
-0.000337117
-0.00115663
-0.00164168
-0.0020471
-0.00239893
-0.00256446
-0.00272142
-0.0026677
-0.00274384
-0.00261425
-0.00253779
-0.0023544
-0.00228774
-0.00205364
-0.00196676
-0.00189389
-0.0020239
-0.00222696
0.0195869
0.0201876
0.0225806
0.0124011
-0.0346742
-0.17852
-0.273103
-0.203754
-0.147409
-0.102828
-0.0767526
-0.0529004
-0.0214358
-0.0033801
0.00515538
0.00756933
0.00751819
0.00643306
0.0051005
0.00304293
0.00178162
0.000364576
-0.000662834
-0.00161985
-0.00207476
-0.00250988
-0.00281662
-0.00297007
-0.00307374
-0.00303534
-0.00308479
-0.00296732
-0.00291173
-0.0027687
-0.00267209
-0.00241933
-0.00229706
-0.00209478
-0.00182016
-0.00136833
0.0237316
0.0267259
0.028374
0.0223897
-0.0155049
-0.137005
-0.195735
-0.164305
-0.136307
-0.111498
-0.100413
-0.0783878
-0.0385889
-0.0131957
0.00166996
0.00575165
0.00708258
0.00625627
0.0051499
0.00286738
0.00172246
0.000205381
-0.000871095
-0.00197665
-0.00248032
-0.00299919
-0.00324707
-0.00342691
-0.00349228
-0.00349975
-0.00346757
-0.00336529
-0.00328811
-0.00316117
-0.00301207
-0.00275983
-0.00259498
-0.00240149
-0.00234579
-0.0023228
0.0284965
0.0322926
0.034614
0.0319094
0.000418204
-0.0928939
-0.130092
-0.132064
-0.12508
-0.125054
-0.127786
-0.109776
-0.0645882
-0.026279
-0.00314536
0.00387395
0.00656198
0.006338
0.00522271
0.00305554
0.00184803
0.000439475
-0.000728112
-0.00194438
-0.00256959
-0.00319267
-0.00337977
-0.00366176
-0.00370096
-0.00375091
-0.00365138
-0.00357373
-0.00345398
-0.00333383
-0.00312861
-0.00295427
-0.00277506
-0.00253016
-0.00221791
-0.00168287
0.033453
0.036371
0.0412241
0.0399914
0.0151722
-0.0522378
-0.0843606
-0.106507
-0.117298
-0.140741
-0.157036
-0.147693
-0.0962681
-0.0430536
-0.0097627
0.00179609
0.0059265
0.00629603
0.0052374
0.0033505
0.0018904
0.000879009
-0.000522913
-0.00177585
-0.00254384
-0.00318309
-0.00340974
-0.00374469
-0.00379714
-0.00390319
-0.00374556
-0.0037122
-0.0035161
-0.00338183
-0.00315578
-0.00307798
-0.00288016
-0.00270244
-0.00257189
-0.00251131
0.0381917
0.0391569
0.0474241
0.0473005
0.0274847
-0.020199
-0.0570154
-0.0857894
-0.113078
-0.156084
-0.189767
-0.19413
-0.131495
-0.0678561
-0.0188309
-0.00115388
0.00520565
0.00576309
0.00516192
0.00330258
0.00173047
0.000955722
-0.000672948
-0.00192004
-0.00274771
-0.00335397
-0.00366717
-0.0039631
-0.00412216
-0.00420888
-0.00406598
-0.00405741
-0.00378532
-0.00363255
-0.00341937
-0.00336433
-0.00313379
-0.00295343
-0.00265434
-0.00219697
0.0426106
0.0428397
0.0510837
0.0527837
0.0358985
-0.00117832
-0.0394601
-0.0717591
-0.112622
-0.170373
-0.223696
-0.247783
-0.178746
-0.0967367
-0.0318055
-0.00404387
0.00419632
0.00509966
0.00511561
0.00308419
0.00154011
0.000560014
-0.00112303
-0.00241915
-0.00327835
-0.00387635
-0.00426376
-0.00456095
-0.0047714
-0.0048306
-0.00475348
-0.00468196
-0.00443944
-0.00425917
-0.00403242
-0.00388423
-0.00358119
-0.00336271
-0.00306074
-0.00285087
0.0454991
0.0471209
0.0522839
0.0558297
0.0396834
0.00772023
-0.0290113
-0.06298
-0.113432
-0.182705
-0.255291
-0.301071
-0.236846
-0.121727
-0.048417
-0.00517456
0.00290957
0.00488344
0.00536123
0.00331703
0.00169708
0.000251088
-0.00147961
-0.0028175
-0.00378278
-0.00444401
-0.00491408
-0.00524882
-0.00541979
-0.00543678
-0.00543478
-0.00528274
-0.00511468
-0.00485441
-0.00466553
-0.00438548
-0.00406556
-0.00375939
-0.00329982
-0.00289424
0.0469764
0.0502464
0.0524381
0.0558994
0.0400241
0.0105163
-0.0241664
-0.0574956
-0.113439
-0.190528
-0.27723
-0.342789
-0.288738
-0.14585
-0.0617539
-0.0056503
0.00203319
0.00535438
0.00620374
0.0041894
0.00240053
0.000524072
-0.00141911
-0.00270187
-0.00383752
-0.00458497
-0.00508932
-0.00544539
-0.00560037
-0.00560719
-0.0056853
-0.00546334
-0.00538649
-0.0051465
-0.00502753
-0.00467617
-0.00443342
-0.00406354
-0.00371049
-0.00343996
0.047604
0.0511365
0.052507
0.0526337
0.0380946
0.0110006
-0.0209931
-0.055607
-0.11229
-0.19119
-0.280718
-0.358171
-0.308669
-0.164419
-0.0648543
-0.00956338
0.00396171
0.00659968
0.00718919
0.00512546
0.00305119
0.000945498
-0.00125839
-0.00251693
-0.00373781
-0.00449034
-0.00504893
-0.00542541
-0.00561477
-0.00566016
-0.00571149
-0.00555427
-0.00555187
-0.00535797
-0.00522198
-0.00490319
-0.00468283
-0.0043037
-0.00399663
-0.00374602
0.0477966
0.0503102
0.0508716
0.0479289
0.0352427
0.00960825
-0.0203365
-0.0548456
-0.108264
-0.183643
-0.267842
-0.327268
-0.281957
-0.152855
-0.0593618
-0.0150865
0.0101865
0.00883606
0.00749505
0.0056127
0.00297629
0.000666426
-0.00163303
-0.00312115
-0.00423514
-0.00509744
-0.00572598
-0.00613076
-0.00631217
-0.00641455
-0.00629424
-0.00623371
-0.00611778
-0.00589745
-0.00564694
-0.00532692
-0.00503746
-0.00467878
-0.00436983
-0.00421069
0.0469113
0.0483369
0.0472461
0.0431654
0.0332777
0.009966
-0.021394
-0.0565549
-0.102778
-0.16753
-0.22777
-0.266352
-0.236068
-0.131832
-0.0527869
-0.00888009
0.0138915
0.0132693
0.00862295
0.00656246
0.00308705
0.000130666
-0.00211688
-0.00398671
-0.00518998
-0.00627636
-0.00695811
-0.00744771
-0.00764535
-0.00775757
-0.00758037
-0.00752967
-0.0071973
-0.00696611
-0.00654878
-0.00623836
-0.00578607
-0.00533078
-0.00495371
-0.00486896
0.0449127
0.0455408
0.0431795
0.0376019
0.0283452
0.00877326
-0.0184905
-0.052146
-0.0919053
-0.142156
-0.189782
-0.212589
-0.190297
-0.110725
-0.0364977
0.00203827
0.0145332
0.0194065
0.0127573
0.0086509
0.00490227
0.000889635
-0.00135051
-0.00369125
-0.00536494
-0.00667597
-0.00757132
-0.00820348
-0.00858852
-0.00879428
-0.00873307
-0.00862616
-0.00836049
-0.00814587
-0.00771715
-0.00733625
-0.00671623
-0.00622904
-0.00577176
-0.00563297
0.0418651
0.0419887
0.0382463
0.0317064
0.0222473
0.00489351
-0.0200475
-0.0498466
-0.0823698
-0.118285
-0.151273
-0.16667
-0.145556
-0.0882881
-0.0235168
0.00970584
0.0198804
0.0226238
0.0183873
0.0113627
0.0077036
0.0029808
0.000286194
-0.00251701
-0.00460261
-0.00611293
-0.00726989
-0.00802572
-0.0086625
-0.00893654
-0.00912157
-0.00911819
-0.00907906
-0.0088745
-0.00859322
-0.00812692
-0.00755168
-0.00697299
-0.00649769
-0.00635399
0.0378727
0.0377459
0.0323089
0.0252901
0.0150074
-0.000932338
-0.0242388
-0.0519374
-0.0791477
-0.104929
-0.125902
-0.131842
-0.110454
-0.0680087
-0.0131273
0.0148602
0.028167
0.0233293
0.0216969
0.0137429
0.00906118
0.00443864
0.000756735
-0.00208689
-0.00439751
-0.00595219
-0.00716426
-0.00805403
-0.00865629
-0.00899927
-0.00929504
-0.0093237
-0.00937364
-0.00918489
-0.00898297
-0.00851433
-0.00805599
-0.00753254
-0.00713607
-0.00698347
0.0329665
0.0325054
0.0256328
0.0177911
0.00676319
-0.00868044
-0.0307116
-0.0567556
-0.0804971
-0.0992595
-0.113187
-0.107533
-0.0854208
-0.0498944
-0.00597821
0.020916
0.033971
0.0268601
0.023738
0.0158504
0.00892287
0.00427024
-0.000183091
-0.00293897
-0.00540672
-0.00703028
-0.00829407
-0.00919438
-0.0097054
-0.0101039
-0.0101567
-0.0101297
-0.0100074
-0.00980007
-0.00946525
-0.00903168
-0.00866311
-0.008223
-0.00786084
-0.00774136
0.027151
0.0265577
0.0190367
0.00899626
-0.00289277
-0.0183621
-0.0396159
-0.0645861
-0.085921
-0.0994254
-0.10609
-0.0939853
-0.0670882
-0.0332518
-0.00192138
0.0269223
0.0383406
0.0338718
0.0257071
0.0182932
0.00984823
0.00433322
-0.000400937
-0.00385045
-0.00661791
-0.00863248
-0.0101099
-0.0110672
-0.011531
-0.0118066
-0.0118548
-0.0117929
-0.0115434
-0.0112457
-0.0108136
-0.0104085
-0.00989736
-0.00938103
-0.00893417
-0.00880985
0.0211041
0.0197541
0.0118544
-0.000712136
-0.0142468
-0.0301489
-0.0515933
-0.0767972
-0.0960619
-0.107681
-0.103836
-0.0877818
-0.05686
-0.0205357
0.00377973
0.0306753
0.0417687
0.0378388
0.0278009
0.0215487
0.0128708
0.00639804
0.000806524
-0.00391521
-0.00721547
-0.00969434
-0.0113535
-0.0125577
-0.0132437
-0.013625
-0.0137672
-0.0137382
-0.0135714
-0.0132643
-0.0128288
-0.012266
-0.0116128
-0.0109403
-0.0103816
-0.0102365
0.0143463
0.0111729
0.00302592
-0.0109501
-0.0279383
-0.0455853
-0.0685661
-0.0949895
-0.118181
-0.125033
-0.114121
-0.0871757
-0.0520742
-0.012815
0.0099324
0.0313394
0.0422824
0.0382904
0.0313939
0.0243369
0.0153684
0.00820276
0.00201984
-0.00326821
-0.00690716
-0.00982639
-0.0118249
-0.0133403
-0.0144165
-0.0151175
-0.0154518
-0.0155448
-0.0154477
-0.0151527
-0.0146567
-0.0140487
-0.0133366
-0.0125907
-0.0120427
-0.0118441
0.00624127
0.00132689
-0.00813547
-0.0237264
-0.0442281
-0.0662899
-0.0930289
-0.119992
-0.149377
-0.150919
-0.132008
-0.0958488
-0.0534729
-0.0113033
0.0140396
0.0315845
0.0410747
0.0387919
0.033244
0.0241374
0.0155356
0.00832446
0.00258719
-0.0023728
-0.00626685
-0.00962737
-0.012085
-0.0142024
-0.0156934
-0.0165858
-0.0170743
-0.0172745
-0.017215
-0.016909
-0.0164422
-0.0158801
-0.0151424
-0.0144397
-0.0138931
-0.0136927
-0.00339948
-0.0101866
-0.0218105
-0.0401558
-0.0636441
-0.0935087
-0.126655
-0.161269
-0.185835
-0.187733
-0.159
-0.112532
-0.0616007
-0.0163718
0.0135409
0.0323785
0.0391467
0.0376402
0.0305922
0.0216097
0.0143472
0.0076477
0.00176652
-0.00304212
-0.00745579
-0.0111548
-0.013918
-0.0161867
-0.0176502
-0.0185694
-0.0191696
-0.0194499
-0.0194348
-0.0191985
-0.0187904
-0.018185
-0.017407
-0.0166949
-0.0160648
-0.0158989
-0.0140684
-0.0226648
-0.0372149
-0.0596115
-0.0883048
-0.12876
-0.172216
-0.217954
-0.245136
-0.239108
-0.197041
-0.135849
-0.0753558
-0.0273977
0.00753334
0.030025
0.0343892
0.0318871
0.0259998
0.0188237
0.011612
0.00502228
-0.00139053
-0.00648547
-0.0109524
-0.0143829
-0.0169698
-0.0191608
-0.0205985
-0.021677
-0.022232
-0.0225377
-0.0224663
-0.0222048
-0.0216989
-0.020977
-0.0201574
-0.0193808
-0.0186783
-0.0184201
-0.0247667
-0.0352026
-0.053802
-0.0803876
-0.119872
-0.174917
-0.237121
-0.29321
-0.326198
-0.306794
-0.2455
-0.165885
-0.097946
-0.0432414
-0.00329772
0.0180921
0.0239567
0.0229278
0.0195848
0.0130969
0.00620667
0.000263577
-0.0059119
-0.0105724
-0.0147187
-0.0180612
-0.0207183
-0.0229182
-0.0243015
-0.0252973
-0.0258278
-0.0261639
-0.0260425
-0.0257164
-0.0249716
-0.0241685
-0.023283
-0.0224876
-0.021784
-0.0215596
-0.0366139
-0.0496487
-0.072737
-0.107989
-0.16479
-0.238002
-0.324126
-0.401233
-0.422781
-0.381131
-0.294513
-0.203457
-0.124931
-0.0642424
-0.0251844
-0.0036467
0.00703751
0.00950972
0.00751169
0.00319456
-0.00137939
-0.0063979
-0.011163
-0.0149532
-0.0190219
-0.0219617
-0.0244424
-0.0264591
-0.0277283
-0.0287247