/*--------------------------------*- C++ -*----------------------------------*\
  =========                 |
  \\      /  F ield         | OpenFOAM: The Open Source CFD Toolbox
   \\    /   O peration     | Website:  https://openfoam.org
    \\  /    A nd           | Version:  10
     \\/     M anipulation  |
\*---------------------------------------------------------------------------*/
FoamFile
{
    format      ascii;
    class       surfaceScalarField;
    location    "0.500082";
    object      phi;
}
// * * * * * * * * * * * * * * * * * * * * * * * * * * * * * * * * * * * * * //

dimensions      [1 0 -1 0 0 0 0];

internalField   nonuniform List<scalar> 
32368
(
0.000189292
-0.000158968
0.000175025
-0.000139932
0.000155798
-0.000117076
0.000133634
-9.33749e-05
0.000108078
-6.72668e-05
8.49312e-05
-3.94513e-05
6.95316e-05
-1.04465e-05
6.01428e-05
1.95214e-05
5.55536e-05
4.90364e-05
5.54739e-05
7.83323e-05
5.95236e-05
0.000105525
6.74318e-05
0.000132225
7.57955e-05
0.000157381
8.09664e-05
0.000177463
8.11457e-05
0.000195682
7.56363e-05
0.00021458
6.60008e-05
0.000236242
5.72572e-05
0.000261959
5.35027e-05
0.000289921
5.67271e-05
0.000313781
6.58641e-05
0.000326063
7.81274e-05
0.00032641
9.16608e-05
0.000315515
0.000103767
0.000294921
0.000111898
0.000265423
0.000115504
0.000228515
0.000115156
0.000187778
0.000108154
0.000144087
9.36256e-05
9.90831e-05
6.96484e-05
5.56607e-05
4.96069e-05
1.72802e-05
3.11406e-05
-1.38708e-05
-3.96283e-05
1.42835e-05
0.0001422
-0.000162722
0.00013099
-0.000142486
0.000114646
-0.000117172
9.41216e-05
-8.8547e-05
7.21373e-05
-5.69246e-05
5.59101e-05
-2.67131e-05
4.57342e-05
2.11058e-06
4.06014e-05
3.05986e-05
3.93349e-05
5.82556e-05
4.19379e-05
8.49737e-05
4.8041e-05
0.000110655
5.69803e-05
0.000137313
6.4914e-05
0.000162585
6.90613e-05
0.000183129
6.83178e-05
0.000202296
6.33125e-05
0.000221621
5.64644e-05
0.000243558
5.10187e-05
0.000267313
4.99756e-05
0.000291591
5.46143e-05
0.00031094
6.41941e-05
0.000321112
7.63744e-05
0.00032133
8.93108e-05
0.000310404
0.000100819
0.00029017
0.000109349
0.000261353
0.000114871
0.000226126
0.000115696
0.000186407
0.000109949
0.000143495
9.63368e-05
0.000102541
7.65629e-05
6.04006e-05
6.05007e-05
2.75784e-05
4.60078e-05
-1.97353e-07
-2.32203e-05
3.47791e-05
9.33487e-05
-0.000162976
8.90206e-05
-0.000144346
8.10052e-05
-0.000117004
6.79167e-05
-8.64933e-05
5.15439e-05
-5.24729e-05
4.08602e-05
-1.90028e-05
3.48707e-05
1.10757e-05
3.284e-05
3.9141e-05
3.39068e-05
6.60226e-05
3.80895e-05
9.11247e-05
4.46661e-05
0.000114982
5.42856e-05
0.000141992
6.19886e-05
0.00016765
6.55605e-05
0.000188935
6.47326e-05
0.000208634
6.05243e-05
0.000228621
5.48174e-05
0.000249595
5.08033e-05
0.000271499
5.05656e-05
0.000292444
5.50664e-05
0.000308253
6.39569e-05
0.000315864
7.54748e-05
0.000314631
8.79219e-05
0.000303128
9.96017e-05
0.000282259
0.000109082
0.00025327
0.00011506
0.000217956
0.000115782
0.000178759
0.000110659
0.000138872
9.63863e-05
9.75369e-05
8.32381e-05
6.2085e-05
7.20374e-05
3.44442e-05
6.21487e-05
1.03484e-05
-9.39342e-06
5.58555e-05
6.23131e-05
-0.000155442
6.33644e-05
-0.000141994
6.27121e-05
-0.000119164
5.76698e-05
-8.8187e-05
4.65929e-05
-5.3317e-05
3.88796e-05
-1.61898e-05
3.58682e-05
1.6189e-05
3.5847e-05
4.52823e-05
3.84752e-05
7.22228e-05
4.32726e-05
9.68954e-05
5.00439e-05
0.000119112
5.85581e-05
0.000142769
6.6279e-05
0.000169273
6.94109e-05
0.000193065
6.85297e-05
0.000213213
6.46574e-05
0.000232041
5.96718e-05
0.000250925
5.58542e-05
0.000269782
5.52695e-05
0.00028738
5.88308e-05
0.00030026
6.64455e-05
0.000305476
7.67991e-05
0.000302009
8.82994e-05
0.000289179
9.92564e-05
0.000267111
0.000108148
0.000238098
0.00011364
0.000204174
0.000114314
0.000167374
0.000106999
0.000127592
9.63494e-05
9.06266e-05
8.91677e-05
6.21855e-05
8.3226e-05
3.77112e-05
8.0876e-05
1.69932e-05
2.4485e-06
7.85827e-05
5.12639e-05
-0.000138
5.39433e-05
-0.000126506
5.64888e-05
-0.000110518
5.76457e-05
-8.71624e-05
5.4868e-05
-5.48499e-05
4.88085e-05
-1.72788e-05
4.60862e-05
1.93706e-05
4.69114e-05
5.01373e-05
5.05169e-05
7.71553e-05
5.5723e-05
0.000101723
6.17281e-05
0.000123871
6.93559e-05
0.00014431
7.56047e-05
0.000165295
7.83865e-05
0.000187157
7.79471e-05
0.000209167
7.42049e-05
0.000229596
6.86458e-05
0.000247571
6.41525e-05
0.000263417
6.23425e-05
0.000276959
6.41344e-05
0.000286008
6.97416e-05
0.000288394
7.82842e-05
0.00028287
8.82589e-05
0.000269078
9.81422e-05
0.000247295
0.000106379
0.000219239
0.000111083
0.000185906
0.000108301
0.000148541
0.000102375
0.000113791
9.85219e-05
8.52662e-05
9.56058e-05
6.02714e-05
9.53506e-05
3.83628e-05
9.92589e-05
2.17423e-05
9.86324e-06
0.000101107
6.76992e-05
-0.000134899
6.33844e-05
-0.000120396
6.09105e-05
-0.00010125
6.20465e-05
-7.90762e-05
6.42743e-05
-5.27491e-05
6.58261e-05
-2.00474e-05
6.51286e-05
1.76362e-05
6.54454e-05
5.31943e-05
6.82269e-05
8.32637e-05
7.27641e-05
0.000107411
7.82547e-05
0.000128355
8.38067e-05
0.000147894
8.84339e-05
0.000166032
9.11803e-05
0.000183141
9.02653e-05
0.000199476
8.61864e-05
0.000215958
8.02417e-05
0.000232288
7.4772e-05
0.000247331
7.13608e-05
0.000259257
7.10414e-05
0.000266259
7.42499e-05
0.000266498
8.07621e-05
0.000259071
8.88885e-05
0.000243905
9.68205e-05
0.000221117
0.000102144
0.000192408
0.00010279
0.000161037
0.000102486
0.000131004
0.000102701
0.000103958
0.000102933
7.9177e-05
0.000104822
5.70506e-05
0.000111387
3.90724e-05
0.000117094
2.44765e-05
1.5289e-05
0.000120267
0.000108767
-0.00013812
0.000101879
-0.00012064
9.35778e-05
-9.91731e-05
8.42452e-05
-7.43461e-05
7.82568e-05
-4.7344e-05
7.76367e-05
-1.76171e-05
7.91874e-05
1.48676e-05
8.36716e-05
5.07858e-05
8.76419e-05
8.34132e-05
9.20411e-05
0.000111714
9.66934e-05
0.000134548
0.000100557
0.000152279
0.000103858
0.000168391
0.000104822
0.000183212
0.000102765
0.000195576
9.82467e-05
0.000206951
9.22579e-05
0.000217477
8.56568e-05
0.000226613
8.03679e-05
0.000233365
7.7554e-05
0.000236689
7.79969e-05
0.000234357
8.15358e-05
0.000225812
8.62529e-05
0.000211225
9.11048e-05
0.00019102
9.55586e-05
0.000167643
9.94392e-05
0.000143033
0.000103186
0.00011856
0.000106578
9.48032e-05
0.000111258
7.3704e-05
0.000119193
5.51526e-05
0.000125856
3.88738e-05
0.000130427
2.59818e-05
1.93579e-05
0.000133155
0.000156269
-0.000144697
0.000150174
-0.0001241
0.000141612
-0.000100087
0.000130638
-7.20766e-05
0.000118557
-4.24242e-05
0.000109216
-1.21931e-05
0.00010675
1.85428e-05
0.000106854
5.05597e-05
0.000108961
8.28096e-05
0.00011253
0.000112674
0.000115665
0.000137581
0.00011817
0.000157627
0.000119378
0.000172374
0.000118792
0.000184466
0.000115845
0.000194317
0.000110578
0.000202812
0.000103586
0.000209136
9.59192e-05
0.000213716
8.90303e-05
0.000216035
8.41315e-05
0.000215692
8.23158e-05
0.000211218
8.34306e-05
0.000202247
8.64439e-05
0.000188746
9.10947e-05
0.000171313
9.66886e-05
0.000151143
0.000102063
0.000129795
0.000107365
0.000108771
0.000114898
8.89475e-05
0.000122257
7.05678e-05
0.000126629
5.32627e-05
0.000129975
3.82398e-05
0.000132678
2.72858e-05
2.20904e-05
0.000135266
0.000202329
-0.000153808
0.000197331
-0.000130704
0.000188882
-0.00010399
0.000178661
-7.35048e-05
0.0001663
-4.02317e-05
0.00015417
-7.26135e-06
0.000144582
2.41704e-05
0.000139338
5.45042e-05
0.000137472
8.47518e-05
0.000136649
0.000114484
0.000136195
0.000140743
0.000136131
0.000161171
0.000135186
0.000176524
0.000133284
0.000187668
0.00012933
0.000195155
0.000122822
0.000199961
0.000115227
0.000203145
0.000106946
0.000204551
9.92289e-05
0.000203811
9.33003e-05
0.000200738
8.99838e-05
0.00019468
8.95464e-05
0.000185149
9.14198e-05
0.000172201
9.51168e-05
0.000156425
0.000100473
0.000138843
0.000106846
0.000120239
0.000113351
0.000101677
0.000118129
8.39706e-05
0.000120267
6.77469e-05
0.000120738
5.22982e-05
0.000120923
3.84312e-05
0.000122602
2.80339e-05
2.33727e-05
0.000125586
0.00024629
-0.00016713
0.000243468
-0.000141858
0.000236234
-0.000112394
0.000225849
-7.84329e-05
0.000213163
-4.13525e-05
0.000198209
-4.26362e-06
0.000184677
3.03256e-05
0.00017351
6.1686e-05
0.000165636
9.10396e-05
0.000161169
0.000117529
0.000157609
0.00014177
0.000154657
0.000163334
0.000150821
0.000179689
0.000146346
0.00018953
0.000140784
0.000195067
0.000133954
0.000197758
0.000125819
0.000198065
0.000117094
0.000196455
0.000108781
0.000193003
0.000101928
0.000187558
9.7171e-05
0.00018025
9.49219e-05
0.000170395
9.50189e-05
0.000158027
9.69238e-05
0.000143621
9.9467e-05
0.000127723
0.000102051
0.000111306
0.000103435
9.51934e-05
0.00010239
7.9383e-05
9.90325e-05
6.47404e-05
9.48212e-05
4.9818e-05
9.32757e-05
3.65925e-05
9.78855e-05
2.75764e-05
2.26691e-05
0.000103317
0.000289189
-0.000186888
0.000288739
-0.000158029
0.00028258
-0.000124082
0.000271759
-8.53403e-05
0.000258046
-4.40726e-05
0.000241714
-1.91144e-06
0.000222237
3.76407e-05
0.000205985
7.17936e-05
0.000193451
0.000100458
0.000182979
0.000126107
0.000174953
0.000147797
0.000168947
0.000164447
0.000162968
0.000177638
0.000156785
0.000186999
0.000149542
0.000192058
0.000141243
0.000192999
0.000131975
0.000190795
0.000122307
0.000186342
0.000112928
0.000180278
0.000104577
0.000172768
9.76226e-05
0.000164156
9.24019e-05
0.000154009
8.86808e-05
0.000141984
8.56488e-05
0.000128409
8.22939e-05
0.000113657
7.74278e-05
9.84717e-05
7.12211e-05
8.42085e-05
6.45961e-05
7.14935e-05
5.8734e-05
5.92189e-05
5.76653e-05
4.63318e-05
6.19295e-05
3.46228e-05
6.66656e-05
2.5217e-05
2.15372e-05
7.00325e-05
0.000329253
-0.000211511
0.000328142
-0.000176577
0.000320513
-0.000136175
0.000308808
-9.2276e-05
0.000293921
-4.68556e-05
0.000276967
1.64603e-07
0.000256079
4.48225e-05
0.000233716
8.41852e-05
0.000214705
0.000115341
0.000200622
0.000138145
0.000188711
0.000157097
0.000177953
0.000171483
0.000168536
0.00018045
0.000160096
0.000184386
0.000151309
0.000184625
0.000141646
0.000181715
0.000130829
0.000176221
0.000119456
0.000168974
0.000108057
0.000160518
9.71375e-05
0.000151334
8.67955e-05
0.000141887
7.71079e-05
0.00013182
6.81627e-05
0.000121375
5.94766e-05
0.000110506
5.08706e-05
9.93956e-05
4.26503e-05
8.86504e-05
3.4719e-05
7.84121e-05
2.75704e-05
6.79963e-05
2.35802e-05
5.62966e-05
2.43594e-05
4.32353e-05
2.67966e-05
3.15496e-05
2.48074e-05
2.52802e-05
2.49283e-05
1.99788e-05
0.000352014
-0.000229998
0.000347121
-0.000190174
0.000337195
-0.000145344
0.000324461
-9.70803e-05
0.000308718
-4.80664e-05
0.000292357
2.31568e-06
0.000273661
5.13066e-05
0.000253905
9.50891e-05
0.000231243
0.000131645
0.000210575
0.000156593
0.000194452
0.000170928
0.00018152
0.000180271
0.0001699
0.000186012
0.000158419
0.000186593
0.000146888
0.000182413
0.000134823
0.000174954
0.00012205
0.000165361
0.000108648
0.000154888
9.51786e-05
0.000144107
8.20678e-05
0.00013388
6.91853e-05
0.000124115
5.68185e-05
0.000114988
4.50839e-05
0.000106824
3.35504e-05
9.88727e-05
2.2331e-05
9.10254e-05
1.15619e-05
8.34957e-05
1.16156e-06
7.57419e-05
-6.96485e-06
6.52491e-05
-1.09705e-05
5.29066e-05
-1.34758e-05
4.02542e-05
-2.26416e-05
3.40148e-05
-3.39092e-05
3.17629e-05
2.40775e-05
-3.6483e-05
0.000350002
-0.000242968
0.000343046
-0.000200603
0.000331774
-0.000153494
0.000317578
-0.000101803
0.000300703
-4.88541e-05
0.000283239
4.41447e-06
0.000265756
5.70543e-05
0.000248966
0.000103723
0.000231121
0.000143124
0.000210498
0.000171713
0.000190864
0.00018742
0.00017518
0.000192784
0.000162294
0.000192213
0.000149882
0.000188282
0.000137175
0.000180652
0.000123718
0.000169866
0.00010954
0.0001573
9.46951e-05
0.000144145
7.97538e-05
0.000131562
6.49881e-05
0.000120396
5.02675e-05
0.000110308
3.59216e-05
0.000102196
2.15552e-05
9.57164e-05
6.86994e-06
9.01627e-05
-8.07659e-06
8.55599e-05
-2.27298e-05
8.01932e-05
-3.5847e-05
7.20091e-05
-4.69825e-05
6.24667e-05
-5.81432e-05
5.1363e-05
-7.46784e-05
4.58162e-05
-8.66117e-05
3.80846e-05
-8.37054e-05
2.44565e-05
1.0876e-05
-7.4523e-05
0.00033636
-0.000253712
0.000330293
-0.000209689
0.000316657
-0.000159877
0.000299268
-0.000105967
0.000278895
-4.89247e-05
0.000256468
7.30102e-06
0.000237757
6.17034e-05
0.000221786
0.000110547
0.000206683
0.000150224
0.000191033
0.000179935
0.000174463
0.000197533
0.000158077
0.000202826
0.000144242
0.000199205
0.000131449
0.000190049
0.000118553
0.000177979
0.000104745
0.000163827
8.98506e-05
0.000148664
7.43513e-05
0.000133755
5.8614e-05
0.000120165
4.28443e-05
0.0001084
2.68575e-05
9.8578e-05
1.06317e-05
9.15372e-05
-6.49043e-06
8.66935e-05
-2.4123e-05
8.34636e-05
-4.20788e-05
8.02961e-05
-6.00901e-05
7.5674e-05
-7.90427e-05
6.90199e-05
-9.84673e-05
6.14872e-05
-0.000119234
5.55767e-05
-0.000127273
4.32671e-05
-0.000121825
2.35204e-05
-0.000109945
4.5143e-06
-1.11513e-05
-9.31146e-05
0.000312473
-0.00026166
0.000306356
-0.000214869
0.000289484
-0.000160529
0.000266365
-0.00010237
0.00024199
-4.51376e-05
0.000214667
1.33414e-05
0.000191855
6.63942e-05
0.000175325
0.000113812
0.00016243
0.000152104
0.000151472
0.000180531
0.0001401
0.000198036
0.000127902
0.000203923
0.000115597
0.000199527
0.000103452
0.000188355
9.0702e-05
0.000173182
7.6787e-05
0.000156187
6.17536e-05
0.00013912
4.61009e-05
0.00012313
3.01918e-05
0.000109331
1.40148e-05
9.76356e-05
-2.95803e-06
8.89889e-05
-2.04232e-05
8.30986e-05
-3.87419e-05
7.94249e-05
-5.79036e-05
7.69894e-05
-7.89999e-05
7.46479e-05
-0.000104816
6.97112e-05
-0.000130059
6.62209e-05
-0.000151558
6.03046e-05
-0.000156704
4.6186e-05
-0.000150851
2.2045e-05
-0.000138197
-1.86932e-06
-0.00012212
-1.93944e-05
-2.82732e-05
-0.000106394
0.000280139
-0.000265476
0.000270681
-0.000214632
0.000248647
-0.000155734
0.000218824
-9.40289e-05
0.000185612
-3.41527e-05
0.000153535
2.16543e-05
0.000129331
7.07478e-05
0.000113836
0.000111759
0.000104478
0.00014657
9.7176e-05
0.000173164
9.0531e-05
0.000189573
8.28393e-05
0.00019459
7.38868e-05
0.00018937
6.37882e-05
0.000177278
5.2341e-05
0.000161418
3.95343e-05
0.000144088
2.5489e-05
0.000127443
1.06974e-05
0.00011229
-4.72107e-06
9.92099e-05
-2.0442e-05
8.87134e-05
-3.66702e-05
8.13209e-05
-5.39172e-05
7.63357e-05
-7.22254e-05
7.30315e-05
-9.4762e-05
7.15814e-05
-0.000124691
6.76995e-05
-0.00015187
6.56519e-05
-0.000172942
5.9025e-05
-0.000176362
4.48512e-05
-0.000171788
1.99893e-05
-0.000160329
-7.28986e-06
-0.000145603
-2.72055e-05
-0.000133033
-3.27437e-05
-3.30006e-05
-0.000122335
0.000240313
-0.000263925
0.000227122
-0.000207616
0.000197976
-0.000143562
0.000158835
-7.80116e-05
0.00011603
-1.74301e-05
8.06387e-05
3.15605e-05
5.88165e-05
7.00514e-05
4.60783e-05
0.000103042
3.97652e-05
0.000133293
3.57236e-05
0.00015816
3.21488e-05
0.000172885
2.79927e-05
0.000176827
2.25985e-05
0.000171438
1.56782e-05
0.000160073
6.69642e-06
0.000145608
-3.82571e-06
0.000129834
-1.57092e-05
0.000114761
-2.84905e-05
0.000101208
-4.20202e-05
9.01754e-05
-5.63319e-05
8.20004e-05
-7.12876e-05
7.59463e-05
-8.77769e-05
7.13492e-05
-0.000110137
6.91266e-05
-0.000140377
6.5783e-05
-0.000165994
6.25675e-05
-0.000184248
5.50542e-05
-0.000187949
4.0534e-05
-0.000186499
1.72703e-05
-0.000178586
-1.0687e-05
-0.000164794
-3.32676e-05
-0.000153223
-3.83046e-05
-0.000143835
-3.58879e-05
-3.6853e-05
-0.000141917
0.000191879
-0.00025715
0.00017698
-0.000195047
0.0001418
-0.000124866
9.31289e-05
-5.54637e-05
4.36663e-05
2.44297e-06
8.91536e-06
4.09685e-05
-1.08724e-05
6.67994e-05
-2.04706e-05
9.09813e-05
-2.55731e-05
0.000115728
-2.74314e-05
0.00013628
-2.80349e-05
0.000149303
-2.88153e-05
0.000152836
-3.07191e-05
0.000148465
-3.42215e-05
0.000138977
-3.97823e-05
0.00012677
-4.75557e-05
0.000113839
-5.68745e-05
0.00010209
-6.73754e-05
9.19288e-05
-7.87989e-05
8.37863e-05
-9.13271e-05
7.73846e-05
-0.000106485
7.28522e-05
-0.000128597
6.92132e-05
-0.000155049
6.61933e-05
-0.000176539
6.06373e-05
-0.000190302
5.15385e-05
-0.000193518
3.6697e-05
-0.000194273
1.52554e-05
-0.00018989
-1.15864e-05
-0.000178258
-3.47835e-05
-0.000167491
-4.15994e-05
-0.000158428
-4.0072e-05
-0.000156998
-3.81678e-05
-3.88412e-05
-0.000157755
0.000142319
-0.000249403
0.000128569
-0.000181086
8.81528e-05
-0.00010408
3.17902e-05
-3.11318e-05
-1.902e-05
1.97471e-05
-4.91313e-05
4.43427e-05
-6.70807e-05
6.11945e-05
-7.72956e-05
7.84901e-05
-8.17884e-05
9.5812e-05
-8.25531e-05
0.000110669
-8.17675e-05
0.000120387
-8.00065e-05
0.000123704
-7.87014e-05
0.000121619
-7.95196e-05
0.000115881
-8.27688e-05
0.000108394
-8.8314e-05
0.00010013
-9.54325e-05
9.21644e-05
-0.000103797
8.50995e-05
-0.00011382
7.93109e-05
-0.000128352
7.59554e-05
-0.000150593
7.17029e-05
-0.000171454
6.85074e-05
-0.000186952
6.12048e-05
-0.00019547
5.04826e-05
-0.000196235
3.51501e-05
-0.000197266
1.50632e-05
-0.000195277
-9.94519e-06
-0.000185343
-3.34703e-05
-0.000175071
-4.42553e-05
-0.000171294
-4.61208e-05
-0.00016853
-4.31494e-05
-0.000171287
-4.18763e-05
-4.24792e-05
-0.00017391
9.72344e-05
-0.000246791
8.83238e-05
-0.000170801
4.61456e-05
-8.6621e-05
-1.59493e-05
-1.04346e-05
-6.65384e-05
2.90054e-05
-9.51552e-05
4.36971e-05
-0.000111762
5.43589e-05
-0.000120724
6.59315e-05
-0.00012462
7.76162e-05
-0.000124296
8.81939e-05
-0.000122199
9.56485e-05
-0.000119733
9.96913e-05
-0.00011803
0.000100443
-0.000118447
9.82989e-05
-0.000120645
9.43318e-05
-0.000124385
8.96612e-05
-0.000130265
8.50611e-05
-0.000139196
8.14911e-05
-0.000153862
7.91926e-05
-0.000174763
7.56965e-05
-0.000190078
7.16867e-05
-0.000199883
6.37071e-05
-0.000203145
5.20824e-05
-0.000200344
3.63388e-05
-0.000199328
1.70515e-05
-0.000197068
-6.5113e-06
-0.00018731
-3.03765e-05
-0.000178017
-4.56103e-05
-0.000179077
-5.20248e-05
-0.000179872
-5.14766e-05
-0.000180196
-4.74186e-05
-0.000184851
-4.73227e-05
-4.78911e-05
-0.000188148
5.61964e-05
-0.000260344
5.54052e-05
-0.000173058
1.20466e-05
-7.50248e-05
-5.41566e-05
-9.96697e-07
-0.000106647
3.02803e-05
-0.000134284
3.94641e-05
-0.00014852
4.62514e-05
-0.00015557
5.43011e-05
-0.000158429
6.27963e-05
-0.000157598
7.08823e-05
-0.00015527
7.75071e-05
-0.000153145
8.21911e-05
-0.000151611
8.46316e-05
-0.000151442
8.52403e-05
-0.000153095
8.43262e-05
-0.00015731
8.29199e-05
-0.000167108
8.30601e-05
-0.000184026
8.19078e-05
-0.000199281
8.00955e-05
-0.000209469
7.4893e-05
-0.000214852
6.70456e-05
-0.000213423
5.51496e-05
-0.000207136
3.95715e-05
-0.000203359
2.11335e-05
-0.000199018
-1.52561e-06
-0.000187974
-2.59472e-05
-0.000178228
-4.48255e-05
-0.000179432
-5.65311e-05
-0.000184161
-5.98123e-05
-0.000187117
-5.79167e-05
-0.000194713
-5.73519e-05
-0.000201902
-5.78141e-05
-6.02699e-05
-0.000209807
1.72414e-05
-0.000278643
2.44737e-05
-0.00019086
-1.59e-05
-8.19426e-05
-8.71564e-05
-5.69845e-06
-0.000141083
2.37204e-05
-0.000166861
3.15775e-05
-0.000178278
3.73437e-05
-0.000183319
4.38608e-05
-0.000185263
5.08496e-05
-0.000184067
5.79146e-05
-0.000182173
6.44133e-05
-0.000180453
6.99925e-05
-0.000179539
7.39676e-05
-0.000181107
7.73335e-05
-0.000187173
8.07287e-05
-0.000200019
8.3345e-05
-0.000214445
8.41088e-05
-0.000223642
8.20833e-05
-0.00022858
7.7587e-05
-0.000230166
7.0629e-05
-0.000225083
5.86943e-05
-0.000216452
4.41727e-05
-0.000210368
2.66732e-05
-0.000203417
4.77559e-06
-0.000190431
-1.99611e-05
-0.000178214
-4.15228e-05
-0.000177684
-5.80232e-05
-0.000183377
-6.70267e-05
-0.000192583
-7.04972e-05
-0.000205098
-7.18181e-05
-0.00022
-7.39805e-05
-0.000234168
-7.39438e-05
-7.10712e-05
-0.000242563
-2.89789e-05
-0.000301292
-7.49445e-06
-0.000231121
-3.97858e-05
-0.000117349
-0.000116634
-2.57431e-05
-0.000169914
1.0789e-05
-0.000193469
2.22846e-05
-0.000202607
2.89994e-05
-0.000206372
3.57881e-05
-0.000207449
4.25962e-05
-0.000206829
4.97115e-05
-0.000206454
5.71238e-05
-0.000208197
6.44048e-05
-0.000213578
7.15301e-05
-0.000223625
7.77272e-05
-0.000234204
8.1512e-05
-0.000241435
8.30237e-05
-0.000245335
8.18838e-05
-0.000246976
7.92214e-05
-0.000244424
7.25835e-05
-0.000236611
6.23488e-05
-0.000226892
4.91476e-05
-0.000220307
3.29375e-05
-0.000211284
1.2286e-05
-0.000196837
-1.21664e-05
-0.000181903
-3.5462e-05
-0.00017763
-5.55746e-05
-0.000182757
-7.02667e-05
-0.000194412
-7.88839e-05
-0.00021183
-8.47607e-05
-0.000231923
-8.78773e-05
-0.000245183
-8.45443e-05
-0.000254876
-7.79654e-05
-6.96065e-05
-0.000263352
-8.82572e-05
-0.000300934
-5.49057e-05
-0.000268943
-8.28875e-05
-0.000186835
-0.000157162
-7.9721e-05
-0.000205166
-1.51407e-05
-0.000225343
1.00579e-05
-0.000233485
2.19423e-05
-0.00023735
3.11859e-05
-0.000239542
3.95246e-05
-0.000242617
4.79361e-05
-0.00024733
5.6496e-05
-0.000253081
6.4453e-05
-0.000258578
7.11422e-05
-0.000262034
7.61294e-05
-0.000263529
7.90694e-05
-0.000263916
8.05723e-05
-0.000262059
7.89997e-05
-0.000256472
7.37714e-05
-0.000246193
6.51033e-05
-0.000238331
5.37741e-05
-0.000231179
3.94138e-05
-0.000220756
2.01595e-05
-0.00020591
-3.07503e-06
-0.0001896
-2.7435e-05
-0.000182039
-4.95463e-05
-0.000184561
-6.75237e-05
-0.000194651
-7.99953e-05
-0.000213856
-8.9528e-05
-0.000234762
-9.47034e-05
-0.000250603
-9.11683e-05
-0.000265
-8.34159e-05
-0.000277904
-7.21613e-05
-5.98565e-05
-0.000290461
-0.000127985
-0.000276048
-0.000102048
-0.000276945
-0.000125056
-0.000244578
-0.00020097
-0.00015526
-0.000252353
-5.95284e-05
-0.000272434
-1.074e-05
-0.000279949
1.2035e-05
-0.000282842
2.54252e-05
-0.000283417
3.62695e-05
-0.000283256
4.58664e-05
-0.000283184
5.44519e-05
-0.000282556
6.2299e-05
-0.000281712
6.88253e-05
-0.000280284
7.38981e-05
-0.000278046
7.68589e-05
-0.000273095
7.64868e-05
-0.000264354
7.26847e-05
-0.000254951
6.67307e-05
-0.000247969
5.78216e-05
-0.000241102
4.53123e-05
-0.000230363
2.8005e-05
-0.000216101
6.36231e-06
-0.000200769
-1.77618e-05
-0.000189255
-4.04244e-05
-0.000188166
-5.96631e-05
-0.000195664
-7.47294e-05
-0.000212837
-8.58337e-05
-0.000235592
-9.44367e-05
-0.000254328
-9.23712e-05
-0.000272566
-8.51869e-05
-0.000289415
-7.28384e-05
-0.000305432
-5.82589e-05
-4.43122e-05
-0.000322207
-0.000137726
-0.000242414
-0.00012431
-0.000255339
-0.00014132
-0.000264174
-0.000214838
-0.000219158
-0.000269561
-0.000120495
-0.000294041
-4.02314e-05
-0.000303088
-1.77139e-06
-0.000304343
1.84861e-05
-0.000303928
3.20105e-05
-0.00030091
4.33918e-05
-0.000298024
5.25627e-05
-0.000294911
6.05054e-05
-0.000291294
6.65036e-05
-0.000286109
7.04575e-05
-0.000278039
7.15523e-05
-0.000268692
7.05083e-05
-0.000261599
6.70491e-05
-0.0002555
6.07348e-05
-0.000248185
5.02494e-05
-0.00023853
3.52832e-05
-0.00022569
1.58421e-05
-0.000211658
-6.88109e-06
-0.000199417
-2.96896e-05
-0.000193598
-4.85534e-05
-0.000198595
-6.48465e-05
-0.000212358
-7.66185e-05
-0.000235624
-8.68735e-05
-0.00025686
-8.78455e-05
-0.000278001
-8.2229e-05
-0.000297799
-7.04521e-05
-0.000317343
-5.54088e-05
-0.000338842
-4.0093e-05
-2.62197e-05
-0.000360598
-0.000127782
-0.000227113
-0.00011815
-0.000238319
-0.00013639
-0.000243471
-0.000192685
-0.000234262
-0.000264329
-0.000168104
-0.000295585
-8.24712e-05
-0.000307508
-2.13584e-05
-0.000309874
8.43634e-06
-0.000310503
2.62573e-05
-0.00030585
3.92919e-05
-0.000300276
4.90996e-05
-0.000293392
5.61902e-05
-0.000285717
6.16526e-05
-0.0002779
6.53173e-05
-0.000270851
6.68421e-05
-0.000265149
6.59854e-05
-0.000259304
6.18264e-05
-0.000252844
5.39941e-05
-0.000244112
4.16506e-05
-0.000233195
2.47519e-05
-0.000220956
4.28928e-06
-0.000209201
-1.74743e-05
-0.00020047
-3.62216e-05
-0.000202055
-5.17078e-05
-0.000213251
-6.41339e-05
-0.000234848
-7.37516e-05
-0.000259058
-7.88489e-05
-0.000282118
-7.48452e-05
-0.000305412
-6.50391e-05
-0.000328416
-5.0311e-05
-0.000352831
-3.45751e-05
-0.000378365
-1.9486e-05
-7.09345e-06
-0.000401609
-0.000120869
-0.000219886
-0.000110201
-0.00023038
-0.000115177
-0.000240604
-0.000161961
-0.000232399
-0.000221269
-0.000193303
-0.000271037
-0.000118707
-0.000289062
-5.16156e-05
-0.000295682
-6.51001e-06
-0.000295961
1.7563e-05
-0.000293145
3.23477e-05
-0.000287009
4.39202e-05
-0.000280856
5.19592e-05
-0.000275486
5.79064e-05
-0.000270166
6.16708e-05
-0.000265248
6.30326e-05
-0.000259898
6.14077e-05
-0.00025372
5.59844e-05
-0.000246238
4.65678e-05
-0.000237019
3.26867e-05
-0.000226809
1.50634e-05
-0.000216639
-4.62055e-06
-0.000207575
-2.29965e-05
-0.00020522
-3.6804e-05
-0.00021485
-4.93618e-05
-0.00023316
-5.80876e-05
-0.000260229
-6.53824e-05
-0.000284999
-6.37351e-05
-0.000311485
-5.60237e-05
-0.000338031
-4.29948e-05
-0.000366802
-2.74357e-05
-0.00039488
-1.11563e-05
-0.000418952
2.92525e-06
1.21338e-05
-0.00043678
-0.000120025
-0.000213695
-0.000107849
-0.000227287
-0.000110795
-0.000235445
-0.000134757
-0.000234746
-0.000186428
-0.000210613
-0.000232281
-0.000155135
-0.000262426
-8.43788e-05
-0.000273905
-2.89455e-05
-0.000277945
6.21451e-06
-0.000278605
2.59198e-05
-0.00027552
3.88213e-05
-0.000270961
4.84315e-05
-0.000266426
5.46524e-05
-0.000261672
5.81795e-05
-0.000256467
5.88352e-05
-0.000250395
5.61531e-05
-0.000243627
4.96484e-05
-0.000236171
3.91817e-05
-0.000228056
2.48344e-05
-0.000219991
8.01057e-06
-0.000212612
-8.74877e-06
-0.000207935
-2.17822e-05
-0.000215062
-3.2854e-05
-0.000231226
-4.15103e-05
-0.000257676
-4.76719e-05
-0.000286922
-5.00627e-05
-0.000315321
-4.43675e-05
-0.00034622
-3.33247e-05
-0.000377869
-1.80281e-05
-0.000407894
-1.23809e-06
-0.000432003
1.43336e-05
-0.000447765
2.5045e-05
2.84715e-05
-0.000455982
-0.00011454
-0.000207213
-0.000106077
-0.000224426
-0.000105938
-0.000236232
-0.000123553
-0.000235775
-0.000154877
-0.000219866
-0.000198853
-0.000181149
-0.000233183
-0.000122201
-0.00025316
-5.81042e-05
-0.000261426
-1.14102e-05
-0.00026341
1.68162e-05
-0.000262974
3.30091e-05
-0.000258835
4.37567e-05
-0.000253873
5.06821e-05
-0.000248531
5.40535e-05
-0.000242887
5.41825e-05
-0.000236942
5.08507e-05
-0.000230928
4.37384e-05
-0.00022469
3.30643e-05
-0.000218631
1.96853e-05
-0.000213659
5.4483e-06
-0.000210008
-6.70911e-06
-0.000213544
-1.5657e-05
-0.000228422
-2.41148e-05
-0.000251084
-2.94311e-05
-0.000284403
-3.26859e-05
-0.000317528
-3.0545e-05
-0.000350731
-2.14846e-05
-0.000384289
-7.18465e-06
-0.00041579
9.86452e-06
-0.000440258
2.61086e-05
-0.000454185
3.81042e-05
-0.000460701
4.27317e-05
4.08188e-05
-0.000462966
-0.000104027
-0.000198633
-9.8956e-05
-0.000221194
-0.000100941
-0.000239127
-0.000110553
-0.0002426
-0.000131199
-0.000229487
-0.000159079
-0.000200602
-0.000193645
-0.000152747
-0.00022145
-9.23653e-05
-0.000236287
-3.50626e-05
-0.000242834
3.69034e-06
-0.000243825
2.5342e-05
-0.000241516
3.79854e-05
-0.000237049
4.6031e-05
-0.000232086
4.978e-05
-0.00022699
4.97567e-05
-0.00022189
4.61626e-05
-0.000217015
3.92237e-05
-0.000213045
2.95796e-05
-0.000210457
1.85291e-05
-0.000209439
8.21333e-06
-0.000211623
5.12805e-07
-0.000224178
-6.14238e-06
-0.000244905
-1.13389e-05
-0.000275235
-1.40681e-05
-0.000314504
-1.44461e-05
-0.000350316
-7.88903e-06
-0.00038516
4.79689e-06
-0.000417392
2.05184e-05
-0.000442364
3.67399e-05
-0.000455911
5.00834e-05
-0.000461173
5.64997e-05
-0.000463631
5.64732e-05
5.06001e-05
-0.000463113
-9.14125e-05
-0.000189568
-9.12536e-05
-0.00021502
-9.48212e-05
-0.000239252
-0.000103196
-0.000251653
-0.000112895
-0.000245346
-0.000127149
-0.00022257
-0.000149138
-0.000180996
-0.000178608
-0.000125054
-0.000203252
-6.41626e-05
-0.000215268
-1.45586e-05
-0.000220237
1.5681e-05
-0.000221089
3.18242e-05
-0.000218276
4.09625e-05
-0.000214204
4.55887e-05
-0.000210143
4.59588e-05
-0.000206796
4.29402e-05
-0.000204881
3.71727e-05
-0.000204558
2.97476e-05
-0.000206068
2.20837e-05
-0.000209847
1.55144e-05
-0.0002195
1.08643e-05
-0.000238788
6.07606e-06
-0.000265163
3.63139e-06
-0.000303315
3.30686e-06
-0.000344697
6.51014e-06
-0.000379957
1.61427e-05
-0.000411729
2.99426e-05
-0.000437624
4.51376e-05
-0.000451828
5.9383e-05
-0.000456026
6.77885e-05
-0.000458049
7.04384e-05
-0.00046005
6.69807e-05
5.78191e-05
-0.000457821
-7.90903e-05
-0.000180695
-8.35292e-05
-0.00020694
-9.06975e-05
-0.000233322
-9.84905e-05
-0.000251418
-0.000103734
-0.000251966
-0.000107033
-0.000238273
-0.000115631
-0.000210847
-0.000135849
-0.000162174
-0.000163058
-9.87845e-05
-0.000183917
-3.77356e-05
-0.000194966
3.83891e-06
-0.000198799
2.54543e-05
-0.000199878
3.65108e-05
-0.000198281
4.24335e-05
-0.000196827
4.39889e-05
-0.000196679
4.23142e-05
-0.000198403
3.85963e-05
-0.000202309
3.38861e-05
-0.000208398
2.92983e-05
-0.000216695
2.59404e-05
-0.000233394
2.30573e-05
-0.000257212
2.03553e-05
-0.0002897
1.95737e-05
-0.000332468
2.10128e-05
-0.000370502
2.70427e-05
-0.000401695
3.79235e-05
-0.000428344
5.13474e-05
-0.000444828
6.53677e-05
-0.000448514
7.50775e-05
-0.000448351
8.05819e-05
-0.000451499
7.99439e-05
-0.00045262
7.4127e-05
6.19184e-05
-0.000452599
-6.71789e-05
-0.00017466
-7.4577e-05
-0.000198714
-8.41198e-05
-0.000226282
-9.16948e-05
-0.000247166
-9.4948e-05
-0.000250467
-9.58226e-05
-0.00024078
-9.62138e-05
-0.000220597
-0.000105232
-0.000186139
-0.000129928
-0.00013243
-0.000159345
-6.76601e-05
-0.000176171
-1.22819e-05
-0.000184655
1.95783e-05
-0.000188771
3.47543e-05
-0.000190685
4.23397e-05
-0.000192421
4.55721e-05
-0.000195745
4.55492e-05
-0.000201329
4.38151e-05
-0.000208731
4.13582e-05
-0.000216869
3.90538e-05
-0.000229079
3.82927e-05
-0.000250667
3.57956e-05
-0.000277786
3.4454e-05
-0.000315007
3.48104e-05
-0.000357465
3.72657e-05
-0.000390368
4.48102e-05
-0.000417079
5.53626e-05
-0.00043703
6.76219e-05
-0.000441609
7.83848e-05
-0.000437449
8.5429e-05
-0.000438744
8.72481e-05
-0.000440924
8.49169e-05
-0.000442471
7.66969e-05
6.24992e-05
-0.000444966
-5.61293e-05
-0.000175125
-6.51041e-05
-0.000193143
-7.54423e-05
-0.000219414
-8.25626e-05
-0.00024196
-8.35831e-05
-0.000245934
-8.13515e-05
-0.000237242
-7.968e-05
-0.000220518
-8.18193e-05
-0.000195156
-9.99903e-05
-0.000154338
-0.000134289
-9.55894e-05
-0.000166312
-3.25761e-05
-0.000185438
1.16608e-05
-0.000195373
3.33829e-05
-0.000201795
4.42697e-05
-0.000206264
5.07053e-05
-0.000211541
5.29194e-05
-0.000217722
5.29004e-05
-0.000223523
5.18283e-05
-0.000229764
5.11182e-05
-0.000246946
4.92706e-05
-0.000270861
4.74226e-05
-0.000301116
4.64417e-05
-0.00034112
4.71996e-05
-0.000378698
5.05758e-05
-0.000406003
5.74843e-05
-0.000427241
6.68439e-05
-0.000437791
7.6834e-05
-0.000433297
8.45109e-05
-0.000426559
8.82085e-05
-0.000426998
8.88281e-05
-0.000427916
8.4625e-05
-0.000427575
7.46676e-05
5.93409e-05
-0.000429789
-4.66999e-05
-0.000183852
-5.52762e-05
-0.000192667
-6.58756e-05