/*--------------------------------*- C++ -*----------------------------------*\
  =========                 |
  \\      /  F ield         | OpenFOAM: The Open Source CFD Toolbox
   \\    /   O peration     | Website:  https://openfoam.org
    \\  /    A nd           | Version:  10
     \\/     M anipulation  |
\*---------------------------------------------------------------------------*/
FoamFile
{
    format      ascii;
    class       volScalarField;
    location    "0.500082";
    object      T;
}
// * * * * * * * * * * * * * * * * * * * * * * * * * * * * * * * * * * * * * //

dimensions      [0 0 0 1 0 0 0];

internalField   nonuniform List<scalar> 
16320
(
0.00307859
0.00309353
0.00312122
0.00316109
0.00327375
0.00354056
0.00370554
0.00376908
0.0038064
0.00380188
0.00377777
0.00368687
0.00353064
0.00344388
0.00340646
0.00341524
0.0034482
0.00349749
0.00354232
0.00358458
0.00364868
0.00368633
0.00366918
0.00361642
0.00354323
0.00348074
0.00339753
0.00327774
0.00326104
0.00340477
0.00364638
0.00364164
0.0034618
0.00288265
0.0028834
0.00291112
0.00300529
0.00327537
0.0036283
0.00381193
0.00388219
0.00389359
0.00386628
0.0037912
0.00361655
0.00344119
0.00335318
0.00331869
0.00333351
0.00337038
0.00341938
0.00345644
0.00349536
0.003533
0.00354685
0.00353385
0.00349661
0.00344877
0.00338305
0.00328802
0.00323994
0.00327022
0.00350114
0.00365206
0.00362624
0.00343148
0.00284789
0.0028287
0.00283966
0.00292316
0.00326276
0.00365764
0.00386499
0.00394732
0.00395818
0.003935
0.00384257
0.00361999
0.00342087
0.00331571
0.00326321
0.003253
0.00327279
0.00331006
0.00334344
0.0033826
0.00341399
0.00341526
0.00340152
0.00336498
0.00331947
0.00326848
0.00323616
0.00324322
0.00335069
0.00361133
0.00365905
0.00360772
0.00335462
0.00294461
0.00287447
0.0028504
0.00289935
0.00313671
0.00357931
0.00384291
0.00394466
0.00397475
0.00396626
0.00392346
0.00371213
0.00346119
0.00332898
0.00326233
0.00322884
0.00322288
0.00322964
0.00324098
0.00326137
0.0032811
0.00328285
0.00327817
0.0032654
0.0032488
0.00323877
0.00324384
0.00330874
0.00353845
0.00365149
0.00364498
0.00354037
0.00323888
0.00340297
0.00325476
0.00309948
0.00301926
0.00307546
0.00332983
0.00367725
0.00387206
0.00394697
0.00395729
0.00393372
0.00384925
0.0036476
0.00344854
0.00332138
0.00325584
0.00323234
0.00322952
0.00322959
0.00323597
0.00324567
0.00324958
0.0032507
0.00325274
0.0032523
0.00326461
0.00333174
0.00351628
0.00363607
0.00364805
0.00360181
0.00339702
0.00312836
0.00384313
0.00380732
0.00371017
0.00353545
0.00333554
0.00328272
0.00338196
0.00360979
0.00379957
0.00389402
0.00391099
0.00387459
0.003787
0.003661
0.00352999
0.00340705
0.00332403
0.00328442
0.00326586
0.00326208
0.00326685
0.00327145
0.00327791
0.00329459
0.00332872
0.00341361
0.00355655
0.00363643
0.00364679
0.00361575
0.00346908
0.00320425
0.00301378
0.003957
0.00395377
0.00394109
0.00391376
0.00383715
0.00363404
0.00349844
0.00350775
0.00357727
0.00370123
0.00380411
0.00384341
0.00381074
0.00376051
0.00369227
0.00361979
0.00354435
0.00347771
0.00343231
0.00340388
0.00340069
0.0034068
0.00342762
0.00347643
0.00354495
0.00361558
0.00364817
0.00364664
0.00360746
0.00347308
0.00325884
0.00307697
0.00295186
0.00398437
0.00397823
0.00397245
0.00397169
0.00396863
0.00394881
0.00383702
0.0036184
0.00359565
0.00361163
0.00364721
0.00371565
0.00377587
0.00376331
0.00374782
0.00371794
0.00368059
0.00364642
0.00362149
0.00360455
0.00360259
0.00360514
0.0036161
0.00363818
0.00365126
0.00365322
0.00363874
0.0035805
0.00343376
0.00330605
0.00318473
0.00306175
0.00295725
0.00398372
0.00396071
0.00394643
0.00395195
0.0039687
0.00400627
0.00400008
0.00394477
0.00378832
0.00366567
0.00365223
0.00365855
0.00367853
0.00370642
0.00372365
0.00371993
0.00371129
0.00369623
0.00368417
0.0036749
0.00366995
0.0036631
0.00365826
0.00365216
0.00363823
0.00360024
0.00353808
0.00344959
0.00336465
0.00329311
0.00321356
0.00309901
0.00299285
0.00390878
0.00383463
0.00377854
0.00378229
0.00380447
0.00386924
0.00395873
0.00399959
0.00398449
0.00391635
0.00378463
0.00370134
0.0036837
0.00368977
0.00369393
0.00369562
0.00369182
0.00368358
0.0036749
0.00366748
0.00366099
0.00365242
0.00364308
0.00362933
0.0036125
0.0035858
0.0035448
0.00349734
0.00345131
0.00342706
0.00338575
0.00321349
0.00304607
0.00369442
0.00359649
0.00351145
0.00350929
0.00352855
0.00358368
0.00371117
0.00388207
0.00396345
0.00398397
0.00396616
0.00390496
0.00380649
0.00374701
0.00372231
0.00370747
0.0036973
0.00368791
0.00368006
0.00367423
0.00367047
0.00366763
0.00366832
0.00367423
0.00369067
0.00371814
0.0037644
0.00380439
0.00381523
0.00374532
0.00345183
0.0031846
0.00304491
0.00338377
0.00329068
0.00323991
0.00324198
0.00325834
0.0033092
0.00341013
0.0035769
0.00380806
0.00393261
0.00397602
0.00399426
0.00397927
0.00393995
0.00387622
0.00382663
0.00378992
0.00376932
0.00376185
0.00376361
0.00377323
0.00379967
0.00384126
0.00390174
0.00397858
0.00405395
0.00409964
0.00410065
0.0040151
0.00370808
0.00330919
0.00312364
0.00308149
0.00313977
0.00309066
0.00307653
0.0030812
0.00309599
0.00313118
0.00320288
0.00331069
0.00346332
0.00371533
0.0039002
0.0039775
0.00400829
0.00401415
0.0040056
0.00398234
0.00396322
0.00394594
0.00394326
0.00394969
0.00396546
0.00400232
0.00404045
0.00409204
0.00415952
0.00420583
0.00421568
0.00415745
0.00389942
0.00338824
0.00317581
0.00316704
0.00335182
0.00303557
0.00300206
0.00300071
0.00300722
0.00302603
0.00306393
0.00311823
0.00320134
0.00327944
0.00343492
0.00367402
0.00388262
0.00397676
0.00401195
0.00402337
0.00402356
0.00401726
0.00401148
0.00401514
0.00402335
0.00404653
0.00407866
0.0041052
0.00416099
0.00421881
0.00424345
0.00420625
0.00394642
0.00339303
0.00321731
0.00328403
0.00357816
0.00377179
0.00298636
0.00293305
0.00290449
0.00290943
0.00293392
0.00299435
0.00306959
0.00314759
0.00321261
0.00330915
0.00347137
0.00367786
0.00386848
0.00396964
0.00400727
0.00401781
0.0040183
0.00402031
0.00402551
0.00403729
0.0040662
0.00409343
0.00413277
0.00419524
0.00422623
0.00420115
0.00390308
0.00335805
0.0032451
0.00340353
0.00374927
0.00387525
0.00391614
0.00294601
0.00287959
0.00284437
0.00284542
0.00285922
0.00291159
0.00301757
0.00311691
0.00320357
0.00327411
0.00337493
0.00352752
0.00369624
0.00383962
0.0039292
0.00397679
0.00399942
0.00401405
0.00402566
0.0040482
0.00408091
0.00410626
0.00415871
0.00418686
0.0041536
0.00380044
0.00330945
0.00325634
0.00349653
0.00384266
0.00394169
0.00398139
0.0040756
0.00293491
0.00286924
0.00283695
0.00283821
0.0028538
0.00292069
0.00304489
0.00314635
0.00322531
0.00328594
0.00335896
0.0034645
0.00360773
0.00374723
0.00385876
0.00393612
0.00398065
0.00401337
0.00403837
0.00408074
0.00409887
0.00411704
0.00413319
0.00406951
0.0036565
0.00327446
0.00326187
0.00353858
0.00387923
0.00397438
0.00402923
0.00420746
0.00449523
0.00296359
0.00291949
0.00290346
0.00290732
0.00294321
0.00305281
0.0031628
0.00325511
0.00330083
0.00332781
0.00337694
0.00347526
0.00361436
0.00374949
0.00385869
0.00393996
0.00399385
0.00405344
0.00408188
0.00407857
0.00407811
0.00407073
0.00395813
0.0034996
0.00324199
0.00325516
0.0035529
0.00386024
0.00395352
0.00404889
0.00433296
0.00472757
0.004953
0.00309058
0.00308953
0.00307759
0.00307979
0.00313786
0.00327714
0.00343795
0.00348608
0.0034714
0.00342912
0.00343907
0.00352376
0.0036534
0.00377955
0.00389306
0.00400151
0.00405599
0.00407127
0.00406578
0.00404268
0.00399371
0.003818
0.00336595
0.00320586
0.00324403
0.00352676
0.00381827
0.00392117
0.00407829
0.00446075
0.00495349
0.00526347
0.00533781
0.00329505
0.00335355
0.00337092
0.0033868
0.00345498
0.0036014
0.00368427
0.00367468
0.00362487
0.00358994
0.0035824
0.00365375
0.00377952
0.00391604
0.00401049
0.00404671
0.00405263
0.00404393
0.00399758
0.00390849
0.00364215
0.00327097
0.00318247
0.0032357
0.00350359
0.00377632
0.0038803
0.0040753
0.00452508
0.00501601
0.00538393
0.00558128
0.00561957
0.00357213
0.00370948
0.00376823
0.00375618
0.00375565
0.00386533
0.00389342
0.00386726
0.00382951
0.00381582
0.0038388
0.00389923
0.00396225
0.00400908
0.00402323
0.00402904
0.00400538
0.0039401
0.00379111
0.00344943
0.00321046
0.00316429
0.00323038
0.00347543
0.00372415
0.00382566
0.0040274
0.0044679
0.00489302
0.00513878
0.00547243
0.00559841
0.00560679
0.00370949
0.0039948
0.00410974
0.00404822
0.00398882
0.00396733
0.00395959
0.00393208
0.00391598
0.003912
0.00394001
0.00396426
0.00397899
0.00398898
0.00398274
0.00393926
0.0038397
0.00359698
0.00327887
0.00317244
0.00315333
0.00323669
0.00346997
0.0036887
0.00378315
0.00396972
0.00434967
0.00469141
0.00486776
0.00512662
0.00524787
0.00524691
0.00512725
0.00373623
0.0040883
0.00429329
0.00423306
0.00408781
0.00398065
0.00393356
0.00391266
0.00390328
0.00390195
0.00392288
0.00392555
0.00392293
0.00388901
0.00381005
0.00362887
0.00332266
0.00318225
0.00314048
0.00315076
0.00325571
0.00347878
0.00366098
0.00374483
0.00391122
0.00423441
0.00450613
0.00462907
0.0047336
0.00475436
0.00464404
0.00446393
0.00432814
0.00366187
0.00400829
0.00432637
0.00426048
0.00405556
0.00390628
0.0038405
0.00382236
0.00381429
0.00380777
0.00380009
0.00376312
0.00367515
0.00350276
0.00328713
0.0031589
0.00311749
0.00311015
0.00316791
0.00327688
0.00351232
0.00362799
0.00370739
0.00385267
0.00411862
0.00434624
0.00442941
0.00444484
0.00437942
0.00420002
0.00408611
0.00406546
0.0040745
0.00361466
0.00374557
0.00390515
0.00393075
0.00375409
0.00360209
0.00353074
0.00349907
0.00347326
0.00343045
0.00334943
0.00325317
0.00314994
0.00307946
0.00306855
0.00306261
0.00311351
0.00317735
0.00334018
0.00351743
0.00359023
0.00368004
0.00379696
0.00401495
0.00420569
0.00427074
0.00427349
0.004185
0.00400573
0.00394287
0.00394849
0.00399315
0.0040491
0.00369342
0.00370174
0.00370664
0.00354466
0.00328153
0.00310309
0.00303662
0.00300403
0.00299389
0.00298754
0.00298271
0.00298
0.00299108
0.00301333
0.00305368
0.00310748
0.00322475
0.00339334
0.00350984
0.00356982
0.00363748
0.00375317
0.00389701
0.00407482
0.00416508
0.00418162
0.00412642
0.00395135
0.00388182
0.00388654
0.00394032
0.00403195
0.00410751
0.0040052
0.00387146
0.00372624
0.00353351
0.00320807
0.00299946
0.00289727
0.00286959
0.0028716
0.00289093
0.00292544
0.00295776
0.00300599
0.00306004
0.00315363
0.00329562
0.00342284
0.00348558
0.00355777
0.00360599
0.00369458
0.00380277
0.00393604
0.00406367
0.0041139
0.00410163
0.00396556
0.00386325
0.00385671
0.00390749
0.00401375
0.004091
0.00412448
0.00424743
0.00421183
0.00410707
0.00381372
0.0034481
0.00311978
0.00297875
0.0029169
0.00290981
0.0029379
0.00298568
0.00305241
0.00314627
0.00324389
0.00334999
0.00342028
0.00348228
0.00352653
0.00356817
0.00363427
0.00370869
0.00381398
0.00395108
0.0040606
0.00407851
0.00400513
0.00387062
0.00384385
0.0038705
0.00395449
0.00402937
0.00405928
0.00406883
0.00428819
0.00429814
0.0042783
0.00419298
0.00390931
0.00355853
0.00326222
0.00317309
0.00313121
0.00314816
0.00318971
0.00326171
0.00331468
0.0033725
0.00342069
0.00345479
0.00349426
0.00352521
0.0035719
0.0036311
0.00370943
0.00383172
0.00399275
0.0040499
0.0040331
0.00389956
0.00383528
0.00383475
0.00387964
0.00392395
0.00393861
0.00395761
0.00399385
0.00426238
0.00427932
0.0042847
0.00424053
0.00413696
0.00388895
0.00364307
0.00342372
0.00335836
0.00332756
0.00332347
0.00335056
0.00337566
0.00340201
0.00342693
0.00345417
0.00348862
0.003519
0.00356504
0.00362602
0.00372717
0.00390065
0.00401992
0.00403517
0.00395831
0.00382843
0.00379951
0.00379796
0.00380331
0.0038127
0.00384776
0.00391774
0.00400392
0.00420556
0.00416727
0.00416029
0.00415664
0.00409769
0.00399739
0.00378635
0.00359552
0.00344476
0.00339124
0.0033691
0.00336607
0.00338157
0.00339906
0.00342089
0.00344304
0.00347054
0.00350092
0.00355974
0.00364666
0.00379734
0.00396987
0.00402723
0.00401226
0.00388185
0.00375651
0.00371956
0.00370961
0.0037113
0.00374878
0.00383945
0.00395583
0.00405337
0.00419328
0.00408418
0.00399827
0.003968
0.00397575
0.00393169
0.003847
0.00368103
0.00352853
0.00342532
0.00338355
0.0033701
0.0033703
0.0033793
0.00339353
0.00341553
0.00345177
0.00350584
0.00358389
0.00371076
0.00389008
0.00400301
0.00401998
0.00395335
0.00377337
0.00366829
0.00364427
0.00363876
0.00366829
0.00375963
0.00389147
0.00401398
0.00409102
0.00420206
0.00405007
0.00386948
0.00376566
0.00373636
0.00376938
0.00376433
0.0037036
0.00356766
0.00344948
0.0033822
0.00335256
0.0033432
0.00335361
0.00337582
0.00341158
0.00346218
0.00353341
0.00364647
0.00379933
0.0039507
0.00400072
0.0039834
0.00384809
0.00366893
0.00359996
0.00358901
0.00360386
0.00367878
0.00381345
0.00395752
0.00403882
0.00409347
0.00421544
0.00404277
0.00383002
0.0036422
0.00355951
0.0035307
0.00354503
0.00355615
0.00353012
0.00344609
0.00336833
0.00333275
0.00332402
0.00333686
0.0033667
0.00341366
0.00348117
0.00357244
0.0036941
0.00384841
0.00395451
0.00397179
0.0039092
0.0037239
0.00358442
0.00355213
0.00355195
0.00360262
0.00372176
0.00388293
0.00397201
0.00402122
0.00403442
0.00421761
0.00406148
0.00383262
0.00362219
0.00351959
0.00346978
0.00342466
0.00338863
0.00332856
0.00326629
0.00322494
0.00321009
0.00322851
0.00325859
0.00330584
0.00336822
0.00344669
0.00354803
0.00368994
0.00385869
0.00392534
0.0039173
0.00380353
0.00361213
0.00351994
0.00350733
0.00352561
0.00361598
0.00377725
0.00389095
0.00395254
0.00395023
0.00392507
0.0041644
0.00407962
0.00386679
0.00363835
0.00354203
0.00349867
0.00345734
0.00338517
0.00329726
0.0031711
0.00305004
0.00298813
0.00297052
0.00300125
0.00305884
0.00314278
0.0032588
0.00343263
0.00368373
0.00384822
0.00387595
0.00383311
0.00367363
0.00351756
0.00346682
0.00346357
0.00351072
0.00363623
0.00379606
0.0038829
0.00388453
0.0038694
0.00380444
0.00402641
0.00407273
0.00390832
0.00369698
0.00362731
0.00363542
0.00363934
0.00360381
0.0034855
0.00331301
0.00312452
0.00299075
0.00293144
0.00291483
0.00294815
0.00304292
0.00320956
0.0034563
0.00371214
0.00380234
0.00380432
0.00371961
0.00353997
0.0034339
0.00340836
0.00341902
0.00349802
0.00365549
0.00380139
0.00383461
0.00383889
0.00380764
0.00374219
0.00380175
0.00396787
0.00392287
0.00373385
0.00365701
0.00368993
0.00381835
0.0038799
0.00382354
0.00360019
0.00331977
0.00309826
0.00299011
0.00295931
0.00298024
0.00309874
0.00330248
0.00358373
0.00371819
0.00373751
0.00370101
0.0035672
0.00342076
0.00335671
0.00334686
0.00338106
0.00349417
0.00367307
0.00378152
0.00380619
0.00380299
0.00377314
0.00372042
0.00342924
0.00381077
0.00389546
0.00375667
0.00366724
0.00370661
0.00388567
0.00411125
0.00419126
0.00401339
0.00367228
0.00335486
0.0031881
0.00313641
0.00315928
0.00335473
0.0035689
0.00365382
0.00366997
0.00364505
0.00354674
0.00340859
0.00330852
0.00327175
0.0032734
0.00333584
0.00347888
0.00366176
0.00375571
0.00377408
0.00377153
0.00374623
0.00370956
0.00309185
0.00357123
0.00378824
0.00376101
0.00366984
0.00370333
0.00389951
0.00419251
0.00433642
0.00429142
0.00400408
0.00370249
0.00352599
0.00346869
0.00348622
0.00357359
0.00360021
0.00360435
0.00357501
0.00349873
0.00339353
0.00326563
0.00319317
0.00317741
0.00319766
0.00328797
0.00344914
0.00363521
0.00372514
0.00375032
0.00374827
0.00373072
0.00369944
0.00296663
0.00323737
0.00364491
0.00372788
0.00366371
0.0036702
0.00388748
0.00420803
0.004372
0.00439191
0.00420207
0.00397046
0.00375523
0.00365168
0.00358886
0.00356895
0.0035412
0.00349882
0.00343981
0.00334859
0.00322087
0.00311785
0.00307678
0.00307506
0.00311971
0.00323352
0.0033985
0.00358362
0.00370055
0.00372858
0.00373404
0.00372
0.00369169
0.0029367
0.00300307
0.00345374
0.00366696
0.00365469
0.00364734
0.00383949
0.0041809
0.00436531
0.00440254
0.0042539
0.00407163
0.00383916
0.00366235
0.00357379
0.00349718
0.00343896
0.00337099
0.00328312
0.00315476
0.00302691
0.0029617
0.00295069
0.00296496
0.00303486
0.00315616
0.00331252
0.00349708
0.00364807
0.00371388
0.00372378
0.00372228
0.00369973
0.0029387
0.00292429
0.00320294
0.00357308
0.00363532
0.00363325
0.00378967
0.00412557
0.00432373
0.00437577
0.00425078
0.00409557
0.00384545
0.00365004
0.00350826
0.0034197
0.0033191
0.00321849
0.00307837
0.00293148
0.00284583
0.00281523
0.00281365
0.00284734
0.0029306
0.00304742
0.00319207
0.00336414
0.00354891
0.00366516
0.00370021
0.00370653
0.00368906
0.00301285
0.00290779
0.00299391
0.00344318
0.00360701
0.00362703
0.00373893
0.00405759
0.0042772
0.00433968
0.00422125
0.004101
0.00386608
0.00364226
0.00346362
0.00333632
0.00321115
0.00306356
0.0029188
0.00278083
0.00271077
0.00268926
0.0026861
0.00270944
0.00277437
0.00287151
0.0029921
0.00313873
0.00331165
0.00344785
0.00348791
0.00347126
0.0033956
0.00309865
0.00291618
0.0029159
0.00326707
0.00356155
0.00362017
0.00369393
0.00397831
0.00422654
0.00430538
0.00420536
0.00411458
0.00391015
0.00365978
0.00344446
0.00327356
0.00313926
0.00297102
0.00284815
0.0027286
0.00265541
0.0026184
0.00260067
0.00259859
0.00260795
0.0026431
0.00269513
0.00275209
0.00280829
0.00284083
0.0028474
0.00284884
0.0028483
0.00312118
0.00298968
0.00289616
0.00306257
0.00347982
0.00360535
0.00366089
0.00388603
0.00416705
0.00426823
0.00420964
0.00413292
0.0039789
0.00371396
0.00346982
0.00328587
0.00312209
0.00299436
0.00287333
0.00280466
0.00275259
0.00271065
0.0026658
0.00263202
0.00261941
0.00261786
0.00262166
0.00263809
0.00266191
0.00269077
0.00273316
0.00279094
0.0028647
0.00313134
0.00312168
0.00289787
0.0029304
0.00335811
0.00358226
0.00364277
0.00379593
0.00409374
0.00422269
0.0042265
0.00416779
0.00405865
0.00381475
0.00354507
0.00333635
0.00320364
0.00310388
0.00306988
0.00302367
0.00302036
0.0029899
0.00297658
0.0029574
0.00295377
0.00295151
0.00296403
0.00299492
0.00304508
0.00310743
0.00317534
0.00324376
0.00328404
0.00313462
0.00319474
0.00294721
0.00288275
0.00319183
0.00353786
0.00363153
0.00372452
0.00400258
0.0041833
0.00423445
0.0041959
0.00414694
0.00393933
0.00366312
0.00345553
0.00332508
0.00324395
0.0032115
0.0031809
0.00317699
0.00318132
0.00320408
0.00322801
0.0032646
0.00329629
0.003328
0.00335877
0.00338741
0.00340408
0.00341227
0.00341481
0.00340325
0.00313199
0.00321628
0.00305579
0.00287146
0.00301351
0.00345846
0.0036188
0.00367193
0.00390444
0.00414001
0.00423414
0.00423403
0.00423321
0.0040701
0.0038189
0.00359114
0.00346823
0.00340103
0.00336488
0.0033531
0.0033511
0.00337994
0.00340433
0.00344509
0.00348952
0.00353024
0.00356119
0.00358855
0.00358768
0.00359137
0.00357371
0.00353058
0.00348472
0.0031121
0.0032268
0.0032
0.00287982
0.00290298
0.00333478
0.00359058
0.00364583
0.0037843
0.00405759
0.00421576
0.00426315
0.00430034
0.00424299
0.00403923
0.00384724
0.00372823
0.00369839
0.00368823
0.00372852
0.00377186
0.00384511
0.00392324
0.00399594
0.00406686
0.00410097
0.00412265
0.00411761
0.00411058
0.00405703
0.00395916
0.00383479
0.00371776
0.00308888
0.003232
0.00330266
0.00293958
0.00286294
0.00316157
0.00355359
0.00363825
0.00369051
0.00394981
0.00416938
0.00426918
0.00432606
0.00435966
0.00425028
0.00409012
0.00401395
0.0039896
0.00405032
0.00411524
0.00420642
0.00429285
0.00440422
0.00448199
0.00456357
0.00461767
0.00464582
0.00465164
0.00464823
0.00461304
0.00451757
0.004349
0.00412253
0.00308236
0.00322957
0.00333882
0.00307675
0.00285412
0.00299276
0.00347667
0.00363615
0.00364028
0.00382022
0.00407757
0.00425388
0.0043284
0.00439798
0.00437473
0.00425346
0.00418054
0.00415766
0.00422917
0.0043116
0.00440674
0.00449546
0.00460062
0.00467247
0.00474549
0.00480353
0.00485347
0.00489147
0.00490517
0.00490677
0.00488311
0.00480253
0.00462658
0.00308108
0.00320558
0.00334535
0.0032763
0.00287261
0.00290898
0.00332861
0.00362513
0.00362364
0.00370778
0.00395969
0.00419441
0.00431657
0.0044
0.00442922
0.00434818
0.00426221
0.00422726
0.00428009
0.00435769
0.00445204
0.0045395
0.00464217
0.00472507
0.00480707
0.0048774
0.00493464
0.00498342
0.00504021
0.00506941
0.00507328
0.00505435
0.00497163
0.00308557
0.00318771
0.00334667
0.00341646
0.00296101
0.00288453
0.00315817
0.00357458
0.00362168
0.00361682
0.00382008
0.00408147
0.00427688
0.00437662
0.00443858
0.00440121
0.00430117
0.00425577
0.00426745
0.00434766
0.00443785
0.00452769
0.00462878
0.0047161
0.00480394
0.00488453
0.00494973
0.00500356
0.00506862
0.00513796
0.00516351
0.00516734
0.00514002
0.00310378
0.00318386
0.00332765
0.00346875
0.00315365
0.00288705
0.00301064
0.00347751
0.00363472
0.00357061
0.00367719
0.00393052
0.0041884
0.00432343
0.00440223
0.00440965
0.00431578
0.0042494
0.00422859
0.00428557
0.0043642
0.004467
0.00457776
0.00467554
0.00475282
0.00481854
0.00488934
0.00495693
0.00502272
0.00510596
0.00518609
0.0052104
0.00521196
0.00312386
0.00318624
0.00330435
0.0034756
0.00339647
0.00294011
0.00295228
0.00331582
0.00362701
0.00355995
0.00356387
0.00375699
0.00404226
0.00423909
0.0043277
0.00436328
0.00429889
0.00420683
0.00416702
0.00419841
0.00429208
0.00439785
0.00451776
0.0046214
0.00468876
0.00473315
0.00477682
0.00482676
0.00489304
0.00496499
0.00507286
0.00517636
0.00521917
0.00314363
0.00320846
0.00329763
0.00345594
0.003544
0.00310372
0.00294568
0.00314133
0.00357814
0.00359563
0.00350523
0.00359609
0.00383288
0.00410176
0.00421581
0.00424428
0.0042103
0.00412814
0.00408553
0.00410943
0.00419143
0.00430744
0.00442908
0.00453951
0.00461542
0.00465688
0.00468233
0.00470927
0.0047478
0.00478905
0.00484465
0.00493845
0.00509728
0.00315515
0.0032293
0.00329945
0.0034176
0.00359257
0.00337004
0.00298266
0.00303736
0.00343591
0.00362802
0.00350244
0.00347874
0.00362532
0.00387347
0.00408177
0.00414767
0.00412772
0.00406244
0.00401652
0.0040099
0.00407077
0.00416724
0.0042796
0.0043917
0.00448308
0.0045412
0.00456944
0.00458838
0.00460522
0.00462566
0.00464338
0.0046778
0.0047783
0.00316053
0.00323718
0.00332433
0.0034094
0.00359315
0.00359207
0.00314748
0.00302982
0.00324457
0.00362001
0.00356762
0.00343054
0.00347192
0.00363356
0.00383844
0.00398971
0.00401871
0.00397485
0.00391764
0.0038906
0.00390841
0.00396344
0.00403466
0.00410794
0.00417653
0.00423347
0.00429093
0.00433407
0.00437233
0.0044036
0.00442421
0.00444123
0.00449547
0.00316581
0.00323919
0.00333555
0.00341566
0.00354156
0.00367638
0.00341751
0.00306754
0.00312558
0.00350871
0.00362465
0.00347598
0.00341355
0.00346775
0.00357865
0.00368974
0.00375633
0.00374735
0.00368544
0.00361541
0.00355802
0.00351754
0.00347592
0.00342583
0.00339047
0.00337672
0.00338564
0.00344742
0.00357992
0.00382736
0.00402167
0.00410866
0.00418093
0.00317367
0.00323802
0.00333734
0.00343865
0.00352353
0.00369775
0.00367509
0.00325362
0.00313023
0.0033147
0.00363286
0.00357733
0.00341612
0.00341042
0.00344545
0.00346974
0.00347478
0.00343029
0.00333513
0.00322291
0.00312629
0.00305409
0.00300214
0.00297472
0.00296404
0.00296171
0.00296362
0.00297088
0.00298544
0.00299829
0.00310681
0.00339264
0.00367137
0.00318231
0.00323401
0.00333191
0.00344607
0.00354252
0.00365118
0.00375194
0.00355292
0.0031833
0.00320885
0.00352213
0.003637
0.00350407
0.00341807
0.00340367
0.00340118
0.00337926
0.00331794
0.00321888
0.00310896
0.00302385
0.0029788
0.00296503
0.00299003
0.00303706
0.0030651
0.00307708
0.00307092
0.00301397
0.00291893
0.00284718
0.00286903
0.00297995
0.00319698
0.00323283
0.00330933
0.00344607
0.00356629
0.00362835
0.00377567
0.00377133
0.00342336
0.00324091
0.00334934
0.00361894
0.0036033
0.00348733
0.00344414
0.00340695
0.00338129
0.00334198
0.0032794
0.00321913
0.00319164
0.00322385
0.00326412
0.00326277
0.00323249
0.00320024
0.00318768
0.00318267
0.00316486
0.00313349
0.00295227
0.00278505
0.00278795
0.00321519
0.00323555
0.00329757
0.00343581
0.00356741
0.00366379
0.00373513
0.00381196
0.00373525
0.00336379
0.00332471
0.00351088
0.00363898
0.00358085
0.00350717
0.00348289
0.00346629
0.00344049
0.00339688
0.00333265
0.00326847
0.00321501
0.00314525
0.00297627
0.0028219
0.00277636
0.00285273
0.00298424
0.00310569
0.00315691
0.00315034
0.00290899
0.00274502
0.00323854
0.00324505
0.00329656
0.00342234
0.00356333
0.0036827
0.00372457
0.00381457
0.00382231
0.00363423
0.00336291
0.00338536
0.00358027
0.00362362
0.00355881
0.00350032
0.0034597
0.00341738
0.00335172
0.00322825
0.00302269
0.0027106
0.00238259
0.00220637
0.00213711
0.00211673
0.00219262
0.00240161
0.00275089
0.00304825
0.00317352
0.00313305
0.00281866
0.00326226
0.00326055
0.00330438
0.00341977
0.00356385
0.00368134
0.00376423
0.0037923
0.00385397
0.0038241
0.00353996
0.00340115
0.00345496
0.00360157
0.00359404
0.00351758
0.00342571
0.00329154
0.00308705
0.00280998
0.0024972
0.00224745
0.00207518
0.00199944
0.00195946
0.00193544
0.00193678
0.00200666
0.00220141
0.00266326
0.00309546
0.00317561
0.00299959
0.00328398
0.00328307
0.00332177
0.00342925
0.00357357
0.00368444
0.00377633
0.00381593
0.00386368
0.00387398
0.00380898
0.0035098
0.00344812
0.00352777
0.00358301
0.00354474
0.00342921
0.00325481
0.0030198
0.00275852
0.00251082
0.00230692
0.00217876
0.00207911
0.00197011
0.00191715
0.00189615
0.0019174
0.00201312
0.00224749
0.0028239
0.00315867
0.00314696
0.003308
0.0033079
0.00334836
0.00346185
0.00359519
0.00370076
0.0037784
0.00385127
0.00387121
0.00389454
0.00388383
0.00375104
0.00348288
0.00346335
0.00353111
0.00353153
0.00346293
0.00328074
0.0030498
0.00282806
0.00268936
0.00267109
0.00265285
0.00243611
0.00212952
0.00196637
0.00190483
0.00190887
0.00197258
0.00212799
0.00252992
0.00305135
0.00316639
0.00333475
0.0033353
0.00338153
0.00351967
0.0036382
0.00372333
0.00379302
0.00385669
0.00390048
0.00390431
0.00391646
0.00387655
0.00362683
0.00344715
0.00344821
0.00349186
0.00347447
0.00338369
0.00316346
0.00304786
0.00308283
0.00314149
0.00307454
0.00276266
0.00233389
0.00206043
0.00194673
0.00193464
0.00197656
0.00210469
0.00242209
0.00293864
0.00316665
0.00336266
0.00336886
0.00341854
0.00357741
0.00370483
0.00375859
0.00381041
0.00385664
0.00391612
0.00392295
0.00393269
0.00391876
0.00382741
0.0035317
0.00338903
0.00339624
0.00344396
0.00341628
0.00334691
0.00329241
0.00331786
0.00333737
0.00326654
0.00295456
0.00244486
0.00211486
0.00199767
0.00199415
0.0020475
0.0021577
0.00241025
0.00290159
0.00316193
0.00339535
0.00340831
0.00346766
0.00363453
0.00374991
0.00378928
0.00382036
0.00385616
0.00391322
0.00393544
0.00393164
0.00393378
0.00390445
0.00373161
0.00341717
0.00334223
0.00335055
0.00339586
0.00337981
0.00337977
0.00339676
0.00339496
0.00332217
0.00300787
0.00245045
0.002133
0.00204784
0.0020629
0.00217829
0.00234574
0.00259132
0.00293469
0.0031663
0.00343675
0.00345387
0.00352831
0.00369191
0.00376407
0.00379818
0.00382118
0.00385271
0.00389162
0.00393238
0.00392829
0.00392905
0.00392239
0.00385321
0.00354063
0.00330026
0.00326943
0.00329606
0.00335536
0.00337511
0.00340091
0.00339443
0.00329847
0.00287957
0.00236494
0.00214052
0.00210212
0.0021633
0.00238442
0.00261134
0.00294595
0.00313269
0.00321372
0.00348738
0.00351022
0.00361048
0.00371532
0.00376678
0.00379335
0.00380905
0.00383015
0.00386329
0.00390889
0.00391907
0.00391294
0.00392086
0.00389951
0.0037477
0.00337014
0.00318615
0.00319152
0.00326221
0.00333426
0.00336782
0.00334821
0.00316071
0.00266967
0.00228463
0.00216169
0.00218182
0.00235767
0.00276396
0.00308815
0.00320663
0.00323222
0.00323577
0.00354918
0.00357496
0.00366905
0.00372064
0.00375077
0.00375656
0.00376983
0.00379231
0.00382881
0.00387203
0.00389597
0.00389135
0.00391234
0.00391437
0.00385293
0.00352481
0.00319656
0.00309029
0.0031111
0.0031963
0.00322478
0.00316649
0.00290992
0.00245318
0.00223883
0.00222015
0.00234833
0.00282607
0.00323758
0.00335011
0.00334572
0.00330028
0.0032556
0.00361684
0.0036439
0.00368605
0.00371538
0.00370517
0.00370529
0.00371731
0.00374572
0.00378786
0.00382448
0.00385684
0.00386063
0.00388908
0.00393767
0.00391272
0.00371488
0.00325559
0.00303941
0.00300357
0.00300813
0.00299458
0.00290696
0.00261029
0.00233158
0.00226395
0.00237091
0.00288594
0.00335389
0.00348168
0.00348033
0.00344815
0.0033323
0.00321903
0.00368074
0.00368051
0.00368903
0.00368027
0.00365408
0.0036528
0.00367841
0.00372139
0.00376258
0.00379779
0.00382808
0.00384564
0.00389116
0.00397947
0.00396716
0.00384745
0.00339055
0.00304595
0.00291293
0.00286687
0.00281513
0.00265951
0.00241086
0.00231572
0.00239914
0.00293898
0.00344394
0.00357758
0.00359709
0.00358279
0.00353469
0.00339898
0.00318724
0.00372824
0.00369066
0.00367757
0.00364015
0.00360539
0.00362782
0.00367053
0.00371586
0.00375419
0.00378565
0.00382507
0.00385961
0.00393441
0.00407431
0.00407428
0.00397374
0.0034607
0.00303882
0.00284576
0.00275944
0.00263164
0.00245804
0.00237039
0.00242816
0.00295821
0.00353207
0.00363988
0.00363391
0.0036462
0.0036643
0.00364184
0.0035132
0.00321192
0.00374459
0.00368545
0.00365276
0.00358993
0.00359094
0.00362474
0.00367776
0.0037236
0.00376411
0.00380675
0.00387022
0.00397206
0.00412681
0.00427304
0.00426419
0.00407562
0.00343738
0.00299737
0.00275891
0.00260117
0.00247429
0.00241912
0.00247311
0.00298906
0.00363547
0.00370743
0.00366594
0.0036288
0.00365425
0.00372886
0.00370946
0.00356741
0.00322272
0.00374766
0.00367531
0.00361359
0.00357487
0.00358929
0.00366331
0.0037358
0.00378502
0.00384564
0.00394594
0.00413635
0.00435758
0.00447832
0.00448603
0.00440109
0.00406254
0.00331914
0.00285613
0.00259454
0.00249236
0.00246209
0.00252948
0.00308677
0.00375601
0.00374029
0.00358555
0.00351871
0.00353393
0.00364717
0.00380304
0.00378462
0.00360665
0.00323064
0.00374145
0.00364782
0.0035981
0.00357365
0.00363088
0.0037763
0.00384013
0.00392241
0.00407964
0.00437706
0.00457412
0.00464269
0.00461421
0.00454249
0.00438127
0.00382738
0.00299388
0.00264747
0.00252669
0.00250627
0.00260061
0.00318556
0.00381029
0.0037134
0.00347286
0.00336976
0.00335455
0.00341357
0.00360025
0.00382541
0.00383149
0.00366802
0.00326634
0.00372759
0.00363112
0.00359651
0.00359875
0.00373937
0.00392023
0.00400171
0.00419693
0.00450916
0.00464941
0.00468773
0.004648
0.00457231
0.00441072
0.00401332
0.00318103
0.00272943
0.00259784
0.00256727
0.00272425
0.00332586
0.00382321
0.00369715
0.00341011
0.00327127
0.00319888
0.00316331
0.00320269
0.00343053
0.00378833
0.00389136
0.00378037
0.00334835
0.00371087
0.00362757
0.00360687
0.00366001
0.00387829
0.00407395
0.00423536
0.00455278
0.00467567
0.00468477
0.00461795
0.00445851
0.00414262
0.00372324
0.00321905
0.00285358
0.00269803
0.00268237
0.00292113
0.00353015