/*--------------------------------*- C++ -*----------------------------------*\
  =========                 |
  \\      /  F ield         | OpenFOAM: The Open Source CFD Toolbox
   \\    /   O peration     | Website:  https://openfoam.org
    \\  /    A nd           | Version:  11
     \\/     M anipulation  |
\*---------------------------------------------------------------------------*/
FoamFile
{
    format      ascii;
    class       volScalarField;
    location    "1.5";
    object      p;
}
// * * * * * * * * * * * * * * * * * * * * * * * * * * * * * * * * * * * * * //

dimensions      [0 2 -2 0 0 0 0];

internalField   nonuniform List<scalar> 
9600
(
0.0443432
0.0457325
0.047853
0.0483982
0.0478873
0.0489437
0.0496279
0.0484191
0.0469082
0.0443753
0.0407058
0.0357264
0.0287944
0.0192075
0.00662218
-0.00873501
-0.0262972
-0.0448121
-0.0627266
-0.0781674
-0.0894014
-0.096329
-0.0967602
-0.0909923
-0.0815469
-0.0699802
-0.0577451
-0.0467693
-0.0375855
-0.0301
-0.0241587
-0.0193518
-0.0156141
-0.0125039
-0.0101137
-0.00865147
-0.00807187
-0.0079697
-0.0078783
-0.00721508
0.0452053
0.0472413
0.0489712
0.0481093
0.0465198
0.0474043
0.0479676
0.0463922
0.0446865
0.0419423
0.037708
0.0321945
0.0247732
0.0146782
0.00182427
-0.0133812
-0.0305045
-0.0483897
-0.0654202
-0.0801439
-0.0905498
-0.0967153
-0.0975356
-0.0925541
-0.0836608
-0.0725411
-0.0605654
-0.0494043
-0.0398821
-0.0319966
-0.0255811
-0.0203973
-0.0164105
-0.01306
-0.0104421
-0.00856658
-0.00749414
-0.00687827
-0.00675139
-0.00716758
0.0462839
0.0479142
0.0487357
0.047324
0.0481551
0.0496019
0.0500335
0.049659
0.0478398
0.0440954
0.0395559
0.0339535
0.0263734
0.0164157
0.00370269
-0.0114733
-0.0285513
-0.0463919
-0.0634364
-0.0777575
-0.0892006
-0.0960796
-0.0974294
-0.0927037
-0.0841782
-0.0734892
-0.0617979
-0.0511092
-0.0418108
-0.0342699
-0.0281534
-0.0231525
-0.0190461
-0.0156605
-0.0129736
-0.0109475
-0.00993535
-0.0094775
-0.00861721
-0.00694058
0.0473898
0.0481152
0.0483391
0.0473565
0.0475432
0.0478937
0.0470585
0.0454617
0.0423983
0.0395706
0.0350636
0.0292398
0.0214146
0.0108586
-0.00213007
-0.0171386
-0.0338779
-0.0513203
-0.0679216
-0.0825189
-0.0924626
-0.0979858
-0.0988072
-0.0944604
-0.0860661
-0.0752964
-0.0636132
-0.0524861
-0.0426026
-0.0341
-0.0272618
-0.0216549
-0.0173662
-0.0141728
-0.0114419
-0.0091868
-0.00764993
-0.00714082
-0.00740292
-0.00779211
0.0480723
0.0478926
0.0475253
0.0477601
0.0482388
0.0489864
0.0491832
0.0495324
0.0483924
0.0437448
0.0382267
0.0318562
0.0237068
0.0131074
0.000235085
-0.0148551
-0.0316055
-0.0489679
-0.0654151
-0.0788349
-0.0896672
-0.0968093
-0.0990042
-0.0949968
-0.0871524
-0.0768748
-0.0655392
-0.0550062
-0.045878
-0.0382814
-0.0322754
-0.0270759
-0.0225015
-0.0185618
-0.0155316
-0.0131049
-0.0113769
-0.0102881
-0.00944569
-0.00744942
0.0477758
0.047659
0.0471211
0.0485802
0.0484045
0.0484753
0.047366
0.0448363
0.0410083
0.0371209
0.0327119
0.0265534
0.0185029
0.00764201
-0.00553649
-0.0203366
-0.0367942
-0.0539707
-0.0703715
-0.0849636
-0.0949359
-0.100234
-0.100744
-0.096957
-0.0891549
-0.0787675
-0.0672904
-0.0560297
-0.0458552
-0.0367678
-0.0292035
-0.0232148
-0.0187591
-0.015538
-0.0128125
-0.0104826
-0.00881025
-0.00797815
-0.00777884
-0.0078889
0.0470768
0.04743
0.0477458
0.0489799
0.0487143
0.0487946
0.0482245
0.0477755
0.0473515
0.0431653
0.0368085
0.0296117
0.0208856
0.00978505
-0.00347672
-0.0186117
-0.0352042
-0.0523039
-0.0684995
-0.0814388
-0.0914303
-0.0984807
-0.10137
-0.0980094
-0.0905741
-0.0805175
-0.0693196
-0.058714
-0.0496379
-0.0419915
-0.0359731
-0.0307192
-0.0259876
-0.0213546
-0.0177475
-0.0148991
-0.0127587
-0.0112246
-0.00990516
-0.00787285
0.0469143
0.047183
0.0488942
0.0491442
0.0489477
0.0489838
0.0473614
0.0444144
0.0404897
0.0357314
0.0306214
0.0241732
0.0158191
0.00469376
-0.00862891
-0.023372
-0.0396918
-0.0567754
-0.0730861
-0.0875415
-0.0979018
-0.103432
-0.103564
-0.100175
-0.0928542
-0.0827022
-0.0714069
-0.0601125
-0.0496988
-0.0401678
-0.0319364
-0.0253556
-0.0205033
-0.0173195
-0.0144891
-0.0121814
-0.0103819
-0.00921135
-0.00857344
-0.00815491
0.0472032
0.0475866
0.0496183
0.0494126
0.0492935
0.0487182
0.047168
0.0459641
0.0449419
0.0412974
0.0348958
0.0272989
0.0180022
0.00646303
-0.007231
-0.0225436
-0.0391966
-0.056274
-0.0724131
-0.0853917
-0.0947947
-0.101259
-0.104642
-0.101813
-0.0947452
-0.0847034
-0.0734738
-0.06258
-0.0532015
-0.0453892
-0.0391946
-0.0340724
-0.029141
-0.0240939
-0.019805
-0.016505
-0.0140673
-0.0122108
-0.0101971
-0.0083584
0.0472303
0.0487088
0.0499853
0.0496841
0.0495926
0.0483332
0.0469077
0.0446353
0.0405501
0.0345448
0.0289827
0.0220775
0.0132404
0.00187494
-0.0116375
-0.0265596
-0.0429598
-0.0600641
-0.0764021
-0.0907361
-0.101394
-0.107432
-0.107396
-0.104318
-0.0973032
-0.0872479
-0.0759522
-0.0647136
-0.0541075
-0.0442805
-0.0354909
-0.0281489
-0.0226015
-0.0190977
-0.0164867
-0.0140381
-0.0121491
-0.0106532
-0.00948997
-0.00881867
0.0476329
0.05001
0.0502953
0.0500082
0.0495208
0.048119
0.046642
0.0446057
0.0419181
0.0383199
0.0324293
0.0248059
0.0149785
0.00307539
-0.0110062
-0.026651
-0.0435506
-0.0608164
-0.0770724
-0.0904508
-0.0997796
-0.105463
-0.109
-0.106551
-0.0997854
-0.0897333
-0.0783535
-0.0669823
-0.0569474
-0.0486816
-0.0420943
-0.036917
-0.0321607
-0.0271137
-0.0219787
-0.0181415
-0.0153144
-0.0129989
-0.0108548
-0.00922439
0.049332
0.0508626
0.0505971
0.0502336
0.0493483
0.0480038
0.0464393
0.0441387
0.040535
0.0347589
0.0281152
0.0202713
0.0108118
-0.000859589
-0.01476
-0.0301353
-0.0468728
-0.0641603
-0.0806211
-0.0949098
-0.105704
-0.112276
-0.112371
-0.10956
-0.10275
-0.092606
-0.0811798
-0.0697207
-0.0590207
-0.0489747
-0.0398213
-0.0318077
-0.0253939
-0.0209205
-0.0186194
-0.016166
-0.0140086
-0.0122363
-0.0108238
-0.00980676
0.0517044
0.0512378
0.0507884
0.0503027
0.0492752
0.0479683
0.0461761
0.0436722
0.0399659
0.0354668
0.0294801
0.0217212
0.0117713
-0.000428712
-0.014974
-0.031093
-0.0483861
-0.0660215
-0.0825253
-0.0964537
-0.106213
-0.111382
-0.114741
-0.112448
-0.105819
-0.0958034
-0.0842013
-0.0723173
-0.0614073
-0.0522414
-0.0449572
-0.0394064
-0.0350478
-0.0300293
-0.024119
-0.019657
-0.0164243
-0.0138958
-0.0117986
-0.0103556
0.0525315
0.0514272
0.0509095
0.0504023
0.0493302
0.0479256
0.0459365
0.0432679
0.0396038
0.0344375
0.0273152
0.0187433
0.00859214
-0.00366147
-0.0182097
-0.0343004
-0.0516298
-0.0693176
-0.0859806
-0.100382
-0.11125
-0.118187
-0.118764
-0.116054
-0.109417
-0.0992924
-0.0873526
-0.0753995
-0.0643177
-0.0541751
-0.0446849
-0.0360492
-0.0286602
-0.0240045
-0.0212792
-0.0186394
-0.0160488
-0.0138712
-0.0120968
-0.0110115
0.0521717
0.0513087
0.0509857
0.0506228
0.0495035
0.0479465
0.0457806
0.0429011
0.0391479
0.0335743
0.0267826
0.0185781
0.00834661
-0.00425323
-0.0193555
-0.0361124
-0.0539592
-0.0720896
-0.0889542
-0.103438
-0.113965
-0.119226
-0.122171
-0.119814
-0.113277
-0.102996
-0.0909339
-0.0787747
-0.0671227
-0.0567558
-0.0483854
-0.0419701
-0.0371398
-0.0320504
-0.0265548
-0.0214962
-0.0178748
-0.0151087
-0.0129795
-0.0116584
0.0521049
0.0514077
0.0512051
0.0509278
0.0498033
0.0479974
0.0456258
0.0426605
0.038631
0.0330895
0.0259513
0.0171671
0.00635749
-0.00677876
-0.022267
-0.0392969
-0.0574003
-0.0756688
-0.0926821
-0.107391
-0.118529
-0.125621
-0.126888
-0.124221
-0.117561
-0.107214
-0.094946
-0.0823071
-0.0703835
-0.0597349
-0.0501243
-0.0411348
-0.0332194
-0.0273316
-0.0234375
-0.021117
-0.0182827
-0.0156494
-0.0135315
-0.0122014
0.0522032
0.0516965
0.0516035
0.0513046
0.0501626
0.0480817
0.045549
0.0424991
0.0382358
0.0325137
0.0249471
0.0159517
0.00499634
-0.00844198
-0.024429
-0.0420555
-0.0606074
-0.0793131
-0.0966259
-0.111567
-0.122962
-0.129057
-0.131613
-0.128977
-0.122223
-0.111843
-0.0992481
-0.0863271
-0.0740308
-0.0627055
-0.0529937
-0.0452157
-0.0394485
-0.0346625
-0.029197
-0.0234628
-0.0195884
-0.016699
-0.0143697
-0.0128062
0.0524337
0.0520001
0.0520381
0.0517773
0.0505645
0.0482443
0.0455579
0.0424224
0.0379604
0.0318737
0.0242105
0.0148963
0.00332634
-0.0107389
-0.027171
-0.0452847
-0.0642973
-0.0833715
-0.101028
-0.116257
-0.128048
-0.135314
-0.137227
-0.134396
-0.127491
-0.116975
-0.104144
-0.0908193
-0.0779516
-0.0662081
-0.0560418
-0.0468449
-0.0383699
-0.0316075
-0.027197
-0.0238838
-0.0205802
-0.0175475
-0.0151281
-0.0134427
0.0527764
0.0523509
0.0525667
0.0523974
0.0510457
0.0485073
0.0456655
0.0423967
0.0377437
0.0314456
0.0234265
0.0135235
0.00136197
-0.0132031
-0.030109
-0.0488239
-0.0683658
-0.0878652
-0.105941
-0.121354
-0.133621
-0.140814
-0.143308
-0.14037
-0.1333
-0.122651
-0.109629
-0.0957895
-0.0824437
-0.0701283
-0.059217
-0.0499336
-0.0425851
-0.036829
-0.0313624
-0.0261511
-0.0218277
-0.0185697
-0.0159763
-0.0141187
0.0533137
0.0529194
0.0532571
0.0531336
0.0516226
0.0488814
0.045858
0.0424377
0.0376194
0.0309963
0.0225087
0.0120876
-0.00060874
-0.0158093
-0.0334149
-0.0528484
-0.0730409
-0.093003
-0.111562
-0.12723
-0.139886
-0.148337
-0.150241
-0.147092
-0.139801
-0.129021
-0.115733
-0.101431
-0.0875037
-0.0745276
-0.0630482
-0.0531687
-0.0444397
-0.0368013
-0.030942
-0.0264521
-0.0229594
-0.0195941
-0.0168135
-0.0148132
0.0541592
0.0537354
0.0540897
0.0539863
0.0523282
0.0493598
0.0461543
0.0425983
0.0375469
0.0305257
0.0215665
0.0105685
-0.00283695
-0.0188296
-0.037242
-0.057389
-0.078177
-0.0986671
-0.117788
-0.133774
-0.146696
-0.155527
-0.157931
-0.154637
-0.147052
-0.136115
-0.12258
-0.107837
-0.0932384
-0.0796159
-0.0673999
-0.0566723
-0.0475971
-0.0403769
-0.0344933
-0.0291253
-0.0244044
-0.020718
-0.0177288
-0.0155534
0.0552583
0.054738
0.055071
0.0549387
0.0531436
0.0500022
0.04659
0.0427903
0.037449
0.030037
0.0205515
0.00883948
-0.00537475
-0.0222221
-0.0414974
-0.0624483
-0.0839595
-0.105072
-0.124822
-0.141263
-0.154344
-0.163497
-0.166466
-0.163128
-0.155205
-0.144016
-0.130284
-0.115102
-0.0998285
-0.0854405
-0.0724196
-0.0609675
-0.0511715
-0.0428134
-0.0358751
-0.0303794
-0.0258697
-0.0219313
-0.0186968
-0.0163057
0.056582
0.0559556
0.0561731
0.0560049
0.0541293
0.0508335
0.0471506
0.0430253
0.037348
0.0294795
0.0193496
0.00683165
-0.00826239
-0.0260759
-0.0462957
-0.0681154
-0.0905179
-0.112346
-0.132735
-0.14971
-0.162907
-0.172266
-0.175835
-0.172623
-0.164401
-0.152912
-0.138939
-0.123378
-0.107445
-0.0921982
-0.0783078
-0.0659853
-0.0552435
-0.0460794
-0.0386673
-0.032654
-0.0277794
-0.0233874
-0.0198179
-0.0170971
0.0580927
0.0574082
0.057389
0.0571441
0.0553677
0.051873
0.0477582
0.043253
0.0371989
0.0288076
0.0179397
0.00449161
-0.0116409
-0.030551
-0.0518401
-0.0745843
-0.0979563
-0.120592
-0.141662
-0.159266
-0.172597
-0.182013
-0.186131
-0.18324
-0.174776
-0.162928
-0.1487
-0.132791
-0.116239
-0.100131
-0.0852345
-0.0718668
-0.0602343
-0.0502303
-0.0418377
-0.0348792
-0.0291112
-0.0247513
-0.0209295
-0.0179395
0.0598488
0.0590854
0.0588762
0.0584777
0.056795
0.0531022
0.0484393
0.0434669
0.0369446
0.0278962
0.0161989
0.00173618
-0.0155809
-0.0356917
-0.0582506
-0.082118
-0.106543
-0.130004
-0.151708
-0.170018
-0.183616
-0.192978
-0.19744
-0.195026
-0.186486
-0.174266
-0.159783
-0.14355
-0.126386
-0.109424
-0.0935303
-0.0790295
-0.0662467
-0.0551366
-0.0457551
-0.0380599
-0.0317038
-0.0265875
-0.0222975
-0.0189319
0.0619602
0.0610398
0.0606445
0.0600427
0.0583669
0.0545142
0.0492169
0.0435674
0.0364106
0.0266114
0.0139599
-0.00168176
-0.0203374
-0.0416909
-0.0656061
-0.0907813
-0.116428
-0.140964
-0.163284
-0.182128
-0.196015
-0.205286
-0.210013
-0.208136
-0.199675
-0.187132
-0.17237
-0.155898
-0.138239
-0.120364
-0.103356
-0.0876498
-0.0736257
-0.0613324
-0.0507638
-0.0419751
-0.0346847
-0.028803
-0.0239716
-0.0201587
0.0644477
0.0633748
0.0627871
0.0619438
0.0601317
0.0561318
0.0500816
0.0435445
0.0354956
0.024738
0.0109748
-0.0059871
-0.0262414
-0.0490308
-0.0743418
-0.100891
-0.127749
-0.153542
-0.176653
-0.195961
-0.210174
-0.219257
-0.22389
-0.222678
-0.214576
-0.201735
-0.186618
-0.169944
-0.152006
-0.133392
-0.11526
-0.0982358
-0.0827473
-0.0690043
-0.0570572
-0.0470495
-0.0387103
-0.0317878
-0.0262065
-0.0217863
0.0673238
0.0661502
0.0652985
0.0640236
0.0618319
0.0575824
0.0508899
0.0432459
0.0341535
0.0222082
0.00692704
-0.0116737
-0.0336045
-0.0579773
-0.084801
-0.11291
-0.141022
-0.168035
-0.192024
-0.211758
-0.226314
-0.2353
-0.239505
-0.238705
-0.23132
-0.218526
-0.203056
-0.186062
-0.167876
-0.148762
-0.12965
-0.111259
-0.0941794
-0.0788449
-0.0652732
-0.0536294
-0.0439295
-0.0358808
-0.0293086
-0.024111
0.0707404
0.0692794
0.0681356
0.0663988
0.0636767
0.0590755
0.0516634
0.0425425
0.0321227
0.0188915
0.00173825
-0.0189823
-0.0428654
-0.0690155
-0.0974101
-0.127228
-0.156713
-0.184894
-0.209839
-0.229932
-0.24471
-0.253773
-0.257344
-0.256492
-0.249869
-0.237582
-0.222032
-0.204745
-0.186309
-0.166798
-0.146876
-0.127338
-0.108704
-0.0915344
-0.0760886
-0.0625492
-0.051093
-0.0415426
-0.0337159
-0.0275433
0.0748511
0.0730103
0.0714528
0.0690495
0.0654324
0.0601684
0.0517984
0.0409201
0.0286865
0.0140551
-0.00495136
-0.0281587
-0.0543175
-0.0826154
-0.112929
-0.144594
-0.175423
-0.204476
-0.230315
-0.25089
-0.265665
-0.274901
-0.278154
-0.276809
-0.270506
-0.259012
-0.243801
-0.22642
-0.207878
-0.188279
-0.167757
-0.147051
-0.126901
-0.107957
-0.0905662
-0.0747881
-0.0610082
-0.0493745
-0.0398826
-0.0325691
0.0795539
0.0771343
0.0749391
0.071809
0.0671439
0.0608046
0.0513362
0.0385235
0.0238244
0.00716928
-0.0137233
-0.0394791
-0.0684547
-0.0993119
-0.131658
-0.165227
-0.19784
-0.227761
-0.25393
-0.274896
-0.289569
-0.298763
-0.302918
-0.300621
-0.29392
-0.283082
-0.268876
-0.251727
-0.232862
-0.213235
-0.192759
-0.171482
-0.150016
-0.129129
-0.109623
-0.0916895
-0.0754327
-0.0611041
-0.0489402
-0.0395979
0.0848467
0.0816726
0.078603
0.0743717
0.0681972
0.060177
0.0492934
0.0345024
0.0166222
-0.00305506
-0.0260405
-0.0543263
-0.0864618
-0.120319
-0.154813
-0.18998
-0.224245
-0.255571
-0.281979
-0.302583
-0.316903
-0.325372
-0.329145
-0.32737
-0.320824
-0.310641
-0.2975
-0.281421
-0.263013
-0.24312
-0.222362
-0.200837
-0.17885
-0.156861
-0.13519
-0.114739
-0.0957504
-0.078894
-0.0639468
-0.0517764
0.0909074
0.0868008
0.0827137
0.0771961
0.0691349
0.0584735
0.0452808
0.0282293
0.0067885
-0.0174536
-0.0434054
-0.0737428
-0.108794
-0.146247
-0.183626
-0.220561
-0.256096
-0.288319
-0.31539
-0.335544
-0.348834
-0.355799
-0.358035
-0.355649
-0.349558
-0.340664
-0.329684
-0.315591
-0.298928
-0.280134
-0.259602
-0.237378
-0.214354
-0.191457
-0.168658
-0.146147
-0.124287
-0.103949
-0.0857072
-0.0704576
0.0967587
0.0908095
0.0849417
0.0771748
0.066777
0.0533441
0.0367833
0.0163816
-0.00838766
-0.0372495
-0.0682365
-0.101695
-0.138803
-0.179059
-0.219966
-0.259178
-0.295954
-0.328532
-0.355466
-0.375411
-0.38809
-0.394011
-0.393499
-0.388477
-0.3808
-0.372574
-0.362817
-0.351509
-0.338089
-0.322775
-0.304776
-0.284149
-0.261374
-0.237754
-0.213736
-0.189793
-0.166156
-0.143423
-0.122164
-0.10377
0.105378
0.0977314
0.0892949
0.07805
0.0632603
0.0449582
0.0231852
-0.00222368
-0.031445
-0.0645806
-0.101012
-0.139163
-0.179233
-0.22141
-0.264757
-0.30646
-0.344435
-0.37717
-0.403229
-0.422502
-0.43427
-0.438915
-0.437347
-0.430928
-0.421415
-0.411135
-0.400491
-0.390461
-0.380388
-0.369303
-0.355514
-0.338216
-0.318376
-0.296595
-0.273167
-0.248642
-0.223928
-0.19975
-0.176709
-0.156172
0.105059
0.0927981
0.0809276
0.0667825
0.0483297
0.0254435
-0.00176174
-0.0327472
-0.0675068
-0.105682
-0.146708
-0.189762
-0.233562
-0.277482
-0.321383
-0.364113
-0.402598
-0.435388
-0.459914
-0.477222
-0.485813
-0.487579
-0.483071
-0.476053
-0.467973
-0.460634
-0.451151
-0.440461
-0.431846
-0.42461
-0.41532
-0.403108
-0.388392
-0.370591
-0.349375
-0.325722
-0.301311
-0.277977
-0.257055
-0.240055
0.121637
0.103209
0.0796908
0.0519766
0.0204196
-0.0138138
-0.0502389
-0.089523
-0.131654
-0.176572
-0.223389
-0.271739
-0.320199
-0.367887
-0.413315
-0.455851
-0.492636
-0.52199
-0.541581
-0.551844
-0.552868
-0.54712
-0.535605
-0.521846
-0.508146
-0.495654
-0.487331
-0.484948
-0.485579
-0.485625
-0.483772
-0.48139
-0.477615
-0.47025
-0.456932
-0.437087
-0.411792
-0.382724
-0.352869
-0.325786
0.0622942
0.0373791
0.00956194
-0.022677
-0.059281
-0.100079
-0.144055
-0.191014
-0.240105
-0.291197
-0.343455
-0.396557
-0.449165
-0.500653
-0.549339
-0.594049
-0.631673
-0.660465
-0.678307
-0.684437
-0.679966
-0.665986
-0.645693
-0.621775
-0.597805
-0.576943
-0.561011
-0.550773
-0.545787
-0.546555
-0.552185
-0.56141
-0.572419
-0.583052
-0.593479
-0.601609
-0.605971
-0.60336
-0.593057
-0.575665
0.11385
0.0651984
0.0130373
-0.037164
-0.0866947
-0.137361
-0.19025
-0.244994
-0.300997
-0.357015
-0.411806
-0.464473
-0.514175
-0.560319
-0.601433
-0.636989
-0.665659
-0.686245
-0.697396
-0.698359
-0.689683
-0.671638
-0.646335
-0.616019
-0.584082
-0.554456
-0.530667
-0.516329
-0.51266
-0.518641
-0.530437
-0.542014
-0.552574
-0.563364
-0.577501
-0.599945
-0.631282
-0.664639
-0.69116
-0.705168
-0.336
-0.377822
-0.429299
-0.494254
-0.564186
-0.632616
-0.700499
-0.765753
-0.82667
-0.877902
-0.919952
-0.957705
-0.996485
-1.03294
-1.06121
-1.07788
-1.08541
-1.0833
-1.0717
-1.04977
-1.01872
-0.979156
-0.931345
-0.876066
-0.81785
-0.760811
-0.710379
-0.669007
-0.639558
-0.622784
-0.618471
-0.624716
-0.632103
-0.630762
-0.624158
-0.616823
-0.613095
-0.612221
-0.612788
-0.61867
-0.00334834
-7.36672e-05
-0.00905818
-0.000518908
-0.006508
-0.000940009
-0.0049782
-0.00109927
-0.00264122
-0.00191107
-0.00181775
-0.00182201
-0.00170478
-0.00161262
-0.00151408
-0.00128154
-0.00100603
-0.000655017
-0.000218077
0.000251449
0.000628066
0.00104682
0.00154225
0.00185713
0.00212448
0.00241636
0.00263916
0.00274319
0.00280156
0.00293497
0.00313167
0.00333054
0.00346527
0.00353823
0.0036624
0.00366812
0.00392768
0.00411588
0.00593425
0.00360167
-0.0102066
-0.00152728
-0.00763707
-0.00213242
-0.00576631
-0.00140917
-0.00466057
-0.00179669
-0.00233936
-0.00195742
-0.00173847
-0.00174968
-0.00174141
-0.00176453
-0.00168499
-0.00138435
-0.000986355
-0.00069669
-0.000312833
0.0001659
0.000655829
0.00111173
0.00141857
0.0017469
0.00211527
0.00242319
0.00258825
0.00267254
0.00280531
0.002989
0.00314591
0.00331555
0.00340245
0.00350688
0.00364396
0.00372013
0.00383061
0.00402987
0.00407374
0.00127565
-0.00154531
-0.00185078
-0.00661506
-0.00345768
-0.00516545
-0.00183419
-0.00427585
-0.0024107
-0.0021865
-0.0020093
-0.00183178
-0.00187233
-0.00194965
-0.00203283
-0.00188947
-0.00146808
-0.00112888
-0.000936117
-0.000515504
3.86915e-05
0.000569105
0.000933397
0.00120797
0.00167987
0.0020874
0.00231319
0.0024822
0.00266451
0.00287526
0.00303676
0.00316286
0.00326718
0.00331976
0.00343548
0.00357847
0.0036957
0.00383807
0.00426127
0.00509013
0.00555664
-0.00932857
-0.00305192
-0.00600023
-0.00434038
-0.00475634
-0.00217174
-0.00388705
-0.0027549
-0.00215398
-0.00208501
-0.00203257
-0.00211163
-0.00226572
-0.00236324
-0.00212765
-0.00174715
-0.00154291
-0.00120568
-0.000656381
-0.000156638
0.00020884
0.00056244
0.00106096
0.00165389
0.0019755
0.00216327
0.00243392
0.00273018
0.00296912
0.00305895
0.00312015
0.00314949
0.0031903
0.00335815
0.00354794
0.00368178
0.00377543
0.0038737
0.00398591
0.00365978
-0.00213564
-0.00304006
-0.00583808
-0.00472083
-0.00447065
-0.00241793
-0.00351694
-0.00280862
-0.00218006
-0.00216952
-0.00226088
-0.00240831
-0.00262865
-0.00270915
-0.00249507
-0.00230503
-0.002014
-0.00147448
-0.000886823
-0.000492309
-0.000197806
0.000316639
0.00100317
0.00149897
0.00172048
0.00204364
0.00249483
0.00279292
0.00295187
0.00296138
0.00300159
0.00300527
0.00308377
0.00330315
0.00350066
0.00366286
0.00380946
0.00399571
0.00438061
0.00488475
-0.00893489
-0.00407708
-0.00580039
-0.00489956
-0.00420275
-0.00262216
-0.00318343
-0.00269389
-0.0022107
-0.00224258
-0.00245324
-0.00269261
-0.00293709
-0.00301259
-0.00294265
-0.00289141
-0.00250478
-0.00194179
-0.00130394
-0.000804866
-0.000372854
0.000219483
0.000769516
0.00109486
0.00145492
0.00201347
0.00252793
0.00273132
0.00276824
0.0027816
0.00283899
0.00282025
0.00293293
0.00321407
0.00343545
0.00361232
0.00375481
0.00385256
0.00397078
0.00424266
-0.00338406
-0.00408668
-0.00574936
-0.00499319
-0.00391152
-0.00273627
-0.00286445
-0.00249292
-0.00217911
-0.00229594
-0.00259398
-0.00291647
-0.00319226
-0.00329465
-0.00335172
-0.00334427
-0.0029959
-0.00245153
-0.00176583
-0.00108576
-0.000420459
3.24038e-05
0.00028207
0.00067628
0.00137892
0.001994
0.00235374
0.00248445
0.00249531
0.00257402
0.00260686
0.00259887
0.00280956
0.00314444
0.00336392
0.00353395
0.00369901
0.0038611
0.00405685
0.00435412
-0.00895009
-0.00493476
-0.00571215
-0.00494579
-0.00364877
-0.00275748
-0.00257984
-0.0022579
-0.00208227
-0.00229266
-0.00266149
-0.00307466
-0.00340205
-0.00356002
-0.0037276
-0.00369863
-0.00331309
-0.00278964
-0.00213208
-0.0013196
-0.000610338
-0.000376535
-0.000175116
0.00046625
0.00135576
0.0017855
0.00200599
0.00216382
0.00221365
0.00235657
0.00238158
0.00241721
0.00274296
0.00309452
0.00329223
0.00343045
0.00359151
0.00376189
0.00393683
0.0042786
-0.00515051
-0.00527185
-0.00563246
-0.00483587
-0.00349816
-0.00267792
-0.0022923
-0.0019916
-0.00191851
-0.00222279
-0.00265988
-0.00316041
-0.00352922
-0.00382135
-0.00410118
-0.00396019
-0.00346639
-0.00292792
-0.00227219
-0.00152452
-0.00110171
-0.000822063
-0.000354056
0.000456511
0.00114343
0.00144224
0.00164713
0.00184146
0.0020117
0.00217883
0.00220297
0.0023479
0.00273953
0.00304247
0.00319198
0.00331355
0.00348875
0.00368771
0.00386612
0.00404216
-0.00902508
-0.00576195
-0.0055
-0.00470412
-0.00336278
-0.00248004
-0.00196241
-0.00168399
-0.00168442
-0.00207949
-0.00259025
-0.00316039
-0.00361646
-0.00408958
-0.00437631
-0.00409366
-0.0035673
-0.00297972
-0.00228921
-0.00182082
-0.00159051
-0.00101356
-0.000280774
0.000330812
0.000761404
0.00108132
0.00119938
0.00136115
0.00171245
0.00199317
0.0020761
0.00230255
0.00267686
0.00293286
0.00306396
0.00319356
0.00338109
0.00359538
0.00383887
0.00421041
-0.00674274
-0.00609296
-0.00540148
-0.00454983
-0.00319239
-0.00220057
-0.00159095
-0.00134607
-0.00139076
-0.00185578
-0.00245009
-0.00308069
-0.00366087
-0.00430378
-0.0045121
-0.00408684
-0.00358322
-0.00303267
-0.00238736
-0.00208903
-0.0016595
-0.000883983
-0.000303932
-8.45686e-05
0.00023512
0.000625856
0.000746392
0.00091082
0.0013656
0.00173097
0.00187493
0.00217617
0.00254798
0.00277019
0.0028805
0.00302933
0.00324814
0.00346221
0.00367195
0.00388175
-0.00942279
-0.00662162
-0.00540259
-0.00444275
-0.00298163
-0.00186093
-0.00116119
-0.000961737
-0.00102071
-0.0015609
-0.00223522
-0.00292641
-0.00369595
-0.00442399
-0.00448275
-0.00397527
-0.00353755
-0.00312202
-0.00263593
-0.00214081
-0.00144617
-0.000836586
-0.000632332
-0.000593633
-0.000415302
-2.54905e-05
0.000243066
0.000473574
0.000961797
0.00135059
0.0015653
0.00195971
0.00233493
0.00253989
0.00265194
0.00283116
0.0030688
0.0032973
0.0035949
0.0039698
-0.00840135
-0.00699804
-0.00546232
-0.00433229
-0.00271243
-0.00151118
-0.000638075
-0.000493032
-0.000565458
-0.00116689
-0.00191168
-0.00272793
-0.003736
-0.00440525
-0.00428377
-0.00384088
-0.0035688
-0.00330949
-0.00283161
-0.0021354
-0.00154307
-0.00127835
-0.00114878
-0.00111145
-0.00104381
-0.000725236
-0.00040283
6.32047e-05
0.000620086
0.000961692
0.00126445
0.00170685
0.00208058
0.00227222
0.0023927
0.00261811
0.00288471
0.00313265
0.00343418
0.00373159
-0.0101932
-0.0074777
-0.00554574
-0.0041997
-0.00238558
-0.00109338
-2.49396e-05
9.73698e-05
-3.40936e-05
-0.00067106
-0.00148992
-0.00251699
-0.0036818
-0.00421954
-0.00396484
-0.00370108
-0.00369092
-0.0034825
-0.00291754
-0.00236595
-0.00208253
-0.00202786
-0.00180981
-0.00174926
-0.00170094
-0.00146908
-0.00099692
-0.000313574
0.000299398
0.000633518
0.00100349
0.0014437
0.00180077
0.00198567
0.00213804
0.00241025
0.00269796
0.00296087
0.00325005
0.00352041
-0.0103704
-0.00795206
-0.00568002
-0.00401188
-0.00196935
-0.000569607
0.000619847
0.000808614
0.00060331
-4.56766e-05
-0.000993272
-0.00229483
-0.0034587
-0.00381624
-0.00360037
-0.00363291
-0.00381138
-0.00354983
-0.00305628
-0.00280009
-0.00281002
-0.00287109
-0.00270592
-0.00249914
-0.00240527
-0.00218083
-0.001581
-0.000818735
-0.000148283
0.000248672
0.000678568
0.00113862
0.00148572
0.00166178
0.00184898
0.00216768
0.00248173
0.00276554
0.00306215
0.00328584
-0.0111747
-0.0084842
-0.00577335
-0.00377173
-0.00147075
7.92417e-05
0.00137618
0.00164311
0.00138927
0.000724554
-0.000451302
-0.00199448
-0.00302647
-0.00322374
-0.00328063
-0.0036751
-0.00385017
-0.00358685
-0.00340594
-0.00346269
-0.00355649
-0.00357903
-0.00368493
-0.00347244
-0.0031928
-0.00284131
-0.00225891
-0.00148858
-0.000782378
-0.000271806
0.000223124
0.000705595
0.00105484
0.00124127
0.0014954
0.0018756
0.0022163
0.00253369
0.00285511
0.00305639
-0.0114239
-0.00883076
-0.00583865
-0.0033904
-0.000865256
0.000889455
0.00230196
0.0026461
0.00237885
0.00162332
0.000151273
-0.00145679
-0.00234408
-0.00255563
-0.00303415
-0.00366966
-0.00378682
-0.00378891
-0.00399777
-0.00415953
-0.0042128
-0.00429027
-0.00458954
-0.00442645
-0.00403887
-0.00345768
-0.00288544
-0.00222323
-0.00154177
-0.000937888
-0.000395768
0.000119224
0.000495397
0.000729713
0.00106297
0.00149005
0.00186611
0.00224641
0.00261093
0.00279221
-0.0118708
-0.00918891
-0.00587458
-0.00289684
-0.000123404
0.00188706
0.00335689
0.00386112
0.00359085
0.00260701
0.000863251
-0.000620816
-0.0013909
-0.00195113
-0.0028707
-0.00350774
-0.00379767
-0.00418444
-0.00454362
-0.00483241
-0.00505251
-0.00539355
-0.0055683
-0.0052962
-0.00474131
-0.00408335
-0.0034958
-0.0028695
-0.00225536
-0.0017017
-0.001161
-0.000590028
-0.000181066
0.000104944
0.000503839
0.000987199
0.00142371
0.00187937
0.00228892
0.00247228
-0.0121924
-0.00940207
-0.00578206
-0.00228167
0.000820334
0.00306194
0.00461224
0.00532575
0.00500716
0.00366741
0.00182948
0.0005115
-0.000323063
-0.00144485
-0.00261933
-0.00329052
-0.00391212
-0.00448841
-0.00508114
-0.00581664
-0.00626004
-0.0066697
-0.00662495
-0.00623898
-0.00557189
-0.00485969
-0.00417185
-0.00349327
-0.00292717
-0.00243939
-0.00187707
-0.00129969
-0.000920283
-0.000615397
-0.000160835
0.000374193
0.000874409
0.00141002
0.00187222
0.00207785
-0.0125919
-0.00954045
-0.00555724
-0.00156863
0.00195162
0.00445363
0.00619082
0.00706195
0.00656491
0.00493861
0.00323504
0.00193004
0.00065733
-0.000940139
-0.00215176
-0.00305952
-0.00391124
-0.00476638
-0.00595222
-0.00695864
-0.0075079
-0.00784228
-0.00768923
-0.0071307
-0.00644548
-0.00567457
-0.00493289
-0.00424041
-0.00366841
-0.0031614
-0.00258239
-0.00205195
-0.0017071
-0.00138452
-0.000892841
-0.000345015
0.000207488
0.000815843
0.00134619
0.00159141
-0.013008
-0.00954645
-0.00515523
-0.000709081
0.00326245
0.0061706
0.00812034
0.00909045
0.00833637
0.00668498
0.00509841
0.00350044
0.00160202
-0.000204794
-0.00150337
-0.00274635
-0.0039378
-0.00546322
-0.00719254
-0.00833402
-0.00882725
-0.00887339
-0.00844436
-0.00780907
-0.00717231
-0.00648316
-0.00577631
-0.0051041
-0.00454232
-0.00401331
-0.00341012
-0.00289062
-0.00255839
-0.00222102
-0.00172147
-0.00116538
-0.000558295
0.00010541
0.000685924
0.000968436
-0.0134092
-0.00940751
-0.00460246
0.000307174
0.00479903
0.00825154
0.0104641
0.0114434
0.0105868
0.00909061
0.00728839
0.00512909
0.00283352
0.000919249
-0.000806989
-0.0025003
-0.0044254
-0.00661764
-0.00847614
-0.00965212
-0.010027
-0.00978336
-0.00912837
-0.00847072
-0.00786609
-0.00722459
-0.00654855
-0.00594167
-0.00543143
-0.00489005
-0.0042631
-0.00375191
-0.00343501
-0.00307006
-0.00255825
-0.00198749
-0.00134108
-0.00064293
-5.49559e-05
0.000243814
-0.0138201
-0.00920672
-0.00390539
0.00158817
0.00667284
0.0107406
0.0132675
0.0142526
0.0135148
0.0120218
0.00975424
0.00708229
0.00453155
0.00217815
-0.000255127
-0.00270236
-0.0053133
-0.00761376
-0.00966933
-0.0107237
-0.0109656
-0.0106768
-0.0100662
-0.00941686
-0.00875275
-0.00803214
-0.00734979
-0.0067729
-0.00628513
-0.00569246
-0.0050413
-0.00456029
-0.00424514
-0.0038586
-0.00337116
-0.00281403
-0.00213246
-0.00141404
-0.000828336
-0.000547223
-0.0141563
-0.0089735
-0.00313604
0.00316265
0.0089137
0.0136892
0.0165567
0.0177
0.0171126
0.0153315
0.0126403
0.00959984
0.00648583
0.00320931
-5.35777e-05
-0.00330065
-0.00610255
-0.00848656
-0.0106001
-0.0116374
-0.0119083
-0.011717
-0.0111849
-0.0105738
-0.00987376
-0.00913827
-0.00843579
-0.00781868
-0.00726051
-0.00658776
-0.00595532
-0.00551592
-0.00520241
-0.00480833
-0.00435788
-0.00379579
-0.00306382
-0.00230904
-0.00169832
-0.00145134
-0.0144907
-0.0086506
-0.00229629
0.0048989
0.0114919
0.0171153
0.020492
0.0218784
0.0213754
0.0192296
0.0161119
0.012473
0.00835789
0.00401497
-0.000108971
-0.00376889
-0.00666048
-0.00950158
-0.0115353
-0.0125467
-0.0127948
-0.0126208
-0.0121932
-0.0117221
-0.0111179
-0.0105125
-0.00981227
-0.00918603
-0.00855993
-0.0078768
-0.00728063
-0.00687352
-0.00651023
-0.00606984
-0.00559529
-0.00492987
-0.0040977
-0.00330817
-0.00268575
-0.00245128
-0.0150535
-0.00843508
-0.00140433
0.00670869
0.0143771
0.0210619
0.0252154
0.0269243
0.0264796
0.023983
0.0201848
0.0154551
0.0101073
0.00480843
4.88811e-05
-0.0038656
-0.00735231
-0.0104333
-0.0123965
-0.013273
-0.0135222
-0.0133241
-0.0130612
-0.0127511
-0.0123655
-0.0118881
-0.0112655
-0.010735
-0.0101343
-0.00947622
-0.00889198
-0.00844912
-0.00794922
-0.00741908
-0.00681493
-0.00599399
-0.00509555
-0.00431991
-0.00371907
-0.0034954
-0.0158264
-0.00837381
-0.000553656
0.00868777
0.0176508
0.0256086
0.0308296
0.0330986
0.0326486
0.0295823
0.024726
0.0185569
0.0120157
0.00585813
0.000562116
-0.00395868
-0.00790369
-0.0110049
-0.0130088
-0.0138954
-0.0141503
-0.0140547
-0.0139827
-0.0138137
-0.0135851
-0.0132254
-0.0127807
-0.0123294
-0.0116972
-0.0109739
-0.0103579
-0.00981405
-0.00926557
-0.00873287
-0.00807723
-0.00720628
-0.00631132
-0.00554869
-0.00497672
-0.00479995
-0.0171702
-0.00850945
0.000109591
0.010737
0.0213334
0.0307684
0.0374298
0.0405477
0.0399877
0.0360257
0.0296998
0.0220257
0.0143544
0.00722675
0.00114951
-0.00405381
-0.00821789
-0.0114326
-0.0134409
-0.0143547
-0.0148117
-0.0150003
-0.0151359
-0.0151332
-0.0150296
-0.014832
-0.014453
-0.0139319
-0.013176
-0.0124835
-0.0119629
-0.0115191
-0.0111402