/*--------------------------------*- C++ -*----------------------------------*\
  =========                 |
  \\      /  F ield         | OpenFOAM: The Open Source CFD Toolbox
   \\    /   O peration     | Website:  https://openfoam.org
    \\  /    A nd           | Version:  11
     \\/     M anipulation  |
\*---------------------------------------------------------------------------*/
FoamFile
{
    format      ascii;
    class       volVectorField;
    location    "4.5";
    object      U;
}
// * * * * * * * * * * * * * * * * * * * * * * * * * * * * * * * * * * * * * //

dimensions      [0 1 -1 0 0 0 0];

internalField   nonuniform List<vector> 
9600
(
(0.968435 0.0018573 4.69257e-21)
(0.965448 0.00221319 0)
(0.960386 0.00246864 0)
(0.957561 0.0028326 8.26507e-23)
(0.957056 0.00413078 0)
(0.95279 0.00593041 -8.9794e-23)
(0.94326 0.00667441 -2.97871e-21)
(0.935408 0.00593773 2.99399e-21)
(0.933766 0.00523408 -3.0872e-21)
(0.935133 0.00565198 3.09579e-21)
(0.932345 0.00903068 0)
(0.908537 0.0124043 -3.00991e-21)
(0.860798 0.0101785 3.07822e-21)
(0.834145 0.00491961 -4.08112e-23)
(0.828984 0.00210529 1.0776e-21)
(0.83193 0.000135528 -1.05637e-21)
(0.843555 -0.00340873 0)
(0.875149 -0.0080887 -1.89297e-22)
(0.914574 -0.0109597 1.89949e-22)
(0.947789 -0.0137296 -1.4139e-25)
(0.977925 -0.0155488 -1.10076e-25)
(1.01053 -0.0161495 -2.81752e-23)
(1.04111 -0.0165335 2.85031e-23)
(1.06938 -0.0170883 0)
(1.10403 -0.0158896 0)
(1.14584 -0.0127642 -6.66572e-23)
(1.18001 -0.00866737 -2.32638e-22)
(1.19235 -0.00671329 3.06753e-22)
(1.19003 -0.00687488 -2.19085e-23)
(1.18075 -0.00863538 2.84913e-23)
(1.16017 -0.0125974 0)
(1.12056 -0.0150209 -1.47894e-21)
(1.07926 -0.0179321 1.44883e-21)
(1.04504 -0.0181178 8.87727e-22)
(1.01765 -0.0183245 -8.82841e-22)
(0.997682 -0.0169935 -2.01318e-23)
(0.984089 -0.0163084 0)
(0.974616 -0.0140341 -6.80891e-22)
(0.967266 -0.0101794 6.81797e-22)
(0.956002 -0.00789855 -8.77349e-24)
(0.971638 0.000331714 2.31005e-22)
(0.970749 0.000378308 0)
(0.969137 -0.000192719 0)
(0.965799 -0.00139912 -2.55984e-22)
(0.963248 -0.00190064 -5.80954e-21)
(0.961141 -0.00181063 9.13137e-21)
(0.958007 -0.00260232 -3.02748e-21)
(0.954743 -0.00425428 -9.81218e-23)
(0.952699 -0.00508581 -9.99497e-23)
(0.951712 -0.00430388 0)
(0.950175 -0.0018681 -9.98898e-23)
(0.943801 0.00148389 -3.14927e-21)
(0.929793 0.00177628 4.42438e-21)
(0.920183 -0.00083004 -1.40366e-21)
(0.917924 -0.0028693 -1.80938e-23)
(0.919396 -0.00440999 0)
(0.92628 -0.00641478 -2.76875e-22)
(0.945928 -0.00703269 3.01167e-22)
(0.975914 -0.00403795 -3.88989e-23)
(1.00488 0.00118031 3.9045e-23)
(1.02942 0.00371595 -2.07776e-23)
(1.0533 0.00412806 1.97605e-23)
(1.07889 0.00532062 0)
(1.10471 0.0048595 -5.38488e-23)
(1.13269 0.00128436 5.37358e-23)
(1.16708 -0.00164122 5.51913e-25)
(1.20323 0.000302211 2.43371e-22)
(1.22709 0.00575048 -2.36491e-22)
(1.23257 0.0113753 6.41821e-23)
(1.22827 0.0167184 1.82988e-21)
(1.21065 0.0245434 -1.98727e-21)
(1.17583 0.029743 1.70678e-21)
(1.13865 0.0314377 -1.67113e-21)
(1.10314 0.0282633 3.80995e-23)
(1.07171 0.0264999 -1.72183e-21)
(1.04466 0.022064 1.67434e-21)
(1.02566 0.0206408 0)
(1.00454 0.0141203 -7.86481e-22)
(0.995591 0.0124703 7.92352e-22)
(0.977872 0.00398255 2.82338e-23)
(0.970267 0.00063821 4.86827e-21)
(0.969626 0.00112213 -1.6222e-22)
(0.968244 0.00159777 0)
(0.965248 0.00187941 1.75218e-22)
(0.962601 0.00299625 0)
(0.961357 0.00472397 -3.26141e-21)
(0.959663 0.00542995 -6.56783e-23)
(0.955238 0.00485086 3.26463e-21)
(0.950947 0.0048963 1.0225e-22)
(0.950434 0.00598785 0)
(0.951255 0.00995406 3.05562e-22)
(0.949873 0.0148344 -3.05244e-21)
(0.946438 0.0143959 3.14021e-21)
(0.933056 0.00745719 1.24114e-22)
(0.924708 0.00183764 -7.20529e-23)
(0.925586 -0.000924584 2.98642e-23)
(0.934195 -0.00650078 -3.02289e-22)
(0.95745 -0.0155767 1.20943e-22)
(0.981181 -0.0195544 1.8692e-22)
(1.00805 -0.0212286 -2.14312e-25)
(1.03175 -0.0219519 -2.95685e-25)
(1.05144 -0.0232044 -3.45708e-23)
(1.07534 -0.0238224 3.53135e-23)
(1.10369 -0.0248526 -6.5785e-23)
(1.13127 -0.0263888 6.56458e-23)
(1.16236 -0.0271702 0)
(1.19872 -0.0229174 2.99229e-24)
(1.22695 -0.0154798 -4.25741e-23)
(1.23564 -0.00897641 -4.23243e-23)
(1.23336 -0.00566538 1.71201e-22)
(1.22064 -0.00229039 1.90872e-22)
(1.18824 0.00169534 -1.82165e-21)
(1.15039 0.00203272 2.96639e-22)
(1.11334 0.000727611 1.3535e-21)
(1.08407 -0.00163671 5.98202e-23)
(1.05736 -0.00229728 0)
(1.03949 -0.00363127 3.90429e-23)
(1.02297 -0.00256792 -8.44642e-22)
(1.01694 -0.00186504 8.40812e-22)
(1.00581 0.000744651 -1.95659e-23)
(0.969427 0.000920433 3.26407e-22)
(0.968577 0.0012886 -1.70276e-22)
(0.9668 0.0017708 0)
(0.963738 0.0014533 0)
(0.961464 0.0014926 -5.8033e-21)
(0.960076 0.00167534 6.02513e-21)
(0.957613 0.000920438 3.07656e-21)
(0.952923 -0.00100743 -3.09181e-21)
(0.950699 -0.00203272 3.34326e-21)
(0.950721 -0.00142836 -3.12974e-21)
(0.951329 0.0023924 -2.08012e-22)
(0.952696 0.00618923 -9.91776e-23)
(0.953137 0.00608425 -9.28762e-23)
(0.950462 0.00252195 -8.40998e-23)
(0.947377 -0.00297431 1.21688e-21)
(0.950608 -0.00889535 -1.94594e-22)
(0.963665 -0.0157072 -1.17037e-21)
(0.983115 -0.019899 2.99627e-22)
(1.00324 -0.0177531 -3.84523e-24)
(1.0254 -0.0123919 3.5484e-25)
(1.04666 -0.00783796 2.83127e-23)
(1.06369 -0.0075769 -7.95072e-23)
(1.08163 -0.00807928 5.3852e-23)
(1.10554 -0.00916509 -1.24752e-24)
(1.13219 -0.0129495 0)
(1.16012 -0.0180619 0)
(1.19244 -0.0160655 1.77432e-22)
(1.22349 -0.00475891 -1.90809e-22)
(1.2403 0.00833036 1.56435e-21)
(1.24017 0.0182072 -1.67007e-21)
(1.22688 0.0280811 -1.3174e-22)
(1.19733 0.0365678 1.23654e-22)
(1.16176 0.0397843 -1.1454e-22)
(1.12782 0.0366217 1.3186e-21)
(1.0953 0.0336688 -3.36355e-21)
(1.06783 0.0279379 3.62731e-21)
(1.04632 0.0255632 -1.52798e-21)
(1.02637 0.0167996 6.97227e-23)
(1.01377 0.0147427 -8.0853e-23)
(0.993382 0.00624569 4.50031e-23)
(0.968694 0.000992766 5.03714e-21)
(0.967674 0.00135108 -4.55623e-24)
(0.965612 0.00210863 0)
(0.962807 0.00206532 0)
(0.960466 0.0023987 -3.92178e-22)
(0.958669 0.00358831 6.11718e-22)
(0.956876 0.00402326 -3.15345e-21)
(0.954603 0.00326726 6.58665e-21)
(0.951421 0.00324653 -3.43586e-21)
(0.94912 0.00517859 -2.1556e-22)
(0.949889 0.00867072 0)
(0.955773 0.0122553 -6.27987e-21)
(0.964407 0.0117647 6.328e-21)
(0.96669 0.00562522 -1.43971e-21)
(0.965819 -0.000306452 1.19871e-21)
(0.967706 -0.00519767 -1.21171e-22)
(0.97629 -0.0128264 -3.40024e-22)
(0.989792 -0.0218605 1.26231e-22)
(1.00557 -0.024972 1.70311e-22)
(1.02456 -0.0259379 -1.38658e-25)
(1.04618 -0.0252817 2.96841e-23)
(1.0642 -0.0261989 -8.36799e-23)
(1.08062 -0.0278719 5.14966e-23)
(1.10347 -0.0307291 1.27854e-24)
(1.13157 -0.033115 6.47323e-24)
(1.15913 -0.036656 5.39558e-23)
(1.18909 -0.0353963 -5.15985e-23)
(1.22006 -0.0267999 7.24097e-24)
(1.24087 -0.0151352 6.92621e-23)
(1.24455 -0.00399696 0)
(1.23531 0.00590625 1.36784e-22)
(1.20713 0.0171038 0)
(1.17194 0.0233295 3.6719e-22)
(1.13528 0.0227131 0)
(1.10388 0.0193678 0)
(1.07447 0.0155936 1.69589e-21)
(1.0538 0.0130785 -1.77513e-21)
(1.03235 0.0104934 -1.2164e-21)
(1.02338 0.0096421 1.11575e-21)
(1.00937 0.00855803 -4.59961e-23)
(0.967653 0.00141708 0)
(0.966545 0.00178266 -4.94533e-24)
(0.964337 0.00258495 0)
(0.96155 0.00260908 0)
(0.959048 0.00337855 -6.61328e-21)
(0.957359 0.00418302 2.84069e-21)
(0.956332 0.00332296 6.88511e-21)
(0.953894 0.00154002 -3.49094e-21)
(0.950484 0.00152881 0)
(0.949444 0.00271944 0)
(0.950986 0.004842 0)
(0.958229 0.00680739 -2.78749e-21)
(0.968319 0.00547323 3.04189e-21)
(0.970516 0.00155218 1.47557e-21)
(0.970727 -0.00446483 -1.45419e-21)
(0.975624 -0.0129857 -7.85775e-22)
(0.988061 -0.0219892 6.02634e-22)
(1.00237 -0.0284789 2.92314e-22)
(1.01874 -0.0278643 -2.50649e-23)
(1.03646 -0.0242231 2.50549e-23)
(1.05504 -0.0195199 -1.18641e-24)
(1.07181 -0.0182301 -5.82286e-24)
(1.08645 -0.0197386 7.56882e-24)
(1.10489 -0.023019 0)
(1.13016 -0.0271869 -6.63859e-24)
(1.15793 -0.0331374 -8.63492e-23)
(1.18715 -0.034166 7.59644e-23)
(1.21768 -0.0234967 -7.26046e-22)
(1.24259 -0.00416121 2.14189e-21)
(1.25168 0.0138944 -1.34754e-21)
(1.24333 0.0279136 -2.73934e-21)
(1.21758 0.039824 2.00188e-21)
(1.18383 0.0468658 -2.5597e-22)
(1.14837 0.0463308 -1.62464e-21)
(1.11482 0.0432801 -9.51375e-22)
(1.08445 0.0364923 2.40263e-21)
(1.06235 0.0336327 0)
(1.03914 0.024296 -1.23217e-21)
(1.0283 0.0215965 1.69137e-22)
(1.00655 0.0112852 1.01525e-21)
(0.966812 0.00152284 6.49135e-21)
(0.965599 0.00193689 -5.26988e-24)
(0.963223 0.00283804 0)
(0.960403 0.00334837 0)
(0.957959 0.00424296 6.42217e-21)
(0.956759 0.00417975 -6.4592e-21)
(0.955671 0.0030707 3.58377e-21)
(0.952979 0.00251652 4.7299e-22)
(0.950372 0.00331505 -3.6481e-21)
(0.95032 0.00418723 3.57159e-21)
(0.952464 0.00555144 -3.1321e-21)
(0.960779 0.00670487 -3.46259e-21)
(0.97092 0.00618784 3.67014e-21)
(0.973991 0.00177055 0)
(0.978517 -0.00444131 1.24386e-21)
(0.985497 -0.0125149 -2.0555e-21)
(0.996696 -0.020598 5.58404e-22)
(1.00878 -0.0283528 1.34139e-22)
(1.02215 -0.0304775 1.28027e-22)
(1.03741 -0.0307013 1.79944e-23)
(1.05418 -0.0291077 -4.53008e-23)
(1.07108 -0.0291729 -3.86759e-23)
(1.08606 -0.0308513 7.63373e-23)
(1.10294 -0.0356378 -5.55901e-23)
(1.1272 -0.0403036 5.54733e-23)
(1.15611 -0.045782 1.27441e-22)
(1.18548 -0.047479 -1.33586e-22)
(1.21415 -0.0407148 1.2321e-23)
(1.24073 -0.0264478 0)
(1.25588 -0.00955542 2.11442e-21)
(1.25282 0.00976923 -1.71497e-21)
(1.22898 0.0277102 -2.12304e-21)
(1.19582 0.0407541 2.41657e-21)
(1.15971 0.0434151 2.08762e-21)
(1.1265 0.0413275 -1.59661e-21)
(1.09333 0.0355307 -1.70415e-23)
(1.07101 0.0314683 0)
(1.04627 0.0249778 -1.19983e-21)
(1.03446 0.0229157 4.08495e-22)
(1.01683 0.0182935 9.2233e-22)
(0.965718 0.00213449 5.2571e-21)
(0.964339 0.00247091 -3.97189e-22)
(0.961871 0.00344505 6.63836e-21)
(0.959133 0.00424017 -6.69135e-21)
(0.957021 0.00475722 4.36693e-22)
(0.956061 0.00429529 -4.49023e-22)
(0.954663 0.00344268 0)
(0.952002 0.00334302 2.80084e-21)
(0.950907 0.0036633 -3.71629e-21)
(0.951354 0.00366299 0)
(0.953934 0.00426623 2.61418e-21)
(0.962357 0.00466414 -3.13206e-21)
(0.97205 0.00337081 -1.36423e-24)
(0.976554 -0.00153199 0)
(0.98195 -0.0080737 1.10286e-21)
(0.988543 -0.0181529 -9.82121e-22)
(0.998713 -0.0274799 -2.7805e-22)
(1.01276 -0.0349091 1.39575e-22)
(1.02772 -0.0354867 1.34748e-22)
(1.04444 -0.0329649 7.74407e-24)
(1.06038 -0.0289615 0)
(1.07602 -0.027446 -8.88159e-23)
(1.08992 -0.0287775 9.23987e-23)
(1.10477 -0.0338881 0)
(1.12579 -0.0397945 -1.50348e-23)
(1.15257 -0.0469856 0)
(1.18266 -0.0505731 -5.15655e-24)
(1.21265 -0.0438384 -4.62435e-22)
(1.24339 -0.024847 5.8302e-22)
(1.26113 0.000446547 -4.14753e-22)
(1.261 0.0227171 -2.23215e-21)
(1.242 0.0408104 5.47451e-21)
(1.20865 0.0546209 -2.95507e-21)
(1.17194 0.0585075 2.09707e-21)
(1.13606 0.0575098 -5.35307e-21)
(1.10173 0.0496455 3.47124e-21)
(1.07789 0.0471657 0)
(1.0516 0.0370099 -1.71199e-21)
(1.03903 0.0344692 2.26453e-22)
(1.01859 0.0211259 1.39831e-21)
(0.964731 0.0022756 0)
(0.963375 0.00263527 8.0237e-22)
(0.960921 0.00379824 0)
(0.958168 0.00477661 8.88701e-22)
(0.956365 0.00523387 6.43907e-21)
(0.955462 0.00439559 -3.65248e-21)
(0.95358 0.00381708 -3.78818e-21)
(0.951639 0.00374931 4.80486e-22)
(0.951464 0.00347307 0)
(0.952208 0.00318006 0)
(0.955282 0.00302836 4.07123e-21)
(0.963902 0.00218648 -4.08951e-21)
(0.972884 0.00125252 -6.11766e-22)
(0.977576 -0.0034194 -1.81793e-22)
(0.983812 -0.010668 1.10807e-21)
(0.992094 -0.0206535 -9.90867e-22)
(1.00154 -0.0289936 -2.68106e-22)
(1.01525 -0.035981 1.45717e-22)
(1.02892 -0.0370031 1.24319e-22)
(1.04487 -0.0364954 -2.35186e-24)
(1.06023 -0.0342793 -4.55577e-24)
(1.07558 -0.0337549 -1.35715e-22)
(1.09021 -0.0349598 1.38938e-22)
(1.10388 -0.0404735 3.91727e-24)
(1.12273 -0.0477555 3.07447e-23)
(1.14977 -0.0562724 0)
(1.17975 -0.0609307 -1.35506e-22)
(1.21056 -0.0572772 9.67307e-23)
(1.24061 -0.0431593 -9.74092e-23)
(1.26298 -0.02231 3.90476e-22)
(1.26977 0.00576876 -2.986e-22)
(1.2534 0.0310703 -3.19004e-21)
(1.22438 0.0510034 3.54152e-21)
(1.18633 0.0595441 -6.43539e-22)
(1.15202 0.0611058 -2.52979e-22)
(1.11478 0.0550163 3.47789e-21)
(1.08989 0.0503793 -3.00166e-21)
(1.06292 0.0406379 -1.8685e-21)
(1.04906 0.0379355 1.85173e-21)
(1.02777 0.0299369 0)
(0.963696 0.0030497 0)
(0.962189 0.00333038 0)
(0.959535 0.00451117 8.06469e-21)
(0.95705 0.0055922 -1.55794e-20)
(0.955561 0.0054966 7.47869e-21)
(0.954341 0.00465128 0)
(0.952475 0.00427696 3.94726e-21)
(0.951534 0.00366813 -2.23799e-24)
(0.951684 0.00327578 -3.47991e-21)
(0.952776 0.00242406 0)
(0.956416 0.00164486 -4.7701e-22)
(0.964419 0.000260035 4.52155e-22)
(0.972905 -0.0012155 1.99398e-21)
(0.979717 -0.00677132 -1.39503e-21)
(0.987425 -0.0134397 0)
(0.995147 -0.0237665 8.21305e-22)
(1.00192 -0.0333329 -1.16616e-21)
(1.01379 -0.0413404 3.82768e-22)
(1.02836 -0.0427664 -1.04533e-22)
(1.04595 -0.0409526 -9.05876e-25)
(1.0622 -0.0367603 9.59751e-23)
(1.07738 -0.0348963 -8.55765e-23)
(1.09185 -0.0354537 1.79642e-23)
(1.10618 -0.0411724 -4.03863e-24)
(1.12351 -0.049516 -1.57161e-23)
(1.14714 -0.0591503 0)
(1.1754 -0.0661403 0)
(1.20861 -0.0651508 1.62506e-23)
(1.24229 -0.0492046 9.77637e-22)
(1.2676 -0.0223792 -1.1619e-21)
(1.27889 0.00964033 0)
(1.26865 0.0371507 3.4339e-21)
(1.24079 0.0616545 -3.41991e-21)
(1.20336 0.0726172 3.03536e-21)
(1.16673 0.0775967 -2.66895e-21)
(1.12825 0.0692617 3.06009e-21)
(1.10126 0.0672383 -3.49445e-21)
(1.07109 0.05462 0)
(1.05434 0.0529721 0)
(1.03081 0.0362362 -2.10688e-22)
(0.962719 0.00321824 -8.31393e-23)
(0.961157 0.00344754 7.81273e-21)
(0.958573 0.0048488 -9.13762e-22)
(0.956293 0.00575674 -9.61461e-22)
(0.95475 0.00567397 -7.93411e-21)
(0.953307 0.00502542 1.20245e-20)
(0.951914 0.0043407 -4.06741e-21)
(0.951385 0.00345222 4.10131e-21)
(0.951857 0.00285034 -5.14589e-21)
(0.953193 0.00140849 -4.4841e-21)
(0.957022 0.000214987 8.31168e-21)
(0.965233 -0.00234339 -7.86008e-21)
(0.974154 -0.00384078 3.57661e-21)
(0.980961 -0.00956732 0)
(0.98719 -0.0171465 0)
(0.99663 -0.0280299 -1.05697e-21)
(1.005 -0.0366891 7.36125e-22)
(1.01616 -0.0439547 2.40072e-22)
(1.02889 -0.0448484 -3.07346e-23)
(1.04431 -0.0433973 3.33038e-23)
(1.05906 -0.0403247 -5.77934e-24)
(1.07448 -0.0397911 -1.88313e-22)
(1.08914 -0.0405436 1.6952e-22)
(1.10409 -0.0459687 5.48569e-25)
(1.11989 -0.0545748 -5.46724e-25)
(1.14337 -0.0664366 0)
(1.17377 -0.0747757 0)
(1.20602 -0.0762687 6.79648e-23)
(1.24105 -0.064676 7.75797e-22)
(1.26914 -0.0435068 -7.71342e-22)
(1.28633 -0.00974027 -2.99759e-21)
(1.28089 0.0247888 -9.54481e-22)
(1.25763 0.0548531 3.24686e-21)
(1.2194 0.0707674 3.06388e-21)
(1.18264 0.0792328 -8.20537e-21)
(1.1418 0.0746684 4.50335e-21)
(1.1131 0.0716404 4.88781e-22)
(1.08175 0.0599408 -2.55804e-21)
(1.06556 0.0572866 2.22956e-21)
(1.04069 0.0453399 -3.35439e-23)
(0.961547 0.00410704 -7.16384e-21)
(0.959815 0.00426023 1.37816e-20)
(0.957267 0.00552724 2.2701e-22)
(0.955112 0.00628576 -1.59004e-20)
(0.953479 0.00624555 1.01543e-20)
(0.952198 0.00525794 0)
(0.951317 0.00428345 0)
(0.950973 0.00316937 1.06852e-21)
(0.951747 0.00224369 5.30736e-22)
(0.953222 0.000140417 -3.0563e-21)
(0.957522 -0.00205927 4.13386e-21)
(0.966509 -0.00494195 -3.65212e-21)
(0.973963 -0.00652182 5.31645e-21)
(0.981114 -0.013278 -1.26918e-21)
(0.98902 -0.0208288 1.12248e-21)
(0.999591 -0.0309912 -1.80002e-21)
(1.00789 -0.039258 4.92476e-22)
(1.01578 -0.0471143 1.53105e-22)
(1.0272 -0.0493735 9.66815e-23)
(1.04061 -0.0485961 -4.78885e-23)
(1.05634 -0.0447931 0)
(1.07222 -0.0426108 -1.94495e-22)
(1.08583 -0.042424 2.29213e-22)
(1.10127 -0.0471722 0)
(1.11919 -0.0565473 0)
(1.14142 -0.0691489 -3.85781e-22)
(1.1693 -0.0799666 7.71171e-22)
(1.20284 -0.0866757 -5.54439e-22)
(1.24125 -0.075981 1.8407e-23)
(1.27415 -0.0523838 0)
(1.29627 -0.0145359 3.03034e-21)
(1.29733 0.0226826 -2.72246e-21)
(1.27883 0.0600714 9.51908e-22)
(1.24247 0.0801102 0)
(1.20349 0.0955734 0)
(1.16053 0.0904255 5.53187e-21)
(1.12785 0.0901526 -5.35242e-21)
(1.09476 0.0760841 -2.58574e-21)
(1.07484 0.0759835 3.68705e-21)
(1.04721 0.0575721 2.56248e-22)
(0.960299 0.00409766 -7.47835e-21)
(0.958654 0.00424469 8.52682e-21)
(0.956291 0.00555653 0)
(0.954177 0.0064867 2.07382e-21)
(0.952498 0.0063567 -2.13064e-21)
(0.95153 0.00513801 5.43938e-21)
(0.951099 0.00413195 -5.48781e-21)
(0.950633 0.00248742 6.99968e-24)
(0.951807 0.00138435 -4.34683e-21)
(0.953204 -0.00168366 7.52149e-21)
(0.958274 -0.00425371 -3.22004e-21)
(0.966031 -0.00798762 4.2419e-21)
(0.97362 -0.00976011 -2.08899e-21)
(0.982969 -0.0167043 -2.0867e-21)
(0.990574 -0.0244057 0)
(0.999317 -0.0355379 0)
(1.00878 -0.0434233 0)
(1.01809 -0.050657 -2.10435e-23)
(1.02924 -0.0517817 3.82637e-23)
(1.0405 -0.0506319 0)
(1.05248 -0.047205 -1.52e-22)
(1.06555 -0.0457864 -1.20033e-22)
(1.0773 -0.0464489 6.22939e-23)
(1.09336 -0.0526307 1.81628e-22)
(1.10951 -0.0611785 0)
(1.13124 -0.0764853 4.8989e-22)
(1.1621 -0.0883861 5.40654e-23)
(1.19711 -0.0967189 -5.2551e-22)
(1.23863 -0.090181 4.17345e-23)
(1.27584 -0.0727043 0)
(1.30427 -0.0363176 2.70042e-21)
(1.31111 0.00519692 -2.68142e-21)
(1.29873 0.0496399 -2.00307e-21)
(1.26321 0.0769928 2.91489e-21)
(1.22309 0.096388 -1.00104e-20)
(1.17654 0.0963392 6.99652e-21)
(1.14259 0.0967528 0)
(1.10559 0.0829184 -4.11158e-21)
(1.08655 0.081636 3.66815e-21)
(1.05685 0.0662234 3.5792e-22)
(0.959097 0.00507283 0)
(0.957288 0.00506831 8.1467e-21)
(0.955012 0.00635739 2.26135e-22)
(0.952911 0.00714966 -1.07137e-20)
(0.951268 0.00667915 8.90346e-21)
(0.950567 0.00514668 -8.98916e-21)
(0.950692 0.00398895 1.13551e-21)
(0.950188 0.00173971 3.41347e-21)
(0.951354 0.000217418 -5.72581e-21)
(0.953533 -0.00371578 5.48552e-21)
(0.957939 -0.00680903 -8.56763e-21)
(0.965856 -0.0110886 3.68119e-21)
(0.974343 -0.0130292 1.7217e-21)
(0.982697 -0.0209284 -1.73025e-21)
(0.990868 -0.0289114 -1.44167e-21)
(1.00006 -0.0398016 1.87606e-21)
(1.01121 -0.0463776 -9.30335e-22)
(1.0216 -0.0528298 1.70824e-22)
(1.03033 -0.0545599 -1.14627e-23)
(1.03931 -0.0537213 9.17853e-24)
(1.04922 -0.0510489 -1.82555e-22)
(1.06083 -0.0494101 1.39414e-22)
(1.07173 -0.0493543 -6.25113e-24)
(1.08337 -0.0544177 1.88774e-22)
(1.1001 -0.0634233 -1.41784e-22)
(1.12207 -0.0782513 -1.42831e-22)
(1.15097 -0.0921972 -1.60062e-22)
(1.18655 -0.107911 1.38566e-22)
(1.23159 -0.105095 -1.93499e-22)
(1.27615 -0.0893416 1.29333e-21)
(1.31352 -0.0496981 -1.15548e-21)
(1.32891 -0.00685906 -3.80858e-21)
(1.32216 0.0455849 4.83329e-21)
(1.29154 0.0789294 4.4747e-21)
(1.25039 0.108465 -6.75288e-21)
(1.20293 0.111425 0)
(1.16356 0.115608 0)
(1.12414 0.10067 -5.10172e-21)
(1.101 0.101766 3.93214e-21)
(1.06891 0.0847507 -8.02244e-22)
(0.95778 0.00494179 -7.08864e-23)
(0.956082 0.00493593 7.24546e-21)
(0.953944 0.00629595 1.1008e-21)
(0.952016 0.00706544 1.12252e-21)
(0.950334 0.00638187 1.16199e-20)
(0.94991 0.00458306 -5.85374e-21)
(0.95047 0.00322789 -5.93762e-21)
(0.94999 0.000605729 0)
(0.95098 -0.00134251 1.17886e-21)
(0.953459 -0.00604339 3.36093e-21)
(0.958047 -0.00943053 -5.67452e-21)
(0.966122 -0.0145689 -3.97592e-21)
(0.973492 -0.01665 4.4724e-21)
(0.981657 -0.0255162 0)
(0.991836 -0.0328109 1.44437e-21)
(1.00115 -0.0437794 -1.11725e-21)
(1.01114 -0.0506474 -1.46494e-22)
(1.02287 -0.0567281 2.20363e-22)
(1.03207 -0.0575242 -1.89066e-22)
(1.04218 -0.0561968 1.1534e-22)
(1.05079 -0.0526968 1.45168e-23)
(1.0584 -0.0506769 0)
(1.06524 -0.0508171 4.22065e-23)
(1.07475 -0.0577603 -4.81627e-23)
(1.0864 -0.0667986 6.99301e-24)
(1.10403 -0.0857505 6.42488e-22)
(1.13202 -0.101374 -1.11659e-21)
(1.16851 -0.119004 7.36585e-22)
(1.21637 -0.120143 0)
(1.26748 -0.111767 0)
(1.31618 -0.0752841 2.41002e-21)
(1.34268 -0.0311004 -2.39154e-21)
(1.34514 0.0284842 0)
(1.31938 0.0712102 2.59602e-21)
(1.27947 0.108032 9.61502e-21)
(1.22675 0.117218 -1.28131e-21)
(1.18439 0.125643 -8.30425e-21)
(1.13798 0.111209 -4.7212e-21)
(1.11323 0.111156 5.35609e-21)
(1.07754 0.0938287 -8.84161e-23)
(0.956657 0.0059704 -8.58142e-21)
(0.954748 0.00576417 8.68889e-21)
(0.952654 0.00706596 -1.13513e-21)
(0.950622 0.00751233 0)
(0.949365 0.00651393 -1.0917e-20)
(0.948726 0.00435015 1.47241e-20)
(0.949739 0.00270423 -3.72642e-21)
(0.949551 -0.000502691 0)
(0.950067 -0.00328163 1.09244e-20)
(0.95266 -0.00903973 -5.68418e-21)
(0.95814 -0.0125408 -4.73327e-21)
(0.963957 -0.0181277 -4.09751e-21)
(0.972486 -0.0205639 5.43525e-21)
(0.98167 -0.0296475 -1.39989e-21)
(0.990921 -0.0378197 1.42111e-21)
(1.00168 -0.0488752 -1.21293e-21)
(1.01097 -0.054909 -1.07872e-22)
(1.02413 -0.0600583 2.21888e-22)
(1.03556 -0.0592838 6.86858e-24)
(1.04556 -0.0579175 -1.46282e-22)
(1.05188 -0.0547482 -3.23283e-23)
(1.05714 -0.0529292 -4.88235e-22)
(1.06209 -0.0523981 5.48235e-22)
(1.06665 -0.0587128 3.29776e-22)
(1.07413 -0.0687935 -3.37738e-22)
(1.08883 -0.0870145 -5.68382e-22)
(1.11294 -0.102668 3.70709e-22)
(1.14645 -0.128186 0)
(1.19322 -0.135716 -1.31934e-21)
(1.24926 -0.136141 1.47929e-21)
(1.30803 -0.0999975 2.02199e-21)
(1.35258 -0.0565058 -2.0849e-21)
(1.36894 0.0116597 0)
(1.35341 0.0623992 4.48823e-21)
(1.31479 0.111028 -4.41056e-21)
(1.26112 0.128235 -1.48159e-21)
(1.21408 0.143151 1.26928e-21)
(1.16359 0.130876 0)
(1.13449 0.131046 0)
(1.09579 0.116166 1.21778e-21)
(0.955315 0.00572642 -9.00114e-21)
(0.953432 0.00543025 9.12177e-21)
(0.951485 0.00674099 0)
(0.949479 0.00685158 0)
(0.948545 0.00580902 0)
(0.947837 0.00323009 0)
(0.949181 0.00137461 0)
(0.949205 -0.00214504 0)
(0.949971 -0.00524096 -7.60736e-21)
(0.952352 -0.0121988 8.84431e-21)
(0.956772 -0.0155768 4.61233e-21)
(0.964079 -0.0220212 -9.79218e-22)
(0.972172 -0.0245478 -2.40852e-21)
(0.981509 -0.0353059 -2.28058e-21)
(0.991167 -0.0431016 -1.41192e-21)
(1.00218 -0.0532669 5.79376e-22)
(1.01239 -0.0589262 5.58313e-22)
(1.02525 -0.0639197 2.51233e-22)
(1.03466 -0.0630431 9.20335e-23)
(1.04531 -0.0612571 -1.98815e-22)
(1.05299 -0.055903 -2.66375e-24)
(1.05765 -0.0531173 -6.7865e-22)
(1.06012 -0.0526284 1.11951e-21)
(1.06138 -0.0578584 -3.48257e-22)
(1.06566 -0.0673678 0)
(1.07311 -0.0894298 7.20827e-23)
(1.09132 -0.109353 2.02072e-22)
(1.12164 -0.138507 0)
(1.16559 -0.149942 -1.44528e-21)
(1.22222 -0.160469 1.55818e-21)
(1.28731 -0.132575 -2.13368e-22)
(1.34664 -0.093505 0)
(1.38342 -0.0202981 0)
(1.38374 0.0420173 6.59932e-21)
(1.35468 0.106127 -6.53426e-21)
(1.29833 0.13198 -2.42732e-22)
(1.24584 0.154508 2.57472e-22)
(1.18661 0.145617 -7.12709e-21)
(1.15405 0.147374 8.32614e-21)
(1.10814 0.130286 -6.87458e-22)
(0.954145 0.00674531 0)
(0.952018 0.00607711 0)
(0.94978 0.00725517 0)
(0.948027 0.00704811 0)
(0.947616 0.00569514 0)
(0.946738 0.0024383 6.72377e-21)
(0.947501 0.000230346 -5.43845e-21)
(0.948281 -0.00424472 -5.36867e-21)
(0.950292 -0.00763825 1.20044e-20)
(0.950597 -0.0157235 -2.8341e-21)
(0.954802 -0.0189722 -5.75427e-21)
(0.962537 -0.0259467 1.1563e-21)
(0.971193 -0.0298159 5.12017e-22)
(0.982669 -0.0402366 -4.23198e-22)
(0.990302 -0.0479813 1.04827e-21)
(1.00267 -0.0589186 -1.1483e-21)
(1.01285 -0.0632516 -4.33413e-24)
(1.02473 -0.067929 4.34572e-24)
(1.03448 -0.0660473 1.51246e-22)
(1.0461 -0.06311 -2.68348e-22)
(1.05261 -0.0568958 -3.09628e-24)
(1.05708 -0.0536396 8.92214e-23)
(1.05888 -0.0530815 -1.53077e-22)
(1.05762 -0.0568614 6.45944e-22)
(1.05776 -0.0668622 -6.29339e-22)
(1.06303 -0.0892902 -1.24716e-22)
(1.07513 -0.107612 1.05886e-21)
(1.10061 -0.142452 -1.05264e-21)
(1.13909 -0.159849 3.67875e-22)
(1.19499 -0.183648 0)
(1.26109 -0.164175 9.37243e-22)
(1.33019 -0.135157 -4.3388e-21)
(1.38497 -0.0598547 3.37771e-21)
(1.40837 0.0118291 0)
(1.39616 0.0918993 0)
(1.34571 0.134698 1.68495e-20)
(1.29077 0.168005 -1.84124e-20)
(1.22293 0.166965 1.10025e-20)
(1.18349 0.168176 -1.05653e-20)
(1.13026 0.155108 -1.08252e-21)
(0.952659 0.00616407 0)
(0.950666 0.00537315 0)
(0.948519 0.00640774 1.07237e-20)
(0.94649 0.00558866 -1.21699e-20)
(0.946726 0.00426147 1.10963e-20)
(0.945909 0.00122282 -1.41181e-20)
(0.94661 -0.00139409 -7.09911e-21)
(0.947565 -0.00699123 -1.33359e-21)
(0.949333 -0.0107028 7.09294e-21)
(0.951197 -0.0189031 0)
(0.954629 -0.0229272 1.29741e-21)
(0.961919 -0.031581 -5.68879e-21)
(0.97118 -0.0350966 3.99739e-21)
(0.983989 -0.0462814 4.39806e-22)
(0.993427 -0.053708 3.0753e-22)
(1.00528 -0.0639267 1.28346e-23)
(1.0128 -0.0680464 7.77046e-23)
(1.02733 -0.0718111 2.92418e-22)
(1.03709 -0.0678765 6.47286e-24)
(1.04725 -0.0661898 -3.08277e-22)
(1.05319 -0.0593952 2.55227e-23)
(1.05734 -0.0540862 -8.648e-22)
(1.05792 -0.0523664 8.47884e-22)
(1.0554 -0.0549449 -1.30398e-22)
(1.05408 -0.0634214 0)
(1.05573 -0.0842593 5.18905e-23)
(1.06152 -0.106359 -1.12932e-21)
(1.08037 -0.147809 4.16736e-21)
(1.11562 -0.169493 -3.4677e-22)
(1.16788 -0.202867 -4.67225e-21)
(1.23616 -0.19482 1.99707e-21)
(1.30804 -0.179841 2.79179e-21)
(1.37629 -0.110935 -3.67937e-21)
(1.41746 -0.0384 0)
(1.43073 0.0618666 0)
(1.39368 0.124798 0)
(1.34306 0.176041 -3.95881e-22)
(1.26594 0.184219 -1.54378e-20)
(1.22034 0.190873 1.35597e-20)
(1.1548 0.178244 2.52904e-21)
(0.951016 0.00700547 -1.05358e-20)
(0.948849 0.00580675 1.07059e-20)
(0.946866 0.00649376 0)
(0.944971 0.00540324 1.43164e-21)
(0.94515 0.00357146 0)
(0.944754 -0.000332841 2.98735e-21)
(0.945612 -0.00335658 -1.19445e-20)
(0.945215 -0.00995017 9.13634e-21)
(0.947253 -0.0138607 -2.75734e-21)
(0.949997 -0.0225631 4.40384e-21)
(0.953357 -0.0272327 1.9839e-24)
(0.961598 -0.0360001 5.87455e-21)
(0.968465 -0.0410942 -4.66681e-21)
(0.982771 -0.0528173 -4.29337e-22)
(0.992646 -0.0587818 -3.20106e-22)
(1.00671 -0.0696036 1.54326e-23)
(1.01602 -0.0717787 -1.30381e-23)
(1.02954 -0.0757887 4.68773e-22)
(1.03885 -0.0721615 -8.45505e-22)
(1.04984 -0.0684616 3.76086e-22)
(1.05682 -0.0600603 5.62557e-22)
(1.05864 -0.0537813 -1.56236e-21)
(1.05762 -0.051649 1.5704e-22)
(1.05439 -0.0529741 8.49205e-22)
(1.04945 -0.0601267 -1.15977e-22)
(1.0463 -0.0817182 3.78136e-22)
(1.05118 -0.10213 -4.07459e-22)
(1.06257 -0.14468 -3.69549e-22)
(1.09262 -0.17227 -5.0532e-22)
(1.13901 -0.217592 -4.14456e-22)
(1.2116 -0.222914 -7.59268e-22)
(1.28792 -0.221373 0)
(1.3679 -0.164688 9.7158e-22)
(1.42078 -0.0957303 0)
(1.45472 0.0111621 -2.39107e-21)
(1.43716 0.0967458 0)
(1.40193 0.171882 5.44754e-21)
(1.32142 0.202224 -1.78373e-20)
(1.26958 0.215767 5.14285e-21)
(1.18868 0.207096 1.47756e-20)
(0.949545 0.00581957 9.70499e-21)
(0.947385 0.00438867 0)
(0.945734 0.0048758 1.49996e-21)
(0.943881 0.00368432 -1.38206e-20)
(0.943703 0.00165251 1.2418e-20)
(0.943543 -0.00288437 -3.15886e-21)
(0.94436 -0.0062108 1.41766e-20)
(0.945632 -0.0132412 -1.59135e-20)
(0.945973 -0.0181664 1.54438e-21)
(0.949308 -0.0274492 1.49399e-21)
(0.953207 -0.0323076 -7.05081e-22)
(0.962356 -0.0425367 -6.44523e-22)
(0.969603 -0.0478716 1.98136e-21)
(0.983298 -0.0599855 -1.5476e-21)
(0.992328 -0.0661416 0)
(1.00805 -0.0759951 1.82811e-23)
(1.019 -0.0763833 2.91619e-23)
(1.03286 -0.0811551 0)
(1.0443 -0.0745057 4.57184e-22)
(1.05297 -0.070559 -4.57652e-22)
(1.06019 -0.0614963 -3.61068e-23)
(1.06246 -0.0535058 0)
(1.05937 -0.0501739 0)
(1.05342 -0.0504638 0)
(1.04663 -0.0561058 2.84604e-22)
(1.03993 -0.0740201 3.11779e-23)
(1.04091 -0.0946744 1.12837e-21)
(1.04322 -0.139327 -7.35455e-22)
(1.06921 -0.173553 1.08773e-21)
(1.10301 -0.227617 -6.27512e-22)
(1.17783 -0.24926 -1.74135e-21)
(1.25534 -0.264586 2.56962e-21)
(1.35671 -0.223198 4.59348e-22)
(1.42371 -0.160886 -8.22762e-21)
(1.47892 -0.0539008 3.31839e-20)
(1.47361 0.0458297 -2.22886e-20)
(1.45871 0.145094 -3.06274e-21)
(1.38218 0.204724 -2.67913e-20)
(1.33343 0.239156 8.89284e-22)
(1.23369 0.240647 1.97674e-20)
(0.947316 0.00624444 1.45125e-21)
(0.945443 0.0043964 -1.5378e-21)
(0.943598 0.00439781 3.74044e-23)
(0.941852 0.00251569 1.60503e-21)
(0.941747 8.28144e-05 0)
(0.94142 -0.00528308 -3.32097e-21)
(0.941554 -0.00908756 6.76625e-21)
(0.943692 -0.0166398 8.24946e-21)
(0.944394 -0.021874 -6.66852e-21)
(0.948494 -0.0315728 1.58355e-21)
(0.950836 -0.0381198 0)
(0.960404 -0.0481565 -4.24966e-21)
(0.967996 -0.0536058 7.51727e-21)
(0.981601 -0.0672992 -1.59168e-21)
(0.99215 -0.0710702 -2.64484e-22)
(1.00597 -0.0822075 9.88266e-23)
(1.01812 -0.0823639 -6.74268e-23)
(1.03284 -0.08486 0)
(1.04762 -0.0775545 0)
(1.0561 -0.0735623 0)
(1.06393 -0.0636524 4.86672e-23)
(1.06661 -0.0529293 0)
(1.06303 -0.0476031 -1.30229e-21)
(1.05499 -0.0464362 3.2506e-21)
(1.04558 -0.0503944 -2.1087e-21)
(1.03336 -0.0667281 -1.90326e-22)
(1.03155 -0.0867344 0)
(1.0244 -0.130008 0)
(1.04587 -0.168249 1.11222e-23)
(1.06433 -0.226448 6.10265e-21)
(1.13563 -0.269129 2.43745e-22)
(1.20371 -0.299817 -3.676e-21)
(1.32585 -0.291918 -1.84535e-22)
(1.41098 -0.235217 8.83474e-21)
(1.50598 -0.134509 -7.63711e-21)
(1.51409 -0.018648 -3.50538e-21)
(1.52007 0.0987155 0)
(1.44513 0.182327 3.60026e-21)
(1.40472 0.245412 -2.6669e-20)
(1.29456 0.276318 2.6694e-20)
(0.945577 0.0043101 -1.41888e-20)
(0.943827 0.00233303 1.59725e-21)
(0.941983 0.00197238 -1.65741e-21)
(0.940584 -0.000223895 1.75402e-21)
(0.939625 -0.00305657 -1.7877e-21)
(0.940934 -0.00876785 1.24396e-20)
(0.939989 -0.0134863 -1.44246e-20)
(0.942649 -0.0217352 0)
(0.943116 -0.0277389 1.74693e-21)
(0.948537 -0.0379967 4.72064e-21)
(0.952099 -0.0442813 -6.44e-21)
(0.96092 -0.0565779 -5.73758e-21)
(0.968592 -0.0621294 6.51367e-21)
(0.982481 -0.0756042 -2.05252e-21)
(0.993656 -0.0786409 3.85841e-23)
(1.00797 -0.0905563 0)
(1.02334 -0.0872927 6.19732e-22)
(1.03538 -0.0908514 2.19723e-22)
(1.05033 -0.0831494 -9.58356e-22)
(1.06089 -0.0755766 0)
(1.06727 -0.0654848 -5.09945e-23)
(1.07042 -0.0530861 -1.75915e-21)
(1.06753 -0.045209 2.21361e-21)
(1.05798 -0.0421184 -3.96657e-22)
(1.04644 -0.043934 0)
(1.02775 -0.0573293 5.12016e-22)
(1.02471 -0.0760858 0)
(1.00824 -0.113289 0)
(1.02156 -0.158343 -1.22517e-21)
(1.02536 -0.216362 0)
(1.08766 -0.277871 -1.52041e-21)
(1.14234 -0.322155 2.54553e-21)
(1.27297 -0.354673 -2.54823e-21)
(1.36293 -0.321242 -1.14572e-21)
(1.51195 -0.242371 2.429e-20)
(1.5491 -0.11468 -2.03044e-20)
(1.59717 0.0278672 0)
(1.52135 0.152798 -5.41107e-21)
(1.48667 0.226472 4.11461e-20)
(1.36489 0.298888 -3.82553e-20)
(0.942559 0.00415905 -1.18538e-20)
(0.941224 0.00159706 0)
(0.938677 0.000783477 -1.82403e-21)
(0.93789 -0.00218785 1.11462e-20)
(0.935947 -0.00568196 -1.31964e-20)
(0.937818 -0.0117014 0)