/*--------------------------------*- C++ -*----------------------------------*\
  =========                 |
  \\      /  F ield         | OpenFOAM: The Open Source CFD Toolbox
   \\    /   O peration     | Website:  https://openfoam.org
    \\  /    A nd           | Version:  10
     \\/     M anipulation  |
\*---------------------------------------------------------------------------*/
FoamFile
{
    format      ascii;
    class       volScalarField;
    location    "0.951656";
    object      p;
}
// * * * * * * * * * * * * * * * * * * * * * * * * * * * * * * * * * * * * * //

dimensions      [1 -1 -2 0 0 0 0];

internalField   nonuniform List<scalar> 
16320
(
0.694175
0.693737
0.693034
0.691988
0.690923
0.688979
0.686471
0.682123
0.675601
0.669182
0.663263
0.657954
0.653243
0.648381
0.643215
0.637762
0.632837
0.627113
0.621166
0.615494
0.609847
0.604092
0.598252
0.593281
0.587747
0.581847
0.574828
0.568927
0.563535
0.55893
0.554134
0.54951
0.545323
0.541949
0.539418
0.537661
0.537013
0.53746
0.538886
0.541645
0.546151
0.552188
0.560011
0.569369
0.580099
0.590712
0.601461
0.61054
0.617504
0.622357
0.62557
0.62762
0.628015
0.626437
0.62302
0.618991
0.617984
0.616133
0.610313
0.614511
0.618328
0.62177
0.626416
0.632298
0.638948
0.645968
0.653987
0.662528
0.671098
0.679526
0.687709
0.695636
0.702925
0.709247
0.714666
0.719011
0.721625
0.724807
0.724967
0.72381
0.721569
0.718697
0.716243
0.713971
0.711598
0.710326
0.708927
0.706806
0.703867
0.699783
0.695666
0.690869
0.685644
0.681121
0.677597
0.67559
0.675404
0.676553
0.679137
0.68289
0.685095
0.688777
0.691644
0.693245
0.69258
0.696854
0.697075
0.693915
0.689465
0.684261
0.678588
0.672289
0.665627
0.694631
0.693866
0.69289
0.691609
0.690566
0.689136
0.686659
0.6835
0.676704
0.669545
0.662451
0.656391
0.651061
0.646306
0.641378
0.636117
0.630629
0.62543
0.619752
0.6139
0.607702
0.60173
0.59599
0.590735
0.585154
0.579615
0.574796
0.569646
0.564429
0.558949
0.552846
0.547928
0.543957
0.54094
0.538573
0.537322
0.536809
0.537588
0.539035
0.541669
0.546017
0.552106
0.560116
0.569971
0.58136
0.59305
0.604216
0.613834
0.621548
0.626153
0.629487
0.631701
0.632567
0.631826
0.628547
0.622431
0.619829
0.618054
0.615799
0.613307
0.618641
0.623149
0.627917
0.633947
0.640614
0.647958
0.656181
0.664777
0.673405
0.681901
0.690131
0.697982
0.705162
0.711485
0.716789
0.720876
0.723602
0.724897
0.726142
0.724878
0.722674
0.719797
0.716755
0.713914
0.711067
0.708362
0.706085
0.703733
0.700673
0.696986
0.692338
0.686957
0.681972
0.67737
0.673792
0.671816
0.671842
0.673322
0.67672
0.681016
0.684944
0.688897
0.691877
0.693721
0.693183
0.693797
0.696349
0.693038
0.68914
0.684323
0.679073
0.673316
0.667117
0.695569
0.694517
0.693202
0.691842
0.690571
0.689251
0.687118
0.68325
0.678031
0.670218
0.662553
0.6552
0.649291
0.644471
0.639715
0.63455
0.629119
0.623339
0.617726
0.612264
0.606328
0.600361
0.594484
0.588381
0.582549
0.577095
0.572148
0.567262
0.562285
0.557355
0.553526
0.549759
0.546267
0.543401
0.541043
0.539617
0.539106
0.53927
0.539988
0.543294
0.54758
0.553657
0.561744
0.571719
0.583405
0.595442
0.606508
0.617205
0.623625
0.630386
0.632869
0.633894
0.634709
0.633949
0.630825
0.623864
0.618532
0.617247
0.61644
0.614163
0.618275
0.624168
0.629324
0.635707
0.642056
0.649883
0.658359
0.666905
0.675464
0.683898
0.69198
0.699596
0.706654
0.712849
0.717985
0.721908
0.724497
0.725736
0.725883
0.725305
0.722953
0.719993
0.716565
0.712976
0.709531
0.706022
0.703146
0.700138
0.696624
0.693121
0.688437
0.68317
0.67789
0.673333
0.669944
0.667997
0.668132
0.670026
0.673985
0.678982
0.683955
0.688464
0.691728
0.693625
0.693394
0.692677
0.695321
0.692133
0.688447
0.683997
0.679025
0.673609
0.667999
0.697232
0.695962
0.694519
0.692544
0.691282
0.68984
0.687802
0.684123
0.679256
0.671438
0.663276
0.655101
0.648331
0.643149
0.638293
0.633179
0.627753
0.622093
0.616234
0.609886
0.603965
0.598541
0.592731
0.58684
0.581009
0.5756
0.570193
0.564866
0.559846
0.555284
0.551446
0.547959
0.544718
0.541935
0.539745
0.538357
0.537949
0.538117
0.539358
0.541724
0.545788
0.5517
0.559778
0.569995
0.582019
0.595454
0.610296
0.623042
0.630969
0.634047
0.634013
0.635687
0.635659
0.63387
0.6298
0.62285
0.615971
0.614879
0.615091
0.616818
0.616409
0.623499
0.630312
0.63712
0.643622
0.652153
0.660712
0.669046
0.677404
0.685514
0.693342
0.700755
0.707585
0.71356
0.718522
0.722284
0.724772
0.72589
0.725716
0.724492
0.72246
0.71944
0.715762
0.711622
0.707413
0.703344
0.69974
0.696121
0.692274
0.688089
0.684305
0.678625
0.673202
0.66881
0.665698
0.664061
0.66436
0.666615
0.671066
0.6765
0.68222
0.687007
0.69061
0.692694
0.692621
0.69091
0.69259
0.692211
0.687659
0.683387
0.678585
0.673471
0.668392
0.699638
0.698186
0.69655
0.694358
0.692847
0.691186
0.689131
0.685259
0.680455
0.672674
0.664232
0.655501
0.647864
0.642246
0.637331
0.632125
0.626606
0.62084
0.614916
0.608802
0.602617
0.595957
0.589664
0.583779
0.578236
0.573517
0.568485
0.563347
0.558481
0.554195
0.550201
0.546355
0.542971
0.540263
0.538311
0.537205
0.536783
0.537066
0.538145
0.540485
0.544381
0.550124
0.558069
0.568282
0.580698
0.594811
0.609697
0.622745
0.631978
0.635378
0.637719
0.637229
0.637162
0.633826
0.628192
0.620604
0.613099
0.610222
0.611692
0.616106
0.61541
0.62278
0.63109
0.638711
0.645249
0.654643
0.663317
0.671316
0.67925
0.68706
0.694483
0.701558
0.70805
0.713778
0.718532
0.7221
0.724374
0.725278
0.724952
0.723483
0.721184
0.717951
0.713976
0.709493
0.704961
0.700311
0.696076
0.691882
0.68767
0.683164
0.67834
0.672916
0.667781
0.663631
0.660923
0.659872
0.660571
0.663286
0.668141
0.673831
0.679871
0.684848
0.688707
0.690772
0.690696
0.688875
0.690013
0.69063
0.686095
0.682345
0.677724
0.672815
0.668051
0.702715
0.701421
0.699538
0.697559
0.695399
0.693503
0.691422
0.687251
0.681932
0.674054
0.665388
0.656315
0.648196
0.642059
0.636866
0.63147
0.625752
0.619791
0.613672
0.607459
0.601185
0.594804
0.588561
0.582534
0.576614
0.570367
0.564892
0.560009
0.555612
0.552188
0.54866
0.545192
0.542049
0.539616
0.537953
0.536625
0.535766
0.535783
0.536615
0.538736
0.542419
0.547801
0.555246
0.565123
0.577622
0.592254
0.607714
0.621698
0.631622
0.637234
0.638365
0.637473
0.637966
0.632757
0.625718
0.616931
0.609315
0.605532
0.607422
0.613116
0.614633
0.621844
0.631505
0.640459
0.647151
0.657476
0.666284
0.67378
0.681248
0.688531
0.69548
0.702074
0.708121
0.713493
0.717965
0.721261
0.723281
0.723948
0.723425
0.721858
0.719512
0.716027
0.711773
0.706958
0.701904
0.696853
0.692056
0.687157
0.682265
0.676907
0.671334
0.665946
0.66126
0.657719
0.655696
0.655364
0.65651
0.659897
0.665135
0.671189
0.677294
0.682338
0.686274
0.688291
0.68827
0.686862
0.687499
0.688392
0.684354
0.680848
0.676363
0.671618
0.667124
0.705863
0.705419
0.70381
0.701794
0.699476
0.697064
0.694412
0.689864
0.683798
0.675767
0.666713
0.657334
0.648827
0.642415
0.636892
0.631191
0.625185
0.618951
0.612548
0.606057
0.599555
0.593078
0.586737
0.580589
0.57463
0.568851
0.563521
0.558648
0.554081
0.549321
0.54538
0.542145
0.539481
0.537776
0.536523
0.535455
0.534837
0.53495
0.53594
0.538038
0.541151
0.545458
0.55195
0.561015
0.572816
0.58703
0.602727
0.617735
0.629136
0.635544
0.637114
0.636135
0.633998
0.628976
0.620829
0.61198
0.604651
0.600835
0.602998
0.608649
0.612502
0.621329
0.631836
0.642904
0.649121
0.6607
0.669611
0.676602
0.683387
0.690014
0.696314
0.702292
0.707797
0.71275
0.716799
0.71974
0.721414
0.721822
0.721129
0.719456
0.717032
0.713368
0.708887
0.703795
0.6984
0.692922
0.687246
0.681461
0.675373
0.669107
0.66318
0.658039
0.654004
0.651291
0.650098
0.650406
0.652296
0.65648
0.661967
0.668301
0.674541
0.679595
0.683419
0.6854
0.685453
0.684646
0.684908
0.685624
0.682032
0.678737
0.674434
0.669843
0.665542
0.708943
0.709135
0.708113
0.706479
0.704182
0.701335
0.697772
0.692878
0.686075
0.677724
0.668353
0.658696
0.649956
0.643187
0.637294
0.631221
0.624855
0.618273
0.611534
0.604695
0.597883
0.591133
0.584531
0.578169
0.572119
0.566441
0.561222
0.556453
0.552067
0.547975
0.544349
0.541257
0.538544
0.535858
0.533663
0.532425
0.532023
0.532441
0.534087
0.536135
0.539042
0.543347
0.549545
0.557885
0.56818
0.580535
0.595054
0.609776
0.622078
0.629668
0.632747
0.631613
0.628978
0.623772
0.61523
0.606356
0.599514
0.596349
0.59857
0.603833
0.611028
0.620764
0.632398
0.645723
0.651046
0.664431
0.673237
0.679461
0.685534
0.691433
0.697014
0.702244
0.70711
0.711615
0.715071
0.717558
0.718799
0.71891
0.718081
0.716434
0.713885
0.710075
0.705395
0.700075
0.694267
0.68802
0.681355
0.674137
0.666898
0.660037
0.654137
0.649524
0.646334
0.644562
0.644255
0.645324
0.648026
0.65275
0.658691
0.665316
0.671578
0.676558
0.68017
0.682004
0.682242
0.681937
0.682331
0.68214
0.679227
0.676026
0.671934
0.667534
0.663399
0.711639
0.712078
0.7117
0.71042
0.708303
0.705168
0.701117
0.695554
0.688262
0.679508
0.669865
0.660181
0.651599
0.644441
0.638016
0.631474
0.624703
0.617731
0.610638
0.603384
0.596221
0.589128
0.582208
0.575574
0.569352
0.563622
0.558447
0.553821
0.549688
0.545959
0.54261
0.539659
0.537039
0.534763
0.532986
0.531908
0.531456
0.53141
0.53137
0.532476
0.534873
0.538862
0.545492
0.553019
0.56233
0.57404
0.587116
0.599822
0.610976
0.619002
0.622851
0.622369
0.620451
0.616293
0.608616
0.600391
0.594456
0.592502
0.595201
0.601124
0.609855
0.620455
0.635916
0.648127
0.654628
0.667984
0.676829
0.682391
0.687707
0.692801
0.69755
0.70192
0.706221
0.709994
0.712814
0.714762
0.715419
0.715301
0.714425
0.712778
0.709919
0.706015
0.701188
0.695568
0.689034
0.681549
0.673558
0.665179
0.657136
0.650181
0.644684
0.640817
0.638612
0.637838
0.638313
0.640335
0.643836
0.649148
0.655649
0.662381
0.668465
0.673323
0.676715
0.678294
0.678778
0.678536
0.679413
0.678125
0.675987
0.672842
0.668972
0.664858
0.660805
0.713039
0.713904
0.713944
0.712958
0.711053
0.708016
0.703405
0.697325
0.689664
0.68076
0.671233
0.661788
0.653214
0.645731
0.638875
0.631918
0.624739
0.617349
0.609801
0.602154
0.594541
0.587073
0.5798
0.572823
0.566351
0.560473
0.555321
0.550953
0.54718
0.543738
0.54059
0.537732
0.535212
0.533152
0.53165
0.53071
0.530306
0.530357
0.530842
0.532148
0.534411
0.537558
0.54086
0.545933
0.553468
0.564855
0.576422
0.588526
0.598912
0.606119
0.610071
0.61087
0.609969
0.607246
0.601522
0.594608
0.590138
0.590099
0.593446
0.600482
0.610295
0.623735
0.637555
0.65054
0.657173
0.672633
0.680545
0.685202
0.689742
0.694019
0.697813
0.701398
0.705184
0.707868
0.710008
0.71115
0.711457
0.711061
0.710092
0.708163
0.705094
0.70102
0.695821
0.689563
0.681964
0.673616
0.664114
0.65491
0.646771
0.640074
0.635154
0.632186
0.631028
0.631163
0.632774
0.6357
0.639815
0.64582
0.65298
0.659572
0.665291
0.669915
0.673016
0.67436
0.675288
0.674794
0.67604
0.674021
0.672309
0.669228
0.665592
0.661801
0.657973
0.713318
0.714418
0.714793
0.713962
0.712129
0.709065
0.704337
0.698151
0.690483
0.681724
0.672407
0.663209
0.654657
0.646993
0.639796
0.632512
0.624953
0.617122
0.609145
0.600911
0.592779
0.584971
0.577415
0.570093
0.563363
0.557229
0.551949
0.547615
0.543931
0.540727
0.537839
0.535144
0.532785
0.531187
0.53
0.529214
0.52889
0.52904
0.529712
0.53107
0.533105
0.535842
0.5393
0.54392
0.549519
0.555002
0.563226
0.575051
0.584842
0.592907
0.597477
0.598978
0.598816
0.597614
0.594343
0.589404
0.587176
0.588703
0.593569
0.601344
0.612965
0.626727
0.640282
0.655531
0.662262
0.676432
0.683505
0.68756
0.691516
0.694909
0.697817
0.70087
0.70359
0.705385
0.706582
0.706923
0.706865
0.706224
0.704806
0.702443
0.69915
0.694589
0.688455
0.681396
0.672858
0.663213
0.653352
0.643951
0.636066
0.629933
0.625942
0.623917
0.623849
0.624885
0.62743
0.631402
0.636564
0.643109
0.650313
0.656712
0.661977
0.666175
0.668947
0.670126
0.671467
0.671183
0.672166
0.669755
0.668066
0.665278
0.661933
0.658416
0.655175
0.712421
0.713909
0.714337
0.713742
0.711887
0.709014
0.704337
0.698206
0.690625
0.682128
0.673168
0.664308
0.655967
0.64825
0.640863
0.633337
0.625471
0.617125
0.608808
0.600161
0.591698
0.584285
0.57769
0.571468
0.565461
0.55966
0.554208
0.54838
0.543682
0.539554
0.535872
0.532298
0.529888
0.528662
0.527852
0.527299
0.527343
0.527663
0.528445
0.52973
0.531561
0.533983
0.537099
0.541039
0.545709
0.550894
0.556834
0.562068
0.569479
0.57886
0.584418
0.58795
0.589624
0.589077
0.587511
0.585004
0.585366
0.588464
0.5949
0.604739
0.617134
0.632004
0.651783
0.661736
0.665176
0.680696
0.68582
0.689458
0.692695
0.695212
0.69764
0.700227
0.701353
0.702384
0.70256
0.702404
0.701834
0.700484
0.698561
0.69568
0.691713
0.686241
0.679703
0.671235
0.66173
0.651611
0.642067
0.633409
0.62583
0.620425
0.617445
0.61655
0.617014
0.619359
0.622996
0.6278
0.633672
0.640759
0.647799
0.653819
0.65853
0.662271
0.664515
0.665975
0.667093
0.667502
0.667742
0.66514
0.663457
0.661108
0.658129
0.654984
0.652161
0.70953
0.711861
0.712757
0.712388
0.71054
0.70742
0.703019
0.697227
0.690084
0.682039
0.673459
0.664951
0.656918
0.649394
0.642008
0.634431
0.626511
0.617783
0.606831
0.596074
0.586565
0.578362
0.57141
0.564795
0.558677
0.552825
0.547533
0.542617
0.538588
0.534953
0.532306
0.530805
0.529445
0.527508
0.525688
0.525261
0.525561
0.526063
0.527067
0.528374
0.530113
0.532298
0.535038
0.53832
0.542187
0.54657
0.551402
0.556321
0.561457
0.565323
0.571818
0.577137
0.579775
0.581707
0.582077
0.582861
0.585257
0.590004
0.598912
0.609759
0.624556
0.64473
0.651912
0.65612
0.676452
0.683762
0.687397
0.690786
0.693269
0.695074
0.697627
0.698303
0.698715
0.698688
0.698091
0.697352
0.696122
0.694313
0.691488
0.687629
0.682302
0.676024
0.668643
0.659867
0.650016
0.641038
0.63143
0.623051
0.616606
0.612448
0.610718
0.610456
0.612003
0.61507
0.619404
0.624748
0.631388
0.638515
0.645173
0.650765
0.655041
0.658414
0.659709
0.661593
0.662593
0.663514
0.662805
0.660859
0.658927
0.656892
0.654244
0.651436
0.648963
0.705084
0.708202
0.709704
0.70977
0.708254
0.70514
0.700755
0.69528
0.688546
0.68096
0.672975
0.665071
0.657534
0.650327
0.643098
0.635407
0.62653
0.615143
0.602777
0.590928
0.580217
0.571247
0.563968
0.558912
0.553335
0.547452
0.541921
0.53758
0.533666
0.530267
0.527917
0.526464
0.525468
0.524468
0.524461
0.524296
0.523822
0.52437
0.525465
0.526891
0.528679
0.530794
0.533303
0.536151
0.539386
0.543002
0.54693
0.551067
0.55535
0.55948
0.562648
0.566441
0.571471
0.57472
0.577389
0.580573
0.58554
0.593715
0.603547
0.617435
0.636612
0.642412
0.648504
0.667491
0.679873
0.684574
0.688128
0.69108
0.692917
0.694666
0.696346
0.695835
0.695452
0.694261
0.69326
0.691934
0.690154
0.687009
0.683287
0.677812
0.672251
0.665026
0.656963
0.648141
0.639337
0.630232
0.621887
0.614806
0.609558
0.606512
0.605544
0.605924
0.608089
0.611732
0.61647
0.622515
0.629293
0.636133
0.642252
0.647283
0.651036
0.653762
0.65494
0.656806
0.657964
0.658663
0.657792
0.656317
0.654561
0.652687
0.650299
0.647722
0.645557
0.698362
0.702496
0.705007
0.705863
0.704977
0.702205
0.697855
0.692056
0.685641
0.679098
0.671652
0.664522
0.65767
0.650964
0.644006
0.635881
0.624863
0.611511
0.598363
0.586272
0.575883
0.566687
0.557902
0.550878
0.545745
0.541348
0.537511
0.533417
0.529713
0.526795
0.524407
0.522699
0.521702
0.52116
0.521297
0.521753
0.52273
0.523437
0.523842
0.525514
0.52733
0.529442
0.531825
0.534443
0.537312
0.540402
0.543705
0.547164
0.550785
0.554597
0.558277
0.561957
0.565677
0.569171
0.574406
0.580623
0.587962
0.597358
0.610194
0.628105
0.632969
0.641058
0.658461
0.67391
0.680455
0.684435
0.687869
0.69038
0.691985
0.694037
0.693522
0.692648
0.691297
0.68946
0.68779
0.685789
0.682343
0.678747
0.673731
0.668425
0.661195
0.653686
0.645592
0.63746
0.629353
0.621805
0.614837
0.608948
0.604707
0.60248
0.60172
0.602814
0.605434
0.609121
0.614352
0.620523
0.627121
0.63342
0.638886
0.643227
0.646074
0.648816
0.65059
0.652076
0.653101
0.653822
0.652924
0.651752
0.650125
0.648041
0.645835
0.643866
0.642064
0.690231
0.694267
0.698068
0.700044
0.700057
0.698005
0.694066
0.688781
0.682521
0.675471
0.669337
0.663133
0.65705
0.650996
0.644297
0.634897
0.621919
0.607949
0.5946
0.582119
0.570587
0.562538
0.555898
0.54938
0.543499
0.538417
0.534101
0.530019
0.526358
0.523063
0.521086
0.519832
0.518986
0.51858
0.518807
0.519424
0.520424
0.521685
0.52344
0.52446
0.526262
0.52834
0.530663
0.53315
0.535808
0.538681
0.541592
0.544653
0.547859
0.551264
0.554845
0.558664
0.56285
0.567825
0.574137
0.582024
0.589816
0.601581
0.619524
0.625078
0.632676
0.649901
0.666417
0.674549
0.679295
0.68336
0.686538
0.688634
0.690957
0.690862
0.690032
0.688639
0.686228
0.683971
0.681318
0.678063
0.674419
0.669781
0.66541
0.657616
0.650244
0.64235
0.63559
0.628365
0.621797
0.615287
0.609809
0.605512
0.602107
0.600563
0.600116
0.601216
0.603535
0.607413
0.612635
0.618596
0.624634
0.630171
0.635009
0.638838
0.642263
0.644318
0.645978
0.64734
0.648319
0.648872
0.648239
0.647244
0.645765
0.644135
0.642188
0.640211
0.638383
0.681752
0.685413
0.68902
0.692329
0.693709
0.692647
0.689395
0.684672
0.679014
0.672749
0.666631
0.661017
0.655558
0.650093
0.643493
0.632488
0.618731
0.604639
0.590923
0.579082
0.5698
0.561917
0.554481
0.547448
0.541332
0.535551
0.530374
0.526276
0.522988
0.520593
0.518405
0.517072
0.516497
0.516539
0.516973
0.517666
0.51856
0.519953
0.521698
0.523724
0.525502
0.527561
0.529828
0.532273
0.534848
0.537572
0.540382
0.543274
0.546343
0.549644
0.553215
0.557178
0.561816
0.567438
0.574934
0.582515
0.593285
0.608822
0.616856
0.622258
0.641462
0.657706
0.666758
0.672326
0.677029
0.681111
0.683891
0.686641
0.68707
0.686697
0.685476
0.68337
0.680534
0.677488
0.673945
0.670193
0.666066
0.661273
0.654303
0.646933
0.639252
0.633392
0.626007
0.620456
0.615165
0.611213
0.606902
0.603627
0.601151
0.599852
0.59929
0.600635
0.602704
0.606381
0.611174
0.6165
0.621683
0.626484
0.630597
0.634069
0.637323
0.639494
0.641207
0.642576
0.643617
0.643919
0.643755
0.64294
0.641663
0.640192
0.638296
0.636402
0.634465
0.672437
0.676145
0.68094
0.683045
0.685337
0.685692
0.683388
0.679703
0.674774
0.669291
0.663559
0.658374
0.653442
0.648235
0.641529
0.629509
0.615816
0.602176
0.589487
0.578173
0.569227
0.560969
0.552777
0.545355
0.538102
0.532042
0.526903
0.523002
0.520014
0.517736
0.515815
0.514988
0.514817
0.514813
0.515185
0.516005
0.517319
0.518918
0.52054
0.522763
0.524932
0.527073
0.52929
0.531728
0.534328
0.537032
0.539855
0.542771
0.545916
0.549367
0.553169
0.557415
0.562337
0.56833
0.574718
0.582837
0.593908
0.606719
0.61488
0.632882
0.647752
0.657036
0.663356
0.66887
0.673872
0.67765
0.680652
0.682116
0.682185
0.681408
0.679653
0.67699
0.673804
0.670068
0.666028
0.661832
0.656839
0.651272
0.643992
0.636562
0.628945
0.623158
0.617444
0.613661
0.610179
0.607395
0.604929
0.602706
0.601012
0.599917
0.599455
0.600367
0.602288
0.605509
0.609607
0.614157
0.618666
0.62263
0.626479
0.629977
0.632463
0.634557
0.636299
0.637648
0.639036
0.639361
0.639397
0.638775
0.637638
0.636231
0.634308
0.632298
0.63025
0.660591
0.666593
0.670982
0.673983
0.676733
0.67749
0.67615
0.673196
0.669534
0.665002
0.660017
0.655215
0.650665
0.645584
0.638819
0.626544
0.613207
0.600105
0.588329
0.577252
0.56884
0.56067
0.552508
0.545185
0.537288
0.530883
0.525575
0.521308
0.517721
0.514859
0.513787
0.513375
0.513261
0.513538
0.514132
0.51501
0.516364
0.517999
0.519917
0.522196
0.524378
0.526725
0.528983
0.531468
0.53415
0.536936
0.539822
0.542881
0.546164
0.549796
0.553836
0.558464
0.564021
0.570784
0.578873
0.58816
0.600165
0.611553
0.622214
0.635451
0.645532
0.652594
0.6592
0.665139
0.669304
0.672505
0.675991
0.676361
0.676095
0.674829
0.672597
0.669524
0.665843
0.66182
0.657455
0.653112
0.647957
0.641582
0.634082
0.626279
0.619458
0.61387
0.609596
0.607348
0.605712
0.604421
0.603295
0.602219
0.601091
0.6004
0.600005
0.60058
0.602122
0.604688
0.608071
0.611867
0.615731
0.618837
0.622197
0.625126
0.627549
0.62966
0.631453
0.632845
0.634272
0.634833
0.635095
0.634664
0.633614
0.632193
0.63009
0.628037
0.625905
0.64812
0.65486
0.660309
0.664301
0.667027
0.66828
0.668129
0.665359
0.662906
0.659672
0.655584
0.651418
0.647256
0.642324
0.635749
0.623763
0.610928
0.598253
0.587217
0.576765
0.568827
0.559634
0.550427
0.540636
0.532095
0.525934
0.520959
0.517681
0.51533
0.514256
0.513564
0.512555
0.511905
0.51258
0.513682
0.51413
0.5157
0.517318
0.519289
0.52166
0.524174
0.526585
0.52874
0.531431
0.534274
0.53712
0.540116
0.543318
0.546779
0.550651
0.555034
0.560116
0.566128
0.573342
0.581904
0.591569
0.602015
0.612519
0.622954
0.63262
0.640407
0.648111
0.654732
0.659631
0.663709
0.667416
0.66868
0.669216
0.668646
0.666878
0.664233
0.66095
0.657225
0.653102
0.648588
0.643746
0.638179
0.631431
0.623934
0.616156
0.610243
0.605095
0.602307
0.601441
0.601252
0.601508
0.601696
0.601647
0.601259
0.600906
0.600636
0.600993
0.602116
0.604
0.606432
0.609517
0.612538
0.615326
0.618057
0.620517
0.622787
0.624865
0.626657
0.628093
0.629588
0.630284
0.630692
0.630402
0.62943
0.628037
0.625746
0.623725
0.621528
0.635961
0.642944
0.648948
0.653587
0.656825
0.658734
0.658853
0.657158
0.654823
0.652835
0.650115
0.646885
0.643175
0.638568
0.632384
0.621039
0.608828
0.596892
0.585751
0.575926
0.567245
0.556097
0.547254
0.534756
0.525014
0.519027
0.515104
0.513005
0.512064
0.51183
0.511974
0.512059
0.512948
0.512813
0.513073
0.513903
0.515803
0.517266
0.51921
0.521533
0.524128
0.5269
0.529653
0.531574
0.534716
0.537525
0.540658
0.544071
0.547753
0.551859
0.556512
0.561867
0.568054
0.575203
0.583335
0.592142
0.601536
0.610982
0.620009
0.627904
0.636454
0.643179
0.648891
0.653753
0.657851
0.659704
0.660713
0.660845
0.659719
0.657632
0.654964
0.6518
0.648146
0.644017
0.639202
0.633963
0.627935
0.621309
0.614109
0.60649
0.601364
0.597295
0.595703
0.595983
0.59708
0.598664
0.600054
0.600871
0.601176
0.601219
0.601222
0.601388
0.6021
0.603489
0.604645
0.607253
0.609657
0.61192
0.614084
0.616198
0.618234
0.620197
0.6219
0.623269
0.62481
0.625678
0.626187
0.626032
0.625117
0.623604
0.621636
0.619411
0.61718
0.625198
0.631557
0.63763
0.642441
0.645792
0.647716
0.648187
0.647065
0.645258
0.645301
0.643938
0.641685
0.638504
0.63442
0.628724
0.61822
0.606592
0.595351
0.583869
0.574378
0.564856
0.55234
0.54336
0.529756
0.519519
0.513796
0.51064
0.509023
0.508369
0.508498
0.509616
0.510731
0.512089
0.512907
0.51408
0.515262
0.516045
0.517626
0.519848
0.522108
0.524571
0.527394
0.530262
0.53322
0.535395
0.537934
0.541566
0.545091
0.548745
0.553103
0.558153
0.563678
0.569831
0.576678
0.584297
0.592504
0.600964
0.609182
0.616604
0.625862
0.63229
0.638781
0.643243
0.646823
0.650366
0.651412
0.651913
0.651201
0.649662
0.64764
0.645175
0.642195
0.638651
0.634558
0.629655
0.62413
0.617999
0.611477
0.604787
0.597633
0.593214
0.590488
0.589681
0.591031
0.593182
0.595805
0.598139
0.599775
0.600687
0.60109
0.601272
0.601487
0.601985
0.602217
0.603716
0.605421
0.607102
0.608814
0.610438
0.612199
0.613929
0.61564
0.617143
0.618354
0.62
0.62099
0.621556
0.621528
0.620722
0.619243
0.617365
0.615105
0.61286
0.616898
0.621992
0.627098
0.63148
0.634534
0.636031
0.636033
0.635391
0.63571
0.637068
0.637022
0.635568
0.633031
0.629898
0.624174
0.615004
0.604039
0.593367
0.582188
0.572431
0.562195
0.549114
0.539025
0.525627
0.516274
0.51132
0.508735
0.50801
0.508069
0.508984
0.509694
0.51029
0.511498
0.51279
0.514474
0.515855
0.517243
0.518984
0.520353
0.522569
0.525502
0.528198
0.530773
0.533608
0.536476
0.540088
0.543025
0.545969
0.549876
0.554708
0.55981
0.565173
0.571127
0.577932
0.585122
0.592384
0.599856
0.607865
0.61601
0.62227
0.62822
0.632532
0.636817
0.640406
0.641482
0.642102
0.641867
0.640428
0.638922
0.63714
0.634969
0.632245
0.628878
0.624878
0.620178
0.614558
0.608443
0.602028
0.595934
0.590091
0.585531
0.584362
0.584379
0.586466
0.589593
0.592981
0.596082
0.598376
0.599821
0.60061
0.601027
0.601294
0.601146
0.601998
0.602873
0.603941
0.604949
0.606012
0.607308
0.608575
0.609894
0.611227
0.612446
0.613265
0.615143
0.616175
0.616771
0.616866
0.616218
0.614821
0.612964
0.61083
0.608574
0.609283
0.613426
0.61769
0.621174
0.623691
0.624462
0.623137
0.624936
0.627323
0.62889
0.629534
0.628735
0.626925
0.624156
0.618772
0.611268
0.601179
0.591228
0.580554
0.570308
0.5594
0.546041
0.53463
0.521975
0.513632
0.509434
0.506377
0.506109
0.506795
0.508007
0.509465
0.512365
0.513208
0.515207
0.515704
0.517253
0.51875
0.520534
0.522863
0.524963
0.526672
0.528375
0.53159
0.534459
0.537484
0.5408
0.544142
0.548202
0.552734
0.557148
0.561873
0.56672
0.572676
0.579135
0.586069
0.593826
0.601255
0.607753
0.613725
0.619006
0.623409
0.627485
0.630351
0.632007
0.632203
0.632021
0.630671
0.629088
0.627576
0.626061
0.624251
0.621903
0.618852
0.615122
0.610587
0.605281
0.599337
0.593236
0.587564
0.582745
0.579318
0.579117
0.579959
0.582507
0.586289
0.590293
0.593978
0.59682
0.598693
0.599854
0.600564
0.600306
0.600946
0.601432
0.602115
0.602899
0.602995
0.603743
0.604603
0.605405
0.606236
0.607101
0.607975
0.608521
0.610059
0.611165
0.611829
0.612048
0.611588
0.610344
0.608558
0.606506
0.604348
0.602753
0.60546
0.60857
0.611576
0.612913
0.611187
0.61477
0.617304
0.619226
0.620788
0.621548
0.621102
0.619774
0.617231
0.614177
0.607581
0.598235
0.588685
0.578449
0.567865
0.556271
0.542657
0.530241
0.519037
0.511394
0.506727
0.503515
0.503229
0.504291
0.505865
0.507724
0.51156
0.514887
0.5177
0.519029
0.521032
0.521721
0.523377
0.525108
0.527046
0.529077
0.531992
0.533963
0.536312
0.539165
0.542237
0.545699
0.54977
0.554281
0.559006
0.564206
0.57054
0.576651
0.582919
0.589301
0.595262
0.601323
0.607036
0.612111
0.616874
0.619697
0.621687
0.623435
0.623249
0.622426
0.621128
0.6189
0.617014
0.615286
0.613868
0.612414
0.610567
0.608004
0.604862
0.600657
0.59572
0.590596
0.585202
0.58019
0.576234
0.57417
0.574244
0.575957
0.579162
0.583393
0.587927
0.592015
0.595296
0.597473
0.598895
0.599411
0.600217
0.600588
0.600965
0.601398
0.6018
0.601619
0.601813
0.60226
0.602657
0.60299
0.603396
0.603921
0.604446
0.604727
0.606119
0.606927
0.607108
0.606801
0.605842
0.604227
0.602195
0.600056
0.593391
0.596357
0.599187
0.600775
0.601084
0.606174
0.607998
0.609641
0.611143
0.612334
0.612994
0.612821
0.611945
0.610067
0.607665
0.603118
0.59454
0.585724
0.575856
0.565033
0.552984
0.539538
0.527413
0.517261
0.510581
0.506894
0.50522
0.505105
0.505971
0.508225
0.510896
0.513169
0.515317
0.517911
0.522868
0.524425
0.526605
0.527487
0.5288
0.530465
0.531947
0.534278
0.536481
0.538638
0.541312
0.544712
0.548028
0.552078
0.556689
0.56163
0.566983
0.572868
0.578945
0.585082
0.591118
0.596855
0.602276
0.607162
0.611392
0.613746
0.61607
0.617082
0.616572
0.614795
0.612456
0.609655
0.606451
0.603728
0.601649
0.600208
0.599131
0.598049
0.596329
0.593394
0.58969
0.585393
0.581381
0.577467
0.573809
0.571044
0.569799
0.570237
0.572675
0.576528
0.58112
0.585959
0.59041
0.593982
0.596423
0.597735
0.598818
0.599818
0.60029
0.600686
0.600961
0.600804
0.600737
0.600635
0.600424
0.600291
0.600266
0.600252
0.600333
0.60053
0.600789
0.600617
0.60183
0.602236
0.602022
0.601384
0.600068
0.598172
0.596053
0.582994
0.585845
0.588937
0.593128
0.597313
0.599087
0.600425
0.601475
0.60238
0.603188
0.603969
0.604342
0.603986
0.602632
0.600143
0.597993
0.590947
0.582315
0.572758
0.561938
0.549743
0.537045
0.525253
0.515795
0.510106
0.5062
0.505089
0.505273
0.506801
0.508857
0.512264
0.515748
0.519188
0.522322
0.524068
0.529266
0.530706
0.532356
0.533742
0.535109
0.537434
0.538067
0.539866
0.54186
0.544489
0.547532
0.551275
0.555179
0.560081
0.565202
0.570669
0.576492
0.58251
0.588508
0.594249
0.599467
0.604087
0.608005
0.610215
0.611944
0.612105
0.611909
0.609682
0.606442
0.602569
0.598165
0.593664
0.590398
0.588144
0.586536
0.585309
0.584159
0.582848
0.580968
0.578534
0.575455
0.571679
0.568452
0.566771
0.566525
0.566337
0.567511
0.570283
0.574529
0.579512
0.584451
0.589161
0.59311
0.596045
0.596364
0.598172
0.599413
0.600069
0.60064
0.601255
0.599899
0.599973
0.599619
0.599081
0.598597
0.598182
0.59781
0.597503
0.597223
0.597036
0.597063
0.596716
0.597115
0.597377
0.597055
0.596085
0.594557
0.592552
0.578364
0.58135
0.584792
0.587076
0.589562
0.591314
0.592426
0.593164
0.593827
0.594577
0.595533
0.596368
0.596508
0.595631
0.59357
0.591964
0.58699
0.578156
0.569365
0.55877
0.546991
0.534705
0.523477
0.514763
0.509258
0.505817
0.504859
0.505137
0.506825
0.509724
0.513067
0.517214
0.521485
0.525793
0.529207
0.531289
0.536283
0.537445
0.539439
0.541335
0.541854
0.543712
0.545843
0.546187
0.548531
0.55179
0.555491
0.559097
0.564547
0.569626
0.5753
0.581186
0.58715
0.592885
0.598281
0.603173
0.606809
0.60876
0.610234
0.61044
0.609502
0.607335
0.603215
0.598386
0.592991
0.586943
0.581587
0.577881
0.575263
0.573379
0.57177
0.570413
0.569207
0.567768
0.566025
0.5642
0.5623
0.560995
0.560834
0.560621
0.56299
0.565749
0.568887
0.573153
0.578301
0.583305
0.588033
0.5921
0.595258
0.595998
0.59771
0.599049
0.599932
0.600556
0.601029
0.599655
0.59938
0.598716
0.597862
0.597052
0.596351
0.595701
0.595108
0.594559
0.594089
0.593716
0.593371
0.593068
0.591928
0.592781
0.592361
0.591204
0.58959
0.573752
0.576199
0.577908
0.580134
0.582061
0.583543
0.58459
0.585302
0.585962
0.586784
0.587942
0.589137
0.589756
0.589278
0.58774
0.585341
0.582293
0.574559
0.565883
0.555644
0.544364
0.532692
0.52203
0.513568
0.508586
0.505606
0.504621
0.504914
0.506861
0.510161
0.514115
0.519013
0.523687
0.528707
0.533325
0.537186
0.539445
0.544092
0.544649
0.546111
0.548283
0.54904
0.549575
0.553533
0.55412
0.556697
0.560495
0.564985
0.569257
0.575101
0.580976
0.58691
0.592729
0.5981
0.60275
0.60631
0.608863
0.610367
0.61052
0.608978
0.606819
0.602574
0.596944
0.590585
0.583836
0.576426
0.570345
0.566028
0.562135
0.560127
0.558586
0.557102
0.555926
0.554995
0.554179
0.553343
0.552791
0.553066
0.554254
0.556414
0.559541
0.563208
0.568146
0.572426
0.577252
0.582501
0.587147
0.591061
0.594194
0.596091
0.597424
0.598812
0.600076
0.600481
0.6005
0.599876
0.598875
0.597904
0.596746
0.59559
0.594632
0.593692
0.592885
0.592174
0.591546
0.590991
0.590519
0.590076
0.589611
0.588363
0.588639
0.588158
0.587013
0.567754
0.569582
0.571224
0.573112
0.574861
0.576205
0.577209
0.578062
0.57883
0.57985
0.581231
0.582707
0.583736
0.583567
0.582416
0.579436
0.576805
0.570941
0.562823
0.552802
0.542176
0.531331
0.521222
0.513358
0.50833
0.505583
0.504479