/*--------------------------------*- C++ -*----------------------------------*\
  =========                 |
  \\      /  F ield         | OpenFOAM: The Open Source CFD Toolbox
   \\    /   O peration     | Website:  https://openfoam.org
    \\  /    A nd           | Version:  10
     \\/     M anipulation  |
\*---------------------------------------------------------------------------*/
FoamFile
{
    format      ascii;
    class       surfaceScalarField;
    location    "0.951656";
    object      phi;
}
// * * * * * * * * * * * * * * * * * * * * * * * * * * * * * * * * * * * * * //

dimensions      [1 0 -1 0 0 0 0];

internalField   nonuniform List<scalar> 
32368
(
-3.64563e-05
-5.07376e-05
-2.7827e-05
-3.55607e-05
-1.96697e-05
-1.94449e-05
-1.47085e-05
-4.46751e-06
-1.23179e-05
9.21211e-06
-1.42665e-05
2.17307e-05
-2.22903e-05
4.10403e-05
-2.5035e-05
6.45324e-05
-2.41661e-05
7.07996e-05
-1.89161e-05
7.05325e-05
-1.16533e-05
6.03038e-05
-6.85939e-06
4.80964e-05
-5.18062e-06
4.22071e-05
-3.2355e-06
4.32544e-05
-5.85474e-07
4.59987e-05
2.34e-06
5.02669e-05
6.1061e-06
5.62883e-05
1.05979e-05
6.22906e-05
1.53481e-05
6.69852e-05
2.02584e-05
7.09584e-05
2.51789e-05
7.43133e-05
3.00611e-05
7.66498e-05
3.42125e-05
7.78882e-05
3.83495e-05
7.84345e-05
4.22648e-05
7.81387e-05
4.63738e-05
7.66667e-05
5.0448e-05
7.43095e-05
5.47545e-05
7.2048e-05
5.90855e-05
7.015e-05
6.35622e-05
6.88128e-05
6.78976e-05
6.79257e-05
7.20919e-05
6.72303e-05
7.60295e-05
6.63031e-05
7.99562e-05
6.53807e-05
8.34795e-05
6.4641e-05
8.65306e-05
6.33834e-05
8.97955e-05
6.22662e-05
9.32052e-05
6.17783e-05
9.64253e-05
6.13931e-05
9.91451e-05
6.13747e-05
0.00010187
6.1659e-05
0.000103544
6.27639e-05
0.000104614
6.33367e-05
0.000104986
6.48343e-05
0.000104455
6.59645e-05
0.000106288
6.75573e-05
0.000111073
7.07256e-05
0.000120586
7.62685e-05
0.000136033
8.53077e-05
0.000163348
0.000100341
0.000212731
0.000126294
0.000285601
0.000169932
0.000367904
0.000226985
0.000426752
0.00028446
0.000451424
0.000320426
0.000453017
0.000331055
0.000433711
0.000324428
0.00036903
0.000300019
0.000271941
0.000245925
0.000210398
0.00018327
0.000176216
0.000136593
0.000151978
0.000104759
0.000125893
7.58986e-05
9.88973e-05
4.41909e-05
7.64846e-05
1.39135e-05
6.01499e-05
-1.27261e-05
4.77685e-05
-3.48426e-05
3.68083e-05
-5.08248e-05
2.74878e-05
-6.00498e-05
2.02059e-05
-6.73079e-05
1.37227e-05
-7.42009e-05
7.70182e-06
-7.89092e-05
2.5639e-06
-8.08584e-05
-1.28125e-06
-8.13738e-05
-3.5754e-06
-8.07173e-05
-4.23423e-06
-7.88621e-05
-2.48104e-06
-7.6139e-05
2.82643e-06
-7.66672e-05
8.16337e-06
-8.00219e-05
1.33623e-05
-8.01792e-05
1.75655e-05
-7.88312e-05
1.9147e-05
-7.72821e-05
1.77579e-05
-7.77971e-05
1.47612e-05
-7.90051e-05
1.04412e-05
-7.65592e-05
8.61277e-06
-6.62205e-05
8.3156e-06
-5.80674e-05
9.89176e-06
-5.54726e-05
1.55993e-05
-5.62029e-05
2.85452e-05
-6.76947e-05
4.91271e-05
-8.28642e-05
7.32105e-05
-9.16188e-05
9.6608e-05
-8.81917e-05
0.000122228
-7.52519e-05
0.0001458
-5.88836e-05
0.000161132
-4.22866e-05
0.00016823
-2.98448e-05
0.000168728
-2.51997e-05
0.000160407
-3.17824e-05
0.000138775
-5.10135e-05
0.000109444
-7.84596e-05
8.30306e-05
-0.000116975
5.46831e-05
-0.00017386
2.29615e-05
-0.000233707
-1.47359e-06
-0.000238718
-9.1604e-06
-0.000182456
-1.37352e-05
-0.000181135
-1.72028e-05
-0.000195903
-2.00301e-05
-0.00016223
-2.53499e-05
-0.000120098
-3.33554e-05
-9.13524e-05
-4.66019e-05
-7.0178e-05
-5.55372e-05
-6.69914e-05
-4.25834e-05
-5.54522e-05
-3.41533e-05
-3.99665e-05
-2.59375e-05
-2.33663e-05
-1.93918e-05
-7.64129e-06
-1.56755e-05
6.82719e-06
-1.49457e-05
1.96951e-05
-2.01197e-05
3.39777e-05
-2.72935e-05
5.89845e-05
-2.79243e-05
7.48114e-05
-2.53361e-05
7.78133e-05
-1.86559e-05
7.26706e-05
-1.12077e-05
5.9481e-05
-6.95469e-06
4.69124e-05
-5.08845e-06
4.26407e-05
-2.73315e-06
4.36096e-05
2.85051e-07
4.59471e-05
3.62702e-06
4.98478e-05
7.64498e-06
5.52959e-05
1.25372e-05
6.14479e-05
1.78934e-05
6.66128e-05
2.33074e-05
7.0579e-05
2.86562e-05
7.36831e-05
3.36846e-05
7.58979e-05
3.88279e-05
7.77076e-05
4.37346e-05
7.87178e-05
4.82635e-05
7.89877e-05
5.23988e-05
7.87513e-05
5.63119e-05
7.77558e-05
6.00613e-05
7.61783e-05
6.38773e-05
7.42074e-05
6.75522e-05
7.16306e-05
7.12237e-05
6.91834e-05
7.47926e-05
6.68615e-05
7.85075e-05
6.49212e-05
8.1945e-05
6.33487e-05
8.49078e-05
6.19541e-05
8.78039e-05
6.05506e-05
9.13889e-05
5.98465e-05
9.45517e-05
5.99256e-05
9.76391e-05
6.00614e-05
0.000100461
6.07635e-05
0.000102392
6.24067e-05
0.000103301
6.36827e-05
0.000104046
6.55342e-05
0.000104137
6.85696e-05
0.000103186
6.90275e-05
0.000108177
7.25869e-05
0.000117036
7.81e-05
0.000133755
8.56791e-05
0.000156032
0.000102289
0.000195378
0.000124585
0.000255125
0.000163375
0.000330659
0.000215605
0.000404089
0.000273342
0.000449997
0.000320543
0.000464175
0.000342498
0.000461192
0.000344423
0.00042706
0.000330567
0.000343615
0.000293011
0.000252784
0.000229679
0.000202322
0.000164914
0.000173319
0.000123634
0.000147953
9.24367e-05
0.000118792
5.92419e-05
9.11219e-05
2.54826e-05
7.10719e-05
-4.66005e-06
5.65507e-05
-2.92524e-05
4.4112e-05
-4.6851e-05
3.40147e-05
-5.73091e-05
2.62829e-05
-6.49612e-05
1.97084e-05
-7.12606e-05
1.39422e-05
-7.58819e-05
8.98153e-06
-7.88886e-05
4.92376e-06
-8.04377e-05
2.01748e-06
-8.04867e-05
3.05955e-07
-7.89419e-05
5.81161e-07
-7.56537e-05
2.65163e-06
-7.18041e-05
8.57691e-06
-7.05733e-05
1.437e-05
-7.34154e-05
1.99261e-05
-7.48669e-05
2.40371e-05
-7.59267e-05
2.61833e-05
-7.71164e-05
2.60302e-05
-7.97456e-05
2.34795e-05
-8.05471e-05
1.86796e-05
-7.36172e-05
1.66673e-05
-6.30855e-05
1.67544e-05
-5.69192e-05
2.09174e-05
-5.46967e-05
3.2038e-05
-6.26814e-05
4.87919e-05
-7.73686e-05
6.87517e-05
-8.54765e-05
8.8553e-05
-8.33787e-05
0.000108425
-7.08605e-05
0.000130917
-5.45554e-05
0.00014995
-3.75009e-05
0.00016062
-2.28547e-05
0.000163815
-1.46019e-05
0.000160774
-1.63887e-05
0.000148961
-3.02729e-05
0.000125573
-5.63311e-05
0.000102362
-9.16585e-05
7.71507e-05
-0.000141949
4.56465e-05
-0.000201458
1.37952e-05
-0.000227995
-9.80462e-07
-0.000175566
-5.32597e-06
-0.000168773
-1.08504e-05
-0.000186364
-1.51788e-05
-0.000155436
-2.11613e-05
-0.000112618
-2.89862e-05
-8.42053e-05
-4.10496e-05
-6.31978e-05
-4.85868e-05
-5.96884e-05
-5.25725e-05
-6.07701e-05
-4.333e-05
-4.53273e-05
-3.41379e-05
-2.76025e-05
-2.63883e-05
-1.06788e-05
-2.18251e-05
4.09264e-06
-1.94812e-05
1.78005e-05
-2.11929e-05
3.11985e-05
-2.9208e-05
5.1922e-05
-3.26637e-05
7.35815e-05
-3.11825e-05
8.06928e-05
-2.59017e-05
7.97157e-05
-1.75266e-05
6.86329e-05
-1.05657e-05
5.34581e-05
-7.35697e-06
4.3205e-05
-5.07276e-06
4.15697e-05
-2.15666e-06
4.24034e-05
1.39148e-06
4.45766e-05
5.35356e-06
4.79104e-05
9.56176e-06
5.24385e-05
1.47449e-05
5.80251e-05
2.04221e-05
6.35205e-05
2.60711e-05
6.80761e-05
3.17456e-05
7.14415e-05
3.72259e-05
7.39486e-05
4.25258e-05
7.5571e-05
4.77186e-05
7.66288e-05
5.28823e-05
7.73646e-05
5.79638e-05
7.78094e-05
6.28913e-05
7.77525e-05
6.72813e-05
7.74061e-05
7.13897e-05
7.69227e-05
7.51754e-05
7.59677e-05
7.86384e-05
7.48178e-05
8.20008e-05
7.351e-05
8.51839e-05
7.25544e-05
8.83594e-05
7.16245e-05
9.10914e-05
7.09221e-05
9.43148e-05
7.04828e-05
9.77004e-05
7.04839e-05
0.000101821
7.22552e-05
0.00010559
7.39448e-05
0.000108601
7.68417e-05
0.000110432
7.98402e-05
0.00011229
8.2776e-05
0.000112892
8.70778e-05
0.000111826
9.01766e-05
0.00011332
9.0319e-05
0.000117062
9.22536e-05
0.00012855
9.27488e-05
0.000154949
0.000103477
0.00018961
0.000130415
0.000244746
0.0001642
0.000314956
0.000214591
0.000389059
0.000271971
0.000446554
0.000323653
0.000472891
0.000354301
0.000478384
0.000361344
0.000464028
0.000354154
0.000410832
0.000330584
0.000310422
0.000276169
0.000239146
0.000203442
0.000201359
0.000149883
0.000174292
0.00011355
0.000142772
7.72144e-05
0.000108116
3.85125e-05
8.32922e-05
3.66583e-06
6.61495e-05
-2.38335e-05
5.21478e-05
-4.31842e-05
4.11327e-05
-5.50301e-05
3.28586e-05
-6.2914e-05
2.63938e-05
-6.90405e-05
2.10417e-05
-7.41639e-05
1.64012e-05
-7.79544e-05
1.23508e-05
-8.00383e-05
9.02204e-06
-8.04396e-05
6.70508e-06
-7.92871e-05
5.61701e-06
-7.64448e-05
6.11385e-06
-7.21767e-05
8.50096e-06
-6.77725e-05
1.44225e-05
-6.66509e-05
2.03595e-05
-7.01719e-05
2.61575e-05
-7.39083e-05
3.03925e-05
-7.6756e-05
3.28247e-05
-7.8599e-05
3.27105e-05
-7.93541e-05
2.90885e-05
-7.48661e-05
2.61534e-05
-6.66731e-05
2.56694e-05
-6.10424e-05
2.77188e-05
-5.74102e-05
3.81745e-05
-6.01244e-05
5.37207e-05
-7.39643e-05
7.02627e-05
-8.15784e-05
8.59056e-05
-7.87077e-05
9.91611e-05
-6.68928e-05
0.000115364
-4.93822e-05
0.000133828
-3.15329e-05
0.000147544
-1.55909e-05
0.000153352
-4.71599e-06
0.00015254
-2.44294e-06
0.000145856
-1.20226e-05
0.000129385
-3.46086e-05
0.000111427
-6.74092e-05
9.03341e-05
-0.000113159
6.21928e-05
-0.000170546
2.77255e-05
-0.000206961
7.57802e-06
-0.000165865
2.40922e-07
-0.000157582
-5.56103e-06
-0.00017672
-1.1488e-05
-0.000147234
-1.82604e-05
-0.000105186
-2.61984e-05
-7.79254e-05
-3.7153e-05
-5.71072e-05
-4.25258e-05
-5.32284e-05
-6.61998e-05
-6.44876e-05
-5.63498e-05
-5.06586e-05
-4.44623e-05
-3.24272e-05
-3.53731e-05
-1.42275e-05
-3.01404e-05
1.22877e-06
-2.69723e-05
1.5834e-05
-2.77419e-05
2.93084e-05
-3.53296e-05
4.92897e-05
-3.91317e-05
7.18601e-05
-3.75026e-05
8.06757e-05
-3.29445e-05
8.16207e-05
-2.45175e-05
7.30739e-05
-1.57435e-05
5.75352e-05
-1.02063e-05
4.39632e-05
-7.40865e-06
3.96037e-05
-4.55625e-06
3.91295e-05
-1.07245e-06
4.00372e-05
2.94465e-06
4.19135e-05
7.51794e-06
4.45672e-05
1.22468e-05
4.78527e-05
1.73412e-05
5.184e-05
2.2881e-05
5.6588e-05
2.8695e-05
6.14967e-05
3.44698e-05
6.60939e-05
3.98873e-05
6.94603e-05
4.52621e-05
7.18653e-05
5.06911e-05
7.35551e-05
5.60454e-05
7.4658e-05
6.13694e-05
7.52892e-05
6.66961e-05
7.57715e-05
7.19788e-05
7.62893e-05
7.7221e-05
7.65781e-05
8.22786e-05
7.70672e-05
8.728e-05
7.71241e-05
9.24201e-05
7.77828e-05
9.72372e-05
7.84456e-05
0.000102301
7.89234e-05
0.000107457
8.04796e-05
0.000113414
8.21634e-05
0.000119583
8.5299e-05
0.000125632
8.84316e-05
0.000131863
9.32022e-05
0.000136229
9.89829e-05
0.000139761
0.000103852
0.000143493
0.000110837
0.000144746
0.000118225
0.0001427
0.000123828
0.000144408
0.000126671
0.000144416
0.000129029
0.000159106
0.000130392
0.000190962
0.000141862
0.00024047
0.000173445
0.000307441
0.000219771
0.000379953
0.000275595
0.000442224
0.00032849
0.00047918
0.000365155
0.000490742
0.000378034
0.000488261
0.000375004
0.000457947
0.000359645
0.000375307
0.000319499
0.000286287
0.000246747
0.000240265
0.000183956
0.000208589
0.000141615
0.000171898
9.91267e-05
0.000127929
5.313e-05
9.68328e-05
1.18574e-05
7.63583e-05
-1.8809e-05
6.07122e-05
-4.00753e-05
4.86303e-05
-5.31671e-05
3.98819e-05
-6.13975e-05
3.34925e-05
-6.80195e-05
2.84359e-05
-7.36085e-05
2.40074e-05
-7.76891e-05
1.99396e-05
-7.99167e-05
1.63937e-05
-8.06419e-05
1.35553e-05
-7.98733e-05
1.17099e-05
-7.72113e-05
1.10295e-05
-7.29936e-05
1.15978e-05
-6.81313e-05
1.42072e-05
-6.43836e-05
1.98563e-05
-6.61926e-05
2.63146e-05
-7.18965e-05
3.20324e-05
-7.61955e-05
3.58151e-05
-7.80034e-05
3.76007e-05
-7.76409e-05
3.59315e-05
-7.37582e-05
3.46104e-05
-6.7683e-05
3.49933e-05
-6.45403e-05
3.6966e-05
-6.23563e-05
4.52185e-05
-6.35146e-05
6.06294e-05
-7.15483e-05
7.45948e-05
-7.69185e-05
8.5828e-05
-7.31556e-05
9.45512e-05
-6.12612e-05
0.000103242
-4.37601e-05
0.000116221
-2.47739e-05
0.000130138
-7.81039e-06
0.000138039
5.33498e-06
0.000138794
1.07782e-05
0.000134713
4.84198e-06
0.000123553
-1.47683e-05
0.000110165
-4.53654e-05
9.40937e-05
-8.83424e-05
7.12076e-05
-0.000143226
3.84902e-05
-0.000183458
1.49228e-05
-0.00015195
5.69691e-06
-0.00014657
-6.75511e-07
-0.000164663
-8.63441e-06
-0.000137031
-1.66427e-05
-9.68422e-05
-2.50933e-05
-7.13689e-05
-3.5539e-05
-5.15139e-05
-3.72058e-05
-4.9015e-05
-8.02551e-05
-6.54199e-05
-7.26978e-05
-5.43731e-05
-5.94354e-05
-3.80468e-05
-4.76521e-05
-1.90525e-05
-4.13194e-05
-1.8764e-06
-3.72402e-05
1.39579e-05
-3.75331e-05
2.81402e-05
-4.56841e-05
4.81259e-05
-4.80664e-05
6.94965e-05
-4.44593e-05
7.84758e-05
-3.8942e-05
8.02553e-05
-2.97182e-05
7.25518e-05
-1.98829e-05
5.70404e-05
-1.29456e-05
4.27074e-05
-9.48586e-06
3.718e-05
-6.50695e-06
3.58266e-05
-3.14622e-06
3.58861e-05
7.11658e-07
3.68587e-05
4.97112e-06
3.84904e-05
9.48479e-06
4.06114e-05
1.43717e-05
4.31818e-05
1.95399e-05
4.60907e-05
2.488e-05
4.93582e-05
3.04118e-05
5.30915e-05
3.57569e-05
5.6698e-05
4.13795e-05
6.07152e-05
4.70704e-05
6.4628e-05
5.25318e-05
6.77752e-05
5.78224e-05
7.0095e-05
6.32139e-05
7.18853e-05
6.87117e-05
7.33999e-05
7.43075e-05
7.43571e-05
7.99195e-05
7.55691e-05
8.57386e-05
7.63188e-05
9.20374e-05
7.77857e-05
9.83582e-05
7.93822e-05
0.000105173
8.11334e-05
0.000112795
8.41332e-05
0.000121021
8.76045e-05
0.000129441
9.21273e-05
0.000138084
9.69667e-05
0.000147623
0.000103559
0.000155936
0.00011185
0.000163097
0.000119963
0.000170966
0.000130482
0.000177898
0.000142463
0.00018185
0.000154636
0.000183886
0.000163133
0.000190358
0.000167461
0.00019194
0.000174061
0.000206984
0.000176127
0.000248035
0.000196872
0.000307361
0.000235217
0.000374863
0.000286376
0.000439008
0.00033673
0.000483979
0.000376994
0.000502306
0.000395659
0.000505513
0.000395648
0.000491894
0.000384794
0.000433714
0.000356314
0.000344095
0.000291628
0.000292107
0.000224464
0.000253182
0.000176287
0.000206656
0.000124779
0.0001501
6.88068e-05
0.000111042
1.96523e-05
8.67474e-05
-1.45665e-05
6.92446e-05
-3.76029e-05
5.61348e-05
-5.15809e-05
4.70288e-05
-6.05747e-05
4.06968e-05
-6.77659e-05
3.57389e-05
-7.36288e-05
3.12771e-05
-7.77088e-05
2.72287e-05
-8.00634e-05
2.3616e-05
-8.14818e-05
2.03505e-05
-8.13208e-05
1.7688e-05
-7.87285e-05
1.59088e-05
-7.40905e-05
1.53248e-05
-6.86637e-05
1.62386e-05
-6.44705e-05
2.02954e-05
-6.57978e-05
2.62209e-05
-7.28762e-05
3.19452e-05
-7.71696e-05
3.64157e-05
-7.81434e-05
3.94244e-05
-7.67066e-05
3.97237e-05
-7.29902e-05
4.07231e-05
-6.91456e-05
4.30555e-05
-6.73257e-05
4.7811e-05
-6.74484e-05
5.69491e-05
-7.15067e-05
6.84449e-05
-7.43507e-05
7.85539e-05
-7.27743e-05
8.5664e-05
-6.57763e-05
9.01967e-05
-5.29729e-05
9.38261e-05
-3.61082e-05
9.95461e-05
-1.71624e-05
0.000110742
9.90032e-07
0.000118436
1.64772e-05
0.000120437
2.38941e-05
0.000117935
2.01219e-05
0.000111059
2.8791e-06
0.000101996
-2.65551e-05
9.1132e-05
-6.79312e-05
7.39001e-05
-0.000120679
4.46962e-05
-0.000161231
2.01516e-05
-0.000135999
9.87429e-06
-0.000134998
2.38663e-06
-0.000150991
-6.7587e-06
-0.000125265
-1.57651e-05
-8.73552e-05
-2.47191e-05
-6.40314e-05
-3.47706e-05
-4.55749e-05
-3.19749e-05
-4.64936e-05
-9.29708e-05
-6.36119e-05
-9.02351e-05
-5.50822e-05
-8.18209e-05
-4.16617e-05
-6.87017e-05
-2.43404e-05
-5.92891e-05
-6.02555e-06
-5.33552e-05
1.21646e-05
-5.22049e-05
2.90054e-05
-5.86671e-05
4.88688e-05
-5.72721e-05
6.62614e-05
-5.16116e-05
7.39254e-05
-4.45521e-05
7.56851e-05
-3.3567e-05
6.88375e-05
-2.23762e-05
5.39588e-05
-1.47127e-05
3.99797e-05
-1.09158e-05
3.42246e-05
-7.79206e-06
3.25151e-05
-4.54255e-06
3.21191e-05
-9.2863e-07
3.25919e-05
3.00934e-06
3.36908e-05
7.19587e-06
3.52574e-05
1.16186e-05
3.71585e-05
1.61813e-05
3.9369e-05
2.0837e-05
4.18324e-05
2.56016e-05
4.45787e-05
3.06783e-05
4.73057e-05
3.58341e-05
4.99701e-05
4.11311e-05
5.27624e-05
4.65802e-05
5.56008e-05
5.19785e-05
5.82884e-05
5.77124e-05
6.14797e-05
6.35172e-05
6.49975e-05
6.93289e-05
6.79038e-05
7.50777e-05
7.08351e-05
8.09333e-05
7.2948e-05
8.73738e-05
7.55671e-05
9.39936e-05
7.80243e-05
0.000101323
8.04256e-05
0.000109743
8.39686e-05
0.000118972
8.81389e-05
0.000128772
9.30841e-05
0.000139358
9.87632e-05
0.00015119
0.000106536
0.000162818
0.000116365
0.000174188
0.000127234
0.000186259
0.000141022
0.000198812
0.000156928
0.000210341
0.000175662
0.000218981
0.000191925
0.000227496
0.000204577
0.000234917
0.000215189
0.000244552
0.000221664
0.000269907
0.000235979
0.000318221
0.000267634
0.000378385
0.000309448
0.000440474
0.000354254
0.000489402
0.000392963
0.000514234
0.000414551
0.0005208
0.000416932
0.000516501
0.000407997
0.000480693
0.000385657
0.000403627
0.000332306
0.000350626
0.000267282
0.000303977
0.000213095
0.00024468
0.0001518
0.000172845
8.37968e-05
0.000124771
2.62274e-05
9.64544e-05
-1.14416e-05
7.70581e-05
-3.57925e-05
6.31828e-05
-5.05086e-05
5.3885e-05
-6.02304e-05
4.75213e-05
-6.78308e-05
4.24975e-05
-7.38677e-05
3.79119e-05
-7.79488e-05
3.39974e-05
-8.07175e-05
3.04224e-05
-8.31105e-05
2.67405e-05
-8.34656e-05
2.32066e-05
-8.06938e-05
2.02058e-05
-7.54189e-05
1.82679e-05
-6.94186e-05
1.82329e-05
-6.49669e-05
2.14771e-05
-6.66268e-05
2.67151e-05
-7.48061e-05
3.18496e-05
-7.90396e-05
3.60924e-05
-7.9322e-05
3.95401e-05
-7.71905e-05
4.21186e-05
-7.43195e-05
4.57627e-05
-7.25084e-05
5.09005e-05
-7.23937e-05
6.04476e-05
-7.5761e-05
7.08352e-05
-7.95218e-05
7.74856e-05
-7.65276e-05
8.13933e-05
-6.82807e-05
8.31392e-05
-5.70344e-05
8.32492e-05
-4.29419e-05
8.32574e-05
-2.64378e-05
8.44902e-05
-7.82264e-06
8.97435e-05
1.1335e-05
9.65647e-05
2.73236e-05
9.9284e-05
3.65853e-05
9.82215e-05
3.40499e-05
9.46262e-05
1.80759e-05
8.96922e-05
-1.10513e-05
8.3663e-05
-5.187e-05
7.12511e-05
-0.000102554
4.60033e-05
-0.000138759
2.31067e-05
-0.000118231
1.26807e-05
-0.000123687
4.67281e-06
-0.000136537
-5.79994e-06
-0.000111805
-1.56268e-05
-7.6912e-05
-2.48206e-05
-5.60019e-05
-3.40093e-05
-3.92494e-05
-2.67369e-05
-4.34698e-05
-0.000102334
-5.94646e-05
-0.000102959
-5.25969e-05
-0.000100377
-4.16573e-05
-9.38251e-05
-2.69057e-05
-8.51263e-05
-9.36653e-06
-7.7899e-05
9.37661e-06
-7.3759e-05
2.80897e-05
-7.29e-05
4.58775e-05
-6.56626e-05
5.94776e-05
-5.76744e-05
6.65976e-05
-4.84471e-05
6.79281e-05
-3.60335e-05
6.12717e-05
-2.39026e-05
4.79618e-05
-1.56761e-05
3.55894e-05
-1.15992e-05
3.07185e-05
-8.38073e-06
2.9234e-05
-5.18012e-06
2.86865e-05
-1.77334e-06
2.88723e-05
1.85538e-06
2.96623e-05
5.66705e-06
3.09266e-05
9.5815e-06
3.25781e-05
1.36151e-05
3.45121e-05
1.77612e-05
3.66515e-05
2.20191e-05
3.89405e-05
2.63847e-05
4.12541e-05
3.07524e-05
4.3492e-05
3.51304e-05
4.56567e-05
3.9562e-05
4.7826e-05
4.43196e-05
4.98215e-05
4.94485e-05
5.17818e-05
5.48335e-05
5.42678e-05
6.05707e-05
5.64389e-05
6.65545e-05
5.9422e-05
7.28747e-05
6.23826e-05
7.98624e-05
6.65998e-05
8.69018e-05
7.09376e-05
9.44979e-05
7.51398e-05
0.00010298
8.01749e-05
0.000112314
8.54953e-05
0.000122289
9.13651e-05
0.000133397
9.80135e-05
0.000145835
0.000106339
0.000158877
0.000116449
0.00017281
0.000128093
0.000187896
0.000143259
0.000204494
0.000161853
0.0002219
0.000185048
0.000238203
0.000208091
0.000254389
0.000229981
0.000267765
0.00024913
0.000280226
0.000262443
0.000304392
0.000276823
0.000343634
0.000305421
0.000394123
0.000341191
0.00044878
0.0003787
0.000496171
0.000412763
0.000524435
0.000434015
0.000533459
0.000437516
0.000534397
0.000428972
0.000513497
0.000409597
0.000457663
0.000366163
0.000408428
0.000307036
0.000353995
0.00024739
0.00028076
0.000175483
0.00019179
9.62243e-05
0.000135956
3.00271e-05
0.000104297
-9.79299e-06
8.37096e-05
-3.46122e-05
6.9478e-05
-4.98731e-05
6.00975e-05
-6.01455e-05
5.36698e-05
-6.81507e-05
4.84576e-05
-7.4383e-05
4.37615e-05
-7.85898e-05
4.01981e-05
-8.23697e-05
3.65164e-05
-8.57071e-05
3.22145e-05
-8.59312e-05
2.75059e-05
-8.21394e-05
2.31832e-05
-7.57056e-05
2.0201e-05
-6.98709e-05
1.93305e-05
-6.63985e-05
2.22897e-05
-6.91775e-05
2.68462e-05
-7.76883e-05
3.13234e-05
-8.14366e-05
3.54471e-05
-8.15462e-05
3.96937e-05
-8.01697e-05
4.46479e-05
-7.94452e-05
5.12254e-05
-7.99124e-05
6.10393e-05
-8.30879e-05
7.18523e-05
-8.58441e-05
7.82207e-05
-8.16781e-05
7.99516e-05
-7.20264e-05
7.89105e-05
-5.95429e-05
7.6379e-05
-4.60992e-05
7.30477e-05
-3.13976e-05
7.00602e-05
-1.5292e-05
6.83275e-05
2.83853e-06
6.93137e-05
2.23184e-05
7.41063e-05
3.90666e-05
7.64668e-05
4.89867e-05
7.66818e-05
4.63259e-05
7.62524e-05
3.01495e-05
7.52345e-05
9.36549e-07
7.32513e-05
-3.98616e-05
6.44898e-05
-8.90621e-05
4.25981e-05
-0.000117485
2.39604e-05
-0.000101608
1.42886e-05
-0.000112812
5.37511e-06
-0.000121724
-6.0264e-06
-9.69528e-05
-1.62131e-05
-6.57955e-05
-2.52739e-05
-4.75171e-05
-3.32234e-05
-3.27725e-05
-2.17578e-05
-4.03212e-05
-0.000105976
-5.30229e-05
-0.000110227
-4.80979e-05
-0.000110071
-3.96384e-05
-0.000107351
-2.70595e-05
-0.00010266
-1.17871e-05
-9.63517e-05
5.42048e-06
-8.90094e-05
2.28037e-05
-8.09317e-05
3.83869e-05
-7.11111e-05
5.02148e-05
-6.09604e-05
5.6804e-05
-4.89141e-05
5.69411e-05
-3.52212e-05
4.99558e-05
-2.30454e-05
3.89765e-05
-1.5412e-05
3.01045e-05
-1.14345e-05
2.7113e-05
-8.17375e-06
2.59596e-05
-4.97099e-06
2.53583e-05
-1.67873e-06
2.54136e-05
1.69923e-06
2.60627e-05
5.06494e-06
2.72937e-05
8.4557e-06
2.8921e-05
1.18977e-05
3.08126e-05
1.54642e-05
3.28273e-05
1.91836e-05
3.49105e-05
2.30384e-05
3.702e-05
2.69185e-05
3.90849e-05
3.0783e-05
4.10195e-05
3.46179e-05
4.28667e-05
3.84709e-05
4.45096e-05
4.25601e-05
4.59855e-05
4.6675e-05
4.78095e-05
5.10004e-05
4.91997e-05
5.58537e-05
5.13519e-05
6.12224e-05
5.31561e-05
6.74104e-05
5.58271e-05
7.41141e-05
5.90229e-05
8.16811e-05
6.25044e-05
9.03526e-05
6.72825e-05
0.000100232
7.35765e-05
0.000110831
8.08957e-05
0.000122494
8.94836e-05
0.000135577
9.98763e-05
0.000149282
0.000111879
0.000164169
0.000125575
0.000180602
0.000142594
0.000198895
0.000162389
0.000219358
0.000187144
0.000240621
0.000213985
0.000263938
0.000242471
0.000284807
0.000270886
0.000304448
0.000291838
0.00032971
0.000312089
0.000366312
0.000340739
0.00041081
0.000374249
0.000458472
0.000406144
0.000501828
0.000434732
0.000531199
0.000453561
0.000542284
0.000457266
0.000546845
0.000447835
0.00053678
0.00042872
0.000502525
0.000392494
0.000457278
0.000340799
0.000396042
0.000272779
0.000307625
0.000193318
0.000205408
0.000100308
0.000143581
3.12649e-05
0.000109798
-9.44437e-06
8.85715e-05
-3.41656e-05
7.44585e-05
-4.95672e-05
6.52668e-05
-6.02685e-05
5.89282e-05
-6.87527e-05
5.35202e-05
-7.52145e-05
4.90558e-05
-8.00711e-05
4.58592e-05
-8.55035e-05
4.15115e-05
-8.90275e-05
3.58806e-05
-8.78444e-05
2.94849e-05
-8.15354e-05
2.40415e-05
-7.44123e-05
2.05861e-05
-6.9975e-05
1.99715e-05
-6.92517e-05
2.28552e-05
-7.53601e-05
2.66308e-05
-8.29324e-05
3.05762e-05
-8.59459e-05
3.51541e-05
-8.70281e-05
4.10245e-05
-8.84082e-05
4.86418e-05
-9.07412e-05
5.90816e-05
-9.45484e-05
6.95522e-05
-9.67112e-05
7.56018e-05
-9.02067e-05
7.62137e-05
-7.79406e-05
7.35764e-05
-6.35101e-05
6.92216e-05
-4.84905e-05
6.41219e-05
-3.39918e-05
5.87228e-05
-1.90577e-05
5.36686e-05
-3.25237e-06
4.91156e-05
1.47525e-05
4.75714e-05
3.36818e-05
5.02301e-05
5.08823e-05
5.23589e-05
6.02857e-05
5.42336e-05
5.63367e-05
5.6906e-05
3.9003e-05
6.01475e-05
8.82155e-06
6.20582e-05
-3.24002e-05
5.62048e-05
-7.91183e-05
3.72629e-05
-9.79375e-05
2.29816e-05
-8.78045e-05
1.47739e-05
-0.000101726
4.15786e-06
-0.000106741
-7.47016e-06
-8.13675e-05
-1.75151e-05
-5.43891e-05
-2.60861e-05
-3.87156e-05
-3.23667e-05
-2.63699e-05
-1.72161e-05
-3.71842e-05
-0.000103189
-4.58288e-05
-0.000109441
-4.14908e-05
-0.000112033
-3.5266e-05
-0.000110691
-2.60456e-05
-0.000106884
-1.36526e-05
-0.000101236
8.29031e-07
-9.29837e-05
1.55481e-05
-8.29378e-05
2.89556e-05
-7.15989e-05
3.90884e-05
-5.86823e-05
4.41232e-05
-4.43592e-05
4.34012e-05
-3.06663e-05
3.81138e-05
-1.99585e-05
3.10312e-05
-1.4126e-05
2.56023e-05
-1.03856e-05
2.369e-05
-7.02868e-06
2.26453e-05
-3.7367e-06
2.20166e-05
-4.16487e-07
2.19936e-05
2.74029e-06
2.27114e-05
5.73369e-06
2.41452e-05
8.50324e-06
2.60517e-05
1.12447e-05
2.80493e-05
1.4126e-05
3.00115e-05
1.7216e-05
3.19731e-05
2.05203e-05
3.39494e-05
2.39532e-05
3.59247e-05
2.73848e-05
3.78401e-05
3.07338e-05
3.96381e-05
3.40221e-05
4.11545e-05
3.74015e-05
4.2441e-05
4.0747e-05
4.38228e-05
4.41674e-05
4.49055e-05
4.78164e-05
4.63998e-05
5.16346e-05
4.76553e-05
5.60519e-05
4.93207e-05
6.08244e-05
5.15557e-05
6.62991e-05
5.37653e-05
7.32264e-05
5.70296e-05
8.11101e-05
6.11407e-05
9.045e-05
6.6061e-05
0.000101546
7.26694e-05
0.000114513
8.14727e-05
0.000129886
9.37863e-05
0.000147361
0.00011035
0.000165985
0.000131662
0.000186327
0.000156209
0.000208545
0.000185359
0.000232121
0.000215666
0.00025887
0.000247235
0.000285776
0.000280687
0.000312446
0.000308771
0.00034257
0.000336595
0.000380104
0.000368946
0.000422258
0.00040332
0.000465631
0.000432468
0.000505463
0.000457026
0.000534785
0.000472934
0.000547445
0.000475787
0.000554114
0.000464286
0.000550392
0.000444224
0.000530081
0.000409795
0.000488207
0.000358386
0.000423403
0.00028703
0.000320944
0.000196826
0.000206761
0.000100936
0.000145211
2.85839e-05
0.000111709
-1.05453e-05
9.11602e-05
-3.41501e-05
7.78581e-05
-4.94135e-05
6.93225e-05
-6.05496e-05
6.31009e-05
-6.95844e-05
5.76134e-05
-7.63784e-05
5.41682e-05
-8.31709e-05
5.0677e-05
-8.98918e-05
4.46862e-05
-9.20574e-05
3.66925e-05
-8.74803e-05
2.85498e-05
-7.88746e-05
2.27286e-05
-7.29702e-05
1.96973e-05
-7.1239e-05
2.03319e-05
-7.53814e-05
2.30154e-05
-8.46724e-05
2.60585e-05
-9.07341e-05
3.00985e-05
-9.44721e-05
3.60686e-05
-9.89387e-05
4.41856e-05
-0.00010451
5.41459e-05
-0.000110127
6.37422e-05
-0.000111102
6.89636e-05
-0.000102766
6.85087e-05
-8.78941e-05
6.50651e-05
-7.07762e-05
5.96983e-05
-5.32465e-05
5.34094e-05
-3.66645e-05
4.67281e-05
-2.14755e-05
3.98363e-05
-6.3832e-06
3.3255e-05
9.2534e-06
2.73371e-05
2.71165e-05
2.43817e-05
4.54249e-05
2.54184e-05
6.2639e-05
2.78676e-05
6.98567e-05
3.19518e-05
6.33731e-05
3.81641e-05
4.39193e-05
4.55803e-05
1.19461e-05
5.06644e-05
-2.95702e-05
4.69051e-05
-7.0675e-05
3.1291e-05
-7.82972e-05
2.04746e-05
-7.59335e-05
1.3332e-05
-9.11245e-05
1.51279e-06
-9.10435e-05
-9.82193e-06
-6.54573e-05
-1.92623e-05
-4.31724e-05
-2.67763e-05
-3.01328e-05
-3.11538e-05
-2.02589e-05
-1.32936e-05
-3.38775e-05
-9.67006e-05
-3.95571e-05
-0.000100283
-3.5251e-05
-0.000104211
-3.02739e-05
-0.000104329
-2.34834e-05
-0.000100745
-1.47784e-05
-9.45751e-05
-3.88718e-06
-8.64681e-05
7.92926e-06
-7.62614e-05
1.85172e-05
-6.4087e-05
2.64603e-05
-5.03989e-05
3.09674e-05
-3.70407e-05
3.15372e-05
-2.58203e-05
2.89156e-05
-1.76273e-05
2.52687e-05
-1.24172e-05
2.18706e-05
-8.57922e-06
2.03689e-05
-5.02791e-06
1.93682e-05
-1.53831e-06
1.87275e-05
1.72877e-06
1.88137e-05
4.69325e-06
1.98114e-05
7.14248e-06
2.18212e-05
9.11759e-06
2.42412e-05
1.10332e-05
2.63305e-05
1.30982e-05
2.81998e-05
1.52689e-05
3.01532e-05
1.78278e-05
3.19239e-05
2.07941e-05
3.36674e-05
2.38917e-05
3.54468e-05
2.69001e-05
3.72298e-05
2.99335e-05
3.86976e-05
3.30081e-05
4.00043e-05
3.60488e-05
4.12902e-05
3.90143e-05
4.24168e-05
4.19212e-05
4.37787e-05
4.47149e-05
4.48439e-05
4.78576e-05
4.5877e-05
5.11636e-05
4.73109e-05
5.48436e-05
4.85828e-05
5.9618e-05
5.05999e-05
6.51041e-05
5.35001e-05
7.14685e-05
5.6831e-05
7.93653e-05
6.16324e-05
8.88938e-05
6.85748e-05
0.000100736
7.65655e-05
0.000116773
8.75669e-05
0.000136625
0.000104592
0.000161478
0.00013138
0.000188339
0.000167346
0.000215556
0.00020671
0.000244921
0.000246026
0.000275001
0.000284052
0.000306098
0.000315993
0.000341928
0.000349077
0.00038296
0.000386277
0.000426013
0.000423853
0.000467814
0.000454078
0.000505513
0.000476414
0.000534223
0.00049004
0.000547089
0.000490243
0.000555415
0.000476511
0.000554391
0.000453203
0.000536797
0.000418891
0.000498022
0.000362351
0.000424831
0.000290462
0.000312812
0.000198098
0.000202022
8.76881e-05
0.000141229
2.3226e-05
0.000110049
-1.22889e-05
9.14249e-05
-3.43447e-05
7.96378e-05
-4.92939e-05
7.20315e-05
-6.1001e-05
6.58483e-05
-7.04466e-05
6.1332e-05
-7.85582e-05
5.89529e-05
-8.82324e-05
5.3531e-05
-9.42106e-05
4.46636e-05
-9.25646e-05
3.40388e-05
-8.41044e-05
2.56201e-05
-7.57415e-05
2.01749e-05
-7.32639e-05
1.85937e-05
-7.65011e-05
1.99988e-05
-8.64163e-05
2.20165e-05
-9.48553e-05
2.50193e-05
-0.000102115
2.99962e-05
-0.000109824
3.75833e-05
-0.000119599
4.57657e-05
-0.000126707
5.39811e-05
-0.000126691
5.74435e-05
-0.000117547
5.60651e-05
-0.000101466
5.21812e-05
-8.27583e-05
4.67009e-05
-6.27849e-05
3.98462e-05
-4.30861e-05
3.23856e-05
-2.49939e-05
2.4757e-05
-9.09397e-06
1.68752e-05
6.54725e-06
8.60515e-06
2.26569e-05
2.13699e-06
3.92717e-05
-6.17238e-07
5.64493e-05
2.56153e-07
7.22405e-05
3.88824e-06
7.64032e-05
1.09935e-05
6.66926e-05
2.1087e-05
4.4396e-05
3.22218e-05
1.04022e-05
3.93698e-05
-3.06608e-05
3.68717e-05
-6.18178e-05
2.55927e-05
-6.22457e-05
1.71329e-05
-6.58649e-05
9.76579e-06
-8.01318e-05
-2.30657e-06
-7.48984e-05
-1.28995e-05
-4.98461e-05
-2.14964e-05
-3.24685e-05
-2.77773e-05
-2.23116e-05
-3.02165e-05
-1.49102e-05
-9.97638e-06
-3.01669e-05
-8.88946e-05
-3.4961e-05
-9.00785e-05
-3.06667e-05
-9.15523e-05
-2.60395e-05
-9.33346e-05
-2.08584e-05
-9.09148e-05
-1.43557e-05
-8.47519e-05
-7.10739e-06
-7.55476e-05
1.6374e-06
-6.42334e-05
1.01646e-05
-5.30222e-05
1.72267e-05
-4.21088e-05
2.15002e-05
-3.15556e-05
2.31084e-05
-2.27848e-05
2.25814e-05
-1.59384e-05
2.06648e-05
-1.06288e-05
1.86672e-05
-6.66242e-06
1.74569e-05
-3.18541e-06
1.65972e-05
-3.02455e-08
1.62158e-05
2.46311e-06
1.71035e-05
4.47336e-06
1.90024e-05
5.28491e-06
2.27505e-05
5.17834e-06
2.66287e-05
4.79517e-06
3.0127e-05
5.34531e-06
3.37878e-05
6.82408e-06
3.63377e-05
8.79189e-06
3.85017e-05
1.18317e-05
3.99724e-05
1.58795e-05
4.05826e-05
1.97529e-05
4.02956e-05
2.33491e-05
3.98827e-05
2.68638e-05
3.98153e-05
3.02547e-05
4.00786e-05
3.35293e-05
4.06467e-05
3.6377e-05
4.1952e-05
3.90361e-05
4.30558e-05
4.16616e-05
4.40292e-05
4.41705e-05
4.52961e-05
4.66678e-05
4.62296e-05
4.97317e-05
4.73597e-05
5.33543e-05
4.90589e-05
5.75774e-05
5.12131e-05
6.33351e-05
5.43795e-05
7.05361e-05
5.96572e-05
7.83765e-05
6.65944e-05
8.78516e-05
7.51109e-05
0.000102451
8.67283e-05
0.000124077
0.000103892
0.000152653
0.000132526
0.000186531
0.000174856
0.000222031
0.000225957
0.000256353
0.000275905
0.000290329
0.000316332
0.000329087
0.00035376
0.000373398
0.000393518
0.000418965
0.000434094
0.000461345
0.000466805
0.000498402
0.00048874
0.00052475
0.00050155
0.000538988
0.000498134
0.000547557
0.000481173
0.000544838
0.000457161
0.000527981
0.000418295
0.000487872
0.000365032
0.000409175
0.000278374
0.000289397
0.000171144
0.0001805
7.30669e-05
0.000131066
1.58296e-05
0.000105509
-1.43183e-05
8.98657e-05
-3.45981e-05
7.9921e-05
-4.93304e-05
7.2914e-05
-6.14329e-05
6.72215e-05
-7.15987e-05