/*--------------------------------*- C++ -*----------------------------------*\
  =========                 |
  \\      /  F ield         | OpenFOAM: The Open Source CFD Toolbox
   \\    /   O peration     | Website:  https://openfoam.org
    \\  /    A nd           | Version:  10
     \\/     M anipulation  |
\*---------------------------------------------------------------------------*/
FoamFile
{
    format      ascii;
    class       volScalarField;
    location    "0.951656";
    object      T;
}
// * * * * * * * * * * * * * * * * * * * * * * * * * * * * * * * * * * * * * //

dimensions      [0 0 0 1 0 0 0];

internalField   nonuniform List<scalar> 
16320
(
0.00741716
0.00804951
0.00897069
0.00985388
0.00995857
0.00880638
0.00599463
0.00491514
0.00490486
0.00557987
0.00748662
0.0105335
0.0118468
0.0119391
0.0117587
0.0111945
0.0105289
0.0100743
0.00973795
0.00948653
0.00935637
0.00935266
0.00944175
0.00967956
0.0100117
0.0104172
0.0107438
0.0108918
0.0109476
0.0109293
0.01088
0.0107933
0.0106964
0.0105614
0.0103894
0.0103176
0.0101682
0.00999922
0.00979793
0.00962703
0.00945989
0.00922595
0.00914384
0.00893275
0.00887048
0.00867271
0.00831415
0.00771907
0.00695635
0.00604509
0.0048604
0.0036492
0.00276923
0.00224806
0.00204589
0.00200675
0.0020337
0.00219935
0.00272105
0.0035893
0.00420365
0.00455852
0.00490871
0.00557316
0.00636771
0.00695662
0.00720236
0.00742554
0.00790064
0.00818013
0.00819151
0.00821505
0.00842209
0.00856361
0.0085607
0.00837899
0.00778555
0.00661097
0.0057278
0.00530521
0.00517372
0.00542114
0.0058517
0.00644802
0.00740148
0.00883391
0.00956645
0.00913122
0.00790385
0.00582963
0.00427111
0.00339973
0.0030152
0.00275365
0.00251758
0.00239627
0.00236398
0.00236572
0.00238758
0.00246364
0.00272111
0.00280777
0.00268875
0.00274362
0.00358167
0.005363
0.00493052
0.00381736
0.00384225
0.00414833
0.00410596
0.00376518
0.00324419
0.00728832
0.00789959
0.00867072
0.00962111
0.010022
0.00977696
0.00787132
0.00542412
0.0048927
0.00500097
0.00590021
0.0080033
0.0108414
0.0118533
0.0119214
0.0117002
0.0111456
0.0104029
0.00985629
0.00949482
0.0092385
0.00906283
0.00897042
0.00896232
0.00902986
0.00918939
0.00944241
0.00974311
0.0100241
0.0102751
0.0104173
0.0104736
0.0104775
0.010436
0.0103411
0.0102555
0.0102534
0.0100479
0.00987617
0.00966165
0.0094726
0.00921058
0.00909236
0.00891234
0.00870648
0.00864136
0.00828939
0.00775374
0.00686782
0.00607034
0.00504235
0.0039655
0.0030649
0.00244628
0.00210465
0.0019794
0.00197177
0.00202982
0.00228122
0.00295596
0.00375696
0.00426451
0.00454688
0.00501158
0.00580476
0.00657831
0.0069696
0.00732234
0.00786791
0.00821802
0.00834772
0.00846853
0.00859174
0.00867272
0.00869075
0.00865
0.0084918
0.00799942
0.00691684
0.00601983
0.00558657
0.0054766
0.0056184
0.00581245
0.00619761
0.00713217
0.00835349
0.00872006
0.00808332
0.00639412
0.00476717
0.00381112
0.00328144
0.00303788
0.00276707
0.00252994
0.0024124
0.00238347
0.00238707
0.00241616
0.00254925
0.0026776
0.00264017
0.00267739
0.00323947
0.00520679
0.00516015
0.0038698
0.00387592
0.00428557
0.00428392
0.00393289
0.00338555
0.0069229
0.00749725
0.00836613
0.00936457
0.00988174
0.00990576
0.00898245
0.00657325
0.00509509
0.00490026
0.00523144
0.0065317
0.00908695
0.0114611
0.0119701
0.0119933
0.0117543
0.0112444
0.0104965
0.00983778
0.00940938
0.00913219
0.00896953
0.00885037
0.00879811
0.00878413
0.00879935
0.00884747
0.00892283
0.00899609
0.0090951
0.0091814
0.00926719
0.0093219
0.00933151
0.00932263
0.00926236
0.00924052
0.00906918
0.00883701
0.00860571
0.00832712
0.00815502
0.007991
0.00771442
0.00767291
0.00762431
0.00713067
0.00692876
0.0057603
0.00499344
0.00397886
0.00312869
0.0025178
0.00213445
0.00195318
0.00191055
0.00192825
0.00204346
0.00242741
0.00322584
0.00383071
0.00412473
0.00446372
0.00521359
0.00615321
0.0066999
0.00719149
0.00780317
0.00824237
0.00850646
0.00862562
0.00867766
0.00870537
0.00871133
0.00868448
0.00862067
0.00846366
0.00801577
0.00701308
0.00618427
0.00575244
0.00563201
0.00567743
0.00582061
0.00632467
0.00712174
0.00766635
0.00763508
0.0065575
0.00491943
0.00396877
0.00344893
0.0032021
0.00302976
0.00274352
0.00251859
0.00242258
0.00240516
0.00241423
0.00248117
0.00257786
0.00257293
0.00262924
0.00311206
0.00498265
0.00527322
0.0039247
0.00390607
0.00438273
0.00441214
0.00411545
0.00357211
0.00646813
0.00689264
0.00784274
0.00909848
0.00964074
0.00973143
0.00907536
0.00706817
0.00536513
0.00493315
0.00502075
0.00580424
0.0077417
0.0105834
0.0119306
0.0121709
0.0121386
0.0119286
0.0115289
0.0109349
0.0102808
0.00972996
0.00934811
0.00906962
0.00891964
0.00882506
0.00875573
0.00869404
0.00864539
0.00857344
0.00847873
0.00839893
0.00829139
0.00820705
0.00805813
0.00790338
0.00776466
0.00755392
0.00736125
0.00704941
0.00681224
0.00651847
0.0062573
0.00612382
0.00590732
0.00570662
0.00566585
0.00570236
0.00552093
0.00562619
0.0046325
0.00389814
0.00310901
0.00251537
0.00213202
0.00192074
0.00184822
0.00184978
0.00189893
0.00211093
0.00268735
0.0032921
0.00358791
0.00389904
0.00461344
0.00569017
0.00641131
0.00704298
0.00770878
0.00827627
0.00859311
0.00870009
0.00871361
0.00871196
0.00869967
0.00866133
0.00861798
0.00852678
0.00833262
0.00785012
0.00692246
0.00617265
0.00578122
0.00568921
0.00574805
0.00603503
0.00652841
0.00670134
0.00669976
0.00627876
0.00494991
0.00400032
0.00351751
0.0032666
0.00316403
0.00297236
0.00268353
0.00249472
0.00243309
0.00242939
0.0024626
0.00253453
0.00254449
0.00261332
0.00306318
0.00488807
0.00530011
0.00398306
0.00393997
0.00443833
0.00447062
0.00420287
0.0036991
0.00623518
0.00636244
0.00704774
0.00840679
0.00904633
0.00920394
0.00880617
0.00694909
0.00537625
0.00499024
0.00500815
0.00561464
0.0072818
0.0100575
0.0118618
0.0123415
0.0124432
0.0124086
0.0122593
0.0119942
0.0116329
0.0111799
0.010673
0.0101286
0.00970777
0.00936233
0.00908814
0.00889795
0.00875957
0.00861728
0.00845117
0.0082962
0.00808733
0.00790911
0.00764218
0.00737683
0.0071253
0.00680214
0.0064918
0.00614308
0.00585438
0.00552999
0.0052125
0.00501168
0.00477955
0.0045454
0.0043722
0.00430168
0.00426709
0.00405797
0.00410603
0.00360661
0.00298851
0.00247533
0.00211177
0.00188449
0.00178565
0.00177085
0.00179028
0.00190437
0.0022647
0.00274866
0.00301742
0.00333357
0.00406119
0.00522394
0.00613934
0.00688051
0.00764335
0.00828748
0.00861738
0.00871917
0.00872345
0.00870046
0.00861406
0.00851621
0.00847637
0.00846022
0.00836339
0.00808254
0.00735945
0.00642363
0.00593725
0.0057635
0.00576398
0.00592319
0.00617426
0.00613186
0.00592759
0.00540417
0.00459761
0.00393649
0.00352492
0.00330663
0.00321085
0.00311873
0.0028716
0.00259944
0.00247394
0.00244888
0.00246501
0.00251487
0.00253157
0.00261111
0.0030575
0.00487071
0.00529254
0.0040193
0.00397526
0.00450204
0.00452548
0.00428002
0.00382664
0.00610743
0.00603546
0.0061998
0.00686921
0.00770076
0.00794475
0.0078642
0.00643425
0.00529177
0.00502944
0.00505537
0.00564142
0.00729061
0.0100398
0.0119084
0.0125214
0.0126997
0.0127259
0.0126801
0.0125707
0.0124032
0.0121875
0.0119229
0.0115736
0.0112376
0.0108144
0.010342
0.00990351
0.00951908
0.00915508
0.00880949
0.00853574
0.00823401
0.00798964
0.00766749
0.00735006
0.00703784
0.00665049
0.0062583
0.00586621
0.00550724
0.0051334
0.00477142
0.00448882
0.00420193
0.00394123
0.0036926
0.00353277
0.00343158
0.00330196
0.00326837
0.00310065
0.00276803
0.00237659
0.00205651
0.00183237
0.00171815
0.00168929
0.00169637
0.00175565
0.00196631
0.00231029
0.00252809
0.00285278
0.003584
0.00483021
0.00589786
0.00675912
0.00761938
0.00827957
0.00861678
0.00871822
0.00871469
0.00864075
0.00843623
0.00825184
0.00819165
0.00821875
0.0082436
0.00809672
0.00746159
0.00647964
0.00597824
0.00579449
0.00577435
0.00585828
0.00581023
0.00564259
0.00521113
0.00443662
0.00398214
0.00369066
0.00346599
0.00333525
0.00325996
0.00319304
0.003025
0.00270895
0.00252174
0.00247165
0.00247847
0.00250822
0.00252801
0.00263591
0.00312492
0.00497904
0.00526305
0.004031
0.00401871
0.00455631
0.00457605
0.00438033
0.0040396
0.00608701
0.00589854
0.00585215
0.00591894
0.00619237
0.00632697
0.00631515
0.00559544
0.00518141
0.00510002
0.00518588
0.00580503
0.00746043
0.0101947
0.0120573
0.0126559
0.0128367
0.0128838
0.0128766
0.012832
0.0127658
0.0126686
0.012541
0.0123631
0.0121658
0.0119201
0.0116256
0.0112887
0.0109641
0.0105493
0.0100365
0.00957804
0.00905389
0.00860758
0.00810366
0.00765149
0.00723998
0.00677987
0.00632796
0.00589632
0.00549679
0.00508082
0.00468317
0.00433531
0.00399063
0.00368484
0.00338181
0.00315796
0.00298305
0.00283078
0.00276525
0.00264811
0.00243611
0.0021778
0.00194482
0.00175924
0.00164978
0.00161327
0.00161523
0.00164715
0.0017734
0.00197954
0.00216955
0.00248601
0.00323112
0.00455465
0.00573424
0.00670927
0.0076084
0.00827039
0.00859929
0.00868031
0.00865344
0.00848902
0.00814387
0.0079089
0.00785483
0.0079388
0.00801151
0.00794176
0.007411
0.00644876
0.00596839
0.00578335
0.0057187
0.00561466
0.00540227
0.00498848
0.0043033
0.00386278
0.00364076
0.00351089
0.00340971
0.00334257
0.00330191
0.00324939
0.00311821
0.00279084
0.00255704
0.0024907
0.00249356
0.00250751
0.00253677
0.00270902
0.00332806
0.00525366
0.005191
0.00401782
0.00406902
0.00461408
0.00463612
0.00451281
0.004319
0.00622693
0.00590311
0.00575153
0.00569347
0.00565487
0.00559803
0.00552879
0.00532156
0.00523254
0.00522892
0.00545112
0.00622834
0.00798213
0.0107361
0.0122623
0.0127101
0.0128635
0.0129293
0.0129671
0.0129807
0.0129557
0.0129035
0.0128333
0.0127401
0.0126288
0.0124914
0.0123291
0.0121204
0.011904
0.0116504
0.0112462
0.0109485
0.0104514
0.0100104
0.0093922
0.00875693
0.00815619
0.00749192
0.00685792
0.00628075
0.0057517
0.00523866
0.00477037
0.00436688
0.00398328
0.00363569
0.00329132
0.00301122
0.00277925
0.00257816
0.00247073
0.00235288
0.00218706
0.00200009
0.00182748
0.00168336
0.00158633
0.00154745
0.001546
0.001564
0.00162621
0.00176015
0.00191062
0.00225406
0.00301493
0.00440366
0.0056625
0.00672537
0.00764251
0.00827283
0.00855353
0.00858292
0.00849893
0.00815347
0.00773162
0.00752838
0.00758315
0.00777873
0.00781319
0.00765535
0.00702502
0.00622511
0.00584635
0.00564632
0.00545232
0.00513677
0.00470738
0.00409273
0.0037302
0.00357594
0.00349159
0.00344043
0.00338929
0.00335816
0.00333628
0.00329482
0.00317689
0.0028351
0.00257911
0.00250795
0.00250771
0.00251648
0.00256755
0.00282477
0.00361263
0.00546248
0.00506286
0.00395803
0.00413233
0.00467358
0.00470395
0.00468681
0.00468936
0.00647656
0.00616807
0.00585393
0.00572788
0.0056622
0.00556068
0.00546024
0.00540862
0.00539796
0.00553299
0.00600893
0.00709876
0.00900252
0.0113579
0.0123332
0.0126851
0.0128322
0.0129049
0.0129808
0.0130097
0.0129971
0.0129643
0.0129184
0.0128615
0.0127935
0.0127144
0.0126291
0.0125257
0.0124144
0.0122895
0.0120448
0.0118827
0.0115294
0.0112319
0.0107545
0.0101956
0.00963929
0.00896428
0.00822135
0.00747999
0.0067289
0.00600285
0.00529685
0.00468623
0.00414976
0.00370753
0.00330982
0.00299573
0.00272122
0.00247616
0.00232008
0.00217675
0.00202104
0.00186187
0.00172613
0.00161004
0.00152845
0.00148851
0.00148723
0.00149573
0.0015369
0.00160599
0.00178561
0.00210423
0.00295781
0.00440712
0.00573487
0.00683758
0.00772213
0.00827273
0.00844192
0.00841286
0.00818754
0.00762237
0.00724014
0.00718462
0.00747193
0.00769693
0.00761785
0.00722599
0.00636671
0.00583628
0.00554722
0.00525657
0.00483823
0.00435839
0.0038214
0.00354182
0.00345342
0.00342806
0.00341256
0.00340272
0.00337961
0.00338179
0.00337727
0.00334579
0.00320302
0.00280966
0.00257106
0.00251572
0.00251675
0.00253258
0.00264922
0.00302147
0.00405694
0.0055935
0.00486486
0.00391217
0.00421356
0.00475687
0.00483485
0.00491742
0.00514807
0.00660651
0.00659802
0.00629271
0.00604807
0.00595511
0.00589916
0.00583707
0.00582072
0.00590555
0.00623149
0.00693853
0.00808496
0.00973173
0.0114281
0.0122428
0.0125462
0.0126778
0.0127802
0.0128841
0.0129171
0.0129183
0.0129072
0.0128785
0.0128347
0.012767
0.0126843
0.0126123
0.0125468
0.0124874
0.0124284
0.012318
0.01225
0.012098
0.0119551
0.0117216
0.0113016
0.0109382
0.0103581
0.00965223
0.00895786
0.0081804
0.00735613
0.0065991
0.00575346
0.00487485
0.00411743
0.00350381
0.00306529
0.00273624
0.00246643
0.00227228
0.00209364
0.00192256
0.00176845
0.00164635
0.00154801
0.00147716
0.00144175
0.00144044
0.00145123
0.00147716
0.00155923
0.00170399
0.00212331
0.00300537
0.00457032
0.00595531
0.00702597
0.00782703
0.00822885
0.00827002
0.00814109
0.00760576
0.00700133
0.00679467
0.0070217
0.00744977
0.00749111
0.00722847
0.00647172
0.0057229
0.00537576
0.00502822
0.00454436
0.00401553
0.00357329
0.00336292
0.00329828
0.00330012
0.00330612
0.00332594
0.00334831
0.0033645
0.00339772
0.00341811
0.00337704
0.00315701
0.00274538
0.00255494
0.00252772
0.00253318
0.00257753
0.00283155
0.00332451
0.00472458
0.00565116
0.00459164
0.00387331
0.00432056
0.00483775
0.00494726
0.0051454
0.00574256
0.0066303
0.00674988
0.00676191
0.00650589
0.00629137
0.0062528
0.00627309
0.00644383
0.00672379
0.00705044
0.00764333
0.00861914
0.00977848
0.0111621
0.0118741
0.0121449
0.0122514
0.0123284
0.0123514
0.012326
0.0122927
0.0121553
0.0117317
0.0115047
0.0113914
0.0112735
0.0112898
0.0115017
0.0117951
0.0119887
0.0120794
0.0121408
0.0121036
0.0120609
0.011992
0.0118353
0.0116759
0.0113724
0.0108496
0.0102927
0.00958211
0.00866985
0.00782385
0.00704967
0.0062136
0.00523011
0.0042003
0.00340306
0.00286882
0.00250605
0.00227874
0.00207929
0.00188684
0.001722
0.00159895
0.0015069
0.00144347
0.00141573
0.00141709
0.00142862
0.00146496
0.00153281
0.00175237
0.00211478
0.00330368
0.00498726
0.00629212
0.00725517
0.00790437
0.00811141
0.00805261
0.00766519
0.0068029
0.00643758
0.0065343
0.00699776
0.00730357
0.00711143
0.00646923
0.00558942
0.00523641
0.00479644
0.0042705
0.00373104
0.0033917
0.00321808
0.00315698
0.00313535
0.00310836
0.00312899
0.00319819
0.00328377
0.00335133
0.00342528
0.00343452
0.00334293
0.00302325
0.00264705
0.00254811
0.00253966
0.00256519
0.00269489
0.00307587
0.00372087
0.00524097
0.00562627
0.00429478
0.00385747
0.00447226
0.0049427
0.00506872
0.00537314
0.0062748
0.00607565
0.00669805
0.0069293
0.00699405
0.0069524
0.0066379
0.00654577
0.00656658
0.00682633
0.00733084
0.00788316
0.0085667
0.00954478
0.0105632
0.0110581
0.0112182
0.0112785
0.0108868
0.00954037
0.00797856
0.00740608
0.00689463
0.00622222
0.00598125
0.00592207
0.00602238
0.00627465
0.00684415
0.00770105
0.00861358
0.00957224
0.0105648
0.0112568
0.0116589
0.0118389
0.0118295
0.0117921
0.0117078
0.0115118
0.0111933
0.0107378
0.00998286
0.00903783
0.00813996
0.00728214
0.00638787
0.00533759
0.00427105
0.00332533
0.00269924
0.00234488
0.00209768
0.00188559
0.00171181
0.00158331
0.00149281
0.00142978
0.00141126
0.00141271
0.00142835
0.00146096
0.00157979
0.0017398
0.00245646
0.00387144
0.00557073
0.00665946
0.00748
0.00791923
0.0079326
0.00767401
0.0067705
0.0061204
0.00609579
0.00643915
0.00700179
0.00690707
0.00637571
0.00553097
0.00510455
0.00467989
0.00400977
0.00357632
0.00328092
0.00312269
0.0030332
0.00297085
0.00295095
0.00297186
0.00304018
0.0031505
0.00327626
0.00338671
0.00343254
0.00340293
0.0032048
0.00276135
0.00258847
0.00255443
0.00256778
0.00264318
0.002966
0.00332781
0.00439113
0.00547315
0.00534122
0.00403258
0.00387486
0.00464947
0.00506756
0.0051989
0.00554154
0.00653269
0.00475273
0.00557823
0.00649781
0.00705957
0.00730697
0.0074037
0.007409
0.00712564
0.00702353
0.00715449
0.00763168
0.00837611
0.00920119
0.00974884
0.0099026
0.00974505
0.00848462
0.00600815
0.00478293
0.00432261
0.00414637
0.00405058
0.00402713
0.00419246
0.00436285
0.00463863
0.00494068
0.00522004
0.00563027
0.00604597
0.00647613
0.00705793
0.00799502
0.00919868
0.0105183
0.0112768
0.0115944
0.0116643
0.0116098
0.0115039
0.0113183
0.0109238
0.0102025
0.00925862
0.00827728
0.00731593
0.00628449
0.00520915
0.00415294
0.00321958
0.00258323
0.00218511
0.00192508
0.00172012
0.00158649
0.00149279
0.00143188
0.00141536
0.00142079
0.00143223
0.00150743
0.00157518
0.0020409
0.00290224
0.00483994
0.00615428
0.00696878
0.00761516
0.00780754
0.00765443
0.00685255
0.00585149
0.00569261
0.00587336
0.00645945
0.00665807
0.00624529
0.0054951
0.00506767
0.00468218
0.00391385
0.00345928
0.00325997
0.00307382
0.00294009
0.00286308
0.00287025
0.00290383
0.00295507
0.00304519
0.00318487
0.0033397
0.00339909
0.00339866
0.00326906
0.00289672
0.00264744
0.00258812
0.00257799
0.00263525
0.00283614
0.00329664
0.00382316
0.0050536
0.00553181
0.00491203
0.00386755
0.00392662
0.00484574
0.00525224
0.00538858
0.00570878
0.00662724
0.00377749
0.00421664
0.00490305
0.00572284
0.00664339
0.0073053
0.00791165
0.00829015
0.00837063
0.00822159
0.00811946
0.00837164
0.00889779
0.00905888
0.0088819
0.0074934
0.00503023
0.00392371
0.00356383
0.00347745
0.00349513
0.00366333
0.00388866
0.00423632
0.00455692
0.0048784
0.0051636
0.00533417
0.00554799
0.00567817
0.00578787
0.00595211
0.00626165
0.00677591
0.00758957
0.00891641
0.0103942
0.0111909
0.0114646
0.0114813
0.0114235
0.0112806
0.0109328
0.0103222
0.00927138
0.00821497
0.00713145
0.00603217
0.00492398
0.00390386
0.00310278
0.00245634
0.00200496
0.00177148
0.00160496
0.00151144
0.00144896
0.00144104
0.0014418
0.00149938
0.00152086
0.00185336
0.0023636
0.00408138
0.00579869
0.0065527
0.00723347
0.00764076
0.00759028
0.00701701
0.00567585
0.00531512
0.00535428
0.0057848
0.00633935
0.00606265
0.0053972
0.00509928
0.00473233
0.00393059
0.00339522
0.00323472
0.00309154
0.00287241
0.00279626
0.00281805
0.00286577
0.00292803
0.0030105
0.00313738
0.00328818
0.00334899
0.00335251
0.00325489
0.00294293
0.0026929
0.00261897
0.00260536
0.00264446
0.0028046
0.00320324
0.00358092
0.00470055
0.00526093
0.00542769
0.00436829
0.00380159
0.00399432
0.00503312
0.00555347
0.00573323
0.0060426
0.00677965
0.00340328
0.00335812
0.00367094
0.00437651
0.00506716
0.00572825
0.0064289
0.00717654
0.00852064
0.00950037
0.00968222
0.00952917
0.00929347
0.00884031
0.00766372
0.00533169
0.00386393
0.00343617
0.003358
0.0033981
0.00356786
0.00396802
0.00463055
0.00513877
0.00545003
0.00555535
0.00557021
0.00557966
0.00561323
0.00565096
0.00570849
0.00575945
0.00585206
0.00601789
0.00633081
0.00690065
0.00778345
0.00920921
0.0106275
0.0112236
0.011357
0.0113048
0.0111869
0.0108902
0.0102587
0.0090932
0.00797003
0.00684623
0.00568135
0.00458795
0.00368502
0.00292278
0.00228526
0.00187508
0.00168938
0.00155122
0.00151061
0.00150087
0.00154834
0.00154704
0.00181787
0.00214703
0.00358476
0.00541025
0.00639015
0.00681858
0.00740333
0.00748621
0.00710841
0.00572218
0.0050284
0.00494804
0.00511525
0.00575198
0.00574741
0.00529146
0.00503289
0.00487324
0.00408887
0.00341053
0.0032026
0.00311368
0.0028672
0.00275014
0.0027693
0.00284118
0.0029417
0.00304736
0.00314649
0.00324324
0.00328076
0.00327838
0.00318153
0.00291399
0.00271203
0.00265016
0.00263705
0.0026691
0.00282138
0.00317675
0.00358878
0.00431669
0.00503007
0.00527197
0.00500152
0.00398844
0.00375838
0.00408227
0.00514367
0.00594169
0.00631425
0.00676714
0.00710307
0.00336749
0.00306164
0.00297486
0.00313229
0.00378096
0.00492899
0.00559717
0.00606
0.00656491
0.00752207
0.00945385
0.00987944
0.00963712
0.00848724
0.0063243
0.0042478
0.0035268
0.00338012
0.00338403
0.00360139
0.00428091
0.00513733
0.00552181
0.00559907
0.00550928
0.00533921
0.00527107
0.00526528
0.00533211
0.00545808
0.00560026
0.00570675
0.00578332
0.00585248
0.0059665
0.00615137
0.00651481
0.00728868
0.00856404
0.0103983
0.0110992
0.0112422
0.011201
0.0110948
0.0107818
0.0100125
0.0088629
0.00771812
0.00650231
0.00535446
0.00436658
0.00348868
0.00274279
0.00217468
0.00183873
0.00172167
0.00165171
0.0016891
0.00167879
0.00192115
0.00216589
0.00341977
0.00515408
0.00627061
0.00661216
0.00707105
0.0073872
0.00716366
0.00591896
0.00489347
0.00460641
0.00460936
0.00495948
0.00536275
0.00513223
0.00492571
0.0048772
0.00445905
0.00353662
0.00323005
0.00311059
0.00292868
0.00273843
0.00272465
0.00279814
0.0029329
0.0030417
0.00313042
0.00318892
0.00320158
0.00317726
0.00306136
0.0028365
0.00271484
0.00267747
0.00267098
0.00271341
0.00287103
0.00321346
0.00363737
0.00420949
0.00486463
0.00504935
0.00506198
0.00447614
0.00379538
0.00374229
0.00418435
0.00522973
0.0060676
0.00668084
0.00702088
0.00713675
0.00334269
0.00314465
0.00278345
0.00267161
0.00274336
0.00323844
0.00465364
0.00567512
0.00606848
0.00639512
0.00747378
0.00918937
0.00933673
0.00788609
0.00514054
0.00378426
0.00343692
0.00340252
0.00358896
0.00431768
0.00527695
0.00556829
0.00560554
0.00548614
0.00512508
0.00482899
0.00476558
0.00475431
0.00478387
0.00491899
0.00515684
0.00546348
0.00565601
0.00574171
0.00581404
0.00591223
0.00613308
0.00653396
0.00726378
0.00863857
0.010429
0.0110473
0.011155
0.0111169
0.0109938
0.0106108
0.00975687
0.00866783
0.00746015
0.00630403
0.00525462
0.00426978
0.00340349
0.00271699
0.00226845
0.0020228
0.00202608
0.00200442
0.00223557
0.0024537
0.00358334
0.00515189
0.00620541
0.00654058
0.00674533
0.00725183
0.00719712
0.0061854
0.00492805
0.0044126
0.00426074
0.00434149
0.0047673
0.00477611
0.00475484
0.0047872
0.00469846
0.00392183
0.00334143
0.00314777
0.00300416
0.00276693
0.00270026
0.00273163
0.00285444
0.00297121
0.00305599
0.0030853
0.0030828
0.00303185
0.0029087
0.00277195
0.00271999
0.00270619
0.00270835
0.00277861
0.00296221
0.00331255
0.0037298
0.00427832
0.00475994
0.00488204
0.00490011
0.00471993
0.00403841
0.0036999
0.00373849
0.00425207
0.00524053
0.00609342
0.0067203
0.00686864
0.00686151
0.00287086
0.00300687
0.0028766
0.00255601
0.00244806
0.00251822
0.00305247
0.00481418
0.00585589
0.0061415
0.00646248
0.00789113
0.00847281
0.00709104
0.00446427
0.00356177
0.00339799
0.00345198
0.00390381
0.00495048
0.00545123
0.00553115
0.00537692
0.00486895
0.00439276
0.0042372
0.00420836
0.00424488
0.00439027
0.00460318
0.00480829
0.00499222
0.00520522
0.00535332
0.00540941
0.00543157
0.00544998
0.00559246
0.00607036
0.00701257
0.00882787
0.0105176
0.0110318
0.0110955
0.0110516
0.0108865
0.0104337
0.00955389
0.00848561
0.00741788
0.00636704
0.00531883
0.00436266
0.00359035
0.00306333
0.00282149
0.0027962
0.00292661
0.00318904
0.00412855
0.00539952
0.00627061
0.00650964
0.0065888
0.00700226
0.00719044
0.00648752
0.00503176
0.00440213
0.0041244
0.00406079
0.00417608
0.00435361
0.00446442
0.00461255
0.00468788
0.00442063
0.00369014
0.0032694
0.00309638
0.00287244
0.00270391
0.00268421
0.00274927
0.00286912
0.00291588
0.00292242
0.00291611
0.00287387
0.00279517
0.0027504
0.00273748
0.00273596
0.00276943
0.00287833
0.00310548
0.00346244
0.00387218
0.00440281
0.00469743
0.00476156
0.00476991
0.00471043
0.00437841
0.00378898
0.00363616
0.00373542
0.00425317
0.00513102
0.0059268
0.00652033
0.00663598
0.00664574
0.00254905
0.00262161
0.00266552
0.00257852
0.00236951
0.00229236
0.00244043
0.00332568
0.00543983
0.00604028
0.00616509
0.00682673
0.0074816
0.00640076
0.00407424
0.00340932
0.00332636
0.00346645
0.00410664
0.00505421
0.00531723
0.00511908
0.00410758
0.00312939
0.00281286
0.00275593
0.00275757
0.00291493
0.00333493
0.00390486
0.0043589
0.00465176
0.00479404
0.00481629
0.0047991
0.00475017
0.00470753
0.0047589
0.00503806
0.00564648
0.00692121
0.00925566
0.0107068
0.0110311
0.0110418
0.0109643
0.0107288
0.0101536
0.00933072
0.00846183
0.00752516
0.00653052
0.00559016
0.00482187
0.00433283
0.00418436
0.00421326
0.00443097
0.00498291
0.00586511
0.00644364
0.00652355
0.00650951
0.00669342
0.00711196
0.00675469
0.00525637
0.00448831
0.00415223
0.00399325
0.0039543
0.00396954
0.00405186
0.0042796
0.00452516
0.00453705
0.00420257
0.00363688
0.00324299
0.00305349
0.00279345
0.00267703
0.00267264
0.00275106
0.00280509
0.00281427
0.00281574
0.00280832
0.00278193
0.00276865
0.00276777
0.00278828
0.00286295
0.00301508
0.00327244
0.00361803
0.00405078
0.00449315
0.00465994
0.00471274
0.00473108
0.00472178
0.00458251
0.00409364
0.0036622
0.00359139
0.00371125
0.00418539
0.00487114
0.00550535
0.00626186
0.00649212
0.00655351
0.00252292
0.00245621
0.00246022
0.00244587
0.00234715
0.00222048
0.0022274
0.00266054
0.00448346
0.00595614
0.00607105
0.00627307
0.00681136
0.00605383
0.0038918
0.00329416
0.00324117
0.00344198
0.00416947
0.00486494
0.00486079
0.00402497
0.0026779
0.00206675
0.00187401
0.00182344
0.00181781
0.00188245
0.00208356
0.00243652
0.00295708
0.00355778
0.0041
0.00438376
0.00445708
0.00442332
0.00436029
0.00435467
0.00448281
0.0048474
0.00567807
0.0075443
0.0100697
0.0108536
0.0109919
0.010946
0.0107703
0.0103468
0.00976077
0.00912838
0.00841141
0.00761549
0.00684293
0.00621495
0.00583331
0.00575139
0.00580706
0.00602268
0.00642604
0.00667215
0.00660511
0.00644488
0.00650522
0.00696181
0.00693376
0.00567813
0.00460666
0.00423852
0.004012
0.00388253
0.00382178
0.00380968
0.00389688
0.00418789
0.0043854
0.00436865
0.00412656
0.00363903
0.00323966
0.0030369
0.0027596
0.00265637
0.0026527
0.00272047
0.00276762
0.00278241
0.00278965
0.00279272
0.00279492
0.00281277
0.00286654
0.00297504
0.00315539
0.00342502
0.00379129
0.00426108
0.00455587
0.00465323
0.0046898
0.00471758
0.00473115
0.00468774
0.00444021
0.00390826
0.00358714
0.00354307
0.00365958
0.00406887
0.00461165
0.00509202
0.00596521
0.00635189
0.00645927
0.00263601
0.00246431
0.00237408
0.00234189
0.00227688
0.00218038
0.00217093
0.00243691
0.00383784
0.00572279
0.00603268
0.00599712
0.00631982
0.00588167
0.00381747
0.00319176
0.0031485
0.00336828
0.00407693
0.00448251
0.00430103
0.00328301
0.00213833
0.00170377
0.00157472
0.00153713
0.0015287
0.00153808
0.00158668
0.00168823
0.00186417
0.00214346
0.002563
0.00315428
0.0037444
0.00405675
0.00417377
0.00422863
0.00432032
0.00455161
0.00507428
0.00629217
0.00846126
0.0102071
0.0107257
0.0108174
0.0107122
0.0103343
0.00982687
0.00933771
0.00882307
0.00827906
0.00775024
0.0073139
0.00703593
0.00693633
0.00691887
0.00693371
0.0068963
0.00670836
0.00643107
0.00637136
0.00669984
0.00696077
0.00613504
0.00477441
0.00432398
0.00406799
0.00385476
0.00376003
0.00373322
0.00373828
0.00380214
0.00402154
0.00420994
0.00423503
0.00412082
0.00375112
0.00330926
0.00303879
0.00274715
0.00263658
0.00263058
0.00269163
0.00274906
0.00276866
0.00278813
0.00281353
0.00285017
0.00292386
0.00305425
0.00325361
0.00354964
0.00396568
0.00441832
0.0046102
0.00468021
0.00471509
0.00476993
0.00480569
0.00479538
0.00466751
0.00434586
0.00382278
0.00352612
0.00348336
0.00357694
0.00392131
0.00437028
0.0047079
0.00544621
0.00608534
0.0062724
0.00308166
0.00255217
0.00236275
0.00227793
0.00221152
0.00214424
0.00215282
0.00239789
0.00361576
0.00537146
0.00600531
0.00590635
0.00600189
0.00582803
0.00383111
0.00306107
0.00300741
0.00321408
0.00378794
0.00396468
0.0037732
0.00286818
0.00192812
0.00161192
0.00152939
0.00150552
0.00150034
0.00150088
0.00150619
0.00151861
0.00155186
0.00163177
0.00178499
0.00204104
0.00242912
0.00298908
0.00363589
0.00403367
0.00423636
0.0044665
0.00489171
0.00568117
0.00690114
0.00832356
0.00962016
0.0101874
0.0103304
0.0101602
0.00975785
0.00931904
0.00887529
0.00847241
0.00811827
0.00781567
0.0075834
0.00742366
0.00726831
0.00708111
0.00681904
0.00643947
0.00626324
0.00643673
0.00690982
0.00660716
0.00510757
0.00443484
0.00414233
0.00387282
0.00373677
0.00368214
0.00365715
0.00365083
0.00367113
0.00378486
0.00404265
0.00413861
0.0041357
0.00393429
0.00351671
0.0031008
0.0027638
0.00262693
0.00260921
0.00265878
0.00273181
0.00275944
0.00279281
0.00285224
0.00293153
0.0030645
0.0032818
0.00360158
0.00406596
0.00449869
0.00466604
0.00473453
0.00479543
0.00492697
0.00500901
0.00501403
0.0049183
0.00465725
0.00430091
0.00379599
0.00348472
0.00343042
0.00348207
0.00373953
0.00413518
0.0043799
0.00481137
0.00553523
0.00588625
0.00341581
0.00266308
0.00235755
0.00223776
0.00215853
0.00212356
0.00220096
0.00272727
0.00431717
0.00530449
0.00583231
0.0059181
0.00579932
0.00578329
0.00394024
0.00291581
0.0028069
0.0029272
0.00324857
0.00334505
0.00319103
0.00249212
0.0018227
0.00161367
0.00155624
0.00154986
0.00158014
0.00158969
0.00159001
0.0015703
0.00155869
0.00157145
0.00161714
0.00170843
0.00187611
0.00216586
0.00262854
0.00328512
0.00389438
0.00427641
0.00473897
0.00545499
0.00625726
0.00685228
0.00749101
0.00832001
0.00901476
0.00935205
0.00931827
0.00909507
0.00876957
0.00843095
0.00812469
0.00786266
0.00763503
0.00743044
0.00720315
0.00687254
0.0064279
0.00618915
0.00626257
0.00672971
0.00683207
0.00565351
0.00461094
0.0042452
0.00394136
0.00371947
0.00360552
0.00353758
0.00352011
0.00352416
0.00354757
0.00361948
0.00382094
0.00403471
0.00407971
0.00400333
0.00379985
0.00333372
0.00286772
0.0026344
0.00258998
0.00260423
0.00270054
0.00274853
0.00279185
0.00288355
0.00301126
0.00321893
0.0035598
0.00404362
0.0045209
0.00470986
0.00479233
0.00490356
0.00516784
0.00537291
0.00540767
0.00535603
0.00512281
0.0047659
0.00442068
0.00394496
0.00350168
0.00338937
0.00339432
0.0035472
0.00388416
0.0040886
0.0042863
0.00479852
0.00521188
0.00323165
0.00256603
0.00228951
0.0021776
0.00212688
0.00217034
0.00255727
0.00389878
0.00495468
0.00538511
0.00566965
0.00589249
0.00569236
0.00574206
0.00424218
0.00283991
0.00258552
0.00261816
0.00274849
0.00278633
0.00263821
0.00216539
0.00177274
0.00166001
0.0016489
0.00175447
0.00194451
0.00200527
0.00201307
0.00194778
0.00179184
0.00170046
0.00168296
0.0017125
0.00179524
0.00195281
0.00222484
0.00264147
0.00314426
0.00362349
0.00420272
0.00499124
0.00579251
0.00629202
0.0064262
0.00670866
0.00719663
0.00764578
0.00798608
0.00816577
0.00819344
0.00806648
0.00787844
0.0076525
0.00741176
0.0071386
0.00676068
0.0063631
0.00613451
0.00614374
0.00644241
0.00683466
0.00633448
0.00494154
0.00440064
0.0040701
0.00372358
0.00347929
0.00334035
0.00329279
0.00329303
0.0033301
0.00337892
0.00343089
0.003528
0.00377738
0.00395939
0.0040082
0.00391476
0.00370734
0.00312621
0.00269995
0.00258227
0.00257252
0.00262652
0.00273237
0.00278999
0.00291369
0.00311853
0.00343308
0.00393932
0.00448532
0.00472687
0.00482878
0.00496667
0.00534412
0.00585562
0.00600602
0.00601379
0.00588661
0.00551663
0.00505373
0.00468415
0.00425151
0.00363124
0.00336901
0.00332133
0.00336052
0.0035689
0.00383489
0.00394271
0.00414287
0.00449145
0.00257185
0.00232684
0.00222572
0.00218949
0.00226913