/*--------------------------------*- C++ -*----------------------------------*\
  =========                 |
  \\      /  F ield         | OpenFOAM: The Open Source CFD Toolbox
   \\    /   O peration     | Website:  https://openfoam.org
    \\  /    A nd           | Version:  10
     \\/     M anipulation  |
\*---------------------------------------------------------------------------*/
FoamFile
{
    format      ascii;
    class       volVectorField;
    location    "0.951656";
    object      U;
}
// * * * * * * * * * * * * * * * * * * * * * * * * * * * * * * * * * * * * * //

dimensions      [0 1 -1 0 0 0 0];

internalField   nonuniform List<vector> 
16320
(
(-0.162804 -0.191408 0)
(-0.140568 -0.144 0)
(-0.116257 -0.0861112 0)
(-0.0899386 -0.0172978 0)
(-0.0651917 0.0527378 0)
(-0.053062 0.10778 0)
(-0.064071 0.149289 0)
(-0.071054 0.168858 0)
(-0.0703218 0.184377 0)
(-0.0705457 0.202243 0)
(-0.06394 0.221904 0)
(-0.0495907 0.247028 0)
(-0.0379026 0.274021 0)
(-0.0289934 0.296429 0)
(-0.0132762 0.318213 0)
(0.00515439 0.34235 0)
(0.0255177 0.365219 0)
(0.0495048 0.383768 0)
(0.0749966 0.399267 0)
(0.101122 0.413774 0)
(0.12865 0.427068 0)
(0.157345 0.438536 0)
(0.186458 0.448655 0)
(0.217232 0.456989 0)
(0.251543 0.465858 0)
(0.289681 0.475648 0)
(0.329741 0.485341 0)
(0.368453 0.493015 0)
(0.405246 0.497312 0)
(0.440458 0.498263 0)
(0.474075 0.496743 0)
(0.505255 0.492384 0)
(0.533563 0.48555 0)
(0.558238 0.476206 0)
(0.579891 0.466153 0)
(0.598562 0.454072 0)
(0.613513 0.441939 0)
(0.625461 0.42982 0)
(0.634618 0.417593 0)
(0.639499 0.406607 0)
(0.639293 0.397198 0)
(0.633736 0.388525 0)
(0.623006 0.381832 0)
(0.607754 0.375113 0)
(0.587842 0.368887 0)
(0.566176 0.363423 0)
(0.546307 0.358675 0)
(0.531884 0.354907 0)
(0.52247 0.351439 0)
(0.517539 0.356254 0)
(0.518173 0.365515 0)
(0.523513 0.374962 0)
(0.529767 0.382369 0)
(0.534848 0.386767 0)
(0.538835 0.387942 0)
(0.542273 0.386903 0)
(0.545887 0.380998 0)
(0.545671 0.371989 0)
(0.53033 0.36402 0)
(0.501271 0.348021 0)
(0.472716 0.312335 0)
(0.442305 0.261771 0)
(0.408304 0.198924 0)
(0.369079 0.123477 0)
(0.321029 0.0333949 0)
(0.26628 -0.0644574 0)
(0.216685 -0.151753 0)
(0.175525 -0.217673 0)
(0.137701 -0.266187 0)
(0.1031 -0.303436 0)
(0.0729241 -0.331866 0)
(0.0465074 -0.35096 0)
(0.0220868 -0.361287 0)
(0.00127151 -0.363122 0)
(-0.0125347 -0.354046 0)
(-0.0194207 -0.33226 0)
(-0.0151258 -0.302147 0)
(0.00107294 -0.269896 0)
(0.017427 -0.243582 0)
(0.0303294 -0.222915 0)
(0.0425387 -0.212804 0)
(0.0530269 -0.21638 0)
(0.057899 -0.231459 0)
(0.0566189 -0.250165 0)
(0.0502908 -0.267022 0)
(0.0420295 -0.275264 0)
(0.0402147 -0.276139 0)
(0.0404997 -0.262803 0)
(0.0499341 -0.230328 0)
(0.0697923 -0.212344 0)
(0.0922219 -0.193174 0)
(0.115957 -0.17124 0)
(0.14031 -0.144169 0)
(0.164354 -0.113124 0)
(0.185766 -0.0826578 0)
(0.20284 -0.0580839 0)
(0.2145 -0.0429446 0)
(0.219639 -0.039449 0)
(0.218119 -0.0502098 0)
(0.209549 -0.0787981 0)
(0.184039 -0.123851 0)
(0.139949 -0.190546 0)
(0.0979169 -0.270634 0)
(0.0615717 -0.357647 0)
(0.019932 -0.446988 0)
(-0.0202279 -0.525587 0)
(-0.0316483 -0.486914 0)
(-0.0356697 -0.404192 0)
(-0.0368246 -0.3382 0)
(-0.0479911 -0.276121 0)
(-0.0638144 -0.21166 0)
(-0.080973 -0.152233 0)
(-0.104966 -0.10643 0)
(-0.182782 -0.20459 0)
(-0.163135 -0.158247 0)
(-0.141316 -0.100155 0)
(-0.116801 -0.0331057 0)
(-0.0910461 0.0417599 0)
(-0.0702379 0.104986 0)
(-0.067362 0.152536 0)
(-0.0785246 0.183539 0)
(-0.0795069 0.195493 0)
(-0.0775835 0.20874 0)
(-0.0762548 0.223095 0)
(-0.0670991 0.241596 0)
(-0.0513062 0.264903 0)
(-0.0393785 0.287122 0)
(-0.0276418 0.304493 0)
(-0.00880761 0.323487 0)
(0.0129623 0.345683 0)
(0.0347952 0.366025 0)
(0.0590136 0.382831 0)
(0.086477 0.396759 0)
(0.115481 0.409881 0)
(0.144348 0.421585 0)
(0.17287 0.431516 0)
(0.202213 0.441469 0)
(0.233957 0.450701 0)
(0.267819 0.45889 0)
(0.303553 0.46426 0)
(0.340886 0.467373 0)
(0.379027 0.468758 0)
(0.417322 0.469141 0)
(0.453751 0.467102 0)
(0.486708 0.462903 0)
(0.51634 0.456567 0)
(0.542923 0.448569 0)
(0.566431 0.439659 0)
(0.58661 0.42935 0)
(0.60361 0.419118 0)
(0.616419 0.408108 0)
(0.625907 0.398901 0)
(0.631459 0.388568 0)
(0.630879 0.380376 0)
(0.624917 0.373589 0)
(0.613064 0.368454 0)
(0.596199 0.364026 0)
(0.575993 0.359477 0)
(0.552688 0.355465 0)
(0.530678 0.352843 0)
(0.512887 0.350128 0)
(0.505519 0.350575 0)
(0.503201 0.357322 0)
(0.503335 0.365096 0)
(0.509306 0.376955 0)
(0.517865 0.385993 0)
(0.526291 0.391378 0)
(0.534406 0.393425 0)
(0.540543 0.39399 0)
(0.545744 0.391106 0)
(0.549774 0.383603 0)
(0.543739 0.373207 0)
(0.522104 0.362205 0)
(0.493035 0.333508 0)
(0.464956 0.285548 0)
(0.433471 0.224285 0)
(0.396999 0.15174 0)
(0.352009 0.0670515 0)
(0.297795 -0.0311756 0)
(0.24742 -0.124356 0)
(0.20483 -0.197372 0)
(0.165991 -0.251585 0)
(0.131249 -0.292579 0)
(0.101214 -0.322963 0)
(0.0747218 -0.343627 0)
(0.0509052 -0.356289 0)
(0.030207 -0.361365 0)
(0.0141159 -0.357979 0)
(0.00326526 -0.345208 0)
(-0.000799016 -0.319432 0)
(0.00462354 -0.285797 0)
(0.0203158 -0.255185 0)
(0.036793 -0.232606 0)
(0.0502491 -0.218268 0)
(0.0629312 -0.215644 0)
(0.0734109 -0.224094 0)
(0.0803001 -0.239459 0)
(0.0833657 -0.254309 0)
(0.0795622 -0.258759 0)
(0.0744052 -0.25686 0)
(0.0729078 -0.248597 0)
(0.0761664 -0.229853 0)
(0.0900433 -0.214906 0)
(0.106484 -0.197272 0)
(0.124159 -0.175877 0)
(0.143213 -0.149566 0)
(0.163521 -0.118277 0)
(0.182403 -0.0853419 0)
(0.197587 -0.0561122 0)
(0.208754 -0.0353709 0)
(0.214372 -0.0258967 0)
(0.213866 -0.0304036 0)
(0.209221 -0.0506019 0)
(0.193903 -0.0880024 0)
(0.161288 -0.14382 0)
(0.125285 -0.216491 0)
(0.0941474 -0.304653 0)
(0.0555142 -0.401948 0)
(0.0111768 -0.493095 0)
(-0.0117959 -0.475551 0)
(-0.0209791 -0.393453 0)
(-0.0254881 -0.32911 0)
(-0.0388786 -0.267996 0)
(-0.0571977 -0.203562 0)
(-0.0742849 -0.143772 0)
(-0.0960744 -0.0975697 0)
(-0.209601 -0.213157 0)
(-0.193511 -0.169556 0)
(-0.174226 -0.114043 0)
(-0.150798 -0.0473031 0)
(-0.125446 0.0278686 0)
(-0.103143 0.0977628 0)
(-0.086141 0.151799 0)
(-0.0899028 0.190869 0)
(-0.0940477 0.206006 0)
(-0.0894796 0.215327 0)
(-0.0879569 0.225837 0)
(-0.0833998 0.238338 0)
(-0.0706932 0.256422 0)
(-0.054399 0.276547 0)
(-0.0430889 0.291931 0)
(-0.0264832 0.305687 0)
(-0.00311614 0.32284 0)
(0.0226129 0.342235 0)
(0.0471218 0.361537 0)
(0.0725932 0.378441 0)
(0.101281 0.393004 0)
(0.131036 0.405015 0)
(0.16117 0.4151 0)
(0.191116 0.424422 0)
(0.221367 0.433118 0)
(0.252331 0.440778 0)
(0.284288 0.447197 0)
(0.317696 0.452151 0)
(0.352265 0.454935 0)
(0.386236 0.455161 0)
(0.418748 0.451975 0)
(0.450038 0.44642 0)
(0.479315 0.439312 0)
(0.506131 0.431319 0)
(0.529849 0.422479 0)
(0.55072 0.413227 0)
(0.567592 0.403471 0)
(0.58213 0.394157 0)
(0.591952 0.385938 0)
(0.596977 0.378145 0)
(0.598451 0.371627 0)
(0.594231 0.366945 0)
(0.584813 0.363628 0)
(0.570136 0.361617 0)
(0.552814 0.360012 0)
(0.532934 0.356476 0)
(0.511946 0.351294 0)
(0.495693 0.344469 0)
(0.4887 0.345117 0)
(0.483433 0.349173 0)
(0.484499 0.364078 0)
(0.493277 0.375183 0)
(0.503068 0.387345 0)
(0.51401 0.395498 0)
(0.525891 0.399435 0)
(0.536182 0.400752 0)
(0.543514 0.400055 0)
(0.549043 0.393763 0)
(0.549342 0.383031 0)
(0.535997 0.370662 0)
(0.510031 0.349157 0)
(0.483599 0.305956 0)
(0.454952 0.246816 0)
(0.421639 0.176814 0)
(0.379769 0.0967741 0)
(0.327035 -0.000513019 0)
(0.2775 -0.0983841 0)
(0.234963 -0.177935 0)
(0.196095 -0.237998 0)
(0.161733 -0.282977 0)
(0.132328 -0.315812 0)
(0.106752 -0.338598 0)
(0.0840761 -0.352962 0)
(0.0639585 -0.359583 0)
(0.0467962 -0.35842 0)
(0.0335676 -0.349383 0)
(0.0252135 -0.331405 0)
(0.0229797 -0.303635 0)
(0.0283352 -0.269746 0)
(0.0415375 -0.242922 0)
(0.0562253 -0.226742 0)
(0.069777 -0.220439 0)
(0.0825749 -0.223081 0)
(0.0936984 -0.232003 0)
(0.102361 -0.241903 0)
(0.104233 -0.245517 0)
(0.102143 -0.241662 0)
(0.101561 -0.233026 0)
(0.102853 -0.219758 0)
(0.112706 -0.209962 0)
(0.124546 -0.198036 0)
(0.136313 -0.177393 0)
(0.1492 -0.150796 0)
(0.163377 -0.119576 0)
(0.177937 -0.0854991 0)
(0.190258 -0.0530493 0)
(0.199418 -0.0278012 0)
(0.203997 -0.0134405 0)
(0.203456 -0.0124581 0)
(0.199681 -0.0266758 0)
(0.189031 -0.0579777 0)
(0.165967 -0.105878 0)
(0.138231 -0.171023 0)
(0.113707 -0.255868 0)
(0.0824334 -0.356627 0)
(0.0426926 -0.454063 0)
(0.00747949 -0.455403 0)
(-0.00850275 -0.379602 0)
(-0.0158919 -0.316565 0)
(-0.0317933 -0.25684 0)
(-0.0528571 -0.193678 0)
(-0.0705667 -0.134921 0)
(-0.0900672 -0.0894743 0)
(-0.239562 -0.216137 0)
(-0.228221 -0.176062 0)
(-0.212232 -0.125075 0)
(-0.190602 -0.0611128 0)
(-0.166595 0.0137491 0)
(-0.143134 0.086067 0)
(-0.120389 0.145809 0)
(-0.114828 0.189365 0)
(-0.114982 0.210227 0)
(-0.106746 0.219317 0)
(-0.102091 0.227529 0)
(-0.0990816 0.235689 0)
(-0.0900563 0.248446 0)
(-0.0738134 0.264262 0)
(-0.0590005 0.278247 0)
(-0.0439653 0.28771 0)
(-0.021489 0.30013 0)
(0.00608667 0.315631 0)
(0.0357713 0.332681 0)
(0.0649799 0.350825 0)
(0.0930419 0.368302 0)
(0.121314 0.384325 0)
(0.150896 0.398553 0)
(0.180679 0.409758 0)
(0.210514 0.418958 0)
(0.240399 0.425724 0)
(0.270898 0.431248 0)
(0.301946 0.435908 0)
(0.333043 0.439056 0)
(0.36329 0.439809 0)
(0.39226 0.438776 0)
(0.42027 0.436083 0)
(0.446828 0.431832 0)
(0.471358 0.426235 0)
(0.493314 0.419335 0)
(0.512277 0.411659 0)
(0.528525 0.403213 0)
(0.542013 0.395403 0)
(0.552185 0.387185 0)
(0.558769 0.381084 0)
(0.561278 0.375751 0)
(0.559694 0.372012 0)
(0.553669 0.369756 0)
(0.543228 0.36892 0)
(0.528999 0.369083 0)
(0.511688 0.367466 0)
(0.492114 0.363671 0)
(0.479175 0.358315 0)
(0.471875 0.353114 0)
(0.472039 0.353182 0)
(0.471125 0.360586 0)
(0.475251 0.374247 0)
(0.488641 0.386407 0)
(0.501327 0.397292 0)
(0.515727 0.404163 0)
(0.529471 0.406979 0)
(0.538996 0.407309 0)
(0.545482 0.402657 0)
(0.548888 0.392388 0)
(0.542832 0.377976 0)
(0.522821 0.359275 0)
(0.496797 0.32102 0)
(0.470789 0.26522 0)
(0.441328 0.198324 0)
(0.402752 0.121996 0)
(0.352658 0.0262426 0)
(0.305747 -0.0750782 0)
(0.264761 -0.160403 0)
(0.226996 -0.226095 0)
(0.19361 -0.275263 0)
(0.165097 -0.311214 0)
(0.140363 -0.336251 0)
(0.118314 -0.3516 0)
(0.0981949 -0.358518 0)
(0.0802398 -0.357678 0)
(0.0651828 -0.349764 0)
(0.0539748 -0.334934 0)
(0.047349 -0.312712 0)
(0.0456188 -0.283814 0)
(0.049692 -0.253492 0)
(0.0606065 -0.235133 0)
(0.074404 -0.227121 0)
(0.0878004 -0.226623 0)
(0.100684 -0.230204 0)
(0.112093 -0.234249 0)
(0.117861 -0.234087 0)
(0.120001 -0.229288 0)
(0.121707 -0.221453 0)
(0.125116 -0.210523 0)
(0.134221 -0.199573 0)
(0.14292 -0.18965 0)
(0.150002 -0.171688 0)
(0.156227 -0.146388 0)
(0.163402 -0.11589 0)
(0.172028 -0.081624 0)
(0.180203 -0.0473343 0)
(0.186571 -0.0188819 0)
(0.189005 -0.000532689 0)
(0.18732 0.0050819 0)
(0.183989 -0.00464925 0)
(0.175771 -0.0312875 0)
(0.159055 -0.0739391 0)
(0.138915 -0.13372 0)
(0.121753 -0.214484 0)
(0.0990186 -0.314856 0)
(0.0679107 -0.413542 0)
(0.0233851 -0.428343 0)
(0.00105833 -0.361869 0)
(-0.00721905 -0.300283 0)
(-0.0268049 -0.242252 0)
(-0.0509522 -0.181468 0)
(-0.0696494 -0.124978 0)
(-0.0871051 -0.0813032 0)
(-0.269754 -0.214182 0)
(-0.262819 -0.177738 0)
(-0.251647 -0.131442 0)
(-0.233802 -0.0735907 0)
(-0.212087 -0.00236831 0)
(-0.188016 0.0695457 0)
(-0.161425 0.131149 0)
(-0.148218 0.179011 0)
(-0.142045 0.20538 0)
(-0.128319 0.218018 0)
(-0.119129 0.226081 0)
(-0.11426 0.23221 0)
(-0.105727 0.240664 0)
(-0.0905536 0.252316 0)
(-0.0738347 0.263203 0)
(-0.058824 0.268986 0)
(-0.0370542 0.2769 0)
(-0.0102522 0.288635 0)
(0.0201519 0.302767 0)
(0.0521369 0.317757 0)
(0.0846665 0.333925 0)
(0.117031 0.351758 0)
(0.148179 0.369772 0)
(0.177316 0.385496 0)
(0.205126 0.398557 0)
(0.23248 0.409411 0)
(0.260871 0.417811 0)
(0.289826 0.423848 0)
(0.318412 0.427592 0)
(0.346092 0.428526 0)
(0.372915 0.427527 0)
(0.398768 0.425269 0)
(0.422857 0.421717 0)
(0.44474 0.416925 0)
(0.464063 0.410781 0)
(0.480949 0.403925 0)
(0.495441 0.39705 0)
(0.507756 0.390048 0)
(0.517477 0.383566 0)
(0.524186 0.377813 0)
(0.527506 0.373335 0)
(0.52732 0.370227 0)
(0.523633 0.368776 0)
(0.51606 0.368983 0)
(0.504995 0.370105 0)
(0.491599 0.371337 0)
(0.477441 0.371461 0)
(0.465096 0.371187 0)
(0.460088 0.367157 0)
(0.455601 0.365157 0)
(0.456282 0.365803 0)
(0.463217 0.377101 0)
(0.474064 0.387987 0)
(0.489546 0.39979 0)
(0.505625 0.408348 0)
(0.521439 0.412649 0)
(0.533069 0.413537 0)
(0.540237 0.410254 0)
(0.544552 0.400535 0)
(0.543099 0.385252 0)
(0.528709 0.365069 0)
(0.504993 0.330279 0)
(0.481196 0.278689 0)
(0.455407 0.21537 0)
(0.42021 0.142336 0)
(0.37326 0.0477267 0)
(0.330778 -0.0556002 0)
(0.292927 -0.145666 0)
(0.257101 -0.216328 0)
(0.225183 -0.269802 0)
(0.197786 -0.309122 0)
(0.173679 -0.33591 0)
(0.151355 -0.351533 0)
(0.130434 -0.357918 0)
(0.111546 -0.356354 0)
(0.0948556 -0.348364 0)
(0.0810194 -0.334316 0)
(0.0706201 -0.314274 0)
(0.0641996 -0.289275 0)
(0.0614786 -0.262514 0)
(0.0671903 -0.243762 0)
(0.0782675 -0.235603 0)
(0.0900843 -0.232836 0)
(0.102936 -0.232307 0)
(0.115462 -0.231261 0)
(0.123851 -0.227394 0)
(0.129811 -0.220689 0)
(0.135055 -0.212481 0)
(0.141748 -0.201963 0)
(0.15126 -0.189795 0)
(0.157449 -0.17656 0)
(0.159794 -0.159071 0)
(0.160709 -0.135232 0)
(0.161722 -0.106019 0)
(0.163756 -0.072748 0)
(0.166569 -0.0379327 0)
(0.169538 -0.00673402 0)
(0.168895 0.0144563 0)
(0.165664 0.0230578 0)
(0.161725 0.0168789 0)
(0.156104 -0.00728056 0)
(0.144311 -0.0469301 0)
(0.130939 -0.103521 0)
(0.121084 -0.181333 0)
(0.106592 -0.279484 0)
(0.0839595 -0.375273 0)
(0.0356535 -0.397219 0)
(0.00841802 -0.33808 0)
(-0.000994955 -0.280357 0)
(-0.0238677 -0.224219 0)
(-0.0506962 -0.166751 0)
(-0.0703478 -0.114014 0)
(-0.0867279 -0.0733804 0)
(-0.297287 -0.207406 0)
(-0.2939 -0.17435 0)
(-0.286848 -0.131904 0)
(-0.274773 -0.0803048 0)
(-0.257207 -0.0181374 0)
(-0.234605 0.0504775 0)
(-0.20591 0.112679 0)
(-0.184925 0.1621 0)
(-0.170009 0.19333 0)
(-0.150547 0.210419 0)
(-0.138054 0.219996 0)
(-0.13029 0.226027 0)
(-0.119385 0.231794 0)
(-0.102906 0.239534 0)
(-0.0850496 0.24651 0)
(-0.0693057 0.249224 0)
(-0.0476627 0.25325 0)
(-0.0220569 0.261299 0)
(0.00688755 0.272845 0)
(0.0382146 0.286571 0)
(0.0709293 0.301747 0)
(0.104406 0.317982 0)
(0.137848 0.334834 0)
(0.170004 0.351577 0)
(0.201756 0.367474 0)
(0.231809 0.382262 0)
(0.259329 0.394784 0)
(0.285645 0.404395 0)
(0.31077 0.411282 0)
(0.334912 0.416118 0)
(0.358873 0.418681 0)
(0.382325 0.418831 0)
(0.4042 0.416692 0)
(0.42383 0.412494 0)
(0.441243 0.406583 0)
(0.456778 0.400027 0)
(0.470102 0.393302 0)
(0.481233 0.386624 0)
(0.490002 0.380023 0)
(0.496113 0.374063 0)
(0.499304 0.369337 0)
(0.499622 0.366412 0)
(0.497048 0.365505 0)
(0.490977 0.36639 0)
(0.481811 0.368662 0)
(0.470654 0.371802 0)
(0.459569 0.374341 0)
(0.450308 0.375822 0)
(0.444408 0.375938 0)
(0.443656 0.373559 0)
(0.445367 0.378013 0)
(0.449791 0.384252 0)
(0.462211 0.395352 0)
(0.478429 0.405545 0)
(0.49536 0.413834 0)
(0.512448 0.418552 0)
(0.525614 0.419444 0)
(0.533469 0.416433 0)
(0.537898 0.407137 0)
(0.538528 0.391506 0)
(0.528382 0.369338 0)
(0.508311 0.335643 0)
(0.486381 0.287394 0)
(0.463681 0.227658 0)
(0.431803 0.157103 0)
(0.388306 0.0637562 0)
(0.351587 -0.0409453 0)
(0.318173 -0.134581 0)
(0.28498 -0.209173 0)
(0.25489 -0.266457 0)
(0.228595 -0.308367 0)
(0.204604 -0.336175 0)
(0.181194 -0.351665 0)
(0.15892 -0.357131 0)
(0.138727 -0.354397 0)
(0.12016 -0.345803 0)
(0.103656 -0.331561 0)
(0.0895851 -0.312037 0)
(0.0786902 -0.288676 0)
(0.0709133 -0.265639 0)
(0.0729592 -0.251002 0)
(0.0817812 -0.244785 0)
(0.0914302 -0.240548 0)
(0.102987 -0.236544 0)
(0.114973 -0.231486 0)
(0.125338 -0.224779 0)
(0.134886 -0.21618 0)
(0.144341 -0.205913 0)
(0.153816 -0.193995 0)
(0.160568 -0.181617 0)
(0.163263 -0.165161 0)
(0.162165 -0.144168 0)
(0.158816 -0.119361 0)
(0.154841 -0.090794 0)
(0.151183 -0.0587812 0)
(0.149318 -0.0241599 0)
(0.146791 0.00933011 0)
(0.143307 0.0313608 0)
(0.139462 0.0411072 0)
(0.135767 0.0364302 0)
(0.131705 0.0147696 0)
(0.124867 -0.0240804 0)
(0.117677 -0.0794968 0)
(0.114595 -0.156382 0)
(0.107271 -0.251644 0)
(0.0915008 -0.340956 0)
(0.043793 -0.363355 0)
(0.0135758 -0.309539 0)
(0.00226585 -0.256923 0)
(-0.0229312 -0.202997 0)
(-0.0518466 -0.149886 0)
(-0.0720157 -0.102302 0)
(-0.0876933 -0.0660018 0)
(-0.319079 -0.196554 0)
(-0.318725 -0.166332 0)
(-0.313584 -0.127843 0)
(-0.305098 -0.0804996 0)
(-0.291566 -0.0258067 0)
(-0.271224 0.0353375 0)
(-0.243916 0.0946341 0)
(-0.218103 0.142416 0)
(-0.19507 0.176607 0)
(-0.171664 0.196786 0)
(-0.156048 0.20836 0)
(-0.14448 0.215456 0)
(-0.13088 0.21981 0)
(-0.112001 0.224215 0)
(-0.0918872 0.227494 0)
(-0.0745957 0.227899 0)
(-0.0526031 0.229181 0)
(-0.0278489 0.234463 0)
(-0.000760172 0.243885 0)
(0.0284296 0.256551 0)
(0.0589576 0.271529 0)
(0.0904884 0.288148 0)
(0.122878 0.305699 0)
(0.155546 0.323451 0)
(0.188352 0.340632 0)
(0.220176 0.355238 0)
(0.249951 0.367679 0)
(0.277796 0.378306 0)
(0.304858 0.38722 0)
(0.330362 0.39505 0)
(0.353179 0.401166 0)
(0.374162 0.404933 0)
(0.392995 0.406105 0)
(0.409618 0.405521 0)
(0.424698 0.403596 0)
(0.438434 0.400193 0)
(0.450232 0.395442 0)
(0.459854 0.389713 0)
(0.467335 0.382999 0)
(0.472753 0.37655 0)
(0.476072 0.371125 0)
(0.476961 0.367129 0)
(0.47494 0.364998 0)
(0.469632 0.364785 0)
(0.461467 0.366943 0)
(0.45124 0.371338 0)
(0.441255 0.376185 0)
(0.433492 0.380233 0)
(0.429457 0.382661 0)
(0.430282 0.384515 0)
(0.433703 0.387079 0)
(0.439875 0.394278 0)
(0.451185 0.40427 0)
(0.466558 0.412821 0)
(0.4844 0.420326 0)
(0.502286 0.424744 0)
(0.516629 0.42527 0)
(0.525199 0.421719 0)
(0.529664 0.41234 0)
(0.530997 0.396412 0)
(0.523309 0.372398 0)
(0.506602 0.338124 0)
(0.487083 0.292006 0)
(0.466864 0.234983 0)
(0.43775 0.167089 0)
(0.397927 0.0733533 0)
(0.367374 -0.0320405 0)
(0.339418 -0.127509 0)
(0.309566 -0.204894 0)
(0.281448 -0.264792 0)
(0.25596 -0.30822 0)
(0.231221 -0.336246 0)
(0.205926 -0.351149 0)
(0.18205 -0.355307 0)
(0.160132 -0.351316 0)
(0.139199 -0.34182 0)
(0.119608 -0.32683 0)
(0.101571 -0.30715 0)
(0.0866344 -0.285009 0)
(0.0755557 -0.265341 0)
(0.0757941 -0.254583 0)
(0.0829762 -0.251323 0)
(0.0907493 -0.247013 0)
(0.101003 -0.241241 0)
(0.11262 -0.23377 0)
(0.124866 -0.224959 0)
(0.137585 -0.214384 0)
(0.149407 -0.202212 0)
(0.157689 -0.189147 0)
(0.161338 -0.17278 0)
(0.160419 -0.151723 0)
(0.1557 -0.127119 0)
(0.148539 -0.1005 0)
(0.140409 -0.0718753 0)
(0.132501 -0.0407184 0)
(0.126244 -0.00593283 0)
(0.118607 0.0276483 0)
(0.113118 0.0500498 0)
(0.109514 0.0597313 0)
(0.106665 0.0547619 0)
(0.104593 0.0332634 0)
(0.102696 -0.00579174 0)
(0.10164 -0.0615389 0)
(0.104685 -0.138874 0)
(0.103546 -0.229618 0)
(0.0917535 -0.308947 0)
(0.0472805 -0.327509 0)
(0.0167604 -0.277443 0)
(0.00229974 -0.229977 0)
(-0.0242647 -0.179136 0)
(-0.0543871 -0.131352 0)
(-0.0744089 -0.0899309 0)
(-0.0895418 -0.0587276 0)
(-0.331876 -0.182559 0)
(-0.334597 -0.155709 0)
(-0.331591 -0.121905 0)
(-0.323697 -0.0797851 0)
(-0.31124 -0.0307671 0)
(-0.29278 0.0227434 0)
(-0.267895 0.0757936 0)
(-0.240556 0.120766 0)
(-0.213653 0.155721 0)
(-0.189191 0.178217 0)
(-0.170038 0.191686 0)
(-0.153436 0.198987 0)
(-0.135929 0.201866 0)
(-0.113877 0.204415 0)
(-0.092686 0.205444 0)
(-0.0737182 0.204642 0)
(-0.0510001 0.204439 0)
(-0.026684 0.20821 0)
(-0.000974852 0.216518 0)
(0.0260229 0.228742 0)
(0.0532834 0.243643 0)
(0.080989 0.260489 0)
(0.10979 0.278554 0)
(0.139812 0.297089 0)
(0.170994 0.31542 0)
(0.202398 0.33219 0)
(0.232949 0.346768 0)
(0.261973 0.359142 0)
(0.289697 0.369307 0)
(0.315967 0.376746 0)
(0.339892 0.382237 0)
(0.361865 0.386531 0)
(0.381985 0.389353 0)
(0.400258 0.391399 0)
(0.415514 0.392613 0)
(0.427709 0.392287 0)
(0.437417 0.390359 0)
(0.444503 0.387293 0)
(0.449911 0.384129 0)
(0.454145 0.380834 0)
(0.456348 0.377636 0)
(0.456415 0.374601 0)
(0.454198 0.371708 0)
(0.449704 0.370216 0)
(0.443386 0.371224 0)
(0.434742 0.374647 0)
(0.425414 0.379799 0)
(0.417775 0.385758 0)
(0.414249 0.391011 0)
(0.415781 0.395198 0)
(0.421175 0.398999 0)
(0.429267 0.405873 0)
(0.440321 0.414117 0)
(0.455303 0.421735 0)
(0.473347 0.428011 0)
(0.491479 0.431618 0)
(0.506276 0.431292 0)
(0.515346 0.42653 0)
(0.520056 0.416312 0)
(0.521156 0.399339 0)
(0.514603 0.373438 0)
(0.500926 0.338974 0)
(0.483887 0.292779 0)
(0.46662 0.239233 0)
(0.439035 0.170242 0)
(0.401552 0.0766311 0)
(0.379002 -0.0286876 0)
(0.35639 -0.124482 0)
(0.329571 -0.203306 0)
(0.303262 -0.264417 0)
(0.278052 -0.308127 0)
(0.251694 -0.335579 0)
(0.224073 -0.34932 0)
(0.19841 -0.351409 0)
(0.17416 -0.346259 0)
(0.150299 -0.335636 0)
(0.127058 -0.319611 0)
(0.10493 -0.299729 0)
(0.0865555 -0.279657 0)
(0.0748877 -0.264462 0)
(0.0750642 -0.257663 0)
(0.0805814 -0.256518 0)
(0.0872382 -0.252446 0)
(0.09697 -0.245995 0)
(0.109208 -0.23742 0)
(0.122729 -0.227232 0)
(0.135955 -0.215365 0)
(0.146003 -0.201849 0)
(0.151565 -0.183795 0)
(0.152025 -0.160699 0)
(0.14729 -0.134318 0)
(0.138694 -0.106532 0)
(0.12812 -0.078716 0)
(0.116986 -0.0501759 0)
(0.106634 -0.0195852 0)
(0.0947298 0.0156267 0)
(0.0837638 0.0485665 0)
(0.0782623 0.070232 0)
(0.076003 0.077909 0)
(0.0750912 0.0710587 0)
(0.0762501 0.0480496 0)
(0.079372 0.00793969 0)
(0.0847932 -0.0495505 0)
(0.0930817 -0.128226 0)
(0.097224 -0.212192 0)
(0.0860665 -0.278052 0)
(0.0456529 -0.289514 0)
(0.0174205 -0.243618 0)
(-0.00113869 -0.200476 0)
(-0.0280483 -0.153731 0)
(-0.0583926 -0.111991 0)
(-0.0774742 -0.0772971 0)
(-0.0918915 -0.0515117 0)
(-0.334325 -0.164912 0)
(-0.339728 -0.143465 0)
(-0.339039 -0.114653 0)
(-0.332419 -0.0790972 0)
(-0.320474 -0.0368372 0)
(-0.302657 0.0100614 0)
(-0.279098 0.0574625 0)
(-0.252083 0.0994185 0)
(-0.224674 0.132976 0)
(-0.19909 0.156222 0)
(-0.17606 0.170539 0)
(-0.154131 0.177369 0)
(-0.131631 0.179188 0)
(-0.10695 0.180478 0)
(-0.0866056 0.180865 0)
(-0.0656779 0.179455 0)
(-0.0417903 0.178568 0)
(-0.0171932 0.181788 0)
(0.00844648 0.190194 0)
(0.0332995 0.203044 0)
(0.0565886 0.219054 0)
(0.0792497 0.236708 0)
(0.102765 0.255105 0)
(0.128016 0.273762 0)
(0.155306 0.292224 0)
(0.184054 0.31021 0)
(0.213173 0.327031 0)
(0.241573 0.341898 0)
(0.268833 0.353932 0)
(0.294995 0.363208 0)
(0.319579 0.3702 0)
(0.342611 0.375944 0)
(0.363675 0.380185 0)
(0.382666 0.38274 0)
(0.398814 0.383279 0)
(0.41182 0.382534 0)
(0.422261 0.38089 0)
(0.431103 0.378881 0)
(0.437637 0.377568 0)
(0.441097 0.376296 0)
(0.441854 0.375113 0)
(0.439318 0.374615 0)
(0.434907 0.37572 0)
(0.43014 0.378526 0)
(0.424261 0.382217 0)
(0.416807 0.385391 0)
(0.409598 0.389965 0)
(0.40384 0.395806 0)
(0.40101 0.402031 0)
(0.402551 0.407929 0)
(0.408813 0.413627 0)
(0.418031 0.419934 0)
(0.429103 0.426891 0)
(0.443637 0.433019 0)
(0.461547 0.437385 0)
(0.479611 0.439384 0)
(0.494325 0.437552 0)
(0.503606 0.430976 0)
(0.508401 0.419141 0)
(0.509154 0.400191 0)
(0.503865 0.373241 0)
(0.491789 0.337079 0)
(0.477811 0.292296 0)
(0.462428 0.238579 0)
(0.434966 0.170105 0)
(0.403338 0.0747771 0)
(0.38627 -0.0298402 0)
(0.368288 -0.1251 0)
(0.344086 -0.203836 0)
(0.319091 -0.264622 0)
(0.293125 -0.307259 0)
(0.264016 -0.333392 0)
(0.234395 -0.344871 0)
(0.206863 -0.344586 0)
(0.179557 -0.338337 0)
(0.152342 -0.326303 0)
(0.124805 -0.309388 0)
(0.0988867 -0.29024 0)
(0.0791379 -0.27405 0)
(0.0700046 -0.264463 0)
(0.070791 -0.262495 0)
(0.07454 -0.261994 0)
(0.0810246 -0.258141 0)
(0.0911684 -0.251821 0)
(0.103537 -0.243165 0)
(0.115609 -0.232654 0)
(0.125434 -0.21856 0)
(0.132006 -0.199402 0)
(0.133578 -0.173941 0)
(0.129713 -0.144726 0)
(0.121502 -0.114128 0)
(0.110012 -0.0839525 0)
(0.0971437 -0.0553185 0)
(0.0842475 -0.0265476 0)
(0.0709168 0.0045832 0)
(0.0551776 0.0386543 0)
(0.0436654 0.0708362 0)
(0.0401744 0.089736 0)
(0.0399957 0.0938028 0)
(0.0423143 0.0840706 0)
(0.0481685 0.058374 0)
(0.0567652 0.0158473 0)
(0.0681153 -0.043905 0)
(0.0811226 -0.123087 0)
(0.0898325 -0.197213 0)
(0.0766902 -0.248039 0)
(0.0386173 -0.249608 0)
(0.0146885 -0.209391 0)
(-0.00720953 -0.169546 0)
(-0.0339793 -0.127641 0)
(-0.0633159 -0.0921419 0)
(-0.0807466 -0.064274 0)
(-0.094027 -0.0447404 0)
(-0.323726 -0.14491 0)
(-0.331913 -0.129163 0)
(-0.333587 -0.106361 0)
(-0.328854 -0.0778173 0)
(-0.317583 -0.0436705 0)
(-0.300219 -0.00443174 0)
(-0.277685 0.0374724 0)
(-0.251687 0.0759954 0)
(-0.22446 0.107436 0)
(-0.197481 0.130059 0)
(-0.171039 0.144407 0)
(-0.145749 0.151456 0)
(-0.121509 0.153685 0)
(-0.0970687 0.153937 0)
(-0.0744727 0.154004 0)
(-0.051169 0.151848 0)
(-0.0258415 0.150126 0)
(-0.000151014 0.152872 0)
(0.0249209 0.161738 0)
(0.0469192 0.177292 0)
(0.0648823 0.196371 0)
(0.0809144 0.214716 0)
(0.0979261 0.230852 0)
(0.116265 0.247788 0)
(0.136287 0.264212 0)
(0.159872 0.280109 0)
(0.185907 0.296711 0)
(0.212276 0.314487 0)
(0.238227 0.33073 0)
(0.264092 0.344362 0)
(0.289482 0.355501 0)
(0.313884 0.364946 0)
(0.336518 0.372724 0)
(0.356705 0.377872 0)
(0.374053 0.380404 0)
(0.388406 0.381071 0)
(0.400089 0.380489 0)
(0.409596 0.378815 0)
(0.416591 0.375728 0)
(0.420649 0.372509 0)
(0.422107 0.370039 0)
(0.422165 0.369364 0)
(0.420349 0.372381 0)
(0.415251 0.378285 0)
(0.406208 0.385817 0)
(0.397253 0.395271 0)
(0.391155 0.404437 0)
(0.387151 0.411477 0)
(0.386526 0.41761 0)
(0.38987 0.42328 0)
(0.396792 0.429077 0)
(0.40644 0.434503 0)
(0.417623 0.440205 0)
(0.43139 0.44495 0)
(0.448722 0.447477 0)
(0.466461 0.447511 0)
(0.480634 0.443705 0)
(0.489782 0.434969 0)
(0.494494 0.421089 0)
(0.495395 0.400442 0)
(0.490334 0.37164 0)
(0.480445 0.334232 0)
(0.468686 0.290044 0)
(0.455193 0.238007 0)
(0.428523 0.163064 0)
(0.398021 0.0670829 0)
(0.389249 -0.0356274 0)
(0.374546 -0.128566 0)
(0.351971 -0.205394 0)
(0.327299 -0.264257 0)
(0.298978 -0.304925 0)
(0.266814 -0.32869 0)
(0.236024 -0.336146 0)
(0.206181 -0.334384 0)
(0.175671 -0.326811 0)
(0.144527 -0.313437 0)
(0.112733 -0.296384 0)
(0.085124 -0.280435 0)
(0.0673836 -0.270287 0)
(0.0620931 -0.267557 0)
(0.0625656 -0.268454 0)
(0.0654611 -0.268169 0)
(0.0722764 -0.265197 0)
(0.0817035 -0.259986 0)
(0.0910851 -0.251063 0)
(0.0992689 -0.237261 0)
(0.10506 -0.21731 0)
(0.105757 -0.19059 0)
(0.101614 -0.159239 0)
(0.0939413 -0.125745 0)
(0.0833867 -0.0923179 0)
(0.0701541 -0.0605863 0)
(0.0562563 -0.0312878 0)
(0.0419731 -0.0015686 0)
(0.0244728 0.030297 0)
(0.00729083 0.0632758 0)
(-0.00126033 0.0926476 0)
(-0.000566921 0.106137 0)
(0.00257845 0.106235 0)
(0.0103441 0.0924406 0)
(0.0218744 0.0630081 0)
(0.0359445 0.0173821 0)
(0.0526072 -0.044525 0)
(0.0695806 -0.120773 0)
(0.0807721 -0.181023 0)
(0.0647047 -0.218237 0)
(0.0275857 -0.208867 0)
(0.00835257 -0.174772 0)
(-0.0150738 -0.138206 0)
(-0.0420255 -0.101656 0)
(-0.0694321 -0.0724897 0)
(-0.0852573 -0.0511995 0)
(-0.0961811 -0.0381198 0)
(-0.299907 -0.123104 0)
(-0.309964 -0.113629 0)
(-0.313901 -0.0969337 0)
(-0.3116 -0.0744975 0)
(-0.30292 -0.0483614 0)
(-0.286744 -0.0185483 0)
(-0.265627 0.0145806 0)
(-0.240022 0.0483381 0)
(-0.212039 0.0776904 0)
(-0.184787 0.0999632 0)
(-0.158587 0.11455 0)
(-0.133279 0.122242 0)
(-0.110129 0.125265 0)
(-0.0851514 0.126012 0)
(-0.0599514 0.125027 0)
(-0.0357562 0.12174 0)
(-0.011986 0.119698 0)
(0.00977723 0.123627 0)
(0.0272597 0.131159 0)
(0.0377828 0.145767 0)
(0.0402084 0.166988 0)
(0.0382758 0.184127 0)
(0.0365931 0.194611 0)
(0.0445282 0.205383 0)
(0.0569632 0.216017 0)
(0.0752733 0.225975 0)
(0.101768 0.237011 0)
(0.135115 0.253454 0)
(0.169229 0.2737 0)
(0.202335 0.293948 0)
(0.234279 0.3137 0)
(0.264651 0.333321 0)
(0.29164 0.351562 0)
(0.314848 0.364534 0)
(0.335456 0.372909 0)
(0.353271 0.378339 0)
(0.367947 0.380727 0)
(0.379598 0.381205 0)
(0.388082 0.379825 0)
(0.393475 0.377703 0)
(0.396258 0.37576 0)
(0.397096 0.37482 0)
(0.395975 0.37488 0)
(0.392668 0.377383 0)
(0.388769 0.384118 0)
(0.382873 0.397119 0)
(0.374511 0.411269 0)
(0.369215 0.424656 0)
(0.369371 0.434776 0)
(0.374166 0.440686 0)
(0.382641 0.445647 0)
(0.393636 0.449442 0)
(0.405462 0.452823 0)
(0.418619 0.456041 0)
(0.435008 0.457143 0)
(0.451933 0.455146 0)
(0.465195 0.449183 0)
(0.473996 0.438437 0)
(0.47887 0.422498 0)
(0.479294 0.399788 0)
(0.47462 0.369022 0)
(0.467224 0.331378 0)
(0.459615 0.287038 0)
(0.44228 0.229559 0)
(0.412381 0.152726 0)
(0.394431 0.0542424 0)
(0.388708 -0.0445536 0)
(0.374622 -0.13344 0)
(0.352218 -0.206806 0)
(0.325885 -0.262412 0)
(0.293641 -0.300259 0)
(0.260112 -0.319424 0)
(0.228426 -0.323226 0)
(0.195664 -0.320466 0)
(0.162253 -0.311442 0)
(0.126984 -0.29778 0)
(0.0923679 -0.282484 0)
(0.06649 -0.272385 0)
(0.0540107 -0.271237 0)
(0.051144 -0.27414 0)
(0.0503428 -0.274671 0)
(0.0532322 -0.276622 0)
(0.0589221 -0.275878 0)
(0.0647116 -0.269498 0)
(0.0702057 -0.256063 0)
(0.0725405 -0.235672 0)
(0.0708579 -0.209589 0)
(0.06531 -0.178468 0)
(0.0565995 -0.143768 0)
(0.0461347 -0.107459 0)
(0.0340136 -0.0718114 0)
(0.0202194 -0.038659 0)
(0.00616125 -0.00785707 0)
(-0.0133332 0.0263228 0)
(-0.0315337 0.0577897 0)
(-0.046028 0.0875986 0)
(-0.047617 0.109818 0)
(-0.0413817 0.116703 0)
(-0.0329018 0.113078 0)
(-0.0185243 0.0954383 0)
(-0.00124605 0.0617671 0)
(0.0181042 0.0130617 0)
(0.0394753 -0.0512992 0)
(0.0587091 -0.118591 0)
(0.0675859 -0.163129 0)
(0.0497825 -0.186419 0)
(0.0146325 -0.168033 0)
(-0.00193503 -0.140902 0)
(-0.0246983 -0.107287 0)
(-0.051761 -0.0763524 0)
(-0.0766163 -0.0536616 0)
(-0.090849 -0.0384902 0)
(-0.0993397 -0.0307251 0)
(-0.268293 -0.0977177 0)
(-0.276336 -0.0960489 0)
(-0.280442 -0.0869227 0)
(-0.279125 -0.0709141 0)
(-0.27248 -0.0493566 0)
(-0.260226 -0.0262614 0)
(-0.242322 -0.00259586 0)
(-0.221194 0.0228273 0)
(-0.196237 0.0477518 0)
(-0.168547 0.0690618 0)
(-0.142691 0.0845004 0)
(-0.119502 0.0937646 0)
(-0.0961657 0.0980658 0)
(-0.0722255 0.0998343 0)
(-0.0509483 0.0988211 0)
(-0.0331396 0.0973794 0)
(-0.0202749 0.100246 0)
(-0.0262784 0.112592 0)
(-0.0489221 0.136535 0)
(-0.0652352 0.154077 0)
(-0.0695575 0.170346 0)
(-0.0711041 0.183248 0)
(-0.0691688 0.192285 0)
(-0.0604554 0.199783 0)
(-0.047425 0.206482 0)
(-0.0291225 0.213225 0)
(-0.00566798 0.219653 0)
(0.0256736 0.228368 0)
(0.063858 0.241401 0)
(0.104112 0.257199 0)
(0.145791 0.274137 0)
(0.187474 0.292297 0)
(0.223582 0.30974 0)
(0.252873 0.329274 0)
(0.279583 0.348238 0)