/*--------------------------------*- C++ -*----------------------------------*\
  =========                 |
  \\      /  F ield         | OpenFOAM: The Open Source CFD Toolbox
   \\    /   O peration     | Website:  https://openfoam.org
    \\  /    A nd           | Version:  10
     \\/     M anipulation  |
\*---------------------------------------------------------------------------*/
FoamFile
{
    format      ascii;
    class       volScalarField;
    location    "0.651548";
    object      p;
}
// * * * * * * * * * * * * * * * * * * * * * * * * * * * * * * * * * * * * * //

dimensions      [1 -1 -2 0 0 0 0];

internalField   nonuniform List<scalar> 
15708
(
2.48545
2.48639
2.48765
2.48919
2.49097
2.49298
2.4952
2.49762
2.50021
2.50297
2.50589
2.50896
2.51216
2.51551
2.51898
2.52257
2.52629
2.53012
2.53407
2.53813
2.54229
2.54655
2.55091
2.55535
2.55987
2.56443
2.56902
2.57363
2.57824
2.58281
2.58733
2.59176
2.59607
2.60024
2.60423
2.60801
2.61154
2.61481
2.61778
2.62042
2.62272
2.62466
2.62622
2.6274
2.62818
2.62858
2.62858
2.62825
2.62752
2.62643
2.62502
2.4853
2.48589
2.48683
2.48808
2.48961
2.49139
2.49341
2.49564
2.49807
2.50069
2.50349
2.50644
2.50955
2.5128
2.5162
2.51972
2.52338
2.52715
2.53105
2.53506
2.53917
2.54339
2.54771
2.55211
2.55658
2.56111
2.56567
2.57025
2.57483
2.57939
2.5839
2.58833
2.59266
2.59685
2.60088
2.60472
2.60833
2.61168
2.61476
2.61753
2.61997
2.62207
2.62381
2.62518
2.62618
2.6268
2.62705
2.62695
2.6265
2.62569
2.62455
2.48497
2.48523
2.48587
2.48686
2.48816
2.48974
2.49156
2.49363
2.49591
2.4984
2.50108
2.50394
2.50696
2.51014
2.51346
2.51693
2.52053
2.52425
2.5281
2.53206
2.53614
2.54032
2.5446
2.54897
2.5534
2.55789
2.56242
2.56697
2.57153
2.57607
2.58057
2.58501
2.58935
2.59357
2.59763
2.60152
2.6052
2.60864
2.61182
2.61472
2.6173
2.61956
2.62149
2.62306
2.62427
2.62513
2.62563
2.62577
2.62559
2.62507
2.62422
2.4844
2.48442
2.48479
2.48552
2.48661
2.48801
2.48968
2.49159
2.49374
2.49612
2.49869
2.50146
2.50441
2.50752
2.51079
2.5142
2.51775
2.52144
2.52524
2.52917
2.53322
2.53737
2.54161
2.54594
2.55034
2.55479
2.55929
2.56381
2.56835
2.57287
2.57736
2.5818
2.58615
2.59039
2.59449
2.59843
2.60217
2.6057
2.60898
2.612
2.61473
2.61716
2.61926
2.62104
2.62248
2.62357
2.62432
2.62473
2.62481
2.62459
2.62403
2.48359
2.4834
2.48356
2.48408
2.48498
2.48621
2.48773
2.48953
2.49157
2.49384
2.49633
2.49903
2.50191
2.50497
2.50819
2.51156
2.51508
2.51872
2.52251
2.52641
2.53043
2.53455
2.53876
2.54305
2.54741
2.55183
2.5563
2.5608
2.5653
2.56981
2.57429
2.57871
2.58307
2.58733
2.59146
2.59545
2.59926
2.60287
2.60625
2.60939
2.61227
2.61486
2.61715
2.61913
2.62079
2.62213
2.62314
2.62382
2.62418
2.62423
2.62398
2.48252
2.48214
2.48215
2.4825
2.48324
2.48433
2.48574
2.48743
2.48938
2.49158
2.494
2.49664
2.49947
2.50249
2.50568
2.50902
2.51251
2.51614
2.51991
2.5238
2.52779
2.53188
2.53606
2.54032
2.54465
2.54904
2.55347
2.55793
2.56241
2.56689
2.57135
2.57577
2.58013
2.5844
2.58856
2.59259
2.59646
2.60015
2.60364
2.6069
2.60991
2.61267
2.61515
2.61734
2.61923
2.62081
2.62209
2.62305
2.6237
2.62404
2.62408
2.48116
2.48064
2.48054
2.48077
2.48138
2.48236
2.48369
2.4853
2.48719
2.48932
2.4917
2.4943
2.4971
2.5001
2.50326
2.5066
2.51009
2.51372
2.51747
2.52134
2.52531
2.52938
2.53353
2.53776
2.54206
2.54641
2.55081
2.55524
2.55969
2.56414
2.56858
2.57298
2.57733
2.58161
2.5858
2.58986
2.59379
2.59756
2.60114
2.60452
2.60768
2.61061
2.61327
2.61567
2.6178
2.61963
2.62117
2.62242
2.62336
2.62401
2.62436
2.47948
2.47889
2.4787
2.47886
2.47939
2.4803
2.48157
2.48313
2.48497
2.48708
2.48943
2.49201
2.4948
2.4978
2.50097
2.50432
2.50782
2.51145
2.5152
2.51905
2.52301
2.52706
2.53119
2.53539
2.53966
2.54398
2.54834
2.55273
2.55714
2.56156
2.56597
2.57036
2.5747
2.57898
2.58318
2.58728
2.59126
2.5951
2.59878
2.60228
2.60559
2.60867
2.61153
2.61415
2.6165
2.61859
2.62041
2.62194
2.62319
2.62415
2.62481
2.47747
2.47684
2.47662
2.47675
2.47723
2.47811
2.47935
2.4809
2.48273
2.48483
2.48719
2.48978
2.4926
2.49562
2.49882
2.50219
2.50569
2.50933
2.51309
2.51695
2.5209
2.52494
2.52905
2.53322
2.53746
2.54174
2.54606
2.55042
2.55479
2.55917
2.56354
2.5679
2.57223
2.57651
2.58072
2.58485
2.58888
2.59279
2.59657
2.60018
2.60363
2.60688
2.60993
2.61276
2.61536
2.61771
2.6198
2.62163
2.62319
2.62446
2.62545
2.47508
2.47448
2.47427
2.4744
2.47489
2.47579
2.47703
2.4786
2.48046
2.48259
2.48499
2.48762
2.49049
2.49356
2.49679
2.50019
2.50372
2.50739
2.51116
2.51503
2.51898
2.52302
2.52711
2.53127
2.53547
2.53972
2.544
2.54831
2.55263
2.55697
2.56131
2.56563
2.56994
2.57421
2.57843
2.58258
2.58666
2.59063
2.5945
2.59823
2.60182
2.60524
2.60849
2.61153
2.61437
2.61699
2.61936
2.62149
2.62336
2.62496
2.62627
2.47227
2.47176
2.47161
2.4718
2.47236
2.47332
2.47462
2.47625
2.47817
2.48037
2.48284
2.48554
2.48846
2.49158
2.49487
2.49832
2.50191
2.50561
2.50942
2.51331
2.51728
2.52131
2.5254
2.52953
2.53371
2.53791
2.54215
2.54641
2.55068
2.55497
2.55926
2.56355
2.56782
2.57208
2.5763
2.58048
2.58459
2.58864
2.59259
2.59644
2.60017
2.60377
2.60721
2.61048
2.61356
2.61644
2.61911
2.62154
2.62372
2.62565
2.62729
2.46907
2.46869
2.46867
2.46897
2.46966
2.47073
2.47212
2.47383
2.47584
2.47813
2.48068
2.48347
2.48648
2.48969
2.49306
2.49659
2.50025
2.50401
2.50787
2.5118
2.51579
2.51983
2.52391
2.52803
2.53217
2.53634
2.54052
2.54473
2.54894
2.55317
2.55741
2.56165
2.5659
2.57013
2.57435
2.57854
2.5827
2.58681
2.59085
2.59482
2.5987
2.60246
2.6061
2.60959
2.61293
2.61608
2.61904
2.62178
2.62429
2.62654
2.62852
2.46548
2.4653
2.46544
2.46591
2.46675
2.46794
2.46945
2.47128
2.47341
2.47582
2.47849
2.48142
2.48455
2.48787
2.49136
2.495
2.49875
2.50259
2.50651
2.51049
2.51452
2.51858
2.52266
2.52676
2.53087
2.53499
2.53912
2.54327
2.54742
2.55158
2.55576
2.55995
2.56416
2.56837
2.57258
2.57679
2.58098
2.58515
2.58929
2.59338
2.5974
2.60134
2.60518
2.60891
2.6125
2.61593
2.61918
2.62224
2.62507
2.62766
2.62998
2.46146
2.4615
2.46184
2.46251
2.46354
2.46489
2.46656
2.46855
2.47085
2.47343
2.47627
2.47935
2.48265
2.48613
2.48976
2.49353
2.4974
2.50135
2.50536
2.50941
2.51348
2.51756
2.52164
2.52573
2.52981
2.53388
2.53795
2.54203
2.54611
2.5502
2.55432
2.55845
2.5626
2.56678
2.57098
2.5752
2.57944
2.58367
2.5879
2.59211
2.59629
2.60041
2.60446
2.60842
2.61227
2.61599
2.61954
2.62292
2.62608
2.62901
2.63167
2.45691
2.45723
2.45784
2.45876
2.46
2.46156
2.46345
2.46564
2.46815
2.47093
2.47398
2.47727
2.48076
2.48444
2.48825
2.49219
2.49621
2.50029
2.50441
2.50854
2.51266
2.51678
2.52087
2.52494
2.52898
2.53301
2.53701
2.54101
2.54502
2.54903
2.55307
2.55713
2.56124
2.56538
2.56957
2.5738
2.57807
2.58237
2.5867
2.59104
2.59537
2.59968
2.60395
2.60816
2.61228
2.61628
2.62015
2.62384
2.62734
2.63061
2.63361
2.45186
2.45251
2.45343
2.45462
2.45612
2.45794
2.46007
2.46252
2.46527
2.46831
2.47161
2.47515
2.47888
2.48279
2.48683
2.49097
2.49517
2.49941
2.50366
2.50789
2.51208
2.51624
2.52034
2.5244
2.5284
2.53237
2.5363
2.54022
2.54413
2.54806
2.55201
2.556
2.56005
2.56415
2.56832
2.57257
2.57688
2.58125
2.58568
2.59016
2.59465
2.59916
2.60366
2.60812
2.61252
2.61682
2.621
2.62503
2.62887
2.63247
2.63581
2.44636
2.44737
2.4486
2.4501
2.45189
2.45399
2.45641
2.45916
2.4622
2.46554
2.46913
2.47297
2.477
2.48118
2.48548
2.48987
2.49429
2.49871
2.50311
2.50746
2.51175
2.51595
2.52007
2.52411
2.52807
2.53197
2.53582
2.53964
2.54346
2.54728
2.55114
2.55505
2.55903
2.56309
2.56725
2.5715
2.57586
2.58031
2.58485
2.58947
2.59415
2.59887
2.60361
2.60833
2.61302
2.61763
2.62214
2.6265
2.63068
2.63463
2.63831
2.44045
2.44181
2.44337
2.44519
2.44729
2.4497
2.45245
2.45552
2.45891
2.46258
2.46653
2.47071
2.47508
2.4796
2.48421
2.48888
2.49356
2.4982
2.50278
2.50727
2.51165
2.51591
2.52005
2.52407
2.52798
2.53181
2.53556
2.53928
2.54298
2.54669
2.55044
2.55425
2.55816
2.56217
2.56632
2.57059
2.575
2.57954
2.5842
2.58898
2.59386
2.5988
2.60379
2.6088
2.61379
2.61873
2.62357
2.62828
2.63281
2.6371
2.64112
2.43422
2.43591
2.43779
2.43991
2.44233
2.44507
2.44816
2.45159
2.45536
2.45943
2.46378
2.46836
2.47313
2.47803
2.48301
2.48801
2.49299
2.49789
2.50268
2.50732
2.51181
2.51614
2.52029
2.52429
2.52815
2.53189
2.53553
2.53912
2.54269
2.54627
2.5499
2.55361
2.55744
2.56139
2.56553
2.56981
2.5743
2.57894
2.58373
2.58869
2.59378
2.59897
2.60424
2.60955
2.61486
2.62014
2.62534
2.6304
2.63527
2.63991
2.64426
2.42778
2.42976
2.4319
2.4343
2.43701
2.44008
2.44353
2.44736
2.45154
2.45606
2.46087
2.46591
2.47113
2.47647
2.48187
2.48726
2.49258
2.49778
2.50281
2.50764
2.51225
2.51664
2.52082
2.52478
2.52857
2.5322
2.53572
2.53916
2.54258
2.54601
2.5495
2.55309
2.55682
2.56074
2.56484
2.56918
2.57371
2.57846
2.58343
2.58857
2.59392
2.59938
2.60495
2.61059
2.61625
2.62189
2.62745
2.63287
2.63811
2.64309
2.64776
2.42114
2.42336
2.42573
2.42836
2.43135
2.43472
2.43855
2.44281
2.44745
2.45247
2.45778
2.46334
2.46907
2.47493
2.48081
2.48665
2.49237
2.4979
2.5032
2.50823
2.51298
2.51744
2.52163
2.52555
2.52925
2.53276
2.53612
2.53939
2.54263
2.54589
2.54922
2.55267
2.55631
2.56015
2.56425
2.56862
2.57324
2.57812
2.58327
2.58863
2.59426
2.60002
2.60593
2.61193
2.61798
2.624
2.62994
2.63574
2.64134
2.64666
2.65166
2.41433
2.41672
2.41925
2.42208
2.42531
2.42898
2.43321
2.43789
2.44307
2.44862
2.4545
2.46065
2.46698
2.47341
2.47984
2.48619
2.49236
2.49827
2.50387
2.50913
2.51402
2.51856
2.52275
2.52662
2.5302
2.53356
2.53674
2.53981
2.54284
2.54589
2.54903
2.55233
2.55585
2.55962
2.56372
2.56812
2.57286
2.5779
2.58325
2.58888
2.59479
2.6009
2.60719
2.61359
2.62005
2.62649
2.63285
2.63904
2.645
2.65066
2.65597
2.40732
2.4098
2.41241
2.41537
2.41881
2.42279
2.42737
2.4326
2.4383
2.44448
2.451
2.45782
2.46482
2.47192
2.47899
2.48592
2.49261
2.49895
2.50488
2.51038
2.51542
2.52003
2.5242
2.52799
2.53144
2.53461
2.53757
2.5404
2.54317
2.54597
2.54891
2.55203
2.55541
2.55909
2.5632
2.56764
2.57249
2.57774
2.58331
2.58926
2.59553
2.60203
2.60874
2.61559
2.62252
2.62941
2.6362
2.6428
2.64913
2.65512
2.66072
2.40018
2.40258
2.40517
2.40819
2.4118
2.41607
2.42115
2.42684
2.43321
2.44003
2.44727
2.45481
2.46259
2.47044
2.47824
2.48585
2.49312
2.49995
2.50626
2.51201
2.51721
2.52188
2.52603
2.52971
2.53299
2.53593
2.53863
2.54116
2.54363
2.54614
2.54881
2.55169
2.55493
2.55853
2.5626
2.56711
2.5721
2.57757
2.58346
2.58978
2.59642
2.60336
2.61056
2.61794
2.62538
2.63278
2.64004
2.64705
2.65375
2.66006
2.66593
2.3928
2.39495
2.39738
2.40033
2.40409
2.40873
2.41429
2.42063
2.42769
2.43533
2.44333
2.45172
2.46042
2.46915
2.47776
2.48611
2.49403
2.50138
2.50807
2.51409
2.51945
2.52416
2.52826
2.53181
2.53487
2.53754
2.5399
2.54208
2.54419
2.54634
2.54869
2.55131
2.55433
2.55781
2.56186
2.56648
2.57165
2.57739
2.58362
2.59036
2.59746
2.60494
2.61263
2.62064
2.62865
2.63661
2.64436
2.6518
2.65885
2.66545
2.67155
2.38547
2.38704
2.38918
2.39176
2.39551
2.40048
2.40662
2.41371
2.42162
2.43001
2.43884
2.44804
2.45792
2.46776
2.47739
2.4867
2.49542
2.50334
2.51043
2.5167
2.52219
2.52692
2.53093
2.53431
2.53711
2.53944
2.54141
2.54315
2.54481
2.54653
2.54848
2.55077
2.55351
2.55686
2.56088
2.5656
2.57104
2.57712
2.58377
2.59104
2.59868
2.60677
2.61504
2.62373
2.63239
2.64096
2.64921
2.65703
2.66438
2.67121
2.67747
2.37663
2.37895
2.38141
2.38336
2.38707
2.39248
2.39917
2.40709
2.41586
2.42502
2.43431
2.44399
2.45567
2.46619
2.4769
2.48726
2.49697
2.50561
2.51324
2.51985
2.52548
2.5302
2.5341
2.53724
2.53972
2.54164
2.54314
2.54434
2.54545
2.54664
2.54812
2.54998
2.55237
2.55552
2.55953
2.56443
2.57024
2.57679
2.58381
2.59186
2.60003
2.60869
2.61764
2.62706
2.63637
2.64571
2.6545
2.66267
2.67023
2.67718
2.68347
2.36189
2.36181
2.36287
2.36772
2.37241
2.37895
2.38705
2.39621
2.40639
2.41759
2.42958
2.4414
2.45569
2.46645
2.47837
2.48989
2.50008
2.50885
2.51675
2.5236
2.52932
2.534
2.53773
2.54059
2.54268
2.54412
2.54503
2.54559
2.54602
2.54656
2.54751
2.54881
2.55077
2.55383
2.55758
2.56259
2.56904
2.5759
2.58356
2.59201
2.60097
2.61053
2.61977
2.631
2.64038
2.65069
2.66005
2.6685
2.67618
2.68314
2.68933
2.34283
2.34215
2.34257
2.34491
2.35165
2.36028
2.37037
2.3817
2.39409
2.40727
2.42111
2.43502
2.45007
2.4638
2.47788
2.49064
2.50339
2.51337
2.52181
2.52856
2.53405
2.53849
2.54192
2.54438
2.54597
2.5468
2.54702
2.54677
2.54638
2.54629
2.54644
2.5473
2.54809
2.55082
2.55458
2.56012
2.56751
2.57546
2.58441
2.59413
2.60439
2.61493
2.62558
2.63697
2.64664
2.65704
2.66649
2.67499
2.68245
2.68902
2.69486
2.3271
2.32529
2.32565
2.32811
2.33335
2.34265
2.35413
2.36755
2.3824
2.39795
2.41396
2.43028
2.44665
2.46285
2.47885
2.49393
2.50801
2.51831
2.52753
2.53428
2.53951
2.5436
2.54659
2.5485
2.54945
2.54955
2.54897
2.54777
2.54636
2.54558
2.54401
2.54399
2.54556
2.54849
2.55298
2.55827
2.56495
2.57375
2.58382
2.59481
2.60632
2.6181
2.63006
2.64184
2.65341
2.66449
2.67369
2.68186
2.68877
2.69466
2.69983
2.31421
2.31255
2.31276
2.31572
2.32222
2.33199
2.34476
2.35914
2.37443
2.39052
2.40755
2.42567
2.44449
2.46324
2.48133
2.49838
2.51367
2.52469
2.53386
2.5405
2.54545
2.54911
2.55153
2.55276
2.55294
2.55218
2.55063
2.548
2.5447
2.54529
2.54241
2.54218
2.54087
2.54302
2.54787
2.55466
2.56311
2.57336
2.58484
2.59717
2.60989
2.6229
2.63604
2.64902
2.6616
2.67284
2.68199
2.68902
2.69471
2.69963
2.70378
2.30281
2.30146
2.30185
2.30554
2.3121
2.3235
2.33782
2.35386
2.37046
2.38751
2.40529
2.42476
2.4453
2.46583
2.4856
2.50397
2.51942
2.53116
2.53996
2.54651
2.55129
2.55457
2.55636
2.55668
2.55585
2.55422
2.55257
2.54906
2.54526
2.54133
2.538
2.53729
2.5363
2.54018
2.54559
2.55322
2.56307
2.57456
2.58733
2.60094
2.61442
2.62835
2.64244
2.65624
2.66968
2.68176
2.68853
2.69436
2.69938
2.70312
2.70777
2.29437
2.29305
2.29374
2.29815
2.30673
2.31802
2.33345
2.35084
2.36871
2.38723
2.40658
2.42763
2.44945
2.47127
2.49196
2.51049
2.52514
2.53697
2.54549
2.55201
2.55656
2.5594
2.56058
2.56055
2.55937
2.55667
2.5529
2.54878
2.54466
2.54003
2.53559
2.53306
2.53116
2.53296
2.53869
2.5474
2.5591
2.57219
2.58645
2.60199
2.61783
2.63333
2.64829
2.66308
2.67694
2.6861
2.69333
2.69797
2.70285
2.70679
2.70915
2.28947
2.28857
2.29055
2.29582
2.30518
2.31732
2.33374
2.35256
2.37168
2.39113
2.41185
2.43418
2.4569
2.47847
2.49809
2.51584
2.53048
2.54172
2.55024
2.55654
2.56105
2.56432
2.56524
2.56521
2.56314
2.55976
2.55523
2.54911
2.54175
2.53503
2.52922
2.52628
2.52683
2.53059
2.53698
2.54656
2.55909
2.57342
2.58768
2.60382
2.6214
2.63881
2.65428
2.66722
2.67969
2.68893
2.69573
2.70276
2.7062
2.70798
2.71
2.28957
2.28791
2.29198
2.29838
2.30885
2.32232
2.33839
2.35745
2.37782
2.39891
2.4203
2.44169
2.46334
2.48474
2.50374
2.52013
2.53374
2.54524
2.55506
2.56187
2.56648
2.56962
2.57098
2.57134
2.56898
2.56458
2.55708
2.54859
2.53966
2.5322
2.52659
2.52224
2.52184
2.52579
2.53377
2.54458
2.55763
2.57197
2.59011
2.60735
2.6249
2.64333
2.65831
2.67216
2.68209
2.6914
2.69971
2.70409
2.70703
2.70871
2.70899
2.29019
2.29322
2.29831
2.30589
2.3178
2.33158
2.3476
2.36551
2.38519
2.40612
2.42689
2.44871
2.46918
2.48837
2.50634
2.52363
2.53866
2.55046
2.56006
2.56797
2.57376
2.57735
2.57851
2.57583
2.57017
2.56364
2.55649
2.54939
2.53963
2.53045
2.52439
2.52173
2.52246
2.52617
2.53368
2.54545
2.56081
2.57904
2.59397
2.61231
2.6293
2.64593
2.65973
2.67226
2.68291
2.69191
2.70043
2.70441
2.70701
2.70777
2.70836
2.29479
2.29851
2.30456
2.31338
2.32483
2.33874
2.35488
2.37267
2.3919
2.4113
2.43141
2.45232
2.47322
2.49365
2.51226
2.52926
2.54374
2.55671
2.56693
2.57455
2.57915
2.58103
2.58061
2.57765
2.57325
2.56731
2.56001
2.55172
2.54336
2.53583
2.53011
2.52745
2.52855
2.53348
2.54298
2.55504
2.56508
2.58161
2.60331
2.61511
2.63395
2.65082
2.65811
2.6778
2.68601
2.69185
2.69975
2.70372
2.70594
2.70516
2.70762
2.2989
2.30384
2.31126
2.32068
2.33218
2.34569
2.36072
2.37729
2.39484
2.41477
2.43603
2.45778
2.47833
2.49864
2.51904
2.53551
2.55004
2.56225
2.57133
2.57815
2.58254
2.58348
2.584
2.58237
2.57883
2.57387
2.56771
2.56012
2.55333
2.54698
2.54183
2.54015
2.54111
2.54556
2.55348
2.56353
2.578
2.58846
2.60613
2.62406
2.63222
2.65083
2.67429
2.6738
2.68548
2.69135
2.69788
2.70117
2.70525
2.70632
2.70581
2.29874
2.30494
2.31291
2.32313
2.33533
2.34971
2.36683
2.38494
2.40444
2.42394
2.44451
2.46571
2.48631
2.50535
2.52378
2.53986
2.55365
2.5653
2.57479
2.5819
2.58537
2.58824
2.58933
2.58893
2.58691
2.5835
2.57878
2.57252
2.56714
2.56414
2.55767
2.55807
2.55853
2.56208
2.56891
2.57529
2.58493
2.60023
2.61198
2.62613
2.64115
2.65061
2.66175
2.67288
2.68295
2.68991
2.69574
2.69925
2.70134
2.70259
2.70267
2.30153
2.30877
2.31811
2.32909
2.34226
2.35679
2.37504
2.39204
2.41115
2.43065
2.4508
2.47091
2.49063
2.5095
2.52717
2.54296
2.55673
2.56857
2.57862
2.58576
2.59025
2.59378
2.59638
2.59741
2.59702
2.59523
2.59222
2.58816
2.58333
2.58103
2.57647
2.57478
2.57515
2.57654
2.58156
2.58794
2.59514
2.60541
2.62172
2.63064
2.64089
2.65103
2.6593
2.67274
2.68103
2.68749
2.69271
2.69608
2.69833
2.69932
2.69956
2.30195
2.31089
2.32026
2.33238
2.34654
2.36171
2.37846
2.39629
2.41523
2.43462
2.45444
2.4743
2.49368
2.51234
2.5298
2.54569
2.55974
2.57229
2.58446
2.58991
2.59504
2.60087
2.60494
2.60769
2.60888
2.60873
2.60748
2.60532
2.60256
2.59984
2.59693
2.59489
2.59394
2.59365
2.59361
2.59705
2.60976
2.61978
2.62273
2.63534
2.64259
2.65063
2.66097
2.67173
2.67894
2.68479
2.68965
2.693
2.69516
2.69617
2.69637
2.30144
2.3116
2.32231
2.3348
2.34905
2.36458
2.38135
2.39924
2.41799
2.43731
2.45693
2.4766
2.49592
2.51455
2.53214
2.54836
2.56296
2.57614
2.58874
2.59512
2.6032
2.60942
2.61487
2.61929
2.62222
2.62371
2.62397
2.62301
2.62096
2.61828
2.61547
2.61268
2.61073
2.61147
2.61603
2.61541
2.61848
2.6214
2.62748
2.63947
2.64633
2.65566
2.66267
2.67019
2.67681
2.68226
2.68668
2.68992
2.69204
2.69303
2.69321
2.30097
2.31124
2.32276
2.33577
2.35024
2.36596
2.38287
2.4008
2.41948
2.43875
2.45836
2.47804
2.49748
2.51635
2.53434
2.55115
2.5665
2.58028
2.59272
2.60375
2.61291
2.61738
2.62573
2.63159
2.63635
2.63946
2.64119
2.64161
2.64053
2.63853
2.63713
2.63555
2.63397
2.63073
2.6279
2.6264
2.62876
2.63124
2.637
2.64299
2.65018
2.65669
2.66303
2.66908
2.67483
2.67975
2.68385
2.68697
2.68907
2.69004
2.69021
2.29954
2.31023
2.32219
2.33554
2.35024
2.3662
2.38325
2.40121
2.41987
2.43919
2.45891
2.47876
2.49851
2.51784
2.53648
2.55413
2.5705
2.58541
2.59901
2.61193
2.62124
2.63011
2.63933
2.64659
2.65317
2.65833
2.66226
2.66473
2.66555
2.66447
2.66071
2.65734
2.65367
2.64876
2.64566
2.64058
2.64056
2.64095
2.64463
2.64756
2.65246
2.6574
2.66256
2.66778
2.67281
2.67729
2.68118
2.68423
2.68633
2.68733
2.68749
2.29778
2.30861
2.32082
2.33438
2.34918
2.36543
2.38246
2.40079
2.41934
2.43882
2.45874
2.47892
2.49912
2.5191
2.5386
2.55736
2.5751
2.59164
2.60703
2.62122
2.63442
2.64643
2.65627
2.66625
2.6749
2.68226
2.6881
2.69198
2.69355
2.69286
2.68936
2.68421
2.67777
2.67021
2.6638
2.6572
2.65251
2.65112
2.65076
2.65154
2.65411
2.65764
2.66175
2.66621
2.67067
2.67486
2.67858
2.68166
2.68389
2.68502
2.68525
2.2955
2.30648
2.31884
2.33253
2.3475
2.36367
2.3809
2.39907
2.41805
2.43775
2.45799
2.4786
2.49939
2.52017
2.5407
2.56076
2.58013
2.59862
2.61619
2.63281
2.64869
2.6633
2.67679
2.68939
2.70065
2.71036
2.71791
2.72275
2.72465
2.72373
2.71934
2.71219
2.7026
2.69222
2.6823
2.67248
2.66454
2.65922
2.65591
2.65471
2.65528
2.65736
2.6605
2.66431
2.66839
2.67242
2.67616
2.67947
2.68187
2.68334
2.68375
2.29286
2.30387
2.31628
2.33004
2.34505
2.36127
2.37857
2.3969
2.41612
2.43611
2.45676
2.4779
2.49941
2.52109
2.54277
2.56427
2.58539
2.60595
2.62593
2.64536
2.6644
2.68117
2.69793
2.71333
2.72714
2.73892
2.74789
2.75349
2.75554
2.7541
2.74852
2.73933
2.7274
2.71396
2.70034
2.68712
2.67577
2.66698
2.66032
2.65691
2.65588
2.65665
2.65889
2.6622
2.66609
2.67015
2.67414
2.67764
2.6806
2.68239
2.68313
2.28997
2.3009
2.31328
2.32703
2.34207
2.35834
2.37575
2.39423
2.41369
2.43402
2.45515
2.4769
2.4992
2.52185
2.54474
2.56772
2.59059
2.6132
2.6355
2.65751
2.67879
2.69892
2.7183
2.73625
2.75234
2.76586
2.77601
2.78227
2.78449
2.78269
2.77614
2.76538
2.75117
2.73489
2.71767
2.70112
2.68626
2.67417
2.66435
2.65822
2.65551
2.65509
2.65666
2.65971
2.66367
2.66804
2.67237
2.67639
2.67984
2.68241
2.68353
2.28693
2.29771
2.30999
2.32367
2.3387
2.35501
2.37252
2.39117
2.41091
2.43165
2.45327
2.47568
2.49879
2.52244
2.54656
2.57097
2.59552
2.62005
2.64451
2.66886
2.69231
2.71517
2.73691
2.75695
2.77505
2.79009
2.80128
2.80818
2.8107
2.80879
2.80157
2.7895
2.77344
2.75455
2.73438
2.71436
2.69584
2.68024
2.66726
2.65824
2.65381
2.65259
2.65381
2.65703
2.66149
2.66649
2.67151
2.67614
2.6802
2.68343
2.68528
2.28386
2.29442
2.30654
2.32012
2.33511
2.35145
2.36905
2.38789
2.40792
2.42904
2.45127
2.47427
2.49838
2.52292
2.5482
2.57397
2.60006
2.62636
2.65278
2.679
2.70466
2.72954
2.75317
2.77508
2.7947
2.81114
2.82327
2.83078
2.83378
2.83175
2.82413
2.81121
2.79369
2.77267
2.74959
2.72614
2.70415
2.68453
2.66854
2.65669
2.65039
2.64843
2.64952
2.65317
2.65838
2.66432
2.67021
2.67556
2.68022
2.68422
2.68719
2.28088
2.29117
2.30308
2.31653
2.33146
2.34781
2.36554
2.38459
2.40492
2.42647
2.44917
2.47292
2.49767
2.52327
2.54965
2.57666
2.60416
2.63204
2.66008
2.68794
2.71534
2.74193
2.76712
2.7905
2.81138
2.82893
2.84198
2.85014
2.85331
2.85138
2.84362
2.83003
2.81125
2.78834
2.76271
2.73596
2.71016
2.68694
2.66724
2.65249
2.6444
2.64195
2.64367
2.6488
2.65575
2.66348
2.67084
2.67728
2.6828
2.68753
2.69117
2.6233
2.62134
2.61914
2.61676
2.61423
2.61161
2.60893
2.60626
2.60362
2.60106
2.59864
2.59638
2.59433
2.59251
2.59095
2.58966
2.58865
2.58792
2.58744
2.58721
2.5872
2.58735
2.58765
2.58802
2.58845
2.58885
2.62311
2.62141
2.61947
2.61732
2.61501
2.61259
2.61009
2.60755
2.60501
2.60251
2.6001
2.59781
2.59568
2.59374
2.59202
2.59053
2.58928
2.58827
2.58751
2.58697
2.58665
2.58649
2.5865
2.58658
2.58675
2.58693
2.62306
2.62164
2.61995
2.61807
2.61599
2.61378
2.61145
2.60906
2.60664
2.60422
2.60184
2.59955
2.59737
2.59533
2.59347
2.5918
2.59034
2.58909
2.58807
2.58725
2.58663
2.58618
2.5859
2.58572
2.58564
2.5856
2.62316
2.62202
2.62061
2.61899
2.61716
2.61516
2.61303
2.61081
2.60852
2.60619
2.60386
2.60158
2.59936
2.59725
2.59527
2.59345
2.5918
2.59034
2.58907
2.588
2.58711
2.58639
2.58583
2.58539
2.58509
2.58484
2.62342
2.62257
2.62145
2.62009
2.61852
2.61676
2.61483
2.61278
2.61063
2.60841
2.60615
2.60388
2.60165
2.59949
2.59741
2.59546
2.59364
2.59198
2.5905
2.58918
2.58805
2.58708
2.58627
2.5856
2.58506
2.58461
2.62384
2.6233
2.62247
2.62139
2.62008
2.61856
2.61685
2.61499
2.61298
2.61087
2.60869
2.60646
2.60423
2.60201
2.59985
2.59778
2.59581
2.59398
2.59229
2.59077
2.5894
2.58821
2.58717
2.58629
2.58554
2.58491
2.62441
2.6242
2.62368
2.6229
2.62185
2.62058
2.61909
2.61741
2.61557
2.61358
2.61147
2.60929
2.60705
2.6048
2.60257
2.60039
2.59828
2.59629
2.59442
2.59269
2.59113
2.58973
2.5885
2.58742
2.5865
2.58571
2.62519
2.62527
2.62508
2.6246
2.62383
2.6228
2.62154
2.62005
2.61837
2.6165
2.61449
2.61234
2.61011
2.60783
2.60553
2.60324
2.60101
2.59886
2.59682
2.59492
2.59318
2.5916
2.59019
2.58896
2.58789
2.58698
2.62614
2.62655
2.62666
2.62648
2.62601
2.62524
2.6242
2.62291
2.62138
2.61964
2.61771
2.61561
2.61338
2.61106
2.60869
2.60631
2.60395
2.60166
2.59946
2.5974
2.5955
2.59376
2.59221
2.59085
2.58968
2.58868
2.6273
2.62802
2.62845
2.62856
2.62838
2.62789
2.62707
2.62597
2.6246
2.62298
2.62112
2.61906
2.61683
2.61447
2.61202
2.60953
2.60705
2.60462
2.60228
2.60007
2.59803
2.59617
2.59451
2.59307
2.59183
2.59079
2.62865
2.62971
2.63045
2.63087
2.63095
2.63073
2.63015
2.62923
2.62801
2.62649
2.62471
2.62267
2.62043
2.61801
2.61548
2.61288
2.61027
2.6077
2.60522
2.60287
2.60071
2.59876
2.59703
2.59554
2.59429
2.59327
2.63022
2.6316
2.63266
2.63338
2.63375
2.63376
2.63343
2.6327
2.63161
2.63018
2.62845
2.62642
2.62414
2.62166
2.61903
2.6163
2.61354
2.61083
2.60821
2.60574
2.60348
2.60146
2.59971
2.59822
2.59701
2.59606
2.63201
2.63372
2.6351
2.63611
2.63676
2.63701
2.63688
2.63635
2.63538
2.63403
2.63233
2.63029
2.62795
2.62537
2.62261
2.61974
2.61682
2.61394
2.61118
2.60861
2.60627
2.60421
2.60247
2.60105
2.59994
2.59914
2.63403
2.63607
2.63776
2.63907
2.63998
2.64047
2.64052
2.64016
2.63932
2.63803
2.63632
2.63424
2.63182
2.62911
2.62618
2.62312
2.62002
2.61697
2.61406
2.61137
2.60898
2.60693
2.60524
2.60394
2.60301
2.60244
2.63631
2.63867
2.64067
2.64227
2.64343
2.64414
2.64437
2.64415
2.64342
2.64216
2.64043
2.63827
2.63571
2.63282
2.62967
2.62639
2.62306
2.61981
2.61674
2.61395
2.61152
2.6095
2.60793
2.60682
2.60615
2.60589
2.63885
2.64153
2.64383
2.6457
2.64711
2.64803
2.64843
2.64831
2.64767
2.64642
2.64461
2.64231
2.63955
2.63642
2.63302
2.62945
2.62586
2.62237
2.61912
2.61622
2.61377
2.61182
2.61044
2.60958
2.60925
2.6094
2.64167
2.64467
2.64726
2.6494
2.65104
2.65215
2.65269
2.65265
2.65206
2.65078
2.64883
2.64633
2.64332
2.63989
2.63615
2.63224
2.62831
2.62453
2.62106
2.61805
2.6156
2.61379
2.61263
2.61212
2.61221
2.61285
2.6448
2.6481
2.65097
2.65336
2.65521
2.65649
2.65716
2.65718
2.65658
2.6552
2.65307
2.6503
2.64698
2.64316
2.639
2.63465
2.63029
2.62614
2.62242
2.61928
2.61684
2.61519
2.61433
2.61424
2.61481
2.61615
2.64826
2.65185
2.65499
2.6576
2.65965
2.66108
2.66184
2.66188
2.66122
2.65968
2.65731
2.65421
2.65047
2.64617
2.64149
2.63657
2.63168
2.62704
2.62302
2.61972
2.61732
2.61597
2.61548
2.61585
2.61705
2.61924
2.65207
2.65594
2.65932
2.66215
2.66437
2.66592
2.66674
2.66675
2.66597
2.66421
2.66154
2.65799
2.65381
2.64883
2.64357
2.63793
2.63238
2.62718
2.62277
2.61918
2.61676
2.61559
2.61569
2.61658
2.61846
2.62175
2.65625
2.66039
2.664
2.66702
2.66938
2.67102
2.67185
2.67178
2.67082
2.66878
2.66568
2.66179
2.65694
2.65129
2.64505
2.63893
2.63247
2.6264
2.62207
2.61816
2.61575
2.61492
2.61546
2.61704
2.61933
2.62361
2.66084
2.66522
2.66903
2.67221
2.67467
2.67637
2.67718
2.67699
2.67578
2.67343
2.66994
2.66523
2.6602
2.65341
2.64647
2.63918
2.63152
2.62511
2.62011
2.61635
2.61436
2.61396
2.61494
2.61714
2.62107
2.62609
2.66585
2.67044
2.67442
2.67772
2.68026
2.68196
2.6827
2.68235
2.68083
2.6781
2.67426
2.66854
2.6636
2.65485
2.64655
2.63847
2.63096
2.62405
2.61839
2.61458
2.61275
2.61273
2.61437
2.61781
2.62268
2.62898
2.67128
2.67605
2.68016
2.68352
2.68607
2.68771
2.68834
2.68776
2.68582
2.68275
2.67845
2.67262
2.6653
2.65682
2.64823
2.63881
2.62925
2.62111
2.6148
2.61136
2.61037
2.61152
2.61447
2.61921
2.62531
2.6327
2.67708
2.68197
2.68614
2.6895
2.69197
2.69344
2.6939
2.6932
2.6908
2.68613
2.68371
2.67683
2.66884
2.65938
2.64933
2.63814
2.6272
2.61837
2.61172
2.60821
2.6078
2.60989
2.61365
2.61957
2.62705
2.6359
2.6831
2.68803
2.69217
2.69545
2.69779
2.69912
2.6992
2.69865
2.69556
2.69111
2.68731
2.68053
2.67185
2.66163
2.64971
2.63704
2.62469
2.61491
2.60831
2.60502
2.6051
2.60793
2.61328
2.62026
2.62872
2.63852
2.68909
2.69393
2.69794
2.70102
2.70311
2.70381
2.70333
2.70437
2.70103
2.69689
2.6918
2.6844
2.67421
2.66266
2.65028
2.63752
2.62415
2.61249
2.60462
2.60111
2.60156
2.60565
2.61219
2.61997
2.62935
2.64055
2.69476
2.6994
2.70317
2.70595
2.70799
2.70844
2.70859
2.70809
2.70591
2.70193
2.69523
2.6872
2.67704
2.66549
2.65243
2.63846
2.62376
2.6111
2.6023
2.59808
2.5993
2.60472
2.61243
2.62129
2.63141
2.64346
2.69991
2.70415
2.70756
2.70943
2.71275
2.71293
2.71273
2.71225
2.70914
2.70488
2.69848
2.69052
2.6803
2.66819
2.65434
2.6401
2.62561
2.61275
2.60421
2.60106
2.60213
2.60696
2.61426
2.62397
2.6353
2.64665
2.70423
2.70782
2.71143
2.71366
2.71527
2.71698
2.71691
2.71561
2.7124
2.70765
2.70084
2.69224
2.68195
2.67014
2.65694
2.6423
2.629
2.61723
2.60912
2.60641
2.60743
2.61169
2.61797
2.62651
2.63692
2.64819
2.7071
2.7113
2.71285
2.71601
2.7189
2.72027
2.72013
2.71842
2.71455
2.70905
2.70187
2.69298
2.68248
2.67063
2.65796
2.64493
2.6324
2.6217
2.61447
2.61145
2.61142
2.61477
2.62135
2.62952
2.63895
2.64764
2.71123
2.71288
2.71518
2.71786
2.71981
2.72089
2.72047
2.71838
2.71453
2.70893
2.7017
2.69281
2.68255
2.67121
2.65908
2.6469
2.63544
2.62578
2.61914
2.61565
2.61504
2.61667
2.62182
2.62964
2.64038
2.65094
2.71163
2.71367
2.71518
2.71715
2.71867
2.71945
2.71865
2.71649
2.7124
2.70657
2.69932
2.69033
2.68032
2.66952
2.65784
2.64639
2.63576
2.62696
2.62102
2.61843
2.61836
2.62155
2.62695
2.63158
2.63782
2.64674
2.71136
2.71194
2.71445
2.71517
2.7162
2.71642
2.71535
2.71305
2.70881
2.70277
2.69576
2.68701
2.67781
2.6678
2.65636
2.64541
2.63546
2.6268
2.62025
2.61696
2.61628
2.61828
2.62242
2.6277
2.63451
2.6411
2.70972
2.71185
2.71135
2.71115
2.7129
2.71232
2.7116
2.7105
2.70714
2.70067
2.69276
2.68058
2.66979
2.66128
2.64922
2.63826
2.62961
2.62155
2.61659
2.61375
2.61293
2.61477
2.6183
2.62324
2.62934
2.63551
2.70812
2.7076
2.70839
2.7108
2.71182
2.71185
2.70903
2.70394
2.69856
2.69077
2.68261
2.67382
2.6628
2.65154
2.64109
2.63065
2.62168
2.61459
2.60988
2.60762
2.60734
2.60914
2.61262
2.61744
2.62304
2.62881
2.70836
2.70932
2.70708
2.70622
2.70526
2.70388
2.70066
2.69566
2.68937
2.68151
2.67277
2.66312
2.6525
2.64207
2.63114
2.62116
2.61243
2.60566
2.60147
2.59968
2.59971
2.60175
2.60539
2.61016
2.61558
2.62124
2.70502
2.70477
2.70328
2.70156
2.69938
2.69647
2.69237
2.68687
2.67993
2.67166
2.66241
2.65217
2.64133
2.63036
2.61958
2.60952
2.60103
2.59455
2.59097
2.58959
2.59012
2.59254
2.59648
2.60154
2.60728
2.61328
2.70212
2.70111
2.69938
2.69701
2.6939
2.68986
2.68465
2.67816
2.67034
2.6613
2.65127
2.64038
2.62895
2.61744
2.60621
2.59591
2.58736
2.5814
2.57821
2.57729
2.57837
2.58136
2.58601
2.59188
2.59842
2.60516
2.69901
2.69762
2.69541
2.69238
2.68841
2.68336
2.67709
2.6695
2.66062
2.65055
2.63949
2.62765
2.61537
2.60302
2.59117
2.58028
2.57154
2.56574
2.56306
2.56261
2.56431
2.56827
2.5741
2.58123
2.58903
2.59694
2.69569
2.69404
2.6914
2.68773
2.68295
2.67693
2.66958
2.66084
2.65076
2.63945
2.62712
2.61404
2.60057
2.58716
2.57428
2.56257
2.5533
2.54742
2.54513
2.54509
2.54774
2.55308
2.56055
2.56945
2.57905
2.58866
2.6924
2.69051
2.68747
2.68321
2.67765
2.67068
2.66223
2.65226
2.64083
2.62808
2.61423
2.59961
2.58463
2.56974
2.55548
2.54265
2.53219
2.52625
2.52389
2.52433
2.52828
2.53539
2.54501
2.5563
2.56835
2.58027
2.68931
2.68721
2.68381
2.67901
2.6727
2.66479
2.65521
2.64395
2.63105
2.61666
2.60103
2.58454
2.56765
2.55086
2.53475
2.52019
2.50824
2.50142
2.49894