/*--------------------------------*- C++ -*----------------------------------*\
  =========                 |
  \\      /  F ield         | OpenFOAM: The Open Source CFD Toolbox
   \\    /   O peration     | Website:  https://openfoam.org
    \\  /    A nd           | Version:  10
     \\/     M anipulation  |
\*---------------------------------------------------------------------------*/
FoamFile
{
    format      ascii;
    class       surfaceScalarField;
    location    "0.651548";
    object      phi;
}
// * * * * * * * * * * * * * * * * * * * * * * * * * * * * * * * * * * * * * //

dimensions      [1 0 -1 0 0 0 0];

internalField   nonuniform List<scalar> 
31108
(
0.000392373
-9.30007e-05
0.000384842
-8.87406e-05
0.000377549
-8.43496e-05
0.000370537
-7.9866e-05
0.000363779
-7.53336e-05
0.000357291
-7.07449e-05
0.000351089
-6.61415e-05
0.000345156
-6.15235e-05
0.000339506
-5.69119e-05
0.000334132
-5.23186e-05
0.000329042
-4.77544e-05
0.000324224
-4.32301e-05
0.000319674
-3.87509e-05
0.000315396
-3.43243e-05
0.000311365
-2.99529e-05
0.000307596
-2.56399e-05
0.000304079
-2.13889e-05
0.000300807
-1.72009e-05
0.000297786
-1.30786e-05
0.00029501
-9.02379e-06
0.000292472
-5.03831e-06
0.000290176
-1.12481e-06
0.000288121
2.71537e-06
0.000286304
6.47742e-06
0.000284726
1.01603e-05
0.00028339
1.3761e-05
0.000282302
1.72756e-05
0.00028146
2.06994e-05
0.000280868
2.40273e-05
0.000280528
2.72534e-05
0.000280448
3.03716e-05
0.000280633
3.3374e-05
0.000281084
3.62544e-05
0.000281808
3.90034e-05
0.000282809
4.16106e-05
0.000284092
4.40668e-05
0.00028566
4.63604e-05
0.000287519
4.84801e-05
0.000289668
5.04136e-05
0.000292108
5.21478e-05
0.000294835
5.36691e-05
0.00029785
5.49648e-05
0.00030114
5.60212e-05
0.000304695
5.68252e-05
0.000308506
5.73655e-05
0.000312556
5.76319e-05
0.000316827
5.76171e-05
0.000321285
5.73255e-05
0.000325913
5.6734e-05
0.000330678
5.58511e-05
5.46795e-05
0.000335564
0.00039657
-8.4094e-05
0.000389115
-8.01078e-05
0.000381899
-7.60054e-05
0.000374917
-7.18244e-05
0.000368195
-6.75866e-05
0.000361721
-6.33164e-05
0.000355498
-5.90154e-05
0.000349558
-5.47107e-05
0.000343882
-5.04057e-05
0.000338476
-4.61093e-05
0.000333342
-4.18402e-05
0.000328474
-3.76012e-05
0.000323873
-3.34022e-05
0.000319528
-2.92478e-05
0.000315442
-2.51421e-05
0.000311607
-2.10886e-05
0.000308021
-1.70898e-05
0.000304683
-1.3148e-05
0.00030159
-9.26542e-06
0.000298738
-5.44396e-06
0.000296127
-1.68618e-06
0.000293755
2.0061e-06
0.000291622
5.6297e-06
0.000289726
9.18286e-06
0.000288069
1.26632e-05
0.00028665
1.60672e-05
0.000285473
1.93912e-05
0.000284539
2.26305e-05
0.000283847
2.57801e-05
0.000283404
2.88339e-05
0.000283212
3.1786e-05
0.00028328
3.46285e-05
0.00028361
3.73538e-05
0.000284201
3.99542e-05
0.00028506
4.2418e-05
0.00028619
4.47356e-05
0.000287594
4.68956e-05
0.000289277
4.8886e-05
0.000291238
5.06944e-05
0.000293478
5.2308e-05
0.000295995
5.3713e-05
0.000298785
5.4897e-05
0.00030184
5.58463e-05
0.000305153
5.65496e-05
0.000308711
5.69946e-05
0.000312502
5.71728e-05
0.000316507
5.70766e-05
0.000320704
5.67095e-05
0.000325073
5.60599e-05
0.000329582
5.51324e-05
5.39267e-05
0.000334226
0.000400503
-7.52043e-05
0.00039313
-7.14782e-05
0.000385971
-6.76535e-05
0.000379029
-6.3763e-05
0.000372317
-5.98239e-05
0.000365858
-5.58493e-05
0.000359637
-5.18617e-05
0.000353674
-4.78556e-05
0.000347975
-4.38557e-05
0.000342535
-3.98603e-05
0.000337361
-3.58839e-05
0.000332447
-3.19333e-05
0.000327794
-2.8015e-05
0.000323398
-2.41355e-05
0.000319253
-2.02981e-05
0.000315359
-1.65063e-05
0.000311712
-1.27627e-05
0.00030831
-9.06957e-06
0.000305151
-5.42893e-06
0.000302232
-1.84297e-06
0.000299552
1.6844e-06
0.00029711
5.15315e-06
0.000294904
8.56103e-06
0.000292933
1.19049e-05
0.0002912
1.51827e-05
0.000289702
1.83909e-05
0.000288443
2.15257e-05
0.000287422
2.45829e-05
0.000286639
2.75574e-05
0.000286097
3.04431e-05
0.000285801
3.32336e-05
0.000285754
3.59217e-05
0.000285964
3.84985e-05
0.000286425
4.09566e-05
0.000287144
4.32845e-05
0.000288125
4.54712e-05
0.000289369
4.75057e-05
0.000290879
4.93755e-05
0.000292656
5.10677e-05
0.000294701
5.25696e-05
0.000297009
5.3867e-05
0.000299581
5.49471e-05
0.00030241
5.5797e-05
0.000305487
5.64052e-05
0.0003088
5.67603e-05
0.00031234
5.68538e-05
0.000316094
5.66787e-05
0.000320045
5.62329e-05
0.000324169
5.55248e-05
0.000328438
5.45388e-05
5.32913e-05
0.000332853
0.000404165
-6.63304e-05
0.000396841
-6.28336e-05
0.000389726
-5.928e-05
0.00038281
-5.56735e-05
0.000376124
-5.20272e-05
0.000369665
-4.8352e-05
0.00036345
-4.4661e-05
0.000357482
-4.09626e-05
0.000351761
-3.72645e-05
0.000346298
-3.35692e-05
0.000341092
-2.98875e-05
0.00033614
-2.62257e-05
0.000331443
-2.25908e-05
0.000327001
-1.89883e-05
0.000322807
-1.54219e-05
0.000318861
-1.18942e-05
0.00031516
-8.40832e-06
0.000311702
-4.96608e-06
0.000308483
-1.56963e-06
0.000305505
1.777e-06
0.000302763
5.07362e-06
0.000300256
8.31853e-06
0.000297981
1.15096e-05
0.000295941
1.4644e-05
0.000294135
1.77195e-05
0.000292562
2.07326e-05
0.000291222
2.36799e-05
0.000290117
2.65572e-05
0.000289245
2.93594e-05
0.000288609
3.20804e-05
0.000288212
3.47138e-05
0.000288057
3.72522e-05
0.00028815
3.96867e-05
0.000288488
4.20083e-05
0.00028907
4.42072e-05
0.000289903
4.62705e-05
0.000290989
4.8187e-05
0.00029233
4.99439e-05
0.000293928
5.15278e-05
0.000295782
5.29254e-05
0.000297889
5.41226e-05
0.000300247
5.5106e-05
0.000302852
5.58623e-05
0.000305698
5.63799e-05
0.000308776
5.66483e-05
0.000312075
5.66588e-05
0.000315585
5.64044e-05
0.000319293
5.58836e-05
0.000323183
5.50949e-05
0.000327227
5.40548e-05
5.27475e-05
0.00033142
0.000407561
-5.74553e-05
0.000400279
-5.41809e-05
0.000393184
-5.08826e-05
0.000386298
-4.75508e-05
0.000379634
-4.41972e-05
0.000373182
-4.08209e-05
0.00036696
-3.74249e-05
0.000360984
-3.40283e-05
0.000355247
-3.06337e-05
0.000349761
-2.7237e-05
0.00034453
-2.38515e-05
0.000339545
-2.04807e-05
0.000334814
-1.71308e-05
0.000330335
-1.38077e-05
0.000326098
-1.05143e-05
0.000322103
-7.253e-06
0.000318355
-4.02745e-06
0.000314847
-8.38078e-07
0.000311577
2.30942e-06
0.000308545
5.41663e-06
0.000305749
8.48107e-06
0.000303184
1.15012e-05
0.00030085
1.44747e-05
0.000298749
1.73995e-05
0.000296877
2.02728e-05
0.000295235
2.3092e-05
0.000293821
2.58533e-05
0.000292637
2.85529e-05
0.000291681
3.11858e-05
0.000290953
3.37457e-05
0.000290459
3.62262e-05
0.000290199
3.86196e-05
0.000290176
4.09171e-05
0.000290391
4.31085e-05
0.000290842
4.5184e-05
0.000291531
4.7131e-05
0.000292463
4.89363e-05
0.000293639
5.05875e-05
0.000295059
5.20701e-05
0.000296725
5.337e-05
0.000298633
5.44729e-05
0.000300782
5.5365e-05
0.000303167
5.60324e-05
0.000305785
5.64631e-05
0.000308631
5.66467e-05
0.000311694
5.6574e-05
0.000314968
5.62384e-05
0.000318439
5.56382e-05
0.000322096
5.47718e-05
0.000325927
5.3646e-05
5.22766e-05
0.000329906
0.000410757
-4.85594e-05
0.000403495
-4.55096e-05
0.000396415
-4.24489e-05
0.000389561
-3.93944e-05
0.000382901
-3.63227e-05
0.00037644
-3.32411e-05
0.000370209
-3.01512e-05
0.000364209
-2.70547e-05
0.000358447
-2.39611e-05
0.000352933
-2.08658e-05
0.000347676
-1.77777e-05
0.000342668
-1.4699e-05
0.000337907
-1.16368e-05
0.000333395
-8.59475e-06
0.000329123
-5.5769e-06
0.00032509
-2.58391e-06
0.000321298
3.78343e-07
0.000317748
3.30959e-06
0.000314433
6.20979e-06
0.000311353
9.07634e-06
0.000308508
1.19075e-05
0.000305895
1.47017e-05
0.00030351
1.74571e-05
0.000301354
2.01716e-05
0.000299423
2.28429e-05
0.000297717
2.54683e-05
0.000296235
2.80449e-05
0.000294979
3.05686e-05
0.000293945
3.30347e-05
0.000293134
3.54369e-05
0.000292548
3.77685e-05
0.00029219
4.00216e-05
0.000292058
4.21875e-05
0.000292154
4.4255e-05
0.000292477
4.62129e-05
0.000293026
4.80502e-05
0.000293806
4.97513e-05
0.000294819
5.13032e-05
0.000296063
5.26912e-05
0.000297539
5.38996e-05
0.000299247
5.49138e-05
0.000301186
5.57193e-05
0.000303354
5.63011e-05
0.000305748
5.66469e-05
0.000308364
5.67461e-05
0.000311193
5.65887e-05
0.000314232
5.61685e-05
0.00031747
5.54827e-05
0.000320898
5.45308e-05
0.000324506
5.33185e-05
5.18536e-05
0.000328285
0.000413692
-3.96124e-05
0.000406416
-3.67827e-05
0.000399337
-3.39739e-05
0.000392473
-3.11855e-05
0.000385806
-2.83997e-05
0.000379341
-2.5614e-05
0.000373109
-2.28288e-05
0.000367101
-2.00412e-05
0.000361324
-1.72474e-05
0.000355797
-1.44574e-05
0.000350517
-1.16677e-05
0.000345486
-8.88441e-06
0.000340707
-6.11171e-06
0.000336166
-3.35341e-06
0.000331857
-6.12853e-07
0.000327791
2.10442e-06
0.000323976
4.8032e-06
0.000320412
7.47819e-06
0.000317084
1.0129e-05
0.000313983
1.27535e-05
0.000311106
1.53504e-05
0.000308448
1.7918e-05
0.00030601
2.04551e-05
0.000303792
2.29599e-05
0.000301795
2.54301e-05
0.000300021
2.78627e-05
0.000298471
3.02554e-05
0.000297144
3.26044e-05
0.000296037
3.49055e-05
0.00029515
3.71525e-05
0.000294481
3.93391e-05
0.000294032
4.14564e-05
0.000293799
4.34955e-05
0.000293781
4.5445e-05
0.000293982
4.72921e-05
0.000294396
4.9025e-05
0.000295028
5.06291e-05
0.000295879
5.20883e-05
0.000296949
5.3388e-05
0.000298238
5.45112e-05
0.000299749
5.54418e-05
0.000301478
5.61647e-05
0.000303423
5.66645e-05
0.000305588
5.69268e-05
0.000307969
5.69413e-05
0.000310561
5.66964e-05
0.000313363
5.61869e-05
0.000316368
5.54083e-05
0.00031957
5.43614e-05
0.000322961
5.30497e-05
5.14852e-05
0.000326533
0.000416344
-3.06178e-05
0.000409063
-2.79979e-05
0.00040197
-2.54487e-05
0.000395071
-2.29324e-05
0.000388387
-2.04305e-05
0.000381916
-1.79425e-05
0.000375676
-1.54645e-05
0.000369667
-1.29864e-05
0.000363907
-1.05018e-05
0.000358375
-8.01613e-06
0.000353082
-5.52842e-06
0.000348038
-3.04162e-06
0.000343233
-5.58834e-07
0.000338679
1.90988e-06
0.000334365
4.37e-06
0.000330283
6.818e-06
0.00032645
9.25155e-06
0.000322863
1.16684e-05
0.000319504
1.40675e-05
0.000316362
1.64483e-05
0.000313434
1.88091e-05
0.00031073
2.1149e-05
0.000308255
2.34663e-05
0.000306006
2.57602e-05
0.000303973
2.80289e-05
0.000302153
3.02697e-05
0.000300547
3.24806e-05
0.000299158
3.46573e-05
0.000297984
3.67963e-05
0.000297026
3.88913e-05
0.000296283
4.09363e-05
0.000295748
4.29223e-05
0.00029542
4.48393e-05
0.000295295
4.66762e-05
0.000295373
4.84191e-05
0.000295656
5.0054e-05
0.00029614
5.15675e-05
0.000296831
5.29412e-05
0.000297728
5.41589e-05
0.00029883
5.52029e-05
0.000300137
5.60553e-05
0.000301654
5.66995e-05
0.000303379
5.71201e-05
0.000305313
5.73001e-05
0.000307455
5.7229e-05
0.000309807
5.6894e-05
0.000312368
5.62896e-05
0.000315134
5.54101e-05
0.000318106
5.42567e-05
0.000321276
5.28332e-05
5.11502e-05
0.000324643
0.00041876
-2.15236e-05
0.000411477
-1.9154e-05
0.000404359
-1.68569e-05
0.000397431
-1.46116e-05
0.000390713
-1.24102e-05
0.000384182
-1.02336e-05
0.000377885
-8.06016e-06
0.000371856
-5.89699e-06
0.000366099
-3.72678e-06
0.000360596
-1.54596e-06
0.000355346
6.33536e-07
0.000350338
2.81962e-06
0.000345563
5.00656e-06
0.000341008
7.19234e-06
0.000336679
9.37525e-06
0.000332579
1.15515e-05
0.000328711
1.37191e-05
0.000325071
1.58768e-05
0.000321662
1.80238e-05
0.000318481
2.01591e-05
0.00031553
2.22826e-05
0.000312805
2.43931e-05
0.000310298
2.64898e-05
0.000308013
2.85719e-05
0.000305944
3.06384e-05
0.000304091
3.26871e-05
0.000302452
3.47164e-05
0.000301022
3.67226e-05
0.000299798
3.87021e-05
0.00029878
4.06487e-05
0.000297965
4.2556e-05
0.000297349
4.44152e-05
0.000296929
4.62154e-05
0.000296702
4.79453e-05
0.000296662
4.95905e-05
0.000296815
5.11358e-05
0.000297159
5.25641e-05
0.000297692
5.386e-05
0.000298416
5.50029e-05
0.00029933
5.59736e-05
0.000300436
5.67539e-05
0.000301737
5.73239e-05
0.000303233
5.76681e-05
0.000304928
5.77668e-05
0.000306828
5.76091e-05
0.000308933
5.71807e-05
0.000311246
5.6475e-05
0.000313769
5.54861e-05
0.000316504
5.42137e-05
0.000319447
5.26638e-05
5.08444e-05
0.000322605
0.0004209
-1.2327e-05
0.000413511
-1.02032e-05
0.000406306
-8.18569e-06
0.000399324
-6.23723e-06
0.000392575
-4.34081e-06
0.000386074
-2.47648e-06
0.000379843
-6.26618e-07
0.000373874
1.21868e-06
0.000368148
3.06905e-06
0.000362678
4.93331e-06
0.000357437
6.81368e-06
0.000352368
8.69846e-06
0.000347544
1.05943e-05
0.000342959
1.24955e-05
0.00033862
1.43978e-05
0.000334519
1.62996e-05
0.000330653
1.82002e-05
0.000327011
2.00977e-05
0.000323588
2.19921e-05
0.00032039
2.38829e-05
0.000317418
2.57692e-05
0.000314669
2.76496e-05
0.000312144
2.95251e-05
0.000309837
3.13946e-05
0.000307745
3.32581e-05
0.000305862
3.51144e-05
0.000304188
3.6962e-05
0.000302722
3.87981e-05
0.000301458
4.06192e-05
0.000300391
4.24195e-05
0.000299519
4.41923e-05
0.000298834
4.59291e-05
0.000298331
4.76184e-05
0.00029801
4.92473e-05
0.000297866
5.08018e-05
0.000297895
5.22649e-05
0.000298098
5.36181e-05
0.000298477
5.4842e-05
0.000299028
5.59183e-05
0.000299753
5.68233e-05
0.000300653
5.75375e-05
0.000301734
5.80387e-05
0.000302999
5.83095e-05
0.000304451
5.83292e-05
0.000306099
5.80838e-05
0.000307946
5.75586e-05
0.00031
5.67449e-05
0.000312269
5.5636e-05
0.000314755
5.4233e-05
0.000317466
5.25386e-05
5.05643e-05
0.000320404
0.000422599
-3.02588e-06
0.000415121
-1.16605e-06
0.000407876
5.56348e-07
0.000400903
2.19388e-06
0.000394192
3.77015e-06
0.000387727
5.30507e-06
0.000381502
6.81884e-06
0.000375506
8.3439e-06
0.000369752
9.88554e-06
0.000364241
1.14359e-05
0.000358984
1.30034e-05
0.000353968
1.4589e-05
0.000349194
1.61887e-05
0.000344661
1.78041e-05
0.00034035
1.94272e-05
0.000336255
2.10574e-05
0.000332371
2.26923e-05
0.00032871
2.43308e-05
0.000325291
2.59719e-05
0.000322108
2.76163e-05
0.000319142
2.92635e-05
0.00031639
3.09131e-05
0.00031385
3.25659e-05
0.000311521
3.42221e-05
0.000309404
3.58823e-05
0.000307497
3.75456e-05
0.000305796
3.92117e-05
0.000304296
4.08785e-05
0.000302993
4.25427e-05
0.00030188
4.41992e-05
0.000300954
4.58411e-05
0.000300209
4.74595e-05
0.000299634
4.90434e-05
0.000299228
5.05785e-05
0.000298984
5.20491e-05
0.000298901
5.34373e-05
0.000298972
5.47236e-05
0.000299197
5.58865e-05
0.000299576
5.69034e-05
0.000300112
5.77517e-05
0.000300805
5.84076e-05
0.000301661
5.88465e-05
0.000302687
5.90482e-05
0.000303888
5.89906e-05
0.000305274
5.86577e-05
0.000306854
5.80322e-05
0.000308639
5.71048e-05
0.00031064
5.58662e-05
0.000312865
5.43186e-05
0.000315331
5.24626e-05
5.03112e-05
0.000318043
0.000424098
6.40198e-06
0.000416529
7.96008e-06
0.000409204
9.36837e-06
0.000402172
1.06764e-05
0.000395401
1.19126e-05
0.000388913
1.31047e-05
0.00038269
1.42911e-05
0.000376725
1.54867e-05
0.000371026
1.67039e-05
0.000365573
1.79335e-05
0.000360362
1.92014e-05
0.000355382
2.04796e-05
0.000350628
2.1789e-05
0.000346101
2.31169e-05
0.000341793
2.44616e-05
0.000337711
2.58206e-05
0.00033385
2.71908e-05
0.000330207
2.85706e-05
0.000326781
2.99595e-05
0.000323578
3.13565e-05
0.000320595
3.27633e-05
0.00031783
3.41795e-05
0.000315284
3.56082e-05
0.000312955
3.70491e-05
0.000310837
3.85041e-05
0.000308924
3.99732e-05
0.000307215
4.14572e-05
0.000305705
4.29551e-05
0.000304386
4.44639e-05
0.000303251
4.5979e-05
0.000302291
4.74936e-05
0.000301499
4.89985e-05
0.000300867
5.04825e-05
0.000300386
5.1931e-05
0.000300047
5.33264e-05
0.000299848
5.46496e-05
0.00029979
5.58788e-05
0.000299868
5.69905e-05
0.000300079
5.7959e-05
0.000300427
5.87588e-05
0.000300911
5.93644e-05
0.000301537
5.97493e-05
0.000302313
5.98881e-05
0.000303252
5.97576e-05
0.000304365
5.93375e-05
0.000305664
5.861e-05
0.000307167
5.75613e-05
0.000308885
5.61864e-05
0.000310838
5.44786e-05
0.00031304
5.2443e-05
5.00911e-05
0.00031551
0.000425044
1.59124e-05
0.00041742
1.7156e-05
0.000410097
1.82294e-05
0.000403073
1.9187e-05
0.000396331
2.00619e-05
0.000389854
2.09155e-05
0.000383651
2.17633e-05
0.000377736
2.26295e-05
0.000372067
2.35085e-05
0.000366665
2.44278e-05
0.000361479
2.53764e-05
0.000356511
2.63667e-05
0.000351766
2.73813e-05
0.000347245
2.84257e-05
0.000342953
2.94942e-05
0.000338891
3.05833e-05
0.000335047
3.16898e-05
0.000331422
3.28116e-05
0.000328016
3.39481e-05
0.000324824
3.50986e-05
0.000321847
3.62649e-05
0.000319089
3.74474e-05
0.000316551
3.86501e-05
0.000314225
3.9874e-05
0.000312107
4.11215e-05
0.000310197
4.23944e-05
0.000308491
4.36946e-05
0.000306982
4.50222e-05
0.000305658
4.63754e-05
0.00030451
4.77505e-05
0.000303525
4.91405e-05
0.000302697
5.05369e-05
0.000302016
5.19267e-05
0.000301472
5.32954e-05
0.000301058
5.46252e-05
0.000300766
5.58948e-05
0.000300587
5.70786e-05
0.000300515
5.81499e-05
0.00030055
5.90817e-05
0.000300698
5.98456e-05
0.000300965
6.04125e-05
0.000301356
6.07523e-05
0.000301881
6.08362e-05
0.000302551
6.06382e-05
0.000303379
6.01335e-05
0.000304385
5.9303e-05
0.000305587
5.81297e-05
0.000307008
5.66059e-05
0.000308669
5.47247e-05
0.000310592
5.24917e-05
4.99144e-05
0.000312803
0.000425394
2.54752e-05
0.000417739
2.63867e-05
0.000410417
2.70914e-05
0.000403412
2.76722e-05
0.000396727
2.82041e-05
0.000390313
2.87069e-05
0.000384192
2.92035e-05
0.000378308
2.97256e-05
0.000372673
3.02863e-05
0.000367279
3.0885e-05
0.000362132
3.15285e-05
0.00035723
3.22183e-05
0.000352545
3.29484e-05
0.000348086
3.37156e-05
0.000343847
3.45128e-05
0.00033982
3.53364e-05
0.000336007
3.61827e-05
0.000332407
3.70496e-05
0.000329017
3.79353e-05
0.000325841
3.88401e-05
0.000322881
3.9765e-05
0.000320139
4.07126e-05
0.000317616
4.16862e-05
0.000315307
4.26895e-05
0.000313207
4.37264e-05
0.000311313
4.48005e-05
0.000309621
4.59144e-05
0.000308121
4.70701e-05
0.000306806
4.82666e-05
0.000305661
4.95021e-05
0.000304673
5.07702e-05
0.000303827
5.2062e-05
0.000303108
5.33653e-05
0.000302512
5.46628e-05
0.000302032
5.59372e-05
0.000301649
5.71637e-05
0.000301348
5.83148e-05
0.000301129
5.93616e-05
0.000300996
6.0272e-05
0.000300955
6.10141e-05
0.000301007
6.15558e-05
0.000301156
6.18624e-05
0.000301414
6.19023e-05
0.000301797
6.16436e-05
0.000302324
6.106e-05
0.000303015
6.01249e-05
0.000303897
5.88258e-05
0.000304998
5.71437e-05
0.000306345
5.50763e-05
0.000307968
5.2624e-05
4.97961e-05
0.0003099
0.000424826
3.49311e-05
0.000417273
3.54939e-05
0.000410039
3.58518e-05
0.000403112
3.60902e-05
0.000396502
3.62588e-05
0.000390166
3.64056e-05
0.00038411
3.65653e-05
0.000378321
3.67504e-05
0.000372798
3.69904e-05
0.000367518
3.72735e-05
0.000362473
3.76294e-05
0.00035766
3.80243e-05
0.000353056
3.84786e-05
0.000348664
3.89753e-05
0.000344466
3.95086e-05
0.000340482
4.00735e-05
0.00033671
4.0666e-05
0.000333146
4.12792e-05
0.000329792
4.19152e-05
0.000326645
4.25747e-05
0.00032371
4.32579e-05
0.000320989
4.3969e-05
0.000318481
4.47115e-05
0.000316191
4.5491e-05
0.000314117
4.63134e-05
0.000312254
4.71841e-05
0.000310593
4.81079e-05
0.000309121
4.90881e-05
0.000307828
5.01261e-05
0.000306701
5.12216e-05
0.000305721
5.23688e-05
0.000304875
5.35605e-05
0.000304144
5.47831e-05
0.000303515
5.602e-05
0.000302974
5.72497e-05
0.000302505
5.84471e-05
0.000302103
5.95813e-05
0.000301757
6.06203e-05
0.000301458
6.15275e-05
0.000301214
6.22668e-05
0.000301035
6.27998e-05
0.000300931
6.30888e-05
0.000300912
6.30976e-05
0.000300996
6.27894e-05
0.000301205
6.21323e-05
0.000301561
6.11012e-05
0.0003021
5.96693e-05
0.000302851
5.78245e-05
0.000303852
5.55559e-05
0.000305142
5.28642e-05
4.97621e-05
0.00030676
0.000422759
4.39744e-05
0.000415532
4.42743e-05
0.000408564
4.43365e-05
0.000401871
4.4253e-05
0.000395461
4.40982e-05
0.000389331
4.39193e-05
0.000383459
4.37601e-05
0.000377877
4.36271e-05
0.000372523
4.35622e-05
0.00036743
4.35615e-05
0.000362533
4.36229e-05
0.000357819
4.37605e-05
0.0003533
4.39434e-05
0.000348984
4.41845e-05
0.000344867
4.44666e-05
0.000340947
4.47831e-05
0.000337205
4.51274e-05
0.000333651
4.54961e-05
0.00033031
4.58869e-05
0.000327183
4.63001e-05
0.000324277
4.67403e-05
0.000321593
4.72122e-05
0.000319129
4.77205e-05
0.000316884
4.82721e-05
0.000314855
4.88744e-05
0.000313037
4.95356e-05
0.000311419
5.02633e-05
0.000309991
5.10627e-05
0.000308741
5.19388e-05
0.000307647
5.28929e-05
0.000306695
5.39199e-05
0.000305864
5.50161e-05
0.000305133
5.61638e-05
0.000304485
5.73519e-05
0.000303901
5.85483e-05
0.000303366
5.97347e-05
0.000302863
6.08692e-05
0.000302384
6.19206e-05
0.000301929
6.2844e-05
0.000301493
6.36035e-05
0.000301084
6.41501e-05
0.000300715
6.44419e-05
0.0003004
6.4437e-05
0.000300161
6.4093e-05
0.000300021
6.33765e-05
0.000300014
6.22514e-05
0.000300178
6.06901e-05
0.00030055
5.86771e-05
0.000301174
5.61949e-05
0.000302101
5.32475e-05
4.98412e-05
0.000303375
0.00041816
5.21353e-05
0.000411677
5.22956e-05
0.000405341
5.21727e-05
0.000399199
5.18703e-05
0.000393264
5.1474e-05
0.000387565
5.10435e-05
0.000382071
5.0613e-05
0.000376778
5.02299e-05
0.000371686
4.9901e-05
0.000366772
4.96484e-05
0.000362049
4.94599e-05
0.000357505
4.93483e-05
0.000353136
4.92974e-05
0.00034895
4.9306e-05
0.000344919
4.93564e-05
0.000341058
4.94401e-05
0.00033739
4.95507e-05
0.000333917
4.9686e-05
0.000330633
4.98408e-05
0.000327553
5.00173e-05
0.000324679
5.02174e-05
0.000322022
5.0447e-05
0.000319586
5.07146e-05
0.000317376
5.10294e-05
0.000315392
5.14026e-05
0.000313627
5.18451e-05
0.000312068
5.23673e-05
0.000310702
5.29791e-05
0.000309514
5.36875e-05
0.000308479
5.44963e-05
0.000307579
5.54049e-05
0.000306787
5.64068e-05
0.000306085
5.74892e-05
0.000305438
5.86378e-05
0.000304829
5.98181e-05
0.000304238
6.10112e-05
0.000303651
6.21665e-05
0.000303049
6.32549e-05
0.000302433
6.42204e-05
0.0003018
6.50266e-05
0.000301153
6.56131e-05
0.000300507
6.59333e-05
0.000299881
6.59361e-05
0.000299295
6.55801e-05
0.000298784
6.48169e-05
0.000298382
6.3608e-05
0.000298133
6.19242e-05
0.000298085
5.97378e-05
0.000298286
5.70351e-05
0.000298801
5.38124e-05
5.00762e-05
0.000299684
0.000409566
5.87506e-05
0.000404349
5.8953e-05
0.000399189
5.88198e-05
0.000394091
5.84632e-05
0.000389088
5.79726e-05
0.000384159
5.74175e-05
0.000379319
5.68468e-05
0.000374595
5.62983e-05
0.000369994
5.58018e-05
0.000365494
5.53687e-05
0.000361084
5.50147e-05
0.000356786
5.47157e-05
0.000352604
5.44833e-05
0.000348553
5.42957e-05
0.000344637
5.41482e-05
0.000340872
5.40263e-05
0.00033728
5.3924e-05
0.000333872
5.38369e-05
0.000330655
5.37639e-05
0.000327635
5.37074e-05
0.000324814
5.36707e-05
0.000322205
5.36593e-05
0.00031982
5.36839e-05
0.000317664
5.3756e-05
0.00031574
5.3891e-05
0.00031404
5.41035e-05
0.000312555
5.44098e-05
0.000311272
5.4823e-05
0.000310166
5.53547e-05
0.00030922
5.60122e-05
0.000308394
5.6799e-05
0.000307669
5.77135e-05
0.000307015
5.87315e-05
0.000306388
5.98592e-05
0.000305779
6.10333e-05
0.000305141
6.22643e-05
0.000304481
6.34571e-05
0.000303764
6.46162e-05
0.000303001
6.56459e-05
0.000302167
6.65315e-05
0.000301273
6.71955e-05
0.000300335
6.75773e-05
0.000299373
6.76208e-05
0.000298413
6.72771e-05
0.000297491
6.64881e-05
0.000296654
6.52132e-05
0.000295954
6.34102e-05
0.000295439
6.1054e-05
0.00029517
5.81239e-05
0.000295215
5.46091e-05
5.05203e-05
0.000295649
0.000396285
6.3165e-05
0.000392853
6.35923e-05
0.000389413
6.36458e-05
0.000385907
6.34411e-05
0.000382303
6.30633e-05
0.000378589
6.25806e-05
0.000374799
6.2051e-05
0.000370953
6.15006e-05
0.000367064
6.09965e-05
0.000363193
6.05021e-05
0.000359308
6.00863e-05
0.000355433
5.97091e-05
0.000351571
5.93785e-05
0.000347753
5.90716e-05
0.000344026
5.87827e-05
0.000340404
5.85024e-05
0.000336908
5.82213e-05
0.000333565
5.79373e-05
0.000330402
5.76504e-05
0.000327432
5.73697e-05
0.000324669
5.7099e-05
0.000322125
5.68451e-05
0.000319806
5.6622e-05
0.000317721
5.64435e-05
0.000315874
5.63307e-05
0.000314257
5.62994e-05
0.000312869
5.63729e-05
0.000311684
5.65748e-05
0.000310691
5.69159e-05
0.000309841
5.74166e-05
0.000309141
5.80714e-05
0.000308491
5.88968e-05
0.000307928
5.98714e-05
0.000307351
6.09701e-05
0.000306773
6.2186e-05
0.000306112
6.34428e-05
0.000305397
6.47403e-05
0.000304585
6.59974e-05
0.000303613
6.71528e-05
0.000302588
6.8126e-05
0.000301441
6.89032e-05
0.000300194
6.9388e-05
0.000298884
6.95021e-05
0.000297526
6.92089e-05
0.000296162
6.84263e-05
0.000294843
6.71063e-05
0.000293626
6.52036e-05
0.000292587
6.26823e-05
0.000291788
5.95226e-05
0.000291314
5.57051e-05
5.12387e-05
0.000291242
0.000378441
6.4912e-05
0.000377009
6.56599e-05
0.000375655
6.60773e-05
0.000374175
6.62232e-05
0.000372447
6.62007e-05
0.000370438
6.60346e-05
0.000368122
6.57796e-05
0.000365574
6.54458e-05
0.00036277
6.51298e-05
0.000359758
6.47805e-05
0.000356585
6.44575e-05
0.00035329
6.41416e-05
0.000349906
6.38353e-05
0.000346438
6.35192e-05
0.000342962
6.3177e-05
0.000339535
6.28036e-05
0.000336199
6.23946e-05
0.000332991
6.19534e-05
0.000329923
6.14895e-05
0.000327023
6.10055e-05
0.000324312
6.05089e-05
0.000321816
6.00135e-05
0.000319555
5.95347e-05
0.000317545
5.90932e-05
0.000315786
5.87146e-05
0.000314268
5.84218e-05
0.000312988
5.8245e-05
0.000311926
5.82109e-05
0.000311056
5.8347e-05
0.000310352
5.8669e-05
0.000309762
5.92024e-05
0.00030928
5.992e-05
0.0003088
6.08581e-05
0.000308318
6.19568e-05
0.000307782
6.32244e-05
0.000307155
6.45493e-05
0.000306407
6.59706e-05
0.000305488
6.73573e-05
0.000304425
6.8673e-05
0.000303132
6.98466e-05
0.000301731
7.07535e-05
0.000300135
7.14052e-05
0.00029844
7.16208e-05
0.00029664
7.14189e-05
0.000294789
7.06771e-05
0.000292941
6.93438e-05
0.000291161
6.73618e-05
0.00028954
6.46874e-05
0.000288149
6.13003e-05
0.000287071
5.71715e-05
5.23062e-05
0.000286403
0.000357213
6.36509e-05
0.000357735
6.47938e-05
0.000358544
6.57134e-05
0.000359294
6.64465e-05
0.000359713
6.69747e-05
0.000359702
6.74163e-05
0.000359179
6.76159e-05
0.000358185
6.78367e-05
0.000356763
6.78783e-05
0.000354916
6.79204e-05
0.00035272
6.7875e-05
0.000350208
6.78081e-05
0.000347459
6.76879e-05
0.000344517
6.75021e-05
0.000341429
6.72296e-05
0.000338278
6.68633e-05
0.000335139
6.63991e-05
0.000332068
6.58561e-05
0.000329112
6.52474e-05
0.0003263
6.45871e-05
0.000323659
6.38852e-05
0.000321221
6.31582e-05
0.000319014
6.24218e-05
0.00031707
6.17047e-05
0.000315392
6.10388e-05
0.000313986
6.0456e-05
0.000312846
6.00011e-05
0.000311951
5.97078e-05
0.000311249
5.96141e-05
0.000310744
5.97436e-05
0.000310335
6.01221e-05
0.000310006
6.07654e-05
0.000309709
6.1648e-05
0.000309341
6.27818e-05
0.000308917
6.408e-05
0.000308284
6.55881e-05
0.000307533
6.71042e-05
0.000306508
6.87117e-05
0.000305325
7.0216e-05
0.000303858
7.16316e-05
0.000302173
7.27633e-05
0.000300248
7.36206e-05
0.000298086
7.40452e-05
0.000295789
7.39611e-05
0.00029338
7.33073e-05
0.000290933
7.19927e-05
0.000288512
6.99596e-05
0.000286219
6.71513e-05
0.000284147
6.35419e-05
0.00028238
5.90995e-05
5.38189e-05
0.000281032
0.000333359
5.9295e-05
0.000335887
6.0855e-05
0.00033906
6.24018e-05
0.000342093
6.3879e-05
0.000344878
6.52383e-05
0.000346916
6.64519e-05
0.000348381
6.7549e-05
0.00034917
6.83495e-05
0.00034924
6.9113e-05
0.00034879
6.9667e-05
0.000347728
7.01927e-05
0.000346175
7.05313e-05
0.000344179
7.07936e-05
0.000341831
7.0896e-05
0.000339224
7.08331e-05
0.000336448
7.05902e-05
0.000333589
7.01677e-05
0.000330715
6.95991e-05
0.000327896
6.89027e-05
0.000325184
6.81069e-05
0.000322626
6.72256e-05
0.000320258
6.62788e-05
0.000318121
6.52843e-05
0.000316254
6.42788e-05
0.000314672
6.33005e-05
0.00031339
6.23969e-05
0.000312407
6.16231e-05
0.000311688
6.10315e-05
0.000311207
6.06638e-05
0.000310893
6.05892e-05
0.000310757
6.07759e-05
0.000310655
6.13324e-05
0.000310582
6.2171e-05
0.000310377
6.33502e-05
0.000310082
6.47459e-05
0.000309577
6.64151e-05
0.000308796
6.81818e-05
0.000307712
7.00272e-05
0.000306347
7.18101e-05
0.000304664
7.35132e-05
0.000302654
7.49479e-05
0.000300331
7.60736e-05
0.000297719
7.67541e-05
0.000294862
7.68858e-05
0.000291833
7.63785e-05
0.000288702
7.51331e-05
0.000285554
7.30848e-05
0.000282487
7.01742e-05
0.000279614
6.63571e-05
0.00027704
6.16039e-05
5.59e-05
0.000274882
0.000307231
5.13902e-05
0.000312176
5.3591e-05
0.000317734
5.59918e-05
0.000323323
5.84691e-05
0.000328317
6.08678e-05
0.000332664
6.32067e-05
0.000336066
6.51756e-05
0.000338626
6.70969e-05
0.000340369
6.85806e-05
0.000341332
7.00147e-05
0.000341539
7.11804e-05
0.000340998
7.22432e-05
0.000339853
7.30476e-05
0.000338181
7.36244e-05
0.000336116
7.39246e-05
0.000333776
7.39207e-05
0.000331253
7.36418e-05
0.000328628
7.31273e-05
0.000325981
7.24175e-05
0.000323384
7.15423e-05
0.000320908
7.05181e-05
0.00031861
6.93693e-05
0.000316546
6.81143e-05
0.000314767
6.68004e-05
0.000313302
6.54749e-05
0.000312175
6.42051e-05
0.000311395
6.30614e-05
0.000310907
6.21208e-05
0.000310726
6.14326e-05
0.000310716
6.10955e-05
0.000310896
6.11059e-05
0.000311127
6.15499e-05
0.000311339
6.236e-05
0.000311402
6.36003e-05
0.000311306
6.51578e-05
0.000310911
6.70363e-05
0.000310188
6.91106e-05
0.000309051
7.13084e-05
0.000307465
7.3485e-05
0.000305514
7.55502e-05
0.000303097
7.74109e-05
0.000300237
7.89269e-05
0.000297013
7.99222e-05
0.000293466
8.03348e-05
0.000289672
8.00312e-05
0.000285716
7.89047e-05
0.000281703
7.68758e-05
0.000277725
7.38901e-05
0.000273898
6.98944e-05
0.000270356
6.48428e-05
5.87164e-05
0.000267227
0.000277214
3.97681e-05
0.000285972
4.29214e-05
0.000294867
4.64642e-05
0.000303086
5.02633e-05
0.000310684
5.40223e-05
0.000317006
5.76563e-05
0.000322405
6.09974e-05
0.000326669
6.39453e-05
0.000329946
6.65903e-05
0.000332302
6.88844e-05
0.00033368
7.10552e-05
0.000334189
7.29009e-05
0.000333878
7.44469e-05
0.000332866
7.56908e-05
0.000331294
7.65216e-05
0.000329357
7.68614e-05
0.000327183
7.67976e-05
0.00032486
7.63943e-05
0.000322438
7.57343e-05
0.000319999
7.48396e-05
0.000317653
7.3712e-05
0.000315473
7.23768e-05
0.000313533
7.08591e-05
0.000311898
6.92102e-05
0.000310619
6.74894e-05
0.000309737
6.57924e-05
0.000309267
6.421e-05
0.000309144
6.2847e-05
0.00030938
6.17893e-05
0.00030984
6.11367e-05
0.000310497
6.09414e-05
0.000311176
6.1254e-05
0.00031182
6.2076e-05
0.000312267
6.34358e-05
0.000312395
6.5237e-05
0.000312165
6.74299e-05
0.000311414
6.99372e-05
0.000310158
7.25996e-05
0.000308322
7.53204e-05
0.000305797
7.79796e-05
0.000302794
8.02997e-05
0.000299224
8.23256e-05
0.000295097
8.38297e-05
0.000290561
8.45891e-05
0.000285725
8.45518e-05
0.000280681
8.35825e-05
0.000275547
8.1594e-05
0.000270446
7.85451e-05
0.000265477
7.43846e-05
0.00026075
6.90479e-05
6.25025e-05
0.000256419
0.000243699
2.4014e-05
0.000257228
2.86301e-05
0.000270043