/*--------------------------------*- C++ -*----------------------------------*\
  =========                 |
  \\      /  F ield         | OpenFOAM: The Open Source CFD Toolbox
   \\    /   O peration     | Website:  https://openfoam.org
    \\  /    A nd           | Version:  10
     \\/     M anipulation  |
\*---------------------------------------------------------------------------*/
FoamFile
{
    format      ascii;
    class       volScalarField;
    location    "0.651548";
    object      T;
}
// * * * * * * * * * * * * * * * * * * * * * * * * * * * * * * * * * * * * * //

dimensions      [0 0 0 1 0 0 0];

internalField   nonuniform List<scalar> 
15708
(
0.00870595
0.0087064
0.0087071
0.0087085
0.0087087
0.00871067
0.00871227
0.00871397
0.00871658
0.00871858
0.00872168
0.00872364
0.00872701
0.0087294
0.00873264
0.00873608
0.00873938
0.00874315
0.00874703
0.00875086
0.0087549
0.00875923
0.00876346
0.00876785
0.0087723
0.00877689
0.0087814
0.00878581
0.00879025
0.00879467
0.00879902
0.00880327
0.00880726
0.00881118
0.00881503
0.00881858
0.00882203
0.0088252
0.00882807
0.00883063
0.00883297
0.00883488
0.00883638
0.0088377
0.00883855
0.00883904
0.00883904
0.0088388
0.00883809
0.00883707
0.00883595
0.00870623
0.00870678
0.00870723
0.00870767
0.00870892
0.00870917
0.00871108
0.00871314
0.00871445
0.00871717
0.00871908
0.00872187
0.00872424
0.00872714
0.00873006
0.00873325
0.00873666
0.00874028
0.00874397
0.00874789
0.00875197
0.00875613
0.00876035
0.00876472
0.0087691
0.00877357
0.00877802
0.00878245
0.00878687
0.00879138
0.00879569
0.00880004
0.008804
0.00880787
0.00881169
0.0088153
0.00881874
0.00882198
0.00882492
0.0088276
0.00883
0.008832
0.00883375
0.00883511
0.00883621
0.00883688
0.00883715
0.00883712
0.00883677
0.00883593
0.00883518
0.00870618
0.00870608
0.00870623
0.00870639
0.00870692
0.00870824
0.00870868
0.00871088
0.00871245
0.00871465
0.00871686
0.00871923
0.00872189
0.00872452
0.0087275
0.00873064
0.00873398
0.00873752
0.00874121
0.00874505
0.00874905
0.0087532
0.00875741
0.00876178
0.00876611
0.00877052
0.00877492
0.00877926
0.00878364
0.00878807
0.00879241
0.0087967
0.00880076
0.00880459
0.00880843
0.00881211
0.00881558
0.00881886
0.00882194
0.00882466
0.00882722
0.0088294
0.00883131
0.00883279
0.00883407
0.00883502
0.00883564
0.00883573
0.00883561
0.00883502
0.00883452
0.00870604
0.00870553
0.00870534
0.00870543
0.00870581
0.00870638
0.00870762
0.00870862
0.00871036
0.00871233
0.0087144
0.00871673
0.0087193
0.00872196
0.00872481
0.00872792
0.0087312
0.00873467
0.00873834
0.00874216
0.00874611
0.00875017
0.00875438
0.00875875
0.00876305
0.00876746
0.00877185
0.00877623
0.00878059
0.00878499
0.00878936
0.00879354
0.00879769
0.00880147
0.00880528
0.00880906
0.0088126
0.00881596
0.0088191
0.00882191
0.00882452
0.00882687
0.00882894
0.00883068
0.00883214
0.00883325
0.00883416
0.00883457
0.00883465
0.00883445
0.00883405
0.00870559
0.00870479
0.00870459
0.00870445
0.00870443
0.0087046
0.00870548
0.0087068
0.00870801
0.00871014
0.00871197
0.00871431
0.00871682
0.00871936
0.00872211
0.00872535
0.00872861
0.00873202
0.00873567
0.00873951
0.0087434
0.00874739
0.00875161
0.00875584
0.00876014
0.00876445
0.00876885
0.00877322
0.00877755
0.00878201
0.00878635
0.00879058
0.00879472
0.00879864
0.00880244
0.00880621
0.00880983
0.00881322
0.00881643
0.00881938
0.00882207
0.00882451
0.00882674
0.00882871
0.00883035
0.00883169
0.00883284
0.00883348
0.00883397
0.00883398
0.00883387
0.00870381
0.00870289
0.00870253
0.00870185
0.00870142
0.00870172
0.00870261
0.00870364
0.00870553
0.00870758
0.00870975
0.00871184
0.00871439
0.00871691
0.00871969
0.00872283
0.00872617
0.00872965
0.00873327
0.00873709
0.008741
0.00874494
0.00874906
0.00875318
0.00875745
0.00876175
0.00876613
0.0087705
0.00877481
0.00877922
0.00878355
0.00878778
0.00879183
0.00879587
0.00879967
0.00880343
0.00880716
0.00881061
0.00881388
0.00881697
0.00881985
0.00882245
0.00882484
0.00882695
0.00882873
0.0088303
0.00883163
0.00883257
0.00883342
0.00883377
0.00883396
0.00870196
0.00870128
0.00870089
0.00870004
0.00869975
0.00869992
0.00870074
0.00870135
0.00870333
0.0087055
0.0087074
0.00870999
0.00871223
0.00871484
0.00871776
0.00872124
0.00872471
0.00872778
0.00873071
0.00873395
0.00873744
0.00874129
0.00874543
0.00874984
0.0087544
0.00875908
0.00876366
0.00876816
0.00877255
0.00877692
0.00878118
0.00878535
0.00878933
0.00879332
0.00879722
0.00880092
0.00880464
0.0088082
0.00881151
0.0088147
0.00881769
0.00882037
0.00882299
0.00882541
0.0088274
0.00882926
0.00883081
0.00883208
0.0088331
0.00883385
0.00883433
0.00870033
0.00869967
0.00869856
0.00869822
0.00869822
0.00869827
0.00869894
0.00869991
0.00870139
0.00870287
0.00870537
0.00870766
0.00871028
0.00871308
0.00871583
0.00871904
0.00872229
0.00872513
0.00872804
0.00873133
0.00873518
0.00873944
0.0087437
0.00874784
0.008752
0.00875649
0.00876106
0.00876574
0.00877023
0.00877471
0.00877885
0.00878295
0.00878694
0.00879081
0.00879482
0.00879861
0.00880233
0.00880601
0.00880939
0.00881265
0.00881582
0.00881877
0.00882141
0.00882399
0.00882622
0.00882839
0.00883013
0.00883175
0.00883304
0.00883412
0.00883487
0.00869918
0.00869637
0.00869489
0.00869453
0.008695
0.00869558
0.0086976
0.00869966
0.00870101
0.00870237
0.00870355
0.0087051
0.00870672
0.00870916
0.00871199
0.00871521
0.0087186
0.00872227
0.0087261
0.00872999
0.00873401
0.0087379
0.00874207
0.0087463
0.00875054
0.00875493
0.00875917
0.00876354
0.00876788
0.00877221
0.00877643
0.00878053
0.00878461
0.00878856
0.00879256
0.00879658
0.00880027
0.00880391
0.00880744
0.00881079
0.00881402
0.00881716
0.00881997
0.00882287
0.00882531
0.00882768
0.0088297
0.00883159
0.00883313
0.00883454
0.00883565
0.00869567
0.00869392
0.00869365
0.00869392
0.00869444
0.00869532
0.00869583
0.00869617
0.00869665
0.00869811
0.00869809
0.00870106
0.00870408
0.00870756
0.0087107
0.00871403
0.00871721
0.00872067
0.00872438
0.0087285
0.00873242
0.00873665
0.00874073
0.00874488
0.00874903
0.00875328
0.00875764
0.00876195
0.00876613
0.00877035
0.00877446
0.00877848
0.00878258
0.00878659
0.00879054
0.00879441
0.00879836
0.00880204
0.00880553
0.00880911
0.00881241
0.00881579
0.00881874
0.00882182
0.00882449
0.00882715
0.00882948
0.0088317
0.00883354
0.00883526
0.00883668
0.00869443
0.0086936
0.00869326
0.00869297
0.00869229
0.00869209
0.00869258
0.00869306
0.00869505
0.0086968
0.00869908
0.00870096
0.0087035
0.00870573
0.00870838
0.00871133
0.00871498
0.00871907
0.00872313
0.00872654
0.00873011
0.00873393
0.00873801
0.0087423
0.00874669
0.00875112
0.00875549
0.0087599
0.00876425
0.00876854
0.00877281
0.00877689
0.00878091
0.00878498
0.00878887
0.00879277
0.0087965
0.00880033
0.00880398
0.00880756
0.00881101
0.00881451
0.00881774
0.00882094
0.00882394
0.00882679
0.00882946
0.00883193
0.00883419
0.0088363
0.00883793
0.00869024
0.00868953
0.00868968
0.00868986
0.00869029
0.00869096
0.00869155
0.00869232
0.00869365
0.00869454
0.00869648
0.00869816
0.00870085
0.00870331
0.00870649
0.00870969
0.00871319
0.00871678
0.00872075
0.00872489
0.00872891
0.00873321
0.00873743
0.00874172
0.00874589
0.00875025
0.00875456
0.00875879
0.00876297
0.00876709
0.00877114
0.00877521
0.00877917
0.00878308
0.00878711
0.00879112
0.00879507
0.0087988
0.00880251
0.00880617
0.00880966
0.00881326
0.00881674
0.00882029
0.00882343
0.0088267
0.0088296
0.0088324
0.00883499
0.00883738
0.00883949
0.00868748
0.00868654
0.00868631
0.00868581
0.00868596
0.00868664
0.00868733
0.00868874
0.00868899
0.00869124
0.00869187
0.00869502
0.00869793
0.00870133
0.00870485
0.00870834
0.0087118
0.00871569
0.00871938
0.00872353
0.00872764
0.00873211
0.00873625
0.00874054
0.00874489
0.00874929
0.00875358
0.00875772
0.00876174
0.00876575
0.00876981
0.00877385
0.00877784
0.00878177
0.00878568
0.00878947
0.00879322
0.00879709
0.00880108
0.00880502
0.00880892
0.0088126
0.00881628
0.00881973
0.0088233
0.00882659
0.00882991
0.00883289
0.00883585
0.00883854
0.00884094
0.00868387
0.00868327
0.00868325
0.00868356
0.00868331
0.00868339
0.00868401
0.00868452
0.00868667
0.00868879
0.00869175
0.00869398
0.00869701
0.00870015
0.00870335
0.00870669
0.00871044
0.0087141
0.00871819
0.00872237
0.00872668
0.00873108
0.0087354
0.00873966
0.00874399
0.00874836
0.00875261
0.00875676
0.0087608
0.00876468
0.00876861
0.00877242
0.00877646
0.00878052
0.00878432
0.00878795
0.00879182
0.00879597
0.00880014
0.00880417
0.00880798
0.00881183
0.00881561
0.00881943
0.00882312
0.00882682
0.00883036
0.00883374
0.00883694
0.00883984
0.00884261
0.00867854
0.00867905
0.0086798
0.00867996
0.00868077
0.008681
0.00868265
0.00868408
0.00868604
0.00868755
0.00869035
0.00869229
0.00869542
0.00869814
0.00870173
0.00870557
0.00870916
0.0087131
0.00871698
0.00872114
0.00872553
0.00872996
0.00873456
0.00873917
0.00874362
0.00874788
0.00875208
0.00875605
0.00876011
0.00876396
0.00876775
0.00877169
0.00877536
0.00877934
0.00878305
0.00878693
0.00879085
0.00879467
0.00879878
0.00880312
0.00880731
0.00881145
0.00881536
0.00881937
0.00882319
0.00882711
0.00883087
0.00883459
0.00883816
0.00884148
0.00884463
0.00867427
0.00867447
0.00867562
0.00867678
0.00867814
0.00867935
0.00868075
0.00868274
0.008683
0.00868577
0.00868604
0.00868917
0.00869241
0.00869569
0.00869924
0.00870275
0.00870663
0.00871144
0.0087163
0.00872099
0.00872568
0.00873014
0.00873456
0.00873889
0.00874318
0.00874737
0.00875138
0.00875544
0.00875934
0.00876309
0.00876705
0.00877063
0.0087746
0.00877828
0.00878216
0.00878594
0.00878981
0.00879391
0.00879802
0.00880217
0.00880649
0.00881079
0.00881503
0.00881929
0.0088235
0.00882767
0.00883187
0.00883572
0.00883963
0.00884329
0.00884656
0.00866878
0.00867012
0.00867153
0.00867335
0.00867456
0.00867638
0.00867666
0.00867869
0.00868039
0.00868234
0.00868535
0.00868762
0.00869122
0.00869407
0.00869769
0.00870189
0.00870635
0.00871038
0.0087149
0.00871952
0.00872435
0.00872925
0.0087341
0.00873883
0.00874333
0.0087475
0.00875153
0.00875543
0.00875926
0.00876287
0.0087667
0.00877017
0.00877404
0.00877736
0.00878143
0.0087851
0.00878905
0.00879303
0.00879736
0.00880155
0.00880597
0.00881044
0.0088149
0.00881942
0.00882391
0.00882833
0.00883285
0.00883699
0.00884137
0.00884533
0.00884904
0.00866221
0.00866728
0.00867005
0.00867175
0.00867315
0.00867337
0.00867495
0.00867632
0.00867768
0.00867888
0.00868149
0.00868466
0.00868846
0.00869249
0.00869677
0.00870149
0.00870614
0.00871065
0.00871513
0.00871957
0.00872432
0.00872923
0.00873412
0.00873887
0.00874339
0.00874765
0.00875176
0.00875559
0.00875912
0.00876287
0.0087659
0.00877017
0.00877267
0.00877734
0.00877999
0.00878486
0.00878807
0.00879287
0.00879649
0.00880088
0.00880552
0.0088101
0.0088149
0.00881965
0.00882456
0.00882945
0.00883404
0.00883862
0.00884312
0.00884765
0.0088519
0.00863909
0.00865455
0.00866294
0.0086671
0.00866931
0.00867069
0.00867246
0.00867378
0.00867592
0.00867805
0.00867934
0.00868269
0.0086858
0.0086907
0.00869525
0.00870014
0.00870524
0.00871053
0.00871576
0.00872078
0.00872559
0.00873035
0.00873487
0.00873956
0.00874374
0.008748
0.00875198
0.00875562
0.0087594
0.00876231
0.00876675
0.00876798
0.00877446
0.00877409
0.00878169
0.00878147
0.00878972
0.00878951
0.00879772
0.00880133
0.0088058
0.00881055
0.00881541
0.00882019
0.0088253
0.00883035
0.00883569
0.00884077
0.00884554
0.00885057
0.00885456
0.00858783
0.00862558
0.00864679
0.00865827
0.0086637
0.00866746
0.00866847
0.00867164
0.00867139
0.00867513
0.00867723
0.00868106
0.00868404
0.00868867
0.00869437
0.00869982
0.00870534
0.0087104
0.00871549
0.00872061
0.00872576
0.00873093
0.00873581
0.00874037
0.00874441
0.00874842
0.0087523
0.00875583
0.0087596
0.00876297
0.00876619
0.00877012
0.00877139
0.00877756
0.00877812
0.00878489
0.00878517
0.00879339
0.00879316
0.00880225
0.00880552
0.00881112
0.00881615
0.0088212
0.00882661
0.00883186
0.00883737
0.00884295
0.00884757
0.00885288
0.00885751
0.00849646
0.0085703
0.00861299
0.00863992
0.00865188
0.00866249
0.00866244
0.00867067
0.00866968
0.00867424
0.00867631
0.00867997
0.00868389
0.00868766
0.00869281
0.00869847
0.00870457
0.00871034
0.00871593
0.00872109
0.00872645
0.00873166
0.0087369
0.00874177
0.00874595
0.00875015
0.00875357
0.00875685
0.00875951
0.00876372
0.00876463
0.00877048
0.00877067
0.00877708
0.00877708
0.00878277
0.008788
0.00878963
0.00879797
0.00879783
0.0088074
0.00880792
0.00881662
0.00882225
0.00882783
0.0088338
0.00883944
0.00884582
0.00885087
0.00885637
0.00886147
0.00838881
0.00849938
0.00856913
0.00860537
0.00863745
0.00864052
0.00866191
0.00865793
0.00866955
0.0086696
0.00867469
0.00867832
0.00868278
0.00868778
0.00869307
0.00869865
0.00870452
0.0087105
0.00871646
0.00872206
0.00872753
0.00873256
0.00873774
0.00874243
0.00874671
0.00875082
0.00875416
0.00875726
0.00876045
0.008763
0.00876733
0.00876745
0.0087733
0.0087731
0.00878027
0.0087803
0.00878668
0.00879099
0.00879724
0.00880062
0.00880662
0.00881131
0.00881692
0.00882323
0.00882933
0.00883565
0.00884188
0.0088485
0.00885461
0.00886045
0.00886621
0.00828717
0.00843148
0.00851964
0.00857826
0.00860579
0.00863628
0.00863555
0.00865872
0.00865648
0.00866953
0.00866878
0.00867718
0.00868244
0.00868832
0.00869417
0.00869979
0.0087054
0.00871143
0.00871777
0.00872372
0.00872952
0.00873455
0.00873965
0.00874407
0.00874828
0.00875214
0.00875554
0.00875798
0.00876218
0.0087625
0.00876781
0.00876765
0.00877296
0.00877281
0.00877964
0.00877958
0.0087878
0.00878735
0.00879869
0.00879995
0.00880661
0.00881306
0.00881924
0.00882592
0.00883215
0.00883902
0.00884571
0.00885227
0.00885931
0.00886579
0.00887202
0.00828485
0.00841467
0.00850097
0.00854951
0.00859685
0.00860183
0.00863747
0.00863336
0.00865684
0.00865536
0.00866838
0.00867274
0.00867999
0.00868759
0.00869482
0.00870208
0.00870872
0.00871493
0.00872126
0.00872794
0.00873413
0.00873895
0.00874365
0.00874769
0.00875159
0.00875528
0.00875792
0.00876013
0.00876373
0.00876389
0.00876795
0.00876784
0.0087725
0.00877254
0.00877713
0.00878198
0.00878338
0.00879192
0.00879207
0.00880107
0.00881038
0.0088115
0.00882111
0.00882935
0.00883689
0.0088446
0.00885261
0.00886033
0.00886677
0.00887382
0.00888076
0.00836488
0.0084544
0.00851157
0.00854628
0.00857348
0.00859335
0.00860452
0.00862379
0.00862059
0.00864388
0.00864501
0.00865902
0.00866697
0.00867802
0.00868923
0.00869973
0.0087087
0.00871696
0.00872526
0.00873247
0.00874051
0.00874746
0.00875311
0.00875613
0.00875955
0.00876063
0.00876243
0.00876384
0.00876525
0.00876608
0.00876796
0.00876817
0.00877188
0.00877176
0.00877669
0.00877695
0.00878491
0.00878521
0.00879776
0.0087952
0.00880543
0.00881522
0.00881621
0.00882778
0.00883595
0.00884501
0.00885426
0.00886417
0.00887281
0.00888019
0.0088878
0.00843462
0.00843902
0.00844786
0.00845558
0.00846408
0.00846544
0.00846545
0.00846623
0.00848654
0.00849752
0.00851202
0.00853186
0.00855264
0.00858357
0.00861938
0.00865113
0.00867812
0.0086998
0.00871712
0.00872962
0.00873946
0.00874868
0.00875688
0.00876265
0.00876567
0.00876717
0.00876777
0.0087681
0.00876793
0.00876797
0.00876841
0.00876864
0.00876955
0.00877009
0.00877161
0.00877325
0.00877637
0.00878012
0.00878037
0.00878871
0.00879035
0.00879044
0.00880888
0.0088054
0.00882103
0.00883424
0.00884701
0.00886008
0.00887153
0.00888059
0.008891
0.00745346
0.00737948
0.00724907
0.00715611
0.00716449
0.0071659
0.00718924
0.00721482
0.0073089
0.00732197
0.00753
0.0075159
0.00776709
0.00791829
0.00811212
0.00830308
0.00846001
0.00856959
0.00864245
0.0086913
0.00872294
0.00874202
0.0087556
0.00876521
0.00877139
0.00877292
0.00877399
0.00877375
0.00877307
0.00877101
0.00876756
0.00876615
0.00876436
0.00875703
0.00875299
0.00875587
0.00875486
0.00873361
0.00874477
0.00870914
0.00869469
0.00870098
0.00869019
0.00871468
0.00872715
0.00876165
0.0087982
0.00883393
0.00885928
0.00887588
0.00889082
0.00543625
0.00533874
0.00525424
0.00519227
0.00515078
0.00511655
0.00511128
0.00512357
0.00514661
0.00523024
0.00526133
0.00550039
0.00550307
0.00586708
0.00622446
0.00676542
0.00751537
0.00805835
0.00838103
0.00856185
0.00866127
0.0087153
0.0087454
0.00876277
0.00877161
0.00877504
0.0087762
0.00877507
0.00877175
0.00877239
0.00876136
0.0087461
0.00873579
0.00874377
0.00873464
0.00866528
0.00856029
0.00844813
0.00834208
0.00822592
0.00815267
0.00812217
0.00818375
0.00812506
0.00830735
0.00847699
0.00862972
0.00873786
0.00880194
0.008841
0.00887588
0.00523134
0.00522293
0.00519088
0.0051269
0.00503881
0.00497242
0.0048953
0.00484323
0.00479719
0.00477478
0.00477556
0.00480971
0.00483407
0.00496258
0.00503458
0.00537222
0.00591583
0.00681938
0.0076039
0.00812865
0.0084355
0.00860501
0.00869583
0.00874325
0.00876518
0.00877228
0.00877389
0.00877189
0.00876769
0.00874456
0.00872441
0.00873369
0.00871675
0.00843781
0.00810901
0.0077402
0.00726829
0.00691372
0.00666406
0.00649119
0.00644106
0.00647565
0.00649789
0.00673509
0.00700808
0.00759162
0.00800495
0.00833663
0.00859528
0.00877123
0.0088699
0.00677726
0.00686869
0.00683756
0.00675012
0.00657011
0.00628691
0.00598374
0.00561785
0.00530905
0.00508409
0.00491737
0.00482442
0.00479062
0.00479713
0.00483775
0.00491818
0.00525131
0.00598329
0.00697074
0.0077518
0.00825517
0.00853398
0.00867334
0.0087372
0.00876176
0.00876823
0.00876478
0.00876073
0.00871563
0.00872933
0.00855027
0.00792116
0.00720207
0.00651261
0.00598101
0.00564875
0.00547313
0.00539111
0.0053363
0.0053207
0.0053284
0.00536477
0.00543585
0.0056146
0.00583464
0.00631365
0.00729118
0.00812037
0.00858258
0.00880423
0.0088887
0.00772134
0.00761784
0.00755672
0.00754636
0.00756539
0.00753831
0.00745538
0.00728643
0.00688902
0.00634732
0.00577922
0.0053156
0.0049924
0.00484068
0.004838
0.00493047
0.00523167
0.00608458
0.00709016
0.00785445
0.00832623
0.00857688
0.00869712
0.00874737
0.00876069
0.0087585
0.00874975
0.00864412
0.00817326
0.00705021
0.00616256
0.00553847
0.00521507
0.00508712
0.0050562
0.00506882
0.00508527
0.00508324
0.0050715
0.00504233
0.00500261
0.00500628
0.00502639
0.00510738
0.00537564
0.00617005
0.00737106
0.00826345
0.00873068
0.00885035
0.00879057
0.00724146
0.00698386
0.00694034
0.00710675
0.00738826
0.00761366
0.00770773
0.0076848
0.00755994
0.00723503
0.00642384
0.00551727
0.00502754
0.00485976
0.00487694
0.00499553
0.00555104
0.00657446
0.00755487
0.00821205
0.00855302
0.00870149
0.00874987
0.00875494
0.00872495
0.00844856
0.00733607
0.00607767
0.00536373
0.00501135
0.00490585
0.00490962
0.00500045
0.00512446
0.00520143
0.00524693
0.00524492
0.00522239
0.00515322
0.00508274
0.00500585
0.00488874
0.00488549
0.00499798
0.0054193
0.00646871
0.00795746
0.00862581
0.00871897
0.00840781
0.00681655
0.00639097
0.00612297
0.00607457
0.00617475
0.00663408
0.00730384
0.00755802
0.00756724
0.00731745
0.00676638
0.0057434
0.00516221
0.00496046
0.00493136
0.00508993
0.00561685
0.0067413
0.00782918
0.00841508
0.00865191
0.00872966
0.00872543
0.00852548
0.00768913
0.00638915
0.00544859
0.00494001
0.00480175
0.00480744
0.00492346
0.00525638
0.00560283
0.00591939
0.00621937
0.00633956
0.00631665
0.00617522
0.00599403
0.00570149
0.0053534
0.00499752
0.00483564
0.00486763
0.00513749
0.00592099
0.00769351
0.00839137
0.00842775
0.00765043
0.00593192
0.00507899
0.00621883
0.00594672
0.00586473
0.00584588
0.00597509
0.00623227
0.00631157
0.00621119
0.00567223
0.00538227
0.0051964
0.00514718
0.00516566
0.00554179
0.006463
0.00756115
0.00828552
0.00856208
0.00864891
0.00859101
0.00815448
0.00699482
0.00562656
0.00494797
0.00474494
0.00473216
0.00483339
0.00518259
0.00597372
0.00675089
0.00739881
0.00771557
0.00774427
0.00759337
0.00744393
0.00726905
0.007002
0.00655889
0.00594225
0.00528972
0.00494814
0.00484707
0.00513932
0.00588164
0.00748894
0.00805693
0.00795802
0.00658245
0.0053643
0.00502085
0.0049789
0.0065631
0.0060128
0.00593101
0.00567685
0.00567877
0.00554779
0.00552385
0.00549884
0.00548533
0.00549538
0.00564206
0.00606107
0.00701166
0.00767028
0.00820281
0.00841776
0.00845792
0.0082894
0.00760336
0.00611842
0.00525253
0.00481482
0.00466731
0.00473422
0.00504107
0.00575288
0.00689082
0.00785649
0.00831981
0.00833458
0.00810282
0.00769713
0.00761118
0.00753329
0.00748719
0.00731276
0.00697876
0.00652601
0.00554948
0.00512801
0.00500241
0.00530177
0.00617811
0.00741709
0.00768529
0.00739273
0.00597509
0.00509404
0.00493703
0.00502228
0.00538653
0.00764336
0.00734133
0.00688756
0.00669835
0.0065119
0.00642447
0.00641787
0.00657775
0.00692029
0.00725908
0.00773473
0.00807259
0.00810135
0.00816692
0.00809122
0.00769985
0.00674127
0.00554914
0.0050005
0.00475414
0.00470763
0.00483486
0.00523524
0.00612212
0.00726245
0.00821145
0.00845098
0.00842614
0.00801103
0.00739779
0.00689387
0.00674748
0.0068271
0.00709286
0.00718773
0.0070392
0.00652632
0.00556357
0.00537148
0.00524942
0.00540549
0.00637802
0.00725567
0.00725175
0.00697773
0.00567928
0.00490655
0.00484357
0.00492023
0.00519414
0.00567061
0.007966
0.00793396
0.00791414
0.00790115
0.00791269
0.00795184
0.00800916
0.00802103
0.00801077
0.00800081
0.00792794
0.0077269
0.00730642
0.00662741
0.00566606
0.00499641
0.00484987
0.00473165
0.00472955
0.00488299
0.00537145
0.00617763
0.00737445
0.00823881
0.00846986
0.00846223
0.0081872
0.00759181
0.00688192
0.00637768
0.00621412
0.00619303
0.00625665
0.006332
0.00635933
0.00618361
0.0056763
0.00561105
0.00545528
0.00588503
0.00680463
0.0068444
0.00711237
0.00621443
0.0050329
0.00489423
0.00472109
0.00477341
0.00489731
0.00518893
0.00539632
0.00770101
0.0077401
0.00773634
0.00772775
0.00768074
0.00759416
0.00744239
0.00719061
0.00686595
0.00641229
0.00590464
0.00533863
0.00495919
0.00479747
0.0046902
0.00469372
0.00471116
0.00491626
0.00533533
0.00599249
0.00696066
0.00799251
0.00845403
0.00853957
0.00849524
0.00822771
0.00771502
0.00706593
0.0064597
0.00619145
0.00610796
0.00609381
0.0060695
0.00605787
0.00599556
0.00586492
0.00578228
0.00582648
0.00654708
0.00672057
0.00698455
0.0068614
0.00510678
0.00509168
0.00467714
0.00466856
0.00463236
0.00469973
0.00480691
0.0048108
0.00481962
0.00628943
0.00623881
0.00614409
0.00601165
0.00583045
0.00561378
0.00535602
0.00510813
0.00486198
0.00465592
0.00461827
0.00457944
0.00460196
0.00460584
0.0046808
0.00486156
0.00517781
0.00567359
0.00631421
0.00719104
0.00810055
0.00847989
0.00856531
0.0085581
0.00842022
0.00810004
0.00760903
0.00703919
0.00658425
0.00621744
0.00623268
0.0061243
0.00614607
0.00611238
0.00610783
0.00615341
0.00634651
0.00655034
0.00664523
0.00657412
0.00571117
0.00468271
0.00497884
0.00462197
0.00455612
0.00455946
0.00455627
0.00457697
0.0045828
0.0045811
0.00457934
0.00491149
0.00484366
0.00479414
0.00472817
0.00465142
0.00458251
0.00452
0.00446166
0.00446544
0.00446285
0.00448561
0.00452757
0.00459339
0.00473924
0.00495426
0.00527096
0.00569508
0.00627549
0.00700785
0.00790378
0.00836863
0.00855112
0.00856293
0.00853391
0.00840704
0.00814184
0.00780307
0.00740716
0.00706308
0.00684161
0.00664306
0.00661216
0.00652297
0.00653313
0.00653827
0.00654855
0.00651417
0.00643803
0.00598129
0.00523195
0.00487968
0.0046395
0.00462149
0.00451517
0.00450061
0.00450218
0.00450288
0.00450511
0.00450329
0.00450007
0.00449686
0.00441503
0.00444056
0.00437995
0.00438642
0.00436701
0.00436611
0.0043687
0.00437974
0.00440125
0.00443264
0.00448272
0.00457276
0.00470226
0.00488296
0.00514009
0.0054844
0.00595578
0.00657026
0.00733393
0.00807389
0.00849563
0.0084794
0.00852084
0.00848034
0.00836743
0.00813496
0.00788635
0.0076407
0.00740705
0.007198
0.0070158
0.00688357
0.00675068
0.00665081
0.00654322
0.00640249
0.00587269
0.00542052
0.00504054
0.00464502
0.00464095
0.00450402
0.00451188
0.00447684
0.0044724
0.00447724
0.00447723
0.00447733
0.00447391
0.00447224
0.00447025
0.00430558
0.00429555
0.0043033
0.00430093
0.00430923
0.00431649
0.00433247
0.00435101
0.00438391
0.00443055
0.0044988
0.00459543
0.0047319
0.00492164
0.00518554
0.00554088
0.00601975
0.00662415
0.00734134
0.00797734
0.00833855
0.00837465
0.00839254
0.00837733
0.00824713
0.00806395
0.00782072
0.00759858
0.00737486
0.00716253
0.00696261
0.0067827
0.00658258
0.00633403
0.00583933
0.00515081
0.00515983
0.00469588
0.00469867
0.00451909
0.00451352
0.00447967
0.00445683
0.00445925
0.00446412
0.00446453
0.00446623
0.00446662
0.00446534
0.00446418
0.00446263
0.00426358
0.00427116
0.00427393
0.00428025
0.00428879
0.00430113
0.00431755
0.00434369
0.00437464
0.00442026
0.00448235
0.00456878
0.00468669
0.00485125
0.00507194
0.00537127
0.00576025
0.00624399
0.00681279
0.00740229
0.00775308
0.00801469
0.00797695
0.00800183
0.00792509
0.00771536
0.0074758
0.007251
0.00700231
0.00672448
0.00640529
0.00602786
0.00562212
0.00521228
0.00494855
0.00475492
0.00465275
0.00457016
0.00447729
0.0044771
0.00445226
0.00445312
0.0044509
0.00445822
0.00445737
0.00446044
0.00446084
0.00446068
0.00445969
0.00445912
0.00445736
0.00425877
0.00425728
0.00426777
0.00427256
0.00428356
0.00429376
0.00430786
0.0043307
0.00435433
0.00439555
0.00443711
0.00450605
0.00459004
0.00471276
0.00487103
0.00508177
0.00534687
0.00566563
0.00601791
0.00636846
0.0066275
0.00689632
0.00686922
0.00692025
0.00685421
0.00659261
0.0063476
0.00614169
0.00587606
0.00559117
0.00531738
0.00508988
0.00487582
0.00471983
0.00461902
0.00451418
0.00451726
0.00447807
0.00444565
0.00445235
0.00444536
0.00444841
0.00445007
0.00445236
0.00445542
0.00445579
0.00445739
0.00445798
0.00445845
0.00445863
0.00445812
0.00424985
0.00425613
0.00426146
0.00427085
0.00427487
0.00429674
0.00429663
0.00433281
0.0043326
0.00437485
0.00439738
0.00445279
0.00450622
0.00458985
0.00469159
0.0048249
0.00498667
0.00517225
0.00537255
0.00555637
0.00571477
0.00576465
0.00580909
0.00580121
0.0056905
0.00550438
0.00537291
0.00524028
0.00507252
0.00491936
0.00478554
0.00468231
0.00459088
0.00453325
0.00449968
0.00446463
0.00446494
0.00445178
0.00444268
0.00444415
0.00444356
0.00444786
0.00444831
0.00445192
0.00445377
0.00445595
0.00445778
0.0044588
0.00446086
0.00446108
0.00446207
0.00425041
0.00425552
0.00426185
0.00426857
0.00427728
0.00428629
0.00429963
0.00431102
0.00433178
0.00434871
0.00437767
0.00440554
0.00444859
0.00449605
0.00456061
0.00463725
0.00472862
0.00483034
0.0049355
0.00502845
0.00510829
0.00513137
0.00514308
0.005124
0.0050344
0.00494054
0.00488194
0.00479802
0.00471329
0.0046373
0.00457876
0.00453753
0.0044917
0.00448487
0.00446701
0.00445407
0.00445439
0.00444673
0.00444508
0.00444438
0.00444565
0.00444824
0.00445001
0.00445288
0.00445525
0.00445814
0.00446042
0.00446535
0.00446467
0.0044694
0.00446824
0.00424901
0.00425417
0.00426057
0.00426715
0.00427538
0.00428442
0.00429549
0.00430764
0.00432172
0.00433813
0.0043575
0.00438055
0.00440784
0.0044407
0.00447809
0.0045229
0.00457394
0.00462903
0.00468585
0.0047374
0.0047672
0.00478592
0.00478513
0.00477047
0.00471695
0.00468327
0.00464985
0.00460617
0.00456709
0.0045318
0.00451229
0.00449596
0.00448369
0.00447515
0.00446489
0.00445778
0.00445544
0.00444839
0.00444799
0.00444741
0.00444894
0.00445159
0.00445408
0.0044588
0.00446265
0.00446685
0.00447261
0.00447353
0.00448153
0.00448
0.00448656
0.00424779
0.00425346
0.00425956
0.00426643
0.00427458
0.00428301
0.00429345
0.00430361
0.00431712
0.00433063
0.00434702
0.00436515
0.00438619
0.00440893
0.00443489
0.00446258
0.00449384
0.0045251
0.00455734
0.00458259
0.00459946
0.00460986
0.00461013
0.00460066
0.00457941
0.00456881
0.00455229
0.00453674
0.00452156
0.0045103
0.00450455
0.00449501
0.00448636
0.00447846
0.00446703
0.00446737
0.00445943
0.00445496
0.00445678
0.00445464
0.00445659
0.00445914
0.00446312
0.00446745
0.00447222
0.0044777
0.00448236
0.0044883
0.00449216
0.00449667
0.00450053
0.00424751
0.00425293
0.00425906
0.00426563
0.00427328
0.00428228
0.00429165
0.00430221
0.0043139
0.0043268
0.00434093
0.00435605
0.00437413
0.00439098
0.0044115
0.00443079
0.00445196
0.00447189
0.00449122
0.0045082
0.00452628
0.00452531
0.00453135
0.00453118
0.00452952
0.00452879
0.00452474
0.00452221
0.00451518
0.00451072
0.00450613
0.00450004
0.00449527
0.00448577
0.00448074
0.00447034
0.00447432
0.00446812
0.00446243
0.00446389
0.00446604
0.00447082
0.00447635
0.00448384
0.00449145
0.00450015
0.00450903
0.00451735
0.00452651
0.0045333
0.0045419
0.00424716
0.0042521
0.0042584
0.00426453
0.00427199
0.00428088
0.0042901
0.00429967
0.00431035
0.00432316
0.00434182
0.00434495
0.00437347
0.00437796
0.00440214
0.00441507
0.00443488
0.00444892
0.00446547
0.00447868
0.00449058
0.00449979
0.00450764
0.00451288
0.00451656
0.00452039
0.00452054
0.00452063
0.0045182
0.00451735
0.00451585
0.00451279
0.00450702
0.00450147
0.00449673
0.00449312
0.00448118
0.00448618
0.00448236
0.00448337
0.00448789
0.0044932
0.0045009
0.00451018
0.00451958
0.00453099
0.00454061
0.00455202
0.00456198
0.00457293
0.00458412
0.00424581
0.00425121
0.00425714
0.00426353
0.00427092
0.00427912
0.00428872
0.00429822
0.00430967
0.00432097
0.00433367
0.00434857
0.00436248
0.00437726
0.00439416
0.00440885
0.00442595
0.00444105
0.00445764
0.00446997
0.00447953
0.00449433
0.00449971
0.00450822
0.00451481
0.00452029
0.00452329
0.00452689
0.00452903
0.00453106
0.00452991
0.00452762
0.00452293
0.00451756
0.00451104
0.00450111
0.0045036
0.00449357
0.00449666
0.00449193
0.00449269
0.00449596
0.00450024
0.00450637
0.00451276
0.00452113
0.00452729
0.00453467
0.00454181
0.00455146
0.00455978
0.00883375
0.00883273
0.00883002
0.00882781
0.00882553
0.00882309
0.00882076
0.00881822
0.00881573
0.00881323
0.00881091
0.00880881
0.00880686
0.00880501
0.00880369
0.00880238
0.00880173
0.0088009
0.00880054
0.00880036
0.00880019
0.00880049
0.0088006
0.00880103
0.00880138
0.00880189
0.00883298
0.00883317
0.00882892
0.00882895
0.00882581
0.00882346
0.00882124
0.00881897
0.00881657
0.00881413
0.00881182
0.00880971
0.00880758
0.00880579
0.00880404
0.00880269
0.00880154
0.0088007
0.00879983
0.00879948
0.00879894
0.008799
0.00879885
0.00879908
0.0087992
0.00879927
0.00883266
0.00883295
0.008829
0.00882948
0.00882649
0.00882435
0.00882221
0.0088201
0.00881781
0.00881553
0.00881313
0.008811
0.00880889
0.00880698
0.00880518
0.00880355
0.0088022
0.00880106
0.00880002
0.00879946
0.00879841
0.00879828
0.00879782
0.00879777
0.00879759
0.0087976
0.00883284
0.00883276
0.00882974
0.00883017
0.00882728
0.00882557
0.00882362
0.00882157
0.00881944
0.0088172
0.008815
0.00881279
0.00881064