/*--------------------------------*- C++ -*----------------------------------*\
  =========                 |
  \\      /  F ield         | OpenFOAM: The Open Source CFD Toolbox
   \\    /   O peration     | Website:  https://openfoam.org
    \\  /    A nd           | Version:  10
     \\/     M anipulation  |
\*---------------------------------------------------------------------------*/
FoamFile
{
    format      ascii;
    class       volVectorField;
    location    "0.651548";
    object      U;
}
// * * * * * * * * * * * * * * * * * * * * * * * * * * * * * * * * * * * * * //

dimensions      [0 1 -1 0 0 0 0];

internalField   nonuniform List<vector> 
15708
(
(0.509842 -0.125401 0)
(0.499831 -0.119695 0)
(0.490078 -0.113814 0)
(0.480631 -0.107806 0)
(0.47149 -0.101715 0)
(0.462684 -0.0955668 0)
(0.454226 -0.0893968 0)
(0.446106 -0.0832123 0)
(0.438341 -0.0770461 0)
(0.430926 -0.0709148 0)
(0.423861 -0.064831 0)
(0.417142 -0.0588102 0)
(0.410765 -0.0528614 0)
(0.404727 -0.0469926 0)
(0.399022 -0.0412094 0)
(0.393646 -0.035516 0)
(0.388593 -0.0299159 0)
(0.38386 -0.0244117 0)
(0.379441 -0.0190059 0)
(0.375333 -0.0137012 0)
(0.371533 -0.0084998 0)
(0.368034 -0.00340695 0)
(0.364846 0.00158216 0)
(0.361956 0.00645504 0)
(0.359365 0.0112113 0)
(0.35708 0.0158487 0)
(0.355102 0.0203625 0)
(0.353436 0.0247471 0)
(0.352086 0.0289968 0)
(0.351056 0.0331051 0)
(0.350355 0.037065 0)
(0.349989 0.0408681 0)
(0.349965 0.0445074 0)
(0.35029 0.0479729 0)
(0.350976 0.0512542 0)
(0.35203 0.0543406 0)
(0.353457 0.0572204 0)
(0.355266 0.059881 0)
(0.357461 0.0623085 0)
(0.360045 0.0644885 0)
(0.363019 0.0664061 0)
(0.36638 0.0680456 0)
(0.370124 0.0693916 0)
(0.374242 0.070429 0)
(0.37872 0.0711431 0)
(0.383541 0.071521 0)
(0.388673 0.0715601 0)
(0.394101 0.0712427 0)
(0.399804 0.0705637 0)
(0.405738 0.0695209 0)
(0.411869 0.0681222 0)
(0.515254 -0.11393 0)
(0.505414 -0.108612 0)
(0.495802 -0.103123 0)
(0.486453 -0.0975128 0)
(0.477384 -0.091831 0)
(0.468611 -0.0860878 0)
(0.460165 -0.0803243 0)
(0.452052 -0.0745539 0)
(0.444262 -0.0687828 0)
(0.436812 -0.0630397 0)
(0.4297 -0.0573363 0)
(0.422921 -0.0516849 0)
(0.416477 -0.0460956 0)
(0.410365 -0.0405765 0)
(0.404579 -0.0351333 0)
(0.399118 -0.0297707 0)
(0.393977 -0.0244923 0)
(0.389152 -0.0193009 0)
(0.384639 -0.0141996 0)
(0.380435 -0.00919079 0)
(0.376534 -0.00427938 0)
(0.37294 0.000535952 0)
(0.369649 0.00525239 0)
(0.366653 0.00986079 0)
(0.363957 0.0143615 0)
(0.361563 0.0187512 0)
(0.359473 0.0230248 0)
(0.357689 0.0271771 0)
(0.356215 0.0312023 0)
(0.355055 0.0350939 0)
(0.354216 0.0388445 0)
(0.353703 0.0424459 0)
(0.353523 0.0458894 0)
(0.353681 0.0491664 0)
(0.354187 0.0522655 0)
(0.355048 0.0551753 0)
(0.356269 0.0578841 0)
(0.357856 0.0603786 0)
(0.359813 0.062645 0)
(0.362144 0.0646689 0)
(0.364848 0.0664352 0)
(0.367924 0.0679289 0)
(0.371367 0.0691351 0)
(0.375169 0.0700394 0)
(0.379319 0.0706285 0)
(0.383802 0.0708909 0)
(0.388595 0.0708171 0)
(0.393673 0.0704126 0)
(0.399018 0.0696548 0)
(0.404602 0.0685536 0)
(0.410392 0.06711 0)
(0.520313 -0.102493 0)
(0.510634 -0.0975267 0)
(0.501149 -0.0924133 0)
(0.491893 -0.0871958 0)
(0.482883 -0.0819064 0)
(0.474153 -0.0765694 0)
(0.465716 -0.0711996 0)
(0.457599 -0.0658278 0)
(0.449803 -0.0604572 0)
(0.442322 -0.0551006 0)
(0.435168 -0.0497774 0)
(0.428339 -0.044497 0)
(0.421836 -0.0392696 0)
(0.415657 -0.034103 0)
(0.4098 -0.0290034 0)
(0.404262 -0.0239751 0)
(0.39904 -0.019022 0)
(0.394131 -0.014147 0)
(0.389531 -0.00935302 0)
(0.385236 -0.00464522 0)
(0.381246 -2.34798e-05 0)
(0.377563 0.0045144 0)
(0.374171 0.00895334 0)
(0.371078 0.0132967 0)
(0.368283 0.0175418 0)
(0.365787 0.0216843 0)
(0.36359 0.0257194 0)
(0.361694 0.0296418 0)
(0.360102 0.0334458 0)
(0.358818 0.0371247 0)
(0.357846 0.0406712 0)
(0.357191 0.044077 0)
(0.356859 0.0473321 0)
(0.356855 0.0504285 0)
(0.357186 0.0533542 0)
(0.357858 0.0560973 0)
(0.358876 0.0586452 0)
(0.360246 0.0609845 0)
(0.361971 0.063101 0)
(0.364053 0.0649799 0)
(0.366494 0.0666062 0)
(0.369291 0.0679648 0)
(0.37244 0.0690411 0)
(0.375936 0.0698211 0)
(0.379768 0.0702924 0)
(0.383924 0.0704441 0)
(0.388387 0.0702679 0)
(0.393131 0.069763 0)
(0.398139 0.0689288 0)
(0.40339 0.0677572 0)
(0.408856 0.066263 0)
(0.525067 -0.0910874 0)
(0.515513 -0.0864398 0)
(0.506133 -0.0816831 0)
(0.496959 -0.0768432 0)
(0.488006 -0.0719375 0)
(0.479307 -0.0669889 0)
(0.470888 -0.0620199 0)
(0.462767 -0.0570342 0)
(0.454954 -0.0520591 0)
(0.447454 -0.0470931 0)
(0.440265 -0.0421502 0)
(0.433393 -0.0372431 0)
(0.426839 -0.0323805 0)
(0.420602 -0.0275702 0)
(0.414681 -0.022818 0)
(0.409075 -0.0181284 0)
(0.403781 -0.0135047 0)
(0.398796 -0.00895018 0)
(0.394116 -0.00447101 0)
(0.389742 -6.50061e-05 0)
(0.385675 0.00427099 0)
(0.381898 0.00851828 0)
(0.378418 0.0126819 0)
(0.375236 0.0167601 0)
(0.372348 0.0207492 0)
(0.369756 0.0246449 0)
(0.367458 0.0284428 0)
(0.365456 0.0321378 0)
(0.363753 0.035724 0)
(0.36235 0.0391949 0)
(0.361251 0.0425426 0)
(0.36046 0.0457586 0)
(0.359981 0.0488331 0)
(0.35982 0.0517559 0)
(0.35998 0.0545165 0)
(0.360468 0.0571018 0)
(0.361288 0.0594982 0)
(0.362445 0.061692 0)
(0.363942 0.0636683 0)
(0.36578 0.0654119 0)
(0.367961 0.0669074 0)
(0.370484 0.0681396 0)
(0.373346 0.0690938 0)
(0.376541 0.0697561 0)
(0.380062 0.0701144 0)
(0.383899 0.0701583 0)
(0.388037 0.0698803 0)
(0.392462 0.0692759 0)
(0.397146 0.0683514 0)
(0.402076 0.0671053 0)
(0.407234 0.0655408 0)
(0.529552 -0.0796966 0)
(0.520081 -0.0753411 0)
(0.510774 -0.070924 0)
(0.501666 -0.0664427 0)
(0.492759 -0.0619169 0)
(0.484084 -0.0573561 0)
(0.475674 -0.0527746 0)
(0.467551 -0.0481866 0)
(0.459725 -0.0436022 0)
(0.452203 -0.0390246 0)
(0.444987 -0.0344651 0)
(0.438079 -0.0299329 0)
(0.431481 -0.0254375 0)
(0.425194 -0.0209861 0)
(0.419218 -0.0165842 0)
(0.413553 -0.0122358 0)
(0.408195 -0.00794513 0)
(0.403141 -0.0037198 0)
(0.398394 0.000448743 0)
(0.393953 0.00455684 0)
(0.389804 0.00858826 0)
(0.38595 0.0125488 0)
(0.382393 0.0164371 0)
(0.379129 0.0202495 0)
(0.376157 0.0239825 0)
(0.373475 0.0276323 0)
(0.371084 0.0311946 0)
(0.368984 0.0346644 0)
(0.367175 0.038036 0)
(0.36566 0.0413025 0)
(0.36444 0.0444562 0)
(0.363518 0.0474881 0)
(0.362899 0.0503883 0)
(0.362585 0.0531452 0)
(0.36258 0.0557485 0)
(0.362888 0.0581842 0)
(0.363514 0.060438 0)
(0.364461 0.0624951 0)
(0.365733 0.06434 0)
(0.36733 0.0659568 0)
(0.369255 0.0673295 0)
(0.371507 0.0684425 0)
(0.374084 0.0692806 0)
(0.376982 0.0698299 0)
(0.380196 0.0700779 0)
(0.383718 0.0700145 0)
(0.387537 0.0696325 0)
(0.391642 0.068928 0)
(0.396016 0.0679013 0)
(0.400637 0.0665645 0)
(0.405491 0.0649191 0)
(0.53377 -0.0682763 0)
(0.524353 -0.0642068 0)
(0.515088 -0.0601101 0)
(0.506022 -0.055986 0)
(0.497143 -0.0518342 0)
(0.488491 -0.0476592 0)
(0.480086 -0.0434672 0)
(0.471953 -0.03927 0)
(0.464116 -0.0350804 0)
(0.456578 -0.0308895 0)
(0.449337 -0.0267152 0)
(0.442398 -0.0225613 0)
(0.435763 -0.0184366 0)
(0.429434 -0.0143481 0)
(0.423411 -0.0103007 0)
(0.417694 -0.00630079 0)
(0.412277 -0.00235457 0)
(0.407172 0.00155687 0)
(0.402366 0.00541243 0)
(0.397854 0.00920405 0)
(0.393639 0.0129366 0)
(0.389719 0.0166094 0)
(0.386092 0.0202196 0)
(0.382755 0.0237642 0)
(0.379706 0.0272402 0)
(0.376945 0.0306443 0)
(0.374469 0.0339724 0)
(0.372278 0.0372196 0)
(0.370372 0.0403798 0)
(0.368752 0.0434464 0)
(0.367419 0.046411 0)
(0.366375 0.0492644 0)
(0.365621 0.0519963 0)
(0.365161 0.0545948 0)
(0.364996 0.0570476 0)
(0.36513 0.0593415 0)
(0.365565 0.0614606 0)
(0.366307 0.0633891 0)
(0.367355 0.0651105 0)
(0.368714 0.0666081 0)
(0.370384 0.067865 0)
(0.372366 0.0688647 0)
(0.374658 0.0695914 0)
(0.37726 0.0700304 0)
(0.380167 0.0701692 0)
(0.383375 0.0699974 0)
(0.386876 0.0695077 0)
(0.390663 0.0686964 0)
(0.394722 0.0675641 0)
(0.399044 0.066116 0)
(0.403605 0.0643694 0)
(0.537742 -0.0568111 0)
(0.528338 -0.0530332 0)
(0.519081 -0.0492491 0)
(0.510025 -0.0454767 0)
(0.501163 -0.0416922 0)
(0.492517 -0.0379 0)
(0.484113 -0.0341036 0)
(0.475968 -0.0303017 0)
(0.468117 -0.0265002 0)
(0.460566 -0.0227033 0)
(0.453302 -0.0189146 0)
(0.446339 -0.0151399 0)
(0.439675 -0.0113877 0)
(0.433312 -0.00766666 0)
(0.427248 -0.00398443 0)
(0.421491 -0.000330063 0)
(0.416042 0.00329877 0)
(0.410885 0.00687326 0)
(0.406024 0.0103991 0)
(0.40146 0.0138787 0)
(0.397191 0.0173113 0)
(0.393213 0.0206947 0)
(0.389525 0.0240265 0)
(0.386123 0.0273039 0)
(0.383005 0.0305239 0)
(0.380171 0.0336834 0)
(0.377618 0.0367785 0)
(0.375345 0.0398045 0)
(0.373351 0.0427557 0)
(0.371635 0.0456253 0)
(0.370198 0.0484048 0)
(0.369039 0.0510847 0)
(0.368159 0.0536542 0)
(0.36756 0.0561009 0)
(0.367242 0.0584109 0)
(0.367207 0.0605704 0)
(0.367457 0.0625628 0)
(0.367995 0.0643707 0)
(0.368823 0.0659763 0)
(0.369944 0.0673618 0)
(0.371359 0.0685091 0)
(0.373069 0.0694006 0)
(0.375075 0.0700196 0)
(0.377378 0.0703506 0)
(0.379976 0.0703799 0)
(0.382867 0.0700971 0)
(0.386048 0.0694944 0)
(0.389513 0.0685679 0)
(0.393257 0.0673184 0)
(0.397271 0.0657517 0)
(0.401545 0.0638779 0)
(0.541452 -0.0452817 0)
(0.532012 -0.0417706 0)
(0.522744 -0.0383144 0)
(0.513675 -0.0348887 0)
(0.504809 -0.0314716 0)
(0.496157 -0.028063 0)
(0.487746 -0.0246624 0)
(0.479599 -0.0212604 0)
(0.471739 -0.0178524 0)
(0.464175 -0.0144506 0)
(0.456903 -0.0110506 0)
(0.449924 -0.00766382 0)
(0.443235 -0.00429932 0)
(0.436846 -0.000948855 0)
(0.430762 0.00239395 0)
(0.424973 0.00570512 0)
(0.419477 0.00897497 0)
(0.414276 0.0122098 0)
(0.409372 0.0154113 0)
(0.404763 0.018579 0)
(0.400445 0.0217106 0)
(0.396417 0.0248037 0)
(0.392676 0.0278558 0)
(0.38922 0.0308647 0)
(0.386045 0.0338281 0)
(0.383151 0.0367432 0)
(0.380533 0.0396066 0)
(0.37819 0.0424136 0)
(0.37612 0.0451587 0)
(0.37432 0.0478349 0)
(0.372789 0.0504338 0)
(0.371526 0.0529456 0)
(0.370529 0.0553587 0)
(0.369798 0.0576604 0)
(0.369333 0.0598357 0)
(0.369135 0.0618684 0)
(0.369203 0.0637421 0)
(0.369541 0.0654374 0)
(0.37015 0.066935 0)
(0.371033 0.0682154 0)
(0.372191 0.0692593 0)
(0.373628 0.0700475 0)
(0.375344 0.0705618 0)
(0.377344 0.0707857 0)
(0.379627 0.0707046 0)
(0.382195 0.0703071 0)
(0.385049 0.0695846 0)
(0.388188 0.0685332 0)
(0.39161 0.0671533 0)
(0.395312 0.0654515 0)
(0.399289 0.0634375 0)
(0.544885 -0.033654 0)
(0.53539 -0.030431 0)
(0.526056 -0.0273033 0)
(0.516963 -0.0242299 0)
(0.508081 -0.0211922 0)
(0.499411 -0.0181768 0)
(0.490986 -0.0151689 0)
(0.482831 -0.0121701 0)
(0.474962 -0.00917058 0)
(0.46739 -0.00617176 0)
(0.460107 -0.00317748 0)
(0.453121 -0.000172578 0)
(0.44643 0.0028453 0)
(0.440029 0.00584027 0)
(0.433919 0.00880754 0)
(0.4281 0.011752 0)
(0.422575 0.0146759 0)
(0.417345 0.0175785 0)
(0.412407 0.0204581 0)
(0.407761 0.0233127 0)
(0.403405 0.0261404 0)
(0.399336 0.0289396 0)
(0.395553 0.0317089 0)
(0.392053 0.0344471 0)
(0.388833 0.0371525 0)
(0.38589 0.0398226 0)
(0.38322 0.0424543 0)
(0.380819 0.0450434 0)
(0.378685 0.0475844 0)
(0.376813 0.0500706 0)
(0.3752 0.0524934 0)
(0.373843 0.0548425 0)
(0.372739 0.0571059 0)
(0.371886 0.0592696 0)
(0.371282 0.0613179 0)
(0.370926 0.0632326 0)
(0.370819 0.0649954 0)
(0.37096 0.0665864 0)
(0.371352 0.067984 0)
(0.371997 0.0691667 0)
(0.372897 0.0701134 0)
(0.374056 0.0708032 0)
(0.375478 0.0712161 0)
(0.377167 0.071334 0)
(0.379128 0.0711411 0)
(0.381366 0.0706244 0)
(0.383884 0.0697747 0)
(0.386687 0.0685877 0)
(0.389778 0.0670637 0)
(0.39316 0.0652075 0)
(0.396832 0.0630325 0)
(0.548044 -0.0218782 0)
(0.538437 -0.0189728 0)
(0.529037 -0.0161789 0)
(0.51988 -0.0134663 0)
(0.510951 -0.0108199 0)
(0.50226 -0.00821463 0)
(0.493819 -0.00562665 0)
(0.485653 -0.00304793 0)
(0.47779 -0.00045319 0)
(0.470226 0.00216793 0)
(0.462946 0.00479992 0)
(0.455957 0.00742007 0)
(0.449248 0.0100312 0)
(0.442822 0.0126356 0)
(0.436697 0.0152338 0)
(0.430865 0.0178243 0)
(0.425324 0.0204051 0)
(0.420075 0.0229735 0)
(0.415115 0.0255281 0)
(0.410444 0.028067 0)
(0.406061 0.0305888 0)
(0.401965 0.0330928 0)
(0.398152 0.0355786 0)
(0.394621 0.0380451 0)
(0.391368 0.0404916 0)
(0.388389 0.0429163 0)
(0.38568 0.0453168 0)
(0.383235 0.0476894 0)
(0.38105 0.0500288 0)
(0.379119 0.0523284 0)
(0.377438 0.0545794 0)
(0.376 0.0567713 0)
(0.3748 0.0588913 0)
(0.373836 0.0609243 0)
(0.373102 0.0628532 0)
(0.372597 0.0646589 0)
(0.37232 0.0663201 0)
(0.372269 0.0678154 0)
(0.372445 0.0691218 0)
(0.372852 0.0702151 0)
(0.373491 0.0710716 0)
(0.374369 0.0716684 0)
(0.37549 0.0719835 0)
(0.376861 0.0719966 0)
(0.378491 0.0716901 0)
(0.380386 0.0710497 0)
(0.382557 0.0700648 0)
(0.385012 0.0687303 0)
(0.38776 0.0670462 0)
(0.390809 0.065017 0)
(0.394167 0.0626574 0)
(0.550869 -0.00997459 0)
(0.541123 -0.00740475 0)
(0.531621 -0.00499488 0)
(0.522389 -0.0026739 0)
(0.51341 -0.000420471 0)
(0.504695 0.0017943 0)
(0.496247 0.00399049 0)
(0.488079 0.0061837 0)
(0.480215 0.00837654 0)
(0.472646 0.0105701 0)
(0.465358 0.0127696 0)
(0.458363 0.0149848 0)
(0.451658 0.0172053 0)
(0.445244 0.019441 0)
(0.439121 0.0216808 0)
(0.433286 0.0239209 0)
(0.427738 0.0261585 0)
(0.422477 0.0283916 0)
(0.417505 0.0306185 0)
(0.412819 0.0328384 0)
(0.408421 0.0350513 0)
(0.404309 0.0372575 0)
(0.400479 0.0394574 0)
(0.396929 0.0416509 0)
(0.393656 0.0438377 0)
(0.390654 0.046017 0)
(0.387919 0.0481868 0)
(0.385444 0.0503441 0)
(0.383222 0.0524841 0)
(0.381246 0.0546004 0)
(0.37951 0.0566842 0)
(0.378004 0.0587245 0)
(0.376723 0.0607078 0)
(0.375659 0.0626178 0)
(0.374807 0.064436 0)
(0.374163 0.0661417 0)
(0.373722 0.0677119 0)
(0.373483 0.0691218 0)
(0.373447 0.0703465 0)
(0.373615 0.0713596 0)
(0.373991 0.0721342 0)
(0.374582 0.0726447 0)
(0.375395 0.0728664 0)
(0.376438 0.0727767 0)
(0.377724 0.0723556 0)
(0.379265 0.0715869 0)
(0.381074 0.0704587 0)
(0.383167 0.0689647 0)
(0.385556 0.0671027 0)
(0.388259 0.0648806 0)
(0.391288 0.0623102 0)
(0.553314 0.0021135 0)
(0.543415 0.00435503 0)
(0.533805 0.00641497 0)
(0.524489 0.00834216 0)
(0.515447 0.0101708 0)
(0.506684 0.0119355 0)
(0.498212 0.0136684 0)
(0.490048 0.0154052 0)
(0.482194 0.0171665 0)
(0.474635 0.0189349 0)
(0.46737 0.0207417 0)
(0.460399 0.0225608 0)
(0.453713 0.0244127 0)
(0.44731 0.0262778 0)
(0.441193 0.0281544 0)
(0.435359 0.0300393 0)
(0.42981 0.0319297 0)
(0.424545 0.033824 0)
(0.419567 0.0357213 0)
(0.414876 0.0376215 0)
(0.410471 0.0395252 0)
(0.406351 0.0414331 0)
(0.402514 0.043346 0)
(0.398958 0.0452647 0)
(0.395678 0.04719 0)
(0.39267 0.0491221 0)
(0.389925 0.0510602 0)
(0.387437 0.0530021 0)
(0.385197 0.0549436 0)
(0.383195 0.0568787 0)
(0.381422 0.0587989 0)
(0.379866 0.0606928 0)
(0.378519 0.0625462 0)
(0.37737 0.0643417 0)
(0.376412 0.0660592 0)
(0.375637 0.0676757 0)
(0.375041 0.0691658 0)
(0.37462 0.0705023 0)
(0.374374 0.0716567 0)
(0.374304 0.0726001 0)
(0.374414 0.0733025 0)
(0.374712 0.073735 0)
(0.375208 0.0738694 0)
(0.375912 0.07368 0)
(0.376842 0.0731443 0)
(0.378012 0.0722436 0)
(0.379443 0.0709644 0)
(0.381153 0.0692979 0)
(0.383166 0.067242 0)
(0.385503 0.064804 0)
(0.388185 0.0619953 0)
(0.555204 0.0144502 0)
(0.545158 0.0162656 0)
(0.535443 0.0178652 0)
(0.526056 0.0193251 0)
(0.516971 0.020687 0)
(0.508196 0.0219976 0)
(0.499737 0.0232974 0)
(0.4916 0.0246152 0)
(0.483765 0.0259512 0)
(0.476237 0.0273202 0)
(0.468996 0.0287253 0)
(0.462045 0.0301603 0)
(0.455384 0.0316266 0)
(0.448994 0.0331185 0)
(0.44289 0.0346319 0)
(0.437068 0.0361624 0)
(0.431528 0.037707 0)
(0.426271 0.0392641 0)
(0.421299 0.0408326 0)
(0.416612 0.0424126 0)
(0.412212 0.0440051 0)
(0.408097 0.0456117 0)
(0.404267 0.0472342 0)
(0.400719 0.048875 0)
(0.397447 0.0505361 0)
(0.394447 0.0522191 0)
(0.391709 0.0539241 0)
(0.389226 0.0556502 0)
(0.386985 0.0573943 0)
(0.384974 0.059151 0)
(0.383182 0.0609118 0)
(0.381594 0.0626653 0)
(0.380197 0.0643963 0)
(0.378979 0.0660865 0)
(0.377929 0.0677139 0)
(0.377036 0.0692529 0)
(0.376294 0.0706756 0)
(0.375697 0.0719522 0)
(0.375243 0.0730508 0)
(0.374934 0.073938 0)
(0.374775 0.0745803 0)
(0.374774 0.0749447 0)
(0.374942 0.0749994 0)
(0.375295 0.0747152 0)
(0.375851 0.0740661 0)
(0.376633 0.0730311 0)
(0.377665 0.0715932 0)
(0.378972 0.0697415 0)
(0.380586 0.0674752 0)
(0.382534 0.0647974 0)
(0.384847 0.0617214 0)
(0.556363 0.0268092 0)
(0.546227 0.028207 0)
(0.536457 0.0293631 0)
(0.527034 0.0303583 0)
(0.517938 0.0312596 0)
(0.509183 0.0321224 0)
(0.500763 0.0329753 0)
(0.492662 0.033854 0)
(0.484871 0.0347598 0)
(0.477384 0.0357131 0)
(0.470184 0.036704 0)
(0.463273 0.0377507 0)
(0.456645 0.0388304 0)
(0.450293 0.0399514 0)
(0.444218 0.0411037 0)
(0.43842 0.0422825 0)
(0.432899 0.0434837 0)
(0.427659 0.0447048 0)
(0.422701 0.0459449 0)
(0.418029 0.0472045 0)
(0.413643 0.0484846 0)
(0.409545 0.049788 0)
(0.405733 0.0511178 0)
(0.402206 0.0524779 0)
(0.398957 0.0538717 0)
(0.395982 0.0553021 0)
(0.393269 0.0567713 0)
(0.390808 0.0582798 0)
(0.388586 0.0598259 0)
(0.386587 0.0614053 0)
(0.384796 0.0630099 0)
(0.383196 0.0646284 0)
(0.381769 0.0662449 0)
(0.3805 0.0678397 0)
(0.379373 0.0693888 0)
(0.378375 0.0708644 0)
(0.377497 0.0722356 0)
(0.37673 0.0734687 0)
(0.376073 0.0745271 0)
(0.375525 0.0753736 0)
(0.375092 0.0759703 0)
(0.374783 0.0762795 0)
(0.374612 0.0762652 0)
(0.374597 0.0758938 0)
(0.374762 0.0751352 0)
(0.375133 0.0739652 0)
(0.37574 0.0723622 0)
(0.376619 0.0703148 0)
(0.377805 0.0678194 0)
(0.379336 0.0648775 0)
(0.381253 0.0615046 0)
(0.556311 0.039231 0)
(0.546237 0.0401811 0)
(0.536526 0.040863 0)
(0.527172 0.0413812 0)
(0.518168 0.0418145 0)
(0.509501 0.0422139 0)
(0.501169 0.0426157 0)
(0.49316 0.043043 0)
(0.48545 0.0435227 0)
(0.478041 0.0440474 0)
(0.470919 0.0446489 0)
(0.464078 0.0452938 0)
(0.45751 0.0460077 0)
(0.45121 0.0467636 0)
(0.445179 0.0475602 0)
(0.439416 0.0483912 0)
(0.433925 0.0492516 0)
(0.42871 0.0501384 0)
(0.423776 0.0510509 0)
(0.419126 0.0519901 0)
(0.414765 0.052957 0)
(0.410693 0.0539549 0)
(0.406911 0.0549884 0)
(0.403416 0.0560631 0)
(0.400205 0.0571846 0)
(0.39727 0.058358 0)
(0.3946 0.0595876 0)
(0.392181 0.0608758 0)
(0.389999 0.0622228 0)
(0.388035 0.0636256 0)
(0.386268 0.0650771 0)
(0.384678 0.0665663 0)
(0.383243 0.0680766 0)
(0.381943 0.0695872 0)
(0.380757 0.0710716 0)
(0.37967 0.0725 0)
(0.378667 0.0738371 0)
(0.37774 0.075045 0)
(0.376882 0.0760827 0)
(0.376095 0.0769082 0)
(0.375383 0.0774779 0)
(0.374756 0.0777489 0)
(0.374231 0.0776797 0)
(0.373829 0.0772318 0)
(0.37358 0.0763714 0)
(0.373513 0.0750665 0)
(0.373666 0.0732952 0)
(0.374084 0.071043 0)
(0.374809 0.0683 0)
(0.375888 0.0650705 0)
(0.377374 0.0613696 0)
(0.554198 0.0514253 0)
(0.544522 0.0519564 0)
(0.535157 0.0521978 0)
(0.526105 0.052266 0)
(0.51736 0.0522423 0)
(0.508926 0.0521807 0)
(0.500799 0.0521356 0)
(0.492973 0.0521169 0)
(0.485426 0.0521713 0)
(0.478171 0.0522959 0)
(0.471175 0.0524974 0)
(0.464441 0.0527747 0)
(0.457972 0.0531188 0)
(0.451741 0.0535216 0)
(0.445771 0.0539744 0)
(0.440057 0.0544683 0)
(0.434606 0.0549974 0)
(0.429424 0.0555574 0)
(0.42452 0.0561463 0)
(0.4199 0.0567646 0)
(0.415569 0.0574165 0)
(0.411531 0.0581063 0)
(0.40779 0.0588401 0)
(0.404342 0.0596248 0)
(0.401184 0.0604684 0)
(0.398307 0.0613785 0)
(0.395699 0.062362 0)
(0.393345 0.0634245 0)
(0.391227 0.0645687 0)
(0.389321 0.0657937 0)
(0.387603 0.0670941 0)
(0.386049 0.0684591 0)
(0.38463 0.0698719 0)
(0.383321 0.0713108 0)
(0.382098 0.0727458 0)
(0.380939 0.0741458 0)
(0.379825 0.0754689 0)
(0.378745 0.0766746 0)
(0.377692 0.0777151 0)
(0.376664 0.0785436 0)
(0.375666 0.0791094 0)
(0.37471 0.0793633 0)
(0.373813 0.0792578 0)
(0.373004 0.0787494 0)
(0.372311 0.0777961 0)
(0.371774 0.0763625 0)
(0.371439 0.0744227 0)
(0.371356 0.0719555 0)
(0.371577 0.0689502 0)
(0.372163 0.0654103 0)
(0.373175 0.061347 0)
(0.548593 0.0629019 0)
(0.539918 0.0631383 0)
(0.531391 0.0630389 0)
(0.523047 0.0627264 0)
(0.514908 0.0623026 0)
(0.506989 0.0618375 0)
(0.499293 0.0613765 0)
(0.491839 0.0609689 0)
(0.484616 0.0606301 0)
(0.477612 0.0603826 0)
(0.470836 0.0602102 0)
(0.464281 0.0601409 0)
(0.457948 0.0601368 0)
(0.45184 0.0602063 0)
(0.445961 0.0603318 0)
(0.440319 0.0605031 0)
(0.434925 0.0607117 0)
(0.42979 0.0609522 0)
(0.424927 0.0612223 0)
(0.420346 0.0615224 0)
(0.416058 0.0618586 0)
(0.412066 0.0622373 0)
(0.408375 0.0626658 0)
(0.404984 0.0631531 0)
(0.401892 0.0637098 0)
(0.399088 0.0643475 0)
(0.396561 0.0650771 0)
(0.394294 0.0659072 0)
(0.392263 0.0668434 0)
(0.390443 0.0678883 0)
(0.388804 0.0690378 0)
(0.387314 0.0702846 0)
(0.38594 0.0716077 0)
(0.384649 0.0729904 0)
(0.383412 0.0743931 0)
(0.3822 0.0757877 0)
(0.380991 0.0771198 0)
(0.37977 0.078351 0)
(0.378526 0.0794209 0)
(0.377256 0.0802805 0)
(0.375964 0.080871 0)
(0.374663 0.0811357 0)
(0.373376 0.0810197 0)
(0.372129 0.0804709 0)
(0.370961 0.0794403 0)
(0.369917 0.0778895 0)
(0.36905 0.0757824 0)
(0.368418 0.0730948 0)
(0.368087 0.0698153 0)
(0.368127 0.0659413 0)
(0.368611 0.0614843 0)
(0.537442 0.0728471 0)
(0.53061 0.0730315 0)
(0.523679 0.0727892 0)
(0.516716 0.07227 0)
(0.509763 0.0715913 0)
(0.502848 0.070839 0)
(0.496009 0.0700763 0)
(0.489266 0.0693585 0)
(0.482622 0.0687019 0)
(0.476101 0.0681363 0)
(0.469714 0.0676664 0)
(0.463471 0.0672831 0)
(0.457381 0.0669902 0)
(0.451457 0.0667649 0)
(0.445716 0.0665949 0)
(0.440179 0.0664676 0)
(0.434863 0.0663732 0)
(0.429791 0.0663077 0)
(0.424981 0.0662699 0)
(0.420449 0.0662628 0)
(0.41621 0.0662889 0)
(0.412272 0.0663547 0)
(0.408641 0.0664708 0)
(0.40532 0.0666501 0)
(0.402309 0.0669076 0)
(0.399598 0.0672587 0)
(0.397175 0.0677195 0)
(0.395019 0.0683048 0)
(0.393105 0.0690245 0)
(0.391401 0.069883 0)
(0.389874 0.0708822 0)
(0.38848 0.0720129 0)
(0.387186 0.0732542 0)
(0.385943 0.074598 0)
(0.38472 0.0759799 0)
(0.383478 0.0774051 0)
(0.382191 0.0787677 0)
(0.38084 0.0800633 0)
(0.379409 0.0811913 0)
(0.377898 0.082131 0)
(0.376304 0.0827797 0)
(0.374643 0.0830867 0)
(0.372938 0.0829878 0)
(0.371223 0.0824244 0)
(0.36954 0.0813401 0)
(0.367943 0.0796844 0)
(0.366491 0.0774173 0)
(0.365256 0.0745105 0)
(0.364314 0.0709455 0)
(0.363745 0.0667176 0)
(0.363639 0.0618372 0)
(0.518882 0.0802587 0)
(0.514949 0.0807073 0)
(0.510589 0.0806125 0)
(0.505884 0.0801504 0)
(0.500885 0.0794575 0)
(0.495648 0.0786371 0)
(0.490224 0.0777707 0)
(0.484665 0.0768978 0)
(0.479006 0.0760857 0)
(0.473287 0.0753265 0)
(0.467539 0.0746683 0)
(0.461805 0.0740816 0)
(0.456113 0.0735678 0)
(0.450485 0.0731122 0)
(0.444966 0.0726996 0)
(0.43959 0.0723165 0)
(0.434395 0.071953 0)
(0.429413 0.0716046 0)
(0.424675 0.0712735 0)
(0.420205 0.0709631 0)
(0.416021 0.070678 0)
(0.41214 0.0704279 0)
(0.408577 0.0702263 0)
(0.405336 0.07009 0)
(0.402418 0.0700381 0)
(0.399817 0.0700906 0)
(0.39752 0.0702697 0)
(0.395504 0.070595 0)
(0.393738 0.0710847 0)
(0.392187 0.0717498 0)
(0.390808 0.0725939 0)
(0.389548 0.0736105 0)
(0.388374 0.07479 0)
(0.387212 0.0760911 0)
(0.386043 0.0775064 0)
(0.384802 0.0789492 0)
(0.383452 0.0804114 0)
(0.381991 0.0817879 0)
(0.380385 0.0830437 0)
(0.378634 0.0840723 0)
(0.376711 0.0848416 0)
(0.374668 0.0852388 0)
(0.37252 0.0851939 0)
(0.370302 0.0846523 0)
(0.36806 0.0835406 0)
(0.365855 0.0818022 0)
(0.363761 0.0793896 0)
(0.361857 0.0762666 0)
(0.360232 0.0724096 0)
(0.358983 0.0678104 0)
(0.35821 0.0624754 0)
(0.492717 0.0841409 0)
(0.49249 0.0851887 0)
(0.491535 0.0855786 0)
(0.489904 0.0855058 0)
(0.487629 0.0851234 0)
(0.484766 0.0845537 0)
(0.481376 0.0838515 0)
(0.477553 0.0830932 0)
(0.473337 0.082355 0)
(0.468812 0.0816156 0)
(0.464044 0.0809395 0)
(0.459067 0.080305 0)
(0.453969 0.0797043 0)
(0.448796 0.0791304 0)
(0.443615 0.0785649 0)
(0.438485 0.0779946 0)
(0.433466 0.077413 0)
(0.428615 0.076821 0)
(0.423977 0.0762217 0)
(0.419585 0.075621 0)
(0.41547 0.0750304 0)
(0.411659 0.0744635 0)
(0.40817 0.0739372 0)
(0.405017 0.0734721 0)
(0.402205 0.0730929 0)
(0.39973 0.0728282 0)
(0.397579 0.072706 0)
(0.395728 0.0727534 0)
(0.394146 0.0729948 0)
(0.392786 0.0734529 0)
(0.391599 0.0741341 0)
(0.390528 0.0750362 0)
(0.389505 0.0761578 0)
(0.388485 0.0774521 0)
(0.387393 0.078914 0)
(0.386186 0.0804221 0)
(0.384825 0.0820137 0)
(0.383259 0.0835351 0)
(0.381479 0.0849383 0)
(0.379477 0.0861396 0)
(0.377255 0.0870392 0)
(0.374786 0.0875944 0)
(0.372155 0.0876462 0)
(0.36939 0.0871891 0)
(0.366532 0.0860914 0)
(0.36366 0.0843015 0)
(0.360852 0.0817636 0)
(0.358204 0.078434 0)
(0.355817 0.0742845 0)
(0.353799 0.0693007 0)
(0.352269 0.0634856 0)
(0.46027 0.0838654 0)
(0.464148 0.085741 0)
(0.467109 0.0869264 0)
(0.469112 0.0875971 0)
(0.470141 0.0878945 0)
(0.470197 0.0879363 0)
(0.469353 0.0877161 0)
(0.467753 0.0874646 0)
(0.465421 0.087041 0)
(0.462464 0.0866309 0)
(0.458997 0.0861472 0)
(0.455068 0.0856765 0)
(0.450796 0.0851747 0)
(0.446259 0.0846362 0)
(0.441551 0.084045 0)
(0.436769 0.0833886 0)
(0.432005 0.0826667 0)
(0.427337 0.0818897 0)
(0.42283 0.0810661 0)
(0.418539 0.0802108 0)
(0.414507 0.0793382 0)
(0.410771 0.078464 0)
(0.407362 0.0776089 0)
(0.404303 0.0768003 0)
(0.401606 0.0760711 0)
(0.399274 0.075459 0)
(0.397294 0.075003 0)
(0.395643 0.0747434 0)
(0.394283 0.0747152 0)
(0.393165 0.0749458 0)
(0.392223 0.0754533 0)
(0.391392 0.0762489 0)
(0.390602 0.077301 0)
(0.389765 0.0786374 0)
(0.388802 0.0801255 0)
(0.387678 0.0818094 0)
(0.386331 0.0835177 0)
(0.384672 0.0852632 0)
(0.382739 0.0868812 0)
(0.380485 0.0883259 0)
(0.377911 0.0894441 0)
(0.375026 0.0901863 0)
(0.371873 0.0904312 0)
(0.368519 0.0900815 0)
(0.364963 0.0890467 0)
(0.361343 0.0872464 0)
(0.35774 0.0846146 0)
(0.354256 0.0810992 0)
(0.351009 0.0766639 0)
(0.348121 0.0712896 0)
(0.345725 0.0649734 0)
(0.423983 0.0794368 0)
(0.431919 0.0821931 0)
(0.438888 0.0843609 0)
(0.444714 0.0860508 0)
(0.449289 0.0873631 0)
(0.45252 0.0883458 0)
(0.454587 0.0890712 0)
(0.455505 0.0895212 0)
(0.455323 0.0898505 0)
(0.454252 0.0899913 0)
(0.452333 0.0900523 0)
(0.449715 0.0899727 0)
(0.446467 0.0898158 0)
(0.442733 0.0895128 0)
(0.438634 0.0890591 0)
(0.434304 0.0884452 0)
(0.429871 0.0876806 0)
(0.425446 0.0867864 0)
(0.421115 0.0857934 0)
(0.416953 0.0847235 0)
(0.413017 0.0835937 0)
(0.409361 0.0824232 0)
(0.406033 0.0812371 0)
(0.403071 0.0800697 0)
(0.400499 0.0789638 0)
(0.398328 0.0779694 0)
(0.396551 0.0771414 0)
(0.395144 0.0765337 0)
(0.394062 0.0761995 0)
(0.393246 0.07618 0)
(0.392627 0.076486 0)
(0.392104 0.0771684 0)
(0.391619 0.0781833 0)
(0.391034 0.0795385 0)
(0.390279 0.0811361 0)
(0.389285 0.0829923 0)
(0.387969 0.0849328 0)
(0.386296 0.0869321 0)
(0.384188 0.0888588 0)
(0.381665 0.0906068 0)
(0.378712 0.0920429 0)
(0.375346 0.0930644 0)
(0.371603 0.093574 0)
(0.367542 0.093403 0)
(0.363228 0.0924905 0)
(0.358763 0.0907292 0)
(0.354253 0.0880416 0)
(0.349819 0.0843675 0)
(0.345588 0.0796622 0)
(0.3417 0.0738979 0)
(0.3383 0.0670668 0)
(0.385482 0.0711562 0)
(0.397483 0.0746464 0)
(0.408464 0.0778425 0)
(0.418107 0.0807414 0)
(0.426234 0.0833243 0)
(0.432741 0.0855972 0)
(0.437634 0.087475 0)
(0.441151 0.0890932 0)
(0.443305 0.090348 0)
(0.444205 0.0914244 0)
(0.444024 0.0922442 0)
(0.442821 0.0929112 0)
(0.44077 0.0933295 0)
(0.437937 0.0935097 0)
(0.434538 0.0934172 0)
(0.430734 0.093026 0)
(0.426698 0.0923606 0)
(0.422574 0.0914619 0)
(0.41847 0.0903816 0)
(0.414467 0.089155 0)
(0.410643 0.087805 0)
(0.407074 0.0863538 0)
(0.40383 0.0848316 0)
(0.400972 0.0832829 0)
(0.398542 0.0817631 0)
(0.396566 0.0803404 0)
(0.395042 0.0790862 0)
(0.393946 0.0780766 0)
(0.393234 0.0773816 0)
(0.392812 0.0770645 0)
(0.39262 0.0771567 0)
(0.392543 0.0777038 0)
(0.392457 0.0786921 0)
(0.392229 0.0800878 0)
(0.39177 0.0818645 0)
(0.39098 0.0839329 0)
(0.389742 0.0862183 0)
(0.388011 0.0885539 0)
(0.385739 0.0908804 0)
(0.382882 0.0930131 0)
(0.379456 0.0948889 0)
(0.3755 0.0963098 0)
(0.371011 0.0971267 0)
(0.366099 0.097265 0)
(0.360834 0.0965533 0)
(0.355343 0.0948899 0)
(0.349751 0.0921923 0)
(0.344192 0.0883968 0)
(0.338801 0.0834481 0)
(0.333728 0.0773063 0)
(0.329131 0.0699576 0)
(0.345663 0.0591822 0)
(0.361923 0.0633772 0)
(0.376912 0.0677124 0)
(0.390265 0.0720435 0)
(0.401778 0.0762037 0)
(0.411262 0.0800041 0)
(0.418966 0.0834106 0)
(0.424903 0.0863923 0)
(0.429175 0.0888577 0)
(0.432054 0.0910085 0)
(0.433528 0.0929057 0)
(0.433776 0.0944815 0)
(0.432826 0.0956821 0)
(0.430934 0.0965181 0)
(0.428231 0.0969485 0)
(0.424955 0.0969314 0)
(0.421344 0.0965078 0)
(0.417574 0.0957485 0)
(0.413761 0.0947132 0)
(0.409987 0.0934329 0)
(0.406337 0.0919305 0)
(0.402909 0.0902336 0)
(0.399804 0.0883802 0)
(0.397113 0.0864241 0)
(0.394904 0.0844403 0)
(0.393219 0.0825197 0)
(0.392068 0.0807613 0)
(0.391429 0.0792754 0)
(0.391245 0.0781535 0)
(0.391413 0.0774801 0)
(0.391841 0.077336 0)
(0.392373 0.0777312 0)
(0.392862 0.0786979 0)
(0.393147 0.0802063 0)
(0.39309 0.0822067 0)
(0.392554 0.0845951 0)
(0.391378 0.0872882 0)
(0.389528 0.0901314 0)
(0.386918 0.0929899 0)
(0.383559 0.0956999 0)
(0.379449 0.0980988 0)
(0.374544 0.10005 0)
(0.369029 0.101373 0)
(0.362965 0.101858 0)
(0.356417 0.101433 0)
(0.34959 0.0999316 0)
(0.342632 0.0972729 0)
(0.335683 0.0933963 0)
(0.328879 0.0882368 0)
(0.32237 0.0817401 0)
(0.316324 0.0738834 0)
(0.303673 0.0425247 0)
(0.324646 0.0476018 0)
(0.343962 0.0531864 0)
(0.3611 0.0592361 0)
(0.375779 0.0653621 0)
(0.387984 0.071125 0)
(0.397837 0.0764594 0)
(0.405569 0.0810582 0)
(0.411446 0.0851295 0)
(0.415773 0.0889192 0)
(0.418522 0.0922049 0)
(0.419707 0.0952175 0)
(0.419641 0.097519 0)
(0.418459 0.0993125 0)
(0.416367 0.100433 0)
(0.413643 0.10076 0)
(0.410593 0.100474 0)
(0.407394 0.0997853 0)
(0.40412 0.0988006 0)
(0.400828 0.0975159 0)
(0.397605 0.0959123 0)
(0.394572 0.0939963 0)
(0.391854 0.0917997 0)
(0.389579 0.0893896 0)
(0.387851 0.0868668 0)
(0.386736 0.0843541 0)
(0.386264 0.0819929 0)
(0.386405 0.0799272 0)
(0.387084 0.0782895 0)
(0.388183 0.0772009 0)
(0.389552 0.0767639 0)
(0.390998 0.07701 0)
(0.392327 0.0780182 0)
(0.393287 0.0797144 0)
(0.393678 0.0820834 0)
(0.393333 0.0849783 0)
(0.39207 0.0882812 0)
(0.389791 0.0918196 0)
(0.386465 0.0954216 0)
(0.382059 0.0988982 0)
(0.37666 0.102042 0)
(0.370364 0.104609 0)
(0.363174 0.10659 0)
(0.355352 0.107621 0)
(0.347063 0.107478 0)
(0.338455 0.10618 0)
(0.329768 0.10359 0)
(0.321134 0.0996695 0)
(0.312665 0.0943354 0)
(0.304502 0.087514 0)
(0.29681 0.0791657 0)
(0.261847 0.0213824 0)
(0.286898 0.0277296 0)