/*--------------------------------*- C++ -*----------------------------------*\
  =========                 |
  \\      /  F ield         | OpenFOAM: The Open Source CFD Toolbox
   \\    /   O peration     | Website:  https://openfoam.org
    \\  /    A nd           | Version:  10
     \\/     M anipulation  |
\*---------------------------------------------------------------------------*/
FoamFile
{
    format      ascii;
    class       volScalarField;
    location    "0.399873";
    object      p;
}
// * * * * * * * * * * * * * * * * * * * * * * * * * * * * * * * * * * * * * //

dimensions      [1 -1 -2 0 0 0 0];

internalField   nonuniform List<scalar> 
15708
(
2.46773
2.46379
2.46045
2.45755
2.455
2.4527
2.45059
2.44859
2.44667
2.44485
2.44314
2.44159
2.44025
2.43916
2.43837
2.43788
2.43771
2.43783
2.43817
2.4387
2.43937
2.44013
2.44094
2.44171
2.4424
2.443
2.4435
2.44387
2.44418
2.44441
2.44461
2.44482
2.44504
2.44535
2.44576
2.44633
2.44709
2.44805
2.44926
2.45072
2.45247
2.4545
2.45682
2.45943
2.46232
2.46546
2.46884
2.47242
2.47617
2.48005
2.48403
2.46405
2.45953
2.45576
2.45256
2.44988
2.44762
2.4457
2.44404
2.4426
2.44135
2.4403
2.43946
2.43885
2.43848
2.43837
2.43849
2.43882
2.43935
2.43998
2.44068
2.44142
2.44213
2.44277
2.4433
2.44371
2.44399
2.44417
2.44425
2.44427
2.44427
2.44429
2.44437
2.44455
2.44488
2.44538
2.4461
2.44707
2.44829
2.44979
2.45159
2.45368
2.45606
2.45873
2.46166
2.46483
2.4682
2.47176
2.47545
2.47925
2.4831
2.48698
2.46018
2.45514
2.45096
2.44751
2.44474
2.44256
2.44088
2.43962
2.43872
2.43813
2.43782
2.43778
2.43797
2.4384
2.43901
2.43981
2.44072
2.44167
2.44263
2.44353
2.44432
2.44497
2.44544
2.44573
2.44584
2.4458
2.44564
2.4454
2.44512
2.44488
2.44471
2.44467
2.44479
2.44511
2.44569
2.44655
2.44771
2.44918
2.45097
2.45307
2.45549
2.45819
2.46116
2.46436
2.46776
2.47132
2.475
2.47874
2.48252
2.48629
2.49
2.45615
2.45063
2.44609
2.44243
2.43961
2.43755
2.43616
2.43537
2.43508
2.43522
2.43569
2.43651
2.43759
2.43888
2.44032
2.44185
2.44338
2.44482
2.44612
2.44723
2.44809
2.44868
2.44898
2.44903
2.44885
2.44848
2.44797
2.4474
2.44682
2.44632
2.44594
2.44576
2.4458
2.44612
2.44676
2.44774
2.44907
2.45077
2.45281
2.4552
2.4579
2.46088
2.4641
2.46753
2.47111
2.47479
2.47853
2.48228
2.48598
2.4896
2.49309
2.45202
2.44606
2.44121
2.43737
2.43453
2.43264
2.43161
2.43135
2.43168
2.4326
2.43393
2.43567
2.43771
2.43996
2.44229
2.44461
2.44681
2.44878
2.45046
2.4518
2.45274
2.45327
2.45343
2.45326
2.45278
2.45208
2.45122
2.45032
2.44944
2.44867
2.44808
2.44773
2.44769
2.44797
2.44864
2.44972
2.4512
2.45308
2.45534
2.45796
2.4609
2.46411
2.46755
2.47114
2.47485
2.47861
2.48235
2.48604
2.48961
2.49304
2.49627
2.44783
2.44148
2.43636
2.43239
2.42959
2.42791
2.42729
2.42753
2.42854
2.43027
2.43253
2.43529
2.43837
2.44163
2.44492
2.44809
2.451
2.45355
2.45566
2.45724
2.45829
2.4588
2.45883
2.45844
2.45768
2.45666
2.45547
2.45423
2.45304
2.45199
2.45117
2.45065
2.45049
2.45072
2.45138
2.45252
2.4541
2.45613
2.45856
2.46136
2.46449
2.46788
2.47146
2.47518
2.47896
2.48273
2.48644
2.49001
2.49342
2.4966
2.49954
2.44367
2.437
2.43165
2.42759
2.42486
2.42342
2.42321
2.42393
2.42572
2.42826
2.43156
2.43539
2.43958
2.44393
2.44822
2.4523
2.45598
2.45916
2.46171
2.46359
2.46477
2.46528
2.4652
2.46463
2.4636
2.46227
2.46075
2.45918
2.45768
2.45634
2.45527
2.45455
2.45425
2.45438
2.45499
2.45614
2.45778
2.4599
2.46244
2.46538
2.46863
2.47214
2.47582
2.4796
2.4834
2.48714
2.49075
2.49419
2.49738
2.5003
2.50291
2.43965
2.43269
2.42715
2.42303
2.42037
2.4192
2.41939
2.42067
2.4232
2.42668
2.43104
2.43601
2.44138
2.44686
2.45223
2.45726
2.46179
2.46561
2.46863
2.47085
2.4722
2.47275
2.47259
2.47185
2.47059
2.46896
2.46712
2.46522
2.4634
2.46176
2.46042
2.45947
2.45897
2.45898
2.45948
2.46058
2.46222
2.46436
2.46697
2.46997
2.47329
2.47686
2.48058
2.48437
2.48814
2.4918
2.49529
2.49853
2.50149
2.50412
2.50639
2.43584
2.42862
2.42292
2.41875
2.4162
2.41533
2.4159
2.4178
2.4211
2.42557
2.43104
2.43721
2.44379
2.45048
2.45697
2.46301
2.46838
2.4729
2.47647
2.47904
2.4806
2.48121
2.48102
2.48013
2.47865
2.47675
2.4746
2.47237
2.47021
2.46826
2.46662
2.46539
2.46467
2.46448
2.46483
2.46581
2.46738
2.46949
2.47208
2.47508
2.47841
2.48198
2.48569
2.48944
2.49313
2.49668
2.5
2.50305
2.50575
2.50807
2.51
2.43229
2.42486
2.41904
2.41485
2.41244
2.41187
2.41279
2.41543
2.41949
2.425
2.43162
2.43902
2.44688
2.45481
2.46247
2.46955
2.47582
2.48108
2.48522
2.48818
2.48998
2.49068
2.49048
2.48948
2.4878
2.48564
2.48319
2.48063
2.47813
2.47582
2.47385
2.47231
2.47129
2.47085
2.471
2.47176
2.4732
2.4752
2.4777
2.48064
2.48392
2.48744
2.49108
2.49474
2.49833
2.50173
2.50488
2.5077
2.51014
2.51217
2.51374
2.4291
2.42152
2.4156
2.41143
2.40918
2.40894
2.41023
2.41353
2.41849
2.42505
2.43283
2.44152
2.45068
2.45988
2.46875
2.47687
2.4841
2.49013
2.49488
2.49827
2.50034
2.50117
2.50098
2.49988
2.49804
2.49563
2.49287
2.48997
2.4871
2.48441
2.48206
2.48015
2.47878
2.47802
2.47789
2.47838
2.47957
2.4814
2.48375
2.48656
2.48973
2.49314
2.49668
2.50023
2.50368
2.50693
2.50989
2.51249
2.51467
2.5164
2.51764
2.4264
2.41872
2.41273
2.4086
2.40652
2.4066
2.4083
2.41228
2.41811
2.42574
2.43476
2.44475
2.45525
2.46576
2.47584
2.4851
2.49325
2.50007
2.50543
2.50927
2.51164
2.51263
2.51246
2.51132
2.5093
2.50665
2.50359
2.50033
2.49706
2.49395
2.49117
2.48883
2.48704
2.48587
2.48537
2.48555
2.48641
2.48797
2.49011
2.49274
2.49575
2.49902
2.50243
2.50584
2.50915
2.51224
2.51502
2.5174
2.51934
2.52079
2.52172
2.42431
2.41656
2.41054
2.40645
2.40457
2.40486
2.40711
2.41174
2.41846
2.42717
2.43743
2.44876
2.46061
2.47244
2.48376
2.49414
2.50326
2.51087
2.51686
2.52117
2.52385
2.52503
2.5249
2.52369
2.52154
2.51863
2.51525
2.5116
2.5079
2.50433
2.50105
2.49822
2.49593
2.49428
2.49333
2.4931
2.49357
2.49478
2.49665
2.49904
2.50186
2.50496
2.50822
2.5115
2.51467
2.51762
2.52023
2.52243
2.52415
2.52535
2.526
2.42296
2.41515
2.40912
2.40509
2.40337
2.40396
2.40669
2.41192
2.41959
2.42939
2.44092
2.45358
2.46679
2.47994
2.4925
2.50399
2.51407
2.52249
2.52911
2.5339
2.53692
2.53826
2.53819
2.53695
2.53462
2.53147
2.52774
2.52368
2.5195
2.51541
2.51157
2.50816
2.50529
2.50307
2.50158
2.50086
2.5009
2.50167
2.5032
2.50533
2.50793
2.51086
2.51398
2.51714
2.5202
2.52303
2.52552
2.52758
2.52913
2.53012
2.53052
2.42249
2.41461
2.40856
2.4046
2.40305
2.40382
2.40708
2.41294
2.42152
2.43245
2.44522
2.45923
2.47379
2.48825
2.50202
2.51462
2.52565
2.53486
2.54211
2.54738
2.55072
2.55227
2.55222
2.55093
2.54846
2.54502
2.54092
2.5364
2.5317
2.52701
2.52254
2.51846
2.51492
2.51204
2.50993
2.50864
2.50817
2.5085
2.50961
2.51145
2.51383
2.5166
2.5196
2.52268
2.52568
2.52845
2.53088
2.53285
2.53428
2.53512
2.53533
2.423
2.41506
2.40895
2.40503
2.40362
2.40454
2.40827
2.41477
2.42427
2.43632
2.45033
2.46567
2.48157
2.49732
2.51229
2.52595
2.53791
2.54789
2.55576
2.56149
2.56514
2.56686
2.56688
2.56552
2.56284
2.55911
2.55461
2.54959
2.54429
2.53893
2.53373
2.5289
2.5246
2.52096
2.51816
2.51621
2.51517
2.51503
2.5157
2.51722
2.51939
2.52205
2.52499
2.52805
2.53106
2.53386
2.5363
2.53826
2.53965
2.5404
2.54048
2.4246
2.41658
2.41039
2.40639
2.4051
2.40615
2.4103
2.41743
2.42778
2.44092
2.45622
2.47283
2.49007
2.50708
2.5232
2.5379
2.55075
2.56147
2.56993
2.57609
2.58005
2.58193
2.58197
2.58052
2.57763
2.57357
2.56862
2.56303
2.55705
2.55094
2.54495
2.53927
2.53412
2.52969
2.52604
2.52334
2.52168
2.52102
2.5213
2.52247
2.52447
2.52706
2.53003
2.53318
2.53631
2.53923
2.54179
2.54384
2.54528
2.54602
2.54602
2.42743
2.41926
2.41289
2.40876
2.40744
2.4086
2.41307
2.4208
2.43197
2.44624
2.46273
2.48066
2.49914
2.51737
2.53463
2.55032
2.56402
2.57545
2.58446
2.59104
2.59526
2.59728
2.59733
2.59577
2.59263
2.58819
2.58274
2.5765
2.56978
2.56283
2.55592
2.54931
2.54321
2.53782
2.53332
2.52985
2.52746
2.52624
2.52613
2.52699
2.52888
2.53151
2.53462
2.53797
2.54135
2.54454
2.54734
2.54961
2.5512
2.55202
2.55202
2.43153
2.4231
2.41643
2.41205
2.41055
2.41175
2.41643
2.42468
2.43671
2.45202
2.46973
2.4889
2.50864
2.52806
2.54641
2.56306
2.57758
2.58967
2.5992
2.60615
2.61061
2.61273
2.61277
2.61108
2.60763
2.60278
2.59673
2.58979
2.58223
2.57436
2.56646
2.5588
2.55163
2.5452
2.53971
2.53536
2.53225
2.53043
2.52992
2.5306
2.53241
2.53521
2.53861
2.54235
2.54615
2.54977
2.55299
2.55561
2.55748
2.55848
2.55856
2.43693
2.42808
2.42095
2.41615
2.41432
2.41542
2.42017
2.42887
2.44168
2.45802
2.47688
2.49733
2.51831
2.53892
2.55835
2.57593
2.59123
2.60395
2.61396
2.62126
2.62592
2.62812
2.62811
2.62623
2.62246
2.61712
2.61042
2.6027
2.59424
2.58535
2.57635
2.56752
2.55916
2.55155
2.54497
2.53963
2.53571
2.53329
2.53242
2.53297
2.53485
2.53797
2.54186
2.54619
2.55063
2.5549
2.55872
2.56187
2.56417
2.56547
2.56571
2.44365
2.43417
2.42634
2.42085
2.4185
2.41939
2.4239
2.43303
2.44649
2.46385
2.4839
2.5056
2.52788
2.54971
2.57021
2.58872
2.60478
2.61811
2.62858
2.63619
2.64103
2.64327
2.64317
2.64105
2.63694
2.63103
2.62362
2.61504
2.6056
2.5956
2.58537
2.57525
2.56555
2.55663
2.5488
2.54236
2.53754
2.53449
2.5333
2.53381
2.53591
2.53956
2.54419
2.54937
2.55472
2.55989
2.56455
2.56843
2.57131
2.57304
2.57353
2.45155
2.44116
2.4323
2.42582
2.42261
2.42309
2.4274
2.43656
2.45074
2.46898
2.49029
2.51337
2.53702
2.56012
2.58173
2.60119
2.61802
2.63196
2.64288
2.65078
2.65577
2.65801
2.65781
2.65541
2.65087
2.64434
2.63617
2.62666
2.61614
2.60491
2.59333
2.58175
2.57054
2.56011
2.55084
2.54315
2.53735
2.53367
2.53216
2.53274
2.53524
2.53969
2.54535
2.55172
2.55831
2.56468
2.57045
2.57529
2.57895
2.58125
2.58209
2.46045
2.44878
2.43852
2.43069
2.42626
2.42609
2.42977
2.43897
2.45355
2.47274
2.49538
2.52009
2.54534
2.56981
2.59261
2.61308
2.63074
2.64532
2.65669
2.66487
2.66999
2.67221
2.67187
2.66917
2.66415
2.65694
2.64793
2.63741
2.6257
2.61311
2.60001
2.5868
2.57385
2.56169
2.55076
2.54162
2.53468
2.5303
2.52854
2.52932
2.5325
2.53802
2.54504
2.553
2.56123
2.56918
2.57637
2.58243
2.58708
2.59011
2.5914
2.46987
2.45637
2.44417
2.43457
2.42876
2.42763
2.43061
2.43935
2.45432
2.47418
2.49853
2.52522
2.55231
2.57836
2.60251
2.62412
2.6427
2.65799
2.66985
2.67833
2.68356
2.68574
2.68522
2.68218
2.6766
2.66868
2.65876
2.64714
2.63412
2.62005
2.60522
2.59021
2.57532
2.56121
2.54826
2.5374
2.52914
2.52398
2.52201
2.52308
2.52712
2.5342
2.54302
2.55303
2.56338
2.57328
2.58221
2.58977
2.59564
2.59956
2.6014
2.47876
2.46324
2.44844
2.43652
2.42881
2.42622
2.42874
2.43624
2.45208
2.472
2.49916
2.52858
2.5576
2.58529
2.61096
2.63388
2.65358
2.66971
2.68215
2.69096
2.69631
2.69846
2.69774
2.69429
2.68812
2.67944
2.66854
2.65573
2.64127
2.62556
2.60889
2.59187
2.57496
2.55867
2.54355
2.53072
2.52088
2.51485
2.5125
2.51378
2.51861
2.52751
2.53869
2.55182
2.56472
2.57686
2.5878
2.59715
2.60445
2.60941
2.61188
2.48704
2.46829
2.45196
2.43731
2.42689
2.42239
2.4237
2.43025
2.44339
2.4668
2.49552
2.52921
2.56059
2.5903
2.61775
2.64216
2.66314
2.68026
2.69337
2.70256
2.70805
2.71018
2.70923
2.70539
2.69857
2.68905
2.67711
2.66303
2.64708
2.62965
2.61117
2.59211
2.57295
2.55448
2.53734
2.52231
2.51055
2.5034
2.50101
2.50194
2.50799
2.51922
2.53137
2.5488
2.56516
2.58004
2.5932
2.60444
2.61332
2.61941
2.62254
2.49531
2.47373
2.45452
2.43789
2.42528
2.41791
2.41898
2.42169
2.43791
2.46428
2.48935
2.52909
2.56142
2.59387
2.62299
2.64892
2.67119
2.68939
2.70322
2.71283
2.7185
2.72061
2.71945
2.71522
2.70774
2.69736
2.68435
2.66899
2.65168
2.63256
2.61221
2.59135
2.56885
2.54723
2.52743
2.51058
2.49679
2.48742
2.48369
2.48503
2.49294
2.507
2.52543
2.54669
2.56516
2.58292
2.59841
2.61159
2.622
2.62917
2.63291
2.50146
2.48198
2.46297
2.44499
2.42988
2.41903
2.41487
2.41687
2.42894
2.45276
2.47972
2.53361
2.55956
2.59632
2.62689
2.65398
2.67764
2.69688
2.71143
2.72144
2.72732
2.72943
2.72812
2.7235
2.71536
2.70414
2.69019
2.67366
2.65507
2.63424
2.6105
2.58649
2.56325
2.53938
2.51614
2.49539
2.47863
2.4673
2.4627
2.46459
2.47378
2.49076
2.51469
2.54081
2.5648
2.58579
2.6034
2.61843
2.63025
2.63834
2.64254
2.51562
2.49391
2.47162
2.45079
2.43334
2.42046
2.41428
2.41511
2.42486
2.44586
2.47847
2.52149
2.55961
2.59796
2.62988
2.6581
2.68264
2.70261
2.71767
2.72802
2.73408
2.7363
2.73489
2.72985
2.72116
2.7093
2.69452
2.67692
2.65546
2.63171
2.60806
2.58167
2.5541
2.52636
2.49999
2.47681
2.45848
2.44633
2.4415
2.44425
2.45521
2.47531
2.50324
2.53568
2.56446
2.58852
2.60829
2.6249
2.63774
2.64639
2.65093
2.52677
2.50256
2.47807
2.45465
2.43437
2.41894
2.40972
2.40925
2.41817
2.43881
2.47194
2.51564
2.55941
2.59833
2.63194
2.66096
2.68603
2.7063
2.7216
2.73214
2.73837
2.74075
2.73929
2.73395
2.72501
2.71286
2.69567
2.67595
2.65443
2.62824
2.60034
2.57115
2.54085
2.51075
2.48217
2.45658
2.43675
2.42418
2.41984
2.42346
2.43626
2.4602
2.49307
2.5315
2.5644
2.5907
2.61214
2.63015
2.64384
2.65301
2.65782
2.5349
2.50846
2.48132
2.45506
2.4324
2.41419
2.40351
2.40226
2.41048
2.43128
2.46576
2.51145
2.55771
2.59831
2.63253
2.6622
2.68738
2.70764
2.72287
2.73342
2.73974
2.74235
2.74104
2.73568
2.72626
2.7122
2.69473
2.67261
2.64729
2.61926
2.58925
2.55787
2.52594
2.49406
2.46422
2.43649
2.41484
2.40245
2.3978
2.40426
2.42152
2.44944
2.48739
2.52751
2.56243
2.591
2.61482
2.63391
2.64827
2.65795
2.66298
2.53949
2.51094
2.48211
2.45258
2.42568
2.40592
2.39433
2.39207
2.40234
2.4255
2.4621
2.51049
2.55911
2.59804
2.63202
2.66171
2.68663
2.70654
2.72149
2.73189
2.73824
2.74098
2.74002
2.73398
2.724
2.70762
2.68738
2.66415
2.63742
2.60764
2.57604
2.5444
2.51269
2.47967
2.4474
2.41981
2.39899
2.38735
2.38368
2.3899
2.41045
2.44381
2.48341
2.52256
2.56007
2.59201
2.61649
2.63623
2.65102
2.66081
2.66521
2.54192
2.51235
2.48117
2.45087
2.4234
2.40227
2.39041
2.38689
2.39858
2.42593
2.46453
2.51431
2.55805
2.59683
2.63017
2.65921
2.68346
2.70277
2.71732
2.7275
2.73399
2.73686
2.73333
2.72719
2.71454
2.69798
2.67718
2.65262
2.62471
2.59458
2.56401
2.53367
2.50084
2.47118
2.44098
2.41374
2.3923
2.38058
2.37979
2.3895
2.41199
2.44786
2.49756
2.5233
2.56601
2.59361
2.61765
2.63743
2.65186
2.66082
2.66362
2.54641
2.51707
2.4862
2.45582
2.42788
2.40562
2.39352
2.39264
2.40617
2.43415
2.47098
2.51397
2.55679
2.59405
2.62631
2.65427
2.67754
2.69611
2.71023
2.71991
2.72546
2.72928
2.72383
2.71518
2.70227
2.68529
2.66402
2.63901
2.61154
2.58451
2.55657
2.52643
2.49913
2.47032
2.44249
2.41757
2.39848
2.38886
2.38961
2.40146
2.42434
2.44746
2.49053
2.5352
2.56779
2.59374
2.61714
2.63746
2.65089
2.65867
2.6636
2.5547
2.5259
2.49579
2.46677
2.44045
2.41946
2.40848
2.40778
2.41989
2.44551
2.48107
2.51982
2.55656
2.59019
2.62066
2.64693
2.66882
2.68621
2.69936
2.70738
2.71429
2.71443
2.70945
2.70049
2.6876
2.67053
2.64952
2.62542
2.60031
2.57499
2.54953
2.52637
2.50033
2.47459
2.45022
2.42817
2.41364
2.40547
2.4058
2.41862
2.44001
2.47628
2.50662
2.54028
2.56742
2.59067
2.61567
2.63782
2.64846
2.65906
2.66305
2.56418
2.53727
2.5091
2.4818
2.45748
2.43704
2.42728
2.428
2.43938
2.4617
2.49157
2.52245
2.55536
2.58556
2.61305
2.63672
2.65668
2.67277
2.68412
2.69292
2.69685
2.697
2.69238
2.68376
2.67125
2.65496
2.63545
2.61402
2.59266
2.57275
2.54942
2.52636
2.50386
2.48215
2.4616
2.44337
2.43064
2.42613
2.42975
2.44247
2.464
2.48947
2.51719
2.54326
2.56607
2.58543
2.60908
2.64503
2.64856
2.65469
2.66232
2.57764
2.55107
2.52355
2.49743
2.47395
2.45566
2.44701
2.44657
2.45616
2.47411
2.49851
2.52474
2.55325
2.57992
2.6032
2.62357
2.64377
2.65256
2.66621
2.67497
2.67799
2.67784
2.67374
2.66581
2.6543
2.63951
2.6221
2.60368
2.58714
2.57123
2.54494
2.52804
2.50915
2.49093
2.47364
2.45834
2.44908
2.44626
2.45029
2.46145
2.47813
2.49979
2.52265
2.54546
2.5669
2.5824
2.6273
2.63173
2.64557
2.65207
2.65954
2.59211
2.56576
2.53796
2.51231
2.48968
2.47259
2.46409
2.46302
2.46963
2.48369
2.50284
2.525
2.54866
2.57211
2.59203
2.60899
2.62843
2.63621
2.64892
2.65512
2.65789
2.6579
2.65435
2.64742
2.63732
2.62441
2.60944
2.59417
2.58203
2.561
2.54659
2.53249
2.51561
2.50009
2.48567
2.47381
2.46653
2.46473
2.46783
2.4761
2.48947
2.50699
2.52967
2.54739
2.56398
2.59344
2.61002
2.62386
2.63921
2.64852
2.65595
2.60584
2.58094
2.55187
2.52593
2.50338
2.4871
2.47776
2.47541
2.47916
2.48913
2.50354
2.52275
2.54498
2.56901
2.57437
2.5912
2.6095
2.61819
2.62873
2.63483
2.63752
2.63774
2.635
2.62944
2.6212
2.61058
2.59815
2.58501
2.57306
2.55955
2.55008
2.53487
2.52136
2.50902
2.49707
2.48745
2.48142
2.47956
2.48146
2.48715
2.49974
2.51788
2.53381
2.5494
2.56071
2.58692
2.60642
2.61937
2.63507
2.64547
2.653
2.61918
2.59484
2.56513
2.53812
2.51452
2.49749
2.48704
2.48287
2.48407
2.49272
2.50639
2.52274
2.53353
2.55116
2.56506
2.57714
2.59127
2.60041
2.6087
2.61454
2.61753
2.61807
2.61634
2.6123
2.60604
2.59782
2.58813
2.57779
2.56824
2.56154
2.55126
2.53293
2.5266
2.51628
2.50592
2.49794
2.49222
2.49029
2.49445
2.50204
2.51303
2.52096
2.53642
2.54947
2.5661
2.58914
2.60369
2.61923
2.63254
2.64331
2.65119
2.63246
2.60299
2.57801
2.54659
2.52177
2.50479
2.49383
2.48925
2.48924
2.49306
2.50139
2.51327
2.52601
2.53786
2.55121
2.56266
2.57373
2.58239
2.58971
2.59523
2.59851
2.59954
2.59886
2.59638
2.59214
2.58636
2.57937
2.57166
2.56381
2.5565
2.55058
2.53533
2.52965
2.52408
2.51458
2.50806
2.50432
2.5024
2.50316
2.50996
2.51855
2.52775
2.53916
2.55495
2.57224
2.58903
2.60366
2.61849
2.63134
2.64219
2.65015
2.65141
2.61697
2.58612
2.55544
2.52894
2.5098
2.49698
2.49022
2.48813
2.48983
2.49663
2.50535
2.5156
2.52674
2.53768
2.54798
2.55732
2.56535
2.57211
2.57735
2.58094
2.58262
2.58292
2.58191
2.57959
2.57609
2.57162
2.56642
2.56069
2.55475
2.55016
2.53857
2.53522
2.5299
2.52216
2.51659
2.51308
2.51167
2.51212
2.52029
2.52324
2.53175
2.54463
2.55816
2.57442
2.58972
2.60401
2.61796
2.63062
2.64148
2.64992
2.66973
2.63236
2.59558
2.56055
2.53343
2.5128
2.49844
2.48967
2.4858
2.48686
2.49076
2.49792
2.50655
2.5161
2.52542
2.53435
2.54262
2.54998
2.55631
2.56142
2.56522
2.56765
2.56884
2.56909
2.56851
2.56704
2.56481
2.5619
2.55843
2.55473
2.55049
2.54569
2.54075
2.53637
2.53087
2.52567
2.52186
2.52026
2.52063
2.52377
2.5281
2.53563
2.54688
2.55963
2.57408
2.58882
2.60319
2.61702
2.62976
2.64094
2.65001
2.68508
2.64454
2.60417
2.56725
2.53717
2.51444
2.49852
2.48848
2.48419
2.48322
2.48599
2.49163
2.49874
2.50662
2.51467
2.52252
2.52996
2.53672
2.54267
2.5477
2.55179
2.55482
2.55699
2.55846
2.55935
2.55964
2.55945
2.55871
2.55746
2.55598
2.55234
2.55007
2.54665
2.54271
2.53808
2.53328
2.52904
2.52633
2.52553
2.52683
2.53
2.5366
2.54634
2.55824
2.57187
2.58635
2.60096
2.61514
2.62838
2.64022
2.65013
2.69787
2.65553
2.61277
2.57376
2.54138
2.51666
2.49917
2.48821
2.48265
2.48093
2.4825
2.48661
2.49235
2.49896
2.50592
2.51287
2.5196
2.52578
2.53145
2.53643
2.54079
2.54438
2.54743
2.55004
2.55227
2.55417
2.55572
2.55683
2.55731
2.55723
2.55609
2.55412
2.55169
2.54831
2.544
2.53923
2.53441
2.53016
2.52765
2.52739
2.52922
2.53449
2.54284
2.55388
2.56711
2.58172
2.59691
2.61192
2.62615
2.63908
2.65017
2.70882
2.66527
2.62091
2.58013
2.54598
2.51964
2.5009
2.48892
2.48226
2.4799
2.48031
2.48318
2.48777
2.49334
2.49938
2.50557
2.51165
2.5174
2.52279
2.52772
2.53229
2.53636
2.54014
2.5437
2.54708
2.55026
2.55321
2.55584
2.558
2.55894
2.5589
2.55822
2.55628
2.55308
2.54871
2.5435
2.53779
2.53199
2.5271
2.52525
2.52534
2.52874
2.53576
2.54611
2.55931
2.57453
2.59078
2.60713
2.62283
2.63728
2.64984
2.71864
2.67437
2.62892
2.58677
2.55114
2.52355
2.50371
2.49084
2.4833
2.48011
2.47966
2.4815
2.48516
2.48987
2.49516
2.50068
2.50621
2.51158
2.51672
2.52159
2.5263
2.53075
2.53511
2.53942
2.5437
2.54791
2.55197
2.55575
2.55908
2.56109
2.56187
2.56184
2.56022
2.55701
2.55225
2.54621
2.53922
2.53171
2.52455
2.51968
2.51804
2.51947
2.52505
2.53479
2.54827
2.56455
2.5824
2.60061
2.61825
2.63463
2.64932
2.72785
2.68327
2.63709
2.59394
2.55719
2.52849
2.50778
2.494
2.48582
2.4816
2.48064
2.48167
2.48457
2.48859
2.49323
2.49819
2.50324
2.50825
2.51316
2.51797
2.52273
2.52749
2.53226
2.53712
2.54208
2.54705
2.55193
2.55654
2.56066
2.56358
2.56495
2.56517
2.56365
2.56018
2.55475
2.54751
2.53882
2.52934
2.51952
2.51081
2.50628
2.50545
2.50903
2.51795
2.53189
2.54988
2.57028
2.59141
2.61187
2.63085
2.64782
2.73689
2.69232
2.64576
2.60187
2.56418
2.53457
2.51298
2.49856
2.4896
2.48467
2.48319
2.48359
2.48589
2.48935
2.49348
2.49797
2.50261
2.50729
2.51198
2.51669
2.52146
2.52639
2.53144
2.53668
2.54208
2.54757
2.55301
2.5582
2.56282
2.56643
2.56812
2.56838
2.56674
2.5628
2.55642
2.54767
2.53695
2.52475
2.51194
2.49971
2.4901
2.48685
2.48851
2.49693
2.51224
2.53325
2.55753
2.58231
2.60551
2.62646
2.64569
2.74612
2.70183
2.65516
2.61073
2.57218
2.54181
2.51942
2.5043
2.49466
2.48924
2.48729
2.48723
2.48902
2.49201
2.4957
2.49978
2.50406
2.50844
2.51292
2.5175
2.52223
2.52719
2.53242
2.53786
2.54356
2.54939
2.5552
2.56075
2.56572
2.56962
2.57147
2.57168
2.56973
2.56511
2.55757
2.54706
2.53375
2.51824
2.50137
2.48416
2.46924
2.46141
2.45966
2.46613
2.48157
2.50536
2.53406
2.5634
2.5906
2.6153
2.63943
2.75582
2.71199
2.66538
2.62055
2.58132
2.55015
2.527
2.51125
2.50097
2.49519
2.49273
2.49237
2.49376
2.49639
2.49973
2.50346
2.50742
2.51153
2.51577
2.52019
2.52483
2.52975
2.53501
2.5406
2.54642
2.55243
2.55842
2.56417
2.56935
2.57327
2.57514
2.57525
2.57285
2.5674
2.55851
2.54593
2.52965
2.51018
2.48859
2.46539
2.44281
2.42867
2.42332
2.42754
2.44517
2.47605
2.51461
2.55323
2.58775
2.61462
2.6358
2.48806
2.49209
2.4961
2.50004
2.50387
2.50757
2.51111
2.51448
2.51768
2.52069
2.52354
2.52623
2.5288
2.53127
2.53368
2.53609
2.53852
2.54103
2.54367
2.54648
2.5495
2.55277
2.55632
2.56016
2.56432
2.5688
2.49083
2.49463
2.49833
2.50192
2.50535
2.50862
2.51171
2.51463
2.51737
2.51996
2.5224
2.52473
2.52698
2.52919
2.5314
2.53365
2.536
2.53849
2.54116
2.54407
2.54724
2.55072
2.55451
2.55864
2.5631
2.56789
2.49362
2.49712
2.50047
2.50365
2.50665
2.50946
2.51208
2.51452
2.5168
2.51895
2.52099
2.52295
2.52489
2.52684
2.52886
2.53098
2.53326
2.53576
2.5385
2.54154
2.54491
2.54862
2.5527
2.55715
2.56196
2.56711
2.49643
2.49959
2.50255
2.50529
2.50783
2.51015
2.51228
2.51423
2.51604
2.51774
2.51936
2.52097
2.52258
2.52428
2.5261
2.5281
2.53033
2.53284
2.53567
2.53886
2.54244
2.54643
2.55082
2.55563
2.56081
2.56634
2.49929
2.50207
2.5046
2.50689
2.50893
2.51075
2.51238
2.51383
2.51515
2.51639
2.51759
2.51882
2.52012
2.52155
2.52317
2.52504
2.52721
2.52974
2.53266
2.53601
2.53982
2.54408
2.54881
2.55399
2.55957
2.5655
2.5022
2.50458
2.50667
2.50848
2.51003
2.51133
2.51243
2.51337
2.5142
2.51498
2.51575
2.51657
2.51753
2.51869
2.52009
2.52182
2.52392
2.52645
2.52945
2.53295
2.53698
2.54153
2.5466
2.55215
2.55814
2.56449
2.5052
2.50716
2.50879
2.51011
2.51115
2.51194
2.51252
2.51294
2.51326
2.51355
2.51386
2.51428
2.51487
2.51572
2.51688
2.51844
2.52044
2.52295
2.52601
2.52965
2.53389
2.53872
2.54412
2.55005
2.55644
2.56322
2.5083
2.50983
2.511
2.51183
2.51236
2.51262
2.51267
2.51257
2.51237
2.51214
2.51199
2.51197
2.51217
2.51267
2.51356
2.51491
2.51678
2.51924
2.52233
2.52608
2.5305
2.53558
2.5413
2.5476
2.55439
2.5616
2.51151
2.51262
2.51333
2.51368
2.5137
2.51346
2.51296
2.51231
2.51157
2.51083
2.51017
2.50969
2.50947
2.5096
2.51014
2.51123
2.51293
2.51529
2.51837
2.52218
2.52675
2.53206
2.53807
2.54472
2.55192
2.55954
2.51487
2.51555
2.51582
2.5157
2.51523
2.51445
2.51341
2.5122
2.51092
2.50964
2.50846
2.50748
2.50679
2.50649
2.50666
2.5074
2.50886
2.51107
2.51408
2.51792
2.52259
2.52809
2.53437
2.54135
2.54893
2.55697
2.5184
2.51868
2.51853
2.51794
2.51697
2.51565
2.51406
2.5123
2.51045
2.50861
2.50687
2.50534
2.50413
2.50335
2.5031
2.50345
2.50455
2.50654
2.50942
2.51322
2.51796
2.52361
2.53013
2.53742
2.54537
2.55382
2.52213
2.52204
2.52148
2.52042
2.51895
2.5171
2.51498
2.51265
2.51022
2.50778
2.50544
2.50331
2.50151
2.50017
2.49941
2.49933
2.50001
2.50165
2.50432
2.50803
2.51278
2.51854
2.52526
2.53285
2.54116
2.55003
2.52609
2.52567
2.5247
2.52319
2.52123
2.51886
2.51618
2.51328
2.51023
2.50715
2.50416
2.50137
2.49892
2.49694
2.49558
2.49496
2.49518
2.49636
2.49871
2.50226
2.50696
2.51279
2.51968
2.52755
2.53623
2.54554
2.53035
2.5296
2.52823
2.5263
2.52385
2.52097
2.51773
2.5142
2.51051
2.50674
2.50304
2.49952
2.49633
2.49363
2.49156
2.49029
2.48996
2.49062
2.4925
2.49581
2.50038
2.50624
2.5133
2.52144
2.5305
2.54027
2.53494
2.53387
2.53214
2.52979
2.52688
2.52346
2.51963
2.51547
2.51107
2.50656
2.50207
2.49774
2.49372
2.49018
2.4873
2.48525
2.48421
2.48431
2.48561
2.4885
2.4929
2.49874
2.50595
2.51438
2.52387
2.53416
2.5399
2.53856
2.53649
2.53373
2.53035
2.52639
2.52193
2.51708
2.51193
2.5066
2.50124
2.49599
2.49103
2.48654
2.48271
2.47974
2.47784
2.47719
2.47788
2.48018
2.48431
2.49011
2.49747
2.50624
2.51623
2.52714
2.5453
2.54373
2.54135
2.53819
2.53431
2.52978
2.52467
2.51906
2.51309
2.50685
2.50052
2.49424
2.4882
2.48261
2.47768
2.47363
2.47068
2.46909
2.46906
2.47064
2.47438
2.48005
2.48759
2.49684
2.50744
2.5191
2.55122
2.54945
2.54677
2.54321
2.53883
2.53369
2.52786
2.52144
2.51454
2.5073
2.49986
2.49241
2.48516
2.47831
2.47209
2.46676
2.46254
2.4598
2.45881
2.45967
2.46275
2.46836
2.47618
2.48594
2.49729
2.50987
2.55771
2.5558
2.55284
2.54887
2.54396
2.53815
2.53153
2.5242
2.51628
2.50791
2.49923
2.49047
2.48183
2.47357
2.46586
2.45909
2.45327
2.44913
2.44691
2.44697
2.44926
2.4546
2.46286
2.47341
2.4857
2.49941
2.56487
2.56284
2.55962
2.55523
2.54974
2.5432
2.53571
2.52735
2.51829
2.50859
2.49859
2.48832
2.47826
2.46831
2.45912
2.45071
2.44311
2.43742
2.43374
2.43258
2.43418
2.43868
2.4472
2.45888
2.47233
2.48755
2.57277
2.57066
2.56717
2.56233
2.55621
2.54887
2.54039
2.5309
2.52051
2.50944
2.49783
2.48603
2.4745
2.46281
2.45209
2.44207
2.4317
2.42483
2.41961
2.41672
2.41749
2.42072
2.43044
2.44291
2.45762
2.47479
2.58144
2.57928
2.57552
2.5702
2.56338
2.55514
2.54557
2.53479
2.52299
2.51035
2.4972
2.48389
2.47047
2.45749
2.44379
2.43043
2.41798
2.40814
2.40111
2.39782
2.39771
2.39981
2.40862
2.42411
2.44002
2.46082
2.59092
2.58872
2.58466
2.57881
2.57122
2.56198
2.55117
2.539
2.5257
2.5116
2.49648
2.48183
2.46521
2.44811
2.43282
2.41944
2.40567
2.3925
2.38167
2.3742
2.37129
2.37311
2.38132
2.39646
2.41873
2.44174
2.60114
2.59887
2.59448
2.58805
2.57962
2.56927
2.55711
2.54352
2.52879
2.51303
2.49515
2.47707
2.46072
2.44309
2.42435
2.40609
2.38775
2.37095
2.35754
2.34806
2.34377
2.34568
2.3542
2.37078
2.39401
2.42171
2.61187
2.60953
2.60478
2.59771
2.58836
2.57682
2.56331
2.54831
2.53185
2.51265
2.49489
2.47544
2.45462
2.43294
2.4112
2.39045
2.37117
2.35288
2.3372
2.32671
2.32097
2.32251
2.33192
2.34819
2.37231
2.40328
2.62277
2.62034
2.61521
2.60747
2.59717
2.58449
2.56959
2.55171
2.53244
2.51365
2.49217
2.46917
2.44591
2.42287
2.40011
2.37848
2.35945
2.33874
2.32081
2.30795
2.30236
2.30442
2.31317
2.33047
2.35579
2.38848
2.63338
2.63085
2.62536
2.617
2.60586
2.59211
2.5749
2.55645
2.53458
2.51173
2.48757
2.46306
2.43865
2.41484
2.39125
2.36912
2.34573
2.32618
2.3095
2.29596
2.28914
2.29144
2.30138
2.31927
2.34624
2.3802
2.64315
2.64051
2.63476
2.62597
2.61392
2.59816
2.58052
2.55796
2.53378
2.50881
2.48333
2.45783
2.43333
2.41071
2.38681
2.36429
2.34232
2.32167
2.30294
2.28864
2.28185
2.2841
2.29508
2.31548
2.34355
2.37678
2.65165
2.64896
2.64304
2.63377
2.61924
2.60331
2.58239
2.55855
2.53292
2.50631
2.47985
2.4547
2.43133
2.40678
2.38604
2.36443
2.34273
2.32191
2.30275
2.28993
2.28473
2.2878
2.29916
2.31864
2.34593
2.3778
2.65866
2.65595
2.64937
2.64098
2.62561
2.60663
2.58424
2.55901
2.53192
2.50443
2.47818
2.45522
2.42895
2.40885
2.38837
2.36685
2.34595
2.32648
2.30968
2.29868
2.29469
2.29718
2.30806
2.32759
2.35147
2.37919
2.66366
2.66008
2.65561
2.64481
2.62903
2.60952
2.58602
2.55959
2.53166
2.50405
2.47857
2.45422
2.43274
2.41218
2.391
2.37034
2.35045
2.33265
2.3175
2.30807
2.30459
2.30754
2.31778
2.33473
2.35636
2.38086
2.66501
2.6651
2.65951
2.64809
2.63238
2.61217
2.58797
2.5609
2.53255
2.50527
2.48134
2.4583
2.43464
2.41453
2.39375
2.37369
2.35505
2.3383
2.32488
2.31653
2.31388
2.31691
2.32596
2.34069
2.35937
2.38078
2.66744
2.66707
2.66117
2.65036
2.6349
2.61472
2.59039
2.56301
2.5346
2.50754
2.48411
2.46105
2.43645
2.41701
2.39678
2.37696
2.35889
2.34312
2.33066
2.32298
2.32049
2.32291
2.33059
2.3431
2.35939
2.37873
2.66759
2.66787
2.66171
2.65154
2.63676
2.61736
2.5939
2.56739
2.53943
2.51223
2.48707
2.46244
2.44203
2.42048
2.40027
2.37945
2.36154
2.34605
2.3337
2.3259
2.32333
2.3254
2.33249
2.34449
2.35952
2.37522
2.66753
2.66673
2.66126
2.65173
2.63805
2.62013
2.5983
2.57318
2.54599
2.51848
2.49279
2.46511
2.44643
2.42355
2.40219
2.38166
2.36302
2.34672
2.33466
2.32671
2.32437
2.32619
2.33252
2.34372
2.35571
2.37107
2.66542
2.66465
2.65995
2.65113
2.6386
2.62243
2.60265
2.57979
2.55456
2.5282
2.50181
2.47702
2.45288
2.42857
2.40614
2.38482
2.36517
2.34743
2.33651
2.32677
2.32426
2.32659
2.33133
2.34037
2.35144
2.3646
2.6623
2.66193
2.65807
2.65029
2.63893
2.62413
2.60629
2.58549
2.56226
2.53743
2.51177
2.48594
2.46052
2.43519
2.41097
2.38826
2.36747
2.34928
2.33561
2.3271
2.32401
2.32463
2.32891
2.33642
2.34633
2.35788
2.65914
2.65942
2.6564
2.64975
2.63962
2.62624
2.60984
2.59072
2.56917
2.54566
2.5207
2.49488
2.4686
2.44229
2.41671
2.39241
2.37003
2.3502
2.33502
2.32526
2.32174
2.32155
2.3249
2.33152
2.34054
2.35108
2.65679
2.65754
2.65529
2.64962
2.64069
2.6286
2.61351
2.59571
2.57542
2.55292
2.52855
2.50271
2.47585
2.44858
2.42162
2.39567
2.3716
2.35009
2.33267
2.32235
2.3177
2.31679
2.31952
2.32559
2.33411
2.34412
2.65541
2.65656
2.655
2.65018
2.64226
2.63132
2.61744
2.60076
2.58148
2.55977
2.53582
2.50993
2.48254
2.45426
2.42584
2.39813
2.37205
2.34855
2.32909
2.31722
2.3116
2.31011
2.31249
2.31834
2.32681
2.3368
2.65504
2.65652
2.65558
2.65152
2.64444
2.63438
2.62142
2.60564
2.58712
2.56596
2.54223
2.51616
2.48812
2.45871
2.4287
2.39904
2.37076
2.34501
2.32319
2.3095
2.30285
2.30101
2.30317
2.30926
2.31823
2.32883
2.65531
2.65728
2.65692
2.65355
2.64718
2.63783
2.62553
2.61034
2.59229
2.57138
2.54764
2.52119
2.49232
2.46159
2.4298
2.39798
2.36723
2.33894
2.31456
2.29867
2.29061
2.2886
2.29089
2.29768
2.3078
2.3198
2.6561
2.65865
2.65897
2.65625
2.65044
2.64162
2.62976
2.61488
2.59697
2.57598
2.5519
2.52475
2.49479
2.46251
2.42869
2.39442
2.36091
2.32971
2.3029
2.28334
2.27439
2.27203
2.27461
2.2827
2.29483
2.30917