/*--------------------------------*- C++ -*----------------------------------*\
  =========                 |
  \\      /  F ield         | OpenFOAM: The Open Source CFD Toolbox
   \\    /   O peration     | Website:  https://openfoam.org
    \\  /    A nd           | Version:  10
     \\/     M anipulation  |
\*---------------------------------------------------------------------------*/
FoamFile
{
    format      ascii;
    class       volScalarField;
    location    "0.399873";
    object      rho;
}
// * * * * * * * * * * * * * * * * * * * * * * * * * * * * * * * * * * * * * //

dimensions      [1 -3 0 0 0 0 0];

internalField   nonuniform List<scalar> 
15708
(
0.990457
0.989326
0.988383
0.987529
0.986798
0.986124
0.985529
0.984975
0.984393
0.983922
0.983367
0.982944
0.982559
0.982252
0.982056
0.981921
0.981905
0.981955
0.982066
0.982237
0.982431
0.982717
0.982857
0.983213
0.983392
0.983542
0.983715
0.983788
0.983907
0.983957
0.984005
0.984085
0.98411
0.984202
0.984315
0.98444
0.984674
0.984974
0.98529
0.985721
0.986222
0.98679
0.98745
0.98819
0.989018
0.989897
0.990872
0.991888
0.992963
0.994064
0.99521
0.989442
0.988151
0.98709
0.986153
0.985355
0.984739
0.984145
0.983736
0.98326
0.982925
0.982596
0.982367
0.982182
0.982108
0.982082
0.982122
0.982226
0.982392
0.982598
0.982812
0.983032
0.983254
0.983449
0.983635
0.983777
0.98385
0.983926
0.983942
0.983934
0.983946
0.983943
0.98396
0.984005
0.984099
0.984222
0.984413
0.984688
0.985033
0.985494
0.985961
0.9866
0.987232
0.98802
0.98884
0.989734
0.990695
0.99171
0.992743
0.993845
0.994927
0.996052
0.988328
0.986897
0.985717
0.984707
0.983902
0.983267
0.982786
0.982435
0.982153
0.981984
0.981876
0.981872
0.981927
0.982066
0.982276
0.982516
0.982785
0.983076
0.983383
0.983615
0.983902
0.984068
0.984243
0.984362
0.984419
0.984397
0.984364
0.984296
0.984223
0.984143
0.984101
0.984071
0.984104
0.984181
0.984343
0.984565
0.984907
0.985298
0.985863
0.986417
0.987137
0.987862
0.988701
0.989636
0.990598
0.991596
0.99265
0.993697
0.994796
0.995847
0.996914
0.98716
0.985618
0.984326
0.983265
0.982441
0.981826
0.981445
0.981209
0.981118
0.981144
0.981269
0.981508
0.981816
0.982197
0.982633
0.98308
0.983565
0.983965
0.984369
0.984675
0.984978
0.985158
0.985278
0.985309
0.985282
0.985193
0.985042
0.984886
0.984747
0.984596
0.984486
0.984424
0.984421
0.984497
0.984679
0.984962
0.985302
0.985787
0.986368
0.987041
0.987804
0.988663
0.989561
0.990532
0.991542
0.992592
0.993654
0.994731
0.995757
0.996807
0.997769
0.98598
0.98431
0.982932
0.981818
0.981
0.980445
0.98014
0.980063
0.980145
0.980387
0.98078
0.981259
0.981854
0.982533
0.983169
0.983913
0.984431
0.985198
0.985573
0.985962
0.986307
0.986463
0.986548
0.986513
0.986414
0.986226
0.986003
0.985743
0.985496
0.985285
0.985111
0.985012
0.984989
0.985054
0.985247
0.985526
0.985946
0.986466
0.987084
0.987825
0.988672
0.989522
0.990569
0.991541
0.992599
0.993673
0.994726
0.995766
0.996792
0.99774
0.998707
0.984788
0.982979
0.981547
0.980404
0.979625
0.979102
0.978919
0.978953
0.979268
0.979714
0.98033
0.981175
0.982004
0.982976
0.983895
0.984865
0.985668
0.986426
0.987099
0.987511
0.987893
0.988052
0.988062
0.988019
0.98782
0.987544
0.987204
0.986886
0.986527
0.986234
0.986013
0.985845
0.985794
0.98586
0.986046
0.98634
0.986784
0.987323
0.987999
0.988781
0.989652
0.990652
0.991608
0.99268
0.993765
0.994785
0.995851
0.996856
0.99785
0.99873
0.999615
0.983567
0.981709
0.980236
0.97905
0.978286
0.977828
0.977729
0.977983
0.978375
0.979203
0.980066
0.981157
0.982409
0.983479
0.985047
0.98582
0.987252
0.987925
0.988797
0.9893
0.989727
0.989882
0.989913
0.989773
0.9895
0.989149
0.988743
0.988267
0.987872
0.987494
0.987189
0.98698
0.986867
0.986888
0.98705
0.987368
0.987813
0.988398
0.98911
0.989895
0.99083
0.991809
0.992815
0.993927
0.994938
0.996022
0.997036
0.998019
0.99892
0.999765
1.00048
0.982476
0.980467
0.97893
0.977756
0.976995
0.976643
0.976638
0.977029
0.977665
0.978709
0.979947
0.981356
0.982779
0.984621
0.985692
0.987836
0.988306
0.99013
0.99049
0.991488
0.991823
0.992052
0.992002
0.99179
0.991498
0.991
0.990557
0.990005
0.989493
0.989036
0.988645
0.988379
0.988215
0.988187
0.988367
0.98862
0.989066
0.989648
0.99039
0.991197
0.992132
0.993064
0.994184
0.995203
0.996262
0.997292
0.998251
0.999205
1.00001
1.00078
1.00147
0.981433
0.979278
0.977802
0.976505
0.975876
0.975526
0.975632
0.976194
0.977161
0.978338
0.979907
0.981676
0.983539
0.985443
0.987292
0.988992
0.99066
0.991832
0.99298
0.993682
0.99419
0.99438
0.994398
0.994148
0.993753
0.993317
0.992622
0.992056
0.991431
0.990889
0.990426
0.990049
0.989842
0.989744
0.989856
0.990102
0.990548
0.991131
0.991776
0.992663
0.993516
0.994542
0.995556
0.996605
0.997626
0.998637
0.999577
1.00037
1.00126
1.00179
1.00245
0.980405
0.978298
0.976591
0.97548
0.974757
0.974527
0.974852
0.975391
0.976718
0.978159
0.980094
0.982178
0.984353
0.986741
0.988808
0.990838
0.992672
0.994189
0.995371
0.996297
0.996822
0.99708
0.997078
0.996768
0.996389
0.995765
0.995144
0.994359
0.993679
0.993068
0.992423
0.992082
0.991692
0.991572
0.991577
0.991818
0.992153
0.99268
0.993401
0.994148
0.995091
0.996026
0.99705
0.998024
0.999084
0.999986
1.00093
1.00165
1.00236
1.00301
1.00336
0.979472
0.977397
0.975651
0.974541
0.973802
0.973747
0.974039
0.974964
0.976342
0.978202
0.980459
0.98291
0.985326
0.988357
0.990094
0.99363
0.994508
0.997071
0.997996
0.999074
0.999727
1.00006
0.999993
0.999773
0.999238
0.998624
0.997831
0.997028
0.996295
0.995409
0.994845
0.994232
0.993873
0.993601
0.993539
0.993653
0.993947
0.99446
0.995067
0.995811
0.996702
0.997674
0.998573
0.999591
1.00056
1.0014
1.00228
1.00303
1.00355
1.00416
1.00447
0.978721
0.976573
0.974892
0.973692
0.973128
0.973009
0.97351
0.974654
0.976226
0.978382
0.980954
0.983803
0.986734
0.989695
0.992696
0.995091
0.997621
0.999532
1.00102
1.00222
1.00292
1.0033
1.0033
1.00296
1.00249
1.00168
1.0009
0.999969
0.999028
0.998223
0.99737
0.996746
0.996179
0.995869
0.995668
0.995695
0.995862
0.996335
0.996851
0.997561
0.998391
0.999282
1.0002
1.00115
1.00202
1.00291
1.00362
1.00435
1.00487
1.00531
1.00555
0.978171
0.975982
0.974366
0.973069
0.97263
0.97258
0.973217
0.974436
0.976359
0.97876
0.981751
0.984933
0.98821
0.991742
0.994644
0.997976
1.00015
1.00268
1.00423
1.00568
1.00627
1.00677
1.00675
1.00651
1.00587
1.00516
1.00418
1.00316
1.00215
1.00114
1.00013
0.9995
0.998619
0.998304
0.99794
0.997832
0.99793
0.998247
0.998745
0.999344
1.00014
1.00095
1.00182
1.00269
1.00357
1.00433
1.0051
1.00566
1.00622
1.0065
1.00675
0.977761
0.975748
0.973893
0.972866
0.972212
0.972415
0.973021
0.974577
0.976659
0.979477
0.982549
0.98641
0.989941
0.993732
0.997214
1.00061
1.00334
1.00579
1.0078
1.00904
1.01014
1.01045
1.01052
1.0102
1.00964
1.0087
1.00773
1.00655
1.00547
1.00422
1.00329
1.00212
1.0015
1.00072
1.00029
1.00007
1.00005
1.0002
1.0006
1.00117
1.00184
1.00268
1.00346
1.00428
1.00511
1.00585
1.00652
1.0071
1.0075
1.00783
1.00792
0.977818
0.975488
0.973906
0.972757
0.972183
0.972424
0.973232
0.974771
0.977202
0.980332
0.983873
0.98782
0.991973
0.995956
1.00001
1.00344
1.00665
1.00933
1.01125
1.01303
1.0138
1.01445
1.01446
1.01419
1.01345
1.01262
1.01141
1.01022
1.00882
1.00762
1.00631
1.0052
1.00424
1.00321
1.0028
1.00229
1.00209
1.00216
1.00246
1.00287
1.00349
1.00422
1.00503
1.00583
1.00662
1.00736
1.00804
1.00856
1.00892
1.00916
1.00926
0.978034
0.975735
0.974014
0.972923
0.972376
0.972605
0.973702
0.975185
0.978134
0.981264
0.985489
0.989508
0.994271
0.998484
1.00284
1.00661
1.01012
1.01282
1.01521
1.01683
1.01793
1.0185
1.01857
1.01825
1.0176
1.01658
1.0153
1.01389
1.01255
1.01092
1.00956
1.00819
1.00694
1.00586
1.00505
1.00449
1.00417
1.00404
1.00423
1.00447
1.00522
1.00566
1.00654
1.00734
1.00807
1.00883
1.00947
1.01002
1.01039
1.01063
1.01068
0.978537
0.976288
0.974522
0.973371
0.972878
0.97316
0.974273
0.976158
0.978776
0.983102
0.986527
0.992151
0.996144
1.00141
1.00577
1.01003
1.01351
1.01671
1.01914
1.02084
1.02212
1.02271
1.02277
1.02252
1.02171
1.02065
1.01931
1.01768
1.01617
1.01439
1.01277
1.01115
1.00971
1.00836
1.0074
1.00653
1.00602
1.00577
1.00584
1.00602
1.0065
1.00717
1.00793
1.00878
1.0095
1.01036
1.01091
1.01156
1.01194
1.01212
1.01218
0.979422
0.977117
0.975346
0.974121
0.973601
0.973859
0.975089
0.977144
0.980265
0.984057
0.988986
0.993654
0.999174
1.00411
1.00889
1.01348
1.01727
1.02051
1.02312
1.02513
1.02632
1.02706
1.02711
1.02674
1.026
1.02477
1.02316
1.02166
1.0197
1.0178
1.016
1.01392
1.01237
1.01078
1.00944
1.00848
1.00769
1.00729
1.00717
1.00742
1.00772
1.00847
1.0092
1.01007
1.01093
1.0117
1.01258
1.01303
1.01353
1.01369
1.01376
0.980658
0.978349
0.976327
0.975237
0.974521
0.974843
0.976037
0.978242
0.981581
0.985877
0.99065
0.996287
1.00155
1.00717
1.01224
1.01686
1.02106
1.02446
1.02716
1.02931
1.03062
1.0313
1.03149
1.03101
1.03017
1.0289
1.02712
1.02539
1.0233
1.02117
1.01885
1.01683
1.01474
1.01293
1.01139
1.01009
1.00915
1.00852
1.0083
1.00833
1.00902
1.00948
1.01039
1.01133
1.01226
1.01311
1.01389
1.01463
1.01513
1.01544
1.0155
0.982768
0.98005
0.978002
0.976515
0.975754
0.976051
0.977099
0.979599
0.982985
0.987313
0.993193
0.997932
1.00475
1.00983
1.01566
1.02043
1.02477
1.02839
1.03121
1.03339
1.03487
1.03556
1.03578
1.03532
1.03435
1.0329
1.03111
1.02896
1.02684
1.02421
1.02185
1.0194
1.01701
1.01488
1.01296
1.01138
1.01025
1.00947
1.00902
1.00905
1.00933
1.01022
1.01116
1.01213
1.01328
1.01447
1.01544
1.01626
1.01684
1.01723
1.01734
0.984603
0.981676
0.979636
0.977869
0.977055
0.976972
0.978549
0.980492
0.984455
0.98917
0.994525
1.00114
1.00671
1.01309
1.0186
1.02397
1.02844
1.03244
1.03536
1.03772
1.03906
1.03989
1.03992
1.03953
1.03835
1.03684
1.03486
1.03258
1.02988
1.02742
1.02437
1.02168
1.01892
1.01639
1.01405
1.01215
1.01077
1.00974
1.0092
1.00922
1.00953
1.01045
1.01189
1.01329
1.01444
1.0158
1.01688
1.01798
1.01867
1.01931
1.01953
0.986951
0.984129
0.981173
0.979581
0.978172
0.978363
0.978884
0.982065
0.984954
0.990735
0.996038
1.00282
1.0095
1.016
1.02196
1.02724
1.03199
1.03591
1.03909
1.04148
1.04301
1.04387
1.04396
1.04349
1.04231
1.04062
1.03842
1.0358
1.0332
1.0299
1.02688
1.02363
1.02051
1.01742
1.0147
1.01237
1.01055
1.00942
1.00876
1.00853
1.00946
1.01028
1.01177
1.01369
1.01533
1.01701
1.01842
1.01961
1.02043
1.02108
1.02145
0.989862
0.986213
0.983654
0.980818
0.979593
0.97905
0.979789
0.981681
0.98624
0.990521
0.997476
1.00359
1.01073
1.01792
1.02457
1.0304
1.03552
1.03975
1.04308
1.04553
1.04717
1.04796
1.04802
1.04739
1.04603
1.04423
1.04172
1.03902
1.03576
1.03244
1.02887
1.025
1.02144
1.01787
1.01459
1.0119
1.00982
1.00838
1.00747
1.00763
1.00775
1.00943
1.01113
1.01294
1.01483
1.01698
1.01936
1.02138
1.0228
1.02375
1.02426
0.992116
0.988604
0.98453
0.982398
0.980422
0.98027
0.980739
0.985013
0.985281
0.993092
0.997962
1.00535
1.0126
1.01974
1.02702
1.0334
1.03871
1.04294
1.04643
1.04892
1.05068
1.05154
1.05165
1.05095
1.0496
1.04761
1.04477
1.04181
1.03844
1.03398
1.03091
1.02491
1.02273
1.01725
1.01478
1.0115
1.00965
1.0088
1.00787
1.00739
1.00781
1.00987
1.01069
1.01322
1.01563
1.01741
1.01958
1.02173
1.02372
1.02525
1.02616
0.994496
0.99181
0.98905
0.990539
0.987825
0.991364
0.992402
0.989002
1.00017
1.00035
1.00509
1.00924
1.01492
1.02111
1.02726
1.03385
1.04046
1.04585
1.04979
1.05248
1.05427
1.05515
1.05514
1.05444
1.05288
1.05051
1.04778
1.04406
1.0406
1.035
1.03246
1.02549
1.02603
1.0193
1.02169
1.02549
1.02949
1.03341
1.0314
1.03207
1.02448
1.01979
1.02482
1.0176
1.0175
1.01918
1.02083
1.02321
1.02565
1.02761
1.02881
1.0018
1.01054
1.02415
1.04015
1.06154
1.09058
1.08763
1.09431
1.07758
1.05629
1.03697
1.0286
1.02636
1.02849
1.0323
1.03729
1.04253
1.04785
1.05219
1.05542
1.05749
1.05846
1.05845
1.05764
1.05595
1.05334
1.05022
1.04565
1.04269
1.03633
1.03709
1.03085
1.04904
1.05235
1.08389
1.1382
1.18358
1.22664
1.25193
1.23217
1.23121
1.15542
1.07451
1.05718
1.03959
1.02871
1.02502
1.02581
1.02812
1.03035
1.03176
1.07074
1.1488
1.27831
1.38955
1.50104
1.57166
1.57291
1.51123
1.5223
1.40341
1.26463
1.13484
1.06718
1.04075
1.03664
1.04014
1.04494
1.0501
1.05467
1.05804
1.06023
1.06122
1.0613
1.06051
1.05866
1.0556
1.05224
1.04773
1.04735
1.04609
1.06603
1.08804
1.17993
1.31398
1.47637
1.62854
1.70676
1.784
1.79938
1.77316
1.7444
1.58809
1.51137
1.21538
1.08095
1.04177
1.03144
1.02912
1.03044
1.03278
1.03456
1.52941
1.69914
1.79881
1.84368
1.86614
1.86446
1.86236
1.8223
1.82715
1.70373
1.69518
1.46158
1.19937
1.08683
1.05308
1.04536
1.04768
1.05234
1.05686
1.06038
1.06279
1.0638
1.06392
1.06286
1.06051
1.05766
1.0552
1.05813
1.07998
1.12197
1.24961
1.47944
1.69923
1.83647
1.89923
1.91891
1.92361
1.92645
1.92476
1.91706
1.90871
1.84424
1.77578
1.55067
1.25143
1.09687
1.04675
1.03312
1.03293
1.03524
1.03739
1.92301
1.94014
1.92971
1.90871
1.88454
1.85248
1.83805
1.82316
1.82169
1.78727
1.80353
1.65542
1.44485
1.17622
1.07779
1.05277
1.05046
1.05438
1.05868
1.06239
1.06474
1.06598
1.06589
1.06453
1.06231
1.06448
1.07811
1.13369
1.30269
1.56365
1.80791
1.93744
1.96705
1.96463
1.93957
1.91121
1.87391
1.86082
1.84583
1.85138
1.86727
1.86232
1.83442
1.71131
1.399
1.12893
1.04837
1.03443
1.03438
1.03796
1.04093
1.97681
1.94218
1.89127
1.79242
1.73551
1.63742
1.60743
1.62138
1.69413
1.7499
1.7657
1.73075
1.54028
1.23308
1.0945
1.05575
1.05162
1.05535
1.0601
1.06384
1.06635
1.06738
1.06703
1.06579
1.07249
1.12366
1.25563
1.59871
1.8837
1.995
2.01617
1.9997
1.95585
1.88305
1.79079
1.6985
1.63375
1.59587
1.6106
1.66354
1.73179
1.80015
1.81274
1.69976
1.36603
1.10637
1.04279
1.03347
1.03682
1.04086
1.04355
1.91855
1.81091
1.67446
1.52065
1.3923
1.29418
1.29137
1.32127
1.43021
1.60826
1.72822
1.70118
1.50867
1.20692
1.08471
1.05302
1.05099
1.0559
1.06087
1.06454
1.06684
1.0677
1.06723
1.08354
1.18646
1.5539
1.85603
2.04848
2.06626
2.03868
1.98647
1.88934
1.75659
1.60486
1.4453
1.32307
1.25973
1.25839
1.28273
1.35095
1.55944
1.76639
1.78768
1.6028
1.26821
1.06087
1.03202
1.03384
1.03905
1.04374
1.05067
1.74041
1.55019
1.32688
1.16472
1.09664
1.09669
1.11369
1.17131
1.39383
1.61268
1.68602
1.66538
1.37927
1.14129
1.06017
1.04617
1.0496
1.05577
1.06097
1.06457
1.066
1.06547
1.09602
1.3165
1.8029
2.06803
2.08946
2.07298
2.03203
1.94776
1.81249
1.63121
1.42052
1.23005
1.13289
1.11884
1.1293
1.16108
1.2735
1.42166
1.62877
1.73315
1.61859
1.57051
1.06375
1.03895
1.02845
1.0349
1.04156
1.05599
1.11543
1.47556
1.20693
1.07792
1.04128
1.04294
1.08124
1.16062
1.32025
1.50116
1.60517
1.6133
1.4617
1.17623
1.06413
1.04037
1.04227
1.04897
1.05541
1.05962
1.06242
1.06918
1.13864
1.55196
1.98788
2.09665
2.09749
2.0768
2.02373
1.91925
1.75403
1.53574
1.29027
1.1163
1.06769
1.07128
1.11459
1.19821
1.32056
1.43231
1.54729
1.59476
1.59886
1.63425
1.04077
1.04496
1.0251
1.03204
1.04483
1.06598
1.14251
1.44255
1.18766
1.06739
1.02868
1.03363
1.08518
1.18823
1.31796
1.41572
1.47563
1.5015
1.3703
1.15791
1.06009
1.02959
1.03409
1.04035
1.04783
1.05452
1.06269
1.09704
1.27755
1.77766
2.04932
2.10295
2.10028
2.07837
2.02048
1.90866
1.73059
1.48909
1.25391
1.06574
1.03971
1.04977
1.09036
1.19172
1.31657
1.39012
1.45959
1.48619
1.49348
1.44966
1.01913
1.02902
1.02125
1.02833
1.03218
1.06454
1.16803
1.50688
1.93341
1.09106
1.02907
1.02751
1.04907
1.11274
1.18549
1.24893
1.28026
1.28764
1.20206
1.08637
1.0212
1.0247
1.02163
1.0314
1.04018
1.04902
1.06778
1.13792
1.41218
1.87222
2.06625
2.10286
2.10063
2.08075
2.02752
1.92365
1.75587
1.52874
1.28609
1.05141
1.05058
1.03007
1.04347
1.10153
1.17013
1.23988
1.28781
1.29752
1.26168
1.1724
0.997422
1.01785
1.01001
1.02625
1.02821
1.09851
1.22569
1.6075
1.96905
2.01557
1.04136
1.02808
1.01617
1.02487
1.04478
1.08044
1.07655
1.08374
1.06701
1.00868
1.01994
1.00268
1.01526
1.02325
1.03212
1.04675
1.08272
1.19246
1.56472
1.93384
2.06256
2.09925
2.0984
2.08385
2.04141
1.95799
1.81953
1.62073
1.38194
1.15309
1.06686
1.0206
1.0156
1.02101
1.03535
1.06081
1.07498
1.07882
1.07592
1.04315
0.998506
1.00642
1.01255
1.02573
1.03902
1.13214
1.23972
1.65637
2.00708
2.00581
2.07936
1.05123
1.02089
1.01255
1.00556
1.00893
1.00548
1.00523
1.00304
0.988887
0.995949
0.999939
1.00465
1.01665
1.02857
1.05897
1.12536
1.30364
1.77506
1.92948
2.07487
2.08609
2.09377
2.0852
2.05941
2.00374
1.90747
1.75622
1.55425
1.33016
1.12778
1.02278
1.02726
1.00792
1.00191
1.00043
1.004
1.00101
1.00156
0.996603
0.995474
0.997342
1.00806
1.01906
1.04897
1.17028
1.45998
1.92791
1.82458
2.04826
2.05719
2.08676
1.05758
1.023
1.0127
0.999878
0.994037
0.989671
0.987867
0.987703
0.98969
0.995556
1.00311
1.01601
1.04138
1.09233
1.20446
1.5302
1.93305
1.94976
2.06411
2.07736
2.08557
2.08309
2.0705
2.03921
1.98103
1.8808
1.72617
1.52368
1.29782
1.12232
1.02658
1.02056
1.01019
1.00083
0.994505
0.993713
0.995544
0.994777
0.999517
1.00526
1.01882
1.04591
1.11977
1.31394
1.5419
1.86254
1.88415
1.9943
2.06951
2.07621
2.08914
1.06854
1.03553
1.02233
1.0085
0.996682
0.994847
0.995207
0.994737
1.00097
1.01365
1.03859
1.08819
1.20098
1.45484
1.80554
1.86709
2.02571
2.02902
2.06854
2.0742
2.07666
2.07102
2.05714
2.02807
1.97406
1.88459
1.75166
1.57427
1.3736
1.18894
1.03293
1.03858
1.01515
1.0109
1.00354
1.00255
1.00395
1.00987
1.0209
1.04427
1.10212
1.24542
1.49621
1.65194
1.89287
1.9254
2.04768
2.03697
2.07443
2.08295
2.08902
1.16771
1.08597
1.0388
1.03227
1.01882
1.01456
1.02052
1.03558
1.06642
1.13005
1.26452
1.48263
1.7166
1.83947
1.97158
1.98408
2.03934
2.04991
2.0618
2.06612
2.06565
2.06047
2.05045
2.02596
1.9836
1.91406
1.80787
1.66194
1.4849
1.30027
1.16081
1.04201
1.05884
1.03623
1.03486
1.03389
1.04922
1.08002
1.14237
1.27466
1.46716
1.67129
1.75767
1.95207
1.93673
2.03556
2.0437
2.06576
2.07722
2.08346
2.08693
1.49387
1.27937
1.17251
1.12979
1.13004
1.1251
1.17885
1.26739
1.40259
1.56617
1.72339
1.84621
1.93956
1.95235
2.00816
2.01927
2.03993
2.0471
2.05331
2.05597
2.0555
2.05243
2.04492
2.02762
1.9984
1.95032
1.87789
1.77497
1.64445
1.49613
1.35238
1.25863
1.15867
1.1699
1.15849
1.18912
1.26172
1.38121
1.51476
1.65813
1.78437
1.88381
1.943
1.98185
2.01215
2.04602
2.05768
2.07007
2.07787
2.08115
2.08638
1.82396
1.70151
1.58697
1.5483
1.51634
1.53221
1.59333
1.68917
1.79422
1.86362
1.91947
1.96491
1.97398
2.00446
2.01315
2.02608
2.03388
2.03904
2.04325
2.04582
2.04645
2.04517
2.04022
2.02915
2.01099
1.98167
1.93751
1.87507
1.79446
1.70004
1.60435
1.54034
1.47722
1.48324
1.47826
1.53172
1.62069
1.72331
1.80377
1.87173
1.95735
1.95804
2.00517
2.01328
2.03769
2.05139
2.06274
2.06973
2.07646
2.0811
2.08492
2.00406
1.94674
1.90151
1.86256
1.84681
1.84481
1.87397
1.90844
1.93635
1.96438
1.96601
1.98719
1.99423
2.00644
2.01414
2.02064
2.02565
2.03073
2.03417
2.03719
2.03791
2.03827
2.0355
2.02904
2.01893
2.00247
1.97866
1.94517
1.90258
1.85296
1.80364
1.76368
1.75004
1.74298
1.75624
1.80013
1.86181
1.90927
1.9406
1.97273
1.99121
2.00704
2.01901
2.03262
2.04428
2.05383
2.06206
2.06878
2.07549
2.08006
2.08417
2.0738
2.04577
2.01542
1.99189
1.97459
1.96584
1.96839
1.97017
1.97461
1.98243
1.98445
1.9919
1.99816
2.00436
2.00912
2.01429
2.01868
2.02284
2.02631
2.02919
2.03056
2.03185
2.0307
2.02729
2.02225
2.01344
2.00141
1.98515
1.96506
1.94236
1.92355
1.90407
1.90361
1.89992
1.91457
1.94105
1.96631
1.98083
1.99308
2.0028
2.01014
2.01769
2.02626
2.03599
2.04368
2.05291
2.06008
2.06762
2.07407
2.07908
2.08332
2.09958
2.07501
2.04952
2.02816
2.00924
1.99795
1.991
1.98687
1.98613
1.98665
1.98864
1.99204
1.99612
2.00006
2.00418
2.00864
2.013
2.01619
2.01981
2.02255
2.02427
2.02616
2.02611
2.02499
2.02278
2.01846
2.013
2.00553
1.99684
1.98746
1.98068
1.97582
1.97445
1.97565
1.98583
1.99561
2.00289
2.00573
2.00935
2.01146
2.01504
2.01958
2.02696
2.03302
2.04126
2.04975
2.05757
2.06557
2.07222
2.07784
2.08319
2.11071
2.0874
2.06216
2.04061
2.02101
2.00748
1.99764
1.99196
1.98834
1.98758
1.9887
1.99063
1.99363
1.99694
2.00057
2.00428
2.00801
2.01103
2.01453
2.01734
2.01936
2.02135
2.02237
2.02273
2.02233
2.02079
2.01888
2.01628
2.01344
2.01052
2.0078
2.0075
2.00668
2.00915
2.01237
2.01446
2.01442
2.01309
2.01219
2.01208
2.01437
2.01687
2.02264
2.02843
2.03698
2.04538
2.05398
2.06265
2.06969
2.07666
2.08193
2.11805
2.09388
2.06975
2.04525
2.02706
2.01099
2.00081
1.99327
1.98969
1.98804
1.98844
1.98962
1.99203
1.99492
1.998
2.0013
2.00456
2.0076
2.01081
2.01364
2.01611
2.01798
2.01991
2.02134
2.02201
2.02232
2.02254
2.02233
2.02195
2.02186
2.0211
2.02128
2.02108
2.02195
2.02173
2.0206
2.01803
2.01478
2.0116
2.01015
2.01031
2.01128
2.01595
2.02166
2.03074
2.03901
2.04926
2.05798
2.06617
2.07287
2.07635
2.12355
2.10014
2.07365
2.05081
2.02978
2.01486
2.00252
1.99606
1.99112
1.98907
1.98879
1.98964
1.99145
1.99387
1.9967
1.99947
2.00262
2.00539
2.00847
2.01126
2.01401
2.01605
2.01829
2.02039
2.02223
2.02338
2.02487
2.02571
2.02681
2.02775
2.02776
2.02808
2.02776
2.0273
2.02542
2.02233
2.01804
2.01319
2.00808
2.00382
2.00161
2.00236
2.00546
2.01186
2.01988
2.03059
2.04101
2.05176
2.06078
2.06777
2.07481
2.12919
2.1053
2.07939
2.05473
2.03439
2.01754
2.006
1.99797
1.99334
1.99048
1.99006
1.99046
1.99191
1.99411
1.99652
1.99912
2.00196
2.00451
2.00744
2.01017
2.013
2.01543
2.01781
2.02043
2.02301
2.0246
2.02682
2.02853
2.03025
2.03096
2.03241
2.03228
2.03155
2.03003
2.02686
2.02235
2.01669
2.01022
2.00338
1.99706
1.99393
1.99129
1.9936
2.00028
2.00996
2.02202
2.03492
2.04659
2.05595
2.06291
2.07004
2.13493
2.1104
2.08561
2.05864
2.04025
2.02044
2.01031
2.00084
1.99615
1.9928
1.99217
1.99222
1.99337
1.99538
1.99736
1.99992
2.00232
2.00486
2.00756
2.01035
2.01315
2.01605
2.01861
2.02141
2.02426
2.02679
2.02914
2.03148
2.03332
2.03447
2.03563
2.03533
2.03386
2.03155
2.02729
2.02138
2.01363
2.00467
1.99466
1.98307
1.9752
1.97357
1.97131
1.97768
1.98797
2.00162
2.01717
2.03289
2.04445
2.05289
2.05908
2.14079
2.11611
2.09153
2.06424
2.04549
2.02509
2.01453
2.0046
1.99958
1.99586
1.99502
1.99485
1.99585
1.99748
1.99935
2.00159
2.00379
2.00628
2.00885
2.01161
2.01436
2.0174
2.02017
2.02312
2.02597
2.02898
2.03162
2.03412
2.03623
2.0377
2.03792
2.03769
2.03569
2.03225
2.02644
2.01805
2.00745
1.99463
1.97893
1.96908
1.94908
1.939
1.93601
1.92919
1.94532
1.95954
1.99092
2.01388
2.03668
2.05297
2.06443
0.996323
0.997491
0.998618
0.999718
1.0008
1.00184
1.00286
1.00378
1.00471
1.00552
1.00635
1.00711
1.0078
1.00853
1.00919
1.00989
1.01057
1.01134
1.01207
1.01291
1.01377
1.01474
1.01577
1.0169
1.01812
1.01941
0.997133
0.998208
0.999273
1.00028
1.00128
1.00215
1.00308
1.00384
1.00467
1.00536
1.00606
1.00673
1.00737
1.00798
1.00862
1.00928
1.00995
1.01065
1.01144
1.01229
1.0132
1.01421
1.0153
1.01648
1.01778
1.01914
0.997943
0.99895
0.999874
1.00078
1.00165
1.00242
1.00319
1.00388
1.00451
1.00515
1.00569
1.00626
1.00684
1.00736
1.00798
1.00855
1.00924
1.00996
1.01072
1.0116
1.01257
1.01363
1.01482
1.01608
1.01747
1.01891
0.998749
0.999617
1.0005
1.00128
1.00199
1.00267
1.00323
1.00384
1.0043
1.00483
1.00526
1.00577
1.00617
1.00671
1.0072
1.0078
1.00842
1.00913
1.00998
1.01086
1.01188
1.01303
1.01427
1.01565
1.01713
1.01868
0.999513
1.00037
1.00103
1.00174
1.00228
1.00285
1.00329
1.0037
1.00413
1.00441
1.0048
1.00513
1.00554
1.00591
1.00643
1.00692
1.00758
1.00829
1.00911
1.01005
1.01117
1.01233
1.0137
1.01516
1.01676
1.01841
1.0003
1.00107
1.00161
1.00215
1.00259
1.00299
1.00329
1.00359
1.00384
1.00403
1.00428
1.00452
1.00481
1.00512
1.00555
1.00601
1.00664
1.00734
1.00822
1.00921
1.01037
1.01163
1.01307
1.0146
1.01633
1.01806
1.00117
1.0017
1.00222
1.00259
1.0029
1.00312
1.00334
1.00346
1.00356
1.00367
1.00375
1.00386
1.00399
1.00426
1.00461
1.00509
1.00565
1.0065
1.00732
1.00828
1.00949
1.01078
1.01231
1.01397
1.01581
1.01764
1.00197
1.00245
1.00281
1.00303
1.00324
1.00331
1.00336
1.00334
1.0033
1.00325
1.00322
1.00323
1.0033
1.00346
1.00371
1.00409
1.00463
1.00531
1.00619
1.00724
1.0085
1.00987
1.01154
1.01325
1.01521
1.01712
1.00283
1.00322
1.00341
1.00355
1.00359
1.00352
1.00341
1.00323
1.00306
1.00287
1.00268
1.00258
1.00255
1.00258
1.00276
1.00308
1.00355
1.00424
1.00505
1.00614
1.00739
1.00886
1.01058
1.0124
1.01451
1.01646
1.00378
1.00396
1.0041
1.00409
1.004
1.0038
1.00354
1.00321
1.00284
1.00252
1.00226
1.00198
1.00181
1.00174
1.00175
1.00202
1.00236
1.003
1.00386
1.00486
1.00629
1.00774
1.00953
1.01139
1.01362
1.0157
1.00474
1.00481
1.00478
1.0047
1.00444
1.00411
1.00369
1.00325
1.00274
1.00225
1.00182
1.00137
1.00106
1.00086
1.00082
1.00088
1.00128
1.00174
1.00256
1.00364
1.00487
1.00649
1.0083
1.01026
1.01253
1.01477
1.00572
1.00573
1.00559
1.00537
1.00501
1.00449
1.00397
1.00333
1.00271
1.00205
1.0014
1.00086
1.00037
1.00001
0.999792
0.999745
0.999954
1.00031
1.00129
1.00218
1.00347
1.00505
1.00686
1.00894
1.01113
1.01377
1.00678
1.00671
1.00645
1.0061
1.00561
1.00506
1.0043
1.00352
1.00275
1.00187
1.00109
1.00032
0.99967
0.999155
0.998729
0.998588
0.998645
0.998898
0.999695
1.00051
1.00182
1.00344
1.0053
1.00746
1.00989
1.01233
1.00794
1.00775
1.00742
1.00693
1.00639
1.00558
1.00477
1.00381
1.00283
1.00182
1.00079
0.999887
0.998999
0.998272
0.997729
0.997349
0.997203
0.997282
0.998085
0.998562
1.00015
1.0015
1.00351
1.00559
1.00819
1.01081
1.00919
1.00896
1.00851
1.00789
1.00717
1.0063
1.00529
1.00419
1.003
1.00179
1.00059
0.999368
0.998356
0.997373
0.996607
0.996033
0.995717
0.995713
0.9958
0.997001
0.99782
0.999488
1.0014
1.00357
1.00622
1.00899
1.01054
1.01029
1.00971
1.009
1.00814
1.00711
1.00594
1.00467
1.00325
1.00185
1.00035
0.999038
0.997624
0.996448
0.995397
0.994524
0.994008
0.993722
0.993737
0.994674
0.995482
0.996956
0.998913
1.00125
1.00395
1.00698
1.012
1.01164
1.01099
1.01023
1.00922
1.00805
1.00672
1.00522
1.00366
1.00193
1.00034
0.998588
0.996973
0.995441
0.994015
0.992905
0.991965
0.991404
0.991227
0.991874
0.992475
0.993673
0.996738
0.998447
1.00133
1.0045
1.01358
1.01318
1.01245
1.01164
1.01047
1.00913
1.00762
1.00586
1.00419
1.00208
1.0003
0.998111
0.996251
0.99424
0.99264
0.991031
0.98971
0.988913
0.988495
0.988475
0.989759
0.990772
0.992718
0.995249
0.998234
1.00159
1.01531
1.01489
1.0141
1.01317
1.01192
1.01032
1.0088
1.0065
1.00502
1.00202
1.0005
0.997474
0.995847
0.992621
0.991861
0.988947
0.988323
0.987579
0.987939
0.988728
0.98906
0.991298
0.991899
0.993585
0.995884
0.998972
1.01714
1.01669
1.01592
1.01481
1.01362
1.01165
1.01027
1.00732
1.0059
1.0021
1.00071
0.996593
0.995968
0.992002
0.993764
0.989848
0.993144
0.998591
1.00261
1.01005
1.01085
1.0101
1.0089
1.00486
1.00188
1.00101
1.01934
1.01891
1.01818
1.01674
1.01571
1.01314
1.01185
1.0082
1.00671
1.00225
1.00124
0.996368
1.00081
0.996008
1.01279
1.00902
1.04417
1.0729
1.09355
1.12814
1.12889
1.13048
1.10564
1.07854
1.04746
1.02563
1.02144
1.02105
1.02027
1.0189
1.01739
1.01542
1.01284
1.00978
1.00742
1.00309
1.0048
1.00253
1.02741
1.03044
1.09573
1.17181
1.27832
1.36663
1.44544
1.50442
1.50605
1.47796
1.48557
1.35944
1.24832
1.1274
1.02418
1.02371
1.0229
1.02149
1.01984
1.01766
1.01437
1.01129
1.0099
1.00906
1.02702
1.06309
1.12226
1.28497
1.44887
1.5924
1.68094
1.71706
1.73452
1.72757
1.71685
1.71404
1.67776
1.68138
1.58484
1.45336
1.0265
1.02649
1.02574
1.02419
1.02247
1.01964
1.01619
1.01727
1.02227
1.06296
1.13263
1.3284
1.56167
1.71309
1.78721
1.80583
1.7951
1.77362
1.75261
1.7167
1.71012
1.69565
1.7041
1.70484
1.70608
1.61652
1.02939
1.02951
1.02865
1.02724
1.02474
1.02213
1.02378
1.04286
1.11061
1.29712
1.59647
1.76872
1.84959
1.85909
1.83961
1.80313
1.74478
1.64865
1.58617
1.49143
1.46244
1.48558
1.56067
1.6439
1.67058
1.65767
1.03244
1.03271
1.0318
1.03022
1.02768
1.03087
1.0664
1.20059
1.52422
1.78318
1.89288
1.90874
1.88731
1.84033
1.75103
1.6153
1.46056
1.30038
1.20653
1.16533
1.1811
1.23446
1.37127
1.54237
1.62363
1.62003
1.03581
1.03601
1.03521
1.033
1.03577
1.08798
1.32241
1.71809
1.90976
1.95138
1.93798
1.89415
1.80112
1.65137
1.45981
1.2565
1.10711
1.06583
1.07287
1.09898
1.1482
1.23502
1.41632
1.55528
1.58599
1.51831
1.03893
1.03908
1.038
1.04035
1.09877
1.43356
1.86084
1.98248
1.9832
1.95319
1.87994
1.74639
1.55959
1.34436
1.13334
1.03445
1.01254
1.03429
1.09371
1.19976
1.31345
1.43506
1.48023
1.5009
1.4335
1.26101
1.04209
1.04084
1.04432
1.12087
1.54346
1.93987
2.01513
2.00283
1.95853
1.86351
1.71202
1.51225
1.28121
1.08534
1.005
0.988787
1.0076
1.06254
1.17278
1.29001
1.33488
1.34497
1.32713
1.22375
1.09459
1.0291
1.04502
1.05695
1.1766
1.65584
1.98887
2.03569
2.01872
1.96586
1.86524
1.71244
1.50968
1.27373
1.07025
0.997788
0.982328
0.984422
1.00885
1.04225
1.05329
1.07069
1.07564
1.07434
1.02764
0.981075
0.990395
0.968732
1.08754
1.29967
1.80983
2.03343
2.0528
2.03424
1.98216
1.88761
1.74339
1.54431
1.31158
1.1029
1.01142
0.98803
0.9757
0.966033
0.964272
0.968785
0.966827
0.964023
0.963403
0.957433
0.953808
0.956109
0.958925
0.963845
1.38508
1.86758
2.04824
2.06519
2.05069
2.00766
1.92926
1.8088
1.63639
1.42243
1.20526
1.04946
0.992272
0.985765
0.970789
0.960358
0.954527
0.951751
0.94635
0.94502
0.943731
0.944395
0.947656
0.953847
0.960674
0.970306
1.87213
2.05925
2.07018
2.06863
2.04005
1.98922
1.90611
1.77734
1.59468
1.37512
1.15479
1.05335
0.990835
0.988768
0.969706
0.961954
0.953985
0.950838
0.948435
0.948106
0.950865
0.95596
0.967233
0.986461
1.0209
1.08297
2.02758
2.08439
2.0813
2.06652
2.03601
1.9851
1.90524
1.78572
1.62238
1.42945
1.2387
1.08816
1.03886
1.01152
1.00202
0.982139
0.980243
0.981775
1.0007
1.02194
1.05981
1.11841
1.20242
1.32551
1.47818
1.65059
2.08771
2.08721
2.08285
2.06823
2.04442
2.01131
1.96318
1.89311
1.79339
1.66047
1.50773
1.37287
1.2493
1.24803
1.22406
1.23827
1.26364
1.32893
1.41254
1.49902
1.60091
1.6886
1.7778
1.83427
1.88347
1.90083
2.0892
2.09019
2.0837
2.07241
2.05727
2.03828
2.01417
1.98295
1.94325
1.89682
1.84767
1.799
1.78315
1.75739
1.75691
1.76914
1.79651
1.82943
1.84756
1.87564
1.86907
1.8831
1.88545
1.89998
1.90822
1.91968
2.09155
2.09096
2.08614
2.07881
2.06895
2.05697
2.04275
2.02764
2.01068
1.99394
1.9775
1.96321
1.95006
1.93861
1.92806
1.91854
1.90969
1.90151
1.89684
1.89225
1.89451
1.89537
1.89978
1.90545
1.91237
1.91883
2.09035
2.08941
2.08523
2.07919
2.07103
2.06228
2.05125
2.04039
2.02759
2.01474
2.00125
1.98768
1.97375
1.95961
1.94599
1.93315
1.92159
1.91342
1.90016
1.89951
1.89601
1.89704
1.8997
1.90342
1.90856
1.91529
2.08832
2.08788
2.08427
2.079
2.07182
2.06429
2.05451
2.04491
2.03336
2.02128
2.00804