/*--------------------------------*- C++ -*----------------------------------*\
  =========                 |
  \\      /  F ield         | OpenFOAM: The Open Source CFD Toolbox
   \\    /   O peration     | Website:  https://openfoam.org
    \\  /    A nd           | Version:  10
     \\/     M anipulation  |
\*---------------------------------------------------------------------------*/
FoamFile
{
    format      ascii;
    class       volScalarField;
    location    "0.399873";
    object      T;
}
// * * * * * * * * * * * * * * * * * * * * * * * * * * * * * * * * * * * * * //

dimensions      [0 0 0 1 0 0 0];

internalField   nonuniform List<scalar> 
15708
(
0.00868113
0.00867716
0.00867367
0.00867094
0.00866836
0.00866618
0.00866392
0.00866172
0.00866007
0.00865777
0.0086566
0.00865482
0.00865345
0.0086523
0.00865121
0.00865068
0.00865022
0.00865018
0.00865042
0.00865079
0.00865146
0.00865165
0.00865327
0.00865288
0.00865373
0.00865454
0.00865479
0.00865547
0.00865551
0.00865589
0.00865619
0.0086562
0.00865676
0.00865706
0.00865754
0.00865845
0.00865906
0.00865984
0.00866132
0.00866272
0.00866447
0.00866665
0.00866907
0.00867179
0.00867469
0.00867806
0.00868138
0.00868507
0.00868883
0.00869281
0.00869672
0.00867706
0.00867248
0.00866847
0.00866543
0.00866296
0.00866038
0.00865879
0.00865652
0.00865561
0.00865415
0.00865332
0.00865235
0.0086518
0.00865115
0.00865098
0.00865107
0.00865133
0.00865172
0.00865214
0.00865276
0.00865344
0.00865399
0.00865454
0.0086548
0.008655
0.00865536
0.00865531
0.00865544
0.0086556
0.00865551
0.0086556
0.00865574
0.00865597
0.00865631
0.008657
0.00865787
0.00865887
0.00866016
0.00866142
0.00866366
0.00866544
0.00866831
0.0086708
0.00867393
0.00867724
0.0086807
0.00868431
0.00868824
0.00869191
0.00869596
0.00869969
0.00867319
0.00866797
0.00866358
0.00866028
0.00865754
0.0086554
0.0086537
0.00865233
0.00865162
0.00865101
0.00865085
0.00865075
0.00865093
0.00865122
0.00865157
0.00865229
0.00865312
0.00865394
0.00865463
0.00865578
0.00865605
0.00865689
0.00865703
0.008657
0.0086569
0.00865693
0.00865667
0.0086564
0.00865608
0.00865591
0.00865569
0.0086558
0.00865593
0.00865639
0.00865704
0.00865812
0.00865921
0.00866097
0.00866233
0.0086649
0.00866711
0.00867028
0.00867338
0.00867646
0.00868
0.00868377
0.00868744
0.00869143
0.00869507
0.00869906
0.00870272
0.00866925
0.00866329
0.00865861
0.00865499
0.00865222
0.00865033
0.00864877
0.00864804
0.00864782
0.00864808
0.00864865
0.00864946
0.00865058
0.00865181
0.00865304
0.00865455
0.00865568
0.00865727
0.00865834
0.00865956
0.00865994
0.00866043
0.00866046
0.00866034
0.00865996
0.00865942
0.00865896
0.00865829
0.00865747
0.00865702
0.00865666
0.00865655
0.00865675
0.00865718
0.00865786
0.00865884
0.00866057
0.00866229
0.00866442
0.00866693
0.00866975
0.00867272
0.00867621
0.00867976
0.0086835
0.00868725
0.00869107
0.00869477
0.00869877
0.00870226
0.00870607
0.00866501
0.00865863
0.00865356
0.00864977
0.00864689
0.00864506
0.00864411
0.00864385
0.0086443
0.00864543
0.00864672
0.00864867
0.00865067
0.00865266
0.00865531
0.00865698
0.0086602
0.00866043
0.00866311
0.0086644
0.0086647
0.00866521
0.00866502
0.00866471
0.00866388
0.00866307
0.00866201
0.0086611
0.00866015
0.00865928
0.00865872
0.00865836
0.00865844
0.00865885
0.00865953
0.00866089
0.00866243
0.0086645
0.00866707
0.00866981
0.00867273
0.00867659
0.00867949
0.00868363
0.00868738
0.00869116
0.00869509
0.00869891
0.00870245
0.00870613
0.00870898
0.00866069
0.00865413
0.00864856
0.00864455
0.00864145
0.00864011
0.00863951
0.00864004
0.00864087
0.0086431
0.0086457
0.00864804
0.00865166
0.00865469
0.00865825
0.00866092
0.00866417
0.00866653
0.00866804
0.00867002
0.00867036
0.00867077
0.00867077
0.00866976
0.00866886
0.00866765
0.00866645
0.00866486
0.00866381
0.00866269
0.00866173
0.00866137
0.00866126
0.00866147
0.00866218
0.00866362
0.00866532
0.00866773
0.00867038
0.0086734
0.00867678
0.00867994
0.00868417
0.00868784
0.00869159
0.0086959
0.00869955
0.00870328
0.0087065
0.00870994
0.00871247
0.00865671
0.0086494
0.00864339
0.00863943
0.00863643
0.00863535
0.00863548
0.0086358
0.00863872
0.00864044
0.00864456
0.00864857
0.00865239
0.00865838
0.00865979
0.00866743
0.00866785
0.00867315
0.00867447
0.00867668
0.0086771
0.00867755
0.00867701
0.00867621
0.00867499
0.00867337
0.00867159
0.00867022
0.00866838
0.00866698
0.00866589
0.00866518
0.0086651
0.00866539
0.00866612
0.00866739
0.00866928
0.00867159
0.00867432
0.00867778
0.00868104
0.00868479
0.00868892
0.00869244
0.0086969
0.00870052
0.0087043
0.00870771
0.008711
0.0087138
0.0087167
0.00865207
0.00864506
0.00863892
0.00863458
0.00863185
0.00863079
0.0086315
0.0086326
0.00863599
0.00863919
0.00864377
0.00864902
0.00865551
0.00865872
0.00866832
0.00866721
0.00867907
0.00867652
0.00868398
0.00868306
0.00868487
0.0086848
0.00868469
0.00868393
0.00868204
0.00868069
0.00867811
0.00867627
0.00867432
0.00867255
0.00867127
0.00867024
0.00866993
0.0086702
0.00867039
0.00867207
0.00867393
0.00867637
0.00867903
0.00868251
0.00868601
0.00869038
0.00869363
0.00869799
0.00870191
0.00870571
0.00870953
0.00871254
0.00871579
0.00871824
0.00872018
0.00864772
0.00864108
0.0086338
0.00863038
0.00862685
0.00862684
0.00862792
0.00862975
0.00863297
0.0086385
0.00864414
0.00865044
0.00865739
0.00866431
0.008671
0.00867736
0.00868164
0.00868727
0.00868974
0.0086926
0.00869362
0.0086941
0.00869328
0.00869236
0.00869061
0.00868776
0.00868632
0.00868344
0.00868132
0.00867919
0.00867748
0.00867648
0.00867573
0.00867593
0.0086762
0.00867747
0.0086791
0.0086814
0.00868485
0.00868763
0.00869186
0.0086954
0.00869952
0.00870345
0.00870744
0.00871101
0.00871442
0.00871813
0.00871977
0.00872323
0.0087242
0.00864416
0.00863635
0.00863065
0.00862554
0.00862331
0.00862331
0.00862373
0.0086284
0.00863115
0.00863807
0.00864452
0.00865246
0.00866117
0.0086682
0.00867706
0.00868417
0.00869014
0.00869531
0.00869948
0.00870175
0.00870346
0.00870367
0.00870299
0.00870221
0.00869963
0.00869753
0.00869437
0.00869227
0.00868944
0.00868669
0.0086854
0.00868299
0.00868283
0.00868233
0.00868281
0.00868338
0.00868548
0.00868789
0.00869038
0.00869415
0.00869739
0.00870152
0.00870531
0.00870962
0.00871286
0.00871688
0.00871965
0.00872318
0.00872551
0.00872685
0.00872928
0.00864106
0.00863239
0.0086267
0.00862162
0.00862009
0.00861972
0.00862175
0.00862538
0.0086309
0.00863784
0.00864563
0.00865485
0.00866605
0.00867191
0.00868791
0.00868546
0.00870313
0.00870183
0.00871035
0.00871275
0.00871428
0.00871426
0.00871417
0.00871226
0.00871053
0.00870746
0.00870477
0.00870164
0.00869799
0.00869633
0.00869302
0.00869169
0.00869003
0.00868972
0.00868982
0.00869056
0.00869216
0.00869406
0.00869701
0.00870035
0.00870365
0.00870709
0.00871159
0.0087151
0.00871867
0.00872265
0.00872531
0.00872782
0.00873082
0.00873152
0.0087331
0.00863808
0.00862967
0.00862317
0.008619
0.00861654
0.00861788
0.00861953
0.00862366
0.00863058
0.00863872
0.0086481
0.00865844
0.0086698
0.00868087
0.00868999
0.00870151
0.00870792
0.00871505
0.00872075
0.00872362
0.0087258
0.00872597
0.00872531
0.00872435
0.00872139
0.00871922
0.00871541
0.00871212
0.00870893
0.00870512
0.00870283
0.0087001
0.00869879
0.00869742
0.00869743
0.00869782
0.00869936
0.00870069
0.00870368
0.00870666
0.00870992
0.00871356
0.00871743
0.00872108
0.00872497
0.00872795
0.00873139
0.00873337
0.00873558
0.00873677
0.00873788
0.00863548
0.0086272
0.00861997
0.00861683
0.00861397
0.00861548
0.00861788
0.00862364
0.00863063
0.00864048
0.00865057
0.00866271
0.00867575
0.00868642
0.00870073
0.00870792
0.00872072
0.00872519
0.00873251
0.00873484
0.00873908
0.00873877
0.00873845
0.00873637
0.00873453
0.00873063
0.00872737
0.00872356
0.00871954
0.00871584
0.00871322
0.00870885
0.00870856
0.00870554
0.00870539
0.00870555
0.00870635
0.00870779
0.00870997
0.0087131
0.00871594
0.00871973
0.00872344
0.00872729
0.00873066
0.00873424
0.00873663
0.00873943
0.00874049
0.00874219
0.00874233
0.0086343
0.00862421
0.00861907
0.00861375
0.00861339
0.00861368
0.00861812
0.00862305
0.00863203
0.00864207
0.00865591
0.00866676
0.00868235
0.00869534
0.00870883
0.00871932
0.00873056
0.00873844
0.00874393
0.00874974
0.00875065
0.00875261
0.00875172
0.00875021
0.00874707
0.00874424
0.00873979
0.00873605
0.00873095
0.00872756
0.00872232
0.00872063
0.00871604
0.00871513
0.00871366
0.00871305
0.00871346
0.0087148
0.00871667
0.00871908
0.00872229
0.0087252
0.0087292
0.00873303
0.00873641
0.00873986
0.00874261
0.00874472
0.0087466
0.00874716
0.00874779
0.00863212
0.00862459
0.00861698
0.00861296
0.00861248
0.0086131
0.00861763
0.00862498
0.00863412
0.00864538
0.0086595
0.0086743
0.00868914
0.00870498
0.00871771
0.00873159
0.00874195
0.00875054
0.00875892
0.00876162
0.00876641
0.00876612
0.00876592
0.00876386
0.00876168
0.00875708
0.00875338
0.00874816
0.00874404
0.00873824
0.0087341
0.00872967
0.00872572
0.00872472
0.00872092
0.00872086
0.00872099
0.00872146
0.00872276
0.00872557
0.0087284
0.00873172
0.00873504
0.00873883
0.00874228
0.00874548
0.008748
0.00875025
0.00875211
0.00875287
0.00875276
0.00863203
0.00862403
0.00861742
0.00861302
0.00861284
0.0086141
0.00861772
0.00862787
0.00863568
0.00865093
0.00866336
0.0086822
0.00869632
0.00871458
0.00872877
0.00874336
0.0087542
0.00876522
0.0087716
0.00877727
0.00878028
0.00878121
0.00878073
0.00877877
0.00877526
0.00877126
0.00876687
0.00876177
0.00875518
0.00875075
0.00874462
0.00873987
0.00873583
0.00873263
0.00872988
0.00872805
0.00872718
0.00872779
0.00872855
0.0087317
0.0087327
0.00873809
0.00874065
0.00874431
0.00874834
0.00875145
0.00875425
0.00875627
0.00875791
0.00875836
0.00875821
0.00863331
0.00862458
0.00861805
0.00861393
0.00861368
0.00861496
0.00861995
0.00862875
0.00864251
0.00865105
0.00867507
0.0086842
0.00870971
0.00872308
0.0087411
0.00875495
0.00876904
0.0087782
0.00878616
0.00879257
0.00879503
0.0087964
0.00879602
0.00879324
0.00879039
0.00878561
0.00878023
0.00877522
0.00876773
0.0087621
0.00875547
0.00875
0.00874469
0.00874112
0.00873682
0.008735
0.00873367
0.00873359
0.00873397
0.00873645
0.00873923
0.00874231
0.00874604
0.00874952
0.00875407
0.00875666
0.00876072
0.0087622
0.00876385
0.00876483
0.00876428
0.00863557
0.00862679
0.0086197
0.00861577
0.00861566
0.00861753
0.00862262
0.00863204
0.00864427
0.00866148
0.00867643
0.00869853
0.00871493
0.00873538
0.00875351
0.00876787
0.00878216
0.00879323
0.0088015
0.00880657
0.0088107
0.00881125
0.00881095
0.00880884
0.00880456
0.0088
0.0087953
0.00878698
0.00878086
0.00877348
0.00876531
0.00876055
0.00875295
0.00874815
0.00874422
0.00874065
0.0087392
0.00873848
0.00873908
0.00873993
0.00874387
0.00874645
0.00875086
0.00875483
0.00875907
0.00876334
0.00876543
0.00876935
0.00877046
0.00877185
0.00877128
0.00863925
0.0086296
0.0086237
0.00861768
0.00861865
0.00862008
0.00862626
0.00863618
0.00864951
0.00866592
0.00868645
0.00870437
0.00872729
0.00874578
0.00876509
0.0087824
0.00879575
0.00880769
0.0088169
0.00882202
0.00882583
0.00882719
0.00882576
0.00882407
0.00881961
0.00881406
0.00880887
0.00880013
0.0087924
0.0087839
0.00877684
0.00876802
0.00876151
0.00875498
0.00874944
0.00874566
0.00874309
0.00874229
0.0087424
0.00874452
0.00874474
0.00875041
0.00875432
0.00875901
0.00876407
0.00876915
0.00877345
0.00877607
0.00877819
0.00877895
0.00877867
0.00863984
0.00863234
0.00862503
0.00862102
0.00862123
0.0086225
0.00863021
0.00863912
0.00865476
0.0086745
0.0086893
0.00871945
0.00873303
0.0087602
0.00877654
0.00879564
0.00881034
0.0088224
0.0088321
0.00883807
0.00884116
0.00884267
0.0088408
0.00883837
0.00883396
0.00882829
0.00882101
0.00881336
0.00880279
0.00879515
0.0087848
0.00877569
0.00876768
0.00875996
0.00875398
0.00874925
0.00874553
0.00874394
0.00874481
0.00874646
0.00875054
0.00875358
0.00875887
0.00876533
0.00877062
0.008775
0.00877979
0.00878345
0.00878632
0.0087874
0.00878726
0.00864753
0.00863968
0.00862979
0.00862584
0.00862466
0.00862854
0.0086307
0.00864606
0.00865887
0.00867874
0.00870226
0.00872034
0.00874914
0.00876912
0.0087918
0.00880869
0.0088248
0.00883562
0.00884592
0.00885138
0.0088562
0.00885662
0.00885601
0.00885226
0.00884851
0.00884157
0.00883352
0.00882408
0.00881521
0.00880247
0.00879384
0.00878253
0.00877314
0.00876442
0.00875766
0.00875192
0.0087473
0.00874571
0.00874626
0.00874789
0.00875245
0.00875705
0.00876054
0.00876626
0.00877467
0.00878066
0.0087873
0.00879105
0.008795
0.00879542
0.00879518
0.00865483
0.00864287
0.00863745
0.00862843
0.00862944
0.00862947
0.00864021
0.0086447
0.00866953
0.0086831
0.00871139
0.00873271
0.00875654
0.0087797
0.0088022
0.00882294
0.00883917
0.00885258
0.00886216
0.00886823
0.00887184
0.00887205
0.00887062
0.00886662
0.00886152
0.00885399
0.00884531
0.00883577
0.0088225
0.00881276
0.00879934
0.00878785
0.00877649
0.0087674
0.00875908
0.0087528
0.00874858
0.00874568
0.00874615
0.00875016
0.00875068
0.00875898
0.00876557
0.00877082
0.0087793
0.00878659
0.00879416
0.00880044
0.00880589
0.00880812
0.00880785
0.00866073
0.00865154
0.0086377
0.00863487
0.0086299
0.00863408
0.00864064
0.00865665
0.00866813
0.0086982
0.00871661
0.00874928
0.00877457
0.00879633
0.00881676
0.00883607
0.00885184
0.00886465
0.00887437
0.00888083
0.00888396
0.00888461
0.00888298
0.00887938
0.00887419
0.00886545
0.00885665
0.0088444
0.0088328
0.00881878
0.00880495
0.00879331
0.0087798
0.00876893
0.00875974
0.0087516
0.00874565
0.00874304
0.00874488
0.00874612
0.00875609
0.00876054
0.00877001
0.00878173
0.00879366
0.00880231
0.00880634
0.00880958
0.00881316
0.00881531
0.00881531
0.00867412
0.00865735
0.00865002
0.00863474
0.0086315
0.00862882
0.00863525
0.00862872
0.00867932
0.00868071
0.00872337
0.00875181
0.00878234
0.00880982
0.0088293
0.00884767
0.00886478
0.00887989
0.00888976
0.00889681
0.00889924
0.00889924
0.0088966
0.00889241
0.00888533
0.0088759
0.0088669
0.00885327
0.0088383
0.00882897
0.00880518
0.00880566
0.00877372
0.0087727
0.00874957
0.00874057
0.00872804
0.00871755
0.00871876
0.00872669
0.00873701
0.00874362
0.00876689
0.00877945
0.00879407
0.00881262
0.00882439
0.00883164
0.00883441
0.00883449
0.00883297
0.0086845
0.00865352
0.00862553
0.00857063
0.00856696
0.00852729
0.0085272
0.00858296
0.0085423
0.0086101
0.00866372
0.00872967
0.00878038
0.00882163
0.00885595
0.00887675
0.0088863
0.00889424
0.00890215
0.00890859
0.0089111
0.00891081
0.00890851
0.008903
0.00889579
0.00888708
0.00887396
0.00886284
0.00884392
0.00883884
0.00880429
0.00880633
0.00874429
0.00874637
0.00867431
0.00859861
0.0085319
0.00847918
0.00848778
0.00848654
0.00856591
0.00863571
0.00863126
0.0087375
0.00878255
0.00880955
0.00883265
0.00884399
0.0088477
0.00884766
0.00884574
0.00864996
0.00851053
0.0083419
0.00816446
0.00796575
0.00773929
0.00776445
0.00773792
0.00790051
0.00813701
0.00838511
0.00856747
0.00869272
0.00877533
0.00883563
0.0088751
0.00890057
0.00891236
0.00891897
0.00892204
0.0089227
0.00892149
0.00891848
0.00891259
0.00890442
0.00889498
0.00888175
0.00887366
0.00884552
0.00884124
0.00877268
0.00876134
0.00854584
0.00845775
0.00815656
0.00772138
0.00739065
0.00711096
0.00696063
0.00707489
0.00709756
0.007597
0.00820841
0.00840043
0.0085974
0.00873872
0.0088149
0.00884625
0.00885647
0.00885791
0.00885639
0.00812001
0.00750279
0.00669026
0.006113
0.00562967
0.0053604
0.00535849
0.00558346
0.00557995
0.00611813
0.00685859
0.00776504
0.00836293
0.00868393
0.00881623
0.00887337
0.00890692
0.00892354
0.0089306
0.00893379
0.00893391
0.00893249
0.00892802
0.00892077
0.00891177
0.00890331
0.0088887
0.00887587
0.00882148
0.00876846
0.0085379
0.00829844
0.0075857
0.00675449
0.00596482
0.00537142
0.00509709
0.00485814
0.00480936
0.00488313
0.00497943
0.00550038
0.00582207
0.00730094
0.00826842
0.00863884
0.00877767
0.00884204
0.00886588
0.00886999
0.00886741
0.0056988
0.0050896
0.00477078
0.00462066
0.00453684
0.00452066
0.004518
0.0046211
0.00463187
0.00501613
0.00509682
0.00603994
0.00743577
0.00832355
0.00869148
0.00884597
0.00890506
0.00892933
0.00893911
0.00894236
0.00894137
0.00893979
0.00893442
0.00892821
0.00892129
0.00890836
0.00888306
0.00880401
0.00856594
0.0081807
0.00727886
0.00609154
0.00525598
0.00481789
0.00461606
0.00453104
0.00448961
0.0044625
0.0044581
0.00447943
0.00451579
0.00470574
0.00493411
0.00570909
0.00714104
0.00821396
0.00866586
0.00883088
0.00887243
0.00887983
0.00887549
0.00455803
0.00447879
0.00446276
0.00447384
0.00449897
0.00455259
0.0045766
0.00461559
0.00463794
0.0047682
0.00478821
0.00530716
0.00617257
0.00769587
0.00850188
0.00879736
0.00889809
0.00893103
0.00894431
0.00894701
0.00894713
0.00894393
0.0089401
0.00893501
0.00892514
0.00886812
0.00870829
0.00822728
0.00710252
0.00586425
0.00502638
0.00464286
0.00452414
0.00448052
0.00449104
0.00451542
0.00457121
0.00458062
0.00460871
0.00460007
0.00458136
0.00463117
0.00475465
0.00516274
0.00638692
0.0079891
0.00866876
0.00884145
0.00888516
0.00888362
0.00887341
0.00445362
0.00448963
0.00456533
0.0047716
0.00488735
0.00514729
0.00522334
0.00517738
0.0049734
0.00485601
0.00487792
0.00506441
0.00578966
0.00734204
0.00837866
0.00878194
0.00889949
0.008935
0.00894524
0.00894827
0.00894756
0.00894668
0.00894489
0.00893781
0.00885292
0.0084121
0.00748031
0.00583207
0.00490992
0.00459025
0.00449382
0.00447998
0.00452645
0.00464575
0.00482947
0.00503942
0.00519683
0.00529276
0.00523495
0.00507594
0.00490164
0.00476185
0.00479195
0.00518923
0.00654091
0.00815887
0.00872799
0.00886742
0.00888476
0.00888097
0.00887415
0.00460365
0.0048264
0.00516322
0.0056253
0.00608718
0.00649967
0.00648497
0.00633494
0.00587243
0.00526734
0.00497123
0.00514383
0.00590707
0.00750113
0.00845617
0.00880884
0.00890933
0.00893473
0.00894291
0.00894658
0.00894793
0.00894922
0.00894898
0.00879698
0.00800621
0.00608155
0.00505878
0.00454587
0.00446406
0.00447655
0.00454156
0.00471717
0.00501034
0.00541481
0.00594065
0.00641645
0.00667922
0.00665203
0.00651319
0.0062009
0.00541046
0.00483164
0.00484807
0.0054945
0.00704
0.00850976
0.00882813
0.00887689
0.00888058
0.00887295
0.00883111
0.00508404
0.00564374
0.0065178
0.00733691
0.00770692
0.00764381
0.0074909
0.00711566
0.00600537
0.00524043
0.00508811
0.0052524
0.0064648
0.00793167
0.00865019
0.00886482
0.00891866
0.00893222
0.00893752
0.00894133
0.0089501
0.00896355
0.00871061
0.00723585
0.00526441
0.00456189
0.00448135
0.00447795
0.00452234
0.00466473
0.00495212
0.00543486
0.00616317
0.00702398
0.00752716
0.00753579
0.00740171
0.00716419
0.00652175
0.00585732
0.00515646
0.00491299
0.00534596
0.00559646
0.00838542
0.00869275
0.00886438
0.00887563
0.00886832
0.00877942
0.00832536
0.00600234
0.00725293
0.00802018
0.008201
0.00809613
0.00774127
0.00717621
0.00629928
0.00556725
0.00526588
0.00532271
0.00599343
0.00757759
0.00850282
0.00880863
0.00888965
0.00891341
0.00892283
0.00893522
0.00894505
0.00890966
0.0083749
0.00613655
0.00478012
0.00451111
0.0044818
0.00449156
0.00456707
0.00476502
0.00515399
0.00581723
0.00684204
0.0078058
0.00806443
0.00793916
0.00754554
0.00695661
0.00628117
0.00578918
0.00538084
0.00526979
0.00533446
0.00532491
0.00844755
0.00855599
0.00881559
0.00883745
0.0087953
0.00866792
0.0081146
0.00643361
0.00747054
0.00821646
0.00842109
0.00827839
0.00779544
0.00705411
0.00632771
0.00588861
0.00568148
0.00564853
0.00628301
0.00756483
0.00840362
0.00877869
0.0088492
0.00888957
0.00890352
0.00890832
0.00888611
0.00863867
0.00743319
0.00534949
0.0046311
0.00449867
0.00448296
0.00450174
0.00459406
0.00481755
0.00525795
0.00604745
0.00710402
0.00825977
0.00837509
0.00819921
0.00780509
0.00706837
0.00634753
0.0059876
0.0057044
0.00563007
0.00565596
0.00588249
0.00851484
0.00858421
0.00876073
0.00878837
0.00883459
0.00863252
0.00790771
0.00614753
0.00480018
0.00815844
0.00855238
0.00846321
0.00819294
0.00764172
0.00711103
0.00671921
0.00655286
0.00654809
0.00708855
0.00795749
0.00859749
0.00869305
0.00883386
0.00885315
0.00886639
0.00886444
0.00876542
0.00826536
0.00667995
0.00505142
0.0045773
0.00448936
0.00447926
0.00450049
0.00458931
0.00479906
0.00520979
0.0059266
0.00697615
0.00844895
0.00837881
0.00845758
0.00826301
0.00775041
0.00723032
0.00678276
0.00650821
0.0064604
0.00667932
0.00725154
0.00865038
0.00858065
0.00876333
0.00871682
0.008779
0.00829647
0.00749858
0.00574061
0.00470528
0.00460357
0.0085795
0.0085991
0.00860335
0.0084375
0.00819557
0.00785916
0.00785598
0.0078062
0.00796571
0.0085035
0.00851164
0.00876547
0.00876977
0.00880417
0.00882123
0.00877673
0.00854939
0.00780966
0.00597694
0.00485194
0.00455579
0.00447643
0.00447056
0.00448737
0.00455929
0.00472455
0.00504673
0.0056197
0.00653688
0.00777405
0.00832625
0.00862485
0.00859013
0.00847059
0.00828406
0.00802539
0.00787829
0.0078357
0.00786856
0.00815822
0.00859811
0.00861869
0.00866196
0.00863915
0.00860513
0.00795694
0.00733295
0.005564
0.0045979
0.00461146
0.00446111
0.00854358
0.00870679
0.0086838
0.00865366
0.00854369
0.00850959
0.00848176
0.00849874
0.00865415
0.00865557
0.00870606
0.00875624
0.00875058
0.00873955
0.00856525
0.00812295
0.00706613
0.00520676
0.00481469
0.00449203
0.0044729
0.00445625
0.00446771
0.00451025
0.00461554
0.00482146
0.00520217
0.00583689
0.00677688
0.00794387
0.00866978
0.00857468
0.00867389
0.0086626
0.00861517
0.00853144
0.00852465
0.00851021
0.0085666
0.00861537
0.00865751
0.0086403
0.00862521
0.00845506
0.00764247
0.00616299
0.00474829
0.00502565
0.00450037
0.00449183
0.00444067
0.00853995
0.00873884
0.00873206
0.00875468
0.00872679
0.00870514
0.00869106
0.00868871
0.00869456
0.00869251
0.00869359
0.00865914
0.00852736
0.00820446
0.00749829
0.00594071
0.00473769
0.00471099
0.00447146
0.00445334
0.00444044
0.00444574
0.00446681
0.00452349
0.00463859
0.00486188
0.00526718
0.00593223
0.00693202
0.00795074
0.00864333
0.00864616
0.00867668
0.00870381
0.00870865
0.00867398
0.00863256
0.0086329
0.00860278
0.00858229
0.00851385
0.00835167
0.00787133
0.00675511
0.00579393
0.00485159
0.00482662
0.0045842
0.00444346
0.00444473
0.00442962
0.00849707
0.00868424
0.00869727
0.00872692
0.00875154
0.00871064
0.00867481
0.00867068
0.00862968
0.00855607
0.00839893
0.00807764
0.0073835
0.00615267
0.00496794
0.00483559
0.00448843
0.00449603
0.00442788
0.00442605
0.00442531
0.00443774
0.00446304
0.00451746
0.0046265
0.00482651
0.00516808
0.00572134
0.00652682
0.00750096
0.00860195
0.00850411
0.00865399
0.00864788
0.00866983
0.00864498
0.008612
0.00855508
0.00846912
0.00829858
0.00790276
0.00704421
0.00590059
0.00537721
0.00471362
0.00468141
0.00443502
0.0044805
0.00442596
0.00442525
0.00442495
0.0078153
0.00832544
0.00860384
0.00856707
0.00859943
0.00857709
0.00849136
0.00835376
0.00811612
0.00768584
0.00690615
0.00592862
0.00514244
0.00483236
0.00453312
0.00452577
0.00442728
0.00442
0.00440849
0.00440914
0.00441518
0.00442719
0.00444589
0.00449268
0.00457763
0.00472898
0.00498806
0.00540439
0.00602635
0.00686409
0.00765785
0.00846962
0.00831422
0.00846086
0.00843719
0.00841825
0.00827629
0.00803398
0.00760817
0.00683933
0.00596806
0.00525566
0.00502801
0.0045506
0.00461655
0.00443185
0.004439
0.00441781
0.00441578
0.00442056
0.00442637
0.00613991
0.00708909
0.0076609
0.00785369
0.00777547
0.00775704
0.00737094
0.00684342
0.00618372
0.00554635
0.00505722
0.00474321
0.00453779
0.00452921
0.0044265
0.00442191
0.00439603
0.00439539
0.0043945
0.00439817
0.00440476
0.00441308
0.00442813
0.00446165
0.00451949
0.00462057
0.00478582
0.00504819
0.00543225
0.00595373
0.00657137
0.0070186
0.00760703
0.00751743
0.00756288
0.00734897
0.00691581
0.00631264
0.00575781
0.00527425
0.0049179
0.00467531
0.00455334
0.00449184
0.00445416
0.00440902
0.0044088
0.00440737
0.00441238
0.00442359
0.0044258
0.00506495
0.00535893
0.00567797
0.00575074
0.00581106
0.00570736
0.00546039
0.00513663
0.00483183
0.00465505
0.00453196
0.00444262
0.0044403
0.00439216
0.00439212
0.00438182
0.00438099
0.00438363
0.00438613
0.00438955
0.00439431
0.00439993
0.00441111
0.00443343
0.00446945
0.00452943
0.00462462
0.00476896
0.00497205
0.00523606
0.00553835
0.0057423
0.00597978
0.005943
0.00594477
0.00572463
0.00540283
0.00507825
0.00485257
0.00469159
0.00449164
0.00450519
0.00442168
0.00442729
0.00440204
0.00439863
0.00439858
0.00440722
0.00441416
0.0044225
0.0044285
0.00464163
0.0047114
0.00475609
0.00479002
0.0047797
0.00474591
0.00464539
0.00454545
0.00447297
0.00441103
0.00441427
0.00437979
0.00437939
0.00436933
0.00436874
0.0043701
0.00437352
0.00437522
0.00437865
0.0043809
0.00438585
0.00438923
0.00439722
0.00441168
0.00443276
0.00446662
0.00451645
0.004589
0.00468537
0.0048039
0.00492707
0.00502919
0.00505855
0.0050703
0.00502111
0.00488862
0.00471956
0.0045993
0.0045257
0.00445756
0.00442376
0.00440194
0.00439526
0.00438769
0.00438729
0.00439189
0.00439864
0.00440765
0.00441477
0.00442382
0.00443026
0.00451133
0.0045041
0.00450213
0.00449071
0.004477
0.00445664
0.0044227
0.00440094
0.00438347
0.00436446
0.0043649
0.00435844
0.00435718
0.0043574
0.00436105
0.00436343
0.00436676
0.00436942
0.00437218
0.00437461
0.00437868
0.00438109
0.00438731
0.00439721
0.0044097
0.0044295
0.00445579
0.00449099
0.00453467
0.00458503
0.00462326
0.0046664
0.00466128
0.0046631
0.00461901
0.00454738
0.00448144
0.00444381
0.00441511
0.00439594
0.00438539
0.00438038
0.00437859
0.00437803
0.0043848
0.00438966
0.00439908
0.00440695
0.0044155
0.00442469
0.00443225
0.00447717
0.00445908
0.00444184
0.00442159
0.00440707
0.00438888
0.00437358
0.00436347
0.00435533
0.00435117
0.00434956
0.00434935
0.00435046
0.00435341
0.00435656
0.00435894
0.00436116
0.00436493
0.0043669
0.00436956
0.00437334
0.00437545
0.00438081
0.00438772
0.00439636
0.00440904
0.00442368
0.00444208
0.00446225
0.00448318
0.00449652
0.0045041
0.00450293
0.00449423
0.00446364
0.00443344
0.00440893
0.00439531
0.00438303
0.00437799
0.00437338
0.00437264
0.00437108
0.00437695
0.00438188
0.00438856
0.0043976
0.0044059
0.00441567
0.00442541
0.00443261
0.00447164
0.00444887
0.00442836
0.00440549
0.00438934
0.00437322
0.00436207
0.00435357
0.00434981
0.00434733
0.00434562
0.00434641
0.0043479
0.0043504
0.00435303
0.00435574
0.00435821
0.00436163
0.00436336
0.00436581
0.00436931
0.00437201
0.00437633
0.00438168
0.00438837
0.00439722
0.00440647
0.00441668
0.00442666
0.00443471
0.00444065
0.00444013
0.0044386
0.00442756
0.00441292
0.00439934
0.00438955
0.00438241
0.0043759
0.00437294
0.00436811
0.00436859
0.0043682
0.00437353
0.00437774
0.0043857
0.0043949
0.00440405
0.00441548
0.00442492
0.00443474
0.0044723
0.00445024
0.00442561
0.00440682
0.00438513
0.00437236
0.00436006
0.00435405
0.00434868
0.0043467
0.00434504
0.00434568
0.00434684
0.00434877
0.00435127
0.00435372
0.00435623
0.00435898
0.00436092
0.00436323
0.00436602
0.00436965
0.004373
0.00437732
0.00438325
0.00438984
0.00439634
0.00440333
0.0044099
0.00441354
0.00441656
0.00441611
0.00441375
0.0044063
0.0043986
0.00439064
0.00438417
0.00437824
0.00437277
0.00436749
0.00436429
0.00436465
0.0043642
0.00436867
0.00437223
0.00438233
0.00439077
0.004403
0.0044153
0.00442856
0.00444579
0.00447581
0.00445174
0.00443101
0.00440705
0.00438963
0.00437251
0.00436341
0.00435348
0.00434997
0.00434706
0.00434599
0.00434592
0.00434706
0.00434881
0.00435074
0.00435335
0.0043553
0.004358
0.00435983
0.0043621
0.00436438
0.0043682
0.00437158
0.00437541
0.00437997
0.00438605
0.00439121
0.00439732
0.00440203
0.00440501
0.00440732
0.00440703
0.00440509
0.00440013
0.00439488
0.00438911
0.00438345
0.0043776
0.0043717
0.00436584
0.0043628
0.0043597
0.0043592
0.00436076
0.00436749
0.00437532
0.00438783
0.00440071
0.00441606
0.00443311
0.00444656
0.00447875
0.00445582
0.00443332
0.0044121
0.00439165
0.00437719
0.00436488
0.00435727
0.00435173
0.00434937
0.00434768
0.00434752
0.00434836
0.00434961
0.00435158
0.00435373
0.00435563
0.00435824
0.00436002
0.00436226
0.00436437
0.00436764
0.0043712
0.00437457
0.0043783
0.00438432
0.00438884
0.00439406
0.00439828
0.00440293
0.0044027
0.00440341
0.00440217
0.00439872
0.00439464
0.00438935
0.00438317
0.00437613
0.00436878
0.00436127
0.0043513
0.00435141
0.00434926
0.00434941
0.00435501
0.00436522
0.00437913
0.00439635
0.00441564
0.00443614
0.00445321
0.00448178
0.00446075
0.0044358
0.00441869
0.0043927
0.00438339
0.00436667
0.00436102
0.00435444
0.00435228
0.00435025
0.00435003
0.00435066
0.0043515
0.00435362
0.00435514
0.00435738
0.00435948
0.00436137
0.00436327
0.0043654
0.00436767
0.00437117
0.0043745
0.00437814
0.00438269
0.00438759
0.00439207
0.00439659
0.00440079
0.00440146
0.00440246
0.0044023
0.00439939
0.00439567
0.00439043
0.00438429
0.0043769
0.00436941
0.00436471
0.00435577
0.00434554
0.00434744
0.00434485
0.0043494
0.00436115
0.00437712
0.00439356
0.00441507
0.00443883
0.00446634
0.00448527
0.00446544
0.00444026
0.00442331
0.00439702
0.00438768
0.00437064
0.00436492
0.00435796
0.00435599
0.00435352
0.00435328
0.00435354
0.00435456
0.00435629
0.00435792
0.00436002
0.00436174
0.00436352
0.00436519
0.00436726
0.00436918
0.00437227
0.0043755
0.00437936
0.0043832
0.00438776
0.00439223
0.00439655
0.00440006
0.0044028
0.00440347
0.00440368
0.0044018
0.00439912
0.0043957
0.00439067
0.00438486
0.00438164
0.00436251
0.00436689
0.00436419
0.0043613
0.00438435
0.00437956
0.00440271
0.0044008
0.00441744
0.00442704
0.0044375
0.00444863
0.0087011
0.00870502
0.00870917
0.00871331
0.0087172
0.00872104
0.00872453
0.00872819
0.00873118
0.00873457
0.00873727
0.00874
0.00874283
0.00874504
0.00874765
0.00874989
0.00875239
0.00875443
0.00875721
0.00875958
0.00876255
0.00876538
0.00876864
0.00877209
0.00877583
0.00878003
0.00870373
0.00870761
0.00871124
0.00871498
0.00871824
0.00872198
0.00872466
0.00872813
0.00873051
0.00873341
0.00873583
0.0087381
0.00874032
0.00874267
0.00874472
0.00874679
0.00874913
0.00875159
0.00875397
0.00875667
0.00875973
0.00876292
0.00876654
0.00877051
0.0087746
0.00877922
0.0087064
0.00870983
0.00871346
0.00871661
0.00871952
0.00872252
0.00872501
0.00872742
0.00872992
0.00873177
0.00873418
0.00873601
0.00873767
0.00873988
0.00874152
0.00874386
0.00874578
0.00874821
0.00875109
0.00875391
0.0087571
0.00876071
0.00876445
0.00876882
0.00877335
0.00877855
0.00870918
0.00871262
0.00871523
0.008718
0.00872065
0.00872275
0.0087253
0.00872682
0.00872907
0.00873033
0.00873228
0.00873339
0.00873555
0.00873673
0.00873876
0.00874044
0.00874275
0.00874527
0.00874767
0.00875112