/*--------------------------------*- C++ -*----------------------------------*\
  =========                 |
  \\      /  F ield         | OpenFOAM: The Open Source CFD Toolbox
   \\    /   O peration     | Website:  https://openfoam.org
    \\  /    A nd           | Version:  11
     \\/     M anipulation  |
\*---------------------------------------------------------------------------*/
FoamFile
{
    format      ascii;
    class       volScalarField;
    location    "1";
    object      mag(U);
}
// * * * * * * * * * * * * * * * * * * * * * * * * * * * * * * * * * * * * * //

dimensions      [0 1 -1 0 0 0 0];

internalField   nonuniform List<scalar> 
9600
(
0.962782
0.906069
0.818055
0.805977
0.830476
0.875964
0.912212
0.940788
0.960402
0.975393
0.988026
0.999665
1.01147
1.02387
1.03849
1.05486
1.07127
1.08722
1.09937
1.10628
1.10978
1.10664
1.09701
1.08338
1.06788
1.05082
1.03535
1.02315
1.01242
1.00523
0.999393
0.993413
0.990834
0.987735
0.987121
0.986848
0.986945
0.984939
0.982232
0.952012
0.962462
0.925139
0.898096
0.904037
0.939502
0.972593
0.979142
0.979478
0.980688
0.985054
0.993475
1.00257
1.01295
1.02415
1.03795
1.05193
1.06717
1.08124
1.09112
1.09767
1.09863
1.09444
1.0855
1.07393
1.0591
1.04152
1.02502
1.01111
0.999896
0.992115
0.98473
0.979365
0.977238
0.970986
0.96997
0.966584
0.969654
0.966264
0.965181
0.950426
0.969836
0.94583
0.909271
0.908513
0.918954
0.93056
0.948912
0.96602
0.980249
0.993233
1.00393
1.01391
1.02486
1.03649
1.05018
1.06533
1.08059
1.09505
1.1065
1.1128
1.11649
1.11513
1.10571
1.09354
1.07932
1.06326
1.04766
1.03501
1.02475
1.01718
1.01113
1.00614
1.00169
0.996467
0.996371
0.993231
0.993067
0.993897
0.988337
0.961262
0.980065
0.961999
0.954195
0.963352
0.984483
1.0054
1.00279
0.993863
0.990251
0.990941
0.995551
1.00481
1.01515
1.02623
1.04016
1.05513
1.06973
1.08399
1.09465
1.10146
1.1015
1.09815
1.09024
1.07976
1.06651
1.04989
1.03305
1.01846
1.00516
0.995911
0.988348
0.981585
0.981187
0.976786
0.975197
0.971541
0.974418
0.979168
0.982775
0.977692
0.991918
0.975638
0.966915
0.963556
0.955103
0.949698
0.955959
0.967873
0.981598
0.9958
1.00749
1.01755
1.02828
1.03975
1.05295
1.06747
1.08135
1.09556
1.10627
1.11097
1.11473
1.11463
1.1056
1.09339
1.07984
1.06452
1.04942
1.03694
1.02705
1.01894
1.01445
1.00816
1.00352
0.996384
0.994838
0.991843
0.992001
0.989497
0.9774
0.958911
0.994399
0.979983
0.979776
0.984681
0.993088
1.0093
1.01597
1.01008
1.00223
1.00025
1.00139
1.00669
1.01777
1.0285
1.04231
1.05787
1.07256
1.0872
1.09807
1.10591
1.10542
1.10206
1.09554
1.08612
1.07364
1.05764
1.04065
1.02541
1.01104
0.99986
0.992158
0.984836
0.983401
0.981121
0.979632
0.978103
0.981787
0.985612
0.98993
0.984665
0.995408
0.988288
0.98852
0.98858
0.981271
0.971077
0.966302
0.968843
0.980423
0.995519
1.00879
1.02058
1.03156
1.04301
1.0559
1.06986
1.08346
1.09691
1.10682
1.11131
1.11484
1.11479
1.10654
1.0948
1.08136
1.06614
1.05117
1.03879
1.0291
1.02075
1.01678
1.01069
1.00468
0.997564
0.992854
0.990021
0.987262
0.982176
0.969172
0.960997
0.994937
0.993577
0.993951
0.997649
0.997032
0.999098
1.01016
1.01615
1.01374
1.00969
1.00998
1.01204
1.01995
1.03164
1.04535
1.06111
1.07621
1.09116
1.10185
1.11059
1.11215
1.10725
1.10023
1.09161
1.07975
1.06402
1.04744
1.03179
1.01737
1.00422
0.995826
0.988008
0.986048
0.985504
0.984826
0.984434
0.9866
0.987523
0.991989
0.985395
0.997508
0.996856
0.999115
1.00155
0.999748
0.99276
0.981942
0.974959
0.981311
0.994761
1.00801
1.02163
1.03376
1.04587
1.0587
1.07262
1.08603
1.09904
1.10926
1.11322
1.11641
1.11662
1.10911
1.0978
1.08392
1.06835
1.05344
1.04074
1.03102
1.02264
1.01835
1.01301
1.00535
0.997699
0.992215
0.987882
0.982084
0.974133
0.969787
0.967589
0.999161
0.997908
1.00192
1.00466
1.00373
1.00297
1.00452
1.00985
1.0157
1.01554
1.01706
1.01892
1.02396
1.03531
1.04906
1.06512
1.08063
1.09557
1.107
1.11547
1.11805
1.11307
1.10677
1.09785
1.08524
1.06959
1.0535
1.03808
1.02383
1.00941
1.00044
0.99129
0.989148
0.989423
0.989327
0.988248
0.988844
0.988701
0.989883
0.982591
0.999542
0.997883
1.00398
1.00827
1.0082
1.00511
0.998845
0.988377
0.986227
0.995637
1.00784
1.02173
1.03502
1.04813
1.06132
1.07556
1.08913
1.10226
1.11332
1.11714
1.12005
1.12004
1.11274
1.10246
1.08903
1.07263
1.05648
1.04277
1.03265
1.02421
1.01918
1.01397
1.00701
0.996992
0.990063
0.983848
0.979439
0.974612
0.974338
0.974105
0.998722
0.997512
1.00528
1.01118
1.01114
1.00708
1.00622
1.00846
1.01047
1.01575
1.02019
1.02471
1.02992
1.04074
1.05446
1.07064
1.08622
1.10109
1.11308
1.12114
1.12411
1.11977
1.11324
1.1043
1.09147
1.07528
1.05952
1.04367
1.02982
1.0155
1.00521
0.995494
0.993339
0.992667
0.992012
0.99062
0.990794
0.989054
0.986368
0.980684
0.997414
0.996884
1.00593
1.0137
1.01491
1.01235
1.00748
1.00243
0.998
1.00138
1.01031
1.02293
1.03684
1.05068
1.06453
1.07941
1.09347
1.10661
1.11855
1.12331
1.12615
1.12549
1.11799
1.10842
1.09553
1.07838
1.06211
1.04608
1.03454
1.02572
1.01925
1.01422
1.00719
0.996909
0.988548
0.982733
0.98064
0.978294
0.978801
0.978635
0.996192
0.996348
1.00595
1.01574
1.01793
1.01577
1.00868
1.00761
1.01116
1.01492
1.02119
1.02785
1.03653
1.04771
1.06154
1.07751
1.09329
1.10758
1.12017
1.12824
1.13082
1.12755
1.12083
1.11164
1.09886
1.08176
1.06528
1.04928
1.03529
1.02147
1.0102
1.00015
0.997006
0.995122
0.994428
0.992851
0.991499
0.986875
0.983075
0.980665
0.994873
0.995723
1.00539
1.01708
1.02061
1.01927
1.01319
1.00943
1.00777
1.01041
1.01588
1.02696
1.04008
1.05409
1.06845
1.08362
1.09905
1.1125
1.12516
1.13193
1.13403
1.13253
1.12562
1.11579
1.1029
1.08603
1.06871
1.05187
1.03748
1.02709
1.0188
1.01404
1.0068
0.996515
0.988972
0.985037
0.984305
0.982243
0.981538
0.980694
0.995266
0.996025
1.00437
1.01757
1.02291
1.02234
1.01704
1.01157
1.01072
1.01569
1.02264
1.0319
1.04191
1.05449
1.06846
1.08448
1.10125
1.11612
1.1284
1.13668
1.13923
1.13706
1.13027
1.12038
1.10677
1.0897
1.07257
1.05529
1.04054
1.02702
1.01511
1.00537
1.00024
0.997012
0.995747
0.992893
0.989556
0.985625
0.983298
0.981788
0.997005
0.997645
1.00411
1.01743
1.02458
1.02491
1.02042
1.01468
1.01341
1.01691
1.02282
1.03192
1.04413
1.05847
1.07279
1.08982
1.10571
1.12136
1.1335
1.141
1.14436
1.14283
1.13532
1.12505
1.11116
1.09356
1.07621
1.0584
1.04295
1.0293
1.01984
1.01314
1.00636
0.997818
0.991292
0.987606
0.986947
0.984433
0.983083
0.982071
0.99715
0.998231
1.00369
1.01664
1.02545
1.02712
1.0231
1.0174
1.01575
1.01826
1.0254
1.03478
1.04672
1.06118
1.07577
1.09401
1.10926
1.12585
1.13896
1.14593
1.14992
1.14918
1.14166
1.13029
1.11533
1.09736
1.0798
1.0618
1.04576
1.03148
1.02014
1.00966
1.00338
0.998935
0.99549
0.991124
0.988588
0.985075
0.983302
0.982637
0.996371
0.998145
1.00308
1.01532
1.02584
1.02891
1.02619
1.02083
1.01861
1.02057
1.02742
1.03713
1.04953
1.06487
1.07973
1.09898
1.11459
1.13073
1.14501
1.15197
1.15629
1.15556
1.1482
1.1366
1.1207
1.10224
1.08431
1.06558
1.04917
1.03354
1.02263
1.01331
1.00715
0.999223
0.994035
0.989664
0.987862
0.984799
0.983126
0.982576
0.994928
0.997586
1.00237
1.01357
1.02533
1.03021
1.02886
1.02406
1.02139
1.02279
1.02951
1.03923
1.05259
1.06864
1.08392
1.10414
1.1205
1.13589
1.15136
1.15853
1.16307
1.16264
1.15524
1.14329
1.12706
1.10764
1.08902
1.07004
1.05292
1.0363
1.02443
1.0133
1.0065
0.99965
0.99564
0.990657
0.988101
0.984738
0.982814
0.982311
0.992789
0.99646
1.0011
1.01117
1.02411
1.03087
1.03076
1.02721
1.02477
1.02577
1.03192
1.04173
1.05602
1.07263
1.08877
1.10965
1.12736
1.14173
1.15814
1.16655
1.17033
1.17042
1.16329
1.1514
1.13536
1.11492
1.09506
1.07511
1.05796
1.03992
1.02666
1.01455
1.00747
0.999952
0.995445
0.990388
0.987936
0.984549
0.982356
0.981888
0.989865
0.995128
0.999708
1.00835
1.02219
1.03113
1.03258
1.03022
1.02852
1.02969
1.03557
1.04571
1.0596
1.07767
1.09446
1.11521
1.13491
1.14905
1.16462
1.17519
1.17854
1.17933
1.1728
1.15965
1.14429
1.1232
1.10146
1.08024
1.06316
1.04504
1.03041
1.01606
1.00754
0.999573
0.995037
0.98974
0.987246
0.984028
0.981687
0.981258
0.98669
0.992944
0.997721
1.00547
1.01944
1.03041
1.0344
1.03383
1.03307
1.03449
1.04009
1.05029
1.06383
1.08321
1.10073
1.12157
1.14246
1.15758
1.17151
1.18423
1.18876
1.18796
1.18301
1.16965
1.15294
1.13211
1.10996
1.08605
1.0681
1.04964
1.03512
1.01982
1.00959
1.00023
0.995303
0.989541
0.986572
0.983176
0.980636
0.980541
0.983343
0.990157
0.995059
1.00263
1.01586
1.02984
1.03695
1.03735
1.03793
1.04026
1.04568
1.05656
1.06939
1.0895
1.10814
1.12813
1.15068
1.16679
1.18012
1.19286
1.20027
1.19877
1.1927
1.18118
1.16361
1.14131
1.1197
1.09454
1.07388
1.05398
1.03984
1.02444
1.01264
1.00128
0.994886
0.987916
0.984276
0.981269
0.978664
0.979241
0.980196
0.986568
0.992568
0.999252
1.01158
1.028
1.03752
1.04064
1.04275
1.04606
1.05179
1.06423
1.07673
1.09625
1.11711
1.13595
1.16012
1.17813
1.191
1.20349
1.21218
1.21273
1.20464
1.19256
1.17612
1.15322
1.12954
1.10438
1.08283
1.06016
1.04398
1.02846
1.01694
1.00489
0.997652
0.989814
0.984718
0.981041
0.977027
0.97759
0.977016
0.982375
0.989122
0.995456
1.00692
1.02313
1.03597
1.04322
1.04757
1.05259
1.05922
1.0725
1.0857
1.10371
1.12736
1.14665
1.16963
1.19024
1.20371
1.21483
1.2244
1.22669
1.21895
1.20499
1.18887
1.16721
1.14242
1.11501
1.09264
1.06898
1.05093
1.0329
1.02015
1.00735
0.99967
0.991533
0.985319
0.981567
0.976092
0.975978
0.974955
0.979042
0.984852
0.9912
1.00135
1.01629
1.03172
1.04295
1.05098
1.05965
1.06828
1.08056
1.09738
1.11369
1.13839
1.16057
1.18123
1.20243
1.21879
1.22876
1.23783
1.24156
1.23554
1.21906
1.20314
1.18223
1.15867
1.12901
1.10309
1.07717
1.05721
1.03685
1.02324
1.00978
1.00073
0.992006
0.984765
0.981465
0.975202
0.974551
0.97173
0.975098
0.979283
0.986187
0.99519
1.00918
1.02484
1.03996
1.0522
1.06445
1.07931
1.08982
1.1111
1.12841
1.14996
1.17636
1.19717
1.21668
1.23553
1.24726
1.25357
1.25676
1.25472
1.23811
1.21883
1.19738
1.17536
1.14676
1.11922
1.08983
1.06686
1.04413
1.02791
1.01268
1.00235
0.993712
0.984799
0.980735
0.973144
0.971936
0.972497
0.973983
0.976225
0.981799
0.989698
1.00308
1.01792
1.0339
1.0515
1.06784
1.08841
1.10266
1.12364
1.14676
1.16768
1.1927
1.2167
1.23534
1.25215
1.26681
1.27325
1.27372
1.27245
1.26033
1.2406
1.21565
1.19182
1.16362
1.13748
1.10809
1.08368
1.0587
1.0395
1.02126
1.00707
0.996914
0.98568
0.980753
0.971752
0.969207
0.968279
0.970209
0.971501
0.976439
0.983629
0.995765
1.01094
1.02704
1.04787
1.06925
1.09366
1.11651
1.13878
1.16378
1.18955
1.21437
1.2381
1.25976
1.27545
1.28756
1.29519
1.29526
1.29186
1.28132
1.26415
1.23815
1.21246
1.18302
1.15745
1.12814
1.10239
1.07547
1.05294
1.03205
1.01365
1.00191
0.987864
0.981464
0.971114
0.96732
0.971038
0.973832
0.97343
0.976147
0.98178
0.993184
1.00775
1.02315
1.04389
1.06967
1.09711
1.12555
1.15459
1.18307
1.21166
1.24046
1.26472
1.28667
1.30415
1.31493
1.3207
1.32137
1.31708
1.3047
1.28933
1.26503
1.23913
1.20764
1.1802
1.15162
1.12599
1.09764
1.07032
1.0469
1.02291
1.00832
0.991236
0.982684
0.971458
0.96579
0.961605
0.966517
0.969185
0.972582
0.978542
0.990315
1.0062
1.02337
1.04205
1.06902
1.09987
1.13175
1.16578
1.20114
1.23417
1.26682
1.29566
1.31837
1.33654
1.34887
1.35377
1.35203
1.34769
1.33477
1.31688
1.29215
1.26774
1.23758
1.20812
1.17671
1.14865
1.12269
1.09364
1.07048
1.04317
1.0244
1.00359
0.990843
0.976904
0.968047
0.967604
0.972427
0.977125
0.982157
0.987946
0.999072
1.01532
1.03356
1.05272
1.07787
1.10829
1.14282
1.17761
1.21596
1.25465
1.29138
1.32412
1.35219
1.37266
1.38574
1.39221
1.39047
1.38306
1.37041
1.35321
1.32752
1.30069
1.27093
1.24124
1.21179
1.17878
1.15222
1.12036
1.09729
1.07002
1.04859
1.02516
1.00657
0.988351
0.976249
0.953964
0.961239
0.968254
0.978184
0.988652
1.00253
1.02155
1.04688
1.06907
1.09712
1.12716
1.16418
1.19928
1.23769
1.27551
1.31578
1.35043
1.38176
1.40577
1.42319
1.43093
1.43028
1.42543
1.41221
1.39511
1.37139
1.342
1.31302
1.27837
1.25093
1.21438
1.18776
1.15326
1.12722
1.09704
1.07402
1.04858
1.02865
1.00561
0.987962
0.964755
0.975211
0.983313
0.996509
1.01126
1.03138
1.05015
1.08162
1.10905
1.14204
1.17021
1.21122
1.2469
1.28852
1.3222
1.36244
1.393
1.42613
1.44726
1.46707
1.47422
1.47786
1.46922
1.4604
1.44146
1.42603
1.39786
1.37542
1.33996
1.31269
1.27757
1.24579
1.21267
1.17878
1.14795
1.1175
1.09143
1.06442
1.04042
1.01291
0.945863
0.964299
0.976492
0.997106
1.01428
1.045
1.0658
1.10601
1.13507
1.1817
1.21212
1.25882
1.29546
1.34512
1.38164
1.42418
1.45431
1.49098
1.50893
1.53264
1.53434
1.54688
1.53478
1.53133
1.50278
1.48951
1.45851
1.43761
1.40487
1.37681
1.34467
1.31344
1.2801
1.24785
1.21278
1.18027
1.15027
1.12
1.0949
1.06036
0.969857
0.993153
1.016
1.05255
1.07937
1.1224
1.14871
1.19707
1.2263
1.28118
1.31377
1.3676
1.40207
1.4542
1.4887
1.53201
1.55917
1.58839
1.60599
1.61864
1.62291
1.61719
1.61109
1.59677
1.59081
1.57381
1.56156
1.53297
1.51785
1.48623
1.46923
1.43672
1.4151
1.38256
1.35519
1.32135
1.29034
1.25531
1.22535
1.19036
0.971345
0.994368
1.02807
1.06253
1.101
1.14552
1.18764
1.23847
1.28299
1.33598
1.38045
1.43144
1.47252
1.51886
1.55556
1.59491
1.62349
1.65024
1.66652
1.67941
1.6816
1.67995
1.66826
1.65072
1.62259
1.58817
1.55856
1.52923
1.50877
1.48109
1.46287
1.43228
1.4155
1.3815
1.36676
1.32818
1.31438
1.27359
1.25587
1.2152
1.08875
1.14076
1.20143
1.25407
1.3027
1.35057
1.39553
1.44215
1.4839
1.52645
1.56169
1.59782
1.62494
1.65495
1.67412
1.70222
1.71493
1.74
1.74281
1.75825
1.75086
1.75589
1.73774
1.73754
1.71513
1.71215
1.68264
1.67006
1.63218
1.61545
1.57941
1.56563
1.53447
1.52071
1.49159
1.47668
1.44674
1.4333
1.39439
1.40328
1.24839
1.2865
1.3256
1.36739
1.408
1.44475
1.4774
1.50615
1.52928
1.54731
1.55999
1.57183
1.58242
1.59502
1.60029
1.60295
1.59461
1.58672
1.5671
1.55093
1.5182
1.49329
1.44598
1.40871
1.34608
1.30049
1.23077
1.18234
1.10992
1.05695
0.980009
0.924789
0.843754
0.788408
0.706591
0.650476
0.569914
0.516902
0.440027
0.408249
0.991249
0.978969
0.995001
0.978153
0.991387
0.984017
0.991596
0.988977
0.992593
0.993718
0.995394
0.997032
0.998413
0.99971
1.00104
1.00208
1.00291
1.00366
1.00413
1.00436
1.00461
1.00505
1.00508
1.00516
1.00525
1.00541
1.00536
1.00531
1.00521
1.00515
1.00505
1.005
1.00514
1.00511
1.00487
1.00461
1.00403
1.00364
1.00109
0.997737
0.996839
0.981319
0.994481
0.978218
0.990408
0.983577
0.990917
0.988894
0.991909
0.993172
0.994704
0.996324
0.997847
0.999286
1.00073
1.00167
1.00267
1.00348
1.0039
1.00404
1.00448
1.00498
1.00494
1.00523
1.00542
1.0054
1.00528
1.00531
1.00536
1.00528
1.00509
1.00502
1.00529
1.00538
1.00525
1.00476
1.00444
1.00453
1.00465
1.00608
0.998486
0.982486
0.993238
0.978595
0.988884
0.983135
0.989857
0.989121
0.991173
0.992834
0.994484
0.996194
0.997909
0.999582
1.00101
1.0018
1.00276
1.00353
1.00398
1.00422
1.00465
1.00492
1.00512
1.00564
1.00568
1.00556
1.0054
1.00546
1.00551
1.00545
1.00542
1.00539
1.00565
1.00573
1.00541
1.00477
1.00427
1.00401
1.00331
1.00064
0.999675
0.983938
0.993454
0.978829
0.988024
0.982724
0.988945
0.989132
0.990599
0.99228
0.994083
0.995954
0.997846
0.999572
1.00096
1.00182
1.00253
1.00366
1.00433
1.00447
1.00459
1.00484
1.00554
1.00574
1.00572
1.00573
1.00561
1.00546
1.00544
1.00539
1.00568
1.00577
1.00587
1.00594
1.00557
1.0051
1.0046
1.00435
1.00445
1.00668
0.999325
0.984699
0.993152
0.978805
0.987294
0.982284
0.987856
0.988504
0.990115
0.992083
0.994091
0.996078
0.997972
0.999798
1.00122
1.00197
1.00309
1.00419
1.00449
1.00459
1.00495
1.00528
1.00568
1.00573
1.00584
1.00606
1.00599
1.00562
1.00543
1.00544
1.00594
1.00625
1.00648
1.00635
1.00559
1.00514
1.0048
1.00427
1.00313
1.00067
1.00091
0.985166
0.993454
0.978696
0.986341
0.981734
0.986912
0.987811
0.989456
0.99152
0.993774
0.995874
0.998034
0.999893
1.00119
1.00233
1.00357
1.00419
1.0045
1.00491
1.0056
1.00566
1.00562
1.00562
1.006
1.00616
1.00603
1.00588
1.00585
1.00616
1.00659
1.0067
1.00678
1.00655
1.00575
1.00533
1.00512
1.00499
1.00503
1.00668
0.999339
0.985778
0.993521
0.978502
0.98551
0.981236
0.986003
0.986929
0.988969
0.991201
0.993608
0.995868
0.997997
0.999911
1.00151
1.00313
1.00394
1.00454
1.00485
1.00507
1.00577
1.00579
1.00563
1.00584
1.00615
1.00622
1.00597
1.00626
1.00656
1.00682
1.00691
1.00696
1.00705
1.00668
1.0058
1.0054
1.00516
1.00484
1.00395
1.00226
1.0004
0.985882
0.993072
0.978343
0.984586
0.980519
0.985072
0.986064
0.988127
0.990538
0.99314
0.995587
0.997844
0.999779
1.00154
1.00328
1.00418
1.00484
1.00525
1.00518
1.0055
1.00573
1.00597
1.00624
1.00627
1.00612
1.00619
1.00682
1.00718
1.0075
1.00739
1.00728
1.00733
1.00678
1.00605
1.00577
1.00567
1.00548
1.00551
1.00628
0.998565
0.986412
0.992426
0.978005
0.983735
0.979905
0.984106
0.985059
0.987469
0.990047
0.992757
0.995273
0.997727
0.99974
1.00163
1.00328
1.0042
1.005
1.0054
1.00543
1.00525
1.00591
1.00637
1.00648
1.00618
1.00632
1.00693
1.00752
1.00806
1.00795
1.00769
1.00766
1.00753
1.00677
1.00606
1.0059
1.00586
1.00542
1.00496
1.00403
0.998632
0.986401
0.991762
0.977931
0.982834
0.979046
0.983115
0.984156
0.986508
0.989235
0.992089
0.994819
0.997241
0.999487
1.00166
1.00306
1.00368
1.00467
1.00524
1.00547
1.00559
1.00621
1.00648
1.00635
1.00623
1.00695
1.00721
1.00783
1.00841
1.00826
1.00798
1.0079
1.00775
1.0069
1.00632
1.00628
1.00617
1.0059
1.00586
1.00596
0.996584
0.986621
0.990956
0.977985
0.981951
0.978272
0.981913
0.983058
0.985624
0.988472
0.991408
0.994255
0.996993
0.999387
1.00153
1.00258
1.00336
1.00416
1.00508
1.00538
1.00597
1.00628
1.00633
1.00628
1.00682
1.00739
1.0075
1.00822
1.00859
1.0084
1.00816
1.00809
1.00782
1.00698
1.00646
1.00644
1.00626
1.00586
1.0057
1.0054
0.996475
0.987231
0.990098
0.977863
0.981002
0.977292
0.980617
0.981971
0.984517
0.987496
0.990559
0.993544
0.996266
0.999065
1.00118
1.00193
1.00291
1.00403
1.00474
1.00547
1.00608
1.00597
1.00615
1.00681
1.00751
1.00785
1.0082
1.00866
1.00898
1.00858
1.0084
1.00838
1.00815
1.0073
1.00696
1.00693
1.00673
1.00631
1.00614
1.00596
0.994509
0.987266
0.989196
0.977874
0.979925
0.976319
0.979228
0.980733
0.98337
0.986424
0.989594
0.992718
0.995785
0.998688
1.00046
1.00126
1.0023
1.00353
1.00453
1.00531
1.00565
1.00561
1.00637
1.0076
1.00809
1.00869
1.00879
1.00931
1.0095
1.00904
1.00873
1.0087
1.0083
1.00742
1.00716
1.00716
1.00691
1.00649
1.00634
1.00619
0.993989
0.987939
0.988373
0.977802
0.978635
0.975287
0.977729
0.979392
0.982002
0.985174
0.988471
0.991748
0.995077
0.998007
0.99949
1.00079
1.00196
1.00325
1.00437
1.00494
1.00551
1.00622
1.00736
1.00798
1.00871
1.009
1.00938
1.00955
1.00977
1.00945
1.00918
1.00905
1.00864
1.0079
1.00774
1.00772
1.0074
1.00693
1.00674
1.00656
0.991972
0.987636
0.987396
0.977608
0.977152
0.974187
0.975913
0.977865
0.980467
0.983722
0.987153
0.990693
0.994435
0.997106
0.998368
1.00015
1.00178
1.00312
1.00381
1.0048
1.00635
1.00763
1.0082
1.00896
1.00953
1.00967
1.00953
1.0097
1.0099
1.00969
1.00936
1.0092
1.00861
1.00806
1.00797
1.00797
1.00765
1.00724
1.00707
1.00692
0.991073
0.987494
0.986278
0.977248
0.975457
0.97275
0.973988
0.976105
0.978763
0.982075
0.98569
0.989577
0.993302
0.995707
0.997533
0.999597
1.00164
1.00294
1.00357
1.00495
1.00713
1.00853
1.00939
1.01041
1.01085
1.01066
1.01042
1.01011
1.01029
1.00998
1.00966
1.00939
1.00882
1.00842
1.00834
1.00834
1.00802
1.00761
1.00743
1.00729
0.989555
0.986783
0.984907
0.976673
0.973523
0.971015
0.971916
0.974048
0.97684
0.980211
0.984095
0.988462
0.99198
0.993885
0.996469
0.99905
1.0016
1.00288
1.00368
1.00575
1.00778
1.00914
1.0102
1.01166
1.01194
1.01165
1.01166
1.0114
1.01114
1.01058
1.01012
1.00969
1.00902
1.00875
1.0087
1.00871
1.0084
1.00805
1.00786
1.00768
0.98814
0.985808
0.983351
0.975689
0.971211
0.969018
0.969337
0.971647
0.974562
0.978104
0.982358
0.986912
0.990228
0.992446
0.995268
0.998436
1.00104
1.00272
1.00465
1.00678
1.0084
1.0093
1.01097
1.01238
1.01248
1.01261
1.01257
1.01286
1.01235
1.01163
1.01082
1.01028
1.00951
1.00918
1.00907
1.00906
1.00874
1.00847
1.0083
1.00811
0.986324
0.984528
0.981614
0.97423
0.968519
0.966545
0.966566
0.968856
0.971875
0.975737
0.980511
0.984936
0.988004
0.991135
0.99424
0.997525
1.00028
1.00297
1.00563
1.00737
1.00903
1.01067
1.01238
1.01292
1.01306
1.0132
1.01312
1.0134
1.01302
1.01253
1.01181
1.01119
1.0104
1.00993
1.00973
1.00959
1.00914
1.00887
1.00868
1.00853
0.984513
0.983143
0.979612
0.972273
0.965387
0.963582
0.96356
0.965648
0.968718
0.973098
0.978322
0.982617
0.985907
0.989823
0.993427
0.996221
0.999318
1.00348
1.00635
1.0082
1.01052
1.0125
1.01357
1.01362
1.01362
1.01408
1.01385
1.01388
1.01335
1.01291
1.0125
1.01196
1.01121
1.01088
1.01074
1.01053
1.00987
1.00954
1.00925
1.00905
0.982313
0.981351
0.977201
0.969767
0.961796
0.960257
0.959789
0.961894
0.965121
0.970153
0.975412
0.979664
0.984406
0.988745
0.992431
0.994949
0.998756
1.00336
1.0068
1.00953
1.01199
1.01387
1.01458
1.01452
1.01493
1.01527
1.01481
1.01467
1.01386
1.01333
1.01275
1.01231
1.01179
1.01161
1.01154
1.01132
1.01069
1.01034
1.00998
1.00972
0.979942
0.979052
0.974174
0.96673
0.95798
0.956246
0.95556
0.957406
0.961063
0.966579
0.971778
0.976416
0.982351
0.987796
0.991082
0.994053
0.998291
1.00322
1.00785
1.01102
1.01283
1.01397
1.01528
1.01532
1.01598
1.01642
1.01563
1.01548
1.0147
1.01426
1.0135
1.01309
1.01255
1.01238
1.0123
1.01207
1.01149
1.01116
1.01078
1.01055
0.97736
0.976019
0.970365
0.963158
0.953966
0.951441
0.950405
0.952193
0.956238
0.961758
0.967188
0.973707
0.980217
0.985789
0.989834
0.993943
0.998376
1.00381
1.00901
1.01245
1.01366
1.01408
1.01518
1.01551
1.01646
1.01701
1.0163
1.01591
1.01525
1.01487
1.01445
1.01404
1.01369
1.01351
1.01345
1.01303
1.01235
1.01205
1.01161
1.01142
0.974503
0.971965
0.965893
0.959
0.949363
0.94583
0.944166
0.946008
0.950334
0.955915
0.96227
0.970059
0.977292
0.983116
0.989149
0.99463
0.999393
1.00451
1.00931
1.01317
1.01451
1.01498
1.01613
1.01673
1.0169
1.01733
1.01672
1.01625
1.01561
1.01526
1.01497
1.01462
1.01449
1.01442
1.01446
1.01398
1.01333
1.01296
1.01253
1.01234
0.971646
0.967216
0.961038
0.954019
0.943743
0.938874
0.936837
0.938457
0.942995
0.949097
0.957308
0.965832
0.973504
0.980919
0.989001
0.995452
1.00067
1.00454
1.00856
1.01291
1.01556
1.01626
1.01774
1.0183
1.01814
1.01799
1.01744
1.01698
1.01637
1.01592
1.01566
1.01536
1.01534
1.01536
1.0154
1.01497
1.01436
1.01395
1.01341
1.01327
0.968832
0.962056
0.955916
0.948058
0.936865
0.930131
0.927821
0.92927
0.934226
0.94125
0.951187
0.961061
0.970113
0.979591
0.988201
0.995469
1.00107
1.00461
1.00865
1.01345
1.01589
1.01733
1.01898
1.01921
1.01914
1.01878
1.01878
1.01819
1.01791
1.01726
1.01708
1.01673
1.01669
1.01673
1.01663
1.01629
1.01581
1.01525
1.01461
1.01453
0.966079
0.956219
0.950009
0.941033
0.928523
0.919432
0.91684
0.917828
0.923243
0.931597
0.943595
0.955906
0.967541
0.97809
0.986767
0.994199
1.00009
1.00554
1.00974
1.01374
1.01578
1.01812
1.01913
1.01978
1.01957
1.01945
1.0197
1.01956
1.01957
1.0194
1.01919
1.01886
1.01861
1.01854
1.01811
1.01766
1.01716
1.01647
1.01586
1.01587
0.963372
0.950255
0.942689
0.932193
0.918284
0.906676
0.903055
0.903574
0.909274
0.919469
0.934225
0.949675
0.963984
0.975764
0.9851
0.992449
0.999359
1.00557
1.00984
1.01304
1.01616
1.01841
1.01972
1.02012
1.02012
1.01999
1.02039
1.02078
1.02096
1.02123
1.02097
1.02085
1.02059
1.02056
1.02009
1.01954
1.01895
1.01814
1.01753
1.01754
0.960492
0.944626
0.933369
0.920514
0.906012
0.891872
0.88614
0.885175
0.891382
0.903953
0.921313
0.940736
0.9578
0.972051
0.983247
0.991471
0.998647
1.00444
1.00955
1.01337
1.01638
1.01919
1.02039
1.0211
1.02131
1.02164
1.02172
1.0226
1.02259
1.0226
1.02219
1.02225
1.0224
1.02251
1.02221
1.02182
1.02111
1.02028
1.0197
1.01971
0.956949
0.939245
0.922945
0.906755
0.891896
0.874423
0.865118
0.861642
0.868345
0.883005
0.903322
0.927222
0.94797
0.966398
0.981184
0.99093
0.998033
1.00382
1.00964
1.01413
1.01725
1.0204
1.02135
1.02288
1.02318
1.02432
1.02502
1.02528
1.02569
1.02545
1.02557
1.02554
1.02597
1.02589
1.02538
1.02484
1.02376
1.02286
1.02223
1.02233
0.952887
0.935186
0.91458
0.893028
0.875128
0.853323
0.838455
0.831759
0.837194
0.853031
0.877014
0.906399
0.933377
0.957812
0.975703
0.988427
0.997959
1.00389
1.01008
1.01543
1.01883
1.02192
1.02383
1.02593
1.02707
1.02775
1.02941
1.0296
1.03071
1.03065
1.03034
1.03009
1.02978
1.02966
1.02877
1.02829
1.02689
1.02628
1.02549
1.0256
0.951635
0.933287
0.912186
0.88291
0.855676
0.828762
0.805052
0.792945
0.793673
0.809641
0.836808
0.873271
0.910634
0.943221
0.966999
0.983923
0.99674
1.00542
1.01293
1.01759
1.02184
1.02555
1.02761
1.03034
1.03206
1.03225
1.03409
1.03508
1.03585
1.03542
1.03432
1.03394
1.03353
1.03368
1.03274
1.03217
1.03082
1.03018
1.0294
1.02949
0.955342
0.932146
0.914433
0.880688
0.83781
0.801969
0.76568
0.74218
0.733721
0.746043
0.775167
0.820042
0.871027
0.917209
0.952404
0.976751
0.994631
1.00683
1.01656
1.0225
1.02793
1.03143
1.03512
1.03644
1.03793
1.03872
1.03877
1.03956
1.03966
1.03855
1.03851
1.03809
1.03846
1.03821
1.03759
1.03669
1.03529
1.0344
1.03375
1.03387
0.962951
0.939263
0.921623
0.888943
0.830897
0.776945
0.724266
0.679569
0.653776
0.654082
0.682405
0.734656
0.801388
0.865619
0.919027
0.958256
0.9863
1.00581
1.01968
1.02866
1.03605
1.03974
1.04268
1.04506
1.04565
1.04738
1.04758
1.0471
1.04725
1.04563
1.04592
1.04532
1.04604
1.04482
1.04477
1.04274
1.04145
1.04012
1.03988
1.04094
0.996742
0.975801
0.948146
0.908827
0.843865
0.766049
0.692146
0.61681
0.558137
0.53002
0.547021
0.604192
0.689002
0.777716
0.85449
0.913883
0.95711
0.989602
1.01288
1.02798
1.0397
1.0469
1.05145
1.05583
1.05889
1.06186
1.06275
1.06314
1.06265
1.06295
1.06408
1.06332
1.06276
1.06031
1.05928
1.05638
1.05555
1.055
1.05565
1.0551
1.0597
1.0315
0.99724
0.945935
0.87806
0.786043
0.687837
0.582342
0.477758
0.393823
0.366099
0.410098
0.507571
0.624468
0.731416
0.818316
0.885601
0.939252
0.980479
1.01094
1.03416
1.05015
1.06061
1.06846
1.07444
1.07817
1.08035
1.08167
1.08287
1.08421
1.08507
1.08405
1.08495
1.086
1.08767
1.08793
1.08568
1.08095
1.07804
1.0733
1.15003
1.09796
1.05229
0.996394
0.923081
0.831067
0.718408
0.600167
0.465478
0.329116
0.207115
0.147487
0.221062
0.366515
0.50997
0.63432
0.739543
0.828393
0.900765
0.956996
1.00095
1.03089
1.05248
1.065
1.0732
1.07811
1.08319
1.08697
1.08911
1.08947
1.09085
1.09427
1.09813
1.10383
1.10772
1.11107
1.11277
1.1138
1.1139
1.11287
1.19143
1.1477
1.09781
1.02627
0.936048
0.830519
0.710455
0.589392
0.474532
0.367
0.26218
0.174998
0.128983
0.0697801
0.114256
0.298686
0.455825
0.602046
0.720989
0.804582
0.879109
0.935301
0.982938
1.01791
1.04358
1.0614
1.07436
1.08263
1.0891
1.09371
1.09694
1.09989
1.09993
1.10097
1.1004
1.10181
1.10368
1.10709
1.1109
1.11849
1.33259
1.22832
1.11131
0.976754
0.839271
0.695507
0.551402
0.416081
0.29951
0.210831
0.188831
0.213315
0.252872
0.286075
0.322414
0.351536
0.302118
0.171716
0.114904
0.275878
0.413777
0.550072
0.667745
0.779564
0.856556
0.913789
0.959597
1.00006
1.03299
1.05799
1.08168
1.0989
1.11707
1.1321
1.14803
1.16196
1.17416
1.18122
1.18381
1.18349
0.282125
0.121421
0.141714
0.223854
0.286518
0.348642
0.397663
0.433511
0.45108
0.447762
0.43567
0.412352
0.394866
0.376748
0.3672
0.362313
0.361597
0.33824
0.31254
0.2936
0.241343
0.182091
0.0904094
0.0718632
0.302744
0.480792
0.567605
0.618898
0.658742
0.702823
0.740394
0.785133
0.826101
0.870378
0.909446
0.951183
0.991747
1.03999
1.09059
1.14375
0.983024
1.01416
1.01194
1.01481
1.01439
1.01589
1.01555
1.01646
1.01628
1.01667
1.01667
1.0168
1.01684
1.01691
1.01693
1.01697
1.01697
1.01695
1.01693
1.01685
1.01672
1.01657
1.01638
1.01614
1.01586
1.01551
1.01503
1.0144
1.01345
1.01199
1.00981
1.00661
1.00112
0.991011
0.980857
0.97528
0.97335
0.973913
0.985212
0.998678
1.00596
0.996813
0.996625
0.995994
0.996265
0.99617
0.995933
0.996044
0.995842
0.995924
0.995855
0.995915
0.995937
0.995975
0.995989
0.99601
0.996044
0.996016
0.995913
0.995847
0.995824
0.995786
0.995749
0.995736
0.995746
0.995804
0.995971
0.996305
0.996909
0.997937
0.999718
1.00272
1.00664
1.01044
1.01745
1.02731
1.02753
1.02083
1.01404
1.00915
0.995234
1.00396
1.00659
1.01044
1.01113
1.01324
1.01298
1.01409
1.01405
1.0145
1.01461
1.01479
1.01487
1.01495
1.01498
1.01498
1.01494
1.01492
1.01498
1.01487
1.01463
1.01434
1.01396
1.01352
1.01297
1.01228
1.0114
1.01024
1.00865
1.0065
1.00393
1.00135
0.997456
0.992002
0.99048
0.993183
0.997364
0.994792
0.998428
1.00319
1.01118
1.00597
1.00453
1.00324
1.00173
1.00132
0.999997
1.00001
0.999207
0.99914
0.998808
0.998746
0.998612
0.998548
0.998493
0.99849
0.998526
0.998467
0.998293
0.998245
0.99837
0.998507
0.998695
0.998971
0.999337
0.999835
1.00051
1.00141
1.00263
1.00416
1.00616
1.00899
1.01136
1.01188
1.01456
1.01856
1.01893
1.01576
1.01299
1.01055
0.996429
1.00113
1.00333
1.00682
1.00831
1.00999
1.01059
1.01147
1.01179
1.01218
1.01237
1.01251
1.0126
1.0127
1.01267
1.01262
1.01256
1.01261
1.01271
1.01253
1.01219
1.0118
1.01131
1.01073
1.01006
1.00926
1.00827
1.0071
1.00569
1.00398
1.00236
1.00101
0.998589
0.996493
0.996776
0.999774
1.00082
0.999349
1.00168
1.0051
1.00983
1.00759
1.00663
1.00629
1.00552
1.005
1.00399
1.00356
1.00282
1.00252
1.00211
1.00192
1.00176
1.00168
1.00159
1.00149
1.00142
1.00116
1.00082
1.00091
1.0012
1.00141
1.00178
1.00223
1.00269
1.00333
1.00403
1.00491
1.00592
1.00688
1.00824
1.00985
1.01017
1.00953
1.01123
1.01279
1.01227
1.00991
1.00912
1.00817
0.999799
1.00213
1.00327
1.00577
1.0069
1.0082
1.00874
1.00954
1.00989
1.01028
1.01049
1.01063
1.01067
1.01069
1.01065
1.01055
1.01053
1.01065
1.01068
1.01042
1.01004
1.00961
1.0091
1.00852
1.0079
1.00718
1.0064
1.00556
1.00453
1.00349
1.00279
1.0023
1.00075
0.999934
1.00092
1.00311
1.00286
1.00219
1.00395
1.0058
1.00777
1.00748
1.00703
1.00695
1.00672
1.0068
1.00669
1.00634
1.00579
1.00541
1.00503
1.00477
1.00452
1.00432
1.00415
1.00404
1.00384
1.00351
1.00333
1.00343
1.0037
1.004
1.00435
1.00477
1.00522
1.0057
1.0062
1.00671
1.00715
1.00756
1.00826
1.00882
1.00836
1.00805
1.00887
1.00939
1.00836
1.00695
1.00649
1.00633
1.00306
1.00393
1.00449
1.00603
1.00684
1.00773
1.00823
1.00867
1.00895
1.0092
1.00931
1.00938
1.00937
1.00931
1.00921
1.0091
1.00915
1.00925
1.00915
1.00885
1.00845
1.00804
1.0076
1.00717
1.00674
1.00627
1.00582
1.00538
1.00483
1.00446
1.00438
1.00444
1.00371
1.00352
1.00489
1.00591
1.00558
1.00499
1.00558
1.00607
1.00633
1.0066
1.0069
1.00769
1.00787
1.00782
1.00769
1.00777