/*--------------------------------*- C++ -*----------------------------------*\
  =========                 |
  \\      /  F ield         | OpenFOAM: The Open Source CFD Toolbox
   \\    /   O peration     | Website:  https://openfoam.org
    \\  /    A nd           | Version:  11
     \\/     M anipulation  |
\*---------------------------------------------------------------------------*/
FoamFile
{
    format      ascii;
    class       volScalarField;
    location    "1";
    object      p;
}
// * * * * * * * * * * * * * * * * * * * * * * * * * * * * * * * * * * * * * //

dimensions      [0 2 -2 0 0 0 0];

internalField   nonuniform List<scalar> 
9600
(
0.0234042
0.023789
0.0277749
0.032145
0.0330662
0.0300868
0.0274662
0.0250513
0.0228836
0.0201569
0.016298
0.0107581
0.00294826
-0.00757982
-0.0208777
-0.0366917
-0.0542489
-0.0720222
-0.0879735
-0.100365
-0.108527
-0.111615
-0.10831
-0.100098
-0.0887179
-0.0751089
-0.0618038
-0.0502819
-0.0407037
-0.0330754
-0.0268285
-0.0217812
-0.0177137
-0.0144517
-0.0125445
-0.0120941
-0.0126669
-0.0133451
-0.0146204
-0.0152918
0.0245511
0.0255165
0.0293893
0.0308932
0.0306789
0.0268608
0.0240044
0.0220318
0.0198265
0.0170089
0.0127232
0.00653177
-0.00182463
-0.0127641
-0.0261165
-0.041634
-0.0586566
-0.0756595
-0.0907836
-0.102213
-0.109864
-0.112115
-0.109209
-0.101488
-0.0906224
-0.0774274
-0.0641767
-0.0523702
-0.0423321
-0.0342878
-0.0275138
-0.022226
-0.0181457
-0.0143076
-0.0116276
-0.0105627
-0.0103716
-0.0106342
-0.012572
-0.0142211
0.0252289
0.0257233
0.029956
0.0330789
0.0329994
0.0318412
0.0293564
0.0261715
0.0229169
0.0193612
0.0146308
0.0086119
0.000445124
-0.0103178
-0.0236279
-0.0392258
-0.0562672
-0.0732971
-0.0882712
-0.0998549
-0.107748
-0.111812
-0.109627
-0.102447
-0.0920357
-0.0794262
-0.0667755
-0.0556199
-0.0460634
-0.0383859
-0.03199
-0.0265197
-0.0222881
-0.018705
-0.0160453
-0.0148482
-0.0148604
-0.0152217
-0.0153441
-0.0132867
0.0251941
0.027027
0.0309694
0.0316426
0.0288615
0.024356
0.0206166
0.0186933
0.0166776
0.0139331
0.00945132
0.00284513
-0.00597976
-0.0172021
-0.0305668
-0.0458092
-0.0623798
-0.0788924
-0.0936823
-0.104779
-0.112372
-0.113666
-0.110788
-0.103683
-0.0932716
-0.0803352
-0.0670403
-0.0548584
-0.044348
-0.0356552
-0.0286169
-0.0228213
-0.0185954
-0.0150187
-0.012169
-0.0101598
-0.009364
-0.00971239
-0.0112934
-0.0129754
0.0247289
0.0292517
0.0321168
0.0325244
0.0308995
0.0317352
0.030968
0.0278593
0.0236462
0.0186418
0.0133032
0.00629695
-0.00238706
-0.0135504
-0.0270131
-0.0424492
-0.0591354
-0.0756813
-0.0899859
-0.100831
-0.107714
-0.112952
-0.111354
-0.104889
-0.0951284
-0.0832098
-0.0711056
-0.0603399
-0.0510386
-0.043577
-0.0371739
-0.0314896
-0.0266117
-0.0223961
-0.0193138
-0.0173343
-0.0163754
-0.016166
-0.0149299
-0.0125215
0.0257113
0.0314199
0.0325267
0.0312536
0.0282505
0.0238871
0.0193335
0.0160404
0.0136284
0.0107423
0.00624424
-0.000522006
-0.00978816
-0.0212026
-0.0344043
-0.0494206
-0.0656718
-0.0818776
-0.0966034
-0.107856
-0.115697
-0.115837
-0.113128
-0.1065
-0.0965768
-0.0839295
-0.0706542
-0.0581521
-0.0470692
-0.0375554
-0.0300551
-0.0238949
-0.0194877
-0.0162221
-0.0133007
-0.0109846
-0.00980884
-0.00948695
-0.0103983
-0.0117235
0.029687
0.0325976
0.0327444
0.0309098
0.0289536
0.0294598
0.0299433
0.0281073
0.0240508
0.0180718
0.0117706
0.00407955
-0.00560852
-0.017119
-0.030847
-0.0462677
-0.0627532
-0.0790878
-0.0930879
-0.102961
-0.109294
-0.115284
-0.114001
-0.107983
-0.0984592
-0.0867773
-0.0749055
-0.0643199
-0.0553452
-0.0480714
-0.0419477
-0.0364468
-0.0307373
-0.0256124
-0.0218809
-0.0191427
-0.0175052
-0.0161055
-0.0140342
-0.0121178
0.0329709
0.0327828
0.0324221
0.0297757
0.0272035
0.0246052
0.0199806
0.0148881
0.0115145
0.0081058
0.00325962
-0.00365474
-0.0131885
-0.0248504
-0.0378976
-0.0527716
-0.0688796
-0.0849954
-0.0997459
-0.111136
-0.119174
-0.118864
-0.116281
-0.110076
-0.100453
-0.0881094
-0.0749727
-0.0623215
-0.0507211
-0.0404633
-0.0321683
-0.0254698
-0.0211437
-0.0180679
-0.0152092
-0.0128208
-0.0111876
-0.0102867
-0.0105205
-0.011094
0.0325364
0.0327315
0.0313867
0.0294829
0.027339
0.0267339
0.0265517
0.0262911
0.0231776
0.0170373
0.00977254
0.00153505
-0.00880508
-0.0209379
-0.0350066
-0.050577
-0.0670816
-0.0833932
-0.0974874
-0.107105
-0.112352
-0.118617
-0.11767
-0.111912
-0.102435
-0.090593
-0.0785307
-0.0677603
-0.0588674
-0.051757
-0.0461205
-0.0408258
-0.0345051
-0.0283328
-0.0237471
-0.0204832
-0.0179785
-0.0157091
-0.0136657
-0.0119725
0.0316479
0.0324609
0.0309469
0.02914
0.0270188
0.0251409
0.0218046
0.015708
0.0106995
0.00617468
0.000805596
-0.00642996
-0.0162342
-0.028126
-0.0412715
-0.0562233
-0.0723777
-0.0885372
-0.103373
-0.114867
-0.123037
-0.122707
-0.120307
-0.114466
-0.104904
-0.0928203
-0.0798257
-0.0672084
-0.0553048
-0.0443862
-0.0351048
-0.0279429
-0.0234785
-0.0205934
-0.0177641
-0.0151794
-0.0130893
-0.0118265
-0.0116687
-0.0113407
0.031253
0.0317643
0.0306394
0.0288064
0.0266063
0.0249263
0.0237204
0.0220813
0.0195668
0.0148232
0.00735509
-0.00152164
-0.0121476
-0.0249792
-0.0394622
-0.0553594
-0.0720968
-0.0885426
-0.103022
-0.112875
-0.117584
-0.123267
-0.122404
-0.116874
-0.10732
-0.0951518
-0.0825436
-0.0711269
-0.0618951
-0.054691
-0.0492159
-0.0439385
-0.0375517
-0.0305289
-0.0252889
-0.0215232
-0.0183219
-0.0157727
-0.0138605
-0.0120465
0.0309713
0.0311305
0.0305711
0.0284904
0.0263364
0.0245601
0.0220562
0.0171241
0.0114489
0.0055035
-0.00107052
-0.00891889
-0.0189956
-0.0311646
-0.0447515
-0.0601227
-0.076551
-0.092876
-0.107848
-0.119384
-0.127169
-0.127574
-0.125472
-0.119809
-0.110221
-0.0979642
-0.0851159
-0.0725567
-0.06056
-0.0493069
-0.0393258
-0.0315183
-0.0264801
-0.0235747
-0.020661
-0.0178477
-0.0154933
-0.0138434
-0.0129792
-0.0122792
0.0304849
0.030736
0.0304972
0.0283061
0.0259392
0.0241893
0.0214528
0.0185859
0.0150842
0.0108855
0.00420156
-0.00490982
-0.0160176
-0.029296
-0.0442799
-0.0606775
-0.0778375
-0.0945678
-0.109571
-0.120164
-0.125452
-0.12956
-0.128413
-0.122905
-0.113308
-0.100802
-0.087613
-0.0752339
-0.0649697
-0.0571529
-0.0513676
-0.0462542
-0.0401413
-0.0326392
-0.0267327
-0.0224374
-0.0189784
-0.0162074
-0.014362
-0.0128263
0.0301183
0.0305736
0.0303663
0.0280904
0.0255651
0.0237817
0.0210733
0.0174977
0.0123728
0.00579881
-0.00208462
-0.0109632
-0.0215687
-0.034241
-0.0486312
-0.0647818
-0.0817757
-0.0984162
-0.113584
-0.125161
-0.13222
-0.133889
-0.132122
-0.126501
-0.116674
-0.103889
-0.0905967
-0.0780939
-0.0662972
-0.0549026
-0.0445129
-0.0359893
-0.0303908
-0.0269707
-0.0238295
-0.0207735
-0.0180143
-0.0159289
-0.0144785
-0.0133024
0.0300694
0.0304846
0.0301843
0.02789
0.0252297
0.0234515
0.0205968
0.0168163
0.0123605
0.00677708
7.25023e-05
-0.00877809
-0.0202318
-0.0340044
-0.0496139
-0.0667321
-0.0844746
-0.101548
-0.117016
-0.128638
-0.134718
-0.13758
-0.136079
-0.130315
-0.120343
-0.107348
-0.0938128
-0.080735
-0.069052
-0.0598854
-0.0531482
-0.0476692
-0.0418988
-0.034877
-0.0284274
-0.0237829
-0.0202058
-0.0172558
-0.0151943
-0.0138574
0.0302231
0.0304433
0.0300324
0.027812
0.0250176
0.0230731
0.0201487
0.0164049
0.0116194
0.00525679
-0.00281197
-0.0125756
-0.0242327
-0.0378551
-0.0533042
-0.0704493
-0.0883045
-0.10552
-0.121157
-0.133158
-0.140222
-0.142367
-0.14065
-0.134668
-0.124433
-0.111158
-0.0972345
-0.0838723
-0.0718815
-0.0608247
-0.0503894
-0.0413049
-0.034731
-0.0303603
-0.0271404
-0.0237462
-0.0206408
-0.0179691
-0.0158504
-0.0144324
0.0304385
0.0305091
0.0299984
0.0278448
0.0249143
0.0226486
0.0198343
0.0159157
0.0107772
0.00428022
-0.00345787
-0.0129738
-0.0249188
-0.0392695
-0.055668
-0.0736245
-0.0920832
-0.109667
-0.125519
-0.138035
-0.145102
-0.147474
-0.145647
-0.139499
-0.128957
-0.11535
-0.101047
-0.0873277
-0.074673
-0.0638184
-0.0555065
-0.0490487
-0.043317
-0.0367754
-0.0304304
-0.0255962
-0.0218907
-0.0188992
-0.0165955
-0.0150759
0.0306419
0.0305335
0.0300668
0.0279481
0.0248659
0.0223319
0.0195832
0.0154202
0.0101287
0.00353143
-0.00463426
-0.01484
-0.0274814
-0.0423263
-0.0591358
-0.0776356
-0.096594
-0.114479
-0.130492
-0.143378
-0.151076
-0.153399
-0.151268
-0.144882
-0.134001
-0.120026
-0.105282
-0.0910528
-0.0779808
-0.0666509
-0.0565003
-0.0471033
-0.0397168
-0.0345401
-0.0304554
-0.0266685
-0.0230024
-0.0198244
-0.01736
-0.01573
0.030796
0.0305648
0.0302399
0.0281318
0.0249298
0.02215
0.019341
0.0150195
0.00951555
0.00259752
-0.00606237
-0.016664
-0.0297282
-0.0451258
-0.0626189
-0.0818597
-0.101466
-0.119762
-0.135954
-0.149298
-0.157578
-0.159963
-0.15755
-0.150868
-0.139637
-0.125283
-0.109989
-0.0951798
-0.0816266
-0.0696106
-0.0594453
-0.051406
-0.0448467
-0.0385863
-0.032773
-0.0279719
-0.0241352
-0.0208176
-0.018185
-0.0164268
0.0309836
0.0307166
0.0305336
0.0284445
0.0251555
0.0221096
0.0191345
0.0146614
0.00887116
0.00160342
-0.0074571
-0.0185608
-0.0322719
-0.0484697
-0.0667556
-0.086753
-0.107057
-0.125792
-0.142131
-0.155853
-0.164849
-0.167356
-0.164617
-0.157566
-0.145944
-0.131137
-0.115252
-0.0998173
-0.0856592
-0.0731063
-0.0623969
-0.0530871
-0.0450752
-0.0386373
-0.0335049
-0.0291836
-0.025263
-0.0218148
-0.0190343
-0.0171521
0.0313535
0.0310145
0.0309157
0.0288929
0.0255276
0.0222449
0.0189415
0.0143156
0.00825172
0.000592717
-0.00895999
-0.0207251
-0.0351834
-0.0522443
-0.0713966
-0.0921548
-0.113228
-0.132564
-0.149127
-0.163204
-0.172865
-0.175654
-0.172575
-0.165055
-0.153029
-0.137732
-0.121155
-0.105028
-0.0902025
-0.0770245
-0.0655861
-0.0558244
-0.047898
-0.041289
-0.0354675
-0.0305074
-0.0264005
-0.0228131
-0.0198821
-0.0178536
0.0319233
0.0314806
0.0313975
0.029502
0.0260604
0.0224874
0.0188279
0.0140283
0.00766189
-0.000493798
-0.0106767
-0.0231915
-0.0384866
-0.0565178
-0.0766344
-0.0982483
-0.120165
-0.14024
-0.157127
-0.171495
-0.181715
-0.184901
-0.181562
-0.173474
-0.160993
-0.145158
-0.12784
-0.110932
-0.0953818
-0.0814755
-0.0693316
-0.0589518
-0.0503471
-0.0431074
-0.0370162
-0.0318985
-0.0275884
-0.0238371
-0.020756
-0.0185707
0.0327345
0.032129
0.0320445
0.0302877
0.0267263
0.0228137
0.0188602
0.0138032
0.00704189
-0.00169843
-0.0126219
-0.0260244
-0.0423075
-0.0613674
-0.08254
-0.105202
-0.127995
-0.14885
-0.166274
-0.180882
-0.191588
-0.195226
-0.191709
-0.182997
-0.169965
-0.153516
-0.135464
-0.117687
-0.10127
-0.0865791
-0.0736623
-0.0625092
-0.0531901
-0.0454473
-0.0389287
-0.0334282
-0.0288279
-0.0248651
-0.0215971
-0.0192624
0.0337886
0.0330112
0.032888
0.031273
0.0275763
0.0232413
0.0190307
0.0137379
0.00638006
-0.00312842
-0.014956
-0.0293659
-0.0467683
-0.0669401
-0.089293
-0.113174
-0.136879
-0.158526
-0.176752
-0.1916
-0.202581
-0.206719
-0.203128
-0.193759
-0.18013
-0.163024
-0.144142
-0.12543
-0.108062
-0.0924866
-0.0787164
-0.0667049
-0.0565267
-0.0480798
-0.0410471
-0.035143
-0.0301979
-0.0259498
-0.0224583
-0.0199396
0.0351037
0.0341364
0.0339412
0.0324714
0.0286667
0.0238537
0.0192756
0.0135475
0.00559253
-0.00472512
-0.0176357
-0.03331
-0.0520405
-0.0734885
-0.0971261
-0.122302
-0.147036
-0.169578
-0.18875
-0.203865
-0.214942
-0.219541
-0.216007
-0.205988
-0.191686
-0.173888
-0.154103
-0.134373
-0.115965
-0.0993187
-0.0845386
-0.0716375
-0.0605913
-0.0513203
-0.0436112
-0.0371513
-0.0317604
-0.0271517
-0.0233395
-0.020537
0.0367756
0.0355537
0.0352572
0.0338476
0.0299347
0.0247128
0.0196101
0.0132621
0.00452937
-0.00678574
-0.0208718
-0.0379154
-0.0581574
-0.0811559
-0.106303
-0.132868
-0.158732
-0.182219
-0.202427
-0.217943
-0.228965
-0.233894
-0.230573
-0.219913
-0.204806
-0.186296
-0.16563
-0.144755
-0.125181
-0.107437
-0.0915422
-0.0775203
-0.0654057
-0.0551547
-0.046646
-0.0394998
-0.0336053
-0.0285709
-0.024324
-0.0211286
0.0388981
0.0373081
0.0368131
0.0354071
0.0313933
0.0258204
0.0200782
0.0129145
0.00318339
-0.00956471
-0.0252557
-0.043724
-0.0653941
-0.0900647
-0.116957
-0.145154
-0.172451
-0.196844
-0.217965
-0.234078
-0.245014
-0.250088
-0.247023
-0.23578
-0.219848
-0.200622
-0.179004
-0.156927
-0.136014
-0.117002
-0.0998717
-0.0846218
-0.0713699
-0.0600312
-0.0505
-0.0424545
-0.0358234
-0.0302743
-0.0255591
-0.0218675
0.0413696
0.0394271
0.0386123
0.0371244
0.0329908
0.0269072
0.0204516
0.0125227
0.00140182
-0.0130741
-0.0306446
-0.0510059
-0.0744342
-0.100786
-0.129434
-0.159337
-0.188343
-0.214039
-0.236015
-0.252626
-0.263414
-0.2685
-0.265762
-0.254075
-0.237028
-0.216962
-0.194564
-0.171368
-0.148987
-0.128449
-0.109927
-0.0933172
-0.0786726
-0.0660121
-0.0553547
-0.0463033
-0.0386671
-0.0323648
-0.0270293
-0.0227742
0.0443672
0.0420482
0.0407749
0.0389816
0.0346906
0.0278113
0.0201864
0.0114762
-0.00087596
-0.0174329
-0.0371652
-0.0596741
-0.085513
-0.114162
-0.144613
-0.176048
-0.206706
-0.233903
-0.256937
-0.274158
-0.284711
-0.289381
-0.286949
-0.275251
-0.257099
-0.235875
-0.212611
-0.18837
-0.164597
-0.14243
-0.122275
-0.104085
-0.0878965
-0.0736581
-0.0615196
-0.0512306
-0.0425104
-0.0352283
-0.0290211
-0.0239713
0.0478248
0.0449933
0.0430686
0.0407343
0.0361149
0.0283664
0.019198
0.00906378
-0.00463433
-0.0229629
-0.0452194
-0.0704689
-0.0989107
-0.130123
-0.163014
-0.196343
-0.228554
-0.257193
-0.281247
-0.299195
-0.309608
-0.313525
-0.311078
-0.299745
-0.28065
-0.257876
-0.233513
-0.208406
-0.183454
-0.159562
-0.137502
-0.117447
-0.099511
-0.0835701
-0.0697101
-0.0578485
-0.047691
-0.039182
-0.0318948
-0.0258802
0.0518276
0.0484797
0.0457878
0.0427364
0.0375874
0.0286291
0.017334
0.00507395
-0.0104378
-0.0309408
-0.0556055
-0.0837382
-0.115279
-0.149458
-0.185117
-0.220825
-0.254965
-0.285086
-0.309773
-0.328215
-0.338943
-0.341924
-0.338623
-0.327622
-0.308445
-0.284234
-0.258207
-0.23176
-0.205725
-0.180618
-0.156908
-0.134737
-0.114602
-0.0965274
-0.0805141
-0.0666523
-0.05467
-0.0444731
-0.0358086
-0.0285735
0.0564369
0.0521912
0.0482729
0.043773
0.0374547
0.0271282
0.0133269
-0.00178325
-0.0195122
-0.0424422
-0.0700251
-0.100999
-0.135601
-0.173175
-0.212202
-0.250638
-0.286713
-0.31838
-0.343861
-0.362336
-0.373226
-0.375839
-0.371303
-0.359839
-0.340725
-0.31572
-0.288108
-0.259956
-0.232363
-0.205678
-0.180507
-0.156796
-0.134685
-0.114436
-0.0960035
-0.0795778
-0.0652502
-0.0530107
-0.042675
-0.0341541
0.061782
0.0565716
0.0513335
0.0449712
0.0366227
0.0243898
0.00748905
-0.0114936
-0.0322981
-0.0580076
-0.089355
-0.124089
-0.161773
-0.20245
-0.245078
-0.286911
-0.325438
-0.358745
-0.38523
-0.40355
-0.413639
-0.415625
-0.410081
-0.397686
-0.378516
-0.353128
-0.324365
-0.294445
-0.26512
-0.236633
-0.209493
-0.183886
-0.15977
-0.137516
-0.116915
-0.0977934
-0.0802765
-0.0645041
-0.0510187
-0.0402103
0.0665013
0.0591695
0.0516298
0.0426489
0.0315722
0.0173108
-0.00268516
-0.0268751
-0.0525784
-0.0811952
-0.116026
-0.155604
-0.197506
-0.240962
-0.28611
-0.331103
-0.372646
-0.408172
-0.43608
-0.455359
-0.46411
-0.463756
-0.456244
-0.442555
-0.422598
-0.396955
-0.367786
-0.336872
-0.305861
-0.275862
-0.247041
-0.219635
-0.193424
-0.168761
-0.145868
-0.124817
-0.105268
-0.0871098
-0.0704958
-0.0564959
0.0731595
0.0643173
0.0540229
0.0411692
0.0250179
0.00578606
-0.018166
-0.0479601
-0.0810333
-0.114898
-0.152228
-0.19572
-0.24292
-0.290594
-0.337932
-0.384853
-0.428774
-0.467035
-0.49685
-0.517719
-0.527504
-0.526325
-0.514719
-0.497159
-0.474536
-0.447904
-0.41832
-0.386674
-0.354054
-0.322394
-0.291842
-0.262421
-0.234475
-0.20772
-0.182635
-0.159346
-0.137539
-0.116647
-0.0968045
-0.0794081
0.0708245
0.0571775
0.043079
0.0266614
0.00604592
-0.0184844
-0.0473782
-0.0817534
-0.120914
-0.162713
-0.205404
-0.251295
-0.301272
-0.353741
-0.404473
-0.452242
-0.496898
-0.536924
-0.568668
-0.589976
-0.601255
-0.604086
-0.598846
-0.579709
-0.551687
-0.521885
-0.489995
-0.456528
-0.422203
-0.388705
-0.356266
-0.325054
-0.29507
-0.266283
-0.238392
-0.21223
-0.188166
-0.166704
-0.147159
-0.130594
0.0863479
0.0670316
0.0409175
0.010027
-0.0242422
-0.061093
-0.10009
-0.142609
-0.188926
-0.239096
-0.290466
-0.343207
-0.397386
-0.453016
-0.507191
-0.556816
-0.59962
-0.634687
-0.660462
-0.674509
-0.676696
-0.667137
-0.648733
-0.627278
-0.606086
-0.582874
-0.554277
-0.522297
-0.490409
-0.458792
-0.427746
-0.396582
-0.365736
-0.335136
-0.304593
-0.274399
-0.243997
-0.214697
-0.186579
-0.162787
0.0202696
-0.00681889
-0.0383763
-0.0736515
-0.112953
-0.156513
-0.203712
-0.254708
-0.308637
-0.365642
-0.424437
-0.484328
-0.544345
-0.604445
-0.663403
-0.719801
-0.770101
-0.812517
-0.844659
-0.86582
-0.874311
-0.871513
-0.856023
-0.829287
-0.788067
-0.741416
-0.697016
-0.659362
-0.626507
-0.596119
-0.566465
-0.537668
-0.509097
-0.481424
-0.455382
-0.42995
-0.405523
-0.380504
-0.355517
-0.330407
0.0720605
0.0225266
-0.0343048
-0.0894259
-0.14276
-0.197109
-0.254294
-0.314313
-0.376369
-0.439221
-0.501586
-0.562586
-0.621213
-0.677295
-0.729455
-0.777504
-0.819479
-0.854185
-0.879079
-0.894
-0.89809
-0.890698
-0.874003
-0.851148
-0.825006
-0.795374
-0.759606
-0.718546
-0.67476
-0.633784
-0.598268
-0.570324
-0.548191
-0.531072
-0.516068
-0.503192
-0.492893
-0.485885
-0.480927
-0.47382
-0.404197
-0.44922
-0.504391
-0.574264
-0.65019
-0.724962
-0.800013
-0.873257
-0.943512
-1.00472
-1.05601
-1.10315
-1.15282
-1.20245
-1.24646
-1.28003
-1.30494
-1.32103
-1.32953
-1.32888
-1.31946
-1.30026
-1.27067
-1.22906
-1.17942
-1.12382
-1.06746
-1.01147
-0.957933
-0.905696
-0.856299
-0.809293
-0.767284
-0.729234
-0.696569
-0.667542
-0.643155
-0.621541
-0.604736
-0.588759
-0.00743676
0.00205235
-0.0114918
-0.000389207
-0.00989018
-2.34817e-05
-0.00746102
-0.0010926
-0.00338118
-0.00225503
-0.00189038
-0.0016118
-0.00116245
-0.000731471
-0.000430291
-0.000170063
0.000125672
0.000370841
0.000673178
0.00118821
0.00171305
0.00190271
0.00226188
0.00272907
0.00293981
0.00309767
0.00330307
0.00349243
0.00365412
0.00383591
0.0041043
0.00439576
0.00454445
0.00443854
0.00442214
0.00426869
0.00438758
0.00375175
0.00444605
0.00191451
-0.0159529
0.00019438
-0.00946363
-0.00215573
-0.00877793
-0.00064487
-0.00716143
-0.0019549
-0.0031084
-0.00227214
-0.00174773
-0.00145257
-0.00107844
-0.000783516
-0.000550724
-0.000125823
0.000162702
0.00040285
0.000771108
0.00130526
0.00171891
0.0019683
0.00237567
0.00264531
0.00284881
0.0031195
0.00337122
0.00347491
0.00354826
0.00374392
0.00411983
0.00441583
0.00450786
0.00437014
0.00431264
0.00440198
0.00453934
0.00433119
0.00386859
0.00365962
-0.00297489
-0.000888586
-0.0079312
-0.00350697
-0.00788857
-0.00129833
-0.00665336
-0.00295973
-0.00291063
-0.00232214
-0.00179127
-0.00150065
-0.00125199
-0.00103792
-0.000759063
-0.000259733
0.000158758
0.000419733
0.00070634
0.00114809
0.00169008
0.00210908
0.00227656
0.0024321
0.00276195
0.00308237
0.00330828
0.00338834
0.00345991
0.00371706
0.00405683
0.00424038
0.00437914
0.00427214
0.00429494
0.00445854
0.00457422
0.00460741
0.00471584
0.00529748
-0.0122345
-0.00223747
-0.00717371
-0.00436884
-0.00728361
-0.00195022
-0.00614678
-0.00357779
-0.00289522
-0.00241214
-0.00198543
-0.00174701
-0.00157687
-0.00140813
-0.0010591
-0.000444239
5.17102e-05
0.00018487
0.00045124
0.000969995
0.00168852
0.00205273
0.00206977
0.00231107
0.00267745
0.00294772
0.00313332
0.00333466
0.00352511
0.00377549
0.00392795
0.0039941
0.00400644
0.00402058
0.00423696
0.00446016
0.00452401
0.00443277
0.00445592
0.00501742
-0.00371149
-0.00260101
-0.00702489
-0.00485172
-0.00687954
-0.00256344
-0.00567226
-0.00380949
-0.00296874
-0.002545
-0.00225423
-0.00207245
-0.00195401
-0.00181175
-0.00139881
-0.000735282
-0.000382076
-0.000186943
0.000284623
0.000844653
0.00142211
0.0017385
0.00193056
0.00230106
0.00252169
0.0027522
0.00301229
0.00334152
0.0035879
0.00367142
0.00362142
0.00367164
0.00360924
0.00372109
0.00415311
0.00445578
0.00453284
0.00447725
0.0044709
0.00438824
-0.0110766
-0.00350959
-0.00704016
-0.00517109
-0.00644141
-0.00306886
-0.0052623
-0.00380876
-0.00303584
-0.00268084
-0.00251419
-0.00239759
-0.00235356
-0.00221703
-0.00177239
-0.0013057
-0.00100586
-0.0004815
0.000141033
0.000610707
0.00102084
0.00149953
0.0019648
0.00227299
0.00225137
0.00252507
0.00301535
0.00334601
0.00341776
0.00325995
0.00315505
0.0032613
0.00329636
0.0035246
0.00404818
0.0043781
0.00451489
0.00453802
0.0046901
0.00516849
-0.00552114
-0.00361173
-0.00716923
-0.00537587
-0.00601523
-0.00344843
-0.00491693
-0.00369055
-0.00307172
-0.00279069
-0.00272521
-0.00270049
-0.002694
-0.00255569
-0.00223363
-0.00202292
-0.00153419
-0.000830894
-0.000182336
0.000385314
0.000876741
0.00150906
0.00200165
0.00206839
0.00198664
0.00240643
0.00305491
0.00313688
0.00303124
0.00280849
0.00284077
0.00299079
0.00301857
0.00335687
0.00391156
0.00422798
0.004376
0.00443209
0.00445533
0.00421748
-0.0102654
-0.00434113
-0.00705274
-0.00569967
-0.00563511
-0.00366383
-0.00460124
-0.00352071
-0.00304406
-0.00286511
-0.00288397
-0.00293717
-0.00296843
-0.00286836
-0.00269945
-0.00256747
-0.00197676
-0.00123596
-0.000509356
0.000243255
0.000955451
0.00154563
0.00181538
0.00182364
0.00196077
0.00248764
0.00281627
0.00265765
0.00248016
0.00241044
0.00265531
0.00275219
0.00274571
0.00320121
0.00374085
0.00396787
0.00410755
0.00433517
0.00464353
0.00506825
-0.00743395
-0.00452584
-0.00690436
-0.00580052
-0.00530938
-0.00377171
-0.00430928
-0.00333175
-0.00296451
-0.00288138
-0.00296697
-0.0030966
-0.00319588
-0.00314992
-0.00310995
-0.00293355
-0.00222329
-0.00146068
-0.000641945
0.000195532
0.000988037
0.00127725
0.00152457
0.00180216
0.00217607
0.00237676
0.00227878
0.00208624
0.00189237
0.00209872
0.00248218
0.00256645
0.00265339
0.00317084
0.00363633
0.00370447
0.00374632
0.00399964
0.00425512
0.00425168
-0.0100023
-0.00499314
-0.0067021
-0.00588188
-0.00509001
-0.00378885
-0.00400082
-0.0031174
-0.00283227
-0.00283462
-0.00297925
-0.00319018
-0.00334614
-0.00340603
-0.00348994
-0.00313654
-0.00222637
-0.00143075
-0.000581253
0.000248343
0.000758635
0.000883456
0.00136416
0.00200152
0.00223522
0.00202618
0.00188067
0.00168181
0.00158425
0.00193543
0.00237464
0.00251838
0.00267776
0.00314555
0.00352286
0.00350856
0.00354899
0.00383568
0.00423747
0.00466445
-0.00932025
-0.00556119
-0.00647416
-0.00594178
-0.00494025
-0.00372457
-0.00365129
-0.00286994
-0.00263547
-0.0027112
-0.0029133
-0.00319784
-0.00343513
-0.00365154
-0.00374571
-0.00307148
-0.00212891
-0.00132115
-0.000475292
0.000278399
0.000498285
0.00075482
0.00151671
0.002132
0.00191436
0.00167032
0.00154952
0.00137155
0.00141207
0.00189319
0.00235218
0.00250317
0.00268708
0.00309731
0.00337663
0.0033298
0.00338323
0.00362537
0.00393154
0.00414911
-0.0108238
-0.00668925
-0.00644277
-0.00597397
-0.0048173
-0.00356542
-0.00325823
-0.00258811
-0.00238376
-0.00251257
-0.00277424
-0.00312754
-0.00344948
-0.00382778
-0.0037825
-0.00279922
-0.00197869
-0.00124867
-0.000411142
0.000215495
0.000515934
0.00108512
0.00180786
0.0018019
0.00143053
0.00124032
0.00106985
0.000962592
0.00113885
0.00170686
0.00218449
0.00237669
0.00260847
0.00300502
0.00321875
0.0031538
0.00321753
0.00345928
0.00374065
0.00400533
-0.0113357
-0.00772087
-0.0065307
-0.00598292
-0.00467126
-0.00334347
-0.00285301
-0.00226432
-0.00205322
-0.00223197
-0.00255881
-0.00296692
-0.00341308
-0.00386554
-0.0035274
-0.00247607
-0.0017691
-0.00117058
-0.000464076
0.00024285
0.000888553
0.00146704
0.00155448
0.00126137
0.000950974
0.000686095
0.000586457
0.000538867
0.000862307
0.0013753
0.00173437
0.00194681
0.00238376
0.00285369
0.00299395
0.00293191
0.00304581
0.00331774
0.00354123
0.00370222
-0.0120803
-0.00871723
-0.0067924
-0.00601187
-0.00449655
-0.00311101
-0.00238145
-0.0018732
-0.00163358
-0.00185603
-0.00224198
-0.00273319
-0.0033654
-0.00371043
-0.00298781
-0.00215641
-0.00159222
-0.00115797
-0.000508991
0.000417404
0.00104671
0.00109403
0.000856058
0.000715956
0.000433029
0.000272021
0.000264019
0.00037275
0.000708669
0.00112349
0.00132835
0.00148534
0.00198282
0.00255624
0.00268703
0.00264351
0.00283815
0.00313817
0.00332925
0.00344575
-0.0125888
-0.00947711
-0.00705534
-0.00599034
-0.00427846
-0.00284517
-0.00179632
-0.00137126
-0.0011149
-0.00137176
-0.00181036
-0.00243277
-0.00321953
-0.00331299
-0.00233474
-0.00180563
-0.00149288
-0.00116408
-0.000407305
0.000380515
0.00048714
0.000182366
7.94224e-05
-7.49266e-05
-0.000282158
-0.000194337
3.86601e-05
0.000338401
0.00057955
0.000903698
0.00106752
0.00118441
0.00156843
0.00209106
0.00230968
0.00236088
0.00261258
0.00293015
0.00311429
0.00321563
-0.0131618
-0.0101018
-0.00731196
-0.0059761
-0.00399113
-0.00247288
-0.00117964
-0.000743531
-0.000499939
-0.000759698
-0.00127349
-0.00209819
-0.00284559
-0.00255639
-0.00176785
-0.00147404
-0.00141183
-0.00107222
-0.000322894
-5.45121e-05
-0.000454742
-0.000723353
-0.000867724
-0.00121582
-0.00125246
-0.000834482
-0.000315607
0.00015424
0.000350763
0.000614398
0.000785923
0.000949335
0.00128949
0.00161806
0.00183457
0.00198406
0.00231363
0.00266331
0.00286072
0.00296516
-0.0137605
-0.0106375
-0.00752549
-0.00591529
-0.00360438
-0.00196972
-0.000508097
2.12643e-05
0.000248652
3.45542e-06
-0.000646829
-0.00167961
-0.00217664
-0.00152675
-0.00121564
-0.00122352
-0.00130284
-0.000873777
-0.000448463
-0.000840337
-0.00143461
-0.00153565
-0.00185585
-0.00236046
-0.00215985
-0.00154661
-0.000931694
-0.000358053
-9.7282e-05
0.000170678
0.000364358
0.000595417
0.000957884
0.00116537
0.00130746
0.00153244
0.00193061
0.00231553
0.00254197
0.0026779
-0.0142979
-0.0110309
-0.00773633
-0.0057188
-0.00310438
-0.00133241
0.000349468
0.000949477
0.00118089
0.000923178
7.60882e-05
-0.000988455
-0.00113838
-0.000548871
-0.000653159
-0.0010133
-0.0010331
-0.000687747
-0.000986285
-0.00178968
-0.00214856
-0.00228186
-0.00291271
-0.00330571
-0.0028595
-0.0022275
-0.00159826
-0.00106392
-0.000642013
-0.000342666
-0.000147617
9.61026e-05
0.000435831
0.000680779
0.000819491
0.00105344
0.00148807
0.00190535
0.00217514
0.00234104
-0.014869
-0.0114241
-0.00781741
-0.00537528
-0.00245243
-0.000505816
0.00134929
0.00208175
0.00233596
0.00197411
0.000921256
9.13352e-05
0.000297843
0.000320896
-0.000164286
-0.00066993
-0.000627559
-0.000818399
-0.00173395
-0.0025826
-0.00297172
-0.00352702
-0.0042121
-0.00411455
-0.00341727
-0.00273986
-0.00215001
-0.00167578
-0.0011718
-0.000861075
-0.000716211
-0.000524802
-0.000172009
0.000122601
0.000258368
0.00049951
0.000968038
0.00141728
0.00174119
0.00193419
-0.0154439
-0.0117986
-0.00775967
-0.00492311
-0.00161167
0.000515809
0.00249969
0.00345123
0.00372635
0.00315464
0.00202686
0.00157421
0.00180631
0.00119709
0.000336299
-8.25735e-05
-0.000312577
-0.00122956
-0.00239388
-0.00341146
-0.00440577
-0.00523617
-0.00546645
-0.0048552
-0.00398786
-0.00327283
-0.00272874
-0.00230475
-0.00183072
-0.00147461
-0.00133483
-0.00109619
-0.000741918
-0.000493052
-0.000393392
-0.000129689
0.000381701
0.00085435
0.00121616
0.00143442
-0.0159737
-0.0120465
-0.00758702
-0.00433064
-0.000575402
0.00176715
0.00392281
0.00508641
0.00532422
0.00453841
0.00361467
0.00350225
0.00313584
0.00207906
0.00111716
0.000669
-0.000219181
-0.00165352
-0.00320323
-0.00475905
-0.00611847
-0.00664684
-0.00639153
-0.00562315
-0.00471422
-0.00392176
-0.00330804
-0.00293359
-0.00249089
-0.00217232
-0.00198196
-0.00168314
-0.0013551
-0.00115204
-0.00104491
-0.00075155
-0.000238167
0.000233441
0.00063173
0.000873554
-0.0164229
-0.0121956
-0.00722847
-0.00353632
0.000632827
0.00333934
0.00565803
0.00703353
0.00717065
0.00636204
0.00581067
0.00565642
0.00449897
0.00313976
0.00228079
0.00132763
-0.000344246
-0.00233482
-0.00438129
-0.00636351
-0.00746121
-0.00742069
-0.0069817
-0.00631049
-0.00550353
-0.00467535
-0.00396508
-0.0035503
-0.00315288
-0.00285632
-0.00263863
-0.0023698
-0.00202626
-0.00182457
-0.00172371
-0.00143073
-0.00092034
-0.000440605
-8.66982e-06
0.000243977
-0.0166357
-0.0122393
-0.00675791
-0.002495
0.0020585
0.00528231
0.00778277
0.00934144
0.00944492
0.00890836
0.00856031
0.00768884
0.00610476
0.00471587
0.00353878
0.00158364
-0.000896821
-0.00349546
-0.00586781
-0.00771636
-0.00825297
-0.00783391
-0.0072697
-0.00664707
-0.00609521
-0.00543435
-0.00476459
-0.00423268
-0.00383455
-0.00355347
-0.00332672
-0.00301238
-0.00268477
-0.00253253
-0.00244186
-0.00212419
-0.00161208
-0.00113026
-0.000678956
-0.000432094
-0.0167228
-0.0121306
-0.00617401
-0.00118504
0.00382444
0.00759987
0.0103737
0.012088
0.0123355
0.0121254
0.0116027
0.0099672
0.00822497
0.00662553
0.00430701
0.00125127
-0.00190438
-0.00468934
-0.00698309
-0.00847341
-0.0087981
-0.00827764
-0.00772656
-0.00712662
-0.00660059
-0.00608519
-0.00548112
-0.00494506
-0.00453043
-0.0042444
-0.00396744
-0.00361208
-0.00332431
-0.00321098
-0.00311471
-0.00277843
-0.00229226
-0.00181896
-0.00135866
-0.00111228
-0.0168176
-0.0119142
-0.00539703
0.00043741
0.00598628
0.0103596
0.0134509
0.0153997
0.0158995
0.0157746
0.0147737
0.0128554
0.0108005
0.00812937
0.00442546
0.000647317
-0.00267452
-0.00532053
-0.00735923
-0.0089728
-0.00944158
-0.00891435
-0.0083609
-0.00776888
-0.00728934
-0.00683927
-0.00633014
-0.00585108
-0.00540528
-0.0050499
-0.00470472
-0.00435952
-0.00411304
-0.00401758
-0.00387666
-0.00349958
-0.00302747
-0.00254672
-0.00207326
-0.00186064
-0.0168092
-0.0115208
-0.004442
0.00235302
0.00848292
0.013646
0.0171082
0.0193489
0.0200989
0.0199053
0.0184449
0.0162277
0.0132585
0.00904363
0.0045193
0.000452221
-0.00288367
-0.00538467
-0.00779013
-0.00965548
-0.00994793
-0.00936328
-0.00880011
-0.00834158
-0.00810852
-0.00775085
-0.0074341
-0.00702175
-0.00658342
-0.00619346
-0.00585804
-0.00551456
-0.00526885
-0.00514515
-0.00489941
-0.00444306
-0.00393513
-0.00337083
-0.00286091
-0.00271064
-0.0168321
-0.0108326
-0.00325895
0.00451409
0.011333
0.0174913
0.0214879
0.0240366
0.025068
0.02478
0.0228305
0.0197982
0.0154374
0.0101384
0.00520575
0.000948035
-0.00255182
-0.00568602
-0.00836807
-0.0098126
-0.00980097
-0.00927725
-0.00890022
-0.0088632
-0.0088741
-0.00878293
-0.00861139
-0.00829312
-0.00794581
-0.00764267
-0.00733355
-0.00695445
-0.00669403
-0.00649528
-0.00610177
-0.0055376
-0.00493918
-0.00427987
-0.00376701
-0.00367957
-0.017066
-0.00999163
-0.0017424
0.007045
0.0147802
0.0219793
0.0267266
0.0297371
0.0310929
0.0304562
0.0278413
0.0236756
0.0180517
0.0121677
0.00677858
0.00203302
-0.00215811
-0.00563258
-0.00796295
-0.00902846
-0.00922111
-0.00911704
-0.00907875
-0.00928343
-0.00949052
-0.00960902
-0.00960825
-0.00949578
-0.0093102