/*--------------------------------*- C++ -*----------------------------------*\
  =========                 |
  \\      /  F ield         | OpenFOAM: The Open Source CFD Toolbox
   \\    /   O peration     | Website:  https://openfoam.org
    \\  /    A nd           | Version:  11
     \\/     M anipulation  |
\*---------------------------------------------------------------------------*/
FoamFile
{
    format      ascii;
    class       volVectorField;
    location    "1";
    object      U;
}
// * * * * * * * * * * * * * * * * * * * * * * * * * * * * * * * * * * * * * //

dimensions      [0 1 -1 0 0 0 0];

internalField   nonuniform List<vector> 
9600
(
(0.962721 0.0108292 2.08852e-21)
(0.905881 0.0184701 0)
(0.818053 0.00159655 0)
(0.805699 -0.0211853 4.3992e-23)
(0.829184 -0.0463113 0)
(0.872912 -0.0730546 -4.04533e-23)
(0.908726 -0.0796729 -1.20099e-21)
(0.937369 -0.0801334 1.20733e-21)
(0.957233 -0.0779527 -9.94195e-22)
(0.972478 -0.0753502 9.98557e-22)
(0.985359 -0.0725447 0)
(0.997225 -0.0698075 -3.20394e-22)
(1.00925 -0.0669915 3.21853e-22)
(1.02187 -0.0639945 7.48645e-24)
(1.0367 -0.0608691 -6.87693e-22)
(1.05329 -0.0574401 6.80426e-22)
(1.06993 -0.0536337 0)
(1.08613 -0.0485625 9.4813e-22)
(1.09854 -0.0427041 -9.49007e-22)
(1.10567 -0.0367886 4.69601e-24)
(1.1094 -0.0291877 -5.06234e-24)
(1.10639 -0.023529 -1.29174e-21)
(1.09687 -0.0176404 1.30092e-21)
(1.08334 -0.00909948 0)
(1.06788 -0.000513609 0)
(1.0508 0.00701828 -1.58659e-21)
(1.03526 0.0137323 2.92064e-22)
(1.02295 0.0202681 1.35243e-21)
(1.01211 0.0251465 -3.03397e-23)
(1.00479 0.0295923 2.45213e-23)
(0.998822 0.0337694 0)
(0.992768 0.0357797 -9.25682e-22)
(0.989961 0.0415824 9.06153e-22)
(0.986753 0.0440312 6.17259e-22)
(0.985914 0.0488013 -6.14034e-22)
(0.985479 0.0519597 -1.60056e-23)
(0.98523 0.0581541 0)
(0.983071 0.0606318 -1.23672e-21)
(0.979719 0.0702133 1.23748e-21)
(0.948121 0.0859878 -1.99915e-23)
(0.962376 0.0128777 1.03501e-22)
(0.925093 0.00922359 0)
(0.898095 -0.00131182 0)
(0.904035 -0.00185124 -1.34868e-22)
(0.939393 0.0142946 -2.63883e-21)
(0.971478 0.0465479 3.9829e-21)
(0.97694 0.065629 -1.18909e-21)
(0.976749 0.0730709 -3.54194e-23)
(0.977824 0.074889 -3.13675e-23)
(0.982305 0.0735343 0)
(0.990929 0.0710752 -2.03777e-23)
(1.00025 0.0682289 -1.23821e-22)
(1.01085 0.0651445 -6.27049e-23)
(1.02231 0.0613744 1.7669e-22)
(1.03639 0.0568508 8.86505e-24)
(1.05061 0.052682 0)
(1.06608 0.0482099 7.70143e-22)
(1.08035 0.0437963 -8.14879e-22)
(1.09039 0.039944 5.85977e-22)
(1.09708 0.0359365 -5.91071e-22)
(1.09823 0.0298255 -6.69139e-22)
(1.09412 0.0264422 6.42107e-22)
(1.08529 0.0211926 0)
(1.07384 0.0137572 2.32744e-21)
(1.05909 0.00501862 -2.32303e-21)
(1.04151 -0.00356087 -2.87621e-23)
(1.02496 -0.0114427 1.35362e-21)
(1.01093 -0.0188223 -1.35638e-21)
(0.999597 -0.0244335 9.71401e-23)
(0.991674 -0.0295668 1.39377e-21)
(0.984147 -0.033892 -1.51113e-21)
(0.978677 -0.0367017 9.70144e-22)
(0.976278 -0.0432979 -9.48989e-22)
(0.969867 -0.0466113 2.41312e-23)
(0.968595 -0.0516262 -1.07215e-21)
(0.964969 -0.0558504 1.04108e-21)
(0.96771 -0.0613706 0)
(0.963897 -0.0675985 -1.05869e-21)
(0.962225 -0.0754754 1.06726e-21)
(0.947164 -0.0786764 5.86682e-23)
(0.96959 0.0218248 2.35787e-21)
(0.945646 0.0186494 -7.59465e-23)
(0.909267 -0.00255494 0)
(0.908304 -0.019484 9.38341e-23)
(0.918222 -0.0366814 0)
(0.928936 -0.0549547 -1.54157e-21)
(0.946296 -0.0704179 1.35604e-22)
(0.962935 -0.077142 1.37159e-21)
(0.977054 -0.0790851 3.22995e-23)
(0.990108 -0.0787303 0)
(1.00099 -0.0767969 5.75454e-23)
(1.01118 -0.0742999 -2.18842e-22)
(1.02235 -0.0717073 2.18205e-22)
(1.03421 -0.0687815 -3.01108e-23)
(1.04814 -0.0654145 4.18791e-23)
(1.06354 -0.0617298 -3.29208e-23)
(1.07905 -0.057633 8.02264e-22)
(1.09381 -0.0520037 1.98787e-22)
(1.10558 -0.0452257 -1.04013e-21)
(1.11215 -0.0379095 9.95004e-24)
(1.11615 -0.0277501 -1.07042e-23)
(1.11496 -0.0194276 -1.35539e-21)
(1.10565 -0.0116592 1.37561e-21)
(1.09354 -0.00129988 2.41288e-21)
(1.07929 0.0084381 -2.40832e-21)
(1.06314 0.0157716 0)
(1.04744 0.021559 5.04429e-23)
(1.03466 0.0267552 -1.67795e-22)
(1.02431 0.0301224 -6.76667e-23)
(1.0166 0.0344461 1.68298e-22)
(1.01046 0.0369076 1.37173e-22)
(1.00534 0.04023 -1.25453e-21)
(1.00072 0.0441434 1.87956e-22)
(0.995424 0.0455811 9.52559e-22)
(0.995012 0.0520212 4.10047e-23)
(0.991723 0.0547141 0)
(0.99112 0.0621478 3.54954e-23)
(0.991682 0.0663247 -1.41942e-21)
(0.985383 0.076354 1.39477e-21)
(0.958854 0.0679941 -3.86888e-23)
(0.979743 0.0251145 1.46027e-22)
(0.96194 0.0106141 -8.76598e-23)
(0.954104 -0.0131934 0)
(0.963137 -0.0203674 0)
(0.984428 -0.0104229 -2.3747e-21)
(1.00517 0.0216069 2.50349e-21)
(1.00166 0.0476179 8.83123e-22)
(0.991939 0.0618084 -8.96013e-22)
(0.987914 0.0679979 7.50269e-22)
(0.988567 0.0685485 -6.98881e-22)
(0.993307 0.0668061 -3.7304e-23)
(1.00283 0.0630848 -5.3915e-24)
(1.01345 0.0587335 4.37407e-24)
(1.02484 0.0534118 2.17369e-23)
(1.03909 0.0470715 -1.05536e-21)
(1.05428 0.042284 -4.39914e-22)
(1.06907 0.0375931 2.3207e-21)
(1.08345 0.0340612 -8.99351e-22)
(1.09418 0.0320208 3.6246e-23)
(1.10101 0.0314409 -2.03443e-23)
(1.10113 0.028407 7.23921e-22)
(1.09781 0.0273496 -2.13288e-21)
(1.08998 0.023838 1.51398e-21)
(1.07961 0.0178465 1.65738e-22)
(1.06645 0.010913 0)
(1.04989 0.00301953 0)
(1.03304 -0.00507618 1.53886e-21)
(1.01838 -0.0130351 -1.62859e-21)
(1.00495 -0.0205424 2.00684e-21)
(0.995552 -0.0267383 -2.11442e-21)
(0.987825 -0.0321466 -9.41963e-23)
(0.980937 -0.0356628 7.63012e-23)
(0.980339 -0.0407906 -6.96079e-23)
(0.975727 -0.0454763 6.65537e-22)
(0.973822 -0.0517684 -1.74795e-21)
(0.969898 -0.0564743 2.02344e-21)
(0.972378 -0.0630236 -8.96536e-22)
(0.976652 -0.0701485 7.71714e-23)
(0.98032 -0.0694227 -1.15976e-22)
(0.975656 -0.0630639 7.35041e-23)
(0.991598 0.0251746 2.25221e-21)
(0.975637 0.0013263 -1.31827e-23)
(0.966765 -0.01702 0)
(0.963369 -0.0189718 0)
(0.954898 -0.0197742 -1.84088e-22)
(0.949248 -0.0292201 2.59372e-22)
(0.954735 -0.0483595 -1.38969e-21)
(0.965622 -0.065973 2.70881e-21)
(0.978715 -0.0751756 -1.30584e-21)
(0.992728 -0.0781597 -5.19102e-23)
(1.00444 -0.0783938 0)
(1.01464 -0.0768839 -1.95213e-22)
(1.02562 -0.0738703 2.01435e-22)
(1.03736 -0.0704373 5.81382e-22)
(1.05084 -0.0665686 -4.79838e-22)
(1.06565 -0.0623118 1.46462e-22)
(1.07981 -0.0576701 9.80272e-22)
(1.09434 -0.0516593 2.01342e-22)
(1.10539 -0.0440155 -1.08272e-21)
(1.11039 -0.0360159 1.0508e-23)
(1.11446 -0.0246849 7.22069e-22)
(1.11454 -0.0142398 -2.18747e-21)
(1.10559 -0.005227 1.37368e-21)
(1.09338 0.00485565 -1.69913e-22)
(1.07975 0.0142909 -1.55845e-22)
(1.06431 0.0210716 -2.00245e-21)
(1.0491 0.0260214 1.7677e-21)
(1.03649 0.0304629 -5.259e-24)
(1.0265 0.0335762 1.57603e-22)
(1.01825 0.0374616 0)
(1.01366 0.0399086 1.07044e-22)
(1.00729 0.041798 0)
(1.00242 0.0469431 2.16546e-22)
(0.995287 0.0467389 0)
(0.99348 0.0519606 0)
(0.990384 0.0537732 1.66312e-21)
(0.990154 0.0605137 -1.73065e-21)
(0.98751 0.0626702 -1.66407e-21)
(0.975008 0.068336 1.56425e-21)
(0.957537 0.0513194 -7.50714e-23)
(0.994243 0.0176414 0)
(0.979917 -0.0114104 -1.03095e-23)
(0.979551 -0.0209776 0)
(0.98444 -0.0217787 0)
(0.992979 -0.0147165 -2.62342e-21)
(1.00928 0.00603077 1.37765e-21)
(1.01564 0.0258461 2.01773e-21)
(1.00913 0.0437115 -9.13931e-22)
(1.00068 0.0557557 0)
(0.998498 0.0592426 0)
(0.99967 0.0586034 0)
(1.00519 0.0549092 2.85845e-22)
(1.01659 0.0490799 -2.47586e-22)
(1.02763 0.0421857 -7.95943e-22)
(1.04176 0.033841 8.48903e-22)
(1.05748 0.0286869 1.45935e-21)
(1.07229 0.0239184 -6.56858e-22)
(1.08699 0.021455 -9.88345e-22)
(1.09786 0.0215185 6.85669e-22)
(1.10565 0.024145 -6.77729e-22)
(1.10513 0.0252036 -2.31652e-23)
(1.10174 0.0266295 -9.61885e-23)
(1.09525 0.0253435 1.90023e-22)
(1.08589 0.0223213 0)
(1.07348 0.0183156 1.59878e-22)
(1.05757 0.0123272 2.05758e-21)
(1.04064 0.00487679 -1.57492e-21)
(1.02541 -0.00316222 -2.58817e-21)
(1.01096 -0.0125864 4.84322e-21)
(0.999656 -0.0201857 -2.08113e-21)
(0.99176 -0.0281045 -1.75505e-21)
(0.984291 -0.0327559 1.20637e-21)
(0.982689 -0.0374264 -1.48828e-22)
(0.980242 -0.0415233 -7.58079e-22)
(0.978431 -0.0484864 -4.85928e-22)
(0.976569 -0.0547598 1.13484e-21)
(0.979966 -0.0597628 0)
(0.983677 -0.0617321 -9.85037e-22)
(0.988262 -0.0574383 -1.83735e-22)
(0.983663 -0.0444186 1.13988e-21)
(0.995397 0.00473991 3.26469e-21)
(0.988104 -0.019055 -4.31113e-24)
(0.988305 -0.0206074 0)
(0.988453 -0.0158446 0)
(0.981228 -0.00920323 2.83989e-21)
(0.971012 -0.0112604 -2.86745e-21)
(0.965955 -0.0258912 1.52255e-21)
(0.967681 -0.0474421 -1.39801e-23)
(0.97827 -0.0649394 -1.39036e-21)
(0.992818 -0.0732855 7.99629e-22)
(1.00592 -0.0760177 -7.53121e-22)
(1.01771 -0.0765475 3.55218e-23)
(1.02891 -0.0739485 -9.97889e-23)
(1.04066 -0.0699857 0)
(1.05385 -0.0658027 -1.16523e-21)
(1.06813 -0.0607477 2.71983e-21)
(1.08204 -0.055535 -5.23096e-22)
(1.09581 -0.0490005 2.08565e-22)
(1.10608 -0.0403344 -4.27659e-22)
(1.11086 -0.0317634 -6.75826e-22)
(1.11465 -0.0206651 -7.50366e-22)
(1.11476 -0.00859331 -8.07333e-22)
(1.10654 0.00175498 1.38183e-21)
(1.09474 0.0113269 2.83447e-21)
(1.08119 0.0193826 -2.82792e-21)
(1.06585 0.0250095 -2.20896e-21)
(1.05078 0.0287255 2.20974e-21)
(1.03829 0.0322377 2.14857e-22)
(1.02849 0.0353235 0)
(1.02003 0.0384513 2.57843e-21)
(1.01589 0.0424788 -2.1715e-21)
(1.0098 0.0422954 -1.59013e-21)
(1.00352 0.0483284 1.78092e-21)
(0.996488 0.0463154 1.39413e-21)
(0.991587 0.0501384 -1.12073e-21)
(0.988764 0.04987 -5.74946e-24)
(0.985796 0.0537786 0)
(0.980758 0.0527582 -1.36691e-21)
(0.967744 0.052586 3.54114e-22)
(0.960399 0.0339063 1.07399e-21)
(0.994838 -0.014 2.80839e-21)
(0.993304 -0.0232801 -2.10719e-22)
(0.993755 -0.0197589 3.22147e-21)
(0.997547 -0.0142494 -3.28765e-21)
(0.996989 -0.00928908 1.86954e-22)
(0.999096 -0.00209766 -1.80892e-22)
(1.01013 0.00772402 0)
(1.01593 0.0210347 4.31775e-22)
(1.01307 0.0368672 -7.22349e-22)
(1.00869 0.0448869 0)
(1.00895 0.0456065 -1.06904e-22)
(1.01112 0.0431539 3.82911e-24)
(1.01929 0.0366127 -5.45626e-24)
(1.03125 0.0282851 0)
(1.04519 0.0183828 -1.27271e-21)
(1.06103 0.0129896 1.10186e-21)
(1.07618 0.0084688 1.08529e-21)
(1.09113 0.00768118 2.18084e-22)
(1.10181 0.00956107 -6.46522e-22)
(1.11049 0.0145384 -7.95424e-22)
(1.11195 0.0208597 0)
(1.10697 0.02501 -1.45433e-21)
(1.09993 0.0257669 1.45549e-21)
(1.0913 0.0259349 0)
(1.07944 0.0257249 3.56902e-22)
(1.06378 0.0226981 0)
(1.0473 0.0168503 1.39026e-21)
(1.03175 0.00939779 -5.28657e-21)
(1.01737 -0.000860663 3.52054e-21)
(1.00416 -0.0106442 -6.24814e-22)
(0.995617 -0.0204019 -1.31649e-21)
(0.987614 -0.0278948 3.08014e-21)
(0.985507 -0.0326623 -1.45739e-21)
(0.984871 -0.0353202 9.0738e-22)
(0.983913 -0.0424033 -2.38714e-21)
(0.983272 -0.0478173 1.59791e-21)
(0.985348 -0.0496802 0)
(0.986337 -0.0483885 -1.15479e-21)
(0.991144 -0.0409452 -1.20064e-22)
(0.98503 -0.0268361 1.2426e-21)
(0.997249 -0.0227243 0)
(0.996574 -0.0237143 4.31033e-22)
(0.998992 -0.0156704 0)
(1.00151 -0.00874576 3.97344e-22)
(0.999734 -0.00522371 2.57395e-21)
(0.992753 -0.00365583 -1.49772e-21)
(0.98187 -0.0119222 -1.47136e-21)
(0.974469 -0.0309081 1.4392e-22)
(0.979991 -0.0508755 0)
(0.992692 -0.064132 0)
(1.00557 -0.0700263 3.67415e-22)
(1.01905 -0.072567 -3.15071e-22)
(1.03127 -0.0717449 1.29212e-22)
(1.04363 -0.0683594 8.82772e-23)
(1.05675 -0.0641634 -1.23477e-21)
(1.07103 -0.0583751 1.04508e-21)
(1.08475 -0.0526184 1.09098e-21)
(1.0981 -0.0453297 2.20884e-22)
(1.10868 -0.0359717 -5.71957e-22)
(1.1129 -0.0266664 -7.46351e-22)
(1.1163 -0.0154315 -5.36638e-23)
(1.11662 -0.00194115 -1.82875e-21)
(1.10907 0.00923933 1.9301e-21)
(1.09765 0.0184447 2.05224e-22)
(1.08363 0.0249913 -7.41827e-22)
(1.06795 0.029064 0)
(1.05298 0.0311591 2.37955e-21)
(1.04021 0.0332875 -1.61261e-21)
(1.03039 0.0360272 -3.91052e-22)
(1.02192 0.0384967 6.68944e-22)
(1.01742 0.0436263 -2.7681e-22)
(1.01208 0.043298 -2.35079e-21)
(1.0042 0.0480263 2.50067e-21)
(0.996691 0.0448356 -3.30423e-22)
(0.991097 0.0470836 -1.33996e-22)
(0.986917 0.0436581 2.34056e-21)
(0.981111 0.0436982 -2.08316e-21)
(0.973362 0.0387527 -1.57768e-21)
(0.969171 0.0345576 1.55426e-21)
(0.967424 0.0178728 0)
(0.998808 -0.0265444 0)
(0.997649 -0.0227194 0)
(1.00186 -0.0110303 3.71829e-21)
(1.00464 -0.00666391 -6.87822e-21)
(1.00372 -0.00543968 3.15662e-21)
(1.00296 -0.00449857 0)
(1.00451 -0.00423466 1.04615e-21)
(1.00985 0.000508078 -3.15277e-22)
(1.01559 0.0147597 -6.51669e-22)
(1.0152 0.0261308 0)
(1.01666 0.0285275 -2.95801e-23)
(1.01855 0.0273409 -2.86229e-23)
(1.02374 0.0211966 -7.42761e-22)
(1.03524 0.0119556 5.65709e-22)
(1.04906 0.00157529 0)
(1.06511 -0.00364078 -1.9234e-21)
(1.0806 -0.00747417 3.38926e-21)
(1.09555 -0.00638133 -2.80399e-21)
(1.107 -0.0025581 1.4378e-21)
(1.11546 0.0039224 -1.34138e-24)
(1.11795 0.0150501 1.03432e-21)
(1.11284 0.0227011 -9.21138e-22)
(1.10646 0.0260328 2.27008e-22)
(1.09746 0.0291438 -2.11216e-22)
(1.08476 0.032299 3.86259e-22)
(1.0691 0.0324778 0)
(1.0531 0.0290271 0)
(1.03783 0.0229986 -4.9713e-22)
(1.02374 0.0132829 2.92532e-21)
(1.00941 0.00154572 -3.26272e-21)
(1.0004 -0.00944773 0)
(0.991076 -0.0205927 1.74554e-21)
(0.988814 -0.0257132 -1.68363e-21)
(0.989028 -0.0279622 1.26666e-21)
(0.988778 -0.0329579 -1.08413e-21)
(0.987612 -0.0354583 1.31981e-21)
(0.988224 -0.0350064 -1.53631e-21)
(0.988163 -0.0326254 0)
(0.989586 -0.0242579 0)
(0.982509 -0.0127314 -1.56109e-22)
(0.999178 -0.0269697 -8.61321e-23)
(0.997691 -0.0195975 3.91989e-21)
(1.00396 -0.0070321 -4.3547e-22)
(1.00826 -0.00444163 -4.0937e-22)
(1.00819 -0.00324376 -2.93872e-21)
(1.00511 -0.0021973 4.34239e-21)
(0.998827 -0.00597738 -1.41362e-21)
(0.988199 -0.0187665 1.22659e-21)
(0.98553 -0.0370656 -1.46496e-21)
(0.994229 -0.0529302 -7.38451e-22)
(1.00595 -0.0617252 8.72313e-22)
(1.0196 -0.0659941 2.6733e-22)
(1.03282 -0.0674248 -4.15147e-22)
(1.04606 -0.0658974 0)
(1.05948 -0.0625237 0)
(1.07408 -0.0564019 2.38912e-21)
(1.08797 -0.0502028 -1.28774e-21)
(1.10146 -0.0420866 -1.24159e-21)
(1.11286 -0.0319726 -9.34857e-22)
(1.11693 -0.0217227 8.89343e-22)
(1.12 -0.0102309 -5.81754e-23)
(1.12003 0.00475875 -1.89747e-21)
(1.11262 0.0166178 1.65968e-21)
(1.10215 0.0262133 3.44742e-21)
(1.08855 0.0324388 -3.444e-21)
(1.07207 0.0346496 0)
(1.0559 0.0349397 0)
(1.04218 0.0352077 -5.45488e-22)
(1.03199 0.0370354 3.52081e-21)
(1.02349 0.0384508 -3.50418e-21)
(1.01824 0.043827 -3.11455e-21)
(1.01301 0.0441868 7.92533e-23)
(1.00592 0.0469054 2.40267e-21)
(0.996097 0.042244 1.63301e-21)
(0.989151 0.0424801 -4.34136e-21)
(0.983179 0.0362699 2.41285e-21)
(0.978887 0.0328659 2.41062e-22)
(0.974307 0.0243673 -1.67516e-21)
(0.974154 0.0189496 1.46916e-21)
(0.974085 0.00624502 -6.39887e-24)
(0.998405 -0.0251629 -3.46426e-21)
(0.997386 -0.0158714 6.62054e-21)
(1.00527 -0.00429826 -1.53859e-22)
(1.01118 -0.00283269 -6.59984e-21)
(1.01114 -0.00262304 3.92504e-21)
(1.00707 -0.00450738 0)
(1.00617 -0.00985252 0)
(1.0084 -0.0107121 2.67394e-22)
(1.01045 -0.00643359 1.16581e-22)
(1.01574 0.00451047 5.01018e-24)
(1.02015 0.00852476 1.36958e-22)
(1.02468 0.00816771 8.68397e-22)
(1.02992 0.00267797 -1.65597e-21)
(1.04072 -0.00636255 5.50268e-22)
(1.05434 -0.0159601 -1.65185e-21)
(1.07045 -0.0202345 3.58869e-21)
(1.08598 -0.0228666 -5.28839e-22)
(1.10091 -0.0198943 4.2858e-22)
(1.113 -0.0137184 -8.04542e-22)
(1.12112 -0.00613876 -9.05433e-22)
(1.12407 0.00916642 0)
(1.11959 0.0201073 -1.75925e-21)
(1.11292 0.0268455 2.01074e-21)
(1.10381 0.0327711 0)
(1.09082 0.037554 0)
(1.07452 0.0403361 2.89327e-21)
(1.05877 0.0397376 -5.36403e-21)
(1.04306 0.0355518 3.60824e-21)
(1.02943 0.0282464 -4.88128e-22)
(1.01539 0.0152104 0)
(1.0052 0.00442012 2.52012e-21)
(0.995444 -0.0100205 -2.16695e-21)
(0.9932 -0.0166072 5.06419e-22)
(0.992499 -0.0182649 0)
(0.991804 -0.0203368 0)
(0.990405 -0.0206595 2.23766e-21)
(0.990608 -0.0192223 -2.16302e-21)
(0.988908 -0.0169899 -1.32424e-21)
(0.986325 -0.0092028 1.92306e-21)
(0.980677 -0.00382277 1.71084e-22)
(0.997177 -0.0217323 -3.5153e-21)
(0.996798 -0.0131305 4.04735e-21)
(1.00593 -0.00247563 0)
(1.0137 -0.00188506 8.55212e-22)
(1.01491 -0.00297007 -7.80666e-22)
(1.01234 -0.00437985 1.74884e-21)
(1.00745 -0.00806438 -1.74555e-21)
(1.00232 -0.0145383 2.8217e-24)
(0.997657 -0.0261667 -8.18337e-22)
(1.00053 -0.0413043 1.17092e-21)
(1.00893 -0.0528356 -4.64561e-22)
(1.02123 -0.0588667 -7.35772e-22)
(1.03495 -0.0625494 -5.55579e-23)
(1.04877 -0.0633876 9.78234e-22)
(1.06275 -0.0615366 0)
(1.07797 -0.0556633 0)
(1.09235 -0.0494668 0)
(1.10587 -0.0405463 1.67299e-21)
(1.11816 -0.0295507 -1.22424e-21)
(1.12316 -0.0184075 0)
(1.12613 -0.00625565 -1.0503e-21)
(1.12544 0.010727 -1.06603e-21)
(1.11774 0.0234275 -2.12564e-22)
(1.10793 0.0331075 2.06164e-21)
(1.09478 0.0404539 0)
(1.0775 0.0436334 -3.48948e-21)
(1.06125 0.0426506 4.15146e-22)
(1.04533 0.0396837 2.65135e-21)
(1.03378 0.0397164 -2.29636e-23)
(1.02495 0.0396332 0)
(1.01831 0.0437864 3.09568e-21)
(1.01324 0.0445466 -3.07658e-21)
(1.00614 0.0459588 -1.07038e-21)
(0.996121 0.0396246 1.37713e-21)
(0.987847 0.0372267 -4.463e-21)
(0.982315 0.0286671 2.99672e-21)
(0.980362 0.0233519 0)
(0.978206 0.0131267 -2.05102e-21)
(0.978767 0.00817224 1.81923e-21)
(0.978633 0.00208913 1.88662e-22)
(0.996018 -0.0185937 0)
(0.996281 -0.0115465 3.66963e-21)
(1.00595 -0.00181324 -1.52571e-22)
(1.01574 -0.00167417 -4.5119e-21)
(1.01793 -0.00314803 3.06206e-21)
(1.01576 -0.00475904 -3.07195e-21)
(1.00862 -0.0114356 3.37891e-22)
(1.00746 -0.0176018 6.72443e-22)
(1.01096 -0.0201535 -1.16197e-21)
(1.01478 -0.0170641 2.38762e-22)
(1.02111 -0.013057 2.7451e-22)
(1.02777 -0.0129181 -3.6667e-22)
(1.03637 -0.0181276 -9.28871e-22)
(1.04739 -0.0257886 9.32877e-22)
(1.06101 -0.0335282 2.31469e-21)
(1.07691 -0.0360193 -4.37685e-21)
(1.09267 -0.0367193 3.99597e-21)
(1.10713 -0.0316874 -1.31431e-21)
(1.11993 -0.0229783 -2.36847e-22)
(1.12815 -0.0143058 6.74918e-23)
(1.13081 0.00391239 -1.13271e-21)
(1.1274 0.0183434 8.50578e-22)
(1.12046 0.0287645 -8.1328e-24)
(1.11101 0.0375423 4.66654e-21)
(1.09796 0.0443766 -4.11065e-21)
(1.08071 0.0476281 1.32057e-21)
(1.06422 0.0475499 7.73234e-22)
(1.04828 0.0458582 -6.39739e-22)
(1.03445 0.0417247 4.56614e-21)
(1.02104 0.0296478 -7.16955e-22)
(1.01 0.01999 -3.25169e-21)
(1.00014 0.004273 -2.15702e-21)
(0.996994 -0.00483779 2.70976e-21)
(0.995101 -0.00639245 1.60652e-21)
(0.99441 -0.00599666 -2.41793e-21)
(0.992833 -0.00594263 0)
(0.991491 -0.00389177 0)
(0.986872 -0.00262312 -2.11674e-21)
(0.983075 0.00032077 1.63063e-21)
(0.980665 0.000232855 -3.95968e-22)
(0.994737 -0.0164195 2.10028e-23)
(0.995665 -0.0107596 3.27344e-21)
(1.00539 -0.0019954 4.74647e-22)
(1.01708 -0.00180906 4.48708e-22)
(1.0206 -0.00376397 3.9137e-21)
(1.01925 -0.00606517 -2.08638e-21)
(1.01311 -0.0125291 -1.77949e-21)
(1.00926 -0.0182801 0)
(1.00748 -0.0242888 2.07568e-22)
(1.00985 -0.0336531 1.27166e-22)
(1.01489 -0.0448806 -2.15586e-22)
(1.02555 -0.0537316 9.92961e-22)
(1.03837 -0.0595633 -1.18935e-21)
(1.05225 -0.0622045 0)
(1.06665 -0.0619451 -2.44353e-21)
(1.08212 -0.0570012 2.02513e-21)
(1.09785 -0.0514172 1.62411e-21)
(1.11171 -0.0419778 -1.60975e-22)
(1.12475 -0.0303316 -3.00189e-21)
(1.13179 -0.0179399 1.01198e-21)
(1.13402 -0.0035732 7.56777e-23)
(1.13243 0.0152205 0)
(1.12524 0.0292036 2.9464e-22)
(1.11508 0.0396928 -5.63033e-22)
(1.10187 0.047741 5.34942e-22)
(1.08478 0.0521224 -4.4238e-21)
(1.0674 0.0528686 5.71588e-21)
(1.0507 0.0496765 -3.01113e-21)
(1.03646 0.0459494 0)
(1.0262 0.0427239 0)
(1.0178 0.0450785 3.40417e-21)
(1.01305 0.0448515 -3.38131e-21)
(1.00578 0.0453485 0)
(0.995812 0.0374119 1.04541e-21)
(0.98845 0.0321423 3.38639e-21)
(0.984773 0.0228246 -5.3202e-22)
(0.984164 0.0166538 -2.81642e-21)
(0.982206 0.00854108 -1.79196e-21)
(0.981522 0.00561987 2.03237e-21)
(0.980691 0.00224639 -8.65339e-24)
(0.995157 -0.0147383 -3.85048e-21)
(0.995971 -0.0104036 3.86142e-21)
(1.00437 -0.00310867 -4.89451e-22)
(1.01757 -0.00257206 0)
(1.0229 -0.00502986 -3.62017e-21)
(1.02231 -0.00747631 4.65594e-21)
(1.01695 -0.0137594 -1.11815e-21)
(1.01135 -0.0209833 0)
(1.01033 -0.0282462 1.36468e-21)
(1.01519 -0.0317693 -1.12483e-21)
(1.0221 -0.0331187 -8.5558e-23)
(1.03132 -0.0347338 1.30282e-21)
(1.04119 -0.0388368 -2.21643e-21)
(1.05353 -0.0449002 7.65089e-22)
(1.0673 -0.0498418 -2.70988e-21)
(1.08332 -0.050122 2.55666e-21)
(1.10019 -0.0483162 1.75452e-21)
(1.11536 -0.0411578 2.89711e-22)
(1.12801 -0.0298451 -1.18835e-21)
(1.13652 -0.0193455 -1.08279e-21)
(1.13923 -6.66754e-05 -1.59748e-22)
(1.13692 0.0180067 -2.57992e-21)
(1.12982 0.0319964 2.90138e-21)
(1.11956 0.0429486 4.70482e-21)
(1.10556 0.0517107 -5.2435e-21)
(1.08825 0.056253 3.75745e-21)
(1.071 0.0579843 -2.8501e-21)
(1.05387 0.0546849 0)
(1.03918 0.0531395 5.35901e-21)
(1.0261 0.0435782 -1.30479e-21)
(1.01448 0.0357739 2.4292e-22)
(1.00515 0.0209889 -3.17809e-21)
(1.00018 0.0110862 0)
(0.996985 0.00737088 1.39672e-21)
(0.995713 0.00819294 -1.45809e-21)
(0.992863 0.00767217 -4.10174e-22)
(0.989516 0.00884546 3.50923e-22)
(0.985604 0.00643677 0)
(0.983281 0.00574682 0)
(0.981783 0.00304746 4.55435e-22)
(0.996904 -0.0141857 -4.00653e-21)
(0.99759 -0.0105014 4.0028e-21)
(1.0041 -0.00438202 0)
(1.01742 -0.00383248 0)
(1.02456 -0.00644513 0)
(1.02487 -0.00918056 0)
(1.0203 -0.0157719 0)
(1.01441 -0.0233604 0)
(1.01298 -0.0295998 -9.28627e-22)
(1.01628 -0.035752 7.72263e-22)
(1.02186 -0.0443294 -5.99788e-22)
(1.03058 -0.0526469 -6.59824e-22)
(1.04243 -0.0595143 2.13903e-22)
(1.05654 -0.0638202 1.54541e-21)
(1.07082 -0.06496 2.9191e-21)
(1.08807 -0.0617383 3.4487e-22)
(1.10424 -0.0569229 -1.2202e-21)
(1.12038 -0.0467843 5.6946e-22)
(1.133 -0.0337853 -3.83563e-22)
(1.14081 -0.0209038 -1.24391e-21)
(1.14436 -0.00306503 -3.21197e-24)
(1.14269 0.0180392 -3.12683e-21)
(1.13481 0.0339721 5.82118e-21)
(1.12412 0.0458271 -2.01538e-21)
(1.10977 0.055642 0)
(1.09187 0.0608367 -1.10002e-21)
(1.07435 0.0631744 -9.21953e-22)
(1.05667 0.0605602 0)
(1.04136 0.0575873 4.41574e-21)
(1.0281 0.0497865 -4.47874e-21)
(1.01867 0.0488108 -9.5737e-22)
(1.01208 0.0463621 0)
(1.00533 0.0454934 0)
(0.997116 0.0374093 2.36402e-21)
(0.990842 0.0298766 -2.3432e-21)
(0.987394 0.0204764 -2.51457e-23)
(0.986817 0.016041 2.01325e-23)
(0.984381 0.0101349 -2.06868e-21)
(0.983048 0.00834197 2.36803e-21)
(0.982058 0.00498844 -2.39597e-22)
(0.997043 -0.0145781 0)
(0.998165 -0.0114589 0)
(1.00367 -0.00605944 0)
(1.01662 -0.00562312 0)
(1.02542 -0.00820126 0)
(1.02705 -0.0118125 1.90014e-21)
(1.02294 -0.0179222 -1.51749e-21)
(1.01708 -0.025431 -9.40702e-22)
(1.0152 -0.033523 1.65147e-21)
(1.01743 -0.0411197 -7.00379e-22)
(1.02428 -0.047963 9.29241e-23)
(1.03344 -0.0526243 -2.82664e-22)
(1.04515 -0.0572603 -2.73843e-22)
(1.05938 -0.061766 4.20901e-22)
(1.07384 -0.0643679 -2.65323e-21)
(1.0922 -0.0629198 3.05356e-21)
(1.10769 -0.0590127 2.06345e-21)
(1.12476 -0.0494793 -2.06898e-21)
(1.13842 -0.0351868 7.03356e-22)
(1.14571 -0.022329 -1.43229e-21)
(1.14992 -0.00321505 -3.83332e-24)
(1.14902 0.0191673 3.69394e-22)
(1.14107 0.0365887 -7.27687e-22)
(1.12922 0.0492361 5.48006e-21)
(1.11374 0.0595777 -5.43391e-21)
(1.0954 0.065503 2.33112e-21)
(1.0776 0.0688966 -3.78865e-21)
(1.05972 0.066472 3.76647e-21)
(1.0438 0.0639165 -7.60335e-22)
(1.02993 0.0565565 0)
(1.01888 0.05068 3.88385e-21)
(1.00894 0.038136 -7.06907e-21)
(1.00295 0.0293932 3.1949e-21)
(0.998684 0.0224025 0)
(0.995243 0.0221661 0)
(0.99095 0.018581 4.00928e-21)
(0.988446 0.0167322 -4.316e-21)
(0.985005 0.0117665 2.60876e-21)
(0.983249 0.0101657 -2.56148e-21)
(0.982614 0.00676899 -2.69244e-22)
(0.99625 -0.015505 0)
(0.998064 -0.0127302 0)
(1.00305 -0.00796894 4.19037e-21)
(1.01529 -0.00782929 -4.7631e-21)
(1.02578 -0.0107858 3.47812e-21)
(1.02881 -0.0146197 -4.32138e-21)
(1.02599 -0.020018 -1.65141e-21)
(1.02044 -0.0282708 9.19556e-23)
(1.01794 -0.036899 1.12299e-21)
(1.01959 -0.0448234 0)
(1.02608 -0.0524171 -1.18944e-22)
(1.03545 -0.0590744 2.16699e-21)
(1.04747 -0.0657205 -1.56481e-21)
(1.06253 -0.0705704 -4.38515e-22)
(1.07728 -0.0727385 -6.52292e-22)
(1.09674 -0.0700588 2.30983e-23)
(1.11269 -0.0650066 1.71889e-21)
(1.12943 -0.0542612 3.5148e-22)
(1.14437 -0.038251 -8.14777e-22)
(1.15172 -0.0237722 -1.45785e-21)
(1.15628 -0.00457131 9.86104e-23)
(1.15539 0.0196686 -3.24249e-21)
(1.14754 0.0388108 3.23635e-21)
(1.13536 0.0531642 -7.51649e-22)
(1.11888 0.0638437 0)
(1.09999 0.0704238 -1.23667e-21)
(1.08176 0.0743902 4.11466e-21)
(1.0631 0.0726403 -1.11357e-20)
(1.04682 0.0702278 1.80142e-21)
(1.03165 0.0625266 1.03056e-20)
(1.02102 0.0573915 -9.33127e-21)
(1.01204 0.0507954 7.97925e-21)
(1.00598 0.0485031 -4.52791e-21)
(0.998403 0.0404682 0)
(0.993468 0.0335787 0)
(0.989356 0.0247021 0)
(0.987642 0.0208337 -2.0628e-23)
(0.98469 0.0146701 -3.17861e-21)
(0.983045 0.012591 2.77665e-21)
(0.982537 0.0087913 5.68189e-22)
(0.994784 -0.0169555 -4.49471e-21)
(0.997478 -0.0146662 4.54477e-21)
(1.00232 -0.0102435 0)
(1.01351 -0.0107292 5.33255e-22)
(1.02524 -0.0136869 0)
(1.03006 -0.0176252 8.56824e-22)
(1.0286 -0.0229822 -2.63952e-21)
(1.02358 -0.0314547 2.32801e-21)
(1.02057 -0.0408535 1.67687e-22)
(1.02157 -0.049956 4.00925e-22)
(1.02786 -0.0583234 -1.47903e-23)
(1.03717 -0.065437 -2.47661e-21)
(1.05016 -0.071449 2.10906e-21)
(1.06591 -0.0763068 5.25627e-22)
(1.08112 -0.0778492 6.78968e-22)
(1.10159 -0.0749689 2.71552e-23)
(1.11834 -0.0695958 5.51997e-22)
(1.13438 -0.0585298 2.84499e-21)
(1.15063 -0.0409493 -4.43546e-21)
(1.15826 -0.0248056 1.58661e-21)
(1.16306 -0.00552053 1.88134e-21)
(1.16247 0.0201423 -5.29885e-21)
(1.1545 0.0413587 1.03914e-22)
(1.14187 0.0570293 3.41086e-21)
(1.12496 0.0688205 -7.88303e-22)
(1.10504 0.0757864 -6.5825e-21)
(1.08606 0.0803022 5.14261e-21)
(1.06711 0.0790947 1.06197e-21)
(1.05005 0.0777323 9.04804e-22)
(1.03399 0.0691893 7.2822e-22)
(1.02239 0.0645768 1.29449e-21)
(1.01186 0.0539539 0)
(1.00539 0.0473608 8.89776e-22)
(0.998933 0.0378666 0)
(0.995034 0.0347312 -6.68346e-22)
(0.990264 0.0278901 0)
(0.987804 0.0242256 9.55373e-22)
(0.984582 0.0175398 -3.04947e-21)
(0.982698 0.0151307 7.01864e-22)
(0.982249 0.011034 2.59887e-21)
(0.99261 -0.0188506 4.25184e-21)
(0.996312 -0.017171 0)
(1.00101 -0.0131501 6.0131e-22)
(1.01107 -0.0138963 -4.82834e-21)
(1.02397 -0.017146 4.32471e-21)
(1.03065 -0.0213156 -8.96453e-22)
(1.03041 -0.0268907 3.09653e-21)
(1.02661 -0.0350055 -3.33106e-21)
(1.02378 -0.0449928 1.78329e-22)
(1.02429 -0.055057 2.30439e-23)
(1.02993 -0.0641193 8.72711e-23)
(1.03923 -0.0721489 2.10598e-22)
(1.05309 -0.0786148 -1.88926e-21)
(1.0694 -0.0831958 1.3549e-21)
(1.08548 -0.0846388 0)
(1.10666 -0.0814008 3.16319e-23)
(1.12486 -0.0750098 6.44608e-22)
(1.13994 -0.0638433 0)
(1.15727 -0.0447934 1.73379e-21)
(1.16626 -0.0261646 -1.73559e-21)
(1.17031 -0.00593564 -1.17318e-22)
(1.17025 0.0198896 0)
(1.16246 0.0440534 0)
(1.14979 0.0609523 0)
(1.13296 0.0737818 1.68608e-21)
(1.11195 0.0813569 1.47149e-21)
(1.09163 0.0866567 -4.92162e-21)
(1.07169 0.0856764 3.78e-21)
(1.05453 0.0851487 -1.937e-21)
(1.03704 0.0773617 8.42111e-22)
(1.02414 0.0718918 3.76454e-21)
(1.0127 0.0612636 -1.05747e-20)
(1.0059 0.056257 4.2713e-21)
(0.998817 0.0476194 -3.12611e-21)
(0.99455 0.0422116 9.09418e-21)
(0.989819 0.0335598 -5.2438e-21)
(0.987501 0.0293179 -5.06512e-22)
(0.984311 0.021639 -3.75524e-21)
(0.98218 0.0185733 7.4154e-24)
(0.981794 0.0136067 2.80342e-21)
(0.989639 -0.0211628 6.16949e-22)
(0.994922 -0.020248 -6.29445e-22)
(0.999571 -0.016535 1.13354e-23)
(1.0082 -0.0175176 5.94246e-22)
(1.02197 -0.0214448 0)
(1.03081 -0.0258788 -7.86817e-22)
(1.03211 -0.0310182 1.75138e-21)
(1.02947 -0.0392462 1.23432e-21)
(1.02729 -0.0502146 -9.40917e-22)
(1.02787 -0.0611691 -2.41479e-23)
(1.03312 -0.071125 0)
(1.04269 -0.0794686 2.48549e-21)
(1.05611 -0.0859174 -5.3825e-21)
(1.07388 -0.090273 1.48957e-21)
(1.09061 -0.0917355 9.10218e-22)
(1.11171 -0.0883054 -5.56944e-21)
(1.13206 -0.0803868 4.37031e-21)
(1.14698 -0.0689429 0)
(1.1636 -0.0486668 0)
(1.17488 -0.0271432 0)
(1.17852 -0.00610324 1.35604e-22)
(1.17916 0.0199799 0)
(1.1719 0.0460553 -4.11304e-21)
(1.15783 0.0649059 1.18233e-20)
(1.14153 0.0794339 -8.59239e-21)
(1.11977 0.0877282 -1.70778e-21)
(1.0975 0.0932703 0)
(1.07624 0.0928239 0)
(1.05907 0.0931162 -6.19225e-23)
(1.0415 0.0859658 -7.56344e-21)
(1.02725 0.0806693 -5.80509e-22)
(1.01369 0.0694082 5.49702e-21)
(1.00557 0.0630427 1.11097e-21)
(0.998187 0.0526257 4.33619e-21)
(0.993919 0.0471643 -3.35413e-21)
(0.988996 0.0383788 -6.74525e-22)
(0.986661 0.0339795 0)
(0.983692 0.0257118 4.68356e-22)
(0.981434 0.0223031 -3.1128e-21)
(0.98112 0.0164826 3.05266e-21)
(0.9864 -0.0239059 -6.15192e-21)
(0.992651 -0.0241066 6.53787e-22)
(0.997507 -0.020666 -6.62144e-22)
(1.00523 -0.0217882 6.52282e-22)
(1.01909 -0.0267876 -5.83805e-22)
(1.02995 -0.0307146 3.1393e-21)
(1.03378 -0.0359024 -3.68264e-21)
(1.03285 -0.0449072 0)
(1.03155 -0.0560574 1.52007e-22)
(1.0323 -0.0673062 -6.32471e-22)
(1.03717 -0.0778461 6.64567e-22)
(1.04668 -0.0869767 3.48523e-21)
(1.05967 -0.0940344 -5.19545e-21)
(1.07876 -0.0980529 2.40362e-21)
(1.09623 -0.0994315 7.58021e-23)
(1.11747 -0.0957761 0)
(1.1392 -0.0862025 4.14869e-21)
(1.15521 -0.0740569 -4.68299e-22)
(1.17028 -0.0537132 -3.83279e-21)
(1.18387 -0.0291401 0)
(1.18874 -0.00647727 -1.4209e-22)
(1.1878 0.019595 -4.70614e-21)
(1.18202 0.0483841 5.89276e-21)
(1.16762 0.0689605 -1.13923e-21)
(1.14983 0.0846644 0)
(1.12814 0.0947704 3.68212e-21)
(1.10536 0.100954 0)
(1.08142 0.100198 0)
(1.06332 0.100935 2.37364e-21)
(1.04535 0.0947928 0)
(1.03115 0.0905204 1.63868e-21)
(1.01676 0.0789 -3.86713e-21)
(1.00704 0.0717652 2.79304e-21)
(0.998384 0.060666 -9.78422e-22)
(0.993798 0.0547083 6.30995e-21)
(0.988508 0.0451976 -5.51993e-21)
(0.985736 0.04061 0)
(0.982675 0.0313888 -5.30232e-22)
(0.980248 0.0275731 3.81172e-21)
(0.980334 0.0201694 -3.65556e-21)
(0.982963 -0.0273524 -5.19688e-21)
(0.989752 -0.0283025 0)
(0.994726 -0.0257218 -7.26347e-22)
(1.00227 -0.0267984 3.81212e-21)
(1.01534 -0.0323656 -4.66713e-21)
(1.02916 -0.0374169 0)
(1.03607 -0.0427792 4.41991e-22)
(1.03608 -0.0512854 -3.19066e-22)
(1.03604 -0.0626689 -1.58938e-22)
(1.03755 -0.0750515 9.43129e-23)
(1.04211 -0.0863008 0)
(1.05223 -0.0955319 -3.34839e-21)
(1.06445 -0.102632 3.76712e-21)