/*--------------------------------*- C++ -*----------------------------------*\
  =========                 |
  \\      /  F ield         | OpenFOAM: The Open Source CFD Toolbox
   \\    /   O peration     | Website:  https://openfoam.org
    \\  /    A nd           | Version:  10
     \\/     M anipulation  |
\*---------------------------------------------------------------------------*/
FoamFile
{
    format      ascii;
    class       volScalarField;
    location    "1.000357";
    object      p;
}
// * * * * * * * * * * * * * * * * * * * * * * * * * * * * * * * * * * * * * //

dimensions      [1 -1 -2 0 0 0 0];

internalField   nonuniform List<scalar> 
15708
(
2.39262
2.40741
2.42271
2.43827
2.45385
2.46923
2.48425
2.49876
2.51263
2.52579
2.53818
2.54977
2.56054
2.57051
2.5797
2.58814
2.59587
2.60293
2.60938
2.61527
2.62064
2.62554
2.63002
2.63411
2.63787
2.6413
2.64446
2.64737
2.65004
2.6525
2.65477
2.65685
2.65874
2.66045
2.66199
2.66337
2.66457
2.6656
2.66646
2.66715
2.66767
2.66801
2.66818
2.66817
2.66799
2.66764
2.66713
2.66644
2.6656
2.6646
2.66346
2.39333
2.40754
2.42231
2.4374
2.45259
2.46766
2.48242
2.49674
2.51048
2.52355
2.53588
2.54744
2.55821
2.56819
2.5774
2.58587
2.59363
2.60073
2.60721
2.61312
2.6185
2.62342
2.6279
2.63199
2.63573
2.63915
2.6423
2.64518
2.64783
2.65026
2.65248
2.6545
2.65634
2.65801
2.6595
2.66082
2.66198
2.66297
2.6638
2.66446
2.66495
2.66528
2.66544
2.66542
2.66525
2.66491
2.66441
2.66375
2.66294
2.66198
2.66087
2.39346
2.40713
2.4214
2.43607
2.4509
2.46568
2.48022
2.49436
2.50798
2.52097
2.53326
2.5448
2.55558
2.56558
2.57482
2.58333
2.59113
2.59826
2.60478
2.61072
2.61613
2.62106
2.62555
2.62966
2.6334
2.63683
2.63996
2.64283
2.64544
2.64783
2.65001
2.65198
2.65378
2.65539
2.65683
2.65811
2.65923
2.66018
2.66097
2.6616
2.66207
2.66238
2.66252
2.6625
2.66233
2.662
2.66151
2.66087
2.66008
2.65915
2.65808
2.39298
2.40613
2.41996
2.43425
2.44876
2.46327
2.47761
2.49161
2.50512
2.51805
2.53031
2.54185
2.55264
2.56268
2.57196
2.58051
2.58835
2.59553
2.60209
2.60808
2.61354
2.61851
2.62304
2.62717
2.63092
2.63435
2.63746
2.64029
2.64288
2.64523
2.64736
2.6493
2.65104
2.65261
2.65401
2.65525
2.65632
2.65724
2.65799
2.65859
2.65904
2.65932
2.65945
2.65942
2.65925
2.65892
2.65844
2.65782
2.65704
2.65613
2.65509
2.39174
2.40454
2.41795
2.43192
2.44614
2.46042
2.47458
2.48845
2.50188
2.51476
2.527
2.53855
2.54937
2.55945
2.56879
2.57741
2.58533
2.5926
2.59924
2.60529
2.61081
2.61582
2.62037
2.6245
2.62825
2.63166
2.63476
2.63757
2.64013
2.64245
2.64455
2.64645
2.64816
2.64969
2.65105
2.65224
2.65328
2.65416
2.65488
2.65545
2.65586
2.65613
2.65624
2.6562
2.65602
2.65569
2.65522
2.6546
2.65384
2.65295
2.65193
2.39004
2.40229
2.41536
2.42901
2.44298
2.45707
2.47108
2.48484
2.49821
2.51106
2.52331
2.53489
2.54578
2.55595
2.5654
2.57414
2.58216
2.58952
2.59623
2.60233
2.60788
2.61291
2.61748
2.62162
2.62537
2.62878
2.63186
2.63467
2.6372
2.6395
2.64158
2.64345
2.64513
2.64662
2.64795
2.64911
2.65011
2.65095
2.65164
2.65218
2.65257
2.65281
2.6529
2.65285
2.65266
2.65233
2.65185
2.65124
2.65049
2.64961
2.64861
2.38757
2.39938
2.41214
2.42551
2.43926
2.45318
2.46707
2.48075
2.49408
2.50695
2.51927
2.53097
2.54199
2.55229
2.56185
2.57068
2.57878
2.58619
2.59295
2.5991
2.60469
2.60976
2.61435
2.61851
2.62228
2.6257
2.62879
2.63159
2.63412
2.6364
2.63846
2.64031
2.64196
2.64343
2.64473
2.64585
2.64682
2.64763
2.6483
2.64881
2.64917
2.64939
2.64946
2.6494
2.64919
2.64885
2.64837
2.64776
2.64702
2.64615
2.64515
2.38419
2.39568
2.40818
2.42136
2.43495
2.44873
2.46253
2.4762
2.48958
2.50256
2.515
2.52682
2.53794
2.54833
2.55797
2.56688
2.57506
2.58255
2.58938
2.5956
2.60124
2.60636
2.61099
2.61519
2.61899
2.62242
2.62552
2.62833
2.63086
2.63314
2.63519
2.63703
2.63867
2.64012
2.64139
2.64249
2.64344
2.64422
2.64486
2.64534
2.64568
2.64588
2.64593
2.64585
2.64563
2.64528
2.64479
2.64417
2.64343
2.64256
2.64157
2.38
2.39112
2.40347
2.41648
2.42997
2.44371
2.45754
2.47128
2.48476
2.49781
2.51032
2.52222
2.53343
2.54392
2.55367
2.56269
2.57098
2.57858
2.5855
2.5918
2.59752
2.60271
2.6074
2.61164
2.61548
2.61895
2.62208
2.62491
2.62745
2.62974
2.63179
2.63363
2.63526
2.63669
2.63795
2.63904
2.63996
2.64072
2.64134
2.6418
2.64211
2.64229
2.64232
2.64222
2.64199
2.64162
2.64113
2.6405
2.63975
2.63888
2.6379
2.375
2.38566
2.39786
2.41088
2.42438
2.43819
2.45207
2.46584
2.47934
2.49246
2.50506
2.51707
2.52842
2.53905
2.54896
2.55812
2.56655
2.57427
2.58132
2.58773
2.59354
2.59881
2.60357
2.60788
2.61177
2.61529
2.61846
2.62131
2.62389
2.62619
2.62826
2.6301
2.63174
2.63317
2.63442
2.6355
2.63641
2.63716
2.63775
2.63819
2.63849
2.63864
2.63866
2.63854
2.63829
2.63791
2.6374
2.63676
2.636
2.63513
2.63414
2.36887
2.3795
2.39159
2.40454
2.41812
2.43198
2.44591
2.45976
2.47334
2.48656
2.49928
2.51142
2.52292
2.53373
2.54381
2.55315
2.56174
2.56962
2.57681
2.58334
2.58927
2.59464
2.5995
2.60389
2.60785
2.61143
2.61466
2.61756
2.62017
2.62251
2.62461
2.62647
2.62811
2.62956
2.63081
2.63189
2.63279
2.63353
2.63411
2.63454
2.63482
2.63496
2.63495
2.63482
2.63455
2.63415
2.63362
2.63297
2.6322
2.63131
2.63031
2.36182
2.37259
2.38451
2.39715
2.41117
2.42496
2.43913
2.45315
2.46696
2.48021
2.49301
2.50527
2.51693
2.52793
2.53821
2.54775
2.55654
2.5646
2.57196
2.57865
2.58472
2.59021
2.59518
2.59967
2.60373
2.60738
2.61068
2.61365
2.61631
2.6187
2.62083
2.62273
2.6244
2.62587
2.62714
2.62822
2.62912
2.62986
2.63043
2.63085
2.63112
2.63124
2.63122
2.63107
2.63078
2.63037
2.62982
2.62915
2.62836
2.62746
2.62645
2.35628
2.36429
2.37724
2.38944
2.40284
2.41762
2.43162
2.44606
2.45977
2.47317
2.48611
2.49855
2.51042
2.52164
2.53215
2.54192
2.55093
2.55921
2.56676
2.57363
2.57987
2.58551
2.59062
2.59523
2.59939
2.60315
2.60653
2.60958
2.61232
2.61477
2.61695
2.6189
2.62061
2.6221
2.6234
2.6245
2.62541
2.62616
2.62673
2.62715
2.62741
2.62752
2.62748
2.62732
2.62701
2.62658
2.62601
2.62532
2.62451
2.62359
2.62255
2.34613
2.35685
2.36893
2.38184
2.39547
2.40921
2.42344
2.43767
2.45193
2.46561
2.47876
2.49138
2.50345
2.51489
2.52565
2.53567
2.54494
2.55346
2.56124
2.56832
2.57474
2.58056
2.58581
2.59057
2.59486
2.59873
2.60222
2.60536
2.60818
2.61071
2.61297
2.61497
2.61674
2.61828
2.61961
2.62074
2.62168
2.62243
2.62302
2.62344
2.62369
2.6238
2.62375
2.62357
2.62326
2.6228
2.62221
2.6215
2.62066
2.61971
2.61866
2.33642
2.34734
2.35871
2.37272
2.38589
2.4002
2.41493
2.42965
2.44386
2.45776
2.47109
2.48387
2.49612
2.50779
2.51879
2.52907
2.5386
2.54737
2.55539
2.5627
2.56933
2.57534
2.58078
2.58569
2.59013
2.59413
2.59774
2.601
2.60393
2.60655
2.60889
2.61097
2.6128
2.6144
2.61578
2.61695
2.61792
2.6187
2.6193
2.61973
2.61999
2.6201
2.62005
2.61986
2.61952
2.61905
2.61844
2.6177
2.61684
2.61586
2.61477
2.3247
2.33608
2.34661
2.36578
2.37301
2.38703
2.40437
2.42046
2.43573
2.44986
2.46332
2.47619
2.4886
2.50043
2.51164
2.52217
2.53196
2.54099
2.54927
2.55682
2.56368
2.56989
2.57552
2.58061
2.58521
2.58937
2.59312
2.5965
2.59955
2.60228
2.60472
2.60689
2.6088
2.61047
2.61191
2.61314
2.61415
2.61497
2.6156
2.61605
2.61632
2.61643
2.61638
2.61618
2.61584
2.61534
2.61471
2.61394
2.61305
2.61205
2.61092
2.31395
2.32409
2.336
2.35148
2.36638
2.37619
2.39261
2.41049
2.42712
2.4416
2.45523
2.46839
2.48093
2.49292
2.50431
2.51505
2.52509
2.53438
2.54291
2.55071
2.5578
2.56424
2.57007
2.57534
2.58012
2.58444
2.58835
2.59188
2.59506
2.59792
2.60047
2.60275
2.60476
2.60651
2.60803
2.60932
2.61039
2.61126
2.61192
2.6124
2.61269
2.61281
2.61276
2.61256
2.61221
2.61169
2.61104
2.61025
2.60933
2.60829
2.60712
2.30275
2.31246
2.32495
2.33962
2.35517
2.36743
2.38196
2.39955
2.41752
2.43273
2.44695
2.46041
2.47316
2.48529
2.49687
2.50781
2.51807
2.52759
2.53637
2.54441
2.55174
2.5584
2.56444
2.56991
2.57488
2.57938
2.58345
2.58714
2.59047
2.59347
2.59615
2.59855
2.60067
2.60253
2.60413
2.6055
2.60664
2.60756
2.60828
2.60879
2.60911
2.60925
2.60921
2.60902
2.60865
2.60813
2.60745
2.60664
2.60569
2.6046
2.60338
2.29236
2.30348
2.31518
2.32846
2.34314
2.35741
2.37236
2.39066
2.40766
2.42208
2.43816
2.45227
2.46528
2.4776
2.48937
2.50049
2.51095
2.52069
2.52971
2.53798
2.54553
2.55241
2.55866
2.56434
2.5695
2.57418
2.57844
2.58229
2.58579
2.58894
2.59177
2.5943
2.59655
2.59852
2.60023
2.60169
2.60291
2.6039
2.60468
2.60524
2.60559
2.60576
2.60574
2.60555
2.60518
2.60465
2.60396
2.60312
2.60213
2.601
2.59973
2.28354
2.2926
2.30841
2.3193
2.33293
2.34764
2.36433
2.38399
2.39812
2.41031
2.42886
2.44408
2.45736
2.4699
2.48183
2.49315
2.50381
2.51376
2.52297
2.53146
2.53922
2.54631
2.55277
2.55865
2.564
2.56888
2.57332
2.57736
2.58102
2.58434
2.58733
2.59001
2.5924
2.5945
2.59633
2.59789
2.59921
2.60028
2.60113
2.60174
2.60215
2.60235
2.60235
2.60218
2.60181
2.60127
2.60057
2.59971
2.59869
2.59751
2.59619
2.27607
2.2855
2.29775
2.31003
2.32378
2.33895
2.35526
2.37238
2.39081
2.40196
2.41901
2.4359
2.44956
2.46225
2.47438
2.48588
2.4967
2.50682
2.51622
2.52489
2.53285
2.54013
2.54678
2.55286
2.55841
2.56348
2.56811
2.57233
2.57618
2.57968
2.58284
2.58569
2.58823
2.59047
2.59243
2.59412
2.59555
2.59671
2.59764
2.59832
2.59878
2.59902
2.59906
2.5989
2.59855
2.59801
2.5973
2.59642
2.59536
2.59414
2.59277
2.2682
2.27712
2.28852
2.30293
2.31575
2.33077
2.34713
2.36501
2.37976
2.39435
2.41262
2.42819
2.44194
2.45478
2.46707
2.47872
2.48968
2.49995
2.50949
2.51832
2.52645
2.5339
2.54074
2.547
2.55274
2.558
2.56282
2.56724
2.57128
2.57496
2.57831
2.58134
2.58404
2.58645
2.58856
2.59038
2.59192
2.5932
2.59421
2.59497
2.5955
2.59579
2.59587
2.59574
2.59541
2.59487
2.59416
2.59326
2.59217
2.59091
2.58949
2.26197
2.27012
2.28285
2.29639
2.30904
2.32382
2.33976
2.35641
2.37181
2.38864
2.40417
2.42035
2.43442
2.44752
2.45996
2.47171
2.48279
2.49317
2.50283
2.51179
2.52005
2.52766
2.53465
2.54109
2.547
2.55245
2.55747
2.56208
2.56632
2.57021
2.57375
2.57696
2.57985
2.58243
2.5847
2.58667
2.58834
2.58973
2.59085
2.5917
2.5923
2.59266
2.59278
2.59268
2.59238
2.59186
2.59115
2.59023
2.58911
2.58781
2.58634
2.25774
2.2661
2.27828
2.28989
2.30306
2.31771
2.33316
2.34924
2.36458
2.381
2.39762
2.41307
2.42736
2.44061
2.45312
2.46494
2.47608
2.48653
2.49627
2.50531
2.51368
2.52141
2.52855
2.53513
2.54122
2.54685
2.55206
2.55687
2.56132
2.56541
2.56916
2.57257
2.57566
2.57842
2.58086
2.58299
2.58481
2.58633
2.58756
2.58851
2.58919
2.58962
2.58979
2.58974
2.58946
2.58896
2.58825
2.58733
2.58619
2.58485
2.58332
2.25575
2.2642
2.27405
2.28619
2.2988
2.31296
2.32811
2.34314
2.36025
2.37642
2.39164
2.40663
2.42066
2.434
2.44659
2.45846
2.46961
2.48007
2.48984
2.49893
2.50737
2.51519
2.52244
2.52916
2.53541
2.54121
2.5466
2.55162
2.55627
2.56058
2.56455
2.56818
2.57147
2.57443
2.57705
2.57935
2.58133
2.58298
2.58433
2.58539
2.58616
2.58666
2.5869
2.58689
2.58665
2.58617
2.58546
2.58453
2.58337
2.58199
2.58041
2.25479
2.26231
2.27172
2.28289
2.29536
2.30921
2.32362
2.34035
2.35373
2.36973
2.38576
2.40061
2.41466
2.42797
2.4405
2.4523
2.46342
2.47383
2.48358
2.49267
2.50114
2.50902
2.51636
2.52319
2.52957
2.53553
2.54111
2.54633
2.55119
2.55573
2.55992
2.56377
2.56728
2.57045
2.57327
2.57575
2.57788
2.57968
2.58116
2.58232
2.58319
2.58377
2.58408
2.58412
2.58392
2.58345
2.58274
2.58181
2.58063
2.57919
2.57754
2.25571
2.26236
2.27113
2.28159
2.29338
2.30659
2.32102
2.33462
2.34981
2.36581
2.38101
2.39556
2.40943
2.42254
2.43491
2.44656
2.45753
2.46784
2.4775
2.48654
2.49499
2.5029
2.5103
2.51723
2.52373
2.52984
2.53559
2.54101
2.54609
2.55085
2.55528
2.55936
2.5631
2.56648
2.5695
2.57216
2.57446
2.5764
2.57801
2.57928
2.58025
2.58091
2.58129
2.5814
2.58122
2.58076
2.58
2.57907
2.57784
2.5763
2.57458
2.25738
2.26321
2.27149
2.28122
2.2924
2.30499
2.31857
2.33222
2.34752
2.3625
2.37711
2.39126
2.4048
2.41764
2.42977
2.44122
2.45199
2.46211
2.47162
2.48056
2.48896
2.49686
2.5043
2.5113
2.5179
2.52414
2.53006
2.53567
2.54097
2.54596
2.55062
2.55494
2.55891
2.56251
2.56573
2.56857
2.57103
2.57311
2.57484
2.57622
2.57728
2.57803
2.57847
2.57863
2.5785
2.57806
2.57729
2.57614
2.57481
2.57316
2.57138
2.26034
2.26561
2.27259
2.2815
2.29202
2.30401
2.31706
2.33164
2.34591
2.36014
2.37414
2.38776
2.40084
2.4133
2.4251
2.43625
2.44676
2.45664
2.46595
2.47473
2.48303
2.4909
2.49835
2.5054
2.51207
2.51843
2.5245
2.5303
2.53581
2.54103
2.54593
2.55048
2.55468
2.55849
2.5619
2.56491
2.56752
2.56974
2.57157
2.57305
2.5742
2.57502
2.57551
2.5757
2.57556
2.5751
2.57428
2.57296
2.57131
2.56968
2.5681
2.26417
2.26944
2.27627
2.28472
2.29468
2.30605
2.3185
2.33173
2.34518
2.35868
2.372
2.38498
2.39748
2.40945
2.42085
2.43164
2.44181
2.45143
2.46048
2.46904
2.47718
2.485
2.49247
2.49953
2.50625
2.5127
2.51891
2.52488
2.5306
2.53605
2.54117
2.54596
2.55036
2.55437
2.55797
2.56114
2.56388
2.5662
2.56811
2.56966
2.57084
2.57168
2.57214
2.57241
2.5722
2.57157
2.57048
2.56906
2.56781
2.56627
2.56445
2.2684
2.27365
2.28028
2.28856
2.29801
2.30865
2.32021
2.3325
2.34514
2.35786
2.37042
2.38265
2.39446
2.40581
2.41679
2.42723
2.43709
2.44638
2.45514
2.4634
2.4713
2.479
2.48657
2.49363
2.50034
2.50687
2.51322
2.51937
2.52529
2.53098
2.53634
2.54133
2.54593
2.55011
2.55387
2.55716
2.56001
2.56238
2.56432
2.56589
2.56701
2.56811
2.56855
2.5683
2.56791
2.56712
2.56629
2.5651
2.56391
2.5623
2.56052
2.27278
2.27806
2.2847
2.29218
2.30093
2.31086
2.32166
2.33312
2.34493
2.35685
2.36859
2.38005
2.39117
2.40215
2.41279
2.4229
2.43239
2.44136
2.44977
2.45764
2.46505
2.47226
2.48043
2.4878
2.49451
2.50115
2.50761
2.51391
2.52001
2.52583
2.53139
2.53658
2.54133
2.54566
2.54954
2.55288
2.55576
2.55815
2.56002
2.56209
2.56331
2.56354
2.5636
2.56321
2.5628
2.56232
2.56146
2.56059
2.55997
2.55755
2.55595
2.27799
2.28278
2.28904
2.29656
2.30511
2.31443
2.32445
2.33498
2.34572
2.35656
2.36716
2.37744
2.38736
2.3979
2.40841
2.41843
2.42769
2.4367
2.44545
2.45378
2.46161
2.46899
2.4743
2.48105
2.48788
2.49482
2.5016
2.50817
2.51452
2.52055
2.52633
2.53169
2.53653
2.54091
2.54496
2.54807
2.55075
2.55412
2.55641
2.55711
2.55766
2.55788
2.55771
2.55732
2.55703
2.55678
2.55619
2.55512
2.55331
2.55118
2.54938
2.28408
2.28832
2.29402
2.30055
2.30802
2.31634
2.32534
2.33499
2.34475
2.35498
2.36551
2.37617
2.38664
2.3958
2.40403
2.41274
2.4212
2.42946
2.43753
2.44527
2.45272
2.46004
2.46694
2.47416
2.48136
2.48858
2.49563
2.50241
2.50886
2.51501
2.52094
2.52656
2.53137
2.53559
2.54021
2.54415
2.54734
2.54864
2.55012
2.5509
2.55121
2.55137
2.55106
2.55073
2.5504
2.55044
2.54923
2.54782
2.5451
2.54407
2.5427
2.29169
2.29479
2.29937
2.30506
2.31162
2.31899
2.32706
2.33569
2.34461
2.35378
2.36307
2.37235
2.38135
2.38993
2.39792
2.40588
2.4136
2.42125
2.4293
2.4383
2.44594
2.45252
2.45965
2.46684
2.47437
2.48198
2.48933
2.49631
2.50286
2.50887
2.51444
2.52124
2.5269
2.53178
2.53476
2.53776
2.54033
2.54198
2.54304
2.54367
2.54379
2.5434
2.54377
2.54343
2.54282
2.54188
2.5411
2.53999
2.53809
2.5366
2.53633
2.30136
2.30286
2.30614
2.31065
2.31614
2.32243
2.32938
2.33684
2.3446
2.35257
2.36067
2.36879
2.37681
2.3849
2.39345
2.40117
2.40835
2.41489
2.42198
2.42885
2.43675
2.44504
2.452
2.45902
2.46643
2.47489
2.48284
2.49054
2.49799
2.50507
2.51132
2.51542
2.52014
2.5245
2.52798
2.53076
2.53288
2.53439
2.53526
2.53533
2.53495
2.53517
2.53507
2.53513
2.53432
2.53289
2.532
2.53116
2.53066
2.52884
2.52388
2.31285
2.31221
2.31376
2.31702
2.32133
2.32648
2.33231
2.33875
2.34533
2.35223
2.35932
2.3664
2.37341
2.38025
2.38679
2.39382
2.40119
2.40891
2.41599
2.4229
2.43006
2.43792
2.4461
2.45394
2.46152
2.46781
2.47512
2.4826
2.48996
2.49698
2.50321
2.50831
2.51298
2.51707
2.5204
2.52285
2.52473
2.5256
2.52525
2.52567
2.52604
2.52617
2.52521
2.52495
2.52471
2.52372
2.52251
2.52284
2.51721
2.51581
2.5109
2.32591
2.32333
2.32284
2.32411
2.32697
2.33077
2.33549
2.34074
2.3466
2.35265
2.35888
2.36523
2.37153
2.37773
2.38387
2.39022
2.3968
2.40349
2.41003
2.4165
2.42334
2.43044
2.43789
2.44535
2.45277
2.45989
2.46727
2.47474
2.48227
2.48931
2.4957
2.50099
2.50527
2.50893
2.5119
2.5142
2.51528
2.51539
2.51606
2.51616
2.5163
2.51628
2.51528
2.51484
2.51447
2.5155
2.51302
2.5091
2.50488
2.50182
2.49736
2.33909
2.33502
2.33268
2.33204
2.33322
2.33585
2.3394
2.34364
2.34844
2.3535
2.35877
2.36425
2.36988
2.37556
2.38124
2.38695
2.39291
2.39885
2.40485
2.41102
2.41756
2.42452
2.43179
2.43919
2.4465
2.4536
2.461
2.46842
2.47575
2.48227
2.48838
2.49244
2.49644
2.50003
2.50243
2.50347
2.50464
2.50577
2.50617
2.50603
2.5055
2.50528
2.50441
2.50535
2.50598
2.50295
2.49714
2.49419
2.49068
2.48651
2.48251
2.34893
2.34412
2.34091
2.33943
2.33919
2.34036
2.34278
2.34588
2.34975
2.3542
2.35897
2.36389
2.36902
2.37426
2.37959
2.38478
2.39017
2.39561
2.40123
2.40702
2.41302
2.41876
2.42554
2.43271
2.44011
2.44762
2.45496
2.46189
2.46834
2.47483
2.47952
2.48402
2.48752
2.48999
2.49178
2.4934
2.49445
2.49503
2.49484
2.49384
2.4936
2.49472
2.49605
2.49418
2.4896
2.48633
2.48313
2.47852
2.47556
2.47139
2.46749
2.35864
2.35301
2.34858
2.34607
2.34516
2.34556
2.34713
2.3495
2.35256
2.35617
2.36025
2.3647
2.36952
2.37452
2.37976
2.38413
2.38895
2.39395
2.3991
2.40469
2.41055
2.41561
2.42228
2.4289
2.43579
2.44266
2.44958
2.45686
2.46241
2.46766
2.47189
2.47556
2.47829
2.4803
2.48152
2.48193
2.48271
2.48289
2.48241
2.48359
2.48456
2.48349
2.4802
2.47619
2.47403
2.46986
2.46638
2.46287
2.45942
2.45602
2.45273
2.36904
2.3628
2.35755
2.35403
2.35229
2.35178
2.35235
2.35423
2.35702
2.36037
2.36404
2.36759
2.37172
2.37664
2.38111
2.3852
2.38967
2.39446
2.39989
2.40549
2.40995
2.41574
2.42197
2.42849
2.43495
2.44114
2.44656
2.45135
2.45622
2.46055
2.46436
2.46768
2.46888
2.46959
2.4705
2.47075
2.47094
2.47263
2.47289
2.47138
2.46825
2.46574
2.464
2.45963
2.4568
2.45307
2.4495
2.4465
2.44337
2.44053
2.43793
2.38021
2.37322
2.36706
2.36294
2.36059
2.35965
2.35964
2.36076
2.36292
2.3658
2.36915
2.37248
2.37603
2.38101
2.38526
2.38915
2.39337
2.39785
2.40264
2.4077
2.41194
2.4169
2.42222
2.42769
2.43312
2.43836
2.44309
2.44724
2.45086
2.4543
2.45584
2.45928
2.46172
2.46239
2.46348
2.46242
2.46225
2.45709
2.45732
2.45305
2.45143
2.44902
2.44627
2.44294
2.43948
2.43594
2.4327
2.42979
2.42714
2.42489
2.42307
2.39123
2.38403
2.37694
2.37266
2.36996
2.36865
2.3685
2.36927
2.37103
2.37351
2.37637
2.37987
2.3832
2.38732
2.39193
2.3956
2.39962
2.40391
2.40803
2.41239
2.41667
2.42088
2.42521
2.42961
2.43396
2.43807
2.44163
2.44464
2.44727
2.44891
2.45058
2.44995
2.45057
2.45055
2.44997
2.4485
2.44637
2.44278
2.4401
2.43819
2.43485
2.43248
2.4288
2.42564
2.42215
2.4188
2.41568
2.41291
2.41069
2.40913
2.40819
2.40393
2.39528
2.38812
2.38297
2.38028
2.37798
2.37832
2.37883
2.38008
2.38244
2.38522
2.3884
2.39207
2.39591
2.39992
2.40381
2.40782
2.41203
2.41596
2.41985
2.42345
2.4271
2.43055
2.4338
2.43674
2.43936
2.44155
2.44291
2.44367
2.44383
2.44307
2.4421
2.44038
2.43899
2.43702
2.43438
2.43186
2.42816
2.42489
2.42195
2.41841
2.41538
2.41174
2.4084
2.4049
2.40158
2.3985
2.39587
2.39404
2.39324
2.39325
2.41811
2.40829
2.40044
2.39468
2.39117
2.38936
2.38902
2.38945
2.39074
2.39306
2.39587
2.39915
2.40283
2.40688
2.4109
2.41486
2.41863
2.4222
2.42572
2.42909
2.43219
2.43498
2.43739
2.43936
2.44086
2.44187
2.44225
2.44184
2.44097
2.43899
2.43717
2.43418
2.43126
2.42821
2.42467
2.42098
2.4172
2.41317
2.40946
2.40594
2.4022
2.39866
2.39501
2.39143
2.38792
2.38452
2.38133
2.37872
2.37728
2.37706
2.37825
2.43303
2.42256
2.41424
2.40814
2.40428
2.40229
2.40168
2.40199
2.40327
2.4057
2.40847
2.41159
2.41536
2.41938
2.42342
2.42737
2.4311
2.4345
2.43757
2.44027
2.44254
2.44433
2.44554
2.44607
2.44599
2.44542
2.44382
2.44161
2.43931
2.43551
2.43148
2.42703
2.42227
2.41789
2.41266
2.40804
2.40306
2.39845
2.39411
2.39013
2.38614
2.38236
2.37863
2.37499
2.3714
2.3679
2.36452
2.36174
2.36024
2.36042
2.36308
2.44857
2.43755
2.42889
2.42255
2.41853
2.41639
2.41567
2.41588
2.41746
2.41974
2.42245
2.42595
2.42974
2.43374
2.43768
2.44145
2.44491
2.44795
2.45051
2.45253
2.45391
2.45455
2.45457
2.45374
2.45209
2.44974
2.44654
2.44242
2.43796
2.43251
2.42672
2.42049
2.41406
2.40775
2.40131
2.39524
2.38937
2.384
2.37906
2.37456
2.37039
2.36646
2.36274
2.3591
2.35549
2.35192
2.34834
2.34487
2.3428
2.34292
2.34735
2.46421
2.45303
2.44403
2.43752
2.4333
2.43123
2.43036
2.43064
2.43211
2.43432
2.43737
2.44085
2.44475
2.4487
2.45254
2.45611
2.45926
2.46187
2.46385
2.46511
2.46562
2.46539
2.46422
2.46208
2.45885
2.45485
2.44989
2.44416
2.43757
2.43035
2.42263
2.41456
2.40645
2.39829
2.39037
2.38289
2.37593
2.36973
2.3642
2.35934
2.35506
2.3512
2.3476
2.34409
2.34055
2.33695
2.33316
2.32898
2.32512
2.32398
2.33029
2.48029
2.46863
2.45944
2.45281
2.44843
2.44627
2.44546
2.44564
2.44711
2.44936
2.45253
2.45594
2.45987
2.46372
2.46734
2.47068
2.47349
2.47563
2.47697
2.47754
2.47735
2.47617
2.47391
2.47054
2.46603
2.46051
2.45391
2.44644
2.43802
2.42881
2.41933
2.40925
2.39923
2.38928
2.37971
2.37089
2.36282
2.35567
2.34956
2.34443
2.34013
2.33644
2.33313
2.32993
2.32659
2.32296
2.31904
2.31445
2.30824
2.30305
2.30865
2.49624
2.48441
2.47514
2.4681
2.4637
2.4615
2.46061
2.46076
2.46216
2.46448
2.46754
2.471
2.47477
2.4784
2.48185
2.48491
2.48729
2.48896
2.48974
2.4898
2.48887
2.48681
2.48359
2.47911
2.47339
2.4665
2.45854
2.44928
2.43922
2.42824
2.41662
2.40464
2.39251
2.38069
2.36938
2.35895
2.34961
2.34167
2.33511
2.32992
2.3258
2.3225
2.31968
2.317
2.31408
2.31063
2.30652
2.30166
2.2942
2.27959
2.2692
2.66217
2.66077
2.65924
2.65762
2.65591
2.65413
2.65228
2.65039
2.64845
2.64649
2.64451
2.64251
2.64051
2.6385
2.63649
2.63448
2.63246
2.63043
2.62838
2.6263
2.6242
2.62204
2.61984
2.61756
2.61521
2.61275
2.65963
2.65827
2.65679
2.65521
2.65355
2.65181
2.65
2.64814
2.64625
2.64432
2.64237
2.64041
2.63844
2.63647
2.63449
2.63252
2.63054
2.62857
2.62658
2.62458
2.62256
2.62051
2.61842
2.61627
2.61406
2.61176
2.65687
2.65555
2.65411
2.65258
2.65095
2.64925
2.64749
2.64567
2.64382
2.64193
2.64002
2.63809
2.63616
2.63423
2.63231
2.63039
2.62847
2.62656
2.62466
2.62275
2.62082
2.61889
2.61692
2.61492
2.61286
2.61074
2.65392
2.65263
2.65123
2.64973
2.64814
2.64648
2.64476
2.64299
2.64117
2.63932
2.63745
2.63557
2.63369
2.63181
2.62994
2.62808
2.62624
2.62441
2.62259
2.62078
2.61898
2.61717
2.61534
2.61349
2.61162
2.60968
2.65078
2.64952
2.64815
2.64669
2.64514
2.64352
2.64183
2.6401
2.63832
2.63651
2.63469
2.63286
2.63103
2.62921
2.6274
2.62561
2.62385
2.6221
2.62039
2.61869
2.61702
2.61535
2.61368
2.61201
2.61031
2.60859
2.64748
2.64625
2.64491
2.64347
2.64196
2.64037
2.63872
2.63702
2.63528
2.63352
2.63174
2.62996
2.62818
2.62642
2.62468
2.62297
2.62129
2.61965
2.61805
2.61648
2.61494
2.61343
2.61193
2.61045
2.60896
2.60745
2.64404
2.64282
2.64151
2.6401
2.63861
2.63705
2.63543
2.63377
2.63207
2.63035
2.62861
2.62688
2.62516
2.62346
2.62179
2.62017
2.61858
2.61705
2.61556
2.61413
2.61275
2.61141
2.6101
2.60882
2.60755
2.60628
2.64048
2.63927
2.63797
2.63658
2.63511
2.63358
2.63199
2.63035
2.62869
2.62701
2.62532
2.62363
2.62197
2.62033
2.61874
2.6172
2.61572
2.6143
2.61294
2.61166
2.61044
2.60928
2.60818
2.60712
2.60609
2.60507
2.6368
2.63561
2.63431
2.63294
2.63149
2.62997
2.6284
2.6268
2.62516
2.62351
2.62186
2.62022
2.61861
2.61704
2.61553
2.61408
2.6127
2.6114
2.61018
2.60906
2.60801
2.60705
2.60617
2.60534
2.60457
2.60383
2.63304
2.63185
2.63056
2.62919
2.62775
2.62625
2.62469
2.6231
2.62149
2.61987
2.61825
2.61666
2.6151
2.6136
2.61216
2.61079
2.60952
2.60835
2.60728
2.60632
2.60547
2.60472
2.60407
2.60351
2.60301
2.60256
2.62921
2.62801
2.62672
2.62535
2.62391
2.62242
2.62087
2.61929
2.61769
2.61609
2.6145
2.61294
2.61143
2.60998
2.60862
2.60735
2.60619
2.60515
2.60424
2.60346
2.60281
2.60229
2.60189
2.6016
2.6014
2.60128
2.62533
2.62412
2.62282
2.62144
2.62
2.61849
2.61694
2.61536
2.61376
2.61217
2.6106
2.60907
2.60759
2.6062
2.60491
2.60373
2.60268
2.60178
2.60103
2.60044
2.60002
2.59975
2.59962
2.59963
2.59975
2.59997
2.62142
2.62019
2.61887
2.61747
2.61601
2.61448
2.61292
2.61132
2.60972
2.60813
2.60657
2.60505
2.60361
2.60226
2.60103
2.59994
2.59901
2.59825
2.59767
2.59728
2.59709
2.59709
2.59725
2.59759
2.59806
2.59865
2.6175
2.61624
2.61489
2.61346
2.61196
2.61041
2.60882
2.60721
2.60559
2.60398
2.60241
2.60091
2.59948
2.59817
2.597
2.59599
2.59517
2.59455
2.59415
2.59397
2.59403
2.59431
2.59481
2.5955
2.59635
2.59734
2.61358
2.61228
2.61089
2.60943
2.60789
2.60631
2.60468
2.60303
2.60138
2.59974
2.59815
2.59663
2.59521
2.59393
2.5928
2.59186
2.59114
2.59067
2.59045
2.59051
2.59083
2.59143
2.59228
2.59336
2.59463
2.59605
2.60968
2.60834
2.60691
2.6054
2.60381
2.60218
2.6005
2.5988
2.5971
2.59542
2.59379
2.59224
2.5908
2.58952
2.58842
2.58754
2.58693
2.58659
2.58657
2.58685
2.58748
2.58843
2.58967
2.59117
2.59289
2.5948
2.60583
2.60444
2.60296
2.60139
2.59975
2.59805
2.5963
2.59454
2.59276
2.59102
2.58932
2.58772
2.58624
2.58494
2.58385
2.58302
2.58249
2.58231
2.58247
2.58302
2.58398
2.58531
2.58697
2.58894
2.59116
2.5936
2.60204
2.6006
2.59905
2.59742
2.59571
2.59394
2.59211
2.59025
2.58839
2.58655
2.58477
2.58308
2.58154
2.58018
2.57907
2.57827
2.57782
2.57778
2.57814
2.57898
2.5803
2.58205
2.58418
2.58666
2.58944
2.59245
2.59834
2.59684
2.59523
2.59352
2.59173
2.58986
2.58794
2.58598
2.584
2.58204
2.58013
2.57833
2.57668
2.57524
2.57408
2.57328
2.5729
2.57298
2.57355
2.57473
2.57643
2.57865
2.5813
2.58435
2.58773
2.59136
2.59475
2.59318
2.59149
2.58971
2.58782
2.58585
2.58381
2.58172
2.5796
2.57749
2.57544
2.57348
2.57168
2.57012
2.56888
2.56804
2.56771
2.56791
2.56874
2.57026
2.57237
2.57513
2.57834
2.58201
2.58604
2.59033
2.59127
2.58963
2.58787
2.58599
2.58401
2.58192
2.57975
2.57751
2.57523
2.57295
2.5707
2.56855
2.56659
2.56485
2.56351
2.5626
2.56228
2.56261
2.56367
2.5656
2.56824
2.57153
2.57538
2.57969
2.58438
2.58935
2.58792
2.58622
2.58438
2.58241
2.58031
2.5781
2.57579
2.57339
2.57093
2.56844
2.566
2.56363
2.56145
2.55945
2.55795
2.55694
2.55651
2.55684
2.55807
2.56033
2.56346
2.56737
2.57194
2.57706
2.58257
2.58838
2.58471
2.58294
2.58102
2.57896
2.57675
2.57441
2.57195
2.56938
2.56674
2.56403
2.56133
2.5587
2.55613
2.55369
2.55172
2.55044
2.54996
2.55034
2.55173
2.55432
2.55801
2.56266
2.5681
2.57415
2.58061
2.58736
2.58164
2.57979
2.5778
2.57564
2.57333
2.57086
2.56826
2.56551
2.56267
2.55964
2.55638
2.5533
2.55044
2.54774
2.54528
2.54344
2.54262
2.543
2.54468
2.54786
2.55238
2.55799
2.5644
2.57147
2.57892
2.58657
2.57866
2.57675
2.57468
2.57244
2.57003
2.56741
2.56465
2.56157
2.55814
2.55489
2.55163
2.54795
2.54433
2.54109
2.5383
2.53631
2.53555
2.53626
2.53858
2.54252
2.548
2.55476
2.56205
2.56981
2.57794
2.58631
2.57571
2.57374
2.57161
2.56931
2.56678
2.56384
2.56072
2.55748
2.55383
2.54983
2.54612
2.54224
2.53852
2.53536
2.53248
2.53041
2.52973
2.53072
2.53355
2.53825
2.54413
2.55156
2.56031
2.56919
2.57795
2.58663
2.5727
2.57069
2.56853
2.56608
2.56321
2.56007
2.55649
2.55255
2.54869
2.54483
2.54086
2.53752
2.53384
2.53035
2.52751
2.52551
2.52511
2.52624
2.52947
2.53537
2.54324
2.55041
2.55894
2.56805
2.57747
2.58697
2.56957
2.56752
2.5651
2.56222
2.55891
2.55518
2.55156
2.54794
2.54418
2.54082
2.53682
2.53278
2.52918
2.52571
2.52305
2.52188
2.52255
2.5248
2.52821
2.53341
2.54067
2.54938
2.55973
2.5694
2.57909
2.58958
2.56634
2.56374
2.56098
2.55742
2.55408
2.5509
2.54729
2.54408
2.5402
2.53609
2.53207
2.52814
2.52463
2.52184
2.51989
2.51928
2.52034
2.52299
2.52784
2.53415
2.54182
2.55066
2.5606
2.57064
2.58012
2.59054
2.56232
2.55894
2.55584
2.55327
2.5497
2.54678
2.5431
2.53905
2.53493
2.53079
2.52679
2.52328
2.52006
2.51828
2.51727
2.51743
2.51935
2.5229
2.52773
2.53445
2.5424
2.55137
2.56119
2.57127
2.58084
2.59027
2.55686
2.55461
2.55074
2.54841
2.54511
2.54138
2.53756
2.53339
2.52919
2.52519
2.52164
2.51868
2.51624
2.51494
2.5146
2.51543
2.51776
2.52164
2.52692
2.53373
2.54183
2.5509
2.56025
2.57265
2.58275
2.59366
2.55106
2.54943
2.5465
2.54334
2.53974
2.53563
2.53142
2.52723
2.52318
2.51941
2.51597
2.51319
2.51116
2.5103
2.51045
2.51197
2.51508
2.51981
2.52615
2.53397
2.54274
2.55249
2.56284
2.57382
2.5846
2.59549
2.54665
2.54422
2.54099
2.53729
2.53353
2.52937
2.52513
2.52073
2.51649
2.51256
2.50895
2.50634
2.50485
2.50445
2.50532
2.50779
2.51185
2.51741
2.52454
2.53308
2.54246
2.55274
2.56366
2.57487
2.58611
2.59726
2.54041
2.53832
2.53389
2.52889
2.52455
2.51978
2.51497
2.51022
2.50593
2.50224
2.49914
2.49755
2.49697
2.49727
2.49924
2.5027
2.50773
2.51428
2.5223
2.53157
2.54177
2.55274
2.56422
2.57593
2.58763
2.59915
2.5329
2.52859
2.52169
2.51708
2.51316
2.50798
2.50345
2.49883
2.49503
2.49175
2.48965
2.48874
2.4888
2.49016
2.493
2.4974
2.50336
2.51084
2.51972
2.52978
2.54079
2.5525
2.56465
2.57697
2.58923
2.60122
2.52028
2.51465
2.51017
2.50481
2.50057
2.49567
2.49151
2.48744
2.48415
2.48153
2.48015
2.47982
2.48058
2.48273
2.48641
2.49168
2.49853
2.5069
2.51666
2.52759
2.53946
2.552
2.56493
2.57799
2.59092
2.60352
2.50633
2.50119
2.49654
2.49207
2.48772
2.48355
2.47963
2.47615
2.47329
2.47135
2.47055
2.47071
2.4721
2.47496
2.4794
2.48546
2.49315
2.50239
2.51305
2.5249
2.53771
2.55117
2.56501
2.57893
2.59268
2.60601
2.49236
2.48756
2.48326
2.47919
2.47519
2.47152
2.46799
2.46497
2.4626
2.46122
2.46083
2.46145
2.46338
2.46681
2.47188
2.47865
2.4871
2.49718
2.50875
2.52158
2.5354
2.54992
2.5648
2.57975
2.59445
2.60868
2.47814
2.47413
2.4701
2.46648
2.46292
2.45961
2.45655
2.45394
2.45202
2.45109
2.45096
2.45195
2.45426
2.45812
2.46369
2.47103
2.48016
2.49104
2.50352
2.51738
2.53234
2.54805
2.56416
2.5803
2.59617
2.61147
2.46394
2.46041
2.45713
2.45392
2.45085
2.44796
2.44533
2.4431
2.44154
2.44088
2.44093
2.44213
2.44466
2.44874
2.4546
2.46235
2.47203
2.48363
2.49703
2.512
2.52822
2.54531
2.56285
2.58044
2.59771
2.61432
2.44973
2.4469
2.44419
2.44158
2.43904
2.43662
2.43441
2.43251
2.4312
2.43064
2.43074
2.43194
2.43448
2.43853
2.44441
2.45231
2.46235
2.47458
2.48888
2.50503
2.52267
2.54136
2.56062
2.57995
2.59893
2.61714
2.43561
2.43351
2.43152
2.42956
2.42761
2.4257
2.42388
2.42227
2.42104
2.42042
2.4204
2.42136
2.42359
2.42734
2.43289
2.44063
2.45077
2.46345
2.47861
2.496
2.51523
2.5358
2.5571
2.57857
2.59963
2.61983
2.42159
2.42035
2.4192
2.41801
2.41674
2.41537
2.41392
2.41251
2.41125
2.41037
2.41003
2.41046
2.41205
2.41511
2.41998
2.42714
2.43702
2.44991
2.46579
2.48447
2.50549
2.52823
2.55198
2.57602
2.59967