/*--------------------------------*- C++ -*----------------------------------*\
  =========                 |
  \\      /  F ield         | OpenFOAM: The Open Source CFD Toolbox
   \\    /   O peration     | Website:  https://openfoam.org
    \\  /    A nd           | Version:  10
     \\/     M anipulation  |
\*---------------------------------------------------------------------------*/
FoamFile
{
    format      ascii;
    class       volScalarField;
    location    "1.000357";
    object      T;
}
// * * * * * * * * * * * * * * * * * * * * * * * * * * * * * * * * * * * * * //

dimensions      [0 0 0 1 0 0 0];

internalField   nonuniform List<scalar> 
15708
(
0.00862047
0.00863469
0.00865003
0.00866566
0.0086811
0.00869587
0.00871006
0.00872364
0.00873667
0.00874901
0.00876058
0.00877122
0.00878089
0.00878975
0.00879775
0.00880535
0.0088124
0.00881916
0.00882542
0.00883105
0.00883623
0.00884061
0.00884454
0.00884795
0.0088509
0.0088536
0.00885595
0.0088582
0.00886025
0.00886212
0.008864
0.00886573
0.00886737
0.00886886
0.00887041
0.00887161
0.00887303
0.00887399
0.00887502
0.00887568
0.00887625
0.00887663
0.0088766
0.00887675
0.00887636
0.00887621
0.00887563
0.00887499
0.00887411
0.00887327
0.00887218
0.00861846
0.00863307
0.00864918
0.00866489
0.00867993
0.00869432
0.00870824
0.00872177
0.00873477
0.00874716
0.00875874
0.00876936
0.00877901
0.00878779
0.00879581
0.00880329
0.00881037
0.00881694
0.00882315
0.00882868
0.00883379
0.0088381
0.00884201
0.00884532
0.00884839
0.00885108
0.00885359
0.00885573
0.00885781
0.0088597
0.00886144
0.00886317
0.00886477
0.00886622
0.00886778
0.00886882
0.0088703
0.00887107
0.00887211
0.00887275
0.00887327
0.00887377
0.00887377
0.00887377
0.00887354
0.00887327
0.00887266
0.00887202
0.00887121
0.00887032
0.00886935
0.00862037
0.00863575
0.00864985
0.00866414
0.00867851
0.00869282
0.00870694
0.00872059
0.00873364
0.00874585
0.00875719
0.00876757
0.00877697
0.00878575
0.00879366
0.00880122
0.00880817
0.00881481
0.00882094
0.00882659
0.00883159
0.00883603
0.00883975
0.00884313
0.00884605
0.00884867
0.00885119
0.00885328
0.00885549
0.00885726
0.00885915
0.00886072
0.0088624
0.00886376
0.00886528
0.00886644
0.00886772
0.00886855
0.00886949
0.00887006
0.00887059
0.00887091
0.00887109
0.00887097
0.00887083
0.00887035
0.00887002
0.00886919
0.0088685
0.0088675
0.00886652
0.00862244
0.00863501
0.00864798
0.00866208
0.00867653
0.00869096
0.00870513
0.00871864
0.00873149
0.00874336
0.00875452
0.00876464
0.00877423
0.00878294
0.00879111
0.00879861
0.00880558
0.00881225
0.00881842
0.00882419
0.00882925
0.00883376
0.00883752
0.00884088
0.00884377
0.0088464
0.00884876
0.00885095
0.00885291
0.0088548
0.00885652
0.00885807
0.00885972
0.00886099
0.00886251
0.00886365
0.00886489
0.00886576
0.00886667
0.00886722
0.00886776
0.00886803
0.00886821
0.00886814
0.00886774
0.00886751
0.00886689
0.00886627
0.00886542
0.00886441
0.00886348
0.00861224
0.0086316
0.00864526
0.00865977
0.00867442
0.00868895
0.00870297
0.00871636
0.00872897
0.00874093
0.00875207
0.00876248
0.00877202
0.00878077
0.00878886
0.00879625
0.00880327
0.00880972
0.00881587
0.0088214
0.00882644
0.00883076
0.00883462
0.00883793
0.00884099
0.00884359
0.00884606
0.00884819
0.00885021
0.00885204
0.00885379
0.00885535
0.00885686
0.00885821
0.00885961
0.00886064
0.00886192
0.00886265
0.00886361
0.00886409
0.00886475
0.0088649
0.00886514
0.00886512
0.00886473
0.00886446
0.00886382
0.00886322
0.00886234
0.00886146
0.00886036
0.00861735
0.00863047
0.00864443
0.00865861
0.00867275
0.00868673
0.00870047
0.00871381
0.00872659
0.00873854
0.00874968
0.00875991
0.00876943
0.0087782
0.00878629
0.0087937
0.00880057
0.00880692
0.00881292
0.00881828
0.0088231
0.0088273
0.00883097
0.00883427
0.00883737
0.00884017
0.00884277
0.00884508
0.00884713
0.00884901
0.00885073
0.0088524
0.00885404
0.00885547
0.00885695
0.00885804
0.00885917
0.00885989
0.00886062
0.00886109
0.00886151
0.00886179
0.00886186
0.00886184
0.00886153
0.00886113
0.00886061
0.00886001
0.00885912
0.00885822
0.00885725
0.00861724
0.0086297
0.00864293
0.00865623
0.00866973
0.00868348
0.00869711
0.00871026
0.00872254
0.00873416
0.00874491
0.00875514
0.00876462
0.00877363
0.00878183
0.00878942
0.00879612
0.0088025
0.00880838
0.00881411
0.00881914
0.00882364
0.0088276
0.00883115
0.00883436
0.00883723
0.00883982
0.00884214
0.0088443
0.00884628
0.00884816
0.00884974
0.00885112
0.00885225
0.00885342
0.00885445
0.00885555
0.00885645
0.00885722
0.00885792
0.00885831
0.00885866
0.00885872
0.0088587
0.00885842
0.00885795
0.00885745
0.0088568
0.00885589
0.00885504
0.00885393
0.00861291
0.00862657
0.00863977
0.00865322
0.00866706
0.00868107
0.00869465
0.00870751
0.00871945
0.00873082
0.00874163
0.00875204
0.00876175
0.00877062
0.00877864
0.00878584
0.00879249
0.00879862
0.00880459
0.00881037
0.00881573
0.00882049
0.00882455
0.00882809
0.00883108
0.00883386
0.00883646
0.00883912
0.00884165
0.00884378
0.00884558
0.00884699
0.00884809
0.00884909
0.00885002
0.00885092
0.00885186
0.00885279
0.00885369
0.0088544
0.00885516
0.0088554
0.00885567
0.00885561
0.00885519
0.00885486
0.00885417
0.00885354
0.00885263
0.0088517
0.00885064
0.00861871
0.00861536
0.00863829
0.00865048
0.00866355
0.00867723
0.00869061
0.00870369
0.00871607
0.00872771
0.00873848
0.00874841
0.00875765
0.00876625
0.00877418
0.00878149
0.00878843
0.00879497
0.00880115
0.00880688
0.00881203
0.00881657
0.00882067
0.00882443
0.00882793
0.00883095
0.00883371
0.00883609
0.00883836
0.00884028
0.00884191
0.00884329
0.00884453
0.00884557
0.00884665
0.00884762
0.00884858
0.00884943
0.0088503
0.00885097
0.00885168
0.00885193
0.0088522
0.00885214
0.00885183
0.00885141
0.00885084
0.00885019
0.00884931
0.00884835
0.00884735
0.00860541
0.00861916
0.00861886
0.00864259
0.00865687
0.00867072
0.00868483
0.00869886
0.00871201
0.0087241
0.00873496
0.00874476
0.00875361
0.00876174
0.00876953
0.008777
0.00878426
0.0087911
0.0087974
0.0088029
0.00880796
0.00881262
0.00881699
0.00882099
0.00882444
0.00882748
0.00883004
0.00883241
0.00883437
0.00883626
0.00883782
0.00883947
0.00884092
0.00884246
0.00884373
0.00884493
0.00884599
0.00884689
0.00884765
0.00884821
0.00884872
0.00884886
0.0088489
0.0088488
0.0088484
0.00884792
0.00884743
0.0088467
0.0088459
0.00884489
0.00884393
0.00857142
0.00858565
0.00859924
0.00862015
0.00863401
0.00865611
0.00866969
0.00868747
0.00870148
0.0087151
0.00872724
0.00873808
0.00874788
0.00875658
0.00876436
0.00877177
0.00877918
0.00878641
0.00879315
0.00879903
0.00880422
0.00880901
0.0088134
0.00881735
0.00882065
0.0088235
0.00882592
0.00882822
0.00883029
0.0088324
0.00883428
0.0088361
0.00883764
0.00883907
0.00884035
0.00884148
0.00884241
0.00884339
0.00884409
0.00884469
0.00884514
0.00884536
0.00884549
0.00884548
0.00884514
0.00884477
0.00884415
0.00884337
0.00884258
0.00884147
0.00884049
0.00845645
0.00845328
0.00853284
0.00851344
0.00859857
0.00857755
0.00865007
0.00865265
0.00868593
0.00870288
0.00871757
0.00873043
0.00874153
0.00875114
0.00875949
0.00876691
0.0087739
0.00878066
0.00878726
0.00879358
0.00879938
0.00880468
0.00880924
0.00881333
0.00881675
0.00881978
0.00882229
0.00882467
0.00882668
0.00882879
0.00883063
0.0088325
0.00883404
0.00883558
0.00883677
0.00883795
0.0088389
0.0088398
0.0088406
0.0088413
0.00884174
0.00884205
0.00884205
0.00884204
0.0088417
0.00884132
0.00884075
0.00884008
0.00883913
0.00883822
0.00883702
0.00808008
0.0081673
0.00814232
0.00836461
0.0083467
0.00851179
0.00850544
0.00862103
0.00864161
0.00867692
0.00870219
0.00872092
0.00873532
0.00874666
0.00875596
0.00876375
0.00877051
0.00877677
0.00878297
0.00878906
0.00879496
0.00880025
0.00880502
0.00880918
0.00881289
0.00881607
0.00881873
0.00882111
0.00882321
0.00882526
0.00882703
0.0088288
0.0088303
0.00883177
0.00883311
0.00883441
0.0088356
0.00883657
0.00883734
0.00883814
0.00883854
0.00883886
0.0088388
0.00883875
0.00883852
0.00883796
0.0088374
0.00883648
0.00883559
0.00883453
0.00883344
0.00703615
0.00719912
0.00743161
0.00767283
0.00794654
0.00813568
0.00831055
0.00841836
0.00852597
0.00859892
0.00865241
0.00869046
0.0087166
0.00873473
0.00874764
0.00875751
0.0087654
0.00877241
0.00877857
0.0087848
0.0087905
0.00879623
0.00880097
0.0088054
0.00880887
0.00881206
0.00881458
0.0088169
0.00881897
0.00882091
0.00882293
0.00882482
0.00882668
0.00882827
0.00882983
0.00883105
0.00883228
0.00883333
0.00883416
0.00883479
0.0088351
0.00883552
0.00883541
0.00883543
0.00883509
0.00883455
0.00883377
0.00883297
0.00883207
0.008831
0.00883007
0.00600008
0.00613642
0.00623408
0.00647119
0.0067928
0.0072776
0.007735
0.00808799
0.00831504
0.00846933
0.00857189
0.00864031
0.00868664
0.00871746
0.00873751
0.00875048
0.00875984
0.00876698
0.00877365
0.00877936
0.00878569
0.00879079
0.00879632
0.00880018
0.00880436
0.00880703
0.00881016
0.00881228
0.00881477
0.00881677
0.00881887
0.00882081
0.00882267
0.00882434
0.00882597
0.00882742
0.00882878
0.00882995
0.00883099
0.00883164
0.00883204
0.00883239
0.00883223
0.00883218
0.00883192
0.00883119
0.00883048
0.00882947
0.00882856
0.00882746
0.00882637
0.00563747
0.00564096
0.00572879
0.00567412
0.00598097
0.00626522
0.00677777
0.00733809
0.00783876
0.00819944
0.00842698
0.00856169
0.00864058
0.00868764
0.00871727
0.00873649
0.00874939
0.00875896
0.00876665
0.00877376
0.00877955
0.00878588
0.00879015
0.00879548
0.00879821
0.00880261
0.00880462
0.00880843
0.00881024
0.0088132
0.00881494
0.00881718
0.00881885
0.00882075
0.00882224
0.00882386
0.00882527
0.00882656
0.00882751
0.00882829
0.00882867
0.00882908
0.00882888
0.00882883
0.00882856
0.0088278
0.00882714
0.00882607
0.00882516
0.00882398
0.00882283
0.00562021
0.00557438
0.00555805
0.00559276
0.00557769
0.00571314
0.00601527
0.00657274
0.00717871
0.00771987
0.00812564
0.00839516
0.00855932
0.00864984
0.00869825
0.00872575
0.00874261
0.00875394
0.00876198
0.00876895
0.0087751
0.00878033
0.00878597
0.00878941
0.00879462
0.00879675
0.00880125
0.00880299
0.00880662
0.00880818
0.00881131
0.00881267
0.00881533
0.00881675
0.00881901
0.00882065
0.00882219
0.00882342
0.00882439
0.00882497
0.00882548
0.00882576
0.00882566
0.00882567
0.00882535
0.00882454
0.0088238
0.00882271
0.00882176
0.00882048
0.00881922
0.00606496
0.00579151
0.00564934
0.00557223
0.00556401
0.00555873
0.00566697
0.0059671
0.00654609
0.00718721
0.00775705
0.00816564
0.00841591
0.0085635
0.00864955
0.00869851
0.00872653
0.00874334
0.00875505
0.0087632
0.0087705
0.00877576
0.00878117
0.00878549
0.00878912
0.00879345
0.00879546
0.00879963
0.00880113
0.00880454
0.00880595
0.00880912
0.0088105
0.00881356
0.0088147
0.00881676
0.00881816
0.00881975
0.00882135
0.00882216
0.00882277
0.00882272
0.00882255
0.00882257
0.00882219
0.00882138
0.00882047
0.00881943
0.00881815
0.00881707
0.00881554
0.0067846
0.00636934
0.00596405
0.00568571
0.00559695
0.00553297
0.00559632
0.00560983
0.00612999
0.00670955
0.0073109
0.00784953
0.00824616
0.00848656
0.00861485
0.00867995
0.00871494
0.008735
0.00874783
0.00875764
0.00876446
0.00877166
0.00877537
0.00878159
0.008784
0.00878909
0.00879108
0.00879475
0.00879778
0.00879927
0.00880233
0.00880391
0.00880732
0.00880884
0.00881218
0.0088134
0.00881593
0.00881715
0.0088175
0.00881847
0.00881941
0.00882017
0.00881991
0.00881964
0.00881901
0.00881819
0.0088173
0.00881648
0.00881517
0.00881402
0.00881257
0.00703553
0.00677902
0.00639487
0.00595577
0.00569815
0.00556182
0.00558216
0.00556733
0.00581707
0.00637145
0.00705529
0.00761307
0.00804584
0.00834921
0.0085378
0.0086437
0.00869827
0.00872723
0.00874245
0.00875257
0.00875982
0.00876583
0.00877173
0.00877538
0.00878089
0.00878291
0.00878796
0.00878908
0.00879304
0.00879469
0.00879857
0.00880044
0.00880293
0.00880631
0.00880785
0.00881105
0.00881213
0.0088146
0.00881546
0.00881614
0.00881612
0.00881623
0.00881662
0.00881658
0.00881609
0.00881495
0.00881388
0.0088127
0.00881141
0.00881014
0.00880872
0.00692751
0.00684452
0.00661544
0.00615592
0.00580646
0.00561104
0.00555947
0.00559828
0.00560329
0.00605479
0.00674894
0.00739409
0.00789082
0.00824175
0.00846692
0.00859929
0.0086721
0.0087109
0.00873276
0.00874528
0.0087546
0.00876048
0.00876722
0.00877014
0.00877609
0.00877878
0.0087819
0.00878615
0.00878747
0.0087908
0.00879266
0.00879694
0.00879881
0.00880114
0.00880451
0.00880681
0.0088096
0.00881054
0.00881257
0.00881348
0.0088133
0.00881327
0.00881394
0.00881382
0.0088129
0.00881162
0.00881053
0.00880927
0.00880813
0.00880651
0.00880512
0.00683304
0.00680542
0.00661625
0.0062047
0.00583172
0.00561015
0.00555331
0.00554174
0.00566456
0.00586135
0.0065613
0.00725312
0.00779731
0.00817223
0.00841495
0.00856308
0.00864887
0.00869566
0.00872292
0.00873727
0.00874921
0.0087544
0.00876222
0.00876608
0.00876975
0.00877425
0.00877637
0.00878062
0.0087828
0.00878726
0.00878956
0.00879263
0.00879628
0.00879795
0.00880177
0.00880338
0.00880665
0.00880835
0.0088088
0.00880974
0.00881022
0.00881082
0.008811
0.00881084
0.00881013
0.00880931
0.00880857
0.00880749
0.00880615
0.00880437
0.00880267
0.00674412
0.00674523
0.00651278
0.00613109
0.00578477
0.00558988
0.00551375
0.00551258
0.00557975
0.00585517
0.00644277
0.00712159
0.00771167
0.00812833
0.00838731
0.00854049
0.00863079
0.00868218
0.00871277
0.0087307
0.0087416
0.00875165
0.0087547
0.00876198
0.0087644
0.00876921
0.00877202
0.00877543
0.00877887
0.00878132
0.00878636
0.00878833
0.00879281
0.00879467
0.00879853
0.00880178
0.00880324
0.00880477
0.00880688
0.00880759
0.00880742
0.00880719
0.00880716
0.00880701
0.00880649
0.00880574
0.00880484
0.00880392
0.0088025
0.00880117
0.00879938
0.00653671
0.00647577
0.00631844
0.00595086
0.00567211
0.00551811
0.00548189
0.00546899
0.00559038
0.00587378
0.00648001
0.00712977
0.00769002
0.00810446
0.00837477
0.00853433
0.00862458
0.00867585
0.00870569
0.00872512
0.00873586
0.00874563
0.00875029
0.00875546
0.00875968
0.00876232
0.00876729
0.00876969
0.00877466
0.00877665
0.00878076
0.00878498
0.00878784
0.00879219
0.00879407
0.00879791
0.00880152
0.0088022
0.00880347
0.00880568
0.00880619
0.00880596
0.00880533
0.00880501
0.00880455
0.00880367
0.00880254
0.00880076
0.00879856
0.0087958
0.00879156
0.00576944
0.00582525
0.00573524
0.00557213
0.0054425
0.00539773
0.00539064
0.00546188
0.00556191
0.00602377
0.00658301
0.00718724
0.0077186
0.00811634
0.00837643
0.00853208
0.0086213
0.00867263
0.00870112
0.00872026
0.00873114
0.00874002
0.00874586
0.00874974
0.00875459
0.00875695
0.00876191
0.00876441
0.00876941
0.00877283
0.00877557
0.00878057
0.00878479
0.00878789
0.0087908
0.00879334
0.00879783
0.008801
0.0088017
0.00880251
0.00880372
0.00880408
0.00880373
0.00880274
0.00880198
0.0088009
0.00879919
0.00879583
0.0087886
0.00877738
0.0087639
0.00548492
0.00545091
0.00540353
0.00535554
0.00533626
0.0053376
0.00538461
0.00543563
0.00577026
0.00624538
0.00679601
0.00732706
0.00779379
0.00815079
0.00838949
0.00853516
0.00861851
0.00866774
0.00869604
0.00871433
0.008726
0.00873386
0.00874087
0.00874382
0.0087498
0.00875189
0.00875717
0.00875963
0.00876501
0.00876875
0.00877273
0.00877656
0.00878197
0.00878422
0.00878849
0.00879033
0.00879402
0.00879733
0.00879979
0.00879992
0.00880022
0.00880127
0.00880094
0.00879949
0.00879781
0.00879454
0.00878793
0.00877354
0.00874228
0.00870157
0.00867
0.00563444
0.00548641
0.00540307
0.00535854
0.00534614
0.00536449
0.00538999
0.0056265
0.0060177
0.00653649
0.00704522
0.00751496
0.00791166
0.00821062
0.00841426
0.0085432
0.00861964
0.00866402
0.00869134
0.00870832
0.00872034
0.00872771
0.00873508
0.00873893
0.00874421
0.00874814
0.00875271
0.00875633
0.00876189
0.00876531
0.00877086
0.00877406
0.00878061
0.00878316
0.00878783
0.00878945
0.00879263
0.00879531
0.00879714
0.00879871
0.00879892
0.00879866
0.00879736
0.0087945
0.00878815
0.00877228
0.00873834
0.00866785
0.00855634
0.00843785
0.00843985
0.00633315
0.0059761
0.00570321
0.0055742
0.00552612
0.00554128
0.00568946
0.00595288
0.0064402
0.00691672
0.00735305
0.00773442
0.00804697
0.00828398
0.0084499
0.00855745
0.00862276
0.00866302
0.00868833
0.00870378
0.0087156
0.00872269
0.0087306
0.00873356
0.00874094
0.00874254
0.00875003
0.00875174
0.00875901
0.0087618
0.00876924
0.00877288
0.0087792
0.00878343
0.00878815
0.00879008
0.00879318
0.00879514
0.0087958
0.00879677
0.00879625
0.00879379
0.00878832
0.00877475
0.00873774
0.0086379
0.00848128
0.00824111
0.0079777
0.00804494
0.00827676
0.00660108
0.00659271
0.00648725
0.00633348
0.00623735
0.00624353
0.00641812
0.00674423
0.00708373
0.00743441
0.00775031
0.00801423
0.00822717
0.0083894
0.0085042
0.00857882
0.00862728
0.00865955
0.00868245
0.00869612
0.00870726
0.00871373
0.00872145
0.00872617
0.00873267
0.00873714
0.00874326
0.00874773
0.00875477
0.00875908
0.00876664
0.00877144
0.00877775
0.00878318
0.00878788
0.00878999
0.00879296
0.00879401
0.00879335
0.00879175
0.00878717
0.0087741
0.00873429
0.00861589
0.00837952
0.00804727
0.00758063
0.0072691
0.00748767
0.00800318
0.00830191
0.00652166
0.00669024
0.00681915
0.00691573
0.00699656
0.00708852
0.00724395
0.00744582
0.00766673
0.00789034
0.00808401
0.00823701
0.00835986
0.00845588
0.00852893
0.00858303
0.00862405
0.00864982
0.00866782
0.00867784
0.00868732
0.00869345
0.00870304
0.00870803
0.00871867
0.00872351
0.00873425
0.00873876
0.00874889
0.00875358
0.00876324
0.00876898
0.00877553
0.00878212
0.00878653
0.0087888
0.00879043
0.00878941
0.00878376
0.00876676
0.0087186
0.00858653
0.00828533
0.00773577
0.00718349
0.00661295
0.00646216
0.00687412
0.00777351
0.00811883
0.00776308
0.00637155
0.00657217
0.00680592
0.00700854
0.00720349
0.00738171
0.00755692
0.00774203
0.00790381
0.00806384
0.00818961
0.00829232
0.00837835
0.008453
0.00851476
0.0085589
0.00858827
0.00860247
0.00861069
0.00861203
0.00861278
0.00861298
0.00861762
0.00862942
0.00865046
0.00867112
0.00869243
0.00870927
0.00872668
0.00873679
0.00875247
0.0087636
0.00877252
0.00877927
0.0087825
0.00878271
0.00877801
0.00875985
0.00870383
0.0085502
0.00819486
0.0074751
0.00673468
0.00627553
0.00596065
0.00591963
0.00652977
0.00771714
0.00790078
0.00710241
0.00629172
0.00634791
0.00639114
0.00656905
0.006835
0.00708668
0.00730468
0.0074991
0.00769479
0.00784942
0.00799477
0.00809848
0.00819299
0.00826877
0.0083212
0.00835396
0.00836701
0.0083625
0.00834025
0.00830267
0.00825445
0.00819753
0.00815128
0.0081353
0.00818623
0.00831542
0.00843415
0.00853772
0.00861358
0.00867283
0.00871404
0.00874372
0.00875706
0.0087656
0.00876947
0.00876497
0.0087436
0.00867864
0.00851025
0.00811229
0.00732974
0.00650825
0.00604687
0.00573619
0.00550065
0.00563976
0.00648641
0.00741742
0.00744941
0.00643821
0.00613358
0.00656272
0.00638412
0.00635248
0.00636449
0.00643913
0.00658543
0.0067631
0.00693554
0.00712008
0.00726439
0.0074505
0.00756847
0.00762905
0.00766628
0.00765078
0.00759679
0.00749333
0.00736692
0.00721323
0.00704256
0.00690065
0.00683822
0.00692757
0.00722712
0.00762085
0.00797976
0.00825481
0.00844914
0.00857629
0.00865595
0.00870138
0.00872826
0.00873754
0.00873416
0.00870586
0.00862558
0.00843362
0.00801216
0.007216
0.00646296
0.00606977
0.005661
0.00534387
0.00533516
0.00566238
0.0065996
0.00706996
0.00681686
0.00624313
0.0062648
0.00719328
0.00806669
0.00660317
0.00643662
0.00635745
0.0063361
0.00634446
0.00639332
0.00647594
0.00654526
0.006567
0.0065484
0.00645735
0.00639625
0.00627174
0.00617399
0.00605501
0.0059634
0.00589658
0.00585657
0.00586878
0.00596765
0.00621051
0.00661837
0.007118
0.00759543
0.00797934
0.0082491
0.00843634
0.00855335
0.00862255
0.0086543
0.00864806
0.00859879
0.0084859
0.00825247
0.00777667
0.00707109
0.00645219
0.00611428
0.0057145
0.00536228
0.00526298
0.00534934
0.00576062
0.00646133
0.0066301
0.00637606
0.00625673
0.00660014
0.00762947
0.00802619
0.00806147
0.00662161
0.00642519
0.00630798
0.00622572
0.00615417
0.00605578
0.00595976
0.00586218
0.00574459
0.00564428
0.0055399
0.00548265
0.00542093
0.00539688
0.00538966
0.00542285
0.00548536
0.0055881
0.00574101
0.00597138
0.00631975
0.00680179
0.00727444
0.0076698
0.00798408
0.00821172
0.00834422
0.00839863
0.00839123
0.00830523
0.00811739
0.00779376
0.00735122
0.00684566
0.00640995
0.00614347
0.00583615
0.00544943
0.00527618
0.00523821
0.00538068
0.00591195
0.00628251
0.00637646
0.00636365
0.00644494
0.00702465
0.00765484
0.00779956
0.0077279
0.0070476
0.0061893
0.00612685
0.00600786
0.00591376
0.00579995
0.00569219
0.00558295
0.00548784
0.00541388
0.0053596
0.00533096
0.00532111
0.00532255
0.00535292
0.0054032
0.00549018
0.0056113
0.00578927
0.00602057
0.00630827
0.00664885
0.00694945
0.00726238
0.00754064
0.00772469
0.00778021
0.00770301
0.00757047
0.00738225
0.00713073
0.00684397
0.00658438
0.00634086
0.00613754
0.00597809
0.00563463
0.0053621
0.00527848
0.00527952
0.00543461
0.00591021
0.00616178
0.00627862
0.00638081
0.00667175
0.00729862
0.00749605
0.0075254
0.00716009
0.00601136
0.00526838
0.00605152
0.00597639
0.00597415
0.00583542
0.00580017
0.00568209
0.00562058
0.00554414
0.00550276
0.0054815
0.00547507
0.00549727
0.00554061
0.00560857
0.00570072
0.00581697
0.00594698
0.00608752
0.00626776
0.00646552
0.00663
0.00676783
0.00686315
0.00691836
0.00693065
0.00687922
0.00679147
0.00668355
0.00656379
0.00644666
0.00632977
0.00619314
0.00607826
0.00588241
0.00551852
0.0053709
0.00532116
0.00534418
0.0055843
0.00592453
0.00610103
0.00625345
0.00644362
0.00696174
0.00722982
0.00727656
0.00719097
0.00651716
0.00525815
0.0049259
0.00459649
0.00570056
0.00572739
0.0057273
0.00573665
0.00573288
0.00571063
0.0056976
0.0056818
0.00567856
0.00568481
0.00570534
0.0057472
0.00580558
0.00588045
0.00596671
0.00606633
0.00617218
0.00630178
0.00641647
0.00652542
0.00659118
0.00661357
0.00662913
0.00665094
0.00665673
0.00662818
0.00655986
0.00648261
0.00640812
0.00631803
0.00619311
0.00606521
0.00575214
0.00549848
0.00541258
0.00538132
0.00543316
0.0056917
0.00590647
0.00607602
0.00627376
0.0066208
0.00696824
0.00699395
0.0070315
0.00665083
0.00569862
0.00488896
0.00471795
0.0044944
0.00444944
0.00576522
0.00576308
0.00577254
0.00578841
0.00583169
0.00587603
0.00592021
0.00598044
0.00602899
0.00609399
0.00618295
0.00631655
0.00644244
0.00654238
0.00660175
0.00664639
0.00666352
0.00666866
0.00667501
0.00667487
0.00665651
0.00665613
0.00667299
0.00669217
0.00669413
0.00667269
0.00660454
0.00650017
0.00638824
0.00625707
0.00607373
0.0056792
0.00555179
0.00546618
0.00545182
0.00554121
0.00573963
0.00590284
0.00608255
0.00629739
0.00654385
0.00668948
0.00674482
0.00655262
0.00586895
0.00516246
0.00469818
0.00457091
0.00442933
0.0044204
0.00437008
0.0073039
0.00723078
0.00719122
0.00713513
0.00709991
0.00707889
0.00707664
0.00709838
0.00711655
0.00711841
0.00711359
0.00703372
0.00694902
0.00688902
0.00681188
0.00675022
0.00671924
0.00671279
0.00671386
0.00672796
0.00676253
0.00680415
0.00683045
0.00683444
0.00680929
0.00673153
0.00660208
0.00646117
0.00626849
0.00597768
0.00570237
0.0055658
0.00553796
0.00552011
0.00559493
0.0056948
0.00581727
0.00593349
0.00610582
0.00631517
0.00637096
0.00631418
0.00580492
0.00526144
0.00479344
0.00459354
0.00444342
0.00442442
0.00438034
0.00435179
0.0043515
0.00784446
0.00784888
0.00781833
0.00778635
0.00771105
0.00764114
0.00752878
0.00741164
0.0073011
0.00716243
0.00706092
0.00690446
0.00675284
0.00664076
0.00656695
0.00656785
0.006564
0.00659166
0.00664948
0.00670451
0.00676796
0.00683206
0.00682947
0.00682682
0.00676553
0.00663166
0.00642772
0.00615671
0.00589802
0.00570767
0.00556529
0.00556124
0.00552948
0.00554978
0.00560351
0.00572545
0.0057785
0.00589109
0.00595111
0.00591801
0.00556076
0.00521014
0.00483077
0.00462398
0.00449201
0.00438913
0.00438996
0.00435109
0.00434965
0.00433669
0.00433659
0.00763005
0.00763082
0.00757995
0.00748797
0.00739959
0.00725324
0.0071343
0.00698927
0.00683074
0.00669017
0.0065202
0.00638812
0.00631061
0.00627184
0.0062809
0.00628753
0.00632826
0.00637447
0.00646741
0.00656936
0.00665357
0.00665187
0.00664872
0.00656527
0.0064242
0.00620394
0.00599941
0.0058181
0.00568331
0.00558973
0.00552984
0.00547437
0.00550272
0.00549333
0.00553889
0.00554176
0.00554125
0.0055017
0.00527938
0.0050581
0.00476266
0.00463381
0.004486
0.00441369
0.00437771
0.00434852
0.00434923
0.00433326
0.00433308
0.00432724
0.00432717
0.00716263
0.00716988
0.00711593
0.00705001
0.00691766
0.00681104
0.00668836
0.00656672
0.0064705
0.00635337
0.00628055
0.00620768
0.00618574
0.00616427
0.00617842
0.00618034
0.00621336
0.00623944
0.00628993
0.00632348
0.00634248
0.00634371
0.00630126
0.0061988
0.00604589
0.00589379
0.00573658
0.00561164
0.00550312
0.005406
0.00532674
0.00532047
0.0052271
0.00524102
0.00516865
0.00503444
0.00502683
0.00476514
0.00476933
0.00451007
0.00451653
0.00439194
0.00438814
0.00434447
0.00434235
0.00432933
0.00432919
0.00432281
0.00432272
0.00432077
0.00432047
0.00657055
0.00654706
0.0065879
0.00659665
0.00658406
0.00651334
0.00643607
0.0063621
0.00628749
0.00623444
0.00616201
0.00613642
0.00609207
0.00609613
0.00608364
0.00609311
0.00609867
0.00611229
0.00611776
0.00611098
0.00607623
0.00598938
0.00585988
0.00573542
0.00558272
0.00543513
0.00531696
0.00520324
0.00510624
0.00502333
0.00496135
0.00489047
0.00485871
0.00479543
0.00473534
0.00465319
0.00459871
0.0045043
0.00445978
0.00438413
0.00438658
0.0043429
0.00434248
0.00432486
0.00432476
0.00431803
0.00431807
0.00431529
0.00431502
0.00431459
0.00431544
0.00561307
0.00572
0.00579413
0.00587323
0.00592869
0.00596576
0.00600448
0.00600383
0.00600884
0.00599753
0.00596763
0.0059506
0.00592766
0.00590446
0.00589351
0.00586359
0.00583694
0.0057812
0.00570062
0.00561134
0.00550083
0.00538791
0.00528201
0.00516871
0.00505654
0.00496957
0.00488599
0.00481216
0.00475581
0.00470569
0.00464338
0.00464267
0.00455788
0.00456276
0.00447057
0.00447505
0.00439897
0.00439814
0.00434978
0.00434888
0.00432645
0.00432566
0.00431496
0.00431498
0.00431024
0.00431008
0.00430945
0.00430928
0.00430919
0.00431209
0.00431189
0.00500939
0.00504918
0.00509316
0.0051341
0.00517829
0.00522151
0.00526188
0.00530256
0.00534669
0.00535646
0.00538843
0.00538605
0.00538369
0.00535421
0.00532603
0.00527288
0.00522236
0.00515745
0.00509753
0.00502516
0.00495517
0.00488217
0.00481806
0.00475032
0.00469547
0.00465185
0.00460606
0.004569
0.00454163
0.00449525
0.00449459
0.00444896
0.00443847
0.00440535
0.00438774
0.00436085
0.00435095
0.00432917
0.00432649
0.00431459
0.00431399
0.00430876
0.00430813
0.0043071
0.00430669
0.00430709
0.00430729
0.0043083
0.00430924
0.00431175
0.00431363
0.00466282
0.0046785
0.00469485
0.00471129
0.00472867
0.00474662
0.00476498
0.00478327
0.00479966
0.0048205
0.00482162
0.00482848
0.00482924
0.00481836
0.00480206
0.00477936
0.00475132
0.0047192
0.00468521
0.00465016
0.00461488
0.00458178
0.00455107
0.00452331
0.00449934
0.004484
0.00444802
0.00444591
0.00442252
0.00440065
0.00440102
0.00436877
0.00436991
0.00434146
0.00434195
0.00432315
0.00432322
0.00431284
0.00431305
0.00430919
0.00430919
0.0043079
0.00430769
0.00430738
0.00430731
0.00430768
0.00430741
0.00430956
0.00430884
0.00431551
0.004314
0.00449238
0.00449295
0.0044973
0.00450064
0.00450573
0.00451239
0.00451956
0.00452401
0.00453884
0.00453668
0.00454555
0.00454577
0.00454645
0.00454183
0.0045349
0.00452541
0.00451244
0.00449913
0.0044847
0.00447045
0.00445582
0.00444189
0.00442919
0.0044149
0.00441304
0.00439173
0.00439271
0.00437349
0.00436899
0.00435543
0.00434999
0.0043413
0.004331
0.00432935
0.00432102
0.00432028
0.00431503
0.00431485
0.00431148
0.00431115
0.00430963
0.00430936
0.00430925
0.00430931
0.00431009
0.0043106
0.00431208
0.00431487
0.00431682
0.00432274
0.00432653
0.00441075
0.00441153
0.00440756
0.00440725
0.00440688
0.00440894
0.00441018
0.00441594
0.00441512
0.00442216
0.00442174
0.00442583
0.00442591
0.00442603
0.00442414
0.00442082
0.00441674
0.00441178
0.00440703
0.00440108
0.0043961
0.00439049
0.00438653
0.00438219
0.00437183
0.00437283
0.00436081
0.00436127
0.00435002
0.00434998
0.00433964
0.00433926
0.00433192
0.00432819
0.00432429
0.00431939
0.00431913
0.00431455
0.00431488
0.00431314
0.00431326
0.00431298
0.00431343
0.00431399
0.00431548
0.00431634
0.00431851
0.00432146
0.00432365
0.00432976
0.00433517
0.00438577
0.00437514
0.00437586
0.00437066
0.00437042
0.00437025
0.00437143
0.00437336
0.00437384
0.00437905
0.00437874
0.00438148
0.00438482
0.0043846
0.00438546
0.00438535
0.00438482
0.00438392
0.00438281
0.00438129
0.0043805
0.00437814
0.00437679
0.00437305
0.00436943
0.00436906
0.00436086
0.00436063
0.00435004
0.00435177
0.00434137
0.00434274
0.00433219
0.00433395
0.00432633
0.00432884
0.00432496
0.004327
0.00432676
0.00432938
0.00432976
0.00433132
0.00433197
0.00433278
0.00433344
0.00433431
0.00433583
0.00433835
0.00434156
0.00434972
0.00436367
0.00437583
0.00436859
0.00436703
0.00436064
0.00436086
0.00435994
0.00436038
0.00436303
0.00436224
0.00436741
0.00436686
0.0043727
0.00437192
0.00437732
0.00437684
0.00438019
0.00438059
0.00438135
0.00438139
0.00438146
0.00438034
0.00437921
0.00437766
0.00437466
0.00437343
0.00436934
0.00436288
0.00436264
0.00436056
0.00435383
0.00435411
0.00435102
0.00435275
0.00435189
0.00435646
0.00435434
0.00435843
0.00435721
0.00435772
0.00435778
0.00435793
0.00435893
0.00436031
0.00436236
0.00436538
0.00436724
0.00437197
0.00437744
0.00438565
0.00438861
0.00438863
0.0088711
0.00886984
0.0088685
0.00886702
0.00886558
0.008864
0.00886235
0.00886051
0.00885878
0.00885704
0.00885512
0.00885331
0.00885131
0.00884972
0.00884761
0.00884594
0.008844
0.0088421
0.00884034
0.00883822
0.00883644
0.00883444
0.00883205
0.00883051
0.00882759
0.00882587
0.00886814
0.00886695
0.00886559
0.00886417
0.00886269
0.00886125
0.00885944
0.00885792
0.00885612
0.00885431
0.00885264
0.00885073
0.00884902
0.00884728
0.00884541
0.00884369
0.00884167
0.00884009
0.00883771
0.00883655
0.00883368
0.00883287
0.00882944
0.00882917
0.00882526
0.0088251
0.0088654
0.00886403
0.00886279
0.00886136
0.00885987
0.0088584
0.00885676
0.00885505
0.00885352
0.00885167
0.00884993
0.00884813
0.00884633
0.00884462
0.00884283
0.00884113
0.00883931
0.00883757
0.00883565
0.008834
0.0088321
0.0088301
0.00882875
0.00882574
0.00882516
0.00882132
0.00886236
0.00886112
0.00885975
0.00885849
0.0088569
0.00885541
0.00885377
0.00885217
0.00885055
0.0088489
0.00884715
0.00884535
0.00884354
0.00884188