/*--------------------------------*- C++ -*----------------------------------*\
  =========                 |
  \\      /  F ield         | OpenFOAM: The Open Source CFD Toolbox
   \\    /   O peration     | Website:  https://openfoam.org
    \\  /    A nd           | Version:  10
     \\/     M anipulation  |
\*---------------------------------------------------------------------------*/
FoamFile
{
    format      ascii;
    class       surfaceScalarField;
    location    "0.84941";
    object      phi;
}
// * * * * * * * * * * * * * * * * * * * * * * * * * * * * * * * * * * * * * //

dimensions      [1 0 -1 0 0 0 0];

internalField   nonuniform List<scalar> 
32368
(
0.000273278
-9.22258e-05
0.000282586
-8.55845e-05
0.000290476
-7.86253e-05
0.000296972
-7.15301e-05
0.0003017
-6.4546e-05
0.000304902
-5.78284e-05
0.000306745
-5.15391e-05
0.000307349
-4.57933e-05
0.000306736
-4.07691e-05
0.000304936
-3.64939e-05
0.000302144
-3.3195e-05
0.000297585
-3.09142e-05
0.000290757
-2.95974e-05
0.000282021
-2.93384e-05
0.000272458
-3.01081e-05
0.000263082
-3.20142e-05
0.000254496
-3.49825e-05
0.000247092
-3.87723e-05
0.000240918
-4.29193e-05
0.000235423
-4.665e-05
0.000232868
-4.94772e-05
0.000232696
-5.11463e-05
0.000230809
-5.02135e-05
0.000227004
-4.61658e-05
0.00022245
-3.94408e-05
0.000216401
-3.02856e-05
0.000210117
-1.93591e-05
0.000204632
-7.30564e-06
0.000199781
5.51379e-06
0.000195664
1.8927e-05
0.000191925
3.31035e-05
0.000187352
4.75897e-05
6.24692e-05
0.000181499
0.00027057
-9.20168e-05
0.000279236
-8.44984e-05
0.000286361
-7.66974e-05
0.00029239
-6.88085e-05
0.000297345
-6.10709e-05
0.00030122
-5.35963e-05
0.000303877
-4.65931e-05
0.000305208
-4.01657e-05
0.000305285
-3.44142e-05
0.000303807
-2.95202e-05
0.000300934
-2.55801e-05
0.000296815
-2.25148e-05
0.000290814
-2.07264e-05
0.000282569
-2.01127e-05
0.000272574
-2.0549e-05
0.000261829
-2.21917e-05
0.000251424
-2.50319e-05
0.000242336
-2.89106e-05
0.000234865
-3.33878e-05
0.000228246
-3.77559e-05
0.00022533
-4.11893e-05
0.000225
-4.35438e-05
0.000222134
-4.31415e-05
0.000217134
-3.94636e-05
0.000211225
-3.29907e-05
0.000203171
-2.39904e-05
0.000195291
-1.33069e-05
0.000188667
-1.67125e-06
0.00018308
1.04226e-05
0.000178211
2.30138e-05
0.000173677
3.60038e-05
0.000168851
4.91497e-05
6.24546e-05
0.000163364
0.000266222
-9.1931e-05
0.000274767
-8.35598e-05
0.000282212
-7.49027e-05
0.000288676
-6.61776e-05
0.000293913
-5.76109e-05
0.000297863
-4.93582e-05
0.000300617
-4.15876e-05
0.000302007
-3.4419e-05
0.000301894
-2.7926e-05
0.000300474
-2.23414e-05
0.000297811
-1.76807e-05
0.000293825
-1.40976e-05
0.000288312
-1.15579e-05
0.000280983
-1.02654e-05
0.000271224
-1.03599e-05
0.000259453
-1.15697e-05
0.000247428
-1.43467e-05
0.000236776
-1.8274e-05
0.00022814
-2.3106e-05
0.00022042
-2.80614e-05
0.000217132
-3.21117e-05
0.000216594
-3.49483e-05
0.000212558
-3.49943e-05
0.000206356
-3.17325e-05
0.000198905
-2.56202e-05
0.000188917
-1.70209e-05
0.000180058
-6.78348e-06
0.000172887
4.08829e-06
0.000167019
1.52447e-05
0.000161997
2.68597e-05
0.000157369
3.86975e-05
0.000152724
5.05186e-05
6.21282e-05
0.000147477
0.000259336
-9.06061e-05
0.000267546
-8.13343e-05
0.000274517
-7.18509e-05
0.000280615
-6.23981e-05
0.000285708
-5.33394e-05
0.000289828
-4.44567e-05
0.000292978
-3.60735e-05
0.000294606
-2.82914e-05
0.000295239
-2.11621e-05
0.000294744
-1.49258e-05
0.000292657
-9.59718e-06
0.000289011
-5.27725e-06
0.000283867
-1.96311e-06
0.000277448
2.06116e-07
0.000268614
5.88159e-07
0.000256311
-7.38763e-07
0.000242328
-2.84785e-06
0.000229981
-7.02943e-06
0.000220304
-1.22556e-05
0.000211735
-1.76363e-05
0.000208008
-2.23264e-05
0.000206922
-2.54673e-05
0.000201772
-2.5868e-05
0.000194517
-2.30626e-05
0.000185779
-1.73888e-05
0.000174496
-9.54895e-06
0.000165081
-2.19415e-07
0.000157731
9.62302e-06
0.000151868
1.97547e-05
0.000147075
3.02944e-05
0.000142951
4.09022e-05
0.000138973
5.12506e-05
6.10123e-05
0.000134224
0.000245621
-8.85142e-05
0.000254256
-7.93616e-05
0.00026211
-6.97161e-05
0.00026928
-5.97321e-05
0.000275165
-4.98101e-05
0.000279518
-3.99838e-05
0.000282843
-3.06822e-05
0.000285023
-2.204e-05
0.000285748
-1.42495e-05
0.000285433
-7.24825e-06
0.000284127
-1.11027e-06
0.000280845
4.24313e-06
0.000275535
8.51196e-06
0.00026893
1.12136e-05
0.000260546
1.22059e-05
0.0002491
1.12915e-05
0.000233888
8.67229e-06
0.00022051
4.27718e-06
0.000210172
-1.25776e-06
0.000201156
-6.89023e-06
0.000197347
-1.20018e-05
0.000195194
-1.53161e-05
0.000188788
-1.60475e-05
0.000180712
-1.38051e-05
0.000171223
-8.80464e-06
0.000159749
-2.11357e-06
0.000150572
6.01521e-06
0.000143621
1.468e-05
0.000138213
2.37889e-05
0.000133987
3.31329e-05
0.000130454
4.23086e-05
0.000126797
5.08675e-05
5.83014e-05
0.000121945
0.000236027
-8.99275e-05
0.000246264
-7.9883e-05
0.000254799
-6.90019e-05
0.000261885
-5.76535e-05
0.000267441
-4.64431e-05
0.000271176
-3.55152e-05
0.000273575
-2.51812e-05
0.000275172
-1.56974e-05
0.000275319
-7.08467e-06
0.000273914
8.95911e-07
0.000271854
8.01577e-06
0.00026887
1.43328e-05
0.000263943
1.93124e-05
0.000257061
2.26655e-05
0.000248752
2.42255e-05
0.000238008
2.37862e-05
0.000221951
2.10666e-05
0.000207348
1.62983e-05
0.000196318
1.01964e-05
0.000187033
3.98208e-06
0.000183782
-1.44009e-06
0.000180678
-4.99857e-06
0.000173671
-6.35579e-06
0.000165638
-4.87804e-06
0.000156208
-9.18357e-07
0.000145642
4.66223e-06
0.0001374
1.16327e-05
0.000131064
1.92134e-05
0.000126208
2.7177e-05
0.000122477
3.51032e-05
0.000119176
4.24587e-05
0.000115409
4.87935e-05
5.41109e-05
0.000111121
0.000229141
-9.22241e-05
0.000239348
-8.06648e-05
0.000247556
-6.82444e-05
0.000254019
-5.53406e-05
0.000258863
-4.26839e-05
0.000261698
-3.05831e-05
0.000263147
-1.92561e-05
0.00026382
-8.90963e-06
0.00026302
7.44126e-07
0.000260547
9.57095e-06
0.000257567
1.75567e-05
0.000254466
2.45618e-05
0.000249873
3.02171e-05
0.000243009
3.42818e-05
0.000234703
3.64431e-05
0.000224421
3.63899e-05
0.000208491
3.37006e-05
0.000193469
2.83111e-05
0.000182256
2.17871e-05
0.000172812
1.50501e-05
0.000170543
9.1483e-06
0.000166637
5.14656e-06
0.00015962
2.93368e-06
0.000152072
3.42857e-06
0.000142618
6.33513e-06
0.000133339
1.09991e-05
0.000126088
1.67994e-05
0.000120249
2.32186e-05
0.000115766
2.97731e-05
0.000112107
3.5838e-05
0.000108658
4.10505e-05
0.000105501
4.5445e-05
4.90722e-05
0.000102847
0.000221099
-9.45868e-05
0.000230963
-8.12675e-05
0.000238549
-6.69747e-05
0.000243974
-5.22557e-05
0.000247742
-3.80294e-05
0.000249594
-2.47502e-05
0.000250067
-1.25493e-05
0.000249688
-1.29798e-06
0.000248038
9.26474e-06
0.000244835
1.86831e-05
0.000241272
2.72835e-05
0.000237989
3.47986e-05
0.000233551
4.11549e-05
0.000226866
4.59054e-05
0.000218607
4.85909e-05
0.000208674
4.88521e-05
0.000193043
4.60552e-05
0.000178368
3.99307e-05
0.000167712
3.29107e-05
0.000159292
2.55286e-05
0.000157617
1.92574e-05
0.000153576
1.47971e-05
0.000146666
1.1786e-05
0.000139296
1.13666e-05
0.000130134
1.32329e-05
0.000122193
1.68469e-05
0.0001157
2.1404e-05
0.000110506
2.64445e-05
0.000106238
3.11453e-05
0.0001027
3.52018e-05
0.0001001
3.86272e-05
9.85233e-05
4.14175e-05
4.36686e-05
9.81213e-05
0.000209828
-9.61795e-05
0.000218505
-8.08043e-05
0.000224642
-6.43609e-05
0.000228558
-4.78844e-05
0.000231011
-3.21982e-05
0.000232065
-1.77932e-05
0.000231877
-4.80093e-06
0.000231002
7.38006e-06
0.000229432
1.81598e-05
0.000226271
2.81305e-05
0.00022269
3.70518e-05
0.000219443
4.49861e-05
0.000215274
5.20362e-05
0.000208804
5.74633e-05
0.000200682
6.0544e-05
0.000191098
6.09569e-05
0.000175954
5.7843e-05
0.000162228
5.07812e-05
0.000152546
4.32423e-05
0.00014543
3.52686e-05
0.000144389
2.89057e-05
0.000140229
2.39234e-05
0.000133677
2.0171e-05
0.000126596
1.88307e-05
0.000118325
1.9673e-05
0.000111619
2.19523e-05
0.000106091
2.52264e-05
0.000101491
2.84717e-05
9.79056e-05
3.13348e-05
9.56034e-05
3.37196e-05
9.46437e-05
3.56054e-05
9.50755e-05
3.69924e-05
3.78498e-05
9.67767e-05
0.000191799
-9.60426e-05
0.000198316
-7.88633e-05
0.0002029
-6.10264e-05
0.000205796
-4.32838e-05
0.000207083
-2.61555e-05
0.000207261
-1.06467e-05
0.00020662
3.48516e-06
0.000206729
1.6076e-05
0.000206425
2.69766e-05
0.000204383
3.75267e-05
0.000201598
4.66823e-05
0.00019876
5.5187e-05
0.000194949
6.29413e-05
0.000188762
6.8932e-05
0.000180891
7.21823e-05
0.000171709
7.25459e-05
0.00015717
6.87088e-05
0.0001449
6.06766e-05
0.000136434
5.25817e-05
0.000130963
4.41154e-05
0.000130535
3.79683e-05
0.000126661
3.24816e-05
0.000120862
2.80068e-05
0.00011438
2.58314e-05
0.00010729
2.54343e-05
0.000101714
2.64143e-05
9.72054e-05
2.79957e-05
9.38381e-05
2.95255e-05
9.18459e-05
3.07554e-05
9.13412e-05
3.16066e-05
9.22409e-05
3.20208e-05
9.44745e-05
3.20161e-05
3.17289e-05
9.81735e-05
0.00016967
-9.73896e-05
0.000176576
-7.99816e-05
0.0001816
-6.0973e-05
0.00018416
-4.12104e-05
0.000184465
-2.20224e-05
0.000182764
-4.51219e-06
0.000179585
1.106e-05
0.000176738
2.4446e-05
0.000176935
3.6246e-05
0.000177826
4.62995e-05
0.000177228
5.60808e-05
0.000175734
6.54019e-05
0.000172471
7.39852e-05
0.000166557
8.02413e-05
0.000159048
8.34029e-05
0.000150306
8.33691e-05
0.000136726
7.82375e-05
0.000126365
6.93952e-05
0.000119377
6.08317e-05
0.000115874
5.20529e-05
0.000116107
4.62899e-05
0.000112906
4.03173e-05
0.00010815
3.52958e-05
0.000102898
3.22548e-05
9.697e-05
3.06212e-05
9.26883e-05
2.99988e-05
8.9792e-05
2.9882e-05
8.8273e-05
2.97627e-05
8.81637e-05
2.94571e-05
8.94576e-05
2.88859e-05
9.23788e-05
2.81449e-05
9.7306e-05
2.70516e-05
2.5468e-05
0.000103813
0.000148171
-0.0001014
0.000155673
-8.30886e-05
0.00016088
-6.239e-05
0.000163283
-4.01493e-05
0.000162724
-1.83957e-05
0.000159994
1.41112e-06
0.00015583
1.86016e-05
0.000150851
3.28121e-05
0.000147584
4.47985e-05
0.000148593
5.50342e-05
0.000150081
6.51151e-05
0.000150348
7.57658e-05
0.000147888
8.48343e-05
0.000142436
9.12336e-05
0.000135489
9.40482e-05
0.000127109
9.33306e-05
0.000115015
8.62285e-05
0.000106914
7.67848e-05
0.000101653
6.78809e-05
0.000100476
5.92271e-05
0.000101118
5.37247e-05
9.88846e-05
4.72376e-05
9.56212e-05
4.17194e-05
9.22045e-05
3.80059e-05
8.79155e-05
3.50797e-05
8.52647e-05
3.27913e-05
8.41892e-05
3.09711e-05
8.46196e-05
2.93931e-05
8.6757e-05
2.79412e-05
9.1067e-05
2.6348e-05
9.72028e-05
2.42986e-05
0.000105603
2.17641e-05
1.84682e-05
0.000115793
0.000123977
-0.000106281
0.000132041
-8.83106e-05
0.000137467
-6.59407e-05
0.000139517
-4.05723e-05
0.000137818
-1.53969e-05
0.000133989
7.20215e-06
0.000129345
2.5943e-05
0.000123979
4.11888e-05
0.000119699
5.30278e-05
0.00011983
6.28718e-05
0.00012292
7.46652e-05
0.000123647
8.60432e-05
0.000121524
9.55267e-05
0.000116489
0.000101549
0.000110393
0.000103767
0.000102577
0.00010186
9.27804e-05
9.2424e-05
8.71992e-05
8.28458e-05
8.3867e-05
7.36283e-05
8.49753e-05
6.58482e-05
8.58638e-05
6.00545e-05
8.48023e-05
5.31661e-05
8.32447e-05
4.71503e-05
8.20204e-05
4.2672e-05
8.02466e-05
3.88126e-05
7.94423e-05
3.50497e-05
8.0694e-05
3.19498e-05
8.42373e-05
2.92368e-05
8.98023e-05
2.64228e-05
9.68102e-05
2.31849e-05
0.000105249
1.93465e-05
0.000114935
1.48643e-05
9.56512e-06
0.000125121
9.81429e-05
-0.000113367
0.000107163
-9.68392e-05
0.000112429
-7.19636e-05
0.000113572
-4.27768e-05
0.000109743
-1.32956e-05
0.00010435
1.25106e-05
9.94456e-05
3.2674e-05
9.49359e-05
4.85136e-05
9.15351e-05
6.02715e-05
9.20053e-05
7.09821e-05
9.49318e-05
8.41901e-05
9.57053e-05
9.62897e-05
9.36817e-05
0.000105648
8.92789e-05
0.000110808
8.42913e-05
0.000112092
7.7245e-05
0.000107851
7.06581e-05
9.7017e-05
6.76372e-05
8.75155e-05
6.6594e-05
7.81429e-05
6.92431e-05
7.14244e-05
7.0853e-05
6.53484e-05
7.11728e-05
5.80934e-05
7.14346e-05
5.155e-05
7.23251e-05
4.62003e-05
7.33569e-05
4.1257e-05
7.56704e-05
3.65491e-05
7.98597e-05
3.22385e-05
8.57213e-05
2.79492e-05
9.30557e-05
2.34305e-05
0.000101479
1.84666e-05
0.000110843
1.29669e-05
0.000120625
6.86603e-06
9.52888e-08
0.000130332
6.97752e-05
-0.000122259
7.70181e-05
-0.000104493
8.07822e-05
-7.65898e-05
8.0617e-05
-4.45394e-05
7.56286e-05
-1.13803e-05
7.0317e-05
1.69409e-05
6.63678e-05
3.81154e-05
6.36914e-05
5.39522e-05
6.18321e-05
6.64258e-05
6.38133e-05
7.92789e-05
6.6491e-05
9.3826e-05
6.69959e-05
0.000106146
6.47932e-05
0.000114609
6.13802e-05
0.00011873
5.76968e-05
0.000118547
5.24172e-05
0.00011068
4.93735e-05
0.000100223
4.87442e-05
9.07705e-05
4.98581e-05
8.1453e-05
5.36511e-05
7.56432e-05
5.63562e-05
6.92948e-05
5.8295e-05
6.18685e-05
6.04905e-05
5.48289e-05
6.34313e-05
4.85962e-05
6.68786e-05
4.25439e-05
7.16996e-05
3.67206e-05
7.79886e-05
3.10581e-05
8.55735e-05
2.52855e-05
9.42626e-05
1.92345e-05
0.000103771
1.27889e-05
0.000113668
5.97135e-06
0.000123328
-1.12581e-06
-8.56365e-06
0.000131883
3.55122e-05
-0.0001279
3.90429e-05
-0.000107548
4.09605e-05
-7.77581e-05
4.02047e-05
-4.41368e-05
3.73138e-05
-9.66993e-06
3.51003e-05
1.97838e-05
3.32783e-05
4.20988e-05
3.24967e-05
5.81372e-05
3.28633e-05
7.25382e-05
3.59126e-05
8.87893e-05
3.74595e-05
0.000103208
3.71278e-05
0.000114565
3.5457e-05
0.00012178
3.36132e-05
0.000124495
3.15279e-05
0.000121924
2.93868e-05
0.000111678
2.94061e-05
0.000102186
3.09466e-05
9.27503e-05
3.38618e-05
8.37796e-05
3.84713e-05
7.82101e-05
4.25701e-05
7.17506e-05
4.63002e-05
6.41772e-05
5.04564e-05
5.66318e-05
5.54392e-05
4.96104e-05
6.10512e-05
4.26365e-05
6.78118e-05
3.57021e-05
7.57419e-05
2.8774e-05
8.46788e-05
2.17157e-05
9.4377e-05
1.44193e-05
0.000104403
6.80867e-06
0.000113503
-4.4702e-07
0.000120704
-8.04365e-06
-1.46104e-05
0.000124653
-1.12179e-06
-0.000129149
-3.23158e-07
-0.000107795
-1.43698e-07
-7.69486e-05
-8.07076e-07
-4.22304e-05
-2.07605e-07
-8.33436e-06
1.78173e-06
2.08864e-05
2.64192e-06
4.50154e-05
3.07119e-06
6.38759e-05
5.13457e-06
8.16243e-05
6.73945e-06
9.77275e-05
7.15094e-06
0.000111099
6.94593e-06
0.00012098
6.7366e-06
0.00012637
7.31275e-06
0.00012753
7.4204e-06
0.00012076
8.74753e-06
0.000111576
1.12789e-05
0.000102981
1.46022e-05
9.36448e-05
1.88602e-05
8.5062e-05
2.41676e-05
7.89127e-05
2.94146e-05
7.18475e-05
3.49906e-05
6.42297e-05
4.10491e-05
5.6362e-05
4.78796e-05
4.8717e-05
5.53863e-05
4.1098e-05
6.3765e-05
3.34198e-05
7.29319e-05
2.55626e-05
8.26379e-05
1.75146e-05
9.21528e-05
9.35815e-06
9.98121e-05
1.64234e-06
0.00010534
-5.58006e-06
0.000109966
-1.21262e-05
-1.83654e-05
0.000114758
-3.62395e-05
-0.000126674
-3.80365e-05
-0.000105774
-3.89219e-05
-7.54374e-05
-3.84919e-05
-4.11379e-05
-3.63382e-05
-7.16049e-06
-3.32458e-05
2.34921e-05
-3.0517e-05
4.9391e-05
-2.78757e-05
7.10695e-05
-2.61058e-05
8.86733e-05
-2.48912e-05
0.000103818
-2.37872e-05
0.000115815
-2.23194e-05
0.000123995
-2.00324e-05
0.000128128
-1.67152e-05
0.00012638
-1.32647e-05
0.000118014
-9.46768e-06
0.000110638
-4.9562e-06
0.00010252
-2.04336e-08
9.34336e-05
5.2337e-06
8.54642e-05
1.11673e-05
7.82741e-05
1.75912e-05
7.0405e-05
2.43591e-05
6.22852e-05
3.17455e-05
5.41696e-05
3.99462e-05
4.61371e-05
4.89248e-05
3.79828e-05
5.84339e-05
2.96936e-05
6.79136e-05
2.12624e-05
7.60603e-05
1.29876e-05
8.23059e-05
5.23925e-06
8.80585e-05
-1.86528e-06
9.3907e-05
-8.54064e-06
9.99397e-05
-1.50826e-05
-2.15522e-05
0.000105521
-6.88692e-05
-0.000120444
-7.30712e-05
-0.000102061
-7.50832e-05
-7.3322e-05
-7.52101e-05
-4.04556e-05
-7.29078e-05
-7.06931e-06
-6.91138e-05
2.39907e-05
-6.53187e-05
5.08589e-05
-6.17804e-05
7.34253e-05
-5.88236e-05
9.12172e-05
-5.61114e-05
0.000105711
-5.28101e-05
0.000116777
-4.85893e-05
0.000123892
-4.28906e-05
0.000125792
-3.71824e-05
0.00012029
-3.12814e-05
0.000114672
-2.55543e-05
0.000108693
-1.94977e-05
0.000100918
-1.33989e-05
9.24364e-05
-6.98731e-06
8.45301e-05
-1.18362e-07
7.64823e-05
7.11629e-06
6.82954e-05
1.50021e-05
5.98833e-05
2.3553e-05
5.1435e-05
3.2651e-05
4.28434e-05
4.18164e-05
3.40914e-05
5.00315e-05
2.54391e-05
5.71541e-05
1.73784e-05
6.36236e-05
9.90874e-06
7.01728e-05
2.83982e-06
7.68561e-05
-3.99169e-06
8.3222e-05
-1.07763e-05
9.02326e-05
-1.75476e-05
-2.43728e-05
9.69709e-05
-9.50715e-05
-0.000110002
-0.000102919
-9.56832e-05
-0.000106695
-7.03845e-05
-0.000107674
-3.96311e-05
-0.000106313
-7.71191e-06
-0.000102886
2.24254e-05
-9.84349e-05
4.90401e-05
-9.37771e-05
7.16615e-05
-8.90275e-05
8.98132e-05
-8.40871e-05
0.000104191
-7.80428e-05
0.000114575
-7.06512e-05
0.000119832
-6.19781e-05
0.000118272
-5.39699e-05
0.000114587
-4.69032e-05
0.000111193
-3.97044e-05
0.000105768
-3.24734e-05
9.84952e-05
-2.53383e-05
9.06358e-05
-1.79627e-05
8.2542e-05
-1.02179e-05
7.40199e-05
-1.93114e-06
6.5479e-05
6.71356e-06
5.66971e-05
1.55417e-05
4.78492e-05
2.3806e-05
3.88537e-05
3.12948e-05
3.04533e-05
3.82709e-05
2.26821e-05
4.50782e-05
1.53913e-05
5.19286e-05
8.40499e-06
5.85744e-05
1.50956e-06
6.58503e-05
-5.58342e-06
7.33076e-05
-1.29999e-05
8.05052e-05
-2.04218e-05
-2.76053e-05
8.73158e-05
-0.000112091
-9.89698e-05
-0.000125128
-8.55838e-05
-0.000131781
-6.58237e-05
-0.000134169
-3.85164e-05
-0.000133652
-8.93831e-06
-0.000130776
1.98923e-05
-0.000126216
4.56046e-05
-0.000120652
6.78574e-05
-0.000114354
8.59959e-05
-0.000107108
9.98657e-05
-9.78575e-05
0.00010818
-8.69249e-05
0.00011059
-7.67152e-05
0.000110194
-6.84861e-05
0.00010952
-6.03749e-05
0.000106906
-5.21562e-05
0.000101886
-4.40269e-05
9.53049e-05
-3.60005e-05
8.76795e-05
-2.7817e-05
7.94591e-05
-1.93894e-05
7.08064e-05
-1.07575e-05
6.18391e-05
-2.39083e-06
5.26739e-05
5.34994e-06
4.39328e-05
1.25764e-05
3.60389e-05
1.94712e-05
2.85986e-05
2.63194e-05
2.14608e-05
3.29772e-05
1.45271e-05
4.00329e-05
7.50719e-06
4.73695e-05
7.1762e-08
5.49094e-05
-7.88834e-06
6.26156e-05
-1.61025e-05
6.9457e-05
-2.31978e-05
-2.83087e-05
7.32988e-05
-0.000120858
-9.00534e-05
-0.000135846
-7.4837e-05
-0.000147605
-5.79422e-05
-0.000153079
-3.61828e-05
-0.000154261
-9.98616e-06
-0.000152075
1.68778e-05
-0.00014742
4.12461e-05
-0.000141107
6.24954e-05
-0.000132551
7.89868e-05
-0.000121627
9.0422e-05
-0.000109783
9.69005e-05
-9.87278e-05
0.0001011
-8.96459e-05
0.000103782
-8.09604e-05
0.000104154
-7.20574e-05
0.00010186
-6.32107e-05
9.73421e-05
-5.4403e-05
9.12046e-05
-4.56723e-05
8.37833e-05
-3.69151e-05
7.53411e-05
-2.82056e-05
6.63682e-05
-2.02938e-05
5.75425e-05
-1.28939e-05
4.94629e-05
-6.01724e-06
4.19876e-05
6.24249e-07
3.49395e-05
7.06338e-06
2.80448e-05
1.37072e-05
2.09602e-05
2.08037e-05
1.36821e-05
2.81612e-05
5.9536e-06
3.58755e-05
-2.3722e-06
4.37159e-05
-1.10326e-05
4.93831e-05
-1.79401e-05
5.19805e-05
-2.29563e-05
-2.8256e-05
5.4621e-05
-0.000127471
-8.39393e-05
-0.000137042
-6.73371e-05
-0.000149925
-5.03934e-05
-0.000159261
-3.16984e-05
-0.000163418
-1.00548e-05
-0.000162774
1.30459e-05
-0.000158315
3.4883e-05
-0.000150217
5.37373e-05
-0.000139723
6.83853e-05
-0.000128965
7.9895e-05
-0.000118663
8.83828e-05
-0.000109678
9.42655e-05
-0.000100785
9.76007e-05
-9.16337e-05
9.82029e-05
-8.22894e-05
9.62297e-05
-7.30968e-05
9.22111e-05
-6.37887e-05
8.62025e-05
-5.44967e-05
7.83618e-05
-4.59753e-05
6.99752e-05
-3.82627e-05
6.22511e-05
-3.126e-05
5.5154e-05
-2.47875e-05
4.82346e-05
-1.8608e-05
4.14761e-05
-1.24207e-05
3.46957e-05
-5.85758e-06
2.76718e-05
1.2565e-06
1.99334e-05
9.05055e-06
1.152e-05
1.67312e-05
3.24174e-06
2.35111e-05
-5.02227e-06
2.78107e-05
-1.17408e-05
3.1317e-05
-1.82519e-05
3.51703e-05
-2.43135e-05
-2.96749e-05
3.88689e-05
-0.000134564
-7.86983e-05
-0.000139776
-6.28784e-05
-0.000146328
-4.5917e-05
-0.000153924
-2.82703e-05
-0.000158916
-9.65205e-06
-0.000159943
9.94303e-06
-0.000157211
2.91422e-05
-0.000151551
4.61547e-05
-0.000144099
6.03903e-05
-0.000136191
7.21336e-05
-0.000127613
8.1186e-05
-0.000118884
8.73347e-05
-0.000109874
9.08698e-05
-0.000100574
9.15967e-05
-9.11175e-05
8.97638e-05
-8.15144e-05
8.55654e-05
-7.21959e-05
7.94544e-05
-6.37527e-05
7.29104e-05
-5.62957e-05
6.66545e-05
-4.97557e-05
6.04997e-05
-4.37499e-05
5.43972e-05
-3.79809e-05
4.80449e-05
-3.19981e-05
4.14979e-05
-2.55662e-05
3.43731e-05
-1.85444e-05
2.64513e-05
-1.10068e-05
1.77135e-05
-3.93158e-06
9.058e-06
2.08715e-06
1.20489e-06
6.73077e-06
-5.69821e-06
1.0735e-05
-1.24198e-05
1.40874e-05
-1.88404e-05
1.72239e-05
-2.5422e-05
-3.20291e-05
2.05069e-05
-0.000141135
-7.3768e-05
-0.000144773
-5.89933e-05
-0.000148484
-4.29703e-05
-0.000152229
-2.63466e-05
-0.000155344
-9.26839e-06
-0.000156661
8.05153e-06
-0.000155378
2.5057e-05
-0.000151776
4.06394e-05
-0.000146737
5.40171e-05
-0.000140358
6.51571e-05
-0.000132926
7.38342e-05
-0.000124897
7.98005e-05
-0.000116233
8.31889e-05
-0.00010713
8.38843e-05
-9.8084e-05
8.24504e-05
-8.93982e-05
7.92806e-05
-8.14249e-05
7.50259e-05
-7.4499e-05
7.01924e-05
-6.83186e-05
6.51739e-05
-6.26204e-05
5.98908e-05
-5.68745e-05
5.43144e-05
-5.08147e-05
4.79572e-05
-4.44327e-05
4.08683e-05
-3.72081e-05
3.26821e-05
-2.9823e-05
2.39199e-05
-2.33495e-05
1.5698e-05
-1.78986e-05
8.23215e-06
-1.39055e-05
1.27538e-06
-1.10902e-05
-5.12492e-06
-8.86282e-06
-1.23301e-05
-6.88009e-06
-1.97154e-05
-4.69636e-06
-2.69107e-05
-3.38042e-05
-2.13502e-06
-0.000147392
-6.69648e-05
-0.000150111
-5.44365e-05
-0.00015242
-4.01428e-05
-0.00015439
-2.46218e-05
-0.000156003
-8.81974e-06
-0.000156647
7.00424e-06
-0.000155533
2.24418e-05
-0.000152652
3.67595e-05
-0.000148358
4.9225e-05
-0.000142857
5.95544e-05
-0.000136319
6.77417e-05
-0.000129086
7.35926e-05
-0.000121387
7.71067e-05
-0.000113586
7.83741e-05
-0.000105994
7.77682e-05
-9.88691e-05
7.56787e-05
-9.24024e-05
7.26208e-05
-8.65295e-05
6.88917e-05
-8.08502e-05
6.4647e-05
-7.50418e-05
5.96456e-05
-6.91036e-05
5.38532e-05
-6.24469e-05
4.68059e-05
-5.52894e-05
3.87759e-05
-4.84299e-05
3.0753e-05
-4.28873e-05
2.33206e-05
-3.88819e-05
1.61358e-05
-3.61732e-05
9.4491e-06
-3.48958e-05
3.13162e-06
-3.47699e-05
-3.49327e-06
-3.45781e-05
-1.1056e-05
-3.35928e-05
-1.90289e-05
-3.19017e-05
-2.70872e-05
-3.48533e-05
-2.95581e-05
-0.000149327
-5.77087e-05
-0.000154331
-4.79092e-05
-0.000156814
-3.58735e-05
-0.000158154
-2.24113e-05
-0.000158792
-8.04523e-06
-0.000158645
6.61618e-06
-0.000157566
2.07798e-05
-0.000155032
3.40182e-05
-0.000151231
4.57601e-05
-0.000146447
5.55408e-05
-0.000140819
6.33126e-05
-0.000134607
6.91143e-05
-0.000128075
7.28436e-05
-0.000121519
7.46257e-05
-0.000115229
7.47532e-05
-0.000109209
7.36664e-05
-0.000103503
7.13344e-05
-9.7854e-05
6.81424e-05
-9.22436e-05
6.40357e-05
-8.60939e-05
5.86859e-05
-7.93109e-05
5.20671e-05
-7.26481e-05
4.5065e-05
-6.71302e-05
3.83722e-05
-6.32295e-05
3.18985e-05
-6.0876e-05
2.5509e-05
-6.02299e-05
1.94739e-05
-6.12329e-05
1.3345e-05
-6.2257e-05
6.5788e-06
-6.247e-05
-6.63236e-07
-6.21698e-05
-9.00099e-06
-6.152e-05
-1.79059e-05
-6.10178e-05
-2.7405e-05
-3.73048e-05
-6.17067e-05
-0.000145563
-4.70058e-05
-0.000152625
-3.91112e-05
-0.000157535
-2.95678e-05
-0.000160479
-1.83787e-05
-0.000161467
-5.87127e-06
-0.000161203
7.13193e-06
-0.000159856
2.01262e-05
-0.00015755
3.24613e-05
-0.000154265
4.35666e-05
-0.000150179
5.29574e-05
-0.000145541
6.04899e-05
-0.000140392
6.62543e-05
-0.000134953
7.01876e-05
-0.000129419
7.23591e-05
-0.000123823
7.29514e-05
-0.00011839
7.2224e-05
-0.000113037
7.02797e-05
-0.000107443
6.70282e-05
-0.000101357
6.24849e-05
-9.50943e-05
5.72324e-05
-8.97946e-05
5.18411e-05
-8.60209e-05
4.65901e-05
-8.36332e-05
4.10689e-05
-8.29088e-05
3.60035e-05
-8.39151e-05
3.07902e-05
-8.5858e-05
2.49204e-05
-8.73086e-05
1.80952e-05
-8.81543e-05
1.05603e-05
-8.86433e-05
2.34925e-06
-9.00073e-05
-6.77165e-06
-9.41059e-05
-1.68971e-05
-0.000100828
-2.98228e-05
-4.06414e-05
-0.000106666
-0.00013605
-3.57313e-05
-0.000144245
-2.95293e-05
-0.000151361
-2.19647e-05
-0.000156201
-1.2926e-05
-0.000159052
-2.61514e-06
-0.000160228
8.63656e-06
-0.000160065
2.02708e-05
-0.000158762
3.16008e-05
-0.000156386
4.20248e-05
-0.00015309
5.10579e-05
-0.000149197
5.83769e-05
-0.000144825
6.40516e-05
-0.00014019
6.81483e-05
-0.000135464
7.0639e-05
-0.000130555
7.14739e-05
-0.000125455
7.07461e-05
-0.000120225
6.87798e-05
-0.000115058
6.60244e-05
-0.000110357
6.26404e-05
-0.000106792
5.89248e-05
-0.000104468
5.47847e-05
-0.000103636
5.10224e-05
-0.000104362
4.70096e-05
-0.000106397
4.25111e-05
-0.000108372
3.69026e-05
-0.000110037
3.04281e-05
-0.00011147
2.30413e-05
-0.000113702
1.49298e-05
-0.000118718
6.21595e-06
-0.000128245
-4.89098e-06
-0.000140797
-1.72621e-05
-0.000144392
-2.75515e-05
-3.74908e-05
-0.000143783
-0.000125058
-2.42068e-05
-0.000133186
-1.94135e-05
-0.000140214
-1.3692e-05
-0.000146222
-6.59355e-06
-0.000151065
1.75208e-06
-0.000154112
1.12221e-05
-0.000155504
2.13463e-05
-0.000155651
3.15352e-05
-0.000154672
4.11708e-05
-0.000152667
4.97261e-05
-0.000149874
5.68716e-05
-0.000146703
6.24388e-05
-0.000143048
6.64559e-05
-0.000139088
6.89848e-05
-0.000134957
7.01792e-05
-0.00013109
7.02821e-05
-0.000127689
6.95254e-05
-0.000124972
6.79483e-05
-0.000122889
6.56988e-05
-0.000122079
6.34652e-05
-0.000122742
6.09073e-05
-0.000124683
5.7995e-05
-0.000126654
5.39363e-05
-0.000128517
4.89884e-05
-0.000130374
4.29981e-05
-0.000132616
3.6076e-05
-0.000136681
2.84187e-05
-0.000145479
2.03817e-05
-0.00016121
9.73294e-06
-0.000172329
-1.04154e-06
-0.000175615
-1.27947e-05
-0.000175169
-2.39242e-05
-3.46264e-05
-0.000171579
-0.000112373
-1.30797e-05
-0.000120587
-8.62892e-06
-0.00012789
-4.48742e-06
-0.000134038
6.75578e-07
-0.000139099
7.23272e-06
-0.000143356
1.50166e-05
-0.00014655
2.35318e-05
-0.00014849
3.23804e-05
-0.000149263
4.10451e-05
-0.000148935
4.9065e-05
-0.000147711
5.60222e-05
-0.000145989
6.16748e-05
-0.000144086
6.60658e-05
-0.000142092
6.93614e-05
-0.000140344
7.14668e-05
-0.000138951
7.25047e-05
-0.00013798
7.27724e-05
-0.000137817
7.25733e-05
-0.000138638
7.18126e-05
-0.000140392
7.05e-05
-0.000142227
6.80781e-05
-0.000144055
6.48687e-05
-0.000145867
6.05375e-05
-0.00014783
5.52236e-05
-0.000150505
4.89288e-05
-0.000155445
4.18697e-05
-0.00016514
3.42193e-05
-0.000181617
2.54267e-05
-0.000194845
1.4839e-05
-0.000198877
3.32503e-06
-0.000199142
-8.76085e-06
-0.000196883
-2.07147e-05
-3.16234e-05
-0.000190313
-9.81197e-05
-2.36834e-06
-0.000105786
2.09984e-06
-0.00011392
5.77858e-06
-0.000121363
9.72743e-06
-0.000127682
1.44549e-05
-0.000132977
2.04086e-05
-0.000137263
2.74015e-05
-0.000140685
3.50226e-05
-0.000143223
4.2889e-05
-0.000144945
5.04724e-05
-0.000145871
5.73837e-05
-0.000146349
6.33328e-05
-0.000146923
6.821e-05
-0.000147394
7.21213e-05
-0.000148073
7.51234e-05
-0.000149321
7.74409e-05
-0.000151085
7.90034e-05
-0.000153208
7.9625e-05
-0.000155135
7.90794e-05
-0.000156996
7.75572e-05
-0.000158666
7.50205e-05
-0.000160504
7.14403e-05
-0.000162285
6.66988e-05
-0.000164709
6.08616e-05
-0.000169006
5.42134e-05
-0.000177105
4.70983e-05
-0.000189471
3.90062e-05
-0.000203438
2.94272e-05
-0.000210707
1.87281e-05
-0.000212408
7.02866e-06
-0.000212054
-5.26771e-06
-0.000209772
-1.73574e-05
-2.8387e-05
-0.000204436
-8.88255e-05
7.35184e-06
-9.41169e-05
1.27383e-05
-0.000101903
1.62475e-05
-0.000110056
1.9523e-05
-0.000117302
2.29462e-05
-0.00012375
2.71386e-05
-0.000129484
3.2754e-05
-0.000134512
3.9334e-05
-0.000138967
4.6563e-05
-0.000142823
5.38751e-05
-0.000146071
6.08091e-05
-0.000148943
6.70671e-05
-0.000151908
7.26935e-05
-0.000155179
7.76144e-05
-0.000158538
8.16771e-05
-0.000161909
8.46201e-05
-0.000164763
8.63535e-05
-0.000167215
8.69543e-05
-0.000169418
8.63307e-05
-0.000171276
8.46933e-05
-0.000172692
8.17047e-05
-0.000174405
7.75253e-05
-0.000175874
7.20812e-05
-0.000178437
6.57088e-05
-0.000183775
5.87005e-05
-0.000192158
5.11623e-05
-0.000201281
4.21598e-05
-0.000208803
3.14227e-05
-0.000211786
2.01962e-05
-0.000213207
8.49875e-06
-0.000214638
-3.15094e-06
-0.000214564
-1.41255e-05
-2.51178e-05
-0.000213394
-8.43008e-05
1.54326e-05
-8.87893e-05
2.2484e-05
-9.40179e-05
2.6424e-05
-0.000101311
2.89382e-05
-0.000109123
3.17318e-05
-0.000116415
3.50376e-05
-0.000123568
3.93821e-05
-0.00013027
4.51077e-05
-0.000136697
5.18719e-05
-0.000142802
5.9152e-05
-0.000148665
6.64877e-05
-0.000154354
7.35022e-05
-0.000159809
7.99043e-05
-0.000165126
8.51477e-05
-0.000169725
8.93886e-05
-0.000173515
9.23754e-05
-0.000176701
9.40151e-05
-0.0001795
9.45255e-05
-0.000181787
9.36261e-05
-0.000182908
9.11492e-05
-0.000183881
8.71834e-05
-0.000185093
8.21503e-05
-0.000186665
7.63942e-05
-0.000190303
6.96952e-05
-0.000195724
6.24925e-05
-0.000201959
5.40203e-05
-0.000205855
4.42846e-05
-0.000207045
3.29724e-05
-0.000207159
2.12295e-05
-0.000208053
9.47646e-06
-0.000210598
-1.99339e-06
-0.000213739
-1.28666e-05
-2.25691e-05
-0.00021461
-8.18967e-05
2.19036e-05
-8.64542e-05
3.02932e-05
-9.08036e-05
3.59517e-05
-9.60662e-05
3.82923e-05
-0.000103527
4.03972e-05
-0.000111786
4.32778e-05
-0.000120261
4.71174e-05
-0.000128633
5.23788e-05
-0.000137182
5.90496e-05
-0.000145896
6.66502e-05
-0.000154297
7.43689e-05
-0.000161919
8.17001e-05
-0.000168522
8.80306e-05
-0.000174533
9.34572e-05
-0.000179645
9.76868e-05
-0.00018384
0.000100385
-0.000187321
0.000101856
-0.00018969
0.000101588
-0.000190663
9.97404e-05
-0.000191208
9.6296e-05
-0.000192537
9.19685e-05
-0.000194361
8.68811e-05
-0.000197554
8.07979e-05
-0.000202052
7.415e-05
-0.000207952
6.65112e-05
-0.000213385
5.73133e-05
-0.000216725
4.66264e-05
-0.00021784
3.48838e-05
-0.000217991
2.24538e-05
-0.000217715
9.96451e-06
-0.000216974
-2.20348e-06
-0.000216568
-1.3437e-05
-2.31337e-05
-0.000216381
-8.27091e-05
2.64525e-05
-8.66742e-05
3.65422e-05
-9.09903e-05
4.39349e-05
-9.48252e-05
4.77316e-05
-0.000101022
4.87136e-05
-0.000109636
5.15768e-05
-0.000119168
5.53682e-05
-0.000129171
6.0519e-05
-0.000139845
6.73316e-05
-0.000150788
7.52172e-05
-0.000160669
8.31663e-05
-0.000169162
9.03712e-05
-0.000176622
9.68721e-05
-0.000182965
0.000102272
-0.000188363
0.000106048
-0.000192526
0.000108345
-0.000194889
0.000108631
-0.000195535
0.000107599
-0.000196956
0.000104867
-0.0001989
0.00010165
-0.000201114
9.71582e-05
-0.00020429
9.19218e-05
-0.000209211
8.62251e-05
-0.000216695
8.0414e-05
-0.000226593
7.39689e-05
-0.000236376
6.53797e-05
-0.000243626
5.40414e-05
-0.000249019
4.02429e-05
-0.000250779
2.56225e-05
-0.000249576
1.07212e-05
-0.000246151
-3.75679e-06
-0.000239437
-1.64591e-05
-2.6405e-05
-0.000229655
-8.64908e-05
2.91627e-05
-8.98396e-05
4.1493e-05
-9.39348e-05
5.04159e-05
-9.76374e-05
5.59187e-05
-0.000101807
5.76265e-05
-0.000110236
5.97842e-05
-0.000120411