/*--------------------------------*- C++ -*----------------------------------*\
  =========                 |
  \\      /  F ield         | OpenFOAM: The Open Source CFD Toolbox
   \\    /   O peration     | Website:  https://openfoam.org
    \\  /    A nd           | Version:  10
     \\/     M anipulation  |
\*---------------------------------------------------------------------------*/
FoamFile
{
    format      ascii;
    class       volScalarField;
    location    "0.900622";
    object      p;
}
// * * * * * * * * * * * * * * * * * * * * * * * * * * * * * * * * * * * * * //

dimensions      [1 -1 -2 0 0 0 0];

internalField   nonuniform List<scalar> 
16320
(
0.691141
0.68888
0.686411
0.684026
0.681674
0.679856
0.677959
0.675526
0.676683
0.674721
0.67275
0.670784
0.669303
0.666361
0.665006
0.663353
0.661586
0.659756
0.657708
0.656053
0.654378
0.652233
0.649781
0.646794
0.643604
0.640189
0.636464
0.632656
0.628606
0.623837
0.618403
0.612645
0.606808
0.601337
0.594439
0.588141
0.58031
0.572751
0.565218
0.558074
0.551046
0.544875
0.54257
0.537572
0.535806
0.534867
0.537474
0.542851
0.554938
0.575125
0.602227
0.627828
0.641401
0.639983
0.633754
0.617478
0.589282
0.580383
0.572882
0.566378
0.561532
0.55989
0.557923
0.558898
0.561136
0.564048
0.567625
0.571302
0.57552
0.579746
0.584644
0.589837
0.59571
0.602757
0.610352
0.619107
0.63037
0.644364
0.66075
0.679411
0.697859
0.712162
0.725379
0.736537
0.746775
0.756419
0.76521
0.773655
0.784951
0.795542
0.806594
0.814405
0.817794
0.816545
0.810963
0.80042
0.786722
0.772671
0.758934
0.743101
0.732164
0.719858
0.704623
0.693017
0.687964
0.687643
0.68314
0.678093
0.671181
0.666882
0.664141
0.662083
0.660917
0.691299
0.688461
0.685381
0.682509
0.679581
0.677459
0.675761
0.673775
0.671299
0.672692
0.669729
0.667835
0.665883
0.664116
0.66195
0.660326
0.658642
0.656929
0.655117
0.6531
0.650805
0.648742
0.646958
0.644395
0.641365
0.638139
0.634643
0.630424
0.626126
0.62155
0.616657
0.611503
0.605971
0.600312
0.594296
0.58808
0.581297
0.574329
0.567287
0.560391
0.553737
0.548031
0.543302
0.539114
0.538539
0.540075
0.543458
0.549299
0.559269
0.581347
0.610933
0.640578
0.657517
0.656397
0.649226
0.632345
0.602931
0.579703
0.573614
0.566253
0.560011
0.55864
0.554906
0.556255
0.558668
0.561629
0.565251
0.568961
0.573175
0.577472
0.582547
0.587948
0.593557
0.599573
0.606408
0.616287
0.62587
0.638214
0.653316
0.670717
0.689151
0.706987
0.720835
0.733561
0.745645
0.756006
0.765348
0.773446
0.781262
0.791522
0.801706
0.808646
0.812397
0.811993
0.808351
0.800449
0.789897
0.778618
0.767176
0.755074
0.743066
0.732162
0.716036
0.700634
0.694496
0.691432
0.688114
0.682347
0.674584
0.66945
0.666252
0.663772
0.66212
0.691733
0.688404
0.684743
0.681192
0.678095
0.675272
0.673306
0.671392
0.668727
0.669706
0.667674
0.664704
0.662687
0.661008
0.658707
0.65726
0.655598
0.65398
0.652293
0.650469
0.6484
0.646018
0.643101
0.640423
0.637789
0.635393
0.632317
0.628711
0.624702
0.620606
0.616261
0.610984
0.605618
0.600313
0.594882
0.589295
0.583255
0.577032
0.570661
0.564354
0.558218
0.552023
0.547669
0.54429
0.544012
0.544718
0.548363
0.555607
0.570232
0.590272
0.622618
0.655404
0.675353
0.674308
0.665854
0.646828
0.616417
0.582695
0.575381
0.566731
0.558845
0.557294
0.552479
0.554272
0.556831
0.559766
0.563255
0.566958
0.571166
0.5755
0.580572
0.586031
0.591951
0.598353
0.60534
0.613092
0.622762
0.633889
0.646855
0.662869
0.68077
0.698986
0.715779
0.730645
0.742492
0.753917
0.763665
0.772063
0.779052
0.786703
0.794523
0.801247
0.804575
0.804533
0.801713
0.795844
0.788257
0.780116
0.7718
0.76297
0.75179
0.740605
0.727075
0.708396
0.701328
0.696575
0.692986
0.686615
0.677783
0.672189
0.668299
0.665386
0.663316
0.692581
0.688834
0.684687
0.680604
0.677002
0.673603
0.671427
0.66924
0.666592
0.667627
0.66532
0.661978
0.659512
0.657485
0.655873
0.654232
0.652605
0.650978
0.649375
0.647634
0.645694
0.643454
0.640899
0.638281
0.635482
0.631973
0.62848
0.625087
0.621649
0.618644
0.61492
0.610619
0.60596
0.601504
0.596949
0.591677
0.586051
0.580375
0.574834
0.569362
0.564046
0.558879
0.554575
0.551513
0.550226
0.55219
0.555906
0.564517
0.580592
0.605201
0.637471
0.671335
0.692216
0.690829
0.680911
0.658929
0.626624
0.591795
0.575544
0.567556
0.558396
0.556109
0.550984
0.553335
0.555912
0.558758
0.562144
0.565635
0.56966
0.573938
0.578813
0.584302
0.590202
0.596662
0.603659
0.611115
0.619831
0.62951
0.642169
0.655947
0.672535
0.690347
0.708466
0.724814
0.738907
0.75
0.760042
0.768627
0.775508
0.782205
0.788082
0.793105
0.795537
0.795024
0.792641
0.787982
0.782831
0.777781
0.772721
0.766851
0.758521
0.748603
0.735744
0.715722
0.706421
0.701802
0.697612
0.690809
0.681111
0.674577
0.670247
0.666956
0.664642
0.694017
0.689905
0.685317
0.680768
0.676738
0.672848
0.670198
0.667822
0.664868
0.665368
0.662478
0.658674
0.656468
0.654265
0.652803
0.651107
0.649591
0.648029
0.646426
0.644725
0.642824
0.640686
0.638291
0.635735
0.633002
0.62999
0.626811
0.623553
0.620066
0.615824
0.611764
0.607999
0.604369
0.601471
0.597796
0.593753
0.589405
0.585208
0.580869
0.576216
0.571004
0.566268
0.562459
0.560016
0.559928
0.561682
0.566224
0.575085
0.591771
0.616671
0.650138
0.685117
0.704064
0.70214
0.691242
0.666211
0.63362
0.600825
0.577407
0.568704
0.558839
0.555668
0.550906
0.553738
0.555975
0.558517
0.561682
0.565131
0.568874
0.572977
0.577586
0.582828
0.588644
0.594991
0.601902
0.609368
0.61753
0.626908
0.637246
0.650511
0.665359
0.682123
0.699351
0.716793
0.732138
0.74395
0.754246
0.762973
0.770033
0.776187
0.780716
0.784019
0.784875
0.783923
0.781807
0.778217
0.774977
0.77256
0.770434
0.767569
0.762124
0.754055
0.741998
0.72459
0.710405
0.706854
0.701452
0.69458
0.68443
0.676579
0.672053
0.668483
0.665983
0.695585
0.691294
0.686539
0.681685
0.677337
0.672758
0.669811
0.667167
0.66401
0.662921
0.659533
0.655915
0.653337
0.651113
0.649692
0.648106
0.646648
0.645107
0.643496
0.641771
0.639882
0.637774
0.635442
0.632902
0.630229
0.627423
0.624458
0.62135
0.618062
0.614531
0.611013
0.607626
0.604121
0.599878
0.596076
0.592609
0.589673
0.588043
0.585115
0.581592
0.578454
0.575522
0.572768
0.570671
0.570299
0.571939
0.576649
0.585744
0.602693
0.627749
0.660261
0.692573
0.709016
0.706675
0.695079
0.669103
0.637116
0.606886
0.580841
0.570308
0.560744
0.55644
0.552516
0.555799
0.557425
0.559338
0.562186
0.565345
0.568754
0.57254
0.576853
0.581837
0.587433
0.593526
0.600286
0.607655
0.615686
0.624591
0.634405
0.645965
0.659575
0.67496
0.691206
0.707709
0.72307
0.735291
0.745943
0.754889
0.762332
0.767768
0.771367
0.772961
0.772639
0.771306
0.769424
0.767072
0.765835
0.765504
0.766015
0.765786
0.762957
0.756651
0.746094
0.730591
0.714759
0.711454
0.70494
0.697559
0.687088
0.67866
0.673747
0.669927
0.667295
0.697048
0.692703
0.688276
0.683045
0.678173
0.673341
0.669893
0.666461
0.662872
0.660263
0.656659
0.653298
0.650376
0.648173
0.646677
0.645287
0.643808
0.642223
0.640561
0.638796
0.636874
0.634769
0.632465
0.629962
0.627332
0.624591
0.621745
0.618762
0.615666
0.612483
0.60933
0.606251
0.603149
0.599971
0.597013
0.59437
0.59177
0.588286
0.585592
0.583441
0.583445
0.58267
0.581364
0.58093
0.581787
0.58396
0.588137
0.596712
0.612652
0.636723
0.666736
0.694476
0.708241
0.705708
0.694257
0.668765
0.63856
0.610113
0.585229
0.572811
0.564102
0.558715
0.556215
0.559577
0.560307
0.561513
0.563819
0.566486
0.569408
0.572775
0.576677
0.581363
0.586574
0.592422
0.598924
0.606075
0.613818
0.622231
0.631547
0.641668
0.654312
0.668205
0.68329
0.698418
0.712682
0.725004
0.735603
0.744382
0.751541
0.756385
0.759045
0.759604
0.758749
0.757391
0.756113
0.755148
0.755228
0.757017
0.760037
0.762202
0.761596
0.757053
0.747626
0.734029
0.720774
0.714002
0.707798
0.699709
0.689098
0.680537
0.67533
0.671288
0.668598
0.69829
0.694208
0.689346
0.684277
0.678966
0.673884
0.669247
0.665359
0.661827
0.658039
0.654383
0.650968
0.647985
0.645567
0.643932
0.642637
0.641057
0.639389
0.637655
0.63581
0.633842
0.631719
0.629426
0.626966
0.624354
0.621663
0.618913
0.616051
0.613127
0.610164
0.607246
0.604418
0.601666
0.599092
0.59675
0.594672
0.592777
0.590888
0.589413
0.588258
0.586189
0.584955
0.585154
0.5876
0.590512
0.593633
0.599265
0.608218
0.622199
0.642654
0.668205
0.692471
0.704037
0.701586
0.69077
0.666729
0.637941
0.611877
0.590822
0.576766
0.568484
0.562578
0.561473
0.564723
0.564513
0.565024
0.566591
0.568585
0.570881
0.573718
0.577098
0.581281
0.586166
0.591621
0.597821
0.604664
0.612039
0.620036
0.628603
0.638186
0.649781
0.662319
0.675974
0.689631
0.702366
0.713714
0.723536
0.731664
0.73817
0.741921
0.743746
0.743929
0.743235
0.742466
0.74222
0.742814
0.74463
0.748199
0.753236
0.757439
0.758485
0.755509
0.747269
0.735119
0.723278
0.716128
0.709814
0.700732
0.690388
0.681896
0.676594
0.672507
0.66984
0.699012
0.69508
0.690159
0.685234
0.679562
0.674266
0.669262
0.664795
0.660716
0.656588
0.6526
0.649049
0.646006
0.643741
0.641289
0.640003
0.63834
0.636593
0.634743
0.632831
0.630794
0.628634
0.626332
0.623889
0.6213
0.618645
0.615924
0.613166
0.610418
0.607647
0.605011
0.602493
0.600073
0.597866
0.595976
0.594343
0.592965
0.591914
0.591217
0.590821
0.590599
0.590946
0.591688
0.591544
0.59317
0.598121
0.60582
0.615426
0.629227
0.646795
0.666641
0.686234
0.694584
0.692439
0.682925
0.661533
0.636516
0.613709
0.596122
0.582574
0.574177
0.566642
0.569181
0.571191
0.569935
0.569697
0.570431
0.571638
0.573167
0.575295
0.578062
0.58172
0.58612
0.591166
0.597013
0.603503
0.610566
0.618042
0.62591
0.63465
0.645085
0.656387
0.668525
0.680461
0.691723
0.701496
0.709731
0.717413
0.722085
0.725011
0.726447
0.726867
0.726916
0.727163
0.728251
0.730478
0.733998
0.73934
0.74617
0.751952
0.754329
0.752357
0.745157
0.734825
0.724008
0.717705
0.710495
0.700861
0.690889
0.682623
0.677449
0.673497
0.671079
0.699166
0.695297
0.69056
0.685269
0.679704
0.674273
0.669213
0.6645
0.65981
0.655391
0.651289
0.647523
0.644232
0.641529
0.639392
0.637474
0.6356
0.633774
0.631879
0.629834
0.627679
0.625444
0.623034
0.620535
0.617998
0.615357
0.612475
0.609632
0.606941
0.604176
0.601913
0.599862
0.597818
0.596195
0.594914
0.593776
0.592887
0.592346
0.592107
0.592178
0.592592
0.593555
0.595004
0.596786
0.599508
0.602373
0.606855
0.615569
0.629408
0.644926
0.66285
0.678034
0.683333
0.681194
0.673014
0.655087
0.634662
0.616378
0.601353
0.586495
0.583829
0.574455
0.578872
0.578313
0.57606
0.575194
0.575149
0.575478
0.576201
0.577499
0.579617
0.582744
0.586401
0.591036
0.596539
0.602626
0.609098
0.615976
0.623194
0.63132
0.640504
0.650634
0.661125
0.671219
0.680254
0.688061
0.695819
0.700571
0.704069
0.706577
0.70817
0.70921
0.710337
0.712061
0.714849
0.718509
0.723783
0.731033
0.739277
0.746035
0.749189
0.747888
0.741694
0.73306
0.723633
0.717882
0.710424
0.700008
0.69076
0.682795
0.677825
0.674137
0.672031
0.699044
0.694736
0.68988
0.684674
0.678978
0.67365
0.668668
0.663802
0.659078
0.65447
0.650135
0.646138
0.642593
0.639719
0.637208
0.634802
0.632889
0.631048
0.629058
0.62676
0.624518
0.622735
0.621053
0.618971
0.616664
0.614273
0.611611
0.609035
0.606357
0.602763
0.600338
0.59772
0.594918
0.593681
0.593144
0.592573
0.592421
0.59241
0.592583
0.59301
0.593819
0.595001
0.596644
0.598854
0.601832
0.605543
0.610619
0.617312
0.625804
0.638359
0.654283
0.665616
0.670428
0.668943
0.662581
0.648217
0.632399
0.617084
0.602772
0.598866
0.592603
0.581667
0.586887
0.584769
0.582459
0.581263
0.580519
0.580035
0.579931
0.580348
0.581711
0.584159
0.587128
0.59125
0.596316
0.601792
0.607746
0.613853
0.620404
0.627814
0.635955
0.644772
0.653471
0.661283
0.668068
0.674816
0.679032
0.68254
0.685191
0.687634
0.689681
0.691576
0.694175
0.697578
0.702294
0.707666
0.714472
0.723541
0.732835
0.739824
0.743201
0.742297
0.737181
0.729902
0.722258
0.71665
0.709098
0.698458
0.689781
0.682435
0.677694
0.674375
0.672664
0.697906
0.693855
0.688786
0.68329
0.677663
0.672254
0.66754
0.662602
0.657903
0.653336
0.648817
0.644621
0.64086
0.637684
0.634452
0.632165
0.630172
0.628126
0.626282
0.624231
0.621551
0.61736
0.613275
0.609833
0.606741
0.604037
0.601629
0.599552
0.597706
0.596001
0.595025
0.59451
0.594697
0.593426
0.592151
0.591043
0.591365
0.591823
0.592527
0.593379
0.594494
0.595858
0.597612
0.599803
0.602599
0.606096
0.610622
0.616518
0.624017
0.633056
0.641156
0.649556
0.655918
0.65551
0.650842
0.641381
0.629073
0.616838
0.613584
0.602438
0.59092
0.596892
0.5952
0.591653
0.588948
0.587539
0.58611
0.584923
0.583931
0.583741
0.584542
0.585839
0.588258
0.591921
0.596279
0.6011
0.606328
0.611705
0.617274
0.623935
0.631191
0.638509
0.645006
0.650469
0.655709
0.659402
0.662148
0.664477
0.66598
0.668717
0.671746
0.675243
0.679361
0.684524
0.690799
0.698358
0.706898
0.717077
0.726627
0.73351
0.736465
0.735821
0.731646
0.725736
0.719818
0.714102
0.706866
0.696429
0.688201
0.681489
0.677149
0.674186
0.672687
0.696315
0.691995
0.686979
0.681476
0.675919
0.670236
0.664959
0.660333
0.656134
0.651579
0.646892
0.642699
0.638653
0.635083
0.631839
0.629402
0.626862
0.623818
0.620888
0.615532
0.610402
0.60571
0.601755
0.598885
0.59681
0.594705
0.592767
0.591414
0.590468
0.590138
0.589461
0.589022
0.589346
0.589478
0.589827
0.590829
0.590919
0.590941
0.591919
0.593157
0.594564
0.59618
0.598015
0.600169
0.602752
0.605884
0.60976
0.61448
0.620169
0.626567
0.632982
0.638994
0.641506
0.642486
0.640618
0.634005
0.626
0.623782
0.613142
0.600494
0.60634
0.606206
0.601941
0.598368
0.596161
0.593375
0.591655
0.589862
0.588245
0.587522
0.58754
0.588026
0.589861
0.592769
0.596304
0.600441
0.604871
0.609449
0.61475
0.619976
0.625831
0.631238
0.635561
0.63939
0.642579
0.644282
0.64482
0.646907
0.649644
0.652166
0.655694
0.660457
0.666497
0.673549
0.681593
0.690476
0.700461
0.711257
0.72074
0.727201
0.729715
0.728384
0.725225
0.720612
0.716057
0.710503
0.703437
0.693494
0.686066
0.680032
0.676204
0.673744
0.672643
0.694621
0.689828
0.684561
0.678804
0.673113
0.667626
0.662444
0.657659
0.65299
0.648976
0.644627
0.639958
0.636281
0.63231
0.62909
0.625878
0.621888
0.617845
0.611085
0.604668
0.598992
0.594172
0.590023
0.587339
0.586338
0.585999
0.585759
0.585171
0.584504
0.583674
0.583443
0.583872
0.584597
0.585209
0.586432
0.587914
0.589261
0.590729
0.591005
0.592687
0.59425
0.595994
0.597927
0.600091
0.602544
0.60533
0.608488
0.612137
0.616294
0.62075
0.625317
0.629662
0.63289
0.633224
0.631388
0.627171
0.629364
0.62051
0.609583
0.614969
0.615869
0.612179
0.60773
0.604852
0.602592
0.599143
0.597207
0.594688
0.592826
0.5917
0.590412
0.590515
0.591698
0.59366
0.596438
0.599633
0.603303
0.607321
0.611137
0.615385
0.619542
0.622444
0.625538
0.628237
0.629436
0.629314
0.631116
0.631521
0.633617
0.637208
0.642244
0.648767
0.656261
0.664769
0.67383
0.684192
0.69489
0.705598
0.714591
0.720396
0.722996
0.72116
0.718843
0.715596
0.711306
0.705838
0.699054
0.690118
0.683462
0.678142
0.674901
0.673019
0.672313
0.692558
0.687865
0.681759
0.675563
0.669646
0.663933
0.658871
0.654384
0.649993
0.645878
0.641678
0.637766
0.633467
0.629603
0.625959
0.62118
0.617137
0.609454
0.601244
0.594028
0.588011
0.583517
0.580823
0.580665
0.580402
0.580161
0.580309
0.580158
0.579636
0.579067
0.578643
0.579222
0.580316
0.581677
0.583365
0.585232
0.587054
0.589089
0.591316
0.59229
0.593729
0.595564
0.597572
0.5997
0.602079
0.604629
0.607314
0.610268
0.613459
0.616739
0.619956
0.622825
0.624583
0.624227
0.624641
0.624748
0.623507
0.616148
0.621428
0.622562
0.620012
0.615793
0.613534
0.610866
0.60767
0.605238
0.60262
0.599782
0.59781
0.595163
0.593496
0.593077
0.593469
0.594511
0.596441
0.598641
0.601235
0.604543
0.607829
0.610142
0.611896
0.615133
0.616782
0.617175
0.61666
0.618162
0.617598
0.618395
0.621184
0.626245
0.632368
0.63992
0.648624
0.658201
0.66795
0.678845
0.689784
0.699858
0.707859
0.712671
0.714871
0.714223
0.711711
0.709511
0.705608
0.700467
0.693837
0.686323
0.680368
0.675976
0.673385
0.672114
0.671706
0.690334
0.685414
0.679443
0.672588
0.665584
0.659455
0.654344
0.650081
0.646432
0.642625
0.638903
0.634919
0.631117
0.62705
0.622641
0.61681
0.610582
0.600846
0.591664
0.584332
0.579642
0.575487
0.574513
0.574252
0.574417
0.574636
0.574463
0.573937
0.573716
0.573827
0.574548
0.57531
0.575973
0.577955
0.580335
0.582765
0.584837
0.587025
0.58936
0.591287
0.592682
0.59486
0.596954
0.599116
0.601422
0.603904
0.606325
0.6089
0.611614
0.614361
0.617063
0.619659
0.622002
0.623588
0.624586
0.626076
0.624918
0.626624
0.626628
0.625128
0.621744
0.620827
0.618159
0.616153
0.612779
0.610628
0.607701
0.60525
0.601751
0.598799
0.596649
0.59547
0.594945
0.595425
0.596406
0.597562
0.600009
0.602253
0.604657
0.604216
0.608219
0.608516
0.608398
0.607651
0.608462
0.607576
0.607615
0.609728
0.612893
0.618088
0.625348
0.633912
0.642858
0.652653
0.663436
0.674276
0.684767
0.693866
0.700828
0.705379
0.706917
0.706117
0.704919
0.702595
0.698963
0.694786
0.68815
0.682186
0.677109
0.673593
0.671657
0.670815
0.670768
0.687576
0.683351
0.67678
0.669643
0.662241
0.655088
0.649484
0.645171
0.642042
0.638845
0.635379
0.632058
0.628374
0.62431
0.618644
0.613417
0.604062
0.592747
0.583213
0.576183
0.571815
0.568661
0.567866
0.567447
0.567101
0.567798
0.567498
0.567422
0.567779
0.568416
0.569162
0.570687
0.572957
0.57504
0.577313
0.579851
0.582574
0.585208
0.587748
0.590283
0.592767
0.593978
0.596187
0.598421
0.600769
0.603129
0.605469
0.607794
0.610252
0.612792
0.615399
0.61812
0.620919
0.623474
0.625528
0.627102
0.627278
0.627894
0.62722
0.625376
0.625542
0.62383
0.622208
0.6198
0.617964
0.615356
0.613098
0.609414
0.605711
0.602291
0.599502
0.597456
0.596098
0.595835
0.596228
0.59729
0.598379
0.59971
0.599766
0.603118
0.602773
0.602776
0.601587
0.602596
0.601697
0.601258
0.601982
0.603817
0.608413
0.613616
0.621207
0.629668
0.638738
0.648715
0.659335
0.669805
0.67931
0.68734
0.693279
0.696942
0.698136
0.698576
0.697368
0.695195
0.69183
0.688329
0.682488
0.677738
0.673637
0.670925
0.669612
0.669129
0.669295
0.684718
0.679664
0.674827
0.66677
0.658598
0.650972
0.64464
0.640752
0.63748
0.635123
0.632125
0.629325
0.625102
0.621411
0.614943
0.609046
0.597742
0.58558
0.575971
0.568973
0.564103
0.561858
0.561035
0.560239
0.559849
0.56041
0.560584
0.561053
0.561937
0.562876
0.564063
0.566287
0.569053
0.571283
0.574266
0.577446
0.580301
0.583013
0.585802
0.588706
0.5916
0.593867
0.595458
0.597648
0.600061
0.60234
0.604579
0.606823
0.60915
0.611575
0.614067
0.616638
0.619236
0.621636
0.623718
0.625488
0.626401
0.626977
0.626787
0.627838
0.62714
0.62634
0.625959
0.623394
0.621908
0.620021
0.616766
0.613005
0.609193
0.605359
0.601712
0.598649
0.59657
0.595629
0.595479
0.595827
0.596577
0.596975
0.597821
0.598166
0.598337
0.597935
0.599294
0.598621
0.598495
0.598499
0.599403
0.601297
0.605402
0.61077
0.617914
0.62684
0.635779
0.64537
0.65531
0.66465
0.673057
0.679978
0.68545
0.688319
0.690147
0.69041
0.689463
0.687469
0.684438
0.681423
0.676766
0.673088
0.66995
0.668018
0.667196
0.667055
0.667507
0.681811
0.677051
0.671084
0.664937
0.65511
0.64714
0.639999
0.635917
0.633163
0.631628
0.629435
0.626759
0.622384
0.618543
0.611639
0.604803
0.592231
0.57945
0.569783
0.563186
0.556574
0.555155
0.554151
0.551408
0.552592
0.552135
0.55212
0.552927
0.55481
0.557229
0.560289
0.562471
0.565073
0.567584
0.57153
0.574782
0.57754
0.580535
0.583451
0.586672
0.590149
0.592475
0.595134
0.596886
0.599452
0.601504
0.603562
0.60586
0.608338
0.610734
0.613056
0.615394
0.617739
0.620053
0.622143
0.62394
0.624979
0.625783
0.628237
0.62811
0.628063
0.628458
0.627212
0.626563
0.624993
0.623145
0.619839
0.616037
0.611706
0.607134
0.602722
0.598979
0.596132
0.594612
0.594021
0.594041
0.594292
0.593551
0.594863
0.595347
0.596066
0.595529
0.597425
0.5974
0.597793
0.597787
0.59786
0.600369
0.603903
0.609203
0.61632
0.624036
0.632755
0.641776
0.650686
0.658919
0.666451
0.673089
0.677313
0.680414
0.681876
0.682132
0.681426
0.679698
0.677059
0.67448
0.671004
0.668314
0.666227
0.665152
0.664752
0.664635
0.665372
0.678239
0.674126
0.668304
0.66116
0.652961
0.643972
0.636023
0.630954
0.629676
0.628457
0.627041
0.624275
0.620446
0.616116
0.609108
0.601523
0.587827
0.574199
0.563737
0.556377
0.549812
0.548124
0.545325
0.540566
0.541296
0.540708
0.540737
0.542108
0.543617
0.546709
0.550947
0.555353
0.560515
0.565754
0.569042
0.570226
0.574885
0.578794
0.581921
0.58485
0.588046
0.591351
0.594369
0.59724
0.598813
0.600043
0.602701
0.605326
0.607575
0.609661
0.61161
0.613751
0.615994
0.617953
0.61997
0.62192
0.624574
0.62658
0.627269
0.627896
0.628861
0.628875
0.629245
0.628372
0.628088
0.625324
0.621953
0.617761
0.61286
0.607635
0.602616
0.598359
0.595038
0.592884
0.592073
0.591549
0.592045
0.592195
0.593422
0.593991
0.595166
0.59501
0.597073
0.597538
0.598048
0.597767
0.598483
0.600239
0.603411
0.608342
0.614575
0.621859
0.629819
0.63792
0.645779
0.653551
0.660488
0.665691
0.669689
0.672255
0.673581
0.673982
0.673428
0.671976
0.669714
0.667747
0.665267
0.663434
0.662167
0.66168
0.661837
0.661859
0.662985
0.674854
0.671147
0.665535
0.658423
0.650113
0.641059
0.632735
0.627274
0.626095
0.625989
0.625252
0.622718
0.619177
0.614399
0.607435
0.599407
0.584643
0.57019
0.559433
0.549924
0.544662
0.541056
0.536394
0.533125
0.532545
0.532368
0.53316
0.534492
0.536165
0.538412
0.54195
0.546617
0.552177
0.558829
0.564272
0.570095
0.573298
0.575339
0.579366
0.583327
0.586486
0.589772
0.593201
0.59605
0.598205
0.601493
0.603481
0.605353
0.606998
0.608374
0.610287
0.612555
0.614904
0.61753
0.62026
0.622339
0.623703
0.625074
0.626275
0.627708
0.628986
0.629692
0.629906
0.630445
0.628859
0.626289
0.622674
0.61811
0.61244
0.60657
0.601006
0.596235
0.592571
0.590266
0.589294
0.588929
0.589416
0.589993
0.591798
0.593144
0.595067
0.595946
0.598724
0.599735
0.600255
0.600015
0.600111
0.601211
0.603786
0.608019
0.61352
0.620005
0.627039
0.63421
0.64142
0.648248
0.654058
0.658618
0.66191
0.66425
0.665446
0.665985
0.665623
0.664443
0.662562
0.661232
0.659588
0.658522
0.657897
0.657857
0.658387
0.659273
0.660472
0.671834
0.668453
0.663011
0.655924
0.647571
0.638578
0.630464
0.624878
0.623596
0.623859
0.624044
0.621623
0.618092
0.61324
0.606328
0.598319
0.582767
0.567346
0.555386
0.545085
0.539286
0.534658
0.529515
0.528022
0.527203
0.527561
0.529233
0.530061
0.532097
0.534274
0.537685
0.543205
0.545981
0.551403
0.557158
0.563821
0.568752
0.574852
0.578436
0.581549
0.583834
0.588296
0.591738
0.594382
0.597122
0.600029
0.602315
0.604274
0.606188
0.609022
0.611237
0.613419
0.615449
0.617272
0.618793
0.620558
0.622009
0.623587
0.625462
0.62753
0.627912
0.629369
0.630388
0.630066
0.628783
0.626221
0.621649
0.61644
0.61036
0.604069
0.598116
0.592992
0.58912
0.586943
0.586181
0.585854
0.586945
0.58861
0.590806
0.593593
0.596586
0.598576
0.602194
0.603522
0.604049
0.603526
0.603072
0.603394
0.60513
0.608411
0.612967
0.618431
0.624443
0.630704
0.637061
0.642932
0.647778
0.651537
0.654418
0.656375
0.657722
0.658272
0.658086
0.657114
0.655613
0.654947
0.654031
0.653539
0.653475
0.653885
0.654765
0.656088
0.657776
0.668931
0.665892
0.660615
0.653597
0.645245
0.636417
0.628639
0.623729
0.622931
0.622596
0.622495
0.620832
0.617541
0.612707
0.60612
0.598265
0.582198
0.566197
0.552533
0.541867
0.534987
0.529638
0.525165
0.524067
0.523758
0.525018
0.526786
0.526669
0.528039
0.530263
0.533234
0.537345
0.542649
0.548251
0.553277
0.559444
0.563332
0.569143
0.574382
0.579098
0.583964
0.586744
0.588463
0.592569
0.595442
0.598638
0.60107
0.603165
0.605226
0.607505
0.60972
0.611766
0.613648
0.615325
0.616922
0.618622
0.620303
0.62226
0.624379
0.625106
0.627039
0.627824
0.629486
0.628951
0.627564
0.624034
0.61912
0.613346
0.606892
0.600302
0.594071
0.588739
0.584875
0.582962
0.582592
0.582957
0.584638
0.587324
0.591303
0.595158
0.599263
0.602363
0.606921
0.608543
0.609114
0.608212
0.607119
0.606638
0.607317
0.609463
0.612852
0.61718
0.622182
0.627592
0.633088
0.637758
0.641764
0.645021
0.647219
0.649205
0.650433
0.650976
0.650901
0.650175
0.649036
0.648945
0.648711
0.648617
0.649055
0.649893
0.651028
0.652738
0.654867
0.667359
0.663713
0.658462
0.651594
0.643513
0.63518
0.628228
0.62428
0.622491
0.621614
0.620835
0.619684
0.617139
0.612446
0.60622
0.598164
0.582662
0.565878
0.551483
0.540175
0.532093
0.526207
0.522662
0.522087
0.522726
0.523927
0.524438
0.524859
0.526607
0.528794
0.530938
0.533103
0.536149
0.542555
0.548799
0.554744
0.560281
0.565853
0.56984
0.57518
0.579676
0.584088
0.589054
0.591919
0.593478
0.598182
0.600204
0.60221
0.604159
0.606243
0.60828
0.610181
0.611944
0.613675
0.615303
0.616951
0.618827
0.620859
0.621705
0.623711
0.625007
0.627062
0.627102
0.626715
0.624209
0.620384
0.615141
0.608927
0.602184
0.595385
0.589066
0.583745
0.580141
0.57854
0.578599
0.580375
0.582846
0.586828
0.591805
0.597688
0.602664
0.606789
0.612532
0.614566
0.615035
0.613884
0.612016
0.610661
0.610219
0.611033
0.613101
0.616268
0.620302
0.624861
0.629152
0.633054
0.636534
0.638933
0.641041
0.642699
0.64378
0.64428
0.644305
0.643957
0.64346
0.642929
0.643426
0.643918
0.644786
0.645932
0.64725
0.649139
0.651612
0.665606
0.662222
0.6571
0.650222
0.643308
0.63603
0.629501
0.624974
0.622303
0.620666
0.619691
0.618296
0.616193
0.611957
0.606428
0.597656
0.583875
0.566761
0.551817
0.539938
0.531087
0.524992
0.522671
0.522275
0.523492
0.524143
0.52502
0.526033
0.527797
0.529596
0.532098
0.534863
0.537732
0.539085
0.541594
0.549529
0.553992
0.558697
0.565716
0.571046
0.577307
0.580209
0.584803
0.589375
0.593942
0.595427
0.599805
0.601546
0.603218
0.605177
0.606967
0.608659
0.610304
0.611937
0.613635
0.615644
0.61744
0.618078
0.619949
0.621518
0.623022
0.624226
0.623862
0.622857
0.619887
0.61558
0.609989
0.603426
0.596337
0.589339
0.583215
0.578134
0.575036
0.573955
0.574683
0.577439
0.581618
0.586729
0.592641
0.599249
0.606557
0.611887
0.618152
0.620989
0.621537
0.620216
0.617682
0.615084
0.613456
0.612942
0.613698
0.615815
0.618673
0.622216
0.625637
0.628966
0.632012
0.63381
0.635614
0.637025
0.637942
0.638377
0.638473
0.638376
0.638217
0.637784
0.638515
0.639457
0.640557
0.641998
0.643462
0.645521
0.64819
0.665415
0.661476
0.656535
0.649369
0.643785
0.636254
0.63059
0.625627
0.62185
0.619243
0.618065
0.616639
0.614686
0.611064
0.606464
0.59892
0.586631
0.568956
0.553429
0.540725
0.531454
0.525573
0.523208
0.522833
0.523644
0.524137
0.524444
0.525422
0.52687
0.528725
0.530818
0.533425
0.536298
0.539024
0.54172
0.543024
0.549175
0.553461
0.560148
0.568283
0.571229
0.575622
0.582584
0.584649
0.590248
0.594922
0.59803
0.599852
0.602218
0.604529
0.606435
0.608071
0.609774
0.61131
0.612595
0.613338
0.614578
0.616452
0.618041
0.61876
0.620416
0.62064
0.620029
0.61827
0.614764
0.61001
0.604012
0.597269
0.590171
0.583266
0.576651
0.571621
0.569009
0.56901
0.570692
0.574558
0.580311
0.587163
0.594455
0.601924
0.60978
0.617784
0.623002
0.627135
0.628035
0.626646
0.623576
0.619936
0.616745
0.614957
0.614634
0.615107
0.617243
0.619755
0.622649
0.625566
0.62813
0.629627
0.63108
0.632293
0.633101
0.633525
0.633634
0.63359
0.633634
0.63364
0.633854
0.635241
0.636536
0.637918
0.639896
0.641964
0.644726
0.665216
0.661633
0.656642
0.64925
0.643467
0.637484
0.631544
0.626019
0.621705
0.618943
0.616951
0.615442
0.61356
0.610428
0.605882
0.600048
0.588939
0.57271
0.55655
0.543028
0.533159
0.52699
0.524089
0.523587
0.523783
0.523261
0.523353
0.523867
0.525018
0.526532
0.528396
0.530801
0.533137
0.535873
0.538708
0.541274
0.543126
0.545945
0.553443
0.561102
0.569688
0.571562
0.575129
0.58334
0.586923
0.590805
0.59554
0.599397
0.599194
0.602979
0.605268
0.606907
0.60824
0.609494
0.610756
0.612255
0.613523
0.614792
0.615598
0.617134
0.617531
0.617244
0.616078
0.613615
0.60958
0.604134
0.597451
0.590414
0.583185
0.576427
0.570333
0.566183
0.564132
0.563388
0.565649
0.570911
0.578392
0.58702
0.59623
0.605364
0.613725
0.621686
0.628688
0.633064
0.634326
0.632843
0.629177
0.624464
0.619978
0.616881
0.614687
0.614913
0.615951
0.617697
0.620131
0.62266
0.62457
0.626061
0.627268
0.628276
0.628983
0.629408
0.629606
0.629764
0.629837
0.629947
0.630463
0.631276
0.632426
0.63415
0.636042
0.638554
0.64133
0.665396
0.661273
0.656462
0.650324
0.644485
0.638509
0.632663
0.627247
0.622622
0.619266
0.617025
0.615346
0.613296
0.610209
0.605773
0.600664
0.591341
0.576299
0.560538
0.546555
0.536059
0.529161
0.525448
0.524104
0.523733
0.522751
0.522191
0.522134
0.523311
0.524745
0.525832
0.527196
0.529013
0.531354
0.533847
0.536606
0.539379
0.541491
0.542895
0.553791
0.561041
0.569617
0.572693
0.57669
0.581454
0.588808
0.591842
0.596754
0.601064
0.602324
0.602726
0.605007
0.607073
0.608769
0.61013
0.611292
0.612124
0.612906
0.614162
0.615095
0.614969
0.614271
0.612521
0.609504
0.604888
0.598494
0.591522
0.58417
0.576783
0.56998
0.563947
0.559874
0.558165
0.558634
0.561979
0.567307
0.57495
0.585364
0.596121
0.607862
0.617811
0.626141
0.63303
0.638154
0.639786
0.638398
0.634181
0.628444
0.622753
0.618351
0.61521
0.614556
0.614755
0.61592
0.617843
0.620247
0.62118
0.622607
0.623639
0.624465
0.625127
0.625674
0.62604
0.626313
0.626552
0.626958
0.62746
0.628169
0.629319
0.630369
0.632628
0.634838
0.637876
0.665705
0.66166
0.656878
0.651268
0.645636
0.640021
0.63459
0.629538
0.624771
0.620983
0.618262
0.616262
0.61391
0.610479
0.6056
0.599838
0.593563
0.58004
0.564115
0.550264
0.539053
0.531449
0.527104
0.525198
0.524097
0.522679
0.521211
0.520406
0.520197
0.520881
0.521917
0.522883
0.524004
0.525643
0.527672
0.530218
0.533204
0.536263
0.53875
0.540229
0.553105
0.560961
0.569191
0.571465
0.57934
0.583375
0.591624
0.594238
0.597776
0.600825
0.604167
0.605741
0.607032
0.607541
0.6085
0.609663
0.61094
0.612376
0.613123
0.613403
0.613185
0.612115
0.609812
0.60639
0.600624
0.593873
0.586509
0.578501
0.571046
0.56426
0.558688
0.55459
0.55243
0.552842
0.55611
0.562635
0.571877
0.582528
0.595592
0.607816
0.619855
0.630282
0.637251
0.641805
0.644131
0.642853
0.63837
0.631859
0.625098
0.619442
0.615493
0.614027
0.613573
0.614229
0.615365
0.617095
0.618442
0.619293
0.620116
0.620753
0.621334
0.622004
0.622545
0.623067
0.623569
0.624106
0.624733
0.625633
0.62661
0.627865
0.629362
0.631752
0.634432
0.666521
0.662527
0.657871
0.652743
0.647533
0.642397
0.637503
0.63287
0.628195
0.624171
0.620894
0.618364
0.615513
0.611516
0.60618
0.599759
0.593037
0.583271
0.568733
0.55368