/*--------------------------------*- C++ -*----------------------------------*\
  =========                 |
  \\      /  F ield         | OpenFOAM: The Open Source CFD Toolbox
   \\    /   O peration     | Website:  https://openfoam.org
    \\  /    A nd           | Version:  10
     \\/     M anipulation  |
\*---------------------------------------------------------------------------*/
FoamFile
{
    format      ascii;
    class       surfaceScalarField;
    location    "0.900622";
    object      phi;
}
// * * * * * * * * * * * * * * * * * * * * * * * * * * * * * * * * * * * * * //

dimensions      [1 0 -1 0 0 0 0];

internalField   nonuniform List<scalar> 
32368
(
-3.88357e-05
-5.58444e-05
-3.32839e-05
-4.36955e-05
-2.7769e-05
-3.00712e-05
-2.31424e-05
-1.61213e-05
-2.15533e-05
-3.75949e-06
-2.19679e-05
7.57779e-06
-2.68404e-05
1.84374e-05
-4.377e-05
3.31872e-05
-5.99064e-05
6.21413e-05
-6.40568e-05
7.89565e-05
-6.21649e-05
7.99089e-05
-5.20826e-05
6.90651e-05
-3.92256e-05
4.89942e-05
-3.137e-05
3.21427e-05
-2.88117e-05
2.67597e-05
-2.57255e-05
2.73783e-05
-2.17513e-05
2.98208e-05
-1.73844e-05
3.34482e-05
-1.28829e-05
3.81195e-05
-7.3694e-06
4.40262e-05
1.17545e-07
5.08086e-05
7.95774e-06
5.71263e-05
1.55225e-05
6.19248e-05
2.28102e-05
6.5433e-05
2.97684e-05
6.78454e-05
3.67033e-05
7.01446e-05
4.35108e-05
7.21227e-05
5.02053e-05
7.41169e-05
5.70795e-05
7.63037e-05
6.39756e-05
7.84732e-05
7.06562e-05
8.01587e-05
7.71605e-05
8.16276e-05
8.33747e-05
8.29926e-05
9.00652e-05
8.43346e-05
9.57067e-05
8.53524e-05
0.000103873
8.65366e-05
0.000112325
8.94414e-05
0.000120064
9.13746e-05
0.000128184
9.3479e-05
0.000134668
9.65967e-05
0.000143561
9.83333e-05
0.000147763
0.000101749
0.000156166
0.000106211
0.000158443
0.00011347
0.000169143
0.000114029
0.000187557
0.000119513
0.000210486
0.000135396
0.000248132
0.000155741
0.000295154
0.000193248
0.000354432
0.000246029
0.000416061
0.000318307
0.00046064
0.000388687
0.000479549
0.000436204
0.000474523
0.000445515
0.00045137
0.000426587
0.000376637
0.000374843
0.000271465
0.000282835
0.000203198
0.000195648
0.00016629
0.000132244
0.000144481
9.2467e-05
0.000123567
5.93814e-05
9.7748e-05
2.59418e-05
7.50819e-05
-3.36866e-06
6.22964e-05
-2.6133e-05
5.50956e-05
-4.27741e-05
4.99562e-05
-5.35167e-05
4.50503e-05
-6.00014e-05
3.92086e-05
-6.27031e-05
3.53958e-05
-6.55751e-05
3.29468e-05
-7.00821e-05
3.25056e-05
-7.61425e-05
3.19282e-05
-8.052e-05
3.20588e-05
-8.13387e-05
3.47971e-05
-8.17884e-05
4.05071e-05
-8.4473e-05
4.82755e-05
-9.15135e-05
5.48648e-05
-9.84835e-05
5.8239e-05
-0.000101911
5.86019e-05
-0.000101042
5.39616e-05
-9.82809e-05
4.28209e-05
-9.21705e-05
2.72132e-05
-8.24955e-05
1.6925e-05
-7.16678e-05
1.00709e-05
-6.71897e-05
5.51246e-06
-6.61637e-05
2.52896e-06
-6.78775e-05
1.37128e-06
-7.11483e-05
6.72331e-06
-7.70802e-05
2.06659e-05
-0.000100186
4.06409e-05
-0.000127685
6.57537e-05
-0.000146217
9.31567e-05
-0.000145152
0.000125943
-0.000127096
0.000158899
-0.000100015
0.000178256
-6.90949e-05
0.000185265
-4.69514e-05
0.000180553
-3.67004e-05
0.000162292
-3.91878e-05
0.00011854
-5.70827e-05
7.08519e-05
-8.80491e-05
2.74585e-05
-0.000124231
-1.39363e-05
-0.000191732
-4.94338e-05
-0.000256193
-5.69932e-05
-0.000273892
-5.58328e-05
-0.000226149
-6.26028e-05
-0.000204512
-8.34668e-05
-0.000211176
-8.53134e-05
-0.00022527
-7.96249e-05
-0.000190164
-7.1551e-05
-0.000145887
-6.96523e-05
-0.00011063
-7.08967e-05
-8.16918e-05
-5.85248e-05
-7.77878e-05
-4.37798e-05
-6.00594e-05
-3.94434e-05
-4.82966e-05
-3.53668e-05
-3.47388e-05
-3.1009e-05
-2.07511e-05
-2.76477e-05
-7.43083e-06
-2.73172e-05
4.74851e-06
-2.94925e-05
1.60704e-05
-3.84172e-05
2.80534e-05
-6.10616e-05
4.82239e-05
-7.1726e-05
7.47506e-05
-7.18776e-05
8.19841e-05
-6.41664e-05
7.82752e-05
-4.97881e-05
6.10423e-05
-3.63463e-05
4.0905e-05
-3.11918e-05
2.8163e-05
-2.853e-05
2.5919e-05
-2.49694e-05
2.66546e-05
-2.0574e-05
2.86974e-05
-1.56509e-05
3.1531e-05
-1.00563e-05
3.50369e-05
-4.04696e-06
3.91228e-05
2.99398e-06
4.3953e-05
1.07763e-05
4.99489e-05
1.86249e-05
5.56487e-05
2.61828e-05
6.01825e-05
3.36108e-05
6.42944e-05
4.10956e-05
6.76434e-05
4.84941e-05
7.04459e-05
5.61339e-05
7.34106e-05
6.39918e-05
7.66086e-05
7.19412e-05
7.95138e-05
8.02652e-05
8.2661e-05
8.89288e-05
8.62399e-05
9.79407e-05
8.98454e-05
0.000107125
9.37077e-05
0.000117785
9.74576e-05
0.000129092
0.000102921
0.000139823
0.000107423
0.000151077
0.000112019
0.000162015
0.000117583
0.000172353
0.000123164
0.000181467
0.000128064
0.000193297
0.000135231
0.000204157
0.000145117
0.000202646
0.000152133
0.000209206
0.000152738
0.000220948
0.000164988
0.000245754
0.000175437
0.000292541
0.000197989
0.000348729
0.000248113
0.000409175
0.000317475
0.000458156
0.000389255
0.000487122
0.000442165
0.000489455
0.000460979
0.000478171
0.000449407
0.000433111
0.000409568
0.000336302
0.000333506
0.000243021
0.00023728
0.000194024
0.000158037
0.000168581
0.000111123
0.000145303
7.41651e-05
0.000115545
3.68824e-05
8.58436e-05
2.48725e-06
6.98867e-05
-2.26846e-05
6.15027e-05
-4.00689e-05
5.55552e-05
-5.14259e-05
5.00049e-05
-5.80202e-05
4.38013e-05
-6.07025e-05
3.98823e-05
-6.3872e-05
3.74437e-05
-6.86254e-05
3.59919e-05
-7.36085e-05
3.37877e-05
-7.59627e-05
3.1933e-05
-7.52475e-05
3.1435e-05
-7.47368e-05
3.38128e-05
-7.44679e-05
4.17853e-05
-7.61809e-05
5.00513e-05
-8.40886e-05
5.6518e-05
-9.14307e-05
5.94094e-05
-9.52563e-05
5.93141e-05
-9.55994e-05
5.4349e-05
-9.46899e-05
4.39572e-05
-9.19695e-05
3.06805e-05
-8.71068e-05
2.03246e-05
-8.18501e-05
1.34299e-05
-7.63095e-05
9.12411e-06
-7.30996e-05
6.91678e-06
-7.33164e-05
6.62001e-06
-7.60046e-05
1.43056e-05
-8.70325e-05
3.11128e-05
-0.000111779
5.49028e-05
-0.000133229
8.08942e-05
-0.000140903
0.000109285
-0.000127544
0.000143365
-0.000103298
0.000172896
-7.31555e-05
0.000187698
-4.57903e-05
0.000189896
-2.92131e-05
0.000180148
-2.67153e-05
0.000155449
-3.85703e-05
0.000109961
-6.68283e-05
6.87534e-05
-0.000100907
2.56418e-05
-0.000154142
-1.81358e-05
-0.000227024
-4.1971e-05
-0.00026682
-4.34815e-05
-0.00023674
-5.07517e-05
-0.000203451
-7.04736e-05
-0.000199445
-7.55909e-05
-0.000219211
-7.13967e-05
-0.000185777
-6.43589e-05
-0.000139132
-6.35613e-05
-0.000103279
-6.54079e-05
-7.50882e-05
-5.26808e-05
-7.09195e-05
-5.1315e-05
-6.38519e-05
-4.82882e-05
-5.31751e-05
-4.48643e-05
-3.97262e-05
-4.11497e-05
-2.51036e-05
-3.69397e-05
-1.08703e-05
-3.57485e-05
2.10671e-06
-3.6749e-05
1.39668e-05
-4.24331e-05
2.55408e-05
-6.09216e-05
4.21939e-05
-7.93246e-05
6.72304e-05
-8.11587e-05
7.97414e-05
-7.53961e-05
8.00287e-05
-6.00861e-05
6.77933e-05
-4.34076e-05
4.75465e-05
-3.3877e-05
3.13013e-05
-3.07651e-05
2.56753e-05
-2.76732e-05
2.45254e-05
-2.36484e-05
2.51515e-05
-1.88124e-05
2.66729e-05
-1.33414e-05
2.873e-05
-7.41509e-06
3.12667e-05
-7.54304e-07
3.4278e-05
6.37122e-06
3.78757e-05
1.35646e-05
4.22173e-05
2.08082e-05
4.65492e-05
2.84206e-05
5.14573e-05
3.63019e-05
5.67086e-05
4.42481e-05
6.17286e-05
5.23041e-05
6.6734e-05
6.03967e-05
7.16891e-05
6.88589e-05
7.60581e-05
7.77715e-05
8.02319e-05
8.72892e-05
8.48039e-05
9.76215e-05
8.93836e-05
0.000108717
9.46374e-05
0.000121164
9.99703e-05
0.000134782
0.000107411
0.000148443
0.000114367
0.00016292
0.000121353
0.000178366
0.000129677
0.000193949
0.000138761
0.000208111
0.000147881
0.00022499
0.000157816
0.000241057
0.000171431
0.000250703
0.00018242
0.000254641
0.000192427
0.000264707
0.000199589
0.000274842
0.000211532
0.000301161
0.000227709
0.000348679
0.000260367
0.000406028
0.00032099
0.000456768
0.000392299
0.000493237
0.000448373
0.000506235
0.000475687
0.000500723
0.000472412
0.000476306
0.000439749
0.000404956
0.000377482
0.000298575
0.000284303
0.000235658
0.000194649
0.000203312
0.000138508
0.000174001
9.43415e-05
0.000135982
5.03514e-05
9.77822e-05
8.98886e-06
7.8116e-05
-1.92249e-05
6.82893e-05
-3.73118e-05
6.15789e-05
-4.91468e-05
5.50538e-05
-5.59018e-05
4.85649e-05
-5.86204e-05
4.465e-05
-6.21728e-05
4.22031e-05
-6.68655e-05
4.00315e-05
-7.07854e-05
3.7406e-05
-7.30237e-05
3.51412e-05
-7.34807e-05
3.40498e-05
-7.36945e-05
3.41889e-05
-7.35483e-05
3.58789e-05
-7.30846e-05
4.33894e-05
-7.35123e-05
5.19933e-05
-8.00649e-05
5.81434e-05
-8.76336e-05
6.06404e-05
-9.22107e-05
6.01279e-05
-9.42583e-05
5.60689e-05
-9.55696e-05
4.79875e-05
-9.69753e-05
3.64313e-05
-9.76082e-05
2.50407e-05
-9.23142e-05
1.80485e-05
-8.32474e-05
1.39776e-05
-7.95196e-05
1.29767e-05
-7.89111e-05
1.6581e-05
-8.55543e-05
2.87888e-05
-0.000108951
4.76013e-05
-0.000129654
7.18547e-05
-0.000136534
9.6102e-05
-0.000126853
0.000124002
-0.00010266
0.00015622
-7.36388e-05
0.000179308
-4.40235e-05
0.000187623
-2.26248e-05
0.000183584
-1.44778e-05
0.000167389
-2.11969e-05
0.000135812
-4.42004e-05
9.69994e-05
-7.92798e-05
5.82596e-05
-0.000126785
1.35876e-05
-0.000191449
-2.24934e-05
-0.000245192
-3.09418e-05
-0.000239508
-3.9472e-05
-0.000199112
-5.7793e-05
-0.000188556
-6.62055e-05
-0.000211045
-6.41839e-05
-0.000179865
-5.81415e-05
-0.000131854
-5.83446e-05
-9.64076e-05
-6.06591e-05
-6.8895e-05
-4.7479e-05
-6.55114e-05
-6.25553e-05
-6.70839e-05
-6.19302e-05
-5.82857e-05
-5.88679e-05
-4.55554e-05
-5.3933e-05
-2.9994e-05
-4.82871e-05
-1.4301e-05
-4.67761e-05
-4.10364e-07
-4.72906e-05
1.20626e-05
-5.24794e-05
2.38007e-05
-7.08918e-05
3.93262e-05
-8.90716e-05
6.2125e-05
-9.07694e-05
7.51527e-05
-8.49845e-05
7.76091e-05
-6.90362e-05
6.88115e-05
-5.03514e-05
5.01685e-05
-3.74295e-05
3.3622e-05
-3.27828e-05
2.57585e-05
-2.96117e-05
2.30707e-05
-2.59345e-05
2.24216e-05
-2.14844e-05
2.29203e-05
-1.63339e-05
2.4071e-05
-1.06708e-05
2.5733e-05
-4.58131e-06
2.78615e-05
1.90499e-06
3.04375e-05
8.6326e-06
3.36722e-05
1.54539e-05
3.72417e-05
2.24483e-05
4.0701e-05
2.95513e-05
4.42838e-05
3.71259e-05
4.82167e-05
4.52186e-05
5.27811e-05
5.38227e-05
5.85379e-05
6.2876e-05
6.49738e-05
7.24105e-05
7.16858e-05
8.22924e-05
7.87681e-05
9.2802e-05
8.52549e-05
0.000104265
9.24138e-05
0.00011713
9.91787e-05
0.00013159
0.000107494
0.000146462
0.000115454
0.000162786
0.000123365
0.000181175
0.00013295
0.000200731
0.000144047
0.000220626
0.000155986
0.000242552
0.000169257
0.000265275
0.000185758
0.000283257
0.000202693
0.000298366
0.00021856
0.000308675
0.000232399
0.000319915
0.000245482
0.00033469
0.00026366
0.000363864
0.000289481
0.00041019
0.000338674
0.000459462
0.000404621
0.000501304
0.000460008
0.000522887
0.000491989
0.000523041
0.000495968
0.000510964
0.000468643
0.000464115
0.000415029
0.000364195
0.000331766
0.000291244
0.000238394
0.000250294
0.00017414
0.000210309
0.000119578
0.000158084
6.5474e-05
0.000110395
1.57029e-05
8.66892e-05
-1.57346e-05
7.53145e-05
-3.45642e-05
6.77345e-05
-4.67137e-05
6.01489e-05
-5.34797e-05
5.34621e-05
-5.65362e-05
4.95375e-05
-6.04588e-05
4.69033e-05
-6.49911e-05
4.45012e-05
-6.8808e-05
4.23378e-05
-7.15881e-05
4.03905e-05
-7.32501e-05
3.9096e-05
-7.41596e-05
3.83576e-05
-7.45291e-05
3.83026e-05
-7.39725e-05
3.97357e-05
-7.30323e-05
4.60047e-05
-7.3112e-05
5.39883e-05
-7.90501e-05
5.92735e-05
-8.69192e-05
6.12865e-05
-9.29143e-05
6.06333e-05
-9.72379e-05
5.77198e-05
-0.000100938
5.0916e-05
-0.000104615
3.95681e-05
-0.000103688
2.93895e-05
-9.38567e-05
2.31583e-05
-8.79915e-05
2.00976e-05
-8.63748e-05
2.27821e-05
-8.83056e-05
3.38919e-05
-0.000109628
4.98691e-05
-0.00013078
6.88361e-05
-0.000136312
8.85264e-05
-0.000124996
0.000108537
-0.000101093
0.000134504
-7.1153e-05
0.000161387
-4.07194e-05
0.000175982
-1.58476e-05
0.000176586
-2.89975e-06
0.000165725
-4.5665e-06
0.000142994
-2.27417e-05
0.000111661
-5.64693e-05
7.80273e-05
-0.000100479
3.89005e-05
-0.000158758
8.85749e-08
-0.000217719
-1.87301e-05
-0.000229579
-2.90284e-05
-0.0001913
-4.63157e-05
-0.000178386
-5.75526e-05
-0.000201125
-5.76456e-05
-0.000172155
-5.36616e-05
-0.000123458
-5.50307e-05
-8.99023e-05
-5.78045e-05
-6.3436e-05
-4.29753e-05
-6.23395e-05
-7.48452e-05
-6.78538e-05
-7.79432e-05
-6.08269e-05
-7.70263e-05
-5.03375e-05
-7.10257e-05
-3.56304e-05
-6.33468e-05
-1.87259e-05
-6.1365e-05
-3.36064e-06
-6.1418e-05
1.00367e-05
-6.62121e-05
2.28902e-05
-8.51572e-05
3.85702e-05
-0.000100613
5.79206e-05
-9.99634e-05
6.95137e-05
-9.29563e-05
7.26933e-05
-7.49304e-05
6.63407e-05
-5.40838e-05
4.95887e-05
-3.96827e-05
3.37552e-05
-3.42764e-05
2.53595e-05
-3.09551e-05
2.17964e-05
-2.74609e-05
2.02339e-05
-2.33834e-05
1.99244e-05
-1.86696e-05
2.0425e-05
-1.34372e-05
2.15406e-05
-7.83359e-06
2.32011e-05
-1.91443e-06
2.52919e-05
4.38244e-06
2.78592e-05
1.08381e-05
3.09573e-05
1.71609e-05
3.41018e-05
2.34077e-05
3.71169e-05
2.9811e-05
4.02483e-05
3.67842e-05
4.36445e-05
4.43935e-05
4.74961e-05
5.25065e-05
5.17259e-05
6.17856e-05
5.6637e-05
7.1985e-05
6.30062e-05
8.33728e-05
7.05649e-05
9.57858e-05
8.00775e-05
0.000109315
8.94723e-05
0.000124284
0.000100413
0.000139796
0.00011082
0.000156779
0.00012099
0.000176142
0.000132748
0.000197058
0.000145304
0.000219543
0.000157936
0.000244777
0.000172232
0.00027207
0.00018965
0.000298109
0.000209425
0.000322282
0.000229937
0.000341623
0.00025016
0.000357181
0.000268811
0.000371986
0.000291346
0.000392624
0.000317237
0.000427504
0.000361603
0.000470156
0.000423346
0.000510227
0.00047546
0.00053582
0.00050812
0.000543064
0.000517245
0.000536716
0.000494551
0.000507855
0.000446359
0.000427669
0.000373169
0.000352927
0.000283181
0.000302857
0.000212961
0.000249149
0.000146588
0.000180127
8.02597e-05
0.000122696
2.19841e-05
9.51252e-05
-1.22966e-05
8.23428e-05
-3.17372e-05
7.36829e-05
-4.40746e-05
6.51075e-05
-5.09306e-05
5.82759e-05
-5.45489e-05
5.41648e-05
-5.87633e-05
5.15665e-05
-6.33164e-05
4.95783e-05
-6.75841e-05
4.78259e-05
-7.10572e-05
4.60693e-05
-7.3483e-05
4.45407e-05
-7.47909e-05
4.33587e-05
-7.54739e-05
4.25377e-05
-7.5379e-05
4.22249e-05
-7.45617e-05
4.33499e-05
-7.36264e-05
4.87746e-05
-7.43918e-05
5.53211e-05
-8.12633e-05
5.9844e-05
-9.01882e-05
6.13978e-05
-9.81561e-05
6.05469e-05
-0.000103548
5.70843e-05
-0.000107738
4.90724e-05
-0.000107679
3.94431e-05
-0.000100088
3.29291e-05
-9.58468e-05
2.89306e-05
-9.55086e-05
3.00325e-05
-9.79044e-05
4.13485e-05
-0.000114381
5.57821e-05
-0.000132375
7.03871e-05
-0.00013517
8.45778e-05
-0.000121199
9.867e-05
-9.71603e-05
0.00011528
-6.71948e-05
0.000138186
-3.49389e-05
0.000156544
-8.52507e-06
0.000161353
8.63465e-06
0.000154505
1.11555e-05
0.000137587
-3.05215e-06
0.000112446
-3.45634e-05
8.50204e-05
-7.68489e-05
5.34606e-05
-0.000131629
1.65908e-05
-0.000191171
-6.6504e-06
-0.000213136
-1.92242e-05
-0.000179748
-3.69903e-05
-0.000168586
-5.02424e-05
-0.000189596
-5.18609e-05
-0.000162337
-5.05582e-05
-0.000113974
-5.31068e-05
-8.30195e-05
-5.63399e-05
-5.80621e-05
-3.87084e-05
-6.03045e-05
-8.47062e-05
-6.63679e-05
-9.14337e-05
-6.07119e-05
-9.58299e-05
-5.24717e-05
-9.46542e-05
-4.0164e-05
-8.76116e-05
-2.42502e-05
-8.38532e-05
-8.17864e-06
-8.33113e-05
7.0765e-06
-8.84525e-05
2.19364e-05
-0.000104963
3.77339e-05
-0.000111591
5.32819e-05
-0.000107617
6.27203e-05
-9.85077e-05
6.57948e-05
-7.91257e-05
6.04011e-05
-5.68266e-05
4.63483e-05
-4.13518e-05
3.20435e-05
-3.54562e-05
2.4186e-05
-3.19689e-05
2.03561e-05
-2.85738e-05
1.82897e-05
-2.47484e-05
1.74262e-05
-2.04151e-05
1.73896e-05
-1.56134e-05
1.80854e-05
-1.04655e-05
1.94282e-05
-5.06399e-06
2.12583e-05
6.75927e-07
2.34312e-05
6.76723e-06
2.60877e-05
1.28465e-05
2.90913e-05
1.87921e-05
3.20243e-05
2.47444e-05
3.48893e-05
3.08679e-05
3.78237e-05
3.71709e-05
4.10202e-05
4.35426e-05
4.43965e-05
5.05386e-05
4.80192e-05
5.86398e-05
5.26308e-05
6.79603e-05
5.71731e-05
7.89764e-05
6.33031e-05
9.21284e-05
6.98756e-05
0.000107352
7.90704e-05
0.000124451
9.13348e-05
0.000143491
0.00010453
0.000164814
0.000119953
0.00018752
0.000136472
0.000211977
0.000152743
0.000238973
0.000170423
0.000268147
0.000190091
0.000297511
0.000210654
0.00032711
0.000232454
0.000353935
0.000255137
0.000376886
0.000278526
0.000395712
0.000306405
0.000414686
0.000336147
0.000444067
0.000380506
0.000480813
0.00044036
0.000517156
0.000491059
0.000542402
0.000523571
0.000553705
0.000534922
0.000552068
0.000516014
0.000534596
0.000471205
0.00047756
0.000406598
0.00040953
0.00032493
0.000351557
0.000249524
0.000284005
0.000171184
0.000198518
9.27419e-05
0.000132857
2.68098e-05
0.000102381
-8.98492e-06
8.85142e-05
-2.86306e-05
7.90657e-05
-4.12069e-05
6.98201e-05
-4.82509e-05
6.26396e-05
-5.2561e-05
5.85038e-05
-5.72636e-05
5.61685e-05
-6.24891e-05
5.45674e-05
-6.72717e-05
5.30523e-05
-7.10822e-05
5.13547e-05
-7.38233e-05
4.95837e-05
-7.55718e-05
4.79388e-05
-7.65864e-05
4.6498e-05
-7.68376e-05
4.53898e-05
-7.63113e-05
4.49028e-05
-7.53019e-05
4.58978e-05
-7.47445e-05
5.08218e-05
-7.74503e-05
5.63514e-05
-8.75542e-05
5.98031e-05
-9.82808e-05
5.99415e-05
-0.000105372
5.82274e-05
-0.000109444
5.2127e-05
-0.000109478
4.53696e-05
-0.000104314
4.09041e-05
-0.000103416
3.84794e-05
-0.000105527
4.16051e-05
-0.000113827
5.12961e-05
-0.000129005
6.21013e-05
-0.000137013
7.21923e-05
-0.000131948
8.08326e-05
-0.000114761
8.94014e-05
-8.97444e-05
9.99741e-05
-6.06051e-05
0.000114288
-2.86267e-05
0.000132674
-1.72795e-07
0.000140213
2.03572e-05
0.00013644
2.59564e-05
0.000124411
1.43046e-05
0.000104651
-1.49201e-05
8.29392e-05
-5.65513e-05
5.85357e-05
-0.000109891
2.75163e-05
-0.000166728
4.57335e-06
-0.000196299
-1.11583e-05
-0.000163321
-2.98627e-05
-0.000157793
-4.4465e-05
-0.00017677
-4.7176e-05
-0.000150277
-4.85649e-05
-0.000103733
-5.21206e-05
-7.55129e-05
-5.53834e-05
-5.24115e-05
-3.43627e-05
-5.7803e-05
-9.2048e-05
-6.35197e-05
-0.000101188
-5.8947e-05
-0.000109436
-5.24048e-05
-0.000113528
-4.22553e-05
-0.000114057
-2.86868e-05
-0.000112585
-1.33651e-05
-0.000111918
2.32961e-06
-0.000114455
1.82857e-05
-0.000121299
3.28684e-05
-0.000119158
4.59261e-05
-0.000112633
5.42963e-05
-0.000100221
5.71195e-05
-7.96205e-05
5.2145e-05
-5.73681e-05
4.07853e-05
-4.20357e-05
2.89419e-05
-3.63027e-05
2.24025e-05
-3.27314e-05
1.87199e-05
-2.93031e-05
1.64079e-05
-2.55691e-05
1.51708e-05
-2.14357e-05
1.47562e-05
-1.70565e-05
1.51403e-05
-1.23897e-05
1.62613e-05
-7.4793e-06
1.78965e-05
-2.31472e-06
1.98401e-05
3.24297e-06
2.20974e-05
9.03895e-06
2.48219e-05
1.48192e-05
2.76987e-05
2.05177e-05
3.05239e-05
2.62374e-05
3.33033e-05
3.19784e-05
3.62253e-05
3.76719e-05
3.92842e-05
4.36445e-05
4.24386e-05
4.99994e-05
4.61884e-05
5.68653e-05
4.97059e-05
6.44017e-05
5.43224e-05
7.29916e-05
5.88899e-05
8.44129e-05
6.48029e-05
9.80906e-05
7.19482e-05
0.00011543
8.00318e-05
0.000137158
9.1538e-05
0.000162553
0.000107949
0.000191202
0.000127968
0.000222689
0.000151353
0.000255607
0.000177126
0.000289261
0.000203706
0.000321797
0.00023063
0.000351941
0.000256067
0.000379495
0.000281366
0.000402997
0.000311033
0.00042477
0.00034527
0.000453669
0.000392723
0.000487206
0.000454091
0.000520089
0.000504132
0.00054488
0.00053608
0.000558598
0.000549033
0.000559858
0.000533545
0.00054932
0.000491203
0.000512307
0.000432984
0.000454132
0.00035785
0.000389233
0.000276808
0.000308092
0.000189428
0.00020921
0.000100192
0.000139597
3.01802e-05
0.000107949
-5.90955e-06
9.37446e-05
-2.53589e-05
8.36808e-05
-3.81037e-05
7.38006e-05
-4.5431e-05
6.66096e-05
-5.0668e-05
6.27653e-05
-5.63653e-05
6.06623e-05
-6.22741e-05
5.9176e-05
-6.73736e-05
5.77154e-05
-7.13022e-05
5.59987e-05
-7.42432e-05
5.41974e-05
-7.66117e-05
5.22025e-05
-7.8263e-05
5.01344e-05
-7.8941e-05
4.81261e-05
-7.85702e-05
4.64362e-05
-7.74014e-05
4.57962e-05
-7.62968e-05
4.80955e-05
-7.81057e-05
5.33928e-05
-8.88377e-05
5.6649e-05
-0.000100611
5.73055e-05
-0.000107421
5.61972e-05
-0.000110873
5.18027e-05
-0.00011095
4.84874e-05
-0.000109542
4.69322e-05
-0.000112389
4.91478e-05
-0.000120022
5.63904e-05
-0.000136389
6.31158e-05
-0.000145461
6.78297e-05
-0.000140894
7.16866e-05
-0.00012624
7.5111e-05
-0.000105285
7.89983e-05
-7.97408e-05
8.46084e-05
-5.15085e-05
9.2676e-05
-2.04982e-05
0.000107101
9.12483e-06
0.000115506
3.18361e-05
0.000113936
3.95465e-05
0.000105587
2.89846e-05
9.17064e-05
1.05006e-06
7.52465e-05
-4.01465e-05
5.61339e-05
-9.23839e-05
3.20164e-05
-0.000146911
1.0592e-05
-0.000175559
-5.71178e-06
-0.000144355
-2.4821e-05
-0.000146957
-4.01219e-05
-0.00016283
-4.39371e-05
-0.000136413
-4.74106e-05
-9.27992e-05
-5.16585e-05
-6.74809e-05
-5.45287e-05
-4.6522e-05
-2.98924e-05
-5.51839e-05
-9.65901e-05
-5.94758e-05
-0.000106531
-5.57792e-05
-0.000117274
-5.09204e-05
-0.000123942
-4.31354e-05
-0.000127601
-3.16195e-05
-0.00012932
-1.80595e-05
-0.000130389
-3.51635e-06
-0.000130607
1.13321e-05
-0.000128612
2.51221e-05
-0.000123103
3.6777e-05
-0.000113983
4.45371e-05
-9.79594e-05
4.6705e-05
-7.58738e-05
4.26651e-05
-5.48816e-05
3.40571e-05
-4.18582e-05
2.56213e-05
-3.66976e-05
2.04852e-05
-3.29533e-05
1.69406e-05
-2.93407e-05
1.44998e-05
-2.54471e-05
1.29952e-05
-2.14862e-05
1.23445e-05
-1.74678e-05
1.26379e-05
-1.32943e-05
1.36804e-05
-8.92512e-06
1.5191e-05
-4.2936e-06
1.69272e-05
6.94134e-07
1.8864e-05
6.01777e-06
2.12666e-05
1.15467e-05
2.39262e-05
1.69916e-05
2.67827e-05
2.23852e-05
2.95297e-05
2.7714e-05
3.23575e-05
3.2939e-05
3.52894e-05
3.82584e-05
3.82568e-05
4.36456e-05
4.14987e-05
4.92802e-05
4.4559e-05
5.54282e-05
4.82336e-05
6.2016e-05
5.19279e-05
6.99941e-05
5.6254e-05
7.89947e-05
6.16493e-05
8.95642e-05
6.72605e-05
0.000103938
7.47449e-05
0.000123309
8.39142e-05
0.000149206
9.56846e-05
0.000181611
0.000113295
0.000221193
0.000139741
0.000263544
0.000173049
0.000303925
0.000210627
0.000339844
0.000246201
0.000371168
0.000279391
0.000397847
0.000313184
0.000423084
0.00034908
0.000454062
0.000398692
0.00048769
0.00046089
0.000519841
0.000511666
0.000544285
0.000544104
0.000559043
0.000558163
0.000562318
0.000545225
0.000554519
0.000505206
0.000528442
0.000448747
0.000477666
0.000378326
0.000408445
0.000291203
0.000320094
0.000197894
0.00021199
0.000104754
0.000142185
3.12832e-05
0.000111393
-3.30848e-06
9.76023e-05
-2.20802e-05
8.683e-05
-3.46855e-05
7.67209e-05
-4.25804e-05
7.00274e-05
-4.90921e-05
6.65854e-05
-5.58666e-05
6.45688e-05
-6.22704e-05
6.30131e-05
-6.74686e-05
6.14966e-05
-7.15871e-05
5.99913e-05
-7.50811e-05
5.82201e-05
-7.8251e-05
5.59924e-05
-8.05074e-05
5.32608e-05
-8.15887e-05
5.01365e-05
-8.11031e-05
4.71967e-05
-7.94164e-05
4.50251e-05
-7.8224e-05
4.58769e-05
-7.9932e-05
5.08775e-05
-9.11686e-05
5.36408e-05
-0.000103641
5.37072e-05
-0.000110294
5.25863e-05
-0.000113288
5.03797e-05
-0.000114639
4.99172e-05
-0.000118362
5.27679e-05
-0.000126439
6.01587e-05
-0.000143521
6.67695e-05
-0.000154248
6.8095e-05
-0.000150115
6.72705e-05
-0.000136249
6.62003e-05
-0.000116301
6.57627e-05
-9.34234e-05
6.60949e-05
-6.77691e-05
6.76927e-05
-4.04563e-05
7.15536e-05
-1.10242e-05
8.13861e-05
1.90839e-05
8.85429e-05
4.29831e-05
8.85152e-05
5.13727e-05
8.35814e-05
4.05505e-05
7.50054e-05
1.30483e-05
6.4192e-05
-2.81516e-05
4.98934e-05
-7.94348e-05
3.19974e-05
-0.000132294
1.39449e-05
-0.000153541
-1.87803e-06
-0.000128737
-2.20811e-05
-0.000136703
-3.75907e-05
-0.00014781
-4.22925e-05
-0.000121261
-4.72253e-05
-8.13165e-05
-5.18193e-05
-5.89373e-05
-5.37916e-05
-4.03203e-05
-2.58022e-05
-5.22844e-05
-9.70753e-05
-5.47583e-05
-0.000106975
-5.14188e-05
-0.000119152
-4.75094e-05
-0.000128113
-4.20096e-05
-0.000132899
-3.36716e-05
-0.00013488
-2.2317e-05
-0.000135313
-9.80471e-06
-0.000133592
3.4327e-06
-0.000129008
1.59255e-05
-0.000121228
2.6367e-05
-0.00010831
3.33657e-05
-9.01206e-05
3.57785e-05
-6.98826e-05
3.35742e-05
-5.22609e-05
2.83295e-05
-4.18573e-05
2.24245e-05
-3.65375e-05
1.83039e-05
-3.2406e-05
1.49199e-05
-2.82723e-05
1.22895e-05
-2.42081e-05
1.07115e-05
-2.04193e-05
1.02157e-05
-1.67007e-05
1.06406e-05
-1.30189e-05
1.17421e-05
-9.2214e-06
1.31889e-05
-5.06117e-06
1.46085e-05
-6.0186e-07
1.62821e-05
4.21126e-06
1.83604e-05
9.25846e-06
2.07837e-05
1.43247e-05
2.36079e-05
1.94067e-05
2.63273e-05
2.43833e-05
2.92099e-05
2.91781e-05
3.22199e-05
3.39267e-05
3.51774e-05
3.85778e-05
3.82849e-05
4.31955e-05
4.11846e-05
4.81134e-05
4.41836e-05
5.33345e-05
4.71458e-05
5.94808e-05
5.03818e-05
6.65586e-05
5.448e-05
7.47042e-05
5.87954e-05
8.47512e-05
6.45404e-05
9.64199e-05
7.17726e-05
0.00011126
7.9676e-05
0.000133818
8.99957e-05
0.000165838
0.000105677
0.000208361
0.000129489
0.000257149
0.000164591
0.000305623
0.00020945
0.000347588
0.000257544
0.000381139
0.000304038
0.000410887
0.000349428
0.000443923
0.000401824
0.00047961
0.000461829
0.000511455
0.000512404
0.000534965
0.000545297
0.000549413
0.000559582
0.000554214
0.000547746
0.00054785
0.000510989
0.000525371
0.00045774
0.000480443
0.000385651
0.000411294
0.000300784
0.000315033
0.000200287
0.00020381
9.73183e-05
0.000138947
2.90263e-05
0.000111819
-1.25938e-06
9.92554e-05
-1.86969e-05
8.83405e-05
-3.11292e-05
7.85947e-05
-3.9939e-05
7.26961e-05
-4.78781e-05
6.96358e-05
-5.56262e-05
6.76044e-05
-6.24344e-05
6.5895e-05
-6.77387e-05
6.46036e-05
-7.22632e-05
6.33972e-05
-7.67805e-05
6.14707e-05
-8.06361e-05
5.874e-05
-8.32955e-05
5.49806e-05
-8.39799e-05
5.03807e-05
-8.22358e-05
4.63516e-05
-8.0282e-05
4.31922e-05
-7.98229e-05
4.33269e-05
-8.32351e-05
4.76205e-05
-9.58364e-05
4.94671e-05
-0.000107507
4.92776e-05
-0.000113671
4.87661e-05
-0.000117811
4.89371e-05
-0.00012388
5.25913e-05
-0.000134494
5.99118e-05
-0.00015266
6.63732e-05
-0.000165375
6.58703e-05
-0.000160908
6.24648e-05
-0.000146928
5.82654e-05
-0.000127309
5.46362e-05
-0.000104616
5.18197e-05
-8.07704e-05
4.96027e-05
-5.48346e-05
4.85585e-05
-2.83631e-05
4.94699e-05
-3.95023e-07
5.54855e-05
2.98e-05
6.05182e-05
5.38819e-05
6.14748e-05
6.10709e-05
5.99277e-05
4.85174e-05
5.64525e-05
2.01466e-05
5.15065e-05
-2.16129e-05
4.21849e-05
-7.11416e-05
3.02893e-05
-0.000121243
1.4329e-05
-0.000130881
-7.78539e-07
-0.000115191
-2.16216e-05
-0.000126605
-3.68391e-05
-0.000131641
-4.2063e-05
-0.000105268
-4.75904e-05
-6.96674e-05
-5.19083e-05
-5.01248e-05
-5.28781e-05
-3.40024e-05
-2.18991e-05
-4.87117e-05
-9.41324e-05
-5.10972e-05
-0.000102532
-4.7465e-05
-0.000112558
-4.34493e-05
-0.000123821
-3.93852e-05
-0.000130083
-3.34484e-05
-0.000131957
-2.54307e-05
-0.000130931
-1.51321e-05
-0.00012722
-3.93068e-06
-0.000120808
7.01688e-06
-0.000111363
1.62899e-05
-9.78358e-05
2.30684e-05
-8.13602e-05
2.63885e-05
-6.48851e-05
2.61805e-05
-5.12311e-05
2.34406e-05
-4.15519e-05
1.97115e-05
-3.56842e-05
1.60164e-05
-3.10292e-05
1.27515e-05
-2.70791e-05
1.0224e-05
-2.35576e-05
9.14691e-06
-2.04651e-05
9.2719e-06
-1.75718e-05
1.01158e-05
-1.4585e-05
1.12453e-05
-1.19921e-05
1.30973e-05
-9.61169e-06
1.48389e-05
-6.92285e-06
1.68744e-05
-2.84711e-06
1.89561e-05
2.39082e-06
2.10795e-05
8.09833e-06
2.31949e-05
1.39481e-05
2.50785e-05
1.94751e-05
2.76477e-05
2.44456e-05
3.03866e-05
2.92721e-05
3.28141e-05
3.37634e-05
3.57378e-05
3.8032e-05
3.86876e-05
4.22956e-05
4.14829e-05
4.6462e-05
4.4324e-05
5.09654e-05
4.6958e-05
5.61662e-05
4.98693e-05
6.22992e-05
5.28756e-05
7.03563e-05
5.69896e-05
7.99142e-05
6.2726e-05
9.03849e-05
6.96966e-05
0.000104064
7.76248e-05
0.000123888
8.84242e-05
0.000152485
0.000104772
0.00019328
0.000128301
0.000243492
0.000162651
0.000295752
0.000208383
0.000343817
0.000267925
0.000383568
0.000329136
0.000423165
0.000392908
0.00046197
0.00045769
0.000493954
0.000509876
0.00051693
0.000543168
0.000531686
0.000556919
0.000536521
0.000545497
0.000532607
0.000513087
0.00051356
0.00045886
0.00047232
0.000390944
0.000400834
0.000289328
0.000298378
0.000183555
0.000182951
8.3042e-05
0.000130248
2.61385e-05
0.000109446
1.09247e-06
9.87044e-05
-1.52272e-05
8.82733e-05
-2.77567e-05
7.95334e-05
-3.77972e-05
7.44815e-05
-4.71571e-05
7.18218e-05
-5.57689e-05
6.96867e-05
-6.28714e-05
6.80106e-05
-6.84196e-05
6.73817e-05
-7.40533e-05
6.61835e-05
-7.96102e-05
6.37189e-05
-8.37479e-05
5.96468e-05
-8.5644e-05
5.37857e-05
-8.42686e-05
4.77951e-05
-8.13535e-05
4.31342e-05
-8.02208e-05
4.0025e-05
-8.1565e-05
4.12764e-05
-8.96973e-05
4.40806e-05
-0.000103681
4.45452e-05
-0.000113019
4.44512e-05
-0.000119669
4.56951e-05
-0.000128601
4.99552e-05
-0.000143075
5.64251e-05
-0.000163873
6.21803e-05
-0.000177598
6.04395e-05
-0.000174784
5.51789e-05
-0.000160081
4.91518e-05
-0.000140657
4.33895e-05
-0.000117489
3.83293e-05
-9.28013e-05
3.39692e-05
-6.77827e-05
2.97999e-05
-4.14801e-05
2.67691e-05
-1.58707e-05
2.54518e-05
1.11812e-05
2.77561e-05
4.10071e-05
3.09281e-05
6.36542e-05
3.36547e-05
6.73474e-05
3.62579e-05
5.19181e-05
3.79416e-05
2.19697e-05
3.8163e-05
-2.05269e-05
3.40865e-05
-6.73585e-05
2.67376e-05
-0.000111147
1.26657e-05
-0.000108072
-1.79067e-06
-0.000102609
-2.27822e-05
-0.000116964
-3.75476e-05
-0.000115642
-4.28025e-05
-8.86453e-05
-4.84582e-05
-5.82291e-05
-5.21306e-05
-4.14288e-05
-5.1843e-05
-2.81457e-05
-1.84609e-05
-4.52278e-05
-9.09114e-05
-4.91023e-05
-9.65004e-05
-4.54067e-05
-0.000103674
-4.12172e-05
-0.000111755
-3.69456e-05
-0.00012111
-3.25172e-05
-0.000125357
-2.65701e-05
-0.000124542
-1.94225e-05
-0.000120036
-1.04692e-05
-0.000111255
-8.82138e-07
-0.000100656
7.97454e-06
-8.86901e-05
1.46414e-05
-7.52004e-05
1.86882e-05
-6.19642e-05
1.99762e-05
-5.02903e-05
1.89719e-05
-4.10101e-05
1.66029e-05
-3.53239e-05
1.39697e-05
-3.19172e-05
1.15754e-05
-2.97567e-05
1.02916e-05
-2.88454e-05
1.05061e-05
-2.96845e-05
1.33145e-05
-3.19879e-05
1.74187e-05
-3.68125e-05
2.34831e-05
-4.20122e-05
2.98326e-05
-4.15046e-05
3.516e-05
-3.84178e-05
3.92392e-05
-3.20304e-05
4.16115e-05
-2.2697e-05
4.2435e-05
-1.12495e-05
4.27393e-05
-5.57554e-07
4.22933e-05
9.63697e-06
4.16978e-05
1.82158e-05
4.1971e-05
2.46424e-05
4.2055e-05
2.85104e-05
4.02035e-05
3.20969e-05
3.94743e-05
3.62721e-05
3.99207e-05
4.02351e-05
4.20912e-05
4.42511e-05
4.46624e-05
4.82103e-05
4.73636e-05
5.24987e-05
4.97358e-05
5.79555e-05
5.24245e-05
6.53254e-05
5.60748e-05
7.44659e-05
6.14782e-05
8.4987e-05
6.85542e-05
9.85742e-05
7.7545e-05
0.000117685
9.00741e-05
0.000144575
0.000107436
0.000180706
0.000133047
0.000227525
0.000169028
0.000280251
0.000217514
0.000332902
0.00027874
0.000385389
0.000353433
0.000432308
0.000432985
0.000467604
0.000493746
0.000493143
0.000529789
0.000507063
0.0005454
0.000513007
0.000533914
0.000510252
0.000500846
0.00049284
0.000451645
0.000449489
0.000365186
0.000364776
0.000268642
0.000248282
0.000158607
0.000153865
6.14733e-05
0.00011859
2.34231e-05
0.000105461
3.23682e-06
9.65036e-05
-1.19511e-05