/*--------------------------------*- C++ -*----------------------------------*\
  =========                 |
  \\      /  F ield         | OpenFOAM: The Open Source CFD Toolbox
   \\    /   O peration     | Website:  https://openfoam.org
    \\  /    A nd           | Version:  10
     \\/     M anipulation  |
\*---------------------------------------------------------------------------*/
FoamFile
{
    format      ascii;
    class       volScalarField;
    location    "0.900622";
    object      rho;
}
// * * * * * * * * * * * * * * * * * * * * * * * * * * * * * * * * * * * * * //

dimensions      [1 -3 0 0 0 0 0];

internalField   nonuniform List<scalar> 
16320
(
0.349486
0.319622
0.288272
0.253852
0.235477
0.232943
0.248081
0.327452
0.466131
0.506433
0.490774
0.409294
0.298322
0.21424
0.192163
0.189336
0.190317
0.196313
0.209307
0.227956
0.242473
0.251224
0.255714
0.257784
0.257675
0.257532
0.256878
0.255599
0.254147
0.252711
0.250732
0.248886
0.246996
0.245845
0.245388
0.244788
0.252596
0.257384
0.262398
0.27025
0.269854
0.282083
0.284517
0.297939
0.284399
0.333739
0.370736
0.440119
0.542534
0.687248
0.884973
1.07498
1.20261
1.23158
1.20732
1.09389
0.843484
0.615116
0.500388
0.448924
0.420921
0.379206
0.315009
0.278769
0.271682
0.273354
0.273493
0.264304
0.258248
0.261583
0.275654
0.291544
0.302562
0.319867
0.353765
0.406428
0.461069
0.499829
0.518035
0.517605
0.475181
0.384734
0.301079
0.255129
0.23546
0.236209
0.254719
0.318752
0.494043
0.701863
0.884663
0.987205
1.05661
1.1257
1.15052
1.13445
1.10847
1.07397
1.0015
0.834136
0.812479
0.869736
0.878219
0.724157
0.479819
0.432952
0.515225
0.659122
0.669478
0.621316
0.599478
0.608043
0.648989
0.349823
0.322203
0.29497
0.269064
0.242138
0.231843
0.233046
0.260379
0.369452
0.483523
0.500453
0.466362
0.367992
0.260552
0.200303
0.188104
0.186156
0.187047
0.191599
0.20047
0.21381
0.228025
0.239363
0.24736
0.251078
0.254236
0.256155
0.257642
0.260364
0.264511
0.268537
0.273192
0.279024
0.285642
0.293127
0.300809
0.31499
0.325866
0.33732
0.350802
0.361267
0.372891
0.380802
0.403774
0.410672
0.399215
0.430064
0.465748
0.555523
0.696513
0.889432
1.08676
1.23462
1.28958
1.27853
1.20739
1.01674
0.742134
0.568879
0.501045
0.470044
0.424421
0.344294
0.291705
0.276986
0.275599
0.273403
0.261912
0.255464
0.258783
0.270221
0.274904
0.270577
0.271301
0.281861
0.31778
0.376053
0.428955
0.463759
0.47983
0.475124
0.439047
0.372975
0.311765
0.26901
0.248997
0.252233
0.282847
0.37584
0.555138
0.746414
0.891785
0.958038
1.03114
1.10271
1.12463
1.11257
1.09104
1.05512
0.973061
0.857267
0.889429
0.922044
0.802571
0.546426
0.43398
0.484876
0.642613
0.657073
0.595362
0.570158
0.582705
0.630228
0.353171
0.329775
0.304801
0.280006
0.255467
0.237357
0.233704
0.245702
0.30583
0.431297
0.489253
0.483542
0.413503
0.302715
0.214446
0.188301
0.182969
0.181749
0.182181
0.184616
0.189065
0.195089
0.203073
0.213445
0.222705
0.233586
0.241914
0.248127
0.254504
0.26168
0.268241
0.275812
0.286089
0.297779
0.312689
0.327655
0.348703
0.368224
0.387971
0.410669
0.43394
0.455131
0.474671
0.506001
0.528286
0.530619
0.546144
0.568557
0.610984
0.729139
0.913993
1.11555
1.27353
1.35064
1.35579
1.30358
1.16534
0.908682
0.678949
0.587875
0.545021
0.482548
0.376844
0.30604
0.282757
0.278508
0.273609
0.259055
0.252667
0.255866
0.261524
0.261254
0.256097
0.255515
0.259039
0.268638
0.298265
0.354105
0.405511
0.438854
0.454496
0.451588
0.428816
0.389079
0.332734
0.286947
0.271171
0.281174
0.341647
0.484608
0.652558
0.796309
0.883828
0.929738
1.01159
1.08134
1.10066
1.09073
1.07182
1.03194
0.942408
0.929406
0.956958
0.857632
0.611
0.441014
0.461333
0.629151
0.648858
0.577098
0.544531
0.554742
0.605013
0.364847
0.351851
0.330003
0.300992
0.267194
0.24628
0.241315
0.249023
0.301803
0.416272
0.475248
0.480122
0.430439
0.327397
0.233067
0.191558
0.18094
0.177715
0.176658
0.176522
0.17729
0.17889
0.181373
0.185207
0.189522
0.196028
0.204538
0.214053
0.225979
0.239974
0.252677
0.265189
0.279548
0.294538
0.312665
0.3307
0.355316
0.380158
0.405878
0.436799
0.470713
0.504642
0.538796
0.581313
0.620277
0.649848
0.673077
0.697875
0.742198
0.815574
0.966517
1.16343
1.32491
1.41803
1.43991
1.39347
1.28917
1.07843
0.829318
0.715804
0.649258
0.55349
0.410683
0.320825
0.289114
0.281679
0.273724
0.256462
0.250002
0.251632
0.252664
0.252554
0.251097
0.251399
0.253828
0.257973
0.266682
0.291945
0.343808
0.392506
0.424582
0.440628
0.44331
0.433134
0.396718
0.33948
0.310101
0.306829
0.338071
0.466715
0.623044
0.750283
0.831744
0.866015
0.911374
1.00226
1.06425
1.07969
1.07122
1.05098
0.994695
0.979372
0.979346
0.888624
0.667599
0.445796
0.448327
0.618804
0.642352
0.563631
0.530242
0.538314
0.587781
0.376877
0.374504
0.364849
0.334351
0.290213
0.266315
0.260556
0.265648
0.315646
0.420664
0.46813
0.470585
0.427174
0.326919
0.234896
0.191195
0.178859
0.174695
0.17303
0.172338
0.17205
0.172154
0.172632
0.173701
0.175217
0.17762
0.180991
0.185313
0.191197
0.200136
0.211701
0.226416
0.246329
0.26791
0.29268
0.316548
0.346031
0.37593
0.406089
0.441186
0.479835
0.520336
0.565434
0.618263
0.673871
0.726149
0.773079
0.813404
0.867431
0.936704
1.06492
1.24316
1.38965
1.48279
1.51526
1.47463
1.3869
1.22585
0.995706
0.866186
0.766794
0.62714
0.442883
0.334331
0.295362
0.285039
0.272778
0.254671
0.247392
0.246102
0.247238
0.248388
0.249212
0.250168
0.252634
0.255865
0.260964
0.270267
0.295816
0.345046
0.39139
0.422552
0.437489
0.440311
0.424864
0.378607
0.350938
0.349351
0.366363
0.465516
0.614511
0.733221
0.798445
0.831192
0.850822
0.909419
1.00512
1.05366
1.06173
1.05296
1.01805
1.00261
0.992523
0.907406
0.694582
0.449402
0.442546
0.61347
0.637897
0.551179
0.521801
0.52939
0.575423
0.381171
0.384394
0.387998
0.380167
0.349008
0.316997
0.308652
0.313503
0.366691
0.439863
0.460805
0.457836
0.414334
0.319772
0.23071
0.188882
0.176857
0.172958
0.171256
0.170408
0.16988
0.169447
0.169204
0.169254
0.169616
0.17041
0.171705
0.173642
0.17623
0.180524
0.185815
0.192672
0.204098
0.217706
0.239257
0.264188
0.299123
0.337514
0.3766
0.421279
0.469679
0.518857
0.571653
0.630533
0.693612
0.759615
0.826149
0.888305
0.961349
1.03781
1.15934
1.32265
1.45359
1.53556
1.57035
1.53678
1.45792
1.33598
1.14858
1.01163
0.877762
0.690571
0.468047
0.34368
0.299905
0.287341
0.271627
0.252991
0.243699
0.242247
0.243952
0.246314
0.248452
0.250048
0.25277
0.256142
0.260125
0.266768
0.279168
0.309888
0.358174
0.402844
0.425928
0.435204
0.42707
0.396404
0.384392
0.392276
0.422043
0.514088
0.630983
0.72586
0.777483
0.79927
0.812454
0.840972
0.935221
1.01534
1.04598
1.04462
1.02472
1.01313
0.999246
0.912287
0.709931
0.450261
0.442843
0.611146
0.632799
0.540452
0.516334
0.523344
0.559602
0.382401
0.386576
0.400172
0.403667
0.400104
0.388241
0.382338
0.384966
0.420491
0.446716
0.449825
0.437841
0.388283
0.303328
0.220788
0.185304
0.175788
0.172369
0.170519
0.169035
0.167914
0.16731
0.166873
0.166594
0.16652
0.166666
0.167083
0.167909
0.169086
0.171248
0.174032
0.177484
0.184266
0.191002
0.203132
0.216087
0.235935
0.263566
0.298373
0.346892
0.407818
0.471982
0.541652
0.617532
0.694816
0.771771
0.84616
0.923428
1.01225
1.10478
1.22927
1.38481
1.50215
1.57769
1.6102
1.58429
1.51226
1.41776
1.27446
1.13567
0.962817
0.729349
0.478459
0.348457
0.302995
0.289148
0.270299
0.250647
0.241762
0.241043
0.24297
0.245778
0.248457
0.252164
0.256151
0.260142
0.263801
0.267985
0.276039
0.295145
0.342178
0.389337
0.415004
0.424577
0.421986
0.406887
0.414519
0.43655
0.505119
0.605698
0.679483
0.731384
0.760944
0.772405
0.780471
0.799179
0.873935
0.975603
1.02673
1.03219
1.02245
1.01562
0.995755
0.885892
0.70699
0.440612
0.444625
0.6115
0.626422
0.530975
0.511037
0.516124
0.538429
0.381864
0.384943
0.400075
0.412033
0.415031
0.415612
0.41852
0.426126
0.436448
0.43863
0.434846
0.410987
0.353683
0.274609
0.206323
0.182975
0.175771
0.172539
0.170289
0.167739
0.166586
0.165941
0.165435
0.165045
0.164791
0.164639
0.164572
0.164634
0.164867
0.165562
0.166722
0.168338
0.172318
0.175993
0.183936
0.19244
0.204778
0.222018
0.241231
0.268965
0.307207
0.362132
0.438762
0.535382
0.639516
0.744746
0.843236
0.935341
1.03165
1.13411
1.26645
1.42286
1.53854
1.6094
1.64187
1.61882
1.55237
1.46834
1.36016
1.20478
1.01152
0.739034
0.474971
0.347026
0.304367
0.289828
0.267723
0.248752
0.241622
0.241205
0.243027
0.245881
0.250507
0.25682
0.263529
0.268476
0.271687
0.273678
0.278102
0.292277
0.337015
0.384342
0.408195
0.417528
0.416146
0.423639
0.445203
0.502714
0.606232
0.668134
0.706677
0.72936
0.743826
0.749058
0.753383
0.766559
0.828221
0.942938
1.00565
1.01807
1.01567
1.01205
0.97603
0.845983
0.666067
0.423848
0.456595
0.613862
0.6189
0.523061
0.506738
0.508907
0.509863
0.378627
0.376954
0.390631
0.408896
0.41512
0.416284
0.418741
0.423032
0.423311
0.420453
0.405063
0.367834
0.311961
0.248942
0.200411
0.183572
0.177394
0.174316
0.17009
0.167829
0.166653
0.165772
0.165097
0.164586
0.164236
0.164035
0.163857
0.163688
0.163561
0.16359
0.163751
0.164103
0.16543
0.166758
0.170693
0.175719
0.183664
0.196355
0.210734
0.230804
0.255995
0.285643
0.32964
0.398124
0.498326
0.632224
0.770787
0.900712
1.02363
1.13713
1.27105
1.42763
1.54516
1.61667
1.64772
1.62734
1.56547
1.49123
1.38445
1.24165
1.00643
0.726456
0.453524
0.338553
0.303306
0.28868
0.264687
0.248312
0.242489
0.242343
0.244142
0.248262
0.256144
0.266247
0.274077
0.27991
0.28079
0.279429
0.283089
0.295703
0.339631
0.383685
0.404655
0.414406
0.425167
0.45008
0.505745
0.606969
0.660951
0.691062
0.70873
0.718265
0.725631
0.724856
0.726703
0.738789
0.800709
0.924621
0.990526
1.00502
1.00631
0.99902
0.934562
0.802348
0.620045
0.418069
0.475274
0.619108
0.609857
0.513866
0.498558
0.494463
0.482848
0.376713
0.369445
0.36845
0.387325
0.400553
0.402476
0.400992
0.398435
0.392383
0.381989
0.361733
0.326402
0.2818
0.237914
0.204248
0.188121
0.181354
0.176479
0.174139
0.172933
0.171971
0.170394
0.169168
0.168702
0.171024
0.175067
0.176267
0.174206
0.17122
0.168872
0.166706
0.165199
0.16496
0.165126
0.166053
0.16777
0.170781
0.17794
0.187009
0.201864
0.223704
0.248002
0.27575
0.318529
0.382788
0.475341
0.608911
0.773494
0.942154
1.09201
1.24717
1.40637
1.52355
1.59551
1.62835
1.61054
1.56118
1.49021
1.40252
1.20823
1.01248
0.654111
0.409582
0.324755
0.301243
0.285647
0.262797
0.249163
0.24488
0.245206
0.247704
0.25487
0.268308
0.280454
0.289284
0.290313
0.283942
0.282775
0.287987
0.307499
0.357017
0.390353
0.407152
0.423515
0.456237
0.518483
0.612203
0.663807
0.683357
0.695938
0.703343
0.707444
0.709986
0.704803
0.703636
0.718179
0.792016
0.91829
0.977053
0.990234
0.991397
0.970265
0.863429
0.751088
0.54824
0.4161
0.499006
0.621697
0.59849
0.505493
0.489295
0.481414
0.454672
0.392216
0.367287
0.359451
0.356996
0.372164
0.386236
0.387358
0.384091
0.371247
0.351658
0.331477
0.304638
0.272171
0.240664
0.214062
0.196473
0.190153
0.188376
0.190216
0.197006
0.207781
0.23132
0.286127
0.330578
0.353172
0.368153
0.369035
0.343897
0.305162
0.268658
0.234892
0.204564
0.182785
0.172384
0.168355
0.167719
0.168441
0.170519
0.174113
0.181717
0.19544
0.216804
0.242736
0.2739
0.319761
0.384205
0.478536
0.604449
0.771254
0.961661
1.15591
1.34366
1.47615
1.55645
1.59141
1.58033
1.53338
1.48415
1.34272
1.21907
0.861905
0.538624
0.362548
0.31269
0.29923
0.283329
0.262395
0.251808
0.249667
0.250661
0.25587
0.270884
0.287893
0.30041
0.303016
0.294087
0.284399
0.286183
0.297034
0.336124
0.380962
0.402708
0.422777
0.462435
0.53243
0.620222
0.669646
0.687671
0.695572
0.703849
0.70495
0.703717
0.700281
0.688174
0.688145
0.708506
0.804102
0.923936
0.967145
0.97608
0.968642
0.917246
0.797223
0.690969
0.475892
0.415921
0.532293
0.630874
0.582357
0.49527
0.478815
0.467668
0.430697
0.446779
0.393765
0.360195
0.34776
0.342581
0.34435
0.362093
0.367247
0.365421
0.352022
0.325383
0.301076
0.275112
0.246462
0.220956
0.21152
0.210243
0.222255
0.271284
0.380156
0.481118
0.535456
0.559355
0.567572
0.563582
0.538196
0.501099
0.467901
0.425907
0.391626
0.366796
0.33697
0.294756
0.245066
0.20216
0.179215
0.172108
0.170988
0.172058
0.174475
0.179959
0.191815
0.21171
0.23986
0.276526
0.325013
0.39378
0.490933
0.620003
0.780686
0.985503
1.20787
1.38241
1.4746
1.51796
1.50347
1.47687
1.37888
1.32
0.995288
0.691253
0.415377
0.327907
0.307128
0.29878
0.282229
0.263567
0.256468
0.255966
0.259312
0.273322
0.297643
0.313819
0.317939
0.310202
0.292759
0.287846
0.294694
0.322338
0.378017
0.403042
0.423547
0.467549
0.547457
0.62772
0.673443
0.693089
0.70404
0.721442
0.729637
0.722338
0.706195
0.688111
0.674035
0.678766
0.717648
0.845968
0.928858
0.953398
0.956054
0.930498
0.83855
0.754889
0.605069
0.443064
0.424239
0.565761
0.63706
0.562321
0.482649
0.467039
0.45447
0.414619
0.52647
0.470619
0.414808
0.362065
0.337754
0.325295
0.319813
0.317287
0.330717
0.334093
0.330536
0.30692
0.276356
0.248963
0.234595
0.233014
0.255783
0.356485
0.516269
0.605702
0.634148
0.636078
0.618919
0.573021
0.527777
0.473754
0.420783
0.399661
0.383843
0.373612
0.368699
0.363494
0.353009
0.332555
0.298682
0.250541
0.204736
0.180804
0.174666
0.174734
0.176292
0.180549
0.189955
0.209642
0.240647
0.279431
0.330683
0.404938
0.505826
0.634753
0.808386
1.02976
1.21089
1.33003
1.36351
1.36673
1.3024
1.28784
1.0224
0.780703
0.464732
0.343105
0.313436
0.30778
0.300892
0.282348
0.265728
0.261622
0.26336
0.275739
0.308083
0.331534
0.336505
0.33184
0.310703
0.293973
0.297508
0.318822
0.375892
0.40551
0.422964
0.470249
0.559403
0.631158
0.673785
0.695803
0.719371
0.747849
0.758901
0.748664
0.725185
0.695915
0.672358
0.66619
0.684474
0.758689
0.876082
0.922167
0.936768
0.928025
0.867008
0.759475
0.689517
0.502543
0.434116
0.446584
0.596485
0.636484
0.541554
0.465766
0.45015
0.438777
0.40408
0.627669
0.575758
0.510435
0.452235
0.394001
0.348813
0.317996
0.294806
0.279173
0.272373
0.272368
0.275424
0.267052
0.248142
0.244776
0.263286
0.35818
0.533349
0.627752
0.64687
0.640809
0.605343
0.538206
0.440304
0.366051
0.34053
0.330218
0.328076
0.328802
0.334789
0.33944
0.3439
0.346361
0.344875
0.338062
0.32006
0.286495
0.235699
0.192482
0.179491
0.177187
0.178573
0.181998
0.190505
0.210165
0.240854
0.279347
0.334571
0.409117
0.504891
0.638843
0.812421
0.992148
1.09417
1.1359
1.10489
1.11291
0.926811
0.751421
0.480343
0.351503
0.316603
0.31392
0.312787
0.305091
0.281017
0.268641
0.268492
0.279345
0.318071
0.351782
0.360189
0.35746
0.337245
0.308459
0.304906
0.31997
0.374506
0.405177
0.420375
0.463574
0.568884
0.625451
0.66697
0.694776
0.734984
0.767077
0.767964
0.756638
0.738184
0.71067
0.676532
0.662987
0.669751
0.715278
0.823434
0.887998
0.910972
0.913338
0.873904
0.779177
0.711746
0.575363
0.463119
0.432552
0.485116
0.619802
0.632611
0.528575
0.444397
0.423661
0.411535
0.3869
0.683976
0.697784
0.649298
0.549898
0.472551
0.428768
0.386186
0.35121
0.303708
0.254345
0.233733
0.227605
0.226922
0.232581
0.252101
0.317426
0.485535
0.607619
0.637501
0.631561
0.591212
0.494958
0.380218
0.345175
0.337276
0.336903
0.348914
0.363166
0.364354
0.359127
0.348172
0.341078
0.338266
0.339228
0.3407
0.341474
0.332645
0.304762
0.256613
0.199281
0.182417
0.179424
0.180353
0.183211
0.191399
0.210788
0.237703
0.276261
0.32651
0.390848
0.482046
0.598589
0.716228
0.799131
0.815855
0.812581
0.733952
0.620513
0.448406
0.347005
0.314614
0.314995
0.322792
0.321018
0.304208
0.278621
0.274881
0.283566
0.326016
0.373339
0.387134
0.386083
0.373966
0.337015
0.319865
0.328642
0.373632
0.406565
0.418706
0.449079
0.556166
0.63286
0.65172
0.688376
0.740345
0.77769
0.77303
0.757789
0.739524
0.713981
0.681311
0.663903
0.668257
0.697527
0.786859
0.855868
0.882217
0.891636
0.86637
0.784539
0.707814
0.624359
0.491377
0.453764
0.444839
0.536829
0.634893
0.626143
0.519735
0.428191
0.393076
0.36377
0.350756
0.690294
0.752983
0.77738
0.744208
0.630523
0.485461
0.423328
0.394288
0.368147
0.337085
0.2663
0.226811
0.221412
0.230622
0.273866
0.402
0.561235
0.623218
0.624817
0.593422
0.498656
0.383987
0.348843
0.343041
0.346932
0.379606
0.415358
0.424598
0.425056
0.419401
0.402579
0.374105
0.348351
0.341493
0.342789
0.348206
0.348132
0.334612
0.306514
0.257372
0.200469
0.183954
0.180756
0.181506
0.184238
0.192232
0.209207
0.23364
0.264761
0.304675
0.359969
0.42672
0.488089
0.520612
0.523762
0.510569
0.462494
0.388254
0.33012
0.30877
0.311705
0.327996
0.333774
0.32567
0.294258
0.280994
0.287413
0.33141
0.392648
0.416057
0.420131
0.415022
0.385821
0.344852
0.347926
0.3755
0.414995
0.41762
0.434036
0.523325
0.638334
0.652257
0.665202
0.735417
0.782755
0.779659
0.761018
0.73401
0.702704
0.678504
0.665954
0.670967
0.695677
0.768784
0.831607
0.856346
0.866977
0.846735
0.778385
0.699908
0.632896
0.513441
0.474917
0.4562
0.472357
0.585179
0.642759
0.617768
0.511823
0.427884
0.378309
0.341164
0.330261
0.710414
0.748169
0.828348
0.856721
0.833857
0.715895
0.511985
0.412834
0.383773
0.3706
0.342293
0.265802
0.23522
0.241095
0.312577
0.484441
0.604469
0.628212
0.61431
0.547107
0.432104
0.36304
0.350103
0.351323
0.377012
0.425986
0.448997
0.453923
0.453972
0.447524
0.43596
0.424522
0.406883
0.381627
0.370252
0.371017
0.381574
0.388601
0.371997
0.330959
0.264349
0.20071
0.184246
0.181734
0.183006
0.186324
0.19492
0.20977
0.22846
0.252195
0.28344
0.317833
0.346172
0.359119
0.35916
0.352137
0.330681
0.307986
0.300183
0.30656
0.328101
0.34322
0.3405
0.315862
0.287426
0.290182
0.332256
0.405777
0.439074
0.458156
0.461041
0.446789
0.399056
0.381212
0.38855
0.424469
0.427382
0.423208
0.480133
0.614444
0.65958
0.657835
0.702667
0.781353
0.789122
0.770128
0.735322
0.702747
0.680809
0.672908
0.680351
0.707173
0.768233
0.812692
0.832312
0.840628
0.820499
0.759739
0.686747
0.62087
0.522373
0.489096
0.475315
0.472724
0.512395
0.618402
0.6463
0.611209
0.51081
0.435876
0.374575
0.338732
0.332436
0.845632
0.796837
0.826077
0.905042
0.928918
0.898126
0.751972
0.496601
0.393051
0.374163
0.365805
0.32114
0.262907
0.2612
0.357493
0.542858
0.629841
0.63597
0.609426
0.524537
0.4084
0.368054
0.364525
0.394515
0.504286
0.58526
0.605634
0.608595
0.59239
0.542908
0.48722
0.451345
0.436098
0.428552
0.428493
0.431863
0.444911
0.451672
0.441753
0.409097
0.344742
0.25448
0.197013
0.184826
0.183738
0.18611
0.191862
0.202207
0.214398
0.22901
0.246484
0.264255
0.278298
0.286287
0.290014
0.290451
0.289355
0.291515
0.301491
0.325616
0.348191
0.350559
0.336675
0.296557
0.292446
0.329874
0.411404
0.45499
0.488035
0.505326
0.501975
0.475573
0.433949
0.423515
0.437072
0.441134
0.43135
0.439445
0.558729
0.643965
0.663081
0.670762
0.756328
0.792033
0.786095
0.751098
0.719445
0.696466
0.692827
0.701841
0.729572
0.772879
0.797278
0.810658
0.812919
0.7887
0.732144
0.666289
0.602288
0.519898
0.495529
0.488784
0.486283
0.491703
0.550266
0.637643
0.647614
0.608782
0.519234
0.453775
0.384449
0.349471
0.343897
0.942914
0.911106
0.892551
0.915283
0.973129
0.981593
0.917447
0.692818
0.42527
0.372739
0.368549
0.355549
0.299267
0.289437
0.393958
0.584719
0.652888
0.649817
0.611843
0.514743
0.414662
0.393873
0.423106
0.573428
0.818033
0.955035
1.00382
1.01499
1.00098
0.92481
0.78679
0.635369
0.530299
0.476731
0.458832
0.456976
0.465334
0.472885
0.473281
0.458335
0.414038
0.326248
0.236767
0.198547
0.189902
0.189259
0.19317
0.202171
0.212755
0.224129
0.235869
0.246779
0.256181
0.264124
0.271332
0.277807
0.285305
0.297386
0.323392
0.349575
0.357106
0.349697
0.311242
0.295952
0.32352
0.407528
0.465756
0.498113
0.520072
0.531502
0.526857
0.505076
0.479096
0.469218
0.4644
0.445794
0.437849
0.475021
0.596823
0.649242
0.66557
0.698819
0.780553
0.79483
0.778488
0.741523
0.72494
0.725422
0.731736
0.746839
0.767974
0.78071
0.789169
0.783745
0.755564
0.704232
0.645024
0.579094
0.512135
0.496065
0.492425
0.489162
0.487353
0.503796
0.579445
0.644719
0.649103
0.611513
0.534382
0.482204
0.413944
0.362445
0.350796
0.953147
0.967304
0.958255
0.961714
0.994782
1.0204
0.995558
0.824134
0.50862
0.373371
0.366177
0.36797
0.330399
0.313291
0.411852
0.611129
0.674598
0.667019
0.620876
0.516581
0.448483
0.446574
0.514958
0.745445
1.0364
1.1825
1.23789
1.25831
1.26332
1.24667
1.18722
1.08313
0.943837
0.769733
0.607084
0.516538
0.489204
0.480167
0.474481
0.46354
0.438438
0.383393
0.306902
0.252515
0.219732
0.206387
0.203939
0.208126
0.216292
0.225943
0.236131
0.245714
0.254466
0.263069
0.271777
0.281676
0.29753
0.323801
0.349575
0.360784
0.357475
0.32854
0.300857
0.313108
0.38805
0.465333
0.500523
0.51915
0.536727
0.546179
0.54656
0.54211
0.526275
0.504458
0.474836
0.450932
0.451683
0.504927
0.605685
0.649038
0.666749
0.722558
0.788477
0.796166
0.773515
0.749828
0.746365
0.747638
0.751752
0.759522
0.767134
0.768803
0.75732
0.728021
0.680898
0.622398
0.551504
0.501188
0.49155
0.490448
0.488075
0.484033
0.486487
0.513836
0.592788
0.64878
0.652577
0.618846
0.551126
0.50991
0.44864
0.37799
0.357083
0.913124
0.968782
0.993014
0.998029
1.01718
1.03939
1.02447
0.877691
0.551378
0.380569
0.364066
0.371297
0.356464
0.334719
0.421808
0.636517
0.704698
0.695738
0.649146
0.553277
0.520863
0.525815
0.608498
0.881319
1.11359
1.20498
1.24101
1.25871
1.26893
1.28184
1.29532
1.29361
1.25849
1.1694
1.021
0.840911
0.664051
0.539674
0.48562
0.466466
0.443801
0.404666
0.360698
0.324665
0.293355
0.267531
0.248385
0.238416
0.236257
0.239869
0.246426
0.254162
0.26343
0.27424
0.287416
0.305184
0.328093
0.35027
0.362531
0.361997
0.344629
0.306663
0.306813
0.367182
0.456441
0.49793
0.51655
0.534385
0.55335
0.561895
0.56309
0.559727
0.549882
0.523798
0.48275
0.46384
0.467437
0.512272
0.604026
0.643594
0.665049
0.733792
0.793799
0.800018
0.778259
0.76133
0.756695
0.755198
0.755305
0.757269
0.753836
0.739162
0.70971
0.663609
0.601671
0.526404
0.489556
0.483443
0.483253
0.481144
0.475477
0.474314
0.483312
0.514488
0.593559
0.651974
0.658789
0.632533
0.57017
0.534049
0.48838
0.411844
0.370982
0.797766
0.947187
0.999936
1.02219
1.0382
1.04858
1.02713
0.879547
0.553206
0.389679
0.362848
0.3704
0.37184
0.350954
0.416588
0.653289
0.751079
0.746416
0.712607
0.653126
0.633472
0.645709
0.754239
0.985647
1.11553
1.1655
1.17887
1.15815
1.15642
1.16597
1.21023
1.25864
1.26769
1.26102
1.22436
1.14327
0.995696
0.811165
0.634345
0.525323
0.464873
0.420266
0.380339
0.359606
0.349132
0.334087
0.314688
0.299983
0.289787
0.284366
0.283831
0.287468
0.29504
0.306323
0.320033
0.336362
0.352941
0.363455
0.364375
0.35438
0.31662
0.305903
0.339442
0.435975
0.488719
0.51173
0.531263
0.554373
0.56812
0.570781
0.569931
0.567341
0.561905
0.543831
0.506595
0.480955
0.479653
0.508602
0.587325
0.631705
0.662485
0.73923
0.799208
0.806097
0.78609
0.769605
0.764293
0.759768
0.754231
0.747894
0.731643
0.703129
0.656875
0.590293
0.5103
0.479563
0.473848
0.472388
0.46555
0.455179
0.452939
0.459543
0.478172
0.510036
0.585716
0.650591
0.663079
0.649814
0.59522
0.55548
0.528525
0.463197
0.406524
0.714715
0.911779
1.00017
1.03395
1.0507
1.04808
0.973773
0.717174
0.448021
0.392607
0.368539
0.366636
0.38082
0.365283
0.40588
0.65215
0.801579
0.818212
0.799669
0.774411
0.766025
0.799339
0.907393
1.02584
1.07236
1.07365
0.995564
0.877629
0.842801
0.839139
0.882017
1.00368
1.11553
1.17062
1.18252
1.15821
1.08795
0.970241
0.821527
0.704192
0.610825
0.504063
0.424165
0.386536
0.370015
0.367502
0.360205
0.350005
0.340827
0.333632
0.329475
0.329199
0.332372
0.338763
0.347885
0.357647
0.364349
0.365245
0.359035
0.328214
0.30783
0.319502
0.403905
0.472733
0.502665
0.524939
0.551908
0.571307
0.57785
0.581174
0.579477
0.575586
0.57181
0.56266
0.537773
0.496713
0.48669
0.49717
0.547733
0.611396
0.651573
0.731208
0.802773
0.814139
0.798947
0.779498
0.772406
0.764393
0.752791
0.738011
0.708612
0.662616
0.591386
0.506027
0.472403
0.465182
0.46158
0.445975
0.423745
0.418457
0.420976
0.437645
0.462718
0.490779
0.549584
0.636531
0.665016
0.665149
0.626979
0.581882
0.565729
0.521621
0.46508
0.762741
0.938741
1.01557
1.04278
1.04945
0.992992
0.753759
0.474993
0.409654
0.389447
0.376306
0.365981
0.385725
0.376623
0.39374
0.630277
0.836678
0.894982
0.897919
0.890991
0.894559
0.929563
0.979185
1.00759
1.00133
0.896128
0.678375
0.547192
0.512913
0.505727
0.51767
0.584348
0.704345
0.865511
0.988709
1.03537
1.02936
0.961636
0.841667
0.742856
0.706407
0.656066
0.584548
0.495242
0.40414
0.38238
0.376792
0.372826
0.367893
0.363311
0.359767
0.357765
0.357652
0.359536
0.362647
0.365011
0.365073
0.360441
0.337332
0.31246
0.311
0.365893
0.448391
0.487524
0.511695
0.543593
0.579003
0.599351
0.60693
0.604406
0.597905
0.589944
0.582046
0.574422
0.559058
0.522171
0.494408
0.493674
0.515126
0.569834
0.623612
0.69669
0.798271
0.823866
0.819926
0.794759
0.783793
0.772525
0.751965
0.724679
0.675414
0.601706
0.510164
0.467532
0.458164
0.454011
0.434494
0.391529
0.374907
0.373375
0.379061
0.402087
0.43416
0.459649
0.502756
0.596663
0.658892
0.674086
0.667146
0.620002
0.590924
0.576225
0.534514
0.89986
0.978518
1.00996
1.00952
0.924893
0.691955
0.462644
0.413495
0.39955
0.395187
0.388144
0.370475
0.38549
0.386779
0.386138
0.576703
0.845988
0.962183
0.986251
0.988227
0.991708
0.999462
1.0036
0.974689
0.878682
0.648144
0.479793
0.428383
0.408724
0.395993
0.394905
0.405157
0.432703
0.499163
0.637865
0.806772
0.883932
0.892204
0.831788
0.722996
0.683807
0.670834
0.664784
0.630788
0.531095
0.424124
0.390084
0.379673
0.374942
0.371136
0.368277
0.366377
0.364989
0.36449
0.36444
0.363683
0.35895
0.341037
0.318849
0.310856
0.33223
0.413508
0.467816
0.493979
0.525999
0.573849
0.625217
0.658393
0.668772
0.66186
0.641927
0.623437
0.607218
0.594735
0.583421
0.564306
0.517785
0.503142
0.506556
0.525795
0.577815
0.646746
0.771487
0.830005
0.835468
0.82046
0.79586
0.780076
0.744763
0.695128
0.617748
0.518076
0.462496
0.451515
0.448915
0.435467
0.386351
0.334419
0.322489
0.321006
0.327662
0.354435
0.39083
0.417425
0.451131
0.516541
0.612363
0.667947
0.68037
0.668983
0.620174
0.606081
0.594414
0.872226
0.885037
0.833963
0.694717
0.512816
0.436525
0.415374
0.415987
0.432836
0.436632
0.424227
0.385782
0.386282
0.39498
0.382302
0.512898
0.831649
0.995963
1.05275
1.05456
1.04611
1.03658
0.998268
0.895712
0.694696
0.495357
0.424342
0.401521
0.390454
0.376581
0.363644
0.36074
0.364366
0.378066
0.415316
0.509202
0.682327
0.784415
0.801825
0.734848
0.623483
0.601568
0.643207
0.651454
0.631562
0.556044
0.43952
0.39362
0.379016
0.371916
0.367311
0.364485
0.362745
0.361421
0.359158
0.352834
0.339625
0.324197
0.314544
0.317117
0.372008
0.44068
0.474496
0.50041
0.54281
0.624711
0.704696
0.741984
0.753657
0.752859
0.734526
0.702269
0.668211
0.641531
0.622722
0.607626
0.582282
0.527211
0.511775
0.515826
0.530877
0.586228
0.700974
0.816655
0.843814
0.838547
0.809649
0.781511
0.729635
0.650114
0.540459
0.459524
0.443531
0.442532
0.440266
0.408786
0.332116
0.28334
0.274392
0.273709
0.279683
0.300508
0.331283
0.363519
0.395383
0.440569
0.502316
0.614284
0.671707
0.687943
0.680339
0.635561
0.625047
0.571877
0.520115
0.459583
0.425713
0.42223
0.432083
0.459519
0.478907
0.490951
0.483077
0.461884
0.411426
0.389749
0.401588
0.382893
0.449895
0.777618
0.997083
1.08343
1.09541
1.08021
1.05361
0.981703
0.81572
0.592986
0.452262
0.414895
0.401012
0.393459
0.381871
0.36363
0.352708
0.348472
0.348668
0.355331
0.377693
0.441972
0.601605
0.731021
0.755987
0.669441
0.537943
0.52776
0.600118
0.628215
0.616539
0.557262
0.462282
0.397162
0.376356
0.367269
0.361429
0.355984
0.351266
0.345781
0.33796
0.328307
0.319915
0.316388
0.340604
0.405563
0.45232
0.476413
0.505189
0.577432
0.694572
0.754807
0.766187
0.773254
0.78221
0.788164
0.786662
0.772186
0.741876
0.707013
0.678372
0.657173
0.616529
0.545282
0.521458
0.521497
0.533329
0.594196
0.754374
0.839799
0.849416
0.826779
0.779564
0.7123
0.600291
0.475309
0.43522
0.431929
0.437714
0.433739
0.383314
0.292117
0.26065
0.256345
0.256627
0.261251
0.270789
0.281068
0.296261
0.330314
0.372197
0.417399
0.484861
0.597627
0.672997
0.699546
0.70073
0.658429
0.421238
0.430266
0.445727
0.464746
0.480392
0.482453
0.486973
0.509723
0.517092
0.506248
0.480338
0.429862
0.399702
0.409553
0.390604
0.400667
0.669921
0.968595
1.08841
1.1156
1.10539
1.06695
0.985499
0.809944
0.580827
0.448369
0.417998
0.413685
0.41775
0.412034
0.376504
0.35668
0.348462
0.34359
0.341499
0.344319
0.357791
0.404162
0.551614
0.705326
0.734323
0.611747
0.484225
0.476681
0.545357
0.594363
0.587181
0.548128
0.481093
0.414716
0.379716
0.365255
0.356691
0.349992
0.34305
0.334751
0.326818
0.321471
0.32941
0.371101
0.424779
0.455611
0.475931
0.517395
0.640421
0.739156
0.761501
0.760701
0.762269
0.772547
0.787496
0.800902
0.811048
0.816407
0.813027
0.794921
0.764296
0.742061
0.665181
0.573222
0.533737
0.525739
0.534992
0.609809
0.78402
0.845688
0.841497
0.787922
0.701163
0.561922
0.440586
0.416149
0.419491
0.436399
0.432744
0.376796
0.281843
0.253797
0.250405
0.250966
0.255622
0.263155
0.267463
0.27129
0.279868
0.298218
0.339812
0.390461
0.450724
0.564429
0.66488
0.710897
0.721626
0.477286
0.503944
0.513702
0.514476
0.505809
0.50006
0.504165
0.525301
0.538885
0.528298
0.496741
0.444352
0.41524
0.418531
0.406941
0.387512
0.514342
0.882112
1.07079
1.12169
1.1188
1.09142
0.999916
0.825073
0.595167
0.458193
0.433217
0.449966
0.463716
0.455632
0.412075
0.379788
0.35901
0.346711
0.339489
0.337651
0.338789
0.346888
0.382386
0.520504
0.692385
0.728527
0.58432
0.469503
0.452878
0.488203
0.549396
0.550533
0.524227
0.482907
0.439066
0.400624
0.376009
0.359232
0.348345
0.337868
0.33205
0.333949
0.352305
0.395749
0.432874
0.454152
0.476816
0.558126
0.700555
0.75853
0.755919
0.731458
0.706789
0.706458
0.736258
0.774532
0.803046
0.822858
0.839999
0.85783
0.868127
0.845394
0.835616
0.751682
0.62857
0.551673
0.528312
0.532053
0.608648
0.796118
0.843633
0.816043
0.717342
0.563894
0.422697
0.396183
0.402734
0.43447
0.437198
0.389257
0.288894
0.252322
0.248012
0.248483
0.253438
0.260999
0.264392
0.266148
0.26856
0.271926
0.281177
0.30533
0.356783
0.414507
0.513727
0.641408
0.712693
0.55451
0.563933
0.563897
0.555643
0.533156
0.519722
0.514378
0.530099
0.552054
0.546431
0.517421
0.461839
0.433787
0.430465
0.422485
0.388749
0.42395
0.698835
1.00012
1.11011
1.12385
1.11139
1.04492
0.883373
0.66259
0.506826
0.482092
0.499719
0.5189
0.517329
0.483936
0.434853
0.39485
0.36498
0.345131
0.337353
0.335431
0.336401
0.341668
0.371631
0.509568
0.691161
0.725479
0.613
0.473016
0.440084
0.446144
0.491819
0.509643
0.491389