/*--------------------------------*- C++ -*----------------------------------*\
  =========                 |
  \\      /  F ield         | OpenFOAM: The Open Source CFD Toolbox
   \\    /   O peration     | Website:  https://openfoam.org
    \\  /    A nd           | Version:  10
     \\/     M anipulation  |
\*---------------------------------------------------------------------------*/
FoamFile
{
    format      ascii;
    class       volVectorField;
    location    "0.900622";
    object      U;
}
// * * * * * * * * * * * * * * * * * * * * * * * * * * * * * * * * * * * * * //

dimensions      [0 1 -1 0 0 0 0];

internalField   nonuniform List<vector> 
16320
(
(-0.154531 -0.19629 0)
(-0.146517 -0.166207 0)
(-0.138474 -0.124584 0)
(-0.128857 -0.0727708 0)
(-0.121067 -0.0123327 0)
(-0.116651 0.0486959 0)
(-0.115904 0.103368 0)
(-0.135764 0.157568 0)
(-0.155161 0.191156 0)
(-0.161477 0.199759 0)
(-0.168885 0.20264 0)
(-0.179329 0.196504 0)
(-0.187514 0.183688 0)
(-0.193556 0.172244 0)
(-0.196796 0.177043 0)
(-0.186387 0.191725 0)
(-0.160154 0.213133 0)
(-0.126126 0.237687 0)
(-0.0900558 0.263489 0)
(-0.054545 0.286556 0)
(-0.0181014 0.306326 0)
(0.0217935 0.322873 0)
(0.0604532 0.333913 0)
(0.0963816 0.342865 0)
(0.131149 0.351901 0)
(0.165618 0.361399 0)
(0.200199 0.370274 0)
(0.234943 0.379103 0)
(0.270465 0.387816 0)
(0.30701 0.395148 0)
(0.343885 0.400884 0)
(0.380507 0.405055 0)
(0.416141 0.407181 0)
(0.451925 0.406797 0)
(0.485249 0.405713 0)
(0.518011 0.402396 0)
(0.549862 0.400126 0)
(0.578206 0.397377 0)
(0.604414 0.395189 0)
(0.627261 0.393853 0)
(0.651414 0.393486 0)
(0.664069 0.397787 0)
(0.677217 0.400371 0)
(0.687339 0.410138 0)
(0.694049 0.420298 0)
(0.690055 0.429389 0)
(0.677991 0.438582 0)
(0.661993 0.444619 0)
(0.632484 0.453275 0)
(0.596535 0.458908 0)
(0.560478 0.462079 0)
(0.529258 0.463323 0)
(0.507842 0.460794 0)
(0.495277 0.454531 0)
(0.491637 0.440545 0)
(0.497531 0.417752 0)
(0.495175 0.396381 0)
(0.477325 0.366497 0)
(0.460373 0.312999 0)
(0.439648 0.244142 0)
(0.414557 0.163993 0)
(0.385825 0.0742647 0)
(0.349148 -0.0240247 0)
(0.308326 -0.127664 0)
(0.272817 -0.208081 0)
(0.245062 -0.255893 0)
(0.224559 -0.285478 0)
(0.203747 -0.308589 0)
(0.182282 -0.32951 0)
(0.163723 -0.346708 0)
(0.150455 -0.358301 0)
(0.141268 -0.363417 0)
(0.133762 -0.360299 0)
(0.131425 -0.34909 0)
(0.134527 -0.332209 0)
(0.140809 -0.312856 0)
(0.145895 -0.291389 0)
(0.147383 -0.271419 0)
(0.146752 -0.255138 0)
(0.145067 -0.24592 0)
(0.139402 -0.245709 0)
(0.120029 -0.25276 0)
(0.0917177 -0.272627 0)
(0.065433 -0.306264 0)
(0.0393949 -0.339903 0)
(0.017769 -0.358673 0)
(0.00263267 -0.344701 0)
(0.013121 -0.308941 0)
(0.0389922 -0.274404 0)
(0.0601919 -0.24381 0)
(0.0810621 -0.21634 0)
(0.104648 -0.185711 0)
(0.133416 -0.148495 0)
(0.162675 -0.107752 0)
(0.188201 -0.0739119 0)
(0.207063 -0.0532843 0)
(0.213732 -0.0459419 0)
(0.210391 -0.0538133 0)
(0.196827 -0.0809761 0)
(0.152396 -0.135052 0)
(0.0743464 -0.216609 0)
(0.0050005 -0.305463 0)
(-0.0508899 -0.387449 0)
(-0.0955754 -0.477275 0)
(-0.13235 -0.578146 0)
(-0.165335 -0.606818 0)
(-0.181061 -0.537063 0)
(-0.171984 -0.441747 0)
(-0.160154 -0.366806 0)
(-0.154002 -0.307219 0)
(-0.148956 -0.243792 0)
(-0.145382 -0.17919 0)
(-0.142696 -0.122373 0)
(-0.169456 -0.212981 0)
(-0.166404 -0.183592 0)
(-0.16364 -0.142059 0)
(-0.159925 -0.0906741 0)
(-0.154559 -0.0324116 0)
(-0.150772 0.0329657 0)
(-0.149632 0.0919906 0)
(-0.154186 0.144311 0)
(-0.177624 0.191672 0)
(-0.188121 0.209154 0)
(-0.187498 0.210829 0)
(-0.191908 0.207735 0)
(-0.197174 0.195999 0)
(-0.199139 0.181253 0)
(-0.202419 0.174153 0)
(-0.20308 0.179625 0)
(-0.186117 0.192498 0)
(-0.156445 0.210772 0)
(-0.120142 0.230948 0)
(-0.0802557 0.252362 0)
(-0.0404536 0.274664 0)
(-0.00245343 0.29567 0)
(0.0387081 0.314671 0)
(0.0785328 0.328103 0)
(0.115866 0.338748 0)
(0.152031 0.347866 0)
(0.187672 0.356166 0)
(0.223108 0.364511 0)
(0.257656 0.37305 0)
(0.291409 0.380813 0)
(0.324517 0.387152 0)
(0.357054 0.392552 0)
(0.388649 0.396738 0)
(0.419212 0.399895 0)
(0.44842 0.400787 0)
(0.476688 0.401915 0)
(0.503521 0.400751 0)
(0.528483 0.399324 0)
(0.551485 0.398114 0)
(0.572859 0.397785 0)
(0.592187 0.399224 0)
(0.609105 0.399948 0)
(0.624241 0.408304 0)
(0.636773 0.413122 0)
(0.641164 0.421405 0)
(0.64606 0.426032 0)
(0.646695 0.435073 0)
(0.637696 0.440569 0)
(0.616034 0.445786 0)
(0.581797 0.452667 0)
(0.547098 0.456775 0)
(0.516736 0.458166 0)
(0.496624 0.456242 0)
(0.484935 0.451086 0)
(0.481384 0.439475 0)
(0.491085 0.418849 0)
(0.499623 0.39408 0)
(0.490349 0.370805 0)
(0.473147 0.323212 0)
(0.457 0.258018 0)
(0.434646 0.181334 0)
(0.408822 0.095157 0)
(0.373969 -0.00104173 0)
(0.332342 -0.106895 0)
(0.298678 -0.191663 0)
(0.271133 -0.244087 0)
(0.249526 -0.276762 0)
(0.228284 -0.302222 0)
(0.2066 -0.324642 0)
(0.188168 -0.343226 0)
(0.174269 -0.355948 0)
(0.163438 -0.363247 0)
(0.153858 -0.363894 0)
(0.147252 -0.357234 0)
(0.144427 -0.343468 0)
(0.150037 -0.325044 0)
(0.158303 -0.306979 0)
(0.162445 -0.287948 0)
(0.162927 -0.270612 0)
(0.161752 -0.258689 0)
(0.158809 -0.255052 0)
(0.149939 -0.261498 0)
(0.130667 -0.27471 0)
(0.10465 -0.298504 0)
(0.0778357 -0.327457 0)
(0.0541402 -0.353151 0)
(0.0356897 -0.359372 0)
(0.022599 -0.333724 0)
(0.0340138 -0.296018 0)
(0.056186 -0.261836 0)
(0.0780085 -0.232656 0)
(0.101203 -0.203111 0)
(0.127418 -0.166933 0)
(0.15688 -0.124391 0)
(0.184534 -0.082528 0)
(0.206947 -0.0527925 0)
(0.219553 -0.0376917 0)
(0.220363 -0.0380182 0)
(0.21216 -0.0561817 0)
(0.189419 -0.0957555 0)
(0.134859 -0.158392 0)
(0.0643111 -0.242198 0)
(0.00300129 -0.333877 0)
(-0.0517962 -0.43221 0)
(-0.0882274 -0.541445 0)
(-0.126012 -0.602192 0)
(-0.158311 -0.541566 0)
(-0.15495 -0.443423 0)
(-0.146451 -0.366662 0)
(-0.143746 -0.306218 0)
(-0.14165 -0.240262 0)
(-0.139429 -0.172851 0)
(-0.135251 -0.113517 0)
(-0.191494 -0.224828 0)
(-0.194234 -0.196623 0)
(-0.196624 -0.15633 0)
(-0.19781 -0.105813 0)
(-0.196055 -0.0483087 0)
(-0.194364 0.017202 0)
(-0.194808 0.0808098 0)
(-0.194787 0.136489 0)
(-0.208956 0.182525 0)
(-0.220509 0.209774 0)
(-0.216249 0.21406 0)
(-0.212685 0.213228 0)
(-0.213766 0.203991 0)
(-0.212666 0.190646 0)
(-0.213221 0.176745 0)
(-0.215518 0.173847 0)
(-0.206636 0.177557 0)
(-0.182696 0.188463 0)
(-0.149966 0.203157 0)
(-0.111361 0.219414 0)
(-0.0693677 0.236616 0)
(-0.0263823 0.25598 0)
(0.0184272 0.279562 0)
(0.0619512 0.300442 0)
(0.100725 0.316658 0)
(0.137245 0.33018 0)
(0.173283 0.342864 0)
(0.209335 0.353852 0)
(0.24417 0.363342 0)
(0.27714 0.371108 0)
(0.309309 0.377372 0)
(0.340581 0.38284 0)
(0.369875 0.387446 0)
(0.397397 0.390813 0)
(0.423221 0.392678 0)
(0.44782 0.393763 0)
(0.470977 0.394021 0)
(0.492752 0.393847 0)
(0.513141 0.393701 0)
(0.532097 0.394184 0)
(0.550007 0.395412 0)
(0.56624 0.398263 0)
(0.580734 0.40298 0)
(0.592464 0.409078 0)
(0.602227 0.414977 0)
(0.608968 0.423831 0)
(0.611251 0.428964 0)
(0.605205 0.43388 0)
(0.589358 0.435279 0)
(0.561933 0.439502 0)
(0.52887 0.444627 0)
(0.500248 0.447453 0)
(0.482498 0.44734 0)
(0.473001 0.444193 0)
(0.470753 0.435483 0)
(0.482637 0.418439 0)
(0.499514 0.393851 0)
(0.49937 0.369713 0)
(0.483697 0.329602 0)
(0.470501 0.269525 0)
(0.451329 0.197376 0)
(0.428277 0.116212 0)
(0.395647 0.0203517 0)
(0.355754 -0.0873163 0)
(0.324861 -0.17531 0)
(0.298097 -0.231638 0)
(0.275559 -0.267188 0)
(0.253852 -0.295288 0)
(0.232746 -0.31956 0)
(0.215484 -0.339417 0)
(0.201905 -0.353452 0)
(0.190465 -0.363208 0)
(0.179845 -0.368075 0)
(0.171925 -0.367461 0)
(0.167035 -0.358681 0)
(0.163723 -0.341634 0)
(0.167017 -0.323031 0)
(0.174499 -0.305095 0)
(0.177794 -0.288543 0)
(0.176578 -0.274562 0)
(0.173522 -0.267786 0)
(0.168806 -0.270261 0)
(0.159624 -0.282869 0)
(0.14397 -0.301744 0)
(0.119051 -0.323065 0)
(0.092058 -0.343067 0)
(0.0718121 -0.3542 0)
(0.0519323 -0.344557 0)
(0.0476073 -0.314536 0)
(0.0616899 -0.281499 0)
(0.0785892 -0.249324 0)
(0.0997149 -0.217924 0)
(0.123574 -0.181889 0)
(0.150164 -0.138681 0)
(0.177294 -0.0919479 0)
(0.200571 -0.0537012 0)
(0.216014 -0.0306492 0)
(0.220368 -0.0241091 0)
(0.21439 -0.0347477 0)
(0.1987 -0.0663066 0)
(0.164236 -0.116611 0)
(0.105604 -0.186033 0)
(0.047912 -0.275501 0)
(-0.0109448 -0.38243 0)
(-0.0502748 -0.496914 0)
(-0.0869658 -0.586881 0)
(-0.132213 -0.537053 0)
(-0.137663 -0.438602 0)
(-0.1321 -0.361567 0)
(-0.13331 -0.300994 0)
(-0.134905 -0.234395 0)
(-0.135317 -0.165982 0)
(-0.131007 -0.106109 0)
(-0.218706 -0.231041 0)
(-0.22844 -0.204213 0)
(-0.236585 -0.166001 0)
(-0.24189 -0.117959 0)
(-0.243003 -0.0613088 0)
(-0.244662 0.00357619 0)
(-0.246517 0.0678383 0)
(-0.24396 0.125382 0)
(-0.250989 0.170952 0)
(-0.257283 0.198169 0)
(-0.248301 0.209697 0)
(-0.239124 0.212391 0)
(-0.2354 0.206699 0)
(-0.23108 0.195604 0)
(-0.227593 0.181612 0)
(-0.227226 0.172079 0)
(-0.222073 0.167548 0)
(-0.202266 0.17042 0)
(-0.173294 0.17884 0)
(-0.137918 0.190326 0)
(-0.0976908 0.204064 0)
(-0.0545068 0.22003 0)
(-0.00985285 0.238461 0)
(0.0376025 0.26015 0)
(0.0829707 0.280706 0)
(0.124969 0.298793 0)
(0.163897 0.316383 0)
(0.200443 0.332356 0)
(0.23458 0.34615 0)
(0.266337 0.35855 0)
(0.297354 0.369718 0)
(0.327587 0.378403 0)
(0.355486 0.38478 0)
(0.38084 0.388526 0)
(0.40457 0.390379 0)
(0.427331 0.391084 0)
(0.448673 0.390982 0)
(0.468439 0.390195 0)
(0.486646 0.389202 0)
(0.50353 0.388873 0)
(0.519543 0.389743 0)
(0.534636 0.391758 0)
(0.54846 0.395552 0)
(0.560364 0.400666 0)
(0.569669 0.406889 0)
(0.576584 0.41245 0)
(0.579722 0.417962 0)
(0.57579 0.421998 0)
(0.562195 0.425357 0)
(0.538359 0.427462 0)
(0.508918 0.431936 0)
(0.482372 0.435529 0)
(0.467486 0.437738 0)
(0.460723 0.436996 0)
(0.460566 0.431218 0)
(0.474193 0.418139 0)
(0.495442 0.395863 0)
(0.502616 0.369009 0)
(0.491205 0.333744 0)
(0.478818 0.279246 0)
(0.463609 0.211884 0)
(0.443382 0.135274 0)
(0.412933 0.0396914 0)
(0.377666 -0.0691174 0)
(0.350813 -0.159095 0)
(0.325143 -0.218161 0)
(0.301884 -0.256644 0)
(0.28013 -0.287663 0)
(0.260372 -0.314311 0)
(0.244466 -0.335991 0)
(0.23133 -0.352366 0)
(0.220276 -0.364787 0)
(0.210185 -0.372902 0)
(0.201515 -0.375807 0)
(0.194744 -0.372537 0)
(0.188973 -0.361921 0)
(0.184274 -0.342882 0)
(0.184156 -0.322717 0)
(0.188069 -0.30589 0)
(0.188617 -0.292158 0)
(0.184943 -0.283004 0)
(0.179633 -0.281788 0)
(0.173592 -0.290067 0)
(0.166202 -0.306538 0)
(0.151426 -0.323599 0)
(0.127572 -0.33631 0)
(0.105554 -0.344309 0)
(0.0829105 -0.340027 0)
(0.0683381 -0.321647 0)
(0.0771454 -0.297545 0)
(0.0893314 -0.265494 0)
(0.104273 -0.230467 0)
(0.123018 -0.192689 0)
(0.144674 -0.148967 0)
(0.168038 -0.0997264 0)
(0.189897 -0.0544772 0)
(0.205626 -0.0240899 0)
(0.211838 -0.0107591 0)
(0.207839 -0.0153906 0)
(0.195082 -0.0392838 0)
(0.169092 -0.0839887 0)
(0.124799 -0.143693 0)
(0.0783058 -0.224102 0)
(0.0250584 -0.3305 0)
(-0.0191356 -0.45153 0)
(-0.0526997 -0.56179 0)
(-0.105711 -0.523788 0)
(-0.121375 -0.426857 0)
(-0.118037 -0.351572 0)
(-0.123506 -0.290978 0)
(-0.129469 -0.225269 0)
(-0.132624 -0.157497 0)
(-0.12896 -0.0986512 0)
(-0.247644 -0.231324 0)
(-0.263149 -0.206234 0)
(-0.277087 -0.170658 0)
(-0.287273 -0.125802 0)
(-0.292029 -0.0716649 0)
(-0.296627 -0.00923291 0)
(-0.29934 0.0530067 0)
(-0.294664 0.109025 0)
(-0.295283 0.152888 0)
(-0.293488 0.180618 0)
(-0.279492 0.198591 0)
(-0.267103 0.206153 0)
(-0.259513 0.20509 0)
(-0.251285 0.197584 0)
(-0.244011 0.185629 0)
(-0.240169 0.171794 0)
(-0.234419 0.160469 0)
(-0.216094 0.155706 0)
(-0.189532 0.157607 0)
(-0.157164 0.164193 0)
(-0.119981 0.174561 0)
(-0.0793212 0.188277 0)
(-0.036611 0.204572 0)
(0.00865739 0.224352 0)
(0.056669 0.246903 0)
(0.102001 0.266537 0)
(0.14432 0.283825 0)
(0.184626 0.300755 0)
(0.223545 0.317315 0)
(0.260233 0.333946 0)
(0.29339 0.35005 0)
(0.323069 0.363737 0)
(0.348817 0.374541 0)
(0.371767 0.383526 0)
(0.39348 0.390524 0)
(0.414029 0.394909 0)
(0.432882 0.396625 0)
(0.450279 0.39516 0)
(0.466673 0.392691 0)
(0.482447 0.390546 0)
(0.497587 0.389034 0)
(0.5116 0.388236 0)
(0.524187 0.388993 0)
(0.534917 0.391583 0)
(0.543586 0.395747 0)
(0.55015 0.400825 0)
(0.553419 0.40564 0)
(0.550358 0.410087 0)
(0.53853 0.413641 0)
(0.516878 0.417024 0)
(0.489074 0.421264 0)
(0.465018 0.42603 0)
(0.452996 0.430424 0)
(0.448662 0.432013 0)
(0.450953 0.428964 0)
(0.466032 0.41916 0)
(0.488689 0.399474 0)
(0.500732 0.371368 0)
(0.494517 0.337291 0)
(0.483097 0.287766 0)
(0.471134 0.224417 0)
(0.453926 0.150868 0)
(0.426331 0.0558961 0)
(0.397538 -0.0528906 0)
(0.375872 -0.143588 0)
(0.351532 -0.2042 0)
(0.327665 -0.245399 0)
(0.306158 -0.279408 0)
(0.287931 -0.30901 0)
(0.273431 -0.333324 0)
(0.26145 -0.352503 0)
(0.251042 -0.36684 0)
(0.241125 -0.376616 0)
(0.231332 -0.381105 0)
(0.222366 -0.380253 0)
(0.214351 -0.373765 0)
(0.206758 -0.360819 0)
(0.199258 -0.341898 0)
(0.195501 -0.322196 0)
(0.194672 -0.308655 0)
(0.191785 -0.299509 0)
(0.186571 -0.296581 0)
(0.180309 -0.300621 0)
(0.17501 -0.311554 0)
(0.166404 -0.323566 0)
(0.148651 -0.332065 0)
(0.129646 -0.335925 0)
(0.108773 -0.332375 0)
(0.0907621 -0.318814 0)
(0.094845 -0.29986 0)
(0.103762 -0.272168 0)
(0.112878 -0.237202 0)
(0.125224 -0.19752 0)
(0.140722 -0.153319 0)
(0.157973 -0.10356 0)
(0.175817 -0.0532412 0)
(0.189989 -0.0167289 0)
(0.196142 0.00278034 0)
(0.193151 0.00373971 0)
(0.182629 -0.0153349 0)
(0.160978 -0.0552671 0)
(0.127112 -0.110141 0)
(0.0922277 -0.183509 0)
(0.0501537 -0.285169 0)
(0.0068458 -0.406753 0)
(-0.0238983 -0.529243 0)
(-0.0807655 -0.501937 0)
(-0.107059 -0.408466 0)
(-0.105466 -0.336737 0)
(-0.114975 -0.276752 0)
(-0.125847 -0.212704 0)
(-0.131369 -0.147218 0)
(-0.128756 -0.0911731 0)
(-0.273712 -0.226483 0)
(-0.294209 -0.203841 0)
(-0.312829 -0.171098 0)
(-0.327121 -0.129982 0)
(-0.335649 -0.080479 0)
(-0.341891 -0.0244604 0)
(-0.34423 0.034651 0)
(-0.338354 0.0884209 0)
(-0.333617 0.130573 0)
(-0.324129 0.16126 0)
(-0.307012 0.184353 0)
(-0.293525 0.195733 0)
(-0.283032 0.199085 0)
(-0.272051 0.195045 0)
(-0.261343 0.185129 0)
(-0.253443 0.169258 0)
(-0.24472 0.152976 0)
(-0.225849 0.142325 0)
(-0.200503 0.138876 0)
(-0.170537 0.141175 0)
(-0.136405 0.148443 0)
(-0.0989541 0.160156 0)
(-0.0590801 0.175149 0)
(-0.0175436 0.1928 0)
(0.0280457 0.214469 0)
(0.0744641 0.2368 0)
(0.118602 0.256638 0)
(0.161038 0.275137 0)
(0.2024 0.293199 0)
(0.241964 0.310185 0)
(0.278737 0.32604 0)
(0.312388 0.340894 0)
(0.34318 0.354427 0)
(0.370489 0.367401 0)
(0.393179 0.378888 0)
(0.412077 0.387413 0)
(0.426869 0.393099 0)
(0.44037 0.396989 0)
(0.454426 0.39874 0)
(0.46783 0.39875 0)
(0.48033 0.396292 0)
(0.492372 0.39263 0)
(0.503971 0.389786 0)
(0.514361 0.388548 0)
(0.522695 0.389032 0)
(0.528553 0.391164 0)
(0.531171 0.394415 0)
(0.527868 0.398098 0)
(0.516672 0.401996 0)
(0.496736 0.405981 0)
(0.471312 0.41143 0)
(0.449803 0.418634 0)
(0.44002 0.425555 0)
(0.437753 0.429493 0)
(0.442006 0.428898 0)
(0.457946 0.421484 0)
(0.480364 0.403994 0)
(0.49488 0.375966 0)
(0.49336 0.341502 0)
(0.48395 0.295096 0)
(0.474558 0.234705 0)
(0.460301 0.16317 0)
(0.435997 0.0685735 0)
(0.414551 -0.0386349 0)
(0.398607 -0.128486 0)
(0.37588 -0.19009 0)
(0.351997 -0.23389 0)
(0.33121 -0.271179 0)
(0.314456 -0.304115 0)
(0.30127 -0.331521 0)
(0.290075 -0.353265 0)
(0.279837 -0.369226 0)
(0.269334 -0.379553 0)
(0.25815 -0.384513 0)
(0.246695 -0.38442 0)
(0.23568 -0.379775 0)
(0.225313 -0.37065 0)
(0.215128 -0.356402 0)
(0.204035 -0.337931 0)
(0.196836 -0.321967 0)
(0.193004 -0.313477 0)
(0.188297 -0.310779 0)
(0.181937 -0.313841 0)
(0.177427 -0.320598 0)
(0.170102 -0.326882 0)
(0.156211 -0.331064 0)
(0.141557 -0.331593 0)
(0.125016 -0.326707 0)
(0.112612 -0.314687 0)
(0.113031 -0.296323 0)
(0.116051 -0.270213 0)
(0.120091 -0.23553 0)
(0.126538 -0.195288 0)
(0.135674 -0.150746 0)
(0.146793 -0.101518 0)
(0.158447 -0.0488768 0)
(0.16953 -0.00714621 0)
(0.17473 0.017216 0)
(0.172035 0.02226 0)
(0.16291 0.00710166 0)
(0.145405 -0.0295127 0)
(0.119018 -0.0819442 0)
(0.0934482 -0.151801 0)
(0.0638513 -0.250092 0)
(0.0263932 -0.368114 0)
(-0.0017192 -0.490204 0)
(-0.060746 -0.47285 0)
(-0.0951114 -0.384355 0)
(-0.0952378 -0.317295 0)
(-0.108339 -0.258946 0)
(-0.123993 -0.197257 0)
(-0.131496 -0.13558 0)
(-0.130244 -0.0840453 0)
(-0.294618 -0.218117 0)
(-0.319325 -0.19883 0)
(-0.341016 -0.169052 0)
(-0.356994 -0.131635 0)
(-0.367625 -0.0867376 0)
(-0.374139 -0.0378008 0)
(-0.375138 0.0154681 0)
(-0.369383 0.065969 0)
(-0.361317 0.107666 0)
(-0.348536 0.142405 0)
(-0.331846 0.167503 0)
(-0.317672 0.181743 0)
(-0.30415 0.188374 0)
(-0.290496 0.187659 0)
(-0.276678 0.179682 0)
(-0.264886 0.162354 0)
(-0.252336 0.142892 0)
(-0.231829 0.128675 0)
(-0.207072 0.121818 0)
(-0.178921 0.121082 0)
(-0.147408 0.125948 0)
(-0.113134 0.135807 0)
(-0.0765383 0.149506 0)
(-0.0381403 0.165553 0)
(0.00264754 0.184414 0)
(0.0472775 0.206749 0)
(0.0918987 0.228812 0)
(0.135035 0.249216 0)
(0.177224 0.268935 0)
(0.218055 0.288119 0)
(0.256823 0.306544 0)
(0.293154 0.323961 0)
(0.326639 0.339736 0)
(0.357158 0.352754 0)
(0.383351 0.363554 0)
(0.405446 0.37218 0)
(0.425032 0.379259 0)
(0.441291 0.386271 0)
(0.453728 0.391296 0)
(0.46269 0.39409 0)
(0.470122 0.395732 0)
(0.478702 0.396294 0)
(0.487914 0.39538 0)
(0.496207 0.392819 0)
(0.503215 0.390075 0)
(0.508713 0.388573 0)
(0.511176 0.388258 0)
(0.507897 0.389236 0)
(0.497008 0.392195 0)
(0.478315 0.396982 0)
(0.45563 0.404174 0)
(0.437086 0.413433 0)
(0.429129 0.422363 0)
(0.428145 0.428106 0)
(0.433655 0.429325 0)
(0.449678 0.423638 0)
(0.470857 0.408154 0)
(0.486202 0.381305 0)
(0.488462 0.34618 0)
(0.481596 0.300717 0)
(0.474617 0.242911 0)
(0.463016 0.171804 0)
(0.442386 0.0777585 0)
(0.428898 -0.0265639 0)
(0.41771 -0.113679 0)
(0.396446 -0.175592 0)
(0.373311 -0.222061 0)
(0.353766 -0.263342 0)
(0.338606 -0.300131 0)
(0.326371 -0.330777 0)
(0.315349 -0.354504 0)
(0.304706 -0.371174 0)
(0.293003 -0.381353 0)
(0.279855 -0.385902 0)
(0.265886 -0.386068 0)
(0.251743 -0.382352 0)
(0.238065 -0.375069 0)
(0.22487 -0.364109 0)
(0.210856 -0.349166 0)
(0.197351 -0.334138 0)
(0.190208 -0.327329 0)
(0.184506 -0.325058 0)
(0.177963 -0.327233 0)
(0.173717 -0.331341 0)
(0.166736 -0.334294 0)
(0.155558 -0.334769 0)
(0.145092 -0.332383 0)
(0.134572 -0.325196 0)
(0.129252 -0.313339 0)
(0.126658 -0.293798 0)
(0.123606 -0.264579 0)
(0.122175 -0.227765 0)
(0.123326 -0.18665 0)
(0.12688 -0.141929 0)
(0.132093 -0.0933507 0)
(0.137412 -0.040614 0)
(0.144317 0.0053872 0)
(0.148082 0.0327732 0)
(0.145671 0.0400948 0)
(0.137784 0.0269283 0)
(0.124614 -0.00788195 0)
(0.105081 -0.0591451 0)
(0.0871891 -0.128037 0)
(0.067795 -0.224901 0)
(0.0394328 -0.338773 0)
(0.0163405 -0.448892 0)
(-0.0477922 -0.436654 0)
(-0.0855611 -0.355316 0)
(-0.087767 -0.293664 0)
(-0.104193 -0.237842 0)
(-0.12381 -0.179559 0)
(-0.132805 -0.122978 0)
(-0.132704 -0.0770221 0)
(-0.308216 -0.206994 0)
(-0.336571 -0.191743 0)
(-0.361013 -0.166155 0)
(-0.379041 -0.133124 0)
(-0.390502 -0.0931489 0)
(-0.396923 -0.0486082 0)
(-0.397576 -0.00119019 0)
(-0.392319 0.0452981 0)
(-0.382413 0.0861932 0)
(-0.368506 0.121992 0)
(-0.352865 0.147922 0)
(-0.337315 0.165032 0)
(-0.321214 0.174825 0)
(-0.304994 0.176889 0)
(-0.288508 0.170291 0)
(-0.272449 0.151178 0)
(-0.255 0.130233 0)
(-0.232408 0.114553 0)
(-0.207238 0.105856 0)
(-0.179704 0.103202 0)
(-0.150139 0.106133 0)
(-0.11896 0.114524 0)
(-0.086246 0.126972 0)
(-0.051542 0.141784 0)
(-0.0148598 0.158546 0)
(0.0254976 0.178832 0)
(0.0682406 0.201325 0)
(0.111156 0.223481 0)
(0.152869 0.244368 0)
(0.193759 0.265186 0)
(0.233148 0.285865 0)
(0.270572 0.305804 0)
(0.30533 0.324337 0)
(0.337236 0.340658 0)
(0.365584 0.354052 0)
(0.390175 0.364871 0)
(0.411638 0.373159 0)
(0.429946 0.377736 0)
(0.444708 0.380159 0)
(0.457298 0.381551 0)
(0.467887 0.383901 0)
(0.475009 0.386703 0)
(0.478793 0.388699 0)
(0.481897 0.390562 0)
(0.486029 0.391672 0)
(0.489583 0.39134 0)
(0.490708 0.38951 0)
(0.487616 0.388045 0)
(0.478348 0.38871 0)
(0.462047 0.392706 0)
(0.442034 0.400778 0)
(0.425848 0.411276 0)
(0.419357 0.421646 0)
(0.419418 0.428574 0)
(0.425705 0.430883 0)
(0.44164 0.426095 0)
(0.461478 0.411863 0)
(0.476163 0.386279 0)
(0.480208 0.350571 0)
(0.476608 0.305169 0)
(0.47197 0.248035 0)
(0.462381 0.17949 0)
(0.446517 0.0845602 0)
(0.44004 -0.0160679 0)
(0.432095 -0.0993545 0)
(0.411832 -0.160677 0)
(0.390051 -0.210212 0)
(0.37218 -0.25599 0)
(0.358619 -0.296814 0)
(0.347078 -0.330202 0)
(0.33583 -0.355034 0)
(0.323923 -0.371682 0)
(0.310355 -0.381083 0)
(0.294784 -0.384941 0)
(0.27796 -0.385143 0)
(0.260864 -0.382291 0)
(0.243614 -0.376475 0)
(0.226985 -0.367532 0)
(0.209372 -0.355366 0)
(0.191556 -0.344673 0)
(0.18333 -0.340143 0)
(0.17775 -0.339375 0)
(0.170287 -0.340757 0)
(0.164923 -0.342718 0)
(0.157884 -0.343608 0)
(0.149829 -0.341792 0)
(0.143127 -0.336506 0)
(0.138581 -0.328101 0)
(0.135618 -0.313221 0)
(0.129657 -0.288173 0)
(0.122432 -0.254412 0)
(0.116392 -0.214989 0)
(0.113049 -0.172785 0)
(0.111921 -0.128044 0)
(0.112045 -0.0801752 0)
(0.111783 -0.0281058 0)
(0.114264 0.0203447 0)
(0.116689 0.0492353 0)
(0.114739 0.0570976 0)
(0.108964 0.0437062 0)
(0.0999118 0.00985943 0)
(0.0876947 -0.0418092 0)
(0.077083 -0.111575 0)
(0.0655489 -0.2091 0)
(0.0469478 -0.314996 0)
(0.0283343 -0.409559 0)
(-0.0409582 -0.394936 0)
(-0.0790995 -0.32269 0)
(-0.0836286 -0.266785 0)
(-0.103064 -0.214032 0)
(-0.125483 -0.160364 0)
(-0.13519 -0.109929 0)
(-0.135472 -0.070293 0)
(-0.311793 -0.193462 0)
(-0.344227 -0.182461 0)
(-0.371832 -0.16283 0)
(-0.392616 -0.134913 0)
(-0.405919 -0.101352 0)
(-0.413251 -0.0621907 0)
(-0.41423 -0.0199322 0)
(-0.409047 0.0233586 0)
(-0.398363 0.0641281 0)
(-0.384124 0.0991206 0)
(-0.368193 0.126385 0)
(-0.351 0.146318 0)
(-0.332758 0.158641 0)
(-0.313493 0.161838 0)
(-0.29346 0.154208 0)
(-0.273091 0.135605 0)
(-0.250286 0.115084 0)
(-0.224875 0.0990909 0)
(-0.198244 0.0895162 0)
(-0.1706 0.0858533 0)
(-0.142614 0.0884814 0)
(-0.114904 0.0968086 0)
(-0.0864919 0.108785 0)
(-0.0557689 0.121382 0)
(-0.0225248 0.134455 0)
(0.0132741 0.150344 0)
(0.0520107 0.169382 0)
(0.0923395 0.193138 0)
(0.131884 0.216779 0)
(0.171167 0.240759 0)
(0.209347 0.264909 0)
(0.246121 0.287858 0)
(0.28105 0.309242 0)
(0.313463 0.328188 0)
(0.342934 0.344152 0)
(0.36925 0.357462 0)
(0.392054 0.368094 0)
(0.411421 0.375233 0)
(0.42754 0.379201 0)
(0.44091 0.381045 0)
(0.452159 0.380213 0)
(0.460979 0.377933 0)
(0.468337 0.376898 0)
(0.473227 0.379346 0)
(0.474346 0.383312 0)
(0.472958 0.387047 0)
(0.470689 0.390188 0)
(0.466575 0.391798 0)
(0.458325 0.392761 0)
(0.445213 0.396208 0)
(0.429124 0.40331 0)
(0.416072 0.413452 0)
(0.410998 0.424334 0)
(0.41142 0.431714 0)
(0.417795 0.434488 0)
(0.433002 0.430086 0)
(0.451265 0.415853 0)
(0.464645 0.390497 0)
(0.46958 0.354797 0)
(0.467884 0.310561 0)
(0.467567 0.255483 0)
(0.459913 0.182261 0)
(0.44518 0.0876271 0)
(0.447398 -0.00771276 0)
(0.440721 -0.0856386 0)
(0.42091 -0.145783 0)
(0.400761 -0.19873 0)
(0.385003 -0.249136 0)
(0.373085 -0.2936 0)
(0.361958 -0.328905 0)
(0.3496 -0.35406 0)
(0.335691 -0.370009 0)
(0.319647 -0.377896 0)
(0.301098 -0.381144 0)
(0.281321 -0.381504 0)
(0.261272 -0.379557 0)
(0.240603 -0.375108 0)
(0.220357 -0.367287 0)
(0.199242 -0.357919 0)
(0.179654 -0.351006 0)
(0.171267 -0.348707 0)
(0.16522 -0.350649 0)
(0.157711 -0.352921 0)
(0.151599 -0.354069 0)
(0.145629 -0.353693 0)
(0.141066 -0.350359 0)
(0.137667 -0.344621 0)
(0.135558 -0.332836 0)
(0.128951 -0.309804 0)
(0.118836 -0.277859 0)
(0.10861 -0.239749 0)
(0.0997105 -0.19818 0)
(0.0935309 -0.155132 0)
(0.088912 -0.110162 0)
(0.0849177 -0.0628456 0)
(0.0803863 -0.0118435 0)
(0.0795175 0.0374262 0)
(0.0812157 0.0657994 0)
(0.0800985 0.0723221 0)
(0.0773785 0.0572149 0)
(0.0735384 0.0224319 0)
(0.0686583 -0.0306816 0)
(0.0651416 -0.10221 0)
(0.0608127 -0.200982 0)
(0.0495708 -0.296362 0)
(0.032232 -0.37219 0)
(-0.0392204 -0.351338 0)
(-0.0763199 -0.288372 0)
(-0.0827194 -0.238171 0)
(-0.104833 -0.188749 0)
(-0.128734 -0.1404 0)
(-0.138246 -0.096502 0)
(-0.138136 -0.0637941 0)
(-0.303695 -0.177698 0)
(-0.339738 -0.171292 0)
(-0.370629 -0.157205 0)
(-0.395029 -0.135654 0)
(-0.411354 -0.108467 0)
(-0.419639 -0.0760692 0)
(-0.421474 -0.0393881 0)
(-0.417023 -0.000337494 0)
(-0.406785 0.038625 0)
(-0.392375 0.0734648 0)
(-0.375127 0.102082 0)
(-0.355808 0.123738 0)
(-0.335059 0.136991 0)
(-0.313157 0.140094 0)
(-0.288978 0.131995 0)
(-0.263239 0.115847 0)
(-0.237619 0.0963307 0)
(-0.211544 0.0791496 0)
(-0.186178 0.0680364 0)
(-0.162547 0.0655073 0)
(-0.141295 0.0693114 0)
(-0.120539 0.0760607 0)
(-0.0999403 0.0826959 0)
(-0.0810575 0.0881373 0)
(-0.0626753 0.0966585 0)
(-0.0371394 0.105405 0)
(-0.00377488 0.117154 0)
(0.0373974 0.134465 0)
(0.0809478 0.155336 0)
(0.124793 0.181475 0)
(0.167039 0.211654 0)
(0.207002 0.243863 0)
(0.244364 0.277569 0)
(0.278413 0.306738 0)
(0.310018 0.329777 0)
(0.338881 0.347953 0)
(0.364088 0.361316 0)
(0.385647 0.37107 0)
(0.403739 0.377585 0)
(0.418496 0.381568 0)
(0.430216 0.382912 0)
(0.439176 0.381822 0)
(0.44623 0.379636 0)
(0.451452 0.376967 0)
(0.454831 0.376358 0)
(0.456548 0.37924 0)
(0.454222 0.385048 0)
(0.447122 0.390929 0)
(0.438114 0.396937 0)
(0.426839 0.403293 0)
(0.414058 0.410735 0)
(0.40503 0.420465 0)
(0.402198 0.43045 0)
(0.403335 0.437276 0)
(0.40982 0.439598 0)
(0.423641 0.435017 0)
(0.439507 0.420277 0)
(0.451386 0.395051 0)
(0.457569 0.360094 0)
(0.459263 0.316369 0)
(0.45657 0.25763 0)
(0.449705 0.18273 0)
(0.445864 0.0871808 0)
(0.451442 -0.00017057 0)
(0.44231 -0.0717123 0)
(0.422581 -0.13124 0)
(0.404585 -0.188226 0)
(0.391253 -0.243067 0)
(0.380715 -0.290252 0)
(0.369252 -0.326492 0)
(0.354912 -0.350938 0)
(0.338467 -0.364839 0)
(0.31942 -0.371133 0)
(0.297497 -0.373877 0)
(0.274987 -0.374662 0)
(0.251963 -0.373618 0)
(0.227952 -0.370258 0)
(0.204146 -0.363799 0)
(0.180182 -0.357656 0)
(0.162533 -0.354772 0)
(0.154987 -0.356048 0)
(0.147388 -0.360209 0)
(0.139946 -0.363487 0)
(0.134647 -0.365 0)
(0.131466 -0.364785 0)
(0.128249 -0.362467 0)
(0.126084 -0.353381 0)
(0.119823 -0.33315 0)
(0.108232 -0.302529 0)
(0.0955278 -0.26479 0)
(0.0836621 -0.222969 0)
(0.0731565 -0.179261 0)
(0.0651208 -0.135197 0)
(0.0574403 -0.0895336 0)
(0.0500787 -0.0424155 0)
(0.0418768 0.00816746 0)
(0.0394201 0.0556708 0)
(0.0417232 0.0811256 0)
(0.042627 0.0845807 0)
(0.0449315 0.0657804 0)
(0.0472624 0.0285513 0)
(0.0494797 -0.0263364 0)
(0.0527449 -0.0999912 0)
(0.0552439 -0.197761 0)
(0.0493421 -0.280544 0)
(0.0287233 -0.335069 0)
(-0.0422857 -0.307887 0)
(-0.0765281 -0.252836 0)
(-0.0847117 -0.208488 0)
(-0.108656 -0.162968 0)
(-0.132848 -0.120201 0)
(-0.141629 -0.0830301 0)
(-0.141237 -0.0572889 0)
(-0.286131 -0.158269 0)
(-0.321784 -0.158451 0)
(-0.356175 -0.150305 0)
(-0.383944 -0.135151 0)
(-0.403795 -0.113504 0)
(-0.414304 -0.0874801 0)
(-0.41568 -0.0572339 0)
(-0.411357 -0.0237164 0)
(-0.401943 0.0108898 0)
(-0.387382 0.0444875 0)
(-0.369142 0.0735013 0)
(-0.348219 0.0955433 0)
(-0.325432 0.109014 0)
(-0.30089 0.112884 0)
(-0.274162 0.108028 0)
(-0.2483 0.0946674 0)
(-0.226375 0.0771834 0)
(-0.207872 0.0636515 0)
(-0.194166 0.0594041 0)
(-0.188249 0.0644259 0)
(-0.188141 0.071914 0)
(-0.18676 0.0834605 0)
(-0.178546 0.0889359 0)
(-0.163006 0.0913516 0)
(-0.144102 0.0959975 0)
(-0.123016 0.10024 0)
(-0.0985869 0.105073 0)
(-0.0688089 0.113523 0)
(-0.0298223 0.126525 0)
(0.0187303 0.144572 0)
(0.0719101 0.168605 0)
(0.126396 0.19664 0)
(0.177908 0.225068 0)
(0.220354 0.257788 0)
(0.258199 0.291719 0)
(0.292003 0.32377 0)
(0.321402 0.346733 0)
(0.347456 0.362882 0)
(0.369447 0.373294 0)
(0.387279 0.379881 0)
(0.401339 0.383478 0)
(0.411889 0.384773 0)
(0.419228 0.384497 0)
(0.424145 0.383192 0)
(0.427437 0.382184 0)
(0.42948 0.382308 0)
(0.429237 0.384164 0)
(0.426081 0.389436 0)
(0.419186 0.39818 0)
(0.408572 0.407646 0)
(0.398459 0.418617 0)
(0.392756 0.429718 0)
(0.391934 0.438609 0)
(0.393981 0.444347 0)
(0.400635 0.446027 0)
(0.413076 0.440432 0)
(0.426818 0.424847 0)
(0.437576 0.399288 0)
(0.443729 0.364262 0)
(0.443509 0.315658 0)
(0.445955 0.261449 0)
(0.444517 0.174726 0)
(0.441747 0.085823 0)
(0.448776 0.00819145 0)
(0.434979 -0.0577933 0)
(0.416387 -0.117726 0)
(0.401149 -0.179429 0)
(0.390237 -0.238011 0)
(0.380245 -0.286373 0)
(0.367246 -0.322182 0)
(0.350381 -0.34442 0)
(0.330947 -0.35506 0)
(0.308574 -0.36045 0)
(0.283794 -0.363412 0)
(0.25872 -0.364781 0)
(0.232403 -0.364758 0)
(0.205261 -0.362271 0)
(0.178547 -0.358271 0)
(0.154563 -0.356147 0)
(0.141677 -0.357993 0)
(0.133968 -0.36333 0)
(0.125107 -0.369073 0)
(0.11867 -0.373869 0)
(0.115372 -0.377474 0)
(0.112081 -0.37908 0)
(0.109539 -0.372817 0)
(0.102996 -0.355405 0)
(0.0906638 -0.327639 0)
(0.0759739 -0.290793 0)
(0.0617916 -0.249151 0)
(0.0491305 -0.204658 0)
(0.0376514 -0.159393 0)
(0.0281397 -0.113934 0)
(0.0174756 -0.0671469 0)
(0.00788766 -0.0200933 0)
(-0.0043609 0.029927 0)
(-0.00600779 0.0745675 0)
(-0.000691161 0.0948367 0)
(0.00571791 0.0916048 0)
(0.0148098 0.0680812 0)
(0.022769 0.0281465 0)
(0.0322377 -0.0287121 0)
(0.0411133 -0.104761 0)
(0.0495328 -0.196283 0)
(0.0452489 -0.263462 0)
(0.0188733 -0.296383 0)
(-0.0491917 -0.265621 0)
(-0.079779 -0.217537 0)
(-0.0897002 -0.178073 0)
(-0.114308 -0.137267 0)
(-0.137525 -0.100507 0)
(-0.145139 -0.0702791 0)
(-0.144481 -0.0509709 0)
(-0.260089 -0.136488 0)
(-0.294925 -0.141835 0)
(-0.3282 -0.141267 0)
(-0.35873 -0.133827 0)
(-0.381729 -0.119119 0)
(-0.395215 -0.0971863 0)
(-0.39826 -0.0719827 0)
(-0.392597 -0.0448612 0)
(-0.381656 -0.0157665 0)
(-0.366742 0.0141901 0)
(-0.348043 0.0427002 0)
(-0.326806 0.0647894 0)
(-0.30362 0.0791321 0)
(-0.27866 0.0859387 0)
(-0.254373 0.0859727 0)
(-0.235928 0.0776756 0)
(-0.224696 0.0707379 0)
(-0.220932 0.070701 0)
(-0.222415 0.0685131 0)
(-0.224854 0.0706173 0)
(-0.220926 0.0767263 0)
(-0.211906 0.0869864 0)
(-0.202026 0.096442 0)
(-0.188791 0.10353 0)
(-0.172017 0.110124 0)
(-0.151919 0.117786 0)
(-0.127831 0.125628 0)
(-0.100209 0.13384 0)
(-0.0676437 0.144792 0)
(-0.0311496 0.156248 0)
(0.00705852 0.169551 0)
(0.0455075 0.18722 0)
(0.0867528 0.204745 0)
(0.134491 0.226181 0)
(0.185057 0.253652 0)
(0.229034 0.282323 0)
(0.263794 0.313321 0)
(0.294934 0.342075 0)
(0.32175 0.361599 0)