/*--------------------------------*- C++ -*----------------------------------*\
| =========                 |                                                 |
| \\      /  F ield         | OpenFOAM: The Open Source CFD Toolbox           |
|  \\    /   O peration     | Version:  2406                                  |
|   \\  /    A nd           | Website:  www.openfoam.com                      |
|    \\/     M anipulation  |                                                 |
\*---------------------------------------------------------------------------*/
FoamFile
{
    version     2.0;
    format      ascii;
    arch        "LSB;label=32;scalar=64";
    class       volScalarField;
    location    "80";
    object      p;
}
// * * * * * * * * * * * * * * * * * * * * * * * * * * * * * * * * * * * * * //

dimensions      [0 2 -2 0 0 0 0];

internalField   nonuniform List<scalar> 
16128
(
2.0514e-10
-1.20541e-09
-2.60784e-09
-3.6758e-09
-4.05331e-09
-3.61259e-09
-2.3392e-09
-2.57038e-10
2.60527e-09
6.22492e-09
1.05866e-08
1.56813e-08
2.15044e-08
2.80534e-08
3.53268e-08
4.33236e-08
5.20431e-08
6.14846e-08
7.16471e-08
8.25297e-08
9.41311e-08
1.0645e-07
1.19484e-07
1.33232e-07
1.47691e-07
1.62858e-07
1.78731e-07
1.95306e-07
2.1258e-07
2.30549e-07
2.49208e-07
2.68554e-07
2.88581e-07
3.09286e-07
3.30662e-07
3.52704e-07
3.75406e-07
3.98761e-07
4.22762e-07
4.474e-07
4.72667e-07
4.98554e-07
5.25051e-07
5.52146e-07
5.79829e-07
6.08087e-07
6.36907e-07
6.66274e-07
6.96175e-07
7.26593e-07
7.57512e-07
7.88917e-07
8.20789e-07
8.53109e-07
8.85858e-07
9.19017e-07
9.52563e-07
9.86476e-07
1.02073e-06
1.05531e-06
1.09017e-06
1.12531e-06
1.16069e-06
1.19629e-06
1.23207e-06
1.26801e-06
1.30407e-06
1.34024e-06
1.37647e-06
1.41273e-06
1.449e-06
1.48524e-06
1.52142e-06
1.5575e-06
1.59344e-06
1.62923e-06
1.66482e-06
1.70017e-06
1.73526e-06
1.77004e-06
1.80449e-06
1.83856e-06
1.87223e-06
1.90546e-06
1.93822e-06
1.97047e-06
2.00218e-06
2.03332e-06
2.06386e-06
2.09377e-06
2.12302e-06
2.15159e-06
2.17944e-06
2.20655e-06
2.23289e-06
2.25845e-06
2.2832e-06
2.30712e-06
2.3302e-06
2.3524e-06
2.37373e-06
2.39416e-06
1.96031e-09
4.47452e-10
-4.88031e-10
-1.05849e-09
-1.07411e-09
-4.04224e-10
9.95191e-10
3.13594e-09
6.01891e-09
9.64053e-09
1.3996e-08
1.90812e-08
2.48928e-08
3.14291e-08
3.86889e-08
4.66711e-08
5.53751e-08
6.48001e-08
7.49451e-08
8.5809e-08
9.73904e-08
1.09688e-07
1.227e-07
1.36424e-07
1.50857e-07
1.65998e-07
1.81844e-07
1.9839e-07
2.15633e-07
2.3357e-07
2.52196e-07
2.71507e-07
2.91499e-07
3.12166e-07
3.33503e-07
3.55505e-07
3.78165e-07
4.01476e-07
4.25432e-07
4.50023e-07
4.75241e-07
5.01078e-07
5.27523e-07
5.54564e-07
5.82192e-07
6.10393e-07
6.39153e-07
6.6846e-07
6.98297e-07
7.2865e-07
7.59504e-07
7.9084e-07
8.22641e-07
8.54889e-07
8.87564e-07
9.20646e-07
9.54113e-07
9.87945e-07
1.02212e-06
1.05661e-06
1.09139e-06
1.12644e-06
1.16173e-06
1.19723e-06
1.23291e-06
1.26875e-06
1.30472e-06
1.34078e-06
1.37691e-06
1.41307e-06
1.44923e-06
1.48536e-06
1.52142e-06
1.55739e-06
1.59322e-06
1.62889e-06
1.66436e-06
1.69959e-06
1.73455e-06
1.76921e-06
1.80354e-06
1.83748e-06
1.87102e-06
1.90412e-06
1.93675e-06
1.96887e-06
2.00045e-06
2.03146e-06
2.06187e-06
2.09165e-06
2.12077e-06
2.1492e-06
2.17692e-06
2.2039e-06
2.23011e-06
2.25554e-06
2.28016e-06
2.30396e-06
2.32691e-06
2.34899e-06
2.37019e-06
2.3905e-06
3.60537e-09
1.5366e-09
5.75159e-10
8.87258e-11
1.66195e-10
9.14214e-10
2.36881e-09
4.54346e-09
7.44426e-09
1.10729e-08
1.54288e-08
2.05105e-08
2.63168e-08
3.28462e-08
4.00981e-08
4.80715e-08
5.6766e-08
6.61808e-08
7.63149e-08
8.71671e-08
9.87363e-08
1.11021e-07
1.24019e-07
1.37728e-07
1.52147e-07
1.67273e-07
1.83102e-07
1.99631e-07
2.16858e-07
2.34777e-07
2.53385e-07
2.72678e-07
2.92651e-07
3.13299e-07
3.34617e-07
3.56599e-07
3.79239e-07
4.02529e-07
4.26464e-07
4.51033e-07
4.7623e-07
5.02044e-07
5.28466e-07
5.55485e-07
5.83088e-07
6.11265e-07
6.40002e-07
6.69283e-07
6.99096e-07
7.29425e-07
7.60253e-07
7.91564e-07
8.23339e-07
8.55561e-07
8.8821e-07
9.21265e-07
9.54706e-07
9.8851e-07
1.02265e-06
1.05712e-06
1.09187e-06
1.12689e-06
1.16215e-06
1.19762e-06
1.23327e-06
1.26908e-06
1.30502e-06
1.34105e-06
1.37714e-06
1.41326e-06
1.44939e-06
1.48548e-06
1.52151e-06
1.55744e-06
1.59324e-06
1.62887e-06
1.6643e-06
1.69949e-06
1.73441e-06
1.76903e-06
1.8033e-06
1.8372e-06
1.8707e-06
1.90375e-06
1.93633e-06
1.96839e-06
1.99992e-06
2.03088e-06
2.06123e-06
2.09095e-06
2.12002e-06
2.14839e-06
2.17605e-06
2.20296e-06
2.22912e-06
2.25448e-06
2.27904e-06
2.30277e-06
2.32565e-06
2.34766e-06
2.3688e-06
2.38904e-06
4.82985e-09
2.21206e-09
1.13788e-09
6.43361e-10
7.49832e-10
1.53666e-09
3.02489e-09
5.22343e-09
8.13882e-09
1.17746e-08
1.61322e-08
2.12121e-08
2.70142e-08
3.35382e-08
4.07834e-08
4.87496e-08
5.74359e-08
6.68419e-08
7.69665e-08
8.78088e-08
9.93674e-08
1.11641e-07
1.24627e-07
1.38325e-07
1.52731e-07
1.67844e-07
1.8366e-07
2.00176e-07
2.17389e-07
2.35295e-07
2.5389e-07
2.7317e-07
2.9313e-07
3.13765e-07
3.3507e-07
3.57039e-07
3.79666e-07
4.02944e-07
4.26865e-07
4.51422e-07
4.76606e-07
5.02408e-07
5.28818e-07
5.55824e-07
5.83417e-07
6.11582e-07
6.40308e-07
6.69579e-07
6.99382e-07
7.29702e-07
7.60521e-07
7.91824e-07
8.23592e-07
8.55806e-07
8.88448e-07
9.21497e-07
9.54932e-07
9.88731e-07
1.02287e-06
1.05733e-06
1.09208e-06
1.12709e-06
1.16234e-06
1.19781e-06
1.23346e-06
1.26926e-06
1.3052e-06
1.34122e-06
1.37731e-06
1.41343e-06
1.44955e-06
1.48564e-06
1.52167e-06
1.55759e-06
1.59338e-06
1.629e-06
1.66442e-06
1.6996e-06
1.73451e-06
1.76912e-06
1.80338e-06
1.83726e-06
1.87074e-06
1.90377e-06
1.93633e-06
1.96837e-06
1.99987e-06
2.0308e-06
2.06113e-06
2.09081e-06
2.11984e-06
2.14817e-06
2.17579e-06
2.20267e-06
2.22877e-06
2.25409e-06
2.2786e-06
2.30227e-06
2.3251e-06
2.34705e-06
2.36813e-06
2.38831e-06
5.27476e-09
2.25941e-09
1.07437e-09
5.40193e-10
6.42903e-10
1.44261e-09
2.94663e-09
5.15799e-09
8.08189e-09
1.17221e-08
1.60807e-08
2.1159e-08
2.69578e-08
3.34771e-08
4.07168e-08
4.86767e-08
5.73561e-08
6.67546e-08
7.68713e-08
8.77052e-08
9.92551e-08
1.11519e-07
1.24497e-07
1.38185e-07
1.52581e-07
1.67684e-07
1.83491e-07
1.99997e-07
2.17201e-07
2.35099e-07
2.53686e-07
2.72958e-07
2.9291e-07
3.13539e-07
3.34837e-07
3.568e-07
3.79422e-07
4.02695e-07
4.26613e-07
4.51167e-07
4.76348e-07
5.02148e-07
5.28557e-07
5.55564e-07
5.83157e-07
6.11324e-07
6.40053e-07
6.69329e-07
6.99138e-07
7.29465e-07
7.60292e-07
7.91605e-07
8.23383e-07
8.5561e-07
8.88266e-07
9.21329e-07
9.5478e-07
9.88596e-07
1.02275e-06
1.05723e-06
1.092e-06
1.12703e-06
1.16231e-06
1.19779e-06
1.23347e-06
1.2693e-06
1.30525e-06
1.3413e-06
1.37742e-06
1.41357e-06
1.44971e-06
1.48583e-06
1.52188e-06
1.55783e-06
1.59364e-06
1.62929e-06
1.66473e-06
1.69993e-06
1.73486e-06
1.76948e-06
1.80376e-06
1.83766e-06
1.87115e-06
1.90419e-06
1.93675e-06
1.9688e-06
2.0003e-06
2.03123e-06
2.06154e-06
2.09122e-06
2.12024e-06
2.14855e-06
2.17615e-06
2.203e-06
2.22908e-06
2.25436e-06
2.27883e-06
2.30246e-06
2.32524e-06
2.34715e-06
2.36818e-06
2.38831e-06
4.79496e-09
1.52426e-09
2.48646e-10
-3.34157e-10
-2.52531e-10
5.42922e-10
2.04938e-09
4.26442e-09
7.19111e-09
1.08325e-08
1.51908e-08
2.02675e-08
2.60634e-08
3.25789e-08
3.98142e-08
4.77691e-08
5.64432e-08
6.5836e-08
7.59467e-08
8.67745e-08
9.83182e-08
1.10576e-07
1.23547e-07
1.37229e-07
1.5162e-07
1.66717e-07
1.82518e-07
1.9902e-07
2.1622e-07
2.34114e-07
2.52699e-07
2.7197e-07
2.91922e-07
3.12551e-07
3.33851e-07
3.55817e-07
3.78442e-07
4.01721e-07
4.25644e-07
4.50206e-07
4.75396e-07
5.01207e-07
5.27627e-07
5.54648e-07
5.82256e-07
6.1044e-07
6.39188e-07
6.68485e-07
6.98317e-07
7.28669e-07
7.59524e-07
7.90866e-07
8.22676e-07
8.54936e-07
8.87627e-07
9.20729e-07
9.54219e-07
9.88076e-07
1.02228e-06
1.0568e-06
1.09161e-06
1.12669e-06
1.16202e-06
1.19756e-06
1.23329e-06
1.26917e-06
1.30518e-06
1.34129e-06
1.37746e-06
1.41367e-06
1.44988e-06
1.48605e-06
1.52216e-06
1.55817e-06
1.59404e-06
1.62974e-06
1.66524e-06
1.7005e-06
1.73548e-06
1.77015e-06
1.80448e-06
1.83843e-06
1.87196e-06
1.90504e-06
1.93763e-06
1.96971e-06
2.00125e-06
2.0322e-06
2.06253e-06
2.09223e-06
2.12125e-06
2.14957e-06
2.17717e-06
2.20401e-06
2.23008e-06
2.25534e-06
2.27979e-06
2.3034e-06
2.32615e-06
2.34802e-06
2.369e-06
2.38908e-06
3.36065e-09
-5.71608e-11
-1.39705e-09
-2.02298e-09
-1.96679e-09
-1.18355e-09
3.17788e-10
2.53074e-09
5.4563e-09
9.09662e-09
1.34534e-08
1.85281e-08
2.43215e-08
3.08341e-08
3.80661e-08
4.60174e-08
5.46877e-08
6.40766e-08
7.41835e-08
8.50077e-08
9.65479e-08
1.08803e-07
1.21771e-07
1.35451e-07
1.49839e-07
1.64935e-07
1.80736e-07
1.97238e-07
2.14439e-07
2.32336e-07
2.50925e-07
2.70201e-07
2.9016e-07
3.10797e-07
3.32107e-07
3.54085e-07
3.76723e-07
4.00016e-07
4.23957e-07
4.48537e-07
4.73749e-07
4.99582e-07
5.26028e-07
5.53075e-07
5.80713e-07
6.0893e-07
6.37713e-07
6.67049e-07
6.96922e-07
7.27317e-07
7.58219e-07
7.8961e-07
8.21473e-07
8.53788e-07
8.86537e-07
9.19699e-07
9.53253e-07
9.87176e-07
1.02145e-06
1.05604e-06
1.09093e-06
1.12609e-06
1.16149e-06
1.19711e-06
1.23292e-06
1.26889e-06
1.30499e-06
1.34119e-06
1.37745e-06
1.41375e-06
1.45005e-06
1.48631e-06
1.52252e-06
1.55862e-06
1.59458e-06
1.63038e-06
1.66596e-06
1.70131e-06
1.73638e-06
1.77113e-06
1.80554e-06
1.83956e-06
1.87317e-06
1.90632e-06
1.93898e-06
1.97113e-06
2.00271e-06
2.03371e-06
2.0641e-06
2.09383e-06
2.12289e-06
2.15124e-06
2.17885e-06
2.2057e-06
2.23178e-06
2.25704e-06
2.28148e-06
2.30507e-06
2.3278e-06
2.34965e-06
2.3706e-06
2.39063e-06
9.8771e-10
-2.50846e-09
-3.8904e-09
-4.54928e-09
-4.5162e-09
-3.7473e-09
-2.25451e-09
-4.67548e-11
2.87538e-09
6.51314e-09
1.08678e-08
1.59403e-08
2.17316e-08
2.8242e-08
3.54717e-08
4.34206e-08
5.20887e-08
6.14757e-08
7.15811e-08
8.24041e-08
9.39438e-08
1.06199e-07
1.19168e-07
1.32849e-07
1.4724e-07
1.62338e-07
1.78143e-07
1.94651e-07
2.11859e-07
2.29764e-07
2.48363e-07
2.67652e-07
2.87625e-07
3.08278e-07
3.29606e-07
3.51604e-07
3.74266e-07
3.97584e-07
4.21552e-07
4.46163e-07
4.71407e-07
4.97276e-07
5.2376e-07
5.50849e-07
5.78532e-07
6.06797e-07
6.35632e-07
6.65022e-07
6.94954e-07
7.25412e-07
7.56379e-07
7.8784e-07
8.19776e-07
8.52168e-07
8.84998e-07
9.18245e-07
9.51886e-07
9.85901e-07
1.02026e-06
1.05495e-06
1.08995e-06
1.12521e-06
1.16072e-06
1.19646e-06
1.23238e-06
1.26847e-06
1.30469e-06
1.341e-06
1.37739e-06
1.41381e-06
1.45024e-06
1.48663e-06
1.52296e-06
1.55918e-06
1.59528e-06
1.6312e-06
1.66691e-06
1.70238e-06
1.73756e-06
1.77244e-06
1.80696e-06
1.84109e-06
1.8748e-06
1.90805e-06
1.94081e-06
1.97304e-06
2.00471e-06
2.03579e-06
2.06625e-06
2.09604e-06
2.12515e-06
2.15355e-06
2.1812e-06
2.20809e-06
2.23418e-06
2.25946e-06
2.28391e-06
2.3075e-06
2.33021e-06
2.35204e-06
2.37296e-06
2.39296e-06
-2.29898e-09
-5.83578e-09
-7.24504e-09
-7.92787e-09
-7.91372e-09
-7.15847e-09
-5.67516e-09
-3.47392e-09
-5.56309e-10
3.07817e-09
7.4303e-09
1.25009e-08
1.82904e-08
2.47993e-08
3.20277e-08
3.99757e-08
4.86433e-08
5.80302e-08
6.81362e-08
7.89607e-08
9.05027e-08
1.02761e-07
1.15734e-07
1.2942e-07
1.43817e-07
1.58923e-07
1.74737e-07
1.91255e-07
2.08476e-07
2.26396e-07
2.45012e-07
2.64319e-07
2.84314e-07
3.04991e-07
3.26346e-07
3.48373e-07
3.71067e-07
3.9442e-07
4.18427e-07
4.43079e-07
4.68368e-07
4.94285e-07
5.20822e-07
5.47967e-07
5.75709e-07
6.04039e-07
6.32941e-07
6.62404e-07
6.92412e-07
7.22951e-07
7.54004e-07
7.85554e-07
8.17584e-07
8.50076e-07
8.83009e-07
9.16364e-07
9.50118e-07
9.84249e-07
1.01873e-06
1.05355e-06
1.08867e-06
1.12407e-06
1.15972e-06
1.1956e-06
1.23167e-06
1.2679e-06
1.30427e-06
1.34074e-06
1.37728e-06
1.41386e-06
1.45045e-06
1.487e-06
1.52349e-06
1.55988e-06
1.59613e-06
1.63221e-06
1.66808e-06
1.7037e-06
1.73904e-06
1.77407e-06
1.80873e-06
1.84301e-06
1.87685e-06
1.91024e-06
1.94312e-06
1.97547e-06
2.00726e-06
2.03844e-06
2.06899e-06
2.09887e-06
2.12806e-06
2.15652e-06
2.18424e-06
2.21117e-06
2.23731e-06
2.26262e-06
2.28708e-06
2.31068e-06
2.33339e-06
2.3552e-06
2.3761e-06
2.39606e-06
-6.47942e-09
-1.00382e-08
-1.14659e-08
-1.21664e-08
-1.21673e-08
-1.14241e-08
-9.94983e-09
-7.75528e-09
-4.84248e-09
-1.21143e-09
3.13827e-09
8.20711e-09
1.39955e-08
2.05037e-08
2.77319e-08
3.56803e-08
4.43489e-08
5.37377e-08
6.38466e-08
7.4675e-08
8.62219e-08
9.84863e-08
1.11467e-07
1.25161e-07
1.39569e-07
1.54687e-07
1.70514e-07
1.87049e-07
2.04288e-07
2.22228e-07
2.40867e-07
2.602e-07
2.80223e-07
3.00932e-07
3.22322e-07
3.44388e-07
3.67123e-07
3.90522e-07
4.14578e-07
4.39282e-07
4.64628e-07
4.90607e-07
5.17209e-07
5.44424e-07
5.72242e-07
6.0065e-07
6.29637e-07
6.59189e-07
6.89292e-07
7.1993e-07
7.51087e-07
7.82748e-07
8.14894e-07
8.47507e-07
8.80566e-07
9.14052e-07
9.47944e-07
9.82218e-07
1.01685e-06
1.05182e-06
1.0871e-06
1.12266e-06
1.15848e-06
1.19453e-06
1.23078e-06
1.26719e-06
1.30374e-06
1.3404e-06
1.37713e-06
1.4139e-06
1.45068e-06
1.48742e-06
1.52411e-06
1.56069e-06
1.59714e-06
1.63341e-06
1.66948e-06
1.70529e-06
1.74082e-06
1.77603e-06
1.81088e-06
1.84532e-06
1.87934e-06
1.91289e-06
1.94593e-06
1.97843e-06
2.01035e-06
2.04166e-06
2.07233e-06
2.10233e-06
2.13162e-06
2.16017e-06
2.18796e-06
2.21497e-06
2.24116e-06
2.26651e-06
2.291e-06
2.31462e-06
2.33734e-06
2.35914e-06
2.38002e-06
2.39996e-06
-1.15406e-08
-1.51132e-08
-1.65543e-08
-1.72683e-08
-1.72815e-08
-1.65484e-08
-1.50823e-08
-1.2894e-08
-9.98584e-09
-6.35801e-09
-2.01047e-09
3.05708e-09
8.84491e-09
1.53533e-08
2.25824e-08
3.05325e-08
3.92039e-08
4.85966e-08
5.87104e-08
6.9545e-08
8.10994e-08
9.33727e-08
1.06363e-07
1.2007e-07
1.34492e-07
1.49626e-07
1.65472e-07
1.82028e-07
1.9929e-07
2.17257e-07
2.35925e-07
2.55291e-07
2.7535e-07
2.96098e-07
3.17531e-07
3.39644e-07
3.6243e-07
3.85884e-07
4.1e-07
4.34769e-07
4.60183e-07
4.86236e-07
5.12917e-07
5.40216e-07
5.68123e-07
5.96627e-07
6.25714e-07
6.55372e-07
6.85587e-07
7.16343e-07
7.47625e-07
7.79416e-07
8.11699e-07
8.44454e-07
8.77664e-07
9.11306e-07
9.4536e-07
9.79803e-07
1.01461e-06
1.04976e-06
1.08523e-06
1.12098e-06
1.157e-06
1.19325e-06
1.2297e-06
1.26633e-06
1.3031e-06
1.33997e-06
1.37693e-06
1.41392e-06
1.45093e-06
1.48791e-06
1.52482e-06
1.56163e-06
1.59831e-06
1.63482e-06
1.67111e-06
1.70715e-06
1.7429e-06
1.77833e-06
1.81339e-06
1.84805e-06
1.88227e-06
1.91601e-06
1.94923e-06
1.98191e-06
2.014e-06
2.04547e-06
2.07629e-06
2.10642e-06
2.13583e-06
2.1645e-06
2.19239e-06
2.21948e-06
2.24574e-06
2.27115e-06
2.29569e-06
2.31933e-06
2.34206e-06
2.36387e-06
2.38473e-06
2.40465e-06
-1.74749e-08
-2.10589e-08
-2.25103e-08
-2.32354e-08
-2.32588e-08
-2.25344e-08
-2.10755e-08
-1.88928e-08
-1.59888e-08
-1.23638e-08
-8.01797e-09
-2.9512e-09
2.83677e-09
9.34619e-09
1.65774e-08
2.45307e-08
3.32064e-08
4.26047e-08
5.27255e-08
6.35683e-08
7.51326e-08
8.74174e-08
1.00422e-07
1.14144e-07
1.28583e-07
1.43738e-07
1.59607e-07
1.76188e-07
1.9348e-07
2.11479e-07
2.30182e-07
2.49587e-07
2.69689e-07
2.90484e-07
3.11969e-07
3.34137e-07
3.56983e-07
3.80502e-07
4.04687e-07
4.29532e-07
4.55027e-07
4.81166e-07
5.07939e-07
5.35336e-07
5.63347e-07
5.91961e-07
6.21165e-07
6.50946e-07
6.81291e-07
7.12183e-07
7.43609e-07
7.75551e-07
8.07992e-07
8.40913e-07
8.74294e-07
9.08117e-07
9.42358e-07
9.76997e-07
1.01201e-06
1.04737e-06
1.08305e-06
1.11903e-06
1.15527e-06
1.19175e-06
1.22845e-06
1.26532e-06
1.30233e-06
1.33946e-06
1.37667e-06
1.41393e-06
1.4512e-06
1.48844e-06
1.52562e-06
1.5627e-06
1.59965e-06
1.63642e-06
1.67297e-06
1.70928e-06
1.74529e-06
1.78097e-06
1.81628e-06
1.85118e-06
1.88563e-06
1.9196e-06
1.95305e-06
1.98593e-06
2.01822e-06
2.04988e-06
2.08087e-06
2.11116e-06
2.14072e-06
2.16952e-06
2.19753e-06
2.22472e-06
2.25107e-06
2.27655e-06
2.30114e-06
2.32483e-06
2.34758e-06
2.36939e-06
2.39025e-06
2.41014e-06
-2.42783e-08
-2.78738e-08
-2.93342e-08
-3.00687e-08
-3.0101e-08
-2.93843e-08
-2.79318e-08
-2.5754e-08
-2.28536e-08
-1.9231e-08
-1.48864e-08
-9.81988e-09
-4.03106e-09
2.48034e-09
9.71473e-09
1.76725e-08
2.63541e-08
3.57597e-08
4.58892e-08
5.67423e-08
6.83186e-08
8.06172e-08
9.36375e-08
1.07379e-07
1.21839e-07
1.37019e-07
1.52915e-07
1.69527e-07
1.86853e-07
2.04889e-07
2.23634e-07
2.43084e-07
2.63236e-07
2.84085e-07
3.05628e-07
3.2786e-07
3.50776e-07
3.74369e-07
3.98634e-07
4.23564e-07
4.49152e-07
4.75389e-07
5.02267e-07
5.29776e-07
5.57906e-07
5.86645e-07
6.15982e-07
6.45902e-07
6.76394e-07
7.07442e-07
7.39031e-07
7.71144e-07
8.03763e-07
8.36872e-07
8.7045e-07
9.04477e-07
9.38931e-07
9.7379e-07
1.00903e-06
1.04463e-06
1.08055e-06
1.11678e-06
1.15328e-06
1.19003e-06
1.22699e-06
1.26414e-06
1.30144e-06
1.33886e-06
1.37636e-06
1.41391e-06
1.45148e-06
1.48902e-06
1.5265e-06
1.56389e-06
1.60114e-06
1.63821e-06
1.67507e-06
1.71167e-06
1.74798e-06
1.78395e-06
1.81955e-06
1.85472e-06
1.88945e-06
1.92368e-06
1.95737e-06
1.9905e-06
2.02301e-06
2.05488e-06
2.08608e-06
2.11656e-06
2.14629e-06
2.17525e-06
2.20339e-06
2.23071e-06
2.25716e-06
2.28273e-06
2.30738e-06
2.33112e-06
2.35391e-06
2.37573e-06
2.39658e-06
2.41645e-06
-3.19492e-08
-3.55573e-08
-3.70264e-08
-3.77695e-08
-3.78098e-08
-3.71e-08
-3.56531e-08
-3.34797e-08
-3.05824e-08
-2.69618e-08
-2.26181e-08
-1.75512e-08
-1.17609e-08
-5.24665e-09
1.99201e-09
9.95555e-09
1.86444e-08
2.80587e-08
3.81985e-08
4.90637e-08
6.06539e-08
7.29688e-08
8.60079e-08
9.97707e-08
1.14256e-07
1.29464e-07
1.45392e-07
1.6204e-07
1.79404e-07
1.97483e-07
2.16275e-07
2.35776e-07
2.55984e-07
2.76894e-07
2.98504e-07
3.20807e-07
3.43801e-07
3.67478e-07
3.91833e-07
4.1686e-07
4.42551e-07
4.68899e-07
4.95894e-07
5.23528e-07
5.5179e-07
5.80669e-07
6.10154e-07
6.40231e-07
6.70888e-07
7.02109e-07
7.3388e-07
7.66184e-07
7.99005e-07
8.32323e-07
8.6612e-07
9.00376e-07
9.35068e-07
9.70173e-07
1.00567e-06
1.04153e-06
1.07773e-06
1.11424e-06
1.15103e-06
1.18807e-06
1.22534e-06
1.2628e-06
1.30041e-06
1.33815e-06
1.37598e-06
1.41387e-06
1.45177e-06
1.48965e-06
1.52747e-06
1.5652e-06
1.60279e-06
1.6402e-06
1.6774e-06
1.71434e-06
1.75098e-06
1.78728e-06
1.82319e-06
1.85869e-06
1.89372e-06
1.92824e-06
1.96222e-06
1.99562e-06
2.02839e-06
2.06051e-06
2.09193e-06
2.12262e-06
2.15255e-06
2.18168e-06
2.20999e-06
2.23745e-06
2.26402e-06
2.28969e-06
2.31443e-06
2.33822e-06
2.36105e-06
2.38289e-06
2.40375e-06
2.42359e-06
-4.04876e-08
-4.41098e-08
-4.55875e-08
-4.63389e-08
-4.63867e-08
-4.56833e-08
-4.42415e-08
-4.20721e-08
-3.91776e-08
-3.55586e-08
-3.12154e-08
-2.61477e-08
-2.03552e-08
-1.38374e-08
-6.59356e-09
1.37676e-09
1.0074e-08
1.94983e-08
2.96499e-08
4.05287e-08
5.21348e-08
6.44682e-08
7.75287e-08
9.13163e-08
1.0583e-07
1.2107e-07
1.37033e-07
1.5372e-07
1.71128e-07
1.89255e-07
2.08098e-07
2.27656e-07
2.47926e-07
2.68905e-07
2.90588e-07
3.12971e-07
3.3605e-07
3.5982e-07
3.84275e-07
4.09408e-07
4.35214e-07
4.61684e-07
4.88809e-07
5.16581e-07
5.44989e-07
5.74023e-07
6.03672e-07
6.33922e-07
6.64761e-07
6.96174e-07
7.28146e-07
7.60662e-07
7.93704e-07
8.27255e-07
8.61294e-07
8.95802e-07
9.30757e-07
9.66135e-07
1.00191e-06
1.03806e-06
1.07456e-06
1.11138e-06
1.1485e-06
1.18587e-06
1.22347e-06
1.26127e-06
1.29924e-06
1.33734e-06
1.37553e-06
1.41378e-06
1.45206e-06
1.49032e-06
1.52852e-06
1.56662e-06
1.60459e-06
1.64239e-06
1.67996e-06
1.71728e-06
1.75429e-06
1.79095e-06
1.82723e-06
1.86307e-06
1.89844e-06
1.9333e-06
1.9676e-06
2.0013e-06
2.03436e-06
2.06676e-06
2.09844e-06
2.12937e-06
2.15952e-06
2.18885e-06
2.21734e-06
2.24496e-06
2.27167e-06
2.29745e-06
2.32229e-06
2.34615e-06
2.36902e-06
2.3909e-06
2.41175e-06
2.43158e-06
-4.98943e-08
-5.35319e-08
-5.50186e-08
-5.57783e-08
-5.58334e-08
-5.5136e-08
-5.36991e-08
-5.15334e-08
-4.86414e-08
-4.50238e-08
-4.06807e-08
-3.56119e-08
-2.98168e-08
-2.32948e-08
-1.6045e-08
-8.0671e-09
6.39453e-10
1.00749e-08
2.02395e-08
3.11335e-08
4.27573e-08
5.51113e-08
6.81958e-08
8.20108e-08
9.65559e-08
1.1183e-07
1.27833e-07
1.44563e-07
1.62018e-07
1.80197e-07
1.99098e-07
2.18719e-07
2.39056e-07
2.60109e-07
2.81872e-07
3.04343e-07
3.27516e-07
3.51387e-07
3.75951e-07
4.01201e-07
4.27132e-07
4.53735e-07
4.81002e-07
5.08924e-07
5.37492e-07
5.66696e-07
5.96523e-07
6.26962e-07
6.58001e-07
6.89624e-07
7.21817e-07
7.54565e-07
7.8785e-07
8.21655e-07
8.55959e-07
8.90743e-07
9.25985e-07
9.61662e-07
9.97749e-07
1.03422e-06
1.07105e-06
1.10821e-06
1.14568e-06
1.18341e-06
1.22138e-06
1.25956e-06
1.29792e-06
1.33641e-06
1.375e-06
1.41366e-06
1.45234e-06
1.49102e-06
1.52964e-06
1.56816e-06
1.60655e-06
1.64477e-06
1.68276e-06
1.72049e-06
1.75791e-06
1.79498e-06
1.83165e-06
1.86788e-06
1.90363e-06
1.93886e-06
1.97351e-06
2.00755e-06
2.04094e-06
2.07364e-06
2.10561e-06
2.13681e-06
2.16721e-06
2.19677e-06
2.22546e-06
2.25326e-06
2.28013e-06
2.30604e-06
2.33098e-06
2.35492e-06
2.37785e-06
2.39975e-06
2.42061e-06
2.44042e-06
-6.01709e-08
-6.38251e-08
-6.53211e-08
-6.60892e-08
-6.61516e-08
-6.54601e-08
-6.40279e-08
-6.18658e-08
-5.89762e-08
-5.53599e-08
-5.10168e-08
-4.59466e-08
-4.01486e-08
-3.36219e-08
-2.63658e-08
-1.83796e-08
-9.66301e-09
-2.15542e-10
9.96323e-09
2.08739e-08
3.25172e-08
4.48938e-08
5.80044e-08
7.18493e-08
8.64283e-08
1.01741e-07
1.17786e-07
1.34562e-07
1.52068e-07
1.70304e-07
1.89266e-07
2.08954e-07
2.29366e-07
2.50499e-07
2.72349e-07
2.94914e-07
3.18189e-07
3.42169e-07
3.66851e-07
3.92228e-07
4.18293e-07
4.4504e-07
4.7246e-07
5.00546e-07
5.29287e-07
5.58674e-07
5.88695e-07
6.1934e-07
6.50595e-07
6.82446e-07
7.14879e-07
7.47879e-07
7.81428e-07
8.15509e-07
8.50101e-07
8.85186e-07
9.2074e-07
9.56741e-07
9.93165e-07
1.02999e-06
1.06718e-06
1.10471e-06
1.14255e-06
1.18068e-06
1.21906e-06
1.25765e-06
1.29643e-06
1.33535e-06
1.37438e-06
1.41348e-06
1.45262e-06
1.49174e-06
1.53082e-06
1.56981e-06
1.60866e-06
1.64733e-06
1.68579e-06
1.72397e-06
1.76184e-06
1.79936e-06
1.83647e-06
1.87313e-06
1.9093e-06
1.94493e-06
1.97997e-06
2.01439e-06
2.04814e-06
2.08118e-06
2.11347e-06
2.14497e-06
2.17564e-06
2.20545e-06
2.23437e-06
2.26237e-06
2.28941e-06
2.31547e-06
2.34053e-06
2.36456e-06
2.38755e-06
2.40949e-06
2.43035e-06
2.45014e-06
-7.1319e-08
-7.49909e-08
-7.64969e-08
-7.72736e-08
-7.73434e-08
-7.66578e-08
-7.52303e-08
-7.30717e-08
-7.01846e-08
-6.65696e-08
-6.22265e-08
-5.71548e-08
-5.13537e-08
-4.48221e-08
-3.75593e-08
-2.95646e-08
-2.08374e-08
-1.13772e-08
-1.18324e-09
9.74537e-09
2.14097e-08
3.38108e-08
4.69496e-08
6.08265e-08
7.54415e-08
9.07942e-08
1.06884e-07
1.2371e-07
1.41271e-07
1.59566e-07
1.78595e-07
1.98356e-07
2.18846e-07
2.40065e-07
2.62008e-07
2.84674e-07
3.08058e-07
3.32156e-07
3.56964e-07
3.82476e-07
4.08686e-07
4.35587e-07
4.63172e-07
4.91433e-07
5.2036e-07
5.49944e-07
5.80175e-07
6.11041e-07
6.42529e-07
6.74626e-07
7.07318e-07
7.40589e-07
7.74423e-07
8.08801e-07
8.43705e-07
8.79114e-07
9.15005e-07
9.51357e-07
9.88144e-07
1.02534e-06
1.06292e-06
1.10086e-06
1.13912e-06
1.17767e-06
1.21649e-06
1.25553e-06
1.29476e-06
1.33415e-06
1.37366e-06
1.41324e-06
1.45287e-06
1.49249e-06
1.53207e-06
1.57155e-06
1.61091e-06
1.65009e-06
1.68904e-06
1.72772e-06
1.76609e-06
1.80409e-06
1.84168e-06
1.87882e-06
1.91544e-06
1.95152e-06
1.98699e-06
2.02182e-06
2.05597e-06
2.08938e-06
2.12202e-06
2.15385e-06
2.18483e-06
2.21492e-06
2.24409e-06
2.27231e-06
2.29954e-06
2.32576e-06
2.35095e-06
2.37509e-06
2.39815e-06
2.42012e-06
2.44099e-06
2.46076e-06
-8.33406e-08
-8.70316e-08
-8.85478e-08
-8.93335e-08
-8.94109e-08
-8.87315e-08
-8.73088e-08
-8.5154e-08
-8.22694e-08
-7.86557e-08
-7.43127e-08
-6.92396e-08
-6.34354e-08
-5.6899e-08
-4.96295e-08
-4.16261e-08
-3.2888e-08
-2.34144e-08
-1.32044e-08
-2.25668e-09
9.43004e-09
2.18571e-08
3.50256e-08
4.89362e-08
6.3589e-08
7.89841e-08
9.51209e-08
1.11999e-07
1.29618e-07
1.47977e-07
1.67076e-07
1.86913e-07
2.07488e-07
2.28798e-07
2.5084e-07
2.73614e-07
2.97114e-07
3.21337e-07
3.46279e-07
3.71935e-07
3.98298e-07
4.25364e-07
4.53124e-07
4.81572e-07
5.10697e-07
5.40493e-07
5.70947e-07
6.02049e-07
6.33787e-07
6.66148e-07
6.99117e-07
7.32679e-07
7.66818e-07
8.01516e-07
8.36754e-07
8.7251e-07
9.08764e-07
9.45493e-07
9.82672e-07
1.02028e-06
1.05828e-06
1.09665e-06
1.13535e-06
1.17437e-06
1.21365e-06
1.25318e-06
1.29291e-06
1.3328e-06
1.37282e-06
1.41293e-06
1.45309e-06
1.49325e-06
1.53336e-06
1.5734e-06
1.6133e-06
1.65302e-06
1.69252e-06
1.73175e-06
1.77065e-06
1.80919e-06
1.8473e-06
1.88495e-06
1.92207e-06
1.95863e-06
1.99458e-06
2.02986e-06
2.06444e-06
2.09826e-06
2.13129e-06
2.16348e-06
2.19479e-06
2.22519e-06
2.25464e-06
2.2831e-06
2.31054e-06
2.33694e-06
2.36228e-06
2.38652e-06
2.40966e-06
2.43167e-06
2.45255e-06
2.47229e-06
-9.62379e-08
-9.99491e-08
-1.01476e-07
-1.02271e-07
-1.02357e-07
-1.01684e-07
-1.00266e-07
-9.81152e-08
-9.52335e-08
-9.16214e-08
-8.72786e-08
-8.22043e-08
-7.63973e-08
-6.98563e-08
-6.25802e-08
-5.45681e-08
-4.58189e-08
-3.63316e-08
-2.61049e-08
-1.51372e-08
-3.42707e-09
9.02706e-09
2.22264e-08
3.61719e-08
5.08639e-08
6.63029e-08
8.24887e-08
9.94214e-08
1.17101e-07
1.35527e-07
1.547e-07
1.74618e-07
1.95281e-07
2.16687e-07
2.38835e-07
2.61721e-07
2.85344e-07
3.09699e-07
3.34782e-07
3.6059e-07
3.87116e-07
4.14356e-07
4.42302e-07
4.70948e-07
5.00284e-07
5.30304e-07
5.60996e-07
5.92349e-07
6.24353e-07
6.56994e-07
6.90258e-07
7.24131e-07
7.58596e-07
7.93635e-07
8.29228e-07
8.65357e-07
9.01999e-07
9.39131e-07
9.76729e-07
1.01477e-06
1.05322e-06
1.09205e-06
1.13124e-06
1.17075e-06
1.21054e-06
1.25059e-06
1.29085e-06
1.33129e-06
1.37186e-06
1.41254e-06
1.45326e-06
1.494e-06
1.53471e-06
1.57533e-06
1.61582e-06
1.65614e-06
1.69623e-06
1.73605e-06
1.77553e-06
1.81464e-06
1.85333e-06
1.89153e-06
1.9292e-06
1.96629e-06
2.00275e-06
2.03853e-06
2.07358e-06
2.10785e-06
2.1413e-06
2.17388e-06
2.20556e-06
2.23629e-06
2.26603e-06
2.29476e-06
2.32244e-06
2.34903e-06
2.37452e-06
2.39889e-06
2.42211e-06
2.44417e-06
2.46506e-06
2.48477e-06
-1.10013e-07
-1.13746e-07
-1.15284e-07
-1.16089e-07
-1.16183e-07
-1.15517e-07
-1.14105e-07
-1.11959e-07
-1.0908e-07
-1.0547e-07
-1.01128e-07
-9.60527e-08
-9.02432e-08
-8.36979e-08
-7.64157e-08
-6.8395e-08
-5.96348e-08
-5.01335e-08
-3.98897e-08
-2.89015e-08
-1.71673e-08
-4.68549e-09
8.54546e-09
2.25266e-08
3.72589e-08
5.27429e-08
6.89794e-08
8.59687e-08
1.03711e-07
1.22207e-07
1.41457e-07
1.61459e-07
1.82215e-07
2.03722e-07
2.25979e-07
2.48984e-07
2.72735e-07
2.97228e-07
3.22461e-07
3.48428e-07
3.75125e-07
4.02548e-07
4.3069e-07
4.59545e-07
4.89105e-07
5.19361e-07
5.50304e-07
5.81923e-07
6.14208e-07
6.47146e-07
6.80724e-07
7.14926e-07
7.49736e-07
7.85137e-07
8.2111e-07
8.57634e-07
8.94689e-07
9.32251e-07
9.70297e-07
1.0088e-06
1.04773e-06
1.08706e-06
1.12676e-06
1.16679e-06
1.20713e-06
1.24774e-06
1.28857e-06
1.32959e-06
1.37076e-06
1.41204e-06
1.45339e-06
1.49475e-06
1.53608e-06
1.57734e-06
1.61847e-06
1.65943e-06
1.70016e-06
1.74061e-06
1.78073e-06
1.82047e-06
1.85976e-06
1.89857e-06
1.93684e-06
1.9745e-06
2.01152e-06
2.04783e-06
2.08339e-06
2.11815e-06
2.15206e-06
2.18507e-06
2.21715e-06
2.24824e-06
2.27831e-06
2.30733e-06
2.33526e-06
2.36207e-06
2.38773e-06
2.41222e-06
2.43553e-06
2.45764e-06
2.47853e-06
2.49821e-06
-1.24669e-07
-1.28425e-07
-1.29975e-07
-1.30791e-07
-1.30893e-07
-1.30235e-07
-1.28829e-07
-1.26687e-07
-1.23812e-07
-1.20205e-07
-1.15864e-07
-1.10788e-07
-1.04977e-07
-9.84281e-08
-9.11401e-08
-8.31113e-08
-7.43402e-08
-6.48251e-08
-5.45641e-08
-4.35553e-08
-3.17969e-08
-1.92871e-08
-6.02427e-09
7.99305e-09
2.27662e-08
3.82963e-08
5.45847e-08
7.16321e-08
8.94395e-08
1.08008e-07
1.27337e-07
1.47427e-07
1.68278e-07
1.8989e-07
2.12261e-07
2.3539e-07
2.59274e-07
2.83911e-07
3.09299e-07
3.35433e-07
3.6231e-07
3.89925e-07
4.18273e-07
4.47348e-07
4.77141e-07
5.07646e-07
5.38854e-07
5.70753e-07
6.03335e-07
6.36586e-07
6.70493e-07
7.05043e-07
7.40218e-07
7.76002e-07
8.12376e-07
8.49321e-07
8.86814e-07
9.24833e-07
9.63353e-07
1.00235e-06
1.04179e-06
1.08165e-06
1.12189e-06
1.16249e-06
1.20341e-06
1.24461e-06
1.28605e-06
1.3277e-06
1.36951e-06
1.41144e-06
1.45344e-06
1.49547e-06
1.53748e-06
1.57942e-06
1.62124e-06
1.66289e-06
1.7043e-06
1.74544e-06
1.78624e-06
1.82665e-06
1.86662e-06
1.90608e-06
1.94498e-06
1.98327e-06
2.02089e-06
2.05779e-06
2.0939e-06
2.12919e-06
2.1636e-06
2.19708e-06
2.22958e-06
2.26107e-06
2.2915e-06
2.32083e-06
2.34903e-06
2.37607e-06
2.40192e-06
2.42655e-06
2.44995e-06
2.47211e-06
2.49301e-06
2.51265e-06
-1.40209e-07
-1.43988e-07
-1.45551e-07
-1.46378e-07
-1.4649e-07
-1.45839e-07
-1.4444e-07
-1.42304e-07
-1.39434e-07
-1.3583e-07
-1.31491e-07
-1.26416e-07
-1.20603e-07
-1.14051e-07
-1.06758e-07
-9.87216e-08
-8.99402e-08
-8.04116e-08
-7.01337e-08
-5.91047e-08
-4.73223e-08
-3.47847e-08
-2.14901e-08
-7.43645e-09
7.37793e-09
2.29548e-08
3.92959e-08
5.64027e-08
7.42765e-08
9.29184e-08
1.12329e-07
1.3251e-07
1.5346e-07
1.75179e-07
1.97668e-07
2.20924e-07
2.44947e-07
2.69734e-07
2.95282e-07
3.2159e-07
3.48654e-07
3.7647e-07
4.05033e-07
4.34337e-07
4.64376e-07
4.95141e-07
5.26625e-07
5.58819e-07
5.91711e-07
6.25291e-07
6.59545e-07
6.9446e-07
7.3002e-07
7.66208e-07
8.03006e-07
8.40394e-07
8.7835e-07
9.16852e-07
9.55875e-07
9.95393e-07
1.03538e-06
1.0758e-06
1.11662e-06
1.15782e-06
1.19935e-06
1.24118e-06
1.28328e-06
1.32559e-06
1.36808e-06
1.41071e-06
1.45341e-06
1.49616e-06
1.5389e-06
1.58157e-06
1.62412e-06
1.6665e-06
1.70866e-06
1.75054e-06
1.79207e-06
1.83321e-06
1.87389e-06
1.91406e-06
1.95366e-06
1.99262e-06
2.03089e-06
2.06841e-06
2.10513e-06
2.14099e-06
2.17594e-06
2.20992e-06
2.2429e-06
2.27481e-06
2.30563e-06
2.3353e-06
2.36379e-06
2.39108e-06
2.41713e-06
2.44191e-06
2.46542e-06
2.48762e-06
2.50852e-06
2.52811e-06
-1.56634e-07
-1.60438e-07
-1.62015e-07
-1.62853e-07
-1.62976e-07
-1.62334e-07
-1.60943e-07
-1.58813e-07
-1.55948e-07
-1.52348e-07
-1.48012e-07
-1.42938e-07
-1.37125e-07
-1.30571e-07
-1.23274e-07
-1.15231e-07
-1.0644e-07
-9.68985e-08
-8.66046e-08
-7.5556e-08
-6.37503e-08
-5.11856e-08
-3.78595e-08
-2.37697e-08
-8.91405e-09
6.70986e-09
2.31042e-08
4.0271e-08
5.82121e-08
7.6929e-08
9.64232e-08
1.16696e-07
1.37747e-07
1.59577e-07
1.82186e-07
2.05573e-07
2.29738e-07
2.54679e-07
2.80395e-07
3.06883e-07
3.34141e-07
3.62166e-07
3.90952e-07
4.20495e-07
4.50788e-07
4.81825e-07
5.13598e-07
5.46098e-07
5.79316e-07
6.1324e-07
6.47857e-07
6.83155e-07
7.19119e-07
7.55731e-07
7.92974e-07
8.30829e-07
8.69273e-07
9.08284e-07
9.47838e-07
9.87907e-07
1.02846e-06
1.06948e-06
1.11092e-06
1.15275e-06
1.19494e-06
1.23744e-06
1.28023e-06
1.32325e-06
1.36646e-06
1.40983e-06
1.45329e-06
1.4968e-06
1.54031e-06
1.58376e-06