/*--------------------------------*- C++ -*----------------------------------*\
| =========                 |                                                 |
| \\      /  F ield         | OpenFOAM: The Open Source CFD Toolbox           |
|  \\    /   O peration     | Version:  2406                                  |
|   \\  /    A nd           | Website:  www.openfoam.com                      |
|    \\/     M anipulation  |                                                 |
\*---------------------------------------------------------------------------*/
FoamFile
{
    version     2.0;
    format      ascii;
    arch        "LSB;label=32;scalar=64";
    class       surfaceScalarField;
    location    "80";
    object      phi;
}
// * * * * * * * * * * * * * * * * * * * * * * * * * * * * * * * * * * * * * //

dimensions      [0 3 -1 0 0 0 0];

oriented        oriented;

internalField   nonuniform List<scalar> 
31968
(
1.39091e-10
-1.4306e-10
-5.38831e-10
6.77921e-10
-2.00166e-09
1.46282e-09
-3.99863e-09
1.99696e-09
-6.29845e-09
2.29982e-09
-8.74057e-09
2.44212e-09
-1.12348e-08
2.4942e-09
-1.3739e-08
2.50427e-09
-1.62375e-08
2.49846e-09
-1.8726e-08
2.48846e-09
-2.12043e-08
2.47837e-09
-2.36734e-08
2.46904e-09
-2.61336e-08
2.46026e-09
-2.85852e-08
2.45159e-09
-3.10279e-08
2.44271e-09
-3.34613e-08
2.43339e-09
-3.58848e-08
2.42348e-09
-3.82977e-08
2.41291e-09
-4.06993e-08
2.40161e-09
-4.30889e-08
2.38953e-09
-4.54655e-08
2.37664e-09
-4.78285e-08
2.36292e-09
-5.01768e-08
2.34833e-09
-5.25096e-08
2.33285e-09
-5.48261e-08
2.31646e-09
-5.71252e-08
2.29912e-09
-5.94061e-08
2.28082e-09
-6.16676e-08
2.26153e-09
-6.39088e-08
2.24123e-09
-6.61287e-08
2.21988e-09
-6.83262e-08
2.19746e-09
-7.05001e-08
2.17395e-09
-7.26494e-08
2.14931e-09
-7.47729e-08
2.12351e-09
-7.68694e-08
2.09653e-09
-7.89378e-08
2.06834e-09
-8.09767e-08
2.03891e-09
-8.29849e-08
2.0082e-09
-8.49611e-08
1.97619e-09
-8.69039e-08
1.94284e-09
-8.88121e-08
1.90813e-09
-9.06841e-08
1.87203e-09
-9.25186e-08
1.83449e-09
-9.43141e-08
1.7955e-09
-9.60691e-08
1.75502e-09
-9.77821e-08
1.71303e-09
-9.94516e-08
1.66949e-09
-1.01076e-07
1.62437e-09
-1.02654e-07
1.57766e-09
-1.04183e-07
1.52932e-09
-1.05662e-07
1.47933e-09
-1.0709e-07
1.42766e-09
-1.08464e-07
1.3743e-09
-1.09783e-07
1.31923e-09
-1.11046e-07
1.26242e-09
-1.1225e-07
1.20387e-09
-1.13393e-07
1.14356e-09
-1.14475e-07
1.08148e-09
-1.15492e-07
1.01763e-09
-1.16444e-07
9.52004e-10
-1.17329e-07
8.84602e-10
-1.18144e-07
8.15429e-10
-1.18889e-07
7.44492e-10
-1.19561e-07
6.71804e-10
-1.20158e-07
5.97379e-10
-1.20679e-07
5.21238e-10
-1.21123e-07
4.43408e-10
-1.21487e-07
3.63919e-10
-1.21769e-07
2.82809e-10
-1.2197e-07
2.00128e-10
-1.22086e-07
1.15935e-10
-1.22116e-07
3.03695e-11
-1.22059e-07
-5.69077e-11
-1.21914e-07
-1.45204e-10
-1.21679e-07
-2.34892e-10
-1.21353e-07
-3.25762e-10
-1.20935e-07
-4.17731e-10
-1.20425e-07
-5.10711e-10
-1.1982e-07
-6.04608e-10
-1.19121e-07
-6.9932e-10
-1.18326e-07
-7.94741e-10
-1.17435e-07
-8.90757e-10
-1.16448e-07
-9.8725e-10
-1.15364e-07
-1.0841e-09
-1.14183e-07
-1.18117e-09
-1.12904e-07
-1.27834e-09
-1.11529e-07
-1.37546e-09
-1.10057e-07
-1.4724e-09
-1.08488e-07
-1.56901e-09
-1.06822e-07
-1.66515e-09
-1.05062e-07
-1.76067e-09
-1.03206e-07
-1.85542e-09
-1.01257e-07
-1.94924e-09
-9.92151e-08
-2.04199e-09
-9.70816e-08
-2.13352e-09
-9.48579e-08
-2.22367e-09
-9.25456e-08
-2.3123e-09
-9.01464e-08
-2.39926e-09
-8.7662e-08
-2.4844e-09
-8.50944e-08
-2.56759e-09
-8.24457e-08
-2.64868e-09
-2.72755e-09
-7.97181e-08
-6.84548e-10
5.41487e-10
-3.095e-09
3.08837e-09
-7.00382e-09
5.37165e-09
-1.19915e-08
6.98462e-09
-1.76503e-08
7.9586e-09
-2.3674e-08
8.4658e-09
-2.98689e-08
8.68913e-09
-3.61288e-08
8.76416e-09
-4.24022e-08
8.77188e-09
-4.8667e-08
8.75329e-09
-5.49147e-08
8.72602e-09
-6.11419e-08
8.69627e-09
-6.73472e-08
8.66548e-09
-7.35291e-08
8.63353e-09
-7.96863e-08
8.59993e-09
-8.58172e-08
8.56425e-09
-9.19199e-08
8.52617e-09
-9.79925e-08
8.48547e-09
-1.04033e-07
8.44197e-09
-1.10039e-07
8.39557e-09
-1.16008e-07
8.34615e-09
-1.21939e-07
8.29365e-09
-1.27829e-07
8.23797e-09
-1.33675e-07
8.17904e-09
-1.39475e-07
8.11679e-09
-1.45227e-07
8.05114e-09
-1.50929e-07
7.98203e-09
-1.56576e-07
7.90938e-09
-1.62168e-07
7.83311e-09
-1.67702e-07
7.75315e-09
-1.73173e-07
7.66941e-09
-1.78581e-07
7.58182e-09
-1.83922e-07
7.4903e-09
-1.89194e-07
7.39475e-09
-1.94392e-07
7.2951e-09
-1.99515e-07
7.19125e-09
-2.04559e-07
7.08313e-09
-2.09522e-07
6.97063e-09
-2.14399e-07
6.85368e-09
-2.19189e-07
6.73219e-09
-2.23886e-07
6.60606e-09
-2.2849e-07
6.4752e-09
-2.32995e-07
6.33952e-09
-2.37398e-07
6.19894e-09
-2.41696e-07
6.05336e-09
-2.45886e-07
5.90271e-09
-2.49963e-07
5.74689e-09
-2.53925e-07
5.58583e-09
-2.57767e-07
5.41944e-09
-2.61485e-07
5.24766e-09
-2.65076e-07
5.07041e-09
-2.68536e-07
4.88763e-09
-2.71861e-07
4.69925e-09
-2.75047e-07
4.50523e-09
-2.7809e-07
4.30551e-09
-2.80986e-07
4.10006e-09
-2.83732e-07
3.88884e-09
-2.86322e-07
3.67184e-09
-2.88753e-07
3.44902e-09
-2.91022e-07
3.2204e-09
-2.93123e-07
2.98598e-09
-2.95054e-07
2.74578e-09
-2.96809e-07
2.49981e-09
-2.98385e-07
2.24813e-09
-2.99779e-07
1.99079e-09
-3.00985e-07
1.72786e-09
-3.02001e-07
1.45942e-09
-3.02823e-07
1.18558e-09
-3.03446e-07
9.06444e-10
-3.03868e-07
6.22173e-10
-3.04085e-07
3.32933e-10
-3.04094e-07
3.87396e-11
-3.03891e-07
-2.59726e-10
-3.03473e-07
-5.62846e-10
-3.02838e-07
-8.70036e-10
-3.01983e-07
-1.18111e-09
-3.00905e-07
-1.49582e-09
-2.99602e-07
-1.81388e-09
-2.98071e-07
-2.13498e-09
-2.96312e-07
-2.45881e-09
-2.94321e-07
-2.78503e-09
-2.92099e-07
-3.11328e-09
-2.89643e-07
-3.44317e-09
-2.86953e-07
-3.77432e-09
-2.84028e-07
-4.10631e-09
-2.80867e-07
-4.43872e-09
-2.77472e-07
-4.7711e-09
-2.73841e-07
-5.10302e-09
-2.69976e-07
-5.43399e-09
-2.65878e-07
-5.76354e-09
-2.61547e-07
-6.09121e-09
-2.56986e-07
-6.41648e-09
-2.52196e-07
-6.73888e-09
-2.47181e-07
-7.05789e-09
-2.41941e-07
-7.37303e-09
-2.36481e-07
-7.68379e-09
-2.30804e-07
-7.98967e-09
-2.24913e-07
-8.29019e-09
-2.18812e-07
-8.58483e-09
-2.12507e-07
-8.87314e-09
-2.06001e-07
-9.15463e-09
-9.42883e-09
-1.99299e-07
-1.48835e-09
2.02983e-09
-5.4307e-09
7.0307e-09
-1.12979e-08
1.12389e-08
-1.85262e-08
1.42129e-08
-2.66129e-08
1.60453e-08
-3.51835e-08
1.70364e-08
-4.39957e-08
1.75013e-08
-5.29104e-08
1.76788e-08
-6.18554e-08
1.77169e-08
-7.07963e-08
1.76942e-08
-7.97172e-08
1.7647e-08
-8.86109e-08
1.75899e-08
-9.7473e-08
1.75276e-08
-1.063e-07
1.7461e-08
-1.1509e-07
1.73899e-08
-1.2384e-07
1.73139e-08
-1.32546e-07
1.72324e-08
-1.41206e-07
1.71453e-08
-1.49816e-07
1.70521e-08
-1.58374e-07
1.69529e-08
-1.66875e-07
1.68473e-08
-1.75316e-07
1.67352e-08
-1.83695e-07
1.66165e-08
-1.92007e-07
1.6491e-08
-2.00249e-07
1.63587e-08
-2.08417e-07
1.62194e-08
-2.16508e-07
1.6073e-08
-2.24518e-07
1.59193e-08
-2.32443e-07
1.57583e-08
-2.4028e-07
1.55897e-08
-2.48024e-07
1.54134e-08
-2.55671e-07
1.52294e-08
-2.63218e-07
1.50374e-08
-2.70661e-07
1.48372e-08
-2.77995e-07
1.46289e-08
-2.85215e-07
1.44121e-08
-2.92319e-07
1.41868e-08
-2.99301e-07
1.39528e-08
-3.06157e-07
1.37099e-08
-3.12883e-07
1.3458e-08
-3.19474e-07
1.31969e-08
-3.25925e-07
1.29264e-08
-3.32232e-07
1.26465e-08
-3.3839e-07
1.23569e-08
-3.44394e-07
1.20575e-08
-3.5024e-07
1.17481e-08
-3.55921e-07
1.14286e-08
-3.61434e-07
1.10989e-08
-3.66774e-07
1.07588e-08
-3.71934e-07
1.04082e-08
-3.76911e-07
1.0047e-08
-3.81698e-07
9.67502e-09
-3.86291e-07
9.29221e-09
-3.90685e-07
8.89847e-09
-3.94873e-07
8.49373e-09
-3.98851e-07
8.07792e-09
-4.02613e-07
7.651e-09
-4.06154e-07
7.21292e-09
-4.09469e-07
6.76368e-09
-4.12551e-07
6.30328e-09
-4.15397e-07
5.83174e-09
-4.18e-07
5.34911e-09
-4.20356e-07
4.85545e-09
-4.22459e-07
4.35085e-09
-4.24303e-07
3.83544e-09
-4.25885e-07
3.30933e-09
-4.27198e-07
2.77272e-09
-4.28238e-07
2.22579e-09
-4.29001e-07
1.66879e-09
-4.29481e-07
1.10198e-09
-4.29673e-07
5.25656e-10
-4.29575e-07
-5.98036e-11
-4.2918e-07
-6.54015e-10
-4.28487e-07
-1.25652e-09
-4.2749e-07
-1.86687e-09
-4.26186e-07
-2.48462e-09
-4.24573e-07
-3.10926e-09
-4.22647e-07
-3.74025e-09
-4.20405e-07
-4.37701e-09
-4.17844e-07
-5.01893e-09
-4.14964e-07
-5.66535e-09
-4.11762e-07
-6.31559e-09
-4.08236e-07
-6.96892e-09
-4.04386e-07
-7.62458e-09
-4.0021e-07
-8.2818e-09
-3.95709e-07
-8.93975e-09
-3.90883e-07
-9.5976e-09
-3.85731e-07
-1.02545e-08
-3.80256e-07
-1.09095e-08
-3.74458e-07
-1.15617e-08
-3.68339e-07
-1.22103e-08
-3.61901e-07
-1.28542e-08
-3.55147e-07
-1.34925e-08
-3.48081e-07
-1.41242e-08
-3.40706e-07
-1.47485e-08
-3.33025e-07
-1.53642e-08
-3.25044e-07
-1.59705e-08
-3.16768e-07
-1.65664e-08
-3.08202e-07
-1.71509e-08
-2.99352e-07
-1.7723e-08
-2.90225e-07
-1.8282e-08
-1.88267e-08
-2.80827e-07
-2.05102e-09
4.08086e-09
-7.12351e-09
1.21032e-08
-1.44103e-08
1.85257e-08
-2.32074e-08
2.301e-08
-3.29454e-08
2.57833e-08
-4.32158e-08
2.73068e-08
-5.37571e-08
2.80426e-08
-6.44177e-08
2.83395e-08
-7.51172e-08
2.84163e-08
-8.5815e-08
2.8392e-08
-9.64914e-08
2.83234e-08
-1.07136e-07
2.82346e-08
-1.17743e-07
2.81343e-08
-1.28307e-07
2.8025e-08
-1.38824e-07
2.79072e-08
-1.49291e-07
2.77805e-08
-1.59703e-07
2.76444e-08
-1.70056e-07
2.74987e-08
-1.80347e-07
2.7343e-08
-1.90571e-07
2.7177e-08
-2.00724e-07
2.70006e-08
-2.10803e-07
2.68135e-08
-2.20802e-07
2.66156e-08
-2.30717e-07
2.64066e-08
-2.40545e-07
2.61864e-08
-2.50281e-07
2.59548e-08
-2.59919e-07
2.57117e-08
-2.69457e-07
2.54567e-08
-2.78888e-07
2.51899e-08
-2.88209e-07
2.49108e-08
-2.97415e-07
2.46194e-08
-3.06501e-07
2.43155e-08
-3.15463e-07
2.39988e-08
-3.24295e-07
2.36691e-08
-3.32992e-07
2.33262e-08
-3.4155e-07
2.29699e-08
-3.49963e-07
2.26e-08
-3.58226e-07
2.22162e-08
-3.66335e-07
2.18184e-08
-3.74283e-07
2.14062e-08
-3.82066e-07
2.09796e-08
-3.89678e-07
2.05381e-08
-3.97113e-07
2.00817e-08
-4.04366e-07
1.96101e-08
-4.11432e-07
1.91231e-08
-4.18304e-07
1.86205e-08
-4.24978e-07
1.8102e-08
-4.31446e-07
1.75675e-08
-4.37704e-07
1.70167e-08
-4.43745e-07
1.64496e-08
-4.49564e-07
1.58659e-08
-4.55155e-07
1.52655e-08
-4.60511e-07
1.46482e-08
-4.65626e-07
1.4014e-08
-4.70495e-07
1.33626e-08
-4.75111e-07
1.26942e-08
-4.79469e-07
1.20085e-08
-4.83562e-07
1.13055e-08
-4.87383e-07
1.05854e-08
-4.90928e-07
9.84795e-09
-4.9419e-07
9.09337e-09
-4.97162e-07
8.3217e-09
-4.9984e-07
7.53307e-09
-5.02217e-07
6.72763e-09
-5.04287e-07
5.90557e-09
-5.06044e-07
5.06712e-09
-5.07484e-07
4.21256e-09
-5.08601e-07
3.34221e-09
-5.09388e-07
2.45644e-09
-5.09842e-07
1.55568e-09
-5.09957e-07
6.40407e-10
-5.09728e-07
-2.88838e-10
-5.0915e-07
-1.23136e-09
-5.0822e-07
-2.18653e-09
-5.06934e-07
-3.15365e-09
-5.05286e-07
-4.13201e-09
-5.03275e-07
-5.12083e-09
-5.00896e-07
-6.11926e-09
-4.98146e-07
-7.1264e-09
-4.95024e-07
-8.1413e-09
-4.91526e-07
-9.16294e-09
-4.87652e-07
-1.01903e-08
-4.83398e-07
-1.12221e-08
-4.78766e-07
-1.22574e-08
-4.73752e-07
-1.32948e-08
-4.68359e-07
-1.43332e-08
-4.62585e-07
-1.53712e-08
-4.56432e-07
-1.64074e-08
-4.49901e-07
-1.74406e-08
-4.42994e-07
-1.84693e-08
-4.35712e-07
-1.9492e-08
-4.28059e-07
-2.05074e-08
-4.20038e-07
-2.15138e-08
-4.11652e-07
-2.251e-08
-4.02906e-07
-2.34943e-08
-3.93805e-07
-2.44652e-08
-3.84354e-07
-2.54213e-08
-3.7456e-07
-2.6361e-08
-3.64428e-07
-2.72829e-08
-3.53965e-07
-2.81855e-08
-3.4318e-07
-2.90674e-08
-2.9927e-08
-3.3208e-07
-2.38417e-09
6.46503e-09
-8.18386e-09
1.79029e-08
-1.63957e-08
2.67375e-08
-2.62038e-08
3.28181e-08
-3.69866e-08
3.6566e-08
-4.83148e-08
3.8635e-08
-5.99197e-08
3.96475e-08
-7.16471e-08
4.00669e-08
-8.34148e-08
4.0184e-08
-9.51808e-08
4.0158e-08
-1.06924e-07
4.00664e-08
-1.18632e-07
3.99429e-08
-1.30298e-07
3.98004e-08
-1.41917e-07
3.96434e-08
-1.53482e-07
3.94728e-08
-1.64991e-07
3.92887e-08
-1.76437e-07
3.90906e-08
-1.87816e-07
3.88782e-08
-1.99125e-07
3.86513e-08
-2.10357e-07
3.84095e-08
-2.21509e-07
3.81525e-08
-2.32576e-07
3.78802e-08
-2.43552e-07
3.75923e-08
-2.54434e-07
3.72885e-08
-2.65217e-07
3.69686e-08
-2.75894e-07
3.66324e-08
-2.86462e-07
3.62797e-08
-2.96916e-07
3.59102e-08
-3.07249e-07
3.55237e-08
-3.17458e-07
3.51199e-08
-3.27538e-07
3.46985e-08
-3.37481e-07
3.42594e-08
-3.47285e-07
3.38022e-08
-3.56943e-07
3.33267e-08
-3.66449e-07
3.28326e-08
-3.75799e-07
3.23196e-08
-3.84986e-07
3.17874e-08
-3.94006e-07
3.12357e-08
-4.02851e-07
3.06643e-08
-4.11518e-07
3.00729e-08
-4.2e-07
2.94611e-08
-4.2829e-07
2.88287e-08
-4.36384e-07
2.81753e-08
-4.44274e-07
2.75008e-08
-4.51956e-07
2.68048e-08
-4.59423e-07
2.60871e-08
-4.66668e-07
2.53474e-08
-4.73686e-07
2.45854e-08
-4.8047e-07
2.38009e-08
-4.87014e-07
2.29937e-08
-4.93312e-07
2.21636e-08
-4.99357e-07
2.13103e-08
-5.05142e-07
2.04338e-08
-5.10662e-07
1.95338e-08
-5.1591e-07
1.86103e-08
-5.20879e-07
1.76632e-08
-5.25563e-07
1.66924e-08
-5.29955e-07
1.56979e-08
-5.3405e-07
1.46796e-08
-5.37839e-07
1.36378e-08
-5.41318e-07
1.25723e-08
-5.4448e-07
1.14835e-08
-5.47318e-07
1.03714e-08
-5.49827e-07
9.23627e-09
-5.52e-07
8.07846e-09
-5.53831e-07
6.89827e-09
-5.55315e-07
5.6961e-09
-5.56445e-07
4.47241e-09
-5.57216e-07
3.22773e-09
-5.57623e-07
1.96264e-09
-5.5766e-07
6.77823e-10
-5.57323e-07
-6.25934e-10
-5.56607e-07
-1.94774e-09
-5.55507e-07
-3.28672e-09
-5.54018e-07
-4.64193e-09
-5.52138e-07
-6.01236e-09
-5.49862e-07
-7.39691e-09
-5.47187e-07
-8.79442e-09
-5.4411e-07
-1.02036e-08
-5.40628e-07
-1.16232e-08
-5.36739e-07
-1.30518e-08
-5.32441e-07
-1.44879e-08
-5.27733e-07
-1.59299e-08
-5.22615e-07
-1.73763e-08
-5.17084e-07
-1.88254e-08
-5.11142e-07
-2.02755e-08
-5.04788e-07
-2.17247e-08
-4.98024e-07
-2.31713e-08
-4.90852e-07
-2.46132e-08
-4.83272e-07
-2.60487e-08
-4.75289e-07
-2.74757e-08
-4.66904e-07
-2.88922e-08
-4.58121e-07
-3.02962e-08
-4.48946e-07
-3.16857e-08
-4.39381e-07
-3.30585e-08
-4.29434e-07
-3.44127e-08
-4.19109e-07
-3.57461e-08
-4.08414e-07
-3.70566e-08
-3.97354e-07
-3.83423e-08
-3.85939e-07
-3.96011e-08
-3.74175e-07
-4.08311e-08
-4.20301e-08
-3.62072e-07
-2.5527e-09
9.01772e-09
-8.76889e-09
2.41191e-08
-1.75284e-08
3.54971e-08
-2.79381e-08
4.32278e-08
-3.93374e-08
4.79654e-08
-5.12821e-08
5.05797e-08
-6.34997e-08
5.1865e-08
-7.58362e-08
5.24035e-08
-8.82107e-08
5.25584e-08
-1.00582e-07
5.2529e-08
-1.12928e-07
5.24126e-08
-1.25237e-07
5.22524e-08
-1.37502e-07
5.20653e-08
-1.49716e-07
5.18574e-08
-1.61874e-07
5.16306e-08
-1.7397e-07
5.1385e-08
-1.86e-07
5.11205e-08
-1.97959e-07
5.08367e-08
-2.09841e-07
5.05335e-08
-2.21642e-07
5.02103e-08
-2.33356e-07
4.9867e-08
-2.44979e-07
4.95033e-08
-2.56506e-07
4.91189e-08
-2.67931e-07
4.87136e-08
-2.79249e-07
4.8287e-08
-2.90456e-07
4.78389e-08
-3.01545e-07
4.7369e-08
-3.12512e-07
4.6877e-08
-3.23351e-07
4.63627e-08
-3.34057e-07
4.58257e-08
-3.44624e-07
4.52657e-08
-3.55047e-07
4.46824e-08
-3.6532e-07
4.40754e-08
-3.75438e-07
4.34446e-08
-3.85395e-07
4.27894e-08
-3.95185e-07
4.21096e-08
-4.04802e-07
4.14047e-08
-4.14241e-07
4.06746e-08
-4.23495e-07
3.99188e-08
-4.32559e-07
3.9137e-08
-4.41427e-07
3.83287e-08
-4.50092e-07
3.74937e-08
-4.58548e-07
3.66317e-08
-4.6679e-07
3.57422e-08
-4.7481e-07
3.48249e-08
-4.82602e-07
3.38796e-08
-4.90161e-07
3.29059e-08
-4.97479e-07
3.19034e-08
-5.0455e-07
3.0872e-08
-5.11368e-07
2.98113e-08
-5.17925e-07
2.87211e-08
-5.24216e-07
2.76012e-08
-5.30233e-07
2.64513e-08
-5.35971e-07
2.52714e-08
-5.41422e-07
2.40612e-08
-5.46579e-07
2.28208e-08
-5.51437e-07
2.155e-08
-5.55988e-07
2.02488e-08
-5.60226e-07
1.89173e-08
-5.64143e-07
1.75555e-08
-5.67735e-07
1.61636e-08
-5.70993e-07
1.47418e-08
-5.73912e-07
1.32903e-08
-5.76485e-07
1.18094e-08
-5.78706e-07
1.02996e-08
-5.80569e-07
8.76133e-09
-5.82068e-07
7.19504e-09
-5.83197e-07
5.60139e-09
-5.8395e-07
3.98105e-09
-5.84323e-07
2.33481e-09
-5.84308e-07
6.63541e-10
-5.83903e-07
-1.03175e-09
-5.831e-07
-2.74997e-09
-5.81897e-07
-4.48999e-09
-5.80288e-07
-6.2506e-09
-5.7827e-07
-8.03047e-09
-5.75839e-07
-9.82817e-09
-5.72991e-07
-1.16422e-08
-5.69724e-07
-1.34709e-08
-5.66034e-07
-1.53127e-08
-5.61921e-07
-1.71656e-08
-5.57381e-07
-1.90279e-08
-5.52413e-07
-2.08975e-08
-5.47017e-07
-2.27724e-08
-5.41192e-07
-2.46504e-08
-5.34938e-07
-2.65293e-08
-5.28256e-07
-2.84068e-08
-5.21147e-07
-3.02805e-08
-5.13612e-07
-3.21481e-08
-5.05654e-07
-3.4007e-08
-4.97275e-07
-3.58546e-08
-4.88478e-07
-3.76885e-08
-4.79269e-07
-3.95061e-08
-4.6965e-07
-4.13046e-08
-4.59627e-07
-4.30815e-08
-4.49205e-07
-4.4834e-08
-4.38392e-07
-4.65596e-08
-4.27193e-07
-4.82556e-08
-4.15616e-07
-4.99194e-08
-4.03669e-07
-5.15483e-08
-3.9136e-07
-5.31398e-08
-5.46914e-08
-3.78699e-07
-2.62515e-09
1.16429e-08
-9.05635e-09
3.05502e-08
-1.81142e-08
4.4555e-08
-2.88584e-08
5.39719e-08
-4.06013e-08
5.97083e-08
-5.2887e-08
6.28654e-08
-6.54399e-08
6.4418e-08
-7.81069e-08
6.50704e-08
-9.08081e-08
6.52596e-08
-1.03503e-07
6.52243e-08
-1.16172e-07
6.50815e-08
-1.28803e-07
6.4883e-08
-1.41387e-07
6.46498e-08
-1.53919e-07
6.43894e-08
-1.66393e-07
6.41044e-08
-1.78804e-07
6.37954e-08
-1.91145e-07
6.34621e-08
-2.03413e-07
6.31045e-08
-2.15602e-07
6.27221e-08
-2.27706e-07
6.23147e-08
-2.39721e-07
6.1882e-08
-2.51642e-07
6.14237e-08
-2.63462e-07
6.09394e-08
-2.75177e-07
6.04289e-08
-2.86782e-07
5.98919e-08
-2.98271e-07
5.9328e-08
-3.09639e-07
5.87369e-08
-3.2088e-07
5.81182e-08
-3.31989e-07
5.74718e-08
-3.42961e-07
5.6797e-08
-3.53789e-07
5.60938e-08
-3.64468e-07
5.53615e-08
-3.74992e-07
5.45999e-08
-3.85357e-07
5.38086e-08
-3.95554e-07
5.29872e-08
-4.0558e-07
5.21353e-08
-4.15428e-07
5.12525e-08
-4.25092e-07
5.03383e-08
-4.34565e-07
4.93924e-08
-4.43843e-07
4.84144e-08
-4.52918e-07
4.74038e-08
-4.61784e-07
4.63602e-08
-4.70436e-07
4.52833e-08
-4.78866e-07
4.41725e-08
-4.87069e-07
4.30276e-08
-4.95037e-07
4.18481e-08
-5.02765e-07
4.06338e-08
-5.10246e-07
3.93841e-08
-5.17473e-07
3.80988e-08
-5.24439e-07
3.67777e-08
-5.31139e-07
3.54203e-08
-5.37564e-07
3.40265e-08
-5.43709e-07
3.25961e-08
-5.49566e-07
3.11288e-08
-5.55129e-07
2.96244e-08
-5.60391e-07
2.8083e-08
-5.65346e-07
2.65045e-08
-5.69986e-07
2.48888e-08
-5.74305e-07
2.3236e-08
-5.78295e-07
2.15463e-08
-5.81952e-07
1.98198e-08
-5.85267e-07
1.80568e-08
-5.88234e-07
1.62575e-08
-5.90847e-07
1.44225e-08
-5.93099e-07
1.25521e-08
-5.94985e-07
1.06471e-08
-5.96498e-07
8.70793e-09
-5.97632e-07
6.73549e-09
-5.98382e-07
4.73061e-09
-5.98741e-07
2.69424e-09
-5.98705e-07
6.27478e-10
-5.98268e-07
-1.46849e-09
-5.97426e-07
-3.59234e-09
-5.96173e-07
-5.74271e-09
-5.94506e-07
-7.91806e-09
-5.92419e-07
-1.01168e-08
-5.89911e-07
-1.23371e-08
-5.86976e-07
-1.45771e-08
-5.83612e-07
-1.6835e-08
-5.79816e-07
-1.91084e-08
-5.75586e-07
-2.13954e-08
-5.70921e-07
-2.36935e-08
-5.65818e-07
-2.60002e-08
-5.60277e-07
-2.83132e-08
-5.54298e-07
-3.06297e-08
-5.4788e-07
-3.2947e-08
-5.41025e-07
-3.52623e-08
-5.33732e-07
-3.75727e-08
-5.26005e-07
-3.98752e-08
-5.17845e-07
-4.21668e-08
-5.09256e-07
-4.44445e-08
-5.00239e-07
-4.67049e-08
-4.908e-07
-4.8945e-08
-4.80943e-07
-5.11615e-08
-4.70674e-07
-5.33512e-08
-4.59997e-07
-5.55108e-08
-4.48919e-07
-5.76371e-08
-4.37448e-07
-5.97269e-08
-4.25591e-07
-6.17768e-08
-4.13355e-07
-6.37837e-08
-4.0075e-07
-6.57446e-08
-6.76562e-08
-3.87786e-07
-2.6508e-09
1.42937e-08
-9.18394e-09
3.70834e-08
-1.8395e-08
5.3766e-08
-2.93174e-08
6.48943e-08
-4.12462e-08
7.16371e-08
-5.37166e-08
7.53358e-08
-6.645e-08
7.71514e-08
-7.92933e-08
7.79136e-08
-9.21676e-08
7.81339e-08
-1.05034e-07
7.80906e-08
-1.17872e-07
7.79197e-08
-1.30671e-07
7.76819e-08
-1.43423e-07
7.74016e-08
-1.56121e-07
7.70879e-08
-1.68761e-07
7.67439e-08
-1.81336e-07
7.63704e-08
-1.93841e-07
7.59674e-08
-2.06271e-07
7.55347e-08
-2.18621e-07
7.5072e-08
-2.30886e-07
7.45791e-08
-2.43059e-07
7.40555e-08
-2.55137e-07
7.35011e-08
-2.67113e-07
7.29153e-08
-2.78982e-07
7.22981e-08
-2.90739e-07
7.16488e-08
-3.02378e-07
7.09673e-08
-3.13894e-07
7.02531e-08
-3.25282e-07
6.95059e-08
-3.36535e-07
6.87253e-08
-3.47649e-07
6.79108e-08
-3.58618e-07
6.70621e-08
-3.69435e-07
6.61788e-08
-3.80095e-07
6.52603e-08
-3.90593e-07
6.43063e-08
-4.00922e-07
6.33163e-08
-4.11077e-07
6.22899e-08
-4.21051e-07
6.12266e-08
-4.30838e-07
6.01258e-08
-4.40433e-07
5.89873e-08
-4.49829e-07
5.78104e-08
-4.5902e-07
5.65947e-08
-4.67999e-07
5.53397e-08
-4.76761e-07
5.40451e-08
-4.85299e-07
5.27102e-08
-4.93606e-07
5.13347e-08
-5.01676e-07
4.99181e-08
-5.09502e-07
4.846e-08
-5.17078e-07
4.696e-08
-5.24397e-07
4.54178e-08
-5.31452e-07
4.38329e-08
-5.38237e-07
4.22051e-08
-5.44744e-07
4.0534e-08
-5.50968e-07
3.88195e-08
-5.569e-07
3.70613e-08
-5.62535e-07
3.52592e-08
-5.67865e-07
3.34132e-08
-5.72884e-07
3.15232e-08
-5.77584e-07
2.95892e-08
-5.8196e-07
2.76113e-08
-5.86003e-07
2.55896e-08
-5.89708e-07
2.35245e-08
-5.93067e-07
2.14161e-08
-5.96074e-07
1.92649e-08
-5.98723e-07
1.70713e-08
-6.01007e-07
1.48361e-08
-6.0292e-07
1.25597e-08
-6.04455e-07
1.02432e-08
-6.05607e-07
7.88729e-09
-6.06369e-07
5.4931e-09
-6.06737e-07
3.06174e-09
-6.06704e-07
5.94525e-10
-6.06265e-07
-1.90717e-09
-6.05416e-07
-4.44181e-09
-6.04151e-07
-7.00774e-09
-6.02466e-07
-9.60315e-09
-6.00356e-07
-1.22261e-08
-5.97819e-07
-1.48745e-08
-5.9485e-07
-1.75461e-08
-5.91446e-07
-2.02386e-08
-5.87605e-07
-2.29496e-08
-5.83324e-07
-2.56762e-08
-5.78602e-07
-2.84159e-08
-5.73436e-07
-3.11658e-08
-5.67827e-07
-3.39227e-08
-5.61773e-07
-3.66836e-08
-5.55274e-07
-3.94454e-08
-5.48332e-07
-4.22045e-08
-5.40947e-07
-4.49576e-08
-5.33121e-07
-4.77012e-08
-5.24857e-07
-5.04316e-08
-5.16156e-07
-5.31451e-08
-5.07023e-07
-5.58381e-08
-4.97461e-07
-5.85067e-08
-4.87475e-07
-6.11471e-08
-4.77071e-07
-6.37555e-08
-4.66254e-07
-6.63279e-08
-4.55031e-07
-6.88606e-08
-4.43408e-07
-7.13496e-08
-4.31394e-07
-7.37911e-08
-4.18996e-07
-7.61815e-08
-4.06224e-07
-7.85168e-08
-8.07935e-08
-3.93086e-07
-2.65779e-09
1.69515e-08
-9.23768e-09
4.36633e-08
-1.85269e-08
6.30552e-08
-2.95455e-08
7.59129e-08
-4.15777e-08
8.36693e-08
-5.41522e-08
8.79104e-08
-6.69877e-08
8.99869e-08
-7.99303e-08
9.08562e-08
-9.29016e-08
9.11052e-08
-1.05863e-07
9.1052e-08
-1.18795e-07
9.0852e-08
-1.31688e-07
9.05741e-08
-1.44532e-07
9.02462e-08
-1.57323e-07
8.98788e-08
-1.70054e-07
8.94754e-08
-1.82721e-07
8.90371e-08
-1.95318e-07
8.85639e-08
-2.07839e-07
8.80558e-08
-2.20279e-07
8.75124e-08
-2.32633e-07
8.69334e-08
-2.44896e-07
8.63186e-08
-2.57063e-07
8.56674e-08
-2.69127e-07
8.49797e-08
-2.81084e-07
8.42551e-08
-2.92929e-07
8.34931e-08
-3.04655e-07
8.26933e-08
-3.16257e-07
8.18554e-08
-3.2773e-07
8.0979e-08
-3.39068e-07
8.00635e-08
-3.50266e-07
7.91085e-08
-3.61317e-07
7.81137e-08
-3.72217e-07
7.70784e-08
-3.82959e-07
7.60023e-08
-3.93538e-07
7.48848e-08
-4.03947e-07
7.37254e-08
-4.1418e-07
7.25236e-08
-4.24233e-07
7.12789e-08
-4.34098e-07
6.99908e-08
-4.43769e-07
6.86586e-08
-4.53241e-07
6.72819e-08
-4.62506e-07
6.58602e-08
-4.71559e-07
6.43929e-08
-4.80394e-07
6.28795e-08
-4.89003e-07
6.13194e-08
-4.9738e-07
5.97122e-08
-5.0552e-07
5.80574e-08
-5.13414e-07
5.63544e-08
-5.21057e-07
5.46029e-08
-5.28442e-07
5.28025e-08
-5.35561e-07
5.09526e-08
-5.42409e-07
4.9053e-08
-5.48979e-07
4.71033e-08
-5.55262e-07
4.51033e-08
-5.61254e-07
4.30527e-08
-5.66946e-07
4.09513e-08
-5.72332e-07
3.87991e-08
-5.77404e-07
3.65959e-08
-5.82157e-07
3.43419e-08
-5.86583e-07
3.2037e-08
-5.90675e-07
2.96815e-08
-5.94426e-07
2.72757e-08
-5.9783e-07
2.48199e-08
-6.00879e-07
2.23145e-08
-6.03568e-07
1.97602e-08
-6.0589e-07
1.71577e-08
-6.07838e-07
1.45076e-08
-6.09406e-07
1.18111e-08
-6.10587e-07
9.06901e-09
-6.11377e-07
6.28269e-09
-6.11769e-07
3.45341e-09
-6.11757e-07
5.82675e-10
-6.11336e-07
-2.32794e-09
-6.10501e-07
-5.27665e-09
-6.09247e-07
-8.26154e-09
-6.0757e-07
-1.12805e-08
-6.05465e-07
-1.43313e-08
-6.02928e-07
-1.74115e-08
-5.99955e-07
-2.05186e-08
-5.96544e-07
-2.36498e-08
-5.92692e-07
-2.68022e-08
-5.88395e-07
-2.99728e-08
-5.83653e-07
-3.31584e-08
-5.78463e-07
-3.63556e-08
-5.72824e-07
-3.95611e-08
-5.66737e-07
-4.2771e-08
-5.60201e-07
-4.59817e-08
-5.53216e-07
-4.91894e-08
-5.45783e-07
-5.239e-08
-5.37905e-07
-5.55794e-08
-5.29583e-07
-5.87534e-08
-5.20821e-07
-6.19077e-08
-5.11621e-07
-6.50381e-08
-5.01987e-07
-6.81401e-08
-4.91925e-07
-7.12093e-08
-4.81439e-07
-7.42412e-08
-4.70536e-07
-7.72313e-08
-4.59221e-07
-8.01751e-08
-4.47503e-07
-8.30681e-08
-4.35388e-07
-8.59059e-08
-4.22885e-07
-8.86842e-08
-4.10004e-07
-9.13985e-08
-9.40446e-08
-3.96752e-07
-2.65963e-09
1.96111e-08
-9.26345e-09
5.02671e-08
-1.85969e-08
7.23886e-08
-2.96734e-08
8.69894e-08
-4.17704e-08
9.57663e-08
-5.44117e-08
1.00552e-07
-6.73136e-08
1.02889e-07
-8.03212e-08
1.03864e-07
-9.33561e-08
1.0414e-07
-1.0638e-07
1.04076e-07
-1.19374e-07
1.03846e-07
-1.32327e-07
1.03527e-07
-1.45232e-07
1.03151e-07
-1.58084e-07
1.0273e-07
-1.70876e-07
1.02267e-07
-1.83603e-07
1.01764e-07
-1.9626e-07
1.01221e-07
-2.08841e-07
1.00637e-07
-2.21342e-07
1.00013e-07
-2.33756e-07
9.93481e-08
-2.4608e-07
9.86419e-08
-2.58307e-07
9.78942e-08
-2.70431e-07
9.71044e-08
-2.82449e-07
9.62724e-08
-2.94353e-07
9.53976e-08
-3.06139e-07
9.44796e-08
-3.17802e-07
9.35179e-08
-3.29335e-07
9.25122e-08
-3.40733e-07
9.14618e-08
-3.51991e-07
9.03664e-08
-3.63103e-07
8.92254e-08
-3.74063e-07
8.80382e-08
-3.84865e-07
8.68044e-08
-3.95503e-07
8.55234e-08
-4.05972e-07
8.41945e-08
-4.16266e-07
8.28173e-08
-4.26378e-07
8.13912e-08
-4.36303e-07
7.99156e-08
-4.46034e-07
7.83898e-08
-4.55566e-07
7.68132e-08
-4.64891e-07
7.51854e-08
-4.74003e-07
7.35056e-08
-4.82897e-07
7.17733e-08
-4.91566e-07
6.99879e-08
-5.00003e-07
6.81489e-08
-5.08201e-07
6.62557e-08
-5.16154e-07
6.43077e-08
-5.23856e-07
6.23044e-08
-5.31299e-07
6.02454e-08
-5.38476e-07
5.81303e-08
-5.45382e-07
5.59585e-08
-5.52008e-07
5.37298e-08
-5.58349e-07
5.14438e-08
-5.64396e-07
4.91003e-08
-5.70144e-07
4.66991e-08
-5.75585e-07
4.424e-08
-5.80712e-07
4.1723e-08
-5.85518e-07
3.91481e-08
-5.89996e-07
3.65154e-08
-5.9414e-07
3.38251e-08
-5.97942e-07
3.10775e-08
-6.01395e-07
2.82731e-08
-6.04493e-07
2.54124e-08
-6.07229e-07
2.24959e-08
-6.09596e-07
1.95246e-08
-6.11587e-07
1.64992e-08
-6.13197e-07
1.34209e-08
-6.14419e-07
1.02908e-08
-6.15247e-07
7.11035e-09
-6.15674e-07
3.88099e-09
-6.15696e-07
6.04417e-10
-6.15306e-07
-2.71758e-09
-6.145e-07
-6.08295e-09
-6.13272e-07
-9.48953e-09
-6.11618e-07
-1.29349e-08
-6.09532e-07
-1.64166e-08
-6.07012e-07
-1.99318e-08
-6.04053e-07
-2.34776e-08
-6.00652e-07
-2.70509e-08
-5.96806e-07
-3.06484e-08
-5.92512e-07
-3.42667e-08
-5.87768e-07
-3.79021e-08
-5.82573e-07
-4.15508e-08
-5.76925e-07
-4.52088e-08
-5.70824e-07
-4.8872e-08
-5.6427e-07
-5.25361e-08
-5.57262e-07
-5.61968e-08
-5.49803e-07
-5.98493e-08
-5.41893e-07
-6.34892e-08
-5.33535e-07
-6.71115e-08
-5.24731e-07
-7.07115e-08
-5.15485e-07
-7.4284e-08
-5.05801e-07
-7.78243e-08
-4.95684e-07
-8.1327e-08
-4.85138e-07
-8.47873e-08
-4.74169e-07
-8.81998e-08
-4.62784e-07
-9.15595e-08
-4.50991e-07
-9.48613e-08
-4.38797e-07
-9.81002e-08
-4.2621e-07
-1.01271e-07
-4.1324e-07
-1.04369e-07
-1.07389e-07
-3.99896e-07
-2.66169e-09
2.22728e-08
-9.28243e-09
5.68878e-08
-1.86477e-08
8.17538e-08
-2.97669e-08
9.81086e-08
-4.1913e-08
1.07912e-07
-5.46064e-08
1.13245e-07
-6.7561e-08
1.15843e-07
-8.06209e-08
1.16924e-07
-9.37074e-08
1.17226e-07
-1.06782e-07
1.17151e-07
-1.19826e-07
1.1689e-07
-1.3283e-07
1.16531e-07
-1.45785e-07
1.16107e-07
-1.58686e-07
1.15631e-07
-1.71528e-07
1.15109e-07
-1.84305e-07
1.14541e-07
-1.97012e-07
1.13928e-07
-2.09643e-07
1.13269e-07
-2.22194e-07
1.12564e-07
-2.3466e-07
1.11813e-07
-2.47034e-07
1.11016e-07
-2.59312e-07
1.10172e-07
-2.71488e-07
1.0928e-07
-2.83556e-07
1.08341e-07
-2.95513e-07
1.07354e-07
-3.07351e-07
1.06318e-07
-3.19066e-07
1.05233e-07
-3.30652e-07
1.04098e-07
-3.42103e-07
1.02913e-07
-3.53414e-07
1.01678e-07
-3.6458e-07
1.00391e-07
-3.75593e-07
9.9052e-08
-3.8645e-07
9.76608e-08
-3.97143e-07
9.62166e-08
-4.07667e-07
9.47186e-08
-4.18016e-07
9.31664e-08
-4.28184e-07
9.15592e-08
-4.38165e-07
8.98964e-08
-4.47953e-07
8.81774e-08
-4.57541e-07
8.64013e-08
-4.66923e-07
8.45677e-08
-4.76093e-07
8.26758e-08
-4.85045e-07
8.0725e-08
-4.93772e-07
7.87146e-08
-5.02267e-07
7.66441e-08
-5.10524e-07
7.45127e-08
-5.18536e-07
7.23199e-08
-5.26297e-07
7.00651e-08
-5.33799e-07
6.77478e-08
-5.41036e-07
6.53674e-08
-5.48001e-07
6.29236e-08
-5.54688e-07
6.04159e-08
-5.61088e-07
5.7844e-08
-5.67195e-07
5.52075e-08
-5.73002e-07
5.25063e-08
-5.78502e-07
4.97401e-08
-5.83688e-07
4.69089e-08
-5.88553e-07
4.40128e-08
-5.93089e-07
4.10518e-08
-5.9729e-07
3.80262e-08
-6.01149e-07
3.49362e-08
-6.04658e-07
3.17824e-08
-6.07811e-07
2.85654e-08
-6.10601e-07
2.52857e-08
-6.13021e-07
2.19444e-08
-6.15064e-07
1.85424e-08
-6.16724e-07
1.50809e-08
-6.17994e-07
1.15611e-08
-6.18869e-07
7.98473e-09
-6.19341e-07
4.35333e-09
-6.19405e-07
6.68817e-10
-6.19056e-07
-3.06683e-09
-6.18288e-07
-6.85131e-09
-6.17095e-07
-1.06822e-08
-6.15473e-07
-1.45568e-08
-6.13418e-07
-1.84723e-08
-6.10924e-07
-2.24257e-08
-6.07988e-07
-2.64135e-08
-6.04606e-07
-3.04324e-08
-6.00776e-07
-3.44787e-08
-5.96494e-07
-3.85485e-08
-5.91759e-07
-4.26377e-08
-5.86567e-07
-4.67419e-08
-5.80919e-07
-5.08569e-08
-5.74814e-07
-5.49778e-08
-5.6825e-07
-5.90999e-08
-5.61228e-07
-6.32182e-08
-5.5375e-07
-6.73276e-08
-5.45816e-07
-7.14229e-08
-5.37429e-07
-7.54985e-08
-5.28592e-07
-7.95491e-08
-5.19307e-07
-8.35691e-08
-5.09578e-07
-8.75527e-08
-4.99411e-07
-9.14943e-08
-4.8881e-07
-9.53881e-08
-4.77782e-07
-9.92283e-08
-4.66332e-07
-1.03009e-07
-4.54468e-07
-1.06725e-07
-4.42199e-07
-1.1037e-07
-4.29531e-07
-1.13938e-07
-4.16475e-07
-1.17425e-07
-1.20823e-07
-4.03041e-07
-2.66551e-09
2.49383e-08
-9.30291e-09
6.35252e-08
-1.86973e-08
9.11482e-08
-2.98552e-08
1.09267e-07
-4.20463e-08
1.20103e-07
-5.47878e-08
1.25987e-07
-6.77918e-08
1.28847e-07
-8.09014e-08
1.30033e-07
-9.40373e-08
1.30362e-07
-1.07161e-07
1.30275e-07
-1.20254e-07
1.29983e-07
-1.33306e-07
1.29582e-07
-1.4631e-07
1.2911e-07
-1.5926e-07
1.28581e-07
-1.7215e-07
1.27999e-07
-1.84976e-07
1.27367e-07
-1.97732e-07
1.26684e-07
-2.10413e-07
1.2595e-07
-2.23013e-07
1.25165e-07
-2.35529e-07
1.24329e-07
-2.47953e-07
1.23441e-07
-2.60281e-07
1.225e-07
-2.72508e-07
1.21507e-07
-2.84628e-07
1.20461e-07
-2.96637e-07
1.19362e-07
-3.08527e-07
1.18208e-07
-3.20295e-07
1.17e-07
-3.31933e-07
1.15737e-07
-3.43438e-07
1.14418e-07
-3.54804e-07
1.13043e-07
-3.66023e-07
1.11611e-07
-3.77092e-07
1.10121e-07
-3.88004e-07
1.08573e-07
-3.98753e-07
1.06966e-07
-4.09334e-07
1.05299e-07
-4.19741e-07
1.03573e-07