/*--------------------------------*- C++ -*----------------------------------*\
| =========                 |                                                 |
| \\      /  F ield         | OpenFOAM: The Open Source CFD Toolbox           |
|  \\    /   O peration     | Version:  2406                                  |
|   \\  /    A nd           | Website:  www.openfoam.com                      |
|    \\/     M anipulation  |                                                 |
\*---------------------------------------------------------------------------*/
FoamFile
{
    version     2.0;
    format      ascii;
    arch        "LSB;label=32;scalar=64";
    class       volVectorField;
    location    "80";
    object      U;
}
// * * * * * * * * * * * * * * * * * * * * * * * * * * * * * * * * * * * * * //

dimensions      [0 1 -1 0 0 0 0];

internalField   nonuniform List<vector> 
16128
(
(1.3405e-07 -1.36264e-07 0)
(1.62077e-08 3.45409e-08 0)
(-7.23634e-07 2.15634e-07 0)
(-1.86504e-06 3.30255e-07 0)
(-3.26456e-06 3.87641e-07 0)
(-4.79815e-06 4.08616e-07 0)
(-6.3868e-06 4.11821e-07 0)
(-7.99054e-06 4.08686e-07 0)
(-9.59309e-06 4.04485e-07 0)
(-1.11894e-05 4.0099e-07 0)
(-1.2779e-05 3.98438e-07 0)
(-1.43621e-05 3.9658e-07 0)
(-1.59395e-05 3.95122e-07 0)
(-1.75114e-05 3.93848e-07 0)
(-1.90776e-05 3.92627e-07 0)
(-2.06381e-05 3.91388e-07 0)
(-2.21924e-05 3.90089e-07 0)
(-2.37401e-05 3.88708e-07 0)
(-2.52809e-05 3.8723e-07 0)
(-2.68142e-05 3.85646e-07 0)
(-2.83395e-05 3.83947e-07 0)
(-2.98563e-05 3.82128e-07 0)
(-3.1364e-05 3.80183e-07 0)
(-3.28621e-05 3.78106e-07 0)
(-3.435e-05 3.75892e-07 0)
(-3.58272e-05 3.73534e-07 0)
(-3.72929e-05 3.71029e-07 0)
(-3.87466e-05 3.68369e-07 0)
(-4.01876e-05 3.65549e-07 0)
(-4.16153e-05 3.62564e-07 0)
(-4.3029e-05 3.59408e-07 0)
(-4.4428e-05 3.56074e-07 0)
(-4.58116e-05 3.52556e-07 0)
(-4.71791e-05 3.48848e-07 0)
(-4.85297e-05 3.44943e-07 0)
(-4.98626e-05 3.40836e-07 0)
(-5.11771e-05 3.36518e-07 0)
(-5.24724e-05 3.31985e-07 0)
(-5.37476e-05 3.27228e-07 0)
(-5.50018e-05 3.22241e-07 0)
(-5.62343e-05 3.17018e-07 0)
(-5.74442e-05 3.11551e-07 0)
(-5.86305e-05 3.05835e-07 0)
(-5.97923e-05 2.99861e-07 0)
(-6.09287e-05 2.93624e-07 0)
(-6.20386e-05 2.87117e-07 0)
(-6.31213e-05 2.80333e-07 0)
(-6.41755e-05 2.73267e-07 0)
(-6.52004e-05 2.65912e-07 0)
(-6.61948e-05 2.58263e-07 0)
(-6.71578e-05 2.50314e-07 0)
(-6.80883e-05 2.4206e-07 0)
(-6.89851e-05 2.33496e-07 0)
(-6.98473e-05 2.24618e-07 0)
(-7.06737e-05 2.15422e-07 0)
(-7.14631e-05 2.05904e-07 0)
(-7.22145e-05 1.96062e-07 0)
(-7.29268e-05 1.85893e-07 0)
(-7.35987e-05 1.75397e-07 0)
(-7.42292e-05 1.64571e-07 0)
(-7.48172e-05 1.53416e-07 0)
(-7.53615e-05 1.41932e-07 0)
(-7.58609e-05 1.30121e-07 0)
(-7.63143e-05 1.17984e-07 0)
(-7.67207e-05 1.05524e-07 0)
(-7.70789e-05 9.27459e-08 0)
(-7.73878e-05 7.96534e-08 0)
(-7.76463e-05 6.62528e-08 0)
(-7.78535e-05 5.25514e-08 0)
(-7.80082e-05 3.85581e-08 0)
(-7.81096e-05 2.42846e-08 0)
(-7.81566e-05 9.7572e-09 0)
(-7.81483e-05 -4.94797e-09 0)
(-7.80838e-05 -1.99924e-08 0)
(-7.79623e-05 -3.52771e-08 0)
(-7.77831e-05 -5.07655e-08 0)
(-7.75453e-05 -6.64454e-08 0)
(-7.72483e-05 -8.23017e-08 0)
(-7.68916e-05 -9.83162e-08 0)
(-7.64744e-05 -1.14469e-07 0)
(-7.59964e-05 -1.3074e-07 0)
(-7.54572e-05 -1.47106e-07 0)
(-7.48563e-05 -1.63545e-07 0)
(-7.41935e-05 -1.80033e-07 0)
(-7.34686e-05 -1.96544e-07 0)
(-7.26816e-05 -2.13053e-07 0)
(-7.18324e-05 -2.29534e-07 0)
(-7.09211e-05 -2.4596e-07 0)
(-6.99478e-05 -2.62304e-07 0)
(-6.89128e-05 -2.78538e-07 0)
(-6.78165e-05 -2.94634e-07 0)
(-6.66592e-05 -3.10565e-07 0)
(-6.54416e-05 -3.26304e-07 0)
(-6.41643e-05 -3.41821e-07 0)
(-6.2828e-05 -3.57091e-07 0)
(-6.14335e-05 -3.72087e-07 0)
(-5.99818e-05 -3.86783e-07 0)
(-5.84739e-05 -4.01152e-07 0)
(-5.69109e-05 -4.15172e-07 0)
(-5.5294e-05 -4.28817e-07 0)
(-5.36245e-05 -4.42066e-07 0)
(-5.19038e-05 -4.54897e-07 0)
(-3.69253e-08 -1.89519e-08 0)
(-9.06265e-07 8.99472e-07 0)
(-3.03344e-06 1.77106e-06 0)
(-5.95335e-06 2.37686e-06 0)
(-9.41143e-06 2.73025e-06 0)
(-1.31861e-05 2.90398e-06 0)
(-1.71177e-05 2.97319e-06 0)
(-2.11143e-05 2.99124e-06 0)
(-2.513e-05 2.9883e-06 0)
(-2.91443e-05 2.9786e-06 0)
(-3.31491e-05 2.96763e-06 0)
(-3.71414e-05 2.95688e-06 0)
(-4.112e-05 2.94642e-06 0)
(-4.50842e-05 2.93591e-06 0)
(-4.9033e-05 2.92506e-06 0)
(-5.29654e-05 2.91362e-06 0)
(-5.68805e-05 2.90145e-06 0)
(-6.07769e-05 2.88845e-06 0)
(-6.46534e-05 2.87456e-06 0)
(-6.85086e-05 2.85973e-06 0)
(-7.23411e-05 2.84391e-06 0)
(-7.61495e-05 2.82708e-06 0)
(-7.99324e-05 2.8092e-06 0)
(-8.36883e-05 2.79024e-06 0)
(-8.74155e-05 2.77017e-06 0)
(-9.11127e-05 2.74898e-06 0)
(-9.47781e-05 2.72662e-06 0)
(-9.84102e-05 2.70307e-06 0)
(-0.000102007 2.6783e-06 0)
(-0.000105568 2.65229e-06 0)
(-0.00010909 2.62499e-06 0)
(-0.000112572 2.59638e-06 0)
(-0.000116012 2.56643e-06 0)
(-0.000119408 2.5351e-06 0)
(-0.000122759 2.50236e-06 0)
(-0.000126062 2.46817e-06 0)
(-0.000129316 2.43252e-06 0)
(-0.000132519 2.39535e-06 0)
(-0.000135668 2.35663e-06 0)
(-0.000138762 2.31633e-06 0)
(-0.000141798 2.27442e-06 0)
(-0.000144775 2.23086e-06 0)
(-0.00014769 2.18561e-06 0)
(-0.000150542 2.13864e-06 0)
(-0.000153327 2.08992e-06 0)
(-0.000156043 2.03941e-06 0)
(-0.000158689 1.98708e-06 0)
(-0.000161262 1.9329e-06 0)
(-0.00016376 1.87684e-06 0)
(-0.00016618 1.81886e-06 0)
(-0.000168519 1.75894e-06 0)
(-0.000170776 1.69706e-06 0)
(-0.000172948 1.63319e-06 0)
(-0.000175032 1.56731e-06 0)
(-0.000177026 1.49939e-06 0)
(-0.000178927 1.42943e-06 0)
(-0.000180733 1.35741e-06 0)
(-0.000182441 1.28332e-06 0)
(-0.000184049 1.20715e-06 0)
(-0.000185553 1.1289e-06 0)
(-0.000186952 1.04857e-06 0)
(-0.000188243 9.66169e-07 0)
(-0.000189423 8.817e-07 0)
(-0.000190489 7.95179e-07 0)
(-0.00019144 7.06624e-07 0)
(-0.000192273 6.1606e-07 0)
(-0.000192985 5.23515e-07 0)
(-0.000193573 4.29028e-07 0)
(-0.000194036 3.3264e-07 0)
(-0.000194371 2.34408e-07 0)
(-0.000194576 1.34398e-07 0)
(-0.000194649 3.26855e-08 0)
(-0.000194587 -7.06945e-08 0)
(-0.000194389 -1.75684e-07 0)
(-0.000194053 -2.82157e-07 0)
(-0.000193576 -3.90017e-07 0)
(-0.000192958 -4.99174e-07 0)
(-0.000192196 -6.09529e-07 0)
(-0.00019129 -7.2097e-07 0)
(-0.000190237 -8.33383e-07 0)
(-0.000189037 -9.46642e-07 0)
(-0.00018769 -1.06062e-06 0)
(-0.000186193 -1.17517e-06 0)
(-0.000184546 -1.29016e-06 0)
(-0.000182749 -1.40544e-06 0)
(-0.000180802 -1.52085e-06 0)
(-0.000178704 -1.63623e-06 0)
(-0.000176455 -1.75143e-06 0)
(-0.000174057 -1.86626e-06 0)
(-0.000171508 -1.98057e-06 0)
(-0.000168811 -2.09418e-06 0)
(-0.000165965 -2.20691e-06 0)
(-0.000162973 -2.31859e-06 0)
(-0.000159835 -2.42904e-06 0)
(-0.000156553 -2.53808e-06 0)
(-0.000153128 -2.64554e-06 0)
(-0.000149564 -2.75123e-06 0)
(-0.000145861 -2.85499e-06 0)
(-0.000142024 -2.95664e-06 0)
(-0.000138053 -3.05602e-06 0)
(-0.000133953 -3.15295e-06 0)
(-0.000129726 -3.24729e-06 0)
(-2.22276e-07 7.30217e-07 0)
(-1.79889e-06 3.03406e-06 0)
(-5.09202e-06 5.04782e-06 0)
(-9.3807e-06 6.47902e-06 0)
(-1.43461e-05 7.35543e-06 0)
(-1.97228e-05 7.82206e-06 0)
(-2.53137e-05 8.03495e-06 0)
(-3.10015e-05 8.11185e-06 0)
(-3.67239e-05 8.12476e-06 0)
(-4.24508e-05 8.11114e-06 0)
(-4.81682e-05 8.08777e-06 0)
(-5.38697e-05 8.06097e-06 0)
(-5.95521e-05 8.03252e-06 0)
(-6.52132e-05 8.0026e-06 0)
(-7.08513e-05 7.97093e-06 0)
(-7.64644e-05 7.93718e-06 0)
(-8.20508e-05 7.90111e-06 0)
(-8.76085e-05 7.86254e-06 0)
(-9.31354e-05 7.82132e-06 0)
(-9.86295e-05 7.77736e-06 0)
(-0.000104089 7.73056e-06 0)
(-0.000109511 7.68086e-06 0)
(-0.000114894 7.62818e-06 0)
(-0.000120235 7.57246e-06 0)
(-0.000125533 7.51363e-06 0)
(-0.000130785 7.45163e-06 0)
(-0.000135989 7.38641e-06 0)
(-0.000141141 7.31788e-06 0)
(-0.000146241 7.24599e-06 0)
(-0.000151286 7.17066e-06 0)
(-0.000156272 7.09183e-06 0)
(-0.000161198 7.00943e-06 0)
(-0.000166061 6.92338e-06 0)
(-0.000170858 6.83362e-06 0)
(-0.000175587 6.74006e-06 0)
(-0.000180245 6.64263e-06 0)
(-0.00018483 6.54125e-06 0)
(-0.000189338 6.43585e-06 0)
(-0.000193767 6.32634e-06 0)
(-0.000198114 6.21266e-06 0)
(-0.000202376 6.09471e-06 0)
(-0.00020655 5.97242e-06 0)
(-0.000210633 5.84572e-06 0)
(-0.000214623 5.71452e-06 0)
(-0.000218515 5.57874e-06 0)
(-0.000222308 5.43832e-06 0)
(-0.000225997 5.29318e-06 0)
(-0.00022958 5.14325e-06 0)
(-0.000233054 4.98845e-06 0)
(-0.000236415 4.82873e-06 0)
(-0.000239659 4.66402e-06 0)
(-0.000242785 4.49427e-06 0)
(-0.000245787 4.31942e-06 0)
(-0.000248664 4.13944e-06 0)
(-0.00025141 3.95426e-06 0)
(-0.000254024 3.76388e-06 0)
(-0.000256502 3.56825e-06 0)
(-0.00025884 3.36735e-06 0)
(-0.000261034 3.16119e-06 0)
(-0.000263082 2.94975e-06 0)
(-0.00026498 2.73304e-06 0)
(-0.000266725 2.51108e-06 0)
(-0.000268313 2.2839e-06 0)
(-0.00026974 2.05153e-06 0)
(-0.000271004 1.81403e-06 0)
(-0.000272101 1.57147e-06 0)
(-0.000273028 1.32391e-06 0)
(-0.000273782 1.07145e-06 0)
(-0.000274359 8.14197e-07 0)
(-0.000274758 5.5229e-07 0)
(-0.000274974 2.8587e-07 0)
(-0.000275004 1.50846e-08 0)
(-0.000274847 -2.59925e-07 0)
(-0.0002745 -5.38843e-07 0)
(-0.000273959 -8.21497e-07 0)
(-0.000273224 -1.10768e-06 0)
(-0.000272291 -1.39715e-06 0)
(-0.000271158 -1.68966e-06 0)
(-0.000269825 -1.98494e-06 0)
(-0.000268289 -2.28268e-06 0)
(-0.000266548 -2.58259e-06 0)
(-0.000264602 -2.88434e-06 0)
(-0.000262449 -3.18758e-06 0)
(-0.000260089 -3.49197e-06 0)
(-0.000257521 -3.79712e-06 0)
(-0.000254744 -4.10265e-06 0)
(-0.000251759 -4.40817e-06 0)
(-0.000248566 -4.71325e-06 0)
(-0.000245166 -5.0175e-06 0)
(-0.000241558 -5.32046e-06 0)
(-0.000237744 -5.62171e-06 0)
(-0.000233725 -5.92079e-06 0)
(-0.000229504 -6.21727e-06 0)
(-0.000225081 -6.51069e-06 0)
(-0.000220459 -6.80058e-06 0)
(-0.000215641 -7.0865e-06 0)
(-0.000210628 -7.368e-06 0)
(-0.000205425 -7.64461e-06 0)
(-0.000200035 -7.91589e-06 0)
(-0.000194461 -8.1814e-06 0)
(-0.000188707 -8.4407e-06 0)
(-0.000182778 -8.69337e-06 0)
(-3.43576e-07 1.89665e-06 0)
(-2.43624e-06 5.99037e-06 0)
(-6.59233e-06 9.35302e-06 0)
(-1.18562e-05 1.17211e-05 0)
(-1.78596e-05 1.31862e-05 0)
(-2.43132e-05 1.39867e-05 0)
(-3.10042e-05 1.43687e-05 0)
(-3.78057e-05 1.45193e-05 0)
(-4.46494e-05 1.45555e-05 0)
(-5.15007e-05 1.45403e-05 0)
(-5.83425e-05 1.45035e-05 0)
(-6.51664e-05 1.44574e-05 0)
(-7.19677e-05 1.44062e-05 0)
(-7.8743e-05 1.43509e-05 0)
(-8.54896e-05 1.42916e-05 0)
(-9.22051e-05 1.4228e-05 0)
(-9.88869e-05 1.41599e-05 0)
(-0.000105532 1.40869e-05 0)
(-0.000112139 1.40089e-05 0)
(-0.000118705 1.39258e-05 0)
(-0.000125226 1.38374e-05 0)
(-0.000131701 1.37436e-05 0)
(-0.000138126 1.36443e-05 0)
(-0.0001445 1.35394e-05 0)
(-0.000150818 1.34289e-05 0)
(-0.000157079 1.33125e-05 0)
(-0.00016328 1.31903e-05 0)
(-0.000169417 1.30621e-05 0)
(-0.000175487 1.29278e-05 0)
(-0.000181489 1.27873e-05 0)
(-0.000187418 1.26404e-05 0)
(-0.000193273 1.24872e-05 0)
(-0.000199049 1.23274e-05 0)
(-0.000204743 1.2161e-05 0)
(-0.000210353 1.19878e-05 0)
(-0.000215876 1.18077e-05 0)
(-0.000221307 1.16206e-05 0)
(-0.000226645 1.14264e-05 0)
(-0.000231884 1.1225e-05 0)
(-0.000237023 1.10161e-05 0)
(-0.000242058 1.07998e-05 0)
(-0.000246985 1.05758e-05 0)
(-0.000251801 1.03441e-05 0)
(-0.000256502 1.01046e-05 0)
(-0.000261085 9.85704e-06 0)
(-0.000265546 9.6014e-06 0)
(-0.000269882 9.33755e-06 0)
(-0.000274088 9.06537e-06 0)
(-0.000278161 8.78477e-06 0)
(-0.000282098 8.49565e-06 0)
(-0.000285894 8.1979e-06 0)
(-0.000289546 7.89146e-06 0)
(-0.00029305 7.57623e-06 0)
(-0.000296402 7.25216e-06 0)
(-0.000299598 6.91918e-06 0)
(-0.000302634 6.57725e-06 0)
(-0.000305506 6.22634e-06 0)
(-0.000308211 5.86641e-06 0)
(-0.000310745 5.49747e-06 0)
(-0.000313103 5.11952e-06 0)
(-0.000315282 4.73258e-06 0)
(-0.000317278 4.33669e-06 0)
(-0.000319087 3.93192e-06 0)
(-0.000320705 3.51833e-06 0)
(-0.000322129 3.09602e-06 0)
(-0.000323355 2.66511e-06 0)
(-0.000324379 2.22573e-06 0)
(-0.000325198 1.77806e-06 0)
(-0.000325808 1.32228e-06 0)
(-0.000326206 8.58615e-07 0)
(-0.000326388 3.87304e-07 0)
(-0.000326352 -9.13719e-08 0)
(-0.000326095 -5.77031e-07 0)
(-0.000325613 -1.06936e-06 0)
(-0.000324905 -1.56799e-06 0)
(-0.000323966 -2.07256e-06 0)
(-0.000322796 -2.58265e-06 0)
(-0.000321391 -3.09783e-06 0)
(-0.000319751 -3.61763e-06 0)
(-0.000317872 -4.14155e-06 0)
(-0.000315754 -4.66906e-06 0)
(-0.000313395 -5.19962e-06 0)
(-0.000310794 -5.73263e-06 0)
(-0.000307951 -6.26748e-06 0)
(-0.000304864 -6.80354e-06 0)
(-0.000301534 -7.34016e-06 0)
(-0.000297961 -7.87666e-06 0)
(-0.000294144 -8.41232e-06 0)
(-0.000290085 -8.94644e-06 0)
(-0.000285785 -9.47829e-06 0)
(-0.000281244 -1.00071e-05 0)
(-0.000276464 -1.05321e-05 0)
(-0.000271448 -1.10526e-05 0)
(-0.000266197 -1.15677e-05 0)
(-0.000260714 -1.20768e-05 0)
(-0.000255002 -1.25789e-05 0)
(-0.000249065 -1.30733e-05 0)
(-0.000242905 -1.35593e-05 0)
(-0.000236528 -1.4036e-05 0)
(-0.000229937 -1.45028e-05 0)
(-0.000223136 -1.49588e-05 0)
(-0.000216131 -1.54033e-05 0)
(-4.07954e-07 3.3408e-06 0)
(-2.82325e-06 9.52062e-06 0)
(-7.54405e-06 1.43767e-05 0)
(-1.34413e-05 1.77458e-05 0)
(-2.01076e-05 1.98284e-05 0)
(-2.72362e-05 2.09769e-05 0)
(-3.46071e-05 2.15362e-05 0)
(-4.20908e-05 2.17655e-05 0)
(-4.9618e-05 2.18277e-05 0)
(-5.71532e-05 2.18118e-05 0)
(-6.46784e-05 2.17608e-05 0)
(-7.21842e-05 2.16932e-05 0)
(-7.9665e-05 2.1616e-05 0)
(-8.71169e-05 2.15315e-05 0)
(-9.45365e-05 2.14399e-05 0)
(-0.000101921 2.13412e-05 0)
(-0.000109267 2.12352e-05 0)
(-0.000116572 2.11216e-05 0)
(-0.000123833 2.10002e-05 0)
(-0.000131047 2.08708e-05 0)
(-0.00013821 2.07333e-05 0)
(-0.000145321 2.05875e-05 0)
(-0.000152376 2.04333e-05 0)
(-0.000159371 2.02706e-05 0)
(-0.000166305 2.00992e-05 0)
(-0.000173172 1.9919e-05 0)
(-0.000179972 1.97298e-05 0)
(-0.000186699 1.95316e-05 0)
(-0.000193352 1.93242e-05 0)
(-0.000199927 1.91074e-05 0)
(-0.00020642 1.88811e-05 0)
(-0.000212828 1.86451e-05 0)
(-0.000219148 1.83994e-05 0)
(-0.000225376 1.81436e-05 0)
(-0.00023151 1.78778e-05 0)
(-0.000237544 1.76016e-05 0)
(-0.000243477 1.73151e-05 0)
(-0.000249304 1.70179e-05 0)
(-0.000255022 1.67099e-05 0)
(-0.000260627 1.63911e-05 0)
(-0.000266115 1.60611e-05 0)
(-0.000271483 1.57198e-05 0)
(-0.000276727 1.53671e-05 0)
(-0.000281843 1.50028e-05 0)
(-0.000286827 1.46268e-05 0)
(-0.000291675 1.42388e-05 0)
(-0.000296384 1.38388e-05 0)
(-0.000300949 1.34266e-05 0)
(-0.000305367 1.3002e-05 0)
(-0.000309633 1.2565e-05 0)
(-0.000313743 1.21154e-05 0)
(-0.000317694 1.16531e-05 0)
(-0.000321481 1.11779e-05 0)
(-0.000325099 1.06899e-05 0)
(-0.000328546 1.0189e-05 0)
(-0.000331816 9.675e-06 0)
(-0.000334906 9.14799e-06 0)
(-0.000337812 8.6079e-06 0)
(-0.000340528 8.05476e-06 0)
(-0.000343052 7.48857e-06 0)
(-0.000345379 6.90939e-06 0)
(-0.000347505 6.31728e-06 0)
(-0.000349426 5.71234e-06 0)
(-0.000351138 5.09469e-06 0)
(-0.000352637 4.46449e-06 0)
(-0.000353919 3.82191e-06 0)
(-0.000354981 3.16717e-06 0)
(-0.000355818 2.50052e-06 0)
(-0.000356427 1.82224e-06 0)
(-0.000356805 1.13266e-06 0)
(-0.000356948 4.32142e-07 0)
(-0.000356853 -2.78882e-07 0)
(-0.000356517 -9.99927e-07 0)
(-0.000355936 -1.73049e-06 0)
(-0.000355108 -2.47005e-06 0)
(-0.000354031 -3.21806e-06 0)
(-0.000352702 -3.97393e-06 0)
(-0.000351118 -4.73702e-06 0)
(-0.000349277 -5.50663e-06 0)
(-0.000347179 -6.28204e-06 0)
(-0.00034482 -7.06249e-06 0)
(-0.000342201 -7.84716e-06 0)
(-0.000339319 -8.63521e-06 0)
(-0.000336175 -9.42575e-06 0)
(-0.000332767 -1.02179e-05 0)
(-0.000329096 -1.10106e-05 0)
(-0.000325161 -1.18029e-05 0)
(-0.000320963 -1.25939e-05 0)
(-0.000316504 -1.33825e-05 0)
(-0.000311783 -1.41676e-05 0)
(-0.000306802 -1.4948e-05 0)
(-0.000301564 -1.57229e-05 0)
(-0.000296069 -1.64909e-05 0)
(-0.000290322 -1.7251e-05 0)
(-0.000284325 -1.8002e-05 0)
(-0.00027808 -1.87428e-05 0)
(-0.000271592 -1.94723e-05 0)
(-0.000264865 -2.01894e-05 0)
(-0.000257902 -2.08928e-05 0)
(-0.000250709 -2.15815e-05 0)
(-0.00024329 -2.22544e-05 0)
(-0.000235651 -2.29105e-05 0)
(-4.34672e-07 4.93731e-06 0)
(-3.02649e-06 1.34028e-05 0)
(-8.07935e-06 1.98543e-05 0)
(-1.43539e-05 2.42665e-05 0)
(-2.14136e-05 2.69796e-05 0)
(-2.89382e-05 2.84783e-05 0)
(-3.67027e-05 2.92142e-05 0)
(-4.45773e-05 2.95213e-05 0)
(-5.24935e-05 2.96089e-05 0)
(-6.04164e-05 2.95915e-05 0)
(-6.83283e-05 2.95252e-05 0)
(-7.62195e-05 2.94347e-05 0)
(-8.40844e-05 2.93295e-05 0)
(-9.19185e-05 2.92131e-05 0)
(-9.97183e-05 2.90864e-05 0)
(-0.00010748 2.89493e-05 0)
(-0.000115202 2.88018e-05 0)
(-0.000122879 2.86436e-05 0)
(-0.000130508 2.84745e-05 0)
(-0.000138088 2.82943e-05 0)
(-0.000145613 2.81029e-05 0)
(-0.000153082 2.79e-05 0)
(-0.000160491 2.76856e-05 0)
(-0.000167836 2.74595e-05 0)
(-0.000175115 2.72214e-05 0)
(-0.000182324 2.69713e-05 0)
(-0.000189459 2.67089e-05 0)
(-0.000196518 2.64341e-05 0)
(-0.000203497 2.61468e-05 0)
(-0.000210392 2.58467e-05 0)
(-0.0002172 2.55336e-05 0)
(-0.000223918 2.52075e-05 0)
(-0.000230542 2.4868e-05 0)
(-0.000237068 2.4515e-05 0)
(-0.000243492 2.41484e-05 0)
(-0.000249812 2.37678e-05 0)
(-0.000256023 2.33731e-05 0)
(-0.000262122 2.29641e-05 0)
(-0.000268105 2.25406e-05 0)
(-0.000273968 2.21024e-05 0)
(-0.000279707 2.16493e-05 0)
(-0.000285319 2.1181e-05 0)
(-0.000290798 2.06974e-05 0)
(-0.000296143 2.01983e-05 0)
(-0.000301347 1.96834e-05 0)
(-0.000306408 1.91526e-05 0)
(-0.000311322 1.86057e-05 0)
(-0.000316083 1.80426e-05 0)
(-0.000320689 1.74629e-05 0)
(-0.000325134 1.68667e-05 0)
(-0.000329415 1.62537e-05 0)
(-0.000333527 1.56239e-05 0)
(-0.000337467 1.4977e-05 0)
(-0.00034123 1.4313e-05 0)
(-0.000344811 1.36319e-05 0)
(-0.000348207 1.29335e-05 0)
(-0.000351413 1.22178e-05 0)
(-0.000354424 1.14848e-05 0)
(-0.000357238 1.07346e-05 0)
(-0.000359848 9.96715e-06 0)
(-0.000362252 9.18254e-06 0)
(-0.000364445 8.38087e-06 0)
(-0.000366423 7.5623e-06 0)
(-0.000368181 6.72699e-06 0)
(-0.000369716 5.87516e-06 0)
(-0.000371024 5.00706e-06 0)
(-0.000372101 4.12299e-06 0)
(-0.000372943 3.2233e-06 0)
(-0.000373546 2.30836e-06 0)
(-0.000373907 1.37861e-06 0)
(-0.000374022 4.34564e-07 0)
(-0.000373889 -5.23222e-07 0)
(-0.000373503 -1.49412e-06 0)
(-0.000372862 -2.47747e-06 0)
(-0.000371962 -3.47259e-06 0)
(-0.000370802 -4.47873e-06 0)
(-0.000369379 -5.4951e-06 0)
(-0.00036769 -6.52082e-06 0)
(-0.000365734 -7.555e-06 0)
(-0.000363508 -8.59665e-06 0)
(-0.000361011 -9.64477e-06 0)
(-0.000358242 -1.06983e-05 0)
(-0.0003552 -1.1756e-05 0)
(-0.000351884 -1.28169e-05 0)
(-0.000348293 -1.38796e-05 0)
(-0.000344428 -1.49429e-05 0)
(-0.000340288 -1.60055e-05 0)
(-0.000335875 -1.70661e-05 0)
(-0.000331189 -1.81232e-05 0)
(-0.000326231 -1.91755e-05 0)
(-0.000321002 -2.02215e-05 0)
(-0.000315506 -2.12597e-05 0)
(-0.000309743 -2.22888e-05 0)
(-0.000303717 -2.33071e-05 0)
(-0.000297431 -2.43132e-05 0)
(-0.000290888 -2.53056e-05 0)
(-0.000284092 -2.62828e-05 0)
(-0.000277047 -2.72432e-05 0)
(-0.000269757 -2.81853e-05 0)
(-0.000262228 -2.91078e-05 0)
(-0.000254465 -3.0009e-05 0)
(-0.000246473 -3.08877e-05 0)
(-4.4195e-07 6.60375e-06 0)
(-3.1191e-06 1.74725e-05 0)
(-8.34973e-06 2.55851e-05 0)
(-1.48328e-05 3.10676e-05 0)
(-2.2112e-05 3.44178e-05 0)
(-2.98568e-05 3.62648e-05 0)
(-3.78379e-05 3.71736e-05 0)
(-4.59254e-05 3.75553e-05 0)
(-5.40517e-05 3.76659e-05 0)
(-6.21829e-05 3.76456e-05 0)
(-7.03017e-05 3.75629e-05 0)
(-7.8399e-05 3.74483e-05 0)
(-8.64689e-05 3.7314e-05 0)
(-9.45071e-05 3.71643e-05 0)
(-0.00010251 3.70007e-05 0)
(-0.000110474 3.68235e-05 0)
(-0.000118395 3.66324e-05 0)
(-0.000126271 3.64274e-05 0)
(-0.000134098 3.62083e-05 0)
(-0.000141872 3.59749e-05 0)
(-0.000149591 3.57269e-05 0)
(-0.000157252 3.54641e-05 0)
(-0.000164849 3.51865e-05 0)
(-0.000172382 3.48938e-05 0)
(-0.000179845 3.45859e-05 0)
(-0.000187236 3.42624e-05 0)
(-0.000194551 3.39233e-05 0)
(-0.000201787 3.35684e-05 0)
(-0.00020894 3.31974e-05 0)
(-0.000216006 3.28101e-05 0)
(-0.000222983 3.24063e-05 0)
(-0.000229866 3.19858e-05 0)
(-0.000236652 3.15484e-05 0)
(-0.000243338 3.10939e-05 0)
(-0.000249918 3.06219e-05 0)
(-0.000256391 3.01323e-05 0)
(-0.000262751 2.96248e-05 0)
(-0.000268996 2.90992e-05 0)
(-0.000275121 2.85552e-05 0)
(-0.000281122 2.79927e-05 0)
(-0.000286996 2.74113e-05 0)
(-0.000292738 2.68107e-05 0)
(-0.000298345 2.61909e-05 0)
(-0.000303812 2.55515e-05 0)
(-0.000309136 2.48922e-05 0)
(-0.000314311 2.4213e-05 0)
(-0.000319335 2.35135e-05 0)
(-0.000324203 2.27935e-05 0)
(-0.00032891 2.20529e-05 0)
(-0.000333453 2.12914e-05 0)
(-0.000337827 2.05089e-05 0)
(-0.000342028 1.97053e-05 0)
(-0.000346052 1.88803e-05 0)
(-0.000349893 1.8034e-05 0)
(-0.000353549 1.71661e-05 0)
(-0.000357014 1.62767e-05 0)
(-0.000360284 1.53657e-05 0)
(-0.000363356 1.44332e-05 0)
(-0.000366224 1.3479e-05 0)
(-0.000368884 1.25034e-05 0)
(-0.000371332 1.15064e-05 0)
(-0.000373563 1.04881e-05 0)
(-0.000375575 9.44872e-06 0)
(-0.000377361 8.38854e-06 0)
(-0.000378919 7.30781e-06 0)
(-0.000380245 6.20685e-06 0)
(-0.000381333 5.08606e-06 0)
(-0.000382181 3.94586e-06 0)
(-0.000382785 2.78675e-06 0)
(-0.00038314 1.60929e-06 0)
(-0.000383245 4.14115e-07 0)
(-0.000383094 -7.98082e-07 0)
(-0.000382685 -2.02653e-06 0)
(-0.000382016 -3.27043e-06 0)
(-0.000381082 -4.5289e-06 0)
(-0.000379881 -5.80099e-06 0)
(-0.000378411 -7.0857e-06 0)
(-0.00037667 -8.38194e-06 0)
(-0.000374655 -9.68856e-06 0)
(-0.000372364 -1.10043e-05 0)
(-0.000369796 -1.2328e-05 0)
(-0.00036695 -1.36582e-05 0)
(-0.000363824 -1.49936e-05 0)
(-0.000360418 -1.63325e-05 0)
(-0.000356732 -1.76737e-05 0)
(-0.000352765 -1.90153e-05 0)
(-0.000348517 -2.03559e-05 0)
(-0.00034399 -2.16937e-05 0)
(-0.000339183 -2.3027e-05 0)
(-0.000334099 -2.43541e-05 0)
(-0.000328739 -2.5673e-05 0)
(-0.000323104 -2.69821e-05 0)
(-0.000317198 -2.82795e-05 0)
(-0.000311023 -2.95632e-05 0)
(-0.000304581 -3.08314e-05 0)
(-0.000297877 -3.20823e-05 0)
(-0.000290915 -3.33138e-05 0)
(-0.000283698 -3.45242e-05 0)
(-0.000276232 -3.57116e-05 0)
(-0.000268521 -3.68741e-05 0)
(-0.000260571 -3.80099e-05 0)
(-0.000252387 -3.91172e-05 0)
(-4.41562e-07 8.29665e-06 0)
(-3.15549e-06 2.16327e-05 0)
(-8.47463e-06 3.14468e-05 0)
(-1.50673e-05 3.80181e-05 0)
(-2.24648e-05 4.20102e-05 0)
(-3.0329e-05 4.4204e-05 0)
(-3.84272e-05 4.52822e-05 0)
(-4.66288e-05 4.57354e-05 0)
(-5.48668e-05 4.58668e-05 0)
(-6.31079e-05 4.58419e-05 0)
(-7.13355e-05 4.57418e-05 0)
(-7.95408e-05 4.56023e-05 0)
(-8.77181e-05 4.5438e-05 0)
(-9.58632e-05 4.52544e-05 0)
(-0.000103972 4.50532e-05 0)
(-0.000112042 4.48349e-05 0)
(-0.000120068 4.45994e-05 0)
(-0.000128048 4.43466e-05 0)
(-0.000135979 4.40763e-05 0)
(-0.000143856 4.37883e-05 0)
(-0.000151677 4.34824e-05 0)
(-0.000159438 4.31585e-05 0)
(-0.000167136 4.28162e-05 0)
(-0.000174768 4.24555e-05 0)
(-0.000182329 4.2076e-05 0)
(-0.000189816 4.16777e-05 0)
(-0.000197227 4.12602e-05 0)
(-0.000204557 4.08233e-05 0)
(-0.000211803 4.03668e-05 0)
(-0.000218962 3.98904e-05 0)
(-0.000226029 3.9394e-05 0)
(-0.000233001 3.88772e-05 0)
(-0.000239875 3.83398e-05 0)
(-0.000246646 3.77815e-05 0)
(-0.000253312 3.72021e-05 0)
(-0.000259868 3.66012e-05 0)
(-0.00026631 3.59787e-05 0)
(-0.000272634 3.53342e-05 0)
(-0.000278838 3.46674e-05 0)
(-0.000284916 3.39781e-05 0)
(-0.000290864 3.32659e-05 0)
(-0.00029668 3.25306e-05 0)
(-0.000302358 3.1772e-05 0)
(-0.000307895 3.09896e-05 0)
(-0.000313286 3.01834e-05 0)
(-0.000318528 2.93529e-05 0)
(-0.000323616 2.8498e-05 0)
(-0.000328545 2.76184e-05 0)
(-0.000333313 2.67139e-05 0)
(-0.000337914 2.57843e-05 0)
(-0.000342343 2.48293e-05 0)
(-0.000346598 2.38489e-05 0)
(-0.000350673 2.28428e-05 0)
(-0.000354564 2.1811e-05 0)
(-0.000358266 2.07533e-05 0)
(-0.000361776 1.96697e-05 0)
(-0.000365089 1.85602e-05 0)
(-0.0003682 1.74246e-05 0)
(-0.000371105 1.62632e-05 0)
(-0.0003738 1.5076e-05 0)
(-0.000376281 1.3863e-05 0)
(-0.000378542 1.26246e-05 0)
(-0.00038058 1.13609e-05 0)
(-0.000382391 1.00722e-05 0)
(-0.000383971 8.75889e-06 0)
(-0.000385315 7.42133e-06 0)
(-0.000386419 6.06e-06 0)
(-0.00038728 4.67545e-06 0)
(-0.000387893 3.26827e-06 0)
(-0.000388256 1.83914e-06 0)
(-0.000388364 3.88824e-07 0)
(-0.000388213 -1.08185e-06 0)
(-0.000387802 -2.57198e-06 0)
(-0.000387126 -4.08059e-06 0)
(-0.000386183 -5.60661e-06 0)
(-0.000384969 -7.1489e-06 0)
(-0.000383483 -8.70624e-06 0)
(-0.000381721 -1.02773e-05 0)
(-0.000379682 -1.18607e-05 0)
(-0.000377364 -1.34551e-05 0)
(-0.000374766 -1.50587e-05 0)
(-0.000371885 -1.66701e-05 0)
(-0.000368721 -1.82874e-05 0)
(-0.000365273 -1.99091e-05 0)
(-0.000361541 -2.15331e-05 0)
(-0.000357524 -2.31576e-05 0)
(-0.000353223 -2.47806e-05 0)
(-0.000348638 -2.64002e-05 0)
(-0.00034377 -2.80141e-05 0)
(-0.000338621 -2.96204e-05 0)
(-0.000333192 -3.12168e-05 0)
(-0.000327484 -3.2801e-05 0)
(-0.000321501 -3.4371e-05 0)
(-0.000315245 -3.59244e-05 0)
(-0.00030872 -3.7459e-05 0)
(-0.000301928 -3.89725e-05 0)
(-0.000294874 -4.04626e-05 0)
(-0.000287562 -4.1927e-05 0)
(-0.000279997 -4.33635e-05 0)
(-0.000272184 -4.47698e-05 0)
(-0.000264128 -4.61439e-05 0)
(-0.000255836 -4.74834e-05 0)
(-4.39325e-07 9.99723e-06 0)
(-3.16797e-06 2.5834e-05 0)
(-8.53028e-06 3.73743e-05 0)
(-1.51807e-05 4.50475e-05 0)
(-2.26434e-05 4.96861e-05 0)
(-3.05747e-05 5.22266e-05 0)
(-3.87391e-05 5.34722e-05 0)
(-4.70051e-05 5.39946e-05 0)
(-5.53058e-05 5.4145e-05 0)
(-6.36083e-05 5.41143e-05 0)
(-7.18965e-05 5.39958e-05 0)
(-8.01617e-05 5.38308e-05 0)
(-8.83985e-05 5.36362e-05 0)
(-9.66027e-05 5.34183e-05 0)
(-0.000104771 5.31792e-05 0)
(-0.000112899 5.29195e-05 0)
(-0.000120984 5.26391e-05 0)
(-0.000129023 5.23381e-05 0)
(-0.000137011 5.20161e-05 0)
(-0.000144946 5.16732e-05 0)
(-0.000152825 5.13089e-05 0)
(-0.000160643 5.09231e-05 0)
(-0.000168398 5.05157e-05 0)
(-0.000176085 5.00863e-05 0)
(-0.000183703 4.96347e-05 0)
(-0.000191246 4.91608e-05 0)
(-0.000198712 4.86642e-05 0)
(-0.000206097 4.81446e-05 0)
(-0.000213397 4.76019e-05 0)
(-0.00022061 4.70358e-05 0)
(-0.00022773 4.64459e-05 0)
(-0.000234756 4.5832e-05 0)
(-0.000241682 4.51938e-05 0)
(-0.000248505 4.45309e-05 0)
(-0.000255222 4.38432e-05 0)
(-0.000261829 4.31302e-05 0)
(-0.000268321 4.23917e-05 0)
(-0.000274696 4.16273e-05 0)
(-0.000280948 4.08367e-05 0)
(-0.000287075 4.00197e-05 0)
(-0.000293072 3.91758e-05 0)
(-0.000298935 3.83047e-05 0)
(-0.00030466 3.74062e-05 0)
(-0.000310243 3.64799e-05 0)
(-0.00031568 3.55255e-05 0)
(-0.000320966 3.45427e-05 0)
(-0.000326098 3.35313e-05 0)
(-0.000331071 3.24909e-05 0)
(-0.000335881 3.14213e-05 0)
(-0.000340523 3.03223e-05 0)
(-0.000344994 2.91936e-05 0)
(-0.000349288 2.80351e-05 0)
(-0.000353402 2.68466e-05 0)
(-0.000357331 2.56279e-05 0)
(-0.000361071 2.43789e-05 0)
(-0.000364617 2.30996e-05 0)
(-0.000367965 2.179e-05 0)
(-0.00037111 2.045e-05 0)
(-0.000374048 1.90797e-05 0)
(-0.000376775 1.76792e-05 0)
(-0.000379286 1.62487e-05 0)
(-0.000381576 1.47884e-05 0)
(-0.000383643 1.32985e-05 0)
(-0.00038548 1.17794e-05 0)
(-0.000387084 1.02316e-05 0)
(-0.000388451 8.65545e-06 0)
(-0.000389577 7.05155e-06 0)
(-0.000390458 5.42053e-06 0)
(-0.00039109 3.7631e-06 0)
(-0.000391469 2.08006e-06 0)
(-0.000391591 3.72285e-07 0)
(-0.000391454 -1.35925e-06 0)
(-0.000391052 -3.11351e-06 0)
(-0.000390385 -4.88933e-06 0)
(-0.000389448 -6.68548e-06 0)
(-0.000388238 -8.5006e-06 0)
(-0.000386753 -1.03333e-05 0)
(-0.00038499 -1.21819e-05 0)
(-0.000382948 -1.4045e-05 0)
(-0.000380624 -1.59207e-05 0)
(-0.000378017 -1.78072e-05 0)
(-0.000375124 -1.97027e-05 0)
(-0.000371946 -2.16052e-05 0)
(-0.000368481 -2.35125e-05 0)
(-0.000364729 -2.54226e-05 0)
(-0.00036069 -2.73331e-05 0)
(-0.000356363 -2.92418e-05 0)
(-0.000351749 -3.11462e-05 0)
(-0.000346849 -3.30441e-05 0)
(-0.000341665 -3.49328e-05 0)
(-0.000336198 -3.68098e-05 0)
(-0.000330449 -3.86725e-05 0)
(-0.000324422 -4.05184e-05 0)
(-0.000318118 -4.23447e-05 0)
(-0.000311542 -4.41489e-05 0)
(-0.000304697 -4.59281e-05 0)
(-0.000297586 -4.76798e-05 0)
(-0.000290214 -4.94014e-05 0)
(-0.000282586 -5.109e-05 0)
(-0.000274707 -5.27433e-05 0)
(-0.000266583 -5.43584e-05 0)
(-0.000258219 -5.5933e-05 0)
(-4.37466e-07 1.16993e-05 0)
(-3.17274e-06 3.00547e-05 0)
(-8.55834e-06 4.33365e-05 0)
(-1.52426e-05 5.21214e-05 0)
(-2.27453e-05 5.74111e-05 0)
(-3.07192e-05 6.02991e-05 0)
(-3.89265e-05 6.17114e-05 0)
(-4.72347e-05 6.23017e-05 0)
(-5.55765e-05 6.24699e-05 0)
(-6.39193e-05 6.24325e-05 0)
(-7.22471e-05 6.2295e-05 0)
(-8.05515e-05 6.21042e-05 0)
(-8.88272e-05 6.1879e-05 0)
(-9.70703e-05 6.16266e-05 0)
(-0.000105277 6.13495e-05 0)
(-0.000113444 6.10482e-05 0)
(-0.000121568 6.07229e-05 0)
(-0.000129645 6.03735e-05 0)
(-0.000137672 5.99999e-05 0)
(-0.000145646 5.96018e-05 0)
(-0.000153563 5.91791e-05 0)
(-0.000161419 5.87314e-05 0)
(-0.000169213 5.82586e-05 0)
(-0.000176939 5.77605e-05 0)
(-0.000184595 5.72367e-05 0)
(-0.000192177 5.6687e-05 0)
(-0.000199681 5.61111e-05 0)
(-0.000207105 5.55087e-05 0)
(-0.000214444 5.48797e-05 0)
(-0.000221695 5.42235e-05 0)
(-0.000228854 5.354e-05 0)
(-0.000235918 5.28288e-05 0)
(-0.000242882 5.20896e-05 0)
(-0.000249744 5.13221e-05 0)
(-0.0002565 5.05258e-05 0)
(-0.000263145 4.97005e-05 0)
(-0.000269675 4.88458e-05 0)
(-0.000276088 4.79614e-05 0)
(-0.000282379 4.70468e-05 0)
(-0.000288544 4.61017e-05 0)
(-0.000294579 4.51259e-05 0)
(-0.00030048 4.41188e-05 0)
(-0.000306243 4.30801e-05 0)
(-0.000311864 4.20096e-05 0)
(-0.000317339 4.09067e-05 0)
(-0.000322663 3.97713e-05 0)
(-0.000327833 3.8603e-05 0)
(-0.000332843 3.74015e-05 0)
(-0.00033769 3.61665e-05 0)
(-0.00034237 3.48977e-05 0)
(-0.000346878 3.35949e-05 0)
(-0.000351209 3.22578e-05 0)
(-0.000355359 3.08863e-05 0)
(-0.000359325 2.94802e-05 0)
(-0.0003631 2.80394e-05 0)
(-0.000366682 2.65639e-05 0)
(-0.000370065 2.50535e-05 0)
(-0.000373244 2.35083e-05 0)
(-0.000376216 2.19284e-05 0)
(-0.000378976 2.03138e-05 0)
(-0.00038152 1.86649e-05 0)
(-0.000383843 1.69817e-05 0)
(-0.00038594 1.52647e-05 0)
(-0.000387808 1.35143e-05 0)
(-0.000389442 1.17308e-05 0)
(-0.000390837 9.91488e-06 0)
(-0.000391991 8.06714e-06 0)
(-0.000392898 6.18831e-06 0)
(-0.000393555 4.27921e-06 0)
(-0.000393957 2.34074e-06 0)
(-0.000394102 3.73909e-07 0)
(-0.000393985 -1.62018e-06 0)
(-0.000393603 -3.64032e-06 0)
(-0.000392953 -5.6852e-06 0)
(-0.000392031 -7.75339e-06 0)
(-0.000390835 -9.84335e-06 0)
(-0.000389362 -1.19534e-05 0)
(-0.000387609 -1.40819e-05 0)
(-0.000385574 -1.62268e-05 0)
(-0.000383256 -1.83862e-05 0)
(-0.000380651 -2.05581e-05 0)
(-0.000377759 -2.27402e-05 0)