/*--------------------------------*- C++ -*----------------------------------*\
  =========                 |
  \\      /  F ield         | OpenFOAM: The Open Source CFD Toolbox
   \\    /   O peration     | Website:  https://openfoam.org
    \\  /    A nd           | Version:  10
     \\/     M anipulation  |
\*---------------------------------------------------------------------------*/
FoamFile
{
    format      ascii;
    class       volVectorField;
    location    "0.852259";
    object      U;
}
// * * * * * * * * * * * * * * * * * * * * * * * * * * * * * * * * * * * * * //

dimensions      [0 1 -1 0 0 0 0];

internalField   nonuniform List<vector> 
15984
(
(0.611353 -0.0777666 0)
(0.603813 -0.0776815 0)
(0.595826 -0.0775219 0)
(0.587435 -0.0772878 0)
(0.578709 -0.0770259 0)
(0.569641 -0.0766922 0)
(0.560269 -0.0763374 0)
(0.550628 -0.0759172 0)
(0.540711 -0.0754633 0)
(0.530577 -0.0749453 0)
(0.520251 -0.0743787 0)
(0.509768 -0.0737562 0)
(0.49917 -0.0730838 0)
(0.488499 -0.0723608 0)
(0.477798 -0.0715908 0)
(0.467112 -0.0707797 0)
(0.456488 -0.0699346 0)
(0.445972 -0.0690643 0)
(0.435613 -0.0681792 0)
(0.425459 -0.0672912 0)
(0.415554 -0.0664132 0)
(0.405946 -0.0655588 0)
(0.396676 -0.0647418 0)
(0.387784 -0.063976 0)
(0.379308 -0.0632743 0)
(0.37128 -0.0626487 0)
(0.363729 -0.0621093 0)
(0.356683 -0.0616645 0)
(0.35016 -0.0613201 0)
(0.34418 -0.0610793 0)
(0.338756 -0.0609428 0)
(0.333898 -0.060908 0)
(0.329614 -0.0609697 0)
(0.325909 -0.0611191 0)
(0.322783 -0.0613443 0)
(0.320239 -0.061631 0)
(0.318275 -0.0619608 0)
(0.316887 -0.0623128 0)
(0.316073 -0.0626626 0)
(0.315832 -0.0629824 0)
(0.316155 -0.0632418 0)
(0.317036 -0.0634107 0)
(0.31847 -0.063451 0)
(0.320452 -0.0633242 0)
(0.322971 -0.0629897 0)
(0.326017 -0.0624044 0)
(0.32958 -0.0615234 0)
(0.333645 -0.0603007 0)
(0.338197 -0.0586891 0)
(0.343219 -0.0566414 0)
(0.34869 -0.0541103 0)
(0.354585 -0.0510494 0)
(0.360876 -0.0474143 0)
(0.367529 -0.0431633 0)
(0.61149 -0.0683679 0)
(0.604008 -0.0680507 0)
(0.596081 -0.0676863 0)
(0.587749 -0.0672828 0)
(0.579044 -0.066861 0)
(0.570011 -0.0664356 0)
(0.56067 -0.0659945 0)
(0.551039 -0.0655482 0)
(0.541159 -0.06509 0)
(0.531054 -0.0646161 0)
(0.520755 -0.0641293 0)
(0.510306 -0.0636263 0)
(0.499735 -0.0631082 0)
(0.489092 -0.0625756 0)
(0.478414 -0.0620308 0)
(0.467747 -0.0614776 0)
(0.457135 -0.060921 0)
(0.446623 -0.0603675 0)
(0.436259 -0.0598253 0)
(0.426087 -0.0593037 0)
(0.416155 -0.0588131 0)
(0.406507 -0.0583647 0)
(0.397184 -0.0579701 0)
(0.388228 -0.0576411 0)
(0.379675 -0.0573886 0)
(0.371561 -0.057223 0)
(0.363916 -0.0571531 0)
(0.356768 -0.0571859 0)
(0.35014 -0.0573265 0)
(0.344051 -0.0575773 0)
(0.33852 -0.0579385 0)
(0.333559 -0.0584067 0)
(0.329178 -0.0589767 0)
(0.325386 -0.059639 0)
(0.322187 -0.0603821 0)
(0.319585 -0.0611905 0)
(0.317582 -0.0620464 0)
(0.316181 -0.0629274 0)
(0.315381 -0.0638088 0)
(0.315182 -0.0646622 0)
(0.31558 -0.0654578 0)
(0.316572 -0.0661611 0)
(0.318157 -0.0667335 0)
(0.320329 -0.0671353 0)
(0.323082 -0.0673236 0)
(0.326408 -0.0672521 0)
(0.330296 -0.0668737 0)
(0.334735 -0.066139 0)
(0.33971 -0.0649973 0)
(0.345203 -0.0633975 0)
(0.351193 -0.0612882 0)
(0.357654 -0.0586186 0)
(0.364556 -0.0553399 0)
(0.371863 -0.051404 0)
(0.611902 -0.0591308 0)
(0.604457 -0.0585499 0)
(0.596561 -0.0579428 0)
(0.588236 -0.0573433 0)
(0.579538 -0.0567643 0)
(0.570491 -0.0562052 0)
(0.561136 -0.0556904 0)
(0.551505 -0.0551899 0)
(0.541606 -0.0547294 0)
(0.531489 -0.05429 0)
(0.521181 -0.0538763 0)
(0.51072 -0.0534923 0)
(0.500143 -0.0531299 0)
(0.489489 -0.0527901 0)
(0.478801 -0.0524739 0)
(0.468119 -0.0521829 0)
(0.457488 -0.0519202 0)
(0.446952 -0.0516898 0)
(0.436556 -0.0514973 0)
(0.426346 -0.0513495 0)
(0.416366 -0.0512543 0)
(0.40666 -0.0512204 0)
(0.397269 -0.051257 0)
(0.388235 -0.0513738 0)
(0.379595 -0.0515799 0)
(0.371385 -0.051884 0)
(0.363638 -0.0522934 0)
(0.356381 -0.0528142 0)
(0.349641 -0.0534501 0)
(0.34344 -0.0542031 0)
(0.337798 -0.0550723 0)
(0.332729 -0.0560544 0)
(0.328248 -0.0571435 0)
(0.324365 -0.0583302 0)
(0.321089 -0.0596029 0)
(0.318426 -0.0609462 0)
(0.316384 -0.0623405 0)
(0.314967 -0.0637643 0)
(0.314177 -0.065193 0)
(0.314019 -0.0665969 0)
(0.314492 -0.0679449 0)
(0.315597 -0.0692006 0)
(0.317333 -0.0703254 0)
(0.3197 -0.0712763 0)
(0.322694 -0.0720078 0)
(0.326307 -0.0724724 0)
(0.330532 -0.072619 0)
(0.335359 -0.0723949 0)
(0.340773 -0.071746 0)
(0.346758 -0.0706168 0)
(0.353293 -0.0689514 0)
(0.360351 -0.0666938 0)
(0.367901 -0.0637892 0)
(0.375904 -0.0601842 0)
(0.612635 -0.0500194 0)
(0.605191 -0.0491334 0)
(0.597289 -0.048264 0)
(0.588938 -0.0474395 0)
(0.5802 -0.0466715 0)
(0.571103 -0.0459822 0)
(0.561699 -0.0453522 0)
(0.552005 -0.0448085 0)
(0.542052 -0.044331 0)
(0.531888 -0.043926 0)
(0.521522 -0.0435897 0)
(0.51101 -0.0433205 0)
(0.500384 -0.0431146 0)
(0.489683 -0.0429709 0)
(0.478948 -0.0428882 0)
(0.468218 -0.0428658 0)
(0.457538 -0.0429041 0)
(0.44695 -0.0430045 0)
(0.436497 -0.0431699 0)
(0.426225 -0.0434047 0)
(0.416175 -0.043714 0)
(0.406393 -0.0441042 0)
(0.396918 -0.0445822 0)
(0.387793 -0.0451554 0)
(0.379054 -0.0458311 0)
(0.37074 -0.0466161 0)
(0.362881 -0.0475164 0)
(0.35551 -0.0485364 0)
(0.348653 -0.0496792 0)
(0.342335 -0.0509457 0)
(0.336577 -0.0523346 0)
(0.331397 -0.0538423 0)
(0.326811 -0.0554624 0)
(0.322834 -0.0571861 0)
(0.319476 -0.0590011 0)
(0.316751 -0.0608916 0)
(0.314665 -0.0628389 0)
(0.313227 -0.0648222 0)
(0.312445 -0.0668141 0)
(0.312326 -0.0687849 0)
(0.312872 -0.0707043 0)
(0.314087 -0.0725335 0)
(0.315977 -0.074231 0)
(0.318541 -0.0757531 0)
(0.321778 -0.0770524 0)
(0.325685 -0.0780776 0)
(0.330257 -0.0787749 0)
(0.335484 -0.0790885 0)
(0.341355 -0.0789595 0)
(0.347854 -0.0783281 0)
(0.354959 -0.0771336 0)
(0.362646 -0.0753141 0)
(0.370882 -0.0728097 0)
(0.379626 -0.0695565 0)
(0.613725 -0.041006 0)
(0.606244 -0.039777 0)
(0.598291 -0.0386094 0)
(0.589872 -0.0375334 0)
(0.581044 -0.036558 0)
(0.571859 -0.0357146 0)
(0.562352 -0.0349692 0)
(0.552558 -0.0343656 0)
(0.542507 -0.0338622 0)
(0.532235 -0.0334909 0)
(0.521777 -0.0332287 0)
(0.511172 -0.0330765 0)
(0.500456 -0.0330306 0)
(0.489669 -0.0330876 0)
(0.47885 -0.0332437 0)
(0.468039 -0.0334962 0)
(0.457277 -0.0338428 0)
(0.446607 -0.0342825 0)
(0.436071 -0.0348155 0)
(0.425712 -0.035443 0)
(0.415572 -0.0361676 0)
(0.405695 -0.0369931 0)
(0.396122 -0.037924 0)
(0.386891 -0.0389654 0)
(0.378044 -0.0401225 0)
(0.369614 -0.0414003 0)
(0.361638 -0.0428032 0)
(0.354146 -0.0443344 0)
(0.347166 -0.045996 0)
(0.340726 -0.0477879 0)
(0.334847 -0.0497086 0)
(0.329552 -0.0517541 0)
(0.324857 -0.0539186 0)
(0.320781 -0.0561918 0)
(0.317339 -0.0585621 0)
(0.314545 -0.0610145 0)
(0.31241 -0.0635312 0)
(0.310947 -0.0660883 0)
(0.310169 -0.0686609 0)
(0.310083 -0.0712189 0)
(0.310696 -0.0737297 0)
(0.31202 -0.0761532 0)
(0.314061 -0.0784476 0)
(0.316821 -0.0805669 0)
(0.320305 -0.0824606 0)
(0.324511 -0.0840751 0)
(0.329436 -0.0853535 0)
(0.335075 -0.0862355 0)
(0.341419 -0.0866587 0)
(0.348451 -0.0865585 0)
(0.356154 -0.085868 0)
(0.3645 -0.0845212 0)
(0.373461 -0.0824461 0)
(0.382993 -0.0795784 0)
(0.615205 -0.0320613 0)
(0.607645 -0.0304518 0)
(0.599591 -0.0289496 0)
(0.591054 -0.0275884 0)
(0.582086 -0.0263942 0)
(0.572758 -0.0253635 0)
(0.563107 -0.0245026 0)
(0.553161 -0.0238147 0)
(0.542962 -0.0232956 0)
(0.532541 -0.0229455 0)
(0.52194 -0.0227571 0)
(0.511196 -0.0227259 0)
(0.500348 -0.0228463 0)
(0.489435 -0.0231112 0)
(0.478495 -0.0235148 0)
(0.467567 -0.024051 0)
(0.456693 -0.0247147 0)
(0.445912 -0.0255026 0)
(0.435266 -0.0264123 0)
(0.424797 -0.0274426 0)
(0.414547 -0.0285932 0)
(0.404557 -0.0298654 0)
(0.394868 -0.0312612 0)
(0.38552 -0.032783 0)
(0.376551 -0.034434 0)
(0.367998 -0.0362172 0)
(0.359896 -0.0381353 0)
(0.352276 -0.0401901 0)
(0.345168 -0.0423827 0)
(0.3386 -0.0447126 0)
(0.332597 -0.0471777 0)
(0.327181 -0.0497737 0)
(0.322373 -0.0524942 0)
(0.318195 -0.0553303 0)
(0.314662 -0.0582706 0)
(0.311791 -0.0612999 0)
(0.309602 -0.0644005 0)
(0.308108 -0.0675497 0)
(0.307324 -0.0707219 0)
(0.307264 -0.0738872 0)
(0.307941 -0.0770111 0)
(0.309366 -0.0800539 0)
(0.311552 -0.0829716 0)
(0.314508 -0.085716 0)
(0.318237 -0.0882349 0)
(0.322744 -0.0904718 0)
(0.328029 -0.0923654 0)
(0.33409 -0.093852 0)
(0.340918 -0.0948649 0)
(0.348504 -0.095334 0)
(0.356826 -0.0951889 0)
(0.365865 -0.0943537 0)
(0.375585 -0.0927472 0)
(0.385947 -0.0902972 0)
(0.61711 -0.0231266 0)
(0.609419 -0.0210959 0)
(0.601218 -0.0192241 0)
(0.592497 -0.0175515 0)
(0.583342 -0.016107 0)
(0.573822 -0.0148717 0)
(0.563965 -0.0138807 0)
(0.553818 -0.0131062 0)
(0.543414 -0.0125626 0)
(0.532796 -0.012238 0)
(0.522003 -0.0121244 0)
(0.511075 -0.0122154 0)
(0.500051 -0.0125018 0)
(0.488971 -0.0129773 0)
(0.477872 -0.0136342 0)
(0.466793 -0.0144649 0)
(0.455774 -0.0154617 0)
(0.444852 -0.0166164 0)
(0.434068 -0.0179221 0)
(0.423465 -0.0193732 0)
(0.413082 -0.0209659 0)
(0.402961 -0.0226988 0)
(0.393142 -0.0245724 0)
(0.383663 -0.0265874 0)
(0.374563 -0.0287451 0)
(0.365878 -0.0310465 0)
(0.357643 -0.0334925 0)
(0.349889 -0.0360838 0)
(0.342648 -0.0388201 0)
(0.335948 -0.0417004 0)
(0.329815 -0.0447218 0)
(0.324274 -0.0478805 0)
(0.319348 -0.0511698 0)
(0.315058 -0.0545821 0)
(0.311428 -0.0581061 0)
(0.308476 -0.0617272 0)
(0.306221 -0.0654278 0)
(0.304685 -0.0691873 0)
(0.303888 -0.0729785 0)
(0.303845 -0.0767726 0)
(0.304572 -0.0805344 0)
(0.306092 -0.0842233 0)
(0.308417 -0.0877938 0)
(0.31156 -0.0911959 0)
(0.315532 -0.0943747 0)
(0.32034 -0.0972699 0)
(0.325988 -0.0998177 0)
(0.332476 -0.10195 0)
(0.339803 -0.103597 0)
(0.347956 -0.104681 0)
(0.356921 -0.10513 0)
(0.366678 -0.104848 0)
(0.377189 -0.103757 0)
(0.388403 -0.101758 0)
(0.619478 -0.0141385 0)
(0.611609 -0.0116485 0)
(0.603195 -0.00939056 0)
(0.594234 -0.00741694 0)
(0.584832 -0.00571945 0)
(0.57505 -0.00429558 0)
(0.564934 -0.00314813 0)
(0.55453 -0.00228553 0)
(0.543865 -0.00170847 0)
(0.532997 -0.00141066 0)
(0.521963 -0.0013826 0)
(0.510804 -0.00161328 0)
(0.499559 -0.00208941 0)
(0.488266 -0.00279707 0)
(0.476964 -0.00372107 0)
(0.465692 -0.00484681 0)
(0.454488 -0.00616005 0)
(0.443394 -0.00766055 0)
(0.432449 -0.00934627 0)
(0.421694 -0.0112131 0)
(0.411165 -0.0132555 0)
(0.400899 -0.0154652 0)
(0.390935 -0.0178343 0)
(0.381314 -0.0203583 0)
(0.372072 -0.0230364 0)
(0.363245 -0.0258688 0)
(0.354869 -0.0288553 0)
(0.346975 -0.0319952 0)
(0.339595 -0.0352872 0)
(0.332758 -0.0387294 0)
(0.32649 -0.0423188 0)
(0.320818 -0.046052 0)
(0.315767 -0.0499232 0)
(0.311361 -0.0539243 0)
(0.307623 -0.0580451 0)
(0.304578 -0.0622734 0)
(0.302248 -0.0665915 0)
(0.300658 -0.0709788 0)
(0.299833 -0.0754103 0)
(0.299793 -0.0798575 0)
(0.30056 -0.0842831 0)
(0.302161 -0.0886468 0)
(0.304614 -0.0929024 0)
(0.307936 -0.0969973 0)
(0.312144 -0.100874 0)
(0.317248 -0.10447 0)
(0.32326 -0.107717 0)
(0.33018 -0.110542 0)
(0.338013 -0.112871 0)
(0.346744 -0.114624 0)
(0.356367 -0.115711 0)
(0.366856 -0.116032 0)
(0.378159 -0.115492 0)
(0.390214 -0.113979 0)
(0.622344 -0.00509657 0)
(0.614229 -0.00208678 0)
(0.605533 0.000636894 0)
(0.596276 0.00302314 0)
(0.586568 0.00507273 0)
(0.576469 0.00675654 0)
(0.566027 0.00807691 0)
(0.55529 0.00902878 0)
(0.544307 0.00963308 0)
(0.533129 0.00989904 0)
(0.521797 0.00984 0)
(0.510353 0.00947061 0)
(0.498838 0.00880309 0)
(0.487291 0.00785208 0)
(0.47575 0.00663061 0)
(0.464255 0.00515145 0)
(0.452845 0.00342624 0)
(0.441557 0.00147933 0)
(0.430426 -0.000668001 0)
(0.419488 -0.00299845 0)
(0.40878 -0.00549602 0)
(0.398346 -0.00816931 0)
(0.388226 -0.0110289 0)
(0.378453 -0.0140711 0)
(0.369061 -0.0172847 0)
(0.360086 -0.0206627 0)
(0.351562 -0.0242025 0)
(0.343523 -0.0279029 0)
(0.335998 -0.0317622 0)
(0.329018 -0.035778 0)
(0.32261 -0.0399475 0)
(0.316801 -0.0442665 0)
(0.311617 -0.0487303 0)
(0.307084 -0.0533324 0)
(0.303229 -0.0580639 0)
(0.300078 -0.0629128 0)
(0.297658 -0.0678647 0)
(0.296 -0.0729 0)
(0.295131 -0.0779938 0)
(0.295078 -0.0831183 0)
(0.295869 -0.0882367 0)
(0.297535 -0.0933074 0)
(0.3001 -0.0982825 0)
(0.303588 -0.103109 0)
(0.308021 -0.107725 0)
(0.313415 -0.112068 0)
(0.319786 -0.116064 0)
(0.327141 -0.119635 0)
(0.335479 -0.122702 0)
(0.344796 -0.125177 0)
(0.355077 -0.126944 0)
(0.366271 -0.1279 0)
(0.378312 -0.127927 0)
(0.391096 -0.126886 0)
(0.625778 0.0042295 0)
(0.617339 0.00780598 0)
(0.608263 0.0109627 0)
(0.598607 0.0137 0)
(0.588516 0.0160204 0)
(0.578031 0.0179073 0)
(0.567195 0.0193715 0)
(0.556075 0.0204071 0)
(0.544719 0.0210285 0)
(0.533179 0.0212504 0)
(0.521501 0.0210893 0)
(0.509729 0.0205633 0)
(0.497905 0.0196922 0)
(0.486066 0.0184959 0)
(0.474252 0.0169943 0)
(0.462498 0.015206 0)
(0.45084 0.0131478 0)
(0.439314 0.0108332 0)
(0.427958 0.00827393 0)
(0.416811 0.00547964 0)
(0.405914 0.00245589 0)
(0.395302 -0.000769857 0)
(0.385006 -0.00416429 0)
(0.37506 -0.00772292 0)
(0.365508 -0.01147 0)
(0.356381 -0.015402 0)
(0.347706 -0.019507 0)
(0.339516 -0.023779 0)
(0.331843 -0.0282154 0)
(0.324715 -0.0328137 0)
(0.318161 -0.0375714 0)
(0.312208 -0.0424848 0)
(0.306883 -0.0475504 0)
(0.302213 -0.0527628 0)
(0.298228 -0.0581157 0)
(0.294957 -0.0635995 0)
(0.292431 -0.069201 0)
(0.290686 -0.0749033 0)
(0.289753 -0.0806825 0)
(0.289665 -0.0865119 0)
(0.290459 -0.0923548 0)
(0.29217 -0.0981693 0)
(0.29483 -0.103906 0)
(0.298467 -0.109509 0)
(0.30311 -0.114915 0)
(0.308783 -0.120056 0)
(0.315506 -0.124855 0)
(0.323288 -0.12923 0)
(0.332126 -0.133093 0)
(0.342015 -0.136322 0)
(0.352913 -0.138806 0)
(0.364715 -0.140372 0)
(0.377316 -0.140936 0)
(0.39054 -0.140255 0)
(0.629763 0.0137403 0)
(0.620906 0.0178807 0)
(0.611385 0.0215296 0)
(0.601299 0.0246946 0)
(0.590742 0.0273586 0)
(0.579788 0.0295113 0)
(0.568492 0.0311353 0)
(0.556907 0.0322687 0)
(0.545105 0.0329062 0)
(0.533136 0.0330738 0)
(0.52105 0.0327931 0)
(0.50889 0.0320881 0)
(0.496701 0.0309835 0)
(0.484523 0.0295031 0)
(0.472392 0.0276712 0)
(0.460345 0.025511 0)
(0.448417 0.0230455 0)
(0.436642 0.0202963 0)
(0.425055 0.0172835 0)
(0.413691 0.0140236 0)
(0.402583 0.01053 0)
(0.391765 0.00681038 0)
(0.381278 0.00286396 0)
(0.371161 -0.00129135 0)
(0.36143 -0.005604 0)
(0.352129 -0.0100901 0)
(0.343295 -0.0147636 0)
(0.334952 -0.0196142 0)
(0.327127 -0.0246342 0)
(0.319847 -0.0298204 0)
(0.313141 -0.035171 0)
(0.307035 -0.0406843 0)
(0.301558 -0.046358 0)
(0.296737 -0.0521891 0)
(0.292606 -0.0581735 0)
(0.289195 -0.064304 0)
(0.286542 -0.0705708 0)
(0.284686 -0.0769587 0)
(0.283665 -0.0834464 0)
(0.283517 -0.090008 0)
(0.284288 -0.0966073 0)
(0.286019 -0.103202 0)
(0.288748 -0.109742 0)
(0.292513 -0.11617 0)
(0.297349 -0.12242 0)
(0.303286 -0.128417 0)
(0.310347 -0.134081 0)
(0.318539 -0.139321 0)
(0.327863 -0.144025 0)
(0.338261 -0.148018 0)
(0.349654 -0.151194 0)
(0.361817 -0.153245 0)
(0.374592 -0.15424 0)
(0.387674 -0.153544 0)
(0.634361 0.023591 0)
(0.625004 0.0283679 0)
(0.61496 0.0325574 0)
(0.604332 0.0361728 0)
(0.59324 0.039182 0)
(0.581724 0.0415831 0)
(0.569874 0.0433702 0)
(0.557768 0.0445712 0)
(0.545445 0.0452047 0)
(0.532985 0.0452956 0)
(0.520433 0.0448725 0)
(0.507837 0.0439648 0)
(0.495239 0.042603 0)
(0.482677 0.0408175 0)
(0.47019 0.0386378 0)
(0.457812 0.036092 0)
(0.445575 0.0332072 0)
(0.433514 0.0300086 0)
(0.421663 0.0265189 0)
(0.410053 0.0227584 0)
(0.398717 0.018746 0)
(0.387689 0.0144989 0)
(0.377 0.0100304 0)
(0.366681 0.00534484 0)
(0.356781 0.000432503 0)
(0.347314 -0.00465458 0)
(0.338308 -0.00990666 0)
(0.329806 -0.0153456 0)
(0.321828 -0.0209635 0)
(0.314394 -0.0267515 0)
(0.307529 -0.0327065 0)
(0.301261 -0.0388282 0)
(0.295619 -0.0451173 0)
(0.290633 -0.0515743 0)
(0.286338 -0.0581987 0)
(0.282768 -0.0649873 0)
(0.279964 -0.0719337 0)
(0.277973 -0.079026 0)
(0.276835 -0.0862456 0)
(0.276598 -0.0935675 0)
(0.277315 -0.100957 0)
(0.279034 -0.108371 0)
(0.281803 -0.11576 0)
(0.285667 -0.123063 0)
(0.290669 -0.130213 0)
(0.296847 -0.13713 0)
(0.304223 -0.143726 0)
(0.312794 -0.149877 0)
(0.322543 -0.15543 0)
(0.333297 -0.16014 0)
(0.344929 -0.163892 0)
(0.356915 -0.166025 0)
(0.369281 -0.167239 0)
(0.381193 -0.165952 0)
(0.639544 0.0338927 0)
(0.629579 0.039345 0)
(0.618927 0.0441084 0)
(0.607693 0.0481874 0)
(0.595953 0.0515556 0)
(0.583801 0.0541861 0)
(0.571325 0.056136 0)
(0.558603 0.0573884 0)
(0.545703 0.0579959 0)
(0.532688 0.0579848 0)
(0.519612 0.0573914 0)
(0.506524 0.0562524 0)
(0.493468 0.0546045 0)
(0.480483 0.0524849 0)
(0.467603 0.0499286 0)
(0.454862 0.0469689 0)
(0.442292 0.0436375 0)
(0.429924 0.0399633 0)
(0.417789 0.0359726 0)
(0.405917 0.031689 0)
(0.394341 0.0271342 0)
(0.38309 0.0223268 0)
(0.372196 0.0172838 0)
(0.361688 0.0120202 0)
(0.35159 0.00654768 0)
(0.341951 0.000852172 0)
(0.332777 -0.00501753 0)
(0.324087 -0.0110412 0)
(0.315933 -0.0172422 0)
(0.308333 -0.0236194 0)
(0.301304 -0.0301698 0)
(0.294869 -0.0368946 0)
(0.289055 -0.0437967 0)
(0.283891 -0.0508799 0)
(0.279414 -0.0581473 0)
(0.275661 -0.0656005 0)
(0.272679 -0.073237 0)
(0.270518 -0.0810493 0)
(0.269228 -0.0890227 0)
(0.268864 -0.0971335 0)
(0.269489 -0.105349 0)
(0.271159 -0.113626 0)
(0.27393 -0.121914 0)
(0.277856 -0.130149 0)
(0.282992 -0.138263 0)
(0.289376 -0.146164 0)
(0.297032 -0.153746 0)
(0.305914 -0.160818 0)
(0.315937 -0.167169 0)
(0.326687 -0.172337 0)
(0.338177 -0.176447 0)
(0.349056 -0.178184 0)
(0.359953 -0.179008 0)
(0.3695 -0.176704 0)
(0.645115 0.0447042 0)
(0.634484 0.0508796 0)
(0.623156 0.0562594 0)
(0.611224 0.0608178 0)
(0.598765 0.0645414 0)
(0.585906 0.067429 0)
(0.572739 0.0695055 0)
(0.559341 0.070802 0)
(0.545795 0.0713569 0)
(0.532166 0.0712118 0)
(0.518514 0.0704112 0)
(0.504889 0.0690015 0)
(0.491334 0.0670285 0)
(0.477889 0.0645367 0)
(0.464587 0.0615684 0)
(0.451459 0.0581638 0)
(0.438534 0.0543591 0)
(0.42584 0.0501874 0)
(0.413405 0.0456783 0)
(0.401257 0.0408588 0)
(0.389424 0.0357527 0)
(0.377935 0.0303809 0)
(0.366821 0.0247629 0)
(0.356109 0.018916 0)
(0.345828 0.0128563 0)
(0.335995 0.00659818 0)
(0.326667 0.000114174 0)
(0.317824 -0.00654077 0)
(0.309488 -0.0133553 0)
(0.301707 -0.0203417 0)
(0.294499 -0.0274999 0)
(0.287882 -0.0348325 0)
(0.281878 -0.0423471 0)
(0.276516 -0.0500536 0)
(0.271831 -0.0579626 0)
(0.267865 -0.0660823 0)
(0.264667 -0.0744168 0)
(0.262296 -0.0829639 0)
(0.260811 -0.0917135 0)
(0.260275 -0.100643 0)
(0.26076 -0.109722 0)
(0.262333 -0.118908 0)
(0.265059 -0.128147 0)
(0.269003 -0.137376 0)
(0.274229 -0.14652 0)
(0.280773 -0.155468 0)
(0.288638 -0.164071 0)
(0.29766 -0.171984 0)
(0.307694 -0.178922 0)
(0.317726 -0.184089 0)
(0.328147 -0.187969 0)
(0.336784 -0.188515 0)
(0.344826 -0.188062 0)
(0.351169 -0.185884 0)
(0.650511 0.0561446 0)
(0.63922 0.063095 0)
(0.627201 0.069104 0)
(0.614553 0.0741688 0)
(0.601363 0.078237 0)
(0.587762 0.081367 0)
(0.573865 0.0835574 0)
(0.559766 0.0848619 0)
(0.545544 0.0853282 0)
(0.531276 0.0850088 0)
(0.517021 0.0839595 0)
(0.502833 0.0822372 0)
(0.488758 0.0798973 0)
(0.474833 0.0769937 0)
(0.461089 0.0735757 0)
(0.447555 0.0696903 0)
(0.434256 0.0653789 0)
(0.421219 0.0606787 0)
(0.408469 0.0556222 0)
(0.39603 0.0502409 0)
(0.38393 0.0445583 0)
(0.372195 0.038597 0)
(0.360853 0.0323785 0)
(0.349932 0.0259224 0)
(0.339458 0.0192476 0)
(0.329454 0.0123738 0)
(0.319926 0.00532503 0)
(0.310961 -0.00194292 0)
(0.302473 -0.00935205 0)
(0.294515 -0.0169261 0)
(0.28712 -0.0246757 0)
(0.280306 -0.0326052 0)
(0.274092 -0.0407241 0)
(0.268505 -0.0490474 0)
(0.263581 -0.0575931 0)
(0.259364 -0.0663778 0)
(0.25591 -0.0754139 0)
(0.253283 -0.0847065 0)
(0.25155 -0.0942503 0)
(0.250786 -0.104027 0)
(0.251073 -0.114005 0)
(0.252489 -0.124144 0)
(0.255109 -0.134389 0)
(0.25901 -0.144677 0)
(0.264267 -0.154922 0)
(0.270881 -0.164968 0)
(0.278823 -0.174556 0)
(0.287659 -0.183103 0)
(0.297121 -0.19018 0)
(0.305374 -0.194669 0)
(0.313664 -0.197142 0)
(0.318642 -0.195644 0)
(0.320654 -0.193096 0)
(0.327163 -0.189729 0)
(0.654431 0.0680869 0)
(0.642611 0.0758331 0)
(0.630052 0.0826129 0)
(0.616789 0.0881605 0)
(0.602957 0.092647 0)
(0.588721 0.0960023 0)
(0.57417 0.0982971 0)
(0.559429 0.0995866 0)
(0.544584 0.0999318 0)
(0.529712 0.0993987 0)
(0.514884 0.0980582 0)
(0.500156 0.0959809 0)
(0.485575 0.0932319 0)
(0.47118 0.0898762 0)
(0.457001 0.0859708 0)
(0.443066 0.0815715 0)
(0.429398 0.0767233 0)
(0.416018 0.0714707 0)
(0.402952 0.0658479 0)
(0.390222 0.0598869 0)
(0.377848 0.0536135 0)
(0.365861 0.0470539 0)
(0.354287 0.0402302 0)
(0.34315 0.0331633 0)
(0.332473 0.0258737 0)
(0.32228 0.0183803 0)
(0.312587 0.0107012 0)
(0.303392 0.0028681 0)
(0.294788 -0.00516479 0)
(0.286679 -0.0133369 0)
(0.279111 -0.0216692 0)
(0.272104 -0.0301781 0)
(0.265676 -0.0388819 0)
(0.259848 -0.047804 0)
(0.254657 -0.0569717 0)
(0.25015 -0.0664125 0)
(0.246391 -0.0761479 0)
(0.243448 -0.0861923 0)
(0.241402 -0.0965459 0)
(0.240338 -0.107194 0)
(0.240351 -0.118108 0)
(0.24153 -0.129246 0)
(0.243966 -0.140554 0)
(0.247746 -0.151965 0)
(0.252942 -0.163366 0)
(0.259479 -0.174486 0)
(0.267182 -0.184863 0)
(0.275174 -0.19362 0)
(0.283071 -0.200048 0)
(0.288325 -0.203311 0)
(0.292974 -0.202507 0)
(0.292823 -0.200322 0)
(0.289763 -0.190197 0)
(0.290892 -0.191772 0)
(0.654387 0.0803585 0)
(0.642429 0.0891129 0)
(0.629748 0.0965445 0)
(0.616239 0.102695 0)
(0.602164 0.107539 0)
(0.587541 0.111128 0)
(0.572612 0.113543 0)
(0.557462 0.114827 0)
(0.542187 0.115049 0)
(0.526881 0.114288 0)
(0.511624 0.112634 0)
(0.496472 0.11017 0)
(0.481482 0.106984 0)
(0.466693 0.103144 0)
(0.45214 0.0987227 0)
(0.437849 0.0937835 0)
(0.423846 0.0883759 0)
(0.41015 0.0825485 0)
(0.396783 0.0763377 0)
(0.383767 0.0697798 0)
(0.371128 0.0629001 0)
(0.358892 0.055727 0)
(0.347084 0.0482832 0)
(0.33573 0.0405921 0)
(0.324857 0.0326767 0)
(0.314484 0.02456 0)
(0.304629 0.0162637 0)
(0.295289 0.00780798 0)
(0.286502 -0.000803572 0)
(0.278243 -0.00955622 0)
(0.270505 -0.0184563 0)
(0.263302 -0.0275249 0)
(0.256647 -0.0367878 0)
(0.250556 -0.0462801 0)
(0.245063 -0.0560417 0)
(0.240216 -0.0661147 0)
(0.236084 -0.0765343 0)
(0.232748 -0.0873256 0)
(0.230301 -0.098497 0)
(0.228841 -0.110038 0)
(0.228479 -0.12192 0)
(0.229323 -0.134104 0)
(0.231481 -0.146536 0)
(0.235046 -0.159135 0)
(0.240063 -0.17168 0)
(0.246219 -0.183668 0)
(0.253011 -0.194268 0)
(0.259068 -0.202428 0)
(0.263544 -0.206473 0)
(0.264998 -0.208603 0)
(0.263753 -0.203708 0)
(0.263403 -0.202509 0)
(0.25669 -0.198823 0)
(0.254734 -0.193567 0)
(0.645573 0.0919825 0)
(0.634784 0.101855 0)
(0.622888 0.110145 0)
(0.610054 0.117017 0)
(0.5964 0.122407 0)
(0.582193 0.126404 0)
(0.567511 0.129007 0)
(0.552471 0.130333 0)
(0.53721 0.130454 0)
(0.521843 0.129443 0)
(0.506467 0.127515 0)
(0.491161 0.124655 0)
(0.475984 0.121043 0)
(0.460983 0.116707 0)
(0.446204 0.11176 0)
(0.431675 0.10627 0)
(0.417424 0.100295 0)
(0.403478 0.0938852 0)
(0.389862 0.0870797 0)
(0.3766 0.0799198 0)
(0.363717 0.0724232 0)
(0.351248 0.0646336 0)
(0.339218 0.0565627 0)
(0.327657 0.0482395 0)
(0.316591 0.0396901 0)
(0.306043 0.0309413 0)
(0.296028 0.0220202 0)
(0.286551 0.0129516 0)
(0.277591 0.00376513 0)
(0.26922 -0.00557056 0)
(0.261319 -0.0150143 0)
(0.253918 -0.0246072 0)
(0.247022 -0.0343878 0)
(0.240635 -0.0444051 0)
(0.234786 -0.0547164 0)
(0.229525 -0.0653835 0)
(0.224927 -0.0764594 0)
(0.221091 -0.0879832 0)
(0.218123 -0.0999717 0)
(0.216143 -0.112421 0)
(0.215282 -0.125306 0)
(0.215674 -0.13859 0)
(0.217451 -0.152216 0)
(0.220714 -0.166039 0)
(0.225356 -0.179592 0)
(0.230602 -0.191915 0)
(0.235255 -0.201769 0)
(0.238243 -0.207289 0)
(0.236512 -0.210419 0)
(0.233567 -0.205252 0)
(0.228462 -0.205932 0)
(0.223861 -0.203002 0)
(0.226263 -0.203023 0)
(0.232323 -0.19571 0)
(0.622911 0.101513 0)
(0.614801 0.113125 0)
(0.605339 0.12264 0)
(0.594648 0.130453 0)
(0.58288 0.136506 0)
(0.570101 0.140942 0)
(0.556587 0.143872 0)
(0.542521 0.145376 0)
(0.527977 0.145544 0)
(0.513248 0.144487 0)
(0.498341 0.142254 0)
(0.483339 0.139165 0)
(0.468373 0.135105 0)
(0.453466 0.130364 0)
(0.438731 0.1249 0)
(0.42418 0.118904 0)
(0.409853 0.112366 0)
(0.395786 0.105413 0)
(0.382018 0.098012 0)
(0.368576 0.0902799 0)
(0.355507 0.0821651 0)
(0.342846 0.0737701 0)
(0.330616 0.065071 0)
(0.318868 0.0561085 0)
(0.307627 0.0469157 0)
(0.296919 0.0375257 0)
(0.286759 0.0279727 0)
(0.277153 0.0182905 0)
(0.268081 0.008508 0)
(0.259548 -0.00136137 0)
(0.251505 -0.0113192 0)
(0.243908 -0.0213938 0)
(0.236748 -0.0316347 0)
(0.23002 -0.0421108 0)
(0.223743 -0.0529037 0)
(0.217968 -0.0641014 0)
(0.212782 -0.075782 0)
(0.208301 -0.0880042 0)
(0.204654 -0.1008 0)
(0.201994 -0.114172 0)
(0.200486 -0.128105 0)
(0.200308 -0.142567 0)
(0.201627 -0.157475 0)
(0.204475 -0.172489 0)
(0.208354 -0.18662 0)
(0.211563 -0.198354 0)
(0.212913 -0.205546 0)
(0.2082 -0.208477 0)
(0.203734 -0.203016 0)
(0.196333 -0.205356 0)
(0.191097 -0.205213 0)
(0.194604 -0.203775 0)
(0.199255 -0.201989 0)
(0.207231 -0.201882 0)
(0.583364 0.107382 0)
(0.579835 0.120225 0)
(0.574031 0.130912 0)
(0.566968 0.140527 0)
(0.558368 0.147939 0)
(0.548621 0.153452 0)
(0.537734 0.157124 0)
(0.525825 0.159052 0)
(0.513114 0.159483 0)
(0.499722 0.158551 0)
(0.486038 0.156364 0)
(0.47201 0.153077 0)
(0.457762 0.148795 0)
(0.44346 0.143661 0)
(0.429133 0.137869 0)
(0.414883 0.131411 0)
(0.400744 0.124448 0)
(0.38676 0.116956 0)
(0.373002 0.109073 0)
(0.35951 0.100748 0)
(0.346332 0.0921164 0)
(0.33355 0.0830815 0)
(0.321152 0.0737822 0)
(0.309243 0.0641879 0)
(0.29785 0.0543501 0)
(0.287002 0.0443136 0)
(0.276719 0.0341234 0)
(0.267002 0.0238274 0)
(0.257835 0.0134679 0)
(0.249153 0.0030852 0)
(0.240995 -0.0073538 0)
(0.233182 -0.0178378 0)
(0.225716 -0.028447 0)
(0.21857 -0.0392807 0)
(0.211751 -0.0504541 0)
(0.205313 -0.0620921 0)
(0.19936 -0.0743056 0)
(0.194037 -0.0871802 0)
(0.189516 -0.10077 0)
(0.185998 -0.115095 0)
(0.183707 -0.130157 0)
(0.182883 -0.145918 0)
(0.183709 -0.162179 0)
(0.185943 -0.178138 0)
(0.188069 -0.191947 0)
(0.187778 -0.201359 0)
(0.182153 -0.20459 0)
(0.175933 -0.202118 0)
(0.164123 -0.202252 0)
(0.156942 -0.205064 0)
(0.161301 -0.204474 0)
(0.166638 -0.206811 0)
(0.175488 -0.209595 0)
(0.186837 -0.21166 0)
(0.534771 0.109589 0)
(0.533073 0.123387 0)
(0.531755 0.134896 0)
(0.529271 0.147173 0)
(0.524455 0.155634 0)
(0.518235 0.162653 0)
(0.510495 0.167575 0)
(0.501545 0.170434 0)
(0.491503 0.171461 0)
(0.480542 0.170963 0)
(0.468763 0.169032 0)
(0.456321 0.16576 0)
(0.443415 0.161507 0)
(0.430244 0.156263 0)
(0.41684 0.150228 0)
(0.40327 0.14354 0)
(0.389624 0.136214 0)
(0.375999 0.12838 0)
(0.362457 0.120052 0)
(0.34909 0.111285 0)
(0.33594 0.10212 0)
(0.323092 0.0925666 0)
(0.310653 0.0826659 0)
(0.298614 0.0724605 0)
(0.287094 0.0619859 0)
(0.27612 0.0513034 0)
(0.265719 0.0404719 0)
(0.255896 0.0295618 0)
(0.246626 0.0186384 0)
(0.237836 0.00775356 0)
(0.229493 -0.00307984 0)
(0.221431 -0.0138757 0)
(0.213578 -0.0247336 0)
(0.205887 -0.0357834 0)
(0.198357 -0.0471917 0)
(0.191052 -0.0591409 0)
(0.184108 -0.0717913 0)
(0.177723 -0.085269 0)
(0.172136 -0.099661 0)
(0.167622 -0.115014 0)
(0.164495 -0.131356 0)
(0.163071 -0.148581 0)
(0.163389 -0.166139 0)
(0.164302 -0.182275 0)
(0.162906 -0.194087 0)
(0.156275 -0.199253 0)
(0.145626 -0.199251 0)
(0.132744 -0.198637 0)
(0.125785 -0.203355 0)
(0.128087 -0.203486 0)
(0.133842 -0.208676 0)
(0.14311 -0.214472 0)
(0.154427 -0.220079 0)
(0.167699 -0.224579 0)
(0.490068 0.110967 0)
(0.486865 0.124255 0)
(0.48679 0.137923 0)
(0.48608 0.150328 0)
(0.483012 0.15957 0)
(0.480797 0.168543 0)
(0.476468 0.174368 0)
(0.470664 0.178358 0)
(0.463706 0.18064 0)
(0.455481 0.180907 0)
(0.446132 0.179538 0)
(0.435949 0.176732 0)
(0.424989 0.172709 0)
(0.41335 0.167637 0)
(0.401288 0.161655 0)
(0.388805 0.154893 0)
(0.376016 0.147429 0)
(0.363047 0.139402 0)
(0.349969 0.130789 0)
(0.336916 0.121705 0)
(0.32395 0.112104 0)
(0.311201 0.102119 0)
(0.29873 0.091684 0)
(0.286652 0.0809163 0)
(0.275033 0.0698161 0)
(0.263931 0.0585171 0)
(0.253382 0.047055 0)
(0.243403 0.0355409 0)
(0.233965 0.0240732 0)
(0.224995 0.0127394 0)
(0.216351 0.00160423 0)
(0.20799 -0.00939039 0)
(0.199618 -0.0203215 0)
(0.191206 -0.0313976 0)
(0.182751 -0.0428666 0)
(0.174348 -0.0549852 0)
(0.166197 -0.0679844 0)
(0.158574 -0.082049 0)
(0.151816 -0.0973138 0)
(0.146309 -0.113863 0)
(0.142486 -0.131744 0)
(0.140639 -0.150592 0)
(0.140156 -0.168908 0)
(0.137945 -0.183502 0)
(0.129933 -0.190651 0)
(0.115119 -0.191728 0)
(0.102012 -0.191881 0)
(0.0954467 -0.195917 0)
(0.0959664 -0.199947 0)
(0.101267 -0.207975 0)
(0.109827 -0.216898 0)
(0.12062 -0.225798 0)
(0.13327 -0.233462 0)
(0.14782 -0.23955 0)
(0.445222 0.114786 0)
(0.443002 0.126862 0)
(0.443204 0.140083 0)
(0.440645 0.149622 0)
(0.439551 0.16084 0)
(0.439206 0.172062 0)
(0.436784 0.178217 0)
(0.434675 0.183285 0)
(0.430822 0.186471 0)
(0.425373 0.187855 0)
(0.418792 0.187458 0)
(0.411019 0.185424 0)
(0.402247 0.181965 0)
(0.392625 0.177327 0)
(0.382222 0.171685 0)
(0.371121 0.165101 0)
(0.35951 0.157802 0)
(0.347463 0.149739 0)
(0.335099 0.141077 0)
(0.322554 0.131804 0)
(0.309946 0.121957 0)
(0.297385 0.11162 0)
(0.284994 0.100764 0)
(0.272864 0.0895244 0)
(0.261129 0.0779176 0)
(0.249842 0.0660106 0)
(0.239011 0.0539689 0)
(0.22872 0.0418864 0)
(0.218941 0.0299074 0)
(0.209608 0.0181773 0)
(0.20056 0.00679731 0)
(0.191696 -0.00423519 0)
(0.182671 -0.0150361 0)
(0.173378 -0.0259157 0)
(0.163827 -0.0372372 0)
(0.154167 -0.0493805 0)
(0.144686 -0.0626849 0)
(0.135791 -0.0774068 0)
(0.127958 -0.0937401 0)
(0.121714 -0.111795 0)
(0.117561 -0.131567 0)
(0.115402 -0.15189 0)
(0.112777 -0.169345 0)
(0.104172 -0.179276 0)
(0.0869269 -0.180857 0)
(0.0715502 -0.180831 0)
(0.0644252 -0.184631 0)
(0.0640966 -0.192647 0)
(0.0685296 -0.204032 0)
(0.0761358 -0.216482 0)
(0.0858477 -0.228264 0)
(0.0972021 -0.238729 0)
(0.110339 -0.247749 0)
(0.125667 -0.255413 0)
(0.398442 0.120777 0)
(0.396191 0.132427 0)
(0.394644 0.142117 0)
(0.394109 0.150474 0)
(0.397059 0.161544 0)
(0.395877 0.171986 0)
(0.393594 0.178966 0)
(0.394338 0.185476 0)
(0.393521 0.189679 0)
(0.391203 0.192311 0)
(0.387264 0.192957 0)
(0.382036 0.191853 0)
(0.375627 0.189187 0)
(0.368103 0.185228 0)
(0.359565 0.180106 0)
(0.350142 0.174021 0)
(0.339893 0.167043 0)
(0.328965 0.159243 0)
(0.317518 0.150708 0)
(0.305634 0.141458 0)
(0.293496 0.13156 0)