/*--------------------------------*- C++ -*----------------------------------*\
  =========                 |
  \\      /  F ield         | OpenFOAM: The Open Source CFD Toolbox
   \\    /   O peration     | Website:  https://openfoam.org
    \\  /    A nd           | Version:  10
     \\/     M anipulation  |
\*---------------------------------------------------------------------------*/
FoamFile
{
    format      ascii;
    class       surfaceScalarField;
    location    "0.149409";
    object      phi;
}
// * * * * * * * * * * * * * * * * * * * * * * * * * * * * * * * * * * * * * //

dimensions      [1 0 -1 0 0 0 0];

internalField   nonuniform List<scalar> 
32368
(
0.000208198
0.000154146
0.000164296
0.00012318
0.000136051
0.000165991
6.15227e-06
0.000274797
-7.09579e-05
0.000313267
-0.000136506
0.000290513
-0.000289053
0.000317813
-0.000515218
0.000445533
-0.000618599
0.000505068
-0.000584623
0.000482847
-0.000498603
0.000414952
-0.0004051
0.000353619
-0.000307786
0.000299041
-0.000221364
0.00025169
-0.000156077
0.000214984
-0.000103085
0.00015607
-5.29469e-05
0.000106893
-2.95224e-05
0.000101599
-2.00801e-05
0.00011945
-2.29286e-05
0.000136521
-2.76958e-05
0.000120755
-3.49672e-05
9.03703e-05
-5.97586e-05
9.24487e-05
-9.6743e-05
8.52486e-05
-0.00015513
8.46939e-05
-0.000151969
7.95321e-05
-0.000116682
9.83213e-05
-6.9985e-05
0.000126795
-3.6595e-05
0.000144245
-2.24734e-05
0.000165272
-1.52123e-05
0.000178602
-9.54617e-06
0.000180176
-6.04897e-06
0.000179956
-4.50263e-06
0.000177361
-4.87173e-06
0.00017402
-5.35281e-06
0.000165508
-3.3745e-06
0.00015213
5.33324e-06
0.000131376
7.40776e-06
0.000151998
-4.17612e-05
0.000327887
-0.000126494
0.000240919
-0.00011804
5.10289e-05
-5.92576e-05
-2.50685e-05
-1.46269e-05
-1.932e-05
7.2526e-06
1.23737e-05
2.58323e-05
7.00867e-05
2.63593e-05
0.000113949
1.75921e-05
0.00010083
1.16734e-05
8.34262e-05
8.01714e-06
7.25883e-05
5.00734e-06
6.78835e-05
2.39807e-06
7.55029e-05
-1.65096e-06
0.000100542
-8.03565e-06
0.000100553
-1.23576e-05
7.43568e-05
-7.36805e-06
1.28907e-05
-1.20282e-05
-0.000101486
-3.97283e-05
-0.00023407
-3.40619e-05
-0.000272793
-1.53433e-05
-0.000247809
-6.90369e-06
-0.000199796
-9.21938e-06
-0.000164291
-1.17559e-05
-0.000116227
-1.165e-05
-6.49893e-05
-1.37687e-05
-4.27867e-05
-1.59943e-05
-3.30176e-05
-1.74202e-05
-2.67794e-05
-1.7567e-05
-2.51224e-05
-1.39993e-05
-2.463e-05
-7.4795e-06
-2.67646e-05
-1.10538e-06
-2.92767e-05
2.91018e-06
-3.47607e-05
6.89346e-06
-4.08897e-05
9.80727e-06
-4.37531e-05
1.23786e-05
-4.39623e-05
2.37446e-05
-5.57811e-05
5.99916e-05
-0.000117743
0.000116868
-0.000194252
0.000181345
-0.000258477
0.000241278
-0.000301632
0.000288287
-0.000323548
0.000324659
-0.000332958
0.000353293
-0.000335352
0.000366719
-0.000338855
0.000349541
-0.000347337
0.000257926
-0.000358176
2.98279e-05
-0.000347767
-0.000103754
-0.000202045
-0.000123972
3.41295e-05
-9.66402e-05
0.000187837
-0.000104537
0.000243804
-0.000141328
0.000294299
-0.000208988
0.000336744
-0.000307619
0.000387399
-0.000432301
0.000457202
-0.000519137
0.000560127
-0.000479853
0.000608434
-0.000359394
0.00051633
-0.000319391
0.000437436
-0.000303358
0.000393547
-0.000309729
0.000331854
-0.000272836
0.000208215
-0.000168037
4.99047e-06
-9.14467e-05
-0.000216752
-5.49956e-05
-0.000330375
-0.000109693
-0.000371133
-0.000155941
-0.00035201
-0.000166781
-0.000311222
-0.000172095
-0.000287597
-0.000171256
-0.000299579
-0.000143178
-0.00032401
-9.58776e-05
-0.000327163
-0.000301273
-3.04684e-05
0.000189933
0.000150333
0.000144183
0.000117951
0.000147009
0.000129445
4.12171e-05
0.000225262
-7.31842e-05
0.00029408
-0.000156947
0.000271489
-0.000314246
0.000285314
-0.000572027
0.000384808
-0.000602304
0.00043443
-0.000504319
0.000403694
-0.000361428
0.000330425
-0.000232412
0.000271539
-0.000143259
0.000222413
-8.72106e-05
0.000193778
-3.22404e-05
0.000154646
2.69451e-05
8.88878e-05
6.00184e-05
6.05855e-05
5.95159e-05
7.03915e-05
3.14647e-05
0.000104277
-3.55602e-06
0.000145705
-3.27124e-05
0.000155942
-4.33219e-05
0.000118719
-7.25617e-05
0.000108696
-0.000118131
9.57274e-05
-0.000203573
9.14257e-05
-0.000216409
8.5463e-05
-0.000187865
9.80565e-05
-0.000128229
0.000122544
-7.27249e-05
0.000135271
-4.63917e-05
0.000154132
-3.13575e-05
0.000172712
-2.11382e-05
0.000177665
-1.61079e-05
0.000181027
-1.49943e-05
0.000181205
-1.53133e-05
0.000178903
-1.68555e-05
0.000172479
-1.91581e-05
0.000163311
-1.77788e-05
0.000170889
-4.60423e-06
0.000298016
-0.000110575
0.000356998
-0.000248923
0.000123195
-0.000252008
-6.01641e-05
-0.000138329
-9.9402e-05
-4.59481e-05
-5.44956e-05
-2.71612e-05
-1.11402e-05
-1.53913e-05
3.09411e-05
-7.44181e-06
7.27016e-05
-4.49077e-06
7.92102e-05
-2.91258e-06
7.57502e-05
-2.58859e-06
7.00283e-05
-3.76849e-06
6.81724e-05
-6.52158e-06
8.12733e-05
-1.13325e-05
9.81123e-05
-1.62579e-05
9.0662e-05
-1.83409e-05
5.79638e-05
-8.50862e-06
-1.82455e-05
-1.95229e-05
-0.000122747
-4.76436e-05
-0.000231175
-3.41734e-05
-0.000275415
-1.44013e-05
-0.000278843
-1.21767e-05
-0.000254692
-1.37164e-05
-0.000197104
-1.23351e-05
-0.000125848
-1.16451e-05
-6.51637e-05
-1.4222e-05
-4.20019e-05
-1.69156e-05
-3.11524e-05
-1.91792e-05
-2.52545e-05
-1.80863e-05
-2.33395e-05
-1.34441e-05
-2.37303e-05
-6.94086e-06
-2.53041e-05
-1.49266e-06
-2.61232e-05
2.21153e-06
-3.40052e-05
5.8758e-06
-4.03599e-05
8.57589e-06
-4.22851e-05
1.0826e-05
-4.16822e-05
2.35591e-05
-5.30665e-05
6.14309e-05
-0.000115018
0.000119799
-0.000189552
0.000183899
-0.000251288
0.000242416
-0.000293134
0.000290528
-0.000316511
0.000328623
-0.00032743
0.000361282
-0.000332311
0.00038513
-0.000339393
0.000382867
-0.000346801
0.000332981
-0.000359354
0.000148796
-0.000361558
-1.93102e-05
-0.000265525
-7.44315e-05
-3.55822e-05
-6.78348e-05
0.000170178
-6.56885e-05
0.000282356
-0.000102322
0.000301068
-0.000161363
0.000340916
-0.000250142
0.000393334
-0.000366867
0.000458983
-0.000457856
0.000558581
-0.000448535
0.000618873
-0.000363251
0.000541756
-0.000339997
0.000457531
-0.000322325
0.000401067
-0.000294845
0.000300265
-0.000214232
0.000124079
-0.000111908
-9.44312e-05
-5.7967e-05
-0.000268175
-5.91062e-05
-0.000379842
-0.000120571
-0.000406643
-0.00014993
-0.000377749
-0.000141868
-0.000336467
-0.000135674
-0.000297382
-0.000124165
-0.000302067
-9.65615e-05
-0.000328531
-5.52927e-05
-0.000340629
-0.000319274
-4.04212e-06
0.000165875
0.000141
0.000127017
0.000102057
0.000113816
9.02249e-05
4.95572e-05
0.000142272
-0.000100014
0.000213708
-0.000214316
0.000217101
-0.000378581
0.000222603
-0.000571644
0.000285191
-0.000544825
0.000330666
-0.000424088
0.000312102
-0.000263705
0.000257923
-0.000120992
0.000205793
-3.09913e-05
0.000182502
3.19249e-05
0.000143577
9.80045e-05
9.74301e-05
0.000135963
4.68802e-05
0.000141595
2.60883e-05
0.000128436
2.64406e-05
8.97645e-05
4.54167e-05
1.45714e-05
8.90277e-05
-4.45945e-05
0.000124336
-5.63773e-05
0.000114433
-8.63593e-05
0.000108814
-0.000134188
9.70919e-05
-0.000233913
9.2854e-05
-0.000262758
9.26036e-05
-0.000245476
0.000101097
-0.000185374
0.000119031
-0.000116162
0.000125419
-7.83669e-05
0.00013834
-5.40465e-05
0.000159044
-3.72103e-05
0.000168633
-2.76856e-05
0.0001777
-2.37697e-05
0.000182562
-2.285e-05
0.00018244
-2.19053e-05
0.000178277
-2.27059e-05
0.000178485
-4.85857e-06
0.000227627
6.19704e-05
0.000384266
-0.000112084
0.000198306
-0.000327079
-9.45092e-05
-0.000345647
-0.000207311
-0.000221779
-0.00017986
-8.42468e-05
-9.95592e-05
-4.19495e-05
-2.83778e-05
-3.26983e-05
1.63598e-05
-2.4074e-05
5.04179e-05
-1.81118e-05
6.63856e-05
-1.41468e-05
6.90908e-05
-1.25062e-05
6.67371e-05
-1.29436e-05
6.86239e-05
-1.6898e-05
8.18553e-05
-2.09104e-05
9.1328e-05
-2.37463e-05
7.81237e-05
-2.19663e-05
3.90283e-05
-1.06044e-05
-4.54472e-05
-3.52571e-05
-0.000133359
-5.76457e-05
-0.000228082
-3.58034e-05
-0.000281713
-1.19396e-05
-0.000297873
-5.4992e-06
-0.000264711
-8.21602e-06
-0.000195572
-8.5086e-06
-0.000118549
-1.05903e-05
-5.79636e-05
-1.45368e-05
-3.75016e-05
-1.74596e-05
-2.74556e-05
-1.88901e-05
-2.19051e-05
-1.7245e-05
-2.04065e-05
-1.23324e-05
-2.13406e-05
-6.12871e-06
-2.2216e-05
-1.78519e-06
-2.50317e-05
1.74563e-06
-3.33908e-05
5.11931e-06
-3.96546e-05
7.73269e-06
-4.07816e-05
1.01696e-05
-3.95206e-05
2.34461e-05
-4.97113e-05
6.0963e-05
-0.000108185
0.000118301
-0.000180437
0.000182045
-0.000241972
0.000241641
-0.000284159
0.000291977
-0.000309067
0.000333165
-0.000323042
0.000369176
-0.000331731
0.000396463
-0.000342151
0.000410494
-0.000357601
0.000385489
-0.000369756
0.000260176
-0.000382365
8.46595e-05
-0.000329109
6.1628e-07
-0.000102881
-2.79628e-05
0.000150513
-4.02844e-05
0.000317829
-6.52175e-05
0.00034164
-0.000117929
0.000349191
-0.000199036
0.000398693
-0.000310624
0.000465446
-0.000416215
0.000559061
-0.000445742
0.00062348
-0.000383582
0.00057069
-0.000355666
0.000462895
-0.000320485
0.000378072
-0.000255648
0.000238409
-0.000152455
3.96083e-05
-9.28657e-05
-0.000149053
-5.46881e-05
-0.0002915
-7.11905e-05
-0.000390853
-0.000117388
-0.000410075
-0.000135995
-0.000377461
-0.000122221
-0.000336709
-0.000110766
-0.000293278
-9.42087e-05
-0.000294345
-6.43598e-05
-0.000321429
-2.67084e-05
-0.000339742
-0.000317256
1.59443e-05
0.000129009
0.000118717
9.34935e-05
7.25976e-05
6.02513e-05
5.49531e-05
-1.75126e-05
7.7857e-05
-0.000163564
0.00012435
-0.000282229
0.00016305
-0.000373292
0.000191177
-0.000431672
0.000229717
-0.000392204
0.000251961
-0.000282001
0.000219489
-0.000145379
0.000163813
-1.99127e-05
0.000121382
8.42801e-05
0.000115151
0.000155262
9.65799e-05
0.000189198
5.87042e-05
0.000185254
2.71352e-05
0.000175237
1.03361e-05
0.000160459
5.10461e-06
0.000124257
1.33205e-05
4.15363e-05
3.66137e-05
-4.37466e-05
6.96733e-05
-6.39503e-05
9.0646e-05
-9.05751e-05
9.27336e-05
-0.0001341
8.53457e-05
-0.0002359
8.29826e-05
-0.000284931
9.15085e-05
-0.000281843
0.000101321
-0.000229706
0.000115549
-0.000156169
0.000115299
-0.000109122
0.000120399
-7.69085e-05
0.000139203
-5.31513e-05
0.000152019
-3.82017e-05
0.000167451
-2.9744e-05
0.000177974
-2.4406e-05
0.000180864
-1.79601e-05
0.000179767
-9.94672e-06
0.000180785
3.02385e-05
0.000227949
0.000163443
0.000282889
-5.38599e-06
7.62937e-05
-0.000325178
-0.000358391
-0.000378405
-0.000390415
-0.000265559
-0.000253256
-0.000137522
-0.000124506
-5.55487e-05
-4.09319e-05
-3.924e-05
5.0186e-06
-3.15469e-05
3.92587e-05
-2.58188e-05
5.7598e-05
-2.17909e-05
6.25727e-05
-1.98168e-05
6.2533e-05
-2.12347e-05
6.49929e-05
-2.58937e-05
7.59112e-05
-2.87891e-05
8.0335e-05
-2.96668e-05
6.22152e-05
-1.80527e-05
1.3327e-05
-1.66152e-05
-5.71625e-05
-5.52256e-05
-0.000145092
-6.61255e-05
-0.000235327
-2.95416e-05
-0.000285202
-1.51205e-06
-0.000291192
4.45104e-06
-0.00024988
-1.28946e-06
-0.000178695
-5.82255e-06
-0.000102466
-9.87756e-06
-4.86462e-05
-1.47466e-05
-3.09005e-05
-1.79926e-05
-2.1961e-05
-1.86889e-05
-1.75904e-05
-1.63983e-05
-1.70742e-05
-1.10653e-05
-1.84253e-05
-5.66618e-06
-1.91132e-05
-1.7948e-06
-2.45554e-05
1.47539e-06
-3.2688e-05
4.54313e-06
-3.88188e-05
7.08817e-06
-3.93242e-05
9.7585e-06
-3.77626e-05
2.28719e-05
-4.66873e-05
5.92007e-05
-9.79915e-05
0.00011461
-0.000165094
0.000177331
-0.000225611
0.000238328
-0.000270946
0.000291446
-0.000299531
0.000336306
-0.000318956
0.000375092
-0.000333032
0.00040791
-0.000347474
0.000427205
-0.000366263
0.00041815
-0.000385892
0.000343353
-0.000410367
0.000179199
-0.000375668
7.71019e-05
-0.000171354
-1.60322e-06
0.000130042
-2.8884e-05
0.000324099
-4.52205e-05
0.000380863
-8.42705e-05
0.000379897
-0.000159489
0.000414213
-0.00027333
0.000482178
-0.000392852
0.000553622
-0.00043941
0.000624368
-0.000395488
0.000580986
-0.000350577
0.000450347
-0.000297429
0.000332184
-0.000197649
0.00015501
-9.90598e-05
-4.65245e-05
-5.85905e-05
-0.000176155
-4.21141e-05
-0.000271056
-6.97563e-05
-0.000358393
-0.000109525
-0.000383722
-0.000122154
-0.000353205
-0.000107014
-0.000316335
-9.412e-05
-0.000277157
-7.55098e-05
-0.000277312
-4.40305e-05
-0.000306326
-7.35993e-06
-0.000328712
-0.000302655
2.82061e-05
7.75153e-05
8.56279e-05
3.50067e-05
4.99246e-05
-2.40167e-05
4.26446e-05
-0.00011396
5.57491e-05
-0.000225991
9.71935e-05
-0.000284526
0.000145966
-0.000300943
0.00016574
-0.00028323
0.00016694
-0.000205563
0.000141795
-9.96639e-05
8.69094e-05
-1.42966e-05
4.39369e-05
5.91382e-05
1.83807e-05
0.000119855
2.9144e-05
0.000158995
3.3728e-05
0.000167837
2.71276e-05
0.000163575
1.87501e-05
0.000170852
1.59449e-05
0.000169488
1.69765e-05
0.000127175
1.32917e-05
5.59666e-05
1.26216e-05
-2.9571e-05
3.03544e-05
-6.14239e-05
5.8803e-05
-8.37642e-05
6.71918e-05
-0.00011763
6.33875e-05
-0.000209931
6.21983e-05
-0.000278698
7.99095e-05
-0.000290304
9.483e-05
-0.000249283
0.000112672
-0.000176689
0.000108285
-0.000128075
0.000101085
-9.52677e-05
0.000114185
-6.7716e-05
0.000127884
-4.67343e-05
0.000148604
-3.2719e-05
0.000165683
-2.19308e-05
0.00017114
-9.02317e-06
0.00017046
1.0106e-05
0.000165051
6.2757e-05
0.000178663
0.000158292
0.000152968
0.000152915
1.11701e-05
-0.000214328
-0.000388087
-0.000330177
-0.000443079
-0.000254405
-0.000264856
-0.000175983
-0.000146464
-9.78325e-05
-5.17734e-05
-3.98959e-05
8.2143e-06
-3.25094e-05
3.18286e-05
-2.89569e-05
5.11975e-05
-2.57309e-05
5.59585e-05
-2.44802e-05
5.63693e-05
-2.6511e-05
5.8339e-05
-3.11499e-05
6.56547e-05
-3.24398e-05
6.48348e-05
-2.72158e-05
4.18981e-05
-1.53909e-05
-9.81023e-06
-2.94817e-05
-6.42524e-05
-7.64144e-05
-0.000160736
-7.06715e-05
-0.000243155
-2.42681e-05
-0.000282753
3.30149e-06
-0.000274307
8.66932e-06
-0.000219727
8.21422e-07
-0.000141783
-5.07273e-06
-7.55306e-05
-1.02984e-05
-3.83827e-05
-1.53063e-05
-2.3983e-05
-1.85062e-05
-1.59577e-05
-1.86998e-05
-1.25952e-05
-1.55592e-05
-1.29921e-05
-9.82026e-06
-1.48762e-05
-5.2734e-06
-1.67879e-05
-1.72222e-06
-2.41522e-05
1.3222e-06
-3.19412e-05
4.07691e-06
-3.77784e-05
6.54941e-06
-3.79157e-05
9.56128e-06
-3.67356e-05
2.18063e-05
-4.53084e-05
5.40223e-05
-8.88249e-05
0.000105933
-0.000148716
0.000167185
-0.000206471
0.000229636
-0.000256019
0.000287444
-0.000290865
0.000336743
-0.000316906
0.000379439
-0.000336677
0.000416056
-0.000354942
0.000440821
-0.000375537
0.000440187
-0.000399449
0.000388556
-0.000433313
0.000271432
-0.000425845
0.000108708
-0.000203857
5.85765e-06
8.811e-05
-3.04286e-05
0.000296262
-4.10107e-05
0.000384269
-6.9365e-05
0.000407687
-0.00014289
0.000439725
-0.000258582
0.000508656
-0.000381781
0.000564593
-0.000436665
0.000614845
-0.000399574
0.000575875
-0.0003372
0.000421821
-0.000251087
0.000264268
-0.000133723
6.98418e-05
-6.053e-05
-0.000104335
-3.2693e-05
-0.000191424
-3.20287e-05
-0.000240951
-6.80402e-05
-0.000302741
-0.000103734
-0.000335868
-0.00011041
-0.000313758
-9.66263e-05
-0.000279967
-8.21153e-05
-0.000246657
-6.42128e-05
-0.000248977
-3.26892e-05
-0.000283154
4.49598e-06
-0.00031111
-0.000278859
3.43727e-05
1.38594e-05
6.49922e-05
-4.48385e-05
4.91487e-05
-0.000114041
4.65481e-05
-0.000188433
4.79829e-05
-0.00025334
6.88197e-05
-0.000260078
9.62444e-05
-0.000232339
0.000109922
-0.000171024
0.000100433
-9.41038e-05
6.96141e-05
-4.06112e-05
3.4892e-05
1.04433e-05
2.77353e-06
5.46895e-05
-1.42308e-05
9.03421e-05
4.46585e-06
0.000109625
2.44432e-05
0.0001236
3.20588e-05
0.00013431
3.89532e-05
0.000139651
3.72926e-05
0.000131802
2.70923e-05
0.000100407
1.52311e-05
4.95514e-05
8.60818e-06
-1.58483e-05
1.21331e-05
-5.37895e-05
3.41493e-05
-7.38761e-05
4.35157e-05
-9.93708e-05
4.17874e-05
-0.000169426
3.9805e-05
-0.000253338
6.05028e-05
-0.000271439
8.62548e-05
-0.000250068
0.000110395
-0.000185981
0.00010875
-0.000131717
9.11379e-05
-0.000104158
8.95602e-05
-7.86933e-05
9.99028e-05
-5.43216e-05
0.000122175
-3.50484e-05
0.000144934
-1.9249e-05
0.000154359
-1.03513e-06
0.000153127
2.23561e-05
0.000142384
5.99712e-05
0.000129949
0.000113311
0.000105103
0.000117415
1.4963e-05
-0.000158222
-0.000316936
-0.000233657
-0.000509164
-0.000180557
-0.000289619
-0.000154041
-0.00013866
-0.000121635
-6.47443e-05
-7.24898e-05
-3.36629e-06
-3.34e-05
2.93383e-05
-2.98678e-05
4.48301e-05
-2.73346e-05
4.9383e-05
-2.61933e-05
4.90513e-05
-2.73687e-05
4.91971e-05
-3.14135e-05
4.99189e-05
-3.0759e-05
4.28163e-05
-2.23502e-05
1.87298e-05
-2.05623e-05
-2.21609e-05
-4.55512e-05
-7.04036e-05
-8.74921e-05
-0.000161455
-7.23798e-05
-0.000242397
-2.18838e-05
-0.000270668
5.84701e-06
-0.000243887
1.00858e-05
-0.00017465
2.09873e-06
-0.000100588
-4.51865e-06
-5.24803e-05
-1.11271e-05
-3.00101e-05
-1.65705e-05
-1.71596e-05
-1.9237e-05
-1.03243e-05
-1.85641e-05
-7.84237e-06
-1.44066e-05
-9.11673e-06
-8.62266e-06
-1.14408e-05
-4.9057e-06
-1.58164e-05
-1.58758e-06
-2.37585e-05
1.27372e-06
-3.12109e-05
3.71821e-06
-3.65308e-05
6.08103e-06
-3.64881e-05
9.52186e-06
-3.64454e-05
2.19748e-05
-4.81604e-05
5.28952e-05
-8.95752e-05
0.00010099
-0.000147151
0.000161197
-0.000205118
0.000223962
-0.000253706
0.000283723
-0.000291307
0.000336948
-0.000320217
0.000383483
-0.000343459
0.000423826
-0.000363633
0.000452294
-0.000384013
0.000455555
-0.000409741
0.00041537
-0.000449344
0.000301722
-0.000460681
0.000105634
-0.000220417
1.1917e-05
4.85237e-05
-3.80137e-05
0.000228707
-4.99974e-05
0.000352437
-7.67815e-05
0.000398243
-0.000149869
0.000444115
-0.000270655
0.000516616
-0.000390292
0.00057221
-0.000450335
0.000606068
-0.000407498
0.000559259
-0.000304999
0.000369649
-0.000176408
0.000171515
-8.86591e-05
3.96877e-06
-4.15936e-05
-0.000135456
-2.36513e-05
-0.000190807
-3.02729e-05
-0.000206424
-7.02475e-05
-0.000240214
-0.000102687
-0.000276927
-0.000103802
-0.000256523
-8.97554e-05
-0.000226013
-7.5113e-05
-0.000204002
-5.79656e-05
-0.000212806
-2.72672e-05
-0.000251574
1.12612e-05
-0.000287635
-0.000246166
3.6954e-05
-4.77908e-05
6.05306e-05
-0.000114097
5.50711e-05
-0.00017099
4.44283e-05
-0.000212014
3.81355e-05
-0.000228869
4.60077e-05
-0.000211783
5.69127e-05
-0.000172993
6.05947e-05
-0.000117182
5.10203e-05
-7.09512e-05
3.09065e-05
-2.81496e-05
3.64758e-06
4.75704e-06
-1.69719e-05
2.55523e-05
-2.11946e-05
4.64858e-05
2.78016e-06
6.72266e-05
3.15462e-05
8.59435e-05
4.89343e-05
0.00010135
5.33487e-05
0.000109919
4.68681e-05
0.000106122
3.3654e-05
8.46976e-05
2.12747e-05
4.41854e-05
1.37169e-05
-8.89353e-06
1.25662e-05
-4.48572e-05
2.33038e-05
-6.5349e-05
2.93611e-05
-8.78811e-05
2.83182e-05
-0.000131253
2.54212e-05
-0.000212761
3.91647e-05
-0.000244149
7.73593e-05
-0.000242369
0.000101233
-0.000194767
0.000113203
-0.000130716
9.27833e-05
-0.000103369
7.05285e-05
-8.26423e-05
7.6056e-05
-5.96048e-05
9.42349e-05
-3.75983e-05
0.000117963
-1.82315e-05
0.00013204
2.07101e-06
0.000132103
2.34483e-05
0.000119939
5.21536e-05
0.00010659
9.71603e-05
0.000103395
8.68431e-05
4.7883e-05
-8.87185e-05
-0.000166487
-0.000217222
-0.000499887
-0.000157289
-0.000399043
-0.000104378
-0.000182954
-9.96517e-05
-7.43678e-05
-7.78083e-05
-2.70839e-05
-4.38465e-05
1.34108e-05
-3.36391e-05
3.41046e-05
-2.94265e-05
4.15366e-05
-2.77768e-05
4.12048e-05
-2.83754e-05
4.05278e-05
-2.88938e-05
3.8217e-05
-2.65782e-05
2.78261e-05
-2.24864e-05
4.13661e-06
-2.77262e-05
-2.85964e-05
-5.53245e-05
-7.01826e-05
-9.27895e-05
-0.000156068
-7.12056e-05
-0.000236947
-2.03685e-05
-0.000252961
5.86201e-06
-0.000210393
9.95049e-06
-0.000133643
2.95379e-06
-7.24615e-05
-5.65894e-06
-4.21337e-05
-1.28828e-05
-2.31414e-05
-1.81009e-05
-1.14677e-05
-1.9889e-05
-5.12331e-06
-1.80915e-05
-3.76456e-06
-1.27896e-05
-6.00197e-06
-7.64598e-06
-8.91569e-06
-4.34409e-06
-1.52644e-05
-1.31515e-06
-2.3329e-05
1.33047e-06
-3.04197e-05
3.47706e-06
-3.51413e-05
5.86553e-06
-3.50518e-05
1.04838e-05
-3.7484e-05
2.38134e-05
-5.99796e-05
5.3529e-05
-0.000100002
0.000101004
-0.000154018
0.000160833
-0.000209817
0.000224547
-0.000257834
0.000285028
-0.000297601
0.000339381
-0.000328304
0.000388693
-0.000352634
0.000431792
-0.000372642
0.000461813
-0.000391215
0.000466333
-0.000417738
0.000427431
-0.00046194
0.000298257
-0.000484748
8.83592e-05
-0.000228279
8.06078e-06
1.23214e-05
-4.37585e-05
0.000169977
-6.9907e-05
0.00030715
-9.92722e-05
0.000375493
-0.000184267
0.000435274
-0.000326527
0.000523607
-0.000467247
0.000582094
-0.00047791
0.000576822
-0.000380875
0.000495669
-0.00023303
0.000282141
-0.000118424
9.83932e-05
-4.94065e-05
-4.46259e-05
-2.24374e-05
-0.000142412
-1.8158e-05
-0.000165207
-3.25388e-05
-0.000161829
-7.96547e-05
-0.000195875
-0.000106856
-0.000210858
-0.000104837
-0.000192921
-9.10719e-05
-0.000170345
-7.59343e-05
-0.000159426
-5.65058e-05
-0.000174735
-2.48998e-05
-0.000217009
1.34434e-05
-0.000260494
-0.000208283
3.47113e-05
-8.80775e-05
5.94757e-05
-0.000147769
5.14166e-05
-0.00018754
3.62078e-05
-0.000205084
2.89931e-05
-0.000201031
2.92137e-05
-0.0001778
3.12256e-05
-0.000141829
2.80164e-05
-0.00010114
1.7346e-05
-6.09734e-05
1.29569e-07
-2.93963e-05
-1.72824e-05
-9.87013e-06
-2.58604e-05
3.75584e-07
-1.90095e-05
1.32451e-05
8.28165e-06
3.32889e-05
3.88227e-05
5.53235e-05
5.72672e-05
7.38399e-05
6.01148e-05
8.54145e-05
5.27385e-05
8.48428e-05
4.03368e-05
6.92575e-05
2.92453e-05
3.4897e-05
2.20051e-05
-7.60443e-06
1.81656e-05
-3.83175e-05
2.22667e-05
-5.81717e-05
2.389e-05
-7.84421e-05
2.28484e-05
-0.000109579
2.06398e-05
-0.000170019
2.7673e-05
-0.000214094
6.26032e-05
-0.000219947
8.85691e-05
-0.000193947
0.000108652
-0.00013618
9.71648e-05
-9.89602e-05
6.47618e-05
-8.27833e-05
5.87879e-05
-6.15003e-05
6.93977e-05
-3.80331e-05
9.0118e-05
-1.69718e-05
0.000106506
4.17662e-06
0.000108041
2.54488e-05
9.79191e-05
5.74143e-05
8.89482e-05
0.000118769
9.01582e-05
0.000147851
4.46738e-05
5.05561e-05
-6.86749e-05
-0.000162328
-0.000369114
-0.000175606
-0.000596529
-0.00010525
-0.000357446
-7.92085e-05
-0.000121851
-7.16066e-05
-4.60516e-05
-5.48218e-05
-9.86381e-06
-3.9631e-05
2.0293e-05
-3.34089e-05
3.3704e-05
-3.03839e-05
3.52295e-05
-2.94032e-05
3.37242e-05
-2.80337e-05
2.81964e-05
-2.53285e-05
1.61878e-05
-2.40965e-05
-5.66256e-06
-3.09e-05
-3.23095e-05
-5.60016e-05
-6.86006e-05
-9.5033e-05
-0.000153576
-6.86902e-05
-0.0002312
-2.00665e-05
-0.00023496
3.97767e-06
-0.000178552
8.40405e-06
-0.000102912
1.19744e-06
-5.66672e-05
-7.58989e-06
-3.44925e-05
-1.4348e-05
-1.73206e-05
-1.88704e-05
-6.50793e-06
-1.97097e-05
-8.10738e-07
-1.68589e-05
-4.20671e-07
-1.08979e-05
-3.52534e-06
-6.73301e-06
-7.61365e-06
-3.65962e-06
-1.48001e-05
-9.00342e-07
-2.28797e-05
1.4966e-06
-2.95212e-05
3.32551e-06
-3.35926e-05
5.41372e-06
-3.34163e-05
1.1365e-05
-3.75545e-05
3.05778e-05
-7.15837e-05
6.17434e-05
-0.000119737
0.00010827
-0.00017445
0.000165616
-0.000226364
0.000227072
-0.000269736
0.000287421
-0.000308196
0.000342912
-0.000338452
0.00039488
-0.000362232
0.000439549
-0.000380302
0.000469583
-0.000396662
0.000471871
-0.00042434
0.000426401
-0.000475835
0.000253145
-0.000524128
6.5723e-05
-0.00024816
-5.96669e-06
-4.11604e-05
-5.58473e-05
9.36939e-05
-0.000106111
0.000244719
-0.000159678
0.00033469
-0.000286045
0.000420626
-0.00048079
0.000530377
-0.000510567
0.000560025
-0.000444507
0.000510907
-0.000304342
0.000401973
-0.000159003
0.000193662
-7.65292e-05
4.72551e-05
-2.62523e-05
-6.95045e-05
-1.3458e-05
-0.000125447
-2.08702e-05
-0.00012375
-4.90089e-05
-0.000130214
-9.74952e-05
-0.000154386
-0.00011958
-0.000149534
-0.000114894
-0.000131201
-9.96064e-05
-0.000117557
-8.08706e-05
-0.000115823
-5.73841e-05
-0.000135862
-2.43077e-05
-0.000181664
1.3393e-05
-0.000230319
-0.000167725
3.1265e-05
-0.000103315
5.21949e-05
-0.00015727
4.02961e-05
-0.000185934
2.64555e-05
-0.000191524
1.90879e-05
-0.000180328
1.54106e-05
-0.000156104
1.11469e-05
-0.000124573
3.36605e-06
-8.99926e-05
-8.2401e-06
-5.90913e-05
-2.10419e-05
-3.77057e-05
-2.90871e-05
-2.71501e-05
-2.73916e-05
-2.24229e-05
-1.29485e-05
-1.25294e-05
1.5446e-05
9.13322e-06
4.37309e-05
3.20101e-05
6.25445e-05
5.16736e-05
6.57919e-05
6.44035e-05
5.88986e-05
6.69361e-05
4.72472e-05
5.55621e-05
3.65184e-05
2.57007e-05
2.87304e-05
-1.03065e-05
2.37021e-05
-3.5163e-05
2.45247e-05
-5.36982e-05
2.40394e-05
-7.37057e-05
2.47067e-05
-0.000101815
2.45191e-05
-0.000137778
2.7755e-05
-0.000181726
4.83932e-05
-0.000190763
7.96474e-05
-0.000181025
9.89645e-05
-0.000141167
0.000100993
-9.48937e-05
7.59863e-05
-7.6099e-05
4.82426e-05
-5.85673e-05
5.10382e-05
-3.61928e-05
6.65379e-05
-1.39171e-05
8.28616e-05
7.6127e-06
8.6074e-05
2.95832e-05
7.74294e-05
6.31257e-05
6.75551e-05
0.000131499
6.17172e-05
0.000193448
2.14118e-05
0.000191448
-5.7005e-05
1.08479e-05
-0.000223982
-0.000131186
-0.000658743
-0.000118133
-0.000656318
-7.76132e-05
-0.000271876
-6.1805e-05
-8.24746e-05
-5.5808e-05
-2.74517e-05
-4.53687e-05
2.55299e-06
-3.82522e-05
2.1201e-05
-3.42312e-05
2.62153e-05
-3.13272e-05
2.4401e-05
-2.82731e-05
1.81099e-05
-2.56162e-05
5.8421e-06
-2.58953e-05
-1.31232e-05
-3.19277e-05
-3.56676e-05
-5.65476e-05
-6.88142e-05
-9.61442e-05
-0.000150241
-6.63218e-05
-0.000221619
-1.91474e-05
-0.000218738
4.03041e-06
-0.00015117
6.75866e-06
-7.92313e-05
-9.67913e-07
-4.80509e-05
-8.97853e-06
-2.80747e-05
-1.50004e-05
-1.2467e-05
-1.85317e-05
-2.30209e-06
-1.82717e-05
2.44771e-06
-1.46129e-05
2.08604e-06
-9.07056e-06
-1.67472e-06
-5.55689e-06
-6.7252e-06
-2.79043e-06
-1.43015e-05
-3.03941e-07
-2.23686e-05
1.82526e-06
-2.84936e-05
3.43966e-06
-3.19806e-05
5.37022e-06
-3.17731e-05
1.13529e-05
-3.59332e-05
3.24725e-05
-7.11305e-05
6.84163e-05
-0.000121918
0.000117287
-0.000178078
0.000173616
-0.000231801
0.000233115
-0.000277529
0.000291738
-0.000317229
0.000347163
-0.000347764
0.000401394
-0.000370392
0.000446661
-0.00038545
0.000474225
-0.000400821
0.000466736
-0.000430306
0.000395482
-0.000499797
0.000157807
-0.000577404
2.05616e-06
-0.00026145
-5.92906e-05
-0.000107329
-0.000113641
-4.35221e-06
-0.000203353
0.000140951
-0.000317189
0.000272463
-0.000519325
0.000394964
-0.000566782
0.000497467
-0.000490439
0.00049608
-0.000370304
0.000425888
-0.000207649
0.000296284
-0.000106383
0.000133289
-4.44547e-05
1.61989e-05
-1.49535e-05
-6.91059e-05
-1.86692e-05
-8.58751e-05
-3.9147e-05
-8.56677e-05
-8.07592e-05
-9.96365e-05
-0.000130132
-0.00011252
-0.00014404
-9.43398e-05
-0.000130083
-7.94956e-05
-0.000108082
-7.14609e-05
-8.39031e-05
-7.52132e-05
-5.73118e-05
-9.82292e-05
-2.51449e-05
-0.000145137
1.12098e-05
-0.000196259
-0.000125399
2.60018e-05
-0.000104962
4.01621e-05
-0.000155165
2.70166e-05
-0.000177734
1.63486e-05
-0.000177862
8.72731e-06
-0.000163599
2.43151e-06
-0.000139998
-5.31702e-06
-0.000112245
-1.5019e-05
-8.44366e-05
-2.55925e-05
-6.13309e-05
-3.33818e-05
-4.68433e-05
-3.40465e-05
-4.11776e-05
-2.47942e-05
-3.94388e-05
-4.25481e-06
-2.93271e-05
2.36052e-05
-8.97164e-06
5.04017e-05
1.31004e-05
6.91563e-05
3.27702e-05
7.27257e-05
4.70332e-05
6.4905e-05
5.16075e-05
5.29022e-05
4.34391e-05
4.08733e-05
1.98547e-05
3.18e-05
-8.79185e-06
2.66174e-05
-3.01142e-05
2.82563e-05
-4.61213e-05
2.66579e-05
-6.50973e-05
2.96116e-05
-9.5392e-05
3.44898e-05
-0.000120135
3.68464e-05
-0.000150495
5.11117e-05
-0.000162452
7.97757e-05
-0.000159462
9.65922e-05
-0.00013464
0.0001018
-9.51745e-05
8.36423e-05
-6.57738e-05
5.34161e-05
-5.08761e-05
4.26348e-05
-3.16534e-05
5.01158e-05
-9.73285e-06
6.37103e-05
1.17908e-05
6.82324e-05
3.3188e-05
6.0491e-05
6.10116e-05
4.73e-05
0.000118904
3.46282e-05
0.000187448
4.11454e-06
0.000231547
-6.18811e-05
0.000181083
-0.000197042
2.93258e-05
-0.000592562
-2.38539e-05
-0.000850027
-5.65935e-05
-0.000427221
-4.80424e-05
-0.000160642
-4.64671e-05
-4.74638e-05
-4.3047e-05
-1.40186e-05
-3.82495e-05
6.11268e-06
-3.48402e-05
1.3643e-05
-3.18761e-05
1.27045e-05
-2.88813e-05
6.85646e-06
-2.63019e-05
-4.52417e-06
-2.66969e-05
-1.99795e-05
-3.22404e-05
-3.92196e-05
-5.64429e-05
-6.90983e-05
-9.66086e-05
-0.000144323
-6.50882e-05
-0.000211184
-1.70114e-05
-0.000213929
6.05337e-06
-0.000144944
5.26247e-06
-7.10047e-05
-2.57845e-06
-4.20042e-05
-9.30103e-06
-2.30937e-05
-1.41544e-05
-8.55548e-06
-1.63546e-05
1.0181e-06
-1.54484e-05
4.99138e-06
-1.18568e-05
4.05967e-06
-7.3461e-06
-2.26377e-07
-4.20866e-06
-5.93105e-06
-1.71092e-06
-1.37285e-05
4.25317e-07
-2.16532e-05
2.28155e-06
-2.7322e-05
3.76985e-06
-3.04159e-05
5.77316e-06
-3.03567e-05
1.17864e-05
-3.38396e-05
3.27278e-05
-6.67251e-05
6.86053e-05
-0.000117851
0.000116639
-0.000174884
0.000172344
-0.000230156
0.000232594
-0.000279614
0.000292735
-0.000321983
0.000350227
-0.000353116
0.000407144
-0.000374547
0.000452699
-0.000387163
0.000475641
-0.0004037
0.000443994
-0.0004388
0.000300613
-0.000540645
4.57499e-05
-0.000598848
-0.000108805
-0.000237767
-0.000208889
-0.00012682
-0.000315619
-4.58363e-05
-0.000441955
6.66403e-05
-0.000570708
0.000217738
-0.000587423
0.000355344
-0.000515329
0.000430215
-0.000400029
0.000404396
-0.000264487
0.000317823
-0.000142551
0.000210666
-7.03833e-05
9.47795e-05
-2.74459e-05
2.17461e-06
-2.30192e-05
-3.74115e-05
-4.09931e-05
-4.57018e-05
-7.36293e-05
-5.66378e-05
-0.000137736
-7.67412e-05
-0.000175167
-7.18635e-05
-0.000168743
-5.47383e-05
-0.00014556
-4.14423e-05
-0.000116905
-3.61905e-05
-8.67198e-05
-4.2516e-05
-5.7427e-05
-6.60805e-05
-2.65066e-05
-0.000109511
7.16269e-06
-0.000157722
-8.34952e-05
1.91507e-05
-0.000103422
2.89232e-05
-0.00014991
1.49354e-05
-0.000168383
5.78328e-06
-0.000165917
-1.0479e-06
-0.000150608
-8.57097e-06
-0.0001287
-1.75865e-05
-0.000104929
-2.73615e-05
-8.24145e-05
-3.5908e-05
-6.50482e-05
-3.9341e-05
-5.5405e-05
-3.43748e-05
-5.20845e-05
-1.94095e-05
-5.24541e-05
6.69738e-06
-4.12261e-05
3.2835e-05
-2.29176e-05
5.92713e-05
-2.62384e-06
7.61609e-05
1.61723e-05
7.72982e-05
3.0442e-05
6.7147e-05
3.71887e-05
5.22967e-05
3.31872e-05
3.88251e-05
1.81514e-05
2.99278e-05
-1.88391e-06
2.638e-05
-2.1546e-05
2.90399e-05
-3.46811e-05
3.18085e-05
-5.25997e-05
3.62312e-05
-9.35232e-05
4.30042e-05
-0.000119455
6.2434e-05
-0.000129949
8.38413e-05
-0.000139044
9.53473e-05
-0.000139021
0.000107153
-0.000121287
0.000110825
-8.9653e-05
9.49451e-05
-5.91578e-05
6.28277e-05
-4.29909e-05
4.09908e-05
-2.59083e-05
4.08634e-05
-5.31936e-06
4.98423e-05
1.58642e-05
5.43826e-05
3.50385e-05
4.82361e-05
5.3959e-05
3.53805e-05
8.81272e-05
1.84422e-05
0.000140129
-5.56284e-06
0.000195359
-5.16245e-05
0.000201267
-0.000175334
0.000196567
-0.00056097
9.31949e-05
-0.000747828
2.17868e-05
-0.000487931
-2.00957e-05
-0.000226446