/*--------------------------------*- C++ -*----------------------------------*\
  =========                 |
  \\      /  F ield         | OpenFOAM: The Open Source CFD Toolbox
   \\    /   O peration     | Website:  https://openfoam.org
    \\  /    A nd           | Version:  10
     \\/     M anipulation  |
\*---------------------------------------------------------------------------*/
FoamFile
{
    format      ascii;
    class       volVectorField;
    location    "0.149409";
    object      U;
}
// * * * * * * * * * * * * * * * * * * * * * * * * * * * * * * * * * * * * * //

dimensions      [0 1 -1 0 0 0 0];

internalField   nonuniform List<vector> 
16320
(
(0.553117 0.318971 0)
(0.39785 0.267146 0)
(0.208077 0.270634 0)
(0.0723471 0.35906 0)
(-0.0572508 0.514489 0)
(-0.171237 0.6153 0)
(-0.368421 0.606922 0)
(-0.520891 0.555942 0)
(-0.57395 0.513229 0)
(-0.584363 0.498725 0)
(-0.574636 0.499416 0)
(-0.548939 0.508814 0)
(-0.514243 0.523065 0)
(-0.470884 0.532801 0)
(-0.414096 0.52406 0)
(-0.320849 0.46051 0)
(-0.144563 0.285465 0)
(-0.0625451 0.195821 0)
(-0.0325996 0.175406 0)
(-0.0236157 0.167611 0)
(-0.0430123 0.139675 0)
(-0.0528838 0.13441 0)
(-0.0820975 0.196573 0)
(-0.19558 0.202533 0)
(-0.293889 0.165522 0)
(-0.316773 0.135843 0)
(-0.283584 0.175025 0)
(-0.233029 0.263647 0)
(-0.158513 0.380555 0)
(-0.0820607 0.501928 0)
(-0.0569373 0.543712 0)
(-0.0373807 0.541087 0)
(-0.0213206 0.52682 0)
(-0.0128343 0.502526 0)
(-0.0109065 0.47159 0)
(-0.0122845 0.43202 0)
(-0.0163696 0.379209 0)
(0.0012937 0.285336 0)
(0.0445682 0.202229 0)
(-0.0215764 0.244124 0)
(-0.0931516 0.19507 0)
(-0.142501 0.0975718 0)
(-0.163591 0.0161397 0)
(-0.125685 0.0111505 0)
(-0.0208189 0.1826 0)
(0.0868577 0.41894 0)
(0.120819 0.537525 0)
(0.123057 0.610268 0)
(0.102329 0.625863 0)
(0.0733396 0.585099 0)
(0.0461306 0.534198 0)
(0.0191279 0.493598 0)
(0.000212414 0.457101 0)
(-0.0140099 0.398996 0)
(-0.0390673 0.292277 0)
(-0.0365613 0.08159 0)
(-0.012881 -0.219327 0)
(-0.0377057 -0.337772 0)
(-0.0688065 -0.376029 0)
(-0.0466222 -0.415357 0)
(-0.0181658 -0.460668 0)
(-0.0195084 -0.49194 0)
(-0.0515052 -0.508284 0)
(-0.072403 -0.501766 0)
(-0.121061 -0.442545 0)
(-0.171393 -0.370305 0)
(-0.191572 -0.307436 0)
(-0.190275 -0.268318 0)
(-0.162424 -0.255614 0)
(-0.117737 -0.284496 0)
(-0.0584354 -0.367019 0)
(0.0212489 -0.517611 0)
(0.0677455 -0.627348 0)
(0.14179 -0.680875 0)
(0.155265 -0.67522 0)
(0.163352 -0.623811 0)
(0.208934 -0.573675 0)
(0.260443 -0.53751 0)
(0.309102 -0.512585 0)
(0.355463 -0.496338 0)
(0.399599 -0.484714 0)
(0.440032 -0.474818 0)
(0.471099 -0.464481 0)
(0.479811 -0.449844 0)
(0.442404 -0.422363 0)
(0.330903 -0.36624 0)
(0.152262 -0.281603 0)
(-0.0997931 -0.115969 0)
(-0.14452 0.077205 0)
(-0.179401 0.308679 0)
(-0.200291 0.517495 0)
(-0.259154 0.647624 0)
(-0.348696 0.687183 0)
(-0.464239 0.692604 0)
(-0.581618 0.694125 0)
(-0.631328 0.702449 0)
(-0.613064 0.717456 0)
(-0.587835 0.744699 0)
(-0.573988 0.747477 0)
(-0.537132 0.667371 0)
(-0.457203 0.50965 0)
(-0.355353 0.301268 0)
(-0.225335 0.0792897 0)
(-0.0751542 -0.163351 0)
(-0.0427875 -0.223675 0)
(-0.063844 -0.257934 0)
(-0.1317 -0.295345 0)
(-0.182899 -0.318763 0)
(-0.20693 -0.337847 0)
(-0.201969 -0.350998 0)
(-0.175303 -0.350063 0)
(-0.125408 -0.329599 0)
(-0.0684151 -0.288964 0)
(0.601421 0.413648 0)
(0.458494 0.328541 0)
(0.280829 0.314154 0)
(0.121498 0.347347 0)
(-0.0334081 0.468063 0)
(-0.174522 0.540591 0)
(-0.367507 0.522283 0)
(-0.519132 0.481098 0)
(-0.550247 0.452601 0)
(-0.534308 0.434942 0)
(-0.497604 0.428468 0)
(-0.436139 0.437337 0)
(-0.358052 0.459433 0)
(-0.272973 0.487107 0)
(-0.190737 0.475056 0)
(0.0143189 0.300847 0)
(0.139056 0.185348 0)
(0.139276 0.170383 0)
(0.0922682 0.187183 0)
(0.0281412 0.208613 0)
(-0.0358405 0.200464 0)
(-0.0715937 0.187369 0)
(-0.105006 0.2445 0)
(-0.223555 0.234058 0)
(-0.348602 0.177257 0)
(-0.392513 0.13975 0)
(-0.374109 0.170782 0)
(-0.339057 0.246323 0)
(-0.269636 0.358288 0)
(-0.178573 0.490026 0)
(-0.118592 0.553763 0)
(-0.0801807 0.556121 0)
(-0.0525412 0.544696 0)
(-0.0434864 0.522257 0)
(-0.0412995 0.493661 0)
(-0.0404178 0.45327 0)
(-0.0560751 0.398478 0)
(-0.0611272 0.308337 0)
(0.0316038 0.256218 0)
(-0.0391573 0.244004 0)
(-0.165537 0.129109 0)
(-0.260459 -0.0188413 0)
(-0.283759 -0.104556 0)
(-0.256566 -0.123554 0)
(-0.198369 -0.0263622 0)
(-0.114601 0.290298 0)
(-0.0393856 0.516437 0)
(-0.0342506 0.61208 0)
(-0.0281186 0.626281 0)
(-0.0221998 0.579054 0)
(-0.0246799 0.520299 0)
(-0.0296381 0.475532 0)
(-0.0377067 0.429034 0)
(-0.0469157 0.356591 0)
(-0.0672548 0.229117 0)
(-0.0377406 -0.0102104 0)
(-0.0196692 -0.257552 0)
(-0.0529033 -0.319713 0)
(-0.0695371 -0.355501 0)
(-0.0384429 -0.400044 0)
(-0.0169929 -0.442026 0)
(-0.0322806 -0.465294 0)
(-0.0508698 -0.476759 0)
(-0.0561816 -0.453967 0)
(-0.10209 -0.381408 0)
(-0.156468 -0.306076 0)
(-0.179424 -0.250302 0)
(-0.179542 -0.22755 0)
(-0.154621 -0.23507 0)
(-0.120249 -0.281022 0)
(-0.0631598 -0.367471 0)
(0.010495 -0.52059 0)
(0.0579673 -0.628239 0)
(0.125422 -0.664561 0)
(0.132828 -0.643962 0)
(0.148734 -0.584741 0)
(0.20119 -0.543097 0)
(0.254434 -0.51366 0)
(0.304403 -0.4937 0)
(0.352593 -0.48083 0)
(0.3994 -0.471639 0)
(0.442956 -0.464228 0)
(0.478432 -0.456998 0)
(0.49577 -0.447316 0)
(0.477505 -0.429248 0)
(0.394678 -0.389044 0)
(0.243648 -0.309261 0)
(0.0182236 -0.179139 0)
(-0.080414 0.00450414 0)
(-0.103317 0.233623 0)
(-0.117031 0.467148 0)
(-0.174454 0.64968 0)
(-0.272102 0.723274 0)
(-0.388057 0.74268 0)
(-0.516595 0.746287 0)
(-0.588681 0.749274 0)
(-0.584722 0.750242 0)
(-0.561459 0.750237 0)
(-0.547693 0.719301 0)
(-0.507569 0.617519 0)
(-0.427581 0.447685 0)
(-0.320361 0.22358 0)
(-0.156761 -0.0570735 0)
(-0.0579115 -0.244219 0)
(-0.0435932 -0.303822 0)
(-0.0850954 -0.346301 0)
(-0.140446 -0.367182 0)
(-0.170881 -0.374278 0)
(-0.178522 -0.383113 0)
(-0.164159 -0.394997 0)
(-0.134963 -0.399175 0)
(-0.0869142 -0.389503 0)
(-0.0349279 -0.353759 0)
(0.5638 0.44949 0)
(0.43195 0.335877 0)
(0.277234 0.300207 0)
(0.136811 0.307095 0)
(-0.0416853 0.379014 0)
(-0.219067 0.403716 0)
(-0.401895 0.380053 0)
(-0.516484 0.369205 0)
(-0.511776 0.371902 0)
(-0.460013 0.356143 0)
(-0.384901 0.341754 0)
(-0.281279 0.337537 0)
(-0.148289 0.34805 0)
(-0.00611583 0.354128 0)
(0.139124 0.274589 0)
(0.318274 0.146862 0)
(0.379502 0.0932378 0)
(0.336748 0.0996971 0)
(0.234165 0.135381 0)
(0.102095 0.18444 0)
(-0.0306418 0.211096 0)
(-0.104198 0.212693 0)
(-0.143429 0.270855 0)
(-0.258954 0.253902 0)
(-0.397776 0.186325 0)
(-0.458128 0.144518 0)
(-0.452871 0.164913 0)
(-0.431792 0.226112 0)
(-0.378734 0.32257 0)
(-0.295593 0.448827 0)
(-0.208483 0.531803 0)
(-0.14082 0.550579 0)
(-0.0931829 0.553479 0)
(-0.0741271 0.540348 0)
(-0.0655658 0.518653 0)
(-0.056233 0.481602 0)
(-0.0721595 0.427441 0)
(-0.0484905 0.33776 0)
(0.0647199 0.281712 0)
(-0.0019929 0.171709 0)
(-0.176723 0.0100213 0)
(-0.271215 -0.0994471 0)
(-0.303306 -0.14315 0)
(-0.299605 -0.152338 0)
(-0.281479 -0.099133 0)
(-0.27513 0.166611 0)
(-0.195424 0.432769 0)
(-0.15842 0.560754 0)
(-0.126084 0.58667 0)
(-0.100724 0.546694 0)
(-0.0837234 0.492226 0)
(-0.0742093 0.447492 0)
(-0.0763839 0.391527 0)
(-0.0781155 0.305283 0)
(-0.0899927 0.156272 0)
(-0.0226789 -0.104003 0)
(-0.0483277 -0.279956 0)
(-0.0690299 -0.30641 0)
(-0.069467 -0.341727 0)
(-0.0323259 -0.384071 0)
(-0.0108651 -0.419815 0)
(-0.0181546 -0.436621 0)
(-0.0304461 -0.438756 0)
(-0.035779 -0.400162 0)
(-0.0893717 -0.323554 0)
(-0.144364 -0.250636 0)
(-0.165821 -0.20411 0)
(-0.166313 -0.190918 0)
(-0.149618 -0.212982 0)
(-0.11866 -0.271926 0)
(-0.0612853 -0.368293 0)
(0.00199345 -0.517997 0)
(0.0510069 -0.623343 0)
(0.111785 -0.643837 0)
(0.122547 -0.609361 0)
(0.147123 -0.545706 0)
(0.200397 -0.514805 0)
(0.252525 -0.492728 0)
(0.301712 -0.477421 0)
(0.35042 -0.467783 0)
(0.398934 -0.461194 0)
(0.444652 -0.456446 0)
(0.48318 -0.452618 0)
(0.506101 -0.447686 0)
(0.500723 -0.437077 0)
(0.446914 -0.412072 0)
(0.324586 -0.351945 0)
(0.143423 -0.251835 0)
(-0.0125634 -0.0552834 0)
(-0.020808 0.191396 0)
(-0.055834 0.445386 0)
(-0.0977274 0.655077 0)
(-0.192618 0.7595 0)
(-0.312185 0.791563 0)
(-0.447691 0.793183 0)
(-0.54454 0.784944 0)
(-0.562177 0.769708 0)
(-0.542285 0.744994 0)
(-0.525517 0.685244 0)
(-0.482024 0.564574 0)
(-0.401564 0.378611 0)
(-0.284973 0.137361 0)
(-0.140845 -0.184989 0)
(-0.0642734 -0.318522 0)
(-0.0576 -0.376429 0)
(-0.0970215 -0.397132 0)
(-0.13558 -0.394992 0)
(-0.153439 -0.387792 0)
(-0.153994 -0.39085 0)
(-0.134355 -0.402743 0)
(-0.103829 -0.416828 0)
(-0.0548597 -0.421695 0)
(-0.0068731 -0.391385 0)
(0.450644 0.404747 0)
(0.320431 0.270147 0)
(0.186182 0.218944 0)
(0.0552027 0.225449 0)
(-0.135782 0.255766 0)
(-0.29598 0.270052 0)
(-0.420947 0.2685 0)
(-0.477435 0.284455 0)
(-0.448951 0.30405 0)
(-0.374579 0.29923 0)
(-0.272075 0.286591 0)
(-0.133249 0.278642 0)
(0.0510784 0.288231 0)
(0.217529 0.252131 0)
(0.376295 0.178321 0)
(0.492819 0.0970216 0)
(0.517205 0.0387044 0)
(0.462001 0.0259108 0)
(0.351158 0.0516801 0)
(0.187011 0.104111 0)
(-0.00300827 0.159696 0)
(-0.124364 0.200051 0)
(-0.175795 0.26606 0)
(-0.279752 0.255703 0)
(-0.422184 0.193879 0)
(-0.496038 0.155395 0)
(-0.502875 0.169641 0)
(-0.493443 0.215741 0)
(-0.457717 0.287694 0)
(-0.391432 0.393101 0)
(-0.296875 0.481637 0)
(-0.203991 0.51887 0)
(-0.133965 0.544962 0)
(-0.0996643 0.549075 0)
(-0.0783288 0.535549 0)
(-0.0526828 0.503417 0)
(-0.0522877 0.446145 0)
(-0.000729471 0.353543 0)
(0.097509 0.274002 0)
(0.0875517 0.0839037 0)
(-0.103571 -0.117123 0)
(-0.23396 -0.166512 0)
(-0.283285 -0.176557 0)
(-0.294417 -0.161623 0)
(-0.279187 -0.111384 0)
(-0.284975 0.0523684 0)
(-0.285251 0.351103 0)
(-0.228743 0.498462 0)
(-0.187072 0.532208 0)
(-0.15262 0.502528 0)
(-0.126874 0.455297 0)
(-0.112478 0.408274 0)
(-0.10846 0.347514 0)
(-0.101792 0.250752 0)
(-0.0907474 0.0930707 0)
(-0.0213091 -0.163127 0)
(-0.0846855 -0.287859 0)
(-0.0825339 -0.303529 0)
(-0.0652946 -0.336025 0)
(-0.0196256 -0.370793 0)
(0.00587977 -0.399004 0)
(0.000165017 -0.412095 0)
(-0.0126433 -0.404336 0)
(-0.0237152 -0.346647 0)
(-0.0847056 -0.264387 0)
(-0.138514 -0.196409 0)
(-0.157603 -0.159179 0)
(-0.158384 -0.158414 0)
(-0.146209 -0.192974 0)
(-0.115369 -0.259971 0)
(-0.0584314 -0.371652 0)
(-0.00146612 -0.512279 0)
(0.0467795 -0.61411 0)
(0.099556 -0.621437 0)
(0.116056 -0.577572 0)
(0.146793 -0.51652 0)
(0.2006 -0.493961 0)
(0.252636 -0.478003 0)
(0.301524 -0.466012 0)
(0.350122 -0.457969 0)
(0.39897 -0.453287 0)
(0.445088 -0.450837 0)
(0.484788 -0.450346 0)
(0.511765 -0.450042 0)
(0.515218 -0.445585 0)
(0.48004 -0.431088 0)
(0.391159 -0.395201 0)
(0.248116 -0.317575 0)
(0.0873964 -0.140521 0)
(0.0309765 0.150965 0)
(-0.0308931 0.458705 0)
(-0.0636328 0.682244 0)
(-0.127499 0.799505 0)
(-0.243588 0.839168 0)
(-0.387903 0.831732 0)
(-0.506392 0.807226 0)
(-0.542372 0.77773 0)
(-0.524329 0.733671 0)
(-0.506718 0.648984 0)
(-0.459313 0.507496 0)
(-0.368433 0.303441 0)
(-0.234731 0.0120419 0)
(-0.107003 -0.289022 0)
(-0.0503722 -0.383569 0)
(-0.0631187 -0.416167 0)
(-0.100362 -0.413611 0)
(-0.12821 -0.396391 0)
(-0.138324 -0.380233 0)
(-0.134588 -0.377289 0)
(-0.113529 -0.387762 0)
(-0.0839722 -0.410523 0)
(-0.0315189 -0.431049 0)
(0.0135563 -0.403896 0)
(0.283107 0.299472 0)
(0.156618 0.183379 0)
(0.00834036 0.132829 0)
(-0.16371 0.135629 0)
(-0.308826 0.164252 0)
(-0.384069 0.208142 0)
(-0.419787 0.237388 0)
(-0.423845 0.257015 0)
(-0.376876 0.264768 0)
(-0.286698 0.25493 0)
(-0.154541 0.237305 0)
(0.0594289 0.185246 0)
(0.246679 0.208505 0)
(0.400546 0.18455 0)
(0.527867 0.127175 0)
(0.587134 0.0624692 0)
(0.563758 0.0278919 0)
(0.494345 0.0236285 0)
(0.388514 0.0268634 0)
(0.23248 0.0444437 0)
(0.0349252 0.089021 0)
(-0.120578 0.160859 0)
(-0.191744 0.231494 0)
(-0.281904 0.228891 0)
(-0.419413 0.184129 0)
(-0.503187 0.155337 0)
(-0.518286 0.166672 0)
(-0.51758 0.205087 0)
(-0.496476 0.255902 0)
(-0.448083 0.335477 0)
(-0.365891 0.417991 0)
(-0.264026 0.465608 0)
(-0.173319 0.514977 0)
(-0.118976 0.541359 0)
(-0.0814508 0.536827 0)
(-0.0400072 0.507894 0)
(-0.0107997 0.444216 0)
(0.063652 0.347109 0)
(0.115777 0.225447 0)
(0.147688 0.0110041 0)
(-0.0124403 -0.168736 0)
(-0.197563 -0.236434 0)
(-0.270914 -0.231389 0)
(-0.303231 -0.185869 0)
(-0.291679 -0.0997804 0)
(-0.249029 0.0137371 0)
(-0.247587 0.248438 0)
(-0.252246 0.43613 0)
(-0.215463 0.474816 0)
(-0.18258 0.453823 0)
(-0.156507 0.412376 0)
(-0.138853 0.367593 0)
(-0.128266 0.306062 0)
(-0.113872 0.205098 0)
(-0.0641539 0.0142582 0)
(-0.0580681 -0.212645 0)
(-0.114752 -0.293681 0)
(-0.0925609 -0.309327 0)
(-0.0608521 -0.336923 0)
(-0.0096651 -0.364176 0)
(0.0161486 -0.384919 0)
(0.00945765 -0.393163 0)
(-0.00278789 -0.374615 0)
(-0.0253102 -0.297919 0)
(-0.0901208 -0.208312 0)
(-0.137717 -0.14418 0)
(-0.154978 -0.115937 0)
(-0.155914 -0.125435 0)
(-0.144104 -0.171095 0)
(-0.110162 -0.246159 0)
(-0.0550555 -0.370826 0)
(-0.00335309 -0.50411 0)
(0.0445388 -0.601512 0)
(0.0880074 -0.598811 0)
(0.111261 -0.549543 0)
(0.148057 -0.494402 0)
(0.201488 -0.476509 0)
(0.253623 -0.464738 0)
(0.302847 -0.456115 0)
(0.350816 -0.449708 0)
(0.398839 -0.446703 0)
(0.444227 -0.44683 0)
(0.483744 -0.449223 0)
(0.51297 -0.452291 0)
(0.523015 -0.452424 0)
(0.49883 -0.445199 0)
(0.431554 -0.425349 0)
(0.322638 -0.372195 0)
(0.182169 -0.219811 0)
(0.0694254 0.148156 0)
(-0.04216 0.510973 0)
(-0.0697651 0.726967 0)
(-0.100583 0.841699 0)
(-0.203486 0.875819 0)
(-0.348626 0.857718 0)
(-0.473968 0.81695 0)
(-0.526251 0.771946 0)
(-0.510553 0.707788 0)
(-0.48916 0.600182 0)
(-0.432094 0.440123 0)
(-0.332781 0.208784 0)
(-0.180227 -0.160825 0)
(-0.0699546 -0.364227 0)
(-0.0370143 -0.425167 0)
(-0.0671697 -0.422746 0)
(-0.103485 -0.401447 0)
(-0.123026 -0.376002 0)
(-0.128663 -0.355489 0)
(-0.121362 -0.348731 0)
(-0.100034 -0.358154 0)
(-0.0730486 -0.389273 0)
(-0.0161284 -0.424172 0)
(0.0271802 -0.398231 0)
(0.115306 0.202183 0)
(-0.051801 0.120626 0)
(-0.226756 0.0977582 0)
(-0.394018 0.10472 0)
(-0.486802 0.149537 0)
(-0.492342 0.209305 0)
(-0.45804 0.248347 0)
(-0.409579 0.261728 0)
(-0.335779 0.252597 0)
(-0.219795 0.188968 0)
(-0.0595619 0.0645114 0)
(0.125783 -0.0355264 0)
(0.267712 0.02484 0)
(0.391914 0.0804991 0)
(0.439774 0.0940563 0)
(0.42012 0.0949994 0)
(0.392768 0.0959218 0)
(0.361495 0.074835 0)
(0.30488 0.041679 0)
(0.206409 0.0239445 0)
(0.053776 0.0405573 0)
(-0.104327 0.113357 0)
(-0.195865 0.177335 0)
(-0.27792 0.1774 0)
(-0.396485 0.152231 0)
(-0.483927 0.146781 0)
(-0.499416 0.16558 0)
(-0.499712 0.204404 0)
(-0.493085 0.237488 0)
(-0.459968 0.280176 0)
(-0.40115 0.342628 0)
(-0.313675 0.392923 0)
(-0.21311 0.461027 0)
(-0.137451 0.511803 0)
(-0.0839929 0.517908 0)
(-0.0295147 0.489505 0)
(0.0273703 0.417817 0)
(0.0888363 0.307965 0)
(0.107574 0.14349 0)
(0.123335 -0.00121512 0)
(0.00662042 -0.16982 0)
(-0.164436 -0.302808 0)
(-0.253475 -0.320633 0)
(-0.322574 -0.250978 0)
(-0.33323 -0.112364 0)
(-0.292839 0.0182257 0)
(-0.257779 0.168166 0)
(-0.246533 0.375421 0)
(-0.227076 0.416969 0)
(-0.196037 0.399066 0)
(-0.169082 0.361071 0)
(-0.152341 0.316187 0)
(-0.139818 0.25467 0)
(-0.115782 0.140788 0)
(-0.0690462 -0.0786507 0)
(-0.112305 -0.235552 0)
(-0.133038 -0.291896 0)
(-0.10016 -0.315617 0)
(-0.0601468 -0.339264 0)
(-0.00711152 -0.357534 0)
(0.0216735 -0.373491 0)
(0.0213771 -0.37752 0)
(0.00871056 -0.341783 0)
(-0.0370324 -0.247313 0)
(-0.102255 -0.155189 0)
(-0.142608 -0.0963913 0)
(-0.156455 -0.0767738 0)
(-0.15685 -0.0955105 0)
(-0.140612 -0.149391 0)
(-0.102718 -0.235759 0)
(-0.0501277 -0.367874 0)
(-0.00413617 -0.494823 0)
(0.0438813 -0.585982 0)
(0.0779226 -0.576762 0)
(0.106427 -0.524989 0)
(0.150499 -0.478774 0)
(0.204359 -0.466777 0)
(0.254895 -0.457767 0)
(0.303526 -0.451018 0)
(0.350787 -0.445967 0)
(0.39692 -0.443753 0)
(0.440826 -0.445457 0)
(0.480317 -0.449817 0)
(0.511465 -0.454393 0)
(0.525766 -0.456367 0)
(0.507764 -0.453847 0)
(0.453388 -0.442291 0)
(0.365322 -0.406424 0)
(0.236883 -0.271686 0)
(0.102434 0.123722 0)
(-0.0568018 0.538028 0)
(-0.0964928 0.753764 0)
(-0.11295 0.862307 0)
(-0.198379 0.890249 0)
(-0.336837 0.860377 0)
(-0.462156 0.796677 0)
(-0.520489 0.734895 0)
(-0.499681 0.659807 0)
(-0.464732 0.537368 0)
(-0.39189 0.359713 0)
(-0.274478 0.0844088 0)
(-0.12299 -0.269248 0)
(-0.0499416 -0.409384 0)
(-0.036689 -0.432432 0)
(-0.077348 -0.396648 0)
(-0.113426 -0.360155 0)
(-0.124314 -0.330779 0)
(-0.125681 -0.309765 0)
(-0.115172 -0.303656 0)
(-0.0938632 -0.317015 0)
(-0.0684354 -0.35854 0)
(-0.00789521 -0.405978 0)
(0.0361709 -0.379424 0)
(-0.0546893 0.144118 0)
(-0.226595 0.124204 0)
(-0.419442 0.115205 0)
(-0.572305 0.117877 0)
(-0.627884 0.154275 0)
(-0.594247 0.205714 0)
(-0.518587 0.23676 0)
(-0.427432 0.232911 0)
(-0.316674 0.18063 0)
(-0.178957 0.0620717 0)
(-0.0310563 -0.0419907 0)
(0.0605272 -0.0767339 0)
(0.121803 0.00169332 0)
(0.190097 0.0833573 0)
(0.233787 0.127997 0)
(0.259422 0.137594 0)
(0.276402 0.116045 0)
(0.279608 0.0799272 0)
(0.254499 0.0467481 0)
(0.185598 0.0261011 0)
(0.0624846 0.0272809 0)
(-0.0896129 0.0796423 0)
(-0.192218 0.127436 0)
(-0.277995 0.127135 0)
(-0.371388 0.109413 0)
(-0.450536 0.122097 0)
(-0.462689 0.15826 0)
(-0.455786 0.194041 0)
(-0.457025 0.22398 0)
(-0.433133 0.243918 0)
(-0.399814 0.27071 0)
(-0.343958 0.314145 0)
(-0.250269 0.388329 0)
(-0.157902 0.45951 0)
(-0.0900428 0.480638 0)
(-0.0243861 0.454344 0)
(0.0437754 0.378212 0)
(0.0863444 0.259385 0)
(0.0944116 0.11479 0)
(0.0983073 0.0187453 0)
(0.0415198 -0.139553 0)
(-0.124156 -0.325019 0)
(-0.218167 -0.405425 0)
(-0.29795 -0.380287 0)
(-0.394994 -0.221312 0)
(-0.41463 -0.0362725 0)
(-0.322663 0.145049 0)
(-0.274392 0.296567 0)
(-0.247078 0.347312 0)
(-0.208347 0.332087 0)
(-0.179973 0.294516 0)
(-0.159484 0.246822 0)
(-0.143755 0.180211 0)
(-0.111813 0.0509844 0)
(-0.0989635 -0.120392 0)
(-0.142917 -0.242399 0)
(-0.143125 -0.292737 0)
(-0.107858 -0.322569 0)
(-0.0625117 -0.340457 0)
(-0.008281 -0.351189 0)
(0.0252566 -0.367452 0)
(0.0378301 -0.365671 0)
(0.00866931 -0.304236 0)
(-0.0604469 -0.194317 0)
(-0.11583 -0.10577 0)
(-0.149318 -0.054963 0)
(-0.159379 -0.0436507 0)
(-0.157733 -0.0695492 0)
(-0.133873 -0.128361 0)
(-0.0941928 -0.229648 0)
(-0.0417124 -0.362944 0)
(-0.00308151 -0.484559 0)
(0.0445136 -0.567813 0)
(0.0714991 -0.555926 0)
(0.104517 -0.50876 0)
(0.149126 -0.480349 0)
(0.202191 -0.467373 0)
(0.253578 -0.457925 0)
(0.302266 -0.450317 0)
(0.34907 -0.445608 0)
(0.393702 -0.444231 0)
(0.435886 -0.446589 0)
(0.47559 -0.451617 0)
(0.508968 -0.455996 0)
(0.525779 -0.458024 0)
(0.510939 -0.457333 0)
(0.461852 -0.449574 0)
(0.385887 -0.4278 0)
(0.262082 -0.312981 0)
(0.0965828 0.0804744 0)
(-0.0748248 0.499383 0)
(-0.131409 0.734513 0)
(-0.148945 0.842305 0)
(-0.231365 0.862926 0)
(-0.372626 0.807879 0)
(-0.482553 0.728272 0)
(-0.517806 0.667035 0)
(-0.480743 0.593298 0)
(-0.43106 0.464205 0)
(-0.335691 0.258799 0)
(-0.185505 -0.0573384 0)
(-0.0617194 -0.328901 0)
(-0.0319708 -0.415588 0)
(-0.0433576 -0.401895 0)
(-0.0973661 -0.344119 0)
(-0.130327 -0.29478 0)
(-0.133161 -0.264839 0)
(-0.131708 -0.247747 0)
(-0.118978 -0.247672 0)
(-0.0957262 -0.270664 0)
(-0.0676367 -0.32279 0)
(-0.00561973 -0.381299 0)
(0.0402853 -0.351069 0)
(-0.151075 0.142221 0)
(-0.332831 0.139031 0)
(-0.530025 0.122075 0)
(-0.663615 0.111536 0)
(-0.691816 0.128156 0)
(-0.640723 0.153026 0)
(-0.544337 0.157909 0)
(-0.425948 0.125831 0)
(-0.292535 0.0518871 0)
(-0.158724 -0.0322253 0)
(-0.0588825 -0.0854514 0)
(-0.0102532 -0.0686534 0)
(0.0204097 0.0186882 0)
(0.0606729 0.101947 0)
(0.117258 0.145197 0)
(0.165871 0.150367 0)
(0.203132 0.129577 0)
(0.223014 0.0993431 0)
(0.211643 0.070976 0)
(0.15883 0.0511307 0)
(0.0543826 0.0452501 0)
(-0.0857902 0.0754202 0)
(-0.186634 0.102625 0)
(-0.278362 0.0996803 0)
(-0.360028 0.0817623 0)
(-0.417995 0.0913164 0)
(-0.436026 0.14724 0)
(-0.418881 0.177836 0)
(-0.413427 0.212366 0)
(-0.399465 0.225257 0)
(-0.380492 0.2238 0)
(-0.351533 0.249387 0)
(-0.277601 0.308495 0)
(-0.175746 0.387642 0)
(-0.0944107 0.427912 0)
(-0.0189954 0.409604 0)
(0.0558275 0.340148 0)
(0.100761 0.241372 0)
(0.124907 0.129078 0)
(0.134294 0.0455113 0)
(0.118935 -0.0714946 0)
(-0.0354952 -0.275745 0)
(-0.160766 -0.426467 0)
(-0.214375 -0.456502 0)
(-0.299687 -0.373766 0)
(-0.40913 -0.186884 0)
(-0.395975 0.0235748 0)
(-0.314233 0.185566 0)
(-0.259788 0.259353 0)
(-0.216409 0.256942 0)
(-0.183405 0.22596 0)
(-0.159624 0.181439 0)
(-0.139672 0.110829 0)
(-0.115799 -0.0108853 0)
(-0.11998 -0.144242 0)
(-0.153911 -0.248964 0)
(-0.149738 -0.29988 0)
(-0.11594 -0.328008 0)
(-0.0672312 -0.33921 0)
(-0.0131355 -0.347565 0)
(0.0276879 -0.364153 0)
(0.0463082 -0.348823 0)
(-0.0133058 -0.261371 0)
(-0.0768446 -0.146553 0)
(-0.12438 -0.0641862 0)
(-0.15008 -0.0200719 0)
(-0.157626 -0.01555 0)
(-0.151799 -0.0471146 0)
(-0.120925 -0.111125 0)
(-0.0835445 -0.223264 0)
(-0.0316512 -0.355421 0)
(0.000402922 -0.472495 0)
(0.0457435 -0.546816 0)
(0.0660964 -0.534108 0)
(0.0953297 -0.496028 0)
(0.149285 -0.487016 0)
(0.204033 -0.473948 0)
(0.253098 -0.461456 0)
(0.299846 -0.452077 0)
(0.344587 -0.447054 0)
(0.387677 -0.446053 0)
(0.429374 -0.448683 0)
(0.470636 -0.453351 0)
(0.506405 -0.456511 0)
(0.524464 -0.45784 0)
(0.510693 -0.456846 0)
(0.45987 -0.45149 0)
(0.381315 -0.449986 0)
(0.228619 -0.369987 0)
(0.050504 -0.0175197 0)
(-0.103252 0.359881 0)
(-0.178558 0.62453 0)
(-0.218621 0.736034 0)
(-0.324215 0.736782 0)
(-0.453898 0.678022 0)
(-0.51111 0.631503 0)
(-0.505915 0.589061 0)
(-0.450554 0.52254 0)
(-0.376745 0.386669 0)
(-0.254494 0.153044 0)
(-0.109438 -0.142407 0)
(-0.0285822 -0.336179 0)
(-0.0308135 -0.383654 0)
(-0.0747618 -0.341521 0)
(-0.132831 -0.273148 0)
(-0.154065 -0.220184 0)
(-0.152699 -0.195547 0)
(-0.148034 -0.184869 0)
(-0.130596 -0.191091 0)
(-0.10173 -0.224173 0)
(-0.0669121 -0.285678 0)
(-0.00707493 -0.353548 0)
(0.0419093 -0.316301 0)
(-0.191423 0.135514 0)
(-0.379608 0.128233 0)
(-0.569711 0.100478 0)
(-0.676651 0.0839195 0)
(-0.683309 0.0798291 0)
(-0.621838 0.0756722 0)
(-0.521034 0.0532571 0)
(-0.400884 0.00842583 0)
(-0.279701 -0.0484221 0)
(-0.177695 -0.0958418 0)
(-0.109843 -0.102719 0)
(-0.0741735 -0.0503358 0)
(-0.0451556 0.0337615 0)
(-0.00572897 0.106916 0)
(0.0538653 0.15307 0)
(0.106125 0.160261 0)
(0.14979 0.1446 0)
(0.177153 0.118885 0)
(0.173891 0.093871 0)
(0.132106 0.0755065 0)
(0.0367424 0.067435 0)
(-0.0869142 0.0865715 0)
(-0.182437 0.101269 0)
(-0.277788 0.101203 0)
(-0.359753 0.0886624 0)
(-0.393132 0.0850957 0)
(-0.41697 0.137475 0)
(-0.391329 0.169165 0)
(-0.369403 0.201186 0)
(-0.357712 0.214639 0)
(-0.333589 0.205627 0)
(-0.322111 0.197483 0)
(-0.278806 0.233158 0)
(-0.184175 0.305976 0)
(-0.0925857 0.363435 0)
(-0.00733016 0.357645 0)
(0.0738336 0.30094 0)
(0.128441 0.224492 0)
(0.165796 0.122032 0)
(0.188827 0.0351691 0)
(0.174829 -0.0552354 0)
(0.0930799 -0.189629 0)
(-0.0675903 -0.391308 0)
(-0.121461 -0.467893 0)
(-0.156761 -0.41572 0)
(-0.267708 -0.308765 0)
(-0.354411 -0.116661 0)
(-0.316439 0.0682001 0)
(-0.255363 0.166137 0)
(-0.213902 0.184083 0)
(-0.182062 0.163301 0)
(-0.160047 0.122843 0)
(-0.138209 0.0548418 0)
(-0.124855 -0.0500067 0)
(-0.128417 -0.163372 0)
(-0.159444 -0.257292 0)
(-0.153817 -0.302152 0)
(-0.121823 -0.325198 0)
(-0.071778 -0.333553 0)
(-0.0150889 -0.340759 0)
(0.0371771 -0.351408 0)
(0.037609 -0.319394 0)
(-0.0331197 -0.214869 0)
(-0.0852962 -0.106652 0)
(-0.126382 -0.03114 0)
(-0.145523 0.00705686 0)
(-0.149808 0.00705436 0)
(-0.138023 -0.0274849 0)
(-0.103211 -0.0976466 0)
(-0.0673341 -0.215019 0)
(-0.0194627 -0.345223 0)
(0.00737957 -0.458261 0)
(0.049064 -0.523651 0)
(0.0673724 -0.511462 0)
(0.0897135 -0.479384 0)
(0.145171 -0.478187 0)
(0.202973 -0.470052 0)
(0.252508 -0.459288 0)
(0.297157 -0.451337 0)
(0.339803 -0.447625 0)
(0.381571 -0.447609 0)
(0.423209 -0.450619 0)
(0.466613 -0.454435 0)
(0.504382 -0.455953 0)
(0.523021 -0.456194 0)
(0.507953 -0.45353 0)
(0.442411 -0.452877 0)
(0.338973 -0.48986 0)
(0.0981162 -0.431451 0)
(-0.096641 -0.166782 0)
(-0.200752 0.104257 0)
(-0.283689 0.370627 0)
(-0.360811 0.482232 0)
(-0.4639 0.518933 0)
(-0.521388 0.540151 0)
(-0.516857 0.547868 0)
(-0.478576 0.524893 0)
(-0.402285 0.461912 0)
(-0.301112 0.309089 0)
(-0.174667 0.0650277 0)
(-0.0544573 -0.175174 0)
(-0.0282377 -0.304285 0)
(-0.0727183 -0.315473 0)
(-0.141371 -0.253432 0)
(-0.183743 -0.193001 0)
(-0.190276 -0.152632 0)
(-0.18227 -0.134858 0)
(-0.167919 -0.128658 0)
(-0.143012 -0.138642 0)
(-0.108023 -0.17904 0)
(-0.065903 -0.248804 0)
(-0.0110958 -0.322529 0)
(0.0404316 -0.275185 0)
(-0.202379 0.113073 0)
(-0.388051 0.0971801 0)
(-0.567457 0.0713312 0)
(-0.65505 0.0502681 0)
(-0.649533 0.031822 0)
(-0.585947 0.00719427 0)
(-0.49162 -0.0284085 0)
(-0.386904 -0.0722352 0)
(-0.288639 -0.113745 0)
(-0.209315 -0.129133 0)
(-0.155558 -0.096862 0)
(-0.120723 -0.0249807 0)
(-0.0890362 0.0548574 0)
(-0.0473214 0.122187 0)
(0.00759599 0.166105 0)
(0.0592812 0.176632 0)
(0.105868 0.163765 0)
(0.137004 0.14032 0)
(0.139806 0.114775 0)
(0.107367 0.0946298 0)
(0.0280857 0.0860128 0)
(-0.074227 0.104492 0)
(-0.161782 0.114944 0)
(-0.248491 0.123428 0)
(-0.33127 0.117524 0)
(-0.341293 0.0951517 0)
(-0.364646 0.125351 0)
(-0.350485 0.168424 0)
(-0.326204 0.194012 0)
(-0.311232 0.209065 0)
(-0.286612 0.204347 0)
(-0.270439 0.177281 0)
(-0.244958 0.185127 0)
(-0.1755 0.23393 0)
(-0.0832467 0.295434 0)
(0.00870298 0.303138 0)
(0.0937712 0.258372 0)
(0.158773 0.195467 0)
(0.207531 0.106123 0)
(0.235785 0.017355 0)
(0.222412 -0.0648455 0)
(0.159161 -0.153228 0)
(0.0610869 -0.319265 0)
(-0.0332292 -0.442188 0)
(-0.0419512 -0.400482 0)
(-0.0880209 -0.345573 0)
(-0.215894 -0.208321 0)
(-0.27011 -0.0442769 0)
(-0.233336 0.0724985 0)
(-0.20098 0.108651 0)
(-0.177569 0.0987452 0)
(-0.160663 0.0652406 0)
(-0.139183 0.00193628 0)
(-0.130705 -0.0860118 0)
(-0.130824 -0.181864 0)
(-0.160896 -0.261808 0)
(-0.156777 -0.29446 0)
(-0.1258 -0.313277 0)
(-0.0743451 -0.323383 0)
(-0.0099965 -0.331783 0)
(0.0492694 -0.334791 0)
(0.0189118 -0.28305 0)
(-0.0431543 -0.174673 0)
(-0.0851053 -0.0740956 0)
(-0.117363 -0.00308246 0)
(-0.131818 0.0310099 0)
(-0.133188 0.0271232 0)
(-0.118014 -0.0101407 0)
(-0.0833705 -0.084782 0)
(-0.0473341 -0.203999 0)
(-0.00466239 -0.331854 0)
(0.0175707 -0.441738 0)
(0.0535956 -0.499949 0)
(0.0750461 -0.491504 0)
(0.0964323 -0.465831 0)
(0.148108 -0.466611 0)
(0.202787 -0.459961 0)
(0.249586 -0.45305 0)
(0.291758 -0.448652 0)
(0.332774 -0.446993 0)
(0.374271 -0.448643 0)
(0.417612 -0.452047 0)
(0.464143 -0.454735 0)
(0.503354 -0.454514 0)
(0.52223 -0.453167 0)
(0.500949 -0.449467 0)
(0.401223 -0.459369 0)
(0.240176 -0.542737 0)
(-0.144073 -0.421257 0)
(-0.357496 -0.256111 0)
(-0.517079 -0.0879798 0)
(-0.560281 0.128494 0)
(-0.576731 0.283497 0)
(-0.564576 0.386841 0)
(-0.543772 0.46419 0)
(-0.504172 0.493553 0)
(-0.442192 0.477533 0)
(-0.34817 0.406864 0)
(-0.231282 0.241287 0)
(-0.110601 0.0165424 0)
(-0.0478364 -0.162991 0)
(-0.084913 -0.234722 0)
(-0.163352 -0.208024 0)
(-0.227191 -0.159167 0)
(-0.246525 -0.120649 0)
(-0.235097 -0.0941556 0)
(-0.215742 -0.0804764 0)
(-0.190342 -0.0774132 0)
(-0.158026 -0.0909411 0)
(-0.116146 -0.135658 0)
(-0.0654887 -0.210978 0)
(-0.0170772 -0.286905 0)
(0.0358632 -0.22743 0)
(-0.205852 0.0857247 0)
(-0.381832 0.0614303 0)
(-0.549683 0.0375099 0)
(-0.628143 0.0130235 0)
(-0.618922 -0.0151115 0)
(-0.558539 -0.0492391 0)
(-0.474726 -0.0896622 0)
(-0.38598 -0.130598 0)
(-0.304226 -0.153687 0)
(-0.238736 -0.137581 0)
(-0.191891 -0.0780219 0)
(-0.155303 0.00626581 0)
(-0.122547 0.0810368 0)
(-0.0790238 0.144081 0)
(-0.0302449 0.186052 0)
(0.0178353 0.196438 0)
(0.0639056 0.181093 0)
(0.097641 0.152891 0)
(0.107765 0.122356 0)
(0.0883657 0.0997183 0)
(0.0349788 0.0920198 0)
(-0.0410047 0.110926 0)
(-0.11611 0.131637 0)
(-0.188669 0.150608 0)
(-0.287121 0.14567 0)
(-0.27998 0.126691 0)
(-0.279972 0.152313 0)
(-0.288282 0.181346 0)
(-0.28206 0.199912 0)
(-0.26873 0.211404 0)
(-0.244492 0.207808 0)
(-0.225264 0.185151 0)
(-0.207326 0.167276 0)
(-0.154887 0.186949 0)
(-0.068678 0.234108 0)
(0.0262993 0.251088 0)
(0.1074 0.217195 0)
(0.175463 0.157804 0)
(0.23053 0.0840694 0)
(0.254732 0.000106185 0)
(0.230341 -0.0768022 0)
(0.162877 -0.149353 0)
(0.137992 -0.274617 0)
(0.0501642 -0.38539 0)
(0.0429986 -0.376566 0)
(0.00623758 -0.334672 0)
(-0.0538138 -0.264932 0)
(-0.170427 -0.121971 0)
(-0.179995 -0.00981715 0)
(-0.17295 0.036816 0)
(-0.163347 0.0349108 0)
(-0.152592 0.00445432 0)
(-0.137363 -0.0519213 0)
(-0.132718 -0.121048 0)
(-0.132723 -0.197926 0)
(-0.161521 -0.262061 0)
(-0.159111 -0.282092 0)
(-0.128131 -0.29788 0)
(-0.0795924 -0.31437 0)
(-0.010873 -0.325753 0)
(0.0530881 -0.314301 0)
(0.0182036 -0.242133 0)
(-0.0412922 -0.140077 0)
(-0.078382 -0.0478506 0)
(-0.101618 0.0197774 0)
(-0.11186 0.0508825 0)
(-0.109645 0.0449671 0)
(-0.0929657 0.00526294 0)
(-0.0605496 -0.07072 0)
(-0.0250064 -0.189381 0)
(0.0117018 -0.314816 0)
(0.0287902 -0.421694 0)
(0.0576502 -0.476263 0)
(0.081208 -0.474233 0)
(0.0981308 -0.456492 0)
(0.146841 -0.458809 0)
(0.198885 -0.453883 0)
(0.243042 -0.449506 0)
(0.284524 -0.447491 0)
(0.325482 -0.447519 0)
(0.367911 -0.450117 0)
(0.414052 -0.453175 0)
(0.463637 -0.454198 0)
(0.503813 -0.452181 0)
(0.521481 -0.448572 0)
(0.485991 -0.444694 0)
(0.336782 -0.465032 0)
(0.0679829 -0.552672 0)
(-0.338243 -0.364376 0)
(-0.606092 -0.241014 0)
(-0.807937 -0.101283 0)
(-0.834868 0.0616787 0)
(-0.767029 0.237025 0)
(-0.673016 0.364665 0)
(-0.590787 0.441096 0)
(-0.511347 0.46529 0)
(-0.416081 0.437296 0)
(-0.305794 0.351805 0)
(-0.19275 0.18898 0)
(-0.104325 -0.00174351 0)
(-0.121339 -0.0948816 0)
(-0.199125 -0.112698 0)
(-0.268185 -0.101219 0)
(-0.300937 -0.0908343 0)
(-0.294399 -0.0709047 0)
(-0.27358 -0.050863 0)
(-0.248664 -0.0374626 0)
(-0.215704 -0.0352287 0)
(-0.176401 -0.0499477 0)
(-0.126931 -0.0937696 0)
(-0.0671261 -0.168704 0)
(-0.0266679 -0.245275 0)
(0.0301393 -0.172833 0)
(-0.212176 0.06216 0)
(-0.372902 0.0289988 0)
(-0.526029 0.00261752 0)
(-0.599782 -0.0224934 0)
(-0.591869 -0.0537726 0)
(-0.537866 -0.0918906 0)
(-0.465454 -0.134077 0)