/*--------------------------------*- C++ -*----------------------------------*\
  =========                 |
  \\      /  F ield         | OpenFOAM: The Open Source CFD Toolbox
   \\    /   O peration     | Website:  https://openfoam.org
    \\  /    A nd           | Version:  11
     \\/     M anipulation  |
\*---------------------------------------------------------------------------*/
FoamFile
{
    format      ascii;
    class       volScalarField;
    location    "8.5";
    object      mag(U);
}
// * * * * * * * * * * * * * * * * * * * * * * * * * * * * * * * * * * * * * //

dimensions      [0 1 -1 0 0 0 0];

internalField   nonuniform List<scalar> 
9600
(
0.965161
0.961952
0.959083
0.954506
0.948665
0.945856
0.942252
0.936205
0.929805
0.928003
0.926397
0.923115
0.923581
0.926083
0.930011
0.935829
0.944877
0.957131
0.967232
0.972141
0.980545
0.992952
0.993902
0.991018
0.986106
0.97965
0.969641
0.947455
0.913513
0.882215
0.851203
0.82483
0.80343
0.79079
0.787111
0.791387
0.822983
0.852106
0.895616
1.013
0.968128
0.966696
0.964549
0.963178
0.960472
0.957434
0.955356
0.953304
0.951803
0.949489
0.949603
0.950673
0.953108
0.958462
0.964151
0.971762
0.983319
0.99461
1.00605
1.01719
1.02192
1.025
1.03315
1.04047
1.04235
1.04239
1.04257
1.04098
1.03492
1.01815
0.988981
0.956214
0.924916
0.898154
0.878241
0.863879
0.85989
0.868297
0.885867
0.994459
0.966736
0.965209
0.963046
0.96181
0.959782
0.956818
0.954771
0.953386
0.952046
0.950119
0.950245
0.951282
0.95345
0.958683
0.965072
0.972931
0.983036
0.994299
1.00641
1.01852
1.02631
1.02746
1.02879
1.03365
1.0413
1.04752
1.05266
1.0561
1.05581
1.04864
1.0234
0.983736
0.945061
0.910284
0.88694
0.873049
0.868562
0.876441
0.887106
0.971762
0.966801
0.965282
0.962815
0.961217
0.95903
0.955815
0.953887
0.952633
0.951299
0.949868
0.950129
0.951603
0.9543
0.959871
0.966532
0.974038
0.98416
0.995672
1.00641
1.017
1.02705
1.03114
1.03081
1.03111
1.03551
1.04407
1.05283
1.06011
1.06447
1.06211
1.04959
1.01853
0.985861
0.947499
0.918349
0.889184
0.870324
0.872095
0.874994
0.93816
0.966068
0.96444
0.962005
0.960166
0.957742
0.955101
0.953489
0.952482
0.951211
0.9505
0.950979
0.952456
0.955702
0.959867
0.967044
0.975734
0.985193
0.995709
1.00653
1.01597
1.026
1.03298
1.03394
1.03264
1.03273
1.03696
1.04788
1.05994
1.07121
1.0748
1.06966
1.04908
1.01467
0.972481
0.935961
0.906088
0.882106
0.875945
0.87216
0.909834
0.965661
0.964092
0.961411
0.959096
0.957068
0.954705
0.95285
0.951865
0.950661
0.950061
0.950597
0.952406
0.956694
0.960608
0.967695
0.976829
0.986462
0.995935
1.00752
1.01709
1.02575
1.03143
1.03441
1.0336
1.03321
1.03532
1.04357
1.05684
1.07158
1.07874
1.07995
1.06734
1.04323
1.00188
0.96036
0.926462
0.891445
0.877415
0.86462
0.890756
0.964662
0.963106
0.960225
0.957928
0.955843
0.953815
0.951985
0.951045
0.95029
0.950064
0.951191
0.953086
0.957398
0.961335
0.968967
0.977307
0.987451
0.996001
1.00906
1.01773
1.02627
1.03047
1.03463
1.03435
1.03432
1.03534
1.04028
1.05129
1.06835
1.08075
1.08846
1.0806
1.06125
1.02706
0.984623
0.949609
0.909005
0.889062
0.866571
0.878607
0.964174
0.962434
0.959511
0.957082
0.954943
0.953259
0.951541
0.950781
0.950152
0.949969
0.951213
0.953014
0.958021
0.961877
0.97016
0.977316
0.988964
0.997162
1.01012
1.01848
1.02719
1.03041
1.03403
1.03411
1.03433
1.0347
1.03878
1.04802
1.06502
1.07882
1.09091
1.08962
1.07506
1.05188
1.00756
0.976079
0.929798
0.904269
0.865266
0.868255
0.962978
0.961232
0.958198
0.955813
0.953767
0.952269
0.950775
0.950174
0.949672
0.949607
0.951485
0.953186
0.958614
0.962489
0.971506
0.977772
0.990326
0.998044
1.01121
1.01929
1.02887
1.0312
1.03387
1.03361
1.03396
1.03402
1.03827
1.04615
1.06055
1.0757
1.09121
1.09827
1.08539
1.06841
1.02969
0.999519
0.947905
0.923195
0.877969
0.868479
0.962305
0.960562
0.957444
0.954985
0.952968
0.951724
0.9502
0.949745
0.949609
0.949249
0.951705
0.953342
0.958947
0.962943
0.972596
0.979005
0.99109
0.999361
1.01315
1.02008
1.02968
1.03209
1.03456
1.03337
1.03285
1.03232
1.03653
1.04316
1.0565
1.07296
1.08812
1.103
1.09571
1.08481
1.04903
1.02118
0.968617
0.944408
0.895082
0.872264
0.961038
0.959195
0.956164
0.95378
0.951643
0.95072
0.949644
0.948869
0.949423
0.949032
0.951726
0.953334
0.959387
0.96346
0.973329
0.979921
0.992612
1.00071
1.01495
1.02155
1.03083
1.03318
1.03571
1.03376
1.03197
1.03047
1.03403
1.04067
1.05282
1.07061
1.08521
1.10416
1.10418
1.10008
1.06777
1.04351
0.992391
0.964197
0.91508
0.881669
0.960237
0.958361
0.955402
0.953072
0.950703
0.949901
0.949316
0.948005
0.949076
0.948707
0.951742
0.9533
0.959621
0.963964
0.974185
0.981002
0.9942
1.00215
1.01601
1.02338
1.03335
1.0345
1.036
1.03363
1.03125
1.02899
1.03118
1.03824
1.04859
1.06626
1.08242
1.10322
1.10851
1.11181
1.08666
1.06604
1.01624
0.985106
0.940773
0.895633
0.958856
0.956968
0.95399
0.951855
0.949922
0.948411
0.948754
0.947357
0.948522
0.948163
0.951681
0.953384
0.960155
0.964467
0.975067
0.982142
0.99577
1.0039
1.01791
1.02502
1.03521
1.03674
1.03761
1.03444
1.03049
1.02798
1.02682
1.03455
1.04372
1.0627
1.07851
1.10277
1.11084
1.1233
1.10398
1.08689
1.04329
1.00925
0.968632
0.914004
0.957906
0.956018
0.953204
0.950707
0.949141
0.947483
0.947875
0.946524
0.948117
0.947673
0.951442
0.953221
0.960332
0.964865
0.975879
0.983011
0.997231
1.00542
1.02053
1.02721
1.03651
1.03883
1.03954
1.03593
1.03014
1.02644
1.02338
1.02953
1.03748
1.058
1.07413
1.1
1.11386
1.13023
1.12042
1.10866
1.06997
1.03332
1.00043
0.934668
0.956389
0.954425
0.952087
0.94921
0.947996
0.946471
0.947203
0.945571
0.947547
0.947152
0.951342
0.953122
0.96077
0.965388
0.976923
0.984283
0.998816
1.00776
1.02182
1.03084
1.03818
1.04184
1.04187
1.03769
1.03083
1.02527
1.01996
1.02375
1.03287
1.04623
1.07398
1.09269
1.11585
1.13477
1.13177
1.12695
1.101
1.0579
1.029
0.967235
0.955222
0.95324
0.950795
0.948145
0.946956
0.945112
0.946247
0.944504
0.946762
0.946258
0.950867
0.952736
0.960858
0.965639
0.977355
0.98616
0.998587
1.01211
1.02174
1.03515
1.04008
1.04442
1.04471
1.0401
1.03172
1.0248
1.01802
1.01713
1.02634
1.0373
1.0624
1.09117
1.10967
1.14031
1.14464
1.14039
1.128
1.08698
1.06074
0.997227
0.953687
0.951655
0.949564
0.946605
0.945855
0.943749
0.94517
0.943399
0.946073
0.945635
0.950745
0.952794
0.960735
0.96791
0.97619
0.990358
0.998971
1.01533
1.02466
1.03741
1.04431
1.04701
1.047
1.04302
1.03423
1.02462
1.01731
1.01132
1.01787
1.0296
1.04697
1.08543
1.10466
1.13788
1.15686
1.15489
1.15236
1.11579
1.09387
1.03266
0.952092
0.950109
0.948246
0.944856
0.944455
0.94214
0.943761
0.94188
0.94499
0.944646
0.948883
0.954291
0.958473
0.969826
0.976735
0.991048
1.00129
1.01699
1.02814
1.04024
1.04747
1.05105
1.05008
1.04565
1.03698
1.02458
1.01651
1.0077
1.00793
1.02087
1.03408
1.06749
1.09946
1.13306
1.16124
1.16906
1.17722
1.14429
1.12679
1.06478
0.950536
0.948216
0.946732
0.943675
0.943482
0.940893
0.942626
0.941108
0.943005
0.946017
0.947186
0.954693
0.958846
0.970949
0.978203
0.993156
1.00387
1.01914
1.03217
1.04343
1.05168
1.05541
1.05408
1.04904
1.0407
1.02666
1.01429
1.00599
1.00047
1.00879
1.02126
1.0477
1.08564
1.1228
1.16462
1.17591
1.1999
1.17425
1.1648
1.10146
0.948609
0.946183
0.944739
0.941622
0.941688
0.93927
0.939978
0.941405
0.940111
0.945002
0.946102
0.95464
0.958788
0.970812
0.979438
0.993728
1.00836
1.01999
1.03722
1.04606
1.05535
1.05999
1.05794
1.05257
1.04415
1.03032
1.01465
1.00243
0.994359
0.996203
1.00774
1.02674
1.06845
1.10356
1.15815
1.17942
1.21899
1.20236
1.2043
1.14149
0.946687
0.944271
0.942917
0.939871
0.939359
0.939389
0.936786
0.940677
0.939228
0.94454
0.945607
0.954597
0.959432
0.971806
0.982509
0.994396
1.0126
1.02349
1.04093
1.05175
1.05959
1.06484
1.06384
1.05696
1.04831
1.03342
1.01781
1.00069
0.989515
0.983726
0.993056
1.00319
1.04634
1.08082
1.14214
1.17155
1.23013
1.2273
1.24387
1.18475
0.944325
0.941723
0.939994
0.938459
0.935205
0.937208
0.934666
0.938554
0.936928
0.943179
0.944368
0.954076
0.959707
0.971433
0.984207
0.99659
1.0142
1.02827
1.0436
1.05624
1.06497
1.06916
1.06921
1.06263
1.05338
1.03704
1.02084
1.0006
0.986516
0.971735
0.979005
0.981084
1.01743
1.04988
1.11775
1.15155
1.22719
1.24073
1.28321
1.23004
0.942008
0.940462
0.937021
0.936477
0.93344
0.935442
0.932788
0.93732
0.935821
0.942767
0.94497
0.95406
0.961624
0.973599
0.986189
1.00146
1.01691
1.03414
1.04943
1.06175
1.07147
1.07569
1.07585
1.06924
1.06047
1.04237
1.02638
1.00188
0.987457
0.964006
0.96479
0.959241
0.988276
1.01247
1.0808
1.12062
1.21024
1.23483
1.31281
1.27322
0.937655
0.936898
0.93336
0.933276
0.929869
0.932237
0.929345
0.934343
0.933758
0.939927
0.944102
0.952733
0.962295
0.974955
0.987842
1.00417
1.02195
1.03731
1.05524
1.06808
1.07734
1.08254
1.08324
1.07602
1.0685
1.04909
1.0336
1.00501
0.989364
0.960619
0.953787
0.93838
0.957048
0.973983
1.03194
1.0749
1.17279
1.21051
1.32001
1.30928
0.934503
0.934014
0.930526
0.930622
0.927235
0.930283
0.927784
0.932278
0.934062
0.938969
0.945666
0.953584
0.96437
0.977378
0.993567
1.00857
1.02812
1.04502
1.06243
1.07595
1.08591
1.09038
1.09359
1.08503
1.07889
1.05845
1.04354
1.01343
0.994446
0.962505
0.946505
0.925659
0.928553
0.933917
0.977494
1.01736
1.10798
1.1619
1.28994
1.32777
0.931893
0.929111
0.926024
0.925774
0.921834
0.92493
0.924645
0.92697
0.931026
0.936285
0.943015
0.953585
0.964791
0.978234
0.99527
1.01384
1.03108
1.05073
1.06924
1.08258
1.09448
1.09774
1.10275
1.09398
1.08891
1.06941
1.05418
1.02403
1.00069
0.969393
0.943774
0.917062
0.906392
0.90146
0.91964
0.952697
1.02042
1.08949
1.21064
1.30665
0.92848
0.927957
0.923027
0.923607
0.920746
0.921521
0.923256
0.92591
0.930405
0.936241
0.9444
0.956198
0.967324
0.984509
0.99975
1.02005
1.0402
1.05898
1.07769
1.09119
1.10521
1.10783
1.11276
1.10672
1.10052
1.08352
1.0672
1.04025
1.01203
0.980651
0.949471
0.918446
0.890332
0.879044
0.869508
0.896207
0.921536
1.00181
1.09178
1.20317
0.920246
0.921069
0.917387
0.916449
0.916492
0.916121
0.918989
0.92079
0.928522
0.932685
0.944518
0.954157
0.969293
0.986575
1.00403
1.02516
1.046
1.06649
1.08638
1.10051
1.1136
1.11983
1.12208
1.11879
1.11226
1.09745
1.08076
1.05714
1.02698
0.994907
0.95746
0.927393
0.885706
0.867877
0.834409
0.848236
0.837859
0.901719
0.967848
0.932647
0.916494
0.915588
0.914816
0.911517
0.915456
0.912571
0.920699
0.920513
0.930939
0.935743
0.947885
0.96098
0.975681
0.994584
1.01445
1.03597
1.05775
1.08019
1.09818
1.11482
1.12683
1.13512
1.13745
1.13466
1.12903
1.11762
1.10032
1.07981
1.04891
1.02052
0.975258
0.945124
0.895364
0.871181
0.826365
0.813533
0.790726
0.801801
0.845759
0.734489
0.910123
0.905862
0.905762
0.90109
0.905891
0.904088
0.910737
0.915813
0.923243
0.934238
0.946185
0.962082
0.978312
0.999468
1.02073
1.04494
1.06659
1.09132
1.10873
1.12609
1.13877
1.14734
1.1502
1.14964
1.14381
1.13691
1.11835
1.10491
1.07266
1.05009
1.0027
0.970579
0.91974
0.881564
0.842597
0.797408
0.775613
0.743214
0.75208
0.654202
0.907413
0.903047
0.903993
0.901994
0.902409
0.906339
0.910848
0.917785
0.927132
0.938772
0.952166
0.970973
0.987145
1.01263
1.0317
1.05985
1.08168
1.10722
1.1246
1.14397
1.1542
1.16604
1.16614
1.17076
1.1619
1.16114
1.14171
1.1342
1.10491
1.08375
1.04522
1.00297
0.962396
0.90512
0.872571
0.816547
0.781259
0.73347
0.723355
0.652104
0.892289
0.891292
0.89196
0.890537
0.893878
0.897835
0.90251
0.91506
0.922123
0.939874
0.952594
0.976312
0.994002
1.02112
1.04265
1.07242
1.09434
1.12112
1.13823
1.15981
1.16848
1.18207
1.18168
1.1883
1.18009
1.18129
1.16826
1.1585
1.14371
1.11536
1.09474
1.04399
1.01195
0.952185
0.904674
0.853672
0.811347
0.746988
0.729177
0.686254
0.883036
0.886535
0.885546
0.889002
0.891642
0.899266
0.906162
0.920776
0.931765
0.950792
0.968036
0.990408
1.01437
1.04018
1.06661
1.09417
1.11921
1.14428
1.1639
1.18154
1.1943
1.20266
1.20962
1.20774
1.21313
1.20177
1.20635
1.18959
1.18652
1.16564
1.14362
1.11457
1.07407
1.02299
0.982897
0.908106
0.870731
0.81064
0.757655
0.713649
0.867425
0.868326
0.869623
0.872928
0.878811
0.887648
0.901029
0.913575
0.934309
0.951433
0.976936
0.999
1.02736
1.05459
1.08317
1.11185
1.13823
1.16181
1.1829
1.19764
1.21403
1.21821
1.22728
1.22746
1.22864
1.23039
1.22633
1.22574
1.2241
1.20517
1.2052
1.1719
1.14959
1.10829
1.06228
1.00956
0.956594
0.885512
0.839488
0.77329
0.864722
0.865391
0.870323
0.873651
0.884613
0.893852
0.913082
0.927509
0.951693
0.973222
0.99948
1.02818
1.05312
1.08878
1.11105
1.14892
1.16532
1.2002
1.21035
1.23472
1.24122
1.2517
1.25767
1.25643
1.26631
1.25803
1.27075
1.26893
1.26954
1.27237
1.2693
1.24987
1.24689
1.20777
1.1839
1.13729
1.08931
1.02854
0.980638
0.909002
0.84154
0.849223
0.856213
0.86576
0.878448
0.894345
0.914539
0.938258
0.962928
0.995445
1.01877
1.05918
1.08064
1.12364
1.14566
1.1828
1.20552
1.2311
1.25059
1.26505
1.27525
1.28625
1.28226
1.29623
1.28775
1.29791
1.29955
1.30208
1.31481
1.31726
1.32791
1.32867
1.33256
1.30522
1.31833
1.26655
1.25682
1.19465
1.1686
1.10508
0.834742
0.848612
0.863436
0.886
0.90564
0.93441
0.959946
0.990257
1.02082
1.05255
1.08724
1.11996
1.15517
1.18984
1.21869
1.25371
1.27158
1.29998
1.30783
1.32455
1.32447
1.33006
1.32392
1.32699
1.3191
1.3251
1.31632
1.32751
1.31965
1.33488
1.33326
1.35937
1.35981
1.38553
1.3695
1.38093
1.3371
1.33993
1.28194
1.29118
0.803413
0.832736
0.847069
0.877257
0.897022
0.935342
0.965587
1.00829
1.04488
1.0872
1.12651
1.16574
1.2027
1.23812
1.26739
1.2973
1.31496
1.33471
1.33993
1.34739
1.34325
1.33802
1.33078
1.31889
1.31658
1.3049
1.30432
1.3005
1.29775
1.28201
1.26399
1.25249
1.24545
1.25892
1.24781
1.24703
1.19583
1.19233
1.12592
1.16672
0.87372
0.917447
0.960572
1.01051
1.04825
1.09401
1.12976
1.1737
1.20661
1.24584
1.27431
1.30451
1.32731
1.3492
1.36162
1.37997
1.38259
1.39457
1.38496
1.38495
1.365
1.35148
1.32732
1.30162
1.27717
1.25083
1.23472
1.20048
1.17998
1.12462
1.05109
0.915939
0.733236
0.587107
0.442172
0.37127
0.335051
0.325789
0.308044
0.331369
0.997044
1.03537
1.07134
1.10953
1.1466
1.1807
1.2116
1.23814
1.26011
1.27719
1.28861
1.30043
1.304
1.31025
1.30469
1.29879
1.2834
1.26535
1.24072
1.20378
1.16692
1.10593
1.05836
0.967565
0.915801
0.806573
0.743031
0.626881
0.309518
0.0705735
0.147288
0.111644
0.0190735
0.0987019
0.154672
0.194028
0.237514
0.274404
0.299062
0.320546
1.131
1.27425
1.25624
0.955698
0.811931
0.797278
0.891797
0.981081
1.05134
1.06071
1.05501
1.04671
1.04033
1.03774
1.03203
1.03213
1.02802
1.02815
1.02548
1.02537
1.02365
1.02368
1.02231
1.02237
1.02101
1.02094
1.01982
1.01983
1.01899
1.01907
1.01822
1.01803
1.01702
1.01687
1.01606
1.01589
1.0154
1.01546
1.01568
1.01503
1.09413
1.18892
1.19107
0.962632
0.835021
0.819683
0.910877
1.00358
1.0739
1.07942
1.06734
1.05375
1.04553
1.04137
1.03472
1.03426
1.02993
1.02965
1.02705
1.02661
1.02478
1.02464
1.02326
1.02329
1.02197
1.02183
1.02062
1.02054
1.01968
1.01973
1.01907
1.01892
1.01797
1.01764
1.01679
1.01654
1.01599
1.01592
1.01559
1.01353
1.00111
1.11601
1.15127
0.958342
0.841664
0.839504
0.931533
1.03682
1.10665
1.10385
1.08281
1.06135
1.0512
1.04435
1.03714
1.03591
1.03136
1.03077
1.02818
1.02751
1.02583
1.02544
1.02413
1.02403
1.02273
1.02259
1.02142
1.02131
1.02041
1.02033
1.01968
1.01949
1.01863
1.01815
1.01728
1.01697
1.01641
1.01637
1.0164
1.01627
0.950991
1.0257
1.05556
0.93953
0.841775
0.842713
0.933088
1.05593
1.13758
1.12861
1.10116
1.07019
1.0576
1.04864
1.03999
1.03786
1.03297
1.03188
1.02959
1.02841
1.02692
1.02613
1.02487
1.02458
1.02326
1.02308
1.02191
1.02175
1.02086
1.02069
1.02016
1.01994
1.01932
1.01879
1.01796
1.0174
1.01682
1.01661
1.01645
1.01641
0.877388
0.950779
1.00345
0.89837
0.830811
0.835776
0.930293
1.07164
1.17592
1.16255
1.12298
1.08029
1.06516
1.05285
1.04295
1.03982
1.03459
1.03308
1.03082
1.02916
1.02787
1.02668
1.02548
1.02491
1.02368
1.02338
1.02227
1.02195
1.02119
1.02083
1.02045
1.0201
1.0197
1.01917
1.01868
1.01806
1.01751
1.01706
1.01662
1.01557
0.826792
0.860408
0.910535
0.855953
0.810572
0.815322
0.911741
1.0732
1.20176
1.19789
1.14616
1.09171
1.07261
1.05829
1.0466
1.04258
1.03668
1.03453
1.03244
1.03019
1.02908
1.02743
1.02647
1.02561
1.02451
1.02402
1.02302
1.02255
1.02195
1.02128
1.02107
1.02056
1.02041
1.01981
1.01942
1.01865
1.01828
1.01774
1.01768
1.01778
0.789115
0.81368
0.875073
0.814523
0.777482
0.77948
0.877754
1.06539
1.21713
1.23801
1.17367
1.10474
1.08064
1.06356
1.05034
1.04528
1.03893
1.03611
1.0343
1.03156
1.03086
1.02884
1.02811
1.02694
1.02613
1.02534
1.02457
1.02374
1.02334
1.02234
1.02202
1.02123
1.02115
1.02057
1.02039
1.01955
1.01911
1.01828
1.0177
1.01633
0.774586
0.772482
0.802591
0.777294
0.739899
0.739132
0.830749
1.03829
1.2132
1.26444
1.20252
1.11879
1.08748
1.06867
1.05377
1.04757
1.04102
1.03767
1.03575
1.03288
1.03211
1.03
1.02936
1.02788
1.02723
1.02624
1.02549
1.02454
1.02417
1.02308
1.02274
1.02177
1.02155
1.02087
1.02071
1.02005
1.01977
1.01928
1.0191
1.01892
0.781736
0.787909
0.803978
0.760055
0.720151
0.709159
0.797505
1.01056
1.20284
1.27093
1.2322
1.13485
1.09357
1.07328
1.05701
1.0491
1.04273
1.03874
1.03657
1.03378
1.03279
1.03066
1.03
1.02841
1.02773
1.02677
1.02587
1.02499
1.02447
1.02347
1.02303
1.02218
1.0219
1.02131
1.02108
1.02057
1.02015
1.01965
1.01908
1.0181
0.807389
0.804043
0.799318
0.768921
0.724239
0.719446
0.803899
0.999874
1.18359
1.25537
1.24941
1.14971
1.0999
1.0775
1.061
1.05073
1.04458
1.03984
1.03735
1.03478
1.03341
1.0314
1.03057
1.02899
1.02809
1.02735
1.02616
1.02556
1.02483
1.02406
1.02345
1.02249
1.02193
1.02145
1.02105
1.02083
1.02048
1.02036
1.02006
1.01993
0.829477
0.838161
0.841421
0.814161
0.775945
0.788395
0.871277
1.03593
1.15525
1.22194
1.24425
1.16273
1.10582
1.0811
1.06521
1.05301
1.04728
1.04213
1.03904
1.03684
1.03509
1.03333
1.03214
1.03097
1.02953
1.02904
1.02761
1.02713
1.02622
1.02548
1.02473
1.02391
1.02291
1.02235
1.02167
1.02149
1.02077
1.02059
1.02009
1.01955
0.864989
0.86877
0.864827
0.84799
0.832035
0.869307
0.942843
1.05529
1.12745
1.16859
1.20781
1.16845
1.10772
1.08141
1.06796
1.05479
1.0489
1.04442
1.04065
1.03847
1.03637
1.03497
1.03359
1.03259
1.03114
1.03045
1.0293
1.02847
1.0277
1.02688
1.02616
1.0255
1.02446
1.02375
1.0228
1.02249
1.02184
1.02148
1.02095
1.02076
0.88686
0.89859
0.907244
0.890162
0.87831
0.907492
0.964724
1.04963
1.09362
1.11395
1.15095
1.16113
1.10609
1.07861
1.06939
1.05464
1.04876
1.0455
1.04111
1.03921
1.03695
1.03572
1.03428
1.03338
1.032
1.03112
1.03014
1.02907
1.02849
1.02765
1.02697
1.02632
1.02564
1.02504
1.02402
1.02331
1.0225
1.02211
1.0214
1.02084
0.925337
0.931607
0.93507
0.923687
0.910981
0.927501
0.96613
1.02521
1.05396
1.0596
1.08393
1.13583
1.10018
1.07347
1.06742
1.05389
1.04752
1.04562
1.04136
1.03985
1.03747
1.03624
1.03494
1.03386
1.03259
1.03149
1.03066
1.02937
1.02889
1.02794
1.02744
1.02667
1.02618
1.02559
1.02485
1.02416
1.0233
1.02266
1.02219
1.02183
0.955404
0.961235
0.974122
0.966155
0.944773
0.942964
0.959639
0.989108
1.01397
1.0002
1.02169
1.09417
1.08832
1.06576
1.06297
1.05458
1.04754
1.04662
1.04251
1.0414
1.0393
1.03768
1.03657
1.03521
1.0342
1.03263
1.0319
1.03033
1.02962
1.02858
1.02786
1.02718
1.02655
1.02602
1.02531
1.02475
1.02394
1.0234
1.02271
1.02216
0.992831
1.00207
1.0123
1.00873
0.978512
0.94987
0.947711
0.950064
0.970379
0.944036
0.959852
1.0377
1.06942
1.05336
1.05551
1.05304
1.04659
1.04693
1.04336
1.04234
1.04075
1.03897
1.03814
1.03677
1.03612
1.03477
1.03392
1.03262
1.03133
1.03024
1.02907
1.02837
1.02738
1.02695
1.02612
1.0257
1.02472
1.02425
1.02352
1.02318
1.02623
1.04402
1.05847
1.05917
1.01931
0.963034
0.933945
0.91714
0.921696
0.895595
0.898617
0.982902
1.0424
1.03654
1.0437
1.04764
1.043
1.04506
1.04259
1.04169
1.04117
1.03949
1.03873
1.03742
1.03696
1.03598
1.03518
1.03437
1.03333
1.03241
1.03113
1.03037
1.02919
1.02848
1.02743
1.02695
1.02589
1.02542
1.0244
1.02399
1.06729
1.09155
1.1078
1.11144
1.05887
0.975418
0.914963
0.881176
0.867517
0.850786
0.835753
0.932786
1.00654
1.01765
1.02735
1.03988
1.03751
1.04118
1.04079
1.04032
1.04083
1.03982
1.03921
1.03799
1.03752
1.03667
1.03592
1.03518
1.03427
1.03346
1.03246
1.03174
1.03076
1.02995
1.02896
1.02814
1.02717
1.02654
1.02563
1.02512
1.10754
1.14567
1.16948
1.18055
1.09874
0.976758
0.885678
0.835231
0.80567
0.798459
0.777719
0.881777
0.970215
1.00062
1.01206
1.02991
1.03137
1.03663
1.03912
1.0392
1.04017
1.03997
1.03982
1.0387
1.0379
1.03727
1.03634
1.03569
1.03483
1.03407
1.0332
1.03251
1.03167
1.0309
1.02992
1.02912
1.02818
1.02737
1.02664
1.0262
1.15645
1.20946
1.24492
1.25182
1.11059
0.95204
0.833898
0.768563
0.732264
0.732319
0.725609
0.833608
0.936284
0.977337
0.996139
1.01751
1.02462
1.03218
1.03698
1.03793
1.03958
1.03986
1.04001
1.03968
1.03884
1.03811
1.03717
1.03632
1.03563
1.03482
1.03415
1.03333
1.03252
1.03174
1.0309
1.03009
1.02927
1.02834
1.02755
1.02691
1.21147
1.28511
1.33593
1.28443
1.09546
0.890738
0.747874
0.677379
0.643276
0.65438
0.682125
0.798625
0.904758
0.946401
0.980908
1.00386
1.01731
1.02621
1.03328
1.03611
1.03863
1.03937
1.04004
1.04004
1.03991
1.03969
1.03908
1.03807
1.03724
1.0364
1.03559
1.03477
1.03375
1.03296
1.03197
1.03126
1.03046
1.02971
1.02904
1.02852
1.2797
1.37332
1.41234
1.29342
1.02513
0.776823
0.620105
0.562079
0.547372
0.58191
0.649084
0.77412
0.874909
0.918298
0.965937
0.989227
1.00839
1.01899
1.0282
1.03314
1.03677
1.03853
1.04004
1.04049
1.04061
1.0406
1.04057
1.03991
1.03927
1.03841
1.03729
1.03667
1.03546
1.03486
1.03353
1.03287
1.03168
1.03089
1.03
1.02955
1.36234
1.46492
1.43787
1.24746
0.871308
0.601137
0.46935
0.456907
0.480037
0.54357
0.638064
0.758039
0.853459
0.900028
0.950064
0.976688
0.996841
1.01168
1.02148
1.02898
1.03409
1.03754
1.03954
1.04053
1.04109
1.04105
1.04124
1.04072
1.04044
1.0397
1.03898
1.03829
1.03725
1.03656
1.03541
1.03455
1.03337
1.03263
1.03174
1.03128
1.44589
1.50291
1.42
1.15989
0.715445
0.45792
0.405982
0.450104
0.501236
0.567259
0.660069
0.757065
0.839438
0.88753
0.936759
0.964703
0.987156
1.00446
1.01473
1.02494
1.03092
1.0353
1.03806
1.03981
1.04104
1.0411
1.04158
1.04117
1.04124
1.04064
1.04009
1.03964
1.0387
1.03804
1.03676
1.03597
1.03468
1.03396
1.0329
1.03251
1.46399
1.46262
1.34085
1.15116
0.805773
0.625677
0.578322
0.596341
0.612212
0.640302
0.710766
0.773754
0.836264
0.883662
0.9304
0.957069
0.981987
0.999448
1.01063
1.02117
1.02735
1.03234
1.03629
1.03872
1.0405
1.04115
1.04222
1.04193
1.04259
1.04215
1.04181
1.04175
1.04094
1.04066
1.03936
1.03887
1.03736
1.03672
1.03555
1.03516
1.35513
1.33772
1.28608
1.23744
1.04086
0.932936
0.834161
0.775852
0.731624
0.725955
0.769246
0.806555
0.853518
0.890627
0.931334
0.957435
0.980144
0.997268
1.00973
1.01829
1.02788
1.03276
1.03682
1.04013
1.042
1.04303
1.04456
1.04416
1.04463
1.04446
1.04381
1.04384
1.04275
1.04246
1.04117
1.04057
1.0392
1.03855
1.03735
1.03684
1.16747
1.22633
1.24488
1.24561
1.11088
1.0486
0.935934
0.877305
0.817639
0.8133
0.830668
0.852727
0.888649
0.908214
0.939853
0.96313
0.982833
0.997619
1.01345
1.01946
1.02925
1.03463
1.03832
1.04194
1.04375
1.04464
1.04631
1.04599
1.04611
1.04622
1.04538
1.04542
1.04427
1.04393
1.04279
1.04211
1.04116
1.04046
1.03965
1.03929
0.991659
1.08884
1.14735
1.16461
1.08897
1.05071
0.958384
0.932456
0.884017
0.900324
0.894672
0.911348
0.929407
0.937979
0.958655
0.97578
0.991227
1.0015
1.0171
1.02131
1.02994
1.03486
1.03854
1.04106
1.04418
1.04417
1.04627
1.04607
1.04616
1.04622
1.0457
1.04542
1.04506
1.04411
1.04393
1.04284
1.0426
1.04162
1.04098
1.04048
0.835192
0.91966
0.985744
1.00728
0.996503
0.972066
0.938865
0.950081
0.935017
0.956873
0.963459
0.977851
0.980606
0.983755
0.987229
0.997972
1.0064
1.01229
1.02199
1.02707
1.03233
1.03605
1.04087
1.04128
1.04616
1.04536
1.04813
1.04815
1.04929
1.04907
1.0493
1.0481
1.04839
1.04666
1.04707
1.04555
1.04598
1.04452
1.04469
1.04429
0.671117
0.714672
0.783566
0.833077
0.850424
0.861782
0.889607
0.92924
0.953515
0.985776
1.00687
1.02266
1.04157
1.04331
1.03187
1.03588
1.03313
1.03711
1.03884
1.04236
1.04546
1.04644
1.05071
1.04954
1.05294
1.05259
1.05423
1.05453
1.05532
1.0553
1.05532
1.05392
1.05398
1.05175
1.05161
1.04925
1.04899
1.04682
1.0466
1.04572
0.571581
0.542825
0.603773
0.656251
0.675818
0.71847
0.794241
0.865768
0.930669
0.977936
1.02098
1.04705
1.07043
1.08178
1.08976
1.08113
1.07358
1.07147
1.06791
1.06564
1.06736
1.06346
1.0672
1.06392
1.06546
1.0636
1.06345
1.06276
1.06204
1.062
1.06111
1.06085
1.06011
1.05903
1.05842
1.0561
1.05566
1.05321
1.05275
1.05157
0.593947
0.505471
0.490528
0.482107
0.479168
0.536591
0.648922
0.753326
0.857821
0.946966
1.01437
1.05348
1.08233
1.10253
1.11406
1.1193
1.11634
1.10455
1.10116
1.09378
1.09147
1.08508
1.0841
1.07892
1.07912
1.07393
1.07438
1.06968
1.06978
1.06649
1.06617
1.06439
1.06326
1.06234
1.06049
1.05951
1.05836
1.0569
1.05702
1.05617
0.659938
0.583632
0.507781
0.44555
0.358249
0.344937
0.433971
0.567422
0.721747
0.865862
0.961686
1.03702
1.07959
1.10777
1.12519
1.13916
1.14281
1.14184
1.13302
1.12675
1.1187
1.11356
1.10632
1.1027
1.09806
1.09379
1.09142
1.08682
1.0855
1.08056
1.0798
1.07581
1.07426
1.07127
1.06942
1.06745
1.06574
1.06395
1.06349
1.06248
0.707912
0.69051
0.640687
0.569435
0.501167
0.378034
0.272834
0.312908
0.494229
0.689337
0.851516
0.970353
1.04148
1.09247
1.12497
1.14398
1.15984
1.16648
1.16757
1.16357
1.15609
1.14947
1.14082
1.13516
1.12676
1.12297
1.11495
1.11314
1.10572
1.10327
1.09805
1.09496
1.09001
1.08732
1.08368
1.08131
1.07864
1.07717
1.07623
1.07535
0.863269
0.845441
0.822853
0.763198
0.690957
0.645729
0.562851
0.355279
0.26586
0.432767
0.650742
0.821322
0.955939
1.04135
1.09842
1.13618
1.15965
1.17686
1.18707
1.19122
1.19269
1.19047
1.18785
1.18054
1.17475
1.16558
1.15825
1.15266
1.14517
1.14186
1.13437
1.13135
1.12395
1.12044
1.11362
1.11071
1.10397
1.10033
1.09446
1.09263
1.08955
1.03905
0.959281
0.867824
0.818862
0.812392
0.83472
0.775298
0.63722
0.385387
0.406467
0.598825
0.798524
0.917655
1.02107
1.0829
1.13314
1.16582
1.18734
1.19884
1.20609
1.20954
1.21158
1.21017
1.21187
1.20942
1.20644
1.20115
1.19683
1.18882
1.1877
1.18209
1.18049
1.17334
1.1691
1.164
1.15493
1.14928
1.13839
1.1337
1.2018
1.08377
0.973163
0.86161
0.794455
0.76631
0.789027
0.830838
0.857612
0.830459
0.732564
0.530394
0.417794
0.548199
0.716048
0.880112
0.979612
1.0564
1.11669
1.15389
1.1831
1.19747
1.21044
1.21728
1.22203
1.22393
1.22619
1.2253
1.22572
1.22167
1.21997
1.21626
1.21562
1.21458
1.21029
1.20839
1.20283
1.19961
1.19335
1.18725
1.05135
0.87427
0.692631
0.573229
0.463333
0.407395
0.453986
0.5452
0.617823
0.63738
0.626021
0.607364
0.580714
0.49183
0.321673
0.338243
0.470581
0.604786
0.733802
0.865275
0.973102
1.05419
1.10355
1.14967
1.17706
1.1993
1.2133
1.22166
1.23042
1.23238
1.23198
1.22663
1.22352
1.22603
1.22406
1.22525
1.22441
1.22519
1.22913
1.23285
0.192372
0.0565596
0.0983665
0.149659
0.214761
0.279041
0.352617
0.414303
0.452189
0.464423
0.47256
0.439087
0.418381
0.390854
0.386992
0.376094
0.308394
0.281384
0.264361
0.194814
0.277189
0.398592
0.516128
0.629274
0.723759
0.800245
0.868121
0.930616
0.978765
1.02837
1.06809
1.10659
1.13337
1.15609
1.1807
1.19758
1.2192
1.22988
1.24349
1.24607
0.332304
0.358978
0.37551
0.403451
0.419134
0.43843
0.438417
0.444093
0.422648
0.388372
0.342625
0.291651
0.252334
0.220052
0.172179
0.155303
0.167295
0.196807
0.232299
0.235861
0.272744
0.345641
0.363838
0.269707
0.357288
0.528198
0.58901
0.640247
0.684058
0.722573
0.758454
0.792119
0.832111
0.867766
0.907701
0.946844
0.987228
1.03608
1.08478
1.14102
1.01837
1.01574
1.01254
1.00843
1.00312
0.997149
0.992352
0.989287
0.989996
0.99339
1.00102
1.0089
1.01607
1.01745
1.01758
1.01687
1.0164
1.01613
1.01617
1.0161
1.01605
1.01595
1.01583
1.01569
1.01551
1.01533
1.01513
1.0149
1.01466
1.0144
1.01412
1.01382
1.0135
1.01317
1.01281
1.01243
1.01203
1.01161
1.01112
1.01074
1.01168
1.01604
1.01896
1.02329
1.02693
1.03008
1.03086
1.03111
1.03032
1.02777
1.02301
1.01831
1.01681
1.01664
1.01691
1.01732
1.01769
1.01781
1.0178
1.01774
1.01761
1.01743
1.01721
1.01698
1.01678
1.01655
1.01626
1.01595
1.01563
1.01533
1.01502
1.01467
1.01433
1.01395
1.01349
1.01299
1.01246
1.01199
1.01162
1.01135
1.01603
1.01319
1.01102
1.00838
1.00725
1.0079
1.00958
1.01115
1.01284
1.01396
1.0149
1.01528
1.01573
1.01641
1.01701
1.01741
1.01766
1.01774
1.01772
1.01769
1.01767
1.01756
1.01735
1.01712
1.01692
1.01669
1.01644
1.01616
1.01587
1.01562
1.01532
1.015
1.0146
1.0143
1.01389
1.01343
1.01291
1.01256
1.01228
1.01215
1.01775
1.02204
1.02385
1.02718
1.02794
1.02863
1.02866
1.02834
1.02705
1.02498
1.02273
1.02044
1.01908
1.01865
1.01862
1.01866
1.01866
1.01857
1.01837
1.01818
1.01802
1.01791
1.01779
1.01757
1.01731
1.01702
1.01671
1.01643
1.01618
1.01592
1.0156
1.0152
1.01485
1.01449
1.01408
1.01361
1.01308
1.01272
1.01252
1.01232
1.01399
1.01265
1.01221
1.01205
1.01304
1.01374
1.01451
1.01508
1.0155
1.0161
1.01666
1.01712
1.01744
1.01753
1.01779
1.01791
1.01818
1.01819
1.01818
1.01797
1.01791
1.01778
1.01776
1.01756
1.01736
1.01711
1.01683
1.01659
1.01635
1.01619
1.01588
1.01556
1.01519
1.01487
1.01445
1.01405
1.01355
1.01328
1.01305
1.01287
1.0194
1.02191
1.02316
1.0246
1.02519
1.02544
1.02547
1.025
1.02419
1.02312
1.0221
1.02118
1.02051
1.01993
1.01966
1.01958
1.01949
1.01921
1.01881
1.01855
1.01844
1.01838
1.01823
1.01788
1.01765
1.01732
1.01704
1.01679
1.01651
1.0163
1.01598
1.01557
1.01518
1.01477
1.01445
1.01403
1.0136
1.01336
1.01313
1.01286
1.01479
1.0148
1.01501
1.01543
1.01619
1.01661
1.01693
1.01719
1.01742
1.01782
1.01815
1.01843
1.01853
1.01858
1.01864
1.0188
1.01892
1.01883
1.01858
1.01847
1.01843
1.01838
1.01823
1.01809
1.01779
1.01755
1.01725
1.01704
1.0169
1.01669
1.01643
1.01608
1.01558
1.01522
1.01484
1.01447
1.01407
1.01389
1.01367
1.01331
1.01984
1.02146
1.02211
1.02283
1.02309
1.02329
1.02305
1.02283
1.02233
1.02208
1.02171
1.02146
1.02093
1.02054
1.02031
1.02027
1.02013
1.01971
1.01932
1.01916
1.01909
1.01886
1.01858
1.01834
1.0181
1.01773
1.01747
1.01721
1.01701
1.01677
1.01642
1.01606
1.01553
1.01521
1.0149
1.01449
1.01417
1.01391
1.01361
1.01326
1.01717
1.01751
1.01759
1.01787
1.01808
1.01839
1.01855
1.01884
1.01901
1.01929
1.01945
1.01957
1.01958
1.01959
1.01969
1.0198
1.0197
1.01956
1.01937
1.01932
1.01923
1.01915
1.01892
1.01867
1.01842
1.01812
1.01783
1.01767
1.01755
1.01736
1.01705
1.01657
1.01608
1.01574
1.01536
1.01499
1.01468
1.0144
1.01405
1.01368
1.0204