/*--------------------------------*- C++ -*----------------------------------*\
  =========                 |
  \\      /  F ield         | OpenFOAM: The Open Source CFD Toolbox
   \\    /   O peration     | Website:  https://openfoam.org
    \\  /    A nd           | Version:  11
     \\/     M anipulation  |
\*---------------------------------------------------------------------------*/
FoamFile
{
    format      ascii;
    class       volScalarField;
    location    "8.5";
    object      p;
}
// * * * * * * * * * * * * * * * * * * * * * * * * * * * * * * * * * * * * * //

dimensions      [0 2 -2 0 0 0 0];

internalField   nonuniform List<scalar> 
9600
(
0.0480071
0.0485632
0.049409
0.0505129
0.0517379
0.052961
0.0540101
0.0546222
0.0545618
0.0537736
0.0520455
0.049057
0.0439892
0.0368538
0.0273381
0.0155304
0.0019088
-0.0126707
-0.0274857
-0.0403395
-0.0492563
-0.0523281
-0.0493078
-0.0410462
-0.0286269
-0.0156575
-0.00417753
0.00524215
0.0112562
0.014752
0.0178182
0.0206614
0.0239764
0.0280329
0.0331232
0.0399613
0.0490602
0.0588843
0.0681726
0.07007
0.0483401
0.0490858
0.0501543
0.0513663
0.0526229
0.0538035
0.0546865
0.0550178
0.0546537
0.0535674
0.0515603
0.047851
0.0422669
0.0348596
0.0251812
0.0134287
6.18746e-06
-0.0142377
-0.0285746
-0.0409166
-0.0495389
-0.0526831
-0.0502628
-0.0426482
-0.0310463
-0.0184502
-0.00688093
0.0029254
0.00939551
0.0133786
0.0164663
0.0189609
0.0216652
0.0249708
0.0290651
0.03442
0.0420091
0.0525789
0.0630332
0.0762061
0.0485737
0.0493398
0.0504343
0.0516037
0.0527485
0.0537566
0.0544484
0.0546147
0.0541132
0.0529104
0.0507297
0.0470159
0.0414801
0.0340311
0.0244109
0.0126952
-0.000626567
-0.014712
-0.0288621
-0.041085
-0.0496718
-0.0529634
-0.0506268
-0.0431882
-0.0315345
-0.0190371
-0.00745688
0.00234314
0.00890413
0.0126855
0.0160751
0.0189516
0.0220246
0.0254409
0.0299265
0.0342653
0.0405898
0.0491101
0.0583475
0.0697941
0.0488608
0.0496983
0.0509217
0.0521886
0.0533664
0.0543687
0.0549942
0.0550464
0.0544111
0.0530192
0.0505477
0.0465317
0.0405931
0.0328531
0.0230216
0.0112776
-0.0019706
-0.0159456
-0.0299567
-0.0419631
-0.0504537
-0.0537939
-0.0519677
-0.0447985
-0.0335497
-0.0213134
-0.00938048
0.000663294
0.00797033
0.0118769
0.0145672
0.0170733
0.0196748
0.0224313
0.0262302
0.030669
0.0364034
0.0438756
0.0542133
0.0668079
0.0492161
0.0501148
0.0514174
0.0526951
0.0537909
0.0546028
0.0549691
0.0547542
0.053865
0.0522439
0.0495426
0.0453313
0.0393691
0.031657
0.0218275
0.0100941
-0.00308095
-0.0169369
-0.0307827
-0.0426533
-0.0510491
-0.0543891
-0.0528584
-0.0459551
-0.034744
-0.0225679
-0.0106215
-0.000627648
0.00698634
0.011512
0.0137138
0.016151
0.0192999
0.022321
0.0261693
0.0303083
0.0342292
0.0391596
0.048299
0.0605518
0.0496343
0.0505647
0.0519166
0.0531962
0.0542247
0.0549035
0.0551457
0.0548595
0.0539551
0.0522423
0.0493727
0.0450248
0.038764
0.0306967
0.0207179
0.00892481
-0.00423423
-0.0180421
-0.0318186
-0.04368
-0.0521405
-0.055627
-0.0543491
-0.047652
-0.0367649
-0.0242978
-0.0121995
-0.00197575
0.00595496
0.0110761
0.0131814
0.0146815
0.0170453
0.0197498
0.0232047
0.0276612
0.0320345
0.0363867
0.043283
0.0539345
0.0500926
0.0510442
0.0524246
0.0536972
0.054665
0.0552209
0.0553071
0.0548636
0.0537249
0.0516978
0.0485154
0.0438712
0.0375827
0.0295365
0.0195199
0.0076973
-0.00545558
-0.0192646
-0.0330252
-0.0448899
-0.0533362
-0.0569565
-0.0557896
-0.0493092
-0.03863
-0.0260078
-0.0137225
-0.00325526
0.00501816
0.0100881
0.012641
0.0136609
0.0156479
0.0185192
0.0217542
0.0258764
0.0301505
0.033943
0.0373699
0.0459689
0.0505913
0.051556
0.0529438
0.0542068
0.0551117
0.055524
0.0554438
0.054824
0.0535349
0.051393
0.048129
0.0434772
0.0369277
0.0286104
0.0184567
0.00651787
-0.00669616
-0.0205736
-0.0343456
-0.046261
-0.0547327
-0.0585165
-0.0574554
-0.051315
-0.0407603
-0.0279504
-0.0153952
-0.00453675
0.00408473
0.00934486
0.0122811
0.013161
0.0140328
0.0162642
0.0191835
0.0231867
0.0277297
0.0320831
0.0355985
0.0411109
0.0511311
0.0520929
0.0534828
0.0547216
0.0555449
0.0558162
0.0555733
0.0548001
0.0533761
0.051104
0.0476201
0.0426634
0.0359744
0.0275493
0.0172859
0.00524645
-0.00804228
-0.0220323
-0.0358542
-0.0479004
-0.0564503
-0.0604034
-0.059459
-0.0535546
-0.0430733
-0.0300337
-0.0171487
-0.00587666
0.00317196
0.00884464
0.0116106
0.0126431
0.0125772
0.0141243
0.0169732
0.0208008
0.0251987
0.0297434
0.0329073
0.0358212
0.0517058
0.0526601
0.0540411
0.0552359
0.0559711
0.0561063
0.0557101
0.0547932
0.053233
0.0508136
0.047154
0.0420232
0.035197
0.0265969
0.0161936
0.00398125
-0.00942556
-0.0235881
-0.0374978
-0.0497104
-0.0583589
-0.0624836
-0.0616478
-0.0559179
-0.0455484
-0.032306
-0.0190254
-0.00732511
0.0022488
0.0084749
0.0111688
0.0125206
0.0116473
0.0122408
0.014482
0.0178404
0.0219993
0.0267492
0.030671
0.0333908
0.0523163
0.0532544
0.054611
0.0557504
0.0563979
0.0564056
0.0558666
0.0548098
0.0531055
0.0505503
0.0467198
0.0414273
0.0344168
0.0256099
0.0150424
0.00261626
-0.0109478
-0.0252961
-0.0393584
-0.0518027
-0.0605892
-0.0649163
-0.0642321
-0.0585648
-0.0483149
-0.0349513
-0.0211344
-0.00886268
0.00122228
0.00821112
0.0112666
0.0124109
0.0109305
0.0104274
0.0116599
0.0146328
0.0186712
0.0233872
0.0276848
0.0302226
0.0529627
0.0538708
0.055196
0.0562782
0.0568349
0.0567169
0.0560541
0.0548614
0.0530065
0.0503165
0.0463255
0.0408472
0.0336655
0.0246204
0.0138574
0.00121032
-0.0125549
-0.027149
-0.0414302
-0.0541065
-0.0630848
-0.0675955
-0.0670869
-0.061423
-0.0513093
-0.0378653
-0.0235294
-0.0104898
0.000182502
0.00800894
0.0116245
0.012287
0.0106393
0.00932483
0.00914726
0.0112718
0.015086
0.0193726
0.0239022
0.0269148
0.0536373
0.0545124
0.0558058
0.0568225
0.0572963
0.0570587
0.0562551
0.0549472
0.0529673
0.0501223
0.0459628
0.0402933
0.0329213
0.023617
0.0126364
-0.000278985
-0.0143036
-0.029204
-0.043737
-0.0566874
-0.0659198
-0.0706218
-0.0703332
-0.0646836
-0.0546066
-0.04107
-0.0262849
-0.012389
-0.000981152
0.00770556
0.0120412
0.0127978
0.010664
0.00856476
0.00712756
0.00782692
0.0110438
0.0149265
0.0197133
0.0228862
0.0543497
0.0551881
0.0564415
0.0573928
0.0577807
0.0574382
0.0565042
0.0550834
0.0529744
0.0499776
0.0456397
0.0397654
0.03219
0.0225996
0.011342
-0.00186547
-0.0162073
-0.0314527
-0.0463139
-0.059529
-0.0690843
-0.0740061
-0.0739275
-0.0683303
-0.0582542
-0.0446208
-0.0294111
-0.014612
-0.00226662
0.00736034
0.0126168
0.0136325
0.011332
0.0081941
0.00559904
0.00469017
0.00690178
0.0102377
0.0146815
0.0180196
0.0551035
0.0559062
0.0571184
0.0580064
0.0583004
0.0578538
0.0568132
0.0553022
0.0530431
0.0498627
0.045359
0.0392583
0.0314522
0.0215405
0.00996524
-0.0035707
-0.0182923
-0.0339207
-0.0491765
-0.0627007
-0.0726099
-0.077782
-0.0779511
-0.072482
-0.062371
-0.0485245
-0.0329496
-0.0173004
-0.00381737
0.00690039
0.0131751
0.0150149
0.0125747
0.00827949
0.00474793
0.00214382
0.00258247
0.00511386
0.00916952
0.0126976
0.0559057
0.0566689
0.057846
0.0586652
0.0588727
0.0583433
0.0571807
0.055576
0.0531908
0.0498113
0.0451017
0.0387625
0.030698
0.0204404
0.0084807
-0.00541553
-0.0205953
-0.036615
-0.0523681
-0.066203
-0.0765204
-0.0819872
-0.0824026
-0.0771169
-0.0669776
-0.0529303
-0.0369067
-0.0205047
-0.00584069
0.00623225
0.0138523
0.0166392
0.0145056
0.009355
0.00483706
0.000271881
-0.00167248
-0.000266689
0.00317989
0.00664617
0.0567699
0.0574974
0.0586321
0.0593842
0.0595012
0.0589182
0.057663
0.0559082
0.0533864
0.0498359
0.0449014
0.0382261
0.0298915
0.0192828
0.00686538
-0.00742926
-0.0231266
-0.0396063
-0.055894
-0.0700936
-0.0808555
-0.0866551
-0.0873453
-0.0826318
-0.0726569
-0.0580292
-0.0413353
-0.0241674
-0.00844863
0.00498032
0.0144446
0.0183285
0.0172778
0.0116999
0.00488404
-0.000790948
-0.00529189
-0.00567176
-0.00328822
-0.000207356
0.0577065
0.0583957
0.0594966
0.0601906
0.0602075
0.059563
0.058258
0.0563611
0.0536747
0.0498847
0.0448018
0.0376869
0.0289851
0.0180731
0.00508424
-0.00963106
-0.0259202
-0.0429715
-0.059799
-0.0743793
-0.0856058
-0.0918608
-0.0927918
-0.0882843
-0.0784222
-0.0637938
-0.0465867
-0.0284195
-0.0114861
0.00305573
0.0145139
0.0201686
0.020497
0.0153891
0.0072255
-0.00219355
-0.0084489
-0.0113119
-0.0102497
-0.00759454
0.0587365
0.0594008
0.0604433
0.0610867
0.0610441
0.0603301
0.0589577
0.0568845
0.0540835
0.0499425
0.0445898
0.0372383
0.0279525
0.0166928
0.00318027
-0.0121159
-0.0290435
-0.0466368
-0.0641395
-0.0791815
-0.0908054
-0.0976266
-0.0988373
-0.0945644
-0.0849049
-0.0702338
-0.0526892
-0.0336398
-0.015345
0.000633482
0.014025
0.0216843
0.0240369
0.0198925
0.0114932
0.000298612
-0.00971978
-0.0162232
-0.0177485
-0.0159457
0.0598845
0.0605236
0.0615024
0.0620899
0.0620248
0.0612386
0.0598036
0.0574974
0.054499
0.0502195
0.0443356
0.0366868
0.0269138
0.015118
0.00105955
-0.0148425
-0.0325733
-0.0507216
-0.068861
-0.084591
-0.0965541
-0.103928
-0.10555
-0.101579
-0.0921421
-0.0775203
-0.0595983
-0.0399194
-0.0202824
-0.00264212
0.012877
0.0227837
0.027241
0.0251063
0.0175064
0.00458035
-0.00832312
-0.0191449
-0.0250479
-0.0253916
0.0611659
0.0617715
0.0627128
0.0632671
0.0631521
0.062285
0.0607406
0.0583239
0.0549501
0.0504143
0.0441514
0.0360905
0.0257055
0.0133548
-0.00133417
-0.0179515
-0.0364255
-0.0554019
-0.0740438
-0.0905521
-0.103019
-0.110794
-0.113001
-0.109453
-0.100211
-0.0857248
-0.067562
-0.0473319
-0.0264418
-0.00724645
0.0104568
0.0233261
0.0302088
0.0304713
0.0247322
0.0117071
-0.00398173
-0.0206979
-0.0312635
-0.0353274
0.0626123
0.0631704
0.0640635
0.0646222
0.0645146
0.0635676
0.06178
0.0591996
0.0555275
0.0506974
0.0438809
0.0353389
0.0244223
0.0112791
-0.00399373
-0.0215068
-0.040716
-0.0606574
-0.0798993
-0.0969878
-0.110242
-0.118417
-0.121099
-0.118181
-0.109256
-0.0949854
-0.0766529
-0.0560111
-0.0339036
-0.0131199
0.00628637
0.0221157
0.0324707
0.0357861
0.0325253
0.0216381
0.00468549
-0.0166778
-0.0347803
-0.0450363
0.0642379
0.064788
0.0656784
0.0661854
0.0660259
0.0649971
0.0630496
0.0602497
0.0561256
0.0508947
0.043665
0.0343968
0.0228972
0.00891681
-0.00708335
-0.0255467
-0.0455821
-0.0664181
-0.0866029
-0.104122
-0.118097
-0.126988
-0.130007
-0.127752
-0.119387
-0.105495
-0.087012
-0.0661297
-0.0431453
-0.0206453
0.000536886
0.0187773
0.0325244
0.0400151
0.0402519
0.0329698
0.0176404
-0.00657135
-0.0305766
-0.0515438
0.0660865
0.0666469
0.0675884
0.0680619
0.0677904
0.0666274
0.0644565
0.0613875
0.0568795
0.0510456
0.0433358
0.0332853
0.0211117
0.00617987
-0.0106998
-0.0300614
-0.0512662
-0.072793
-0.0939426
-0.112324
-0.126657
-0.136404
-0.139956
-0.13827
-0.130633
-0.117368
-0.0989389
-0.0777978
-0.0540731
-0.0303219
-0.00729719
0.0133697
0.0300472
0.0417693
0.0465868
0.0440402
0.0327074
0.0107968
-0.0163181
-0.0476984
0.0682935
0.0688274
0.0697832
0.0702249
0.0698395
0.0685147
0.0660237
0.0625398
0.0576267
0.0510904
0.0428166
0.0319232
0.0189309
0.00313393
-0.0150725
-0.0352348
-0.0576388
-0.0802734
-0.101937
-0.121442
-0.136296
-0.146691
-0.151083
-0.149952
-0.143026
-0.130715
-0.112676
-0.0913602
-0.0673427
-0.0423805
-0.0178268
0.00523023
0.0247692
0.0402922
0.049882
0.0529731
0.0470377
0.0320136
0.0065201
-0.0256039
0.0709002
0.0714086
0.0723031
0.072714
0.0722009
0.0706132
0.0677836
0.0637248
0.0583681
0.0511357
0.0420099
0.0303361
0.0161279
-0.000485077
-0.019998
-0.0414851
-0.0647236
-0.0888384
-0.111063
-0.131378
-0.14715
-0.158034
-0.163263
-0.16302
-0.156762
-0.145435
-0.12837
-0.107134
-0.082978
-0.0571244
-0.0312468
-0.00617462
0.0160019
0.0349772
0.0487463
0.0578151
0.0574359
0.0515956
0.0313888
0.00524891
0.0739456
0.074435
0.075323
0.0755677
0.0748335
0.0728678
0.0697229
0.0650357
0.0589946
0.0510042
0.0407882
0.0282569
0.0128872
-0.0051905
-0.0256275
-0.0487837
-0.0730829
-0.0982686
-0.121592
-0.142444
-0.159133
-0.170732
-0.176665
-0.177427
-0.172157
-0.161694
-0.146051
-0.125483
-0.1014
-0.0749303
-0.0476329
-0.0209367
0.00335149
0.025156
0.0424055
0.0561132
0.062056
0.0644291
0.0532007
0.0346509
0.0776098
0.0779843
0.0788335
0.0788313
0.0777856
0.0754048
0.0717062
0.0663502
0.0594384
0.0505052
0.0392741
0.0253236
0.0088785
-0.0107091
-0.032705
-0.0570936
-0.0829361
-0.108989
-0.133468
-0.155012
-0.172324
-0.184841
-0.191511
-0.193151
-0.189323
-0.179908
-0.16572
-0.146511
-0.123083
-0.0963114
-0.0682392
-0.0397688
-0.0134944
0.0106374
0.0310985
0.047881
0.0602247
0.066231
0.0663773
0.0553127
0.0818917
0.0820293
0.0828148
0.082605
0.0810767
0.0781169
0.0737837
0.067598
0.0596702
0.0495589
0.0370093
0.0217475
0.00352208
-0.0173687
-0.04123
-0.0669609
-0.094374
-0.121483
-0.1467
-0.169219
-0.187227
-0.200385
-0.208109
-0.210541
-0.208095
-0.200244
-0.187714
-0.170326
-0.148378
-0.121931
-0.093365
-0.0634085
-0.034974
-0.00862752
0.0149882
0.0340138
0.0500678
0.0598674
0.0645105
0.0608076
0.0869016
0.0867951
0.0873295
0.0867767
0.0848038
0.0810534
0.0756541
0.0685975
0.0594267
0.0480094
0.0335937
0.0169719
-0.00310404
-0.0259033
-0.0514123
-0.0790062
-0.107566
-0.135933
-0.162032
-0.185071
-0.203958
-0.217701
-0.226395
-0.229829
-0.228665
-0.222567
-0.212294
-0.197
-0.177457
-0.152404
-0.123996
-0.0931705
-0.0621292
-0.0334901
-0.00707035
0.0152983
0.0337209
0.0473269
0.0548627
0.0553466
0.0929995
0.0924299
0.0924385
0.0913629
0.088645
0.084104
0.0776195
0.0693092
0.0583857
0.0453955
0.0292641
0.010255
-0.0115566
-0.0366453
-0.0639376
-0.0933056
-0.123357
-0.15264
-0.179787
-0.20299
-0.222735
-0.236862
-0.246711
-0.250893
-0.25154
-0.247071
-0.239209
-0.226974
-0.210129
-0.188239
-0.160967
-0.130299
-0.0976722
-0.0658015
-0.0366167
-0.0105638
0.0116945
0.028998
0.0408739
0.0475067
0.100053
0.0988658
0.0981313
0.096347
0.0925036
0.0867971
0.0788559
0.0686839
0.0560701
0.0407449
0.0225571
0.00112366
-0.0229344
-0.0501526
-0.0797269
-0.110625
-0.14238
-0.172116
-0.20021
-0.223772
-0.243813
-0.258363
-0.268822
-0.274207
-0.275717
-0.274064
-0.268573
-0.259929
-0.246918
-0.228933
-0.205201
-0.176143
-0.143252
-0.109219
-0.0757901
-0.0456213
-0.0192286
0.00336238
0.0203716
0.0323937
0.108109
0.106234
0.104627
0.10175
0.0969375
0.0896968
0.0799318
0.0673759
0.0522176
0.0340795
0.0132037
-0.0107695
-0.0378273
-0.0672956
-0.0991555
-0.131899
-0.164774
-0.195698
-0.223791
-0.247945
-0.267605
-0.282603
-0.293136
-0.299653
-0.302221
-0.302806
-0.300524
-0.295872
-0.287463
-0.274716
-0.256166
-0.23132
-0.201142
-0.166707
-0.130883
-0.0955286
-0.063288
-0.034985
-0.0112821
0.00560829
0.116947
0.113936
0.111107
0.10636
0.0994703
0.0898456
0.0775809
0.0625187
0.0443259
0.0230189
-0.00109473
-0.0280109
-0.0579399
-0.0902113
-0.124061
-0.158647
-0.192208
-0.223855
-0.251583
-0.275845
-0.295261
-0.309869
-0.320314
-0.327146
-0.331148
-0.33404
-0.33526
-0.334814
-0.332002
-0.325322
-0.313526
-0.295899
-0.271448
-0.241147
-0.206081
-0.168182
-0.130788
-0.0951897
-0.0636591
-0.0390783
0.128582
0.123969
0.119403
0.112557
0.102864
0.0898118
0.0736371
0.0546888
0.0325426
0.00734215
-0.0209017
-0.0512827
-0.0842879
-0.119257
-0.155203
-0.191215
-0.225116
-0.257225
-0.284303
-0.307625
-0.326072
-0.339381
-0.349001
-0.355867
-0.360852
-0.365225
-0.370638
-0.375735
-0.37965
-0.380784
-0.377807
-0.369113
-0.354915
-0.333814
-0.304878
-0.271063
-0.231753
-0.192416
-0.154954
-0.122945
0.135443
0.127221
0.119495
0.109401
0.0963188
0.0800662
0.0602333
0.0369781
0.0103726
-0.0188988
-0.0506982
-0.0849223
-0.120608
-0.157996
-0.195223
-0.231968
-0.265859
-0.296632
-0.322892
-0.343728
-0.360282
-0.371202
-0.378946
-0.385113
-0.389995
-0.396161
-0.402942
-0.411486
-0.421449
-0.433319
-0.444209
-0.451076
-0.450643
-0.444092
-0.432019
-0.40898
-0.378024
-0.341529
-0.302316
-0.268349
0.158899
0.14726
0.132795
0.114552
0.0923488
0.066213
0.0375841
0.00646712
-0.0267682
-0.0623304
-0.0996191
-0.138137
-0.178033
-0.21766
-0.256632
-0.293315
-0.326056
-0.354102
-0.376457
-0.392773
-0.403414
-0.409818
-0.4133
-0.416854
-0.421643
-0.427525
-0.435382
-0.444929
-0.455937
-0.469551
-0.486983
-0.510839
-0.538661
-0.563433
-0.5794
-0.581515
-0.570853
-0.550834
-0.52628
-0.501075
0.12473
0.104318
0.0839449
0.062079
0.0371471
0.00791407
-0.0248671
-0.0610811
-0.0992745
-0.140051
-0.182001
-0.2244
-0.267161
-0.309058
-0.348951
-0.385816
-0.417293
-0.442925
-0.460774
-0.471529
-0.475715
-0.474573
-0.471295
-0.468032
-0.468801
-0.472813
-0.481273
-0.491097
-0.498605
-0.501427
-0.501546
-0.513782
-0.552553
-0.612419
-0.674836
-0.725252
-0.764221
-0.796084
-0.820709
-0.83075
0.190586
0.156344
0.116828
0.0767893
0.0376947
-0.00294861
-0.0449691
-0.089312
-0.134229
-0.179819
-0.224925
-0.268276
-0.310156
-0.348502
-0.382585
-0.41227
-0.436441
-0.454745
-0.465612
-0.469662
-0.466178
-0.458876
-0.44805
-0.437591
-0.433002
-0.437293
-0.455755
-0.487081
-0.522514
-0.52983
-0.497164
-0.451948
-0.435744
-0.461198
-0.497825
-0.536714
-0.578124
-0.622602
-0.66937
-0.715119
-0.10263
-0.138707
-0.179731
-0.231765
-0.286912
-0.342611
-0.396861
-0.450997
-0.50373
-0.551083
-0.59129
-0.625288
-0.65608
-0.682725
-0.703
-0.715841
-0.72314
-0.723876
-0.71729
-0.702468
-0.679233
-0.649991
-0.614858
-0.578775
-0.545126
-0.522718
-0.513956
-0.524382
-0.553765
-0.560008
-0.55349
-0.54804
-0.539372
-0.538762
-0.541932
-0.547674
-0.556494
-0.569582
-0.585885
-0.601358
0.0490359
-0.0111239
-0.134004
-0.119411
-0.0946084
-0.0706067
-0.0546763
-0.0349288
-0.0177002
-0.00776281
-0.00245929
-0.00122378
0.00054487
0.00058124
0.000760067
0.000550658
0.000470845
8.49115e-05
0.00023825
5.92859e-05
0.00023347
0.000223877
0.00037379
0.000449494
0.000638027
0.000781934
0.000988563
0.00116376
0.00136825
0.0014966
0.00162491
0.00169482
0.00183136
0.00193646
0.00211139
0.00227536
0.00227983
0.00207742
0.00115432
0.00220655
0.0621509
0.0108276
-0.0898293
-0.0852839
-0.0826676
-0.0742664
-0.0688142
-0.0459139
-0.0253416
-0.0105191
-0.00324932
-0.00138136
0.000494336
0.000739943
0.000838232
0.000650164
0.000470231
6.56274e-05
0.000112822
-5.84327e-05
0.000116696
8.80864e-05
0.00023009
0.00032091
0.000485331
0.000643804
0.000831423
0.00102209
0.00121633
0.00136376
0.00150044
0.00161165
0.00175204
0.00187481
0.00206687
0.00222362
0.00231577
0.00213942
0.00181907
0.00239324
0.0683388
0.0232308
-0.0546748
-0.0586918
-0.0722636
-0.0816628
-0.0844675
-0.0610675
-0.0350751
-0.0141652
-0.00435725
-0.00135133
0.000460671
0.000958796
0.00104369
0.00087715
0.000614458
0.000207833
0.00011138
-9.55448e-05
1.75481e-05
-7.29631e-05
7.6935e-05
0.000145457
0.000322164
0.000464246
0.000640109
0.000814961
0.00101491
0.00117103
0.00133911
0.0014759
0.00164316
0.00181103
0.00203514
0.0021994
0.00232336
0.00224227
0.00197628
0.00196705
0.0719224
0.0291817
-0.0302952
-0.0406781
-0.0659078
-0.0903346
-0.102073
-0.0793506
-0.0473664
-0.0189167
-0.00615162
-0.00118677
0.000402594
0.00114982
0.00139447
0.00119652
0.000829529
0.000430942
0.000213005
-8.41746e-07
4.53722e-05
-3.89258e-05
0.000139872
0.000183419
0.000388842
0.000514359
0.000684218
0.000832878
0.00101981
0.00115831
0.00132477
0.00145998
0.00164355
0.00183874
0.00204882
0.0022093
0.00237079
0.00239282
0.00245311
0.00292426
0.0687923
0.0288805
-0.0149816
-0.0284342
-0.0633667
-0.0991819
-0.123102
-0.101751
-0.0636774
-0.0257268
-0.00840358
-0.000986355
0.00026967
0.00127741
0.0017459
0.00143231
0.00096302
0.00058969
0.000329117
0.000159179
0.000153773
0.000153624
0.00031327
0.000347568
0.000568859
0.000684234
0.000852004
0.000994906
0.00113826
0.00125259
0.00137741
0.00150333
0.00166236
0.00184108
0.00200448
0.00217627
0.00232833
0.00233858
0.00208162
0.00171074
0.0644181
0.0244194
-0.00845265
-0.0207006
-0.0634373
-0.108383
-0.146327
-0.131245
-0.0813496
-0.0349368
-0.0104836
-0.00116271
0.000175393
0.00147298
0.00188566
0.00143105
0.000960652
0.000629538
0.000284581
0.000160982
7.34716e-05
0.000147762
0.000225526
0.000245452
0.00042812
0.000555285
0.000703777
0.000866226
0.000982443
0.00111072
0.00121516
0.00136102
0.001487
0.00165767
0.00180753
0.00200734
0.00218708
0.00233689
0.00259915
0.00302073
0.0561056
0.019122
-0.00573639
-0.0165542
-0.0645523
-0.117278
-0.170026
-0.164895
-0.0988233
-0.0466741
-0.0120473
-0.00160482
0.000410863
0.00209762
0.00198366
0.00144272
0.0010861
0.000602058
6.83949e-05
-7.36357e-06
-0.000268626
-0.000155519
-0.000199101
-0.000155068
-6.94522e-05
0.000105139
0.000214115
0.000453447
0.000567202
0.000757671
0.000900137
0.00108491
0.0012171
0.00141222
0.001575
0.001817
0.00200695
0.00211947
0.00202685
0.00183287
0.0481221
0.0149986
-0.00461
-0.0151533
-0.0656827
-0.12505
-0.191168
-0.196828
-0.118627
-0.056373
-0.0130559
-0.00190146
0.00137176
0.00327423
0.00248342
0.00193902
0.00156567
0.000728895
0.000144666
-1.57723e-05
-0.000400779
-0.000296381
-0.000426855
-0.000364895
-0.000341804
-0.000138869
-3.26703e-05
0.000269624
0.000390983
0.000654491
0.000807115
0.000995742
0.00114425
0.00132875
0.00148969
0.00171534
0.0018992
0.00212134
0.00243712
0.00291737
0.0425936
0.0125008
-0.00295426
-0.0177783
-0.0661789
-0.129636
-0.205257
-0.218422
-0.139861
-0.0609216
-0.0149875
-0.000860919
0.00287666
0.00447963
0.00348112
0.00287421
0.00233831
0.00126514
0.000680797
0.000352886
-4.89916e-05
-2.39582e-05
-0.000198807
-0.00014547
-0.000127068
2.92615e-05
0.000188318
0.000432966
0.000594304
0.000840011
0.00100053
0.00116265
0.0012952
0.00144021
0.00157601
0.00175939
0.00190786
0.00201478
0.00202451
0.00208204
0.0386079
0.0136724
-0.00521828
-0.0245344
-0.0681453
-0.132396
-0.204568
-0.220968
-0.148201
-0.0604898
-0.0189016
0.00299779
0.00414507
0.00517975
0.00450852
0.00368041
0.00286364
0.0018083
0.00110151
0.00061202
0.00018432
0.00013495
-5.13394e-05
-5.85719e-05
-2.52588e-05
7.13956e-05
0.000271935
0.000422283
0.00062665
0.000833754
0.00104853
0.00123608
0.00141443
0.00154866
0.00169005
0.0017951
0.00192059
0.0020625
0.00229996
0.0026879
0.03473
0.0141056
-0.00618141
-0.0296564
-0.0733349
-0.131979
-0.186288
-0.197216
-0.131561
-0.056282
-0.0186931
0.00768879
0.00594649
0.0058536
0.0057152
0.00407713
0.00284134
0.0019296
0.00104078
0.000378163
-7.84437e-05
-0.000253426
-0.000431835
-0.000532945
-0.0004602
-0.000424228
-0.000217419
-0.000134987
0.000120562
0.000333221
0.000644868
0.000857997
0.00112564
0.00130712
0.00147314
0.00159564
0.00177375
0.00190843
0.00202099
0.00210242
0.0308546
0.0115583
-0.00944555
-0.0316444
-0.0705846
-0.122909
-0.159596
-0.165209
-0.110751
-0.0516022
-0.0103028
0.00968987
0.0100648
0.00785132
0.00720829
0.00478197
0.0030225
0.00208762
0.00108758
0.0002913
-0.000242531
-0.000568327
-0.000784589
-0.000950939
-0.000923832
-0.000923844
-0.000777254
-0.000669052
-0.000430749
-0.000246525
2.94927e-05
0.000269739
0.000583092
0.000782888
0.00100238
0.00120053
0.00143138
0.00167346
0.00200919
0.00240117
0.0266678
0.0083615
-0.0147178
-0.0377284
-0.0702689
-0.110446
-0.136991
-0.138108
-0.0929682
-0.0364235
0.000287878
0.0113791
0.0152246
0.0115057
0.00872767
0.0067002
0.00423213
0.00297761
0.00181123
0.000844258
0.000170449
-0.000314205
-0.000615711
-0.000829624
-0.000862715
-0.000870721
-0.000790605
-0.000653417
-0.000541798
-0.000390307
-0.000206939
7.46968e-06
0.000208456
0.000413572
0.000645881
0.00090182
0.00116713
0.00144183
0.00170585
0.00195382
0.0219619
0.004203
-0.0214418
-0.0460503
-0.0756709
-0.106337
-0.119132
-0.111599
-0.0725934
-0.021797
0.00864195
0.0153489
0.0189974
0.0156478
0.0107578
0.00885118
0.00583981
0.00399584
0.00250742
0.00126641
0.000472396
-0.000127732
-0.000464634
-0.000667099
-0.00069185
-0.000677906
-0.000572792
-0.000421897
-0.00034424
-0.000188352
-6.60762e-05
0.000112801
0.000230807
0.000415503
0.000612005
0.000869045
0.00111241
0.0013857
0.00166872
0.00201243
0.0159435
-0.000797361
-0.0294394
-0.0565527
-0.0845936
-0.109436
-0.110434
-0.0908597
-0.055325
-0.0103956
0.0149802
0.0225899
0.0219115
0.0191551
0.013237
0.0100886
0.00689802
0.00437076
0.00258432
0.0011091
0.000221001
-0.000422427
-0.000839129
-0.00102737
-0.00106482
-0.000983708
-0.000840357
-0.000622858
-0.00044749
-0.000222619
-3.90288e-05
0.00015081
0.000300475
0.000493277
0.000675817
0.000892523
0.00111441
0.0013429
0.00155302
0.00179036
0.00928713
-0.00772487
-0.0398454
-0.0706111
-0.0981509
-0.114089
-0.108053
-0.0765686
-0.0408485
-0.00093675
0.0206711
0.0317976
0.0249813
0.0224796
0.0159652
0.0112106
0.00780569
0.00475823
0.00268173
0.0010509
3.98972e-05
-0.000664196
-0.00123354
-0.00150548
-0.00164927
-0.00167616
-0.00158185
-0.00138383
-0.00113768
-0.000846044
-0.00054465
-0.000283607
-3.08152e-05
0.000186699
0.000429922
0.000661293
0.000934427
0.00116655
0.0014042
0.00156972
0.00115826
-0.0169315
-0.0532752
-0.0897537
-0.118239
-0.123533
-0.108311
-0.0693021
-0.0295236
0.00613379
0.0266805
0.0384553
0.0296078
0.0264292
0.0194523
0.0133768
0.00949618
0.00609573
0.00367351
0.00175926
0.000435259
-0.000422043
-0.00110044
-0.00153215
-0.00189287
-0.00209727
-0.0021528
-0.00209827
-0.00189742
-0.00161863
-0.00130736
-0.00104005
-0.000746261
-0.000446689
-0.000118796
0.000191449
0.000535813
0.000818218
0.0011251
0.00133825
-0.0081153
-0.0297317
-0.0721168
-0.117826
-0.149598
-0.143725
-0.113168
-0.0664083
-0.0209569
0.0118876
0.0327997
0.0415858
0.0356992
0.0294987
0.0231611
0.0160866
0.0118168
0.00805479
0.00508285
0.00266574
0.000933258
-0.00013482
-0.000906632
-0.00136245
-0.00175821
-0.00200599
-0.00217566
-0.00221877
-0.00214514
-0.00198071
-0.00178032
-0.00157235
-0.00130335
-0.000989714
-0.000636596
-0.000240752
0.000140058
0.000502822
0.000831442
0.00102071
-0.0183939
-0.0467344
-0.099029
-0.162201
-0.194311
-0.177523
-0.12686
-0.0681427
-0.0148835
0.0176581
0.0384905
0.0444959
0.0406995
0.0313329
0.0257559
0.0185218
0.0140122
0.00958388
0.00597968
0.00333137
0.00134292
-3.2253e-05
-0.000904685
-0.00134228
-0.00163018
-0.00185062
-0.00197118
-0.00201801
-0.00200892
-0.00192965
-0.00185538
-0.00173176
-0.00152289
-0.00123265
-0.000878828
-0.000483792
-0.000113433
0.000276019
0.000592946
0.00073028
-0.0310927
-0.0680613
-0.133997
-0.21807
-0.262538
-0.226694
-0.149055
-0.0750721
-0.0126313
0.0226923
0.042945
0.0484632
0.0438537
0.0338687
0.0278118
0.0205398
0.0153949
0.0103414
0.00632553
0.00365348
0.00150881
-3.31307e-05
-0.000976499
-0.00151282
-0.00182547
-0.00202788
-0.0020992
-0.00212659
-0.00209656
-0.00204391
-0.00200755
-0.00187384
-0.00167563
-0.00139046
-0.00107064
-0.000707823
-0.000353995
2.6056e-05
0.000321269
0.000427914
-0.0469104
-0.0974724
-0.191832
-0.294573
-0.3539
-0.286623
-0.178565
-0.0873632
-0.0154104
0.0255201
0.0460855
0.051072
0.0459895
0.037986
0.0302626
0.0223257
0.0159159
0.0109527
0.00671308
0.0038677
0.00156431
1.37129e-05
-0.00114412
-0.00190678
-0.00241357
-0.00270128
-0.00283089
-0.00286354
-0.00278792
-0.00270799
-0.00255469
-0.00235666
-0.00209628
-0.00180495
-0.00147386
-0.00111755
-0.000752694
-0.000366463
-9.13039e-05
-3.28336e-05
-0.0676626
-0.139557
-0.270159
-0.414416
-0.474291
-0.357352
-0.213429
-0.10402
-0.0228984
0.0250057
0.0472782
0.0514279
0.047781
0.0408884
0.0319352
0.0238308
0.0166396
0.0118127
0.00742468
0.00433452
0.00184712
6.88388e-05
-0.00147887
-0.00245993
-0.00313513
-0.0035635
-0.00378572
-0.00381764
-0.00373437
-0.0035937
-0.00334694
-0.00312487
-0.00282799
-0.00252719
-0.00215053
-0.00177233
-0.0013225
-0.000872033
-0.000557282
-0.000492588
-0.0954743
-0.192149
-0.362243
-0.569251
-0.612432
-0.424049
-0.249021
-0.122336
-0.0335962
0.0208761
0.0460477
0.0504961
0.047519
0.0409346
0.0323013
0.0245295
0.0183933
0.0128935
0.00848634
0.00501322
0.002186
2.75715e-05
-0.00167763
-0.0028191
-0.00363738
-0.00415017
-0.00440955
-0.00449031
-0.00447416
-0.00434709
-0.00414171
-0.00391073
-0.00362544
-0.00329679
-0.00287858
-0.00239943
-0.00189339
-0.00142235
-0.00107223
-0.00102344
-0.114695
-0.236222
-0.445299
-0.691368
-0.73125
-0.450695
-0.276173
-0.139407
-0.0451206
0.0133697
0.0407003
0.0474346
0.0443933
0.0392022
0.0315469
0.0246186
0.019432
0.0132853
0.00915807
0.005176
0.00239618
0.000148399
-0.00157453
-0.00290068
-0.00384738
-0.00439164
-0.0047828
-0.00499402
-0.00510925
-0.00510287
-0.00496639
-0.00479578
-0.00455925
-0.00421505
-0.00375349
-0.00325622
-0.00275592
-0.00223943
-0.00185047
-0.00184832
-0.108993
-0.223145
-0.428606
-0.647073
-0.672899
-0.464316
-0.288116
-0.151505
-0.0571184
0.00199793
0.029311
0.0397376
0.038882
0.0354698
0.029041
0.0230702
0.017753
0.0122898
0.00845619
0.00454787
0.00214494
-0.000375017
-0.00213275
-0.00356903
-0.00460939
-0.005223
-0.00581129
-0.00615864
-0.00638216
-0.00643921
-0.00636191
-0.00625519
-0.00601265
-0.00562325
-0.00513179
-0.00459792
-0.00400602
-0.00343449
-0.00299994
-0.00291719
-0.0714382
-0.162218
-0.338202
-0.478779
-0.493067
-0.384792
-0.262607
-0.144888
-0.0650495
-0.0127066
0.0129268
0.0267591
0.0293658
0.0281442
0.023607
0.0192082
0.0142532
0.010042
0.00624899
0.00255263
-4.5024e-05
-0.00275741
-0.0043559
-0.00582369
-0.0067626
-0.0073725
-0.00792316
-0.00819617
-0.00829218
-0.00828983
-0.0081665
-0.0079721
-0.00760699
-0.00711936
-0.00652056
-0.00586543
-0.00520394
-0.00463271
-0.00414819
-0.00396903
-0.0218372
-0.0864657
-0.221113
-0.316952
-0.327098
-0.281189
-0.208124
-0.136051
-0.0786458
-0.0331857
-0.00771705
0.00966454
0.0152392
0.017433
0.0158977
0.0134441
0.00954082
0.00646685
0.00254163
-0.000476493
-0.00329023
-0.0056113
-0.00704851
-0.00832552
-0.00899395
-0.00947465
-0.00973555
-0.00982785
-0.00970014
-0.00958707
-0.00933254
-0.009023
-0.00857078
-0.00801874
-0.00737441
-0.0067375
-0.00614241
-0.00563725
-0.00516385
-0.0050001
0.0244975
-0.0292273
-0.128564
-0.19194
-0.211206
-0.207688
-0.175598
-0.138905
-0.0961886
-0.0601823
-0.0326958
-0.0131688
-0.00302565
0.00306172
0.00515158
0.004935
0.00330567
0.00171142
-0.00132047
-0.002892
-0.00537027
-0.00707522
-0.00842655
-0.00944526
-0.0101586
-0.0105325
-0.010764
-0.0107681
-0.0106042
-0.0104971
-0.0102843
-0.00999883
-0.00960887
-0.00905257
-0.00849001
-0.00791861
-0.00740651
-0.00687483
-0.00641125
-0.00643565
0.0483415
0.00251178
-0.0670391
-0.11313
-0.147083
-0.164511
-0.160721
-0.147013
-0.120983
-0.0947054
-0.0661998
-0.045761
-0.0294403
-0.0189917
-0.0115781
-0.00833731
-0.00618989
-0.00558034
-0.00626107
-0.00668916
-0.00800575
-0.00923532
-0.0103184
-0.0113233
-0.0122006
-0.0126104
-0.013019
-0.0131705
-0.0132748
-0.0132156
-0.0130321
-0.0126486
-0.0122124
-0.0116129
-0.0110083
-0.01041
-0.00982478
-0.00904373
-0.00844379
-0.00838103