/*--------------------------------*- C++ -*----------------------------------*\
  =========                 |
  \\      /  F ield         | OpenFOAM: The Open Source CFD Toolbox
   \\    /   O peration     | Website:  https://openfoam.org
    \\  /    A nd           | Version:  11
     \\/     M anipulation  |
\*---------------------------------------------------------------------------*/
FoamFile
{
    format      ascii;
    class       surfaceScalarField;
    location    "8.5";
    object      phi;
}
// * * * * * * * * * * * * * * * * * * * * * * * * * * * * * * * * * * * * * //

dimensions      [0 3 -1 0 0 0 0];

internalField   nonuniform List<scalar> 
18960
(
0.0474621
0.000487588
-0.0479497
0.0469465
0.000515553
0.0464146
0.000531965
0.0458747
0.000539834
0.0453915
0.000483229
0.0449632
0.000428254
0.0444926
0.00047067
0.044017
0.000475598
0.0436767
0.000340294
0.0434549
0.000221815
0.0432269
0.000227924
0.0431178
0.000109168
0.0431067
1.11156e-05
0.0431898
-8.31479e-05
0.0433512
-0.000161437
0.0436572
-0.000305945
0.0441365
-0.000479309
0.0446381
-0.000501613
0.0449223
-0.00028417
0.0451941
-0.000271841
0.0455955
-0.000401418
0.0459092
-0.000313694
0.0459059
3.38498e-06
0.0457288
0.000177032
0.0455189
0.000209922
0.0452527
0.000266184
0.0446827
0.000569984
0.043618
0.00106472
0.0422136
0.00140439
0.040885
0.00132863
0.0395511
0.00133383
0.0384406
0.00111055
0.0374055
0.00103511
0.0368665
0.000538949
0.0364299
0.000436607
0.0368881
-0.000458157
0.0384658
-0.00157776
0.0397286
-0.00126279
0.0462841
-0.00655544
-0.00580052
0.0520846
0.0476629
0.000759837
-0.0479352
0.0473807
0.000797815
0.0470194
0.000893219
0.0466722
0.000887013
0.0463324
0.000823059
0.0460216
0.00073908
0.0457098
0.000782456
0.0454238
0.000761626
0.0451518
0.0006123
0.0449245
0.000449042
0.0447868
0.000365671
0.0446762
0.000219759
0.0446742
1.30715e-05
0.044824
-0.000232858
0.0450318
-0.000369328
0.045447
-0.000721125
0.0458947
-0.000926991
0.0463912
-0.000998151
0.0468574
-0.000750283
0.047202
-0.000616498
0.0473161
-0.000515455
0.0475746
-0.000572205
0.0479513
-0.000373365
0.0482738
-0.000145474
0.0484401
4.36326e-05
0.0486341
7.21545e-05
0.0488273
0.000376837
0.0490143
0.000877693
0.0487454
0.00167331
0.0479962
0.00207786
0.0467461
0.0025839
0.0456351
0.0022216
0.0446218
0.00204841
0.0439889
0.00117178
0.0435588
0.000866698
0.0429303
0.000170338
0.0428111
-0.00145853
0.0424115
-0.000863205
0.0416674
-0.00581128
-0.00849468
0.0443615
0.0475774
0.00115716
-0.0479747
0.0471947
0.00118051
0.0468091
0.00127877
0.0464148
0.00128134
0.0460062
0.00123163
0.0455941
0.00115118
0.0452606
0.00111597
0.0449943
0.00102792
0.044772
0.000834599
0.0445969
0.000624154
0.0444953
0.000467305
0.0444694
0.000245591
0.0445617
-7.91724e-05
0.0448168
-0.000487952
0.0451014
-0.000653941
0.0454932
-0.00111291
0.0459373
-0.00137112
0.0464453
-0.00150615
0.0469199
-0.0012249
0.0473409
-0.0010375
0.0474732
-0.000647714
0.0475227
-0.000621711
0.0476242
-0.000474898
0.0479443
-0.000465531
0.0483413
-0.00035338
0.0487876
-0.000374125
0.0492206
-5.61473e-05
0.0497057
0.000392564
0.0499039
0.00147509
0.0496265
0.00235524
0.0483581
0.00385228
0.0466427
0.00393704
0.0446508
0.00404033
0.0429478
0.00287471
0.0419758
0.0018388
0.0409185
0.00122759
0.0411785
-0.00171849
0.0418234
-0.00150815
0.0425213
-0.00650921
-0.00978997
0.0438166
0.0474985
0.00155413
-0.0478955
0.0471357
0.00154326
0.0467687
0.00164578
0.0464018
0.00164824
0.046036
0.0015975
0.0457401
0.001447
0.0454811
0.00137506
0.0452692
0.00123974
0.0450283
0.00107554
0.0448646
0.000787846
0.0447813
0.000550627
0.0447814
0.000245505
0.0448579
-0.000155678
0.0450503
-0.00068041
0.0452856
-0.000889258
0.0456458
-0.00147308
0.0460555
-0.00178081
0.046515
-0.00196562
0.0468848
-0.0015947
0.0473304
-0.0014831
0.0475708
-0.000888123
0.0476785
-0.00072944
0.0476398
-0.000436162
0.0477962
-0.000621975
0.0481628
-0.000719997
0.0487515
-0.000962821
0.0493304
-0.000634982
0.0500309
-0.000307959
0.0505316
0.000974341
0.050796
0.00209087
0.0503938
0.00425445
0.0494635
0.00486742
0.0482818
0.00522199
0.0468008
0.00435575
0.0458442
0.00279534
0.0440486
0.00302324
0.042747
-0.000416925
0.0420635
-0.000824706
0.0404365
-0.00488217
-0.00898749
0.039634
0.0474725
0.00196312
-0.0478815
0.0470856
0.00193021
0.0467136
0.00201776
0.046336
0.00202588
0.0459602
0.00197324
0.0456182
0.00178902
0.0453142
0.0016791
0.0450535
0.00150042
0.0448553
0.00127369
0.0447305
0.000912663
0.0446489
0.000632253
0.044644
0.000250434
0.0447483
-0.00026001
0.0449941
-0.000926263
0.045287
-0.00118211
0.0456881
-0.00187418
0.0460825
-0.00217522
0.0465226
-0.00240569
0.0468774
-0.00194949
0.0472728
-0.00187848
0.0475911
-0.00120651
0.0477941
-0.000932371
0.0477587
-0.000400746
0.0477481
-0.000611435
0.0478711
-0.000843011
0.0483203
-0.00141199
0.0490384
-0.00135312
0.050027
-0.00129649
0.0508892
0.00011215
0.0516408
0.00133925
0.0517995
0.00409577
0.0509942
0.00567271
0.0494467
0.00676949
0.0471534
0.00664898
0.0456681
0.00428066
0.0441058
0.00458556
0.0428373
0.000851582
0.0423234
-0.000310835
0.0412364
-0.00379518
-0.00741609
0.039665
0.0473389
0.00237619
-0.047752
0.0469571
0.00231199
0.046594
0.0023809
0.0462302
0.00238967
0.0458575
0.00234588
0.045562
0.00208458
0.0452916
0.00194947
0.0450849
0.0017071
0.0449261
0.00143255
0.0448297
0.00100903
0.0447743
0.000687601
0.0449127
0.000112077
0.0450186
-0.000365946
0.0452131
-0.00112077
0.0454837
-0.00145269
0.0458801
-0.00227052
0.0461963
-0.00249151
0.0465921
-0.00280148
0.0469503
-0.00230761
0.0473085
-0.0022367
0.0475394
-0.00143748
0.0477541
-0.00114704
0.04778
-0.000426671
0.0478031
-0.000634521
0.0478396
-0.000879452
0.0481456
-0.00171804
0.0487455
-0.00195304
0.0497768
-0.00232777
0.0508013
-0.000912287
0.0518096
0.00033094
0.0525206
0.00338475
0.0525412
0.0056521
0.0520671
0.00724354
0.0502979
0.00841818
0.0486395
0.00593914
0.0468587
0.00636633
0.0446812
0.00302905
0.0429118
0.00145858
0.0411468
-0.00203017
-0.00449396
0.0382247
0.0472848
0.00279266
-0.0477013
0.0469182
0.00267855
0.0465538
0.00274536
0.0461819
0.00276151
0.0458442
0.0026836
0.0455253
0.00240348
0.0452602
0.00221462
0.0450707
0.00189657
0.0449194
0.00158388
0.0448395
0.00108888
0.0448013
0.000725877
0.0448644
4.89804e-05
0.0449747
-0.000476302
0.0452207
-0.00136675
0.0455162
-0.00174819
0.0458984
-0.00265277
0.0462368
-0.00282982
0.0466469
-0.00321159
0.0470054
-0.00266611
0.0473347
-0.00256604
0.047534
-0.00163673
0.0477453
-0.00135841
0.0478212
-0.000502531
0.0478264
-0.000639697
0.0478707
-0.000923752
0.0480132
-0.00186057
0.0484317
-0.0023715
0.0493585
-0.00325462
0.0505627
-0.00211644
0.0519015
-0.00100793
0.0531535
0.00213277
0.0534772
0.00532843
0.0533634
0.00735737
0.0517889
0.00999259
0.0498168
0.00791129
0.0481338
0.0080493
0.0460559
0.00510701
0.0442387
0.00327579
0.0425464
-0.000337909
-0.00252724
0.0405797
0.0471416
0.00319762
-0.0475466
0.0467706
0.00304954
0.0464087
0.00310723
0.0460726
0.00309761
0.0457333
0.00302289
0.04545
0.00268677
0.0452142
0.00245042
0.0450485
0.00206228
0.0449164
0.00171602
0.0448639
0.00114139
0.0448418
0.00074796
0.0450268
-0.000136035
0.0451627
-0.00061218
0.0454006
-0.00160464
0.0456828
-0.00203039
0.0460401
-0.00301009
0.0463649
-0.00315462
0.0467433
-0.00358998
0.0470691
-0.0029919
0.047368
-0.00286492
0.0475477
-0.00181648
0.0477097
-0.0015204
0.0477729
-0.000565757
0.0477962
-0.000663015
0.0478446
-0.000972074
0.0479168
-0.00193276
0.04822
-0.00267473
0.0489352
-0.00396988
0.0501674
-0.00334862
0.0515283
-0.0023688
0.0531478
0.000513278
0.0539272
0.00454896
0.0545366
0.00674804
0.0540662
0.0104629
0.0523843
0.0095932
0.0508491
0.00958447
0.048531
0.00742515
0.0461138
0.00569296
0.0432382
0.0025377
-0.000359495
0.0410705
0.0470913
0.00359851
-0.0474922
0.0467156
0.00342524
0.0463588
0.00346405
0.0460382
0.00341815
0.0457208
0.00334031
0.0454413
0.00296634
0.0452209
0.00267075
0.0450682
0.00221498
0.0449427
0.00184152
0.0449184
0.00116568
0.0449459
0.000720494
0.0450701
-0.000260241
0.0452053
-0.000747376
0.0454837
-0.00188307
0.0457543
-0.00230101
0.0461198
-0.00337558
0.0464544
-0.00348914
0.0468019
-0.00393748
0.0471275
-0.00331756
0.0474238
-0.0031612
0.0476167
-0.00200934
0.0477217
-0.00162539
0.0477972
-0.000641298
0.0478101
-0.000675934
0.0478462
-0.00100815
0.0478948
-0.00198135
0.0481389
-0.00291884
0.0486035
-0.00443449
0.0497661
-0.00451123
0.0510891
-0.00369174
0.0530965
-0.00149417
0.0544686
0.00317693
0.055324
0.00589257
0.0555381
0.0102489
0.0542279
0.0109034
0.0526483
0.0111641
0.0504369
0.00963648
0.04855
0.00757984
0.0455217
0.0055661
0.00154466
0.0436175
0.0469323
0.0039897
-0.0473235
0.0465824
0.00377511
0.0462248
0.00382167
0.045907
0.00373596
0.045629
0.0036183
0.0453733
0.00322203
0.0451848
0.00285924
0.0450482
0.00235164
0.0449633
0.00192639
0.0449643
0.00116466
0.0450116
0.000673192
0.0451578
-0.000406378
0.0453316
-0.000921173
0.0456071
-0.00215859
0.0459031
-0.00259706
0.0462282
-0.00370069
0.0465618
-0.00382268
0.046896
-0.00427174
0.0472122
-0.00363377
0.0474519
-0.00340088
0.0476583
-0.00221577
0.0477283
-0.0016954
0.0478086
-0.000721534
0.0477688
-0.000636144
0.0477698
-0.0010092
0.047755
-0.0019665
0.0479628
-0.00312662
0.0482354
-0.00470717
0.0493013
-0.00557705
0.0505023
-0.0048928
0.0526023
-0.00359419
0.054529
0.00125031
0.0557466
0.00467497
0.0566209
0.00937458
0.0560507
0.0114735
0.0548754
0.0123394
0.0528248
0.0116871
0.0511298
0.00927484
0.0477889
0.00890697
0.00393146
0.0454021
0.0468886
0.00437741
-0.0472763
0.0465301
0.00413359
0.0461961
0.00415566
0.0458886
0.00404347
0.0456084
0.00389849
0.0453832
0.00344724
0.0452051
0.00303734
0.0450972
0.00245956
0.0450423
0.00198123
0.0450541
0.00115293
0.0451116
0.000615683
0.0452762
-0.000571015
0.0454514
-0.00109633
0.045733
-0.00244025
0.0460191
-0.00288315
0.0463351
-0.00401666
0.0466673
-0.00415493
0.0469976
-0.00460204
0.0472977
-0.00393387
0.047504
-0.00360711
0.047705
-0.00241682
0.0477809
-0.00177129
0.0478549
-0.000795549
0.0477906
-0.00057182
0.0477367
-0.000955292
0.0476848
-0.00191458
0.0478396
-0.00328141
0.0479967
-0.00486426
0.0488893
-0.00646967
0.0500311
-0.00603462
0.0518707
-0.0054338
0.0543543
-0.00123331
0.0560791
0.0029502
0.0575625
0.0078912
0.0577415
0.0112945
0.0571011
0.0129799
0.0550873
0.0137009
0.053485
0.0108771
0.0506725
0.0117195
0.00652419
0.0480797
0.0467224
0.00475186
-0.0470969
0.046387
0.00446902
0.0460578
0.00448485
0.0457632
0.00433811
0.0455252
0.0041365
0.0453212
0.0036512
0.0451712
0.00318734
0.0450989
0.00253181
0.0450638
0.00201642
0.0451097
0.00110694
0.0451787
0.000546758
0.0453565
-0.000748825
0.0455594
-0.00129929
0.0458328
-0.00271356
0.0461413
-0.00319171
0.046454
-0.00432936
0.0467986
-0.00449951
0.0470749
-0.00487838
0.0473923
-0.00425119
0.0475945
-0.00380939
0.0478079
-0.00263015
0.0478113
-0.00177467
0.0478736
-0.000857868
0.0477947
-0.000492943
0.0477052
-0.000865755
0.0475681
-0.00177752
0.0476572
-0.00337048
0.0477483
-0.00495543
0.0483262
-0.00704749
0.0494742
-0.00718269
0.0510884
-0.007048
0.0537488
-0.0038937
0.0560304
0.000668652
0.0580724
0.0058492
0.0588899
0.0104769
0.0590436
0.0128262
0.0575134
0.0152312
0.0560872
0.0123033
0.053719
0.0140877
0.00927405
0.0509692
0.0466891
0.00511664
-0.0470539
0.0463434
0.00481473
0.0460362
0.00479198
0.0457681
0.00460621
0.0455288
0.00437588
0.0453591
0.00382083
0.0452421
0.00330432
0.0451555
0.00261847
0.0451337
0.00203826
0.0452051
0.00103546
0.0453062
0.000445644
0.0455002
-0.000942821
0.0457073
-0.00150633
0.0459832
-0.00298952
0.0462943
-0.00350272
0.0465966
-0.00463171
0.0469263
-0.00482924
0.0471854
-0.00513746
0.0474949
-0.00456067
0.0476697
-0.00398419
0.047901
-0.00286142
0.0479019
-0.00177555
0.047921
-0.000876977
0.0478258
-0.000397737
0.0476816
-0.000721632
0.0474852
-0.00158112
0.047414
-0.00329924
0.0475186
-0.00506001
0.0478791
-0.007408
0.0489155
-0.00821906
0.050313
-0.00844556
0.0528837
-0.00646435
0.0554652
-0.00191292
0.0583893
0.00292519
0.0598463
0.00901981
0.0608232
0.0118493
0.0600544
0.0159999
0.0586927
0.0136651
0.0568218
0.0159585
0.0119689
0.054127
0.0465138
0.00545867
-0.0468558
0.0461916
0.00513687
0.0459059
0.00507773
0.0456553
0.00485682
0.0454623
0.00456882
0.0452979
0.00398523
0.045199
0.00340327
0.0451688
0.00264868
0.0451841
0.00202292
0.0452659
0.000953673
0.045392
0.000319577
0.0455897
-0.00114051
0.0458285
-0.00174517
0.0460894
-0.00325038
0.0464237
-0.00383707
0.0467
-0.004908
0.0470574
-0.00518665
0.0472945
-0.00537456
0.047621
-0.00488719
0.0477414
-0.00410456
0.047973
-0.00309303
0.0479916
-0.00179414
0.0480204
-0.000905792
0.0478861
-0.000263463
0.0476807
-0.000516209
0.0474421
-0.00134255
0.0472346
-0.00309173
0.0472027
-0.0050281
0.0473748
-0.00758007
0.0483163
-0.00916056
0.0494841
-0.00961335
0.0519774
-0.00895771
0.0547097
-0.00464515
0.0580704
-0.00043554
0.0604588
0.00663137
0.0621912
0.0101169
0.062289
0.0159021
0.0614066
0.0145475
0.0601126
0.0172525
0.0144184
0.0576631
0.0464965
0.00579471
-0.0468325
0.0461891
0.00544421
0.0459115
0.00535535
0.045664
0.00510435
0.0454959
0.00473683
0.045363
0.00411816
0.0452801
0.00348615
0.0452645
0.00266427
0.0452987
0.00198878
0.0454001
0.000852225
0.0455393
0.000180387
0.0457428
-0.001344
0.0459934
-0.00199578
0.0462451
-0.00350205
0.0465955
-0.00418745
0.0468479
-0.00516042
0.0472062
-0.00554491
0.0474238
-0.00559218
0.0477525
-0.00521589
0.0478741
-0.00422616
0.0480707
-0.00328962
0.0481246
-0.00184805
0.0481087
-0.000889928
0.0479741
-0.000128807
0.047713
-0.000255168
0.0474019
-0.00103147
0.047024
-0.00271375
0.046964
-0.00496814
0.0468437
-0.00745977
0.04765
-0.00996688
0.048702
-0.0106654
0.0507938
-0.0110495
0.0536808
-0.00753209
0.0572596
-0.00401433
0.0603584
0.00353252
0.0631146
0.00736076
0.0643004
0.0147163
0.0638811
0.0149669
0.0632363
0.0178972
0.016226
0.0614287
0.046307
0.00610995
-0.0466222
0.0460115
0.00573969
0.0457726
0.00559425
0.0455781
0.00529886
0.0454342
0.0048807
0.045325
0.00422736
0.0452702
0.00354097
0.0452832
0.00265125
0.0453351
0.00193693
0.0454717
0.000715607
0.0456399
1.21693e-05
0.0458418
-0.00154586
0.0461336
-0.00228764
0.0463711
-0.00373949
0.0467489
-0.00456525
0.0469714
-0.00538296
0.0473636
-0.00593714
0.0475582
-0.00578671
0.0478578
-0.00551552
0.0480273
-0.00439571
0.0481601
-0.00342237
0.0482649
-0.00195288
0.048256
-0.00088103
0.0481066
2.05914e-05
0.0477924
5.90051e-05
0.0474719
-0.000710928
0.0469218
-0.00216363
0.046689
-0.00473532
0.0463864
-0.00715721
0.0468408
-0.0104213
0.0477613
-0.0115858
0.0496553
-0.0129435
0.0523507
-0.0102276
0.0561258
-0.0077894
0.0597368
-7.8524e-05
0.0632558
0.00384179
0.065836
0.012136
0.0663013
0.0145016
0.066151
0.0180475
0.0175925
0.0647845
0.0463079
0.00641858
-0.0466165
0.0460376
0.00601002
0.0458078
0.00582404
0.0456212
0.00548538
0.0454891
0.00501284
0.0454219
0.00429456
0.0453858
0.00357711
0.0454182
0.0026188
0.0454969
0.00185821
0.0456275
0.000585073
0.0458343
-0.000194628
0.0460013
-0.00171292
0.0463611
-0.00264747
0.0465295
-0.00390782
0.0469343
-0.00497008
0.047169
-0.0056177
0.0475009
-0.00626905
0.0477441
-0.00602988
0.0479849
-0.00575627
0.048192
-0.00460279
0.0482992
-0.00352958
0.0483855
-0.00203919
0.0483639
-0.000859478
0.0482593
0.000125195
0.0479072
0.000411071
0.0475368
-0.000340528
0.0469259
-0.00155269
0.0464118
-0.00422124
0.0459819
-0.00672728
0.0460061
-0.0104455
0.0466481
-0.0122278
0.0483549
-0.0146503
0.0507917
-0.0126643
0.0545335
-0.0115312
0.0588372
-0.00438229
0.062765
-8.59543e-05
0.0664149
0.00848615
0.0682691
0.0126474
0.0689782
0.0173384
0.0183123
0.0682584
0.0461167
0.00668854
-0.0463866
0.0458732
0.0062535
0.0456807
0.00601648
0.0455237
0.00564243
0.0454442
0.00509231
0.0453936
0.00434516
0.0453763
0.00359446
0.0454482
0.00254688
0.0455707
0.0017357
0.0456674
0.000488438
0.045975
-0.000502281
0.0461127
-0.0018506
0.0464932
-0.00302798
0.046723
-0.00413759
0.0470757
-0.00532283
0.0473261
-0.00586811
0.0476567
-0.00659963
0.0478944
-0.00626757
0.0481204
-0.00598227
0.0483459
-0.00482825
0.0484434
-0.00362707
0.0485456
-0.00214139
0.0485326
-0.000846549
0.0484317
0.000226116
0.0480857
0.000757077
0.0476599
8.53059e-05
0.0470398
-0.000932621
0.0462908
-0.00347227
0.0456188
-0.0060552
0.0453112
-0.010138
0.0454417
-0.0123583
0.0468025
-0.0160111
0.0491308
-0.0149927
0.0524374
-0.0148378
0.0571299
-0.00907476
0.0617031
-0.00465913
0.0662726
0.00391662
0.0694329
0.00948711
0.07128
0.0154913
0.0182619
0.0713303
0.0461631
0.00693454
-0.0464091
0.0459286
0.00648807
0.0457648
0.00618021
0.0456362
0.00577109
0.045561
0.00516751
0.0455292
0.00437692
0.0455491
0.00357459
0.0455861
0.00250987
0.045784
0.0015378
0.0458806
0.000391787
0.0461787
-0.000800385
0.0463414
-0.00201324
0.0467212
-0.00340785
0.0469598
-0.00437617
0.0472864
-0.00564942
0.0475581
-0.00613979
0.0478345
-0.00687602
0.048111
-0.00654404
0.0483002
-0.0061715
0.0485317
-0.00505973
0.0486426
-0.00373802
0.0487266
-0.00222542
0.0487353
-0.0008552
0.0486459
0.000315482
0.0483177
0.00108535
0.0478027
0.000600241
0.0471254
-0.000255309
0.0463345
-0.0026814
0.0453924
-0.00511303
0.0447298
-0.00947549
0.0443217
-0.0119501
0.0449403
-0.0166297
0.0470009
-0.0170532
0.0500744
-0.0179113
0.0548597
-0.01386
0.0599224
-0.00972187
0.0653542
-0.00151516
0.0697125
0.00512874
0.0729671
0.0122367
0.0172527
0.0739764
0.0460005
0.00714793
-0.0462139
0.0457985
0.0066901
0.0456509
0.00632778
0.0455613
0.00586067
0.0455189
0.00520999
0.0454921
0.00440365
0.0456051
0.00346161
0.0456472
0.00246778
0.0458548
0.00133014
0.0459874
0.000259229
0.0463056
-0.0011186
0.0465408
-0.00224846
0.0468317
-0.0036987
0.0471657
-0.00471021
0.0474387
-0.00592242
0.0478046
-0.00650566
0.04799
-0.00706139
0.0483084
-0.00686253
0.0484769
-0.00634001
0.0486775
-0.00526028
0.0488384
-0.00389889
0.0489193
-0.00230639
0.0489175
-0.000853394
0.0488737
0.0003593
0.0486036
0.00135547
0.0481146
0.00108921
0.0473133
0.000546014
0.0464248
-0.00179286
0.0453047
-0.00399296
0.0443041
-0.00847493
0.0435614
-0.0112074
0.0432525
-0.0163208
0.0446006
-0.0184013
0.0470984
-0.0204092
0.0516431
-0.0184047
0.0571245
-0.0152032
0.0635932
-0.00798382
0.0691467
-0.000424785
0.0738295
0.00755387
0.0149729
0.0761093
0.0460723
0.00736246
-0.0462868
0.0458872
0.00687522
0.0457711
0.00644389
0.0456996
0.00593213
0.0456967
0.00521292
0.0456821
0.00441822
0.0458082
0.00333549
0.0458732
0.00240278
0.0461007
0.00110273
0.0462832
7.66874e-05
0.0465321
-0.00136745
0.0468465
-0.00256287
0.0470889
-0.00394117
0.0474817
-0.00510296
0.0476728
-0.00611353
0.048056
-0.00688891
0.0482504
-0.00725578
0.0485264
-0.00713851
0.0487227
-0.00653627
0.0488885
-0.00542605
0.0490451
-0.00405557
0.0491636
-0.00242491
0.0491568
-0.00084659
0.0491091
0.000406998
0.0488886
0.00157597
0.0484365
0.00154137
0.0476603
0.00132221
0.0466436
-0.000776164
0.0453778
-0.00272722
0.0439402
-0.0070373
0.042932
-0.0101993
0.041867
-0.0152557
0.0422697
-0.018804
0.0438702
-0.0220097
0.0477579
-0.0222924
0.0528495
-0.0202948
0.0603167
-0.015451
0.0673509
-0.00745903
0.0737164
0.00118839
0.0112329
0.0774564
0.0458774
0.00752918
-0.0460441
0.0457411
0.0070115
0.0456558
0.00652919
0.0456206
0.00596729
0.0456525
0.00518104
0.0457313
0.00433945
0.0458556
0.00321121
0.0459912
0.00226718
0.0461904
0.000903518
0.046463
-0.000195968
0.04668
-0.00158443
0.0470619
-0.00294474
0.047263
-0.00414229
0.0476867
-0.00552668
0.0479044
-0.00633121
0.0482541
-0.00723858
0.0484782
-0.0074799
0.0487087
-0.00736906
0.0489239
-0.00675144
0.0491094
-0.0056115
0.049254
-0.00420024
0.0493984
-0.00256923
0.0494249
-0.000873105
0.049413
0.000418902
0.0492462
0.00174278
0.0488274
0.00196014
0.0481171
0.00203245
0.0470229
0.000318087
0.0456968
-0.0014011
0.0438679
-0.00520844
0.0425159
-0.00884728
0.0408946
-0.0136344
0.0402414
-0.0181508
0.0405002
-0.0222685
0.0434009
-0.0251931
0.0476241
-0.024518
0.0548598
-0.0226867
0.063254
-0.0158532
0.071932
-0.00748966
0.00533002
0.0778349
0.0460194
0.00770483
-0.046195
0.0459116
0.0071193
0.0458585
0.00658229
0.0458573
0.00596845
0.0459127
0.00512566
0.0459883
0.00426386
0.0461176
0.00308186
0.0463254
0.00205938
0.0464817
0.000747212
0.0468487
-0.000562913
0.0470238
-0.00175957
0.0474269
-0.00334781
0.047643
-0.00435841
0.048021
-0.00590473
0.0482918
-0.00660199
0.0485484
-0.00749516
0.0488071
-0.0077386
0.0490385
-0.00760044
0.0491995
-0.00691244
0.0494045
-0.0058165
0.0495186
-0.00431431
0.0497028
-0.00275345
0.0497676
-0.000937881
0.0497564
0.000430116
0.049657
0.00184215
0.0492975
0.00231958
0.0486645
0.0026655
0.0475421
0.00144051
0.0462704
-0.000129463
0.0442217
-0.00315973
0.0423431
-0.00696866
0.0400805
-0.0113718
0.0387072
-0.0167775
0.037574
-0.0211354
0.0387385
-0.0263576
0.041737
-0.0275165
0.0478179
-0.0287676
0.0562406
-0.024276
0.0670781
-0.0183271
-0.00373706
0.0761451
0.0458108
0.00779178
-0.0458977
0.04578
0.00715009
0.0457654
0.00659683
0.0458174
0.00591647
0.0459113
0.00503178
0.0460592
0.00411596
0.0461974
0.00294367
0.0464624
0.00179436
0.046626
0.000583588
0.0470258
-0.000962664
0.047248
-0.00198182
0.0476267
-0.00372645
0.0479648
-0.00469659
0.0482416
-0.00618149
0.0485802
-0.00694055
0.0488625
-0.00777752
0.0490648
-0.00794093
0.049307
-0.00784265
0.0494782
-0.00708358
0.0496759
-0.00601419
0.0498155
-0.00445392
0.0500054
-0.00294342
0.0501384
-0.00107083
0.0501748
0.00039372
0.0501439
0.00187302
0.0498481
0.00261542
0.0493666
0.00314695
0.0482663
0.00254083
0.0470042
0.00113269
0.0449603
-0.00111585
0.04288
-0.00488839
0.0400091
-0.00850086
0.037617
-0.0143854
0.0353621
-0.0188805
0.0345597
-0.0255552
0.0355764
-0.0285332
0.0397129
-0.032904
0.046417
-0.0309801
0.0582821
-0.0301922
-0.0161454
0.0706904
0.0460579
0.00785794
-0.0461241
0.046044
0.00716399
0.0460705
0.00657036
0.0461465
0.00584043
0.0462564
0.00492195
0.046433
0.0039393
0.0465549
0.00282175
0.046904
0.0014453
0.0471084
0.000379225
0.047459
-0.00131327
0.047765
-0.00228784
0.0480648
-0.00402628
0.0484357
-0.00506747
0.0487251
-0.00647085
0.0490482
-0.00726369
0.0492883
-0.00801759
0.0494956
-0.0081483
0.0497149
-0.00806189
0.0498525
-0.00722117
0.0500245
-0.00618622
0.0501926
-0.00462206
0.0503701
-0.0031209
0.0506031
-0.00130381
0.0506629
0.000333878
0.0507013
0.00183462
0.0504791
0.00283767
0.0501822
0.00344387
0.0491863
0.00353672
0.0480204
0.00229858
0.0459514
0.000953099
0.043714
-0.00265094
0.0407802
-0.00556705
0.0375575
-0.0111626
0.034129
-0.015452
0.031439
-0.0228652
0.029909
-0.0270032
0.0313554
-0.0343504
0.0349346
-0.0345594
0.0445867
-0.0398443
-0.0301383
0.0585797
0.0459346
0.00788581
-0.0459624
0.0459233
0.00717528
0.0459793
0.0065143
0.0460963
0.0057235
0.0462066
0.0048116
0.0464999
0.00364598
0.0467012
0.00262046
0.0470123
0.00113426
0.0473425
4.89958e-05
0.0476369
-0.0016077
0.0480551
-0.00270601
0.0483774
-0.00434853
0.0487504
-0.00544051
0.0490533
-0.00677373
0.0493657
-0.00757612
0.0496333
-0.00828517
0.0498001
-0.00831511
0.0500061
-0.00826794
0.0502355
-0.00745053
0.0503344
-0.0062851
0.0505751
-0.00486278
0.0507262
-0.003272
0.0510053
-0.00158294
0.0511524
0.000186776
0.0513615
0.00162554
0.0511808
0.00301838
0.0510579
0.00356683
0.0502669
0.00432766
0.0492593
0.00330615
0.0474685
0.00274399
0.0451031
-0.000285616
0.042119
-0.00258296
0.0386102
-0.00765381
0.0345078
-0.0113496
0.0301574
-0.0185148
0.026154
-0.0229997
0.0239722
-0.0321687
0.0241302
-0.0347173
0.0279353
-0.0436495
-0.0404367
0.0382337
0.0463494
0.00789898
-0.0463626
0.046383
0.00714173
0.0464651
0.00643218
0.04665
0.00553862
0.0467867
0.00467485
0.0470436
0.00338911
0.0473074
0.00235664
0.0475774
0.000864314
0.0479828
-0.000356436
0.0482437
-0.00186858
0.0486924
-0.00315475
0.0490128
-0.00466887
0.0493661
-0.00579379
0.0496741
-0.00708182
0.0499462
-0.0078482
0.0501499
-0.00848882
0.0503821
-0.00854731
0.0504481
-0.00833398
0.0506623
-0.00766467
0.0507638
-0.00638667
0.0510082
-0.00510717
0.0511614
-0.00342515
0.0515269
-0.00194851
0.051697
1.67335e-05
0.0520552
0.00126726
0.0520413
0.00303235
0.0520364
0.0035717
0.0515226
0.00484143
0.0506354
0.00419343
0.0492023
0.00417709
0.0470482
0.00186844
0.0441425
0.000322795
0.0404643
-0.00397563
0.0362275
-0.00711285
0.0310206
-0.0133079
0.0257327
-0.0177118
0.0196187
-0.0260547
0.0166161
-0.0317146
0.0138131
-0.0408465
-0.0428009
0.0161772
0.046121
0.00782178
-0.0460438
0.0462933
0.00696944
0.046449
0.00627655
0.0466831
0.00530448
0.0469347
0.00442323
0.0472166
0.00310725
0.0475792
0.001994
0.0478847
0.0005588
0.0483096
-0.000781324
0.0486119
-0.0021709
0.0491093
-0.00365207
0.0493828
-0.00494246
0.0498701
-0.00628102
0.0500698
-0.0072815
0.0504082
-0.00818662
0.0505429
-0.00862353
0.0507933
-0.00879774
0.0508808
-0.00842148
0.0510695
-0.0078533
0.0511759
-0.00649313
0.0514444
-0.00537563
0.0516232
-0.00360396
0.0520131
-0.00233841
0.0522784
-0.000248602
0.0527014
0.000844273
0.0529285
0.00280528
0.0530842
0.00341596
0.0529141
0.00501158
0.052262
0.00484548
0.0511254
0.00531376
0.0493224
0.00367136
0.0469137
0.00273155
0.0434033
-0.000465232
0.0393828
-0.00309233
0.0338456
-0.00777077
0.0284033
-0.0122695
0.0201975
-0.0178489
0.013945
-0.0254621
0.00543131
-0.0323328
-0.0358716
-0.00149801
0.0467822
0.00772496
-0.0466854
0.0469715
0.00678022
0.0471825
0.00606551
0.0474424
0.00504456
0.0477816
0.00408409
0.0480355
0.00285327
0.0484904
0.0015391
0.048742
0.000307212
0.0492584
-0.00129766
0.0495348
-0.00244733
0.0500338
-0.00415108
0.0503255
-0.00523414
0.0507328
-0.00668832
0.0509382
-0.00748687
0.0512233
-0.00847179
0.0513412
-0.00874142
0.0514782
-0.00893471
0.051579
-0.00852226
0.051676
-0.00795038
0.0517933
-0.00661037
0.0520392
-0.0056216
0.052273
-0.00383775
0.0526334
-0.00269876
0.0530307
-0.000645922
0.053527
0.000348022
0.0539949
0.00233729
0.0543163
0.00309461
0.0544635
0.00486441
0.0541853
0.00512366
0.0534665
0.00603256
0.05193
0.00520779
0.0500674
0.00459417
0.0469489
0.00265328
0.0436271
0.000229477
0.0383501
-0.00249374
0.0330945
-0.00701396
0.0254408
-0.0101952
0.0168677
-0.016889
0.00684512
-0.0223102
-0.0258263
-0.0032001
0.0467226
0.0075489
-0.0465465
0.0469245
0.00657827
0.0472401
0.00574992
0.047498
0.00478668
0.0479423
0.00363982
0.0482631
0.00253243
0.0488405
0.000961733
0.0491707
-2.2983e-05
0.0496901
-0.00181705
0.0501354
-0.00289263
0.0505975
-0.00461325
0.051019
-0.00565561
0.0512811
-0.00695042
0.0516703
-0.0078761
0.0517995
-0.00860094
0.0519674
-0.00890932
0.0520639
-0.0090312
0.0521234
-0.0085818
0.0521832
-0.00801012
0.0523171
-0.00674431
0.0525333
-0.00583777
0.0528042
-0.00410867
0.0532174
-0.00311192
0.0537259
-0.00115442
0.0543355
-0.000261636
0.0550369
0.00163591
0.055591
0.00254048
0.0561542
0.0043013
0.0561924
0.00508545
0.0561703
0.00605458
0.0550113
0.00636686
0.0538239
0.00578154
0.0511768
0.00530035
0.0484012
0.00300507
0.0443008
0.00160674
0.0391811
-0.00189433
0.0333314
-0.00434555
0.0251262
-0.00868371
0.0159738
-0.0131578
-0.0166716
0.006819
0.0478293
0.00729431
-0.0475747
0.0480732
0.00633436
0.0484558
0.00536726
0.0487465
0.00449605
0.0492011
0.00318515
0.0495924
0.00214122
0.0499695
0.000584574
0.0505352
-0.000588627
0.0508832
-0.00216513
0.0514754
-0.00348478
0.0517639
-0.00490175
0.0522379
-0.00612958
0.0524542
-0.00716674
0.0527123
-0.00813418
0.0528004
-0.00868906
0.0529448
-0.0090537
0.052933
-0.00901946
0.0529547
-0.00860346
0.0529415
-0.00799695
0.0530743
-0.0068771
0.0531853
-0.00594875
0.0535518
-0.00447516
0.0538636
-0.0034238
0.0546167
-0.00190744
0.0551567
-0.00080164
0.0562083
0.000584221
0.0568268
0.00192207
0.0579583
0.00316979
0.0583069
0.00473681
0.0588623
0.00549917
0.0584575
0.00677169
0.0576971
0.0065419
0.0561274
0.00687012
0.0536432
0.00548922
0.0506591
0.00459086
0.0464918
0.00227296
0.0417247
0.000421563
0.0353339
-0.00229295
0.027803
-0.0056269
-0.00991384
0.0210453
0.0479043
0.00688929
-0.0474993
0.0483429
0.00589584
0.0487756
0.00493448
0.0493812
0.0038905
0.0498294
0.00273689
0.050471
0.00149963
0.0508456
0.000210016
0.051478
-0.00122105
0.0519044
-0.00259149
0.0524963
-0.00407667
0.0528205
-0.00522597
0.0532208
-0.00652993
0.0534428
-0.00738868
0.0536407
-0.00833207
0.0537031
-0.00875147
0.0537649
-0.00911554
0.0536553
-0.00890987
0.0537034
-0.0086515
0.0535445
-0.00783805
0.0537714
-0.007104
0.053713
-0.00589038
0.0542503
-0.00501249
0.054466
-0.00363944
0.0553834
-0.00282488
0.0559884
-0.00140659
0.0572656
-0.000692984
0.0581953
0.000992348
0.0595793
0.00178571
0.0606002
0.00371593
0.0615735
0.00452595
0.0620986
0.0062465
0.0620229
0.00661766
0.0614204
0.0074726
0.059781
0.00712866
0.0576451
0.00672673
0.0543458
0.00557226
0.0506499
0.00411746
0.0461974
0.00215951
0.0398279
0.000742665
-0.00346167
0.0333757
0.0493254
0.00654498
-0.0489811
0.0498121
0.00540915
0.0502217
0.00452488
0.0508364
0.00327586
0.0513122
0.00226107
0.0519688
0.000842981
0.0526015
-0.000422612
0.0531696
-0.00178917
0.0537077
-0.00312961
0.054172
-0.00454099
0.0546061
-0.00566003
0.0549077
-0.00683152
0.0551292
-0.00761026
0.0552183
-0.00842114
0.0551963
-0.00872942
0.0551362
-0.00905551
0.0549475
-0.00872116
0.054888
-0.00859201
0.0546605
-0.00761054
0.0547284
-0.00717189
0.0547013
-0.00586329
0.055095
-0.00540617
0.0554222
-0.00396668
0.0562625
-0.00366518
0.0571482
-0.00229225
0.0582942
-0.00183896
0.0597452
-0.000458647
0.0612319
0.000298986
0.0629751
0.00197274
0.0644102
0.00309083
0.0659465
0.00471019
0.0668127
0.0057515
0.067252
0.00703329
0.066945
0.00743562
0.0657026
0.00796911
0.0638324
0.00744254
0.0606848
0.00726505
0.0573052
0.0055391
0.0529964
0.0050514
0.00273321
0.0468016
0.0503079
0.00587006
-0.049633
0.05107
0.00464708
0.0518148
0.00378009
0.0525292
0.00256137
0.0532791
0.00151121
0.053842
0.000280102
0.0545052
-0.00108588
0.0551091
-0.00239307
0.0557087
-0.00372918
0.056058
-0.00489023
0.0564608
-0.00606287
0.0565587
-0.00692943
0.0567057
-0.00775726
0.0566177
-0.00833316
0.0565202
-0.00863186
0.0562691
-0.0088044
0.0560251
-0.00847717
0.0557043
-0.00827128
0.0555472
-0.00745341
0.0553535
-0.00697815
0.0554323
-0.00594214
0.0555504
-0.00552421
0.0561082
-0.00452447
0.0567525
-0.00430953
0.0578744
-0.00341417
0.0590916
-0.00305612
0.0607145
-0.00208155
0.0625394
-0.00152592
0.0646788
-0.000166633
0.0669503
0.000819266
0.0692334
0.00242712
0.0713388
0.00364609