/*--------------------------------*- C++ -*----------------------------------*\
  =========                 |
  \\      /  F ield         | OpenFOAM: The Open Source CFD Toolbox
   \\    /   O peration     | Website:  https://openfoam.org
    \\  /    A nd           | Version:  11
     \\/     M anipulation  |
\*---------------------------------------------------------------------------*/
FoamFile
{
    format      ascii;
    class       volVectorField;
    location    "8.5";
    object      U;
}
// * * * * * * * * * * * * * * * * * * * * * * * * * * * * * * * * * * * * * //

dimensions      [0 1 -1 0 0 0 0];

internalField   nonuniform List<vector> 
9600
(
(0.96516 0.00133677 4.16016e-21)
(0.96195 0.00178142 0)
(0.95908 0.00223428 0)
(0.954502 0.00284941 7.15841e-23)
(0.94866 0.00302543 0)
(0.945849 0.00361557 -7.5899e-23)
(0.942242 0.00435474 -2.48492e-21)
(0.936193 0.0047233 2.49767e-21)
(0.929795 0.00425825 -2.50256e-21)
(0.927996 0.00348744 2.5136e-21)
(0.92639 0.00370267 0)
(0.923111 0.00257295 -2.15563e-21)
(0.923579 0.00169982 2.17385e-21)
(0.926083 0.000620071 -2.59319e-23)
(0.930011 -0.00027862 5.10249e-22)
(0.935828 -0.00122214 -5.05132e-22)
(0.944874 -0.00234868 0)
(0.957127 -0.00291072 2.37967e-22)
(0.96723 -0.00205123 -2.3819e-22)
(0.972139 -0.00202713 1.8835e-24)
(0.98054 -0.00307758 -2.28998e-24)
(0.99295 -0.0019122 -5.9796e-22)
(0.993902 -0.000454019 5.96342e-22)
(0.991018 -0.000834837 0)
(0.986105 -0.00164795 0)
(0.979649 -0.00164897 -2.27034e-22)
(0.969641 -0.000692353 2.44582e-22)
(0.947454 0.000978401 -1.5373e-23)
(0.913512 0.00113354 7.54277e-24)
(0.882215 0.000885123 -1.0238e-23)
(0.851203 -0.000540328 0)
(0.824827 -0.00204353 1.04537e-21)
(0.803411 -0.00545932 -1.0262e-21)
(0.790721 -0.0104631 -1.39876e-21)
(0.786987 -0.0139682 1.38987e-21)
(0.791122 -0.0204639 5.23424e-23)
(0.822637 -0.0238784 0)
(0.851905 -0.0184885 5.67556e-21)
(0.895067 -0.0313531 -5.70613e-21)
(1.01296 0.00852129 9.97799e-23)
(0.968128 0.000268179 2.05223e-22)
(0.966696 0.000251865 0)
(0.964549 0.000208157 0)
(0.963178 -0.000116113 -2.20987e-22)
(0.960472 -0.00066305 -4.92053e-21)
(0.957433 -0.00162833 7.70605e-21)
(0.955354 -0.00184794 -2.53677e-21)
(0.953302 -0.0020835 -8.05278e-23)
(0.951799 -0.00273161 -8.03044e-23)
(0.949484 -0.00301808 0)
(0.949598 -0.00318027 -7.48094e-23)
(0.950668 -0.00315192 -2.20464e-21)
(0.953104 -0.00280606 3.04899e-21)
(0.958458 -0.00262613 -9.26486e-22)
(0.964148 -0.00230664 -9.90354e-24)
(0.971758 -0.00266057 0)
(0.983315 -0.00286533 8.60182e-23)
(0.994607 -0.00236267 -8.63803e-23)
(1.00605 -0.00101575 2.11027e-22)
(1.01719 -0.00065494 -2.13016e-22)
(1.02192 -0.000460577 -3.08147e-22)
(1.025 -0.000696038 2.94584e-22)
(1.03315 0.000802128 0)
(1.04047 0.00231367 8.93209e-22)
(1.04234 0.00346057 -8.91549e-22)
(1.04238 0.0038701 -6.40671e-24)
(1.04256 0.00530744 4.19819e-23)
(1.04095 0.00749877 -4.813e-23)
(1.03487 0.0102538 -2.12592e-23)
(1.0181 0.0102901 -6.79312e-22)
(0.988911 0.0117528 7.32518e-22)
(0.956147 0.0113409 -9.74517e-22)
(0.92481 0.0140056 9.54994e-22)
(0.898024 0.0152906 -3.68411e-23)
(0.878057 0.0179885 3.03787e-21)
(0.863712 0.0169749 -2.98862e-21)
(0.859833 0.00993159 0)
(0.86826 0.00803445 5.19639e-21)
(0.885571 -0.0229112 -5.24895e-21)
(0.993377 -0.0463735 -3.04856e-22)
(0.966736 0.000329615 4.34586e-21)
(0.965209 0.00080271 -1.43348e-22)
(0.963045 0.0016672 0)
(0.961808 0.00216974 1.51102e-22)
(0.959779 0.00237161 0)
(0.956814 0.00284259 -2.73217e-21)
(0.954764 0.0036943 -2.05077e-23)
(0.953378 0.00394668 2.7048e-21)
(0.952039 0.00377613 8.21526e-23)
(0.950114 0.00317484 0)
(0.95024 0.00297609 2.28643e-22)
(0.951279 0.00237651 -2.15031e-21)
(0.95345 0.000741528 2.23464e-21)
(0.958683 -0.000944914 7.80336e-23)
(0.96507 -0.0019105 -3.66433e-23)
(0.972923 -0.00394698 9.27937e-24)
(0.983023 -0.00514508 9.44344e-23)
(0.994281 -0.00592269 1.75439e-22)
(1.0064 -0.00495711 -2.82506e-22)
(1.01851 -0.00412966 4.03841e-24)
(1.0263 -0.00327407 -4.86786e-24)
(1.02745 -0.00328564 -6.34173e-22)
(1.02879 -0.00257063 6.41048e-22)
(1.03365 -0.00193443 9.23647e-22)
(1.0413 -0.00132619 -9.26015e-22)
(1.04752 -0.00103919 0)
(1.05266 0.000873002 5.52635e-24)
(1.05609 0.00341779 6.35091e-24)
(1.05578 0.00767802 1.39331e-23)
(1.04858 0.0111602 -5.67698e-23)
(1.02329 0.0147975 -7.09039e-23)
(0.983655 0.0126612 1.04505e-21)
(0.945017 0.00907985 1.56044e-22)
(0.910284 0.000183576 -1.09712e-21)
(0.886927 -0.00483626 -8.76391e-23)
(0.872985 -0.0106051 0)
(0.868423 -0.0155256 -1.119e-22)
(0.876391 -0.0093505 4.92357e-21)
(0.886814 -0.0227711 -4.87941e-21)
(0.971391 -0.0268609 2.06519e-22)
(0.9668 0.00102743 2.89262e-22)
(0.965281 0.00136134 -1.48702e-22)
(0.962813 0.00196651 0)
(0.961215 0.00198674 0)
(0.959028 0.00190932 -4.88601e-21)
(0.955814 0.00122128 5.07555e-21)
(0.953887 0.000671672 2.52475e-21)
(0.952633 2.47872e-05 -2.53925e-21)
(0.951298 -0.0010188 2.65798e-21)
(0.949866 -0.00193043 -2.50771e-21)
(0.950125 -0.0027971 -1.57758e-22)
(0.951595 -0.00381964 -7.05364e-23)
(0.954288 -0.00482412 -6.45838e-23)
(0.959849 -0.00650837 -5.27879e-23)
(0.966508 -0.00674163 5.07385e-22)
(0.974001 -0.0084413 -3.09779e-22)
(0.984118 -0.00906708 -3.3187e-24)
(0.99563 -0.00911519 -1.14141e-22)
(1.00639 -0.00705184 1.17222e-23)
(1.01698 -0.00573538 -8.35865e-24)
(1.02705 -0.00258557 3.37547e-22)
(1.03114 -0.00188327 -9.95588e-22)
(1.03081 -0.000753242 6.99881e-22)
(1.03111 -0.000872517 7.07237e-23)
(1.03551 -1.23342e-05 0)
(1.04407 -5.77379e-05 0)
(1.05283 0.00179253 1.10204e-22)
(1.0601 0.00333936 -1.12166e-22)
(1.06443 0.00892741 -4.97932e-22)
(1.06203 0.0130874 5.31547e-22)
(1.04936 0.0217839 4.73243e-23)
(1.01824 0.0243938 -5.56373e-23)
(0.98545 0.0284663 5.99584e-23)
(0.947099 0.0275234 -1.19065e-21)
(0.91803 0.0242004 3.95134e-21)
(0.888817 0.0255353 -5.9903e-21)
(0.870307 0.0054233 3.12419e-21)
(0.872092 0.00245721 -2.45653e-22)
(0.874687 -0.0231642 4.6344e-22)
(0.937148 -0.0435544 -3.70164e-22)
(0.966068 0.000957723 4.4472e-21)
(0.964439 0.00117671 -2.61788e-24)
(0.962003 0.00184423 0)
(0.960163 0.00220167 0)
(0.957739 0.00230328 -3.31529e-22)
(0.955099 0.00204535 5.10572e-22)
(0.953486 0.00241063 -2.57807e-21)
(0.952479 0.00236275 5.33096e-21)
(0.951208 0.00241209 -2.75312e-21)
(0.950499 0.00147485 -1.6641e-22)
(0.950978 0.00104708 0)
(0.952456 8.64278e-05 -4.33956e-21)
(0.955701 -0.00162291 4.37167e-21)
(0.959859 -0.00391911 -7.93483e-22)
(0.967034 -0.00448418 6.58115e-22)
(0.975707 -0.00722152 -3.28445e-23)
(0.985156 -0.0085533 1.36482e-22)
(0.995665 -0.0093362 1.80909e-22)
(1.0065 -0.00750871 -3.12026e-22)
(1.01595 -0.00705108 4.32491e-24)
(1.02599 -0.00446546 3.44951e-22)
(1.03298 -0.00295777 -1.04603e-21)
(1.03394 -0.000948983 6.50442e-22)
(1.03264 -0.0016732 -7.31791e-23)
(1.03273 -0.00241257 -5.76536e-23)
(1.03695 -0.00381169 -4.25793e-22)
(1.04788 -0.0022721 3.91927e-22)
(1.05994 -0.000547897 -4.25938e-24)
(1.07119 0.00607183 -2.07972e-23)
(1.07473 0.0126452 0)
(1.06939 0.0241081 -4.25403e-23)
(1.0487 0.0283314 0)
(1.01426 0.0288139 -1.76e-22)
(0.97222 0.022536 0)
(0.935884 0.0120182 0)
(0.905999 0.0127051 -3.1889e-21)
(0.882106 0.000664834 3.3886e-21)
(0.875945 -0.000928499 4.73089e-21)
(0.872073 -0.0123283 -4.48788e-21)
(0.909401 -0.0280557 3.76989e-22)
(0.965659 0.00181509 0)
(0.96409 0.00198845 -2.87357e-24)
(0.961407 0.00272277 0)
(0.959091 0.00313496 0)
(0.957062 0.00347472 -5.53297e-21)
(0.954701 0.00289314 2.4116e-21)
(0.952847 0.00252789 5.65243e-21)
(0.951863 0.0019167 -2.84234e-21)
(0.950661 0.000682008 0)
(0.950061 -0.000970862 0)
(0.950594 -0.00229765 0)
(0.952396 -0.00432004 -1.91434e-21)
(0.956672 -0.00645678 2.09253e-21)
(0.960562 -0.00936075 7.86382e-22)
(0.967639 -0.0103862 -7.51913e-22)
(0.976739 -0.0132658 -4.66916e-23)
(0.986366 -0.0137643 2.05584e-22)
(0.995832 -0.0143562 -1.49371e-22)
(1.00745 -0.0117025 2.53354e-22)
(1.01703 -0.0108455 -2.53446e-22)
(1.02573 -0.00653772 -1.10674e-23)
(1.03142 -0.00460883 -4.72271e-23)
(1.03441 -0.000826932 9.12627e-23)
(1.0336 -0.00121535 0)
(1.03321 -0.00168921 5.90929e-23)
(1.03531 -0.00453748 4.78567e-22)
(1.04356 -0.00440971 -4.01782e-22)
(1.05683 -0.00450256 1.09548e-22)
(1.07158 0.00288165 -5.32645e-22)
(1.0787 0.00878552 4.12214e-22)
(1.07972 0.0220605 8.54567e-22)
(1.06688 0.0313805 -6.3121e-22)
(1.04246 0.0400867 1.17396e-22)
(1.00086 0.0452523 1.103e-21)
(0.959715 0.0351936 1.49882e-21)
(0.925682 0.0380066 -2.40641e-21)
(0.891244 0.0189188 0)
(0.877346 0.0110134 3.9636e-21)
(0.864587 -0.0076064 1.10878e-21)
(0.890431 -0.0240671 -4.99964e-21)
(0.96466 0.00178268 5.69382e-21)
(0.963104 0.00185015 -3.13917e-24)
(0.960221 0.00260033 0)
(0.957922 0.00325201 0)
(0.955837 0.00341581 5.35271e-21)
(0.953811 0.00260929 -5.38434e-21)
(0.951982 0.00229075 2.90174e-21)
(0.951044 0.00139459 3.21357e-22)
(0.95029 0.000720326 -2.89549e-21)
(0.950064 -0.000688633 2.68055e-21)
(0.95119 -0.00139125 -2.36711e-21)
(0.953079 -0.00352538 -2.35256e-21)
(0.957385 -0.00494687 2.47017e-21)
(0.961301 -0.00813228 0)
(0.968923 -0.00923258 4.41041e-22)
(0.977224 -0.012723 -4.28123e-22)
(0.987361 -0.0133428 2.00607e-22)
(0.995895 -0.0145556 1.89822e-22)
(1.00899 -0.0116816 -6.2894e-23)
(1.01767 -0.0108365 -2.68698e-22)
(1.02625 -0.00641502 -3.69059e-22)
(1.03046 -0.00453486 -3.98145e-22)
(1.03463 -0.00020934 6.73352e-22)
(1.03435 -0.00048438 1.19191e-21)
(1.03432 -0.00124196 -1.19463e-21)
(1.03533 -0.00491041 -5.37965e-22)
(1.04026 -0.00622784 5.45217e-22)
(1.05126 -0.00853111 1.32336e-23)
(1.06835 -0.00159494 0)
(1.08074 0.00460457 -6.42306e-22)
(1.08825 0.0212352 5.22797e-22)
(1.08004 0.0347635 6.86977e-22)
(1.06038 0.0430357 -7.76852e-22)
(1.02584 0.050136 -1.17511e-21)
(0.983929 0.0369572 9.19677e-22)
(0.948848 0.0380061 -1.4542e-23)
(0.908669 0.0247186 0)
(0.888887 0.0176643 3.21223e-21)
(0.866568 0.00226809 1.21531e-22)
(0.878599 -0.00384335 -3.27687e-21)
(0.96417 0.00276956 4.58602e-21)
(0.96243 0.00266394 -3.39876e-22)
(0.959504 0.00360781 5.61891e-21)
(0.957073 0.00418184 -5.66425e-21)
(0.954933 0.00435875 3.65523e-22)
(0.953253 0.00341172 -3.71304e-22)
(0.951537 0.00287526 0)
(0.950779 0.00179013 2.19974e-21)
(0.950152 0.000939105 -2.96097e-21)
(0.949968 -0.00107729 0)
(0.95121 -0.00255382 1.86845e-21)
(0.952995 -0.00600958 -2.24706e-21)
(0.957985 -0.00827096 -2.80972e-24)
(0.961798 -0.0123404 0)
(0.970062 -0.0137724 3.51083e-22)
(0.977156 -0.0176982 -3.26956e-22)
(0.988806 -0.0176809 1.9273e-22)
(0.996982 -0.0189578 1.95676e-22)
(1.01 -0.0155011 -1.3341e-22)
(1.01838 -0.014226 -3.06581e-22)
(1.02715 -0.00859586 0)
(1.03039 -0.00661397 -7.17794e-22)
(1.03403 -0.00133355 7.17335e-22)
(1.03411 -0.00125518 0)
(1.03433 -0.00191934 1.4493e-22)
(1.03468 -0.00565646 0)
(1.03875 -0.00790071 1.70947e-22)
(1.04794 -0.0126759 -3.03746e-22)
(1.065 -0.00710287 -1.24117e-23)
(1.07882 -0.00132195 1.30122e-22)
(1.09082 0.0143431 6.1808e-22)
(1.08916 0.0316573 -1.52875e-21)
(1.07423 0.0421563 8.30129e-22)
(1.05016 0.0602067 -9.42385e-22)
(1.00612 0.0538808 3.23929e-21)
(0.974521 0.0551279 -2.42004e-21)
(0.928823 0.0425684 0)
(0.903648 0.0335194 3.76543e-21)
(0.865147 0.0143729 7.06374e-22)
(0.868254 0.00156816 -4.4812e-21)
(0.962974 0.00268145 0)
(0.961229 0.00251298 6.90022e-22)
(0.958192 0.00349527 0)
(0.955805 0.003964 7.45324e-22)
(0.953758 0.00418927 5.32433e-21)
(0.952264 0.00311993 -3.06474e-21)
(0.950772 0.00246569 -3.08826e-21)
(0.950173 0.00115839 3.82565e-22)
(0.949672 9.28534e-05 0)
(0.949604 -0.00232869 0)
(0.951478 -0.00369935 2.90659e-21)
(0.953157 -0.00749169 -2.88395e-21)
(0.958573 -0.00883623 -3.85822e-22)
(0.962397 -0.0132721 -9.75038e-23)
(0.971397 -0.014558 3.25612e-22)
(0.977592 -0.0187754 -3.09913e-22)
(0.990147 -0.0188058 2.18586e-22)
(0.997838 -0.0202939 2.02484e-22)
(1.01107 -0.0165296 -1.16723e-22)
(1.01918 -0.0152164 -3.06242e-22)
(1.02883 -0.00893618 -2.61725e-23)
(1.03118 -0.0064726 -9.2794e-22)
(1.03387 -0.000697641 9.78954e-22)
(1.03361 -8.09827e-05 9.81659e-23)
(1.03396 -0.000798011 -3.06159e-22)
(1.03401 -0.00471061 0)
(1.03824 -0.00795103 3.90123e-22)
(1.04605 -0.014252 -2.82996e-22)
(1.06048 -0.0121156 2.58857e-23)
(1.07568 -0.0068358 -1.26203e-22)
(1.09119 0.00711635 8.44498e-23)
(1.09784 0.0305993 7.99688e-22)
(1.08451 0.0436887 -8.81891e-22)
(1.06647 0.0643968 1.96456e-22)
(1.02774 0.0634117 1.24262e-22)
(0.99754 0.0628591 -2.77733e-21)
(0.946396 0.0534689 2.49374e-21)
(0.9221 0.0449413 3.36878e-21)
(0.877381 0.032139 -3.33915e-21)
(0.868308 0.0172204 0)
(0.962298 0.00369079 0)
(0.960556 0.00346625 0)
(0.957434 0.00443234 6.77667e-21)
(0.954972 0.00489556 -1.30371e-20)
(0.952954 0.00511713 6.23357e-21)
(0.951716 0.00384729 0)
(0.950195 0.00293346 3.14622e-21)
(0.949744 0.00126005 -7.10837e-23)
(0.949609 1.88792e-05 -2.73067e-21)
(0.949244 -0.00296392 0)
(0.951695 -0.00443231 -3.42271e-22)
(0.953301 -0.00885606 3.06402e-22)
(0.958885 -0.0109048 1.17514e-21)
(0.962808 -0.0161009 -8.15441e-22)
(0.972438 -0.0175189 0)
(0.978749 -0.0223765 -8.62812e-23)
(0.990845 -0.0220234 3.66728e-22)
(0.999087 -0.023406 -7.51233e-22)
(1.01296 -0.0194122 4.58494e-22)
(1.01993 -0.0177217 -9.16121e-25)
(1.02963 -0.0105585 5.08574e-22)
(1.03206 -0.00731171 -4.53475e-22)
(1.03456 -0.00125864 1.17943e-22)
(1.03337 -0.000327765 -1.01038e-22)
(1.03285 -0.00121242 1.62117e-22)
(1.03231 -0.00514182 0)
(1.03649 -0.00965104 0)
(1.04303 -0.0165934 -4.87611e-23)
(1.05634 -0.0181186 -3.15001e-22)
(1.07288 -0.0129791 3.76666e-22)
(1.08812 -0.00283159 0)
(1.10274 0.0238942 -7.88363e-22)
(1.09501 0.0391832 7.80494e-22)
(1.08296 0.0632634 -8.54035e-22)
(1.04662 0.0710761 7.54598e-22)
(1.01845 0.0746567 -1.96439e-21)
(0.966146 0.0691445 2.21704e-21)
(0.942555 0.0591333 0)
(0.893537 0.0525667 0)
(0.87185 0.0268653 4.27061e-22)
(0.961031 0.00355083 -3.37221e-23)
(0.95919 0.00315045 6.6713e-21)
(0.956154 0.00427559 -7.69245e-22)
(0.953769 0.00458027 -8.00239e-22)
(0.951631 0.00473878 -6.50913e-21)
(0.950714 0.00336763 9.81675e-21)
(0.949641 0.00222968 -3.28432e-21)
(0.948869 0.0002481 3.18382e-21)
(0.949422 -0.00114428 -3.98533e-21)
(0.949022 -0.00439874 -3.27396e-21)
(0.951706 -0.00611254 5.91771e-21)
(0.953268 -0.0112516 -5.26649e-21)
(0.959299 -0.0129755 2.30404e-21)
(0.963278 -0.0187063 0)
(0.973119 -0.0202034 0)
(0.979604 -0.0249181 1.08216e-22)
(0.992308 -0.024551 6.62858e-23)
(1.00037 -0.0261089 -2.83238e-22)
(1.01472 -0.0215606 -3.91315e-22)
(1.02137 -0.0192503 3.7726e-22)
(1.03076 -0.0119097 -2.8766e-23)
(1.03315 -0.00784463 -9.98712e-22)
(1.03571 -0.00134268 8.75769e-22)
(1.03376 0.000596236 1.64344e-21)
(1.03197 -0.000300889 -1.63194e-21)
(1.03046 -0.00426585 0)
(1.03399 -0.0093707 0)
(1.04053 -0.0168309 -7.359e-23)
(1.05259 -0.0222308 -2.85216e-22)
(1.07047 -0.0175771 2.83678e-22)
(1.08514 -0.0122643 7.91649e-22)
(1.10408 0.0136436 8.25169e-23)
(1.10362 0.0350654 -6.88988e-22)
(1.09838 0.0611967 -6.45792e-22)
(1.06493 0.0778528 2.1661e-21)
(1.04003 0.0851699 -1.32848e-21)
(0.988823 0.0840773 -2.40947e-22)
(0.961667 0.0698015 2.89259e-21)
(0.912292 0.0713787 -2.50433e-21)
(0.880534 0.0447217 -4.46707e-23)
(0.960226 0.00461812 -6.11037e-21)
(0.958352 0.00413641 1.16681e-20)
(0.955387 0.00527117 1.40037e-22)
(0.953056 0.00549187 -1.31949e-20)
(0.950687 0.0054838 8.3891e-21)
(0.949893 0.0038725 0)
(0.949313 0.00250845 0)
(0.948005 6.2403e-05 8.33851e-22)
(0.949075 -0.00163074 4.05105e-22)
(0.948692 -0.00524631 -2.1952e-21)
(0.951715 -0.00719797 2.98844e-21)
(0.953213 -0.0128986 -2.31792e-21)
(0.959507 -0.014765 3.245e-21)
(0.963729 -0.0212814 -7.27194e-22)
(0.973925 -0.0224912 2.3786e-22)
(0.980611 -0.0277028 -5.1191e-23)
(0.993821 -0.0274312 1.81862e-22)
(1.00174 -0.0285501 2.82064e-22)
(1.01572 -0.0240749 -2.10551e-22)
(1.02317 -0.0208635 -3.81184e-22)
(1.03327 -0.013232 0)
(1.03447 -0.00792335 -9.36199e-22)
(1.036 -0.00152688 1.07253e-21)
(1.03363 0.00134898 0)
(1.03125 0.000575959 0)
(1.02898 -0.003359 9.65391e-22)
(1.03113 -0.0103137 -1.49891e-21)
(1.0381 -0.0171486 6.98699e-22)
(1.04824 -0.0270097 -3.13324e-24)
(1.06598 -0.0242815 0)
(1.08222 -0.0206661 -8.2381e-22)
(1.10322 0.000689674 7.30832e-22)
(1.10817 0.0274646 -1.61777e-22)
(1.11038 0.0563578 0)
(1.08392 0.0771143 0)
(1.06222 0.0901565 -1.75174e-21)
(1.01146 0.0984565 1.79382e-21)
(0.981604 0.0829892 2.26898e-21)
(0.936305 0.0915836 -3.17991e-21)
(0.89342 0.0629217 -4.04699e-22)
(0.958846 0.0043565 -6.35447e-21)
(0.956961 0.0037643 7.21704e-21)
(0.953977 0.00489796 0)
(0.951842 0.00500703 1.71646e-21)
(0.949909 0.00493633 -1.74695e-21)
(0.948406 0.00298777 4.36667e-21)
(0.948753 0.00130505 -4.38363e-21)
(0.947356 -0.00109977 1.73683e-24)
(0.948517 -0.00303999 -3.24446e-21)
(0.948135 -0.00725336 5.51163e-21)
(0.951635 -0.00936203 -2.33274e-21)
(0.953256 -0.0156486 2.66991e-21)
(0.959993 -0.0176205 -1.45166e-21)
(0.964159 -0.0243663 -1.11318e-21)
(0.97472 -0.0260281 0)
(0.981647 -0.0311638 0)
(0.995294 -0.0307912 0)
(1.0034 -0.0316442 5.99644e-22)
(1.01755 -0.0269171 -4.20119e-22)
(1.02476 -0.0230683 0)
(1.0351 -0.0150776 -5.624e-22)
(1.03671 -0.00814952 -5.91733e-22)
(1.03761 -0.00170476 -9.94706e-23)
(1.03444 0.00209458 1.10764e-21)
(1.03049 0.00152748 0)
(1.02798 -0.00184963 -1.27075e-21)
(1.02677 -0.010192 4.64386e-22)
(1.0344 -0.0177813 6.41313e-22)
(1.04333 -0.0284888 -9.84598e-24)
(1.06228 -0.0297632 0)
(1.07812 -0.0288853 -7.87637e-22)
(1.1027 -0.0120325 7.82094e-22)
(1.11076 0.0136902 3.38732e-22)
(1.12238 0.0454543 -3.57126e-22)
(1.10129 0.0770216 1.30564e-21)
(1.08301 0.0917764 -9.10876e-22)
(1.03726 0.111973 0)
(1.00465 0.0962419 2.3294e-21)
(0.962578 0.108127 -1.98389e-21)
(0.910324 0.0819386 -2.97435e-22)
(0.957891 0.00543262 0)
(0.956006 0.00474717 6.81416e-21)
(0.953187 0.00576541 1.35672e-22)
(0.950689 0.00580689 -8.86845e-21)
(0.949125 0.00544297 7.21488e-21)
(0.947477 0.0033073 -7.28891e-21)
(0.947874 0.00139868 9.00858e-22)
(0.946523 -0.00165708 2.59688e-21)
(0.948109 -0.00387396 -4.36861e-21)
(0.947635 -0.00847891 3.94106e-21)
(0.95138 -0.0108452 -5.96071e-21)
(0.953055 -0.0177811 2.49617e-21)
(0.96013 -0.0196893 9.13305e-22)
(0.964481 -0.0272248 -9.18477e-22)
(0.97545 -0.0289262 -2.49064e-22)
(0.982425 -0.0339322 -1.45605e-22)
(0.996653 -0.0339542 7.10365e-22)
(1.00485 -0.0339212 -3.35484e-22)
(1.0201 -0.0295879 -9.57755e-23)
(1.02692 -0.0242533 3.25261e-23)
(1.03638 -0.0167138 -6.09143e-22)
(1.0388 -0.00805533 4.54858e-22)
(1.03954 -0.0012747 -8.09257e-24)
(1.03592 0.00358114 2.44445e-21)
(1.03013 0.00324629 -2.1398e-21)
(1.02644 -2.77958e-05 5.72468e-22)
(1.02335 -0.00840499 2.61232e-22)
(1.02938 -0.0177014 -1.12622e-22)
(1.03703 -0.0306427 -1.55104e-22)
(1.05739 -0.0358456 -4.91062e-22)
(1.07353 -0.0357782 6.54162e-22)
(1.09966 -0.0272688 8.11851e-22)
(1.11386 0.00265595 -9.82969e-22)
(1.12985 0.0292689 -4.43729e-22)
(1.11823 0.0700241 6.20306e-22)
(1.10497 0.0904243 0)
(1.06327 0.119549 0)
(1.0276 0.108613 1.65252e-21)
(0.992687 0.124256 -1.25334e-21)
(0.928957 0.103169 5.3373e-22)
(0.956376 0.00495967 -1.92235e-23)
(0.954416 0.00424582 6.09013e-21)
(0.952073 0.00514864 9.10692e-22)
(0.949196 0.0050849 9.24762e-22)
(0.947986 0.00438392 9.39528e-21)
(0.946469 0.00214809 -4.78207e-21)
(0.947203 -6.29369e-05 -4.71579e-21)
(0.945565 -0.00338825 0)
(0.947529 -0.00591777 8.88831e-22)
(0.947088 -0.0109855 2.37263e-21)
(0.951246 -0.0135327 -4.00934e-21)
(0.952892 -0.0209362 -2.4193e-21)
(0.960487 -0.0233076 2.7052e-21)
(0.964898 -0.030768 0)
(0.976367 -0.0329431 2.03863e-22)
(0.983561 -0.0376841 -1.11592e-22)
(0.998096 -0.0379149 4.5789e-22)
(1.00706 -0.0374475 1.22057e-22)
(1.02129 -0.0328938 -1.22368e-21)
(1.0305 -0.0265229 4.59053e-22)
(1.03801 -0.0185976 4.10529e-23)
(1.0418 -0.00870292 0)
(1.04187 -0.00147992 1.66859e-22)
(1.03768 0.00456753 -3.08731e-22)
(1.03082 0.00516968 2.82706e-22)
(1.02527 0.00210739 -1.82497e-21)
(1.01994 -0.00693683 2.01424e-21)
(1.02361 -0.0170339 -8.67077e-22)
(1.03241 -0.0307333 0)
(1.04542 -0.0411801 0)
(1.07312 -0.0430858 -9.53502e-22)
(1.09197 -0.0397451 9.44519e-22)
(1.11575 -0.0147201 0)
(1.13471 0.0119932 -2.8148e-22)
(1.1303 0.0577428 -4.57289e-22)
(1.12396 0.0820234 1.40482e-22)
(1.09413 0.122773 3.02534e-22)
(1.05114 0.119394 7.83993e-22)
(1.01987 0.136804 -8.93523e-22)
(0.959391 0.122932 -8.72506e-23)
(0.955203 0.00598656 -7.20983e-21)
(0.953226 0.00515596 7.2789e-21)
(0.950776 0.00596026 -9.39194e-22)
(0.948128 0.00561184 0)
(0.946944 0.00468994 -8.79456e-21)
(0.94511 0.00211506 1.17965e-20)
(0.946247 -0.000525989 -2.96321e-21)
(0.944495 -0.00413936 0)
(0.946736 -0.00695873 8.05565e-21)
(0.946172 -0.012755 -4.3118e-21)
(0.95074 -0.0155653 -3.33827e-21)
(0.952448 -0.0234194 -2.45957e-21)
(0.960506 -0.0260084 3.11199e-21)
(0.965051 -0.0337027 -7.39255e-22)
(0.97667 -0.0365879 1.24167e-22)
(0.985322 -0.0406357 -2.61648e-23)
(0.997715 -0.0417153 5.19467e-22)
(1.01134 -0.0394939 2.82657e-22)
(1.02109 -0.0363409 -3.94145e-22)
(1.03478 -0.0275127 -5.02025e-22)
(1.03988 -0.020313 -8.73994e-23)
(1.04438 -0.00887602 -1.49852e-21)
(1.04471 -0.000588597 1.68916e-21)
(1.04008 0.00653097 2.61651e-21)
(1.03169 0.00794114 -2.90076e-21)
(1.02479 0.00509043 1.61997e-21)
(1.01802 -0.00284159 -1.2612e-21)
(1.01699 -0.0166187 0)
(1.02592 -0.0293674 5.02299e-23)
(1.0363 -0.0456442 -6.4461e-22)
(1.06126 -0.0491932 -6.1159e-22)
(1.08993 -0.0519259 1.05774e-21)
(1.10924 -0.0308208 0)
(1.14027 -0.00939068 -3.33365e-22)
(1.14391 0.0408123 3.98038e-22)
(1.13845 0.0664746 -4.37888e-24)
(1.12165 0.11955 5.76563e-23)
(1.07949 0.127409 0)
(1.0504 0.147748 0)
(0.987384 0.139769 -2.02832e-22)
(0.953672 0.0053427 -7.53596e-21)
(0.951645 0.00439035 7.61489e-21)
(0.949551 0.0049024 0)
(0.946594 0.00454035 0)
(0.945849 0.00326955 0)
(0.943749 0.000589685 0)
(0.945167 -0.00240699 0)
(0.943376 -0.00663944 0)
(0.946024 -0.00963949 -5.61209e-21)
(0.945503 -0.0158125 6.42797e-21)
(0.950556 -0.0189651 3.02978e-21)
(0.952408 -0.027132 -9.00223e-22)
(0.960252 -0.030463 -1.60971e-21)
(0.967179 -0.0376145 -1.09893e-21)
(0.975304 -0.0415929 -6.08668e-23)
(0.989362 -0.0444094 5.32701e-22)
(0.997879 -0.0466873 1.5105e-23)
(1.01441 -0.0432685 3.9874e-22)
(1.02389 -0.0396139 -4.26503e-23)
(1.03695 -0.0308769 -5.9366e-22)
(1.04409 -0.0216301 -2.68765e-24)
(1.04696 -0.0102244 -1.85599e-21)
(1.047 -0.000798425 3.47158e-21)
(1.04299 0.00785863 -1.19804e-21)
(1.03417 0.0108004 0)
(1.02459 0.00780665 -5.69412e-22)
(1.01731 0.00166125 -3.63745e-22)
(1.01122 -0.0142502 0)
(1.01749 -0.0278257 6.25411e-23)
(1.02848 -0.0479868 -1.78414e-22)
(1.04551 -0.0553488 2.55897e-22)
(1.08347 -0.0651229 0)
(1.10366 -0.0470784 0)
(1.1374 -0.0329479 -5.83475e-22)
(1.15669 0.0200962 5.77731e-22)
(1.15387 0.0484702 -2.12887e-23)
(1.14759 0.104704 5.78106e-23)
(1.10836 0.128516 -4.61595e-22)
(1.08279 0.155319 5.96075e-22)
(1.02075 0.156405 5.2026e-23)
(0.952072 0.00622169 0)
(0.950095 0.00511326 0)
(0.94823 0.0054524 0)
(0.944843 0.00488996 0)
(0.94445 0.00308175 0)
(0.94214 0.000108244 5.31567e-21)
(0.943756 -0.00309277 -4.28516e-21)
(0.941847 -0.00783487 -4.04747e-21)
(0.944922 -0.0113104 8.93302e-21)
(0.944475 -0.0179746 -2.20272e-21)
(0.948639 -0.0215239 -4.00387e-21)
(0.953823 -0.0298979 7.18481e-22)
(0.95785 -0.034557 2.72635e-22)
(0.968988 -0.0403001 -1.67426e-22)
(0.975636 -0.0463216 -8.84927e-23)
(0.989892 -0.0478481 1.41888e-22)
(1.00002 -0.05037 6.73556e-22)
(1.01592 -0.0466571 -6.75361e-22)
(1.02726 -0.0424642 3.64636e-22)
(1.03973 -0.0324776 -7.03761e-22)
(1.04721 -0.0231666 -3.05711e-24)
(1.051 -0.0104157 2.1918e-22)
(1.05008 0.000269895 -4.41505e-22)
(1.04561 0.009544 3.28832e-21)
(1.03688 0.0144476 -3.24817e-21)
(1.02451 0.0118481 1.24094e-21)
(1.01649 0.0066187 -1.44743e-21)
(1.00767 -0.00826411 1.43894e-21)
(1.00764 -0.0241604 -1.27908e-22)
(1.01974 -0.0480934 0)
(1.03238 -0.059264 -1.29829e-21)
(1.06475 -0.0764162 2.79624e-21)
(1.09767 -0.0627554 -1.49765e-21)
(1.1317 -0.0554076 0)
(1.1612 -0.00916194 0)
(1.16882 0.0235816 7.85058e-22)
(1.17419 0.0844309 -1.03149e-21)
(1.13803 0.119534 1.59536e-21)
(1.1156 0.158428 -1.48097e-21)
(1.05134 0.168667 -1.97663e-22)
(0.950522 0.0052384 0)
(0.948208 0.00392729 0)
(0.946723 0.00401807 8.74477e-21)
(0.943669 0.00335481 -9.95871e-21)
(0.943481 0.00121998 8.92494e-21)
(0.940891 -0.0021554 -1.12931e-20)
(0.942609 -0.00558391 -5.49513e-21)
(0.941044 -0.0110067 -9.05704e-22)
(0.942893 -0.0145591 5.32641e-21)
(0.945773 -0.0214695 0)
(0.946799 -0.0270838 8.73967e-22)
(0.954118 -0.0331203 -3.3108e-21)
(0.957995 -0.0403956 2.31354e-21)
(0.969891 -0.045311 1.74215e-22)
(0.976854 -0.0513603 2.13013e-23)
(0.991747 -0.0528853 1.32006e-23)
(1.00233 -0.0556493 6.12762e-22)
(1.01787 -0.0508766 3.57684e-22)
(1.03111 -0.0468452 -2.41271e-22)
(1.0428 -0.0361597 -7.3248e-22)
(1.05139 -0.024668 5.63631e-23)
(1.05534 -0.0120547 -2.00627e-21)
(1.05408 0.000289177 2.00246e-21)
(1.04898 0.0108128 -4.64741e-22)
(1.04055 0.0177913 0)
(1.02654 0.0159492 -6.75769e-22)
(1.01422 0.0115864 1.73165e-21)
(1.00599 -0.00304284 -3.674e-21)
(1.00031 -0.017987 1.48674e-21)
(1.00776 -0.0454832 -5.62357e-24)
(1.01951 -0.0597156 1.95863e-21)
(1.04408 -0.0870716 -3.13767e-21)
(1.08269 -0.0799227 2.23408e-21)
(1.12 -0.0792192 0)
(1.16393 -0.0402131 0)
(1.1759 -0.00571277 0)
(1.1986 0.0559153 1.28822e-24)
(1.16991 0.100855 -2.69716e-21)
(1.15512 0.149835 2.41045e-21)
(1.08716 0.176887 5.62012e-22)
(0.948591 0.0058073 -8.73862e-21)
(0.946172 0.00459968 8.84894e-21)
(0.94473 0.00422738 0)
(0.941617 0.00313775 1.15981e-21)
(0.941688 0.000758093 0)
(0.939265 -0.00298731 2.36916e-21)
(0.939953 -0.00680088 -9.2152e-21)
(0.941324 -0.0123832 7.14165e-21)
(0.939939 -0.017987 -1.88905e-21)
(0.944716 -0.0232483 3.21291e-21)
(0.945608 -0.0305544 -2.23427e-24)
(0.953926 -0.0369078 3.37061e-21)
(0.957754 -0.044526 -2.63673e-21)
(0.969565 -0.0491896 -1.48497e-22)
(0.977823 -0.0562259 -2.21725e-23)
(0.992091 -0.0570106 1.53944e-23)
(1.00657 -0.0600291 1.63145e-22)
(1.01853 -0.0546442 1.26986e-21)
(1.03603 -0.0497327 -2.08853e-21)
(1.04534 -0.0389131 8.17054e-22)
(1.05502 -0.0262899 1.13394e-21)
(1.05992 -0.0120759 -3.29488e-21)
(1.05794 0.000944526 2.49016e-23)
(1.05249 0.0126302 2.19274e-21)
(1.04392 0.0218614 -5.07229e-22)
(1.03009 0.0217948 -3.73499e-21)
(1.01447 0.0191069 2.86208e-21)
(1.00242 0.0040383 4.52494e-22)
(0.994306 -0.0102666 2.40289e-22)
(0.995393 -0.0401569 1.03437e-23)
(1.0062 -0.055633 -2.35684e-22)
(1.02276 -0.0902602 0)
(1.06415 -0.0957703 -5.08375e-22)
(1.09884 -0.101935 0)
(1.15572 -0.0750058 4.09043e-22)
(1.17858 -0.0443995 0)
(1.21882 0.0202198 2.86515e-22)
(1.20014 0.07299 -3.29702e-21)
(1.19709 0.131542 5.71938e-23)
(1.12766 0.177172 3.77635e-21)
(0.946678 0.00424071 8.09292e-21)
(0.944266 0.00294276 0)
(0.942914 0.00224164 1.22432e-21)
(0.939871 0.000801761 -1.11521e-20)
(0.939357 -0.00195012 1.00456e-20)
(0.939373 -0.00551661 -2.50778e-21)
(0.93672 -0.0111367 1.09029e-20)
(0.940546 -0.0156996 -1.21881e-20)
(0.93896 -0.0224468 1.14018e-21)
(0.944119 -0.0281964 1.05916e-21)
(0.944915 -0.0361803 -4.69802e-22)
(0.95367 -0.0420558 -3.89726e-22)
(0.958087 -0.0507756 8.43312e-22)
(0.970213 -0.0556265 -6.94578e-22)
(0.980553 -0.0619643 0)
(0.99234 -0.0639082 1.83391e-23)
(1.01054 -0.0645567 2.13099e-22)
(1.02166 -0.0611089 0)
(1.03956 -0.0533616 9.137e-22)
(1.05087 -0.0430031 -9.1464e-22)
(1.05919 -0.0290669 -6.9332e-23)
(1.06475 -0.0135554 0)
(1.06384 0.000899345 0)
(1.05687 0.0137019 0)
(1.04801 0.0249295 1.10534e-21)
(1.03308 0.0266577 8.93552e-22)
(1.01747 0.0263306 -2.50039e-21)
(1.00062 0.0122126 2.01105e-21)
(0.989515 -0.000853968 -5.73548e-22)
(0.983202 -0.0321047 1.08282e-22)
(0.991759 -0.0507447 -1.17521e-21)
(0.999397 -0.0871755 4.10655e-21)
(1.04091 -0.106431 -2.2042e-21)
(1.07393 -0.121812 2.2457e-21)
(1.13693 -0.109003 -5.57464e-21)
(1.16835 -0.086517 2.89507e-21)
(1.22971 -0.0319748 -1.20218e-22)
(1.22682 0.0341793 -4.37868e-21)
(1.23973 0.101423 -1.6472e-21)
(1.17281 0.167785 5.0989e-21)
(0.944313 0.00482644 1.20583e-21)
(0.941718 0.00302483 -1.26521e-21)
(0.939992 0.00197629 2.97977e-23)
(0.938459 0.00058382 1.2978e-21)
(0.9352 -0.00303647 0)
(0.93718 -0.00719562 -2.57274e-21)
(0.934573 -0.0131861 5.30801e-21)
(0.93838 -0.0180661 6.18081e-21)
(0.936567 -0.0259934 -4.97258e-21)
(0.942659 -0.031308 1.11358e-21)
(0.943503 -0.0404185 0)
(0.952908 -0.0471856 -2.28282e-21)
(0.958153 -0.0545882 3.766e-21)
(0.969442 -0.0621698 -6.96023e-22)
(0.98202 -0.065571 6.34595e-23)
(0.994118 -0.0701453 -1.54454e-21)
(1.01184 -0.0691285 1.21457e-21)
(1.02618 -0.065523 0)
(1.04203 -0.0571776 0)
(1.05527 -0.045173 0)
(1.06451 -0.0314012 8.2949e-23)
(1.06906 -0.0142927 0)
(1.06921 0.00218792 -2.7719e-21)
(1.06252 0.0156251 8.01478e-21)
(1.05298 0.0288799 -5.83101e-21)
(1.03652 0.0328506 -1.1465e-21)
(1.02023 0.0353811 0)
(1.00034 0.0228577 0)
(0.986451 0.0113068 -9.34301e-23)
(0.971545 -0.0192058 -4.17775e-22)
(0.978044 -0.0433619 1.6206e-21)
(0.977913 -0.0788122 -1.28048e-21)
(1.01179 -0.106976 -6.97211e-22)
(1.04109 -0.13554 -3.69537e-21)
(1.10882 -0.141 2.85584e-21)
(1.14469 -0.125484 5.63628e-22)
(1.2237 -0.0925499 0)
(1.24046 -0.0256938 3.74918e-22)
(1.28215 0.0520435 -6.27506e-21)
(1.22151 0.144613 6.25273e-21)
(0.942005 0.00243806 -1.1806e-20)
(0.940462 0.000694509 1.3144e-21)
(0.937021 -0.000949656 -1.35413e-21)
(0.936472 -0.00311905 1.41646e-21)
(0.933415 -0.00680825 -1.43128e-21)
(0.935376 -0.0110963 9.72352e-21)
(0.932621 -0.0176724 -1.12842e-20)
(0.937039 -0.0229345 0)
(0.935294 -0.0314158 1.27996e-21)
(0.941984 -0.0384218 3.16925e-21)
(0.943864 -0.0457124 -4.37874e-21)
(0.952456 -0.0553002 -3.08602e-21)
(0.95968 -0.0611101 3.17282e-21)
(0.971078 -0.0700191 -7.86019e-22)
(0.983468 -0.0732078 4.01614e-23)
(0.998467 -0.0773312 0)
(1.01411 -0.0754313 1.64742e-21)
(1.03164 -0.0718047 7.52041e-23)
(1.04754 -0.0629646 -1.86123e-21)
(1.06061 -0.0492903 0)
(1.07092 -0.0342908 -8.69157e-23)
(1.07555 -0.0171687 -3.1256e-21)
(1.07585 0.00182459 3.93716e-21)
(1.06911 0.0166543 -8.04434e-22)
(1.06 0.0316259 0)
(1.04168 0.0379966 2.53414e-21)
(1.02547 0.0433221 0)
(1.00132 0.0335319 0)
(0.987181 0.0233605 1.01938e-21)
(0.964004 -0.00192158 0)
(0.964297 -0.0308238 -7.76905e-23)
(0.95683 -0.0679638 1.85939e-21)
(0.982786 -0.104021 -8.67055e-22)
(1.00336 -0.135484 8.36288e-22)