/*--------------------------------*- C++ -*----------------------------------*\
  =========                 |
  \\      /  F ield         | OpenFOAM: The Open Source CFD Toolbox
   \\    /   O peration     | Website:  https://openfoam.org
    \\  /    A nd           | Version:  11
     \\/     M anipulation  |
\*---------------------------------------------------------------------------*/
FoamFile
{
    format      ascii;
    class       volScalarField;
    location    "7";
    object      mag(U);
}
// * * * * * * * * * * * * * * * * * * * * * * * * * * * * * * * * * * * * * //

dimensions      [0 1 -1 0 0 0 0];

internalField   nonuniform List<scalar> 
9600
(
0.992875
0.992348
0.991681
0.990832
0.990228
0.990227
0.990456
0.990909
0.991675
0.99283
0.994388
0.99625
0.998216
1.00034
1.00275
1.0057
1.00812
1.01071
1.01499
1.01789
1.01808
1.01558
1.00483
0.985923
0.972896
0.966929
0.966255
0.972061
0.987452
1.00314
1.01839
1.03371
1.04855
1.0615
1.0702
1.07367
1.07341
1.07115
1.06805
1.06015
0.993679
0.993502
0.993375
0.993486
0.993822
0.994505
0.995549
0.996314
0.997455
0.999535
1.00146
1.00328
1.00593
1.00936
1.01279
1.01616
1.01929
1.02198
1.02402
1.02637
1.02919
1.03153
1.03254
1.03276
1.03228
1.02931
1.02724
1.02811
1.0304
1.03604
1.04494
1.05421
1.06402
1.07198
1.07869
1.0824
1.0837
1.08219
1.08012
1.0658
0.993711
0.993541
0.993541
0.993692
0.994102
0.994868
0.99564
0.996481
0.997592
0.999601
1.00172
1.00383
1.0063
1.00966
1.01361
1.0171
1.01907
1.02069
1.0237
1.02834
1.03317
1.03596
1.03619
1.0346
1.03108
1.02469
1.02089
1.02105
1.02529
1.03252
1.04235
1.05296
1.06321
1.07265
1.08125
1.08842
1.09252
1.09334
1.09291
1.08889
0.99369
0.993581
0.993623
0.993811
0.994416
0.995118
0.995989
0.997076
0.998456
0.999736
1.00235
1.00484
1.00711
1.00932
1.01336
1.01724
1.02039
1.02182
1.02432
1.02761
1.03156
1.03377
1.03568
1.03611
1.03629
1.03622
1.039
1.04148
1.04592
1.04955
1.05635
1.06233
1.07077
1.07694
1.08423
1.08817
1.09176
1.09058
1.0883
1.07716
0.993652
0.993574
0.993682
0.993965
0.994563
0.995484
0.996284
0.997208
0.998402
1.00028
1.00226
1.00494
1.00761
1.01053
1.01331
1.01638
1.02037
1.02417
1.02695
1.02779
1.02858
1.03083
1.03606
1.04027
1.04303
1.04351
1.04342
1.04175
1.04211
1.04392
1.04943
1.05643
1.06548
1.07342
1.08129
1.08715
1.09242
1.09487
1.0956
1.09243
0.993596
0.993557
0.993707
0.993965
0.99478
0.99551
0.996529
0.997337
0.998708
1.00034
1.00328
1.00547
1.00794
1.01003
1.01379
1.01751
1.02145
1.02374
1.02568
1.02731
1.03046
1.03254
1.03618
1.03777
1.04027
1.04072
1.04373
1.04611
1.0505
1.053
1.05973
1.06444
1.07313
1.07906
1.08789
1.09245
1.09897
1.0994
1.09911
1.08906
0.99358
0.993567
0.993813
0.994034
0.994976
0.995623
0.996758
0.997586
0.999024
1.00054
1.00343
1.00604
1.00844
1.01021
1.01418
1.01813
1.02226
1.02404
1.02681
1.02838
1.03081
1.03234
1.03508
1.03676
1.03998
1.04192
1.0458
1.04667
1.04878
1.0499
1.05444
1.05885
1.06716
1.07437
1.08348
1.08918
1.09539
1.09744
1.10108
1.09731
0.993547
0.993523
0.993764
0.993972
0.994926
0.995556
0.996846
0.997513
0.999125
1.00103
1.00365
1.00601
1.00887
1.01122
1.01454
1.01775
1.02205
1.02536
1.02815
1.02929
1.03091
1.03189
1.03549
1.03791
1.04052
1.04072
1.04221
1.04259
1.04693
1.04913
1.05644
1.0613
1.07112
1.07743
1.08834
1.09403
1.10331
1.10587
1.11005
1.10184
0.993532
0.993544
0.993859
0.994068
0.99508
0.995758
0.996814
0.998079
0.999307
1.00131
1.00358
1.00678
1.00957
1.01169
1.01468
1.01815
1.02313
1.02621
1.02907
1.03034
1.0321
1.033
1.03555
1.03664
1.03928
1.03968
1.04189
1.0427
1.04512
1.04628
1.05175
1.05613
1.06494
1.0722
1.08344
1.0909
1.10062
1.10293
1.1089
1.10452
0.993432
0.993467
0.993725
0.993925
0.994958
0.995635
0.996789
0.998012
0.999494
1.00131
1.00389
1.00693
1.00985
1.01222
1.01544
1.01864
1.02315
1.02654
1.03005
1.03159
1.0335
1.03342
1.03505
1.03615
1.03899
1.03955
1.04118
1.0407
1.04274
1.04181
1.04767
1.05139
1.06218
1.06947
1.08327
1.09114
1.1043
1.10883
1.11874
1.11258
0.993343
0.993482
0.993869
0.994097
0.995063
0.995826
0.996837
0.998254
0.999856
1.00189
1.00389
1.00712
1.01054
1.01342
1.01622
1.0189
1.02351
1.02752
1.03149
1.03305
1.03455
1.03445
1.03577
1.0365
1.03857
1.03895
1.03972
1.03992
1.04188
1.04041
1.04375
1.0457
1.05412
1.06094
1.07467
1.08425
1.10043
1.10636
1.11835
1.1155
0.993143
0.993232
0.993668
0.993796
0.994879
0.995615
0.99657
0.997926
0.999946
1.00182
1.004
1.0072
1.01094
1.01359
1.01684
1.01959
1.02389
1.02791
1.03203
1.03384
1.0359
1.03598
1.0368
1.03636
1.03794
1.03834
1.03904
1.03885
1.04066
1.03829
1.04012
1.03972
1.04749
1.05314
1.06736
1.07743
1.09659
1.10483
1.1235
1.12158
0.992927
0.99316
0.993632
0.993894
0.995026
0.995779
0.996736
0.998235
1.00007
1.00244
1.00462
1.00748
1.01128
1.01435
1.01803
1.02077
1.02506
1.02864
1.03302
1.03513
1.03773
1.03797
1.03846
1.03788
1.03839
1.03812
1.03788
1.03713
1.03819
1.03644
1.03785
1.03586
1.04124
1.04467
1.05731
1.06663
1.08615
1.09635
1.11911
1.1229
0.992464
0.992691
0.993157
0.993476
0.99437
0.995364
0.99654
0.997731
0.999959
1.0022
1.00506
1.00743
1.01145
1.01474
1.01869
1.0217
1.02549
1.0291
1.03357
1.03631
1.03867
1.03949
1.04014
1.03942
1.03895
1.0379
1.03698
1.03542
1.03582
1.0335
1.0353
1.03211
1.03623
1.03739
1.04874
1.0567
1.07642
1.08765
1.11304
1.12383
0.992088
0.992405
0.993047
0.993477
0.994564
0.995499
0.996631
0.998217
1.00033
1.00258
1.00539
1.00815
1.0121
1.01568
1.02005
1.02289
1.02703
1.03058
1.03507
1.03813
1.04034
1.04193
1.04277
1.04207
1.04126
1.03897
1.03737
1.03416
1.03346
1.03064
1.03182
1.02832
1.03197
1.0312
1.04076
1.04676
1.0651
1.0772
1.10227
1.11748
0.991147
0.991686
0.992082
0.992736
0.993919
0.994693
0.99615
0.997242
1.00016
1.0021
1.00538
1.00815
1.01206
1.01583
1.02045
1.02393
1.02824
1.0316
1.03567
1.03898
1.04177
1.04332
1.04431
1.04335
1.04273
1.04013
1.03815
1.03354
1.03196
1.02682
1.0276
1.02279
1.02638
1.02447
1.03245
1.03778
1.05329
1.06607
1.08969
1.10939
0.991077
0.991465
0.991817
0.992277
0.993632
0.994917
0.996399
0.997739
1.00031
1.00317
1.00629
1.00916
1.01307
1.01648
1.02167
1.02594
1.03022
1.03401
1.03771
1.04097
1.04419
1.04591
1.04739
1.04623
1.0457
1.04254
1.04019
1.03481
1.03199
1.02506
1.0242
1.0178
1.01977
1.01672
1.02287
1.02678
1.03991
1.05287
1.07487
1.09873
0.989604
0.990297
0.990751
0.991014
0.992355
0.993703
0.995607
0.99699
0.999582
1.00245
1.00612
1.00921
1.01318
1.01679
1.02175
1.02648
1.03109
1.03531
1.03948
1.04246
1.04554
1.04733
1.04927
1.04795
1.04735
1.04376
1.04135
1.03542
1.03216
1.02425
1.02202
1.01354
1.01252
1.00839
1.01131
1.01387
1.0231
1.03721
1.05304
1.08369
0.989526
0.990312
0.990873
0.991018
0.992432
0.993361
0.995743
0.997395
1.00014
1.003
1.00696
1.01041
1.0151
1.01891
1.02352
1.02828
1.03319
1.03747
1.04272
1.04597
1.04919
1.05024
1.05274
1.05145
1.05128
1.04726
1.04464
1.03802
1.03401
1.02498
1.02139
1.01166
1.00859
1.00144
1.00068
1.00142
1.0039
1.01852
1.02697
1.06412
0.988175
0.988511
0.989299
0.989374
0.990954
0.992034
0.994237
0.996307
0.999259
1.00231
1.00637
1.01003
1.01506
1.01947
1.02459
1.02926
1.03464
1.03862
1.044
1.04765
1.05179
1.05273
1.05538
1.05398
1.05384
1.04953
1.04679
1.03974
1.0352
1.02567
1.02058
1.00982
1.0045
0.996827
0.990679
0.991302
0.985413
0.999278
0.998979
1.03449
0.988293
0.988437
0.989609
0.989392
0.9912
0.992278
0.994529
0.996782
0.999856
1.00313
1.0075
1.01157
1.01659
1.0213
1.02707
1.03191
1.0382
1.04226
1.04768
1.05109
1.05583
1.05694
1.06026
1.05893
1.05898
1.05442
1.05147
1.04433
1.03938
1.02965
1.02327
1.01177
1.00235
0.994848
0.983072
0.983122
0.97128
0.981714
0.974774
1.00502
0.986575
0.986813
0.987953
0.98784
0.989421
0.990593
0.993001
0.995364
0.998622
1.00211
1.0067
1.01128
1.01677
1.02148
1.02784
1.03278
1.03961
1.04428
1.05042
1.05367
1.05905
1.05991
1.06323
1.06225
1.06263
1.05831
1.05535
1.04785
1.04249
1.03281
1.02421
1.01465
1.00079
0.993692
0.977359
0.975924
0.958957
0.965723
0.952193
0.975663
0.986495
0.986795
0.988189
0.988201
0.989922
0.991279
0.993798
0.996244
0.99979
1.00346
1.00831
1.01285
1.01913
1.0239
1.03096
1.03606
1.04326
1.04813
1.05518
1.05833
1.06458
1.06601
1.06953
1.0684
1.06923
1.06499
1.06223
1.05535
1.04864
1.04086
1.02908
1.02087
1.00471
0.996887
0.977825
0.973072
0.952515
0.953397
0.934254
0.95069
0.983695
0.984029
0.985486
0.985941
0.987802
0.98949
0.992199
0.994995
0.998743
1.00234
1.00808
1.01232
1.01923
1.0243
1.03185
1.03729
1.04546
1.05015
1.0583
1.06144
1.06789
1.06965
1.074
1.07332
1.07412
1.07087
1.06682
1.06217
1.05314
1.0475
1.03392
1.02594
1.00884
0.999965
0.979724
0.972107
0.949303
0.94564
0.921748
0.929105
0.983528
0.984225
0.985683
0.986149
0.988253
0.990175
0.993222
0.996285
1.00102
1.00439
1.01094
1.01538
1.02287
1.02816
1.03627
1.04144
1.0506
1.05524
1.06392
1.06802
1.0746
1.07721
1.08082
1.08217
1.08145
1.08136
1.07541
1.07326
1.06305
1.05806
1.04455
1.03628
1.01911
1.00922
0.988311
0.978221
0.95414
0.94618
0.91927
0.917724
0.979777
0.980544
0.982126
0.982886
0.984842
0.986966
0.990866
0.99363
0.999374
1.00311
1.01019
1.01537
1.02368
1.02911
1.0385
1.0439
1.05333
1.05904
1.06703
1.07263
1.07808
1.08321
1.0851
1.08919
1.08694
1.08889
1.08256
1.08149
1.0718
1.06695
1.05403
1.0458
1.02877
1.01825
0.997475
0.985702
0.961474
0.949952
0.923035
0.912636
0.979502
0.981073
0.982262
0.983463
0.986165
0.988172
0.992592
0.995751
1.00172
1.00615
1.01347
1.01932
1.02821
1.03473
1.04367
1.05141
1.05941
1.06793
1.07419
1.08268
1.08633
1.09367
1.09423
1.10006
1.09745
1.10067
1.09504
1.09436
1.0856
1.08138
1.06914
1.06158
1.04542
1.03457
1.01484
1.00149
0.978796
0.96397
0.938018
0.921846
0.973344
0.975527
0.977498
0.978845
0.981599
0.984575
0.988644
0.993445
0.998848
1.00505
1.01187
1.01992
1.02739
1.03699
1.04451
1.05506
1.06193
1.07282
1.0781
1.08897
1.09157
1.1011
1.10145
1.10835
1.10614
1.10992
1.10515
1.10538
1.09734
1.09399
1.08274
1.07535
1.06083
1.04937
1.03178
1.01678
0.99625
0.978984
0.956132
0.935863
0.973684
0.975918
0.977337
0.980526
0.981574
0.986975
0.989827
0.996667
1.00136
1.01008
1.01569
1.02623
1.03301
1.04496
1.05178
1.06464
1.0704
1.08365
1.08793
1.1001
1.10303
1.11323
1.11394
1.12164
1.12028
1.12496
1.12121
1.12236
1.11604
1.11289
1.10413
1.09658
1.08506
1.07278
1.05823
1.04194
1.02466
1.00493
0.987554
0.961189
0.96597
0.970536
0.970492
0.975044
0.976273
0.98254
0.98525
0.993483
0.997803
1.00833
1.01405
1.02636
1.03308
1.04696
1.05367
1.0684
1.07399
1.08848
1.09308
1.10637
1.1095
1.12047
1.12209
1.1303
1.13024
1.1351
1.13345
1.13442
1.13124
1.12808
1.12281
1.11503
1.10722
1.09438
1.08385
1.06606
1.05332
1.03006
1.01884
0.988625
0.966147
0.972092
0.972605
0.977941
0.979539
0.986824
0.990175
0.999316
1.0045
1.01566
1.02247
1.03562
1.04315
1.05785
1.06492
1.08044
1.08619
1.10125
1.1065
1.11937
1.12384
1.13416
1.13783
1.14489
1.14759
1.15142
1.15276
1.15361
1.15332
1.15075
1.1482
1.14186
1.13694
1.12596
1.11866
1.10145
1.09424
1.06984
1.0609
1.0343
0.955441
0.962254
0.96335
0.969584
0.972473
0.980525
0.985727
0.995721
1.00277
1.01473
1.02292
1.03761
1.04597
1.06245
1.07025
1.08653
1.09423
1.10883
1.11624
1.12815
1.1349
1.14375
1.14994
1.15509
1.16069
1.16238
1.16767
1.16592
1.17113
1.16615
1.17017
1.16168
1.16467
1.15067
1.15164
1.13298
1.13004
1.10726
1.1017
1.0736
0.960114
0.964949
0.969312
0.973026
0.978651
0.985579
0.992877
1.00382
1.01284
1.02622
1.03635
1.05191
1.06199
1.07818
1.08944
1.10364
1.11459
1.12751
1.13656
1.14802
1.15518
1.16409
1.17064
1.17587
1.18297
1.18404
1.1925
1.18951
1.19968
1.19305
1.20205
1.19562
1.20005
1.19084
1.19511
1.18013
1.18072
1.16186
1.1597
1.13549
0.945555
0.953605
0.958192
0.966064
0.971721
0.982005
0.989765
1.00251
1.01359
1.02644
1.04161
1.05375
1.07074
1.0826
1.09997
1.10986
1.12732
1.13425
1.15106
1.1544
1.1702
1.17099
1.18504
1.18409
1.19718
1.19459
1.20747
1.20406
1.21678
1.2124
1.22565
1.21887
1.23183
1.22397
1.23425
1.22333
1.23028
1.21595
1.21917
1.19926
0.947311
0.953705
0.96054
0.966173
0.977997
0.986162
1.00466
1.01444
1.03497
1.04619
1.06795
1.07926
1.10096
1.11153
1.13358
1.14151
1.16275
1.16779
1.1867
1.18905
1.20517
1.2055
1.21932
1.21825
1.23059
1.22894
1.24112
1.23914
1.25228
1.24975
1.26397
1.26104
1.27598
1.27173
1.28645
1.2814
1.29405
1.28696
1.29749
1.28514
0.933714
0.942685
0.956293
0.965849
0.980418
0.990044
1.00812
1.0197
1.04161
1.0556
1.07801
1.09321
1.11426
1.12924
1.14952
1.16097
1.17938
1.18761
1.20253
1.20755
1.21949
1.2214
1.23121
1.23165
1.24017
1.24043
1.24972
1.24986
1.26149
1.26169
1.27483
1.2764
1.29116
1.29316
1.30984
1.31114
1.32926
1.32984
1.34836
1.34635
0.927386
0.940586
0.954532
0.97409
0.991842
1.01508
1.03663
1.06084
1.08081
1.1046
1.12307
1.14542
1.16216
1.18209
1.19683
1.21299
1.22461
1.23651
1.24448
1.25208
1.25642
1.26109
1.26197
1.26559
1.26511
1.26912
1.27029
1.27526
1.27939
1.28746
1.29257
1.3023
1.31084
1.31892
1.32988
1.33703
1.35008
1.36103
1.36849
1.38576
0.93392
0.956219
0.976663
0.997797
1.01724
1.03975
1.06002
1.08544
1.10685
1.13367
1.15475
1.1802
1.19903
1.22063
1.23617
1.25283
1.26439
1.27536
1.28207
1.28801
1.28976
1.29206
1.28917
1.28924
1.28466
1.28449
1.28219
1.28322
1.28426
1.28863
1.28852
1.29862
1.3041
1.31128
1.31256
1.31315
1.30822
1.30099
1.28276
1.29111
0.958829
0.993969
1.03275
1.06984
1.10616
1.14215
1.17569
1.20997
1.2402
1.27016
1.29621
1.32053
1.34133
1.35887
1.37423
1.38416
1.39303
1.39472
1.39534
1.38882
1.38004
1.36838
1.35157
1.33488
1.31337
1.29451
1.27344
1.25492
1.23867
1.2214
1.21184
1.19321
1.17329
1.14715
1.09868
1.03481
0.938431
0.862447
0.749762
0.694317
1.11164
1.14742
1.18288
1.21845
1.25325
1.28585
1.31538
1.34091
1.36155
1.37868
1.39062
1.401
1.40779
1.41422
1.41515
1.41359
1.40414
1.39137
1.37019
1.34598
1.31448
1.27916
1.23764
1.19034
1.13843
1.08035
1.02167
0.957854
0.897558
0.834616
0.77918
0.719754
0.658653
0.556426
0.291216
0.108385
0.143788
0.239306
0.277139
0.320209
1.07339
1.07497
1.07882
1.08415
1.08909
1.0835
1.05895
0.997183
0.925397
0.89284
0.860393
0.797663
0.90007
0.965487
0.976631
0.984744
0.995578
1.00027
1.00562
1.00854
1.01055
1.01224
1.0127
1.01351
1.01341
1.01388
1.01358
1.01365
1.01332
1.01322
1.01308
1.0129
1.01267
1.01228
1.01188
1.01154
1.01106
1.01089
1.01109
1.01274
1.07831
1.08044
1.08523
1.09301
1.10046
1.09521
1.06748
0.994113
0.918494
0.882148
0.843153
0.776406
0.878365
0.954952
0.971968
0.981818
0.993765
0.999147
1.00506
1.00855
1.01061
1.01275
1.01307
1.01417
1.01387
1.01448
1.01418
1.01426
1.01386
1.01368
1.01347
1.01338
1.01322
1.01296
1.01248
1.01207
1.01161
1.01125
1.01071
1.00825
1.08308
1.08594
1.09408
1.10404
1.11497
1.11422
1.08312
0.997904
0.912775
0.870404
0.826354
0.75884
0.868097
0.944429
0.965922
0.979689
0.992583
0.999013
1.00506
1.00894
1.01112
1.01339
1.01369
1.01491
1.0145
1.01518
1.01476
1.01492
1.01446
1.01428
1.01403
1.01392
1.01378
1.01348
1.01303
1.01248
1.01215
1.01182
1.01211
1.01375
1.08517
1.0918
1.10237
1.11578
1.1305
1.13435
1.09792
0.994307
0.899099
0.850216
0.797927
0.735026
0.851334
0.935388
0.961486
0.977604
0.991039
0.998236
1.00452
1.00888
1.01118
1.01383
1.01415
1.01551
1.01508
1.01583
1.01533
1.01553
1.01493
1.01476
1.01435
1.01425
1.01409
1.01384
1.01346
1.01284
1.01253
1.01195
1.01148
1.00937
1.09137
1.10042
1.11331
1.12875
1.15031
1.16335
1.11828
0.992426
0.882486
0.825468
0.767654
0.719079
0.844522
0.92615
0.956015
0.976534
0.990125
0.998697
1.0048
1.00949
1.01189
1.0146
1.01489
1.01627
1.0158
1.01654
1.01603
1.01626
1.01567
1.01547
1.01484
1.01459
1.01441
1.0141
1.0139
1.01338
1.01328
1.01276
1.01281
1.01355
1.09503
1.10698
1.12335
1.14353
1.17485
1.19696
1.13684
0.979074
0.852711
0.787315
0.729152
0.699158
0.835377
0.91938
0.953323
0.975838
0.989265
0.998941
1.00472
1.00978
1.01216
1.01502
1.01546
1.01681
1.0165
1.01734
1.01689
1.01719
1.01654
1.01632
1.01564
1.01525
1.01496
1.01467
1.01443
1.01379
1.01357
1.01291
1.01265
1.01099
1.10203
1.11947
1.13618
1.16179
1.21171
1.24409
1.14506
0.957052
0.813567
0.741453
0.690862
0.693128
0.834488
0.912633
0.950515
0.976081
0.989236
1.00042
1.00542
1.01088
1.01302
1.01584
1.01627
1.01768
1.01737
1.01814
1.0178
1.01812
1.01759
1.01739
1.01675
1.01626
1.01584
1.01549
1.01519
1.01467
1.01426
1.01376
1.01362
1.01362
1.10742
1.1267
1.1453
1.18382
1.25779
1.28234
1.14227
0.914522
0.756443
0.682435
0.65799
0.686796
0.83469
0.910375
0.950861
0.977111
0.990006
1.00152
1.00612
1.0118
1.01353
1.01648
1.01671
1.0181
1.01778
1.01849
1.01829
1.01869
1.01831
1.01816
1.01753
1.01699
1.0164
1.01591
1.01533
1.015
1.01454
1.01401
1.01383
1.01272
1.11494
1.14092
1.15767
1.21415
1.31471
1.30899
1.12332
0.85145
0.688842
0.625636
0.634334
0.699217
0.841733
0.910102
0.951796
0.979859
0.992117
1.00409
1.00824
1.01373
1.01514
1.01774
1.01787
1.01903
1.01856
1.01906
1.01885
1.01916
1.01883
1.01863
1.01804
1.0176
1.01691
1.01667
1.01598
1.0159
1.01533
1.01497
1.01451
1.01414
1.1227
1.14701
1.16949
1.25498
1.37417
1.32009
1.07336
0.763716
0.611258
0.582595
0.630926
0.713843
0.850011
0.915308
0.957005
0.983742
0.995176
1.00674
1.0105
1.01578
1.01692
1.01925
1.01921
1.02022
1.0197
1.02
1.01975
1.01984
1.01963
1.01931
1.01878
1.01842
1.01758
1.01743
1.01647
1.01658
1.01571
1.0156
1.0151
1.0145
1.13017
1.15846
1.18925
1.30898
1.41392
1.31465
0.992341
0.669672
0.554437
0.576172
0.646788
0.746254
0.863711
0.92308
0.96471
0.989462
1.00005
1.01094
1.01414
1.01886
1.01978
1.02172
1.02151
1.02224
1.02162
1.02145
1.02134
1.02099
1.02097
1.02052
1.02016
1.01987
1.0191
1.01892
1.01791
1.01785
1.01684
1.01669
1.01569
1.01534
1.1399
1.16051
1.2058
1.35682
1.43158
1.28577
0.894474
0.601038
0.546395
0.608462
0.684254
0.774786
0.880704
0.937666
0.976591
0.996808
1.00619
1.01512
1.01747
1.0214
1.02218
1.02367
1.02336
1.02377
1.02323
1.02258
1.02263
1.02178
1.02216
1.02137
1.0212
1.02056
1.01984
1.01935
1.01855
1.01824
1.0174
1.01725
1.01656
1.01624
1.14208
1.16924
1.23269
1.39228
1.43022
1.25614
0.840504
0.618646
0.612087
0.667812
0.732195
0.81707
0.904106
0.955888
0.991994
1.00753
1.01499
1.02139
1.02239
1.025
1.02524
1.02607
1.02534
1.02539
1.02492
1.02357
1.02392
1.02236
1.02309
1.02188
1.02219
1.02126
1.0209
1.02008
1.01965
1.01882
1.01823
1.01791
1.01738
1.01674
1.14562
1.17172
1.24777
1.39604
1.40196
1.23408
0.885028
0.727363
0.711469
0.739333
0.775814
0.855185
0.931068
0.98234
1.01156
1.02182
1.02567
1.02929
1.02832
1.02904
1.02868
1.02883
1.02774
1.02734
1.02697
1.02504
1.02548
1.0233
1.02408
1.02244
1.02301
1.02155
1.02158
1.02045
1.02034
1.01924
1.01907
1.01823
1.01806
1.01771
1.13841
1.17301
1.25928
1.35328
1.34763
1.23094
0.976405
0.856336
0.802374
0.797951
0.821942
0.902614
0.961858
1.01436
1.03356
1.04192
1.03887
1.04078
1.03652
1.03531
1.03377
1.03311
1.03137
1.03064
1.03
1.02764
1.02778
1.02535
1.02586
1.02407
1.02454
1.02307
1.02332
1.022
1.022
1.02069
1.02066
1.01925
1.01905
1.01822
1.13262
1.16135
1.23294
1.2632
1.28285
1.19904
1.00535
0.913653
0.838514
0.83614
0.867735
0.947152
0.996059
1.05341
1.05904
1.06671
1.05383
1.05439
1.04575
1.04286
1.03925
1.03807
1.03499
1.03422
1.03303
1.03087
1.03016
1.02801
1.02769
1.02594
1.02584
1.02438
1.02443
1.02324
1.02317
1.02202
1.02187
1.02036
1.0199
1.01932
1.11421
1.14302
1.17171
1.17218
1.19736
1.13687
0.995367
0.923895
0.847305
0.865075
0.917418
0.99354
1.03713
1.09523
1.09033
1.0959
1.07209
1.07049
1.05668
1.05205
1.04546
1.04401
1.03879
1.03824
1.03584
1.03424
1.03244
1.0311
1.02958
1.02859
1.02749
1.02661
1.02594
1.02478
1.02434
1.02324
1.02298
1.02177
1.02125
1.0203
1.09247
1.10983
1.07406
1.07246
1.08899
1.04945
0.956241
0.894705
0.832752
0.874306
0.92935
1.03098
1.08959
1.13942
1.1288
1.12605
1.09451
1.08733
1.06975
1.06212
1.05246
1.05064
1.04275
1.04229
1.03817
1.03725
1.03411
1.03359
1.03059
1.03041
1.02805
1.02789
1.02636
1.02599
1.02492
1.02426
1.02359
1.0227
1.02214
1.02156
1.05811
1.05714
0.986521
0.96414
0.977054
0.943107
0.886052
0.832897
0.80873
0.866077
0.926102
1.04125
1.12873
1.19077
1.17355
1.16257
1.12087
1.1072
1.08586
1.07397
1.06133
1.05837
1.04825
1.04701
1.04148
1.04047
1.03659
1.03634
1.03297
1.03287
1.02999
1.02992
1.0277
1.02759
1.02609
1.02591
1.02466
1.02428
1.02323
1.0229
1.02371
0.992456
0.898412
0.847109
0.853156
0.826479
0.794792
0.762986
0.761556
0.82524
0.898137
1.03689
1.15253
1.24696
1.22489
1.20654
1.15201
1.12893
1.1055
1.08748
1.07223
1.06763
1.05592
1.0532
1.04715
1.0445
1.04105
1.03938
1.03656
1.03568
1.03307
1.03243
1.03025
1.02968
1.02789
1.02743
1.0259
1.02566
1.02438
1.02434
0.982296
0.935077
0.833751
0.753019
0.736694
0.71845
0.704928
0.688255
0.687285
0.746692
0.837661
0.99707
1.15173
1.27642
1.28596
1.25524
1.19076
1.1502
1.12871
1.10243
1.08552
1.07782
1.06598
1.06036
1.05519
1.04972
1.04773
1.04372
1.04202
1.0396
1.03767
1.03576
1.03409
1.03243
1.03116
1.02985
1.0284
1.02739
1.02624
1.02584
0.943784
0.893157
0.789854
0.694421
0.650791
0.640472
0.634838
0.61611
0.604995
0.647788
0.746329
0.907291
1.11224
1.28081
1.33643
1.30676
1.23413
1.17155
1.15074
1.11735
1.09795
1.08575
1.07557
1.06581
1.0614
1.0537
1.05194
1.04657
1.04552
1.04167
1.04088
1.03767
1.03694
1.03419
1.03365
1.03163
1.03089
1.02905
1.02816
1.02729
0.909612
0.863806
0.777442
0.690323
0.627836
0.616872
0.609503
0.589666
0.563655
0.586369
0.661112
0.796824
1.03077
1.25337
1.34948
1.35886
1.28129
1.20056
1.16879
1.13491
1.10972
1.09464
1.08291
1.07216
1.06646
1.05873
1.05566
1.0503
1.04837
1.0446
1.04342
1.04045
1.03958
1.03683
1.03608
1.03368
1.03308
1.0311
1.03061
1.02945
0.891
0.847454
0.783628
0.717545
0.662655
0.655815
0.652039
0.639419
0.619341
0.637884
0.677232
0.765225
0.952852
1.18788
1.33344
1.3777
1.33319
1.23267
1.18578
1.1564
1.12416
1.10825
1.09265
1.08228
1.07332
1.06619
1.06022
1.05581
1.0516
1.04872
1.04571
1.04354
1.04147
1.03946
1.03805
1.03591
1.03483
1.03309
1.03214
1.03116
0.883121
0.840492
0.795416
0.762991
0.723619
0.714628
0.725837
0.737902
0.746424
0.785443
0.82862
0.895364
0.98848
1.09583
1.24468
1.34282
1.35781
1.26366
1.20149
1.17301
1.14205
1.12234
1.10643
1.09476
1.08387
1.07735
1.06884
1.06494
1.05845
1.05598
1.051
1.0489
1.04548
1.04361
1.04112
1.03961
1.03768
1.0365
1.03472
1.03432
0.884779
0.849216
0.82096
0.801778
0.78358
0.775297
0.788547
0.811875
0.837651
0.882578
0.93328
0.996624
1.04024
1.07419
1.10555
1.23101
1.30414
1.28361
1.20734
1.17553
1.1525
1.12841
1.11573
1.10312
1.09289
1.08595
1.07796
1.07298
1.06716
1.06344
1.05874
1.05555
1.05211
1.04907
1.04647
1.04401
1.04163
1.03993
1.03793
1.03699
0.897468
0.868887
0.851942
0.840519
0.836508
0.833878
0.846677
0.871272
0.898841
0.935525
0.979856
1.02052
1.0444
1.05568
1.04124
1.05169
1.18517
1.25189
1.20058
1.16434
1.1504
1.12966
1.11704
1.10756
1.09712
1.09117
1.08394
1.07879
1.0742
1.0695
1.06626
1.06181
1.05928
1.05543
1.05319
1.04971
1.04784
1.04489
1.04341
1.04171
0.917528
0.896567
0.898163
0.893942
0.891489
0.891387
0.905591
0.930701
0.951964
0.976028
1.01199
1.02527
1.02195
1.01169
0.975598
0.933575
1.00765
1.14787
1.18019
1.14347
1.13743
1.12516
1.11224
1.10685
1.09684
1.09202
1.08605
1.08038
1.07731
1.0724
1.07007
1.06577
1.06334
1.05965
1.05707
1.05365
1.05139
1.04853
1.04694
1.04543
0.950628
0.937915
0.934512
0.943589
0.953793
0.957658
0.969848
0.994841
1.01522
1.04465
1.03876
1.02032
0.985135
0.946805
0.899872
0.822855
0.81445
0.99284
1.10284
1.11002
1.10923
1.11611
1.10601
1.10371
1.09771
1.09197
1.08866
1.08223
1.07981
1.07487
1.07279
1.0689
1.06614
1.06394
1.06077
1.05884
1.05603
1.0539
1.05164
1.04989
0.983538
0.980227
0.984931
0.998738
1.01697
1.0328
1.04738
1.05957
1.08985
1.09555
1.05379
1.00463
0.935654
0.859555
0.797036
0.713175
0.656985
0.797117
0.981852
1.04874
1.06114
1.08829
1.09037
1.09407
1.09667
1.09217
1.09267
1.08768
1.08659
1.08165
1.07949
1.07508
1.07162
1.06809
1.06485
1.06283
1.05985
1.0584
1.05618
1.05546
1.0308
1.03401
1.04377
1.05932
1.08037
1.10234
1.12495
1.134
1.15323
1.11298
1.04801
0.954841
0.855712
0.746444
0.659069
0.586407
0.521574
0.617715
0.849307
0.943193
0.994059
1.03578
1.06138
1.07045
1.08437
1.08488
1.09012
1.08734
1.08795
1.08563
1.08404
1.08216
1.07995
1.07754
1.07335
1.07002
1.066
1.06299
1.06049
1.05932
1.07829
1.08182
1.09978
1.12984
1.1629
1.18576
1.19493
1.21505
1.177
1.10587
1.00423
0.861401
0.718764
0.590577
0.48659
0.4255
0.397625
0.466387
0.71937
0.840124
0.90824
0.969536
1.00671
1.03167
1.05263
1.06344
1.07394
1.07752
1.08067
1.08272
1.08216
1.0823
1.08162
1.08121
1.07996
1.07815
1.07546
1.07266
1.07019
1.06878
1.14058
1.1592
1.18542
1.21285
1.23813
1.25926
1.27656
1.2556
1.17793
1.05031
0.884391
0.703235
0.518007
0.376245
0.288151
0.274864
0.324863
0.40454
0.619939
0.746807
0.817808
0.900861
0.941458
0.986688
1.01013
1.02949
1.04774
1.05709
1.06535
1.07176
1.0755
1.07852
1.07987
1.08062
1.08082
1.08058
1.07988
1.07887
1.0772
1.0758
1.21253
1.23924
1.26519
1.29879
1.32643
1.33594
1.31465
1.23984
1.10213
0.910248
0.669535
0.449185
0.255484
0.151708
0.205181
0.290844
0.363765
0.4202
0.567256
0.673186
0.75404
0.841191
0.88269
0.939057
0.971483
0.996052
1.02171
1.03576
1.05167
1.05922
1.06816
1.07327
1.0764
1.07917
1.08005
1.08119
1.08125
1.08113
1.08076
1.08111
1.30724
1.33288
1.36871
1.38414
1.39518
1.36902
1.29116
1.1251
0.88908
0.623487
0.346648
0.131154
0.192718
0.319411
0.421065
0.459045
0.463732
0.456458
0.561074
0.643891
0.720834
0.801651
0.850758
0.910998
0.94609
0.978983
1.00653
1.02158
1.04036
1.05103
1.05939
1.06879
1.07272
1.07827
1.07971
1.08291
1.08341
1.08467
1.08488
1.08481
1.37414
1.39512
1.40944
1.40249
1.36356
1.26374
1.07604
0.842397
0.567955
0.314293
0.272624
0.411544
0.564576
0.642986
0.691208
0.653675
0.581603
0.558933
0.625784
0.668244
0.733696
0.792728
0.837689
0.896164
0.921315
0.960726
0.984413
1.00298
1.02357
1.03553
1.04797
1.05824
1.06406
1.07337
1.07429
1.08007
1.08123
1.08459
1.08802
1.08818
1.38781
1.37617
1.33418
1.23283
1.03908
0.794084
0.583891
0.46534
0.478496
0.577967
0.737688
0.840439
0.895547
0.910187
0.86064
0.737866
0.669423
0.651973
0.672788
0.696794
0.73499
0.784345
0.820077
0.864671
0.892964
0.926828
0.953386
0.978851
1.00316
1.01863
1.0373
1.04868
1.06237
1.07447
1.08426
1.09293
1.1022
1.10393
1.10924
1.11194
1.21647
1.10797
0.879307
0.586016
0.421385
0.466949
0.531901
0.577721
0.6567
0.756957
0.822015
0.859479
0.873093
0.862239
0.784501
0.684586
0.631807
0.61207
0.613273
0.631729
0.675252
0.723787
0.779337
0.829942
0.874151
0.912154
0.944492
0.974583
0.997362
1.02339
1.04073
1.05984
1.06997
1.08125
1.08654
1.09215
1.09753
1.10203
1.11196
1.12136
0.540376
0.279322
0.0635197
0.116709
0.25638
0.295822
0.351569
0.41435
0.48213
0.566778
0.621479
0.645247
0.65038
0.623051
0.49473
0.344627
0.320468
0.366338
0.42044
0.478421
0.543642
0.624811
0.729831
0.839383
0.931189
0.973428
0.999876
1.03821
1.05167
1.07676
1.08551
1.10835
1.12503
1.14507
1.16465
1.18185
1.2006
1.20926
1.21743
1.21838
0.346757
0.382752
0.394899
0.416127
0.443527
0.465792
0.481868
0.493487
0.488454
0.471011
0.457087
0.437015
0.418341
0.411059
0.389602
0.359495
0.329291
0.313252
0.309688
0.32061
0.346644
0.388074
0.441781
0.499569
0.540838
0.139508
0.499814
0.588335
0.600017
0.654499
0.69618
0.740271
0.797882
0.837207
0.895791
0.929549
0.983311
1.02369
1.08625
1.1441
1.01933
1.01931
1.01934
1.01866
1.01829
1.01654
1.01498
1.01177
1.00823
1.00282
0.996818
0.989366
0.983552
0.980135
0.98144
0.987177
0.997075
1.00728
1.01399
1.01414
1.01344
1.01217
1.01155
1.01124
1.01097
1.01067
1.01033
1.00999
1.00962
1.00923
1.00882
1.00839
1.00793
1.00746
1.007
1.00659
1.00618
1.00575
1.00532
1.00505
1.00208
1.00293
1.00278
1.00404
1.00453
1.00656
1.00801
1.0112
1.01389
1.0181
1.02147
1.02554
1.02694
1.02772
1.02738
1.02456
1.01891
1.01378
1.01193
1.0119
1.01228
1.01269
1.01285
1.01278
1.01254
1.01212
1.01168
1.01123
1.01073
1.01022
1.00975
1.00923
1.00862
1.00804
1.00751
1.00699
1.00658
1.00614
1.00565
1.00534
1.0184
1.01835
1.01805
1.01727
1.01642
1.01471
1.01301
1.01014
1.00767
1.00425
1.00259
1.00253
1.00486
1.00712
1.0096
1.01086
1.01171
1.01177
1.01193
1.01229
1.01259
1.01282
1.01288
1.01281
1.01259
1.01228
1.01185
1.01147
1.01103
1.01064
1.01018
1.00973
1.00913
1.00859
1.008
1.00755
1.00717
1.00675
1.00637
1.00604
1.00554
1.00698
1.008
1.00981
1.0115
1.01409
1.01647
1.01985
1.02243
1.02576
1.02703
1.0278
1.02793
1.02735
1.02515
1.02197
1.01877
1.01596
1.01449
1.01412
1.01411
1.01393
1.01366
1.01337
1.01301
1.01262
1.01222
1.01179
1.01137
1.01093
1.01042
1.00994
1.00936
1.00874
1.00817
1.00764
1.00727
1.00686
1.00642
1.00615
1.01633
1.01608
1.01535
1.01449
1.0133
1.01194
1.01056
1.00911
1.00829
1.00821
1.00932
1.0104
1.01163
1.01224
1.01266
1.01299
1.01327
1.01326
1.01336
1.01347
1.01346
1.01344
1.01339
1.01333
1.01308
1.01269
1.01226
1.01201
1.01174
1.01141
1.01088
1.01042
1.00987
1.00933
1.00876
1.00824
1.00787
1.00749
1.00702
1.00669
1.0091
1.0111
1.01214
1.01411
1.0155
1.01752
1.01909
1.02101
1.02238
1.02359
1.02401
1.02421
1.02398
1.02315
1.02191
1.02048
1.01907
1.01781
1.01672
1.0158
1.01511
1.01473
1.0145
1.01429
1.01381
1.0132
1.01267
1.01225
1.01195
1.01147
1.01093
1.01056
1.00998
1.00933
1.00873
1.00829
1.00791
1.00744
1.00708
1.00675
1.01479
1.01434
1.01364
1.01303
1.01219
1.01162
1.01105
1.01091
1.01117
1.0119
1.01275
1.01338
1.0137
1.01412
1.01442
1.01476
1.01486
1.01491
1.01471
1.01457
1.01435
1.01437
1.01422
1.01412
1.0138
1.01338
1.01297
1.01277
1.01242
1.01204
1.01157
1.0111
1.01056
1.01
1.00939
1.00899
1.00852
1.00806
1.00771
1.00737
1.01213
1.01402
1.01483
1.01641
1.01717
1.01852
1.01923
1.02027
1.02086
1.02143
1.02164
1.02171
1.02141
1.02084
1.0201
1.01937
1.01869
1.01814
1.0176
1.01678
1.01588
1.01553
1.01536
1.01501
1.01439
1.01386
1.01336
1.01296
1.01257
1.01221
1.01179
1.01119
1.01059
1.01006
1.0095
1.00902
1.00854
1.0081
1.00773
1.00738
1.01415
1.01397
1.01372
1.01368
1.01364
1.01384
1.01398
1.01435
1.01463
1.01505
1.01519
1.01544
1.01561
1.01594
1.01605
1.01617
1.01617
1.01623
1.01603
1.01576
1.01556
1.01547
1.01531
1.01506
1.01466
1.01427
1.01399
1.01369
1.01322
1.01294
1.01254
1.01198
1.01137
1.01078
1.01028
1.00978
1.00937
1.0089
1.00838
1.00811
1.0143
1.01586
1.01649
1.01756
1.01808
1.01894
1.01934
1.01989
1.0201
1.02031
1.02031
1.02035
1.0202
1.01999
1.01955
1.01918
1.0189
1.01858
1.01805
1.01729
1.0168
1.01663
1.01621
1.01558
1.01515
1.01472
1.01423
1.01392
1.01349
1.01314
1.01269
1.01218
1.01165
1.01101
1.0104
1.00987
1.00946