/*--------------------------------*- C++ -*----------------------------------*\
  =========                 |
  \\      /  F ield         | OpenFOAM: The Open Source CFD Toolbox
   \\    /   O peration     | Website:  https://openfoam.org
    \\  /    A nd           | Version:  11
     \\/     M anipulation  |
\*---------------------------------------------------------------------------*/
FoamFile
{
    format      ascii;
    class       volScalarField;
    location    "7";
    object      p;
}
// * * * * * * * * * * * * * * * * * * * * * * * * * * * * * * * * * * * * * //

dimensions      [0 2 -2 0 0 0 0];

internalField   nonuniform List<scalar> 
9600
(
0.061612
0.0620682
0.0627551
0.0634356
0.0639783
0.0643536
0.0645222
0.0645391
0.0643685
0.0638987
0.0630723
0.0618342
0.060205
0.0581899
0.0558349
0.053146
0.0502406
0.0472953
0.0443114
0.0415689
0.0389354
0.0363018
0.0348874
0.0339959
0.0324312
0.0315879
0.0315649
0.0313023
0.0310519
0.0305762
0.0291631
0.0268627
0.0237227
0.0199736
0.0158573
0.011812
0.00760636
0.00411417
0.00135296
-0.00199214
0.0618677
0.0624676
0.0632034
0.0638406
0.0642309
0.0644437
0.0645327
0.0644815
0.0641925
0.0635815
0.0626205
0.0613165
0.0596852
0.0576974
0.0553295
0.0526451
0.0498053
0.0469273
0.0440568
0.0414121
0.0390506
0.0365515
0.034847
0.0337465
0.0325132
0.0318072
0.0314393
0.0313866
0.0312215
0.0307728
0.0295644
0.0276278
0.0248987
0.0214914
0.0175848
0.0135118
0.00942549
0.00540042
0.00183208
-0.00110876
0.0621646
0.0627838
0.0634683
0.0640216
0.0643583
0.0645373
0.0646378
0.0645849
0.0642782
0.0636655
0.06268
0.0613088
0.0596107
0.0575793
0.0552329
0.0525862
0.0497714
0.0469077
0.0440141
0.0412966
0.0388603
0.0366017
0.0348452
0.0335073
0.0327612
0.032054
0.0315068
0.0313877
0.0314253
0.031199
0.030311
0.0286417
0.0261456
0.0229544
0.0192113
0.0152758
0.0113453
0.00772479
0.00411135
0.000770476
0.0624844
0.0630885
0.0637521
0.064259
0.0645378
0.0646712
0.0647017
0.0645479
0.0641285
0.0633769
0.0623004
0.0609414
0.059255
0.0572307
0.05488
0.052234
0.049432
0.0465338
0.0437115
0.0410607
0.0386318
0.0365277
0.0347644
0.0334143
0.0325532
0.0321007
0.0316121
0.0313999
0.031487
0.0313392
0.0306059
0.0291167
0.0267974
0.0237242
0.0200159
0.015909
0.0117001
0.0077415
0.00413956
0.00187235
0.0628351
0.0634055
0.0640435
0.0645071
0.0647198
0.0647991
0.0647876
0.0646413
0.0642344
0.0634839
0.0623716
0.0608952
0.0591526
0.0570931
0.0547301
0.0520878
0.0492977
0.0464328
0.0435468
0.0408885
0.0385456
0.0364146
0.0346261
0.0332115
0.0323007
0.0321888
0.0319014
0.031495
0.0317715
0.0318569
0.0314185
0.0302885
0.0283136
0.0255835
0.0222282
0.0184358
0.0145017
0.0106347
0.00671704
0.00295129
0.0631974
0.0637293
0.0643451
0.0647671
0.0649175
0.0649582
0.0649362
0.0647514
0.0642383
0.0633277
0.0621543
0.0607058
0.0589384
0.0568596
0.0544907
0.0518488
0.049026
0.0460994
0.0432471
0.040623
0.0382828
0.036069
0.0343928
0.0330231
0.0320976
0.032011
0.0318759
0.0316287
0.0318787
0.0320976
0.0318418
0.0309368
0.0291664
0.0265183
0.0231214
0.0190963
0.0147432
0.0105283
0.00694297
0.0042149
0.0635723
0.0640602
0.0646511
0.0650441
0.0651454
0.0651476
0.065115
0.0648786
0.0642937
0.0633646
0.0621655
0.0606439
0.0588315
0.0567295
0.0543285
0.051638
0.0487935
0.0458731
0.0429866
0.0403234
0.0379414
0.035778
0.0341863
0.0327387
0.0318559
0.0317949
0.031945
0.0316834
0.0320772
0.0325279
0.0325868
0.032017
0.0306351
0.0283718
0.0253751
0.0217131
0.0176631
0.0134955
0.00946618
0.00562061
0.06396
0.0644032
0.0649742
0.0653454
0.0654088
0.065373
0.0653189
0.0650499
0.0644015
0.0633758
0.0621199
0.0605765
0.0587276
0.0565682
0.0541267
0.0514241
0.0485342
0.0455598
0.0426462
0.0399564
0.0375478
0.0354409
0.0337999
0.0323413
0.0315573
0.0315849
0.0318025
0.0316782
0.0321784
0.0327986
0.0331456
0.032908
0.0318494
0.0298229
0.0268768
0.0230898
0.0187131
0.0140685
0.0100894
0.00677138
0.0643698
0.0647695
0.0653156
0.0656686
0.0656988
0.0656355
0.065561
0.0652525
0.0645467
0.06345
0.0621403
0.0605469
0.0586557
0.0564563
0.0539464
0.0511986
0.0482404
0.0452276
0.0422944
0.0395676
0.0371411
0.0350184
0.0332294
0.031883
0.0309588
0.0311008
0.0315636
0.0317674
0.0322374
0.0330493
0.0337415
0.0338703
0.0332244
0.0316125
0.0290549
0.0255966
0.0214724
0.0169893
0.0124756
0.00872571
0.064805
0.0651579
0.065683
0.0660231
0.0660398
0.0659447
0.0658413
0.0655053
0.0647416
0.0635598
0.0621776
0.0605374
0.058611
0.0563506
0.0537464
0.0509368
0.0479452
0.0448868
0.0419041
0.0390958
0.0366182
0.0344559
0.0326241
0.0313656
0.0305436
0.0305666
0.0311739
0.0316181
0.0322993
0.0331599
0.0341884
0.0347035
0.0345262
0.0333944
0.0312358
0.0279957
0.0238553
0.0189121
0.0141798
0.0100949
0.0652787
0.0655818
0.0660836
0.0664119
0.0664167
0.0662996
0.0661751
0.0657864
0.0649704
0.0637346
0.0622563
0.0605641
0.0585651
0.056234
0.0535551
0.0506875
0.0476335
0.0444839
0.0414288
0.0385699
0.0360405
0.0338032
0.0319508
0.030687
0.0298514
0.0298375
0.0304956
0.031264
0.0322361
0.0331331
0.0345632
0.0354949
0.0358024
0.0351947
0.0335115
0.0306748
0.0268008
0.0219304
0.0170124
0.0119569
0.0657877
0.06604
0.0665312
0.0668698
0.0668599
0.0667122
0.0665584
0.0661226
0.0652335
0.0639405
0.0623771
0.0605986
0.0585314
0.056144
0.0533741
0.0503964
0.0472677
0.0440489
0.0409272
0.0379833
0.0353683
0.0330291
0.0311414
0.0298729
0.0290888
0.0290706
0.0297938
0.0308088
0.0319435
0.0331186
0.0348338
0.0361283
0.0368959
0.036861
0.0358201
0.0334727
0.0300028
0.0251288
0.0198314
0.0144365
0.0663484
0.0665599
0.0670335
0.0673623
0.0673531
0.0671898
0.0669845
0.0665054
0.0655574
0.0641905
0.0625211
0.0606603
0.0585262
0.0560321
0.0531686
0.0500843
0.046887
0.0435774
0.0403298
0.0372977
0.0345843
0.0321592
0.0302262
0.0289396
0.0282231
0.0281682
0.0287756
0.029937
0.0313685
0.0329245
0.034892
0.0365565
0.0378911
0.038421
0.0380784
0.0364242
0.0335065
0.0290264
0.0233804
0.0179056
0.0669696
0.0671413
0.0675964
0.067926
0.0679252
0.0677239
0.067463
0.0669411
0.0659218
0.0644705
0.0627146
0.0607605
0.0585236
0.0559175
0.0529653
0.0497566
0.0464488
0.0430312
0.0396565
0.0365225
0.0337138
0.0312016
0.0291749
0.0278406
0.0271725
0.0271042
0.0276483
0.0288136
0.0305762
0.0325879
0.0348515
0.036793
0.0387002
0.0397969
0.0401646
0.0393381
0.0370811
0.0334613
0.0277426
0.021841
0.0676671
0.0677921
0.0682252
0.0685542
0.0685577
0.0683375
0.0680062
0.0674133
0.0663349
0.0647974
0.0629534
0.0608634
0.0585281
0.0558003
0.0527407
0.0493914
0.0459402
0.0424078
0.0389119
0.035645
0.0327142
0.0301114
0.0279599
0.0265451
0.0259239
0.0258839
0.0264362
0.0276004
0.0294601
0.0318003
0.0342726
0.0366509
0.039191
0.0409614
0.0419885
0.0421407
0.0406756
0.0381884
0.0334299
0.0277075
0.0684363
0.06851
0.0689336
0.0692576
0.0692774
0.0690344
0.0686201
0.0679483
0.0668059
0.0651955
0.0632295
0.0609911
0.0585479
0.055678
0.0524703
0.0489866
0.0453807
0.0417012
0.0380664
0.0346536
0.0315652
0.0288783
0.0266314
0.025124
0.0244564
0.024405
0.0249626
0.026185
0.0280739
0.0305414
0.0333586
0.0363167
0.0393075
0.0418096
0.0434801
0.0445979
0.0442025
0.0428727
0.0395138
0.0348833
0.0692888
0.069327
0.069734
0.0700643
0.0700788
0.0697939
0.0693016
0.0685589
0.0673302
0.0655895
0.0635453
0.0611436
0.0585417
0.0555337
0.0521666
0.0485317
0.0447507
0.0408935
0.0370798
0.033529
0.0302975
0.0274697
0.0251263
0.0234821
0.0227233
0.0226467
0.0232592
0.024523
0.0264262
0.0289901
0.0320971
0.0354802
0.0387763
0.0419967
0.044487
0.0465275
0.0472864
0.0472939
0.0453324
0.0429783
0.0702503
0.0702405
0.0706294
0.0709631
0.0709688
0.0706439
0.0700669
0.0692223
0.0679212
0.0660661
0.0638951
0.0613244
0.0585235
0.0553639
0.0518243
0.0480058
0.0440211
0.0399905
0.035967
0.0322465
0.0288967
0.0258711
0.023405
0.0216431
0.0207637
0.0206672
0.0212656
0.0225457
0.0244504
0.0270487
0.0303199
0.0340823
0.0378185
0.041541
0.0448424
0.047851
0.0496244
0.0510401
0.0507096
0.0500172
0.0713088
0.0712567
0.0716467
0.0719751
0.071962
0.0716059
0.0709281
0.0699472
0.0685548
0.0665884
0.0642708
0.0615055
0.0584923
0.0551697
0.0514123
0.0473859
0.0431927
0.0389768
0.0347451
0.0307392
0.0272627
0.024112
0.0214731
0.0195638
0.018503
0.0183469
0.0189255
0.0202032
0.0221171
0.0247387
0.0280855
0.0320778
0.0362131
0.0404601
0.0442403
0.0481486
0.0509743
0.0536054
0.0551617
0.0559218
0.0725063
0.0724237
0.0728028
0.0731175
0.0730573
0.0726392
0.0718895
0.070761
0.0692517
0.0671423
0.0646553
0.0617103
0.0584324
0.0549127
0.0509291
0.0466876
0.0422524
0.0377816
0.0333731
0.029087
0.0253688
0.0221133
0.0193057
0.0172318
0.0160089
0.0156978
0.0162464
0.0174963
0.0194009
0.0220116
0.0253599
0.029506
0.0338187
0.0385295
0.0428023
0.0473549
0.0512767
0.0549028
0.0580854
0.0603969
0.0738673
0.0737297
0.0740697
0.0743779
0.0742849
0.0737927
0.0729387
0.0716597
0.0700288
0.067741
0.0650411
0.0619112
0.0583358
0.0545789
0.0503718
0.0458541
0.0411716
0.0364033
0.0317814
0.0272803
0.0232698
0.0197834
0.0168212
0.0145933
0.0132189
0.012733
0.0131126
0.0142993
0.0161782
0.0187427
0.022015
0.0263135
0.0307284
0.0356831
0.0405318
0.045442
0.0502552
0.0547238
0.0588487
0.0625393
0.0753894
0.0751944
0.0755093
0.0757915
0.0756727
0.075088
0.0741043
0.0726476
0.0708486
0.0683931
0.0654301
0.0620718
0.0582028
0.0541577
0.0497029
0.0448677
0.0399195
0.0348351
0.0299421
0.0252099
0.0209136
0.0171944
0.0140241
0.011606
0.0100527
0.0093937
0.00962506
0.0106731
0.0124659
0.015075
0.0181216
0.0223648
0.0269565
0.0319717
0.037235
0.0424202
0.0478579
0.0529726
0.0577406
0.0622685
0.0771298
0.0768775
0.0771515
0.0773805
0.0771965
0.0764829
0.0753765
0.0737265
0.0717036
0.0690753
0.0658061
0.0621876
0.058027
0.0536032
0.0488738
0.0437192
0.0384602
0.0330443
0.0278231
0.0228484
0.018231
0.0142803
0.0109078
0.00823209
0.00644927
0.005615
0.00562885
0.00655308
0.00799939
0.0105945
0.013648
0.0176316
0.0223005
0.0272859
0.032798
0.0382856
0.0440705
0.0496486
0.0549446
0.0596821
0.0791216
0.0787874
0.0790068
0.0791464
0.0788727
0.0780234
0.0767791
0.0749241
0.0726418
0.0698188
0.0661807
0.062231
0.0577751
0.0529005
0.047843
0.0423412
0.0367164
0.0309862
0.0253667
0.0201492
0.0152693
0.0109806
0.00735448
0.00446421
0.00235601
0.00142243
0.00110874
0.00193102
0.00311415
0.00539243
0.0085273
0.0122576
0.0168852
0.0218187
0.027298
0.0329211
0.0387964
0.0446105
0.0502471
0.05511
0.0813806
0.0809189
0.0810721
0.0811258
0.0807678
0.0797321
0.0782852
0.0762374
0.0735552
0.0705131
0.066584
0.0621432
0.0573629
0.0520401
0.0465571
0.0406913
0.0346395
0.0286073
0.0225839
0.0170051
0.0118564
0.00730208
0.00331548
0.0003088
-0.00216796
-0.00337582
-0.00398857
-0.00352545
-0.00234248
-0.000514321
0.002419
0.00597267
0.0103642
0.015219
0.0205858
0.026233
0.0321307
0.0379568
0.0436599
0.0484607
0.0839524
0.0833548
0.0834459
0.0833166
0.082843
0.0816548
0.0798318
0.0776272
0.0745988
0.071086
0.0669406
0.0619825
0.0567344
0.0509865
0.0449422
0.0386948
0.0321548
0.0257702
0.0193522
0.0134643
0.00791895
0.00315299
-0.00117263
-0.00442411
-0.00718997
-0.00887352
-0.00959186
-0.00960522
-0.00856972
-0.00702465
-0.00451779
-0.00120675
0.00288618
0.00757855
0.0127412
0.0182635
0.0240686
0.0297704
0.0354411
0.0401981
0.0869079
0.0861114
0.0861176
0.0858639
0.0850534
0.083735
0.0816337
0.0789505
0.0757032
0.0716751
0.0671029
0.0617197
0.0558079
0.0496176
0.0429501
0.0362609
0.0291968
0.0223956
0.0155802
0.00935597
0.00340518
-0.0015976
-0.00613467
-0.00987967
-0.0127487
-0.0149289
-0.0159741
-0.0163483
-0.0157701
-0.0144603
-0.0123727
-0.00947052
-0.00577894
-0.00140796
0.00357345
0.00887448
0.0144706
0.0199181
0.0254573
0.0297983
0.0903914
0.0893527
0.0889673
0.0885884
0.0876153
0.0858966
0.0835224
0.0803688
0.0766416
0.0721971
0.0669466
0.0611346
0.0545798
0.0477976
0.0404762
0.0332186
0.0256325
0.0184036
0.0111582
0.00448526
-0.00165398
-0.00716381
-0.0118515
-0.0159738
-0.0190439
-0.0215464
-0.0231309
-0.0238509
-0.0237581
-0.0229127
-0.0213076
-0.0189108
-0.0156452
-0.0117149
-0.0070783
-0.00201414
0.00342242
0.00886458
0.0139935
0.017947
0.0942824
0.0930812
0.092379
0.0915455
0.0903309
0.088214
0.0853956
0.0818888
0.0774175
0.0724405
0.0665905
0.0601438
0.0528443
0.0453675
0.0373914
0.0294129
0.02139
0.0135297
0.00598897
-0.00116469
-0.00756505
-0.0134399
-0.0183774
-0.0227046
-0.0262019
-0.0289512
-0.0309585
-0.0322201
-0.032671
-0.0324154
-0.0313693
-0.0296443
-0.0270025
-0.0236185
-0.0194877
-0.0148642
-0.0097156
-0.00473443
0.000307153
0.00430339
0.0985917
0.0969944
0.0962236
0.0950928
0.0932256
0.0907098
0.0872739
0.0832381
0.0781435
0.0723079
0.0656679
0.0583929
0.0503848
0.0419848
0.0333356
0.0245619
0.016016
0.00758014
-0.000357423
-0.00784244
-0.0145658
-0.0206101
-0.0258732
-0.0304206
-0.0341696
-0.0372556
-0.0396187
-0.0414268
-0.0425287
-0.0430254
-0.0427295
-0.0417994
-0.0400053
-0.0374081
-0.033898
-0.0300274
-0.0252225
-0.0204051
-0.0160673
-0.0125146
0.103825
0.101674
0.100254
0.0988166
0.0964956
0.0934038
0.0893133
0.084447
0.0787191
0.0719423
0.0642756
0.0558643
0.0469833
0.037604
0.0281004
0.0186287
0.00940363
0.000435734
-0.0079361
-0.0156732
-0.0226488
-0.0289531
-0.0343755
-0.0390951
-0.0430259
-0.0464093
-0.0491131
-0.0514924
-0.0532306
-0.0545267
-0.0551705
-0.0553103
-0.054489
-0.0530075
-0.0503748
-0.0474275
-0.0436452
-0.0393726
-0.0351203
-0.0318925
0.109726
0.107073
0.104956
0.102685
0.099599
0.0954453
0.0903662
0.0844036
0.0776296
0.0699751
0.0613335
0.0518485
0.0418067
0.0314058
0.0210107
0.0107401
0.000888694
-0.00858693
-0.0172901
-0.0253351
-0.0323973
-0.0388243
-0.0443193
-0.0491054
-0.0530678
-0.0566661
-0.0596043
-0.0624736
-0.064853
-0.0671204
-0.0689904
-0.0704444
-0.0711916
-0.0714103
-0.0709005
-0.0685716
-0.0658915
-0.0625198
-0.0589563
-0.0560602
0.116144
0.112667
0.110248
0.107667
0.104144
0.0993321
0.0931173
0.085551
0.0769148
0.0674442
0.0571953
0.0462684
0.0349577
0.0232304
0.0118698
0.00075574
-0.00977569
-0.0197389
-0.0286012
-0.0368655
-0.043821
-0.0501889
-0.0554447
-0.0601874
-0.0640109
-0.0675729
-0.0708622
-0.0738793
-0.0770612
-0.080159
-0.0832625
-0.0861125
-0.0885245
-0.0908218
-0.0923041
-0.0925521
-0.0920144
-0.0905897
-0.0884627
-0.0866559
0.122836
0.117812
0.113845
0.109574
0.104361
0.0979519
0.090404
0.0814566
0.0716158
0.0605962
0.048809
0.0365249
0.0238829
0.0108938
-0.00149135
-0.0135055
-0.0246407
-0.0348177
-0.043833
-0.0515802
-0.0583512
-0.0640721
-0.0688282
-0.0728295
-0.0763024
-0.0794533
-0.0826541
-0.0858061
-0.0894891
-0.0933967
-0.097527
-0.10212
-0.106822
-0.111328
-0.115468
-0.119154
-0.122005
-0.123942
-0.125216
-0.126414
0.133472
0.128631
0.124636
0.119514
0.112614
0.10331
0.0920142
0.0796747
0.0662758
0.0520251
0.0373995
0.0227227
0.00820079
-0.00637199
-0.0202589
-0.0330364
-0.0449612
-0.0553266
-0.0642544
-0.0714778
-0.0774443
-0.0820922
-0.0858336
-0.0886487
-0.0912498
-0.0935559
-0.0960326
-0.0989684
-0.102546
-0.106822
-0.111829
-0.117658
-0.123823
-0.130383
-0.13758
-0.145043
-0.152422
-0.15984
-0.166987
-0.174055
0.136513
0.126785
0.117645
0.108166
0.0983466
0.087543
0.0754451
0.0620007
0.0469054
0.031115
0.0148014
-0.00158754
-0.0177245
-0.0336333
-0.0485383
-0.0618389
-0.0737855
-0.0837606
-0.0917255
-0.0978139
-0.102152
-0.10484
-0.106588
-0.107436
-0.108071
-0.108887
-0.11008
-0.111912
-0.11492
-0.118976
-0.124149
-0.130429
-0.137516
-0.145876
-0.155327
-0.165677
-0.176952
-0.18915
-0.202063
-0.21567
0.163781
0.154996
0.143432
0.129322
0.113086
0.0949332
0.0749552
0.0546668
0.0343048
0.0139812
-0.00593654
-0.0253513
-0.0438858
-0.0614035
-0.0774718
-0.0915824
-0.103498
-0.112965
-0.119949
-0.12438
-0.126784
-0.127132
-0.126171
-0.124474
-0.122676
-0.121633
-0.121699
-0.123245
-0.126482
-0.130389
-0.135701
-0.142774
-0.15114
-0.160448
-0.170565
-0.180606
-0.192229
-0.205389
-0.219062
-0.234223
0.120251
0.0995574
0.0799368
0.0607644
0.0412611
0.0210539
-0.000294723
-0.0225902
-0.0458338
-0.0694075
-0.0927209
-0.115057
-0.135711
-0.154315
-0.170384
-0.183633
-0.19366
-0.200114
-0.203321
-0.203016
-0.200042
-0.194211
-0.186339
-0.176986
-0.167307
-0.15845
-0.151388
-0.147064
-0.146144
-0.14848
-0.152743
-0.159765
-0.169536
-0.179461
-0.188916
-0.197662
-0.20555
-0.214141
-0.225809
-0.231051
0.196921
0.169388
0.138349
0.107763
0.0770232
0.0462484
0.0154611
-0.0149798
-0.0443148
-0.0722699
-0.0983394
-0.12222
-0.14325
-0.161427
-0.176198
-0.187186
-0.19407
-0.196236
-0.19373
-0.186353
-0.174098
-0.157172
-0.136481
-0.114043
-0.0911437
-0.0699005
-0.0516564
-0.0381943
-0.0305046
-0.0296104
-0.0359584
-0.048958
-0.066407
-0.0863462
-0.103596
-0.106919
-0.102561
-0.103914
-0.115923
-0.135065
-0.099808
-0.135746
-0.173398
-0.217787
-0.266208
-0.314747
-0.361518
-0.405616
-0.445337
-0.478599
-0.505239
-0.528022
-0.548831
-0.566924
-0.5805
-0.587606
-0.587095
-0.578508
-0.561866
-0.538008
-0.50761
-0.471857
-0.431086
-0.386081
-0.338
-0.289127
-0.242037
-0.199179
-0.163185
-0.136122
-0.120387
-0.116844
-0.126656
-0.14572
-0.162489
-0.166107
-0.164053
-0.166263
-0.168229
-0.177244
-0.00164647
-0.000747701
-0.00449075
-0.00985528
-0.0165794
-0.0258774
-0.0381913
-0.0430453
-0.0358371
-0.0198458
-0.00483717
0.0105972
0.0194288
0.014115
0.0122681
0.00882268
0.00616055
0.00411413
0.0021961
0.000981276
-0.000119241
-0.000806354
-0.00143655
-0.00172634
-0.00200886
-0.00208264
-0.00215944
-0.0021292
-0.00213141
-0.00203241
-0.00195418
-0.00182076
-0.00172488
-0.00161176
-0.00149849
-0.00134793
-0.00119458
-0.00117148
-0.00162308
-0.00176905
0.000970283
-0.000904325
-0.00512933
-0.0111756
-0.0193098
-0.0308415
-0.0460871
-0.0517558
-0.0426522
-0.0229004
-0.00602176
0.0122751
0.0210151
0.0162249
0.0128728
0.00958545
0.0065384
0.00429589
0.0023045
0.000939052
-0.000150139
-0.000952729
-0.00154309
-0.00192856
-0.00216881
-0.00226605
-0.0023316
-0.00232458
-0.00230776
-0.00221402
-0.00213781
-0.00202185
-0.00193333
-0.00180843
-0.00165694
-0.00145405
-0.00128161
-0.00127856
-0.00158431
-0.00213287
0.000549602
-0.00102724
-0.00605299
-0.0129993
-0.0228912
-0.0375721
-0.0564063
-0.0626963
-0.0506527
-0.0264725
-0.00736415
0.0136869
0.0226074
0.0179813
0.0138296
0.0102723
0.00701236
0.00451607
0.00251762
0.000999208
-0.000131991
-0.00103937
-0.00164642
-0.00211809
-0.00233248
-0.00247542
-0.00251461
-0.00252227
-0.00247569
-0.0023918
-0.00232389
-0.00223135
-0.00213607
-0.00198918
-0.00179103
-0.00154839
-0.00137552
-0.00131219
-0.00129526
-0.00124645
0.00226384
-0.000912471
-0.00692686
-0.0149661
-0.0270877
-0.0464344
-0.0699732
-0.0766173
-0.0601328
-0.0305123
-0.00861623
0.0147063
0.0240132
0.019372
0.0149577
0.0109368
0.00746347
0.00476834
0.00270832
0.00105412
-0.000155825
-0.00115926
-0.00179815
-0.00229967
-0.00251245
-0.00267894
-0.00270423
-0.00270437
-0.0026314
-0.00255265
-0.00245052
-0.00234449
-0.002222
-0.00205473
-0.00184807
-0.00162563
-0.00150853
-0.00141385
-0.00144464
-0.00162925
0.00174475
-0.000934834
-0.00789054
-0.0170406
-0.0319428
-0.0580074
-0.0883254
-0.0943805
-0.0713215
-0.0353026
-0.0101536
0.0157069
0.0252106
0.0204415
0.016142
0.0114957
0.00789996
0.00502743
0.0028308
0.00107915
-0.00024085
-0.00131038
-0.00197977
-0.00248622
-0.00272126
-0.00291503
-0.00294897
-0.00295742
-0.00287443
-0.0027681
-0.00260011
-0.00244434
-0.0022942
-0.00211216
-0.00194747
-0.0017706
-0.00166636
-0.00149482
-0.00139991
-0.00129306
0.00338452
-0.000966403
-0.00927408
-0.0196653
-0.0387416
-0.0742329
-0.112122
-0.117775
-0.0845625
-0.0408752
-0.011697
0.0163989
0.0257575
0.0213869
0.0170768
0.0119764
0.00836258
0.00527347
0.00296333
0.00111958
-0.000307709
-0.0014308
-0.00216956
-0.00269685
-0.00300274
-0.00323719
-0.00330189
-0.00333484
-0.00324444
-0.00312344
-0.00292347
-0.00273441
-0.00254672
-0.0023524
-0.00217582
-0.00196707
-0.00180802
-0.00158667
-0.0015159
-0.00140611
0.0031723
-0.00118731
-0.0106983
-0.022635
-0.0485107
-0.100485
-0.143209
-0.146754
-0.100064
-0.0475192
-0.0135013
0.0170959
0.025715
0.0219809
0.0174023
0.0124775
0.00874763
0.00555089
0.00316014
0.00120333
-0.000282225
-0.00149744
-0.00229407
-0.0028887
-0.00326207
-0.00351451
-0.00361711
-0.00368352
-0.00362237
-0.0035383
-0.00334821
-0.00314639
-0.0029118
-0.00266107
-0.00239743
-0.00212291
-0.00192611
-0.00170869
-0.00166861
-0.00153628
0.00470052
-0.00168115
-0.0109188
-0.0258972
-0.0601179
-0.12927
-0.188314
-0.180292
-0.117512
-0.0555114
-0.0157197
0.0179973
0.0244557
0.0218484
0.0172161
0.0127765
0.0089066
0.00583655
0.00328417
0.00129582
-0.000248673
-0.00150689
-0.00234843
-0.0029835
-0.00338692
-0.00364912
-0.00378444
-0.00388665
-0.00384987
-0.00378869
-0.00358113
-0.00338549
-0.00310913
-0.00281482
-0.0025012
-0.00224365
-0.00205461
-0.00179342
-0.00168243
-0.0014212
0.00549949
-0.00242705
-0.0105946
-0.0301335
-0.0789496
-0.158819
-0.245395
-0.218111
-0.13607
-0.0640238
-0.019076
0.0178946
0.0224647
0.0209899
0.016748
0.0125362
0.00883775
0.00587056
0.0032282
0.00126719
-0.000362047
-0.00158796
-0.00250217
-0.00312792
-0.00357678
-0.00383923
-0.00396093
-0.00404656
-0.00397083
-0.00387529
-0.00363754
-0.00348498
-0.00320355
-0.00296939
-0.00266085
-0.00245934
-0.00224086
-0.00202433
-0.00198949
-0.00184363
0.00652084
-0.00252335
-0.0116707
-0.0349682
-0.102289
-0.201706
-0.312336
-0.257089
-0.154687
-0.0728286
-0.0225601
0.0151794
0.019649
0.0196473
0.015769
0.0119102
0.0085674
0.00561932
0.00299373
0.00100316
-0.000673088
-0.00190412
-0.00291367
-0.00356982
-0.00405528
-0.00431919
-0.00441035
-0.00444216
-0.00430334
-0.00416208
-0.00391603
-0.00380668
-0.00354747
-0.00338683
-0.00307341
-0.00291233
-0.00257983
-0.00232205
-0.00203785
-0.00161524
0.00797933
-0.0016058
-0.0137422
-0.0371039
-0.124059
-0.261373
-0.381444
-0.290332
-0.169823
-0.0826205
-0.0260395
0.00895425
0.0156944
0.017508
0.0142119
0.0110699
0.00803604
0.00527761
0.00268732
0.000679873
-0.00101759
-0.00233606
-0.00342253
-0.0041528
-0.00468542
-0.00496367
-0.00507563
-0.0050608
-0.00490415
-0.00475113
-0.00451354
-0.00438057
-0.00410809
-0.00392382
-0.00358998
-0.00337493
-0.00293903
-0.00267098
-0.00238838
-0.00216059
0.00950089
-3.57058e-05
-0.0143442
-0.0378701
-0.142011
-0.330565
-0.437969
-0.309469
-0.181098
-0.0901795
-0.031319
0.000108127
0.00938107
0.0138049
0.0120402
0.00994753
0.00726926
0.00492592
0.00249232
0.000488136
-0.00117823
-0.00256083
-0.00367447
-0.00446035
-0.00506816
-0.00538235
-0.00555901
-0.00552955
-0.00544412
-0.00526632
-0.0050395
-0.00481278
-0.00447969
-0.00420318
-0.00389404
-0.0036233
-0.00320138
-0.00291775
-0.00245866
-0.00197956
0.0113592
0.00229859
-0.00862726
-0.0423899
-0.15559
-0.384265
-0.458767
-0.310795
-0.184338
-0.0952498
-0.0401987
-0.0119297
0.000785757
0.00838828
0.00850143
0.00827812
0.00603237
0.004373
0.00213982
0.00031927
-0.00125206
-0.00259084
-0.00369903
-0.0044737
-0.00517232
-0.00550778
-0.00579033
-0.00573741
-0.00575014
-0.00550754
-0.00535287
-0.00502424
-0.00467607
-0.00434736
-0.00406851
-0.00371336
-0.00337697
-0.00314016
-0.00279449
-0.00257658
0.0138953
0.0072132
0.00459033
-0.0425581
-0.157266
-0.376148
-0.417924
-0.284352
-0.181084
-0.100815
-0.053114
-0.0274708
-0.00976413
0.000702483
0.00346086
0.00572284
0.00407627
0.00333997
0.00129697
-0.000140937
-0.00163609
-0.00287527
-0.00402028
-0.00472179
-0.00550055
-0.00578635
-0.00612522
-0.00603836
-0.00611395
-0.00584792
-0.00574856
-0.0053321
-0.00505668
-0.00468816
-0.00440302
-0.00399323
-0.00377687
-0.00345359
-0.00293728
-0.00254187
0.0188107
0.0175867
0.0161269
-0.0261551
-0.139022
-0.312006
-0.322831
-0.238943
-0.169414
-0.10551
-0.0707616
-0.046181
-0.0237292
-0.00958641
-0.00288733
0.00196242
0.00149046
0.00166303
-1.82758e-05
-0.00107956
-0.00253269
-0.00364017
-0.00487833
-0.00549612
-0.00629593
-0.00648924
-0.00684346
-0.00671885
-0.00682078
-0.00654885
-0.00641939
-0.00598855
-0.00578855
-0.00539248
-0.00505495
-0.00465884
-0.00442429
-0.00394144
-0.0034989
-0.00315973
0.0271511
0.0313204
0.0267321
-0.00488602
-0.0977802
-0.228144
-0.230508
-0.195439
-0.155345
-0.117494
-0.0947734
-0.0689051
-0.0423364
-0.0231932
-0.011044
-0.00326613
-0.00137566
-0.000583625
-0.00140356
-0.00225067
-0.00361639
-0.00458846
-0.00584174
-0.00649236
-0.00725839
-0.00747538
-0.00773968
-0.0076383
-0.00771293
-0.00742264
-0.0072791
-0.00685449
-0.00665384
-0.00621296
-0.00585991
-0.00544106
-0.00504593
-0.00449144
-0.00394049
-0.00348907
0.0378871
0.0423872
0.0414411
0.018909
-0.059822
-0.14592
-0.160657
-0.16233
-0.147128
-0.137783
-0.122386
-0.098677
-0.067369
-0.0409811
-0.0216493
-0.00962741
-0.00451098
-0.00323068
-0.00252547
-0.00345291
-0.00436277
-0.00541778
-0.00646455
-0.00730983
-0.00794679
-0.00828676
-0.00841978
-0.00847769
-0.00836193
-0.00817346
-0.00792246
-0.00756094
-0.00728319
-0.00679865
-0.00644896
-0.0059626
-0.00553603
-0.00497796
-0.00450171
-0.00411894
0.0483194
0.0506689
0.056442
0.0392127
-0.0239489
-0.0809859
-0.115264
-0.137007
-0.144368
-0.156601
-0.15181
-0.136931
-0.100143
-0.0638256
-0.0351818
-0.0172517
-0.00861658
-0.0059663
-0.00384992
-0.00464945
-0.00497929
-0.00612733
-0.00681112
-0.00789459
-0.00819904
-0.00879447
-0.00873411
-0.00897575
-0.00868544
-0.00867208
-0.00824955
-0.00803885
-0.00759904
-0.00722769
-0.00682476
-0.00640727
-0.00597341
-0.00543138
-0.00500274
-0.00470715
0.0572369
0.0590646
0.0669905
0.0530269
0.00364432
-0.0416718
-0.0890026
-0.118243
-0.144928
-0.175753
-0.185294
-0.179737
-0.138223
-0.0942048
-0.0528042
-0.0275244
-0.0140305
-0.00959884
-0.00596763
-0.00617377
-0.00601906
-0.00696889
-0.00750712
-0.0085258
-0.00870616
-0.00943253
-0.00924458
-0.0095959
-0.0092983
-0.00932658
-0.00889773
-0.00873587
-0.00819159
-0.00791891
-0.00741181
-0.00707747
-0.00653513
-0.00606996
-0.00557969
-0.00534998
0.0636749
0.0670044
0.0725224
0.0598863
0.0207053
-0.024671
-0.0716346
-0.108781
-0.149755
-0.196166
-0.223218
-0.227548
-0.187971
-0.132553
-0.0761862
-0.0406862
-0.0212941
-0.014066
-0.00895885
-0.00835267
-0.00780145
-0.00854686
-0.0090406
-0.00989756
-0.0102623
-0.0107383
-0.0107306
-0.0109953
-0.0108032
-0.0107921
-0.0103975
-0.0101054
-0.00955817
-0.00913947
-0.00852285
-0.00810376
-0.00745673
-0.00694968
-0.00636416
-0.00620535
0.0672636
0.0716713
0.0728949
0.0592078
0.0273333
-0.0181424
-0.0624471
-0.104057
-0.15482
-0.215353
-0.262067
-0.282254
-0.25113
-0.175089
-0.107879
-0.056901
-0.0298484
-0.017523
-0.012361
-0.0101649
-0.00988756
-0.0101119
-0.0108913
-0.0114395
-0.012149
-0.0123122
-0.0126715
-0.0125437
-0.0126457
-0.0124581
-0.0121276
-0.0116825
-0.0111445
-0.010522
-0.0099258
-0.00931262
-0.00858927
-0.00799222
-0.0073882
-0.00716844
0.0681123
0.0709682
0.0689598
0.0550055
0.0251416
-0.0166778
-0.0589386
-0.100357
-0.157594
-0.229486
-0.294386
-0.333916
-0.318436
-0.227282
-0.143996
-0.0766356
-0.0371342
-0.0205471
-0.0151471
-0.0107207
-0.0107623
-0.0104528
-0.0115769
-0.011806
-0.0128295
-0.0130281
-0.0135038
-0.0133809
-0.013719
-0.0133218
-0.0132125
-0.0126685
-0.0122571
-0.0116064
-0.0111331
-0.0104041
-0.00974449
-0.00897237
-0.00838009
-0.00815704
0.065925
0.0664555
0.0618431
0.0479321
0.0206121
-0.017821
-0.0565954
-0.0984033
-0.157633
-0.232083
-0.310842
-0.369731
-0.37409
-0.288634
-0.178449
-0.0976888
-0.0448986
-0.024629
-0.0167622
-0.0113665
-0.0107455
-0.0106865
-0.0114352
-0.0119332
-0.0129644
-0.0133135
-0.0137083
-0.0138766
-0.0140576
-0.0138502
-0.013802
-0.013353
-0.0130389
-0.0124631
-0.011999
-0.0112727
-0.0106249
-0.0098932
-0.00939135
-0.00907099
0.0609312
0.0593395
0.0526516
0.0395525
0.0161372
-0.0195632
-0.0577522
-0.0971666
-0.152505
-0.224221
-0.30208
-0.366367
-0.384192
-0.321272
-0.205081
-0.112974
-0.0542847
-0.0264358
-0.0176567
-0.0133251
-0.0119552
-0.0128161
-0.0129824
-0.0141054
-0.0145748
-0.0150779
-0.0151889
-0.0154783
-0.0153554
-0.0153371
-0.0150225
-0.0146155
-0.0141326
-0.0135878
-0.0129765
-0.0122821
-0.0116038
-0.0109622
-0.0104138
-0.0101479
0.0537626
0.0513125
0.0424504
0.0293186
0.00987388
-0.0186783
-0.0558143
-0.0958753
-0.143311
-0.201855
-0.263979
-0.314825
-0.332013
-0.286422
-0.184407
-0.106852
-0.0561327
-0.0224196
-0.0157518
-0.0139854
-0.0132801
-0.0148677
-0.0157123
-0.0171135
-0.0177058
-0.0183533
-0.0184786
-0.0186753
-0.0183681
-0.0183795
-0.0177085
-0.0171677
-0.0164263
-0.0157527
-0.0149025
-0.0141752
-0.0133579
-0.012597
-0.0118741
-0.011665
0.0450703
0.0418618
0.0312582
0.0180258
0.000646014
-0.0239228
-0.056219
-0.0909569
-0.127334
-0.169782
-0.212101
-0.243183
-0.246054
-0.216254
-0.149152
-0.0859989
-0.0380719
-0.015399
-0.00640817
-0.0083422
-0.0100243
-0.0129283
-0.0158215
-0.0179699
-0.0197964
-0.0209797
-0.0218619
-0.0221578
-0.0223127
-0.0220935
-0.0214642
-0.0207845
-0.0199583
-0.0190586
-0.0181333
-0.0171134
-0.016051
-0.0150497
-0.0142036
-0.0138937
0.0339121
0.0307903
0.0192546
0.00511992
-0.0111723
-0.0323851
-0.061267
-0.0922743
-0.120408
-0.148134
-0.172947
-0.189897
-0.188768
-0.159767
-0.103357
-0.0450983
-0.0112149
0.00104963
0.00847566
0.00393565
-0.00203686
-0.00682871
-0.0117724
-0.0156204
-0.0186063
-0.0210069
-0.0228073
-0.0238503
-0.0245667
-0.0246592
-0.0244788
-0.0240113
-0.0233731
-0.0225076
-0.0214928
-0.020301
-0.0192214
-0.0179129
-0.0167716
-0.0163915
0.0206861
0.0177321
0.00525172
-0.0103364
-0.0264856
-0.044471
-0.0696265
-0.0983009
-0.122875
-0.140791
-0.157289
-0.16094
-0.150344
-0.118039
-0.0680769
-0.00831186
0.016433
0.0276259
0.0218141
0.0179088
0.00761874
0.000638679
-0.00625251
-0.0115633
-0.0156714
-0.0190488
-0.0214675
-0.023328
-0.0246074
-0.0254291
-0.0258019
-0.0258397
-0.0254275
-0.0247658
-0.0238179
-0.0227748
-0.0216825
-0.0205535
-0.0196267
-0.019134
0.00567045
0.0018222
-0.0104667
-0.0270291
-0.0450928
-0.0629813
-0.0840522
-0.109617
-0.132624
-0.147616
-0.154379
-0.14709
-0.12448
-0.0898782
-0.0453368
0.00554258
0.0431888
0.0521877
0.0408946
0.0302769
0.0177106
0.00711737
-0.0013592
-0.0082973
-0.0138115
-0.0179394
-0.021162
-0.0236159
-0.0254623
-0.0266858
-0.0274928
-0.0276652
-0.0274439
-0.0269826
-0.0261689
-0.0253785
-0.0243932
-0.0234008
-0.0225302
-0.0221795
-0.0113357
-0.0167307
-0.0295153
-0.0475566
-0.0671662
-0.0874769
-0.108307
-0.130684
-0.152782
-0.165653
-0.163349
-0.147567
-0.116157
-0.0755608
-0.0317438
0.0122873
0.0576261
0.0723584
0.0608634
0.0418494
0.0288674
0.0145595
0.00335289
-0.00603824
-0.0133567
-0.0187778
-0.0231015
-0.0264515
-0.0288294
-0.0304018