/*--------------------------------*- C++ -*----------------------------------*\
  =========                 |
  \\      /  F ield         | OpenFOAM: The Open Source CFD Toolbox
   \\    /   O peration     | Website:  https://openfoam.org
    \\  /    A nd           | Version:  11
     \\/     M anipulation  |
\*---------------------------------------------------------------------------*/
FoamFile
{
    format      ascii;
    class       volVectorField;
    location    "7";
    object      U;
}
// * * * * * * * * * * * * * * * * * * * * * * * * * * * * * * * * * * * * * //

dimensions      [0 1 -1 0 0 0 0];

internalField   nonuniform List<vector> 
9600
(
(0.992875 0.00052919 -6.02047e-21)
(0.992348 0.000545039 0)
(0.991681 0.000621122 -6.2531e-21)
(0.990832 0.000591275 6.17719e-21)
(0.990228 0.000143687 0)
(0.990227 -0.00015908 3.16817e-21)
(0.990456 -0.000374334 -6.29684e-21)
(0.990909 -0.000601255 3.13466e-21)
(0.991675 -0.000785855 3.14804e-21)
(0.99283 -0.000930529 -3.1555e-21)
(0.994387 -0.00103701 2.42082e-23)
(0.996249 -0.00113196 0)
(0.998215 -0.00125732 0)
(1.00034 -0.00143348 -1.42842e-21)
(1.00275 -0.00153518 6.35863e-23)
(1.0057 -0.00139999 1.3689e-21)
(1.00812 -0.00179674 0)
(1.01071 -0.00248428 0)
(1.01499 -0.00223044 2.19117e-24)
(1.01789 -0.000739123 0)
(1.01808 0.000416314 0)
(1.01558 0.0021229 -1.78272e-24)
(1.00482 0.00504013 3.43791e-24)
(0.985905 0.00596857 -8.49317e-22)
(0.972889 0.00381575 8.41824e-22)
(0.966927 0.00190408 7.99433e-22)
(0.966255 0.000523661 -8.00075e-22)
(0.972059 -0.00206791 -1.57737e-21)
(0.987437 -0.00537422 1.55875e-21)
(1.00312 -0.00684027 0)
(1.01836 -0.00791454 0)
(1.03367 -0.0088583 1.2769e-21)
(1.04851 -0.00969792 -2.35397e-21)
(1.06145 -0.0098502 1.08799e-21)
(1.07015 -0.0100444 0)
(1.07362 -0.0102156 9.69159e-24)
(1.07335 -0.0108865 5.72657e-22)
(1.07109 -0.0114392 -5.64312e-22)
(1.06799 -0.0111446 -1.19434e-24)
(1.05993 -0.021435 3.62035e-22)
(0.993679 0.000284514 -6.10361e-21)
(0.993502 0.000153243 -1.63803e-22)
(0.993375 -9.60103e-06 -1.9454e-23)
(0.993486 -0.000148724 6.41486e-21)
(0.993822 -0.00022849 3.24811e-21)
(0.994505 -0.000116954 -3.26584e-21)
(0.995549 -4.63506e-05 5.14281e-23)
(0.996314 -1.71553e-05 2.57557e-23)
(0.997455 -9.69145e-05 -3.27339e-21)
(0.999535 -0.000169931 3.33286e-21)
(1.00146 -0.000280344 -2.52781e-23)
(1.00328 -0.00025897 4.94241e-23)
(1.00593 -0.000299484 1.46849e-21)
(1.00936 -0.000334449 -2.98173e-21)
(1.01279 -0.000510626 1.48719e-21)
(1.01616 -0.000635922 1.33992e-21)
(1.01929 -0.000186271 -1.35066e-21)
(1.02198 -0.000110539 6.00672e-22)
(1.02402 -0.000228678 -5.93647e-22)
(1.02637 -0.000407369 0)
(1.02919 0.000493 0)
(1.03153 0.00255307 -4.58567e-22)
(1.03253 0.00472466 4.53315e-22)
(1.03275 0.00501773 6.80019e-24)
(1.03227 0.00353458 0)
(1.02931 0.000724483 8.29675e-22)
(1.02724 -0.00173008 9.26172e-25)
(1.0281 -0.00447314 8.17441e-22)
(1.03039 -0.00455503 -1.59656e-21)
(1.03603 -0.00393968 -2.48688e-23)
(1.04494 -0.00196771 1.46826e-21)
(1.05421 -0.000890284 -1.47544e-21)
(1.06402 0.00115062 1.20524e-21)
(1.07198 0.00307234 -2.177e-21)
(1.07867 0.00700929 9.63229e-22)
(1.08236 0.00972292 -1.00199e-23)
(1.08362 0.0133699 -6.71048e-24)
(1.0821 0.0142841 0)
(1.07997 0.017798 1.23627e-24)
(1.06559 0.0210649 3.85381e-23)
(0.993711 0.000299493 0)
(0.993541 0.000147284 6.54894e-21)
(0.993541 7.59377e-05 -6.4605e-21)
(0.993692 -3.2825e-05 0)
(0.994102 -0.000218853 0)
(0.994868 -0.000641858 -1.0499e-22)
(0.99564 -0.000830177 -1.5808e-22)
(0.99648 -0.00120707 0)
(0.99759 -0.0017779 -3.46187e-21)
(0.999598 -0.00227719 3.31271e-21)
(1.00172 -0.0022066 0)
(1.00383 -0.00271224 -5.06173e-23)
(1.00629 -0.00334183 4.93336e-23)
(1.00965 -0.0037175 0)
(1.0136 -0.00357836 -1.45416e-21)
(1.01709 -0.00333144 1.43281e-21)
(1.01906 -0.00352352 4.13151e-23)
(1.02068 -0.00387833 -9.75825e-24)
(1.02369 -0.00342389 -2.7495e-22)
(1.02834 -0.00254137 2.84134e-22)
(1.03317 -0.00157539 2.51342e-22)
(1.03596 0.000884367 -2.62706e-22)
(1.03618 0.00463628 7.24751e-24)
(1.03458 0.00655842 -8.78848e-22)
(1.03106 0.00601696 8.64263e-22)
(1.02468 0.00464921 8.03762e-22)
(1.02089 0.00210374 -8.42558e-22)
(1.02105 -0.00259991 1.66202e-21)
(1.02526 -0.00783008 -1.6586e-21)
(1.03245 -0.0121055 2.55107e-23)
(1.04225 -0.0145255 0)
(1.05283 -0.0166242 1.43631e-21)
(1.06307 -0.0173439 -2.73692e-21)
(1.07251 -0.0175252 1.27996e-21)
(1.08113 -0.0161941 9.26178e-22)
(1.08832 -0.0146162 -2.27279e-21)
(1.09245 -0.0123953 3.89942e-22)
(1.09328 -0.0116537 9.7336e-22)
(1.09286 -0.0109339 -6.4842e-24)
(1.08881 -0.0131002 -2.32408e-24)
(0.99369 0.000148731 -1.30181e-20)
(0.993581 3.41293e-05 6.57176e-21)
(0.993623 -2.39898e-05 6.68853e-21)
(0.993811 -0.000254933 -6.71909e-21)
(0.994416 -0.000605739 0)
(0.995118 -0.000988768 3.55319e-21)
(0.995988 -0.00109923 -3.34892e-21)
(0.997075 -0.00138643 3.55674e-21)
(0.998454 -0.0018307 -3.14402e-23)
(0.999734 -0.00217258 -3.43539e-21)
(1.00235 -0.00220344 -3.22318e-21)
(1.00484 -0.00250381 6.69317e-21)
(1.00711 -0.003023 -1.68032e-21)
(1.00931 -0.00356064 -3.10515e-21)
(1.01335 -0.00365818 1.5253e-21)
(1.01724 -0.00307099 1.42925e-21)
(1.02039 -0.00201765 -1.40741e-21)
(1.02182 -0.00235131 -1.98202e-23)
(1.02431 -0.00335674 -9.35616e-24)
(1.0276 -0.00414213 0)
(1.03156 -0.00235808 0)
(1.03377 0.00121931 7.80016e-24)
(1.03567 0.00506448 0)
(1.03609 0.00678717 0)
(1.03627 0.00689272 -1.35511e-23)
(1.03621 0.00491866 2.68739e-23)
(1.039 0.00105802 -8.26016e-22)
(1.04147 -0.00510534 -7.97641e-22)
(1.04589 -0.00751076 1.75486e-21)
(1.0495 -0.010464 -1.67124e-21)
(1.0563 -0.0097746 1.66722e-21)
(1.06228 -0.00990776 4.98478e-23)
(1.07074 -0.00732412 1.30659e-21)
(1.07692 -0.00598187 -1.34864e-21)
(1.08423 -0.00111453 -9.20957e-22)
(1.08817 0.0022396 -5.11856e-22)
(1.09172 0.00947324 4.31875e-22)
(1.09051 0.0126838 1.02438e-21)
(1.08814 0.0185221 6.73125e-24)
(1.07698 0.0199494 2.12549e-24)
(0.993652 0.000127789 0)
(0.993574 -7.56059e-05 7.06643e-21)
(0.993682 -0.000195714 -1.39928e-20)
(0.993965 -0.000548682 6.94536e-21)
(0.994563 -0.000901788 0)
(0.995483 -0.00146802 0)
(0.996283 -0.00158669 0)
(0.997206 -0.00219382 1.11264e-22)
(0.998398 -0.00274994 -3.40817e-21)
(1.00027 -0.00362906 3.52861e-21)
(1.00225 -0.00397065 -1.07908e-22)
(1.00493 -0.00459352 3.22679e-21)
(1.0076 -0.00492449 -4.95615e-21)
(1.01051 -0.00587059 1.61953e-21)
(1.01329 -0.00604713 0)
(1.01637 -0.00540875 1.37087e-21)
(1.02036 -0.00480008 -1.41792e-21)
(1.02416 -0.0048663 2.03291e-23)
(1.02694 -0.00527463 0)
(1.02778 -0.00484294 0)
(1.02857 -0.00365744 -2.61785e-22)
(1.03083 -0.000776708 2.61742e-22)
(1.03605 0.00336969 0)
(1.04025 0.0061898 -9.16131e-22)
(1.04301 0.00640791 9.43486e-22)
(1.0435 0.00511695 8.93593e-22)
(1.04342 0.00241226 -8.63542e-22)
(1.04175 -0.00314937 1.70307e-21)
(1.04208 -0.00844325 -1.80994e-21)
(1.04382 -0.0142351 -5.53015e-23)
(1.04928 -0.0175591 0)
(1.05622 -0.0209565 -5.10865e-23)
(1.06526 -0.0216473 -1.43173e-21)
(1.07318 -0.0225962 1.47426e-21)
(1.08109 -0.0207316 -3.6003e-23)
(1.08698 -0.0193078 0)
(1.09232 -0.0151388 0)
(1.0948 -0.012775 9.36452e-22)
(1.09556 -0.00888775 -9.00744e-22)
(1.0924 -0.00803422 1.1736e-23)
(0.993596 -9.10523e-05 -6.68014e-21)
(0.993557 -0.000312493 -2.18839e-22)
(0.993707 -0.00040847 2.21086e-22)
(0.993965 -0.000817415 2.24349e-22)
(0.994779 -0.00125869 0)
(0.995508 -0.00190489 0)
(0.996527 -0.00198066 0)
(0.997333 -0.00295627 3.40692e-21)
(0.998702 -0.00357098 -7.47826e-21)
(1.00033 -0.00435807 3.39119e-21)
(1.00327 -0.00436163 0)
(1.00546 -0.00507404 3.29945e-21)
(1.00792 -0.00584349 -3.41475e-21)
(1.01001 -0.00645315 -1.59194e-21)
(1.01377 -0.00634394 1.59455e-21)
(1.01749 -0.00607496 4.63742e-23)
(1.02144 -0.00551393 -4.38799e-23)
(1.02373 -0.00547081 0)
(1.02567 -0.00518735 1.93638e-23)
(1.0273 -0.00519569 0)
(1.03045 -0.00394406 -4.27479e-24)
(1.03254 -0.00220291 -1.61346e-23)
(1.03618 0.0014359 0)
(1.03776 0.00428763 9.64226e-22)
(1.04025 0.005745 -9.53188e-22)
(1.04071 0.0050322 8.43841e-22)
(1.04372 0.00326016 -9.61934e-22)
(1.04611 -0.00297874 -1.75197e-21)
(1.05047 -0.00732607 1.75125e-21)
(1.05292 -0.0127368 -5.95978e-25)
(1.05962 -0.0149833 1.13991e-22)
(1.0643 -0.0173431 -1.11029e-22)
(1.07301 -0.0161125 1.56654e-21)
(1.07895 -0.0155704 -2.95386e-21)
(1.08783 -0.011055 1.38769e-21)
(1.09242 -0.0077449 0)
(1.09897 0.000224081 5.62394e-23)
(1.09938 0.00593311 -4.15392e-23)
(1.09902 0.014343 -2.34054e-23)
(1.08891 0.0181802 4.28338e-22)
(0.99358 -0.000258018 -1.93593e-22)
(0.993567 -0.000564812 -1.42468e-20)
(0.993813 -0.000685688 1.73123e-22)
(0.994033 -0.00129587 7.11519e-21)
(0.994975 -0.00164581 0)
(0.99562 -0.00256062 2.3431e-22)
(0.996754 -0.00267193 2.34973e-22)
(0.997579 -0.00379145 0)
(0.999015 -0.00417417 3.9369e-21)
(1.00052 -0.00554332 -3.25349e-21)
(1.00341 -0.00600639 0)
(1.00602 -0.00680121 2.21681e-22)
(1.00842 -0.00675441 -1.69342e-21)
(1.01018 -0.0081452 1.69584e-21)
(1.01414 -0.0086539 0)
(1.0181 -0.00821199 1.43123e-21)
(1.02224 -0.00680565 -1.48033e-21)
(1.02402 -0.00606874 0)
(1.02679 -0.00642697 -3.47108e-22)
(1.02836 -0.00660616 3.07553e-22)
(1.0308 -0.00552289 8.75001e-24)
(1.03234 -0.00300874 3.29995e-23)
(1.03508 0.00116091 -3.1345e-23)
(1.03675 0.00410368 -9.82564e-22)
(1.03996 0.00563064 9.80565e-22)
(1.04191 0.00419895 5.86381e-23)
(1.0458 0.00218697 9.34104e-22)
(1.04667 -0.00301259 -1.04794e-21)
(1.04875 -0.00799152 -1.83086e-21)
(1.0498 -0.0146692 1.82323e-21)
(1.05427 -0.0189822 -1.17009e-22)
(1.05858 -0.0240188 -3.56695e-24)
(1.06686 -0.0254304 0)
(1.07402 -0.0275678 -1.04659e-22)
(1.08318 -0.0256537 -1.35028e-21)
(1.0889 -0.0247751 -9.04653e-22)
(1.09521 -0.019767 4.10133e-22)
(1.09732 -0.0161112 1.80973e-21)
(1.10104 -0.00934239 -8.50971e-22)
(1.0973 -0.00529722 8.6384e-22)
(0.993547 -0.000527482 7.3827e-21)
(0.993523 -0.000884214 2.94297e-22)
(0.993763 -0.00102192 -1.48378e-20)
(0.993971 -0.00160716 7.34535e-21)
(0.994924 -0.00209772 0)
(0.995551 -0.00313761 -2.40603e-22)
(0.99684 -0.0033251 -3.85817e-21)
(0.997503 -0.00438457 7.95953e-21)
(0.999111 -0.00519693 -7.42502e-21)
(1.00101 -0.00681177 3.58257e-21)
(1.00362 -0.00717411 0)
(1.00598 -0.00745883 3.47095e-21)
(1.00884 -0.00819241 -3.48212e-21)
(1.01118 -0.00951117 -1.5634e-21)
(1.01449 -0.00993556 1.67302e-21)
(1.01771 -0.00925984 0)
(1.02202 -0.00808595 2.61996e-25)
(1.02533 -0.00757134 0)
(1.02812 -0.00719108 4.04396e-23)
(1.02927 -0.00686875 -9.42981e-24)
(1.03089 -0.00581657 -4.47546e-24)
(1.03188 -0.00403048 -1.68415e-23)
(1.03549 -0.000899367 3.21396e-23)
(1.03791 0.00243776 -9.98566e-22)
(1.04051 0.00373905 1.01343e-21)
(1.04071 0.00332766 9.39552e-22)
(1.04221 0.00222101 -9.44432e-22)
(1.04259 -0.00215396 -1.85242e-21)
(1.04691 -0.00717089 3.87093e-21)
(1.04904 -0.0135977 -3.80092e-21)
(1.05629 -0.0177812 1.96963e-21)
(1.06106 -0.0225787 1.20817e-22)
(1.07086 -0.023758 0)
(1.07714 -0.0251055 1.07496e-22)
(1.08812 -0.0220138 0)
(1.09386 -0.0190036 0)
(1.10325 -0.0117493 0)
(1.10586 -0.00538481 1.40587e-21)
(1.11004 0.00466859 -1.47656e-21)
(1.10176 0.0129518 -4.43637e-23)
(0.993532 -0.000835205 -7.11884e-21)
(0.993543 -0.00131694 2.81077e-24)
(0.993858 -0.00149168 -8.29842e-21)
(0.994066 -0.00218381 8.0806e-21)
(0.995076 -0.00270681 -4.96376e-22)
(0.99575 -0.0039317 -4.22537e-21)
(0.996805 -0.00414794 3.48988e-21)
(0.998064 -0.00552463 -2.48434e-22)
(0.999288 -0.00617903 -4.16696e-21)
(1.00128 -0.0080441 7.79066e-21)
(1.00355 -0.00824941 -4.10958e-21)
(1.00674 -0.00934072 0)
(1.00953 -0.00934728 -3.40598e-22)
(1.01163 -0.0107749 -1.09599e-22)
(1.01462 -0.0114052 1.04612e-22)
(1.01809 -0.0111212 1.44845e-21)
(1.02308 -0.00978194 -1.5025e-21)
(1.02618 -0.00833543 0)
(1.02904 -0.00790563 -4.12501e-23)
(1.03031 -0.00774939 1.05031e-25)
(1.03208 -0.00675645 0)
(1.03299 -0.00523896 1.69044e-23)
(1.03555 -0.00183999 3.20282e-23)
(1.03664 0.00183852 3.12756e-23)
(1.03927 0.00410339 -6.08153e-23)
(1.03967 0.0038534 0)
(1.04189 0.00270259 0)
(1.0427 -0.00195751 1.97281e-21)
(1.04509 -0.00742485 -1.85293e-21)
(1.04617 -0.0149208 -1.27489e-22)
(1.05156 -0.020233 0)
(1.05579 -0.0268757 -2.1866e-21)
(1.06453 -0.0296074 4.02622e-21)
(1.07168 -0.0332835 -3.81562e-21)
(1.08295 -0.0324435 1.8369e-21)
(1.09042 -0.032198 -2.01772e-22)
(1.10029 -0.0270757 -2.13766e-21)
(1.1027 -0.0227032 2.29733e-21)
(1.1088 -0.0147326 1.34336e-21)
(1.1045 -0.00654148 -2.12851e-21)
(0.993431 -0.00119239 -7.8883e-21)
(0.993465 -0.00174461 1.49729e-20)
(0.993723 -0.00194975 5.30609e-23)
(0.993922 -0.00262706 -8.61128e-21)
(0.994953 -0.00324254 5.10268e-22)
(0.995624 -0.00463361 2.56304e-22)
(0.996776 -0.0050652 2.56974e-22)
(0.997992 -0.00626619 4.09038e-21)
(0.999468 -0.00724741 -6.13188e-23)
(1.00127 -0.00925627 -4.05637e-21)
(1.00384 -0.010172 -3.64476e-21)
(1.00688 -0.0103629 3.5404e-22)
(1.00979 -0.0108532 5.86283e-21)
(1.01215 -0.0122282 -3.59393e-21)
(1.01536 -0.0129955 1.65377e-21)
(1.01856 -0.0126582 2.04062e-22)
(1.02309 -0.0111692 0)
(1.02649 -0.0101201 -6.96832e-22)
(1.03001 -0.00911706 1.04373e-21)
(1.03156 -0.00846723 -3.15605e-22)
(1.03348 -0.00711537 0)
(1.03341 -0.00533214 -5.56076e-22)
(1.03505 -0.00280948 5.05313e-22)
(1.03615 0.000694995 -9.93199e-22)
(1.03899 0.00262576 9.31531e-22)
(1.03955 0.00260101 9.21715e-22)
(1.04118 0.00165658 -2.02341e-21)
(1.0407 -0.00100277 -1.02694e-21)
(1.04272 -0.00625389 1.89961e-21)
(1.04172 -0.014057 2.62532e-22)
(1.04748 -0.0198349 0)
(1.05105 -0.0267925 2.73275e-22)
(1.06175 -0.0302453 0)
(1.06893 -0.0339535 2.02221e-21)
(1.08276 -0.0333445 -2.26642e-21)
(1.09067 -0.0319241 -3.23448e-21)
(1.104 -0.0256139 3.02545e-21)
(1.10866 -0.0195577 0)
(1.11871 -0.00867351 -1.4782e-21)
(1.11258 0.00155614 1.54851e-21)
(0.993342 -0.00162748 -8.66112e-21)
(0.993479 -0.00231937 5.14647e-22)
(0.993866 -0.00256611 -8.36631e-21)
(0.994091 -0.00336794 9.45891e-21)
(0.995055 -0.00409844 0)
(0.99581 -0.00566937 0)
(0.996818 -0.0061149 0)
(0.998224 -0.00772147 0)
(0.999821 -0.00833623 -4.17271e-21)
(1.00183 -0.0107879 4.18674e-21)
(1.00383 -0.0111947 0)
(1.00704 -0.0123503 -2.47855e-22)
(1.01046 -0.0124176 -2.1246e-21)
(1.01333 -0.0136401 1.88859e-21)
(1.01612 -0.0142885 0)
(1.0188 -0.0143633 1.51824e-21)
(1.02343 -0.0131074 -1.72324e-21)
(1.02746 -0.0114063 0)
(1.03144 -0.0100088 -2.1305e-23)
(1.03301 -0.00907141 0)
(1.03452 -0.00755961 0)
(1.03443 -0.00592869 1.72886e-23)
(1.03576 -0.00378966 3.26209e-23)
(1.0365 -0.000340759 6.25498e-23)
(1.03857 0.00223481 1.23106e-22)
(1.03895 0.0027938 1.10589e-21)
(1.03972 0.00243358 -9.12151e-22)
(1.03992 0.000219765 2.1907e-21)
(1.04187 -0.00416664 -2.07404e-21)
(1.04033 -0.0128236 -1.35151e-22)
(1.04357 -0.0195807 0)
(1.0453 -0.0290107 -1.4236e-22)
(1.05357 -0.0339608 0)
(1.06017 -0.0405057 0)
(1.07386 -0.0416377 2.59634e-22)
(1.08338 -0.0433553 3.90565e-21)
(1.09975 -0.0388088 -6.52594e-21)
(1.10583 -0.0341175 5.36031e-21)
(1.11805 -0.0258617 -6.26476e-22)
(1.11542 -0.0136637 -1.87712e-21)
(0.993141 -0.00200662 5.37316e-24)
(0.993228 -0.00280291 1.71432e-20)
(0.993663 -0.00309629 -1.72837e-20)
(0.993788 -0.00398034 -5.64923e-22)
(0.994868 -0.0047443 1.31791e-20)
(0.995594 -0.00654177 -4.41336e-21)
(0.996544 -0.00723926 0)
(0.997889 -0.00864806 -4.37575e-21)
(0.999898 -0.00980944 7.29713e-23)
(1.00175 -0.011813 4.3342e-21)
(1.00391 -0.0131753 -2.6277e-22)
(1.0071 -0.0139087 2.5586e-22)
(1.01084 -0.0141623 4.95342e-22)
(1.01348 -0.0152331 0)
(1.01672 -0.015677 0)
(1.01946 -0.016108 0)
(1.02379 -0.0146301 7.95531e-25)
(1.02782 -0.0135199 0)
(1.03197 -0.0115044 6.53267e-23)
(1.03379 -0.0100864 -1.0045e-23)
(1.03587 -0.00796298 9.33392e-24)
(1.03596 -0.00606162 -1.78291e-23)
(1.03679 -0.00405723 -3.36415e-23)
(1.03636 -0.000943533 -1.06942e-21)
(1.03794 0.00167092 9.40907e-22)
(1.03834 0.00236616 9.26348e-22)
(1.03904 0.00201913 -8.55755e-22)
(1.03885 0.000341604 -2.77483e-24)
(1.04065 -0.00324951 -2.04718e-21)
(1.03823 -0.010711 2.04352e-21)
(1.03996 -0.0181488 0)
(1.03935 -0.0278713 0)
(1.04692 -0.034469 2.14541e-21)
(1.05231 -0.0418667 -3.56402e-23)
(1.06642 -0.0448867 -4.68729e-21)
(1.07638 -0.0476216 -1.89493e-21)
(1.09572 -0.043664 5.37072e-23)
(1.10417 -0.0381363 3.78138e-21)
(1.12315 -0.0281602 2.22012e-21)
(1.1215 -0.0133908 -2.19044e-21)
(0.992924 -0.00258779 0)
(0.993153 -0.00365307 5.58193e-22)
(0.993624 -0.00401457 -5.63856e-22)
(0.993881 -0.00506999 0)
(0.995009 -0.00583357 0)
(0.995748 -0.00781549 0)
(0.9967 -0.00848498 -5.74394e-22)
(0.998181 -0.0104052 -5.72419e-22)
(1.00001 -0.011057 4.47466e-21)
(1.00235 -0.0135983 -4.76908e-21)
(1.00452 -0.0144934 2.71092e-22)
(1.00735 -0.0160872 3.88745e-21)
(1.01115 -0.0160249 -6.41875e-21)
(1.01421 -0.0170669 2.0053e-21)
(1.01789 -0.0171745 -1.16356e-22)
(1.02062 -0.0177813 1.59426e-21)
(1.02492 -0.0166375 -1.60279e-21)
(1.02853 -0.0152929 0)
(1.03294 -0.0127672 -4.47575e-23)
(1.03507 -0.0108925 1.037e-23)
(1.03769 -0.00860145 -9.63591e-24)
(1.03795 -0.00615114 0)
(1.03845 -0.00422265 0)
(1.03788 -0.00132718 0)
(1.03839 0.000992564 0)
(1.03812 0.00199237 9.98551e-22)
(1.03788 0.00201883 -2.12791e-21)
(1.03713 0.00108609 2.97468e-21)
(1.03819 -0.00134453 -2.24267e-21)
(1.03641 -0.00755283 -2.2002e-21)
(1.03775 -0.0142122 2.19643e-21)
(1.03553 -0.0260605 -2.56743e-21)
(1.04069 -0.0338528 2.87868e-21)
(1.0437 -0.0449204 3.34548e-22)
(1.05613 -0.0499623 0)
(1.06513 -0.0565145 -4.73778e-21)
(1.08466 -0.0568689 7.66344e-22)
(1.09508 -0.052823 4.45741e-21)
(1.11806 -0.0484847 2.54057e-21)
(1.12252 -0.0292691 -4.78047e-21)
(0.992459 -0.00309164 -9.76062e-21)
(0.992682 -0.00431483 8.70527e-21)
(0.993146 -0.00472273 -8.73813e-21)
(0.993459 -0.00582211 -9.44638e-21)
(0.994347 -0.00676746 9.50596e-21)
(0.995325 -0.00883249 5.97877e-22)
(0.996492 -0.00978659 5.9353e-22)
(0.997665 -0.0115186 -4.0259e-24)
(0.999877 -0.0128061 -4.64291e-21)
(1.00209 -0.0149613 4.94815e-21)
(1.00493 -0.0162267 0)
(1.00727 -0.0178751 0)
(1.01129 -0.0179052 0)
(1.01456 -0.0189267 -2.22174e-21)
(1.01852 -0.0188248 2.09357e-21)
(1.02151 -0.0196953 2.25797e-22)
(1.02533 -0.0182559 0)
(1.02896 -0.017124 0)
(1.03347 -0.0143751 0)
(1.03624 -0.0123518 0)
(1.03863 -0.00929734 9.45612e-24)
(1.03947 -0.00650771 0)
(1.04013 -0.00441193 0)
(1.03942 -0.00148787 -1.06201e-21)
(1.03895 0.00113799 -4.68718e-23)
(1.0379 0.00244585 9.83541e-22)
(1.03698 0.00270495 0)
(1.03542 0.0018148 1.99403e-21)
(1.03582 -0.000305241 1.34129e-22)
(1.03349 -0.00534955 -2.2533e-21)
(1.03523 -0.0118806 1.55799e-22)
(1.03186 -0.0225865 0)
(1.03573 -0.0323015 2.78387e-21)
(1.03647 -0.0437761 -6.50056e-22)
(1.04744 -0.0522103 -2.81062e-21)
(1.05502 -0.0595267 3.55943e-22)
(1.07446 -0.0648855 -3.3801e-22)
(1.08598 -0.0602533 3.96214e-21)
(1.11136 -0.0610879 -3.9824e-21)
(1.12316 -0.0386628 0)
(0.99208 -0.00395077 -9.58001e-21)
(0.99239 -0.00544499 9.06598e-21)
(0.993029 -0.00591447 5.44292e-23)
(0.993451 -0.00723633 -1.96691e-20)
(0.994531 -0.00813914 9.90378e-21)
(0.995443 -0.0105299 -6.17333e-22)
(0.996566 -0.0113597 0)
(0.998124 -0.0136247 -4.61344e-24)
(1.00023 -0.0143263 -4.21413e-21)
(1.00243 -0.0172504 5.14544e-21)
(1.00523 -0.0179602 0)
(1.00795 -0.0202921 0)
(1.0119 -0.0200708 2.40592e-21)
(1.01546 -0.0213375 -1.61658e-21)
(1.01984 -0.0208595 0)
(1.02266 -0.0214825 1.6741e-21)
(1.02683 -0.0202146 -1.79324e-21)
(1.0304 -0.0191326 0)
(1.03494 -0.0161754 0)
(1.03804 -0.0136512 -1.03533e-23)
(1.04029 -0.010286 -9.78323e-24)
(1.04191 -0.00703433 0)
(1.04276 -0.00447226 0)
(1.04207 -0.00131226 6.39278e-23)
(1.04126 0.00145648 6.23203e-23)
(1.03897 0.00311578 0)
(1.03736 0.00353842 1.00927e-21)
(1.03416 0.00288047 -1.00059e-21)
(1.03346 0.000953057 0)
(1.03063 -0.00323428 0)
(1.03179 -0.00845207 0)
(1.02816 -0.0181819 0)
(1.0316 -0.0274529 0)
(1.03039 -0.0408875 3.39495e-21)
(1.03944 -0.0523208 -3.0121e-21)
(1.04493 -0.0619533 -3.67752e-22)
(1.06255 -0.0736405 6.39454e-21)
(1.07478 -0.072198 -5.98996e-21)
(1.09937 -0.0799366 0)
(1.11585 -0.0603567 -2.74449e-22)
(0.991137 -0.00455868 6.19703e-22)
(0.991666 -0.00629889 1.07244e-20)
(0.992058 -0.00691279 -1.01493e-20)
(0.992701 -0.00830605 -9.64118e-21)
(0.993876 -0.0092302 1.55034e-20)
(0.994624 -0.0117566 -4.53803e-21)
(0.996069 -0.0126905 -4.50336e-21)
(0.997127 -0.0151322 1.09302e-20)
(1.00003 -0.0160679 -7.3871e-22)
(1.00192 -0.0187617 -5.35831e-21)
(1.00518 -0.0198762 0)
(1.0079 -0.0223018 0)
(1.01182 -0.0222575 -2.82686e-22)
(1.01556 -0.0235001 -2.36459e-21)
(1.0202 -0.0227366 2.09946e-21)
(1.02367 -0.0231992 1.8355e-21)
(1.028 -0.0221741 -1.83846e-21)
(1.03139 -0.0209249 0)
(1.03551 -0.0180753 0)
(1.03887 -0.0149578 1.07243e-23)
(1.04171 -0.0113542 9.43698e-24)
(1.04329 -0.00758216 0)
(1.0443 -0.00452502 0)
(1.04335 -0.00134655 -9.65925e-22)
(1.04273 0.00182479 9.64363e-22)
(1.04012 0.00426776 9.58348e-22)
(1.03814 0.00515558 -9.54154e-22)
(1.03353 0.00529505 2.5173e-22)
(1.03196 0.00299847 -2.25169e-21)
(1.02682 -0.000248152 2.24098e-21)
(1.02758 -0.0056583 0)
(1.0227 -0.013889 0)
(1.02607 -0.0250862 3.07556e-21)
(1.02385 -0.0356563 5.52816e-22)
(1.03117 -0.0514858 -6.92317e-21)
(1.036 -0.0607838 3.71161e-21)
(1.05041 -0.0778956 -7.28151e-21)
(1.06314 -0.0790177 1.28745e-20)
(1.08576 -0.0924333 -5.84043e-22)
(1.1067 -0.0772272 -5.1086e-21)
(0.99106 -0.00575428 0)
(0.991434 -0.00778885 9.90707e-21)
(0.99178 -0.00852009 -2.19686e-20)
(0.992225 -0.0101864 1.00708e-20)
(0.99357 -0.0110815 -6.8149e-22)
(0.994823 -0.0137015 -6.07996e-21)
(0.99629 -0.0147134 4.0785e-21)
(0.997583 -0.0176443 0)
(1.00014 -0.0182491 -4.57704e-21)
(1.00294 -0.0214667 4.61462e-21)
(1.00604 -0.0222168 0)
(1.00885 -0.025021 4.77759e-21)
(1.01276 -0.0250395 -4.79298e-21)
(1.01614 -0.0260996 0)
(1.02135 -0.0255604 -1.76532e-21)
(1.02562 -0.0256769 2.03131e-21)
(1.02993 -0.0245588 1.12095e-22)
(1.03376 -0.0228623 0)
(1.03751 -0.0201613 -4.62127e-23)
(1.04084 -0.0166984 0)
(1.04411 -0.0129197 -4.22444e-25)
(1.04587 -0.00866701 3.37424e-23)
(1.04738 -0.00485736 6.13437e-23)
(1.04623 -0.00131878 0)
(1.0457 0.00234658 0)
(1.04253 0.00544208 9.24061e-22)
(1.04017 0.00710197 -1.87881e-21)
(1.03478 0.00758997 -1.20882e-21)
(1.03197 0.005917 4.36305e-21)
(1.02506 0.00303339 -2.1994e-21)
(1.0242 -0.00215568 0)
(1.01776 -0.00933325 0)
(1.01957 -0.0202869 0)
(1.01627 -0.0301801 -4.09141e-22)
(1.0218 -0.04684 8.6116e-22)
(1.02516 -0.0576094 -4.40174e-22)
(1.03699 -0.0778488 -6.36267e-21)
(1.04955 -0.0834874 7.68642e-21)
(1.06974 -0.104929 -4.54171e-22)
(1.0946 -0.0951215 -6.17734e-21)
(0.989582 -0.00663853 -1.17195e-20)
(0.990258 -0.00883362 6.86684e-22)
(0.990704 -0.00967293 1.11927e-20)
(0.990946 -0.011604 -2.1856e-20)
(0.992275 -0.012575 1.77473e-20)
(0.993584 -0.0153574 -5.70355e-21)
(0.995473 -0.016341 1.41952e-21)
(0.9968 -0.0194886 5.58313e-21)
(0.999378 -0.0201727 -1.17865e-20)
(1.00217 -0.0235724 1.1525e-20)
(1.00583 -0.0242492 -5.36439e-21)
(1.00885 -0.0270521 -4.96548e-21)
(1.01282 -0.0271857 4.67811e-21)
(1.01639 -0.0284184 0)
(1.02136 -0.0282735 -2.71659e-22)
(1.0261 -0.027771 1.92747e-21)
(1.03075 -0.0265987 -2.04713e-21)
(1.03502 -0.0244659 7.97861e-22)
(1.03925 -0.0218212 -7.04055e-22)
(1.0423 -0.0182594 1.03497e-23)
(1.04544 -0.0141439 -2.97741e-22)
(1.04729 -0.00954908 7.70852e-22)
(1.04926 -0.00488303 -5.22383e-22)
(1.04795 -0.000862041 -8.8976e-22)
(1.04735 0.00294417 8.88133e-22)
(1.04374 0.00698106 8.76352e-22)
(1.04131 0.00876412 -7.68293e-22)
(1.03536 0.0110767 -1.10857e-22)
(1.03212 0.00919104 -1.31425e-22)
(1.02422 0.00797581 -2.36273e-21)
(1.02202 0.00244382 2.65654e-21)
(1.01354 -0.00270164 0)
(1.01241 -0.0148843 -3.76668e-22)
(1.0081 -0.0241136 3.49878e-21)
(1.01045 -0.0416669 -7.21557e-21)
(1.01248 -0.0530064 3.71113e-21)
(1.02024 -0.0764634 -8.49487e-21)
(1.03377 -0.0843592 -5.48035e-23)
(1.04713 -0.111379 1.63514e-20)
(1.0779 -0.111864 -7.31403e-21)
(0.989491 -0.00833606 1.44147e-21)
(0.990254 -0.0107142 1.16648e-20)
(0.990804 -0.0116551 -1.02558e-20)
(0.990922 -0.0137763 -1.48658e-21)
(0.99232 -0.0148872 0)
(0.993199 -0.017923 0)
(0.995564 -0.0188924 -7.41458e-22)
(0.997144 -0.0223534 0)
(0.999875 -0.0230858 5.74542e-21)
(1.00265 -0.0266682 -1.06468e-20)
(1.00658 -0.0275659 5.61307e-21)
(1.00996 -0.0299847 3.31661e-22)
(1.01464 -0.0306077 2.46378e-25)
(1.01843 -0.0314112 2.98224e-22)
(1.02303 -0.0317268 0)
(1.02782 -0.0308011 0)
(1.03276 -0.0297856 -1.16516e-22)
(1.03711 -0.0272707 1.04819e-22)
(1.04244 -0.0243574 -4.83243e-23)
(1.04577 -0.0204432 -1.07652e-23)
(1.04907 -0.0159377 0)
(1.05018 -0.0109628 0)
(1.05272 -0.00612502 -1.16943e-22)
(1.05145 -0.000910515 -7.80473e-22)
(1.05128 0.00308577 8.76019e-22)
(1.04723 0.00814635 0)
(1.04459 0.0107161 -1.08737e-22)
(1.03793 0.01381 1.1531e-22)
(1.03393 0.013145 2.01375e-21)
(1.0249 0.0127721 -1.88074e-21)
(1.02136 0.00754673 -3.11704e-22)
(1.01165 0.00405237 0)
(1.00856 -0.00741224 3.91379e-22)
(1.00132 -0.0157861 4.1532e-22)
(1.00011 -0.0336446 -4.65855e-22)
(1.00041 -0.0448747 -8.23357e-21)
(1.00147 -0.0697758 -4.50506e-22)
(1.01532 -0.0807294 8.03754e-21)
(1.02093 -0.111191 5.74674e-22)
(1.05698 -0.123028 -5.32846e-22)
(0.98813 -0.00945495 -1.30261e-20)
(0.988436 -0.0121887 1.2311e-20)
(0.98921 -0.0132344 -2.55833e-20)
(0.989251 -0.0155742 2.66304e-20)
(0.990813 -0.0167417 -1.26273e-20)
(0.991833 -0.0199665 -6.28095e-21)
(0.994014 -0.0210535 6.32123e-21)
(0.996001 -0.0246968 6.15718e-21)
(0.998934 -0.0254846 -1.14555e-20)
(1.00188 -0.0292237 1.19273e-20)
(1.00592 -0.030145 -5.88448e-21)
(1.00951 -0.0325507 -3.45217e-22)
(1.0145 -0.0336512 -1.89282e-21)
(1.01891 -0.0337228 -1.41212e-22)
(1.02402 -0.0342328 2.68205e-21)
(1.02873 -0.033143 2.14891e-21)
(1.03414 -0.0320995 -1.90004e-21)
(1.0382 -0.0296206 -3.66353e-24)
(1.04367 -0.026377 4.6382e-23)
(1.04742 -0.0219082 0)
(1.05165 -0.0172465 -8.65882e-24)
(1.05267 -0.0113763 0)
(1.05536 -0.00639605 5.79908e-23)
(1.05398 -0.000342176 -7.06497e-24)
(1.05383 0.00402093 6.2879e-22)
(1.04948 0.00985964 -7.17385e-22)
(1.04671 0.0130395 7.60926e-22)
(1.03959 0.0176704 9.89513e-22)
(1.03505 0.0173661 -1.75066e-21)
(1.02549 0.0190233 -1.30188e-22)
(1.02049 0.013711 0)
(1.00975 0.0117085 -2.80056e-21)
(1.0045 0.00117412 2.7859e-21)
(0.996812 -0.00537958 -4.31514e-22)
(0.990412 -0.0229927 0)
(0.990695 -0.0346719 0)
(0.983636 -0.0591488 0)
(0.996525 -0.0741291 0)
(0.993579 -0.103729 -1.12024e-20)
(1.02659 -0.1276 1.95215e-20)
(0.988223 -0.0117348 1.28728e-20)
(0.988329 -0.0146185 -8.02705e-22)
(0.989482 -0.0158421 -2.62603e-20)
(0.989224 -0.0182408 -8.42098e-22)
(0.991008 -0.0195118 1.33667e-20)
(0.99201 -0.0230413 0)
(0.994233 -0.024263 0)
(0.996386 -0.0280767 0)
(0.999428 -0.0292652 5.54771e-21)
(1.0026 -0.0326596 -7.1636e-21)
(1.00692 -0.0342935 3.79584e-22)
(1.01092 -0.0361578 -5.62124e-21)
(1.01588 -0.0379127 5.30011e-21)
(1.0206 -0.0377508 -3.20008e-22)
(1.02636 -0.0382993 -3.62208e-24)
(1.03125 -0.0370053 -2.69453e-24)
(1.03759 -0.0355544 0)
(1.04174 -0.0328699 -2.1586e-22)
(1.04726 -0.0297353 -4.84052e-23)
(1.0508 -0.0248813 -9.7533e-24)
(1.05564 -0.0201591 2.73295e-22)
(1.05685 -0.0136012 -2.83389e-22)
(1.06023 -0.00792231 4.57605e-23)
(1.05893 -0.000876493 -4.71502e-23)
(1.05897 0.00405801 7.75904e-23)
(1.05436 0.010847 5.44906e-22)
(1.05137 0.0143873 -6.07962e-22)
(1.04413 0.0206061 -1.44877e-21)
(1.03916 0.0212304 -2.01533e-23)
(1.02935 0.024726 1.62336e-21)
(1.02306 0.0205389 0)
(1.01157 0.0200944 2.80294e-22)
(1.0023 0.0102062 0)
(0.994836 0.00493835 3.08348e-21)
(0.983022 -0.00989641 -7.33557e-21)
(0.982869 -0.0222954 1.24541e-20)
(0.970302 -0.0435724 -1.84483e-20)
(0.979819 -0.0609675 9.89974e-21)
(0.970561 -0.0905299 -9.99063e-21)
(0.998281 -0.116218 1.04947e-20)
(0.986487 -0.01316 -8.66543e-22)
(0.986678 -0.0163506 1.55662e-20)
(0.987795 -0.0176883 -1.39275e-20)
(0.987629 -0.0203988 8.91274e-22)
(0.98918 -0.0218425 0)
(0.990262 -0.0256142 -8.93994e-22)
(0.992635 -0.0269521 0)
(0.994881 -0.0310171 7.74051e-21)
(0.998095 -0.0324445 -1.06217e-21)
(1.00148 -0.0355817 -5.90451e-21)
(1.00599 -0.0378968 -3.96406e-22)
(1.01052 -0.0391938 -3.79289e-22)
(1.01593 -0.0412562 0)
(1.02065 -0.0410699 -2.22096e-21)
(1.02701 -0.041381 2.25447e-21)
(1.032 -0.0401136 1.95763e-21)
(1.0389 -0.0385161 -2.22386e-21)
(1.04369 -0.035225 1.10564e-22)
(1.04993 -0.0319463 -2.9793e-22)
(1.05334 -0.0264789 3.53196e-22)
(1.05883 -0.0215292 -8.58292e-24)
(1.05981 -0.0143732 5.31509e-23)
(1.06319 -0.00889975 -4.78492e-23)
(1.06225 -0.000449642 3.07038e-23)
(1.06262 0.00502176 -3.59522e-23)
(1.05823 0.0132443 5.83721e-22)
(1.05521 0.0173439 -5.1433e-22)
(1.04757 0.0243689 -1.15728e-21)
(1.04217 0.0259687 1.10455e-21)
(1.03234 0.0313118 7.78559e-23)
(1.02383 0.0280781 0)
(1.01421 0.0298194 -2.66338e-21)
(1.00054 0.0221713 2.06335e-21)
(0.993557 0.0163829 3.33513e-21)
(0.977344 0.00544997 -2.85163e-21)
(0.975891 -0.00804356 0)
(0.958628 -0.0251241 -8.8034e-21)
(0.964723 -0.0439466 8.68524e-21)
(0.949557 -0.070808 0)
(0.970487 -0.100365 7.03225e-22)
(0.986361 -0.016233 7.34466e-22)
(0.986599 -0.0196807 -1.56676e-20)
(0.987964 -0.0211008 1.49131e-20)
(0.987909 -0.0240085 -3.09886e-20)
(0.989593 -0.0255067 2.3616e-20)
(0.990842 -0.0294229 -6.64438e-21)
(0.99331 -0.0311355 0)
(0.995629 -0.0349901 -9.15322e-22)
(0.999098 -0.0371893 -6.18732e-21)
(1.00267 -0.0398349 6.25529e-21)
(1.00739 -0.0429647 4.19692e-22)
(1.0119 -0.0439114 -6.14503e-21)
(1.01808 -0.0461808 8.66476e-21)
(1.02286 -0.0461333 -2.87616e-21)
(1.02992 -0.0462537 0)
(1.03509 -0.0447814 0)
(1.04236 -0.0432874 1.27242e-22)
(1.04738 -0.0395193 -6.87799e-22)
(1.05455 -0.0363457 1.0325e-21)
(1.0579 -0.0301203 -3.30191e-22)
(1.06428 -0.0252765 2.18667e-22)
(1.06588 -0.0167362 -2.16796e-22)
(1.06947 -0.011188 -2.96537e-23)
(1.0684 -0.00209763 -4.13555e-22)
(1.06922 0.00400448 3.80576e-22)
(1.06491 0.0134125 2.64869e-22)
(1.06207 0.0183274 7.31493e-23)
(1.055 0.0273061 3.79005e-22)
(1.04824 0.0290033 -8.44355e-22)
(1.0402 0.0369203 -1.32205e-22)
(1.02847 0.0353671 1.40019e-22)
(1.02019 0.0371787 -1.87574e-22)
(1.00412 0.0343442 3.07497e-22)
(0.996477 0.0286003 3.34737e-21)
(0.977585 0.0216663 -6.89375e-21)
(0.973033 0.00868433 3.47639e-21)
(0.952499 -0.00547729 0)
(0.953104 -0.0236226 0)
(0.93311 -0.0462134 0)
(0.94747 -0.0781797 1.16259e-20)
(0.983528 -0.0181238 0)
(0.983782 -0.0220471 1.58055e-20)