/*--------------------------------*- C++ -*----------------------------------*\
  =========                 |
  \\      /  F ield         | OpenFOAM: The Open Source CFD Toolbox
   \\    /   O peration     | Website:  https://openfoam.org
    \\  /    A nd           | Version:  10
     \\/     M anipulation  |
\*---------------------------------------------------------------------------*/
FoamFile
{
    format      ascii;
    class       volScalarField;
    location    "0.998694";
    object      T;
}
// * * * * * * * * * * * * * * * * * * * * * * * * * * * * * * * * * * * * * //

dimensions      [0 0 0 1 0 0 0];

internalField   nonuniform List<scalar> 
16320
(
0.00284886
0.00286009
0.0028721
0.00288835
0.00290717
0.00292777
0.0029465
0.00296471
0.00297999
0.0029948
0.00300334
0.00301604
0.00302731
0.00304124
0.00305838
0.00308404
0.00311938
0.00316763
0.00322103
0.00327863
0.00332568
0.00336305
0.00341194
0.00347307
0.00356937
0.00360115
0.00359642
0.00356074
0.0034857
0.00344863
0.00344775
0.00346623
0.00348035
0.00293162
0.0029601
0.00299387
0.00302623
0.00305389
0.00308244
0.00310221
0.00311563
0.00312705
0.00312793
0.00312801
0.0031284
0.0031284
0.00312867
0.00313209
0.00314237
0.00316466
0.00319538
0.00323819
0.00328846
0.00332733
0.00335142
0.00338657
0.00344777
0.00354655
0.00356177
0.00355086
0.00349727
0.00342257
0.00340216
0.00341153
0.00345518
0.00347642
0.00309806
0.00315132
0.0032003
0.00323487
0.00325665
0.00327002
0.00327554
0.00327377
0.00327313
0.00326394
0.00325794
0.00324914
0.00323904
0.00322838
0.00322234
0.00322301
0.00323098
0.00325669
0.00327305
0.00331886
0.00333947
0.003347
0.00336681
0.0034262
0.00351595
0.00352443
0.00350461
0.0034305
0.00337232
0.00336972
0.00339906
0.00346234
0.00347967
0.00331207
0.00333448
0.00334578
0.00334938
0.00334791
0.00334517
0.00334223
0.00333643
0.00332587
0.00331906
0.00330921
0.00329771
0.00328766
0.00327868
0.00327381
0.00327567
0.00328637
0.00330303
0.00332232
0.00334194
0.00334646
0.00334581
0.00335629
0.00341762
0.00349012
0.00349013
0.00345467
0.00336779
0.00333774
0.00335031
0.00341291
0.00347569
0.00348879
0.0033873
0.00338494
0.00338178
0.00337796
0.00337114
0.00336728
0.00336367
0.00335537
0.00334583
0.00333994
0.0033283
0.0033154
0.00330592
0.00329661
0.00329171
0.00329353
0.00330486
0.00332237
0.00333905
0.00334303
0.00334869
0.00333873
0.00334824
0.00342041
0.00346813
0.00345823
0.00339559
0.00332164
0.00331612
0.00335545
0.00344255
0.00348928
0.00349702
0.00340059
0.00339297
0.00338852
0.00338509
0.00338012
0.00337839
0.00337602
0.00336825
0.00336304
0.00335665
0.0033448
0.00333024
0.00331955
0.00330957
0.0033024
0.00330388
0.00331362
0.00333127
0.00334135
0.00334387
0.00333447
0.0033293
0.00334685
0.00343192
0.00344193
0.00341573
0.00332958
0.00328538
0.00330201
0.00338443
0.00346076
0.00349677
0.0035043
0.00339934
0.00339409
0.00339428
0.00339584
0.00340087
0.00340792
0.003412
0.00341242
0.00341026
0.00340803
0.00339422
0.00337535
0.00335923
0.00334217
0.00332693
0.00332103
0.00332692
0.00333871
0.00333967
0.00333378
0.00332195
0.00331845
0.00335508
0.00342989
0.00342259
0.0033623
0.00328036
0.00326615
0.00330859
0.00340488
0.00347072
0.00350583
0.00351832
0.00340051
0.00340849
0.00342196
0.00344824
0.00347415
0.00349686
0.00350635
0.00351515
0.00351775
0.00351875
0.00350752
0.00348457
0.00345562
0.0034214
0.00338631
0.00335868
0.00335596
0.00335024
0.00333644
0.00332241
0.00330869
0.00331263
0.00337853
0.00341987
0.00339252
0.00330259
0.00324482
0.00325543
0.00333011
0.00342116
0.00348665
0.0035285
0.00355623
0.00342464
0.00347212
0.00351547
0.00353563
0.00354414
0.00354606
0.00355
0.00355881
0.0035711
0.00358377
0.00360316
0.00360486
0.0036048
0.00356146
0.00349118
0.00343165
0.00340147
0.00336643
0.00332883
0.00330749
0.00329468
0.00331381
0.00339685
0.00339826
0.00334113
0.00325049
0.00322197
0.00326153
0.00335581
0.0034454
0.00352503
0.00360043
0.00367022
0.00352262
0.00354805
0.0035575
0.00355591
0.0035529
0.00354399
0.00354569
0.00355436
0.00356762
0.0035963
0.00362968
0.00366457
0.00368005
0.00367852
0.00363622
0.00353013
0.00344751
0.00337018
0.00331346
0.00328769
0.00328205
0.00332959
0.00339837
0.00337449
0.00327595
0.00321121
0.00320935
0.00328335
0.00338904
0.00350259
0.00361461
0.00370976
0.00378698
0.00356381
0.0035641
0.00356115
0.00353971
0.00349568
0.00344543
0.00344328
0.00345363
0.00348493
0.00354782
0.00362589
0.00369086
0.00372984
0.00374115
0.00372288
0.00363238
0.00348945
0.00336269
0.00329216
0.00326794
0.00327777
0.00335895
0.00338671
0.00332363
0.00321712
0.00317933
0.00321387
0.00332276
0.00344213
0.00356269
0.00367366
0.00376426
0.00383315
0.00357304
0.00356719
0.00351931
0.00343092
0.00326496
0.00318508
0.0031837
0.00319857
0.00327144
0.00340788
0.00357438
0.00369601
0.00376246
0.00378476
0.00377177
0.00366964
0.00347486
0.00332881
0.00326348
0.00325075
0.00329217
0.0033764
0.00336403
0.00324406
0.00316835
0.00315705
0.00322942
0.00335391
0.00347492
0.00358704
0.00368603
0.00376705
0.00382713
0.00357506
0.00351176
0.00335066
0.003095
0.00300207
0.00299195
0.00300941
0.00306399
0.00316447
0.00334833
0.00355687
0.00371552
0.00379892
0.00381835
0.00378368
0.00362788
0.00341471
0.00327239
0.0032331
0.00324716
0.00333734
0.00337449
0.00330901
0.00317134
0.00313236
0.00314544
0.00324554
0.00336841
0.00347771
0.00357688
0.00365595
0.0037081
0.00372956
0.00353931
0.00335339
0.00303754
0.00293343
0.00292298
0.0029426
0.00299226
0.00306967
0.00322552
0.00344104
0.00364144
0.00377586
0.00383074
0.00382642
0.0037476
0.00351919
0.0033049
0.003217
0.00321384
0.00327678
0.00336673
0.00335345
0.00321347
0.00312383
0.00310669
0.00313586
0.00324541
0.00335479
0.0034324
0.00347399
0.00348537
0.0034735
0.00344662
0.00344245
0.00308692
0.00291846
0.00288851
0.00290413
0.00296522
0.00310796
0.00330538
0.00348663
0.00365216
0.00377714
0.00383582
0.00384149
0.0037969
0.00360462
0.00333921
0.00320235
0.00318282
0.00323031
0.00334325
0.00336346
0.00328381
0.00313528
0.00309343
0.00308815
0.00312605
0.00321581
0.00327049
0.00328787
0.00328935
0.00328526
0.00327089
0.00325124
0.00325614
0.00297487
0.00287691
0.00287704
0.00292358
0.00312225
0.00345465
0.00364419
0.0037519
0.00381668
0.00384389
0.00384372
0.00380167
0.00362645
0.00334013
0.00318097
0.00315165
0.00319174
0.00330717
0.00336911
0.00333033
0.00316405
0.00309026
0.00307515
0.00308152
0.00311628
0.00316245
0.00318586
0.00319393
0.00319444
0.00319307
0.00319581
0.00320806
0.00316088
0.00292527
0.00286664
0.002875
0.00298149
0.00329499
0.00358941
0.00375585
0.00382139
0.00383715
0.00382624
0.00375812
0.00355779
0.00328234
0.00314706
0.00312204
0.00316101
0.00327555
0.00336827
0.00335527
0.00322218
0.00310289
0.00307499
0.00307275
0.00308555
0.00311835
0.00314569
0.00316087
0.00317066
0.00318167
0.00319951
0.00324394
0.00331477
0.00311963
0.00290982
0.00286544
0.00287973
0.0030021
0.00333295
0.00360049
0.00371985
0.00375356
0.00372196
0.00360519
0.00338266
0.00318665
0.0031063
0.00309425
0.0031364
0.00325227
0.00336478
0.00337773
0.00329338
0.00313752
0.00308968
0.00307854
0.00308384
0.00310246
0.00313216
0.00315672
0.00317844
0.00321311
0.0032852
0.00339804
0.00350484
0.00355575
0.00311218
0.00290855
0.00287611
0.00288448
0.00293268
0.00308022
0.00326534
0.00335949
0.00338043
0.00328822
0.00316779
0.00309204
0.00306275
0.00307276
0.00311997
0.00324477
0.00337096
0.00339659
0.00334861
0.00319608
0.00312991
0.00310878
0.00311509
0.00313061
0.00315358
0.00319339
0.00325184
0.0033552
0.00349672
0.00358907
0.00361613
0.00361692
0.00359532
0.00320842
0.00295327
0.00289339
0.00288797
0.0029083
0.00295503
0.00301456
0.00304705
0.00305573
0.00303383
0.00302828
0.00303011
0.00306132
0.00311792
0.00326244
0.00337757
0.00340434
0.00338342
0.00328429
0.0031954
0.00316909
0.00317032
0.00319304
0.00323676
0.00331021
0.0034442
0.00358185
0.00364651
0.00366142
0.00364516
0.00361921
0.00361338
0.00364693
0.00335103
0.00303077
0.0029304
0.0029061
0.00290447
0.002922
0.00294392
0.00296225
0.0029772
0.00299424
0.00302119
0.00305694
0.00314019
0.00330145
0.00338784
0.00341077
0.003406
0.00334177
0.00325881
0.00323312
0.00323502
0.00327593
0.00336272
0.00351759
0.00363363
0.00367295
0.0036805
0.00365682
0.00363928
0.00365142
0.00375511
0.00396031
0.00417348
0.00353889
0.00319362
0.00302415
0.00296155
0.00294135
0.00293673
0.00294739
0.00296845
0.00299279
0.00303109
0.00309753
0.00320972
0.0033471
0.00340406
0.00342118
0.00341972
0.00337626
0.00331681
0.00329873
0.00331109
0.00339019
0.00354117
0.00364699
0.00368001
0.00368551
0.00366764
0.00365826
0.00369773
0.00386624
0.0041229
0.00433787
0.00442306
0.00443448
0.00365206
0.00349356
0.00321165
0.0030983
0.00304969
0.00303196
0.00302989
0.0030651
0.0031217
0.0032091
0.00331889
0.00339065
0.00342103
0.0034309
0.00342986
0.00340125
0.00337177
0.00336532
0.00340944
0.00354082
0.00364671
0.00368034
0.00368722
0.00367976
0.00367782
0.00372868
0.00391685
0.00422964
0.00437469
0.00439396
0.00435083
0.00424315
0.00409468
0.00369728
0.00364434
0.00351086
0.00334694
0.0032857
0.00326389
0.00326158
0.00330303
0.0033508
0.00338362
0.0034232
0.00343689
0.00344144
0.00344119
0.0034299
0.00342365
0.00343725
0.0035302
0.00363913
0.00367658
0.00368819
0.00369092
0.00369855
0.00375431
0.00394815
0.00425883
0.00435647
0.00434726
0.00422885
0.00401621
0.0037665
0.00354801
0.00339217
0.00370819
0.00369917
0.00365264
0.00356286
0.00347373
0.00343603
0.00342101
0.00341648
0.00342985
0.00344235
0.00345451
0.00345956
0.00346457
0.00346912
0.00348181
0.00353477
0.00363095
0.00367279
0.00369105
0.00370052
0.00371807
0.0037818
0.0039711
0.00424694
0.00432107
0.00428825
0.00410834
0.00382585
0.00355418
0.00335101
0.00319492
0.00310208
0.00305055
0.00370404
0.00371173
0.00370272
0.00367548
0.00362253
0.00356767
0.00353288
0.00351442
0.0035074
0.00350528
0.00350862
0.00351961
0.00353879
0.00357629
0.00362861
0.00367124
0.00368991
0.00370299
0.0037233
0.00378112
0.00392966
0.00415653
0.00422363
0.00419987
0.00403847
0.00376624
0.00349557
0.00329088
0.00314002
0.00302106
0.00296991
0.00296192
0.00296845
0.00367461
0.0037023
0.00371029
0.00370762
0.00369162
0.00367238
0.00364755
0.00362856
0.00362047
0.00361798
0.00361992
0.00363319
0.00365053
0.00367121
0.00368956
0.00370244
0.00372124
0.00376704
0.00387336
0.00405575
0.00412571
0.00412321
0.00402286
0.00379642
0.0035314
0.00332653
0.0031431
0.00297271
0.00292107
0.00291871
0.00294991
0.0030282
0.00315344
0.00366326
0.00367708
0.00369098
0.00370365
0.00370628
0.00370205
0.00369178
0.00368574
0.00367999
0.00367837
0.00367818
0.00368194
0.00368868
0.00369926
0.00371747
0.00375251
0.00382807
0.00397071
0.00405614
0.0040674
0.00402764
0.003878
0.00364104
0.00341474
0.00320449
0.00297561
0.00288888
0.00288054
0.00291521
0.00302904
0.00322175
0.00342171
0.00353685
0.00367541
0.00367286
0.00367923
0.00369033
0.00369479
0.00369766
0.00369808
0.00369601
0.00369374
0.00369306
0.00369363
0.00369951
0.00371369
0.00374138
0.00379666
0.00390018
0.00399394
0.00401558
0.00401048
0.00393825
0.00376554
0.00354681
0.00333068
0.0030567
0.00289036
0.00285637
0.00286417
0.00293931
0.00310721
0.00331794
0.00348892
0.00356856
0.00359046
0.00372176
0.00370124
0.00369162
0.00368889
0.00369091
0.00369557
0.00369706
0.00369964
0.00370117
0.00370611
0.00371787
0.00373986
0.00378191
0.00385299
0.00393279
0.00396512
0.00397046
0.00395038
0.00385406
0.00368327
0.00349071
0.0032471
0.00296893
0.00286131
0.0028418
0.00285508
0.00292819
0.00306897
0.00323408
0.00340632
0.00350926
0.00353162
0.00351662
0.00374513
0.00375
0.00374394
0.00372236
0.00371519
0.00371312
0.00371386
0.00372102
0.00373288
0.0037526
0.00378574
0.00382859
0.00387602
0.00391199
0.00392378
0.00392334
0.00388797
0.00378365
0.00363916
0.00346483
0.00319706
0.0029512
0.00286431
0.00284734
0.00285569
0.00290373
0.00299683
0.00311018
0.0032513
0.00339546
0.00344953
0.00345339
0.00341959
0.00375091
0.00376591
0.0037743
0.00377589
0.00377259
0.00377052
0.00377072
0.00377785
0.00379304
0.00381238
0.00383407
0.00385861
0.00387543
0.00387984
0.00387066
0.00382186
0.00373418
0.0036297
0.00346253
0.0032194
0.00299861
0.00291454
0.00289772
0.00290176
0.00292498
0.00296476
0.00301474
0.00308792
0.00319741
0.00333168
0.00339256
0.00340085
0.00337558
0.00374292
0.00376599
0.00378157
0.00378869
0.00379215
0.00379374
0.00379618
0.00380082
0.00380832
0.00381677
0.00382933
0.00383518
0.0038338
0.00381516
0.00377747
0.00373264
0.00364947
0.00351525
0.00332844
0.0031316
0.00304368
0.00301686
0.0030113
0.00300158
0.00298939
0.00298741
0.00299281
0.00302639
0.00310116
0.00322333
0.00333552
0.00336522
0.00335766
0.00372554
0.00376124
0.00377788
0.00378747
0.00379089
0.00379198
0.00379244
0.00379354
0.00379576
0.00379636
0.00379505
0.00378886
0.003783
0.00377427
0.00374687
0.0036939
0.00360542
0.00347546
0.00332411
0.00321056
0.00315563
0.00313246
0.00308263
0.0030187
0.00297561
0.0029603
0.00295949
0.00297993
0.00304462
0.00314712
0.00328142
0.00334918
0.00335756
0.0036942
0.00374865
0.00376767
0.00377526
0.00377749
0.00377682
0.00377012
0.00376088
0.00375785
0.00375729
0.00376003
0.00376622
0.00376673
0.00375914
0.00373259
0.0036733
0.00357832
0.00344766
0.00330648
0.00319615
0.00312423
0.0030516
0.00293918
0.00283965
0.00279959
0.00278932
0.00279695
0.0028511
0.00294205
0.00304233
0.00318435
0.00332488
0.00337056
0.00365908
0.00372842
0.00374494
0.00374799
0.00374609
0.00373224
0.00372214
0.00372109
0.00372453
0.00373727
0.00375606
0.0037654
0.00376686
0.0037584
0.0037268
0.00365262
0.00352917
0.00337103
0.00320028
0.00302593
0.00283646
0.00267839
0.00260725
0.00258326
0.00257512
0.00257384
0.00258523
0.00262806
0.00271582
0.00285844
0.00303159
0.00322703
0.00336274
0.00362524
0.00370114
0.00371516
0.00371508
0.00370164
0.00369149
0.0036909
0.00369775
0.00371658
0.00374105
0.00376378
0.00377938
0.00378169
0.00376633
0.00370567
0.00358128
0.00338803
0.00313217
0.00282578
0.00261596
0.00257181
0.00254934
0.0025526
0.0025503
0.00254928
0.00254318
0.00254041
0.0025426
0.002563
0.00262039
0.00276483
0.00302189
0.00328186
0.00359007
0.00367482
0.0036899
0.00368784
0.0036733
0.00366938
0.00367436
0.00369442
0.00372562
0.00376122
0.00379769
0.00380825
0.00379734
0.00373973
0.00361299
0.00337986
0.00302586
0.00274706
0.00267136
0.00264834
0.00266159
0.00270719
0.00275298
0.00276327
0.00274458
0.00267711
0.00258922
0.00254836
0.00253817
0.00254487
0.00259493
0.00272044
0.00297868
0.00356786
0.00365328
0.00366879
0.00366661
0.00365738
0.0036571
0.00367183
0.00370612
0.00375662
0.00381092
0.00382648
0.00381907
0.00376642
0.0036347
0.00337405
0.00298152
0.00278267
0.002731
0.00272626
0.00277568
0.00290126
0.00297574
0.0029879
0.00297591
0.0029365
0.00288456
0.00281177
0.00269599
0.00258938
0.00255244
0.00254822
0.00258271
0.00269952
0.0035663
0.00363606
0.0036493
0.00364935
0.00364695
0.00365402
0.00368313
0.00374168
0.00381576
0.00383851
0.00383595
0.00379062
0.00366256
0.00339136
0.00300023
0.00281803
0.00277521
0.00277611
0.0028482
0.00299172
0.00305667
0.00306531
0.00305551
0.00302427
0.00299504
0.00297105
0.00294467
0.0028975
0.00280067
0.00264499
0.0025674
0.00255386
0.00257608
0.00356672
0.00362266
0.00363489
0.00363816
0.00364283
0.00366266
0.00371497
0.00380674
0.00384556
0.00384862
0.00381454
0.00370174
0.0034464
0.00305452
0.00285403
0.00280551
0.00280521
0.00287629
0.00302847
0.00309776
0.00310779
0.00309874
0.00307078
0.00306601
0.00307468
0.0030789
0.00307174
0.00303722
0.00297003
0.00286275
0.00270211
0.00258615
0.00255934
0.00356996
0.00361356
0.00362703
0.0036335
0.00364778
0.00368677
0.0037754
0.00384336
0.00385508
0.00383611
0.0037484
0.00352593
0.00315368
0.00289875
0.00282824
0.00282242
0.00287579
0.0030264
0.0031169
0.00313428
0.00313333
0.00312245
0.00312938
0.00317168
0.00325282
0.00329317
0.00329614
0.00326864
0.00320218
0.00309554
0.00294452
0.00275775
0.00261691
0.00357453
0.00361235
0.00362612
0.00363645
0.00366278
0.00373058
0.00382334
0.00385275
0.00384985
0.00379416
0.00362023
0.00329112
0.00296624
0.00285218
0.00283442
0.00286305
0.00298749
0.00311308
0.0031489
0.00315339
0.00315168
0.00315929
0.00320231
0.00328443
0.00336757
0.00340808
0.00341699
0.00341894
0.00340061
0.00335023
0.00324886
0.00308506
0.00286453
0.00358216
0.00361512
0.00362946
0.00364491
0.00368787
0.003775
0.00383993
0.00385074
0.0038278
0.00371173
0.00345506
0.00308112
0.0028907
0.00284763
0.00285151
0.00292971
0.00308204
0.00314858
0.00316341
0.00316628
0.00317114
0.0032027
0.0032714
0.0033498
0.0034006
0.00342862
0.00346257
0.00347741
0.00347742
0.00346123
0.00342034
0.00334543
0.00322017
0.00359308
0.00362149
0.00363417
0.00365839
0.00371403
0.00380223
0.00383918
0.00384049
0.00378089
0.00359983
0.00327551
0.00297085
0.00286859
0.00285379
0.00288533
0.00300895
0.00313137
0.00316469
0.00317341
0.00317723
0.00319411
0.00324239
0.00331021
0.00336716
0.00340005
0.00343175
0.00348075
0.00350576
0.00350866
0.00350828
0.00349616
0.00347029
0.00342286
0.00360153
0.0036244
0.00363883
0.00366896
0.00373533
0.00381081
0.00383176
0.00381631
0.00371584
0.00348725
0.00314048
0.00292453
0.00287104
0.00286896
0.00293163
0.00308099
0.00315496
0.0031719
0.00317481
0.00318103
0.0032065
0.00325859
0.0033148
0.00335121
0.00337921
0.0034319
0.00348506
0.00351109
0.00351896
0.00352274
0.00352282
0.00351898
0.00351005
0.00360618
0.00362504
0.0036415
0.00367453
0.00374586
0.0038047
0.00381511
0.00378118
0.0036526
0.00339799
0.00306956
0.00291608
0.00288406
0.00289868
0.0029961
0.00312563
0.00316481
0.00317087
0.00317173
0.00317762
0.00320421
0.00324496
0.00327642
0.00329815
0.00333928
0.00340043
0.00344829
0.00348083
0.00350544
0.00352022
0.00352748
0.00353126
0.00353498
0.0036073
0.00362393
0.00364165
0.003676
0.00374632
0.00379102
0.00379484
0.00375087
0.0036089
0.00334579
0.00305018
0.00293037
0.00291144
0.00294335
0.00306333
0.00315014
0.00316702
0.00316691
0.00316265
0.0031688
0.00319324
0.00322196
0.00324262
0.00326678
0.00330788
0.00335287
0.00338999
0.00342874
0.00346732
0.0034941
0.00350797
0.00351456
0.00352164
0.00360145
0.00361633
0.00363643
0.00367397
0.00374051
0.00377376
0.00377576
0.00372987
0.00358798
0.00333212
0.00306152
0.00296899
0.00296007
0.00300839
0.00311886
0.00316502
0.00317017
0.00316146
0.00315784
0.00316928
0.00319648
0.00322182
0.0032393
0.00326407
0.00329995
0.00333312
0.0033608
0.00339169
0.00342238
0.00344807
0.00347501
0.00349478
0.00350524
0.0035869
0.00359252
0.00361782
0.00366259
0.0037286
0.00375828
0.00375884
0.00371479
0.00358386
0.00334123
0.00310878
0.00304125
0.00303775
0.00308724
0.00316041
0.00317832
0.00317366
0.00315788
0.00315761
0.00317529
0.00320494
0.00322932
0.00324905
0.00327652
0.00331048
0.00333544
0.00335642
0.00338264
0.00340723
0.00342696
0.00345013
0.00347023
0.00348622
0.00355227
0.00357416
0.00359066
0.00363312
0.00370326
0.00373704
0.00373996
0.00370424
0.00359082
0.00337635
0.00318102
0.003127
0.00312465
0.0031612
0.00319401
0.00319711
0.00317099
0.0031584
0.00316259
0.0031876
0.00322124
0.00324873
0.00327501
0.00330846
0.00334071
0.00335808
0.00337564
0.00339751
0.00341292
0.00342672
0.00344828
0.00346573
0.00347993
0.00347766
0.00353872
0.00356863
0.00360085
0.00365598
0.00370276
0.00371282
0.00369474
0.00361177
0.00344506
0.00327032
0.00321223
0.0032062
0.0032214
0.003229
0.00321076
0.00317053
0.00316294
0.00317402
0.00320853
0.00325089
0.00329
0.00333107
0.00337561
0.00340758
0.00342796
0.00343618
0.00344778
0.00345173
0.00345684
0.00346916
0.0034793
0.00349189
0.00333762
0.00344956
0.00352736
0.00357226
0.00361487
0.00366229
0.00368116
0.00367948
0.00363706
0.00353384
0.00339129
0.00330726
0.00328068
0.00327262
0.00325969
0.00320831
0.00317498
0.00317255
0.00319414
0.00324386
0.00330658
0.00337727
0.00345684
0.00353123
0.00357081
0.00357951
0.00358758
0.00358514
0.00356503
0.00355201
0.00354576
0.00353336
0.00353159
0.00320787
0.00330282
0.00342234
0.0035184
0.0035799
0.00363238
0.00365942
0.00366427
0.00364954
0.00359362
0.00350026
0.00340967
0.00335444
0.00332115
0.00327823
0.00320981
0.00318504
0.00318799
0.00322457
0.00330174
0.00341784
0.00358269
0.0037981
0.00393016
0.00396646
0.00398538
0.0039853
0.00394466
0.00386361
0.00380567
0.00374372
0.00367318
0.00364129
0.00314649
0.00318306
0.00326894
0.0033911
0.00350645
0.00359024
0.00363873
0.00365323
0.00365143
0.00362683
0.00356971
0.00349321
0.00342341
0.00336317
0.00329035
0.00321767
0.00319988
0.00321096
0.00327307
0.00341065
0.00364457
0.00396504
0.00417934
0.00427203
0.00428997
0.00429645
0.0042722
0.00420478
0.00414078
0.00410048
0.00404249
0.00398551
0.00392305
0.00314822
0.00314257
0.00316647
0.00323882
0.00335424
0.0034889
0.00359114
0.00363363
0.00364437
0.00363695
0.0036079
0.00355156
0.00347931
0.00340152
0.00330728
0.0032333
0.00321912
0.00324339
0.00334352
0.00355563
0.00389911
0.00428513
0.00444707
0.00449712
0.0045056
0.00448888
0.00440974
0.00429016
0.00419684
0.00414443
0.00409646
0.00407919
0.00406265
0.00327087
0.00316537
0.00314856
0.00316028
0.00321429
0.00331927
0.00346025
0.00357615
0.00362029
0.00362926
0.00361621
0.00358112
0.00352053
0.00343674
0.003326
0.00325282
0.00324244
0.00327997
0.00341093
0.00368581
0.00412651
0.00449966
0.00462357
0.00465033
0.00464741
0.0045846
0.00443129
0.0042277
0.00402951
0.00389676
0.00385763
0.00386918
0.00395703
0.00357172
0.00338908
0.00320672
0.0031638
0.00316492
0.00320198
0.00328871
0.00341727
0.0035404
0.00359158
0.00360059
0.0035814
0.00353635
0.00346192
0.00334486
0.00327194
0.00326466
0.00331135
0.00346585
0.00378849
0.004294
0.00465491
0.00476561
0.00478996
0.00478728
0.00472561
0.00456904
0.00434808
0.00409426
0.00374632
0.00353158
0.00347021
0.00346938
0.00359046
0.00361707
0.00351633
0.00328838
0.00319195
0.00318208
0.00320469
0.00326843
0.00336889
0.00347313
0.00353054
0.00354577
0.00352691
0.00346681
0.00336013
0.00329227
0.00328761
0.00333872
0.00350161
0.00384714
0.00439276
0.00475771
0.0048792
0.00491363
0.00491896
0.00488911
0.00477751
0.00459056
0.00432185
0.00385745
0.0034819
0.00334286
0.00330076
0.00339956
0.00356133
0.00363582
0.00360438
0.00342105
0.00324715
0.0032106
0.00322282
0.00326527
0.0033354
0.00340419
0.00344641
0.00346361
0.00344717
0.00336472
0.00330998
0.00330596
0.00335536
0.00351478
0.00387097
0.00441616
0.0048093
0.00496026
0.00501587
0.00503162
0.00502916
0.00497125
0.0048513
0.00457575
0.00396863
0.00347371
0.00326607
0.00319934
0.00339223
0.00337235
0.00348211
0.00362672
0.00364505
0.00354969
0.00334807
0.00325623
0.00325467
0.00328337
0.00332684
0.00336651
0.00339232
0.00340085
0.00337167
0.00333085
0.00332605
0.00336781
0.00351732
0.00387427
0.00437859
0.00479237
0.00499498
0.00508129
0.00511608
0.00512555
0.00510834
0.00504478
0.00479593
0.00410134
0.00357219
0.00320374
0.00303686
0.00359961
0.00343798
0.00336916
0.00341834
0.0035863
0.00365504
0.00363745
0.00348993
0.00333423
0.00329875
0.00331608
0.00334124
0.00336343
0.00337915
0.00337547
0.00334978
0.0033408
0.00337459
0.00351715
0.0038581
0.00430622
0.00471004
0.00496811
0.00509243
0.00514824
0.00516596
0.00516646
0.00513673
0.00494168
0.00431569
0.00375857
0.00316036
0.00273013
0.00367746
0.00367285
0.00352338
0.00336533
0.00337684
0.00352637
0.00364638
0.00367465
0.00361716
0.00346672
0.00336902
0.00335468
0.00336312
0.00337432
0.00337658
0.0033593
0.00335173
0.00337932
0.00351819
0.00382197
0.00421314
0.00458536
0.00488127
0.0050544
0.00513477
0.00516772
0.00517488
0.00516249
0.00501675
0.00455395
0.00398192
0.00315882
0.00257294
0.00364341
0.00369771
0.00372035
0.00364347
0.003391
0.00337184
0.00346858
0.00362955
0.00369173
0.00369885
0.00361625
0.00348529
0.00341488
0.00339499
0.00338907
0.00337894
0.00337167
0.00339697
0.00353051
0.00380213
0.00413657
0.00447175
0.00476448
0.00496892
0.00508256
0.00513905
0.00515764
0.00515452
0.00504768
0.00476449
0.00416934
0.00322578
0.00257109
0.00362197
0.00365878
0.00372379
0.00374721
0.00368493
0.0034432
0.00338567
0.00343471
0.00358582
0.00369906
0.0037463
0.00374377
0.00365387
0.00353488
0.00346785
0.00343788
0.00343214
0.0034591
0.00357844
0.00381526
0.00410411
0.00439809
0.00466538
0.00486874
0.00500536
0.00508865
0.00512066
0.00512044
0.00505341
0.00484953
0.00433959
0.00332077
0.00262294
0.00365304
0.00366636
0.00370262
0.00373997
0.00376026
0.00369161
0.00347406
0.0034073
0.00342739
0.00354333
0.00370393
0.00377681
0.00381942
0.00381217
0.00373907
0.00364838
0.00362088
0.00363934
0.00371501
0.00388795
0.00412408
0.00437759
0.00460036
0.00478096
0.00492577
0.00502429
0.00506529
0.00506645
0.00502637
0.00487641
0.00445416
0.00346445
0.00271646
0.0037463
0.00375716
0.00374459
0.00374826
0.00376054
0.00375324
0.00369341
0.00351313
0.00342808
0.00343436
0.00350947
0.00368262
0.00380312
0.0038643
0.00390762
0.00391477
0.00391528
0.00392149
0.00395462
0.00404795
0.00420363
0.00439486
0.00457002
0.00471691
0.00485906
0.00495396
0.00499256
0.00499293
0.00496087
0.00484534
0.00450842
0.00363182
0.00283515
0.00391486
0.00393991
0.00388837
0.0038331
0.003798
0.00377781
0.00375326
0.00369429
0.00353838
0.00344309
0.00343911
0.00348327
0.00363274
0.00380796
0.00390178
0.00395815
0.00401857
0.00407363
0.00413121
0.00421151
0.00432067
0.00444326
0.00456279
0.00467975
0.00480604
0.0048841
0.00491243
0.00491032
0.0048764
0.00477437
0.00450968
0.00377806
0.0029599
0.00404085
0.00408442
0.00407447
0.00400654
0.00392589
0.00384808
0.00379218
0.00375019
0.0036916
0.00355254
0.00345328
0.00343888
0.00346839
0.00357498
0.00377176
0.00391122
0.00400626
0.00408354
0.00415918
0.00424071
0.00433526
0.00444224
0.00454146
0.00464855
0.00475228
0.00481119
0.00482851
0.00482221
0.00477704
0.00468013
0.00447253
0.00388439
0.00310756
0.00406212
0.00411391
0.00414943
0.00414916
0.00409832
0.00398746
0.00387172
0.00379488
0.00374257
0.00368648
0.00355835
0.00345593
0.00343185
0.00344756
0.00351286
0.00367612
0.00388154
0.00402362
0.00412926
0.00422287
0.00431984
0.0044189
0.00450401
0.00460976
0.00469305
0.00472827
0.00473164
0.00471551
0.00463596
0.00454821
0.00438459
0.0039439
0.00326316
0.00402221
0.00410616
0.00417252
0.00422058
0.00422651
0.00417911
0.00403578
0.00388191
0.00378935
0.00373493
0.00367837
0.00355328
0.00344986
0.00341928
0.00342494
0.00346752
0.00356958
0.00376506
0.00396625
0.0041215
0.00424685
0.00434901
0.00443721
0.00454026
0.00460195
0.0046119
0.00460377
0.00455934
0.00444841
0.00437216
0.00424705
0.00392879
0.0033823
0.00392616
0.00408759
0.0041893
0.00425404
0.0043162
0.00430074
0.00422938
0.00406796
0.00387431
0.00377563
0.00372368
0.00366492
0.00353878
0.00343742
0.00340847
0.00340001
0.00342471
0.00349121
0.00361427
0.00380197
0.0039915
0.0041363
0.00427358
0.00438355
0.00440322
0.00439546
0.00436917
0.00430431
0.00421258
0.00415335
0.00406946
0.00386462
0.00346114
0.00390901
0.00411456
0.00423818
0.00431552
0.004366
0.00438819
0.00434715
0.00424688
0.00406134
0.00384325
0.00375474
0.00370605
0.00364739
0.00352304
0.00342562
0.00339489
0.00337918
0.00339406
0.00343339
0.00351317
0.00364539
0.00376303
0.00389136
0.00401725
0.00408554
0.00408723
0.00407788
0.00404685
0.00398013
0.00392862
0.00387323
0.00375105
0.00348686
0.00399577
0.00420078
0.00429421
0.00436084
0.00441413
0.0044271
0.00441183
0.00434613
0.00422314
0.00398558
0.00379665
0.00372338
0.00367244
0.00361108
0.00349824
0.00341087
0.00337868
0.00336193
0.00336942
0.00339297
0.00344134
0.0035274
0.00360235
0.00369919
0.0037798
0.00379717
0.00379087
0.00377413
0.00372719
0.00367834
0.00364446
0.00358674
0.00345506
0.00407447
0.00422564
0.00430159
0.0043667
0.00442338
0.00443964
0.00443194
0.0043942
0.00431435
0.00415292
0.00390919
0.00376828
0.00370187
0.00365115
0.00358046
0.00347714
0.00339577
0.0033638
0.00335064
0.00335298
0.00336467
0.00339369
0.00343367
0.00351
0.00357329
0.00358689
0.00358226
0.00357016
0.00353795
0.00350201
0.00347708
0.00345067
0.00339459
0.00407528
0.00416058
0.00420102
0.00425401
0.00433413
0.00439363
0.00440938
0.0043855
0.00430817
0.00415699
0.00392699
0.00378448
0.00371334
0.00367
0.00362583
0.00355728
0.00345818
0.00338216
0.00335357
0.00334432
0.00334156
0.00334672
0.00336011
0.00339554
0.00344098
0.00345035
0.0034467
0.00343713
0.00341202
0.00338284
0.003366
0.0033553
0.00333346
0.00392112
0.00393988
0.00394717
0.00396679
0.00403873
0.00418031
0.00427374
0.00429181
0.00424295
0.00410008
0.00389818
0.003774
0.00371035
0.00367216
0.00364222
0.00359915
0.00353781
0.00344399
0.00337236
0.00334819
0.00333926
0.00333629
0.00333823
0.00334824
0.00336441
0.00336441
0.00336149
0.003352
0.00333619
0.00332381
0.00332014
0.00331852
0.00331175
0.00376673
0.00380154
0.00380592
0.00378858
0.00378059
0.00381142
0.00391415
0.00398054
0.00399456
0.00393038
0.00381058
0.00374189
0.00369916
0.00366977
0.0036454
0.00361905
0.00357508
0.00351208
0.00342312
0.00336436
0.00334363
0.00333612
0.00333603
0.00333795
0.00333854
0.00333677
0.00333241
0.00332278
0.00331891
0.00331386
0.00331545
0.00332096
0.00333498
0.00370452
0.00374755
0.0037548
0.00374366
0.00371295
0.00370124
0.00370639
0.00374294
0.00375337
0.00374967
0.00371492
0.00369062
0.00367229
0.00365858
0.00364451
0.00362915
0.00360154
0.00355586
0.00349643
0.00341548
0.00336928
0.00334673
0.00334018
0.00333922
0.00333678
0.00333171
0.00332772
0.00332666
0.00333133
0.00334592
0.00336971
0.00340671
0.00343868
0.00367554
0.0036955
0.00372107
0.00372624
0.00370613
0.0036751
0.00365785
0.00365465
0.00365861
0.00365983
0.00365436
0.0036511
0.00364936
0.00364686
0.00364187
0.00363107
0.00361374
0.00358361
0.00353219
0.00346464
0.00340022
0.00337109
0.00335714
0.00335232
0.00334857
0.00335236
0.00336332
0.00338596
0.00343153
0.00349037
0.00357674
0.00364731
0.00370748
0.00367376
0.00366769
0.00366791
0.00369552
0.00370336
0.00369429
0.00366652
0.00364771
0.00364279
0.00364195
0.00364216
0.00364185
0.00364492
0.00364489
0.00364111
0.00363184
0.00361612
0.00359061
0.0035523
0.00350875
0.00346048
0.00343655
0.00343037
0.00343975
0.00345442
0.0034737
0.00350851
0.003575
0.00367803
0.00375056
0.00378772
0.00380516
0.0038209
0.0037701
0.00368512
0.00364801
0.00363817
0.00365779
0.00368594
0.00369254
0.00368446
0.00366447
0.00365367
0.00365091
0.00364919
0.00365075
0.0036505
0.00364794
0.00364104
0.00363058
0.00361653