/*--------------------------------*- C++ -*----------------------------------*\
| =========                 |                                                 |
| \\      /  F ield         | OpenFOAM: The Open Source CFD Toolbox           |
|  \\    /   O peration     | Version:  2406                                  |
|   \\  /    A nd           | Website:  www.openfoam.com                      |
|    \\/     M anipulation  |                                                 |
\*---------------------------------------------------------------------------*/
FoamFile
{
    version     2.0;
    format      ascii;
    arch        "LSB;label=32;scalar=64";
    class       volScalarField;
    location    "300";
    object      p;
}
// * * * * * * * * * * * * * * * * * * * * * * * * * * * * * * * * * * * * * //

dimensions      [0 2 -2 0 0 0 0];

internalField   nonuniform List<scalar> 
16384
(
2.813002e-09
4.398848e-09
4.341019e-09
3.943406e-09
3.445345e-09
2.884989e-09
2.28704e-09
1.691284e-09
1.110953e-09
5.660423e-10
6.609117e-11
-3.807635e-10
-7.711487e-10
-1.10855e-09
-1.388836e-09
-1.611304e-09
-1.78021e-09
-1.896374e-09
-1.961438e-09
-1.977831e-09
-1.945989e-09
-1.865363e-09
-1.740361e-09
-1.571561e-09
-1.357495e-09
-1.099658e-09
-7.982571e-10
-4.518373e-10
-5.883292e-11
3.802376e-10
8.663103e-10
1.402378e-09
1.990202e-09
2.63058e-09
3.324958e-09
4.075954e-09
4.885108e-09
5.753804e-09
6.684415e-09
7.678831e-09
8.737921e-09
9.861994e-09
1.105225e-08
1.231003e-08
1.363567e-08
1.5029e-08
1.648946e-08
1.801698e-08
1.961129e-08
2.127017e-08
2.299152e-08
2.477362e-08
2.661352e-08
2.850853e-08
3.045562e-08
3.245e-08
3.448703e-08
3.656235e-08
3.867018e-08
4.080439e-08
4.295898e-08
4.512682e-08
4.730066e-08
4.947374e-08
5.163809e-08
5.378436e-08
5.59038e-08
5.798836e-08
6.002897e-08
6.201583e-08
6.393971e-08
6.579171e-08
6.756264e-08
6.92436e-08
7.082623e-08
7.230202e-08
7.366253e-08
7.49004e-08
7.600919e-08
7.698242e-08
7.781397e-08
7.849929e-08
7.903518e-08
7.941912e-08
7.964928e-08
7.972504e-08
7.964723e-08
7.941802e-08
7.904099e-08
7.852093e-08
7.786326e-08
7.707433e-08
7.616204e-08
7.513542e-08
7.400385e-08
7.277704e-08
7.14653e-08
7.007933e-08
6.862993e-08
6.712774e-08
6.558381e-08
6.400966e-08
6.241636e-08
6.08147e-08
5.921493e-08
5.762712e-08
5.606216e-08
5.453053e-08
5.304299e-08
5.160948e-08
5.023881e-08
4.894069e-08
4.772283e-08
4.659326e-08
4.555887e-08
4.462546e-08
4.380026e-08
4.308844e-08
4.249363e-08
4.201892e-08
4.166498e-08
4.143109e-08
4.1314e-08
4.130462e-08
4.138621e-08
4.153177e-08
4.169758e-08
4.181871e-08
4.512832e-09
4.647127e-09
4.43133e-09
4.058865e-09
3.60953e-09
3.101511e-09
2.57099e-09
2.039474e-09
1.52089e-09
1.028127e-09
5.747442e-10
1.695778e-10
-1.900503e-10
-5.001907e-10
-7.562981e-10
-9.612402e-10
-1.116309e-09
-1.22084e-09
-1.278055e-09
-1.287788e-09
-1.249267e-09
-1.165546e-09
-1.038945e-09
-8.678502e-10
-6.521917e-10
-3.940227e-10
-9.188801e-11
2.54881e-10
6.458595e-10
1.081408e-09
1.564431e-09
2.097922e-09
2.682317e-09
3.318236e-09
4.007129e-09
4.751036e-09
5.551475e-09
6.410296e-09
7.330104e-09
8.312219e-09
9.35684e-09
1.046435e-08
1.163637e-08
1.287423e-08
1.417766e-08
1.554643e-08
1.698063e-08
1.848008e-08
2.004418e-08
2.167053e-08
2.335662e-08
2.510127e-08
2.690235e-08
2.875667e-08
3.066082e-08
3.26104e-08
3.46009e-08
3.662814e-08
3.868659e-08
4.076973e-08
4.287152e-08
4.498596e-08
4.710625e-08
4.922483e-08
5.133364e-08
5.342438e-08
5.548885e-08
5.751886e-08
5.950555e-08
6.143953e-08
6.331169e-08
6.511336e-08
6.683608e-08
6.847132e-08
7.00105e-08
7.144528e-08
7.276805e-08
7.397191e-08
7.505024e-08
7.599651e-08
7.680506e-08
7.747179e-08
7.799359e-08
7.836788e-08
7.859293e-08
7.866843e-08
7.859532e-08
7.837551e-08
7.801228e-08
7.751066e-08
7.687653e-08
7.61159e-08
7.523576e-08
7.424489e-08
7.315298e-08
7.196969e-08
7.070456e-08
6.936763e-08
6.796982e-08
6.652192e-08
6.50342e-08
6.351706e-08
6.198092e-08
6.043673e-08
5.889519e-08
5.736591e-08
5.585908e-08
5.438467e-08
5.295293e-08
5.157377e-08
5.025499e-08
4.900575e-08
4.783368e-08
4.674628e-08
4.575073e-08
4.485187e-08
4.40558e-08
4.33673e-08
4.278848e-08
4.232149e-08
4.196656e-08
4.172149e-08
4.158246e-08
4.154231e-08
4.158862e-08
4.170051e-08
4.184456e-08
4.195997e-08
4.858856e-09
4.775786e-09
4.532793e-09
4.202721e-09
3.797738e-09
3.34232e-09
2.868236e-09
2.393359e-09
1.927618e-09
1.485735e-09
1.079383e-09
7.104036e-10
3.8345e-10
1.050196e-10
-1.272866e-10
-3.133541e-10
-4.512762e-10
-5.438264e-10
-5.916888e-10
-5.918794e-10
-5.465466e-10
-4.596867e-10
-3.306199e-10
-1.582698e-10
5.685808e-11
3.14331e-10
6.161173e-10
9.61653e-10
1.350043e-09
1.782768e-09
2.262613e-09
2.791517e-09
3.369839e-09
3.999082e-09
4.680847e-09
5.416211e-09
6.206651e-09
7.054573e-09
7.962128e-09
8.929823e-09
9.957798e-09
1.10472e-08
1.21998e-08
1.341624e-08
1.469589e-08
1.603878e-08
1.744569e-08
1.891636e-08
2.044906e-08
2.204151e-08
2.369225e-08
2.540001e-08
2.716223e-08
2.897568e-08
3.083696e-08
3.274238e-08
3.4688e-08
3.666889e-08
3.867904e-08
4.071284e-08
4.276495e-08
4.482897e-08
4.689796e-08
4.896489e-08
5.102193e-08
5.306087e-08
5.507408e-08
5.705365e-08
5.899038e-08
6.087507e-08
6.26996e-08
6.445578e-08
6.613468e-08
6.772773e-08
6.922711e-08
7.062493e-08
7.19134e-08
7.30857e-08
7.413571e-08
7.505722e-08
7.584454e-08
7.649366e-08
7.70019e-08
7.736689e-08
7.758662e-08
7.766064e-08
7.759043e-08
7.737844e-08
7.702767e-08
7.654237e-08
7.592829e-08
7.519193e-08
7.434021e-08
7.338128e-08
7.232441e-08
7.117936e-08
6.995571e-08
6.866286e-08
6.731093e-08
6.591043e-08
6.447177e-08
6.300532e-08
6.152094e-08
6.002894e-08
5.854027e-08
5.706486e-08
5.561231e-08
5.419163e-08
5.281183e-08
5.148268e-08
5.021228e-08
4.900934e-08
4.788132e-08
4.683452e-08
4.587586e-08
4.501023e-08
4.424182e-08
4.357423e-08
4.300959e-08
4.255e-08
4.219587e-08
4.194424e-08
4.179008e-08
4.172645e-08
4.174406e-08
4.183413e-08
4.198758e-08
4.214049e-08
5.143806e-09
4.985514e-09
4.723035e-09
4.388658e-09
4.005305e-09
3.583905e-09
3.145132e-09
2.707155e-09
2.28305e-09
1.883367e-09
1.51359e-09
1.177287e-09
8.814874e-10
6.282829e-10
4.184946e-10
2.536339e-10
1.30293e-10
4.873419e-11
1.23432e-11
2.12207e-11
7.120116e-11
1.616463e-10
2.942606e-10
4.680148e-10
6.828017e-10
9.396463e-10
1.239152e-09
1.580287e-09
1.96412e-09
2.393179e-09
2.868571e-09
3.391356e-09
3.962821e-09
4.584345e-09
5.256881e-09
5.981669e-09
6.761087e-09
7.597652e-09
8.492099e-09
9.444291e-09
1.045521e-08
1.152675e-08
1.266014e-08
1.385515e-08
1.511183e-08
1.643104e-08
1.78127e-08
1.925592e-08
2.075931e-08
2.232108e-08
2.39403e-08
2.561543e-08
2.734318e-08
2.91208e-08
3.094568e-08
3.281379e-08
3.472085e-08
3.666235e-08
3.863256e-08
4.06259e-08
4.263733e-08
4.466054e-08
4.66883e-08
4.871371e-08
5.072968e-08
5.272826e-08
5.470157e-08
5.664172e-08
5.853995e-08
6.03873e-08
6.217572e-08
6.389725e-08
6.554309e-08
6.710462e-08
6.85741e-08
6.994407e-08
7.120695e-08
7.235575e-08
7.338432e-08
7.428682e-08
7.50579e-08
7.569357e-08
7.619109e-08
7.654819e-08
7.676317e-08
7.683564e-08
7.676706e-08
7.656001e-08
7.621744e-08
7.574328e-08
7.51432e-08
7.442407e-08
7.359294e-08
7.265733e-08
7.162587e-08
7.050808e-08
6.931363e-08
6.80518e-08
6.673239e-08
6.536594e-08
6.396291e-08
6.253363e-08
6.108786e-08
5.963538e-08
5.818667e-08
5.675174e-08
5.533999e-08
5.396023e-08
5.262097e-08
5.133142e-08
5.00999e-08
4.893416e-08
4.784141e-08
4.682747e-08
4.589801e-08
4.505797e-08
4.431084e-08
4.365948e-08
4.310643e-08
4.265337e-08
4.230113e-08
4.204855e-08
4.189182e-08
4.182428e-08
4.183574e-08
4.192256e-08
4.209623e-08
4.229738e-08
5.507435e-09
5.280158e-09
4.969768e-09
4.616929e-09
4.232667e-09
3.82903e-09
3.413338e-09
3.001106e-09
2.610206e-09
2.243831e-09
1.904011e-09
1.59823e-09
1.330056e-09
1.101496e-09
9.139092e-10
7.664479e-10
6.576551e-10
5.904761e-10
5.660763e-10
5.818963e-10
6.360521e-10
7.300447e-10
8.642702e-10
1.038183e-09
1.252882e-09
1.508359e-09
1.80409e-09
2.140322e-09
2.518948e-09
2.942091e-09
3.41065e-09
3.92594e-09
4.489425e-09
5.101526e-09
5.763007e-09
6.476186e-09
7.243635e-09
8.067009e-09
8.946421e-09
9.88222e-09
1.087579e-08
1.192855e-08
1.304165e-08
1.421518e-08
1.544928e-08
1.674488e-08
1.810154e-08
1.951812e-08
2.099376e-08
2.252684e-08
2.411621e-08
2.576057e-08
2.745685e-08
2.920217e-08
3.099405e-08
3.28287e-08
3.470181e-08
3.660878e-08
3.85442e-08
4.050288e-08
4.24798e-08
4.446855e-08
4.646197e-08
4.845338e-08
5.043588e-08
5.240176e-08
5.434317e-08
5.625218e-08
5.812014e-08
5.993842e-08
6.169912e-08
6.339419e-08
6.50147e-08
6.655204e-08
6.799878e-08
6.934766e-08
7.05911e-08
7.172195e-08
7.273405e-08
7.362183e-08
7.438022e-08
7.500531e-08
7.549426e-08
7.584484e-08
7.605553e-08
7.612611e-08
7.605799e-08
7.585376e-08
7.551662e-08
7.505049e-08
7.446062e-08
7.375365e-08
7.293677e-08
7.201748e-08
7.100394e-08
6.990515e-08
6.873079e-08
6.749061e-08
6.619448e-08
6.485273e-08
6.347574e-08
6.207372e-08
6.065643e-08
5.923336e-08
5.781452e-08
5.641005e-08
5.502979e-08
5.368269e-08
5.237691e-08
5.112033e-08
4.992103e-08
4.878607e-08
4.772162e-08
4.673406e-08
4.582846e-08
4.500927e-08
4.428016e-08
4.364313e-08
4.310062e-08
4.265452e-08
4.230507e-08
4.205246e-08
4.189613e-08
4.183162e-08
4.185039e-08
4.194825e-08
4.214622e-08
4.239059e-08
5.915529e-09
5.608582e-09
5.245786e-09
4.866143e-09
4.471562e-09
4.067205e-09
3.665183e-09
3.278267e-09
2.910444e-09
2.566496e-09
2.253822e-09
1.975337e-09
1.732293e-09
1.527021e-09
1.358506e-09
1.226404e-09
1.133041e-09
1.080183e-09
1.065692e-09
1.087706e-09
1.147243e-09
1.244576e-09
1.379325e-09
1.55275e-09
1.766072e-09
2.018074e-09
2.308519e-09
2.639271e-09
3.012009e-09
3.427662e-09
3.887687e-09
4.3938e-09
4.947124e-09
5.547834e-09
6.196989e-09
6.897435e-09
7.651444e-09
8.459947e-09
9.322845e-09
1.02409e-08
1.121604e-08
1.224941e-08
1.334171e-08
1.449329e-08
1.570459e-08
1.697649e-08
1.830842e-08
1.969911e-08
2.114785e-08
2.265351e-08
2.421504e-08
2.583083e-08
2.749778e-08
2.921336e-08
3.097541e-08
3.278011e-08
3.462303e-08
3.64997e-08
3.840499e-08
4.033403e-08
4.228184e-08
4.424187e-08
4.620697e-08
4.817083e-08
5.01268e-08
5.206705e-08
5.398358e-08
5.586862e-08
5.771385e-08
5.951062e-08
6.125086e-08
6.292653e-08
6.452876e-08
6.604889e-08
6.747945e-08
6.881329e-08
7.004295e-08
7.116116e-08
7.216162e-08
7.303887e-08
7.378816e-08
7.440564e-08
7.488833e-08
7.523393e-08
7.54411e-08
7.550997e-08
7.544207e-08
7.523984e-08
7.490631e-08
7.444539e-08
7.386228e-08
7.316332e-08
7.235555e-08
7.144648e-08
7.04444e-08
6.935832e-08
6.819753e-08
6.697154e-08
6.56902e-08
6.4364e-08
6.300375e-08
6.161982e-08
6.022188e-08
5.881938e-08
5.74222e-08
5.604061e-08
5.468441e-08
5.336226e-08
5.208259e-08
5.085226e-08
4.967827e-08
4.856779e-08
4.752592e-08
4.655933e-08
4.567321e-08
4.487055e-08
4.415546e-08
4.353061e-08
4.299774e-08
4.25593e-08
4.221576e-08
4.19662e-08
4.18109e-08
4.174997e-08
4.177907e-08
4.189379e-08
4.2117e-08
4.239676e-08
6.340774e-09
5.956857e-09
5.536709e-09
5.120664e-09
4.704733e-09
4.293273e-09
3.899649e-09
3.525156e-09
3.173197e-09
2.85026e-09
2.559919e-09
2.303599e-09
2.082797e-09
1.897507e-09
1.745487e-09
1.629365e-09
1.551684e-09
1.510184e-09
1.503255e-09
1.531834e-09
1.596222e-09
1.695345e-09
1.830634e-09
2.003838e-09
2.214071e-09
2.460393e-09
2.744515e-09
3.068764e-09
3.43402e-09
3.840589e-09
4.29075e-09
4.786341e-09
5.32748e-09
5.914589e-09
6.549938e-09
7.236615e-09
7.975729e-09
8.767277e-09
9.611967e-09
1.051153e-08
1.146747e-08
1.248033e-08
1.355095e-08
1.468032e-08
1.586911e-08
1.711765e-08
1.842493e-08
1.97901e-08
2.121315e-08
2.26931e-08
2.422849e-08
2.581747e-08
2.745734e-08
2.91461e-08
3.088152e-08
3.265949e-08
3.447572e-08
3.632621e-08
3.820609e-08
4.011041e-08
4.203416e-08
4.397092e-08
4.591374e-08
4.785628e-08
4.979204e-08
5.171333e-08
5.361202e-08
5.548012e-08
5.730948e-08
5.909179e-08
6.081881e-08
6.248201e-08
6.407246e-08
6.558187e-08
6.700286e-08
6.832794e-08
6.954933e-08
7.065991e-08
7.165352e-08
7.252469e-08
7.326857e-08
7.388133e-08
7.436011e-08
7.47027e-08
7.490787e-08
7.497585e-08
7.490814e-08
7.470702e-08
7.437538e-08
7.391723e-08
7.333787e-08
7.26434e-08
7.184051e-08
7.093671e-08
6.99405e-08
6.886096e-08
6.770703e-08
6.648782e-08
6.521334e-08
6.38944e-08
6.254227e-08
6.116795e-08
5.978134e-08
5.839189e-08
5.700908e-08
5.564282e-08
5.430331e-08
5.299873e-08
5.173748e-08
5.052643e-08
4.937098e-08
4.827864e-08
4.725454e-08
4.630393e-08
4.543239e-08
4.464277e-08
4.393847e-08
4.332321e-08
4.279866e-08
4.23663e-08
4.202879e-08
4.178553e-08
4.163464e-08
4.157854e-08
4.16168e-08
4.174794e-08
4.19946e-08
4.230252e-08
6.777544e-09
6.308358e-09
5.822431e-09
5.364283e-09
4.921211e-09
4.501559e-09
4.105038e-09
3.734842e-09
3.395348e-09
3.089024e-09
2.816262e-09
2.578921e-09
2.376486e-09
2.207122e-09
2.071059e-09
1.970944e-09
1.906187e-09
1.873771e-09
1.874128e-09
1.908466e-09
1.975489e-09
2.075597e-09
2.211169e-09
2.382523e-09
2.587869e-09
2.827891e-09
3.105264e-09
3.421139e-09
3.776619e-09
4.173008e-09
4.612113e-09
5.094878e-09
5.621556e-09
6.193889e-09
6.814582e-09
7.48546e-09
8.207064e-09
8.980079e-09
9.805799e-09
1.068587e-08
1.16212e-08
1.26123e-08
1.366082e-08
1.476811e-08
1.593433e-08
1.715922e-08
1.844212e-08
1.978296e-08
2.118173e-08
2.263702e-08
2.414747e-08
2.571164e-08
2.732696e-08
2.899144e-08
3.070294e-08
3.245744e-08
3.425062e-08
3.60787e-08
3.793722e-08
3.982148e-08
4.17262e-08
4.364475e-08
4.557047e-08
4.749757e-08
4.941943e-08
5.132791e-08
5.321481e-08
5.507248e-08
5.689289e-08
5.866753e-08
6.038779e-08
6.204495e-08
6.363024e-08
6.513553e-08
6.655325e-08
6.787544e-08
6.909406e-08
7.020213e-08
7.119374e-08
7.206331e-08
7.28057e-08
7.3417e-08
7.389459e-08
7.423662e-08
7.444177e-08
7.450994e-08
7.444251e-08
7.424199e-08
7.391145e-08
7.345465e-08
7.287663e-08
7.218351e-08
7.138202e-08
7.047944e-08
6.948392e-08
6.840448e-08
6.725049e-08
6.603143e-08
6.475749e-08
6.343949e-08
6.208859e-08
6.071638e-08
5.93333e-08
5.794924e-08
5.65738e-08
5.521605e-08
5.388618e-08
5.259229e-08
5.134192e-08
5.014271e-08
4.89996e-08
4.791925e-08
4.690761e-08
4.59686e-08
4.51069e-08
4.432684e-08
4.363125e-08
4.302301e-08
4.250485e-08
4.207825e-08
4.17457e-08
4.150792e-08
4.136336e-08
4.131369e-08
4.135992e-08
4.150495e-08
4.177101e-08
4.210085e-08
7.194146e-09
6.643285e-09
6.084177e-09
5.582132e-09
5.112703e-09
4.675267e-09
4.269654e-09
3.900883e-09
3.569397e-09
3.274176e-09
3.016207e-09
2.794338e-09
2.605625e-09
2.450128e-09
2.329494e-09
2.242866e-09
2.187879e-09
2.163555e-09
2.170676e-09
2.208998e-09
2.277527e-09
2.37843e-09
2.512685e-09
2.679767e-09
2.879206e-09
3.112208e-09
3.381298e-09
3.687421e-09
4.032067e-09
4.416762e-09
4.842403e-09
5.310084e-09
5.821201e-09
6.377718e-09
6.981827e-09
7.634641e-09
8.336816e-09
9.090051e-09
9.895722e-09
1.075472e-08
1.166803e-08
1.263696e-08
1.366339e-08
1.47481e-08
1.589111e-08
1.709262e-08
1.835198e-08
1.966915e-08
2.104449e-08
2.247656e-08
2.39637e-08
2.550466e-08
2.709751e-08
2.874046e-08
3.043095e-08
3.216467e-08
3.393791e-08
3.574753e-08
3.758904e-08
3.945728e-08
4.134701e-08
4.325214e-08
4.516636e-08
4.70836e-08
4.899687e-08
5.089807e-08
5.277932e-08
5.463302e-08
5.645078e-08
5.822376e-08
5.99434e-08
6.160102e-08
6.318765e-08
6.46949e-08
6.611506e-08
6.744001e-08
6.866145e-08
6.977226e-08
7.07666e-08
7.163889e-08
7.238391e-08
7.299763e-08
7.347737e-08
7.382126e-08
7.402814e-08
7.409798e-08
7.403204e-08
7.38326e-08
7.350258e-08
7.304573e-08
7.246702e-08
7.177253e-08
7.096903e-08
7.006369e-08
6.906438e-08
6.798e-08
6.682035e-08
6.559546e-08
6.431604e-08
6.29933e-08
6.163802e-08
6.026175e-08
5.88755e-08
5.748958e-08
5.611444e-08
5.475871e-08
5.343158e-08
5.214137e-08
5.089514e-08
4.970073e-08
4.856421e-08
4.749071e-08
4.648569e-08
4.555362e-08
4.469801e-08
4.39232e-08
4.323354e-08
4.263125e-08
4.211791e-08
4.169592e-08
4.136744e-08
4.113337e-08
4.099463e-08
4.095149e-08
4.100545e-08
4.116166e-08
4.14425e-08
4.178884e-08
7.572571e-09
6.941688e-09
6.311321e-09
5.762348e-09
5.261245e-09
4.800409e-09
4.384855e-09
4.014051e-09
3.685363e-09
3.398478e-09
3.151446e-09
2.939805e-09
2.762617e-09
2.620853e-09
2.512941e-09
2.436139e-09
2.389444e-09
2.37228e-09
2.384059e-09
2.424591e-09
2.49433e-09
2.595127e-09
2.726233e-09
2.887268e-09
3.079656e-09
3.304483e-09
3.563696e-09
3.858754e-09
4.191195e-09
4.56226e-09
4.972445e-09
5.423282e-09
5.91745e-09
6.456632e-09
7.041919e-09
7.674645e-09
8.356117e-09
9.08808e-09
9.871878e-09
1.070862e-08
1.159929e-08
1.254524e-08
1.354891e-08
1.461104e-08
1.573091e-08
1.690876e-08
1.814492e-08
1.943964e-08
2.079262e-08
2.220212e-08
2.366715e-08
2.518718e-08
2.676007e-08
2.838351e-08
3.005499e-08
3.177087e-08
3.352782e-08
3.53225e-08
3.715022e-08
3.900612e-08
4.088533e-08
4.278181e-08
4.46892e-08
4.660137e-08
4.851134e-08
5.041096e-08
5.229229e-08
5.414763e-08
5.596852e-08
5.774591e-08
5.947106e-08
6.11352e-08
6.272913e-08
6.424419e-08
6.567251e-08
6.700593e-08
6.823587e-08
6.935476e-08
7.035668e-08
7.12363e-08
7.198847e-08
7.260884e-08
7.309435e-08
7.344306e-08
7.365407e-08
7.372755e-08
7.366453e-08
7.346679e-08
7.313703e-08
7.267912e-08
7.209821e-08
7.140028e-08
7.059186e-08
6.968014e-08
6.867312e-08
6.75797e-08
6.641004e-08
6.517466e-08
6.388453e-08
6.255145e-08
6.118642e-08
5.98007e-08
5.840566e-08
5.701172e-08
5.562976e-08
5.42691e-08
5.293822e-08
5.164528e-08
5.039748e-08
4.920163e-08
4.806488e-08
4.699297e-08
4.598959e-08
4.505928e-08
4.42065e-08
4.343428e-08
4.274645e-08
4.214677e-08
4.163726e-08
4.121887e-08
4.089347e-08
4.066226e-08
4.052764e-08
4.048975e-08
4.055067e-08
4.071543e-08
4.100742e-08
4.136559e-08
7.893562e-09
7.186487e-09
6.488972e-09
5.889008e-09
5.350585e-09
4.867337e-09
4.43905e-09
4.062161e-09
3.734292e-09
3.452034e-09
3.2106e-09
3.006864e-09
2.840701e-09
2.710119e-09
2.611092e-09
2.542269e-09
2.502917e-09
2.490596e-09
2.504581e-09
2.546852e-09
2.617377e-09
2.715524e-09
2.841339e-09
2.99575e-09
3.18016e-09
3.395069e-09
3.642683e-09
3.925498e-09
4.244329e-09
4.599442e-09
4.992265e-09
5.425138e-09
5.900764e-09
6.420656e-09
6.985309e-09
7.595957e-09
8.255001e-09
8.964736e-09
9.725564e-09
1.053834e-08
1.14053e-08
1.232835e-08
1.330904e-08
1.434755e-08
1.544384e-08
1.659887e-08
1.781271e-08
1.908517e-08
2.041616e-08
2.180448e-08
2.324937e-08
2.475017e-08
2.630463e-08
2.791064e-08
2.956591e-08
3.126685e-08
3.301023e-08
3.479295e-08
3.661047e-08
3.845798e-08
4.033063e-08
4.22226e-08
4.412767e-08
4.603972e-08
4.795147e-08
4.985458e-08
5.174118e-08
5.360363e-08
5.543327e-08
5.722073e-08
5.8957e-08
6.063322e-08
6.22402e-08
6.376905e-08
6.521137e-08
6.655864e-08
6.780228e-08
6.893475e-08
6.994983e-08
7.08419e-08
7.160564e-08
7.223665e-08
7.27318e-08
7.308903e-08
7.330721e-08
7.338636e-08
7.332752e-08
7.313237e-08
7.280334e-08
7.234417e-08
7.17599e-08
7.105669e-08
7.024098e-08
6.931988e-08
6.830174e-08
6.719582e-08
6.601254e-08
6.476281e-08
6.345764e-08
6.210912e-08
6.072907e-08
5.932872e-08
5.79195e-08
5.651216e-08
5.511756e-08
5.374569e-08
5.240514e-08
5.110313e-08
4.984754e-08
4.864527e-08
4.750243e-08
4.642577e-08
4.54195e-08
4.448681e-08
4.36321e-08
4.285947e-08
4.21716e-08
4.157153e-08
4.106278e-08
4.064612e-08
4.032251e-08
4.009345e-08
3.996125e-08
3.992717e-08
3.999345e-08
4.016442e-08
4.04648e-08
4.083105e-08
8.145294e-09
7.363792e-09
6.595523e-09
5.945238e-09
5.37093e-09
4.863528e-09
4.419419e-09
4.034706e-09
3.704742e-09
3.422423e-09
3.18445e-09
2.988282e-09
2.830673e-09
2.707516e-09
2.615329e-09
2.553052e-09
2.518154e-09
2.50849e-09
2.524328e-09
2.567487e-09
2.636263e-09
2.729491e-09
2.849025e-09
2.995915e-09
3.17047e-09
3.373936e-09
3.609076e-09
3.878081e-09
4.181185e-09
4.518206e-09
4.891857e-09
5.305845e-09
5.761685e-09
6.259537e-09
6.801079e-09
7.388857e-09
8.024601e-09
8.709923e-09
9.446013e-09
1.023459e-08
1.107762e-08
1.19766e-08
1.293331e-08
1.394818e-08
1.502123e-08
1.615339e-08
1.73449e-08
1.859577e-08
1.990594e-08
2.127422e-08
2.270012e-08
2.418326e-08
2.572136e-08
2.731209e-08
2.895326e-08
3.064167e-08
3.237442e-08
3.414836e-08
3.595883e-08
3.780119e-08
3.967099e-08
4.156273e-08
4.347001e-08
4.53863e-08
4.730417e-08
4.921546e-08
5.111245e-08
5.298734e-08
5.483094e-08
5.663356e-08
5.838625e-08
6.008026e-08
6.170621e-08
6.325469e-08
6.471671e-08
6.608339e-08
6.73463e-08
6.849807e-08
6.953209e-08
7.044197e-08
7.122198e-08
7.186794e-08
7.237695e-08
7.274675e-08
7.297562e-08
7.306304e-08
7.301008e-08
7.281868e-08
7.24912e-08
7.203102e-08
7.144285e-08
7.073288e-08
6.990792e-08
6.897531e-08
6.794364e-08
6.682243e-08
6.56222e-08
6.435429e-08
6.303006e-08
6.166183e-08
6.026211e-08
5.884258e-08
5.741443e-08
5.598868e-08
5.45762e-08
5.31869e-08
5.183052e-08
5.051419e-08
4.924499e-08
4.80307e-08
4.687706e-08
4.578993e-08
4.477499e-08
4.383603e-08
4.297608e-08
4.219905e-08
4.150806e-08
4.090583e-08
4.03949e-08
3.997686e-08
3.965315e-08
3.942477e-08
3.929358e-08
3.926219e-08
3.933198e-08
3.950762e-08
3.981398e-08
4.018597e-08
8.313799e-09
7.453672e-09
6.616843e-09
5.919171e-09
5.308636e-09
4.775255e-09
4.314495e-09
3.919529e-09
3.583216e-09
3.299092e-09
3.064372e-09
2.873539e-09
2.721118e-09
2.603234e-09
2.516232e-09
2.458018e-09
2.425287e-09
2.41715e-09
2.434101e-09
2.47595e-09
2.540483e-09
2.627676e-09
2.739716e-09
2.877213e-09
3.040168e-09
3.231114e-09
3.45294e-09
3.705859e-09
3.990281e-09
4.30813e-09
4.662181e-09
5.055004e-09
5.488328e-09
5.962923e-09
6.480398e-09
7.043324e-09
7.653931e-09
8.314008e-09
9.024602e-09
9.787775e-09
1.060592e-08
1.148053e-08
1.241301e-08
1.340372e-08
1.445315e-08
1.556273e-08
1.673256e-08
1.796235e-08
1.925216e-08
2.060139e-08
2.200995e-08
2.347718e-08
2.50004e-08
2.657742e-08
2.820665e-08
2.98853e-08
3.161025e-08
3.337793e-08
3.518395e-08
3.702441e-08
3.889522e-08
4.079071e-08
4.2704e-08
4.462834e-08
4.655653e-08
4.848067e-08
5.03929e-08
5.228498e-08
5.414735e-08
5.59703e-08
5.7745e-08
5.946256e-08
6.111309e-08
6.268669e-08
6.417411e-08
6.556622e-08
6.685432e-08
6.80309e-08
6.908921e-08
7.002237e-08
7.082414e-08
7.149006e-08
7.201736e-08
7.240377e-08
7.264715e-08
7.274625e-08
7.270166e-08
7.25155e-08
7.21905e-08
7.172998e-08
7.113819e-08
7.042098e-08
6.958538e-08
6.863921e-08
6.75916e-08
6.645248e-08
6.523245e-08
6.394325e-08
6.259693e-08
6.120569e-08
5.9782e-08
5.833848e-08
5.688669e-08
5.543779e-08
5.400302e-08
5.259161e-08
5.121333e-08
4.987667e-08
4.858863e-08
4.735653e-08
4.618679e-08
4.508514e-08
4.405708e-08
4.310671e-08
4.223742e-08
4.145277e-08
4.075538e-08
4.01479e-08
3.96321e-08
3.921013e-08
3.8884e-08
3.865415e-08
3.852289e-08
3.849274e-08
3.856448e-08
3.874379e-08
3.905437e-08
3.943088e-08
8.37819e-09
7.443405e-09
6.543332e-09
5.7963e-09
5.149646e-09
4.589951e-09
4.110628e-09
3.702233e-09
3.358439e-09
3.073025e-09
2.839836e-09
2.65085e-09
2.501178e-09
2.387116e-09
2.302897e-09
2.24607e-09
2.21458e-09
2.207132e-09
2.223107e-09
2.261089e-09
2.319883e-09
2.40005e-09
2.502525e-09
2.62874e-09
2.779745e-09
2.956884e-09
3.162567e-09
3.397598e-09
3.662376e-09
3.959258e-09
4.291803e-09
4.662167e-09
5.071297e-09
5.520451e-09
6.012344e-09
6.549599e-09
7.133854e-09
7.76704e-09
8.451024e-09
9.188448e-09
9.981391e-09
1.083075e-08
1.173805e-08
1.270434e-08
1.373057e-08
1.481791e-08
1.596606e-08
1.717493e-08
1.844533e-08
1.977704e-08
2.116965e-08
2.262204e-08
2.413167e-08
2.569699e-08
2.731676e-08
2.898794e-08
3.070707e-08
3.247068e-08
3.427509e-08
3.611694e-08
3.799205e-08
3.989436e-08
4.181683e-08
4.375294e-08
4.569571e-08
4.763703e-08
4.956867e-08
5.148216e-08
5.336802e-08
5.521654e-08
5.701873e-08
5.876526e-08
6.04457e-08
6.204977e-08
6.356823e-08
6.499186e-08
6.631138e-08
6.751869e-08
6.860686e-08
6.956901e-08
7.039853e-08
7.109036e-08
7.164111e-08
7.204829e-08
7.230984e-08
7.242435e-08
7.239173e-08
7.221345e-08
7.189208e-08
7.143146e-08
7.083619e-08
7.011182e-08
6.926521e-08
6.830442e-08
6.723913e-08
6.608002e-08
6.483795e-08
6.352463e-08
6.215298e-08
6.073597e-08
5.928542e-08
5.7814e-08
5.633423e-08
5.48573e-08
5.339491e-08
5.195679e-08
5.055209e-08
4.918932e-08
4.787677e-08
4.662191e-08
4.543088e-08
4.430978e-08
4.326447e-08
4.229881e-08
4.141598e-08
4.061966e-08
3.991222e-08
3.929597e-08
3.877264e-08
3.83445e-08
3.801345e-08
3.777999e-08
3.764723e-08
3.761647e-08
3.768926e-08
3.787111e-08
3.818514e-08
3.856538e-08
8.327985e-09
7.323235e-09
6.358331e-09
5.56324e-09
4.881439e-09
4.293885e-09
3.793831e-09
3.372399e-09
3.022311e-09
2.733877e-09
2.498869e-09
2.30991e-09
2.161522e-09
2.048692e-09
1.964777e-09
1.908058e-09
1.87691e-09
1.868198e-09
1.880594e-09
1.912897e-09
1.964248e-09
2.035651e-09
2.12751e-09
2.240878e-09
2.378081e-09
2.540208e-09
2.727808e-09
2.942212e-09
3.185921e-09
3.461433e-09
3.770837e-09
4.11599e-09
4.499071e-09
4.92212e-09
5.387497e-09
5.897285e-09
6.453477e-09
7.058982e-09
7.716124e-09
8.427183e-09
9.193752e-09
1.001689e-08
1.089882e-08
1.184098e-08
1.284401e-08
1.390877e-08
1.503522e-08
1.622395e-08
1.747613e-08
1.879124e-08
2.016851e-08
2.160703e-08
2.310473e-08
2.466033e-08
2.627239e-08
2.793761e-08
2.965259e-08
3.14143e-08
3.321967e-08
3.506552e-08
3.69474e-08
3.885918e-08
4.079389e-08
4.274521e-08
4.470625e-08
4.666864e-08
4.862371e-08
5.05629e-08
5.247693e-08
5.435611e-08
5.619098e-08
5.797169e-08
5.968746e-08
6.132774e-08
6.288308e-08
6.434427e-08
6.570162e-08
6.694618e-08
6.807047e-08
6.906762e-08
6.993099e-08
7.065498e-08
7.12352e-08
7.166838e-08
7.195241e-08
7.208611e-08
7.206908e-08
7.190196e-08
7.158676e-08
7.112741e-08
7.052935e-08
6.979832e-08
6.894079e-08
6.796488e-08
6.688085e-08
6.570017e-08
6.44345e-08
6.309542e-08
6.169566e-08
6.024926e-08
5.876859e-08
5.72659e-08
5.575425e-08
5.424525e-08
5.275035e-08
5.127981e-08
4.984372e-08
4.845043e-08
4.710825e-08
4.582544e-08
4.46087e-08
4.346381e-08
4.239639e-08
4.141082e-08
4.051044e-08
3.969867e-08
3.897751e-08
3.834888e-08
3.781505e-08
3.737809e-08
3.70394e-08
3.680047e-08
3.666437e-08
3.663148e-08
3.670433e-08
3.688737e-08
3.720464e-08
3.758831e-08
8.150081e-09
7.076216e-09
6.047564e-09
5.207698e-09
4.489088e-09
3.87277e-09
3.35329e-09
2.920031e-09
2.562073e-09
2.267878e-09
2.029634e-09
1.83976e-09
1.690489e-09
1.576203e-09
1.491323e-09
1.434066e-09
1.401547e-09
1.38894e-09
1.395069e-09
1.420654e-09
1.463622e-09
1.523486e-09
1.602783e-09
1.703404e-09
1.825449e-09
1.969111e-09
2.136363e-09
2.329809e-09
2.551636e-09
2.8035e-09
3.087454e-09
3.406181e-09
3.762511e-09
4.158215e-09
4.59525e-09
5.076039e-09
5.603464e-09
6.180912e-09
6.810421e-09
7.493934e-09
8.233255e-09
9.029961e-09
9.886552e-09
1.080428e-08
1.178362e-08
1.282573e-08
1.393106e-08
1.510046e-08
1.633498e-08
1.763398e-08
1.899675e-08
2.042262e-08
2.190979e-08
2.345697e-08
2.506258e-08
2.672324e-08
2.843571e-08
3.019725e-08
3.200542e-08
3.385719e-08
3.574788e-08
3.767145e-08
3.962113e-08
4.159061e-08
4.357292e-08
4.555961e-08
4.754186e-08
4.951093e-08
5.145746e-08
5.337176e-08
5.524402e-08
5.706389e-08
5.882042e-08
6.050289e-08
6.210127e-08
6.360598e-08
6.500739e-08
6.629615e-08
6.746387e-08
6.850288e-08
6.940626e-08
7.016844e-08
7.078454e-08
7.125012e-08
7.156213e-08
7.171937e-08
7.172174e-08
7.156957e-08
7.126409e-08
7.080859e-08
7.020888e-08
6.947181e-08
6.860416e-08
6.761384e-08
6.651112e-08
6.530787e-08
6.401667e-08
6.265019e-08
6.122078e-08
5.974228e-08
5.822806e-08
5.669073e-08
5.514314e-08
5.35976e-08
5.206617e-08
5.05589e-08
4.908618e-08
4.76575e-08
4.628133e-08
4.496609e-08
4.371896e-08
4.254564e-08
4.145173e-08
4.044195e-08
3.951991e-08
3.868865e-08
3.794964e-08
3.730512e-08
3.675761e-08
3.630864e-08
3.595965e-08
3.57133e-08
3.557187e-08
3.553592e-08
3.560744e-08
3.579088e-08
3.611112e-08
3.649887e-08
7.828813e-09
6.688025e-09
5.59998e-09
4.713541e-09
3.95852e-09
3.316184e-09
2.779008e-09
2.33246e-09
1.963966e-09
1.663058e-09
1.421133e-09
1.228147e-09
1.075688e-09
9.590837e-10
8.731382e-10
8.1336e-10
7.759181e-10
7.578111e-10
7.571631e-10
7.734472e-10
8.053829e-10
8.53385e-10
9.195783e-10
1.004993e-09
1.109147e-09
1.232769e-09
1.378826e-09
1.55009e-09
1.748071e-09
1.974301e-09
2.231534e-09
2.522968e-09
2.851291e-09
3.217983e-09
3.625295e-09
4.076318e-09
4.574378e-09
5.122871e-09
5.723679e-09
6.378861e-09
7.090516e-09
7.860422e-09
8.691161e-09
9.584033e-09
1.053961e-08
1.155928e-08
1.264382e-08
1.379422e-08
1.501154e-08
1.629503e-08
1.764404e-08
1.905812e-08
2.053564e-08
2.207529e-08
2.367539e-08
2.533256e-08
2.704375e-08
2.880643e-08
3.061859e-08
3.247752e-08
3.43785e-08
3.631568e-08
3.828244e-08
4.027237e-08
4.227831e-08
4.429189e-08
4.630443e-08
4.830705e-08
5.029003e-08
5.224351e-08
5.415767e-08
5.602178e-08
5.782446e-08
5.955491e-08
6.120276e-08
6.275771e-08
6.420979e-08
6.554962e-08
6.676822e-08
6.785676e-08
6.880738e-08
6.961433e-08
7.02729e-08
7.077792e-08
7.112475e-08
7.131112e-08
7.133713e-08
7.120383e-08
7.091234e-08
7.046498e-08
6.986673e-08
6.912501e-08
6.824793e-08
6.724395e-08
6.612337e-08
6.489804e-08
6.358067e-08
6.218497e-08
6.072411e-08
5.921145e-08
5.766043e-08
5.608486e-08
5.449789e-08
5.291184e-08
5.133945e-08
4.979132e-08
4.827772e-08
4.68088e-08
4.53938e-08
4.404164e-08
4.27598e-08
4.155379e-08
4.042926e-08
3.939106e-08
3.844271e-08
3.758742e-08
3.682653e-08
3.616261e-08
3.559782e-08
3.513373e-08
3.47723e-08
3.45163e-08
3.436757e-08
3.432732e-08
3.439619e-08
3.45798e-08
3.490283e-08
3.529586e-08
7.352996e-09
6.147613e-09
5.000596e-09
4.068513e-09
3.281126e-09
2.614739e-09
2.057929e-09
1.596215e-09
1.217203e-09
9.092145e-10
6.612819e-10
4.631214e-10
3.075164e-10
1.879753e-10
9.822661e-11
3.398775e-11
-9.622116e-12
-3.573169e-11
-4.530519e-11
-3.94842e-11
-1.978519e-11
1.498258e-11
6.635811e-11
1.342516e-10
2.184174e-10
3.206902e-10
4.444096e-10
5.918464e-10
7.64163e-10
9.633562e-10
1.192798e-09
1.455732e-09
1.754629e-09
2.091034e-09
2.467681e-09
2.88813e-09
3.35598e-09
3.874691e-09
4.446046e-09
5.072161e-09
5.755435e-09
6.497983e-09
7.302507e-09
8.170206e-09
9.101763e-09
1.009897e-08
1.116289e-08
1.229456e-08
1.349481e-08
1.476291e-08
1.609848e-08
1.750131e-08
1.896974e-08
2.050232e-08
2.209733e-08
2.375157e-08
2.546217e-08
2.722663e-08
2.904337e-08
3.09101e-08
3.282214e-08
3.47738e-08
3.675876e-08
3.877067e-08
4.08022e-08
4.284484e-08
4.48901e-08
4.692918e-08
4.895213e-08
5.094878e-08
5.290926e-08
5.482258e-08
5.667679e-08
5.846075e-08
6.016421e-08
6.177647e-08
6.328662e-08
6.468465e-08
6.596142e-08