/*--------------------------------*- C++ -*----------------------------------*\
| =========                 |                                                 |
| \\      /  F ield         | OpenFOAM: The Open Source CFD Toolbox           |
|  \\    /   O peration     | Version:  2406                                  |
|   \\  /    A nd           | Website:  www.openfoam.com                      |
|    \\/     M anipulation  |                                                 |
\*---------------------------------------------------------------------------*/
FoamFile
{
    version     2.0;
    format      ascii;
    arch        "LSB;label=32;scalar=64";
    class       surfaceScalarField;
    location    "300";
    object      phi;
}
// * * * * * * * * * * * * * * * * * * * * * * * * * * * * * * * * * * * * * //

dimensions      [0 3 -1 0 0 0 0];

oriented        oriented;

internalField   nonuniform List<scalar> 
32512
(
-1.26896e-09
-1.525693e-09
-4.205977e-10
-8.442545e-10
-8.736429e-12
-4.107518e-10
1.038409e-10
-1.386306e-10
-1.755322e-11
1.05058e-10
-3.201419e-10
3.242972e-10
-7.960181e-10
4.948567e-10
-1.422999e-09
6.283342e-10
-2.176689e-09
7.474095e-10
-3.035573e-09
8.533211e-10
-3.979018e-09
9.400245e-10
-4.986615e-09
1.009806e-09
-6.049405e-09
1.06537e-09
-7.159515e-09
1.108162e-09
-8.307617e-09
1.141589e-09
-9.482736e-09
1.168574e-09
-1.067338e-08
1.190636e-09
-1.187876e-08
1.206727e-09
-1.309852e-08
1.217216e-09
-1.432678e-08
1.224266e-09
-1.556092e-08
1.229647e-09
-1.679855e-08
1.234816e-09
-1.803763e-08
1.239654e-09
-1.927911e-08
1.242863e-09
-2.052419e-08
1.24413e-09
-2.177218e-08
1.244961e-09
-2.302046e-08
1.246069e-09
-2.426807e-08
1.247059e-09
-2.551518e-08
1.248164e-09
-2.676234e-08
1.248676e-09
-2.80099e-08
1.247515e-09
-2.925598e-08
1.244942e-09
-3.049768e-08
1.24129e-09
-3.173371e-08
1.236092e-09
-3.296287e-08
1.229019e-09
-3.418325e-08
1.219983e-09
-3.539304e-08
1.208891e-09
-3.658983e-08
1.195628e-09
-3.777059e-08
1.179863e-09
-3.893237e-08
1.161027e-09
-4.007219e-08
1.138801e-09
-4.118635e-08
1.1132e-09
-4.227124e-08
1.084384e-09
-4.332366e-08
1.052283e-09
-4.43402e-08
1.016339e-09
-4.531698e-08
9.76132e-10
-4.624912e-08
9.316045e-10
-4.71323e-08
8.829286e-10
-4.796271e-08
8.303063e-10
-4.873615e-08
7.736315e-10
-4.944842e-08
7.129048e-10
-5.009511e-08
6.480998e-10
-5.067248e-08
5.789446e-10
-5.117694e-08
5.055236e-10
-5.160391e-08
4.27995e-10
-5.194922e-08
3.463508e-10
-5.220919e-08
2.607497e-10
-5.238014e-08
1.713677e-10
-5.245874e-08
7.863235e-11
-5.244143e-08
-1.68422e-11
-5.232534e-08
-1.14946e-10
-5.210879e-08
-2.157543e-10
-5.178976e-08
-3.189639e-10
-5.136609e-08
-4.239275e-10
-5.083628e-08
-5.298519e-10
-5.019946e-08
-6.363186e-10
-4.945584e-08
-7.432273e-10
-4.860626e-08
-8.499929e-10
-4.765106e-08
-9.557342e-10
-4.659126e-08
-1.059881e-09
-4.542928e-08
-1.161853e-09
-4.416803e-08
-1.26096e-09
-4.281098e-08
-1.356719e-09
-4.136237e-08
-1.448537e-09
-3.982658e-08
-1.535558e-09
-3.820867e-08
-1.617099e-09
-3.651499e-08
-1.692566e-09
-3.475238e-08
-1.76118e-09
-3.292783e-08
-1.822416e-09
-3.104942e-08
-1.876065e-09
-2.912596e-08
-1.921583e-09
-2.716568e-08
-1.958299e-09
-2.517711e-08
-1.985959e-09
-2.31701e-08
-2.004221e-09
-2.115452e-08
-2.012597e-09
-1.913989e-08
-2.011214e-09
-1.713663e-08
-2.000345e-09
-1.515507e-08
-1.97959e-09
-1.320436e-08
-1.948605e-09
-1.129368e-08
-1.907903e-09
-9.432916e-09
-1.85836e-09
-7.631469e-09
-1.800476e-09
-5.89782e-09
-1.734211e-09
-4.239691e-09
-1.659521e-09
-2.663977e-09
-1.577075e-09
-1.177081e-09
-1.488027e-09
2.147207e-10
-1.393167e-09
1.505936e-09
-1.293035e-09
2.692484e-09
-1.188668e-09
3.770867e-09
-1.081034e-09
4.737998e-09
-9.701927e-10
5.591907e-09
-8.561997e-10
6.331073e-09
-7.398175e-10
6.954733e-09
-6.221989e-10
7.46331e-09
-5.048795e-10
7.857135e-09
-3.892608e-10
8.136493e-09
-2.759022e-10
8.30268e-09
-1.6479e-10
8.358844e-09
-5.620791e-11
8.30912e-09
4.901277e-11
8.158001e-09
1.501478e-10
7.910723e-09
2.466269e-10
7.573532e-09
3.373077e-10
7.153389e-09
4.204039e-10
6.656703e-09
4.947978e-10
6.092149e-09
5.602766e-10
5.471145e-09
6.160439e-10
4.805619e-09
6.606375e-10
4.10878e-09
6.927171e-10
3.396813e-09
7.100909e-10
2.687866e-09
7.092269e-10
2.002629e-09
6.866799e-10
1.367126e-09
6.384547e-10
8.135401e-10
5.579691e-10
3.780662e-10
4.372265e-10
9.40022e-11
2.740769e-10
-1.919251e-11
8.715358e-11
-4.459539e-11
-5.035324e-10
-1.020591e-09
-3.474749e-10
-9.829077e-10
-2.460014e-10
-4.650605e-10
-5.174148e-10
1.477605e-10
-1.215042e-09
7.981883e-10
-2.340972e-09
1.427551e-09
-3.858867e-09
2.000909e-09
-5.719892e-09
2.510391e-09
-7.902257e-09
2.947114e-09
-1.036892e-08
3.316086e-09
-1.306643e-08
3.63143e-09
-1.595054e-08
3.897893e-09
-1.899368e-08
4.115478e-09
-2.216835e-08
4.287421e-09
-2.544857e-08
4.422084e-09
-2.881004e-08
4.529449e-09
-3.223248e-08
4.615156e-09
-3.570481e-08
4.680891e-09
-3.921706e-08
4.729e-09
-4.275707e-08
4.763466e-09
-4.631707e-08
4.789359e-09
-4.989165e-08
4.810342e-09
-5.347737e-08
4.826325e-09
-5.707185e-08
4.837637e-09
-6.067151e-08
4.845744e-09
-6.42747e-08
4.850523e-09
-6.787876e-08
4.852143e-09
-7.148025e-08
4.851866e-09
-7.507805e-08
4.84993e-09
-7.867157e-08
4.844657e-09
-8.225822e-08
4.834426e-09
-8.583327e-08
4.819137e-09
-8.939128e-08
4.79906e-09
-9.292785e-08
4.773425e-09
-9.64385e-08
4.741142e-09
-9.991752e-08
4.701202e-09
-1.03359e-07
4.652175e-09
-1.067561e-07
4.592938e-09
-1.10101e-07
4.52336e-09
-1.133846e-07
4.443265e-09
-1.165983e-07
4.351745e-09
-1.197325e-07
4.247723e-09
-1.227778e-07
4.130469e-09
-1.257246e-07
3.999561e-09
-1.285626e-07
3.854268e-09
-1.312809e-07
3.693829e-09
-1.338676e-07
3.518093e-09
-1.363113e-07
3.327145e-09
-1.38601e-07
3.120972e-09
-1.407249e-07
2.899186e-09
-1.426718e-07
2.661422e-09
-1.444304e-07
2.408027e-09
-1.459895e-07
2.139366e-09
-1.473388e-07
1.855575e-09
-1.484672e-07
1.556909e-09
-1.493641e-07
1.243631e-09
-1.500201e-07
9.164847e-10
-1.504256e-07
5.766236e-10
-1.505717e-07
2.248955e-10
-1.504506e-07
-1.378377e-10
-1.500554e-07
-5.105291e-10
-1.493806e-07
-8.920289e-10
-1.484209e-07
-1.280716e-09
-1.471717e-07
-1.67483e-09
-1.456302e-07
-2.072831e-09
-1.437957e-07
-2.472951e-09
-1.416684e-07
-2.873258e-09
-1.392498e-07
-3.271826e-09
-1.365427e-07
-3.666299e-09
-1.335511e-07
-4.054222e-09
-1.302819e-07
-4.433617e-09
-1.267436e-07
-4.802388e-09
-1.229458e-07
-5.157934e-09
-1.188999e-07
-5.497767e-09
-1.14619e-07
-5.819626e-09
-1.101175e-07
-6.121093e-09
-1.05412e-07
-6.399808e-09
-1.005211e-07
-6.653651e-09
-9.546415e-08
-6.880565e-09
-9.026188e-08
-7.078752e-09
-8.493703e-08
-7.246684e-09
-7.951292e-08
-7.382708e-09
-7.401296e-08
-7.485273e-09
-6.846232e-08
-7.553289e-09
-6.288742e-08
-7.585925e-09
-5.731402e-08
-7.582731e-09
-5.176808e-08
-7.543786e-09
-4.62764e-08
-7.469262e-09
-4.086505e-08
-7.359297e-09
-3.55591e-08
-7.214256e-09
-3.038338e-08
-7.034947e-09
-2.536187e-08
-6.822895e-09
-2.051747e-08
-6.580008e-09
-1.587213e-08
-6.307765e-09
-1.144576e-08
-6.007654e-09
-7.255962e-09
-5.682271e-09
-3.319388e-09
-5.334631e-09
3.483239e-10
-4.966636e-09
3.734805e-09
-4.57999e-09
6.830384e-09
-4.177828e-09
9.626103e-09
-3.763768e-09
1.211482e-08
-3.340756e-09
1.429149e-08
-2.911589e-09
1.615323e-08
-2.479316e-09
1.770016e-08
-2.047203e-09
1.893417e-08
-1.618257e-09
1.985818e-08
-1.194714e-09
2.047653e-08
-7.785013e-10
2.079666e-08
-3.720816e-10
2.082891e-08
2.121691e-11
2.058503e-08
3.979232e-10
2.007827e-08
7.550068e-10
1.93243e-08
1.089661e-09
1.834286e-08
1.398725e-09
1.715482e-08
1.678578e-09
1.578337e-08
1.92616e-09
1.425716e-08
2.138034e-09
1.260868e-08
2.308396e-09
1.087336e-08
2.429734e-09
9.092538e-09
2.494023e-09
7.314249e-09
2.491572e-09
5.591772e-09
2.411302e-09
3.984712e-09
2.243093e-09
2.561204e-09
1.978684e-09
1.398515e-09
1.609819e-09
5.72647e-10
1.131685e-09
1.323025e-10
5.705176e-10
7.091861e-11
-2.069067e-10
-8.138667e-10
-4.497785e-10
-7.81976e-10
-9.070721e-10
-1.344868e-11
-1.795699e-09
1.082528e-09
-3.252532e-09
2.278308e-09
-5.304992e-09
3.465387e-09
-7.913278e-09
4.597954e-09
-1.103255e-08
5.630712e-09
-1.462188e-08
6.536818e-09
-1.862377e-08
7.31967e-09
-2.298064e-08
7.988062e-09
-2.763779e-08
8.551999e-09
-3.254892e-08
9.01901e-09
-3.766732e-08
9.398839e-09
-4.29514e-08
9.704465e-09
-4.83691e-08
9.947415e-09
-5.38944e-08
1.013842e-08
-5.950613e-08
1.02869e-08
-6.518438e-08
1.040002e-08
-7.090941e-08
1.048503e-08
-7.666898e-08
1.054924e-08
-8.245636e-08
1.059739e-08
-8.82642e-08
1.063201e-08
-9.408546e-08
1.065617e-08
-9.991454e-08
1.067204e-08
-1.057469e-07
1.067997e-08
-1.115767e-07
1.068109e-08
-1.173991e-07
1.067661e-08
-1.23212e-07
1.066515e-08
-1.290124e-07
1.064466e-08
-1.347939e-07
1.061411e-08
-1.405485e-07
1.057249e-08
-1.462689e-07
1.051874e-08
-1.519476e-07
1.04519e-08
-1.575767e-07
1.037017e-08
-1.63147e-07
1.027105e-08
-1.686484e-07
1.015219e-08
-1.740687e-07
1.001192e-08
-1.793954e-07
9.849092e-09
-1.846153e-07
9.66236e-09
-1.897146e-07
9.45017e-09
-1.946784e-07
9.211197e-09
-1.994914e-07
8.943978e-09
-2.041386e-07
8.646831e-09
-2.086036e-07
8.318453e-09
-2.128691e-07
7.958235e-09
-2.169174e-07
7.566137e-09
-2.207309e-07
7.141646e-09
-2.242928e-07
6.683875e-09
-2.275853e-07
6.192667e-09
-2.305905e-07
5.668303e-09
-2.332913e-07
5.111152e-09
-2.356712e-07
4.521578e-09
-2.377142e-07
3.899937e-09
-2.394041e-07
3.247323e-09
-2.40725e-07
2.565256e-09
-2.416627e-07
1.855073e-09
-2.422036e-07
1.118445e-09
-2.423348e-07
3.572859e-10
-2.420452e-07
-4.263658e-10
-2.41325e-07
-1.229956e-09
-2.401659e-07
-2.050742e-09
-2.385608e-07
-2.88576e-09
-2.36504e-07
-3.731373e-09
-2.339926e-07
-4.583895e-09
-2.310256e-07
-5.439826e-09
-2.276043e-07
-6.295071e-09
-2.237317e-07
-7.145098e-09
-2.194128e-07
-7.985461e-09
-2.146555e-07
-8.811491e-09
-2.094706e-07
-9.618362e-09
-2.038713e-07
-1.040147e-08
-1.97873e-07
-1.115598e-08
-1.91494e-07
-1.187658e-08
-1.847544e-07
-1.255833e-08
-1.776769e-07
-1.319671e-08
-1.702874e-07
-1.3787e-08
-1.62614e-07
-1.432453e-08
-1.546864e-07
-1.480523e-08
-1.465365e-07
-1.522547e-08
-1.381983e-07
-1.558156e-08
-1.297073e-07
-1.587001e-08
-1.210997e-07
-1.608818e-08
-1.124136e-07
-1.623418e-08
-1.036886e-07
-1.630633e-08
-9.496414e-08
-1.630344e-08
-8.627949e-08
-1.62252e-08
-7.767462e-08
-1.607153e-08
-6.918897e-08
-1.58426e-08
-6.086092e-08
-1.553988e-08
-5.272851e-08
-1.516597e-08
-4.482847e-08
-1.472348e-08
-3.719519e-08
-1.421525e-08
-2.986188e-08
-1.364462e-08
-2.286014e-08
-1.301509e-08
-1.621794e-08
-1.23305e-08
-9.959915e-09
-1.159606e-08
-4.109733e-09
-1.081789e-08
1.31134e-09
-1.000183e-08
6.286499e-09
-9.153688e-09
1.080198e-08
-8.279641e-09
1.48465e-08
-7.385782e-09
1.841158e-08
-6.478034e-09
2.149209e-08
-5.561946e-09
2.408735e-08
-4.643082e-09
2.620012e-08
-3.72793e-09
2.783496e-08
-2.823619e-09
2.899816e-08
-1.936549e-09
2.969996e-08
-1.071882e-09
2.995534e-08
-2.348844e-10
2.978234e-08
5.681746e-10
2.920184e-08
1.330598e-09
2.823795e-08
2.046083e-09
2.692044e-08
2.708658e-09
2.528287e-08
3.310952e-09
2.336161e-08
3.843979e-09
2.119843e-08
4.298254e-09
1.884179e-08
4.663013e-09
1.634627e-08
4.924895e-09
1.377323e-08
5.06823e-09
1.119272e-08
5.074789e-09
8.683336e-09
4.92371e-09
6.330085e-09
4.594702e-09
4.220505e-09
4.073223e-09
2.445924e-09
3.355593e-09
1.103955e-09
2.451982e-09
2.942489e-10
1.403068e-09
3.610889e-10
-2.058733e-10
-5.824949e-10
-7.795537e-10
-2.340162e-10
-1.828286e-09
1.020475e-09
-3.479761e-09
2.738066e-09
-5.822014e-09
4.630654e-09
-8.872888e-09
6.533922e-09
-1.262344e-08
8.351254e-09
-1.702465e-08
1.002405e-08
-2.201048e-08
1.152081e-08
-2.751587e-08
1.283046e-08
-3.347608e-08
1.39574e-08
-3.983016e-08
1.491098e-08
-4.651924e-08
1.570478e-08
-5.348261e-08
1.635819e-08
-6.066914e-08
1.689128e-08
-6.803762e-08
1.731987e-08
-7.555417e-08
1.765833e-08
-8.31911e-08
1.792118e-08
-9.092063e-08
1.812326e-08
-9.871607e-08
1.827883e-08
-1.065614e-07
1.839718e-08
-1.144467e-07
1.848416e-08
-1.223596e-07
1.854548e-08
-1.302896e-07
1.858599e-08
-1.38229e-07
1.860957e-08
-1.461691e-07
1.861904e-08
-1.541012e-07
1.861562e-08
-1.620196e-07
1.859892e-08
-1.699199e-07
1.856724e-08
-1.77795e-07
1.851888e-08
-1.856358e-07
1.845273e-08
-1.934311e-07
1.836725e-08
-2.011703e-07
1.825992e-08
-2.088434e-07
1.812782e-08
-2.164397e-07
1.796794e-08
-2.239462e-07
1.777724e-08
-2.313479e-07
1.755284e-08
-2.386283e-07
1.729186e-08
-2.457707e-07
1.699152e-08
-2.527576e-07
1.664949e-08
-2.595702e-07
1.626362e-08
-2.66189e-07
1.583141e-08
-2.725944e-07
1.535014e-08
-2.787658e-07
1.481764e-08
-2.846809e-07
1.423279e-08
-2.90317e-07
1.359455e-08
-2.956517e-07
1.290166e-08
-3.006632e-07
1.215326e-08
-3.053285e-07
1.134896e-08
-3.096245e-07
1.048902e-08
-3.135285e-07
9.57372e-09
-3.170191e-07
8.60318e-09
-3.200754e-07
7.578361e-09
-3.226763e-07
6.500911e-09
-3.248013e-07
5.372657e-09
-3.264314e-07
4.195757e-09
-3.275488e-07
2.972559e-09
-3.281365e-07
1.706065e-09
-3.281793e-07
4.000378e-10
-3.276633e-07
-9.419631e-10
-3.265769e-07
-2.31618e-09
-3.249108e-07
-3.717655e-09
-3.226565e-07
-5.140862e-09
-3.198081e-07
-6.580195e-09
-3.163631e-07
-8.029595e-09
-3.123214e-07
-9.482722e-09
-3.076852e-07
-1.093292e-08
-3.024598e-07
-1.237275e-08
-2.966526e-07
-1.379446e-08
-2.902749e-07
-1.519063e-08
-2.833417e-07
-1.655358e-08
-2.758705e-07
-1.787505e-08
-2.678816e-07
-1.914685e-08
-2.593994e-07
-2.036087e-08
-2.504507e-07
-2.150894e-08
-2.41065e-07
-2.258325e-08
-2.312758e-07
-2.357648e-08
-2.211197e-07
-2.44812e-08
-2.106352e-07
-2.529008e-08
-1.99863e-07
-2.59969e-08
-1.888468e-07
-2.659638e-08
-1.776323e-07
-2.708325e-08
-1.662665e-07
-2.745252e-08
-1.547978e-07
-2.770073e-08
-1.432768e-07
-2.782546e-08
-1.317543e-07
-2.782457e-08
-1.202802e-07
-2.769708e-08
-1.089054e-07
-2.744368e-08
-9.768121e-08
-2.706568e-08
-8.665752e-08
-2.656465e-08
-7.588257e-08
-2.594331e-08
-6.540323e-08
-2.520567e-08
-5.52642e-08
-2.435675e-08
-4.550803e-08
-2.340235e-08
-3.617549e-08
-2.2349e-08
-2.730419e-08
-2.120392e-08
-1.892747e-08
-1.997527e-08
-1.107571e-08
-1.867215e-08
-3.7766e-09
-1.730377e-08
2.946787e-09
-1.587962e-08
9.075515e-09
-1.440996e-08
1.459433e-08
-1.290512e-08
1.949206e-08
-1.137505e-08
2.376141e-08
-9.829582e-09
2.739951e-08
-8.278785e-09
3.040798e-08
-6.733338e-09
3.27927e-08
-5.204356e-09
3.456286e-08
-3.702672e-09
3.573129e-08
-2.238182e-09
3.631584e-08
-8.203022e-10
3.633909e-08
5.413121e-10
3.582862e-08
1.836484e-09
3.481659e-08
3.054041e-09
3.334045e-08
4.182064e-09
3.144272e-08
5.207639e-09
2.917124e-08
6.116005e-09
2.658005e-08
6.890772e-09
2.373015e-08
7.513901e-09
2.069029e-08
7.964759e-09
1.753686e-08
8.220017e-09
1.435526e-08
8.254146e-09
1.124204e-08
8.039042e-09
8.302685e-09
7.544686e-09
5.6441e-09
6.744474e-09
3.369422e-09
5.628414e-09
1.585832e-09
4.215483e-09
4.364602e-10
2.559651e-09
7.991405e-10
-3.175624e-10
-2.539965e-10
-1.251746e-09
7.372993e-10
-2.933935e-09
2.693359e-09
-5.410744e-09
5.193515e-09
-8.709159e-09
7.928321e-09
-1.283208e-08
1.067649e-08
-1.776851e-08
1.329486e-08
-2.346377e-08
1.571294e-08
-2.98434e-08
1.789474e-08
-3.683171e-08
1.982211e-08
-4.435873e-08
2.149e-08
-5.235564e-08
2.290716e-08
-6.075194e-08
2.409624e-08
-6.947848e-08
2.508367e-08
-7.848002e-08
2.589423e-08
-8.770836e-08
2.654931e-08
-9.712107e-08
2.706956e-08
-1.066821e-07
2.747748e-08
-1.163569e-07
2.779487e-08
-1.261166e-07
2.803944e-08
-1.35942e-07
2.822403e-08
-1.458177e-07
2.835864e-08
-1.557268e-07
2.845228e-08
-1.656548e-07
2.851194e-08
-1.755904e-07
2.854324e-08
-1.85523e-07
2.855085e-08
-1.954412e-07
2.853607e-08
-2.053373e-07
2.849714e-08
-2.152032e-07
2.843257e-08
-2.250281e-07
2.834148e-08
-2.347997e-07
2.822201e-08
-2.445044e-07
2.807117e-08
-2.541287e-07
2.788532e-08
-2.636594e-07
2.766029e-08
-2.730821e-07
2.739166e-08
-2.823799e-07
2.707496e-08
-2.915341e-07
2.670602e-08
-3.005244e-07
2.628111e-08
-3.093294e-07
2.579662e-08
-3.179271e-07
2.52488e-08
-3.262953e-07
2.463373e-08
-3.344107e-07
2.394775e-08
-3.422486e-07
2.318792e-08
-3.497829e-07
2.235179e-08
-3.569871e-07
2.143728e-08
-3.638345e-07
2.044254e-08
-3.702984e-07
1.936603e-08
-3.763521e-07
1.820714e-08
-3.819683e-07
1.696573e-08
-3.871197e-07
1.564169e-08
-3.917805e-07
1.423551e-08
-3.95925e-07
1.274829e-08
-3.995282e-07
1.118199e-08
-4.025661e-07
9.539131e-09
-4.05015e-07
7.82218e-09
-4.068536e-07
6.034399e-09
-4.080612e-07
4.180173e-09
-4.086185e-07
2.264142e-09
-4.08509e-07
2.91291e-10
-4.077178e-07
-1.732723e-09
-4.062317e-07
-3.801753e-09
-4.040406e-07
-5.908581e-09
-4.011363e-07
-8.044919e-09
-3.975131e-07
-1.020248e-08
-3.931696e-07
-1.237274e-08
-3.881068e-07
-1.454601e-08
-3.823283e-07
-1.671191e-08
-3.758413e-07
-1.886004e-08
-3.686567e-07
-2.097954e-08
-3.607887e-07
-2.305896e-08
-3.522558e-07
-2.508685e-08
-3.430796e-07
-2.705164e-08
-3.332854e-07
-2.894134e-08
-3.229022e-07
-3.074409e-08
-3.119628e-07
-3.244833e-08
-3.005031e-07
-3.404261e-08
-2.885626e-07
-3.551579e-08
-2.761845e-07
-3.685756e-08
-2.634152e-07
-3.805803e-08
-2.503035e-07
-3.910765e-08
-2.369003e-07
-3.999786e-08
-2.232595e-07
-4.072144e-08
-2.094372e-07
-4.1272e-08
-1.954911e-07
-4.164413e-08
-1.814799e-07
-4.183392e-08
-1.674638e-07
-4.183877e-08
-1.535028e-07
-4.165724e-08
-1.396568e-07
-4.128943e-08
-1.259855e-07
-4.073689e-08
-1.125483e-07
-4.000234e-08
-9.940261e-08
-3.908994e-08
-8.660438e-08
-3.800532e-08
-7.420685e-08
-3.675557e-08
-6.226086e-08
-3.534931e-08
-5.081503e-08
-3.379641e-08
-3.991486e-08
-3.210748e-08
-2.960107e-08
-3.029368e-08
-1.991018e-08
-2.836737e-08
-1.08756e-08
-2.6342e-08
-2.526231e-09
-2.423174e-08
5.114195e-09
-2.205154e-08
1.202667e-08
-1.981694e-08
1.819704e-08
-1.754345e-08
2.361559e-08
-1.524619e-08
2.827739e-08
-1.293999e-08
3.218284e-08
-1.063994e-08
3.533825e-08
-8.361617e-09
3.775491e-08
-6.120748e-09
3.944818e-08
-3.932769e-09
4.043883e-08
-1.812678e-09
4.075305e-08
2.245818e-10
4.042275e-08
2.163701e-09
3.948604e-08
3.987978e-09
3.798726e-08
5.679107e-09
3.597633e-08
7.217722e-09
3.351007e-08
8.582656e-09
3.065271e-08
9.749932e-09
2.747564e-08
1.069292e-08
2.405871e-08
1.13825e-08
2.049047e-08
1.178652e-08
1.686769e-08
1.187101e-08
1.329745e-08
1.1601e-08
9.897926e-09
1.094024e-08
6.795502e-09
9.853735e-09
4.115315e-09
8.319102e-09
1.97719e-09
6.346363e-09
5.515667e-10
3.986552e-09
1.353007e-09
-4.645154e-10
2.076816e-10
-1.826654e-09
2.127843e-09
-4.166853e-09
5.033605e-09
-7.485045e-09
8.511745e-09
-1.177969e-08
1.222346e-08
-1.702716e-08
1.592259e-08
-2.318161e-08
1.945117e-08
-3.018023e-08
2.271668e-08
-3.79476e-08
2.566832e-08
-4.640451e-08
2.828199e-08
-5.547143e-08
3.055388e-08
-6.506597e-08
3.249848e-08
-7.511099e-08
3.414149e-08
-8.553411e-08
3.551187e-08
-9.627739e-08
3.664013e-08
-1.072862e-07
3.755553e-08
-1.185085e-07
3.828793e-08
-1.299018e-07
3.886799e-08
-1.414281e-07
3.93218e-08
-1.530561e-07
3.967024e-08
-1.647629e-07
3.99317e-08
-1.765278e-07
4.012127e-08
-1.883303e-07
4.025087e-08
-2.001513e-07
4.033052e-08
-2.11976e-07
4.03681e-08
-2.237922e-07
4.036814e-08
-2.355872e-07
4.03318e-08
-2.473488e-07
4.025842e-08
-2.590647e-07
4.014717e-08
-2.707211e-07
3.999628e-08
-2.823031e-07
3.980254e-08
-2.937944e-07
3.956204e-08
-3.051781e-07
3.927027e-08
-3.16438e-07
3.892165e-08
-3.275561e-07
3.850999e-08
-3.385115e-07
3.802959e-08
-3.492816e-07
3.747526e-08
-3.598424e-07
3.684191e-08
-3.701687e-07
3.612427e-08
-3.80235e-07
3.531711e-08
-3.900153e-07
3.441562e-08
-3.99482e-07
3.341537e-08
-4.086061e-07
3.231246e-08
-4.173575e-07
3.110361e-08
-4.257059e-07
2.978603e-08
-4.33621e-07
2.835777e-08
-4.41072e-07
2.681741e-08
-4.480285e-07
2.516405e-08
-4.544598e-07
2.339751e-08
-4.603358e-07
2.151807e-08
-4.656271e-07
1.9527e-08
-4.70305e-07
1.742653e-08
-4.743418e-07
1.521921e-08
-4.777114e-07
1.290838e-08
-4.803883e-07
1.049833e-08
-4.823483e-07
7.994029e-09
-4.835699e-07
5.401409e-09
-4.840325e-07
2.727051e-09
-4.837188e-07
-2.224476e-11
-4.826133e-07
-2.838598e-09
-4.807024e-07
-5.712796e-09
-4.779756e-07
-8.634986e-09
-4.744257e-07
-1.159454e-08
-4.700483e-07
-1.457977e-08
-4.648424e-07
-1.75786e-08
-4.588106e-07
-2.057828e-08
-4.519587e-07
-2.356485e-08
-4.442961e-07
-2.652367e-08
-4.358359e-07
-2.944026e-08
-4.265958e-07
-3.229967e-08
-4.165977e-07
-3.508608e-08
-4.058665e-07
-3.778353e-08
-3.944318e-07
-4.037641e-08
-3.823272e-07
-4.284905e-08
-3.695901e-07
-4.518566e-08
-3.562616e-07
-4.737088e-08
-3.423869e-07
-4.938996e-08
-3.28015e-07
-5.122885e-08
-3.131978e-07
-5.287419e-08
-2.979907e-07
-5.431348e-08
-2.824516e-07
-5.553534e-08
-2.666412e-07
-5.652983e-08
-2.506227e-07
-5.728834e-08
-2.344611e-07
-5.780372e-08
-2.182227e-07
-5.807064e-08
-2.019752e-07
-5.808541e-08
-1.857864e-07
-5.784579e-08
-1.697239e-07
-5.735162e-08
-1.538552e-07
-5.660507e-08
-1.382471e-07
-5.561015e-08
-1.229651e-07
-5.437238e-08
-1.080725e-07
-5.289902e-08
-9.363048e-08
-5.119939e-08
-7.969709e-08
-4.928483e-08
-6.632746e-08
-4.716829e-08
-5.357325e-08
-4.486403e-08
-4.148172e-08
-4.238744e-08
-3.009553e-08
-3.97551e-08
-1.945346e-08
-3.69849e-08
-9.589509e-09
-3.409603e-08
-5.320194e-10
-3.110878e-08
7.696136e-09
-2.804431e-08
1.507795e-08
-2.4924e-08
2.160173e-08
-2.176882e-08
2.726076e-08
-1.859921e-08
3.205413e-08
-1.543563e-08
3.598783e-08
-1.2299e-08
3.907429e-08
-9.210511e-09
4.13309e-08
-6.191423e-09
4.278099e-08
-3.263135e-09
4.345397e-08
-4.47476e-10
4.338483e-08
2.233514e-09
4.261586e-08
4.757056e-09
4.119731e-08
7.098387e-09
3.918552e-08
9.230622e-09
3.66439e-08
1.1125e-08
3.364445e-08
1.275e-08
3.026726e-08
1.407091e-08
2.660104e-08
1.504971e-08
2.274458e-08
1.564462e-08
1.880484e-08
1.581122e-08
1.489706e-08
1.55048e-08
1.114702e-08
1.468243e-08
7.694441e-09
1.330297e-08
4.689522e-09
1.133272e-08
2.274155e-09
8.762324e-09
6.38611e-10
5.622896e-09
1.99288e-09
-6.254641e-10
8.167183e-10
-2.450987e-09
3.948853e-09
-5.460343e-09
8.061957e-09
-9.640218e-09
1.270362e-08
-1.495436e-08
1.753318e-08
-2.134136e-08
2.230117e-08
-2.872868e-08
2.683921e-08
-3.704054e-08
3.103604e-08
-4.619485e-08
3.48295e-08
-5.610552e-08
3.819227e-08
-6.668213e-08
4.112556e-08
-7.783418e-08
4.364895e-08
-8.948092e-08
4.579024e-08
-1.015457e-07
4.75826e-08
-1.139671e-07
4.906195e-08
-1.266837e-07
5.026719e-08
-1.396362e-07
5.123788e-08
-1.527794e-07
5.201061e-08
-1.660731e-07
5.26163e-08
-1.794813e-07
5.308101e-08
-1.929775e-07
5.342816e-08
-2.065376e-07
5.36777e-08
-2.201362e-07
5.384533e-08
-2.337508e-07
5.394392e-08
-2.473643e-07
5.398292e-08
-2.609628e-07
5.396708e-08
-2.745304e-07
5.389812e-08
-2.880505e-07
5.377665e-08
-3.015075e-07
5.360179e-08
-3.148848e-07
5.3371e-08
-3.281643e-07
5.30804e-08
-3.413266e-07
5.272469e-08
-3.543523e-07
5.229738e-08
-3.672219e-07
5.179159e-08
-3.799134e-07
5.120049e-08
-3.924021e-07
5.051723e-08
-4.046619e-07
4.973467e-08
-4.166653e-07
4.884585e-08
-4.283838e-07
4.784432e-08
-4.397883e-07
4.672385e-08
-4.508493e-07
4.547848e-08
-4.615354e-07
4.410262e-08
-4.718138e-07
4.259148e-08
-4.816511e-07
4.094136e-08
-4.910132e-07
3.914918e-08
-4.998671e-07
3.721252e-08
-5.081788e-07
3.512991e-08
-5.159147e-07
3.290051e-08
-5.230418e-07
3.052463e-08
-5.295268e-07
2.800351e-08
-5.353383e-07
2.533895e-08
-5.404456e-07
2.253403e-08
-5.448191e-07
1.959273e-08
-5.48431e-07
1.651972e-08
-5.512544e-07
1.332095e-08
-5.532641e-07
1.000352e-08
-5.544377e-07
6.575072e-09
-5.547547e-07
3.044201e-09
-5.541972e-07
-5.796115e-10
-5.527496e-07
-4.286066e-09
-5.503987e-07
-8.063384e-09
-5.471346e-07
-1.189832e-08
-5.429509e-07
-1.577707e-08
-5.378446e-07
-1.968516e-08
-5.318164e-07
-2.360672e-08
-5.248697e-07
-2.752481e-08
-5.170123e-07
-3.142188e-08
-5.082564e-07
-3.52796e-08
-4.986176e-07
-3.907901e-08
-4.881158e-07
-4.280084e-08
-4.767759e-07
-4.642539e-08
-4.646267e-07
-4.993245e-08
-4.517008e-07
-5.330177e-08
-4.380355e-07
-5.651346e-08
-4.236724e-07
-5.954786e-08
-4.08657e-07
-6.238534e-08
-3.930391e-07
-6.500678e-08
-3.768723e-07
-6.739429e-08
-3.602134e-07
-6.953135e-08
-3.431231e-07
-7.140217e-08
-3.256651e-07
-7.299185e-08
-3.079057e-07
-7.428736e-08
-2.899139e-07
-7.527802e-08
-2.71761e-07
-7.595497e-08
-2.535194e-07
-7.631092e-08
-2.35263e-07
-7.634075e-08
-2.170662e-07
-7.604189e-08
-1.990036e-07
-7.541415e-08
-1.811492e-07
-7.445977e-08
-1.635762e-07
-7.31835e-08
-1.463564e-07
-7.15926e-08
-1.295601e-07
-6.969646e-08
-1.132552e-07
-6.750647e-08
-9.750606e-08
-6.503633e-08
-8.237367e-08
-6.230226e-08
-6.791528e-08
-5.932276e-08
-5.418375e-08
-5.611813e-08
-4.122729e-08
-5.270992e-08
-2.908989e-08
-4.912087e-08
-1.781043e-08
-4.53752e-08
-7.421395e-09
-4.149869e-08
2.050886e-09
-3.751822e-08
1.058647e-08
-3.346126e-08
1.81717e-08
-2.935539e-08
2.479833e-08
-2.522766e-08
3.046408e-08
-2.110466e-08
3.517439e-08
-1.701343e-08
3.894216e-08
-1.298166e-08
4.178599e-08
-9.037231e-09
4.373085e-08
-5.208219e-09
4.480906e-08
-1.523622e-09
4.505874e-08
1.986747e-09
4.452522e-08
5.292758e-09
4.326291e-08
8.362843e-09
4.133367e-08
1.116232e-08
3.880664e-08
1.365374e-08
3.575995e-08
1.579724e-08
3.228035e-08
1.754964e-08
2.846317e-08
1.886411e-08
2.441518e-08
1.969029e-08
2.025261e-08
1.997368e-08
1.610051e-08
1.965764e-08
1.209174e-08
1.868776e-08
8.374331e-09
1.701421e-08
5.117557e-09
1.459236e-08
2.49008e-09
1.139157e-08
7.007142e-10
7.413299e-09
2.693639e-09
-7.882277e-10
1.601901e-09
-3.074368e-09
6.229199e-09
-6.7767e-09
1.177395e-08
-1.183153e-08
1.776702e-08
-1.81684e-08
2.386896e-08
-2.569416e-08
2.982755e-08
-3.431843e-08
3.546631e-08
-4.394619e-08
4.066858e-08
-5.448267e-08
4.53672e-08
-6.582881e-08
4.953728e-08
-7.788561e-08
5.318264e-08
-9.055943e-08
5.632566e-08
-1.037658e-07
5.899939e-08
-1.174236e-07
6.124339e-08
-1.31465e-07
6.310143e-08
-1.458227e-07
6.462159e-08
-1.604343e-07
6.585108e-08
-1.752529e-07
6.683147e-08
-1.902359e-07
6.759976e-08
-2.053427e-07
6.818925e-08
-2.205431e-07
6.862824e-08
-2.358098e-07
6.894031e-08
-2.511134e-07
6.91455e-08
-2.664287e-07
6.925965e-08
-2.817373e-07
6.929315e-08
-2.970222e-07
6.925149e-08
-3.122637e-07
6.913739e-08
-3.274417e-07
6.895212e-08
-3.425373e-07
6.869486e-08
-3.57531e-07
6.83626e-08
-3.72402e-07
6.795015e-08
-3.871281e-07
6.745068e-08
-4.016866e-07
6.685636e-08
-4.160541e-07
6.615926e-08
-4.302053e-07
6.535114e-08
-4.441127e-07
6.442347e-08
-4.577466e-07
6.336763e-08
-4.710755e-07
6.217538e-08
-4.840679e-07
6.083895e-08
-4.966918e-07
5.935053e-08
-5.089146e-07
5.770286e-08
-5.207013e-07
5.588979e-08
-5.320155e-07
5.390611e-08
-5.428209e-07
5.174753e-08
-5.53081e-07
4.941046e-08
-5.6276e-07
4.689215e-08
-5.718212e-07
4.419151e-08
-5.802286e-07
4.130841e-08
-5.879471e-07
3.824337e-08
-5.949421e-07
3.499841e-08
-6.011801e-07
3.157674e-08
-6.066288e-07
2.79825e-08
-6.11258e-07
2.422112e-08
-6.150386e-07
2.029912e-08
-6.179429e-07
1.622419e-08
-6.199458e-07
1.200562e-08
-6.210245e-07
7.653514e-09
-6.211589e-07
3.178378e-09
-6.203316e-07
-1.407906e-09
-6.185269e-07
-6.091627e-09
-6.157323e-07
-1.085793e-08
-6.119393e-07
-1.569096e-08
-6.071427e-07
-2.05736e-08
-6.013407e-07
-2.548743e-08
-5.945351e-07
-3.041292e-08
-5.867314e-07
-3.532929e-08
-5.77939e-07
-4.021479e-08
-5.681721e-07
-4.504703e-08
-5.574487e-07
-4.980295e-08
-5.457911e-07
-5.44587e-08
-5.332264e-07
-5.899001e-08
-5.197861e-07
-6.337247e-08
-5.055062e-07
-6.75816e-08
-4.904269e-07
-7.159276e-08
-4.745928e-07
-7.538153e-08
-4.580527e-07
-7.892419e-08
-4.408606e-07
-8.219782e-08
-4.230742e-07
-8.518029e-08
-4.04754e-07
-8.785071e-08
-3.859646e-07
-9.01899e-08
-3.667744e-07
-9.218016e-08
-3.47255e-07
-9.380529e-08
-3.274803e-07
-9.505145e-08
-3.075262e-07
-9.590759e-08
-2.874703e-07
-9.636515e-08
-2.673923e-07
-9.641775e-08
-2.473721e-07
-9.606169e-08
-2.274902e-07
-9.529641e-08
-2.078263e-07
-9.412441e-08
-1.884594e-07
-9.255117e-08
-1.694671e-07
-9.05852e-08
-1.509251e-07
-8.823792e-08
-1.329072e-07
-8.55235e-08
-1.15484e-07
-8.245882e-08
-9.872227e-08
-7.906335e-08
-8.268457e-08
-7.535918e-08
-6.742865e-08
-7.137117e-08
-5.300737e-08
-6.712667e-08
-3.946953e-08
-6.265449e-08
-2.685868e-08
-5.798437e-08
-1.521136e-08
-5.314714e-08
-4.557008e-09
-4.817513e-08
5.081472e-09
-4.310223e-08
1.368816e-08
-3.796358e-08
2.125345e-08
-3.279411e-08
2.777377e-08
-2.762737e-08
3.325362e-08
-2.249666e-08
3.770601e-08
-1.743647e-08
4.115054e-08
-1.248231e-08
4.361307e-08
-7.669909e-09
4.512784e-08
-3.035641e-09
4.573619e-08
1.382747e-09
4.548639e-08
5.546654e-09
4.443557e-08
9.416729e-09
4.264966e-08
1.295054e-08
4.02031e-08
1.610197e-08
3.717935e-08
1.882203e-08
3.367071e-08
2.105812e-08
2.977845e-08
2.275396e-08
2.561486e-08
2.384987e-08
2.130301e-08
2.428187e-08
1.697785e-08
2.398248e-08
1.278225e-08
2.288318e-08
8.871753e-09
2.092039e-08
5.427602e-09
1.803538e-08
2.642621e-09
1.417655e-08
7.429562e-10
9.312819e-09
3.435755e-09
-9.513432e-10
2.565472e-09
-3.690385e-09
8.965274e-09
-8.090434e-09
1.6161e-08
-1.401851e-08
2.369836e-08
-2.137299e-08
3.122669e-08
-3.003353e-08
3.849573e-08
-3.988911e-08
4.532601e-08
-5.08258e-08
5.16039e-08
-6.272983e-08
5.726802e-08
-7.549005e-08
6.229678e-08
-8.900005e-08
6.66966e-08
-1.031622e-07
7.04939e-08
-1.178882e-07
7.372781e-08
-1.330919e-07
7.644664e-08
-1.486982e-07
7.870517e-08
-1.646363e-07
8.055893e-08
-1.808428e-07
8.206073e-08
-1.972687e-07
8.325938e-08
-2.138676e-07
8.419904e-08
-2.305964e-07
8.491861e-08
-2.474216e-07
8.545148e-08
-2.64312e-07
8.582618e-08
-2.812351e-07
8.606669e-08
-2.981644e-07
8.619058e-08
-3.150796e-07
8.620906e-08
-3.319606e-07
8.61294e-08
-3.487835e-07
8.595604e-08
-3.655247e-07
8.569036e-08
-3.821625e-07
8.533081e-08
-3.98675e-07
8.487349e-08
-4.150388e-07
8.431229e-08
-4.312286e-07
8.363933e-08
-4.472179e-07
8.284561e-08
-4.629799e-07
8.192153e-08
-4.784867e-07
8.085719e-08
-4.937075e-07
7.964266e-08
-5.086089e-07
7.826827e-08
-5.231562e-07
7.672426e-08
-5.373155e-07
7.5001e-08
-5.51052e-07
7.308947e-08
-5.643297e-07
7.098169e-08
-5.771103e-07
6.867111e-08
-5.893548e-07
6.615179e-08
-6.010246e-07
6.341857e-08
-6.120813e-07
6.046794e-08
-6.224859e-07
5.729773e-08
-6.322003e-07
5.390691e-08
-6.411868e-07
5.02958e-08
-6.494088e-07
4.646591e-08
-6.568304e-07
4.242032e-08
-6.634172e-07
3.81637e-08
-6.69136e-07
3.370158e-08
-6.739562e-07
2.904078e-08
-6.778483e-07
2.41902e-08
-6.807844e-07
1.916008e-08
-6.827396e-07
1.396144e-08
-6.836923e-07
8.606403e-09