/*--------------------------------*- C++ -*----------------------------------*\
| =========                 |                                                 |
| \\      /  F ield         | OpenFOAM: The Open Source CFD Toolbox           |
|  \\    /   O peration     | Version:  2406                                  |
|   \\  /    A nd           | Website:  www.openfoam.com                      |
|    \\/     M anipulation  |                                                 |
\*---------------------------------------------------------------------------*/
FoamFile
{
    version     2.0;
    format      ascii;
    arch        "LSB;label=32;scalar=64";
    class       volVectorField;
    location    "300";
    object      U;
}
// * * * * * * * * * * * * * * * * * * * * * * * * * * * * * * * * * * * * * //

dimensions      [0 1 -1 0 0 0 0];

internalField   nonuniform List<vector> 
16384
(
(-1.973811e-07 -2.317208e-07 0)
(-2.341745e-07 -1.280101e-07 0)
(-1.303666e-08 -4.819639e-08 0)
(6.955538e-08 -2.224128e-08 0)
(5.867329e-08 -6.798416e-09 0)
(-1.754956e-08 5.750566e-09 0)
(-1.506957e-07 1.497465e-08 0)
(-3.333372e-07 2.282452e-08 0)
(-5.575921e-07 2.910823e-08 0)
(-8.175194e-07 3.413059e-08 0)
(-1.107226e-06 3.757631e-08 0)
(-1.421665e-06 3.989367e-08 0)
(-1.755604e-06 4.205418e-08 0)
(-2.105195e-06 4.365702e-08 0)
(-2.467295e-06 4.487808e-08 0)
(-2.838481e-06 4.586274e-08 0)
(-3.216794e-06 4.62457e-08 0)
(-3.600869e-06 4.634891e-08 0)
(-3.98905e-06 4.658806e-08 0)
(-4.38032e-06 4.666851e-08 0)
(-4.77404e-06 4.653589e-08 0)
(-5.169186e-06 4.653951e-08 0)
(-5.565351e-06 4.644837e-08 0)
(-5.962723e-06 4.628041e-08 0)
(-6.360697e-06 4.635324e-08 0)
(-6.75881e-06 4.652317e-08 0)
(-7.157375e-06 4.644795e-08 0)
(-7.556547e-06 4.634613e-08 0)
(-7.95584e-06 4.658253e-08 0)
(-8.354818e-06 4.699286e-08 0)
(-8.753544e-06 4.724693e-08 0)
(-9.151846e-06 4.733147e-08 0)
(-9.549169e-06 4.739354e-08 0)
(-9.945039e-06 4.741965e-08 0)
(-1.033913e-05 4.737768e-08 0)
(-1.07309e-05 4.733335e-08 0)
(-1.111964e-05 4.72591e-08 0)
(-1.150468e-05 4.704663e-08 0)
(-1.18852e-05 4.667727e-08 0)
(-1.22601e-05 4.622701e-08 0)
(-1.262831e-05 4.570242e-08 0)
(-1.298903e-05 4.499603e-08 0)
(-1.334137e-05 4.405781e-08 0)
(-1.368403e-05 4.296465e-08 0)
(-1.401559e-05 4.179803e-08 0)
(-1.433484e-05 4.047877e-08 0)
(-1.464071e-05 3.884647e-08 0)
(-1.493207e-05 3.69338e-08 0)
(-1.520737e-05 3.488302e-08 0)
(-1.546507e-05 3.274185e-08 0)
(-1.570391e-05 3.049959e-08 0)
(-1.592251e-05 2.807407e-08 0)
(-1.611944e-05 2.539309e-08 0)
(-1.629336e-05 2.253284e-08 0)
(-1.644286e-05 1.95432e-08 0)
(-1.656669e-05 1.634916e-08 0)
(-1.666382e-05 1.29308e-08 0)
(-1.673309e-05 9.335533e-09 0)
(-1.67733e-05 5.581922e-09 0)
(-1.678345e-05 1.696837e-09 0)
(-1.676261e-05 -2.314032e-09 0)
(-1.670984e-05 -6.517081e-09 0)
(-1.662447e-05 -1.090464e-08 0)
(-1.650587e-05 -1.534236e-08 0)
(-1.63534e-05 -1.978945e-08 0)
(-1.616676e-05 -2.434671e-08 0)
(-1.594599e-05 -2.902278e-08 0)
(-1.569108e-05 -3.369726e-08 0)
(-1.540203e-05 -3.830391e-08 0)
(-1.507927e-05 -4.285007e-08 0)
(-1.472351e-05 -4.731984e-08 0)
(-1.433556e-05 -5.16884e-08 0)
(-1.391641e-05 -5.595136e-08 0)
(-1.346731e-05 -6.006797e-08 0)
(-1.298971e-05 -6.396063e-08 0)
(-1.248517e-05 -6.760514e-08 0)
(-1.195558e-05 -7.103264e-08 0)
(-1.1403e-05 -7.42202e-08 0)
(-1.082955e-05 -7.706248e-08 0)
(-1.023748e-05 -7.948106e-08 0)
(-9.629406e-06 -8.14929e-08 0)
(-9.008218e-06 -8.313769e-08 0)
(-8.376822e-06 -8.43887e-08 0)
(-7.738072e-06 -8.517914e-08 0)
(-7.094928e-06 -8.547641e-08 0)
(-6.45053e-06 -8.528412e-08 0)
(-5.808075e-06 -8.461277e-08 0)
(-5.170739e-06 -8.346385e-08 0)
(-4.54167e-06 -8.181872e-08 0)
(-3.9239e-06 -7.968419e-08 0)
(-3.320334e-06 -7.712933e-08 0)
(-2.733895e-06 -7.419694e-08 0)
(-2.167502e-06 -7.086528e-08 0)
(-1.623851e-06 -6.71628e-08 0)
(-1.105347e-06 -6.31911e-08 0)
(-6.142187e-07 -5.900167e-08 0)
(-1.525245e-07 -5.455979e-08 0)
(2.778938e-07 -4.985615e-08 0)
(6.754288e-07 -4.499023e-08 0)
(1.038659e-06 -4.008079e-08 0)
(1.366356e-06 -3.514309e-08 0)
(1.657652e-06 -3.012096e-08 0)
(1.912026e-06 -2.497011e-08 0)
(2.129215e-06 -1.973048e-08 0)
(2.309178e-06 -1.451708e-08 0)
(2.451973e-06 -9.365507e-09 0)
(2.557959e-06 -4.279279e-09 0)
(2.627832e-06 7.00633e-10 0)
(2.662519e-06 5.536336e-09 0)
(2.663211e-06 1.014324e-08 0)
(2.631071e-06 1.453024e-08 0)
(2.567519e-06 1.871426e-08 0)
(2.474316e-06 2.266902e-08 0)
(2.353429e-06 2.64058e-08 0)
(2.207271e-06 2.975258e-08 0)
(2.038299e-06 3.256034e-08 0)
(1.849296e-06 3.482707e-08 0)
(1.643754e-06 3.654785e-08 0)
(1.425591e-06 3.774687e-08 0)
(1.199444e-06 3.83264e-08 0)
(9.708215e-07 3.806297e-08 0)
(7.461383e-07 3.676422e-08 0)
(5.33168e-07 3.404356e-08 0)
(3.411105e-07 2.919771e-08 0)
(1.804294e-07 2.146972e-08 0)
(6.271647e-08 1.037904e-08 0)
(-1.424074e-09 -3.289728e-09 0)
(-1.030906e-08 -1.223256e-08 0)
(-8.301915e-08 -3.808576e-07 0)
(-1.073237e-07 -2.961641e-07 0)
(-2.746103e-08 -1.58942e-07 0)
(-5.475039e-08 -2.573201e-08 0)
(-2.166548e-07 1.013753e-07 0)
(-5.133231e-07 2.178611e-07 0)
(-9.411559e-07 3.203665e-07 0)
(-1.488988e-06 4.103679e-07 0)
(-2.143854e-06 4.878676e-07 0)
(-2.892873e-06 5.533149e-07 0)
(-3.722576e-06 6.071005e-07 0)
(-4.619305e-06 6.511802e-07 0)
(-5.571533e-06 6.870922e-07 0)
(-6.569871e-06 7.154293e-07 0)
(-7.604828e-06 7.38057e-07 0)
(-8.668328e-06 7.558049e-07 0)
(-9.754666e-06 7.688964e-07 0)
(-1.085873e-05 7.786943e-07 0)
(-1.197644e-05 7.861093e-07 0)
(-1.310498e-05 7.912526e-07 0)
(-1.424129e-05 7.948461e-07 0)
(-1.538289e-05 7.977288e-07 0)
(-1.652874e-05 7.997112e-07 0)
(-1.76779e-05 8.011115e-07 0)
(-1.882875e-05 8.024628e-07 0)
(-1.998059e-05 8.035532e-07 0)
(-2.113326e-05 8.039997e-07 0)
(-2.2286e-05 8.040873e-07 0)
(-2.343789e-05 8.041658e-07 0)
(-2.458835e-05 8.039243e-07 0)
(-2.573683e-05 8.03003e-07 0)
(-2.688213e-05 8.013693e-07 0)
(-2.802276e-05 7.989709e-07 0)
(-2.915741e-05 7.955169e-07 0)
(-3.028471e-05 7.908426e-07 0)
(-3.140304e-05 7.850061e-07 0)
(-3.251057e-05 7.778392e-07 0)
(-3.360527e-05 7.690146e-07 0)
(-3.468454e-05 7.584216e-07 0)
(-3.574543e-05 7.460851e-07 0)
(-3.678526e-05 7.318425e-07 0)
(-3.780162e-05 7.153271e-07 0)
(-3.879164e-05 6.963605e-07 0)
(-3.975168e-05 6.750581e-07 0)
(-4.06782e-05 6.514837e-07 0)
(-4.156806e-05 6.254079e-07 0)
(-4.241807e-05 5.965039e-07 0)
(-4.322468e-05 5.647978e-07 0)
(-4.398386e-05 5.305608e-07 0)
(-4.469175e-05 4.938302e-07 0)
(-4.534496e-05 4.544617e-07 0)
(-4.593985e-05 4.123704e-07 0)
(-4.647251e-05 3.675914e-07 0)
(-4.693923e-05 3.202846e-07 0)
(-4.733657e-05 2.705316e-07 0)
(-4.766133e-05 2.18239e-07 0)
(-4.791055e-05 1.634286e-07 0)
(-4.808115e-05 1.063445e-07 0)
(-4.817012e-05 4.720397e-08 0)
(-4.817491e-05 -1.389417e-08 0)
(-4.809324e-05 -7.684157e-08 0)
(-4.792287e-05 -1.41438e-07 0)
(-4.766187e-05 -2.073785e-07 0)
(-4.730876e-05 -2.74308e-07 0)
(-4.686249e-05 -3.419503e-07 0)
(-4.632249e-05 -4.10118e-07 0)
(-4.568867e-05 -4.785261e-07 0)
(-4.496114e-05 -5.467079e-07 0)
(-4.414046e-05 -6.141812e-07 0)
(-4.322795e-05 -6.805999e-07 0)
(-4.222558e-05 -7.456788e-07 0)
(-4.11357e-05 -8.090356e-07 0)
(-3.996115e-05 -8.701831e-07 0)
(-3.870533e-05 -9.286475e-07 0)
(-3.737226e-05 -9.84031e-07 0)
(-3.596648e-05 -1.035979e-06 0)
(-3.449307e-05 -1.084121e-06 0)
(-3.295747e-05 -1.128039e-06 0)
(-3.136545e-05 -1.167295e-06 0)
(-2.972336e-05 -1.201502e-06 0)
(-2.803829e-05 -1.230387e-06 0)
(-2.631777e-05 -1.253762e-06 0)
(-2.45694e-05 -1.271428e-06 0)
(-2.280089e-05 -1.283132e-06 0)
(-2.102024e-05 -1.288629e-06 0)
(-1.923582e-05 -1.287797e-06 0)
(-1.745604e-05 -1.280674e-06 0)
(-1.568925e-05 -1.267346e-06 0)
(-1.394382e-05 -1.247822e-06 0)
(-1.222798e-05 -1.222124e-06 0)
(-1.054958e-05 -1.190476e-06 0)
(-8.916296e-06 -1.153212e-06 0)
(-7.335837e-06 -1.110592e-06 0)
(-5.815556e-06 -1.062907e-06 0)
(-4.362066e-06 -1.010584e-06 0)
(-2.981336e-06 -9.540747e-07 0)
(-1.678939e-06 -8.937409e-07 0)
(-4.600959e-07 -8.299371e-07 0)
(6.705372e-07 -7.631655e-07 0)
(1.709071e-06 -6.940281e-07 0)
(2.652317e-06 -6.230415e-07 0)
(3.497808e-06 -5.506051e-07 0)
(4.243736e-06 -4.770659e-07 0)
(4.888931e-06 -4.028545e-07 0)
(5.433016e-06 -3.285983e-07 0)
(5.876179e-06 -2.548663e-07 0)
(6.219273e-06 -1.820926e-07 0)
(6.463949e-06 -1.106955e-07 0)
(6.61247e-06 -4.107017e-08 0)
(6.667836e-06 2.622665e-08 0)
(6.633332e-06 9.068882e-08 0)
(6.512792e-06 1.518959e-07 0)
(6.310933e-06 2.093251e-07 0)
(6.033067e-06 2.625199e-07 0)
(5.685609e-06 3.106715e-07 0)
(5.27575e-06 3.529103e-07 0)
(4.81149e-06 3.886463e-07 0)
(4.302323e-06 4.171064e-07 0)
(3.758909e-06 4.372294e-07 0)
(3.19346e-06 4.475576e-07 0)
(2.620357e-06 4.462028e-07 0)
(2.055953e-06 4.311438e-07 0)
(1.518776e-06 4.000093e-07 0)
(1.029734e-06 3.500252e-07 0)
(6.116952e-07 2.788594e-07 0)
(2.886405e-07 1.862718e-07 0)
(8.333274e-08 7.98817e-08 0)
(-2.317851e-10 -5.113496e-09 0)
(-1.21966e-08 -2.522799e-07 0)
(-7.178947e-08 -2.642063e-07 0)
(-1.504346e-07 -9.17439e-08 0)
(-3.60905e-07 1.608766e-07 0)
(-7.409515e-07 4.399451e-07 0)
(-1.305496e-06 7.150982e-07 0)
(-2.054136e-06 9.719663e-07 0)
(-2.975762e-06 1.20386e-06 0)
(-4.055773e-06 1.407663e-06 0)
(-5.277305e-06 1.583083e-06 0)
(-6.621062e-06 1.731678e-06 0)
(-8.068695e-06 1.855859e-06 0)
(-9.604214e-06 1.957531e-06 0)
(-1.121233e-05 2.039828e-06 0)
(-1.287946e-05 2.10601e-06 0)
(-1.459455e-05 2.158152e-06 0)
(-1.634773e-05 2.198676e-06 0)
(-1.813075e-05 2.229874e-06 0)
(-1.993758e-05 2.253164e-06 0)
(-2.176278e-05 2.270297e-06 0)
(-2.360123e-05 2.283202e-06 0)
(-2.544948e-05 2.292727e-06 0)
(-2.73052e-05 2.299325e-06 0)
(-2.916598e-05 2.3041e-06 0)
(-3.102968e-05 2.307638e-06 0)
(-3.289505e-05 2.309776e-06 0)
(-3.476084e-05 2.310588e-06 0)
(-3.662539e-05 2.310238e-06 0)
(-3.848731e-05 2.308485e-06 0)
(-4.034531e-05 2.304913e-06 0)
(-4.219791e-05 2.299488e-06 0)
(-4.404316e-05 2.292121e-06 0)
(-4.587895e-05 2.282279e-06 0)
(-4.770288e-05 2.269396e-06 0)
(-4.951226e-05 2.253128e-06 0)
(-5.130434e-05 2.2332e-06 0)
(-5.307624e-05 2.209115e-06 0)
(-5.482453e-05 2.180404e-06 0)
(-5.654496e-05 2.146914e-06 0)
(-5.823318e-05 2.108381e-06 0)
(-5.988513e-05 2.06419e-06 0)
(-6.149667e-05 2.013726e-06 0)
(-6.306283e-05 1.956807e-06 0)
(-6.45781e-05 1.893493e-06 0)
(-6.603732e-05 1.823516e-06 0)
(-6.743564e-05 1.746412e-06 0)
(-6.876778e-05 1.661974e-06 0)
(-7.002791e-05 1.570294e-06 0)
(-7.121012e-05 1.471527e-06 0)
(-7.230891e-05 1.365556e-06 0)
(-7.331891e-05 1.25214e-06 0)
(-7.423436e-05 1.13137e-06 0)
(-7.504942e-05 1.003549e-06 0)
(-7.575871e-05 8.688181e-07 0)
(-7.635721e-05 7.27227e-07 0)
(-7.684009e-05 5.789121e-07 0)
(-7.720264e-05 4.241666e-07 0)
(-7.744024e-05 2.634455e-07 0)
(-7.754877e-05 9.720162e-08 0)
(-7.752461e-05 -7.421705e-08 0)
(-7.736425e-05 -2.503529e-07 0)
(-7.706449e-05 -4.304787e-07 0)
(-7.662281e-05 -6.137931e-07 0)
(-7.603735e-05 -7.996166e-07 0)
(-7.530675e-05 -9.872863e-07 0)
(-7.44304e-05 -1.175981e-06 0)
(-7.340829e-05 -1.364724e-06 0)
(-7.224085e-05 -1.552472e-06 0)
(-7.092936e-05 -1.738183e-06 0)
(-6.947624e-05 -1.920873e-06 0)
(-6.788459e-05 -2.099588e-06 0)
(-6.615803e-05 -2.273244e-06 0)
(-6.430105e-05 -2.440594e-06 0)
(-6.231923e-05 -2.600449e-06 0)
(-6.02189e-05 -2.7518e-06 0)
(-5.8007e-05 -2.893666e-06 0)
(-5.569127e-05 -3.024944e-06 0)
(-5.328017e-05 -3.144506e-06 0)
(-5.078272e-05 -3.25136e-06 0)
(-4.82087e-05 -3.344668e-06 0)
(-4.556885e-05 -3.423686e-06 0)
(-4.287456e-05 -3.487743e-06 0)
(-4.013734e-05 -3.536228e-06 0)
(-3.736885e-05 -3.568578e-06 0)
(-3.458131e-05 -3.584322e-06 0)
(-3.178745e-05 -3.583165e-06 0)
(-2.900013e-05 -3.565057e-06 0)
(-2.623193e-05 -3.530124e-06 0)
(-2.349535e-05 -3.478496e-06 0)
(-2.080291e-05 -3.410316e-06 0)
(-1.816684e-05 -3.326024e-06 0)
(-1.559895e-05 -3.226397e-06 0)
(-1.311076e-05 -3.11226e-06 0)
(-1.071339e-05 -2.98437e-06 0)
(-8.417075e-06 -2.843599e-06 0)
(-6.231157e-06 -2.691003e-06 0)
(-4.16422e-06 -2.527721e-06 0)
(-2.224278e-06 -2.354891e-06 0)
(-4.186192e-07 -2.173734e-06 0)
(1.246477e-06 -1.985623e-06 0)
(2.765901e-06 -1.791968e-06 0)
(4.135768e-06 -1.594091e-06 0)
(5.353156e-06 -1.393218e-06 0)
(6.415925e-06 -1.190531e-06 0)
(7.323047e-06 -9.873706e-07 0)
(8.074641e-06 -7.851609e-07 0)
(8.671923e-06 -5.851888e-07 0)
(9.117203e-06 -3.887251e-07 0)
(9.413616e-06 -1.970347e-07 0)
(9.565338e-06 -1.15277e-08 0)
(9.577416e-06 1.662564e-07 0)
(9.455862e-06 3.35015e-07 0)
(9.207984e-06 4.93313e-07 0)
(8.842016e-06 6.396984e-07 0)
(8.367641e-06 7.7249e-07 0)
(7.796206e-06 8.896213e-07 0)
(7.140409e-06 9.891167e-07 0)
(6.414579e-06 1.06865e-06 0)
(5.634774e-06 1.125172e-06 0)
(4.81933e-06 1.155124e-06 0)
(3.989492e-06 1.154263e-06 0)
(3.169088e-06 1.117798e-06 0)
(2.384266e-06 1.0408e-06 0)
(1.663397e-06 9.188431e-07 0)
(1.03597e-06 7.495709e-07 0)
(5.319409e-07 5.349954e-07 0)
(1.85e-07 2.887396e-07 0)
(1.148439e-08 5.960986e-08 0)
(-3.355398e-09 -1.89561e-07 0)
(-1.127705e-07 -1.497886e-07 0)
(-3.493529e-07 1.403607e-07 0)
(-7.732051e-07 5.655415e-07 0)
(-1.412534e-06 1.044443e-06 0)
(-2.27875e-06 1.527437e-06 0)
(-3.371576e-06 1.987398e-06 0)
(-4.680124e-06 2.40869e-06 0)
(-6.18739e-06 2.783151e-06 0)
(-7.873018e-06 3.109605e-06 0)
(-9.715131e-06 3.389764e-06 0)
(-1.169247e-05 3.62585e-06 0)
(-1.378468e-05 3.82174e-06 0)
(-1.597283e-05 3.982343e-06 0)
(-1.82405e-05 4.112065e-06 0)
(-2.057285e-05 4.215525e-06 0)
(-2.295736e-05 4.29723e-06 0)
(-2.538398e-05 4.360455e-06 0)
(-2.784375e-05 4.408459e-06 0)
(-3.032867e-05 4.444885e-06 0)
(-3.283258e-05 4.472289e-06 0)
(-3.535086e-05 4.492166e-06 0)
(-3.787926e-05 4.506199e-06 0)
(-4.04142e-05 4.515865e-06 0)
(-4.295297e-05 4.52183e-06 0)
(-4.549326e-05 4.524528e-06 0)
(-4.80328e-05 4.52448e-06 0)
(-5.056947e-05 4.521603e-06 0)
(-5.310109e-05 4.51538e-06 0)
(-5.56251e-05 4.505398e-06 0)
(-5.813899e-05 4.491421e-06 0)
(-6.064031e-05 4.472939e-06 0)
(-6.312606e-05 4.449138e-06 0)
(-6.559262e-05 4.419416e-06 0)
(-6.80362e-05 4.383162e-06 0)
(-7.045308e-05 4.339504e-06 0)
(-7.283912e-05 4.287577e-06 0)
(-7.518929e-05 4.226778e-06 0)
(-7.749801e-05 4.156645e-06 0)
(-7.975988e-05 4.076396e-06 0)
(-8.196947e-05 3.985071e-06 0)
(-8.412072e-05 3.882021e-06 0)
(-8.620682e-05 3.766928e-06 0)
(-8.822092e-05 3.639471e-06 0)
(-9.01565e-05 3.499049e-06 0)
(-9.200681e-05 3.345104e-06 0)
(-9.376461e-05 3.177556e-06 0)
(-9.542246e-05 2.99648e-06 0)
(-9.697304e-05 2.801759e-06 0)
(-9.840933e-05 2.593223e-06 0)
(-9.972417e-05 2.370827e-06 0)
(-0.00010091 2.134778e-06 0)
(-0.0001019597 1.885441e-06 0)
(-0.0001028667 1.623073e-06 0)
(-0.0001036244 1.347911e-06 0)
(-0.0001042267 1.060447e-06 0)
(-0.0001046678 7.613635e-07 0)
(-0.0001049419 4.513621e-07 0)
(-0.000105044 1.311838e-07 0)
(-0.0001049697 -1.983032e-07 0)
(-0.0001047147 -5.360306e-07 0)
(-0.0001042752 -8.807271e-07 0)
(-0.0001036485 -1.231047e-06 0)
(-0.0001028326 -1.585681e-06 0)
(-0.0001018261 -1.943264e-06 0)
(-0.0001006284 -2.302188e-06 0)
(-9.923982e-05 -2.660622e-06 0)
(-9.766135e-05 -3.016711e-06 0)
(-9.589511e-05 -3.368654e-06 0)
(-9.394443e-05 -3.714602e-06 0)
(-9.181353e-05 -4.052575e-06 0)
(-8.950731e-05 -4.38049e-06 0)
(-8.703183e-05 -4.696218e-06 0)
(-8.439452e-05 -4.997692e-06 0)
(-8.160374e-05 -5.282964e-06 0)
(-7.866856e-05 -5.550124e-06 0)
(-7.559894e-05 -5.797191e-06 0)
(-7.240588e-05 -6.022174e-06 0)
(-6.910122e-05 -6.223286e-06 0)
(-6.569772e-05 -6.399015e-06 0)
(-6.220912e-05 -6.548014e-06 0)
(-5.864986e-05 -6.668994e-06 0)
(-5.503469e-05 -6.760751e-06 0)
(-5.137868e-05 -6.822275e-06 0)
(-4.769752e-05 -6.852843e-06 0)
(-4.400753e-05 -6.852e-06 0)
(-4.032516e-05 -6.819519e-06 0)
(-3.666655e-05 -6.755442e-06 0)
(-3.304771e-05 -6.660066e-06 0)
(-2.948471e-05 -6.533888e-06 0)
(-2.599346e-05 -6.377696e-06 0)
(-2.258923e-05 -6.192658e-06 0)
(-1.928675e-05 -5.980191e-06 0)
(-1.610019e-05 -5.741763e-06 0)
(-1.304289e-05 -5.478971e-06 0)
(-1.012711e-05 -5.193644e-06 0)
(-7.364125e-06 -4.887856e-06 0)
(-4.764422e-06 -4.563858e-06 0)
(-2.337573e-06 -4.223995e-06 0)
(-9.189693e-08 -3.870715e-06 0)
(1.965707e-06 -3.506493e-06 0)
(3.829901e-06 -3.133764e-06 0)
(5.496693e-06 -2.754946e-06 0)
(6.963096e-06 -2.372414e-06 0)
(8.227415e-06 -1.988586e-06 0)
(9.289461e-06 -1.606025e-06 0)
(1.01505e-05 -1.227283e-06 0)
(1.081315e-05 -8.549298e-07 0)
(1.128121e-05 -4.91561e-07 0)
(1.15598e-05 -1.397213e-07 0)
(1.165542e-05 1.978282e-07 0)
(1.157593e-05 5.184888e-07 0)
(1.133075e-05 8.195736e-07 0)
(1.093065e-05 1.098064e-06 0)
(1.038818e-05 1.350891e-06 0)
(9.717913e-06 1.574502e-06 0)
(8.936342e-06 1.764858e-06 0)
(8.061776e-06 1.917443e-06 0)
(7.114669e-06 2.026889e-06 0)
(6.118163e-06 2.087145e-06 0)
(5.098404e-06 2.091408e-06 0)
(4.084474e-06 2.031994e-06 0)
(3.108186e-06 1.901061e-06 0)
(2.203707e-06 1.692107e-06 0)
(1.405674e-06 1.402304e-06 0)
(7.485356e-07 1.036093e-06 0)
(2.759715e-07 6.112413e-07 0)
(2.101515e-08 1.772886e-07 0)
(-6.738448e-09 -1.185285e-07 0)
(-1.912537e-07 7.862499e-08 0)
(-5.964569e-07 5.665409e-07 0)
(-1.253545e-06 1.219173e-06 0)
(-2.175306e-06 1.943154e-06 0)
(-3.365751e-06 2.675245e-06 0)
(-4.820359e-06 3.375987e-06 0)
(-6.526677e-06 4.022272e-06 0)
(-8.464528e-06 4.602581e-06 0)
(-1.061031e-05 5.112835e-06 0)
(-1.294064e-05 5.553291e-06 0)
(-1.543179e-05 5.927364e-06 0)
(-1.806037e-05 6.240729e-06 0)
(-2.0805e-05 6.499518e-06 0)
(-2.364629e-05 6.710435e-06 0)
(-2.656703e-05 6.880305e-06 0)
(-2.955291e-05 7.014936e-06 0)
(-3.259136e-05 7.119945e-06 0)
(-3.567085e-05 7.201082e-06 0)
(-3.878205e-05 7.263107e-06 0)
(-4.191772e-05 7.309356e-06 0)
(-4.507142e-05 7.342988e-06 0)
(-4.823752e-05 7.366839e-06 0)
(-5.141163e-05 7.382545e-06 0)
(-5.458986e-05 7.391172e-06 0)
(-5.776859e-05 7.393753e-06 0)
(-6.094488e-05 7.390877e-06 0)
(-6.41159e-05 7.38236e-06 0)
(-6.727843e-05 7.367901e-06 0)
(-7.042888e-05 7.347155e-06 0)
(-7.356393e-05 7.31931e-06 0)
(-7.668017e-05 7.283354e-06 0)
(-7.97734e-05 7.238338e-06 0)
(-8.283894e-05 7.183416e-06 0)
(-8.587218e-05 7.117499e-06 0)
(-8.886827e-05 7.039257e-06 0)
(-9.182161e-05 6.947587e-06 0)
(-9.472584e-05 6.841589e-06 0)
(-9.75744e-05 6.720213e-06 0)
(-0.0001003607 6.582145e-06 0)
(-0.0001030777 6.426224e-06 0)
(-0.0001057177 6.251742e-06 0)
(-0.0001082726 6.058093e-06 0)
(-0.0001107343 5.84448e-06 0)
(-0.0001130948 5.610105e-06 0)
(-0.0001153458 5.354441e-06 0)
(-0.0001174783 5.077326e-06 0)
(-0.0001194837 4.778686e-06 0)
(-0.0001213534 4.458314e-06 0)
(-0.000123079 4.116097e-06 0)
(-0.0001246521 3.752211e-06 0)
(-0.0001260637 3.367025e-06 0)
(-0.0001273056 2.960973e-06 0)
(-0.0001283701 2.53453e-06 0)
(-0.0001292499 2.08831e-06 0)
(-0.0001299376 1.623179e-06 0)
(-0.0001304265 1.140207e-06 0)
(-0.0001307104 6.405418e-07 0)
(-0.0001307836 1.254322e-07 0)
(-0.000130641 -4.036454e-07 0)
(-0.000130278 -9.449319e-07 0)
(-0.0001296905 -1.49648e-06 0)
(-0.0001288758 -2.056278e-06 0)
(-0.0001278321 -2.622228e-06 0)
(-0.0001265579 -3.192013e-06 0)
(-0.000125053 -3.763043e-06 0)
(-0.000123318 -4.332559e-06 0)
(-0.0001213548 -4.897769e-06 0)
(-0.0001191662 -5.45586e-06 0)
(-0.0001167566 -6.003882e-06 0)
(-0.000114131 -6.538702e-06 0)
(-0.0001112956 -7.057098e-06 0)
(-0.0001082581 -7.555873e-06 0)
(-0.0001050274 -8.031901e-06 0)
(-0.0001016136 -8.482123e-06 0)
(-9.802762e-05 -8.903499e-06 0)
(-9.428129e-05 -9.292995e-06 0)
(-9.038782e-05 -9.647665e-06 0)
(-8.636146e-05 -9.964818e-06 0)
(-8.221743e-05 -1.024209e-05 0)
(-7.797193e-05 -1.047734e-05 0)
(-7.364192e-05 -1.066856e-05 0)
(-6.924478e-05 -1.08139e-05 0)
(-6.479845e-05 -1.091184e-05 0)
(-6.032157e-05 -1.096128e-05 0)
(-5.583335e-05 -1.096156e-05 0)
(-5.135318e-05 -1.091234e-05 0)
(-4.690022e-05 -1.081359e-05 0)
(-4.249346e-05 -1.066571e-05 0)
(-3.815192e-05 -1.046954e-05 0)
(-3.389446e-05 -1.022631e-05 0)
(-2.973932e-05 -9.937653e-06 0)
(-2.570401e-05 -9.605591e-06 0)
(-2.180529e-05 -9.232427e-06 0)
(-1.805908e-05 -8.820731e-06 0)
(-1.448017e-05 -8.373359e-06 0)
(-1.10823e-05 -7.893443e-06 0)
(-7.878128e-06 -7.384404e-06 0)
(-4.879174e-06 -6.849858e-06 0)
(-2.09548e-06 -6.293551e-06 0)
(4.644899e-07 -5.719308e-06 0)
(2.793936e-06 -5.130949e-06 0)
(4.887692e-06 -4.532305e-06 0)
(6.741929e-06 -3.927258e-06 0)
(8.354259e-06 -3.319738e-06 0)
(9.724041e-06 -2.713816e-06 0)
(1.085243e-05 -2.113569e-06 0)
(1.174226e-05 -1.523045e-06 0)
(1.239786e-05 -9.464004e-07 0)
(1.282514e-05 -3.876394e-07 0)
(1.303164e-05 1.490553e-07 0)
(1.302676e-05 6.593083e-07 0)
(1.282156e-05 1.138787e-06 0)
(1.242889e-05 1.582677e-06 0)
(1.18638e-05 1.985975e-06 0)
(1.114343e-05 2.343309e-06 0)
(1.028721e-05 2.648318e-06 0)
(9.316743e-06 2.893873e-06 0)
(8.255938e-06 3.072098e-06 0)
(7.131724e-06 3.174167e-06 0)
(5.974008e-06 3.190517e-06 0)
(4.815502e-06 3.111034e-06 0)
(3.692037e-06 2.925404e-06 0)
(2.642348e-06 2.624493e-06 0)
(1.706343e-06 2.203333e-06 0)
(9.241528e-07 1.665825e-06 0)
(3.487381e-07 1.029664e-06 0)
(2.813301e-08 3.377424e-07 0)
(-1.206647e-08 -3.932038e-09 0)
(-2.879744e-07 4.424704e-07 0)
(-8.723724e-07 1.201616e-06 0)
(-1.774742e-06 2.140314e-06 0)
(-2.992248e-06 3.15554e-06 0)
(-4.520719e-06 4.17485e-06 0)
(-6.349625e-06 5.149856e-06 0)
(-8.460538e-06 6.052277e-06 0)
(-1.083032e-05 6.867091e-06 0)
(-1.34341e-05 7.587105e-06 0)
(-1.624552e-05 8.21181e-06 0)
(-1.923802e-05 8.745706e-06 0)
(-2.238658e-05 9.195591e-06 0)
(-2.566773e-05 9.569592e-06 0)
(-2.905998e-05 9.876626e-06 0)
(-3.254465e-05 1.012514e-05 0)
(-3.61053e-05 1.032323e-05 0)
(-3.972687e-05 1.047935e-05 0)
(-4.339646e-05 1.060092e-05 0)
(-4.710384e-05 1.069374e-05 0)
(-5.083998e-05 1.076291e-05 0)
(-5.459677e-05 1.081324e-05 0)
(-5.836786e-05 1.084823e-05 0)
(-6.214796e-05 1.08702e-05 0)
(-6.593179e-05 1.08811e-05 0)
(-6.971466e-05 1.088224e-05 0)
(-7.349287e-05 1.087405e-05 0)
(-7.726257e-05 1.085652e-05 0)
(-8.101936e-05 1.082951e-05 0)
(-8.475892e-05 1.07925e-05 0)
(-8.847713e-05 1.074429e-05 0)
(-9.216938e-05 1.068356e-05 0)
(-9.583029e-05 1.060918e-05 0)
(-9.945422e-05 1.051975e-05 0)
(-0.0001030356 1.041359e-05 0)
(-0.0001065684 1.028907e-05 0)
(-0.0001100456 1.014486e-05 0)
(-0.0001134598 9.979576e-06 0)
(-0.0001168036 9.7915e-06 0)
(-0.0001200689 9.578903e-06 0)
(-0.0001232473 9.340492e-06 0)
(-0.0001263297 9.075331e-06 0)
(-0.0001293068 8.782406e-06 0)
(-0.0001321695 8.460546e-06 0)
(-0.0001349083 8.108814e-06 0)
(-0.0001375135 7.726732e-06 0)
(-0.0001399749 7.314058e-06 0)
(-0.0001422828 6.870533e-06 0)
(-0.0001444277 6.395921e-06 0)
(-0.0001464 5.890262e-06 0)
(-0.0001481898 5.353963e-06 0)
(-0.0001497876 4.787631e-06 0)
(-0.0001511843 4.191894e-06 0)
(-0.0001523716 3.567499e-06 0)
(-0.000153341 2.915512e-06 0)
(-0.0001540847 2.237312e-06 0)
(-0.0001545954 1.534429e-06 0)
(-0.0001548666 8.085159e-07 0)
(-0.0001548921 6.14885e-08 0)
(-0.0001546665 -7.044064e-07 0)
(-0.0001541851 -1.486653e-06 0)
(-0.0001534438 -2.28256e-06 0)
(-0.0001524402 -3.089287e-06 0)
(-0.0001511726 -3.903758e-06 0)
(-0.0001496397 -4.722595e-06 0)
(-0.0001478416 -5.542151e-06 0)
(-0.0001457797 -6.358602e-06 0)
(-0.0001434565 -7.168051e-06 0)
(-0.0001408757 -7.96652e-06 0)
(-0.0001380424 -8.749838e-06 0)
(-0.0001349626 -9.513595e-06 0)
(-0.0001316437 -1.025331e-05 0)
(-0.0001280945 -1.09646e-05 0)
(-0.0001243256 -1.164316e-05 0)
(-0.0001203485 -1.228467e-05 0)
(-0.0001161755 -1.28848e-05 0)
(-0.0001118201 -1.343933e-05 0)
(-0.0001072975 -1.394429e-05 0)
(-0.0001026239 -1.4396e-05 0)
(-9.78165e-05 -1.479111e-05 0)
(-9.289358e-05 -1.512653e-05 0)
(-8.787411e-05 -1.539942e-05 0)
(-8.277772e-05 -1.560727e-05 0)
(-7.76247e-05 -1.574804e-05 0)
(-7.243619e-05 -1.582021e-05 0)
(-6.723384e-05 -1.58228e-05 0)
(-6.203939e-05 -1.575532e-05 0)
(-5.687445e-05 -1.561768e-05 0)
(-5.17606e-05 -1.54104e-05 0)
(-4.671942e-05 -1.513461e-05 0)
(-4.177225e-05 -1.479204e-05 0)
(-3.693975e-05 -1.438492e-05 0)
(-3.224183e-05 -1.391592e-05 0)
(-2.769761e-05 -1.338823e-05 0)
(-2.332523e-05 -1.280546e-05 0)
(-1.914162e-05 -1.217165e-05 0)
(-1.516254e-05 -1.14911e-05 0)
(-1.140263e-05 -1.076847e-05 0)
(-7.875208e-06 -1.000876e-05 0)
(-4.591923e-06 -9.217214e-06 0)
(-1.562602e-06 -8.399238e-06 0)
(1.204649e-06 -7.560341e-06 0)
(3.703411e-06 -6.706086e-06 0)
(5.928904e-06 -5.84211e-06 0)
(7.878062e-06 -4.974085e-06 0)
(9.54982e-06 -4.107765e-06 0)
(1.094522e-05 -3.248976e-06 0)
(1.206712e-05 -2.403434e-06 0)
(1.29202e-05 -1.577045e-06 0)
(1.351106e-05 -7.757153e-07 0)
(1.384795e-05 -5.330594e-09 0)
(1.394137e-05 7.276862e-07 0)
(1.380388e-05 1.416885e-06 0)
(1.345e-05 2.055623e-06 0)
(1.289688e-05 2.636693e-06 0)
(1.216374e-05 3.152386e-06 0)
(1.127208e-05 3.59395e-06 0)
(1.024616e-05 3.951458e-06 0)
(9.11279e-06 4.214274e-06 0)
(7.901773e-06 4.370808e-06 0)
(6.64624e-06 4.408355e-06 0)
(5.38204e-06 4.314089e-06 0)
(4.147739e-06 4.075488e-06 0)
(2.98544e-06 3.680729e-06 0)
(1.940224e-06 3.121739e-06 0)
(1.05889e-06 2.39856e-06 0)
(4.033023e-07 1.524099e-06 0)
(3.315041e-08 5.303652e-07 0)
(-1.938794e-08 1.624256e-07 0)
(-3.940731e-07 9.48968e-07 0)
(-1.162052e-06 2.053732e-06 0)
(-2.315587e-06 3.33745e-06 0)
(-3.837014e-06 4.690861e-06 0)
(-5.711801e-06 6.03457e-06 0)
(-7.920688e-06 7.316313e-06 0)
(-1.043964e-05 8.503306e-06 0)
(-1.324264e-05 9.576535e-06 0)
(-1.630148e-05 1.052775e-05 0)
(-1.958688e-05 1.135683e-05 0)
(-2.307041e-05 1.206844e-05 0)
(-2.672512e-05 1.267071e-05 0)
(-3.052572e-05 1.317396e-05 0)
(-3.444961e-05 1.358888e-05 0)
(-3.847651e-05 1.392621e-05 0)
(-4.258765e-05 1.419698e-05 0)
(-4.676659e-05 1.441174e-05 0)
(-5.099978e-05 1.457934e-05 0)
(-5.527547e-05 1.470745e-05 0)
(-5.95829e-05 1.480324e-05 0)
(-6.391311e-05 1.487248e-05 0)
(-6.825893e-05 1.49194e-05 0)
(-7.261366e-05 1.494746e-05 0)
(-7.697099e-05 1.495943e-05 0)
(-8.132562e-05 1.495678e-05 0)
(-8.567279e-05 1.494009e-05 0)
(-9.000738e-05 1.490966e-05 0)
(-9.432402e-05 1.486518e-05 0)
(-9.861769e-05 1.48057e-05 0)
(-0.0001028833 1.472992e-05 0)
(-0.0001071149 1.463641e-05 0)
(-0.0001113061 1.452359e-05 0)
(-0.0001154505 1.438939e-05 0)
(-0.0001195415 1.423166e-05 0)
(-0.0001235714 1.404859e-05 0)
(-0.0001275323 1.383839e-05 0)
(-0.000131416 1.359898e-05 0)
(-0.0001352139 1.332811e-05 0)
(-0.0001389167 1.302382e-05 0)
(-0.0001425144 1.268468e-05 0)
(-0.0001459969 1.230934e-05 0)
(-0.0001493541 1.189628e-05 0)
(-0.0001525757 1.144409e-05 0)
(-0.0001556509 1.095185e-05 0)
(-0.0001585686 1.04191e-05 0)
(-0.000161318 9.845438e-06 0)
(-0.0001638886 9.230473e-06 0)
(-0.0001662698 8.574082e-06 0)
(-0.0001684508 7.876607e-06 0)
(-0.0001704213 7.138688e-06 0)
(-0.0001721711 6.361105e-06 0)
(-0.0001736904 5.544795e-06 0)
(-0.0001749704 4.690979e-06 0)
(-0.0001760021 3.801259e-06 0)
(-0.0001767772 2.877541e-06 0)
(-0.0001772884 1.921914e-06 0)
(-0.0001775287 9.36694e-07 0)
(-0.0001774919 -7.544461e-08 0)
(-0.0001771725 -1.111438e-06 0)
(-0.0001765658 -2.167929e-06 0)
(-0.0001756681 -3.241346e-06 0)
(-0.0001744771 -4.327903e-06 0)
(-0.0001729914 -5.42346e-06 0)
(-0.0001712102 -6.523475e-06 0)
(-0.000169134 -7.623139e-06 0)
(-0.0001667647 -8.717503e-06 0)
(-0.0001641057 -9.801478e-06 0)
(-0.0001611614 -1.086978e-05 0)
(-0.0001579375 -1.191688e-05 0)
(-0.000154441 -1.293703e-05 0)
(-0.0001506802 -1.392445e-05 0)
(-0.0001466654 -1.487345e-05 0)
(-0.000142408 -1.577842e-05 0)
(-0.0001379208 -1.663367e-05 0)
(-0.0001332173 -1.743349e-05 0)
(-0.0001283126 -1.81724e-05 0)
(-0.0001232234 -1.884532e-05 0)
(-0.0001179675 -1.94475e-05 0)
(-0.0001125638 -1.997449e-05 0)
(-0.0001070321 -2.042216e-05 0)
(-0.0001013932 -2.078678e-05 0)
(-9.566861e-05 -2.106516e-05 0)
(-8.988056e-05 -2.12547e-05 0)
(-8.405221e-05 -2.135338e-05 0)
(-7.820723e-05 -2.13598e-05 0)
(-7.23694e-05 -2.127323e-05 0)
(-6.656241e-05 -2.109362e-05 0)
(-6.081003e-05 -2.082165e-05 0)
(-5.513606e-05 -2.045872e-05 0)
(-4.956398e-05 -2.000699e-05 0)
(-4.411652e-05 -1.94693e-05 0)
(-3.881566e-05 -1.884916e-05 0)
(-3.368258e-05 -1.815061e-05 0)
(-2.87374e-05 -1.737827e-05 0)
(-2.399893e-05 -1.653733e-05 0)
(-1.948472e-05 -1.563351e-05 0)
(-1.521119e-05 -1.467297e-05 0)
(-1.119331e-05 -1.366225e-05 0)
(-7.444214e-06 -1.260816e-05 0)
(-3.975037e-06 -1.151777e-05 0)
(-7.950395e-07 -1.039843e-05 0)
(2.08815e-06 -9.257711e-06 0)
(4.668746e-06 -8.103266e-06 0)
(6.94307e-06 -6.942731e-06 0)
(8.909564e-06 -5.783682e-06 0)
(1.056908e-05 -4.633867e-06 0)
(1.192451e-05 -3.500972e-06 0)
(1.298064e-05 -2.392771e-06 0)
(1.374459e-05 -1.317398e-06 0)
(1.422522e-05 -2.829032e-07 0)
(1.443372e-05 7.022501e-07 0)
(1.438403e-05 1.629216e-06 0)
(1.409216e-05 2.489217e-06 0)
(1.35767e-05 3.272744e-06 0)
(1.285863e-05 3.969279e-06 0)
(1.196116e-05 4.567515e-06 0)
(1.091057e-05 5.054939e-06 0)
(9.736146e-06 5.417911e-06 0)
(8.4699e-06 5.641915e-06 0)
(7.147398e-06 5.711231e-06 0)
(5.807603e-06 5.609709e-06 0)
(4.491767e-06 5.321721e-06 0)
(3.244731e-06 4.832652e-06 0)
(2.115858e-06 4.130744e-06 0)
(1.15834e-06 3.21018e-06 0)
(4.423979e-07 2.07576e-06 0)
(3.64739e-08 7.461436e-07 0)
(-2.683011e-08 3.837948e-07 0)
(-5.022335e-07 1.602781e-06 0)
(-1.455789e-06 3.127746e-06 0)
(-2.863021e-06 4.814833e-06 0)
(-4.691539e-06 6.552571e-06 0)
(-6.915115e-06 8.25905e-06 0)
(-9.505694e-06 9.878836e-06 0)
(-1.243403e-05 1.137547e-05 0)
(-1.566899e-05 1.272867e-05 0)
(-1.917851e-05 1.393027e-05 0)
(-2.293102e-05 1.49801e-05 0)
(-2.689592e-05 1.58839e-05 0)
(-3.104415e-05 1.66516e-05 0)
(-3.534931e-05 1.72952e-05 0)
(-3.978751e-05 1.782749e-05 0)
(-4.433653e-05 1.826225e-05 0)
(-4.897628e-05 1.861305e-05 0)
(-5.368964e-05 1.889199e-05 0)
(-5.846188e-05 1.910996e-05 0)
(-6.327973e-05 1.927701e-05 0)
(-6.813156e-05 1.940184e-05 0)
(-7.300771e-05 1.949109e-05 0)
(-7.789973e-05 1.955027e-05 0)
(-8.279975e-05 1.958389e-05 0)
(-8.770076e-05 1.959505e-05 0)
(-9.259661e-05 1.958563e-05 0)
(-9.748133e-05 1.955671e-05 0)
(-0.0001023489 1.950868e-05 0)
(-0.0001071932 1.944093e-05 0)
(-0.0001120081 1.935226e-05 0)
(-0.0001167873 1.924133e-05 0)
(-0.0001215238 1.910642e-05 0)
(-0.0001262107 1.894525e-05 0)
(-0.0001308405 1.875531e-05 0)
(-0.0001354049 1.853421e-05 0)
(-0.0001398953 1.827976e-05 0)
(-0.0001443031 1.79895e-05 0)
(-0.0001486191 1.766059e-05 0)
(-0.0001528336 1.72905e-05 0)
(-0.0001569356 1.68772e-05 0)
(-0.0001609143 1.641887e-05 0)
(-0.0001647589 1.59136e-05 0)
(-0.0001684584 1.535953e-05 0)
(-0.000172001 1.475526e-05 0)