/*--------------------------------*- C++ -*----------------------------------*\
  =========                 |
  \\      /  F ield         | OpenFOAM: The Open Source CFD Toolbox
   \\    /   O peration     | Website:  https://openfoam.org
    \\  /    A nd           | Version:  10
     \\/     M anipulation  |
\*---------------------------------------------------------------------------*/
FoamFile
{
    format      ascii;
    class       volVectorField;
    location    "0.750724";
    object      U;
}
// * * * * * * * * * * * * * * * * * * * * * * * * * * * * * * * * * * * * * //

dimensions      [0 1 -1 0 0 0 0];

internalField   nonuniform List<vector> 
15984
(
(0.5528 -0.0790541 0)
(0.54738 -0.07945 0)
(0.541589 -0.0799295 0)
(0.535463 -0.0805129 0)
(0.529056 -0.0811911 0)
(0.522345 -0.0819738 0)
(0.515346 -0.0828674 0)
(0.508173 -0.0838389 0)
(0.500865 -0.0848834 0)
(0.493434 -0.0859965 0)
(0.485938 -0.0871503 0)
(0.478406 -0.0883355 0)
(0.47087 -0.0895359 0)
(0.463383 -0.0907402 0)
(0.455976 -0.0919363 0)
(0.448676 -0.0931098 0)
(0.441512 -0.0942483 0)
(0.434513 -0.0953434 0)
(0.427704 -0.0963882 0)
(0.421108 -0.097375 0)
(0.414745 -0.0982983 0)
(0.408633 -0.0991525 0)
(0.402787 -0.0999327 0)
(0.397223 -0.100634 0)
(0.391953 -0.101252 0)
(0.386989 -0.10178 0)
(0.382342 -0.102214 0)
(0.378023 -0.102545 0)
(0.374041 -0.102767 0)
(0.370409 -0.102869 0)
(0.367136 -0.102842 0)
(0.364235 -0.102673 0)
(0.361717 -0.102349 0)
(0.359596 -0.101855 0)
(0.357886 -0.101175 0)
(0.356604 -0.100292 0)
(0.355763 -0.0991832 0)
(0.355383 -0.0978323 0)
(0.355481 -0.0962171 0)
(0.356075 -0.0943155 0)
(0.357183 -0.0921062 0)
(0.358823 -0.0895658 0)
(0.361013 -0.0866685 0)
(0.363767 -0.0833902 0)
(0.367095 -0.0797073 0)
(0.371008 -0.075595 0)
(0.375509 -0.0710291 0)
(0.380599 -0.0659849 0)
(0.386271 -0.0604392 0)
(0.392512 -0.0543692 0)
(0.399301 -0.0477529 0)
(0.406607 -0.0405716 0)
(0.414393 -0.0328078 0)
(0.42261 -0.0244476 0)
(0.552585 -0.0725986 0)
(0.547061 -0.0726852 0)
(0.541153 -0.072868 0)
(0.534913 -0.0731717 0)
(0.528388 -0.0735902 0)
(0.521554 -0.0741418 0)
(0.514448 -0.0748268 0)
(0.507182 -0.0756229 0)
(0.499782 -0.076519 0)
(0.492287 -0.0775124 0)
(0.484737 -0.0785781 0)
(0.477161 -0.0797127 0)
(0.469605 -0.0808895 0)
(0.462105 -0.0820974 0)
(0.454694 -0.0833258 0)
(0.447404 -0.0845637 0)
(0.440264 -0.0857974 0)
(0.433297 -0.0870148 0)
(0.426528 -0.0882087 0)
(0.419979 -0.0893718 0)
(0.413668 -0.0904972 0)
(0.407614 -0.0915792 0)
(0.401832 -0.0926124 0)
(0.396334 -0.0935915 0)
(0.391136 -0.0945114 0)
(0.386249 -0.0953666 0)
(0.381685 -0.0961512 0)
(0.377456 -0.0968584 0)
(0.373573 -0.0974803 0)
(0.370048 -0.0980077 0)
(0.366894 -0.0984303 0)
(0.364124 -0.098736 0)
(0.361753 -0.0989121 0)
(0.359795 -0.0989427 0)
(0.358266 -0.0988107 0)
(0.357185 -0.0984983 0)
(0.356569 -0.0979859 0)
(0.356434 -0.0972494 0)
(0.356802 -0.096267 0)
(0.35769 -0.0950156 0)
(0.359117 -0.0934693 0)
(0.361103 -0.0915997 0)
(0.363666 -0.0893782 0)
(0.366817 -0.0867768 0)
(0.370569 -0.0837669 0)
(0.374931 -0.0803191 0)
(0.379908 -0.0764027 0)
(0.3855 -0.0719876 0)
(0.391699 -0.0670455 0)
(0.398492 -0.0615458 0)
(0.405856 -0.0554621 0)
(0.413759 -0.0487669 0)
(0.42216 -0.0414368 0)
(0.431008 -0.0334512 0)
(0.552705 -0.0659976 0)
(0.547063 -0.065774 0)
(0.541021 -0.0656674 0)
(0.534647 -0.0657016 0)
(0.527982 -0.0658648 0)
(0.520997 -0.0662068 0)
(0.513749 -0.0666974 0)
(0.506362 -0.0673267 0)
(0.498855 -0.0680926 0)
(0.491253 -0.0689743 0)
(0.483614 -0.0699681 0)
(0.475969 -0.0710517 0)
(0.468357 -0.0722109 0)
(0.460815 -0.0734314 0)
(0.453374 -0.0746977 0)
(0.446066 -0.0759973 0)
(0.43892 -0.0773203 0)
(0.431959 -0.0786547 0)
(0.425205 -0.0799906 0)
(0.418677 -0.0813202 0)
(0.412395 -0.0826375 0)
(0.406374 -0.0839364 0)
(0.40063 -0.0852111 0)
(0.395176 -0.0864566 0)
(0.390027 -0.087668 0)
(0.385193 -0.08884 0)
(0.380689 -0.089967 0)
(0.376525 -0.0910427 0)
(0.372716 -0.0920598 0)
(0.369274 -0.0930096 0)
(0.366214 -0.0938822 0)
(0.36355 -0.0946661 0)
(0.3613 -0.095348 0)
(0.359479 -0.0959138 0)
(0.358108 -0.0963461 0)
(0.357203 -0.0966252 0)
(0.356787 -0.0967306 0)
(0.356878 -0.0966383 0)
(0.357495 -0.0963239 0)
(0.358659 -0.095762 0)
(0.360392 -0.0949208 0)
(0.362713 -0.0937704 0)
(0.365641 -0.0922785 0)
(0.369188 -0.0904127 0)
(0.373366 -0.0881386 0)
(0.378186 -0.0854209 0)
(0.383653 -0.082223 0)
(0.389767 -0.0785085 0)
(0.396519 -0.0742412 0)
(0.403897 -0.0693843 0)
(0.411876 -0.0639032 0)
(0.420425 -0.0577619 0)
(0.429498 -0.0509298 0)
(0.439043 -0.0433744 0)
(0.55316 -0.0592253 0)
(0.547384 -0.0586927 0)
(0.541181 -0.0582984 0)
(0.534657 -0.0580685 0)
(0.527813 -0.0579976 0)
(0.520644 -0.0581388 0)
(0.513246 -0.0584415 0)
(0.505699 -0.0589259 0)
(0.498044 -0.0595696 0)
(0.490316 -0.0603605 0)
(0.482561 -0.0612876 0)
(0.474816 -0.0623338 0)
(0.467119 -0.0634824 0)
(0.459508 -0.0647172 0)
(0.452013 -0.0660236 0)
(0.444664 -0.0673868 0)
(0.437486 -0.0687959 0)
(0.430504 -0.0702419 0)
(0.42374 -0.0717141 0)
(0.41721 -0.073204 0)
(0.410932 -0.0747047 0)
(0.404921 -0.0762108 0)
(0.399193 -0.0777171 0)
(0.39376 -0.0792187 0)
(0.388635 -0.0807115 0)
(0.383831 -0.0821909 0)
(0.379361 -0.0836519 0)
(0.375238 -0.0850892 0)
(0.371476 -0.0864963 0)
(0.36809 -0.0878655 0)
(0.365095 -0.0891879 0)
(0.36251 -0.0904527 0)
(0.360351 -0.0916475 0)
(0.358639 -0.0927578 0)
(0.357394 -0.0937673 0)
(0.356638 -0.0946574 0)
(0.356394 -0.0954041 0)
(0.356682 -0.0959843 0)
(0.357523 -0.0963719 0)
(0.358941 -0.0965389 0)
(0.360961 -0.0964481 0)
(0.363601 -0.0960647 0)
(0.366881 -0.0953572 0)
(0.370814 -0.0942867 0)
(0.375416 -0.0928137 0)
(0.380697 -0.0908943 0)
(0.386664 -0.0884882 0)
(0.393317 -0.0855504 0)
(0.400648 -0.0820379 0)
(0.408644 -0.0779043 0)
(0.417282 -0.0731052 0)
(0.426527 -0.0675972 0)
(0.436334 -0.0613361 0)
(0.446649 -0.0542803 0)
(0.553972 -0.0522669 0)
(0.54802 -0.0514219 0)
(0.541635 -0.0507376 0)
(0.534921 -0.0502483 0)
(0.527871 -0.0499619 0)
(0.520502 -0.049895 0)
(0.512903 -0.0500434 0)
(0.50517 -0.0503824 0)
(0.497352 -0.050922 0)
(0.489463 -0.0516344 0)
(0.481564 -0.0525096 0)
(0.473692 -0.0535291 0)
(0.465886 -0.054675 0)
(0.45818 -0.0559307 0)
(0.450606 -0.0572807 0)
(0.443191 -0.0587111 0)
(0.43596 -0.0602082 0)
(0.428936 -0.0617626 0)
(0.422139 -0.0633653 0)
(0.415585 -0.0650088 0)
(0.40929 -0.0666855 0)
(0.403268 -0.06839 0)
(0.397532 -0.0701182 0)
(0.392096 -0.0718663 0)
(0.386972 -0.0736306 0)
(0.382172 -0.0754079 0)
(0.377711 -0.0771944 0)
(0.373601 -0.078986 0)
(0.369858 -0.0807775 0)
(0.366498 -0.0825627 0)
(0.363539 -0.0843339 0)
(0.361 -0.0860817 0)
(0.3589 -0.0877947 0)
(0.357263 -0.0894592 0)
(0.35611 -0.0910589 0)
(0.355468 -0.0925751 0)
(0.355362 -0.0939855 0)
(0.355814 -0.0952669 0)
(0.356846 -0.0963906 0)
(0.358489 -0.0973247 0)
(0.360773 -0.0980273 0)
(0.36371 -0.098464 0)
(0.367321 -0.098596 0)
(0.371628 -0.0983826 0)
(0.376645 -0.0977765 0)
(0.382386 -0.0967295 0)
(0.388858 -0.0951924 0)
(0.396063 -0.093114 0)
(0.403995 -0.0904405 0)
(0.412642 -0.0871187 0)
(0.421979 -0.0830922 0)
(0.431973 -0.0783056 0)
(0.442579 -0.0727046 0)
(0.453737 -0.0662337 0)
(0.555111 -0.0450884 0)
(0.548967 -0.0439235 0)
(0.542367 -0.042956 0)
(0.535426 -0.0422104 0)
(0.528144 -0.0417122 0)
(0.520528 -0.0414611 0)
(0.512716 -0.0414644 0)
(0.504772 -0.0416699 0)
(0.49674 -0.0421327 0)
(0.488674 -0.0427729 0)
(0.480607 -0.0436095 0)
(0.472586 -0.0446146 0)
(0.464647 -0.0457685 0)
(0.456825 -0.0470533 0)
(0.449151 -0.0484528 0)
(0.44165 -0.0499519 0)
(0.434347 -0.051538 0)
(0.42726 -0.0531998 0)
(0.42041 -0.0549297 0)
(0.413811 -0.0567202 0)
(0.407478 -0.0585657 0)
(0.401423 -0.0604609 0)
(0.395659 -0.0624024 0)
(0.390196 -0.0643874 0)
(0.385049 -0.0664136 0)
(0.380228 -0.0684793 0)
(0.375748 -0.0705822 0)
(0.371623 -0.07272 0)
(0.367869 -0.0748894 0)
(0.364503 -0.0770859 0)
(0.361545 -0.0793036 0)
(0.359017 -0.0815349 0)
(0.35694 -0.08377 0)
(0.355339 -0.0859964 0)
(0.354241 -0.0881988 0)
(0.353674 -0.0903583 0)
(0.353665 -0.092453 0)
(0.354238 -0.0944603 0)
(0.355425 -0.0963519 0)
(0.357262 -0.09809 0)
(0.359774 -0.0996313 0)
(0.362978 -0.100939 0)
(0.366898 -0.101969 0)
(0.371556 -0.102675 0)
(0.376975 -0.103004 0)
(0.383168 -0.102905 0)
(0.390145 -0.10232 0)
(0.39791 -0.101189 0)
(0.406461 -0.0994478 0)
(0.415786 -0.0970369 0)
(0.425863 -0.0938849 0)
(0.436656 -0.0899222 0)
(0.448121 -0.0850854 0)
(0.4602 -0.0792954 0)
(0.55659 -0.0376469 0)
(0.550213 -0.0361535 0)
(0.543367 -0.0349043 0)
(0.536162 -0.0339063 0)
(0.528602 -0.0332094 0)
(0.520719 -0.0327929 0)
(0.512657 -0.0326571 0)
(0.50446 -0.0327715 0)
(0.496205 -0.0331543 0)
(0.48794 -0.0337472 0)
(0.479672 -0.034561 0)
(0.471479 -0.0355651 0)
(0.463387 -0.0367384 0)
(0.45543 -0.0380616 0)
(0.447637 -0.0395173 0)
(0.440034 -0.04109 0)
(0.43264 -0.042767 0)
(0.425475 -0.0445375 0)
(0.418555 -0.0463928 0)
(0.411893 -0.0483268 0)
(0.405503 -0.0503346 0)
(0.399396 -0.0524129 0)
(0.393581 -0.0545589 0)
(0.388071 -0.0567712 0)
(0.382876 -0.0590493 0)
(0.378009 -0.0613931 0)
(0.373482 -0.0638027 0)
(0.369312 -0.0662778 0)
(0.365514 -0.0688172 0)
(0.362108 -0.071419 0)
(0.359115 -0.0740794 0)
(0.356558 -0.076793 0)
(0.354462 -0.0795521 0)
(0.352856 -0.082346 0)
(0.351768 -0.0851611 0)
(0.351232 -0.087979 0)
(0.351275 -0.0907791 0)
(0.351926 -0.0935372 0)
(0.353221 -0.0962252 0)
(0.355207 -0.0988003 0)
(0.35791 -0.101227 0)
(0.361345 -0.103459 0)
(0.36554 -0.105446 0)
(0.370527 -0.107138 0)
(0.376325 -0.108472 0)
(0.382953 -0.109398 0)
(0.390426 -0.109846 0)
(0.398755 -0.109759 0)
(0.407935 -0.109051 0)
(0.41796 -0.107656 0)
(0.428812 -0.105491 0)
(0.44045 -0.102469 0)
(0.452832 -0.0985122 0)
(0.465892 -0.0935215 0)
(0.558428 -0.0298997 0)
(0.551759 -0.0280771 0)
(0.544624 -0.0265479 0)
(0.53711 -0.0253097 0)
(0.529232 -0.0244195 0)
(0.521045 -0.0238647 0)
(0.512698 -0.0236016 0)
(0.504233 -0.0236483 0)
(0.495722 -0.0239546 0)
(0.487225 -0.0245376 0)
(0.478744 -0.0253459 0)
(0.470359 -0.0263644 0)
(0.462097 -0.027571 0)
(0.453989 -0.0289442 0)
(0.446063 -0.0304652 0)
(0.438341 -0.0321179 0)
(0.430843 -0.0338888 0)
(0.423585 -0.035768 0)
(0.41658 -0.0377473 0)
(0.40984 -0.0398209 0)
(0.403376 -0.0419851 0)
(0.397197 -0.0442382 0)
(0.391313 -0.0465791 0)
(0.385732 -0.0490082 0)
(0.380466 -0.051527 0)
(0.375526 -0.0541379 0)
(0.370924 -0.0568428 0)
(0.366677 -0.0596445 0)
(0.362802 -0.0625446 0)
(0.359319 -0.0655436 0)
(0.35625 -0.0686409 0)
(0.353622 -0.0718337 0)
(0.351463 -0.0751168 0)
(0.349803 -0.078482 0)
(0.348677 -0.0819176 0)
(0.348119 -0.085407 0)
(0.348163 -0.0889302 0)
(0.34884 -0.0924636 0)
(0.350198 -0.0959794 0)
(0.352283 -0.0994278 0)
(0.35512 -0.102776 0)
(0.358743 -0.105981 0)
(0.363178 -0.108981 0)
(0.368459 -0.111727 0)
(0.374611 -0.114144 0)
(0.381653 -0.116182 0)
(0.389605 -0.117753 0)
(0.398488 -0.118805 0)
(0.408304 -0.119231 0)
(0.419042 -0.118971 0)
(0.430691 -0.117904 0)
(0.443202 -0.115958 0)
(0.456523 -0.112995 0)
(0.470582 -0.108918 0)
(0.560599 -0.0218136 0)
(0.553596 -0.019657 0)
(0.546126 -0.0178418 0)
(0.538263 -0.0163801 0)
(0.530007 -0.0153208 0)
(0.521491 -0.0146199 0)
(0.512823 -0.0142728 0)
(0.504057 -0.0142541 0)
(0.495266 -0.0145272 0)
(0.4865 -0.0151073 0)
(0.477798 -0.0159322 0)
(0.469207 -0.0169862 0)
(0.460761 -0.0182442 0)
(0.45249 -0.0196821 0)
(0.44442 -0.0212801 0)
(0.43657 -0.0230205 0)
(0.428956 -0.0248897 0)
(0.421593 -0.0268793 0)
(0.41449 -0.0289813 0)
(0.407659 -0.0311916 0)
(0.401105 -0.0335067 0)
(0.394838 -0.035927 0)
(0.388865 -0.0384535 0)
(0.383193 -0.0410884 0)
(0.377831 -0.0438359 0)
(0.372792 -0.0467011 0)
(0.368086 -0.0496892 0)
(0.363729 -0.0528051 0)
(0.35974 -0.0560539 0)
(0.35614 -0.0594397 0)
(0.352953 -0.0629651 0)
(0.350208 -0.0666309 0)
(0.347935 -0.0704354 0)
(0.34617 -0.0743731 0)
(0.344951 -0.078435 0)
(0.344316 -0.082607 0)
(0.344304 -0.0868696 0)
(0.344947 -0.0912001 0)
(0.34631 -0.0955706 0)
(0.348443 -0.0999328 0)
(0.351364 -0.104246 0)
(0.355118 -0.108468 0)
(0.359739 -0.112537 0)
(0.36527 -0.116401 0)
(0.371736 -0.119983 0)
(0.379165 -0.123217 0)
(0.387577 -0.126007 0)
(0.397006 -0.128295 0)
(0.407444 -0.12997 0)
(0.418898 -0.130955 0)
(0.431338 -0.131117 0)
(0.444714 -0.130339 0)
(0.458945 -0.128483 0)
(0.473894 -0.125406 0)
(0.563122 -0.0133168 0)
(0.555735 -0.0108253 0)
(0.547869 -0.00873108 0)
(0.539583 -0.00707544 0)
(0.530933 -0.0058763 0)
(0.522028 -0.00506031 0)
(0.513 -0.00465958 0)
(0.503919 -0.00460382 0)
(0.494812 -0.00488748 0)
(0.485768 -0.0054797 0)
(0.476817 -0.00634282 0)
(0.468002 -0.00744935 0)
(0.459359 -0.00877044 0)
(0.450914 -0.010281 0)
(0.44269 -0.0119608 0)
(0.434704 -0.0137919 0)
(0.426968 -0.0157636 0)
(0.419491 -0.0178674 0)
(0.412282 -0.0200929 0)
(0.405348 -0.0224374 0)
(0.398693 -0.0248968 0)
(0.392323 -0.0274752 0)
(0.386244 -0.0301759 0)
(0.380461 -0.033004 0)
(0.374982 -0.0359665 0)
(0.369816 -0.0390711 0)
(0.364976 -0.0423266 0)
(0.360478 -0.0457409 0)
(0.356338 -0.049323 0)
(0.35258 -0.0530811 0)
(0.34923 -0.0570222 0)
(0.346318 -0.0611512 0)
(0.343879 -0.0654706 0)
(0.341951 -0.0699789 0)
(0.340578 -0.0746702 0)
(0.339805 -0.0795337 0)
(0.339672 -0.0845506 0)
(0.340219 -0.0896997 0)
(0.341521 -0.0949497 0)
(0.343634 -0.100263 0)
(0.34658 -0.105588 0)
(0.35041 -0.110881 0)
(0.355159 -0.11608 0)
(0.360881 -0.121117 0)
(0.367614 -0.125932 0)
(0.375396 -0.130447 0)
(0.38424 -0.134556 0)
(0.394183 -0.138187 0)
(0.405229 -0.141229 0)
(0.41737 -0.143558 0)
(0.430576 -0.145061 0)
(0.444724 -0.145526 0)
(0.459664 -0.144828 0)
(0.47521 -0.142723 0)
(0.565994 -0.00436282 0)
(0.558157 -0.00153812 0)
(0.549826 0.000825732 0)
(0.54106 0.00267805 0)
(0.531957 0.00403417 0)
(0.522633 0.00492337 0)
(0.513201 0.00539094 0)
(0.503755 0.00543444 0)
(0.49432 0.00512284 0)
(0.484979 0.00447566 0)
(0.475768 0.00353117 0)
(0.466725 0.00232706 0)
(0.457883 0.0008967 0)
(0.449262 -0.000724878 0)
(0.440883 -0.00252495 0)
(0.432757 -0.00446453 0)
(0.424889 -0.00654134 0)
(0.417292 -0.00875147 0)
(0.40997 -0.0110886 0)
(0.402927 -0.0135577 0)
(0.396161 -0.0161539 0)
(0.389674 -0.0188846 0)
(0.383472 -0.0217503 0)
(0.377559 -0.0247588 0)
(0.371939 -0.0279206 0)
(0.366622 -0.031247 0)
(0.36162 -0.0347506 0)
(0.356945 -0.0384448 0)
(0.352616 -0.0423429 0)
(0.348657 -0.0464574 0)
(0.345095 -0.0507998 0)
(0.341962 -0.05538 0)
(0.339298 -0.0602051 0)
(0.337145 -0.0652781 0)
(0.335551 -0.0705974 0)
(0.33457 -0.0761559 0)
(0.334246 -0.0819374 0)
(0.334627 -0.0879188 0)
(0.335793 -0.0940752 0)
(0.337814 -0.100369 0)
(0.340714 -0.106745 0)
(0.344548 -0.113156 0)
(0.349373 -0.119538 0)
(0.355233 -0.125817 0)
(0.362165 -0.131935 0)
(0.370241 -0.137804 0)
(0.379478 -0.143338 0)
(0.389898 -0.148416 0)
(0.401522 -0.15294 0)
(0.414279 -0.156687 0)
(0.428106 -0.159584 0)
(0.442774 -0.161244 0)
(0.458035 -0.16169 0)
(0.473479 -0.160133 0)
(0.569235 0.00515316 0)
(0.560868 0.00832689 0)
(0.551993 0.010938 0)
(0.542685 0.01294 0)
(0.533067 0.0144026 0)
(0.523281 0.0153123 0)
(0.513418 0.0157689 0)
(0.503571 0.0157677 0)
(0.493792 0.0153818 0)
(0.484135 0.0146472 0)
(0.474643 0.0136076 0)
(0.465355 0.0123027 0)
(0.456301 0.010769 0)
(0.447491 0.00904226 0)
(0.438952 0.00712911 0)
(0.430688 0.00507437 0)
(0.422685 0.00286481 0)
(0.414969 0.000504295 0)
(0.40753 -0.00195907 0)
(0.400367 -0.00456651 0)
(0.393479 -0.0072626 0)
(0.386868 -0.0101158 0)
(0.38054 -0.0131218 0)
(0.374489 -0.0162949 0)
(0.368715 -0.0196457 0)
(0.363226 -0.0231836 0)
(0.35803 -0.0269213 0)
(0.353141 -0.0308763 0)
(0.34858 -0.0350671 0)
(0.344371 -0.0395134 0)
(0.340543 -0.0442336 0)
(0.337134 -0.0492447 0)
(0.334184 -0.0545601 0)
(0.331742 -0.0601893 0)
(0.32986 -0.0661352 0)
(0.328599 -0.0723947 0)
(0.328012 -0.0789554 0)
(0.328149 -0.0857902 0)
(0.329097 -0.0928806 0)
(0.330947 -0.100187 0)
(0.333723 -0.107663 0)
(0.337491 -0.115229 0)
(0.342312 -0.122854 0)
(0.348237 -0.13045 0)
(0.355316 -0.137955 0)
(0.363618 -0.145253 0)
(0.373179 -0.152296 0)
(0.384016 -0.1589 0)
(0.396148 -0.164972 0)
(0.409372 -0.170161 0)
(0.423564 -0.174409 0)
(0.438153 -0.176888 0)
(0.453072 -0.178166 0)
(0.466945 -0.176387 0)
(0.572813 0.0152764 0)
(0.563825 0.0187557 0)
(0.554313 0.0215745 0)
(0.544403 0.0237104 0)
(0.534214 0.0252222 0)
(0.523896 0.0261393 0)
(0.513568 0.0265475 0)
(0.503296 0.0264749 0)
(0.493144 0.0259813 0)
(0.483162 0.0251171 0)
(0.473392 0.0239326 0)
(0.463863 0.0224761 0)
(0.45461 0.020787 0)
(0.445623 0.0189075 0)
(0.436934 0.0168608 0)
(0.428541 0.0146715 0)
(0.420396 0.0123396 0)
(0.412562 0.00988273 0)
(0.405001 0.00729208 0)
(0.397722 0.00456609 0)
(0.390726 0.00168343 0)
(0.38397 -0.00134391 0)
(0.377491 -0.00450133 0)
(0.371262 -0.00779232 0)
(0.365298 -0.0112604 0)
(0.359607 -0.0149405 0)
(0.354191 -0.0188593 0)
(0.349061 -0.023037 0)
(0.344232 -0.0274933 0)
(0.339732 -0.0322499 0)
(0.33559 -0.0373298 0)
(0.331847 -0.0427552 0)
(0.328547 -0.0485457 0)
(0.325744 -0.0547168 0)
(0.323497 -0.0612779 0)
(0.321874 -0.068231 0)
(0.32094 -0.07557 0)
(0.320749 -0.0832696 0)
(0.321395 -0.0913075 0)
(0.322977 -0.0996603 0)
(0.325557 -0.108266 0)
(0.329176 -0.117054 0)
(0.333904 -0.125966 0)
(0.339813 -0.134951 0)
(0.346977 -0.143905 0)
(0.355438 -0.152733 0)
(0.365264 -0.161356 0)
(0.37642 -0.169568 0)
(0.388905 -0.177186 0)
(0.402234 -0.183654 0)
(0.416373 -0.189001 0)
(0.429892 -0.191744 0)
(0.443233 -0.193245 0)
(0.453671 -0.190486 0)
(0.576635 0.0261055 0)
(0.566945 0.0299091 0)
(0.556735 0.0329151 0)
(0.546132 0.0351529 0)
(0.535305 0.0366576 0)
(0.524429 0.0375286 0)
(0.513596 0.0378186 0)
(0.502875 0.0375953 0)
(0.492336 0.0369255 0)
(0.482023 0.0358743 0)
(0.471974 0.0345025 0)
(0.462213 0.0328638 0)
(0.452763 0.0310015 0)
(0.443619 0.0289675 0)
(0.434789 0.0267676 0)
(0.426258 0.024437 0)
(0.418007 0.0219705 0)
(0.410059 0.0194012 0)
(0.402389 0.0167022 0)
(0.394989 0.0139016 0)
(0.387845 0.0109528 0)
(0.380954 0.00784458 0)
(0.374316 0.00458611 0)
(0.367927 0.0010972 0)
(0.361782 -0.00260166 0)
(0.355864 -0.00648166 0)
(0.350183 -0.0105722 0)
(0.344763 -0.0149313 0)
(0.339623 -0.0196037 0)
(0.334783 -0.0246229 0)
(0.330272 -0.0300191 0)
(0.32613 -0.0358216 0)
(0.322406 -0.0420578 0)
(0.319161 -0.048751 0)
(0.316462 -0.0559176 0)
(0.314385 -0.063565 0)
(0.313011 -0.071691 0)
(0.312402 -0.0802749 0)
(0.312645 -0.0892857 0)
(0.31387 -0.0987113 0)
(0.316148 -0.108489 0)
(0.319539 -0.118536 0)
(0.324089 -0.128807 0)
(0.329899 -0.139218 0)
(0.337059 -0.149706 0)
(0.345596 -0.160144 0)
(0.355578 -0.170416 0)
(0.366895 -0.18023 0)
(0.379491 -0.18929 0)
(0.392281 -0.19658 0)
(0.405348 -0.202482 0)
(0.416125 -0.204475 0)
(0.425866 -0.205262 0)
(0.430853 -0.202088 0)
(0.580504 0.0377246 0)
(0.570026 0.0418152 0)
(0.559038 0.0449602 0)
(0.547708 0.0472155 0)
(0.536228 0.048666 0)
(0.524764 0.0494255 0)
(0.513406 0.0495417 0)
(0.502231 0.0491132 0)
(0.491301 0.0482145 0)
(0.480659 0.0469236 0)
(0.470336 0.0453119 0)
(0.460346 0.043443 0)
(0.450721 0.0413517 0)
(0.441421 0.0391055 0)
(0.432461 0.036724 0)
(0.423827 0.0342247 0)
(0.41547 0.0316022 0)
(0.407428 0.0289049 0)
(0.399661 0.026074 0)
(0.392154 0.0231607 0)
(0.384876 0.0200857 0)
(0.377856 0.0169094 0)
(0.37108 0.0135642 0)
(0.364489 0.01005 0)
(0.358117 0.00634082 0)
(0.35196 0.00236178 0)
(0.346026 -0.00192483 0)
(0.340306 -0.00650388 0)
(0.334805 -0.0113804 0)
(0.32956 -0.0166237 0)
(0.324611 -0.0222926 0)
(0.319998 -0.0284316 0)
(0.315775 -0.035079 0)
(0.312005 -0.0422664 0)
(0.308764 -0.0500176 0)
(0.306138 -0.0583471 0)
(0.304221 -0.067257 0)
(0.303091 -0.0767347 0)
(0.302834 -0.0867375 0)
(0.303585 -0.0972578 0)
(0.30547 -0.108244 0)
(0.308518 -0.119594 0)
(0.312803 -0.131281 0)
(0.318418 -0.143197 0)
(0.325468 -0.155271 0)
(0.333993 -0.167397 0)
(0.344005 -0.179307 0)
(0.355166 -0.190612 0)
(0.367369 -0.200695 0)
(0.378427 -0.207978 0)
(0.388888 -0.213305 0)
(0.394643 -0.214075 0)
(0.396886 -0.208917 0)
(0.399895 -0.206393 0)
(0.583775 0.050178 0)
(0.572553 0.0545252 0)
(0.560814 0.0577821 0)
(0.548775 0.0600134 0)
(0.536672 0.0613677 0)
(0.524645 0.0619214 0)
(0.512781 0.0617975 0)
(0.501175 0.0610838 0)
(0.489882 0.0598826 0)
(0.478943 0.0582859 0)
(0.468386 0.0563784 0)
(0.458202 0.0542272 0)
(0.448417 0.0519029 0)
(0.439021 0.0494138 0)
(0.429971 0.0468485 0)
(0.42123 0.0441546 0)
(0.412812 0.0414006 0)
(0.404685 0.038565 0)
(0.396828 0.0356361 0)
(0.389211 0.0326103 0)
(0.381827 0.0294629 0)
(0.374677 0.0262066 0)
(0.367702 0.022768 0)
(0.360932 0.0191609 0)
(0.354347 0.0153481 0)
(0.347937 0.011303 0)
(0.341691 0.00699621 0)
(0.33562 0.00235413 0)
(0.329754 -0.00270688 0)
(0.32409 -0.00818013 0)
(0.318649 -0.0140907 0)
(0.313492 -0.0205204 0)
(0.308683 -0.0275321 0)
(0.304295 -0.0351754 0)
(0.300412 -0.0434849 0)
(0.297131 -0.0524826 0)
(0.294557 -0.0621747 0)
(0.292795 -0.0725538 0)
(0.291925 -0.0835725 0)
(0.292089 -0.0952164 0)
(0.293456 -0.107441 0)
(0.296058 -0.120168 0)
(0.299959 -0.133301 0)
(0.305292 -0.146791 0)
(0.31213 -0.160527 0)
(0.320512 -0.174357 0)
(0.330306 -0.187836 0)
(0.340744 -0.200153 0)
(0.351671 -0.210373 0)
(0.359158 -0.21648 0)
(0.363751 -0.218183 0)
(0.365651 -0.218757 0)
(0.358628 -0.209315 0)
(0.352236 -0.202319 0)
(0.585167 0.0633086 0)
(0.573386 0.0679269 0)
(0.561088 0.0712448 0)
(0.548546 0.0734334 0)
(0.535971 0.0746249 0)
(0.523516 0.0749254 0)
(0.51129 0.0744831 0)
(0.499364 0.0734167 0)
(0.487812 0.0718467 0)
(0.476669 0.0698838 0)
(0.465951 0.0676227 0)
(0.455666 0.0651474 0)
(0.445798 0.0625265 0)
(0.436331 0.0597884 0)
(0.427221 0.056995 0)
(0.418446 0.0540941 0)
(0.409987 0.05121 0)
(0.401808 0.0482249 0)
(0.393879 0.0452262 0)
(0.386183 0.0420853 0)
(0.378693 0.0389129 0)
(0.371398 0.0355629 0)
(0.364282 0.0321107 0)
(0.357323 0.0284726 0)
(0.35051 0.0246246 0)
(0.343828 0.0205331 0)
(0.33727 0.0161544 0)
(0.330835 0.0114432 0)
(0.324524 0.00635528 0)
(0.318367 0.000791487 0)
(0.312414 -0.00534547 0)
(0.306658 -0.0120341 0)
(0.30118 -0.0193626 0)
(0.296069 -0.0274134 0)
(0.291428 -0.0362426 0)
(0.287366 -0.0458841 0)
(0.284007 -0.0563501 0)
(0.281479 -0.0676342 0)
(0.279872 -0.0796977 0)
(0.279326 -0.09249 0)
(0.280033 -0.106004 0)
(0.282077 -0.120128 0)
(0.285505 -0.134787 0)
(0.290427 -0.149903 0)
(0.29693 -0.165365 0)
(0.304978 -0.180821 0)
(0.314171 -0.195468 0)
(0.322964 -0.208023 0)
(0.330683 -0.215991 0)
(0.333305 -0.221041 0)
(0.327591 -0.216206 0)
(0.32191 -0.211718 0)
(0.315957 -0.206347 0)
(0.310447 -0.198748 0)
(0.582208 0.0768279 0)
(0.570462 0.081704 0)
(0.55814 0.0851147 0)
(0.545576 0.0872313 0)
(0.53295 0.088213 0)
(0.520436 0.0882312 0)
(0.508149 0.0874257 0)
(0.496183 0.0859622 0)
(0.484605 0.0839789 0)
(0.473454 0.0816059 0)
(0.462752 0.0789544 0)
(0.452485 0.0761232 0)
(0.442648 0.0731668 0)
(0.433237 0.0701655 0)
(0.424142 0.0671163 0)
(0.415402 0.0640678 0)
(0.406973 0.0609898 0)
(0.398786 0.0579303 0)
(0.39082 0.0547933 0)
(0.383061 0.0516505 0)
(0.375495 0.0483763 0)
(0.368086 0.045052 0)
(0.360832 0.0415551 0)
(0.353666 0.0379293 0)
(0.346621 0.0340885 0)
(0.339668 0.0300078 0)
(0.332785 0.025639 0)
(0.325963 0.0209235 0)
(0.319204 0.0157942 0)
(0.312518 0.010184 0)
(0.305915 0.0040249 0)
(0.29949 -0.00284956 0)
(0.293276 -0.0104742 0)
(0.287334 -0.0188858 0)
(0.281802 -0.0281888 0)
(0.276819 -0.0384406 0)
(0.27253 -0.0496651 0)
(0.269085 -0.0618577 0)
(0.266606 -0.0749864 0)
(0.265211 -0.0889668 0)
(0.265135 -0.103804 0)
(0.266491 -0.119394 0)
(0.269313 -0.13563 0)
(0.273723 -0.152462 0)
(0.279776 -0.16964 0)
(0.28723 -0.186391 0)
(0.294856 -0.201371 0)
(0.301081 -0.212157 0)
(0.301197 -0.217086 0)
(0.296397 -0.215321 0)
(0.28711 -0.211358 0)
(0.277179 -0.202585 0)
(0.273067 -0.198509 0)
(0.2731 -0.195245 0)
(0.571298 0.0896442 0)
(0.560664 0.0949692 0)
(0.549299 0.0985998 0)
(0.537566 0.100749 0)
(0.525683 0.101615 0)
(0.513804 0.101387 0)
(0.502066 0.100255 0)
(0.490574 0.0984056 0)
(0.479409 0.096013 0)
(0.468622 0.0932283 0)
(0.458242 0.0901872 0)
(0.448262 0.086995 0)
(0.438685 0.0837071 0)
(0.429472 0.0804473 0)
(0.420575 0.0771514 0)
(0.411967 0.0739531 0)
(0.403646 0.0707292 0)
(0.39552 0.0675672 0)
(0.387592 0.0643667 0)
(0.379822 0.0611842 0)
(0.372195 0.0578929 0)
(0.364706 0.054578 0)
(0.357302 0.0511045 0)
(0.349993 0.0475002 0)
(0.342708 0.0437146 0)
(0.335472 0.0397025 0)
(0.328246 0.0354087 0)
(0.32101 0.0307672 0)
(0.313758 0.0257013 0)
(0.30649 0.0201215 0)
(0.299228 0.0139289 0)
(0.291999 0.0070314 0)
(0.284893 -0.000722688 0)
(0.27804 -0.00946889 0)
(0.271489 -0.0191994 0)
(0.26543 -0.0300273 0)
(0.260044 -0.0419953 0)
(0.255513 -0.0551023 0)
(0.252003 -0.0693116 0)
(0.249622 -0.0845331 0)
(0.248605 -0.100737 0)
(0.249159 -0.117851 0)
(0.251274 -0.135756 0)
(0.255058 -0.154333 0)
(0.260577 -0.173087 0)
(0.266821 -0.190435 0)
(0.271657 -0.204122 0)
(0.271326 -0.211654 0)
(0.263655 -0.210949 0)
(0.250485 -0.205565 0)
(0.241359 -0.200169 0)
(0.239112 -0.196223 0)
(0.239112 -0.195437 0)
(0.242509 -0.196466 0)
(0.548799 0.10054 0)
(0.540772 0.106635 0)
(0.531677 0.110638 0)
(0.522008 0.112984 0)
(0.511937 0.113889 0)
(0.501655 0.113569 0)
(0.491318 0.112245 0)
(0.48106 0.110129 0)
(0.470974 0.107421 0)
(0.461128 0.104307 0)
(0.451565 0.100938 0)
(0.442265 0.0974376 0)
(0.433301 0.0939044 0)
(0.4246 0.0903953 0)
(0.41612 0.0869701 0)
(0.407871 0.0835777 0)
(0.399792 0.0803103 0)
(0.391871 0.0770406 0)
(0.384057 0.0738645 0)
(0.376343 0.0706174 0)
(0.368731 0.0674166 0)
(0.36119 0.0640815 0)
(0.353664 0.0607235 0)
(0.346178 0.0571967 0)
(0.338689 0.053518 0)
(0.331167 0.0496335 0)
(0.323576 0.0454821 0)
(0.315893 0.040994 0)
(0.308102 0.0360839 0)
(0.300194 0.0306478 0)
(0.292175 0.0245627 0)
(0.284083 0.0176885 0)
(0.275976 0.00989178 0)
(0.267963 0.00102238 0)
(0.260281 -0.00912166 0)
(0.252986 -0.0204888 0)
(0.246328 -0.0331895 0)
(0.240534 -0.047217 0)
(0.235821 -0.0625341 0)
(0.23231 -0.0790564 0)
(0.230255 -0.0966954 0)
(0.229886 -0.115413 0)
(0.231234 -0.135079 0)
(0.234376 -0.155403 0)
(0.239034 -0.175239 0)
(0.242839 -0.191937 0)
(0.241134 -0.202264 0)
(0.231745 -0.20416 0)
(0.217054 -0.198391 0)
(0.207228 -0.193192 0)
(0.203855 -0.189934 0)
(0.204239 -0.192486 0)
(0.209096 -0.197608 0)
(0.21647 -0.203147 0)
(0.513286 0.107545 0)
(0.50905 0.115011 0)
(0.503349 0.119698 0)
(0.496927 0.122665 0)
(0.489817 0.123943 0)
(0.482196 0.123803 0)
(0.474237 0.122523 0)
(0.466085 0.120356 0)
(0.457869 0.117529 0)
(0.449673 0.114251 0)
(0.441556 0.110704 0)
(0.433541 0.10703 0)
(0.425656 0.103374 0)
(0.417897 0.0997363 0)
(0.410178 0.0962213 0)
(0.402555 0.0928056 0)
(0.395004 0.0894926 0)
(0.387462 0.0862699 0)
(0.379935 0.0830842 0)
(0.372409 0.0799478 0)
(0.364879 0.0767892 0)
(0.357331 0.0736022 0)
(0.349755 0.0703262 0)
(0.342082 0.0669866 0)
(0.33434 0.0634872 0)
(0.326487 0.059804 0)
(0.318477 0.0558752 0)
(0.310283 0.0516308 0)
(0.301878 0.046979 0)
(0.29324 0.0418036 0)
(0.284363 0.0359576 0)
(0.275269 0.0292672 0)
(0.266029 0.0215394 0)
(0.256761 0.0125898 0)
(0.247628 0.00226629 0)
(0.238992 -0.00966774 0)
(0.230915 -0.0230806 0)
(0.223727 -0.0380528 0)
(0.217683 -0.0545335 0)
(0.212967 -0.0724377 0)
(0.209819 -0.0916139 0)
(0.208505 -0.112057 0)
(0.209101 -0.133561 0)
(0.211547 -0.155437 0)
(0.214397 -0.175331 0)
(0.212689 -0.189296 0)
(0.201019 -0.193747 0)
(0.185036 -0.188252 0)
(0.174084 -0.182898 0)
(0.169329 -0.181591 0)
(0.170408 -0.187027 0)
(0.17594 -0.194942 0)
(0.183971 -0.203575 0)
(0.193383 -0.211392 0)
(0.467941 0.109568 0)
(0.467583 0.120206 0)
(0.465278 0.125125 0)
(0.462643 0.128794 0)
(0.45898 0.130674 0)
(0.454649 0.13103 0)
(0.449778 0.130114 0)
(0.44448 0.12819 0)
(0.438862 0.125515 0)
(0.433024 0.122325 0)
(0.42703 0.118833 0)
(0.420916 0.115202 0)
(0.414699 0.111571 0)
(0.408361 0.107999 0)
(0.401913 0.104556 0)
(0.395327 0.101235 0)
(0.38861 0.0980613 0)
(0.381735 0.0949669 0)
(0.374711 0.091957 0)
(0.367533 0.088965 0)
(0.360198 0.0860169 0)
(0.352706 0.0830463 0)
(0.345036 0.0799918 0)
(0.337181 0.0768835 0)
(0.329083 0.0736295 0)
(0.320777 0.0702661 0)
(0.312213 0.0666663 0)
(0.30337 0.062773 0)
(0.294221 0.0584961 0)
(0.284733 0.0537128 0)
(0.274881 0.0482508 0)
(0.264665 0.0418962 0)
(0.254145 0.0343952 0)
(0.24346 0.0254856 0)
(0.232828 0.0149513 0)
(0.222507 0.00266873 0)
(0.213047 -0.011561 0)
(0.204429 -0.0275456 0)
(0.197051 -0.0452914 0)
(0.191172 -0.0646897 0)
(0.187006 -0.0855491 0)
(0.184837 -0.107808 0)
(0.184831 -0.131169 0)
(0.186233 -0.153924 0)
(0.184714 -0.172141 0)
(0.173028 -0.180263 0)
(0.154413 -0.176039 0)
(0.141575 -0.169676 0)
(0.136023 -0.170545 0)
(0.13681 -0.178295 0)
(0.142331 -0.189437 0)
(0.150683 -0.201318 0)
(0.160468 -0.212134 0)
(0.170895 -0.22113 0)
(0.419654 0.112276 0)
(0.421388 0.121244 0)
(0.419228 0.126316 0)
(0.420412 0.131616 0)
(0.420312 0.134031 0)
(0.419523 0.13496 0)
(0.418054 0.134591 0)
(0.415996 0.133114 0)
(0.41345 0.130802 0)
(0.410497 0.127922 0)
(0.407184 0.124704 0)
(0.40353 0.121345 0)
(0.39954 0.117966 0)
(0.395209 0.114677 0)
(0.390463 0.111532 0)
(0.385371 0.108498 0)
(0.379896 0.105667 0)
(0.373994 0.102901 0)
(0.367696 0.100225 0)
(0.361026 0.0975804 0)
(0.353976 0.0949793 0)
(0.346482 0.0923676 0)
(0.338625 0.0897041 0)
(0.33036 0.0869954 0)
(0.321746 0.084158 0)
(0.31277 0.0811476 0)
(0.303375 0.0779769 0)
(0.293649 0.0745136 0)
(0.283574 0.0706915 0)
(0.273114 0.066402 0)
(0.262213 0.0614628 0)
(0.250834 0.0556169 0)
(0.238995 0.0485211 0)
(0.226844 0.0398063 0)
(0.214664 0.029162 0)
(0.202809 0.016402 0)
(0.191647 0.00146753 0)
(0.1819 -0.0157597 0)
(0.173413 -0.0349305 0)
(0.166633 -0.0559927 0)
(0.161742 -0.0787091 0)
(0.15901 -0.102839 0)
(0.158505 -0.127692 0)
(0.157 -0.149832 0)
(0.146377 -0.16312 0)
(0.126017 -0.161165 0)
(0.110196 -0.154158 0)
(0.103246 -0.155858 0)
(0.103402 -0.166273 0)
(0.108611 -0.180756 0)
(0.11674 -0.195718 0)
(0.126334 -0.209454 0)
(0.136638 -0.221293 0)
(0.147358 -0.231073 0)
(0.369726 0.114455 0)
(0.369305 0.118957 0)
(0.370555 0.125706 0)
(0.373977 0.131954 0)
(0.375516 0.134461 0)
(0.377985 0.135744 0)
(0.379851 0.135868 0)
(0.3811 0.134883 0)
(0.38183 0.13302 0)
(0.382079 0.130582 0)
(0.381845 0.127823 0)
(0.381089 0.124934 0)
(0.379787 0.122045 0)
(0.377895 0.119267 0)
(0.375328 0.116638 0)
(0.37212 0.114238 0)
(0.368202 0.111953 0)
(0.363486 0.109786 0)
(0.358065 0.107731 0)