/*--------------------------------*- C++ -*----------------------------------*\
  =========                 |
  \\      /  F ield         | OpenFOAM: The Open Source CFD Toolbox
   \\    /   O peration     | Website:  https://openfoam.org
    \\  /    A nd           | Version:  10
     \\/     M anipulation  |
\*---------------------------------------------------------------------------*/
FoamFile
{
    format      ascii;
    class       surfaceScalarField;
    location    "0.699746";
    object      phi;
}
// * * * * * * * * * * * * * * * * * * * * * * * * * * * * * * * * * * * * * //

dimensions      [1 0 -1 0 0 0 0];

internalField   nonuniform List<scalar> 
32368
(
0.000220597
-0.00021565
0.000225499
-0.000208657
0.000226728
-0.000200773
0.000224339
-0.000192419
0.000220255
-0.000184279
0.000216301
-0.000177215
0.000213528
-0.000172721
0.000211479
-0.000170979
0.000213053
-0.000170572
0.000214448
-0.00017243
0.000214069
-0.0001702
0.00021379
-0.000162829
0.000215098
-0.000151424
0.000220156
-0.000137015
0.000225411
-0.000121553
0.000228857
-0.00010109
0.000231288
-7.71149e-05
0.000233245
-5.09432e-05
0.000235037
-2.34565e-05
0.000236838
4.60861e-06
0.000238948
3.20513e-05
0.000240658
5.79629e-05
0.000241603
8.17137e-05
0.000241625
0.000102656
0.000240443
0.000119686
0.000237362
0.000132117
0.000229944
0.000137478
0.000216502
0.000132562
0.00020716
0.000123995
0.000202641
0.000114228
0.000200122
0.000102371
0.000201808
8.82271e-05
7.62949e-05
0.000217156
0.000239003
-0.00023191
0.000245006
-0.000222406
0.000247902
-0.000211471
0.000246986
-0.000200888
0.000241958
-0.00018926
0.000234322
-0.000177924
0.000226226
-0.000167941
0.000218996
-0.000160895
0.000213352
-0.000157018
0.000209702
-0.000155183
0.000205004
-0.000153805
0.00020034
-0.000148072
0.000197642
-0.000138012
0.000199558
-0.000124364
0.000203246
-0.000111096
0.000204498
-9.12377e-05
0.000205011
-6.71869e-05
0.000205625
-4.07727e-05
0.000206689
-1.29698e-05
0.000208399
1.52478e-05
0.000210785
4.25751e-05
0.000213388
6.84435e-05
0.000215687
9.2036e-05
0.000217346
0.000112532
0.000218468
0.000128743
0.000217917
0.000139353
0.000211711
0.000141633
0.000202932
0.000134964
0.000198391
0.000126575
0.000197649
0.000116811
0.000198183
0.000104367
0.000204772
9.07088e-05
8.0991e-05
0.000223288
0.000250326
-0.000242105
0.00025895
-0.000232402
0.000264251
-0.000219743
0.000265506
-0.000206239
0.000261985
-0.000191144
0.000254163
-0.000176255
0.000242692
-0.00016189
0.000230751
-0.000149112
0.000219191
-0.000140087
0.00020994
-0.000134754
0.000200948
-0.000132111
0.000192029
-0.000127529
0.000185368
-0.000119218
0.00018381
-0.000107189
0.000187151
-9.52648e-05
0.000186409
-7.77462e-05
0.000185145
-5.45649e-05
0.000183652
-2.87284e-05
0.000183378
-1.09453e-06
0.000184652
2.66428e-05
0.000187162
5.35302e-05
0.000190305
7.89239e-05
0.000193598
0.000101922
0.000196856
0.000121459
0.000199777
0.000136119
0.000200228
0.000144091
0.000195099
0.000141878
0.000191402
0.00013542
0.000191416
0.000127389
0.000193602
0.000117534
0.000197559
0.000105014
0.000209916
9.29728e-05
8.48096e-05
0.000230531
0.000256354
-0.000254148
0.000267644
-0.000241734
0.000275007
-0.000226236
0.000278395
-0.000209286
0.00027759
-0.000190885
0.000271855
-0.000172094
0.000260255
-0.000153659
0.000244576
-0.000135998
0.000228804
-0.000120947
0.000213659
-0.000111144
0.000200671
-0.000105404
0.000187876
-0.000101552
0.000177275
-9.50951e-05
0.000171537
-8.50426e-05
0.00017409
-7.3826e-05
0.000173022
-5.93207e-05
0.000170364
-3.82595e-05
0.000167157
-1.40864e-05
0.000165962
1.25701e-05
0.000166699
3.91782e-05
0.00016885
6.53017e-05
0.000172062
8.99276e-05
0.000176071
0.000111867
0.000180338
0.000129742
0.000184109
0.000141619
0.00018345
0.000144612
0.000181735
0.00014104
0.000182617
0.000134968
0.000186287
0.000127097
0.00019092
0.000117492
0.000198675
0.000105444
0.000217892
9.62415e-05
8.78436e-05
0.000238915
0.000258935
-0.000263734
0.00027236
-0.000249045
0.000282139
-0.000231498
0.000287808
-0.000211152
0.000289012
-0.000188715
0.00028555
-0.000165611
0.000276345
-0.000142436
0.000259622
-0.000120653
0.000239301
-0.000100532
0.0002201
-8.48413e-05
0.000202417
-7.60375e-05
0.000186262
-7.08265e-05
0.000172177
-6.60911e-05
0.000162816
-5.84207e-05
0.000163075
-4.83544e-05
0.00016158
-3.62458e-05
0.000157847
-1.80772e-05
0.000154153
3.6827e-06
0.000151998
2.77986e-05
0.000152697
5.26743e-05
0.000155033
7.75835e-05
0.000158546
0.000100988
0.000162999
0.000121262
0.000167457
0.000136264
0.000169745
0.000143901
0.000170447
0.000144039
0.000172434
0.000140164
0.000176767
0.00013413
0.000183227
0.000126599
0.000190572
0.000116004
0.000204267
0.00010641
0.000227624
0.000100765
8.98799e-05
0.000248041
0.000254187
-0.000268943
0.000268832
-0.000251181
0.000280596
-0.000230256
0.00028875
-0.000206651
0.000292639
-0.000180736
0.000291849
-0.000153465
0.000285852
-0.000126546
0.000273263
-0.000100976
0.000251101
-7.83211e-05
0.000227021
-5.78048e-05
0.000205541
-4.40222e-05
0.000186001
-3.74676e-05
0.0001689
-3.33881e-05
0.000156365
-2.80894e-05
0.000153998
-1.96024e-05
0.000151829
-9.74541e-06
0.000147202
5.37052e-06
0.000143831
2.38909e-05
0.000140923
4.43707e-05
0.000141317
6.70187e-05
0.000143896
9.00321e-05
0.000147896
0.000111629
0.000152568
0.000129596
0.000156494
0.000141182
0.000159024
0.000145124
0.000162039
0.000143774
0.000166664
0.000139366
0.000173616
0.000133515
0.000182226
0.000125599
0.000193824
0.000117275
0.000215392
0.00011182
0.000238747
0.000103716
8.9741e-05
0.000256709
0.000240987
-0.000267964
0.000256608
-0.000248226
0.00026921
-0.000225186
0.000278648
-0.00019871
0.000284239
-0.000169325
0.000286289
-0.000138174
0.00028384
-0.00010745
0.000276209
-7.78401e-05
0.000261601
-5.14185e-05
0.000234954
-3.00663e-05
0.000208909
-1.1417e-05
0.000186498
-1.83155e-06
0.000166576
1.80586e-06
0.000151155
4.56373e-06
0.000145117
1.11439e-05
0.000142981
1.92329e-05
0.000138585
3.06643e-05
0.000135314
4.53495e-05
0.000132652
6.26743e-05
0.000132184
8.22568e-05
0.000134938
0.00010254
0.000139469
0.000121668
0.000144374
0.000136674
0.000148306
0.000144746
0.000152057
0.000146259
0.000156694
0.000143775
0.000163862
0.000139735
0.000173482
0.000134661
0.000185299
0.000128172
0.000205179
0.000122907
0.000228591
0.000116037
0.000249223
0.000104123
8.64607e-05
0.000263254
0.000218689
-0.000264911
0.000235476
-0.000245457
0.000249964
-0.000219583
0.000260874
-0.000189476
0.000267594
-0.000156487
0.000271265
-0.000121814
0.000272198
-8.74776e-05
0.000268379
-5.47283e-05
0.000259388
-2.42971e-05
0.000241747
1.32467e-06
0.000212791
1.99381e-05
0.00018763
3.34459e-05
0.000166192
3.83132e-05
0.000148082
3.92707e-05
0.000137503
4.28078e-05
0.000136057
4.88582e-05
0.00013231
5.73917e-05
0.000128676
6.82634e-05
0.000126516
8.22372e-05
0.000125513
9.85592e-05
0.000128023
0.000115553
0.000132807
0.000131269
0.00013798
0.000142794
0.000142451
0.000147732
0.000147378
0.000147781
0.000154747
0.000146095
0.000165521
0.000143509
0.000178415
0.0001389
0.000196996
0.00013418
0.000219052
0.000127595
0.000240145
0.000116662
0.000256378
0.000100319
7.9923e-05
0.000266924
0.000192923
-0.000267726
0.00021113
-0.000244488
0.000225852
-0.000214145
0.000237018
-0.00017967
0.000244688
-0.00014315
0.000249443
-0.000105505
0.000252615
-6.82406e-05
0.000252821
-3.26891e-05
0.000247391
1.14024e-06
0.00023597
3.15302e-05
0.000213977
5.28745e-05
0.000186291
6.6889e-05
0.000165277
7.25382e-05
0.000146443
7.41001e-05
0.000133267
7.41312e-05
0.000130528
7.82847e-05
0.000127338
8.42244e-05
0.000123497
9.21694e-05
0.000121604
0.000102586
0.000120932
0.000115398
0.00012326
0.000129355
0.000127828
0.000141306
0.000133138
0.000148883
0.000138703
0.000151804
0.000146794
0.000152814
0.000158518
0.000152556
0.000172015
0.000149384
0.000189806
0.00014497
0.000210176
0.000138276
0.000230319
0.000127549
0.000247238
0.000112027
0.000259806
9.27137e-05
7.15732e-05
0.000268633
0.000165463
-0.00027225
0.000183696
-0.000243612
0.000197949
-0.000207765
0.00020867
-0.000168793
0.000216528
-0.000128947
0.000222257
-8.92521e-05
0.000226744
-5.01309e-05
0.00022932
-1.20042e-05
0.000226223
2.57592e-05
0.000218314
5.93608e-05
0.000203588
8.45712e-05
0.000177813
9.91896e-05
0.000157031
0.000104847
0.000140902
0.000105655
0.000127361
0.000104598
0.000122873
0.000104931
0.00012159
0.000110061
0.000118459
0.000115632
0.000116968
0.000122613
0.000117672
0.000132013
0.000120507
0.000142887
0.00012506
0.000152108
0.000131157
0.000157377
0.000140343
0.000160036
0.000152482
0.000160846
0.000165874
0.000158887
0.000182338
0.000154203
0.00020125
0.00014731
0.000219788
0.000136568
0.000236421
0.000121615
0.000250352
0.000103592
0.00026092
8.29845e-05
6.15751e-05
0.00026719
0.000135559
-0.00027371
0.000152285
-0.000239536
0.000165039
-0.000197529
0.000174803
-0.000154767
0.000182833
-0.000113077
0.000190072
-7.26249e-05
0.000196172
-3.31202e-05
0.00020052
6.87608e-06
0.00019989
4.82526e-05
0.000194822
8.43673e-05
0.000185353
0.0001126
0.000165025
0.000129703
0.00014502
0.000134633
0.000130961
0.000134336
0.000119554
0.00013202
0.000113625
0.00012938
0.000114443
0.000132172
0.000112818
0.000137407
0.000112204
0.000141464
0.000114292
0.000147207
0.000118861
0.000154674
0.000125188
0.000161171
0.000133907
0.000164867
0.000145337
0.000166232
0.000158985
0.000165136
0.000173946
0.000160873
0.000191007
0.000153693
0.000208257
0.000143179
0.000224407
0.000129297
0.000239462
0.000112367
0.000250648
9.26956e-05
0.000258446
7.22184e-05
5.31471e-05
0.000263991
0.000101084
-0.000270421
0.00011516
-0.000229201
0.000126262
-0.000181199
0.000135599
-0.000137526
0.000144871
-9.60236e-05
0.000153777
-5.65093e-05
0.000162027
-1.77278e-05
0.0001676
2.38072e-05
0.000169757
6.71131e-05
0.000167327
0.000106057
0.000161579
0.000137076
0.000148029
0.000156931
0.00012983
0.000161153
0.000118146
0.000159262
0.000109249
0.000156221
0.00010338
0.000151776
0.000105025
0.000150321
0.000106465
0.000154719
0.000107643
0.000157689
0.000110981
0.000160461
0.00011707
0.000164125
0.000125397
0.000167353
0.000136153
0.000168513
0.000149128
0.000167592
0.000163813
0.000163954
0.000179555
0.00015725
0.000195908
0.000147622
0.000212326
0.000134929
0.000227254
0.000119191
0.000239454
0.000100996
0.000247589
8.1531e-05
0.00025154
6.29111e-05
4.74533e-05
0.000252955
6.31983e-05
-0.000260378
7.6828e-05
-0.000214145
8.68976e-05
-0.000170512
9.61221e-05
-0.000128843
0.000105415
-8.57983e-05
0.00011587
-4.38481e-05
0.000126048
-4.78611e-06
0.000133571
3.82207e-05
0.000137442
8.32949e-05
0.000137129
0.000124626
0.000134049
0.000157918
0.000125948
0.000179964
0.000111312
0.000184125
0.000102452
0.000180235
9.66469e-05
0.000176543
9.28475e-05
0.000170999
9.4277e-05
0.000166266
9.84175e-05
0.000166685
0.000102715
0.00016871
0.000108141
0.000170064
0.000115813
0.000170752
0.000125724
0.000170736
0.000137943
0.000169139
0.000152127
0.000165426
0.000167656
0.000159282
0.000183918
0.000150294
0.000199892
0.000138475
0.000214695
0.000123987
0.000226831
0.000107312
0.000233926
8.89183e-05
0.000235803
7.14452e-05
0.00023643
5.76547e-05
4.62353e-05
0.000235704
2.75944e-05
-0.000249409
3.91877e-05
-0.000210274
5.10753e-05
-0.000170117
6.16598e-05
-0.000128147
7.12099e-05
-8.32685e-05
7.96715e-05
-3.79891e-05
8.96802e-05
4.60536e-06
9.82004e-05
4.97852e-05
0.0001033
9.66072e-05
0.000104592
0.000140276
0.000103809
0.000175191
0.000100111
0.000198586
8.99824e-05
0.0002029
8.44231e-05
0.000197042
8.1981e-05
0.000192749
8.10681e-05
0.000186559
8.35829e-05
0.00017979
8.92285e-05
0.000176269
9.60847e-05
0.000174002
0.000104233
0.000172854
0.000114284
0.000171675
0.000126459
0.000169558
0.000140279
0.000165639
0.000155495
0.000159386
0.000171193
0.000150791
0.000186705
0.000139922
0.000201172
0.000126652
0.000212603
0.000111247
0.000217588
9.41912e-05
0.000218721
7.90279e-05
0.000219778
6.72739e-05
0.000219147
5.80515e-05
5.40229e-05
0.000223124
-8.77802e-06
-0.00024637
2.57864e-06
-0.000211161
1.43541e-05
-0.000172935
2.54243e-05
-0.00013063
3.57861e-05
-8.44604e-05
4.48157e-05
-3.62907e-05
5.34094e-05
1.04325e-05
6.13639e-05
5.81502e-05
6.68622e-05
0.000107261
6.93916e-05
0.000152972
7.07682e-05
0.000189047
7.07075e-05
0.000212936
6.59225e-05
0.00021629
6.43182e-05
0.000209525
6.53786e-05
0.000204722
6.78135e-05
0.000198152
7.28876e-05
0.000190116
7.97329e-05
0.000183811
8.81736e-05
0.000178042
9.88575e-05
0.000173746
0.000111438
0.000169501
0.000125441
0.000164147
0.000140359
0.000157697
0.000155857
0.000149676
0.000171722
0.000139851
0.000185944
0.000127659
0.000196159
0.000113319
0.000199603
9.83648e-05
0.00020151
8.60646e-05
0.000202877
7.64615e-05
0.000203509
6.99604e-05
0.000207207
6.70472e-05
6.16691e-05
0.000207504
-4.4873e-05
-0.000246951
-3.46081e-05
-0.000213838
-2.45971e-05
-0.000177559
-1.46707e-05
-0.000136785
-4.59411e-06
-8.97731e-05
5.80944e-06
-3.95794e-05
1.53735e-05
1.10806e-05
2.21077e-05
6.44425e-05
2.70239e-05
0.000115923
3.13453e-05
0.000162191
3.53759e-05
0.000199
3.90891e-05
0.000222778
4.00002e-05
0.000224525
4.26108e-05
0.000217179
4.7304e-05
0.000212456
5.3357e-05
0.000205524
6.11478e-05
0.000197165
7.02277e-05
0.000189129
8.10729e-05
0.000181211
9.36525e-05
0.000173617
0.00010754
0.000166085
0.000122581
0.000158302
0.000138411
0.000149887
0.000154245
0.00014009
0.000167878
0.00012807
0.000176167
0.000114753
0.000180901
0.000102469
0.000184314
9.28002e-05
0.000186041
8.53078e-05
0.000188105
8.15828e-05
0.000191543
7.92662e-05
0.000190816
7.34882e-05
6.45676e-05
0.000187253
-8.37199e-05
-0.000247975
-7.55063e-05
-0.000217367
-6.8247e-05
-0.000185362
-6.04735e-05
-0.000147663
-5.08695e-05
-9.98635e-05
-4.09477e-05
-4.60163e-05
-3.16572e-05
8.15758e-06
-2.45515e-05
6.60139e-05
-1.77042e-05
0.00011989
-1.0087e-05
0.000166143
-1.77077e-06
0.000203218
6.33268e-06
0.000226856
1.31498e-05
0.000226656
2.02327e-05
0.000219998
2.8555e-05
0.000216082
3.77282e-05
0.00020934
4.85316e-05
0.000200822
6.05161e-05
0.000191588
7.35825e-05
0.000181451
8.76052e-05
0.000171358
0.000102685
0.000161822
0.000118568
0.000152244
0.00013393
0.000141602
0.000145983
0.000129557
0.000154781
0.000117633
0.000161332
0.00010756
0.000166379
9.99619e-05
0.000168814
9.45366e-05
0.000172763
9.30391e-05
0.000175741
9.0672e-05
0.00017493
8.44267e-05
0.000171953
7.46936e-05
6.02622e-05
0.000164862
-0.00012547
-0.000248028
-0.000121
-0.000219712
-0.000118752
-0.000191079
-0.000115962
-0.000158014
-0.000106557
-0.000112364
-9.46496e-05
-5.65065e-05
-8.63951e-05
3.71717e-06
-7.7775e-05
6.29581e-05
-6.63215e-05
0.000117472
-5.41011e-05
0.000164512
-4.1409e-05
0.000202218
-2.73785e-05
0.000224141
-1.42508e-05
0.000222018
-2.64572e-06
0.00021816
9.18787e-06
0.000215531
2.14742e-05
0.000209256
3.52889e-05
0.000200519
4.97735e-05
0.000190056
6.46062e-05
0.000178524
8.01361e-05
0.000167376
9.5959e-05
0.000156457
0.000110512
0.000144635
0.000122225
0.000132711
0.000131776
0.000122228
0.000139947
0.000113935
0.000146357
0.00010787
0.000150513
0.000104561
0.000156363
0.000104143
0.000159603
0.000101339
0.00015949
9.47705e-05
0.000157377
8.41309e-05
0.000149278
6.76317e-05
5.07999e-05
0.000136395
-0.000166893
-0.000245489
-0.000165982
-0.000218483
-0.000169314
-0.000191862
-0.000172646
-0.000162282
-0.000166476
-0.000119493
-0.000155394
-6.48926e-05
-0.000143762
-4.4081e-06
-0.00013047
5.53905e-05
-0.0001149
0.000110025
-9.85295e-05
0.000157529
-8.04973e-05
0.000194279
-6.05103e-05
0.000213252
-4.11623e-05
0.000211372
-2.55178e-05
0.000211302
-1.0199e-05
0.000209659
5.48883e-06
0.000203872
2.14094e-05
0.000195414
3.78093e-05
0.00018464
5.43634e-05
0.000173016
7.04731e-05
0.000160973
8.43725e-05
0.00014868
9.63338e-05
0.000137404
0.000106777
0.000128295
0.000116098
0.00012159
0.000123355
0.000116724
0.000130065
0.00011501
0.000138049
0.000114659
0.000142292
0.00011123
0.000144519
0.000104173
0.000143903
9.19771e-05
0.00013504
7.33008e-05
0.000123074
5.69708e-05
4.63098e-05
0.000114641
-0.000206449
-0.000240362
-0.000207887
-0.000213753
-0.000215595
-0.00018823
-0.000223324
-0.000161593
-0.000220298
-0.000122309
-0.000210607
-7.08759e-05
-0.000197438
-1.3979e-05
-0.000180971
4.43861e-05
-0.000161834
9.83612e-05
-0.000141291
0.000145256
-0.000117138
0.000179168
-8.87064e-05
0.000193609
-6.60587e-05
0.000196314
-4.70624e-05
0.000200265
-2.88142e-05
0.000199979
-1.07216e-05
0.000195068
7.41282e-06
0.000187166
2.52635e-05
0.000176189
4.18719e-05
0.000164231
5.60146e-05
0.00015239
6.85793e-05
0.000142499
7.98813e-05
0.000135022
8.97147e-05
0.00012952
9.78386e-05
0.000126003
0.000107112
0.000125507
0.000116365
0.000124414
0.000123194
0.000120072
0.000128925
0.000111922
0.000130196
9.68877e-05
0.000120657
7.71487e-05
0.000111343
6.25907e-05
0.000104497
5.33122e-05
4.68825e-05
9.80455e-05
-0.000241332
-0.00023438
-0.000242932
-0.000206862
-0.000251549
-0.000179494
-0.000263428
-0.000153483
-0.000263424
-0.000120126
-0.000255454
-7.41939e-05
-0.000241676
-2.31168e-05
-0.000223255
3.11809e-05
-0.000201174
8.22743e-05
-0.000175258
0.000126276
-0.00014383
0.000155886
-0.000112814
0.000170742
-8.88489e-05
0.000180478
-6.73695e-05
0.00018685
-4.6588e-05
0.000187621
-2.65688e-05
0.000183203
-6.92643e-06
0.000175157
1.06232e-05
0.000164427
2.58518e-05
0.000154645
3.92286e-05
0.000146763
5.09272e-05
0.000141135
6.11402e-05
0.000136794
7.05413e-05
0.000134938
8.18401e-05
0.000134568
9.2079e-05
0.000132047
0.000102306
0.000126853
0.000111572
0.000117306
0.000113381
9.97827e-05
0.000106155
8.12085e-05
0.000100623
6.86651e-05
9.56402e-05
6.08465e-05
8.94606e-05
5.56765e-05
5.25201e-05
8.31228e-05
-0.000269928
-0.000229596
-0.000269642
-0.000199917
-0.000272653
-0.000172002
-0.000282002
-0.000142365
-0.00029017
-0.000112765
-0.000287256
-7.36975e-05
-0.000273926
-2.89699e-05
-0.000255325
1.90614e-05
-0.000231176
6.53378e-05
-0.000200456
0.000104563
-0.000165005
0.000131682
-0.000135063
0.000149658
-0.000109589
0.000162974
-8.58824e-05
0.000170377
-6.31023e-05
0.000171645
-4.18646e-05
0.000167981
-2.29871e-05
0.000161361
-6.27561e-06
0.000154277
8.18137e-06
0.000148791
2.03921e-05
0.000145005
3.07909e-05
0.000142769
4.22924e-05
0.000142732
5.44551e-05
0.000141157
6.65966e-05
0.000137276
7.98284e-05
0.000131042
9.13189e-05
0.000118984
9.26801e-05
0.000100974
9.10004e-05
8.57555e-05
8.91853e-05
7.56432e-05
8.60847e-05
6.9555e-05
8.00839e-05
6.56321e-05
7.23036e-05
6.391e-05
6.3095e-05
6.32229e-05
-0.00029866
-0.000223684
-0.000293427
-0.000195977
-0.000291725
-0.000166177
-0.000291335
-0.000136829
-0.000295195
-0.000104527
-0.00029569
-6.99987e-05
-0.000286537
-3.18579e-05
-0.000268435
9.04599e-06
-0.000242987
4.82588e-05
-0.000210888
8.25274e-05
-0.000179549
0.000109101
-0.000152052
0.000129401
-0.000126288
0.000143705
-0.000101767
0.000152001
-7.89483e-05
0.00015491
-5.82895e-05
0.000154057
-4.05223e-05
0.000151086
-2.51842e-05
0.000147693
-1.22569e-05
0.000145671
2.60207e-07
0.000145967
1.31592e-05
0.000146703
2.60647e-05
0.00014433
4.06623e-05
0.00013942
5.59818e-05
0.000131349
6.68344e-05
0.000117662
7.1186e-05
0.000102552
7.46308e-05
9.1431e-05
7.59623e-05
8.38866e-05
7.39858e-05
7.94985e-05
6.75729e-05
7.78691e-05
5.90294e-05
7.99796e-05
4.92459e-05
8.20445e-05
8.03701e-05
3.69295e-05
-0.000324256
-0.000212537
-0.000315927
-0.000190024
-0.000309443
-0.00016282
-0.00030518
-0.000132492
-0.000299609
-0.000101428
-0.000293102
-6.86942e-05
-0.000282485
-3.48667e-05
-0.000265751
3.04894e-07
-0.00024406
3.46872e-05
-0.000218215
6.55933e-05
-0.000192127
9.13356e-05
-0.000166471
0.000111834
-0.000141588
0.000126684
-0.000118061
0.000136205
-9.63886e-05
0.000141216
-7.69318e-05
0.000142926
-6.05503e-05
0.000143338
-4.61945e-05
0.000144207
-3.18147e-05
0.000145389
-1.75877e-05
0.000145271
-2.2984e-06
0.000143336
1.44947e-05
0.000137998
3.04691e-05
0.000128034
4.13734e-05
0.000115447
4.98912e-05
0.000104862
5.61878e-05
9.72977e-05
5.91406e-05
9.25801e-05
5.74134e-05
9.0855e-05
5.17687e-05
9.39127e-05
4.47395e-05
9.94115e-05
3.34228e-05
0.000102325
1.87264e-05
0.00010089
9.58437e-05
2.88201e-06
-0.000337368
-0.000196654
-0.000336
-0.000178799
-0.000328613
-0.000156238
-0.000319451
-0.000128187
-0.000310547
-9.89227e-05
-0.000300915
-6.82799e-05
-0.000288492
-3.69662e-05
-0.000272231
-5.76821e-06
-0.000252623
2.5045e-05
-0.000230318
5.32489e-05
-0.000206813
7.747e-05
-0.000182562
9.71602e-05
-0.000158757
0.000112196
-0.000136454
0.000122923
-0.000116083
0.000130567
-9.75015e-05
0.000135693
-8.01812e-05
0.000138706
-6.37417e-05
0.000139879
-4.74288e-05
0.000139503
-3.0069e-05
0.000137715
-1.18048e-05
0.000131877
3.72637e-06
0.000122148
1.67823e-05
0.000113586
2.78183e-05
0.00010734
3.51996e-05
0.000103018
3.83119e-05
0.000101121
3.73807e-05
0.000104272
3.4924e-05
0.000111052
2.75358e-05
0.000117537
1.54549e-05
0.000121342
1.42237e-07
0.000121376
-1.73419e-05
0.000116791
0.000107622
-3.44735e-05
-0.00033679
-0.000178519
-0.000340929
-0.000161943
-0.000341009
-0.000142255
-0.000336292
-0.000118892
-0.000327725
-9.32659e-05
-0.000315315
-6.62638e-05
-0.00030124
-3.76802e-05
-0.000284725
-9.0417e-06
-0.000265841
1.86923e-05
-0.000244973
4.45994e-05
-0.000222618
6.75354e-05
-0.000200121
8.69287e-05
-0.000177601
0.000102503
-0.000155642
0.000113975
-0.000134497
0.000121908
-0.000114232
0.000126624
-9.46876e-05
0.000129206
-7.53124e-05
0.000129701
-5.59803e-05
0.000127135
-3.7934e-05
0.00012228
-2.15985e-05
0.000116569
-6.80899e-06
0.000111498
4.50255e-06
0.000108299
1.18299e-05
0.000107473
1.54486e-05
0.000110501
1.69652e-05
0.00011698
1.44478e-05
0.000124965
7.57749e-06
0.000132041
-2.97134e-06
0.000137596
-1.74003e-05
0.000139611
-3.46767e-05
0.000136494
-5.28109e-05
0.000127877
0.000115008
-6.97888e-05
-0.000324006
-0.000159968
-0.000330721
-0.000143479
-0.000334448
-0.000124837
-0.000334512
-0.000104767
-0.000330741
-8.25653e-05
-0.00032445
-5.86073e-05
-0.000313535
-3.37387e-05
-0.000298676
-8.70734e-06
-0.000280876
1.58032e-05
-0.00026038
3.88537e-05
-0.000238186
5.95638e-05
-0.000214917
7.71023e-05
-0.000191131
9.12679e-05
-0.000167485
0.000102016
-0.000144516
0.000109492
-0.000122095
0.000113707
-0.000100404
0.00011512
-8.00726e-05
0.000113836
-6.16254e-05
0.000111878
-4.47849e-05
0.000110182
-3.0679e-05
0.00010847
-1.98139e-05
0.000108038
-1.27281e-05
0.000111005
-7.75994e-06
0.000117461
-6.0914e-06
0.000125135
-8.29162e-06
0.000133218
-1.33346e-05
0.000141797
-2.16772e-05
0.000148985
-3.35801e-05
0.000153542
-4.89091e-05
0.00015343
-6.70182e-05
0.000147269
-8.65149e-05
0.000135764
0.000121783
-0.000106933
-0.000304338
-0.000147448
-0.00030995
-0.000125343
-0.000314214
-0.000107751
-0.000317504
-8.8342e-05
-0.000317146
-6.86144e-05
-0.000312921
-4.80466e-05
-0.000304992
-2.69959e-05
-0.000293333
-5.96433e-06
-0.00027739
1.46093e-05
-0.000258627
3.41553e-05
-0.000237681
5.18472e-05
-0.000214924
6.69583e-05
-0.000191308
7.91179e-05
-0.000167201
8.79727e-05
-0.000143599
9.38697e-05
-0.000121482
9.77358e-05
-0.000101076
0.000100209
-8.26208e-05
0.000101672
-6.70548e-05
0.000102791
-5.41303e-05
0.000104417
-4.47481e-05
0.000107472
-3.76118e-05
0.000112953
-3.32259e-05
0.000119897
-3.16326e-05
0.000127648
-3.20094e-05
0.000136339
-3.49e-05
0.000145595
-4.01877e-05
0.000154738
-4.84127e-05
0.000162048
-6.0346e-05
0.000165687
-7.6459e-05
0.000163126
-9.7093e-05
0.000155196
-0.000122296
0.000144482
0.000136043
-0.000154484
-0.000284807
-0.000135818
-0.000283921
-0.000114017
-0.000287003
-9.07672e-05
-0.00028898
-7.28476e-05
-0.000289218
-5.41823e-05
-0.000286599
-3.62564e-05
-0.00028055
-1.84671e-05
-0.000271161
-1.29163e-06
-0.000258602
1.51042e-05
-0.000242309
3.06217e-05
-0.000222947
4.46132e-05
-0.000201924
5.67389e-05
-0.000179847
6.68421e-05
-0.000158007
7.49538e-05
-0.000137325
8.15473e-05
-0.000118515
8.67952e-05
-0.000101813
9.11021e-05
-8.76227e-05
9.51812e-05
-7.70982e-05
0.000100046
-6.89452e-05
0.000106296
-6.33743e-05
0.000112975
-6.00105e-05
0.000119843
-5.79289e-05
0.00012768
-5.71314e-05
0.00013611
-5.74969e-05
0.000145472
-5.9294e-05
0.000155084
-6.30958e-05
0.000163864
-7.00726e-05
0.000170294
-8.16834e-05
0.000172063
-0.000100288
0.000169654
-0.000128529
0.000165272
-0.000165936
0.000159424
0.000148625
-0.000208077
-0.000270868
-0.000125657
-0.000261577
-0.000103544
-0.000257163
-7.95005e-05
-0.00025787
-5.73308e-05
-0.00025853
-3.9231e-05
-0.000257184
-2.32039e-05
-0.000252427
-8.43608e-06
-0.000244407
5.19146e-06
-0.000233359
1.7927e-05
-0.000219339
2.98672e-05
-0.00020278
4.07775e-05
-0.000184858
5.0546e-05
-0.000166563
5.92259e-05
-0.000148814
6.7044e-05
-0.000132339
7.42473e-05
-0.00011789
8.10405e-05
-0.000106353
8.79798e-05
-9.82114e-05
9.5903e-05
-9.26138e-05
0.000104395
-8.92109e-05
0.000112533
-8.67416e-05
0.000120151
-8.5211e-05
0.000127697
-8.37774e-05
0.000135658
-8.21299e-05
0.000143592
-8.03014e-05
0.000151477
-7.91481e-05
0.000159221
-7.91947e-05
0.000165611
-8.36379e-05
0.000170275
-9.62598e-05
0.000173684
-0.000120976
0.000176528
-0.000157101
0.000175261
-0.000200384
0.000165979
0.000148195
-0.000241126
-0.000248679
-0.000117044
-0.000241137
-9.45213e-05
-0.000231688
-6.95454e-05
-0.000225068
-4.50787e-05
-0.000223845
-2.51381e-05
-0.00022334
-9.10966e-06
-0.000220855
3.29203e-06
-0.000215294
1.39486e-05
-0.000206757
2.36231e-05
-0.00019558
3.23342e-05
-0.000182257
4.03948e-05
-0.00016811
4.82764e-05
-0.000154236
5.61535e-05
-0.000141331
6.43322e-05
-0.000130314
7.28671e-05
-0.000122137
8.22372e-05
-0.00011718
9.24782e-05
-0.000114501
0.000103078
-0.00011333
0.000113034
-0.000112687
0.000121895
-0.000112097
0.000129673
-0.000111084
0.000136872
-0.000108669
0.000143029
-0.000104382
0.000148048
-9.7842e-05
0.000152039
-9.1478e-05
0.000154967
-8.64435e-05
0.000159309
-8.84272e-05
0.000164749
-0.000102297
0.000172503
-0.000130198
0.00017879
-0.000169545
0.000176811
-0.000212338
0.000162967
0.000140502
-0.000252096
-0.000226321
-0.000109475
-0.000218152
-8.78375e-05
-0.000209169
-6.21875e-05
-0.000198987
-3.5877e-05
-0.000190025
-1.28e-05
-0.000187291
3.89428e-06
-0.000186193
1.64891e-05
-0.000184016
2.55451e-05
-0.000179124
3.27633e-05
-0.000171513
3.88637e-05
-0.000161975
4.45242e-05
-0.000152847
5.09463e-05
-0.000144678
5.86156e-05
-0.00013801
6.76026e-05
-0.000134071
7.82801e-05
-0.000133101
9.02878e-05
-0.000133442
0.000102854
-0.000134602
0.000114792
-0.00013594
0.000125332
-0.00013667
0.000133887
-0.000136723
0.000140902
-0.000134818
0.000145887
-0.000129612
0.000148085
-0.000120586
0.000147765
-0.000108933
0.000146176
-9.65475e-05
0.000146387
-8.74872e-05
0.000148898
-8.58413e-05
0.000155602
-9.79159e-05
0.000165424
-0.000125956
0.000172356
-0.00016423
0.000167398
-0.000203813
0.000149575
0.000126339
-0.000239003
-0.000202833
-0.000102776
-0.000197025
-8.2127e-05
-0.000188935
-5.70332e-05
-0.000179565
-2.99964e-05
-0.000169111
-4.73978e-06
-0.000158926
1.60823e-05
-0.000155817
2.94258e-05
-0.000154874
3.88544e-05
-0.000153583
4.48671e-05
-0.00015022
4.9331e-05
-0.000145143
5.34078e-05
-0.00014174
5.89823e-05
-0.000139758
6.68633e-05
-0.000139823
7.70594e-05
-0.000143166
8.97638e-05
-0.000147205
0.000103852
-0.000150941
0.000117627
-0.000154496
0.000130081
-0.000156872
0.00014007
-0.000158059
0.000147532
-0.000157181
0.000152226
-0.000152514
0.000152964
-0.000143699
0.000150178
-0.000131115
0.000146102
-0.000115884
0.000141678
-0.000100491
0.000137918
-8.6528e-05
0.00013721
-7.95836e-05
0.000142512
-8.87231e-05
0.000152226
-0.000118065
0.000160486
-0.00015963
0.000156372
-0.000199499
0.000138802
0.000116168
-0.000230194
-0.000184528
-9.85472e-05
-0.0001753
-7.72121e-05
-0.000170725
-5.2644e-05
-0.000166769
-2.60977e-05
-0.000158495
1.3905e-06
-0.000149559
2.45245e-05
-0.000140427
4.27559e-05
-0.000135744
5.28142e-05
-0.000134635
5.84714e-05
-0.000134595
6.27237e-05
-0.000134108
6.68244e-05
-0.000135984
7.22535e-05
-0.000139646
8.06302e-05
-0.000145772
9.20343e-05
-0.000154261
0.000106227
-0.000161102
0.000121277
-0.000167085
0.000135401
-0.000171361
0.000147464
-0.000173518
0.000156025
-0.000173293
0.000160985
-0.000169869
0.000161977
-0.000162896
0.000159622
-0.000153775
0.000155392
-0.00014255
0.000149322
-0.000128445
0.000141599
-0.000112655
0.00013475
-9.73039e-05
0.000130328
-8.76624e-05
0.000133276
-9.44293e-05
0.000140714
-0.000125839
0.000148096
-0.00017182
0.000145062
-0.000212833
0.000129063
0.000105997
-0.000239138
-0.000175499
-9.37142e-05
-0.00016467
-7.37023e-05
-0.000155702
-4.91923e-05
-0.000153167
-2.25442e-05
-0.000153218
5.05353e-06
-0.000146206
3.17441e-05
-0.000138683
5.24234e-05
-0.000131197
6.72751e-05
-0.000126587
7.46852e-05
-0.000126652
7.80536e-05
-0.000129249
8.31482e-05
-0.000135241
8.94616e-05
-0.000143047
9.84313e-05
-0.00015385
0.000110915
-0.000164645
0.000126165
-0.000172815
0.000141209
-0.00017936
0.000154839
-0.000182824
0.000165293
-0.000183104
0.000171103
-0.000180813
0.000173275
-0.000177042
0.000173146
-0.00017273
0.00017104
-0.000167803
0.000166781
-0.000161976
0.000161406
-0.000155694
0.000155264
-0.000153098
0.000155432
-0.000151673
0.00015773
-0.000149018
0.000159122
-0.00015452
0.000151124
-0.000186262
0.000136676
-0.00023469
0.000118913
-0.000273273
0.000103282
8.79288e-05
-0.000287787
-0.000171949
-8.8379e-05
-0.000161615
-6.89e-05
-0.00015263
-4.55484e-05
-0.000147489
-1.92288e-05
-0.00014991
8.2282e-06
-0.000148948
3.76114e-05
-0.00014269
6.08661e-05
-0.00013693
7.92436e-05
-0.000131183
9.12191e-05
-0.000127407
9.65477e-05
-0.000130673
0.000101211
-0.000138503
0.000108751
-0.000148428
0.000118492
-0.000161733
0.000132035
-0.000172656
0.000147654
-0.000181041
0.000162233
-0.00018632
0.000174826
-0.000187641
0.000182508
-0.000186403
0.000186148
-0.000184692
0.000188349
-0.000183976
0.000189028
-0.000183639
0.000188083
-0.000184374
0.000186685
-0.000190401
0.000189784
-0.000204752
0.000203007
-0.00022077
0.000214295
-0.000221768
0.000210451
-0.000213497
0.000185575
-0.000203347
0.000142108
-0.000224232
8.69369e-05
-0.000271318
4.09763e-05
-0.00031287
2.25909e-05
2.72445e-05
-0.000332229
-0.000171489
-8.22249e-05
-0.000163466
-6.32172e-05
-0.000155989
-4.05592e-05
-0.00015145
-1.47651e-05
-0.000152772
1.30773e-05
-0.000156123
4.27748e-05
-0.000151192
6.88698e-05
-0.000146284
8.98406e-05
-0.000141054
0.000105538
-0.000135126