/*--------------------------------*- C++ -*----------------------------------*\
| =========                 |                                                 |
| \\      /  F ield         | OpenFOAM: The Open Source CFD Toolbox           |
|  \\    /   O peration     | Version:  2406                                  |
|   \\  /    A nd           | Website:  www.openfoam.com                      |
|    \\/     M anipulation  |                                                 |
\*---------------------------------------------------------------------------*/
FoamFile
{
    version     2.0;
    format      ascii;
    arch        "LSB;label=32;scalar=64";
    class       volScalarField;
    location    "400";
    object      p;
}
// * * * * * * * * * * * * * * * * * * * * * * * * * * * * * * * * * * * * * //

dimensions      [0 2 -2 0 0 0 0];

internalField   nonuniform List<scalar> 
16384
(
2.739862e-09
4.400098e-09
4.53487e-09
4.346626e-09
4.025508e-09
3.595475e-09
3.101071e-09
2.568407e-09
2.017961e-09
1.469064e-09
9.317553e-10
4.155589e-10
-7.346616e-11
-5.349336e-10
-9.663874e-10
-1.36703e-09
-1.739792e-09
-2.084981e-09
-2.400968e-09
-2.691106e-09
-2.9556e-09
-3.194014e-09
-3.408681e-09
-3.596188e-09
-3.755308e-09
-3.887962e-09
-3.992067e-09
-4.064134e-09
-4.102563e-09
-4.103994e-09
-4.064885e-09
-3.984249e-09
-3.859309e-09
-3.684052e-09
-3.453091e-09
-3.164445e-09
-2.815239e-09
-2.399905e-09
-1.91375e-09
-1.353613e-09
-7.165234e-10
1.574314e-12
8.044843e-10
1.694729e-09
2.67437e-09
3.745197e-09
4.909393e-09
6.168562e-09
7.522269e-09
8.969765e-09
1.051111e-08
1.214594e-08
1.387284e-08
1.568878e-08
1.758876e-08
1.956742e-08
2.161977e-08
2.373972e-08
2.591955e-08
2.815003e-08
3.042013e-08
3.271724e-08
3.502822e-08
3.733903e-08
3.963378e-08
4.189546e-08
4.410676e-08
4.624937e-08
4.830411e-08
5.025203e-08
5.207454e-08
5.375267e-08
5.526736e-08
5.660014e-08
5.773351e-08
5.865092e-08
5.933685e-08
5.977716e-08
5.995968e-08
5.987449e-08
5.951391e-08
5.887271e-08
5.794851e-08
5.674163e-08
5.525538e-08
5.349645e-08
5.147386e-08
4.919869e-08
4.668459e-08
4.394748e-08
4.100523e-08
3.787772e-08
3.458672e-08
3.115534e-08
2.760765e-08
2.396879e-08
2.026424e-08
1.651895e-08
1.275748e-08
9.003687e-09
5.280372e-09
1.609168e-09
-1.989151e-09
-5.495074e-09
-8.890548e-09
-1.215886e-08
-1.528507e-08
-1.825614e-08
-2.106076e-08
-2.368855e-08
-2.612999e-08
-2.837754e-08
-3.042514e-08
-3.226724e-08
-3.389872e-08
-3.531574e-08
-3.651562e-08
-3.749618e-08
-3.825657e-08
-3.879775e-08
-3.912355e-08
-3.92426e-08
-3.916988e-08
-3.892982e-08
-3.856189e-08
-3.812798e-08
-3.77238e-08
-3.746771e-08
4.459329e-09
4.718275e-09
4.668624e-09
4.486663e-09
4.20054e-09
3.826784e-09
3.388805e-09
2.91357e-09
2.425038e-09
1.931412e-09
1.442276e-09
9.687428e-10
5.144022e-10
8.4803e-11
-3.185999e-10
-6.978255e-10
-1.052266e-09
-1.381291e-09
-1.683357e-09
-1.961174e-09
-2.216046e-09
-2.446233e-09
-2.652127e-09
-2.831659e-09
-2.983926e-09
-3.110476e-09
-3.209649e-09
-3.276636e-09
-3.309009e-09
-3.305829e-09
-3.264521e-09
-3.181893e-09
-3.054194e-09
-2.877504e-09
-2.647539e-09
-2.360987e-09
-2.014681e-09
-1.604162e-09
-1.125288e-09
-5.743529e-10
5.199344e-11
7.57265e-10
1.54451e-09
2.415864e-09
3.37386e-09
4.420695e-09
5.557719e-09
6.785728e-09
8.104451e-09
9.513425e-09
1.101296e-08
1.260264e-08
1.428021e-08
1.604214e-08
1.788398e-08
1.980075e-08
2.178745e-08
2.383819e-08
2.594516e-08
2.809879e-08
3.028842e-08
3.250217e-08
3.472697e-08
3.694904e-08
3.915333e-08
4.132319e-08
4.344136e-08
4.549045e-08
4.745255e-08
4.93093e-08
5.104241e-08
5.263377e-08
5.406546e-08
5.531982e-08
5.637981e-08
5.722951e-08
5.785445e-08
5.824132e-08
5.837827e-08
5.825584e-08
5.786718e-08
5.720752e-08
5.627455e-08
5.506896e-08
5.359443e-08
5.185758e-08
4.986725e-08
4.763414e-08
4.517143e-08
4.249479e-08
3.962174e-08
3.657131e-08
3.33643e-08
3.002328e-08
2.657169e-08
2.30337e-08
1.943387e-08
1.579613e-08
1.214392e-08
8.500089e-09
4.886683e-09
1.324527e-09
-2.166529e-09
-5.567577e-09
-8.861275e-09
-1.20317e-08
-1.506463e-08
-1.794742e-08
-2.066903e-08
-2.321996e-08
-2.559155e-08
-2.777643e-08
-2.976872e-08
-3.156371e-08
-3.315715e-08
-3.454591e-08
-3.572825e-08
-3.670318e-08
-3.747097e-08
-3.803415e-08
-3.83979e-08
-3.857162e-08
-3.857077e-08
-3.84186e-08
-3.814965e-08
-3.781341e-08
-3.747437e-08
-3.721496e-08
4.959617e-09
4.997868e-09
4.897236e-09
4.711702e-09
4.450409e-09
4.117964e-09
3.727189e-09
3.304198e-09
2.863512e-09
2.416998e-09
1.974407e-09
1.540791e-09
1.122161e-09
7.244901e-10
3.470928e-10
-1.019329e-11
-3.442484e-10
-6.556771e-10
-9.437478e-10
-1.209325e-09
-1.453794e-09
-1.675525e-09
-1.872721e-09
-2.044326e-09
-2.191736e-09
-2.314293e-09
-2.407825e-09
-2.469822e-09
-2.499944e-09
-2.495553e-09
-2.45263e-09
-2.369602e-09
-2.24365e-09
-2.069325e-09
-1.842062e-09
-1.559873e-09
-1.220439e-09
-8.18816e-10
-3.500056e-10
1.893145e-10
8.013679e-10
1.489205e-09
2.256636e-09
3.106484e-09
4.040555e-09
5.060085e-09
6.166295e-09
7.360138e-09
8.64175e-09
1.001092e-08
1.146737e-08
1.301022e-08
1.463748e-08
1.634561e-08
1.812998e-08
1.99861e-08
2.190914e-08
2.389278e-08
2.592926e-08
2.800951e-08
3.012295e-08
3.225795e-08
3.440215e-08
3.654194e-08
3.866231e-08
4.074738e-08
4.278074e-08
4.474533e-08
4.662368e-08
4.839814e-08
5.005113e-08
5.156509e-08
5.29226e-08
5.410672e-08
5.510128e-08
5.589078e-08
5.646095e-08
5.679933e-08
5.689518e-08
5.673918e-08
5.632431e-08
5.564647e-08
5.470414e-08
5.349812e-08
5.203178e-08
5.031155e-08
4.834649e-08
4.614755e-08
4.372748e-08
4.110131e-08
3.828627e-08
3.530111e-08
3.216614e-08
2.890329e-08
2.553539e-08
2.208571e-08
1.857794e-08
1.503544e-08
1.148087e-08
7.936136e-09
4.422294e-09
9.596945e-10
-2.43244e-09
-5.735939e-09
-8.934379e-09
-1.201256e-08
-1.495666e-08
-1.775477e-08
-2.039667e-08
-2.287332e-08
-2.517667e-08
-2.729994e-08
-2.923759e-08
-3.098565e-08
-3.254109e-08
-3.390141e-08
-3.506534e-08
-3.603315e-08
-3.680621e-08
-3.738756e-08
-3.778288e-08
-3.800125e-08
-3.805628e-08
-3.796727e-08
-3.776116e-08
-3.747271e-08
-3.713426e-08
-3.681147e-08
5.450403e-09
5.409496e-09
5.266819e-09
5.056627e-09
4.784563e-09
4.459405e-09
4.094902e-09
3.70174e-09
3.292236e-09
2.879324e-09
2.468893e-09
2.067193e-09
1.680072e-09
1.308335e-09
9.535445e-10
6.172294e-10
3.010157e-10
6.215165e-12
-2.678998e-10
-5.234769e-10
-7.58624e-10
-9.707627e-10
-1.160962e-09
-1.328183e-09
-1.471913e-09
-1.591562e-09
-1.683492e-09
-1.744691e-09
-1.774534e-09
-1.77131e-09
-1.731337e-09
-1.65208e-09
-1.530385e-09
-1.36124e-09
-1.14112e-09
-8.684041e-10
-5.396478e-10
-1.493596e-10
3.065694e-10
8.302713e-10
1.424089e-09
2.092036e-09
2.838016e-09
3.664423e-09
4.572654e-09
5.563566e-09
6.638651e-09
7.799313e-09
9.045464e-09
1.037674e-08
1.179298e-08
1.329312e-08
1.487509e-08
1.653573e-08
1.827051e-08
2.007463e-08
2.194353e-08
2.387117e-08
2.584948e-08
2.786959e-08
2.992169e-08
3.199434e-08
3.4075e-08
3.615037e-08
3.820604e-08
4.022666e-08
4.219621e-08
4.40978e-08
4.591425e-08
4.762853e-08
4.922333e-08
5.068128e-08
5.198542e-08
5.311917e-08
5.406658e-08
5.48126e-08
5.534339e-08
5.564657e-08
5.571165e-08
5.553006e-08
5.509509e-08
5.440253e-08
5.345097e-08
5.224154e-08
5.077785e-08
4.906601e-08
4.711484e-08
4.493559e-08
4.254123e-08
3.994657e-08
3.716861e-08
3.422604e-08
3.113885e-08
2.792858e-08
2.461775e-08
2.122934e-08
1.778642e-08
1.431154e-08
1.082688e-08
7.354134e-09
3.914007e-09
5.262824e-10
-2.790517e-09
-6.018751e-09
-9.142292e-09
-1.21468e-08
-1.501937e-08
-1.774857e-08
-2.032478e-08
-2.273939e-08
-2.498489e-08
-2.705546e-08
-2.894643e-08
-3.065416e-08
-3.217621e-08
-3.351107e-08
-3.465787e-08
-3.561712e-08
-3.639078e-08
-3.698187e-08
-3.739555e-08
-3.763985e-08
-3.772553e-08
-3.766654e-08
-3.748102e-08
-3.71892e-08
-3.679715e-08
-3.637676e-08
6.062422e-09
5.926455e-09
5.727545e-09
5.478026e-09
5.179493e-09
4.847416e-09
4.489826e-09
4.112202e-09
3.725211e-09
3.335619e-09
2.949926e-09
2.575183e-09
2.213447e-09
1.864025e-09
1.529682e-09
1.213351e-09
9.148076e-10
6.344174e-10
3.725888e-10
1.270509e-10
-9.976702e-11
-3.040829e-10
-4.88107e-10
-6.522072e-10
-7.947535e-10
-9.135667e-10
-1.00519e-09
-1.068009e-09
-1.101622e-09
-1.103533e-09
-1.069558e-09
-9.966311e-10
-8.822633e-10
-7.226046e-10
-5.139412e-10
-2.538681e-10
6.128308e-11
4.36265e-10
8.746662e-10
1.378842e-09
1.951432e-09
2.596713e-09
3.318342e-09
4.118164e-09
4.997688e-09
5.958083e-09
7.000717e-09
8.127072e-09
9.337334e-09
1.063105e-08
1.200795e-08
1.346706e-08
1.500635e-08
1.662272e-08
1.831203e-08
2.006952e-08
2.189024e-08
2.376834e-08
2.569633e-08
2.766545e-08
2.966594e-08
3.168657e-08
3.371509e-08
3.573859e-08
3.7743e-08
3.971319e-08
4.16335e-08
4.348738e-08
4.525758e-08
4.692719e-08
4.847943e-08
4.989696e-08
5.116258e-08
5.226001e-08
5.317373e-08
5.388869e-08
5.439092e-08
5.466832e-08
5.47107e-08
5.450971e-08
5.405893e-08
5.335419e-08
5.239395e-08
5.117923e-08
4.97139e-08
4.800439e-08
4.605931e-08
4.388967e-08
4.150867e-08
3.893144e-08
3.617513e-08
3.325854e-08
3.020167e-08
2.702578e-08
2.375303e-08
2.040595e-08
1.700741e-08
1.357997e-08
1.014569e-08
6.725889e-09
3.340791e-09
9.900943e-12
-3.248237e-09
-6.416576e-09
-9.479657e-09
-1.242386e-08
-1.523702e-08
-1.790799e-08
-2.042759e-08
-2.278811e-08
-2.498286e-08
-2.700664e-08
-2.885555e-08
-3.052656e-08
-3.201751e-08
-3.332767e-08
-3.445689e-08
-3.540564e-08
-3.61757e-08
-3.676976e-08
-3.719192e-08
-3.744831e-08
-3.754688e-08
-3.74972e-08
-3.73102e-08
-3.699298e-08
-3.653023e-08
-3.600716e-08
6.748036e-09
6.518985e-09
6.245633e-09
5.945907e-09
5.617482e-09
5.267775e-09
4.903167e-09
4.531288e-09
4.156006e-09
3.782909e-09
3.418334e-09
3.064102e-09
2.721539e-09
2.392025e-09
2.076542e-09
1.77763e-09
1.495452e-09
1.228241e-09
9.763374e-10
7.399949e-10
5.221926e-10
3.240025e-10
1.424145e-10
-2.090725e-11
-1.630113e-10
-2.825827e-10
-3.769333e-10
-4.446672e-10
-4.851422e-10
-4.948633e-10
-4.696128e-10
-4.067597e-10
-3.03968e-10
-1.575568e-10
3.63966e-11
2.804523e-10
5.780763e-10
9.336213e-10
1.350544e-09
1.83162e-09
2.379698e-09
2.998849e-09
3.692686e-09
4.463087e-09
5.311413e-09
6.238874e-09
7.247124e-09
8.337817e-09
9.511251e-09
1.076712e-08
1.210509e-08
1.352414e-08
1.502247e-08
1.659726e-08
1.824427e-08
1.995888e-08
2.173625e-08
2.357057e-08
2.545468e-08
2.738009e-08
2.933692e-08
3.131423e-08
3.330031e-08
3.528255e-08
3.72471e-08
3.917898e-08
4.10626e-08
4.288175e-08
4.461941e-08
4.625826e-08
4.778127e-08
4.917156e-08
5.041213e-08
5.14862e-08
5.237792e-08
5.30725e-08
5.355615e-08
5.38167e-08
5.3844e-08
5.362975e-08
5.316757e-08
5.245333e-08
5.148547e-08
5.026504e-08
4.879566e-08
4.708374e-08
4.513819e-08
4.297009e-08
4.05927e-08
3.802152e-08
3.52741e-08
3.236966e-08
2.932833e-08
2.617103e-08
2.29197e-08
1.959699e-08
1.622576e-08
1.282843e-08
9.427033e-09
6.043115e-09
2.696931e-09
-5.925566e-10
-3.807034e-09
-6.92975e-09
-9.945704e-09
-1.284156e-08
-1.560569e-08
-1.822787e-08
-2.069969e-08
-2.301401e-08
-2.516461e-08
-2.714677e-08
-2.895752e-08
-3.059477e-08
-3.20568e-08
-3.33431e-08
-3.445394e-08
-3.539005e-08
-3.615296e-08
-3.67448e-08
-3.716844e-08
-3.742773e-08
-3.75274e-08
-3.747305e-08
-3.727108e-08
-3.691881e-08
-3.638429e-08
-3.576609e-08
7.483385e-09
7.158366e-09
6.798895e-09
6.444571e-09
6.078226e-09
5.702111e-09
5.32422e-09
4.948074e-09
4.577298e-09
4.215499e-09
3.865187e-09
3.526266e-09
3.199292e-09
2.886283e-09
2.587978e-09
2.304764e-09
2.035234e-09
1.778371e-09
1.536046e-09
1.308627e-09
1.09744e-09
9.023346e-10
7.213731e-10
5.574833e-10
4.137569e-10
2.904888e-10
1.899745e-10
1.143993e-10
6.437043e-11
4.354985e-11
5.663285e-11
1.059169e-10
1.933621e-10
3.226776e-10
4.980791e-10
7.222333e-10
9.982902e-10
1.330429e-09
1.722223e-09
2.176472e-09
2.696187e-09
3.285706e-09
3.948528e-09
4.686344e-09
5.50062e-09
6.392716e-09
7.364474e-09
8.417879e-09
9.55341e-09
1.077076e-08
1.206972e-08
1.344942e-08
1.490818e-08
1.644333e-08
1.805061e-08
1.972555e-08
2.14638e-08
2.325954e-08
2.510525e-08
2.699288e-08
2.891317e-08
3.085525e-08
3.280764e-08
3.475806e-08
3.669287e-08
3.859738e-08
4.045616e-08
4.225271e-08
4.396985e-08
4.559044e-08
4.709728e-08
4.847305e-08
4.970061e-08
5.076319e-08
5.164459e-08
5.232959e-08
5.280432e-08
5.305666e-08
5.307656e-08
5.285562e-08
5.238728e-08
5.166719e-08
5.069357e-08
4.946752e-08
4.79928e-08
4.627557e-08
4.432473e-08
4.215168e-08
3.977009e-08
3.719572e-08
3.444641e-08
3.154176e-08
2.850255e-08
2.534995e-08
2.210544e-08
1.879169e-08
1.543201e-08
1.20492e-08
8.665165e-09
5.301451e-09
1.978682e-09
-1.28425e-09
-4.46926e-09
-7.559596e-09
-1.054069e-08
-1.339977e-08
-1.612576e-08
-1.870907e-08
-2.114165e-08
-2.341691e-08
-2.552951e-08
-2.74755e-08
-2.925259e-08
-3.085945e-08
-3.22947e-08
-3.355799e-08
-3.464998e-08
-3.557163e-08
-3.632421e-08
-3.690935e-08
-3.732898e-08
-3.758484e-08
-3.767833e-08
-3.761164e-08
-3.738733e-08
-3.699697e-08
-3.639658e-08
-3.56961e-08
8.240079e-09
7.819142e-09
7.374035e-09
6.955167e-09
6.542336e-09
6.136145e-09
5.738636e-09
5.352276e-09
4.981021e-09
4.624793e-09
4.282337e-09
3.954075e-09
3.640255e-09
3.341161e-09
3.056631e-09
2.785982e-09
2.526652e-09
2.278539e-09
2.044615e-09
1.82398e-09
1.616234e-09
1.421691e-09
1.23987e-09
1.073508e-09
9.251594e-10
7.953173e-10
6.85791e-10
5.989239e-10
5.359112e-10
5.007375e-10
4.983266e-10
5.304058e-10
5.985196e-10
7.0677e-10
8.596519e-10
1.059869e-09
1.310386e-09
1.614973e-09
1.977443e-09
2.401096e-09
2.888857e-09
3.444972e-09
4.073164e-09
4.775144e-09
5.552225e-09
6.406014e-09
7.338875e-09
8.353071e-09
9.449117e-09
1.062679e-08
1.188623e-08
1.322671e-08
1.464637e-08
1.614274e-08
1.771225e-08
1.935042e-08
2.105267e-08
2.281333e-08
2.462506e-08
2.648007e-08
2.836969e-08
3.028319e-08
3.220914e-08
3.413585e-08
3.605013e-08
3.793705e-08
3.978099e-08
4.156562e-08
4.32736e-08
4.488736e-08
4.638952e-08
4.776261e-08
4.898902e-08
5.005145e-08
5.093331e-08
5.161911e-08
5.209485e-08
5.234827e-08
5.236902e-08
5.214841e-08
5.167959e-08
5.095815e-08
4.998211e-08
4.875225e-08
4.727229e-08
4.554844e-08
4.358951e-08
4.14071e-08
3.901543e-08
3.643087e-08
3.367146e-08
3.075672e-08
2.770787e-08
2.454735e-08
2.12972e-08
1.797964e-08
1.461776e-08
1.123499e-08
7.853997e-09
4.496475e-09
1.183241e-09
-2.066585e-09
-5.235099e-09
-8.305665e-09
-1.126401e-08
-1.409771e-08
-1.679583e-08
-1.934928e-08
-2.175079e-08
-2.399438e-08
-2.60756e-08
-2.799117e-08
-2.973912e-08
-3.131863e-08
-3.272921e-08
-3.397091e-08
-3.504437e-08
-3.595064e-08
-3.669104e-08
-3.726655e-08
-3.767791e-08
-3.792564e-08
-3.800872e-08
-3.792626e-08
-3.767753e-08
-3.725078e-08
-3.659355e-08
-3.582532e-08
8.998804e-09
8.482296e-09
7.9469e-09
7.45925e-09
6.996706e-09
6.553811e-09
6.132299e-09
5.733219e-09
5.356036e-09
4.99926e-09
4.660876e-09
4.340072e-09
4.036191e-09
3.748365e-09
3.474513e-09
3.212637e-09
2.961053e-09
2.720611e-09
2.493274e-09
2.276126e-09
2.068781e-09
1.872521e-09
1.687483e-09
1.516299e-09
1.360564e-09
1.220834e-09
1.098964e-09
9.973546e-10
9.1811e-10
8.653927e-10
8.437266e-10
8.544588e-10
8.990283e-10
9.82236e-10
1.108866e-09
1.280965e-09
1.501371e-09
1.774227e-09
2.103358e-09
2.492147e-09
2.943932e-09
3.463017e-09
4.052736e-09
4.714911e-09
5.451354e-09
6.263855e-09
7.154847e-09
8.127045e-09
9.181624e-09
1.031838e-08
1.153692e-08
1.283681e-08
1.421709e-08
1.567545e-08
1.720809e-08
1.881068e-08
2.047883e-08
2.220709e-08
2.398822e-08
2.581441e-08
2.767739e-08
2.956732e-08
3.147321e-08
3.33832e-08
3.528417e-08
3.71616e-08
3.899978e-08
4.078201e-08
4.24907e-08
4.410801e-08
4.561626e-08
4.699765e-08
4.823401e-08
4.930728e-08
5.020033e-08
5.089742e-08
5.138437e-08
5.164854e-08
5.167899e-08
5.146658e-08
5.100425e-08
5.028729e-08
4.931355e-08
4.808339e-08
4.660014e-08
4.487019e-08
4.290263e-08
4.070908e-08
3.83039e-08
3.570388e-08
3.292785e-08
2.999597e-08
2.692943e-08
2.375092e-08
2.048344e-08
1.715014e-08
1.37744e-08
1.037968e-08
6.989323e-09
3.625516e-09
3.092681e-10
-2.939963e-09
-6.104254e-09
-9.166981e-09
-1.211374e-08
-1.493245e-08
-1.761255e-08
-2.014524e-08
-2.252405e-08
-2.474367e-08
-2.680002e-08
-2.869046e-08
-3.041381e-08
-3.196973e-08
-3.335813e-08
-3.457969e-08
-3.563558e-08
-3.652675e-08
-3.725414e-08
-3.78184e-08
-3.821933e-08
-3.845613e-08
-3.852672e-08
-3.842773e-08
-3.815594e-08
-3.769717e-08
-3.699335e-08
-3.617166e-08
9.743292e-09
9.123436e-09
8.496467e-09
7.940321e-09
7.423361e-09
6.940179e-09
6.492195e-09
6.076593e-09
5.689309e-09
5.328133e-09
4.990507e-09
4.674461e-09
4.377882e-09
4.09792e-09
3.830808e-09
3.574846e-09
3.329462e-09
3.094816e-09
2.870921e-09
2.65358e-09
2.443826e-09
2.243883e-09
2.053059e-09
1.873907e-09
1.707608e-09
1.554333e-09
1.416528e-09
1.297003e-09
1.198401e-09
1.124638e-09
1.079371e-09
1.064351e-09
1.081581e-09
1.135684e-09
1.231545e-09
1.371295e-09
1.557265e-09
1.793629e-09
2.08504e-09
2.435055e-09
2.846548e-09
3.323993e-09
3.871166e-09
4.489794e-09
5.181503e-09
5.948565e-09
6.79444e-09
7.722164e-09
8.732435e-09
9.825176e-09
1.100063e-08
1.225861e-08
1.359833e-08
1.50177e-08
1.651302e-08
1.808024e-08
1.971529e-08
2.141248e-08
2.316439e-08
2.496384e-08
2.680341e-08
2.86735e-08
3.056341e-08
3.246179e-08
3.435569e-08
3.623049e-08
3.80703e-08
3.985811e-08
4.15762e-08
4.320658e-08
4.473107e-08
4.613106e-08
4.73877e-08
4.848242e-08
4.939762e-08
5.011704e-08
5.062591e-08
5.091113e-08
5.096111e-08
5.076601e-08
5.031843e-08
4.96135e-08
4.864869e-08
4.742382e-08
4.594159e-08
4.420832e-08
4.223352e-08
4.00292e-08
3.760993e-08
3.499267e-08
3.219651e-08
2.924223e-08
2.615155e-08
2.294754e-08
1.965402e-08
1.629513e-08
1.289546e-08
9.47863e-09
6.06805e-09
2.686757e-09
-6.437677e-10
-3.903728e-09
-7.074832e-09
-1.014054e-08
-1.308637e-08
-1.590026e-08
-1.857198e-08
-2.10931e-08
-2.345739e-08
-2.566014e-08
-2.76982e-08
-2.956938e-08
-3.127292e-08
-3.280916e-08
-3.41788e-08
-3.538268e-08
-3.642218e-08
-3.729878e-08
-3.801342e-08
-3.856609e-08
-3.8956e-08
-3.918138e-08
-3.92394e-08
-3.912495e-08
-3.883323e-08
-3.834809e-08
-3.7608e-08
-3.67461e-08
1.044959e-08
9.724005e-09
9.004919e-09
8.377846e-09
7.805224e-09
7.281691e-09
6.804146e-09
6.3674e-09
5.966879e-09
5.59906e-09
5.259842e-09
4.946168e-09
4.653725e-09
4.377618e-09
4.113973e-09
3.862339e-09
3.621496e-09
3.38916e-09
3.164585e-09
2.944187e-09
2.729629e-09
2.523391e-09
2.323904e-09
2.133292e-09
1.95276e-09
1.782247e-09
1.625114e-09
1.484634e-09
1.362943e-09
1.263948e-09
1.191053e-09
1.145934e-09
1.131502e-09
1.152628e-09
1.213237e-09
1.315369e-09
1.462231e-09
1.658022e-09
1.906999e-09
2.213126e-09
2.579859e-09
3.011508e-09
3.511276e-09
4.081053e-09
4.723522e-09
5.441503e-09
6.238289e-09
7.117148e-09
8.079231e-09
9.12464e-09
1.025389e-08
1.146703e-08
1.276345e-08
1.414161e-08
1.559816e-08
1.712885e-08
1.872959e-08
2.039519e-08
2.211831e-08
2.389158e-08
2.570851e-08
2.75605e-08
2.943712e-08
3.13274e-08
3.32185e-08
3.509569e-08
3.694291e-08
3.874307e-08
4.04783e-08
4.213021e-08
4.367991e-08
4.510805e-08
4.639514e-08
4.752217e-08
4.847094e-08
4.922427e-08
4.976643e-08
5.008369e-08
5.016426e-08
4.999779e-08
4.957579e-08
4.88925e-08
4.794494e-08
4.673278e-08
4.525856e-08
4.352821e-08
4.155108e-08
3.933935e-08
3.690784e-08
3.42739e-08
3.145687e-08
2.847794e-08
2.535958e-08
2.212542e-08
1.88001e-08
1.540846e-08
1.197618e-08
8.528263e-09
5.088451e-09
1.680187e-09
-1.674307e-09
-4.955016e-09
-8.143201e-09
-1.122198e-08
-1.417703e-08
-1.699618e-08
-1.966882e-08
-2.218684e-08
-2.454475e-08
-2.673827e-08
-2.876463e-08
-3.062249e-08
-3.231177e-08
-3.383305e-08
-3.51875e-08
-3.637665e-08
-3.740219e-08
-3.826578e-08
-3.896843e-08
-3.951023e-08
-3.988997e-08
-4.010505e-08
-4.015185e-08
-4.002438e-08
-3.971679e-08
-3.921158e-08
-3.844508e-08
-3.755486e-08
1.109751e-08
1.026812e-08
9.452509e-09
8.75392e-09
8.127052e-09
7.560841e-09
7.050479e-09
6.590511e-09
6.175191e-09
5.799077e-09
5.456601e-09
5.142321e-09
4.849851e-09
4.574393e-09
4.312759e-09
4.063606e-09
3.823921e-09
3.589878e-09
3.361085e-09
3.135212e-09
2.913313e-09
2.697474e-09
2.485895e-09
2.280036e-09
2.081449e-09
1.890308e-09
1.710322e-09
1.545448e-09
1.396912e-09
1.267828e-09
1.162751e-09
1.083982e-09
1.033613e-09
1.016427e-09
1.036995e-09
1.097182e-09
1.199798e-09
1.349483e-09
1.551272e-09
1.809138e-09
2.125909e-09
2.505827e-09
2.952743e-09
3.468873e-09
4.056997e-09
4.720486e-09
5.463102e-09
6.288273e-09
7.197384e-09
8.190685e-09
9.26891e-09
1.04328e-08
1.16822e-08
1.301553e-08
1.442958e-08
1.592051e-08
1.748444e-08
1.91163e-08
2.080886e-08
2.255447e-08
2.434755e-08
2.618101e-08
2.804498e-08
2.992857e-08
3.181898e-08
3.370162e-08
3.55605e-08
3.73783e-08
3.913682e-08
4.081732e-08
4.240043e-08
4.386599e-08
4.519361e-08
4.636358e-08
4.735718e-08
4.815658e-08
4.874504e-08
4.910761e-08
4.923163e-08
4.910626e-08
4.872219e-08
4.807276e-08
4.71543e-08
4.596587e-08
4.450964e-08
4.279122e-08
4.081976e-08
3.860744e-08
3.616912e-08
3.352236e-08
3.068701e-08
2.768455e-08
2.453807e-08
2.127189e-08
1.791151e-08
1.44828e-08
1.101231e-08
7.526423e-09
4.04988e-09
6.067234e-10
-2.780187e-09
-6.090324e-09
-9.304854e-09
-1.240634e-08
-1.537987e-08
-1.82133e-08
-2.089602e-08
-2.341964e-08
-2.577911e-08
-2.797115e-08
-2.999329e-08
-3.184428e-08
-3.352471e-08
-3.503596e-08
-3.637973e-08
-3.755778e-08
-3.857229e-08
-3.942546e-08
-4.011828e-08
-4.065108e-08
-4.102251e-08
-4.122933e-08
-4.126739e-08
-4.11303e-08
-4.081145e-08
-4.029264e-08
-3.950895e-08
-3.860083e-08
1.166716e-08
1.073359e-08
9.822543e-09
9.053173e-09
8.369857e-09
7.758882e-09
7.214952e-09
6.73118e-09
6.300048e-09
5.91421e-09
5.565867e-09
5.247481e-09
4.952164e-09
4.67559e-09
4.414372e-09
4.164633e-09
3.921833e-09
3.682604e-09
3.44688e-09
3.21268e-09
2.980337e-09
2.751355e-09
2.524015e-09
2.298954e-09
2.078155e-09
1.863291e-09
1.657414e-09
1.463487e-09
1.283419e-09
1.120545e-09
9.789508e-10
8.614014e-10
7.705638e-10
7.107149e-10
6.858362e-10
6.982185e-10
7.514679e-10
8.503555e-10
9.995673e-10
1.203031e-09
1.463872e-09
1.786345e-09
2.174295e-09
2.630406e-09
3.15798e-09
3.760857e-09
4.44321e-09
5.208425e-09
6.057914e-09
6.992616e-09
8.013869e-09
9.122551e-09
1.031879e-08
1.160138e-08
1.296738e-08
1.441328e-08
1.593553e-08
1.752917e-08
1.918699e-08
2.090115e-08
2.266693e-08
2.447897e-08
2.632806e-08
2.820365e-08
3.009309e-08
3.198194e-08
3.385448e-08
3.56934e-08
3.747998e-08
3.919479e-08
4.081802e-08
4.232922e-08
4.370734e-08
4.493162e-08
4.598231e-08
4.68407e-08
4.748921e-08
4.79118e-08
4.809453e-08
4.802558e-08
4.76949e-08
4.709475e-08
4.622046e-08
4.507036e-08
4.364598e-08
4.195246e-08
3.999867e-08
3.779672e-08
3.536132e-08
3.270979e-08
2.986245e-08
2.684114e-08
2.366955e-08
2.037293e-08
1.697771e-08
1.35108e-08
9.999736e-09
6.471811e-09
2.953129e-09
-5.31306e-10
-3.957851e-09
-7.305266e-09
-1.055411e-08
-1.368657e-08
-1.668724e-08
-1.954356e-08
-2.224493e-08
-2.478299e-08
-2.715269e-08
-2.935112e-08
-3.137634e-08
-3.322745e-08
-3.490541e-08
-3.641215e-08
-3.775002e-08
-3.892134e-08
-3.992882e-08
-4.077499e-08
-4.146114e-08
-4.198783e-08
-4.235373e-08
-4.255523e-08
-4.258803e-08
-4.244531e-08
-4.212016e-08
-4.159406e-08
-4.080165e-08
-3.988464e-08
1.213775e-08
1.110228e-08
1.009767e-08
9.255652e-09
8.514387e-09
7.85868e-09
7.281548e-09
6.773764e-09
6.325835e-09
5.92837e-09
5.571083e-09
5.245926e-09
4.946637e-09
4.667656e-09
4.403684e-09
4.149349e-09
3.899729e-09
3.652497e-09
3.407238e-09
3.161422e-09
2.915382e-09
2.669406e-09
2.421779e-09
2.17404e-09
1.927851e-09
1.685001e-09
1.449195e-09
1.222537e-09
1.006157e-09
8.043642e-10
6.221049e-10
4.616601e-10
3.249865e-10
2.165079e-10
1.407457e-10
1.002659e-10
9.856694e-11
1.404464e-10
2.309052e-10
3.73791e-10
5.719976e-10
8.298842e-10
1.151566e-09
1.540352e-09
2.000225e-09
2.535068e-09
3.149033e-09
3.845983e-09
4.627779e-09
5.495697e-09
6.451585e-09
7.496658e-09
8.631227e-09
9.854633e-09
1.116451e-08
1.255747e-08
1.403005e-08
1.557777e-08
1.719402e-08
1.887064e-08
2.060272e-08
2.238676e-08
2.421528e-08
2.607836e-08
2.796373e-08
2.985695e-08
3.174241e-08
3.360301e-08
3.541999e-08
3.717346e-08
3.884288e-08
4.040726e-08
4.184509e-08
4.313481e-08
4.425557e-08
4.518739e-08
4.591147e-08
4.641077e-08
4.667011e-08
4.667622e-08
4.641791e-08
4.588625e-08
4.507524e-08
4.398239e-08
4.260861e-08
4.095812e-08
3.903913e-08
3.686339e-08
3.444536e-08
3.180198e-08
2.895364e-08
2.592282e-08
2.273368e-08
1.941251e-08
1.598671e-08
1.248398e-08
8.933099e-09
5.362356e-09
1.798774e-09
-1.731193e-09
-5.202737e-09
-8.593736e-09
-1.188385e-08
-1.505462e-08
-1.80902e-08
-2.097773e-08
-2.370639e-08
-2.626759e-08
-2.865605e-08
-3.086907e-08
-3.29052e-08
-3.476372e-08
-3.644596e-08
-3.795446e-08
-3.92922e-08
-4.046213e-08
-4.14675e-08
-4.231106e-08
-4.299461e-08
-4.351896e-08
-4.388287e-08
-4.408284e-08
-4.411452e-08
-4.397068e-08
-4.364445e-08
-4.311715e-08
-4.232361e-08
-4.140562e-08
1.249241e-08
1.135553e-08
1.025604e-08
9.341408e-09
8.543268e-09
7.843594e-09
7.233572e-09
6.701639e-09
6.235518e-09
5.823797e-09
5.45563e-09
5.122821e-09
4.818374e-09
4.534531e-09
4.263962e-09
4.001484e-09
3.742204e-09
3.484215e-09
3.226746e-09
2.965632e-09
2.701624e-09
2.435117e-09
2.16328e-09
1.888359e-09
1.613447e-09
1.339476e-09
1.068821e-09
8.040276e-10
5.471179e-10
3.024478e-10
7.452452e-11
-1.345139e-10
-3.225665e-10
-4.850729e-10
-6.175542e-10
-7.172171e-10
-7.801793e-10
-8.017168e-10
-7.769358e-10
-7.021145e-10
-5.745829e-10
-3.896391e-10
-1.424929e-10
1.704801e-10
5.535086e-10
1.010747e-09
1.546452e-09
2.16486e-09
2.868496e-09
3.658956e-09
4.538276e-09
5.508276e-09
6.569892e-09
7.722714e-09
8.964705e-09
1.029304e-08
1.170466e-08
1.31955e-08
1.475956e-08
1.638888e-08
1.807737e-08
1.982314e-08
2.162152e-08
2.346347e-08
2.533747e-08
2.722949e-08
2.912405e-08
3.100422e-08
3.285136e-08
3.464538e-08
3.636528e-08
3.798951e-08
3.949595e-08
4.086223e-08
4.206651e-08
4.30875e-08
4.390489e-08
4.450025e-08
4.4857e-08
4.49603e-08
4.479744e-08
4.435815e-08
4.363492e-08
4.262388e-08
4.132507e-08
3.974167e-08
3.788071e-08
3.575307e-08
3.337271e-08
3.075628e-08
2.792393e-08
2.489882e-08
2.170537e-08
1.837051e-08
1.492294e-08
1.139111e-08
7.804793e-09
4.193775e-09
5.861355e-10
-2.990588e-09
-6.51011e-09
-9.948984e-09
-1.328594e-08
-1.65015e-08
-1.957924e-08
-2.250574e-08
-2.526977e-08
-2.786263e-08
-3.027853e-08
-3.251467e-08
-3.45698e-08
-3.644361e-08
-3.813776e-08
-3.965517e-08
-4.099942e-08
-4.217415e-08
-4.318314e-08
-4.40295e-08
-4.471554e-08
-4.524226e-08
-4.560858e-08
-4.581155e-08
-4.584669e-08
-4.570672e-08
-4.53847e-08
-4.486208e-08
-4.407419e-08
-4.316219e-08
1.271196e-08
1.147161e-08
1.027803e-08
9.292692e-09
8.439056e-09
7.696322e-09
7.053425e-09
6.496235e-09
6.01025e-09
5.582895e-09
5.203558e-09
4.862665e-09
4.550679e-09
4.258239e-09
3.977442e-09
3.704201e-09
3.43328e-09
3.161179e-09
2.887695e-09
2.608369e-09
2.322229e-09
2.030059e-09
1.730513e-09
1.425614e-09
1.117629e-09
8.074064e-10
4.973577e-10
1.901536e-10
-1.119682e-10
-4.04716e-10
-6.836979e-10
-9.46818e-10
-1.192139e-09
-1.415038e-09
-1.610735e-09
-1.776217e-09
-1.907403e-09
-1.999776e-09
-2.048891e-09
-2.051047e-09
-2.003332e-09
-1.900771e-09
-1.73811e-09
-1.511393e-09
-1.216365e-09
-8.486084e-10
-4.033809e-10
1.237914e-10
7.357154e-10
1.434617e-09
2.223081e-09
3.103275e-09
4.076624e-09
5.143257e-09
6.301579e-09
7.549366e-09
8.884236e-09
1.030267e-08
1.179938e-08
1.336702e-08
1.499796e-08
1.669064e-08
1.84442e-08
2.025146e-08
2.210184e-08
2.398225e-08
2.587772e-08
2.777155e-08
2.964527e-08
3.147886e-08
3.325113e-08
3.494015e-08
3.652329e-08
3.797733e-08
3.92792e-08
4.04062e-08
4.133652e-08
4.205015e-08
4.252879e-08
4.275577e-08
4.271653e-08
4.239904e-08
4.179417e-08
4.089626e-08
3.970374e-08
3.821852e-08
3.644601e-08
3.439578e-08
3.208098e-08
2.951795e-08
2.67261e-08
2.372876e-08
2.05509e-08
1.721969e-08
1.376486e-08
1.021603e-08
6.603859e-09
2.959396e-09
-6.878041e-10
-4.30885e-09
-7.876093e-09
-1.136473e-08
-1.475211e-08
-1.801757e-08
-2.114362e-08
-2.411612e-08
-2.692324e-08
-2.955586e-08
-3.200788e-08
-3.427609e-08
-3.635899e-08
-3.825669e-08
-3.997111e-08
-4.150555e-08
-4.286399e-08
-4.405069e-08
-4.506992e-08
-4.592541e-08
-4.661991e-08
-4.715464e-08
-4.75288e-08
-4.774007e-08
-4.778374e-08
-4.765299e-08
-4.734055e-08
-4.682831e-08
-4.605224e-08
-4.515218e-08
1.277469e-08
1.143199e-08
1.014644e-08
9.091651e-09
8.183635e-09
7.398302e-09
6.721928e-09
6.1381e-09
5.631743e-09
5.189416e-09
4.798731e-09
4.447581e-09
4.124549e-09
3.8207e-09
3.52781e-09
3.240797e-09
2.955172e-09
2.666677e-09
2.373312e-09
2.070857e-09
1.758752e-09
1.437642e-09
1.106452e-09
7.672638e-10
4.217822e-10
7.059499e-11
-2.836809e-10
-6.382205e-10
-9.906226e-10
-1.336738e-09
-1.672566e-09
-1.996075e-09
-2.305248e-09
-2.59539e-09
-2.861405e-09
-3.100101e-09
-3.307625e-09
-3.479786e-09
-3.612401e-09
-3.701788e-09
-3.744659e-09
-3.735725e-09
-3.669662e-09
-3.542221e-09
-3.348816e-09
-3.084988e-09
-2.745814e-09
-2.326283e-09
-1.823084e-09
-1.23356e-09
-5.546169e-10
2.163625e-10
1.081317e-09
2.041095e-09
3.094762e-09
4.240701e-09
5.477317e-09
6.801935e-09
8.210215e-09
9.695869e-09
1.125048e-08
1.287029e-08
1.455783e-08
1.631044e-08
1.811897e-08
1.997152e-08
2.185416e-08
2.375076e-08
2.564315e-08
2.751164e-08
2.933524e-08
3.109191e-08
3.275849e-08
3.43109e-08
3.572488e-08
3.697617e-08
3.804131e-08
3.88986e-08
3.952786e-08
3.99102e-08
4.002868e-08
3.986915e-08
3.942052e-08
3.867499e-08
3.762854e-08
3.628126e-08
3.463671e-08
3.270269e-08
3.049077e-08
2.801656e-08
2.529877e-08
2.236011e-08
1.922582e-08
1.592361e-08
1.248372e-08
8.93669e-09
5.31435e-09
1.649034e-09
-2.028266e-09
-5.687155e-09
-9.298437e-09
-1.28356e-08
-1.627441e-08
-1.959276e-08
-2.277187e-08
-2.579662e-08
-2.865398e-08
-3.133425e-08
-3.383096e-08
-3.614039e-08
-3.826058e-08
-4.019154e-08
-4.193537e-08
-4.349572e-08
-4.487702e-08
-4.608396e-08
-4.712128e-08
-4.799327e-08
-4.870316e-08
-4.92525e-08
-4.964096e-08
-4.986643e-08
-4.992446e-08
-4.980851e-08
-4.95112e-08
-4.901482e-08
-4.825632e-08
-4.737332e-08
1.266151e-08
1.121928e-08
9.842371e-09
8.71924e-09
7.757712e-09
6.929463e-09
6.219108e-09
5.609197e-09
5.083548e-09
4.626266e-09
4.222175e-09
3.85827e-09
3.521903e-09
3.203836e-09
2.896858e-09
2.594536e-09
2.290757e-09
1.981625e-09
1.664778e-09
1.335274e-09
9.929737e-10
6.391562e-10
2.725225e-10
-1.055145e-10
-4.935093e-10
-8.907347e-10
-1.294227e-09
-1.701132e-09