/*--------------------------------*- C++ -*----------------------------------*\
| =========                 |                                                 |
| \\      /  F ield         | OpenFOAM: The Open Source CFD Toolbox           |
|  \\    /   O peration     | Version:  2406                                  |
|   \\  /    A nd           | Website:  www.openfoam.com                      |
|    \\/     M anipulation  |                                                 |
\*---------------------------------------------------------------------------*/
FoamFile
{
    version     2.0;
    format      ascii;
    arch        "LSB;label=32;scalar=64";
    class       surfaceScalarField;
    location    "400";
    object      phi;
}
// * * * * * * * * * * * * * * * * * * * * * * * * * * * * * * * * * * * * * //

dimensions      [0 3 -1 0 0 0 0];

oriented        oriented;

internalField   nonuniform List<scalar> 
32512
(
-1.055675e-09
-1.335972e-09
-2.723292e-10
-7.796714e-10
1.507893e-10
-4.171572e-10
3.594419e-10
-1.916024e-10
3.494869e-10
5.982059e-12
1.393299e-10
1.91375e-10
-2.369617e-10
3.725045e-10
-7.663421e-10
5.29127e-10
-1.424365e-09
6.62447e-10
-2.195325e-09
7.77099e-10
-3.068722e-09
8.709183e-10
-4.024e-09
9.496798e-10
-5.043196e-09
1.01934e-09
-6.116731e-09
1.075941e-09
-7.237538e-09
1.119758e-09
-8.393214e-09
1.15583e-09
-9.577044e-09
1.185828e-09
-1.078836e-08
1.211235e-09
-1.201974e-08
1.231264e-09
-1.326995e-08
1.247528e-09
-1.453575e-08
1.264659e-09
-1.581385e-08
1.280793e-09
-1.710968e-08
1.294641e-09
-1.841931e-08
1.308886e-09
-1.973867e-08
1.322387e-09
-2.107317e-08
1.334773e-09
-2.242195e-08
1.348362e-09
-2.378173e-08
1.361714e-09
-2.515528e-08
1.372879e-09
-2.654232e-08
1.38466e-09
-2.793832e-08
1.398457e-09
-2.934379e-08
1.41036e-09
-3.076172e-08
1.418046e-09
-3.218873e-08
1.424146e-09
-3.361874e-08
1.430495e-09
-3.505141e-08
1.435097e-09
-3.648826e-08
1.43618e-09
-3.792558e-08
1.434427e-09
-3.935687e-08
1.430414e-09
-4.077848e-08
1.422887e-09
-4.218875e-08
1.410321e-09
-4.358396e-08
1.392862e-09
-4.495788e-08
1.371734e-09
-4.630462e-08
1.346832e-09
-4.762032e-08
1.316364e-09
-4.890031e-08
1.278968e-09
-5.013715e-08
1.235015e-09
-5.132264e-08
1.185447e-09
-5.245011e-08
1.129927e-09
-5.351449e-08
1.067065e-09
-5.450951e-08
9.957987e-10
-5.542671e-08
9.160969e-10
-5.625669e-08
8.287676e-10
-5.699042e-08
7.341637e-10
-5.762022e-08
6.31546e-10
-5.813876e-08
5.198147e-10
-5.853816e-08
3.985621e-10
-5.880963e-08
2.685595e-10
-5.89433e-08
1.307362e-10
-5.893016e-08
-1.477199e-11
-5.876283e-08
-1.680643e-10
-5.843441e-08
-3.288718e-10
-5.793839e-08
-4.965002e-10
-5.726855e-08
-6.700821e-10
-5.641926e-08
-8.488544e-10
-5.53866e-08
-1.031701e-09
-5.416821e-08
-1.216949e-09
-5.276275e-08
-1.403239e-09
-5.117056e-08
-1.58968e-09
-4.939383e-08
-1.774877e-09
-4.743594e-08
-1.956766e-09
-4.530153e-08
-2.133432e-09
-4.299716e-08
-2.303367e-09
-4.053152e-08
-2.464987e-09
-3.791507e-08
-2.616313e-09
-3.515967e-08
-2.755281e-09
-3.227854e-08
-2.880318e-09
-2.928709e-08
-2.990106e-09
-2.620278e-08
-3.083012e-09
-2.304404e-08
-3.157365e-09
-1.983007e-08
-3.212113e-09
-1.658137e-08
-3.246611e-09
-1.331925e-08
-3.260221e-09
-1.006567e-08
-3.252442e-09
-6.842877e-09
-3.222827e-09
-3.671765e-09
-3.171388e-09
-5.731079e-10
-3.098886e-09
2.431926e-09
-3.005803e-09
5.323699e-09
-2.892472e-09
8.083903e-09
-2.760161e-09
1.069482e-08
-2.610524e-09
1.314018e-08
-2.444879e-09
1.540589e-08
-2.264839e-09
1.747945e-08
-2.072668e-09
1.934988e-08
-1.870464e-09
2.100891e-08
-1.659946e-09
2.245126e-08
-1.4433e-09
2.367318e-08
-1.222923e-09
2.467258e-08
-1.000619e-09
2.544979e-08
-7.780255e-10
2.600661e-08
-5.57074e-10
2.634633e-08
-3.397511e-10
2.647411e-08
-1.277598e-10
2.639658e-08
7.746152e-11
2.612171e-08
2.745952e-10
2.565885e-08
4.624262e-10
2.501856e-08
6.399343e-10
2.421203e-08
8.062381e-10
2.325037e-08
9.607449e-10
2.214589e-08
1.103187e-09
2.091256e-08
1.232864e-09
1.956422e-08
1.348524e-09
1.811427e-08
1.44941e-09
1.657745e-08
1.535354e-09
1.497043e-08
1.605679e-09
1.331123e-08
1.658692e-09
1.161912e-08
1.692131e-09
9.91543e-09
1.703437e-09
8.225334e-09
1.689444e-09
6.578927e-09
1.645986e-09
5.011369e-09
1.567659e-09
3.563193e-09
1.448099e-09
2.281693e-09
1.28073e-09
1.221566e-09
1.059365e-09
4.411924e-10
7.805031e-10
-9.685356e-12
4.512318e-10
-1.182141e-10
1.084362e-10
-1.183306e-10
-3.254252e-10
-1.005633e-09
-1.764656e-11
-1.103705e-09
2.369782e-10
-6.971908e-10
1.944004e-10
-1.425559e-10
-2.407545e-10
4.584346e-10
-1.093322e-09
1.063772e-09
-2.368368e-09
1.636746e-09
-4.022744e-09
2.168906e-09
-6.011199e-09
2.652658e-09
-8.305075e-09
3.072306e-09
-1.08644e-08
3.429676e-09
-1.364546e-08
3.734886e-09
-1.661934e-08
3.992037e-09
-1.975322e-08
4.205083e-09
-2.301845e-08
4.381267e-09
-2.639136e-08
4.528952e-09
-2.985391e-08
4.651289e-09
-3.339845e-08
4.751645e-09
-3.700549e-08
4.837341e-09
-4.066519e-08
4.911387e-09
-4.437647e-08
4.97672e-09
-4.813079e-08
5.036864e-09
-5.1928e-08
5.090992e-09
-5.57652e-08
5.141755e-09
-5.963438e-08
5.193833e-09
-6.353829e-08
5.244581e-09
-6.747925e-08
5.290041e-09
-7.145198e-08
5.333084e-09
-7.545258e-08
5.376739e-09
-7.948047e-08
5.417999e-09
-8.353408e-08
5.453712e-09
-8.761017e-08
5.484949e-09
-9.170444e-08
5.512257e-09
-9.581057e-08
5.532938e-09
-9.992153e-08
5.544863e-09
-1.040324e-07
5.548099e-09
-1.08138e-07
5.542436e-09
-1.122292e-07
5.525862e-09
-1.162952e-07
5.495922e-09
-1.203259e-07
5.451784e-09
-1.243111e-07
5.393769e-09
-1.282381e-07
5.320881e-09
-1.320934e-07
5.230343e-09
-1.358635e-07
5.119626e-09
-1.395348e-07
4.987775e-09
-1.430911e-07
4.834694e-09
-1.465136e-07
4.659682e-09
-1.497837e-07
4.460985e-09
-1.528841e-07
4.236331e-09
-1.557973e-07
3.98398e-09
-1.585035e-07
3.703372e-09
-1.609801e-07
3.394276e-09
-1.632043e-07
3.05608e-09
-1.651543e-07
2.687816e-09
-1.668097e-07
2.288589e-09
-1.681492e-07
1.858248e-09
-1.691499e-07
1.396997e-09
-1.697893e-07
9.05112e-10
-1.700447e-07
3.835311e-10
-1.698946e-07
-1.665403e-10
-1.693194e-07
-7.441074e-10
-1.68301e-07
-1.347745e-09
-1.66823e-07
-1.975076e-09
-1.648706e-07
-2.622877e-09
-1.624309e-07
-3.28759e-09
-1.594945e-07
-3.965618e-09
-1.560561e-07
-4.652801e-09
-1.521139e-07
-5.344072e-09
-1.476691e-07
-6.033939e-09
-1.427273e-07
-6.71676e-09
-1.372985e-07
-7.386568e-09
-1.313968e-07
-8.037162e-09
-1.250407e-07
-8.662241e-09
-1.182534e-07
-9.255417e-09
-1.110626e-07
-9.810298e-09
-1.035007e-07
-1.032042e-08
-9.560419e-08
-1.077964e-08
-8.741328e-08
-1.118259e-08
-7.897284e-08
-1.152445e-08
-7.03313e-08
-1.180035e-08
-6.153953e-08
-1.200576e-08
-5.265081e-08
-1.213742e-08
-4.372034e-08
-1.21932e-08
-3.480454e-08
-1.217157e-08
-2.596107e-08
-1.207146e-08
-1.724626e-08
-1.189218e-08
-8.714801e-09
-1.163485e-08
-4.215252e-10
-1.13023e-08
7.58021e-09
-1.089737e-08
1.524085e-08
-1.04234e-08
2.251424e-08
-9.885148e-09
2.935697e-08
-9.288194e-09
3.572989e-08
-8.638416e-09
4.159909e-08
-7.942486e-09
4.693518e-08
-7.207749e-09
5.171385e-08
-6.441197e-09
5.591741e-08
-5.64958e-09
5.953362e-08
-4.840344e-09
6.255466e-08
-4.02133e-09
6.497786e-08
-3.199919e-09
6.680544e-08
-2.382847e-09
6.804441e-08
-1.576658e-09
6.870657e-08
-7.877622e-10
6.880775e-08
-2.190596e-11
6.836746e-08
7.162198e-10
6.740887e-08
1.422399e-09
6.59584e-08
2.092346e-09
6.404502e-08
2.722257e-09
6.169921e-08
3.309123e-09
5.895338e-08
3.850517e-09
5.584333e-08
4.344164e-09
5.240727e-08
4.787059e-09
4.868449e-08
5.17551e-09
4.471648e-08
5.506155e-09
4.054876e-08
5.775481e-09
3.623141e-08
5.978052e-09
3.181911e-08
6.106336e-09
2.737221e-08
6.151626e-09
2.295912e-08
6.103371e-09
1.865812e-08
5.948036e-09
1.455836e-08
5.669289e-09
1.075989e-08
5.249026e-09
7.372786e-09
4.669455e-09
4.514496e-09
3.917502e-09
2.301433e-09
2.993166e-09
8.253943e-10
1.927743e-09
1.084076e-10
8.264411e-10
-9.637353e-12
-6.131112e-11
-9.383983e-10
-1.800269e-11
-1.12587e-09
-1.844361e-10
-5.503617e-10
-7.716045e-10
4.173633e-10
-1.881779e-09
1.573567e-09
-3.58023e-09
2.767739e-09
-5.868554e-09
3.926679e-09
-8.710807e-09
5.016171e-09
-1.206815e-08
6.005365e-09
-1.588532e-08
6.881798e-09
-2.010204e-08
7.647427e-09
-2.466661e-08
8.304515e-09
-2.953548e-08
8.859147e-09
-3.465822e-08
9.325493e-09
-3.999143e-08
9.716575e-09
-4.550478e-08
1.004326e-08
-5.116943e-08
1.031549e-08
-5.696384e-08
1.054175e-08
-6.286456e-08
1.073528e-08
-6.885547e-08
1.090539e-08
-7.492927e-08
1.105292e-08
-8.107693e-08
1.118307e-08
-8.729099e-08
1.130374e-08
-9.356296e-08
1.141702e-08
-9.988901e-08
1.1523e-08
-1.062708e-07
1.162352e-08
-1.127018e-07
1.171936e-08
-1.191739e-07
1.180929e-08
-1.256866e-07
1.189243e-08
-1.322369e-07
1.196853e-08
-1.388162e-07
1.203582e-08
-1.45419e-07
1.209125e-08
-1.520407e-07
1.21328e-08
-1.58671e-07
1.215961e-08
-1.652964e-07
1.217062e-08
-1.719076e-07
1.216298e-08
-1.784964e-07
1.213239e-08
-1.850491e-07
1.20756e-08
-1.915476e-07
1.199132e-08
-1.979745e-07
1.187833e-08
-2.043141e-07
1.173391e-08
-2.105485e-07
1.155437e-08
-2.166564e-07
1.133623e-08
-2.226147e-07
1.107665e-08
-2.284002e-07
1.077337e-08
-2.339887e-07
1.042425e-08
-2.393533e-07
1.002646e-08
-2.444662e-07
9.576507e-09
-2.492993e-07
9.071402e-09
-2.538236e-07
8.509215e-09
-2.580083e-07
7.888522e-09
-2.618204e-07
7.207476e-09
-2.652265e-07
6.463936e-09
-2.681937e-07
5.656626e-09
-2.706897e-07
4.785022e-09
-2.726822e-07
3.849036e-09
-2.741376e-07
2.849196e-09
-2.750221e-07
1.786351e-09
-2.753028e-07
6.619434e-10
-2.749489e-07
-5.217528e-10
-2.739318e-07
-1.761976e-09
-2.722249e-07
-3.054995e-09
-2.698041e-07
-4.395494e-09
-2.666488e-07
-5.776993e-09
-2.627418e-07
-7.192383e-09
-2.580703e-07
-8.633864e-09
-2.526271e-07
-1.009246e-08
-2.464101e-07
-1.155764e-08
-2.394231e-07
-1.301793e-08
-2.316754e-07
-1.446168e-08
-2.231831e-07
-1.587689e-08
-2.139684e-07
-1.725068e-08
-2.040602e-07
-1.856973e-08
-1.93494e-07
-1.982076e-08
-1.823119e-07
-2.09909e-08
-1.705631e-07
-2.206759e-08
-1.583029e-07
-2.303837e-08
-1.455924e-07
-2.389137e-08
-1.324979e-07
-2.4616e-08
-1.190914e-07
-2.520316e-08
-1.054493e-07
-2.564472e-08
-9.165174e-08
-2.593351e-08
-7.778081e-08
-2.606389e-08
-6.392027e-08
-2.603214e-08
-5.015551e-08
-2.583667e-08
-3.657208e-08
-2.547727e-08
-2.325367e-08
-2.495534e-08
-1.028197e-08
-2.427499e-08
2.262934e-09
-2.344236e-08
1.430454e-08
-2.246487e-08
2.577186e-08
-2.135184e-08
3.659886e-08
-2.011437e-08
4.672485e-08
-1.87645e-08
5.609644e-08
-1.731517e-08
6.466782e-08
-1.578046e-08
7.240035e-08
-1.417532e-08
7.926343e-08
-1.251467e-08
8.523462e-08
-1.081346e-08
9.02992e-08
-9.087045e-09
9.445027e-08
-7.351015e-09
9.768795e-08
-5.620289e-09
1.000195e-07
-3.908609e-09
1.014599e-07
-2.228779e-09
1.020312e-07
-5.931362e-10
1.017604e-07
9.868873e-10
1.006799e-07
2.501614e-09
9.882786e-08
3.942569e-09
9.624747e-08
5.301739e-09
9.298489e-08
6.571671e-09
8.908968e-08
7.745451e-09
8.461566e-08
8.816783e-09
7.962104e-08
9.779718e-09
7.416803e-08
1.062739e-08
6.832262e-08
1.135133e-08
6.215544e-08
1.194199e-08
5.574408e-08
1.238821e-08
4.917426e-08
1.267566e-08
4.253962e-08
1.278635e-08
3.594355e-08
1.269897e-08
2.950177e-08
1.238859e-08
2.334336e-08
1.18267e-08
1.760977e-08
1.098258e-08
1.245215e-08
9.827679e-09
8.025675e-09
8.344146e-09
4.479184e-09
6.539255e-09
1.934139e-09
4.472189e-09
4.532555e-10
2.307753e-09
4.43859e-10
-7.95558e-11
-8.682225e-10
-3.336832e-10
-8.454584e-10
-1.019818e-09
1.400186e-10
-2.293825e-09
1.690995e-09
-4.260809e-09
3.525695e-09
-6.955866e-09
5.453778e-09
-1.037373e-08
7.353243e-09
-1.449343e-08
9.141071e-09
-1.926588e-08
1.077383e-08
-2.462218e-08
1.223659e-08
-3.049782e-08
1.352321e-08
-3.682998e-08
1.463512e-08
-4.355756e-08
1.558328e-08
-5.062105e-08
1.638817e-08
-5.796896e-08
1.706818e-08
-6.556205e-08
1.763642e-08
-7.336329e-08
1.811252e-08
-8.133733e-08
1.851541e-08
-8.945661e-08
1.885789e-08
-9.770649e-08
1.915351e-08
-1.060692e-07
1.941318e-08
-1.145274e-07
1.964321e-08
-1.230747e-07
1.985067e-08
-1.317e-07
2.004264e-08
-1.40394e-07
2.022161e-08
-1.491559e-07
2.038684e-08
-1.57978e-07
2.053914e-08
-1.668485e-07
2.068053e-08
-1.75763e-07
2.08104e-08
-1.84717e-07
2.092517e-08
-1.937e-07
2.102082e-08
-2.02702e-07
2.109448e-08
-2.117137e-07
2.114446e-08
-2.207211e-07
2.116845e-08
-2.297085e-07
2.116212e-08
-2.386637e-07
2.112036e-08
-2.475725e-07
2.103903e-08
-2.564145e-07
2.091467e-08
-2.651661e-07
2.07435e-08
-2.738058e-07
2.052119e-08
-2.823128e-07
2.024287e-08
-2.906627e-07
1.99035e-08
-2.988266e-07
1.94986e-08
-3.06774e-07
1.90242e-08
-3.144741e-07
1.847591e-08
-3.218955e-07
1.784871e-08
-3.290044e-07
1.713776e-08
-3.357642e-07
1.633868e-08
-3.421371e-07
1.544757e-08
-3.480852e-07
1.446068e-08
-3.535692e-07
1.337464e-08
-3.585478e-07
1.218697e-08
-3.629777e-07
1.089535e-08
-3.668167e-07
9.497713e-09
-3.700234e-07
7.993011e-09
-3.725562e-07
6.381305e-09
-3.743734e-07
4.663895e-09
-3.754324e-07
2.842793e-09
-3.756924e-07
9.202612e-10
-3.751152e-07
-1.100185e-09
-3.736654e-07
-3.212954e-09
-3.7131e-07
-5.410803e-09
-3.680194e-07
-7.685213e-09
-3.63769e-07
-1.002616e-08
-3.585387e-07
-1.242169e-08
-3.523137e-07
-1.485781e-08
-3.450854e-07
-1.731903e-08
-3.368522e-07
-1.978854e-08
-3.276206e-07
-2.2248e-08
-3.17404e-07
-2.467782e-08
-3.062232e-07
-2.705781e-08
-2.941073e-07
-2.936705e-08
-2.810939e-07
-3.15839e-08
-2.67229e-07
-3.368671e-08
-2.525666e-07
-3.565426e-08
-2.371688e-07
-3.74658e-08
-2.211061e-07
-3.910118e-08
-2.04456e-07
-4.054132e-08
-1.873031e-07
-4.176875e-08
-1.69738e-07
-4.276799e-08
-1.518567e-07
-4.352575e-08
-1.337603e-07
-4.403055e-08
-1.15553e-07
-4.427304e-08
-9.734114e-08
-4.424655e-08
-7.92325e-08
-4.39478e-08
-6.133541e-08
-4.337679e-08
-4.375749e-08
-4.253609e-08
-2.660354e-08
-4.143122e-08
-9.975715e-09
-4.007127e-08
6.027254e-09
-3.846837e-08
2.131256e-08
-3.663736e-08
3.579414e-08
-3.459585e-08
4.93928e-08
-3.236343e-08
6.203751e-08
-2.99611e-08
7.366652e-08
-2.741127e-08
8.422756e-08
-2.473777e-08
9.367797e-08
-2.196553e-08
1.019846e-07
-1.911993e-08
1.091239e-07
-1.622641e-08
1.150831e-07
-1.331004e-08
1.198589e-07
-1.039518e-08
1.234568e-07
-7.505379e-09
1.258918e-07
-4.663078e-09
1.271881e-07
-1.889012e-09
1.273779e-07
7.977204e-10
1.265003e-07
3.379818e-09
1.246017e-07
5.841732e-09
1.217354e-07
8.168992e-09
1.179598e-07
1.034819e-08
1.133387e-07
1.236715e-08
1.07942e-07
1.421432e-08
1.018446e-07
1.587792e-08
9.512713e-08
1.734547e-08
8.787642e-08
1.860274e-08
8.018581e-08
1.963313e-08
7.215629e-08
2.041751e-08
6.389865e-08
2.09331e-08
5.553381e-08
2.115183e-08
4.719369e-08
2.104008e-08
3.902281e-08
2.055976e-08
3.117912e-08
1.966977e-08
2.383316e-08
1.832799e-08
1.716494e-08
1.649636e-08
1.135749e-08
1.415222e-08
6.589192e-09
1.130774e-08
3.021626e-09
8.03945e-09
7.883249e-10
4.541104e-09
1.232215e-09
-1.826203e-10
-7.023963e-10
-8.385917e-10
-1.943276e-10
-2.135645e-09
1.459484e-09
-4.218936e-09
3.77747e-09
-7.153934e-09
6.450222e-09
-1.095377e-08
9.251564e-09
-1.561087e-08
1.201066e-08
-2.10898e-08
1.461691e-08
-2.732838e-08
1.70131e-08
-3.425699e-08
1.916892e-08
-4.18062e-08
2.107102e-08
-4.990174e-08
2.272546e-08
-5.84681e-08
2.414953e-08
-6.744116e-08
2.536372e-08
-7.676714e-08
2.639268e-08
-8.639221e-08
2.725979e-08
-9.627152e-08
2.798965e-08
-1.063676e-07
2.860918e-08
-1.166442e-07
2.913892e-08
-1.270823e-07
2.959369e-08
-1.376617e-07
2.998838e-08
-1.483585e-07
3.033818e-08
-1.591604e-07
3.065403e-08
-1.700558e-07
3.094082e-08
-1.810339e-07
3.120131e-08
-1.920883e-07
3.143895e-08
-2.03206e-07
3.165635e-08
-2.143739e-07
3.185355e-08
-2.25587e-07
3.202773e-08
-2.368376e-07
3.217488e-08
-2.481104e-07
3.229184e-08
-2.593906e-07
3.237556e-08
-2.706659e-07
3.242176e-08
-2.819206e-07
3.242501e-08
-2.931357e-07
3.237947e-08
-3.042936e-07
3.227924e-08
-3.153752e-07
3.21188e-08
-3.263557e-07
3.189288e-08
-3.372073e-07
3.159545e-08
-3.479039e-07
3.121966e-08
-3.584194e-07
3.075859e-08
-3.687232e-07
3.02058e-08
-3.787803e-07
2.955483e-08
-3.885541e-07
2.879906e-08
-3.980082e-07
2.793183e-08
-4.071047e-07
2.694654e-08
-4.158025e-07
2.583672e-08
-4.240578e-07
2.459588e-08
-4.318257e-07
2.321806e-08
-4.390607e-07
2.169821e-08
-4.45716e-07
2.003172e-08
-4.517427e-07
1.821472e-08
-4.570907e-07
1.62442e-08
-4.617097e-07
1.411785e-08
-4.655507e-07
1.18347e-08
-4.685646e-07
9.395144e-09
-4.707027e-07
6.800724e-09
-4.719168e-07
4.054453e-09
-4.721592e-07
1.160736e-09
-4.713855e-07
-1.874565e-09
-4.695549e-07
-5.043249e-09
-4.666301e-07
-8.334674e-09
-4.625779e-07
-1.173614e-08
-4.573701e-07
-1.523261e-08
-4.509839e-07
-1.880629e-08
-4.434032e-07
-2.243663e-08
-4.346191e-07
-2.610073e-08
-4.246307e-07
-2.9774e-08
-4.13446e-07
-3.343008e-08
-4.010819e-07
-3.704044e-08
-3.875634e-07
-4.057522e-08
-3.729249e-07
-4.40042e-08
-3.57211e-07
-4.729663e-08
-3.40476e-07
-5.042119e-08
-3.227832e-07
-5.334661e-08
-3.042052e-07
-5.604263e-08
-2.848242e-07
-5.848034e-08
-2.647307e-07
-6.063255e-08
-2.440237e-07
-6.247417e-08
-2.228088e-07
-6.398217e-08
-2.011977e-07
-6.513641e-08
-1.793078e-07
-6.592014e-08
-1.572606e-07
-6.632013e-08
-1.351815e-07
-6.632681e-08
-1.131969e-07
-6.593437e-08
-9.143373e-08
-6.514166e-08
-7.001869e-08
-6.395244e-08
-4.907643e-08
-6.237448e-08
-2.872838e-08
-6.041973e-08
-9.092099e-09
-5.810479e-08
9.720726e-09
-5.54505e-08
2.760576e-08
-5.248146e-08
4.446688e-08
-4.922546e-08
6.021719e-08
-4.571261e-08
7.477973e-08
-4.197526e-08
8.808825e-08
-3.804791e-08
1.000878e-07
-3.396642e-08
1.107344e-07
-2.976735e-08
1.199955e-07
-2.548784e-08
1.278509e-07
-2.116525e-08
1.342916e-07
-1.683581e-08
1.393192e-07
-1.253388e-08
1.429472e-07
-8.292366e-09
1.452e-07
-4.142561e-09
1.461118e-07
-1.138919e-10
1.457257e-07
3.766234e-09
1.440934e-07
7.473185e-09
1.412758e-07
1.098515e-08
1.373412e-07
1.428184e-08
1.323647e-07
1.734347e-08
1.264289e-07
2.015059e-08
1.196229e-07
2.268412e-08
1.12043e-07
2.492482e-08
1.037931e-07
2.685159e-08
9.498582e-08
2.843984e-08
8.574233e-08
2.966089e-08
7.619369e-08
3.048149e-08
6.648206e-08
3.086269e-08
5.676208e-08
3.075933e-08
4.720163e-08
3.012035e-08
3.79811e-08
2.889094e-08
2.929265e-08
2.701671e-08
2.133891e-08
2.445003e-08
1.432912e-08
2.116204e-08
8.47448e-09
1.716226e-08
3.986089e-09
1.252778e-08
1.078572e-09
7.448529e-09
2.310906e-09
-3.292204e-10
-3.78306e-10
-1.439357e-09
9.09121e-10
-3.443244e-09
3.459536e-09
-6.420195e-09
6.754673e-09
-1.040453e-08
1.044165e-08
-1.540035e-08
1.424895e-08
-2.137923e-08
1.798236e-08
-2.828209e-08
2.151727e-08
-3.604059e-08
2.477441e-08
-4.458151e-08
2.771035e-08
-5.382348e-08
3.031025e-08
-6.368358e-08
3.258229e-08
-7.408188e-08
3.454882e-08
-8.494641e-08
3.623274e-08
-9.621919e-08
3.766221e-08
-1.078385e-07
3.887351e-08
-1.197497e-07
3.99013e-08
-1.319139e-07
4.077468e-08
-1.442931e-07
4.151921e-08
-1.568605e-07
4.215859e-08
-1.695888e-07
4.271434e-08
-1.824515e-07
4.320413e-08
-1.954359e-07
4.364035e-08
-2.085267e-07
4.403083e-08
-2.217074e-07
4.438164e-08
-2.349673e-07
4.469805e-08
-2.482915e-07
4.498219e-08
-2.616656e-07
4.523253e-08
-2.750815e-07
4.544605e-08
-2.885269e-07
4.561907e-08
-3.019824e-07
4.574736e-08
-3.15431e-07
4.582631e-08
-3.288577e-07
4.585021e-08
-3.422435e-07
4.581169e-08
-3.555657e-07
4.5703e-08
-3.688023e-07
4.551693e-08
-3.819301e-07
4.524616e-08
-3.949206e-07
4.488262e-08
-4.077427e-07
4.441794e-08
-4.203656e-07
4.384386e-08
-4.327583e-07
4.315167e-08
-4.448855e-07
4.233207e-08
-4.567071e-07
4.137586e-08
-4.681814e-07
4.027441e-08
-4.792667e-07
3.901927e-08
-4.899197e-07
3.760146e-08
-5.000936e-07
3.601191e-08
-5.097386e-07
3.424231e-08
-5.188035e-07
3.228513e-08
-5.272368e-07
3.013367e-08
-5.349852e-07
2.778182e-08
-5.419938e-07
2.522421e-08
-5.482063e-07
2.245719e-08
-5.535659e-07
1.947854e-08
-5.580174e-07
1.62872e-08
-5.61506e-07
1.288371e-08
-5.639772e-07
9.270444e-09
-5.653773e-07
5.452016e-09
-5.656537e-07
1.43519e-09
-5.647567e-07
-2.771643e-09
-5.626415e-07
-7.157601e-09
-5.592671e-07
-1.170825e-08
-5.54597e-07
-1.640582e-08
-5.486002e-07
-2.122936e-08
-5.412513e-07
-2.615463e-08
-5.325326e-07
-3.115411e-08
-5.22435e-07
-3.619703e-08
-5.10958e-07
-4.124975e-08
-4.981101e-07
-4.627637e-08
-4.839102e-07
-5.123906e-08
-4.68387e-07
-5.609804e-08
-4.515788e-07
-6.081231e-08
-4.335349e-07
-6.534038e-08
-4.143154e-07
-6.964045e-08
-3.939908e-07
-7.367073e-08
-3.726422e-07
-7.73905e-08
-3.503607e-07
-8.076096e-08
-3.27247e-07
-8.374543e-08
-3.034107e-07
-8.630996e-08
-2.789691e-07
-8.842363e-08
-2.540469e-07
-9.005903e-08
-2.28775e-07
-9.119293e-08
-2.032889e-07
-9.180681e-08
-1.777286e-07
-9.188768e-08
-1.522364e-07
-9.14277e-08
-1.269559e-07
-9.042397e-08
-1.020298e-07
-8.887987e-08
-7.759926e-08
-8.680536e-08
-5.38029e-08
-8.421608e-08
-3.077523e-08
-8.113289e-08
-8.644536e-09
-7.758201e-08
1.246835e-08
-7.359513e-08
3.24511e-08
-6.9209e-08
5.120121e-08
-6.446384e-08
6.862692e-08
-5.940223e-08
8.464831e-08
-5.406991e-08
9.919797e-08
-4.851567e-08
1.122203e-07
-4.278938e-08
1.236722e-07
-3.694071e-08
1.335254e-07
-3.101927e-08
1.417644e-07
-2.507449e-08
1.483856e-07
-1.915438e-08
1.533985e-07
-1.330488e-08
1.568254e-07
-7.569615e-09
1.587002e-07
-1.989349e-09
1.590679e-07
3.397882e-09
1.579848e-07
8.556633e-09
1.555168e-07
1.345424e-08
1.517386e-07
1.806067e-08
1.467338e-07
2.23477e-08
1.405956e-07
2.628785e-08
1.334258e-07
2.985366e-08
1.253337e-07
3.301711e-08
1.164371e-07
3.574818e-08
1.06864e-07
3.801299e-08
9.675249e-08
3.977278e-08
8.625089e-08
4.09834e-08
7.55189e-08
4.159437e-08
6.472891e-08
4.154846e-08
5.406715e-08
4.078181e-08
4.373303e-08
3.922607e-08
3.393777e-08
3.681325e-08
2.490482e-08
3.348353e-08
1.686944e-08
2.919722e-08
1.007874e-08
2.395228e-08
4.796998e-09
1.780967e-08
1.316979e-09
1.092875e-08
3.628282e-09
-5.012422e-10
1.372724e-10
-2.108833e-09
2.503533e-09
-4.867104e-09
6.205025e-09
-8.797747e-09
1.068958e-08
-1.390716e-08
1.555631e-08
-2.016932e-08
2.050859e-08
-2.752738e-08
2.533788e-08
-3.590999e-08
2.990112e-08
-4.523755e-08
3.410278e-08
-5.542554e-08
3.789372e-08
-6.638059e-08
4.126221e-08
-7.801147e-08
4.421641e-08
-9.023939e-08
4.677736e-08
-1.029858e-07
4.897688e-08
-1.161808e-07
5.085388e-08
-1.297588e-07
5.245063e-08
-1.436638e-07
5.380814e-08
-1.578532e-07
5.496306e-08
-1.722833e-07
5.594832e-08
-1.869218e-07
5.679472e-08
-2.017377e-07
5.752922e-08
-2.167026e-07
5.817256e-08
-2.318016e-07
5.873961e-08
-2.470147e-07
5.924181e-08
-2.623203e-07
5.968806e-08
-2.777057e-07
6.008402e-08
-2.931544e-07
6.043189e-08
-3.08649e-07
6.073036e-08
-3.241778e-07
6.097587e-08
-3.397247e-07
6.116417e-08
-3.552672e-07
6.129024e-08
-3.707856e-07
6.134774e-08
-3.862631e-07
6.132902e-08
-4.016774e-07
6.122553e-08
-4.170018e-07
6.102806e-08
-4.32211e-07
6.072705e-08
-4.472789e-07
6.031284e-08
-4.621736e-07
5.977567e-08
-4.768601e-07
5.910515e-08
-4.913045e-07
5.829023e-08
-5.054724e-07
5.731953e-08
-5.193243e-07
5.618167e-08
-5.328154e-07
5.486553e-08
-5.458996e-07
5.335987e-08
-5.585316e-07
5.165337e-08
-5.706637e-07
4.973473e-08
-5.822441e-07
4.759274e-08
-5.932177e-07
4.521697e-08
-6.035284e-07
4.259777e-08
-6.131196e-07
3.972648e-08
-6.219333e-07
3.659585e-08
-6.299087e-07
3.319972e-08
-6.36984e-07
2.953327e-08
-6.430976e-07
2.559357e-08
-6.481892e-07
2.137966e-08
-6.52199e-07
1.68929e-08
-6.550671e-07
1.213706e-08
-6.567348e-07
7.11823e-09
-6.571457e-07
1.845169e-09
-6.56246e-07
-3.670853e-09
-6.539867e-07
-9.415527e-09
-6.503232e-07
-1.537035e-08
-6.45216e-07
-2.151234e-08
-6.386309e-07
-2.78144e-08
-6.3054e-07
-3.424533e-08
-6.209234e-07
-4.076974e-08
-6.097707e-07
-4.73483e-08
-5.970807e-07
-5.393814e-08
-5.828621e-07
-6.049326e-08
-5.671342e-07
-6.696531e-08
-5.499272e-07
-7.330399e-08
-5.31282e-07
-7.945708e-08
-5.112507e-07
-8.537119e-08
-4.898973e-07
-9.099286e-08
-4.672972e-07
-9.626926e-08
-4.435374e-07
-1.011487e-07
-4.18716e-07
-1.055813e-07
-3.929412e-07
-1.095198e-07
-3.663307e-07
-1.129205e-07
-3.39011e-07
-1.157434e-07
-3.111168e-07
-1.179532e-07
-2.827901e-07
-1.195199e-07
-2.54179e-07
-1.20419e-07
-2.254355e-07
-1.206322e-07
-1.967149e-07
-1.201485e-07
-1.681751e-07
-1.189641e-07
-1.399741e-07
-1.170819e-07
-1.12268e-07
-1.145123e-07
-8.52103e-08
-1.11274e-07
-5.895093e-08
-1.073926e-07
-3.363413e-08
-1.029003e-07
-9.396526e-09
-9.783506e-08
1.363438e-08
-9.224147e-08
3.534107e-08
-8.617062e-08
5.56164e-08
-7.967771e-08
7.436548e-08
-7.282044e-08
9.150799e-08
-6.565955e-08
1.06977e-07
-5.825861e-08
1.207186e-07
-5.068234e-08
1.326941e-07
-4.299515e-08
1.428799e-07
-3.526063e-08
1.51266e-07
-2.754105e-08
1.578567e-07
-1.989652e-08
1.626711e-07
-1.238451e-08
1.657414e-07
-5.059443e-09
1.671118e-07
2.027357e-09
1.668402e-07
8.827927e-09
1.649966e-07
1.529791e-08
1.616609e-07
2.139619e-08
1.569232e-07
2.708427e-08
1.508849e-07
3.232496e-08
1.436579e-07
3.708086e-08
1.353624e-07
4.131355e-08
1.261278e-07
4.498287e-08
1.16095e-07
4.80452e-08
1.05416e-07
5.045143e-08
9.425408e-08
5.214587e-08
8.278373e-08
5.306565e-08
7.119208e-08
5.314055e-08
5.968053e-08
5.22935e-08
4.846498e-08
5.044231e-08
3.777502e-08
4.750419e-08
2.785531e-08
4.340392e-08
1.896756e-08
3.808479e-08
1.13954e-08
3.152372e-08
5.454327e-09
2.375129e-08
1.50613e-09
1.487763e-08
5.135071e-09
-7.002251e-10
8.395612e-10
-2.820475e-09
4.623443e-09
-6.359056e-09
9.744739e-09
-1.12941e-08
1.562267e-08
-1.758283e-08
2.183978e-08
-2.515962e-08
2.808458e-08
-3.394472e-08
3.412761e-08
-4.38546e-08
3.981002e-08
-5.479077e-08
4.503478e-08
-6.665137e-08
4.975173e-08
-7.933675e-08
5.394797e-08
-9.275099e-08
5.763332e-08
-1.068084e-07
6.083328e-08
-1.214237e-07
6.358848e-08
-1.365209e-07
6.594799e-08
-1.520309e-07
6.796142e-08
-1.67896e-07
6.96756e-08
-1.840698e-07
7.113458e-08
-2.005034e-07
7.238016e-08
-2.171601e-07
7.345047e-08
-2.340076e-07
7.437677e-08
-2.510153e-07
7.51831e-08
-2.681646e-07
7.588784e-08
-2.854312e-07
7.650593e-08
-3.027905e-07
7.704888e-08
-3.202275e-07
7.752296e-08
-3.377241e-07
7.792982e-08
-3.5526e-07
7.826845e-08
-3.728198e-07
7.853566e-08
-3.903842e-07
7.872648e-08
-4.079282e-07
7.883469e-08
-4.254302e-07
7.885276e-08
-4.428708e-07
7.877138e-08
-4.602253e-07
7.857985e-08
-4.77464e-07
7.826712e-08
-4.94559e-07
7.782222e-08
-5.114811e-07
7.723378e-08
-5.28196e-07
7.648964e-08
-5.446664e-07
7.55767e-08
-5.608557e-07
7.448132e-08
-5.767265e-07
7.318989e-08
-5.922356e-07
7.168869e-08
-6.073353e-07
6.996409e-08
-6.21976e-07
6.800219e-08
-6.361094e-07
6.57889e-08
-6.496842e-07
6.331045e-08
-6.626445e-07
6.055326e-08
-6.749314e-07
5.750429e-08
-6.864842e-07
5.415182e-08
-6.972422e-07
5.048554e-08
-7.071429e-07
4.64967e-08
-7.161212e-07
4.21779e-08
-7.241106e-07
3.752313e-08
-7.31045e-07
3.25288e-08
-7.368593e-07
2.719433e-08
-7.414889e-07
2.152188e-08
-7.448695e-07
1.551639e-08
-7.46938e-07
9.185594e-09
-7.476336e-07
2.540352e-09
-7.468989e-07
-4.405076e-09
-7.446807e-07
-1.163256e-08
-7.409305e-07
-1.911942e-08
-7.356048e-07
-2.683769e-08
-7.286662e-07
-3.475385e-08
-7.200832e-07
-4.28292e-08
-7.09833e-07
-5.102015e-08
-6.979022e-07
-5.927836e-08
-6.842878e-07
-6.755129e-08
-6.689972e-07
-7.578273e-08
-6.520488e-07
-8.391313e-08
-6.334722e-07
-9.188037e-08
-6.133085e-07
-9.96205e-08
-5.916112e-07
-1.070681e-07
-5.684462e-07
-1.141573e-07
-5.438918e-07
-1.208227e-07
-5.180386e-07
-1.270009e-07
-4.909892e-07
-1.326302e-07
-4.628572e-07
-1.376523e-07
-4.337667e-07
-1.420121e-07
-4.038514e-07
-1.456599e-07
-3.732543e-07
-1.485516e-07
-3.421263e-07
-1.506488e-07
-3.106256e-07
-1.519204e-07
-2.789159e-07
-1.523427e-07
-2.471644e-07
-1.519004e-07
-2.155413e-07
-1.505871e-07
-1.842184e-07
-1.484053e-07
-1.533666e-07
-1.453656e-07
-1.23154e-07
-1.414883e-07
-9.374503e-08
-1.368028e-07
-6.529852e-08
-1.313472e-07
-3.796701e-08
-1.251677e-07
-1.189426e-08
-1.183167e-07
1.278713e-08
-1.108539e-07
3.595535e-08
-1.02846e-07
5.750027e-08
-9.436489e-08
7.732669e-08
-8.548578e-08
9.535457e-08
-7.628653e-08
1.115184e-07
-6.684671e-08
1.257689e-07
-5.724646e-08
1.380729e-07
-4.75652e-08
1.484124e-07
-3.788087e-08
1.567855e-07
-2.82695e-08
1.632062e-07
-1.880447e-08
1.677033e-07
-9.555575e-09
1.703192e-07
-5.886585e-10
1.711118e-07
8.034386e-09
1.701533e-07
1.625596e-08
1.675278e-07
2.402218e-08
1.633304e-07
3.128209e-08
1.576685e-07
3.798679e-08
1.506617e-07
4.408792e-08
1.4244e-07
4.953615e-08
1.331432e-07
5.428018e-08
1.229228e-07
5.826538e-08
1.119426e-07
6.143148e-08
1.003782e-07
6.3711e-08
8.841726e-08
6.502821e-08
7.626041e-08
6.529904e-08
6.412265e-08
6.443216e-08
5.22349e-08
6.233038e-08
4.084487e-08
5.889462e-08
3.021877e-08
5.403083e-08
2.064483e-08
4.765906e-08
1.244166e-08
3.972659e-08
5.970808e-09
3.022291e-08
1.651886e-09
1.919737e-08
6.787723e-09
-9.057157e-10
1.740129e-09
-3.554071e-09
7.283235e-09
-7.90149e-09
1.409298e-08
-1.387046e-08
2.158553e-08
-2.136855e-08
2.933528e-08
-3.029795e-08
3.701522e-08
-4.055231e-08
4.438394e-08
-5.202329e-08
5.127784e-08
-6.459483e-08
5.760162e-08
-7.81499e-08
6.33078e-08
-9.258144e-08
6.838232e-08
-1.077878e-07
7.28391e-08
-1.236734e-07
7.671435e-08
-1.401458e-07
8.005867e-08
-1.571265e-07
8.292863e-08
-1.745449e-07
8.538088e-08
-1.923398e-07
8.747051e-08
-2.104601e-07
8.92508e-08
-2.288528e-07
9.077209e-08
-2.474796e-07
9.207851e-08
-2.663069e-07
9.320484e-08
-2.853019e-07
9.417908e-08
-3.044415e-07
9.502488e-08
-3.236978e-07
9.576053e-08
-3.430449e-07
9.639859e-08
-3.624663e-07
9.694618e-08
-3.819411e-07
9.740551e-08
-4.014463e-07
9.777529e-08
-4.209637e-07
9.805232e-08
-4.404715e-07
9.823183e-08
-4.599427e-07
9.830679e-08
-4.79354e-07
9.826758e-08
-4.986847e-07
9.8103e-08
-5.179074e-07
9.780111e-08
-5.369903e-07
9.734957e-08
-5.559031e-07
9.67355e-08
-5.74615e-07
9.594526e-08
-5.930905e-07
9.496438e-08
-6.112905e-07
9.377745e-08
-6.291763e-07
9.236831e-08
-6.467079e-07
9.072082e-08
-6.638401e-07
8.881874e-08
-6.805227e-07
8.664576e-08
-6.967042e-07
8.418538e-08
-7.123334e-07
8.142054e-08
-7.273565e-07
7.833437e-08
-7.417148e-07
7.491073e-08
-7.553456e-07
7.113431e-08
-7.681847e-07
6.699129e-08
-7.801674e-07
6.246936e-08
-7.912279e-07
5.755754e-08
-8.012974e-07
5.224678e-08
-8.10305e-07
4.653029e-08
-8.1818e-07
4.040407e-08
-8.248527e-07
3.386747e-08
-8.30254e-07
2.692312e-08
-8.343153e-07
1.957689e-08
-8.36969e-07
1.183844e-08
-8.381495e-07
3.721144e-09
-8.377949e-07
-4.758028e-09
-8.358481e-07
-1.357766e-08
-8.322558e-07