/*--------------------------------*- C++ -*----------------------------------*\
| =========                 |                                                 |
| \\      /  F ield         | OpenFOAM: The Open Source CFD Toolbox           |
|  \\    /   O peration     | Version:  2406                                  |
|   \\  /    A nd           | Website:  www.openfoam.com                      |
|    \\/     M anipulation  |                                                 |
\*---------------------------------------------------------------------------*/
FoamFile
{
    version     2.0;
    format      ascii;
    arch        "LSB;label=32;scalar=64";
    class       volVectorField;
    location    "400";
    object      U;
}
// * * * * * * * * * * * * * * * * * * * * * * * * * * * * * * * * * * * * * //

dimensions      [0 1 -1 0 0 0 0];

internalField   nonuniform List<vector> 
16384
(
(-1.854621e-07 -2.182111e-07 0)
(-2.150839e-07 -1.155077e-07 0)
(1.79565e-08 -4.458339e-08 0)
(1.264888e-07 -2.495316e-08 0)
(1.508844e-07 -1.232686e-08 0)
(1.115318e-07 -1.737468e-09 0)
(1.49127e-08 7.886852e-09 0)
(-1.324626e-07 1.599544e-08 0)
(-3.251873e-07 2.198656e-08 0)
(-5.572892e-07 2.693696e-08 0)
(-8.228992e-07 3.11028e-08 0)
(-1.116953e-06 3.443566e-08 0)
(-1.43435e-06 3.714973e-08 0)
(-1.770895e-06 3.899136e-08 0)
(-2.123226e-06 4.033793e-08 0)
(-2.48821e-06 4.15012e-08 0)
(-2.863652e-06 4.229513e-08 0)
(-3.247952e-06 4.29618e-08 0)
(-3.639235e-06 4.363773e-08 0)
(-4.036385e-06 4.418064e-08 0)
(-4.439092e-06 4.473429e-08 0)
(-4.846611e-06 4.528781e-08 0)
(-5.258747e-06 4.568076e-08 0)
(-5.67551e-06 4.614566e-08 0)
(-6.096262e-06 4.682982e-08 0)
(-6.521006e-06 4.757788e-08 0)
(-6.95027e-06 4.831137e-08 0)
(-7.383972e-06 4.902471e-08 0)
(-7.821795e-06 4.971708e-08 0)
(-8.26359e-06 5.051048e-08 0)
(-8.708981e-06 5.141204e-08 0)
(-9.157714e-06 5.224575e-08 0)
(-9.609892e-06 5.293436e-08 0)
(-1.006528e-05 5.360003e-08 0)
(-1.052292e-05 5.432113e-08 0)
(-1.098184e-05 5.500604e-08 0)
(-1.144148e-05 5.560507e-08 0)
(-1.190121e-05 5.612185e-08 0)
(-1.236006e-05 5.652136e-08 0)
(-1.281692e-05 5.675172e-08 0)
(-1.327067e-05 5.67808e-08 0)
(-1.372006e-05 5.661964e-08 0)
(-1.416355e-05 5.629603e-08 0)
(-1.459949e-05 5.584072e-08 0)
(-1.502616e-05 5.520266e-08 0)
(-1.544188e-05 5.425582e-08 0)
(-1.584495e-05 5.299163e-08 0)
(-1.623329e-05 5.147237e-08 0)
(-1.660463e-05 4.967128e-08 0)
(-1.695678e-05 4.753857e-08 0)
(-1.728747e-05 4.503518e-08 0)
(-1.759422e-05 4.213336e-08 0)
(-1.78744e-05 3.888995e-08 0)
(-1.812524e-05 3.534224e-08 0)
(-1.834408e-05 3.139068e-08 0)
(-1.852847e-05 2.695717e-08 0)
(-1.867585e-05 2.207842e-08 0)
(-1.87834e-05 1.676612e-08 0)
(-1.884833e-05 1.101174e-08 0)
(-1.886792e-05 4.872179e-09 0)
(-1.88395e-05 -1.648188e-09 0)
(-1.876064e-05 -8.604489e-09 0)
(-1.862919e-05 -1.594363e-08 0)
(-1.844307e-05 -2.358647e-08 0)
(-1.820041e-05 -3.154926e-08 0)
(-1.78999e-05 -3.978562e-08 0)
(-1.754047e-05 -4.815789e-08 0)
(-1.712132e-05 -5.662781e-08 0)
(-1.664224e-05 -6.520624e-08 0)
(-1.610358e-05 -7.377797e-08 0)
(-1.550612e-05 -8.218696e-08 0)
(-1.485109e-05 -9.038086e-08 0)
(-1.414035e-05 -9.833344e-08 0)
(-1.337645e-05 -1.05926e-07 0)
(-1.256242e-05 -1.130017e-07 0)
(-1.170183e-05 -1.194838e-07 0)
(-1.079886e-05 -1.253537e-07 0)
(-9.858267e-06 -1.305249e-07 0)
(-8.885262e-06 -1.34845e-07 0)
(-7.885438e-06 -1.382339e-07 0)
(-6.864834e-06 -1.407034e-07 0)
(-5.829895e-06 -1.422154e-07 0)
(-4.78729e-06 -1.426672e-07 0)
(-3.743821e-06 -1.420257e-07 0)
(-2.706453e-06 -1.403235e-07 0)
(-1.682162e-06 -1.375715e-07 0)
(-6.777597e-07 -1.337709e-07 0)
(3.000676e-07 -1.289503e-07 0)
(1.2448e-06 -1.2317e-07 0)
(2.150247e-06 -1.165058e-07 0)
(3.010648e-06 -1.090308e-07 0)
(3.820682e-06 -1.008155e-07 0)
(4.575505e-06 -9.19367e-08 0)
(5.27085e-06 -8.251372e-08 0)
(5.903039e-06 -7.269253e-08 0)
(6.469027e-06 -6.259273e-08 0)
(6.966505e-06 -5.231861e-08 0)
(7.393835e-06 -4.195852e-08 0)
(7.750014e-06 -3.160162e-08 0)
(8.034704e-06 -2.135989e-08 0)
(8.248214e-06 -1.133859e-08 0)
(8.391437e-06 -1.611364e-09 0)
(8.465806e-06 7.794463e-09 0)
(8.473306e-06 1.681711e-08 0)
(8.416365e-06 2.538325e-08 0)
(8.297792e-06 3.34458e-08 0)
(8.120767e-06 4.098596e-08 0)
(7.888744e-06 4.797416e-08 0)
(7.605353e-06 5.436774e-08 0)
(7.274365e-06 6.017311e-08 0)
(6.899828e-06 6.542516e-08 0)
(6.486058e-06 7.009346e-08 0)
(6.037478e-06 7.411036e-08 0)
(5.558664e-06 7.746625e-08 0)
(5.054583e-06 8.017551e-08 0)
(4.530684e-06 8.219119e-08 0)
(3.992854e-06 8.344068e-08 0)
(3.447669e-06 8.38153e-08 0)
(2.902669e-06 8.309693e-08 0)
(2.366554e-06 8.100503e-08 0)
(1.849558e-06 7.717526e-08 0)
(1.363767e-06 7.106812e-08 0)
(9.233344e-07 6.203623e-08 0)
(5.447344e-07 4.938301e-08 0)
(2.464028e-07 3.248179e-08 0)
(4.685363e-08 1.113346e-08 0)
(-4.221998e-08 -1.281773e-08 0)
(-2.813117e-08 -2.734552e-08 0)
(-6.560042e-08 -3.800305e-07 0)
(-5.177238e-08 -3.123449e-07 0)
(8.472667e-08 -1.955224e-07 0)
(1.305545e-07 -7.940719e-08 0)
(5.245462e-08 3.677691e-08 0)
(-1.581852e-07 1.485046e-07 0)
(-5.022032e-07 2.533054e-07 0)
(-9.737643e-07 3.478309e-07 0)
(-1.561139e-06 4.308386e-07 0)
(-2.25106e-06 5.027312e-07 0)
(-3.031472e-06 5.639401e-07 0)
(-3.890062e-06 6.155614e-07 0)
(-4.814889e-06 6.585761e-07 0)
(-5.795136e-06 6.937368e-07 0)
(-6.821031e-06 7.22609e-07 0)
(-7.885049e-06 7.463614e-07 0)
(-8.981163e-06 7.655892e-07 0)
(-1.010396e-05 7.815835e-07 0)
(-1.124874e-05 7.953715e-07 0)
(-1.24122e-05 8.072795e-07 0)
(-1.359252e-05 8.179333e-07 0)
(-1.478784e-05 8.276979e-07 0)
(-1.599666e-05 8.365926e-07 0)
(-1.721803e-05 8.452362e-07 0)
(-1.845084e-05 8.540771e-07 0)
(-1.969485e-05 8.627838e-07 0)
(-2.095039e-05 8.710624e-07 0)
(-2.221696e-05 8.790725e-07 0)
(-2.349329e-05 8.869481e-07 0)
(-2.477854e-05 8.94625e-07 0)
(-2.607209e-05 9.018715e-07 0)
(-2.737317e-05 9.084318e-07 0)
(-2.868082e-05 9.140661e-07 0)
(-2.999367e-05 9.18575e-07 0)
(-3.130968e-05 9.218921e-07 0)
(-3.262648e-05 9.23923e-07 0)
(-3.394188e-05 9.245072e-07 0)
(-3.525369e-05 9.233573e-07 0)
(-3.655931e-05 9.200903e-07 0)
(-3.785566e-05 9.14435e-07 0)
(-3.913931e-05 9.062386e-07 0)
(-4.040652e-05 8.953475e-07 0)
(-4.16531e-05 8.815335e-07 0)
(-4.287466e-05 8.645683e-07 0)
(-4.406659e-05 8.442239e-07 0)
(-4.522404e-05 8.201938e-07 0)
(-4.634197e-05 7.922066e-07 0)
(-4.741484e-05 7.600598e-07 0)
(-4.843667e-05 7.23499e-07 0)
(-4.940141e-05 6.822695e-07 0)
(-5.030272e-05 6.361928e-07 0)
(-5.113383e-05 5.851354e-07 0)
(-5.188779e-05 5.290257e-07 0)
(-5.255756e-05 4.677927e-07 0)
(-5.313622e-05 4.012502e-07 0)
(-5.361697e-05 3.292085e-07 0)
(-5.399284e-05 2.516576e-07 0)
(-5.425654e-05 1.687179e-07 0)
(-5.440088e-05 8.05191e-08 0)
(-5.441899e-05 -1.278567e-08 0)
(-5.43043e-05 -1.110035e-07 0)
(-5.405061e-05 -2.138858e-07 0)
(-5.365238e-05 -3.210292e-07 0)
(-5.310454e-05 -4.31892e-07 0)
(-5.240273e-05 -5.45907e-07 0)
(-5.154359e-05 -6.62421e-07 0)
(-5.052476e-05 -7.806262e-07 0)
(-4.934475e-05 -8.996736e-07 0)
(-4.800327e-05 -1.018685e-06 0)
(-4.650144e-05 -1.136636e-06 0)
(-4.484168e-05 -1.252411e-06 0)
(-4.302777e-05 -1.364934e-06 0)
(-4.106494e-05 -1.473132e-06 0)
(-3.895992e-05 -1.575856e-06 0)
(-3.672095e-05 -1.671941e-06 0)
(-3.435772e-05 -1.76027e-06 0)
(-3.188135e-05 -1.839807e-06 0)
(-2.930428e-05 -1.90958e-06 0)
(-2.664018e-05 -1.968642e-06 0)
(-2.390385e-05 -2.016102e-06 0)
(-2.111115e-05 -2.051235e-06 0)
(-1.82788e-05 -2.073496e-06 0)
(-1.542417e-05 -2.082434e-06 0)
(-1.256514e-05 -2.077719e-06 0)
(-9.71986e-06 -2.059185e-06 0)
(-6.906517e-06 -2.026838e-06 0)
(-4.143094e-06 -1.980907e-06 0)
(-1.447295e-06 -1.921808e-06 0)
(1.163581e-06 -1.850065e-06 0)
(3.673022e-06 -1.766362e-06 0)
(6.065681e-06 -1.671558e-06 0)
(8.327318e-06 -1.566627e-06 0)
(1.044479e-05 -1.452623e-06 0)
(1.240635e-05 -1.330737e-06 0)
(1.420183e-05 -1.202258e-06 0)
(1.582271e-05 -1.068484e-06 0)
(1.726223e-05 -9.307364e-07 0)
(1.851531e-05 -7.903464e-07 0)
(1.957851e-05 -6.485985e-07 0)
(2.045011e-05 -5.067499e-07 0)
(2.113009e-05 -3.660116e-07 0)
(2.162012e-05 -2.275399e-07 0)
(2.192327e-05 -9.233704e-08 0)
(2.204404e-05 3.866299e-08 0)
(2.198823e-05 1.646137e-07 0)
(2.176276e-05 2.847677e-07 0)
(2.137558e-05 3.984773e-07 0)
(2.083545e-05 5.051996e-07 0)
(2.015191e-05 6.044504e-07 0)
(1.933518e-05 6.957913e-07 0)
(1.83961e-05 7.788393e-07 0)
(1.734627e-05 8.531527e-07 0)
(1.619795e-05 9.182097e-07 0)
(1.496416e-05 9.734981e-07 0)
(1.365885e-05 1.018418e-06 0)
(1.229729e-05 1.052049e-06 0)
(1.089606e-05 1.07316e-06 0)
(9.47351e-06 1.080209e-06 0)
(8.05028e-06 1.071134e-06 0)
(6.649719e-06 1.043286e-06 0)
(5.298349e-06 9.934838e-07 0)
(4.02636e-06 9.179752e-07 0)
(2.867665e-06 8.127449e-07 0)
(1.859402e-06 6.743609e-07 0)
(1.040008e-06 5.019265e-07 0)
(4.443639e-07 3.014961e-07 0)
(9.522459e-08 9.638898e-08 0)
(-1.429228e-08 -4.118675e-08 0)
(1.279586e-09 -2.868343e-07 0)
(5.301976e-09 -3.434267e-07 0)
(1.763385e-08 -2.096687e-07 0)
(-8.721205e-08 1.332107e-08 0)
(-3.546774e-07 2.763522e-07 0)
(-8.053607e-07 5.487685e-07 0)
(-1.446132e-06 8.121885e-07 0)
(-2.271899e-06 1.057025e-06 0)
(-3.269208e-06 1.278365e-06 0)
(-4.421663e-06 1.47335e-06 0)
(-5.711828e-06 1.641894e-06 0)
(-7.122485e-06 1.785642e-06 0)
(-8.637013e-06 1.906737e-06 0)
(-1.02394e-05 2.008257e-06 0)
(-1.191562e-05 2.092813e-06 0)
(-1.365446e-05 2.162687e-06 0)
(-1.54459e-05 2.220548e-06 0)
(-1.728113e-05 2.268998e-06 0)
(-1.915334e-05 2.310363e-06 0)
(-2.105728e-05 2.346203e-06 0)
(-2.298914e-05 2.377643e-06 0)
(-2.494569e-05 2.405863e-06 0)
(-2.692411e-05 2.431962e-06 0)
(-2.892208e-05 2.456788e-06 0)
(-3.093813e-05 2.480685e-06 0)
(-3.297171e-05 2.503462e-06 0)
(-3.502195e-05 2.524961e-06 0)
(-3.708716e-05 2.545433e-06 0)
(-3.916574e-05 2.56496e-06 0)
(-4.125647e-05 2.5832e-06 0)
(-4.335769e-05 2.599668e-06 0)
(-4.546757e-05 2.613914e-06 0)
(-4.758446e-05 2.625411e-06 0)
(-4.970588e-05 2.63354e-06 0)
(-5.182819e-05 2.638e-06 0)
(-5.394759e-05 2.638564e-06 0)
(-5.606073e-05 2.634617e-06 0)
(-5.816407e-05 2.625335e-06 0)
(-6.025314e-05 2.610013e-06 0)
(-6.232274e-05 2.588171e-06 0)
(-6.436734e-05 2.55929e-06 0)
(-6.638119e-05 2.52271e-06 0)
(-6.835781e-05 2.47779e-06 0)
(-7.029021e-05 2.423945e-06 0)
(-7.217107e-05 2.360606e-06 0)
(-7.399288e-05 2.287108e-06 0)
(-7.574779e-05 2.202696e-06 0)
(-7.742716e-05 2.106712e-06 0)
(-7.902177e-05 1.998617e-06 0)
(-8.052221e-05 1.877881e-06 0)
(-8.191869e-05 1.744049e-06 0)
(-8.320099e-05 1.596773e-06 0)
(-8.435865e-05 1.435729e-06 0)
(-8.538108e-05 1.260602e-06 0)
(-8.625784e-05 1.071128e-06 0)
(-8.697855e-05 8.671386e-07 0)
(-8.753255e-05 6.486605e-07 0)
(-8.790903e-05 4.159641e-07 0)
(-8.809753e-05 1.694289e-07 0)
(-8.808796e-05 -9.055475e-08 0)
(-8.787067e-05 -3.634263e-07 0)
(-8.743672e-05 -6.483054e-07 0)
(-8.677803e-05 -9.440304e-07 0)
(-8.588737e-05 -1.249212e-06 0)
(-8.475866e-05 -1.562265e-06 0)
(-8.338732e-05 -1.88141e-06 0)
(-8.177012e-05 -2.204583e-06 0)
(-7.990527e-05 -2.529432e-06 0)
(-7.779283e-05 -2.853455e-06 0)
(-7.543487e-05 -3.174041e-06 0)
(-7.283542e-05 -3.488401e-06 0)
(-7.000051e-05 -3.79363e-06 0)
(-6.693831e-05 -4.08679e-06 0)
(-6.365924e-05 -4.364916e-06 0)
(-6.017583e-05 -4.625055e-06 0)
(-5.650272e-05 -4.864325e-06 0)
(-5.265674e-05 -5.079945e-06 0)
(-4.865665e-05 -5.269294e-06 0)
(-4.452286e-05 -5.429972e-06 0)
(-4.027748e-05 -5.559785e-06 0)
(-3.594428e-05 -5.656799e-06 0)
(-3.154832e-05 -5.719467e-06 0)
(-2.711552e-05 -5.746629e-06 0)
(-2.267245e-05 -5.737441e-06 0)
(-1.824625e-05 -5.691442e-06 0)
(-1.386431e-05 -5.608599e-06 0)
(-9.553748e-06 -5.489406e-06 0)
(-5.34121e-06 -5.334872e-06 0)
(-1.252709e-06 -5.146358e-06 0)
(2.686649e-06 -4.925556e-06 0)
(6.453221e-06 -4.674604e-06 0)
(1.002516e-05 -4.396037e-06 0)
(1.338225e-05 -4.092638e-06 0)
(1.650624e-05 -3.767404e-06 0)
(1.938114e-05 -3.423562e-06 0)
(2.199334e-05 -3.064475e-06 0)
(2.433172e-05 -2.693583e-06 0)
(2.638767e-05 -2.314369e-06 0)
(2.815509e-05 -1.930291e-06 0)
(2.963037e-05 -1.544737e-06 0)
(3.081244e-05 -1.160942e-06 0)
(3.170273e-05 -7.819939e-07 0)
(3.230498e-05 -4.107296e-07 0)
(3.262505e-05 -4.976601e-08 0)
(3.267084e-05 2.984698e-07 0)
(3.245205e-05 6.318219e-07 0)
(3.198013e-05 9.483777e-07 0)
(3.126799e-05 1.246456e-06 0)
(3.032978e-05 1.52457e-06 0)
(2.918088e-05 1.781272e-06 0)
(2.783791e-05 2.015187e-06 0)
(2.631872e-05 2.224991e-06 0)
(2.464241e-05 2.409249e-06 0)
(2.282939e-05 2.566289e-06 0)
(2.090157e-05 2.69414e-06 0)
(1.888271e-05 2.79028e-06 0)
(1.679878e-05 2.851413e-06 0)
(1.467829e-05 2.873481e-06 0)
(1.255271e-05 2.851483e-06 0)
(1.045713e-05 2.779285e-06 0)
(8.430589e-06 2.649836e-06 0)
(6.516257e-06 2.455512e-06 0)
(4.761181e-06 2.188849e-06 0)
(3.215282e-06 1.844526e-06 0)
(1.928588e-06 1.423489e-06 0)
(9.458054e-07 9.41133e-07 0)
(3.031228e-07 4.436288e-07 0)
(1.054599e-08 4.718759e-08 0)
(7.051477e-09 -2.656669e-07 0)
(-2.857799e-08 -3.107773e-07 0)
(-1.580702e-07 -8.344627e-08 0)
(-4.594525e-07 2.987063e-07 0)
(-9.717925e-07 7.590813e-07 0)
(-1.715946e-06 1.244102e-06 0)
(-2.696821e-06 1.720002e-06 0)
(-3.90813e-06 2.16791e-06 0)
(-5.336202e-06 2.576696e-06 0)
(-6.96223e-06 2.940994e-06 0)
(-8.765408e-06 3.259398e-06 0)
(-1.072484e-05 3.533297e-06 0)
(-1.281966e-05 3.76646e-06 0)
(-1.503067e-05 3.963652e-06 0)
(-1.734108e-05 4.128966e-06 0)
(-1.973591e-05 4.266797e-06 0)
(-2.220203e-05 4.382242e-06 0)
(-2.472816e-05 4.47954e-06 0)
(-2.730513e-05 4.562332e-06 0)
(-2.992611e-05 4.6338e-06 0)
(-3.258562e-05 4.696265e-06 0)
(-3.527829e-05 4.75185e-06 0)
(-3.799996e-05 4.802784e-06 0)
(-4.074787e-05 4.850395e-06 0)
(-4.351962e-05 4.894958e-06 0)
(-4.631344e-05 4.936604e-06 0)
(-4.912742e-05 4.975591e-06 0)
(-5.195903e-05 5.012039e-06 0)
(-5.480577e-05 5.045705e-06 0)
(-5.766556e-05 5.07612e-06 0)
(-6.053604e-05 5.102597e-06 0)
(-6.341453e-05 5.124122e-06 0)
(-6.629812e-05 5.139802e-06 0)
(-6.918289e-05 5.148966e-06 0)
(-7.206391e-05 5.150931e-06 0)
(-7.493637e-05 5.144762e-06 0)
(-7.779578e-05 5.129217e-06 0)
(-8.063687e-05 5.103133e-06 0)
(-8.345332e-05 5.065497e-06 0)
(-8.623822e-05 5.015275e-06 0)
(-8.898439e-05 4.951303e-06 0)
(-9.168402e-05 4.872368e-06 0)
(-9.432841e-05 4.777438e-06 0)
(-9.690838e-05 4.665484e-06 0)
(-9.941444e-05 4.535274e-06 0)
(-0.0001018367 4.385521e-06 0)
(-0.0001041649 4.215017e-06 0)
(-0.0001063874 4.022667e-06 0)
(-0.0001084925 3.807493e-06 0)
(-0.0001104678 3.568574e-06 0)
(-0.0001123008 3.305066e-06 0)
(-0.0001139783 3.016293e-06 0)
(-0.0001154869 2.701694e-06 0)
(-0.0001168133 2.36074e-06 0)
(-0.000117944 1.993046e-06 0)
(-0.0001188657 1.598527e-06 0)
(-0.0001195649 1.177388e-06 0)
(-0.0001200278 7.300633e-07 0)
(-0.0001202416 2.572234e-07 0)
(-0.0001201936 -2.402401e-07 0)
(-0.000119872 -7.611177e-07 0)
(-0.0001192655 -1.30369e-06 0)
(-0.0001183642 -1.865744e-06 0)
(-0.0001171595 -2.444701e-06 0)
(-0.0001156441 -3.037597e-06 0)
(-0.0001138126 -3.641009e-06 0)
(-0.0001116611 -4.251065e-06 0)
(-0.0001091878 -4.863471e-06 0)
(-0.0001063934 -5.473602e-06 0)
(-0.0001032809 -6.076625e-06 0)
(-9.985574e-05 -6.667472e-06 0)
(-9.612583e-05 -7.240831e-06 0)
(-9.210191e-05 -7.791281e-06 0)
(-8.779737e-05 -8.313415e-06 0)
(-8.32283e-05 -8.801872e-06 0)
(-7.841341e-05 -9.251404e-06 0)
(-7.337403e-05 -9.65694e-06 0)
(-6.813391e-05 -1.001368e-05 0)
(-6.271899e-05 -1.031719e-05 0)
(-5.715724e-05 -1.056354e-05 0)
(-5.147864e-05 -1.074928e-05 0)
(-4.571483e-05 -1.087149e-05 0)
(-3.989862e-05 -1.092793e-05 0)
(-3.406365e-05 -1.091703e-05 0)
(-2.824428e-05 -1.083799e-05 0)
(-2.247524e-05 -1.069077e-05 0)
(-1.679116e-05 -1.047608e-05 0)
(-1.122612e-05 -1.019549e-05 0)
(-5.813371e-06 -9.851371e-06 0)
(-5.851172e-07 -9.4468e-06 0)
(4.427916e-06 -8.985564e-06 0)
(9.197082e-06 -8.472162e-06 0)
(1.369601e-05 -7.911605e-06 0)
(1.790066e-05 -7.309292e-06 0)
(2.178968e-05 -6.670993e-06 0)
(2.53447e-05 -6.002784e-06 0)
(2.855039e-05 -5.310943e-06 0)
(3.139455e-05 -4.601863e-06 0)
(3.386805e-05 -3.881934e-06 0)
(3.5965e-05 -3.157422e-06 0)
(3.768275e-05 -2.434356e-06 0)
(3.902185e-05 -1.7185e-06 0)
(3.99858e-05 -1.015323e-06 0)
(4.058088e-05 -3.298794e-07 0)
(4.081606e-05 3.331338e-07 0)
(4.070286e-05 9.694785e-07 0)
(4.025515e-05 1.575344e-06 0)
(3.948887e-05 2.147237e-06 0)
(3.842181e-05 2.682023e-06 0)
(3.707348e-05 3.176808e-06 0)
(3.546529e-05 3.628784e-06 0)
(3.362041e-05 4.035146e-06 0)
(3.156368e-05 4.392949e-06 0)
(2.932183e-05 4.698808e-06 0)
(2.692361e-05 4.948736e-06 0)
(2.440013e-05 5.13798e-06 0)
(2.178516e-05 5.260625e-06 0)
(1.911562e-05 5.309412e-06 0)
(1.643183e-05 5.275711e-06 0)
(1.377804e-05 5.149426e-06 0)
(1.120275e-05 4.919287e-06 0)
(8.758575e-06 4.573681e-06 0)
(6.50162e-06 4.102173e-06 0)
(4.490505e-06 3.498462e-06 0)
(2.784004e-06 2.765817e-06 0)
(1.437457e-06 1.926969e-06 0)
(5.078624e-07 1.042455e-06 0)
(3.274394e-08 2.475247e-07 0)
(3.293833e-09 -2.372429e-07 0)
(-1.072801e-07 -1.727056e-07 0)
(-4.041679e-07 2.273788e-07 0)
(-9.367821e-07 8.278351e-07 0)
(-1.734252e-06 1.533439e-06 0)
(-2.811077e-06 2.275567e-06 0)
(-4.167061e-06 3.007656e-06 0)
(-5.793106e-06 3.699964e-06 0)
(-7.673295e-06 4.33541e-06 0)
(-9.786738e-06 4.905443e-06 0)
(-1.211027e-05 5.407145e-06 0)
(-1.461959e-05 5.842448e-06 0)
(-1.729089e-05 6.21596e-06 0)
(-2.010283e-05 6.533293e-06 0)
(-2.303607e-05 6.801023e-06 0)
(-2.607251e-05 7.026124e-06 0)
(-2.919651e-05 7.215664e-06 0)
(-3.239512e-05 7.376112e-06 0)
(-3.565732e-05 7.512826e-06 0)
(-3.897437e-05 7.630376e-06 0)
(-4.233914e-05 7.732825e-06 0)
(-4.574459e-05 7.823835e-06 0)
(-4.918521e-05 7.90626e-06 0)
(-5.265752e-05 7.981768e-06 0)
(-5.615834e-05 8.051151e-06 0)
(-5.968452e-05 8.115027e-06 0)
(-6.323283e-05 8.173859e-06 0)
(-6.67998e-05 8.227764e-06 0)
(-7.038223e-05 8.276325e-06 0)
(-7.397721e-05 8.31861e-06 0)
(-7.758148e-05 8.353508e-06 0)
(-8.119121e-05 8.37976e-06 0)
(-8.480207e-05 8.396215e-06 0)
(-8.840899e-05 8.401821e-06 0)
(-9.20061e-05 8.39524e-06 0)
(-9.55875e-05 8.374842e-06 0)
(-9.914729e-05 8.338928e-06 0)
(-0.0001026787 8.285903e-06 0)
(-0.0001061739 8.214127e-06 0)
(-0.0001096244 8.12182e-06 0)
(-0.0001130215 8.007238e-06 0)
(-0.0001163555 7.868712e-06 0)
(-0.0001196157 7.70459e-06 0)
(-0.0001227913 7.513106e-06 0)
(-0.0001258709 7.292337e-06 0)
(-0.0001288425 7.040395e-06 0)
(-0.0001316935 6.755553e-06 0)
(-0.0001344101 6.436185e-06 0)
(-0.0001369781 6.080742e-06 0)
(-0.0001393831 5.687825e-06 0)
(-0.00014161 5.256239e-06 0)
(-0.0001436431 4.784961e-06 0)
(-0.0001454669 4.273105e-06 0)
(-0.0001470655 3.719963e-06 0)
(-0.0001484231 3.125136e-06 0)
(-0.0001495239 2.488631e-06 0)
(-0.000150352 1.810876e-06 0)
(-0.0001508917 1.092611e-06 0)
(-0.000151128 3.349025e-07 0)
(-0.0001510463 -4.607138e-07 0)
(-0.0001506327 -1.29211e-06 0)
(-0.0001498746 -2.156536e-06 0)
(-0.0001487607 -3.050593e-06 0)
(-0.0001472811 -3.970207e-06 0)
(-0.0001454277 -4.910637e-06 0)
(-0.0001431943 -5.866465e-06 0)
(-0.0001405769 -6.831655e-06 0)
(-0.0001375737 -7.799615e-06 0)
(-0.0001341857 -8.763217e-06 0)
(-0.0001304168 -9.714909e-06 0)
(-0.0001262736 -1.064686e-05 0)
(-0.0001217655 -1.155096e-05 0)
(-0.0001169053 -1.24189e-05 0)
(-0.0001117088 -1.324233e-05 0)
(-0.000106195 -1.4013e-05 0)
(-0.0001003856 -1.472289e-05 0)
(-9.430549e-05 -1.53642e-05 0)
(-8.798251e-05 -1.592958e-05 0)
(-8.144687e-05 -1.641223e-05 0)
(-7.47312e-05 -1.680605e-05 0)
(-6.787041e-05 -1.710571e-05 0)
(-6.090139e-05 -1.730672e-05 0)
(-5.386239e-05 -1.740555e-05 0)
(-4.679283e-05 -1.739971e-05 0)
(-3.973301e-05 -1.728783e-05 0)
(-3.272367e-05 -1.706976e-05 0)
(-2.580552e-05 -1.674646e-05 0)
(-1.901887e-05 -1.632011e-05 0)
(-1.24032e-05 -1.579406e-05 0)
(-5.996809e-06 -1.517289e-05 0)
(1.635592e-07 -1.446223e-05 0)
(6.043212e-06 -1.36688e-05 0)
(1.161005e-05 -1.280015e-05 0)
(1.683479e-05 -1.186448e-05 0)
(2.169115e-05 -1.087054e-05 0)
(2.615608e-05 -9.827622e-06 0)
(3.021005e-05 -8.74536e-06 0)
(3.383712e-05 -7.633601e-06 0)
(3.702505e-05 -6.502217e-06 0)
(3.976535e-05 -5.360949e-06 0)
(4.205329e-05 -4.219257e-06 0)
(4.388787e-05 -3.086214e-06 0)
(4.527169e-05 -1.970547e-06 0)
(4.621079e-05 -8.804251e-07 0)
(4.671445e-05 1.765611e-07 0)
(4.679504e-05 1.193408e-06 0)
(4.646797e-05 2.16376e-06 0)
(4.575137e-05 3.081825e-06 0)
(4.466583e-05 3.942294e-06 0)
(4.323423e-05 4.740235e-06 0)
(4.148173e-05 5.470874e-06 0)
(3.943587e-05 6.129375e-06 0)
(3.712637e-05 6.710724e-06 0)
(3.458522e-05 7.209395e-06 0)
(3.184699e-05 7.618962e-06 0)
(2.894898e-05 7.931909e-06 0)
(2.593143e-05 8.139287e-06 0)
(2.283806e-05 8.230383e-06 0)
(1.971629e-05 8.192686e-06 0)
(1.661754e-05 8.012014e-06 0)
(1.359759e-05 7.67291e-06 0)
(1.071632e-05 7.159785e-06 0)
(8.037128e-06 6.459187e-06 0)
(5.625971e-06 5.563568e-06 0)
(3.549863e-06 4.477211e-06 0)
(1.87638e-06 3.225638e-06 0)
(6.871681e-07 1.872446e-06 0)
(5.037127e-08 5.495872e-07 0)
(-3.44547e-09 -1.635496e-07 0)
(-2.102121e-07 1.015241e-07 0)
(-6.942782e-07 7.512344e-07 0)
(-1.485328e-06 1.631539e-06 0)
(-2.597221e-06 2.633467e-06 0)
(-4.035501e-06 3.676859e-06 0)
(-5.794393e-06 4.704148e-06 0)
(-7.859773e-06 5.677007e-06 0)
(-1.021187e-05 6.572523e-06 0)
(-1.282722e-05 7.378832e-06 0)
(-1.567955e-05 8.09225e-06 0)
(-1.874216e-05 8.714848e-06 0)
(-2.198966e-05 9.251766e-06 0)
(-2.539825e-05 9.710116e-06 0)
(-2.894597e-05 1.009896e-05 0)
(-3.261281e-05 1.042793e-05 0)
(-3.638125e-05 1.07062e-05 0)
(-4.023666e-05 1.09422e-05 0)
(-4.416671e-05 1.114336e-05 0)
(-4.816102e-05 1.131616e-05 0)
(-5.221042e-05 1.146656e-05 0)
(-5.630653e-05 1.159965e-05 0)
(-6.04433e-05 1.171889e-05 0)
(-6.461638e-05 1.182636e-05 0)
(-6.882108e-05 1.192358e-05 0)
(-7.305287e-05 1.201184e-05 0)
(-7.730752e-05 1.209177e-05 0)
(-8.158074e-05 1.216325e-05 0)
(-8.586858e-05 1.222568e-05 0)
(-9.016724e-05 1.227784e-05 0)
(-9.447231e-05 1.231821e-05 0)
(-9.877879e-05 1.23453e-05 0)
(-0.0001030812 1.23576e-05 0)
(-0.0001073734 1.235344e-05 0)
(-0.0001116486 1.233084e-05 0)
(-0.0001158999 1.228758e-05 0)
(-0.00012012 1.222143e-05 0)
(-0.0001243009 1.213014e-05 0)
(-0.0001284335 1.201137e-05 0)
(-0.000132508 1.186268e-05 0)
(-0.000136514 1.168173e-05 0)
(-0.0001404403 1.146619e-05 0)
(-0.0001442749 1.121364e-05 0)
(-0.0001480053 1.092153e-05 0)
(-0.0001516185 1.058724e-05 0)
(-0.0001551008 1.020828e-05 0)
(-0.0001584374 9.782283e-06 0)
(-0.000161613 9.306969e-06 0)
(-0.0001646114 8.78022e-06 0)
(-0.000167416 8.200152e-06 0)
(-0.0001700098 7.565143e-06 0)
(-0.0001723753 6.873802e-06 0)
(-0.000174495 6.124941e-06 0)
(-0.0001763509 5.317698e-06 0)
(-0.0001779252 4.451728e-06 0)
(-0.0001792002 3.527185e-06 0)
(-0.0001801581 2.544697e-06 0)
(-0.0001807814 1.505433e-06 0)
(-0.0001810533 4.111041e-07 0)
(-0.0001809577 -7.360198e-07 0)
(-0.0001804793 -1.932869e-06 0)
(-0.0001796041 -3.175468e-06 0)
(-0.0001783197 -4.458965e-06 0)
(-0.0001766151 -5.777568e-06 0)
(-0.0001744814 -7.12453e-06 0)
(-0.000171912 -8.492198e-06 0)
(-0.0001689023 -9.87208e-06 0)
(-0.0001654506 -1.125492e-05 0)
(-0.000161558 -1.263077e-05 0)
(-0.0001572291 -1.398913e-05 0)
(-0.0001524711 -1.5319e-05 0)
(-0.0001472948 -1.660907e-05 0)
(-0.0001417142 -1.784782e-05 0)
(-0.0001357469 -1.902365e-05 0)
(-0.000129414 -2.012506e-05 0)
(-0.0001227397 -2.114083e-05 0)
(-0.0001157516 -2.206015e-05 0)
(-0.0001084804 -2.287279e-05 0)
(-0.0001009599 -2.356926e-05 0)
(-9.322624e-05 -2.414101e-05 0)
(-8.531834e-05 -2.458054e-05 0)
(-7.727722e-05 -2.488149e-05 0)
(-6.914562e-05 -2.503883e-05 0)
(-6.096761e-05 -2.504898e-05 0)
(-5.278837e-05 -2.490986e-05 0)
(-4.465376e-05 -2.462097e-05 0)
(-3.66097e-05 -2.418345e-05 0)
(-2.870177e-05 -2.360008e-05 0)
(-2.097486e-05 -2.287523e-05 0)
(-1.34727e-05 -2.201493e-05 0)
(-6.237413e-06 -2.102671e-05 0)
(6.910194e-07 -1.991954e-05 0)
(7.275107e-06 -1.870372e-05 0)
(1.348043e-05 -1.739058e-05 0)
(1.927588e-05 -1.599221e-05 0)
(2.463387e-05 -1.452145e-05 0)
(2.953069e-05 -1.299171e-05 0)
(3.394657e-05 -1.141666e-05 0)
(3.786581e-05 -9.810099e-06 0)
(4.127698e-05 -8.185753e-06 0)
(4.417294e-05 -6.557107e-06 0)
(4.655071e-05 -4.937131e-06 0)
(4.841138e-05 -3.338305e-06 0)
(4.976009e-05 -1.772524e-06 0)
(5.060579e-05 -2.509136e-07 0)
(5.096104e-05 1.216185e-06 0)
(5.084212e-05 2.619317e-06 0)
(5.026867e-05 3.949845e-06 0)
(4.926329e-05 5.199722e-06 0)
(4.785136e-05 6.361364e-06 0)
(4.606112e-05 7.427506e-06 0)
(4.392367e-05 8.390873e-06 0)
(4.147281e-05 9.243924e-06 0)
(3.874496e-05 9.978513e-06 0)
(3.577943e-05 1.058542e-05 0)
(3.261869e-05 1.105403e-05 0)
(2.930839e-05 1.137202e-05 0)
(2.58978e-05 1.152506e-05 0)
(2.244011e-05 1.149669e-05 0)
(1.899252e-05 1.126862e-05 0)
(1.561659e-05 1.082129e-05 0)
(1.23782e-05 1.013512e-05 0)
(9.3473e-06 9.193002e-06 0)
(6.59728e-06 7.984604e-06 0)
(4.204032e-06 6.51224e-06 0)
(2.24817e-06 4.799102e-06 0)
(8.357901e-07 2.902443e-06 0)
(6.384231e-08 9.364549e-07 0)
(-1.167042e-08 -3.311171e-08 0)
(-3.26446e-07 5.29669e-07 0)
(-1.012394e-06 1.507192e-06 0)
(-2.080921e-06 2.732475e-06 0)
(-3.528303e-06 4.084733e-06 0)
(-5.35033e-06 5.473462e-06 0)
(-7.533733e-06 6.833156e-06 0)
(-1.005824e-05 8.119265e-06 0)
(-1.289923e-05 9.303972e-06 0)
(-1.602911e-05 1.037318e-05 0)
(-1.941884e-05 1.132249e-05 0)
(-2.303972e-05 1.215361e-05 0)
(-2.686438e-05 1.287282e-05 0)
(-3.086683e-05 1.348963e-05 0)
(-3.502292e-05 1.401535e-05 0)
(-3.931101e-05 1.446192e-05 0)
(-4.371249e-05 1.484095e-05 0)
(-4.821149e-05 1.516292e-05 0)
(-5.279404e-05 1.543739e-05 0)
(-5.744798e-05 1.567329e-05 0)
(-6.216285e-05 1.587839e-05 0)
(-6.692957e-05 1.605871e-05 0)
(-7.174137e-05 1.621843e-05 0)
(-7.659265e-05 1.63607e-05 0)
(-8.147727e-05 1.64879e-05 0)
(-8.638955e-05 1.660158e-05 0)
(-9.132447e-05 1.670251e-05 0)
(-9.62769e-05 1.679051e-05 0)
(-0.000101242 1.68647e-05 0)
(-0.0001062152 1.69236e-05 0)
(-0.0001111909 1.69654e-05 0)
(-0.000116163 1.698831e-05 0)
(-0.0001211249 1.699042e-05 0)
(-0.0001260697 1.69694e-05 0)
(-0.0001309899 1.692258e-05 0)
(-0.0001358774 1.684714e-05 0)
(-0.0001407238 1.674027e-05 0)
(-0.0001455202 1.659903e-05 0)
(-0.0001502563 1.642035e-05 0)
(-0.000154921 1.620112e-05 0)
(-0.0001595027 1.593834e-05 0)
(-0.0001639891 1.562889e-05 0)
(-0.0001683669 1.526951e-05 0)
(-0.0001726225 1.485686e-05 0)
(-0.0001767414 1.438763e-05 0)
(-0.0001807082 1.385862e-05 0)
(-0.0001845069 1.326673e-05 0)
(-0.0001881205 1.2609e-05 0)
(-0.0001915311 1.188274e-05 0)
(-0.0001947206 1.108556e-05 0)
(-0.0001976704 1.021532e-05 0)
(-0.0002003613 9.270241e-06 0)
(-0.000202774 8.248899e-06 0)
(-0.0002048892 7.15033e-06 0)
(-0.000206687 5.974172e-06 0)
(-0.0002081482 4.720765e-06 0)
(-0.0002092534 3.391097e-06 0)
(-0.0002099835 1.986827e-06 0)
(-0.0002103202 5.10356e-07 0)
(-0.0002102461 -1.035198e-06 0)
(-0.0002097446 -2.645742e-06 0)
(-0.0002088004 -4.315957e-06 0)
(-0.0002074 -6.039348e-06 0)
(-0.0002055315 -7.80826e-06 0)
(-0.0002031851 -9.613794e-06 0)
(-0.0002003533 -1.144583e-05 0)
(-0.0001970311 -1.329318e-05 0)
(-0.0001932164 -1.514372e-05 0)
(-0.0001889104 -1.698445e-05 0)
(-0.0001841175 -1.88016e-05 0)
(-0.0001788455 -2.058082e-05 0)
(-0.0001731056 -2.230729e-05 0)
(-0.0001669128 -2.396594e-05 0)
(-0.0001602859 -2.554166e-05 0)
(-0.0001532472 -2.701941e-05 0)
(-0.0001458227 -2.83845e-05 0)
(-0.000138042 -2.962278e-05 0)
(-0.000129938 -3.072084e-05 0)
(-0.0001215471 -3.166624e-05 0)
(-0.0001129082 -3.244766e-05 0)
(-0.0001040634 -3.305515e-05 0)
(-9.50571e-05 -3.348026e-05 0)
(-8.593569e-05 -3.371622e-05 0)
(-7.674723e-05 -3.375809e-05 0)
(-6.754105e-05 -3.360289e-05 0)
(-5.836736e-05 -3.324967e-05 0)
(-4.927669e-05 -3.269952e-05 0)
(-4.031938e-05 -3.195569e-05 0)
(-3.154517e-05 -3.102356e-05 0)
(-2.300279e-05 -2.991053e-05 0)
(-1.473934e-05 -2.862602e-05 0)
(-6.799845e-06 -2.718128e-05 0)
(7.732705e-07 -2.558934e-05 0)
(7.940492e-06 -2.386481e-05 0)
(1.466582e-05 -2.202345e-05 0)
(2.091704e-05 -2.008188e-05 0)
(2.666608e-05 -1.80575e-05 0)
(3.188918e-05 -1.596824e-05 0)
(3.656699e-05 -1.38323e-05 0)
(4.068474e-05 -1.16678e-05 0)
(4.423245e-05 -9.492645e-06 0)
(4.720477e-05 -7.324275e-06 0)
(4.960083e-05 -5.179467e-06 0)
(5.142433e-05 -3.074321e-06 0)
(5.26834e-05 -1.024038e-06 0)
(5.339031e-05 9.571583e-07 0)
(5.356151e-05 2.856091e-06 0)
(5.321751e-05 4.660652e-06 0)
(5.238228e-05 6.359547e-06 0)
(5.108318e-05 7.942078e-06 0)
(4.935091e-05 9.398002e-06 0)
(4.721945e-05 1.071714e-05 0)
(4.472589e-05 1.188897e-05 0)
(4.191033e-05 1.290232e-05 0)
(3.881611e-05 1.374488e-05 0)
(3.548997e-05 1.440271e-05 0)
(3.19821e-05 1.485991e-05 0)
(2.834643e-05 1.509831e-05 0)
(2.464095e-05 1.509746e-05 0)
(2.092784e-05 1.483485e-05 0)
(1.727364e-05 1.428663e-05 0)
(1.374951e-05 1.342897e-05 0)
(1.043156e-05 1.224039e-05 0)
(7.400847e-06 1.070581e-05 0)
(4.742896e-06 8.822064e-06 0)
(2.551487e-06 6.604983e-06 0)
(9.546372e-07 4.098597e-06 0)
(7.387238e-08 1.391389e-06 0)
(-2.102288e-08 1.587986e-07 0)
(-4.510962e-07 1.121261e-06 0)
(-1.347864e-06 2.509452e-06 0)
(-2.706148e-06 4.14762e-06 0)
(-4.504934e-06 5.905225e-06 0)
(-6.727666e-06 7.684134e-06 0)
(-9.352086e-06 9.413008e-06 0)
(-1.235117e-05 1.10429e-05 0)
(-1.569432e-05 1.254351e-05 0)
(-1.934931e-05 1.389898e-05 0)
(-2.328433e-05 1.510418e-05 0)
(-2.746834e-05 1.616146e-05 0)
(-3.187137e-05 1.707888e-05 0)
(-3.646539e-05 1.786835e-05 0)
(-4.122484e-05 1.85436e-05 0)
(-4.612682e-05 1.911887e-05 0)
(-5.115159e-05 1.960806e-05 0)
(-5.628214e-05 2.002417e-05 0)
(-6.150291e-05 2.037935e-05 0)
(-6.680037e-05 2.068473e-05 0)
(-7.216334e-05 2.094948e-05 0)
(-7.758224e-05 2.118063e-05 0)
(-8.304923e-05 2.138355e-05 0)
(-8.855737e-05 2.156247e-05 0)
(-9.409953e-05 2.172052e-05 0)
(-9.966902e-05 2.185953e-05 0)
(-0.00010526 2.198037e-05 0)
(-0.0001108666 2.208287e-05 0)
(-0.0001164834 2.216582e-05 0)
(-0.0001221047 2.222748e-05 0)
(-0.000127724 2.226594e-05 0)
(-0.0001333339 2.227909e-05 0)
(-0.0001389273 2.226446e-05 0)
(-0.0001444967 2.221902e-05 0)
(-0.0001500336 2.213948e-05 0)
(-0.0001555293 2.202249e-05 0)
(-0.0001609744 2.186456e-05 0)
(-0.0001663591 2.166202e-05 0)
(-0.0001716723 2.141111e-05 0)
(-0.0001769019 2.110804e-05 0)
(-0.0001820353 2.074901e-05 0)
(-0.0001870594 2.033007e-05 0)
(-0.00019196 1.984711e-05 0)
(-0.0001967224 1.929599e-05 0)
(-0.0002013309 1.867262e-05 0)
(-0.0002057692 1.797303e-05 0)
(-0.0002100198 1.719336e-05 0)