/*--------------------------------*- C++ -*----------------------------------*\
  =========                 |
  \\      /  F ield         | OpenFOAM: The Open Source CFD Toolbox
   \\    /   O peration     | Website:  https://openfoam.org
    \\  /    A nd           | Version:  10
     \\/     M anipulation  |
\*---------------------------------------------------------------------------*/
FoamFile
{
    format      ascii;
    class       volScalarField;
    location    "0.900622";
    object      T;
}
// * * * * * * * * * * * * * * * * * * * * * * * * * * * * * * * * * * * * * //

dimensions      [0 0 0 1 0 0 0];

internalField   nonuniform List<scalar> 
16320
(
0.0068905
0.00750968
0.00829652
0.00938871
0.0100865
0.0101691
0.0095219
0.00718802
0.00505814
0.00464211
0.00477623
0.00571033
0.00781719
0.0108374
0.0120578
0.0122074
0.0121122
0.0117098
0.0109487
0.0100277
0.00940326
0.00904598
0.00885373
0.00874228
0.00870283
0.00866146
0.00863298
0.00862425
0.00861802
0.00860123
0.0085936
0.00857676
0.00856001
0.00852258
0.00844048
0.00837153
0.00800475
0.00775349
0.00750531
0.00719515
0.00711498
0.00673028
0.00664449
0.0062867
0.00656437
0.00558409
0.00505135
0.00429759
0.00356395
0.00291584
0.00237107
0.00203496
0.00185831
0.00181059
0.001829
0.00196681
0.00243422
0.00328754
0.00398907
0.00439589
0.00464823
0.00514447
0.00617114
0.00698556
0.0071965
0.0071896
0.00723152
0.00753141
0.00776493
0.00772222
0.00738996
0.00704924
0.00686016
0.00656579
0.00601146
0.00530758
0.00476369
0.00449183
0.00444418
0.00457349
0.00511708
0.00644959
0.00839457
0.0100588
0.0110506
0.0111578
0.0104673
0.00845685
0.00553595
0.00394934
0.00317681
0.0028744
0.00269675
0.00252738
0.00245597
0.00245836
0.00247294
0.00250679
0.00264039
0.00310402
0.00313986
0.00288386
0.00279555
0.00333446
0.00499576
0.00553398
0.00461984
0.00358457
0.00349315
0.00373982
0.00386012
0.00379395
0.00354832
0.00688542
0.00744499
0.00809594
0.00883826
0.00977894
0.0101813
0.0101034
0.0090162
0.00633099
0.00484745
0.00466283
0.00498953
0.00630483
0.00888104
0.0115147
0.0122314
0.0123278
0.0122372
0.0119135
0.0113513
0.0106056
0.00991295
0.00941746
0.00907687
0.00890042
0.00874564
0.00863258
0.00852569
0.00837905
0.00818741
0.00800116
0.00779912
0.00756702
0.00732267
0.00706418
0.00681176
0.00643007
0.00614095
0.00585969
0.005566
0.00534058
0.00512079
0.00497113
0.00465217
0.00456915
0.00471369
0.00440298
0.00410933
0.00350779
0.00290817
0.00239329
0.00205377
0.00185561
0.00177351
0.00176928
0.00182482
0.0020662
0.00272168
0.00351328
0.00393775
0.00415118
0.00458616
0.0056157
0.00664422
0.00702764
0.00710044
0.00720363
0.00756903
0.00781757
0.00777517
0.00751149
0.00745199
0.00764337
0.00770024
0.00749625
0.00675726
0.00579894
0.00518405
0.00490845
0.00487041
0.00505384
0.00561067
0.00673395
0.00819827
0.00965777
0.010579
0.0105723
0.0095278
0.00724282
0.00496793
0.00374239
0.00315945
0.00295461
0.00274377
0.00255419
0.00247993
0.00247375
0.00248656
0.00253343
0.00270373
0.00302013
0.0028682
0.00270581
0.00304174
0.00442846
0.0055513
0.00494474
0.00369972
0.00357714
0.00391788
0.00407153
0.00396902
0.0036606
0.00682444
0.00727344
0.00782755
0.00847648
0.00924845
0.00991267
0.0100383
0.00952096
0.00761873
0.0054103
0.00475494
0.0047897
0.00558398
0.00760827
0.0107026
0.0121618
0.0124846
0.0125374
0.0124754
0.0122764
0.0119494
0.0115379
0.0110342
0.0104543
0.00997842
0.00947786
0.00910725
0.0088286
0.00855248
0.00826343
0.00800485
0.00771846
0.00737585
0.00702421
0.00662875
0.00626657
0.00582797
0.00546011
0.005125
0.00478822
0.00448217
0.00422605
0.00402012
0.00374794
0.00358801
0.00357686
0.00349844
0.00340493
0.00325189
0.00282069
0.00237352
0.00204708
0.00184772
0.00173953
0.0017112
0.00172888
0.00184304
0.00223431
0.00295279
0.00335897
0.00357266
0.004024
0.0051082
0.00631041
0.00686159
0.00700297
0.00717281
0.00762559
0.00787639
0.00783694
0.00773497
0.00781577
0.0080537
0.00815934
0.00814232
0.00795193
0.007275
0.00623728
0.00555799
0.00526285
0.00521896
0.00539312
0.00581597
0.00654308
0.00777514
0.00915453
0.00981237
0.00956736
0.00794516
0.00565632
0.0042423
0.0035059
0.00317185
0.00301507
0.00276139
0.00256437
0.00249534
0.00249205
0.00250898
0.00257612
0.00277953
0.00277649
0.00264728
0.00287799
0.00399939
0.00550338
0.00523387
0.00380253
0.00363961
0.00405841
0.00427624
0.00417923
0.00382005
0.00661415
0.00682135
0.00722917
0.00787869
0.00882829
0.0095299
0.00969457
0.0093639
0.00769575
0.00558819
0.0048778
0.00480404
0.00533857
0.00699721
0.00980513
0.0118999
0.012567
0.0127631
0.0128078
0.0127833
0.0126898
0.0125328
0.0123121
0.0120079
0.0116831
0.0112329
0.0107061
0.010175
0.00958496
0.00898236
0.00847943
0.00802286
0.00755269
0.00711558
0.00665231
0.00623398
0.00574691
0.00531934
0.0049347
0.00454173
0.00417515
0.00385876
0.00358632
0.00330567
0.00309079
0.00296067
0.00287773
0.00281847
0.00272562
0.00258553
0.00229808
0.00201055
0.00182041
0.00169745
0.00164767
0.00164761
0.0016936
0.00191202
0.00241808
0.00276267
0.00299667
0.00350077
0.00467462
0.00600944
0.00669964
0.00691166
0.00715565
0.0076847
0.00793938
0.00794718
0.00798196
0.00806115
0.00818979
0.00826948
0.00828641
0.00825396
0.0080983
0.00751305
0.00650799
0.00582287
0.00551909
0.00545895
0.00556834
0.00583066
0.00648967
0.00769771
0.00853982
0.00872838
0.00799267
0.0058396
0.00440723
0.00368315
0.00333261
0.00319867
0.00303036
0.00273937
0.00256295
0.00251
0.00251338
0.00254233
0.002657
0.00266328
0.00261761
0.00280634
0.0036869
0.0054852
0.00542167
0.00388972
0.00369452
0.00417014
0.00440428
0.00431694
0.00393991
0.00641629
0.0064187
0.00654475
0.00709432
0.00812489
0.00880311
0.00896223
0.00875928
0.00733921
0.00551113
0.00493082
0.00487692
0.00535455
0.00697312
0.00968321
0.0118656
0.0126544
0.0129249
0.013017
0.0130349
0.0130182
0.0129671
0.0128828
0.0127523
0.0125876
0.0123582
0.0120669
0.0117241
0.0112998
0.0107212
0.0100687
0.00935642
0.00854871
0.00782241
0.00711663
0.00653553
0.00593489
0.00542397
0.00498392
0.0045507
0.0041463
0.00379185
0.00346596
0.00315603
0.00289513
0.00269512
0.00255199
0.00246343
0.00237702
0.00229385
0.00212718
0.00192022
0.0017653
0.0016499
0.00158949
0.00157414
0.00159183
0.00170775
0.00202053
0.00228765
0.00253934
0.0030872
0.00433414
0.00577087
0.00655865
0.00682725
0.00717455
0.00773184
0.00801208
0.00811216
0.00813985
0.00817566
0.00822994
0.00828691
0.00830134
0.00829819
0.00824502
0.0080821
0.00750585
0.00656888
0.00592326
0.00562466
0.00556984
0.00567216
0.00600423
0.0068465
0.00748852
0.00760958
0.00732339
0.00580959
0.00442668
0.00372568
0.00342507
0.00328614
0.00320166
0.00298161
0.00268649
0.00255474
0.00252835
0.00253992
0.00260838
0.00262051
0.00260481
0.0027823
0.00356366
0.00548035
0.00552272
0.00394496
0.00373846
0.004277
0.00448758
0.00439975
0.00403264
0.00635835
0.00626614
0.00616524
0.00624774
0.00676213
0.00739465
0.00756132
0.00741493
0.00630941
0.0052512
0.00498693
0.00499173
0.00549415
0.00709464
0.00981192
0.0119556
0.0127397
0.0129959
0.0130922
0.0131221
0.0131241
0.0131144
0.0130851
0.013029
0.0129463
0.0128286
0.0126717
0.012468
0.0122199
0.011861
0.0114574
0.0109883
0.0103133
0.00960079
0.00868062
0.00781573
0.00686873
0.00607059
0.00541347
0.00481019
0.00429123
0.00386481
0.00349108
0.00315349
0.00286484
0.00262343
0.00243202
0.00229752
0.00218438
0.00210757
0.00198435
0.00182446
0.00169953
0.00160349
0.00154224
0.00151703
0.00152264
0.00158278
0.00176202
0.00196427
0.00222588
0.00280753
0.0041131
0.00563479
0.00647615
0.0067825
0.00721142
0.00778616
0.00813176
0.00823497
0.00823901
0.0082305
0.00823814
0.00827048
0.00827459
0.00826591
0.0082469
0.00815786
0.00791799
0.00726303
0.00641629
0.00583787
0.00565439
0.00566599
0.00589924
0.00646302
0.00676152
0.0067051
0.00629364
0.00520363
0.00425949
0.00371038
0.00346258
0.00336238
0.00329975
0.00317811
0.00285322
0.00262693
0.00255168
0.00255425
0.00259424
0.00260222
0.00260157
0.00279034
0.00350798
0.0055055
0.00554647
0.00397695
0.00378321
0.00437531
0.00454653
0.00446019
0.00415483
0.00635124
0.00624346
0.0059928
0.00589577
0.00590583
0.00604293
0.00610481
0.00603207
0.00549271
0.00514991
0.0050864
0.00519886
0.00583621
0.00744548
0.0102053
0.0121334
0.0127609
0.0129819
0.0130889
0.0131674
0.0132154
0.0132193
0.0132058
0.0131756
0.0131263
0.0130575
0.0129656
0.01284
0.0126868
0.0124618
0.0121994
0.0119016
0.011405
0.0109448
0.0102405
0.0095839
0.00873927
0.00777703
0.00683831
0.00586025
0.0049848
0.00430141
0.00373974
0.00327777
0.00291748
0.00263638
0.00242181
0.00225152
0.00210883
0.00200811
0.00188983
0.00174735
0.00164279
0.00155854
0.00150229
0.0014708
0.00147126
0.00149941
0.00159997
0.00175742
0.0020414
0.00266912
0.00405053
0.00559531
0.00644325
0.00676634
0.00726791
0.00787482
0.00820635
0.00827949
0.00826979
0.00824175
0.00822595
0.00818581
0.00814684
0.00811764
0.00810731
0.00809013
0.00797167
0.0075751
0.00666264
0.00597995
0.00573676
0.00573156
0.00588453
0.0062084
0.00618319
0.00594122
0.00518409
0.00435112
0.00389227
0.00361873
0.00347424
0.00341656
0.00337554
0.00329232
0.00301102
0.00270363
0.00257924
0.00257292
0.00259536
0.00259723
0.00261605
0.002887
0.00355222
0.0056462
0.00554664
0.00398689
0.0038329
0.00446572
0.00460445
0.00453178
0.00432664
0.00637149
0.00628358
0.00600357
0.00578647
0.00570008
0.00564951
0.00557165
0.00544041
0.00528354
0.00522718
0.00524337
0.00551881
0.00638359
0.00819105
0.0108744
0.0122373
0.0127076
0.0129119
0.0130471
0.0132071
0.0132573
0.0132643
0.0132566
0.013236
0.0132012
0.0131564
0.0131035
0.013038
0.0129577
0.0128411
0.0126907
0.0125103
0.0121658
0.0118607
0.0113042
0.0107671
0.0100861
0.00927321
0.00851334
0.00762055
0.00664844
0.00562821
0.00464681
0.00382413
0.0032173
0.00277731
0.00247619
0.0022657
0.0021014
0.00197439
0.00183838
0.00169571
0.00159441
0.00151891
0.00146591
0.00143505
0.00143186
0.00145195
0.0015135
0.00166804
0.0019582
0.00265236
0.00411884
0.00567007
0.00646234
0.00679267
0.00737392
0.00796422
0.00823233
0.00828756
0.00827386
0.0082371
0.00815296
0.00802656
0.00790419
0.00784734
0.00784916
0.00789389
0.00787565
0.00760793
0.00671788
0.00600431
0.00577001
0.005755
0.00588073
0.00587006
0.00566259
0.00507113
0.0042426
0.00386908
0.00366706
0.00355389
0.00348152
0.00345362
0.00343266
0.00337636
0.00313262
0.0027647
0.00260974
0.00259229
0.002602
0.00260107
0.00266764
0.00302768
0.00378357
0.00588701
0.00541661
0.00397736
0.00388675
0.00454234
0.0046522
0.00460439
0.00457753
0.0064326
0.00642482
0.00615597
0.00583902
0.00570386
0.00564359
0.00556883
0.00547555
0.00543838
0.00544113
0.00561355
0.00614809
0.00721524
0.00901006
0.0111493
0.0121476
0.012538
0.0127244
0.0130026
0.0131381
0.0131883
0.013213
0.0132185
0.0132077
0.013181
0.0131407
0.0130972
0.013052
0.0130035
0.0129422
0.0128734
0.0127923
0.0126387
0.012492
0.0121654
0.0117851
0.0112492
0.0105034
0.00977521
0.00891922
0.0080385
0.00720839
0.00625413
0.00517705
0.00414743
0.00329634
0.00273857
0.00238069
0.0021418
0.00198185
0.00182744
0.00167482
0.00156626
0.00149236
0.00144412
0.00141641
0.0014167
0.00143395
0.00150028
0.00163481
0.00198782
0.00271778
0.00437284
0.00587854
0.00654723
0.0068761
0.00750904
0.00802115
0.00823574
0.00827128
0.00824983
0.00816427
0.0079729
0.0077364
0.00758971
0.00751232
0.00757644
0.00770655
0.00770375
0.00747811
0.00661796
0.00596072
0.00575634
0.00572125
0.00566875
0.00543063
0.00488963
0.00411828
0.00380656
0.00365545
0.00357139
0.00352602
0.00349046
0.00349538
0.00349171
0.00344509
0.003194
0.00278609
0.00262474
0.00260692
0.0026118
0.002624
0.00277814
0.00319106
0.0040685
0.00598152
0.00520872
0.00394439
0.00394725
0.00462855
0.00473451
0.00474587
0.00484259
0.00646672
0.00655744
0.00653036
0.00616453
0.00591254
0.00583727
0.0058149
0.005811
0.00585898
0.00597809
0.00627335
0.0069122
0.00796554
0.00939528
0.0109075
0.011807
0.0122116
0.0125128
0.012643
0.01269
0.0127174
0.0127893
0.0128324
0.0128162
0.0125906
0.0122472
0.0121068
0.0121932
0.0123511
0.0124658
0.0125805
0.0126519
0.0126271
0.0125802
0.0124831
0.0123317
0.0120961
0.0115989
0.0110319
0.0102213
0.00922988
0.00833913
0.00751827
0.00652805
0.00545695
0.00441544
0.00347252
0.0027729
0.00232769
0.00205777
0.00185185
0.00167984
0.00156275
0.00148759
0.00144009
0.00141723
0.00141645
0.00144117
0.00149394
0.00169133
0.00200916
0.00305998
0.00492442
0.00620469
0.00666292
0.00701615
0.0076256
0.00804747
0.00819851
0.00820605
0.00815308
0.00796659
0.0076151
0.00734289
0.00718501
0.00723263
0.00747433
0.00758992
0.00753987
0.00715352
0.00625096
0.00580755
0.00565772
0.00552217
0.00519511
0.00462388
0.00396018
0.00367726
0.00358989
0.00353755
0.0035082
0.00349299
0.00348601
0.00352017
0.00353981
0.00348589
0.00318411
0.00277378
0.00263635
0.00262504
0.00263304
0.00268572
0.00299304
0.00340065
0.00459898
0.00601131
0.00496051
0.00392318
0.00402146
0.00470641
0.00482681
0.00487914
0.00514998
0.00621003
0.00659065
0.00668725
0.00668243
0.00635676
0.00607709
0.00601467
0.00602169
0.00618568
0.00648461
0.00683384
0.00739017
0.00822638
0.00926173
0.0103718
0.0112577
0.0115968
0.0116722
0.0115228
0.011085
0.0104726
0.00938001
0.00756282
0.00652394
0.00608382
0.00581362
0.0057746
0.0061706
0.00692328
0.00781737
0.00890517
0.0101808
0.0113404
0.0119997
0.0122758
0.0123104
0.0122545
0.012105
0.0118586
0.0113705
0.0105865
0.00956235
0.00856435
0.00761804
0.00655789
0.00549156
0.00444599
0.00355844
0.00282719
0.0023129
0.00197222
0.00172603
0.00158247
0.00149751
0.00145068
0.00142918
0.00143699
0.00144871
0.00156416
0.00171166
0.00239563
0.00376273
0.00564031
0.00651604
0.00678225
0.00714818
0.0077086
0.008026
0.00809335
0.00806706
0.0079214
0.00751383
0.00710584
0.00685758
0.00685684
0.00712991
0.00744575
0.00747368
0.00727751
0.00650797
0.00581645
0.00557866
0.00538553
0.00498253
0.00437192
0.00379099
0.00353312
0.00345829
0.00343229
0.00340402
0.00340882
0.00342417
0.00345391
0.0035319
0.00355592
0.00348016
0.00309591
0.00272857
0.00264015
0.00264093
0.00267335
0.00281972
0.00322187
0.00368061
0.00528807
0.00600358
0.00464161
0.00385755
0.00412701
0.00480102
0.00493151
0.00502433
0.00544177
0.00544274
0.00613968
0.00666286
0.00684603
0.00689231
0.00680217
0.00642349
0.0062865
0.00627311
0.00646668
0.0069477
0.00746007
0.00811647
0.00901509
0.0100048
0.0104134
0.0104436
0.00984713
0.00804376
0.00572134
0.00450132
0.00401724
0.00382016
0.00374372
0.00375111
0.00391055
0.0041833
0.00446465
0.00488975
0.00530261
0.00565229
0.00614726
0.00702986
0.0084372
0.0102059
0.011491
0.0119721
0.0120598
0.0119991
0.0118499
0.0115103
0.0108237
0.00983541
0.00871295
0.00759288
0.00649763
0.00540297
0.0043756
0.00350685
0.0028254
0.00226683
0.00187374
0.0016532
0.00154888
0.00149392
0.0014864
0.00148414
0.00155868
0.00161962
0.002109
0.00297855
0.00500688
0.00632449
0.00671214
0.00686814
0.00725351
0.00774823
0.00794656
0.00794863
0.00784354
0.0074517
0.00685799
0.00653134
0.00648685
0.0066976
0.00715403
0.00733942
0.00723244
0.00667237
0.00575098
0.00545663
0.00525266
0.00480673
0.0041399
0.00363965
0.00341164
0.00332874
0.00328849
0.00321643
0.00319337
0.00324025
0.00333158
0.00343998
0.00353851
0.00354606
0.00339063
0.0029115
0.00268986
0.00265553
0.00267324
0.00275772
0.00305743
0.00337701
0.00417914
0.0056607
0.00586494
0.00435329
0.003809
0.00426427
0.00491973
0.00505179
0.00516878
0.00565299
0.00460836
0.00512327
0.00577046
0.00655809
0.00697281
0.00717899
0.00724457
0.00725145
0.00691273
0.00679538
0.0068191
0.00729619
0.00805211
0.00888811
0.00938428
0.00941152
0.00853913
0.0060972
0.00419035
0.00354083
0.00335381
0.00331794
0.00338766
0.00364156
0.00394003
0.00437383
0.0049084
0.00515601
0.0053599
0.0055036
0.00557053
0.00564611
0.005817
0.00617614
0.00688065
0.00821669
0.0100565
0.011388
0.0118078
0.0118279
0.0117512
0.0115053
0.0109692
0.00997492
0.00872717
0.0075549
0.00642482
0.00528728
0.00427192
0.00343935
0.00272826
0.00216209
0.00184591
0.00168312
0.00163702
0.0016163
0.00167472
0.00168766
0.00208956
0.00268001
0.00454598
0.00615612
0.00669144
0.00677395
0.00690346
0.00732248
0.00775792
0.0078558
0.00778255
0.00742403
0.00664483
0.00617992
0.00610763
0.00622402
0.00668706
0.00711668
0.007084
0.00666044
0.00569836
0.00532706
0.00515546
0.00467713
0.00395864
0.00352973
0.00332291
0.00322629
0.0031232
0.00301399
0.00298266
0.00303519
0.0031504
0.00330676
0.00345392
0.00352277
0.00346962
0.00317101
0.00278582
0.00268739
0.00268078
0.00273029
0.00293254
0.00334165
0.00366473
0.00499622
0.00574719
0.0055434
0.00410903
0.00379638
0.00441406
0.00508716
0.00523401
0.00535013
0.00580003
0.00385595
0.0041746
0.00467289
0.00522991
0.00595257
0.0066689
0.0072584
0.00777282
0.0081498
0.00830194
0.00824645
0.00809586
0.00830171
0.00887858
0.00895485
0.00828277
0.00604957
0.00403629
0.00339178
0.00325697
0.00325691
0.00341999
0.00381974
0.00464783
0.00558111
0.00599591
0.00618063
0.00621472
0.00619394
0.00607454
0.00598893
0.00591561
0.00588086
0.00591239
0.00604415
0.00640025
0.00716645
0.00873261
0.0106983
0.0115052
0.0116856
0.011629
0.0114471
0.0109755
0.00998947
0.00875695
0.00758966
0.00637491
0.00524873
0.00428383
0.00341052
0.00270048
0.00222262
0.00201645
0.00193674
0.0019778
0.0019704
0.00233277
0.00282659
0.00446083
0.00610483
0.00673717
0.00674537
0.00673775
0.0068819
0.00742867
0.00774581
0.0077174
0.00739436
0.00648174
0.00584784
0.00571234
0.00576749
0.00613346
0.00673724
0.00685226
0.00656961
0.00565032
0.00525543
0.00510062
0.00465657
0.00381233
0.00348477
0.00328194
0.00315661
0.00298335
0.00286671
0.00286524
0.00291778
0.00300767
0.00314881
0.00334129
0.00344894
0.00345837
0.00328238
0.0028951
0.00272658
0.00269877
0.00272609
0.00287225
0.00323306
0.00353038
0.00435318
0.00538381
0.0057297
0.00506959
0.00392981
0.00380103
0.00450528
0.00531696
0.00555054
0.00569815
0.00605462
0.00352801
0.00343476
0.00365848
0.00428053
0.00493754
0.0053953
0.00594453
0.00649202
0.00745704
0.00884792
0.00956558
0.00976323
0.00972663
0.00943207
0.00865136
0.0068185
0.00442869
0.00349481
0.00328612
0.00327722
0.00346542
0.00410771
0.00532263
0.00586138
0.00599594
0.00600008
0.00579503
0.00556616
0.00554301
0.00561816
0.00579069
0.00591705
0.00597752
0.00597454
0.00596599
0.00597151
0.00614908
0.00673495
0.00802887
0.0103558
0.0113406
0.0115654
0.0115446
0.011405
0.0109604
0.00999442
0.00890209
0.00769688
0.0065464
0.00549803
0.00448112
0.00362536
0.00303845
0.00272169
0.00266767
0.00267887
0.00295997
0.00345977
0.00482873
0.00625117
0.00686651
0.00681153
0.00662262
0.00663025
0.00696003
0.0075688
0.00763858
0.00736976
0.00638908
0.00555452
0.00534159
0.00535235
0.00552943
0.00614645
0.00649703
0.00634683
0.00560679
0.00518097
0.00505809
0.00473394
0.00383342
0.00338669
0.00329749
0.0031239
0.00290219
0.00276956
0.00278371
0.00284336
0.00292673
0.00305613
0.00323399
0.00335842
0.00338192
0.00328785
0.00295775
0.00276362
0.00272428
0.00273487
0.0028468
0.00316511
0.00351903
0.00398578
0.00504664
0.00544808
0.00552681
0.00454638
0.00380777
0.00381917
0.00456116
0.00550057
0.00596898
0.00643769
0.00667249
0.00348449
0.00317162
0.00304532
0.00314897
0.00367803
0.00473309
0.00538571
0.00574471
0.00611809
0.00664251
0.00835943
0.00975368
0.00993167
0.0094736
0.00792162
0.00534613
0.00379065
0.00335921
0.00329941
0.00343092
0.00405017
0.00522195
0.0057383
0.00583272
0.00576895
0.00527441
0.00481896
0.00470978
0.00470289
0.00476723
0.00497266
0.00535825
0.00576101
0.00589693
0.00589883
0.00583137
0.00585334
0.00611265
0.00669953
0.00800481
0.0103012
0.0112673
0.011507
0.011501
0.011374
0.010946
0.0100982
0.00908057
0.00804891
0.00702587
0.00597281
0.00505969
0.00444025
0.00417347
0.00415501
0.00427254
0.00470793
0.00562347
0.0066138
0.00705419
0.00694994
0.00659502
0.006453
0.00659211
0.00725587
0.00757171
0.00736713
0.0063633
0.00533983
0.00501467
0.00494822
0.00499922
0.00537286
0.006016
0.00597268
0.00554481
0.00503765
0.00502471
0.00485397
0.00402286
0.0033199
0.00325063
0.00318675
0.00287895
0.00270845
0.00271525
0.00278194
0.00289433
0.00303897
0.00317404
0.00327183
0.00329187
0.00321974
0.00295795
0.00277968
0.00274348
0.00275201
0.00285524
0.00313712
0.00351152
0.00389179
0.00479181
0.00517173
0.00536616
0.00515582
0.00413691
0.00373034
0.00384761
0.00460949
0.00548511
0.00618607
0.006851
0.00707668
0.00337228
0.00318242
0.00284674
0.00272344
0.00276719
0.00318834
0.00442003
0.0054452
0.00582912
0.00600626
0.00646769
0.00828538
0.00930804
0.00902251
0.006896
0.00441193
0.00348194
0.00328759
0.00330791
0.00366946
0.00461085
0.00545774
0.0056515
0.00562772
0.00524105
0.00464422
0.00440388
0.00435549
0.00435777
0.00442552
0.00454887
0.00468394
0.00490644
0.00525017
0.00543286
0.00544549
0.00531968
0.00524711
0.0055051
0.00621441
0.00781303
0.0103113
0.0112745
0.0114732
0.0114381
0.0112786
0.010823
0.0100955
0.00930706
0.00846623
0.00756502
0.00677623
0.00624966
0.00604913
0.00606838
0.00620499
0.00660944
0.00710345
0.00728027
0.00710788
0.00664299
0.00633298
0.00636697
0.00683704
0.0074912
0.00738873
0.00642941
0.00523286
0.00480664
0.00458044
0.00453069
0.00465926
0.00520472
0.00544595
0.00534662
0.0049029
0.00487837
0.00493744
0.00435246
0.00342006
0.0031842
0.00319266
0.00298306
0.00268716
0.00265673
0.00272027
0.00285246
0.00299378
0.00311378
0.00317727
0.00318139
0.00310242
0.00289697
0.00278126
0.00276015
0.00277625
0.00288472
0.00315225
0.00351743
0.0039112
0.00465664
0.0049766
0.00511204
0.00512405
0.00470445
0.00387828
0.00367938
0.00386354
0.00459495
0.00536321
0.00622871
0.00688283
0.00701492
0.00282127
0.00297193
0.00284633
0.00256697
0.00247034
0.00252545
0.00298696
0.00449568
0.00565109
0.0059144
0.00602098
0.00682802
0.00828442
0.00828935
0.00599352
0.00390911
0.00330672
0.00320822
0.00329301
0.00377946
0.00481268
0.00531898
0.00536262
0.00494793
0.00386819
0.00333635
0.00322511
0.0032121
0.00330517
0.00361244
0.00403381
0.00437162
0.00454655
0.00464475
0.00466964
0.00465886
0.00454458
0.00449748
0.00462046
0.00501402
0.00597926
0.00813109
0.010531
0.0112667
0.0113791
0.0112768
0.0109794
0.0104563
0.0098996
0.00930484
0.00868041
0.00813058
0.00775282
0.00756568
0.00749346
0.00750342
0.00754283
0.00749385
0.00724368
0.00671825
0.00627568
0.00622534
0.00647813
0.00732433
0.00740959
0.00654895
0.00522355
0.00469436
0.00434929
0.00417403
0.00417658
0.00438601
0.00479001
0.00490028
0.00474708
0.00470613
0.00481893
0.00473332
0.00372807
0.00323649
0.00314408
0.00310599
0.00276085
0.00263344
0.00265277
0.00277639
0.00290292
0.00300817
0.00304462
0.00303216
0.00295103
0.00282591
0.0027785
0.00277386
0.00280875
0.00293626
0.00320309
0.00355587
0.00396539
0.00461302
0.00485273
0.00492158
0.00494011
0.00487152
0.00433387
0.00372352
0.00364113
0.00385233
0.00449566
0.00512934
0.00604685
0.00665067
0.00676304
0.00251945
0.00258921
0.00261974
0.00253128
0.00234562
0.0022971
0.00243059
0.00319812
0.00518758
0.00590432
0.00595072
0.00614208
0.00724625
0.0074461
0.00540952
0.00360397
0.00316058
0.00310698
0.00324476
0.00381219
0.00467672
0.00491102
0.00456345
0.00335049
0.00235368
0.00201437
0.00191642
0.0018981
0.00193123
0.0020994
0.00248123
0.00308452
0.00371276
0.00414831
0.0043401
0.00438251
0.00432446
0.00427747
0.00429536
0.00445991
0.00496633
0.00632755
0.00875806
0.0104747
0.0109986
0.0110738
0.0108867
0.0104416
0.00996272
0.00949441
0.00905615
0.0086888
0.00840181
0.00817965
0.00798918
0.00782552
0.00763256
0.00733192
0.00676875
0.0062605
0.00612801
0.00626179
0.00702151
0.00737662
0.00673113
0.00532777
0.00463697
0.00430916
0.0040982
0.0039801
0.00398601
0.00413208
0.00433545
0.00441543
0.00445681
0.00464297
0.00472922
0.0043537
0.00347284
0.00319505
0.00312043
0.00296928
0.00266683
0.00261881
0.00267555
0.00280889
0.0028735
0.00288364
0.00287559
0.00284216
0.00279624
0.00278506
0.0027937
0.00285313
0.00300064
0.0032601
0.00360003
0.00404983
0.00460807
0.00477913
0.0048248
0.00485881
0.0048718
0.00470084
0.00407125
0.00364513
0.00360185
0.00380793
0.00434394
0.00480622
0.00559541
0.00638933
0.00660882
0.00247934
0.00242824
0.00243001
0.00239538
0.00228704
0.00219893
0.00222597
0.00266756
0.00431358
0.00586474
0.00596649
0.00591123
0.00654304
0.00685217
0.00515308
0.00342952
0.00303611
0.00299943
0.00316363
0.00375271
0.00427151
0.0042766
0.00368976
0.00252666
0.00181979
0.00159322
0.00152201
0.00150111
0.00149931
0.00152799
0.00161693
0.0017865
0.00206921
0.00256095
0.00326595
0.00384643
0.00409454
0.00419996
0.00427325
0.00439614
0.00467323
0.00537421
0.00674792
0.0082409
0.00949537
0.0101301
0.0102971
0.0101339
0.00978754
0.00940163
0.00902477
0.00870315
0.00843454
0.00818465
0.00794827
0.00769304
0.00731421
0.00674237
0.00625212
0.00606392
0.00612947
0.00666946
0.00728741
0.00699256
0.00563959
0.00468225
0.0043296
0.00414611
0.00397852
0.00387634
0.00384164
0.00384581
0.00393955
0.00409505
0.00434456
0.00457082
0.00456704
0.00408649
0.00341374
0.00318877
0.00311021
0.00286923
0.00263847
0.00261503
0.0026939
0.00277769
0.00279392
0.00279735
0.00279674
0.00279075
0.00279137
0.00281832
0.00289768
0.00305306
0.00330458
0.00365869
0.00417282
0.00462792
0.004747
0.00477589
0.00480858
0.00485163
0.00482319
0.00455663
0.00393644
0.00358615
0.00355204
0.00373533
0.00418631
0.00452135
0.00514004
0.00610097
0.00646916
0.0025751
0.00241382
0.00233523
0.00229867
0.00222693
0.00214899
0.00215197
0.00249017
0.00395644
0.00573122
0.00598397
0.00584364
0.00605219
0.00639565
0.00501763
0.00328115
0.00289069
0.00285554
0.00300275
0.00346317
0.00364348
0.00358528
0.00307141
0.00210771
0.00166627
0.00153938
0.00149691
0.00147955
0.00147222
0.00146351
0.00145779
0.00147229
0.00152878
0.00166506
0.00192565
0.00236217
0.0030081
0.00371455
0.00415691
0.00435718
0.0046045
0.00507811
0.00573023
0.00639678
0.00710511
0.00783377
0.00846547
0.00884684
0.00895192
0.00883712
0.00862901
0.00839745
0.0081331
0.00784588
0.00751929
0.00710524
0.0066236
0.00621787
0.00601913
0.0060418
0.00635921
0.00715452
0.00715347
0.00598246
0.00480046
0.00438248
0.00420013
0.00403019
0.00385636
0.00376132
0.0037189
0.00371155
0.00375478
0.00392643
0.00425328
0.00442394
0.00439353
0.00401292
0.00341375
0.00321116
0.00311764
0.00282975
0.00262803
0.002612
0.00268736
0.00274602
0.00276328
0.00277383
0.00278532
0.00279757
0.00283573
0.0029226
0.00307842
0.00332993
0.00371447
0.00429078
0.00465508
0.00474681
0.00477241
0.00481028
0.00487638
0.00489229
0.0047986
0.00449983
0.00388935
0.00353376
0.00348851
0.00362745
0.00402039
0.00429204
0.00469719
0.0055776
0.00620319
0.00293427
0.00245895
0.00231027
0.00223582
0.00217331
0.0021219
0.0021387
0.00247543
0.00392762
0.00557818
0.00599245
0.0058475
0.00579177
0.00608827
0.00507125
0.00319111
0.00270348
0.00264839
0.00271556
0.00290791
0.00296624
0.00288505
0.00244615
0.00186657
0.00164668
0.00157716
0.00156421
0.00159468
0.00160321
0.00159658
0.00154801
0.00150375
0.00150065
0.00152357
0.00158556
0.00171832
0.00199026
0.00246923
0.00317719
0.00385721
0.00437592
0.00487737
0.00542091
0.00575907
0.00595918
0.00625786
0.00666894
0.00701861
0.00728858
0.00746225
0.0075035
0.00743502
0.00726818
0.0070212
0.00673698
0.00642821
0.00614057
0.00597806
0.0059809
0.00616992
0.00690994
0.00716863
0.00647077
0.00503545
0.00448286
0.00426384
0.00407708
0.00387438
0.00374334
0.00368749
0.0036566
0.00364182
0.00365304
0.00376051
0.00403167
0.00424423
0.00426368
0.0040324
0.00350494
0.00327407
0.00313769
0.00282133
0.00262537
0.00260868
0.0026774
0.00273239
0.00274931
0.00276716
0.00279549
0.00283446
0.00291912
0.00306458
0.00331226
0.00372281
0.0043498
0.00467126
0.00476322
0.00480567
0.00489782
0.0050244
0.00505961
0.00499106
0.00479526
0.00448905
0.00390009
0.00350761
0.00343674
0.00350426
0.0038253
0.00410154
0.00431652
0.00493527
0.00563775
0.00326109
0.00254465
0.00230139
0.00220253
0.00213973
0.00211574
0.00224935
0.0030303
0.00484457
0.00552539
0.00588527
0.00590001
0.00565015
0.00584436
0.00520325
0.00319639
0.00253069
0.0024111
0.00240748
0.00243801
0.00243341
0.00230867
0.00201657
0.00178001
0.00170178
0.00170383
0.00184365
0.00209094
0.002183
0.00220177
0.00210647
0.0018654
0.00169493
0.00163184
0.00163022
0.001683
0.00180413
0.00204388
0.00243609
0.00286533
0.00333107
0.00405581
0.0048339
0.0053415
0.00560704
0.00567568
0.00581419
0.00600448
0.00618724
0.00634448
0.00644796
0.00647502
0.00643292
0.00632882
0.00617886
0.00602677
0.00593199
0.0059361
0.00605935
0.00663606
0.00709738
0.00684664
0.00543026
0.00463569
0.00435004
0.00414203
0.00390861
0.00374068
0.0036594
0.00359897
0.00357204
0.00356391
0.0035639
0.00361001
0.00377467
0.00408926
0.00418552
0.00411611
0.00376145
0.00339175
0.00320456
0.00287032
0.00263423
0.00260439
0.0026564
0.00271866
0.00273869
0.0027652
0.00281096
0.00287739
0.00301343
0.00324537
0.00366573
0.00432133
0.00466944
0.0047769
0.00484443
0.00503939
0.00532183
0.00540561
0.00538343
0.00518271
0.00490132
0.00461592
0.0041148
0.00355224
0.00339886
0.00339769
0.00360697
0.00389154
0.00400964
0.00436012
0.00490614
0.00304857
0.00246348
0.0022591
0.00217719
0.00213654
0.00222877
0.00290401
0.00457937
0.00529456
0.00556143
0.00574843
0.00589964
0.00557466
0.00566598
0.00536457
0.00330676
0.00242646
0.00220304
0.00213998
0.0021124
0.00207249
0.00197238
0.00185981
0.00180539
0.00181891
0.00203711
0.00269363
0.00334208
0.00357731
0.00364321
0.00357359
0.00317873
0.00265225
0.00218416
0.00193401
0.00186685
0.00189649
0.00205025
0.00235899
0.00269782
0.0028592
0.00310202
0.00351114
0.00416446
0.00511666
0.0054507
0.00555024
0.00562802
0.00572195
0.0058141
0.0058911
0.00594258
0.00596163
0.00594717
0.00591179
0.00588923
0.00590614
0.00600168
0.00642157
0.0069551
0.00700227
0.00597132
0.00487299
0.00447908
0.00425043
0.0039765
0.00370175
0.00353996
0.00345704
0.00343228
0.00343278
0.00344768
0.00347288
0.00350927
0.00360608
0.00387266
0.00410755
0.00414176
0.00400294
0.0036546
0.00336724
0.00303467
0.00267358
0.00259912
0.0026136
0.00269132
0.00272066
0.00275424
0.0028275
0.00293787
0.00316283
0.00356861
0.0042365
0.00465678
0.00478463
0.00485834
0.00510448
0.00568598
0.00595766
0.00599758
0.00591756
0.005583
0.00517077
0.0048814
0.00445941
0.00375447
0.0034025
0.00332835
0.00336751
0.00363001
0.0038164
0.00392518
0.00424761
0.00257725
0.00235803
0.00226695
0.00224419