/*--------------------------------*- C++ -*----------------------------------*\
  =========                 |
  \\      /  F ield         | OpenFOAM: The Open Source CFD Toolbox
   \\    /   O peration     | Website:  https://openfoam.org
    \\  /    A nd           | Version:  11
     \\/     M anipulation  |
\*---------------------------------------------------------------------------*/
FoamFile
{
    format      ascii;
    class       volScalarField;
    location    "4";
    object      p;
}
// * * * * * * * * * * * * * * * * * * * * * * * * * * * * * * * * * * * * * //

dimensions      [0 2 -2 0 0 0 0];

internalField   nonuniform List<scalar> 
9600
(
0.0688345
0.0702337
0.0726992
0.0759845
0.079628
0.0833261
0.0870648
0.0905439
0.0942416
0.0972245
0.0995229
0.100026
0.0986671
0.0979436
0.0959932
0.0908023
0.0836929
0.0758165
0.0656189
0.0541121
0.0429562
0.032605
0.0221473
0.0111629
-0.000240613
-0.0118868
-0.0233572
-0.0309728
-0.0317597
-0.0274537
-0.0214199
-0.015204
-0.00931964
-0.00466488
-0.00147555
0.000873494
0.00231658
0.00314684
0.00339768
0.00363473
0.0696286
0.0716856
0.0747687
0.0783968
0.0821303
0.0857712
0.0893643
0.0928072
0.0961515
0.0988803
0.100479
0.100074
0.0985999
0.0976534
0.0953074
0.0898564
0.0823854
0.0742158
0.0640954
0.052974
0.0422563
0.032334
0.0224401
0.0120055
0.00112224
-0.0100386
-0.0218148
-0.0305703
-0.0331128
-0.0303021
-0.0251207
-0.0190296
-0.0128526
-0.00752719
-0.00353609
-0.000706482
0.00156697
0.00290668
0.0035692
0.00358529
0.0703944
0.0726804
0.0757896
0.0791779
0.082604
0.0860025
0.0894461
0.0926471
0.0959803
0.0984174
0.0996863
0.0995154
0.0983766
0.0973052
0.0949172
0.0895406
0.082351
0.0745523
0.0647619
0.0537702
0.0431593
0.0334947
0.0237031
0.0133162
0.0025896
-0.00843694
-0.0198655
-0.0294287
-0.0326205
-0.0300236
-0.0246422
-0.0185868
-0.0124957
-0.00731769
-0.00350097
-0.000863451
0.000959351
0.00228244
0.00305614
0.00349492
0.0712949
0.0738528
0.0772082
0.0807779
0.08435
0.0878918
0.0914198
0.0946681
0.0973623
0.0997033
0.100588
0.100377
0.0987028
0.0971594
0.0944601
0.0890181
0.0814902
0.0731302
0.0630732
0.052237
0.0419339
0.0325583
0.02334
0.0135561
0.00306618
-0.00807859
-0.0192394
-0.0296867
-0.0341976
-0.0328695
-0.0283675
-0.0224586
-0.0161781
-0.0103899
-0.0058306
-0.00235968
0.000222832
0.00201454
0.00305699
0.00344811
0.0723471
0.075135
0.0786599
0.0822055
0.0855909
0.0888924
0.0920897
0.0950648
0.0975024
0.099767
0.100272
0.100001
0.0985155
0.0969747
0.0940265
0.0884293
0.0810854
0.0729066
0.0632312
0.0526259
0.0424799
0.0334345
0.0245709
0.0149748
0.00480709
-0.00579996
-0.0171488
-0.0267389
-0.0336175
-0.0334797
-0.0292497
-0.0233158
-0.0168711
-0.0109802
-0.00631983
-0.0030674
-0.000614987
0.00114067
0.00244989
0.00325187
0.0735344
0.0764871
0.0801141
0.0836033
0.0869026
0.0901679
0.0933238
0.0960918
0.0986555
0.100543
0.100803
0.100333
0.0992719
0.0971734
0.0936888
0.0879522
0.080495
0.0719753
0.0620051
0.0514341
0.0415316
0.0327442
0.0243558
0.0153696
0.00547711
-0.00548257
-0.0172479
-0.0281112
-0.0344934
-0.0355843
-0.0322352
-0.0265371
-0.0200805
-0.0138028
-0.00855053
-0.00454722
-0.00151715
0.000723152
0.00216597
0.00302152
0.0748179
0.0778866
0.0815672
0.0850262
0.0882891
0.0914584
0.0944075
0.0970146
0.0995213
0.100998
0.10104
0.100407
0.0993936
0.0970392
0.093271
0.0873817
0.0799121
0.0712893
0.0614651
0.0511209
0.041412
0.032932
0.0250277
0.0164932
0.00694908
-0.00343137
-0.0147174
-0.026087
-0.0342142
-0.036848
-0.0343493
-0.028883
-0.0221884
-0.0155623
-0.00995088
-0.00577858
-0.00271032
-0.000450001
0.00129897
0.0025146
0.0761716
0.0793265
0.08304
0.0864868
0.0896952
0.0927177
0.0954699
0.0980168
0.100361
0.101482
0.101408
0.100857
0.0997124
0.0971701
0.0930408
0.0869647
0.0793512
0.0705343
0.0606291
0.0502515
0.0407209
0.032538
0.0250748
0.0171749
0.00814782
-0.00236648
-0.0145055
-0.0263957
-0.0347489
-0.0384659
-0.0370442
-0.031945
-0.0252389
-0.0183273
-0.0121988
-0.00751545
-0.00391759
-0.00108241
0.00100746
0.00234271
0.0776066
0.0808188
0.0845451
0.0879779
0.0911046
0.0939592
0.0965713
0.0990752
0.10116
0.102016
0.101871
0.101371
0.099999
0.0971534
0.0927007
0.0864334
0.0786829
0.0696962
0.0597504
0.0494728
0.0401249
0.0322442
0.0252929
0.0180184
0.0094634
-0.000674247
-0.0122948
-0.0244564
-0.0341566
-0.0398209
-0.0397684
-0.0353505
-0.028704
-0.0214166
-0.0147167
-0.00935885
-0.00548314
-0.00267473
-0.000462071
0.00118896
0.079119
0.08236
0.0860861
0.0894919
0.0925124
0.0952076
0.0977242
0.10013
0.101949
0.102621
0.102456
0.101879
0.100325
0.0971939
0.0924737
0.0860185
0.0780593
0.0688116
0.0587398
0.0485671
0.0394109
0.03185
0.0253821
0.0187676
0.0108853
0.00110056
-0.0109725
-0.0241592
-0.0352819
-0.0413764
-0.0426668
-0.0390664
-0.0324383
-0.0247804
-0.0175745
-0.0116706
-0.00713491
-0.0036373
-0.000982251
0.000920059
0.0806924
0.0839442
0.0876693
0.0910219
0.0939235
0.0964944
0.0989107
0.101173
0.102754
0.103299
0.103136
0.102478
0.100667
0.0972581
0.0922016
0.0854593
0.0772643
0.0678126
0.057666
0.0475616
0.0385685
0.0313117
0.0253561
0.0194675
0.0122181
0.00281034
-0.0089022
-0.0221891
-0.0345538
-0.0427299
-0.0456809
-0.0430757
-0.0366743
-0.0287342
-0.0209823
-0.0143156
-0.00921681
-0.00559291
-0.00290974
-0.000804887
0.0823232
0.0855766
0.0892905
0.092567
0.0953683
0.0978327
0.100116
0.102231
0.103588
0.104089
0.103913
0.103134
0.101009
0.0972444
0.0918963
0.0849257
0.0764955
0.0667742
0.0564488
0.0463256
0.0375156
0.0306466
0.0252433
0.020054
0.0135764
0.00487663
-0.00681016
-0.0207477
-0.0344673
-0.0440624
-0.0487791
-0.0474564
-0.0415307
-0.0332862
-0.024895
-0.0175775
-0.011744
-0.00725697
-0.00386068
-0.00139062
0.0840178
0.0872648
0.090947
0.0941502
0.0968568
0.0992121
0.101366
0.103317
0.104503
0.104976
0.104784
0.103758
0.101354
0.0973103
0.0916535
0.0843335
0.0755463
0.0655175
0.0550244
0.0449669
0.0363413
0.0298189
0.0249866
0.0206384
0.0149724
0.00686311
-0.00448693
-0.0185203
-0.0334051
-0.0448078
-0.0518064
-0.0520637
-0.0468646
-0.0385515
-0.0296347
-0.0214304
-0.0146587
-0.00970974
-0.00610335
-0.00358639
0.0857736
0.0890079
0.0926481
0.0957849
0.0983874
0.100639
0.102676
0.104441
0.105536
0.10595
0.105727
0.104455
0.101762
0.0973438
0.0912906
0.0836317
0.0745159
0.0642168
0.0535332
0.0434206
0.0348833
0.0287487
0.0245228
0.0210411
0.016374
0.00921872
-0.00165418
-0.0160837
-0.0323742
-0.0467599
-0.0549792
-0.0570272
-0.052992
-0.0447897
-0.0351735
-0.0261031
-0.0185194
-0.0126085
-0.00812966
-0.00495822
0.0876036
0.0908247
0.0944114
0.0974736
0.099965
0.102123
0.104047
0.105653
0.106665
0.107021
0.106716
0.10524
0.102132
0.0973069
0.0909513
0.0829414
0.0733987
0.0627208
0.05172
0.0415404
0.0332148
0.027448
0.0238377
0.0213457
0.0178312
0.0116012
0.00125891
-0.0131075
-0.0302894
-0.0466298
-0.0579263
-0.0622773
-0.0597135
-0.0518038
-0.0417713
-0.0318399
-0.0230144
-0.0160947
-0.0110472
-0.00768315
0.0895212
0.092722
0.0962395
0.0992166
0.101614
0.10369
0.105493
0.106965
0.107904
0.108222
0.107714
0.106016
0.102525
0.0973376
0.0905328
0.0820915
0.072076
0.0610107
0.0497859
0.0395527
0.0312435
0.0258645
0.0229822
0.0213271
0.0189582
0.0141002
0.00480085
-0.00941242
-0.0277065
-0.046136
-0.060596
-0.0676698
-0.0671297
-0.0601923
-0.0498047
-0.038692
-0.0287666
-0.0208043
-0.0146722
-0.010415
0.091545
0.0947085
0.0981376
0.101012
0.103341
0.105348
0.107055
0.108423
0.109314
0.109541
0.108764
0.106782
0.102936
0.0972641
0.0900113
0.0811208
0.0706522
0.0592249
0.0475878
0.0371809
0.0288783
0.0238889
0.021729
0.0211104
0.0201671
0.0167725
0.00852096
-0.00524898
-0.0242039
-0.0446655
-0.0623771
-0.0730313
-0.0752605
-0.0695721
-0.0590538
-0.0471905
-0.0358948
-0.0263908
-0.0190805
-0.0142424
0.0936746
0.0967763
0.100116
0.10289
0.105175
0.107115
0.108747
0.110041
0.110882
0.110939
0.10992
0.10755
0.103246
0.0971528
0.0894016
0.0800407
0.069026
0.057064
0.0450292
0.0345797
0.0263172
0.0215018
0.0201618
0.0206557
0.0210205
0.0191852
0.012649
-0.000135324
-0.0195774
-0.0421452
-0.0634626
-0.0781937
-0.0838963
-0.0802875
-0.0704386
-0.0576201
-0.0446958
-0.0337211
-0.0251422
-0.0191869
0.0959156
0.0989273
0.102177
0.104872
0.107152
0.109055
0.110643
0.111879
0.112557
0.112435
0.111045
0.108268
0.103567
0.0969716
0.0886738
0.0787503
0.0670767
0.054709
0.0422797
0.0315178
0.0233666
0.0187524
0.0180799
0.0195879
0.0217116
0.0217084
0.0171036
0.00563874
-0.0137288
-0.0380598
-0.0631122
-0.0826109
-0.0928729
-0.092543
-0.0836197
-0.0702247
-0.0559297
-0.0430646
-0.0325635
-0.0253696
0.0982522
0.10118
0.104339
0.106996
0.109301
0.111236
0.112738
0.113848
0.114377
0.114036
0.112279
0.109016
0.103838
0.0967029
0.0877563
0.0772168
0.0649638
0.0520487
0.0390842
0.0279522
0.0199216
0.0154823
0.0155187
0.0181813
0.0222242
0.0238816
0.0215627
0.0121846
-0.00627543
-0.0319483
-0.0607459
-0.0856638
-0.101788
-0.105904
-0.0993026
-0.0860647
-0.07012
-0.0549912
-0.0424849
-0.0338289
0.100792
0.103493
0.106634
0.109364
0.111677
0.113637
0.115073
0.115991
0.1163
0.115553
0.113509
0.109739
0.104028
0.0962797
0.0866261
0.0755349
0.0625177
0.0488033
0.03553
0.0240799
0.0159149
0.0116222
0.012482
0.0159969
0.0219553
0.0259982
0.0263094
0.0193368
0.00260938
-0.0235633
-0.0553795
-0.086215
-0.109416
-0.119998
-0.117641
-0.105318
-0.0880054
-0.0706483
-0.0556038
-0.0447127
0.103427
0.10601
0.109173
0.112006
0.114348
0.116244
0.117589
0.118301
0.118371
0.117351
0.114806
0.110396
0.104054
0.0957468
0.0853881
0.0734176
0.0596252
0.0452427
0.0314655
0.0195396
0.011391
0.00710154
0.00862026
0.013179
0.0210553
0.0276796
0.0310313
0.026916
0.0130082
-0.0128227
-0.0468323
-0.0832035
-0.114026
-0.133576
-0.137828
-0.128783
-0.111218
-0.0913066
-0.0728618
-0.0594122
0.106292
0.108838
0.11205
0.114969
0.117316
0.119105
0.120311
0.120808
0.120535
0.119081
0.115981
0.111028
0.103928
0.0949644
0.0837987
0.0708829
0.0564077
0.0411808
0.0267511
0.0143064
0.00609789
0.00175585
0.00382434
0.00990415
0.0192556
0.0282116
0.0354903
0.0349138
0.0248163
0.000495752
-0.0345328
-0.0765139
-0.11484
-0.144075
-0.157939
-0.155804
-0.140705
-0.118897
-0.0966501
-0.0795119
0.109445
0.112004
0.115272
0.118256
0.120616
0.122258
0.123256
0.123518
0.122842
0.120919
0.117101
0.111492
0.103683
0.0938579
0.0818093
0.0679437
0.0526003
0.0364267
0.0214887
0.00843302
-4.68687e-05
-0.0043576
-0.00252482
0.00554047
0.0167162
0.0276362
0.038988
0.0429475
0.0377305
0.0166334
-0.0176465
-0.064848
-0.111233
-0.15166
-0.176711
-0.184047
-0.174788
-0.155132
-0.130175
-0.108576
0.113003
0.115582
0.118931
0.121909
0.124247
0.125758
0.126444
0.126346
0.125164
0.122688
0.118188
0.111793
0.1031
0.0923069
0.0794358
0.0643691
0.0480362
0.0310039
0.0154366
0.00179488
-0.00706744
-0.0113166
-0.0101658
-0.000578321
0.0127287
0.0259789
0.0410033
0.0501896
0.0509179
0.0355455
0.00421564
-0.0461968
-0.100154
-0.154885
-0.193951
-0.214714
-0.213678
-0.198478
-0.173586
-0.149619
0.117015
0.11961
0.12307
0.126056
0.128242
0.129568
0.129914
0.129391
0.127607
0.124398
0.119155
0.111794
0.102251
0.0902933
0.0763919
0.06011
0.0427291
0.0246767
0.00845241
-0.00579013
-0.0152062
-0.0192405
-0.0185299
-0.0088908
0.00616854
0.022782
0.0410131
0.0558418
0.0630455
0.0561594
0.0309414
-0.018781
-0.0787473
-0.14915
-0.205606
-0.245737
-0.259768
-0.252635
-0.229615
-0.202815
0.121569
0.124189
0.127756
0.130707
0.132644
0.13366
0.13358
0.13248
0.130056
0.125934
0.119943
0.111394
0.1009
0.0876648
0.0725471
0.054996
0.0365333
0.0172743
0.000334614
-0.0143785
-0.0246903
-0.028564
-0.0277419
-0.0188365
-0.00302678
0.0167827
0.0378798
0.058853
0.0727984
0.0766722
0.0599123
0.0193793
-0.0445771
-0.127575
-0.206349
-0.271293
-0.310315
-0.320548
-0.305792
-0.277271
0.126831
0.129471
0.133021
0.135874
0.13752
0.138065
0.137509
0.135634
0.13255
0.127287
0.12035
0.110594
0.0987756
0.0842034
0.0677223
0.0488166
0.0291361
0.00896132
-0.00932464
-0.0241445
-0.0353384
-0.0397851
-0.0386269
-0.0301774
-0.0146641
0.00680658
0.0307583
0.0571377
0.0785793
0.0941933
0.0893895
0.06449
0.00489469
-0.0810666
-0.184082
-0.279089
-0.356468
-0.404091
-0.410681
-0.391788
0.132929
0.135489
0.13886
0.141406
0.142801
0.142758
0.141646
0.138832
0.134733
0.128494
0.120165
0.109195
0.0957346
0.0798058
0.0613574
0.041475
0.0200611
-0.000595739
-0.0202137
-0.0356739
-0.0472434
-0.0528078
-0.0520418
-0.0437287
-0.028789
-0.00744375
0.0189403
0.0489166
0.0781889
0.104629
0.115885
0.108845
0.0669509
-0.00798214
-0.120148
-0.235894
-0.362386
-0.462004
-0.525902
-0.540738
0.13999
0.142268
0.145482
0.147588
0.148485
0.147815
0.145671
0.142077
0.136579
0.129092
0.119167
0.106812
0.0913367
0.0740161
0.0535993
0.0324057
0.00950127
-0.0121691
-0.0322971
-0.0490388
-0.0609185
-0.0673681
-0.0677154
-0.0604425
-0.04632
-0.0256213
0.00144919
0.0336673
0.069098
0.104096
0.131768
0.143453
0.129919
0.0780339
-0.0134085
-0.122545
-0.272091
-0.413738
-0.555992
-0.646346
0.148106
0.149887
0.15269
0.154387
0.15448
0.153094
0.149893
0.145047
0.138073
0.129044
0.117058
0.102863
0.0856464
0.0662283
0.044136
0.0209236
-0.00284896
-0.0258388
-0.0463981
-0.0639938
-0.0766964
-0.0840216
-0.0855719
-0.0800151
-0.0677397
-0.048581
-0.0221996
0.0103317
0.0491733
0.0898352
0.13016
0.160041
0.174553
0.155602
0.0998244
0.0127974
-0.107094
-0.249038
-0.424389
-0.562371
0.157248
0.158548
0.160679
0.161658
0.160854
0.158242
0.153556
0.147231
0.138301
0.127188
0.113421
0.0967202
0.0776452
0.0557502
0.0320432
0.00698622
-0.0179162
-0.041815
-0.0630038
-0.0810939
-0.0945362
-0.10297
-0.105814
-0.102546
-0.0926945
-0.0766696
-0.0527302
-0.0215665
0.0169087
0.0605659
0.107434
0.151394
0.185371
0.198079
0.17246
0.115369
0.0340963
-0.0716401
-0.201512
-0.344754
0.167893
0.16834
0.169577
0.169826
0.167883
0.16398
0.157719
0.148591
0.137442
0.123557
0.107381
0.0880183
0.0664857
0.0423004
0.0165626
-0.0100239
-0.0362137
-0.0607248
-0.0823819
-0.10072
-0.114796
-0.124137
-0.128471
-0.128156
-0.121919
-0.109444
-0.0901138
-0.0625552
-0.0270049
0.0161367
0.0644129
0.114488
0.160579
0.198836
0.207839
0.176068
0.128714
0.0588254
-0.0413512
-0.163449
0.179447
0.179
0.178949
0.177234
0.173346
0.167024
0.158471
0.147076
0.133073
0.116405
0.0970946
0.0750042
0.050718
0.0244466
-0.00351744
-0.0313172
-0.0583705
-0.0831899
-0.105099
-0.12353
-0.13768
-0.147686
-0.153398
-0.155952
-0.154339
-0.147245
-0.134067
-0.112137
-0.0822841
-0.0433833
0.00244811
0.0541538
0.105802
0.154261
0.192848
0.205112
0.187368
0.143816
0.069208
-0.0222977
0.193765
0.191724
0.190207
0.18658
0.180111
0.170754
0.158361
0.143175
0.125166
0.104736
0.0818998
0.0568451
0.0296979
0.000997238
-0.0285812
-0.0575392
-0.0849492
-0.109821
-0.131323
-0.149402
-0.162875
-0.173392
-0.180353
-0.185707
-0.188973
-0.188425
-0.183966
-0.171
-0.149552
-0.118842
-0.0784525
-0.0329231
0.01989
0.0739275
0.123059
0.164362
0.183922
0.176106
0.139405
0.0778602
0.205392
0.200059
0.195113
0.188195
0.17848
0.16585
0.14988
0.130805
0.108953
0.0844698
0.0580564
0.0296824
0.000110788
-0.0304933
-0.0611068
-0.0905032
-0.117709
-0.14181
-0.161812
-0.178413
-0.190487
-0.200598
-0.209458
-0.217537
-0.225555
-0.232058
-0.237442
-0.236607
-0.227418
-0.209966
-0.181124
-0.146711
-0.102954
-0.0515639
-0.00092219
0.0450613
0.0873945
0.118454
0.125533
0.114597
0.22952
0.220694
0.210171
0.195996
0.177532
0.155963
0.132055
0.10585
0.0779897
0.0482617
0.0173345
-0.0148729
-0.047642
-0.0799785
-0.111325
-0.140092
-0.165571
-0.186915
-0.203046
-0.215056
-0.22376
-0.231773
-0.241181
-0.251932
-0.264344
-0.278754
-0.293444
-0.303678
-0.309363
-0.309567
-0.302804
-0.287954
-0.258959
-0.215559
-0.173965
-0.137807
-0.0933044
-0.0532559
-0.0291341
-0.0129189
0.207038
0.189727
0.172687
0.154396
0.133606
0.109518
0.0818569
0.051229
0.0184657
-0.0156308
-0.050442
-0.0853406
-0.119862
-0.152695
-0.183299
-0.210105
-0.232252
-0.248705
-0.258206
-0.263544
-0.264788
-0.267519
-0.272344
-0.28415
-0.301312
-0.322928
-0.344743
-0.357987
-0.370471
-0.390724
-0.420302
-0.442938
-0.445716
-0.426767
-0.402613
-0.379328
-0.353073
-0.319082
-0.279776
-0.240365
0.269688
0.239127
0.205858
0.172386
0.138533
0.103472
0.0670112
0.0293119
-0.0088841
-0.0469082
-0.0842029
-0.119503
-0.151967
-0.180452
-0.205037
-0.225592
-0.240243
-0.249412
-0.250551
-0.248151
-0.240601
-0.235874
-0.235962
-0.247548
-0.271529
-0.315622
-0.358121
-0.366094
-0.361188
-0.371496
-0.400038
-0.428646
-0.447598
-0.456358
-0.460666
-0.458655
-0.451885
-0.437396
-0.41954
-0.396833
0.0155966
-0.0164499
-0.0526961
-0.0985367
-0.147037
-0.195567
-0.242128
-0.288311
-0.331694
-0.368613
-0.399133
-0.421851
-0.440207
-0.455782
-0.46627
-0.469905
-0.465444
-0.453186
-0.435368
-0.41086
-0.382536
-0.350063
-0.320035
-0.298225
-0.297339
-0.328627
-0.350062
-0.354612
-0.361539
-0.368915
-0.376803
-0.384552
-0.389774
-0.389846
-0.387181
-0.382074
-0.374425
-0.362506
-0.348878
-0.331394
0.00324438
0.00497582
0.00487503
0.00574178
0.00663265
0.00679295
0.00670129
0.00616057
0.00521655
0.00386644
0.00276157
0.0013613
3.61046e-06
-0.00135337
-0.00229395
-0.00291054
-0.00344485
-0.00385651
-0.00408337
-0.00407434
-0.00400836
-0.00394661
-0.00380922
-0.00362151
-0.00335377
-0.00308149
-0.00279597
-0.00251082
-0.00225218
-0.0019973
-0.00175899
-0.00156264
-0.00140746
-0.00127429
-0.00112443
-0.000953637
-0.000663627
-0.000444763
0.000227831
-0.00102724
0.00373347
0.00467323
0.0051478
0.00577775
0.00690891
0.00718574
0.00700624
0.00647386
0.00535466
0.00406123
0.00288438
0.0013201
2.96002e-06
-0.00140651
-0.00233319
-0.00309619
-0.00368715
-0.00410504
-0.00428736
-0.00424542
-0.00419125
-0.00413581
-0.00401833
-0.00381481
-0.00354973
-0.00326408
-0.00295412
-0.00267332
-0.00239084
-0.00211325
-0.00188598
-0.00170885
-0.00156594
-0.00141284
-0.00123061
-0.00104028
-0.000815331
-0.000617601
-0.000709951
-0.00225682
0.00428852
0.00444321
0.0053559
0.00597694
0.00715359
0.00759232
0.00739354
0.00684392
0.0055727
0.00422987
0.00294065
0.001397
1.7311e-05
-0.00139829
-0.00242151
-0.00330514
-0.00393437
-0.00433133
-0.00449351
-0.00449269
-0.00446143
-0.00442051
-0.00429194
-0.00407343
-0.00382208
-0.00349518
-0.00315792
-0.00286568
-0.00255641
-0.00228326
-0.00205463
-0.00187625
-0.00172706
-0.00154546
-0.00134595
-0.00114688
-0.000926362
-0.000575179
-0.000100564
0.000321381
0.0038943
0.00427593
0.00543564
0.00626163
0.00744529
0.00803029
0.00783322
0.00724254
0.00588821
0.00439103
0.00301175
0.00151423
5.51283e-06
-0.00139502
-0.00248487
-0.00347148
-0.00416119
-0.00453624
-0.00470917
-0.00478173
-0.00480436
-0.00473984
-0.00457304
-0.00437854
-0.0041424
-0.0037755
-0.00342745
-0.00312326
-0.00279965
-0.00251961
-0.00226354
-0.00206567
-0.00187933
-0.00166736
-0.00145491
-0.0012533
-0.00106261
-0.0008836
-0.000922822
-0.00159458
0.00412838
0.00416287
0.00549396
0.0065847
0.00780453
0.00850776
0.00830813
0.00766571
0.00628244
0.00454065
0.00317081
0.00161589
7.72882e-05
-0.00137047
-0.00259019
-0.00360034
-0.00431101
-0.00472911
-0.00499349
-0.00511717
-0.00512067
-0.00498389
-0.00479422
-0.00464653
-0.00441574
-0.00406688
-0.00375788
-0.00345445
-0.00313381
-0.00283487
-0.0025395
-0.00229972
-0.00206065
-0.00182106
-0.00159352
-0.00139536
-0.00120377
-0.000915743
-0.000448564
0.000182823
0.00379351
0.00413653
0.00554911
0.00689112
0.00820319
0.00900598
0.0088128
0.00801635
0.0066022
0.00468406
0.00341024
0.00175048
0.000177846
-0.00134075
-0.00269284
-0.00368948
-0.00446618
-0.00499731
-0.00532902
-0.0054378
-0.00539293
-0.00520465
-0.0049997
-0.00484354
-0.00458222
-0.00429783
-0.00406871
-0.00379643
-0.00350236
-0.00319164
-0.00286689
-0.0025828
-0.00230049
-0.0020325
-0.00177953
-0.00156884
-0.00137228
-0.00119037
-0.0011568
-0.00143033
0.00362136
0.0040618
0.00559898
0.00721338
0.00861873
0.00955462
0.00932714
0.00804308
0.00683982
0.00505751
0.00371118
0.00195816
0.000289144
-0.00128303
-0.0027812
-0.00380027
-0.00464934
-0.00523968
-0.00558421
-0.00570273
-0.00567303
-0.00548551
-0.00527985
-0.00506829
-0.00475052
-0.00452087
-0.00434267
-0.00411698
-0.00386379
-0.00355443
-0.00320923
-0.00288747
-0.00257395
-0.00227638
-0.00199846
-0.00176113
-0.00153844
-0.00126439
-0.00084905
-0.000284779
0.00313186
0.0039644
0.00558824
0.00747735
0.00900568
0.0101098
0.00984826
0.00820511
0.00718893
0.00538499
0.00407973
0.00225164
0.000423231
-0.00118778
-0.00282002
-0.00394441
-0.00482202
-0.00541864
-0.00577208
-0.00594538
-0.00595634
-0.00582956
-0.00568696
-0.00542006
-0.00503551
-0.00481637
-0.00464151
-0.00444828
-0.00420493
-0.00388466
-0.00352006
-0.00317754
-0.00284653
-0.00252983
-0.00223038
-0.00196517
-0.00172938
-0.0015042
-0.00142328
-0.00148648
0.00280533
0.00374603
0.00551436
0.00769934
0.00938079
0.0106568
0.0103853
0.00847451
0.00760709
0.00578925
0.00449206
0.00262535
0.000596631
-0.00107309
-0.00281099
-0.00405153
-0.00494662
-0.00558107
-0.005993
-0.00622235
-0.00623234
-0.00618958
-0.00611529
-0.00582827
-0.00545497
-0.00524362
-0.00502842
-0.00480055
-0.00452662
-0.0041892
-0.0038112
-0.00346599
-0.00312821
-0.00280798
-0.00250024
-0.00222577
-0.00198299
-0.00169119
-0.00129595
-0.000816458
0.00239806
0.00343289
0.00529102
0.00783463
0.00966914
0.011208
0.0109592
0.0085556
0.00780096
0.0063362
0.00490352
0.00304813
0.000833753
-0.000912184
-0.00267519
-0.0040366
-0.00502212
-0.0057643
-0.00626751
-0.00652129
-0.00653022
-0.00655414
-0.00649241
-0.00622342
-0.00595372
-0.00575328
-0.00548185
-0.00519864
-0.00488242
-0.00451947
-0.00413662
-0.00379807
-0.00345953
-0.00314764
-0.00283656
-0.0025506
-0.00228309
-0.00198954
-0.00178603
-0.0016349
0.00151797
0.00301036
0.00486864
0.00779162
0.00987368
0.0117101
0.0116011
0.00843231
0.00792322
0.00695417
0.00540739
0.00353991
0.00114569
-0.000643679
-0.00242633
-0.00396382
-0.00510036
-0.00597214
-0.00657226
-0.00685889
-0.00690664
-0.0069555
-0.00685792
-0.00661638
-0.00646307
-0.0062877
-0.00598309
-0.00566356
-0.00529721
-0.00490155
-0.00450646
-0.00416309
-0.0038161
-0.00350455
-0.00317456
-0.00287302
-0.00255853
-0.00219643
-0.00181195
-0.00139917
0.000677826
0.00241877
0.00423624
0.00754771
0.00997964
0.0120844
0.0124009
0.00830725
0.00816233
0.00768157
0.00621814
0.00413725
0.00166531
-0.000317228
-0.00217972
-0.00387524
-0.005172
-0.00617256
-0.00684978
-0.00717989
-0.00734795
-0.00745642
-0.00737462
-0.00716115
-0.00705376
-0.00685297
-0.00652315
-0.00616396
-0.00574049
-0.00530823
-0.00489402
-0.00451705
-0.0041344
-0.00380753
-0.00346027
-0.0031528
-0.00278881
-0.00241547
-0.0020831
-0.00183868
-0.000764813
0.00155385
0.00332035
0.00701233
0.00989102
0.0123686
0.0133947
0.00844543
0.00854325
0.00861519
0.0073422
0.00498991
0.00238639
8.52329e-05
-0.0019523
-0.00377907
-0.00522955
-0.00631336
-0.00706229
-0.00749574
-0.00786707
-0.00808828
-0.00806542
-0.00787134
-0.00776147
-0.00747245
-0.007136
-0.00671391
-0.00624142
-0.00577046
-0.00532177
-0.00490073
-0.00449792
-0.00416434
-0.00381477
-0.00350228
-0.00310988
-0.00272593
-0.00233405
-0.00201116
-0.00209692
0.000326127
0.00204183
0.00610357
0.00955012
0.0124383
0.014706
0.00911898
0.00907662
0.00978592
0.00869821
0.00616017
0.00322119
0.000691318
-0.00172435
-0.00366621
-0.00528473
-0.00643589
-0.00728997
-0.00785024
-0.00839185
-0.00869968
-0.00877407
-0.00869989
-0.00857342
-0.00820248
-0.00785843
-0.00736523
-0.00686379
-0.00636459
-0.00590611
-0.00548022
-0.00509081
-0.00475909
-0.00438451
-0.00402839
-0.00358338
-0.003172
-0.00273878
-0.00239076
-0.00435557
-0.00147565
0.000220385
0.00459594
0.00879866
0.012285
0.0163145
0.0106532
0.00974295
0.0111883
0.0103596
0.00772542
0.00435747
0.00147307
-0.00143665
-0.00352552
-0.0052868
-0.0065737
-0.00756562
-0.00827244
-0.00890366
-0.00927996
-0.00947865
-0.00951083
-0.00938931
-0.00901315
-0.00863291
-0.00811194
-0.00761851
-0.0071161
-0.00667939
-0.00626154
-0.00588339
-0.00548789
-0.00502946
-0.00455885
-0.00402508
-0.00359032
-0.00316522
-0.00286027
-0.00676468
-0.00385097
-0.00234867
0.00216962
0.00747353
0.0117496
0.0182701
0.0130247
0.0108857
0.013167
0.0124559
0.00967546
0.0057922
0.00240968
-0.000983281
-0.0032536
-0.00523782
-0.00675754
-0.00793179
-0.00884557
-0.00954019
-0.00995315
-0.0101926
-0.0102542
-0.0101269
-0.00978955
-0.00940501
-0.00887418
-0.00837938
-0.00786473
-0.00742539
-0.00695577
-0.00652864
-0.00602627
-0.00548925
-0.0049207
-0.00436591
-0.00391971
-0.00351218
-0.00332691
-0.0102451
-0.00712556
-0.00580146
-0.00137671
0.00531911
0.0105597
0.0180587
0.0178072
0.0134491
0.0161264
0.0149973
0.0120227
0.00757649
0.00358669
-0.000251181
-0.00284353
-0.00512493
-0.00695838
-0.00839726
-0.00958556
-0.0103504
-0.0107583
-0.0109798
-0.0110338
-0.0108622
-0.0105615
-0.0101418
-0.00959711
-0.00908566
-0.00854587
-0.00804834
-0.00751757
-0.00705874
-0.0065022
-0.00596212
-0.00537312
-0.00484065
-0.00434988
-0.00395113
-0.00385958
-0.0144008
-0.0114824
-0.010447
-0.00630901
0.00192222
0.00872774
0.0177209
0.0221161
0.0175355
0.0199989
0.0182185
0.0149084
0.00978113
0.00503608
0.000741969
-0.00228849
-0.00488179
-0.00711227
-0.00886496
-0.0103049
-0.0111319
-0.0116038
-0.011873
-0.0119172
-0.0117226
-0.0114372
-0.0109797
-0.010456
-0.00990935
-0.00938474
-0.0088853
-0.00838052
-0.00791306
-0.007359
-0.00681877
-0.00622064
-0.00563355
-0.00500923
-0.00458666
-0.00447523
-0.0200485
-0.0176703
-0.017066
-0.013056
-0.00325444
0.00600379
0.0167285
0.0263734
0.022392
0.0247458
0.0223199
0.0182825
0.0123073
0.00665048
0.00192919
-0.00158021
-0.00458515
-0.0071767
-0.00925604
-0.0108745
-0.011843
-0.0124418
-0.0127762
-0.0128512
-0.0126998
-0.0124232
-0.0119942
-0.0115641
-0.0110626
-0.0106256
-0.0101412
-0.00968107
-0.00919586
-0.00860365
-0.00798756
-0.00730402
-0.00657042
-0.00587693
-0.0053649
-0.00514186
-0.0273282
-0.0258706
-0.0265463
-0.0225175
-0.0112042
0.00176155
0.015108
0.0296678
0.0285738
0.0303357
0.0271349
0.0219341
0.0150814
0.00844848
0.00328994
-0.000855314
-0.00430998
-0.00731328
-0.00974323
-0.0114542
-0.0125936
-0.0132942
-0.0136908
-0.0137718
-0.0136817
-0.0134164
-0.0130552
-0.012688
-0.0122627
-0.011899
-0.0114033
-0.0109229
-0.010337
-0.00968169
-0.00898862
-0.0082392
-0.00750399
-0.00683765
-0.00625112
-0.00595379
-0.0371047
-0.0370767
-0.0400214
-0.0360413
-0.0231268
-0.00509969
0.0125946
0.0318909
0.0359207
0.0365839
0.0326358
0.0259806
0.0181545
0.010688
0.00489392
-0.00012182
-0.00416109
-0.00769673
-0.0103841
-0.0122295
-0.0135219
-0.0142551
-0.0146722
-0.0147201
-0.0146739
-0.0143602
-0.0140062
-0.0136053
-0.0131947
-0.012784
-0.0122832
-0.0117918
-0.0111827
-0.0105437
-0.00985846
-0.00915716
-0.00848117
-0.00782945
-0.00721278
-0.0068782
-0.0504167
-0.0527169
-0.058992
-0.0556149
-0.0406107
-0.0163156
0.0081425
0.0323271
0.043162
0.0440225
0.039068
0.0308619
0.0220613
0.0136758
0.0068644
0.000811592
-0.00406045
-0.00809511
-0.0110518
-0.0131748
-0.0145651
-0.0154045
-0.015896
-0.0159768
-0.0159567
-0.0155724
-0.0151589
-0.014661
-0.0142085
-0.0137449
-0.0132744
-0.0127997
-0.0122215
-0.0116019
-0.0109432
-0.0102619
-0.00958628
-0.00890703
-0.00825763
-0.00790534
-0.0675482
-0.0745638
-0.0858756
-0.0842984
-0.066304
-0.0342313
1.67292e-05
0.030491
0.0486397
0.0522553
0.0462402
0.0366002
0.026852
0.017277
0.00920112
0.00221718
-0.0035766
-0.00809479
-0.0115044
-0.0140356
-0.0156625
-0.0168171
-0.0174999
-0.0177037
-0.0177353
-0.0172881
-0.0168492
-0.0163021
-0.0158192
-0.0153095
-0.0148127
-0.0142809
-0.0135968
-0.0128951
-0.0121951
-0.0114723
-0.010761
-0.0100395
-0.00936797
-0.00901598
-0.0926543
-0.106022
-0.126699
-0.126946
-0.104654
-0.0622323
-0.0143631
0.0254029
0.0514123
0.0595628
0.0532645
0.0424627
0.0316267
0.0209443
0.0117952
0.00396916
-0.00252999
-0.00763833
-0.0116483
-0.0146461
-0.0166461
-0.0182114
-0.0190845
-0.0194138
-0.0195252
-0.0191276
-0.0188005
-0.0182498
-0.0177307
-0.0171211
-0.0165192
-0.0158509
-0.0150669
-0.0143045
-0.0135306
-0.0127939
-0.0120801
-0.0113249
-0.0106367
-0.0102788
-0.134767
-0.157311
-0.194282
-0.194457
-0.163149
-0.104587
-0.0381129
0.0150327
0.0506223
0.0647325
0.0592016
0.0475523
0.0355857
0.0241937
0.0141031
0.00539207
-0.00150078
-0.00719188
-0.0116254
-0.015001
-0.0172656
-0.0190974
-0.0200781
-0.020616
-0.0208838
-0.0207053
-0.0205781
-0.0200783
-0.0195882
-0.0189328
-0.018307
-0.0175804
-0.0168176
-0.0160813
-0.0153098
-0.0145937
-0.0138123
-0.0129879
-0.0122628
-0.0118603
-0.187087
-0.233082
-0.292981
-0.300093
-0.24811
-0.164536
-0.0739443
-0.00271776
0.0448657
0.0667474
0.0628745
0.0512421
0.0385285
0.0261378
0.0154174
0.00611596
-0.00116629
-0.00718812
-0.0118387
-0.0154378
-0.0178964
-0.0199757
-0.0211749
-0.0220338
-0.0224822
-0.0226116
-0.02268
-0.0223374
-0.0220054
-0.0214085
-0.0208227
-0.0200852
-0.0193903
-0.0186555
-0.0178606
-0.0170425
-0.0160757
-0.0151476
-0.0143208
-0.0138623
-0.25417
-0.337372
-0.432645
-0.437636
-0.357294
-0.239568
-0.121597
-0.0291333
0.0326723
0.0634496
0.0622581
0.0522955
0.0396476
0.0265803
0.0156864
0.00596675
-0.00155541
-0.00791273
-0.0128046
-0.0167635
-0.0196485
-0.0221374
-0.0236118
-0.0248239
-0.0253738
-0.0257629
-0.0259239
-0.0256991
-0.025441
-0.0248632
-0.0242763
-0.0234429
-0.0226825
-0.0217874
-0.020875
-0.0198503
-0.0187239
-0.0176733
-0.0166538
-0.0162205
-0.390436
-0.502316
-0.627078
-0.612408
-0.485484
-0.322854
-0.176611
-0.0639903
0.0129116
0.0515465
0.054827
0.0486038
0.0373888
0.0251409
0.0145161
0.00479783
-0.00279809
-0.00953664
-0.0147793
-0.0193825
-0.0226983
-0.0255847
-0.0272097
-0.0287038
-0.0292068
-0.0296689
-0.0296631
-0.0294871
-0.0291264
-0.0284843
-0.0278064
-0.0268155
-0.0259546
-0.0249054
-0.0239232
-0.0227167
-0.0215182
-0.0203054
-0.0192136
-0.0189202
-0.617219
-0.748284
-0.86831
-0.807513
-0.619975
-0.402186
-0.23438
-0.104297
-0.0158959
0.0282334
0.037644
0.0377933
0.0294208
0.0201847
0.0105022
0.00185953
-0.00565052
-0.0123203
-0.0177747
-0.0224201
-0.0258053
-0.0287716
-0.0302791
-0.0318483
-0.0321832
-0.0327023
-0.0325131
-0.0324606
-0.0319508
-0.0313917
-0.0306385
-0.0297063
-0.0289017
-0.0278613
-0.0268874
-0.0256003
-0.0244
-0.0230613
-0.0220994
-0.0218612
-0.826487
-0.99128
-1.08028
-0.942665
-0.707448
-0.481215
-0.291616
-0.149214
-0.0562309
-0.0086482
0.00916933
0.0174171
0.0135102
0.00917468
0.00154707
-0.0045419
-0.011296
-0.0164717
-0.0214391
-0.0250369
-0.0281666
-0.0305878
-0.0320714