/*--------------------------------*- C++ -*----------------------------------*\
  =========                 |
  \\      /  F ield         | OpenFOAM: The Open Source CFD Toolbox
   \\    /   O peration     | Website:  https://openfoam.org
    \\  /    A nd           | Version:  11
     \\/     M anipulation  |
\*---------------------------------------------------------------------------*/
FoamFile
{
    format      ascii;
    class       volScalarField;
    location    "1";
    object      p;
}
// * * * * * * * * * * * * * * * * * * * * * * * * * * * * * * * * * * * * * //

dimensions      [0 2 -2 0 0 0 0];

internalField   nonuniform List<scalar> 
9600
(
0.0131455
0.0125907
0.0114544
0.0121722
0.00962856
0.00616994
0.00448956
0.00273045
0.000692396
-0.00183027
-0.00436207
-0.00729671
-0.0105415
-0.0141156
-0.0178329
-0.0214619
-0.0249456
-0.0282637
-0.031472
-0.0344429
-0.036843
-0.0384425
-0.0392795
-0.0395215
-0.0392513
-0.0384083
-0.036834
-0.0344558
-0.0315093
-0.0282933
-0.0250517
-0.021961
-0.0189734
-0.0159099
-0.0131621
-0.0107814
-0.00884581
-0.00778487
-0.007872
-0.00700487
0.0132531
0.0120455
0.0102166
0.00665469
0.00462719
0.00263219
0.0016575
0.000161202
-0.00175469
-0.00405987
-0.00680944
-0.00969783
-0.0129507
-0.0164861
-0.0200249
-0.0234089
-0.0265645
-0.0295509
-0.0324609
-0.0351148
-0.0372201
-0.0385622
-0.0392373
-0.0394488
-0.0392531
-0.0384883
-0.0369163
-0.0345102
-0.0314866
-0.0281655
-0.0248209
-0.0215055
-0.0186011
-0.0155223
-0.0128433
-0.0103714
-0.0080986
-0.00626192
-0.00571681
-0.00523325
0.0124132
0.011602
0.0108669
0.0115951
0.00826881
0.00834661
0.00641442
0.00351562
0.000763945
-0.0016181
-0.00464684
-0.00760131
-0.0107922
-0.0142538
-0.0178235
-0.0213158
-0.0246489
-0.0278981
-0.0310946
-0.0341508
-0.0366596
-0.0384218
-0.0394005
-0.039823
-0.0399225
-0.0395093
-0.0383652
-0.0364834
-0.0340565
-0.0313659
-0.0284829
-0.0256961
-0.0227911
-0.0197604
-0.0170756
-0.0143689
-0.0122714
-0.0102393
-0.00787788
-0.00452476
0.0110206
0.0103034
0.00997027
0.00533169
0.00154344
0.000617036
-0.00104107
-0.00235142
-0.00426585
-0.00650195
-0.00892489
-0.0116737
-0.0150912
-0.0187278
-0.0222299
-0.0254789
-0.0284698
-0.0312537
-0.033949
-0.0363435
-0.038165
-0.0391709
-0.0396736
-0.0399038
-0.0396641
-0.0388684
-0.0372422
-0.034737
-0.0315614
-0.0280761
-0.024613
-0.0212151
-0.018405
-0.0155231
-0.0129752
-0.0105564
-0.00860656
-0.00724507
-0.00696524
-0.00636773
0.0100429
0.0112807
0.0120524
0.00884544
0.00804769
0.00807535
0.0074183
0.00420147
0.00103878
-0.00195413
-0.00465063
-0.00777923
-0.0112649
-0.0146115
-0.0180684
-0.0214297
-0.0246348
-0.0278088
-0.0309696
-0.0340218
-0.0366453
-0.038773
-0.0399052
-0.0403945
-0.0406988
-0.0406179
-0.0398546
-0.0384249
-0.0364747
-0.0342808
-0.0318665
-0.0293656
-0.0262726
-0.0231318
-0.0200893
-0.0172007
-0.0145274
-0.0120332
-0.00897842
-0.00567065
0.00953927
0.0115129
0.00895299
0.00470147
0.0015138
-0.000641138
-0.00247385
-0.00443005
-0.0061684
-0.00833879
-0.0108525
-0.0135577
-0.0169111
-0.0208192
-0.0243654
-0.027553
-0.0305005
-0.0332142
-0.0358105
-0.0380671
-0.0396879
-0.0402545
-0.0406513
-0.0408328
-0.0405476
-0.039653
-0.03794
-0.0353209
-0.0319742
-0.0282641
-0.024558
-0.0211889
-0.0186599
-0.0160974
-0.0139062
-0.0117102
-0.00974806
-0.00829692
-0.00744121
-0.00668325
0.0105964
0.0112802
0.00994568
0.00724087
0.00693332
0.00674901
0.00653577
0.00410585
0.000990331
-0.00218634
-0.00528422
-0.00837039
-0.0117332
-0.0153896
-0.0187655
-0.0220458
-0.0251706
-0.0282574
-0.0313485
-0.034329
-0.036962
-0.0395274
-0.0407822
-0.0413582
-0.0416943
-0.0417985
-0.0412995
-0.0402168
-0.0386672
-0.0369103
-0.0348304
-0.0324449
-0.0291177
-0.0256831
-0.0222789
-0.0191619
-0.0164475
-0.0134228
-0.00999853
-0.00758393
0.0121404
0.0106239
0.00863047
0.00514838
0.001547
-0.000616588
-0.00323375
-0.00555071
-0.00756694
-0.00962007
-0.0121583
-0.0151871
-0.0186643
-0.0225499
-0.026295
-0.0295482
-0.0325434
-0.0352679
-0.0378595
-0.0400879
-0.041677
-0.0418294
-0.042069
-0.0421569
-0.041911
-0.0409476
-0.0391303
-0.036393
-0.032864
-0.0289585
-0.0251173
-0.0218227
-0.0195793
-0.0174403
-0.0153449
-0.0132541
-0.0112872
-0.00956541
-0.00834144
-0.00780701
0.0118988
0.0099708
0.00841862
0.00621123
0.00536506
0.00572461
0.00532817
0.00293407
0.000101975
-0.00288573
-0.00610882
-0.00954274
-0.0129199
-0.0165362
-0.0200622
-0.0233471
-0.0264348
-0.0294545
-0.0324509
-0.0353567
-0.0380015
-0.0406956
-0.0422101
-0.0428284
-0.0430172
-0.0431556
-0.0427492
-0.0418594
-0.0405715
-0.0390934
-0.0371838
-0.034748
-0.0312353
-0.0273891
-0.0238946
-0.0207358
-0.0177462
-0.0144617
-0.0116163
-0.00950308
0.0107276
0.00937092
0.00809203
0.00591338
0.00315452
0.000602629
-0.00314659
-0.00641268
-0.00832223
-0.0104712
-0.013153
-0.0163677
-0.0200328
-0.0241058
-0.0279847
-0.0313618
-0.0344713
-0.0373248
-0.0400041
-0.0423018
-0.0437744
-0.0438052
-0.0439232
-0.0439688
-0.0437687
-0.0428109
-0.0409304
-0.0380851
-0.034413
-0.0304172
-0.0265196
-0.0233318
-0.0212049
-0.0193386
-0.0171139
-0.0150618
-0.0131093
-0.0113895
-0.0101702
-0.00917509
0.0100171
0.00901305
0.00775878
0.00581164
0.00369903
0.00312278
0.0028007
0.00159097
-0.00136354
-0.00429651
-0.0075131
-0.0110359
-0.0147461
-0.0183976
-0.0220456
-0.0254263
-0.0285672
-0.03157
-0.0344845
-0.0371875
-0.0398495
-0.042591
-0.0442286
-0.0447821
-0.0448617
-0.0447723
-0.0442922
-0.0434189
-0.0422031
-0.0407788
-0.0388819
-0.0364334
-0.0328103
-0.0287186
-0.0251579
-0.0218838
-0.0185519
-0.0154406
-0.0127994
-0.010947
0.00967892
0.00875299
0.00774707
0.00585314
0.00338164
0.00157213
-0.000938627
-0.00545162
-0.00862177
-0.0111297
-0.0139929
-0.0173794
-0.0212902
-0.0254867
-0.0294049
-0.0329747
-0.0363207
-0.039384
-0.0422245
-0.0446521
-0.0461304
-0.0462398
-0.0462656
-0.0464238
-0.0461766
-0.0452179
-0.0433283
-0.0404893
-0.0367833
-0.0327406
-0.0288307
-0.0256222
-0.0234717
-0.0216543
-0.0196102
-0.0175584
-0.0154255
-0.0135415
-0.0118744
-0.0108826
0.00958032
0.0085535
0.00769786
0.00575589
0.00319792
0.00187171
0.000426606
-0.00150902
-0.00369179
-0.00647036
-0.00953347
-0.013114
-0.0170027
-0.0209379
-0.0247526
-0.0283357
-0.0316764
-0.0347426
-0.0375897
-0.0402274
-0.0428
-0.0452687
-0.046908
-0.0474057
-0.0474023
-0.0468915
-0.0460882
-0.0450119
-0.0436636
-0.0420934
-0.0401168
-0.0375299
-0.033939
-0.0297424
-0.0260455
-0.0227196
-0.0196709
-0.0165788
-0.0140483
-0.0123031
0.00955779
0.00846973
0.00777934
0.00584328
0.00310459
0.00151961
-0.000415778
-0.00392619
-0.00798636
-0.0111616
-0.0145459
-0.0183689
-0.0224316
-0.0266659
-0.0307908
-0.0346744
-0.0382849
-0.0415609
-0.0446128
-0.0471902
-0.0486559
-0.0491195
-0.0492158
-0.0494016
-0.0491313
-0.0482084
-0.0463765
-0.0436063
-0.039946
-0.0358872
-0.0319594
-0.0286205
-0.0261874
-0.024492
-0.0226225
-0.0204305
-0.0181144
-0.0157701
-0.0138624
-0.012653
0.00969588
0.00850097
0.00793201
0.00589322
0.00292541
0.00115606
-0.00040686
-0.00332408
-0.0060889
-0.00892293
-0.0121164
-0.0157857
-0.0198102
-0.0240306
-0.0281996
-0.0321231
-0.0357593
-0.0389834
-0.0418405
-0.0444254
-0.0468553
-0.0489588
-0.0504075
-0.0508919
-0.0506371
-0.049762
-0.0484524
-0.0469301
-0.0452116
-0.0433218
-0.0411578
-0.0384594
-0.0348957
-0.0306096
-0.0269147
-0.0237982
-0.0209406
-0.0178593
-0.0152042
-0.0135216
0.00994453
0.00859983
0.00799951
0.00590576
0.00281552
0.000935818
-0.000539917
-0.00375619
-0.00785056
-0.0114108
-0.0151406
-0.0193039
-0.0237132
-0.0282512
-0.0326568
-0.0368087
-0.040687
-0.0441902
-0.0474413
-0.0501911
-0.0518393
-0.0527282
-0.0529425
-0.0530883
-0.0527428
-0.0517196
-0.0500115
-0.0473945
-0.0438331
-0.0397881
-0.0357725
-0.0322522
-0.0295874
-0.0278034
-0.0256797
-0.0231673
-0.0206368
-0.0181636
-0.0158887
-0.0142401
0.0101716
0.00868419
0.00802932
0.00600321
0.0028793
0.000795811
-0.000759908
-0.00409265
-0.00795657
-0.0113506
-0.0148311
-0.0187935
-0.0231461
-0.0277418
-0.032307
-0.0366373
-0.0406917
-0.0442607
-0.047275
-0.0498614
-0.0521905
-0.0538397
-0.0548976
-0.0552143
-0.0548718
-0.0537024
-0.0518488
-0.0496478
-0.0473372
-0.0449265
-0.0423994
-0.0395442
-0.0359795
-0.0318111
-0.0283493
-0.0253639
-0.0223875
-0.0193936
-0.0168644
-0.0150895
0.0103664
0.00882502
0.00811951
0.00620785
0.0030852
0.000670497
-0.00112906
-0.00445689
-0.0086789
-0.0124322
-0.0163345
-0.0207891
-0.0256071
-0.0305648
-0.0353681
-0.0398837
-0.0440684
-0.0478494
-0.0512743
-0.0541763
-0.0562555
-0.0574541
-0.0577448
-0.0578119
-0.0573726
-0.0560597
-0.0540586
-0.0515655
-0.0482723
-0.0443025
-0.0401825
-0.036413
-0.0333636
-0.0311309
-0.0286304
-0.0259141
-0.0231864
-0.020338
-0.0177745
-0.0159552
0.0106308
0.00903866
0.00822548
0.00643296
0.00323857
0.000539365
-0.00153249
-0.00484606
-0.0093604
-0.0134077
-0.0173928
-0.0218698
-0.026772
-0.031889
-0.0369376
-0.0417476
-0.0462474
-0.0502788
-0.0537076
-0.0564114
-0.0585601
-0.059993
-0.0605789
-0.0606216
-0.0601303
-0.0587006
-0.0564917
-0.053773
-0.0506625
-0.047527
-0.044448
-0.0413187
-0.0377451
-0.033706
-0.0303375
-0.0273658
-0.0244779
-0.0215003
-0.0188171
-0.0169135
0.0109918
0.00926711
0.00831028
0.00671398
0.00346036
0.000415552
-0.00192499
-0.00531735
-0.0100653
-0.0144038
-0.0186028
-0.0233809
-0.0286609
-0.0341362
-0.0394899
-0.0445707
-0.0492794
-0.0534711
-0.0570575
-0.0599692
-0.0622795
-0.0636731
-0.064017
-0.0638859
-0.0632612
-0.0616889
-0.0592845
-0.056378
-0.0530134
-0.049185
-0.0450208
-0.0410125
-0.0376566
-0.0345588
-0.0315262
-0.0285169
-0.0256263
-0.022637
-0.0198979
-0.0179262
0.0114337
0.0095461
0.00850232
0.00704409
0.00372408
0.000326955
-0.00231857
-0.00590212
-0.0108448
-0.0155383
-0.0200537
-0.0251373
-0.0307418
-0.0365294
-0.0422008
-0.0476058
-0.0525992
-0.0570478
-0.0608475
-0.0638498
-0.0661407
-0.0675544
-0.0678539
-0.0675625
-0.0667868
-0.0650746
-0.0624816
-0.0593256
-0.0556638
-0.0517093
-0.0478354
-0.044096
-0.0402668
-0.0365137
-0.0330762
-0.0299067
-0.0269236
-0.0238736
-0.0210471
-0.0189759
0.0119616
0.00989319
0.00878486
0.00737053
0.00396552
0.000211526
-0.0027229
-0.00653151
-0.011731
-0.0168149
-0.0216962
-0.0271265
-0.033096
-0.0392558
-0.045313
-0.0510933
-0.0563989
-0.06112
-0.0651443
-0.0682382
-0.0705722
-0.0720321
-0.072274
-0.071782
-0.0707995
-0.0689362
-0.0661448
-0.062712
-0.0587808
-0.0545524
-0.0502192
-0.0459278
-0.04189
-0.0381593
-0.0346851
-0.0313478
-0.0282715
-0.0252027
-0.0222943
-0.0200782
0.0126256
0.0103931
0.00909755
0.00763997
0.00415573
7.69605e-05
-0.00315014
-0.00715473
-0.0127217
-0.0183068
-0.023599
-0.0294064
-0.0358019
-0.0424011
-0.0488931
-0.0550927
-0.0607516
-0.0657691
-0.0700435
-0.0732756
-0.0756231
-0.0771009
-0.0773268
-0.0766425
-0.0753962
-0.0733569
-0.0703632
-0.0666325
-0.0623518
-0.0577772
-0.0531165
-0.0486038
-0.0443225
-0.0402311
-0.0364986
-0.0329606
-0.0297408
-0.026668
-0.023708
-0.0213053
0.0133992
0.0110065
0.00941296
0.00782967
0.00429802
-9.2541e-05
-0.00364584
-0.00782068
-0.0137784
-0.0200232
-0.0258358
-0.0320621
-0.0389403
-0.0460488
-0.0530258
-0.0596861
-0.0657629
-0.0711067
-0.0756381
-0.0790562
-0.0814245
-0.0828837
-0.0831218
-0.0822792
-0.0807294
-0.0784508
-0.0752198
-0.0711471
-0.0664824
-0.0615361
-0.056496
-0.0515663
-0.0468901
-0.0424796
-0.0384954
-0.034764
-0.0313711
-0.0282673
-0.0252924
-0.0227215
0.014287
0.0116757
0.00973604
0.0079492
0.00439527
-0.000324483
-0.0042992
-0.00858342
-0.0148652
-0.0219325
-0.0284804
-0.0352253
-0.0426239
-0.0502973
-0.0578264
-0.0649964
-0.0715403
-0.0772707
-0.0820769
-0.0856942
-0.0881056
-0.0895128
-0.0897686
-0.088816
-0.0869672
-0.0843643
-0.0808187
-0.0763758
-0.0713005
-0.0659182
-0.0604417
-0.0550197
-0.0499016
-0.0450788
-0.0407422
-0.0367964
-0.033218
-0.0300242
-0.0269921
-0.0242951
0.0152367
0.01235
0.0100402
0.0080034
0.00446374
-0.000618813
-0.00521818
-0.00968146
-0.0161085
-0.0240116
-0.0315458
-0.0389675
-0.0469548
-0.0552703
-0.0634304
-0.07117
-0.0782493
-0.0844312
-0.0895572
-0.0934066
-0.095886
-0.0972183
-0.0974319
-0.0963839
-0.0942598
-0.0912395
-0.0872732
-0.0824146
-0.0769076
-0.0710664
-0.0651449
-0.059199
-0.0535144
-0.0481948
-0.0434422
-0.0391795
-0.0353271
-0.0319351
-0.0287577
-0.0259274
0.0163117
0.0131241
0.010417
0.00807908
0.00444569
-0.0010687
-0.00643527
-0.0112927
-0.0178843
-0.0264577
-0.035083
-0.0433672
-0.0520544
-0.0610989
-0.069981
-0.0783806
-0.086076
-0.0927946
-0.0983052
-0.102395
-0.104992
-0.10628
-0.106375
-0.105163
-0.102741
-0.0992519
-0.0947948
-0.0894248
-0.083406
-0.0770254
-0.0705885
-0.064136
-0.0580034
-0.0521591
-0.0468844
-0.0421007
-0.0377524
-0.0340271
-0.0306138
-0.0274964
0.0175117
0.0140107
0.0108311
0.00812264
0.00427835
-0.00173593
-0.00800274
-0.0135125
-0.0204545
-0.0296792
-0.0393427
-0.0485418
-0.0580361
-0.067938
-0.0776709
-0.0868455
-0.0952585
-0.102616
-0.108585
-0.112928
-0.115636
-0.116838
-0.116841
-0.115472
-0.112757
-0.108795
-0.103774
-0.0978147
-0.0912148
-0.0842896
-0.0774148
-0.0706868
-0.0643184
-0.0581619
-0.0521738
-0.0465896
-0.0414512
-0.0369851
-0.0330547
-0.0295302
0.0190255
0.0151024
0.0113296
0.00803808
0.00385729
-0.0026072
-0.00980521
-0.0160914
-0.0236005
-0.0337199
-0.0445714
-0.0547468
-0.0651032
-0.0760086
-0.0867843
-0.0968679
-0.106076
-0.114142
-0.120692
-0.125427
-0.128171
-0.129112
-0.128528
-0.126802
-0.123707
-0.119262
-0.11369
-0.10715
-0.0999648
-0.0922552
-0.0843955
-0.0763434
-0.0685868
-0.0612334
-0.0549155
-0.0493158
-0.0438288
-0.0387466
-0.0341545
-0.0301017
0.0206449
0.016176
0.0117221
0.00771956
0.00305442
-0.00406807
-0.0127889
-0.0205028
-0.0285432
-0.0393042
-0.0514203
-0.0628451
-0.0741049
-0.085996
-0.0979231
-0.109036
-0.119025
-0.127718
-0.134868
-0.140154
-0.143639
-0.145439
-0.145449
-0.143128
-0.139377
-0.134438
-0.128353
-0.121332
-0.113782
-0.105899
-0.0981662
-0.0904171
-0.0829311
-0.0755672
-0.0678749
-0.0602491
-0.0532888
-0.0469954
-0.0413947
-0.0365792
0.0224073
0.0173526
0.0121756
0.00741589
0.0023581
-0.00500815
-0.0148914
-0.0247227
-0.0341265
-0.0457498
-0.0594953
-0.0726446
-0.08506
-0.0979916
-0.111258
-0.1237
-0.13468
-0.143993
-0.151353
-0.156408
-0.159152
-0.159433
-0.157974
-0.15581
-0.15264
-0.14742
-0.14064
-0.132496
-0.123529
-0.113772
-0.103796
-0.0937173
-0.0838252
-0.0746798
-0.066632
-0.0598275
-0.0529862
-0.0461677
-0.0400397
-0.0347429
0.0240506
0.0181584
0.0117393
0.00523578
-0.00143102
-0.0100379
-0.0215738
-0.0332562
-0.0435611
-0.0555709
-0.0705935
-0.0857772
-0.0997197
-0.113677
-0.128196
-0.14212
-0.15465
-0.165466
-0.174489
-0.18143
-0.186073
-0.188639
-0.188999
-0.185967
-0.180037
-0.173602
-0.166858
-0.159053
-0.150446
-0.141231
-0.13174
-0.122252
-0.112417
-0.102583
-0.0921747
-0.0819919
-0.0725722
-0.0644293
-0.056941
-0.05059
0.0265838
0.0203908
0.0133733
0.00592706
-0.00177188
-0.0112521
-0.0242138
-0.0391687
-0.0530821
-0.0669484
-0.083664
-0.101822
-0.118289
-0.13345
-0.148897
-0.163884
-0.177036
-0.187645
-0.195856
-0.201344
-0.203782
-0.203353
-0.200759
-0.197241
-0.193708
-0.188592
-0.180695
-0.170434
-0.159022
-0.146661
-0.133875
-0.121288
-0.109154
-0.0977623
-0.0871052
-0.077403
-0.0682586
-0.0588966
-0.0493402
-0.0410958
0.0257057
0.0165004
0.00686701
-0.00340941
-0.014097
-0.0253291
-0.0392118
-0.05602
-0.0722344
-0.0870396
-0.104178
-0.124439
-0.144117
-0.161674
-0.179103
-0.196711
-0.212893
-0.226416
-0.237608
-0.246237
-0.252626
-0.256144
-0.256766
-0.254315
-0.24716
-0.237101
-0.22754
-0.218956
-0.208851
-0.197621
-0.185408
-0.173163
-0.160504
-0.147388
-0.134053
-0.12064
-0.108206
-0.0972447
-0.0875108
-0.0790188
0.031323
0.0235143
0.0141339
0.00236011
-0.0115155
-0.0270434
-0.045089
-0.0663578
-0.0885035
-0.108393
-0.127718
-0.149721
-0.173315
-0.194178
-0.211753
-0.228302
-0.244472
-0.257888
-0.267255
-0.272572
-0.274777
-0.273808
-0.269763
-0.263568
-0.257154
-0.251083
-0.2429
-0.231598
-0.217169
-0.201841
-0.1868
-0.172217
-0.158027
-0.14429
-0.13073
-0.116872
-0.103121
-0.089515
-0.0761693
-0.0636381
0.0179143
0.00195092
-0.0144211
-0.0310623
-0.0483941
-0.0661231
-0.0847787
-0.105333
-0.129827
-0.155452
-0.178973
-0.201675
-0.227036
-0.253662
-0.277586
-0.298137
-0.317084
-0.335252
-0.350227
-0.360998
-0.367822
-0.371771
-0.372813
-0.36991
-0.361774
-0.347865
-0.33183
-0.316422
-0.302687
-0.289
-0.27344
-0.255989
-0.237741
-0.220569
-0.204745
-0.190164
-0.1764
-0.163639
-0.151802
-0.14103
0.0430392
0.0298168
0.0111551
-0.0113857
-0.0375318
-0.0657419
-0.0948895
-0.124073
-0.153483
-0.183796
-0.213338
-0.240892
-0.267248
-0.294531
-0.320881
-0.343344
-0.360586
-0.374997
-0.386857
-0.394771
-0.397437
-0.395121
-0.389623
-0.381518
-0.372389
-0.36357
-0.353809
-0.342201
-0.327811
-0.31103
-0.293205
-0.275646
-0.258546
-0.241172
-0.222503
-0.202567
-0.181673
-0.160437
-0.140501
-0.123765
-0.0439332
-0.0733547
-0.102265
-0.131396
-0.160391
-0.190994
-0.223242
-0.257524
-0.292833
-0.329517
-0.365984
-0.401642
-0.43579
-0.468402
-0.498345
-0.525461
-0.549403
-0.56983
-0.584919
-0.594102
-0.597839
-0.598106
-0.594203
-0.584663
-0.568802
-0.548865
-0.526086
-0.502409
-0.479355
-0.457559
-0.437247
-0.418843
-0.40193
-0.386319
-0.371368
-0.35757
-0.344302
-0.331065
-0.316813
-0.300897
0.0439776
0.00533091
-0.039849
-0.0851475
-0.129033
-0.172286
-0.215573
-0.258788
-0.301729
-0.343915
-0.38469
-0.423716
-0.460108
-0.494248
-0.525405
-0.553668
-0.578284
-0.598808
-0.614083
-0.623693
-0.62704
-0.624643
-0.617059
-0.60482
-0.587766
-0.567285
-0.544544
-0.520796
-0.495756
-0.46937
-0.441581
-0.414558
-0.389589
-0.368115
-0.350586
-0.338309
-0.331669
-0.332051
-0.338126
-0.346363
-0.403996
-0.450531
-0.499961
-0.560005
-0.627716
-0.695716
-0.762209
-0.825518
-0.884328
-0.936689
-0.98303
-1.02682
-1.07086
-1.11352
-1.15277
-1.18582
-1.2122
-1.23059
-1.24109
-1.24355
-1.23847
-1.2256
-1.20453
-1.17483
-1.13795
-1.09444
-1.04692
-0.996149
-0.944013
-0.890966
-0.838584
-0.786879
-0.737261
-0.689531
-0.645317
-0.604342
-0.568129
-0.536186
-0.51038
-0.489021
-0.0026373
-0.00158956
-0.00893112
-0.00364318
-0.00523233
-0.00243607
-0.00320668
-0.00231562
-0.00213267
-0.00143546
-0.000810317
-0.000311031
0.000114796
0.00041582
0.000529853
0.000651528
0.000871526
0.00112235
0.00132286
0.00150364
0.00181518
0.00219821
0.00243039
0.0025032
0.00286639
0.00298301
0.00289651
0.00273054
0.00270978
0.00256704
0.00222807
0.00212811
0.00217889
0.00209727
0.00235102
0.00242341
0.00262803
0.0018327
0.00246622
0.00209637
-0.00810958
-0.00335526
-0.0076484
-0.00504021
-0.00504037
-0.00295276
-0.00280641
-0.00221769
-0.00182448
-0.00125955
-0.000789327
-0.000400292
-2.85838e-05
0.000226368
0.000243453
0.000254624
0.000439645
0.000735056
0.00102111
0.00133647
0.00174003
0.00200797
0.00212711
0.0020707
0.00212829
0.00216316
0.00209048
0.00207249
0.00209075
0.00207555
0.00182419
0.00179132
0.00188751
0.00188857
0.00208752
0.0023275
0.00254078
0.00234568
0.00181894
0.00222504
-0.00131221
-0.00357478
-0.00710017
-0.00577251
-0.00480973
-0.00325874
-0.00257425
-0.00212453
-0.00165647
-0.00112802
-0.000727294
-0.000394479
-0.000100893
6.35955e-05
2.49222e-05
-6.45868e-05
1.57597e-05
0.000281349
0.000648268
0.00102857
0.00141037
0.00163096
0.00165049
0.00162654
0.00150046
0.00161553
0.0015247
0.00156823
0.00159427
0.001684
0.00159602
0.00164703
0.00174967
0.00173409
0.00189857
0.00223401
0.00248561
0.0025785
0.00278324
0.00410678
-0.00705453
-0.00496583
-0.00683021
-0.00614908
-0.00469713
-0.00335339
-0.00265609
-0.0020644
-0.00154929
-0.00101138
-0.000612192
-0.000295757
-7.1892e-05
1.8862e-05
-6.19496e-05
-0.000204267
-0.000211045
-1.32735e-05
0.000312191
0.000662352
0.000986556
0.00122816
0.00128446
0.00123134
0.00107286
0.00115863
0.00112382
0.00118113
0.00126923
0.00138532
0.00143783
0.0015954
0.00166311
0.0014816
0.00170685
0.0021807
0.00236182
0.00228824
0.00230015
0.00302298
-0.0031609
-0.00495802
-0.00670345
-0.00635225
-0.00488535
-0.00377259
-0.00301744
-0.00206305
-0.00145115
-0.000873232
-0.000435296
-0.000135974
4.05631e-05
7.37852e-05
-3.02605e-05
-0.000202331
-0.000253487
-0.000118018
8.84601e-05
0.000345703
0.000594918
0.000793891
0.000944958
0.000874005
0.000833518
0.000773458
0.000824007
0.000916787
0.00111175
0.00123236
0.0013278
0.00147357
0.00144511
0.00121404
0.00158358
0.00208926
0.00229326
0.0022979
0.00241591
0.00266924
-0.0069995
-0.00593807
-0.00677222
-0.00651701
-0.00536952
-0.00468465
-0.00334275
-0.00205556
-0.00135435
-0.000731727
-0.000216874
9.9311e-05
0.000244976
0.000226844
8.38295e-05
-0.000100173
-0.000175018
-0.000119708
-3.5786e-05
0.00011773
0.000275778
0.000449149
0.000608296
0.000568131
0.000515877
0.000311611
0.00043721
0.000689587
0.0010481
0.0012177
0.00124415
0.00126782
0.00110747
0.00098666
0.00148164
0.00197521
0.00219186
0.00221737
0.00242152
0.00300468
-0.0052605
-0.00606707
-0.00693374
-0.00675218
-0.0058663
-0.00510139
-0.00351977
-0.00203725
-0.00122669
-0.000544508
3.11504e-05
0.000383279
0.000517654
0.000461154
0.000279385
9.2172e-05
-1.4101e-05
-5.23562e-05
-6.39231e-05
-2.838e-05
4.03587e-05
0.000169158
0.000311454
0.000319371
5.80822e-05
-0.000141377
5.36747e-05
0.000476542
0.000926982
0.00105583
0.000969536
0.00101743
0.000793611
0.000797434
0.001393
0.00187712
0.00209376
0.00212478
0.00224107
0.00213312
-0.00766608
-0.00690823
-0.00724931
-0.00709205
-0.00618158
-0.00482899
-0.00358196
-0.00207495
-0.00108204
-0.000317717
0.000326875
0.000716255
0.000850494
0.000763039
0.000547638
0.000334731
0.000183182
6.66548e-05
-3.17046e-05
-9.25586e-05
-0.000114187
-0.000115103
-1.08008e-05
-4.08049e-05
-0.000370608
-0.000468326
-0.00029244
0.000105389
0.000419744
0.000380452
0.000448277
0.000694084
0.000483559
0.000660972
0.00131689
0.00174734
0.00189967
0.0019979
0.00234007
0.00282567
-0.00730094
-0.00758902
-0.00759377
-0.00745606
-0.00640491
-0.00453564
-0.00353313
-0.00211491
-0.000928203
-5.71111e-05
0.000662652
0.00110722
0.00124969
0.00113187
0.000873621
0.000628215
0.000416608
0.000226753
4.54268e-05
-0.000123665
-0.000275452
-0.000296177
-0.000220594
-0.000409602
-0.000724977
-0.000849689
-0.000748204
-0.000521192
-0.000424433
-0.000439528
3.3214e-05
0.000365112
0.000180128
0.000532464
0.00122248
0.00153883
0.00159892
0.00175553
0.00202216
0.00199245
-0.00880894
-0.00856551
-0.00799251
-0.0077311
-0.00644394
-0.00435378
-0.00341747
-0.00211221
-0.000751404
0.000260153
0.00105432
0.0015475
0.00170425
0.00156373
0.00126706
0.000958732
0.000684966
0.000422714
0.000142179
-0.000156381
-0.000364683
-0.000359281
-0.000445756
-0.000860975
-0.00124802
-0.00145292
-0.00133506
-0.00117978
-0.00115853
-0.000954849
-0.000263728
3.28911e-05
-7.78293e-05
0.000405013
0.00107371
0.00126265
0.00128264
0.00151657
0.00197306
0.0024468
-0.00949498
-0.00932695
-0.00834796
-0.0078133
-0.0062459
-0.00431068
-0.00331862
-0.00207018
-0.000548956
0.000624844
0.00150631
0.00205512
0.00221879
0.00205381
0.00170932
0.00133281
0.000991953
0.000647869
0.000262386
-0.000105641
-0.000308892
-0.000445481
-0.000911555
-0.00159305
-0.0020512
-0.00222556
-0.00207784
-0.00189252
-0.00177578
-0.00131065
-0.000557567
-0.000274374
-0.000311512
0.000238675
0.000878838
0.000983988
0.000978872
0.00128104
0.00166314
0.00188709
-0.0102786
-0.00997893
-0.00869806
-0.00776932
-0.00617143
-0.00452367
-0.00333272
-0.00197129
-0.000292481
0.00105043
0.00203658
0.00263871
0.00280515
0.00260593
0.00221238
0.00176784
0.00136238
0.000939415
0.000473445
6.58122e-05
-0.000248061
-0.000753544
-0.00165392
-0.00248422
-0.00295637
-0.0030929
-0.00296394
-0.00267253
-0.00232414
-0.00173128
-0.000946653
-0.000618052
-0.000572953
4.05925e-05
0.00063149
0.000694193
0.000743626
0.00109329
0.00149194
0.00176522
-0.0111087
-0.0105306
-0.00896338
-0.00781491
-0.00647157
-0.0049549
-0.00342194
-0.00179114
3.92614e-05
0.00154843
0.00265845
0.00332442
0.00349665
0.00325696
0.00281051
0.00231085
0.00184536
0.00133178
0.000762265
0.000214292
-0.000412718
-0.00135631
-0.00243387
-0.00320897
-0.00365728
-0.00386748
-0.0037176
-0.00327483
-0.00280204
-0.00221158
-0.00143884
-0.00107246
-0.000867553
-0.000160414
0.000361862
0.000393991
0.000497743
0.000883719
0.00126503
0.00144728
-0.0119151
-0.0110511
-0.00937749
-0.00812055
-0.00698257
-0.00532642
-0.00346029
-0.00153914
0.000447208
0.00212617
0.00336894
0.00411426
0.00431521
0.00404445
0.00353903
0.00298573
0.00241881
0.00174662
0.000971744
0.000130785
-0.000857485
-0.00199268
-0.0029706
-0.00362311
-0.00408359
-0.00444593
-0.0042074
-0.00367085
-0.00320583
-0.00259496
-0.00182343
-0.00145514
-0.00108292
-0.000332098
7.90176e-05
6.00486e-05
0.000208391
0.00062185
0.000983141
0.00114066
-0.0126391
-0.0115711
-0.00996083
-0.00865598
-0.00743785
-0.00540723
-0.00333942
-0.00122388
0.000933744
0.00279356
0.00418375
0.00501375
0.00526039
0.00497155
0.00439409
0.00373544
0.00298046
0.00204468
0.000983093
-0.000168065
-0.00135192
-0.00245716
-0.00336207
-0.0038715
-0.00440405
-0.00477494
-0.0044325
-0.00399865
-0.00372032
-0.00303158
-0.00214392
-0.00181203
-0.00140214
-0.000622581
-0.000254858
-0.000268823
-9.32497e-05
0.000323544
0.000654804
0.000801008
-0.0132957
-0.0123284
-0.010687
-0.00924729
-0.00778667
-0.00546166
-0.00311496
-0.000829307
0.00150891
0.00355347
0.00512355
0.00605018
0.00632318
0.00599072
0.00530843
0.0044776
0.00347131
0.00223289
0.000898016
-0.000448103
-0.00168288
-0.00283067
-0.00361613
-0.00405651
-0.00460467
-0.00482704
-0.00458379
-0.00456822
-0.00444828
-0.00358024
-0.00277436
-0.00253405
-0.00197365
-0.00112392
-0.000737998
-0.000690455
-0.000457713
-1.81443e-05
0.000293749
0.000436641
-0.0139877
-0.0130763
-0.0113381
-0.00962188
-0.00802193
-0.00559578
-0.00283569
-0.00033964
0.0021907
0.0044205
0.0062021
0.0072114
0.00746721
0.00706772
0.00627521
0.00524686
0.00398771
0.00245906
0.000913351
-0.000558319
-0.00189415
-0.00304194
-0.00376879
-0.00426479
-0.0048206
-0.00498992
-0.00506721
-0.00540066
-0.00515688
-0.00431845
-0.00376349
-0.00348457
-0.00272465
-0.00181449
-0.00140466
-0.00128233
-0.000923166
-0.000428734
-0.000108957
4.784e-05
-0.0146941
-0.0137083
-0.0118788
-0.0097944
-0.008083
-0.00552261
-0.00245297
0.000257392
0.00298831
0.0054241
0.00739138
0.00844758
0.00867109
0.00822242
0.00735147
0.00613256
0.00462235
0.00282419
0.00105206
-0.000552153
-0.00196416
-0.00315884
-0.0039691
-0.00462031
-0.00524665
-0.00548508
-0.00581987
-0.00618363
-0.00584891
-0.00514712
-0.00464862
-0.00431899
-0.00354273
-0.00268307
-0.00219704
-0.00194145
-0.00147393
-0.000917045
-0.000561218
-0.000382404
-0.0155406
-0.0143289
-0.0124287
-0.00997108
-0.0081061
-0.005216
-0.00195774
0.00096195
0.0039141
0.0065668
0.00869999
0.00977637
0.0099806
0.00949933
0.0085536
0.00713749
0.00536492
0.00329735
0.00133207
-0.000408869
-0.00196576
-0.00327236
-0.0041801
-0.00499312
-0.00566716
-0.00604006
-0.00650828
-0.00683963
-0.00660665
-0.0059505
-0.00544378
-0.00498546
-0.00421585
-0.00350373
-0.00305179
-0.00266801
-0.0021064
-0.00149425
-0.00107983
-0.000861259
-0.016471
-0.0149167
-0.0129228
-0.0101635
-0.00808259
-0.00486084
-0.00139328
0.00181417
0.00503139
0.00788157
0.0101568
0.0112871
0.0114697
0.0109244
0.00984659
0.00824856
0.00622874
0.00390982
0.00175377
-0.000194121
-0.00192553
-0.00328897
-0.00431242
-0.00524531
-0.00597275
-0.00651378
-0.00704658
-0.00743852
-0.00724623
-0.00654079
-0.00603526
-0.00542744
-0.00470483
-0.00415318
-0.00377663
-0.00339318
-0.00279249
-0.0021418
-0.00166485
-0.00140064
-0.0174008
-0.0155012
-0.0133574
-0.0103421
-0.00791235
-0.00445044
-0.000716713
0.00289226
0.00643891
0.00942885
0.0118176
0.0130333
0.0131775
0.0125496
0.011304
0.00953426
0.00723647
0.00465404
0.00225629
7.62435e-05
-0.00176118
-0.00323712
-0.00445828
-0.00549392
-0.00629473
-0.00689697
-0.00748209
-0.00788675
-0.00749246
-0.00676489
-0.00634656
-0.00585795
-0.00525514
-0.00477757
-0.00446274
-0.00410421
-0.00350026
-0.00283686
-0.00232443
-0.00203317
-0.018279
-0.016063
-0.0138055
-0.0105154
-0.00756214
-0.00386088
0.0002299
0.0041989
0.00813317
0.0112745
0.0137311
0.0150618
0.015181
0.0144765
0.0130674
0.0110612
0.00837148
0.00548935
0.00281123
0.000432858
-0.00156194
-0.00325132
-0.00459903
-0.00573148
-0.00657977
-0.00725143
-0.00792741
-0.00820758
-0.00773692
-0.00723655
-0.00697421
-0.00657667
-0.00594676
-0.00544507
-0.00515697
-0.00481784
-0.00421622
-0.00355977
-0.00303942
-0.00274042
-0.019214
-0.0166319
-0.0142389
-0.0107087
-0.00709075
-0.00307129
0.00152969
0.00572313
0.0100033
0.0134638
0.0159651
0.0174432
0.0175614
0.0168036
0.0152309
0.0128351
0.00961044
0.00641481
0.00348892
0.000900265
-0.00132497
-0.00316732
-0.00465424
-0.00591248
-0.00684469
-0.00763703
-0.00831108
-0.00860343
-0.00841239
-0.00818299
-0.00791963
-0.00734758
-0.00662182
-0.00613809
-0.0058503
-0.0055109
-0.00491023
-0.00427064
-0.00377207
-0.00350405
-0.0203453
-0.0173219
-0.0145808
-0.0108819
-0.00657723
-0.00225136
0.00293148
0.00752236
0.012056
0.0159899
0.0186256
0.020251
0.0203906
0.0195956
0.0177481
0.0147498
0.0109978
0.00748716
0.00431297
0.00148059
-0.000944698
-0.00298472
-0.004695
-0.0060496
-0.00710011
-0.00789188
-0.00866469
-0.00915359
-0.0092334
-0.0091505
-0.00887951
-0.00811371
-0.00730678
-0.00680376
-0.00653221
-0.00620858
-0.00560925
-0.00497862
-0.00452593
-0.0043199
-0.0216638
-0.0181881
-0.0148058
-0.0107106
-0.00594767
-0.00133744
0.00422525
0.00954103
0.0144677
0.0188859
0.0218053
0.0235563
0.0237114
0.0228044
0.0204568
0.0167461
0.0126369
0.00878202
0.00530026
0.0021831
-0.000515166
-0.00280501
-0.0046826
-0.00619366
-0.00732849
-0.00829092
-0.00924116
-0.00977651
-0.0099488
-0.00998944
-0.0096047
-0.00876244
-0.00800711
-0.00755214
-0.0073487
-0.00703589
-0.00640403
-0.00577478
-0.00535004
-0.00518345
-0.0229966
-0.0190963
-0.0150941
-0.0103345
-0.00515795
-2.14008e-05
0.00586705
0.0118611
0.0174098
0.0223106
0.0255783
0.0274439
0.0275456
0.0263211
0.0233341
0.0190372
0.0146583
0.0104438
0.00657405
0.00308788
6.80319e-05
-0.00247919
-0.00461853
-0.00635982
-0.00765771
-0.00884363
-0.00966703
-0.0101718
-0.0105029
-0.0106409
-0.0102755
-0.00957494
-0.00892491
-0.00854452
-0.00836614
-0.00798644
-0.00727972
-0.0066455
-0.00623291
-0.00608428
-0.0241405
-0.0199216
-0.0155228
-0.0101699
-0.00437844
0.00134189
0.00797359
0.014757
0.0209535
0.0263677
0.0300365
0.0320571
0.0320494