/*--------------------------------*- C++ -*----------------------------------*\
  =========                 |
  \\      /  F ield         | OpenFOAM: The Open Source CFD Toolbox
   \\    /   O peration     | Website:  https://openfoam.org
    \\  /    A nd           | Version:  11
     \\/     M anipulation  |
\*---------------------------------------------------------------------------*/
FoamFile
{
    format      ascii;
    class       surfaceScalarField;
    location    "1";
    object      phi;
}
// * * * * * * * * * * * * * * * * * * * * * * * * * * * * * * * * * * * * * //

dimensions      [0 3 -1 0 0 0 0];

internalField   nonuniform List<scalar> 
18960
(
0.0860123
0.00262179
-0.0886341
0.0818657
0.0041466
0.0804537
0.00141198
0.0824546
-0.00200083
0.0858856
-0.00343108
0.0886416
-0.00275597
0.0900632
-0.00142158
0.0906543
-0.000591154
0.0908272
-0.000172866
0.0908646
-3.74075e-05
0.0908518
1.28187e-05
0.0908395
1.23373e-05
0.090836
3.47121e-06
0.0908465
-1.04936e-05
0.0908399
6.60473e-06
0.0907888
5.11083e-05
0.0907155
7.32231e-05
0.0906469
6.86821e-05
0.0905828
6.40284e-05
0.0905217
6.11465e-05
0.0904175
0.000104148
0.0903169
0.000100602
0.090241
7.59466e-05
0.0902007
4.03065e-05
0.0901772
2.34789e-05
0.0901316
4.55745e-05
0.0900758
5.58019e-05
0.0900587
1.70945e-05
0.0900829
-2.42121e-05
0.0901663
-8.33412e-05
0.0902995
-0.000133258
0.0905035
-0.000203987
0.0907462
-0.000242693
0.0911474
-0.000401185
0.09155
-0.000402575
0.0921457
-0.000595665
0.092755
-0.000609324
0.0938928
-0.00113781
0.0950883
-0.00119552
0.00136629
0.093722
0.0873931
0.00357437
-0.0883457
0.0875304
0.00400933
0.0877288
0.00121361
0.0874045
-0.00167653
0.086194
-0.00222063
0.0846924
-0.0012544
0.0839222
-0.00065137
0.0837802
-0.000449107
0.0839837
-0.000376398
0.0844044
-0.000458107
0.0849727
-0.00055544
0.0855469
-0.000561857
0.0861384
-0.000588108
0.0866817
-0.000553768
0.0871974
-0.000509048
0.0876864
-0.000437921
0.0881035
-0.000343852
0.0884494
-0.00027727
0.0886842
-0.000170721
0.0888128
-6.75156e-05
0.0888754
4.15767e-05
0.0888554
0.000120572
0.0887275
0.000203869
0.0885184
0.000249402
0.0882279
0.000314027
0.0878944
0.000379056
0.0875281
0.000422127
0.0871213
0.000423849
0.086726
0.000371151
0.0863305
0.000312102
0.0859537
0.000243594
0.0856408
0.00010889
0.085208
0.00019012
0.0849107
-0.000103903
0.0844828
2.52944e-05
0.0840377
-0.000150527
0.083397
3.13592e-05
0.0826781
-0.000418933
0.0817592
-0.000276631
-0.00126404
0.0843896
0.0868198
0.00496844
-0.0882139
0.0858911
0.00493811
0.0859939
0.00111077
0.0864343
-0.0021169
0.0875298
-0.00331613
0.0890482
-0.0027728
0.0901902
-0.00179343
0.0908429
-0.0011018
0.0911935
-0.000726922
0.091302
-0.000566663
0.0912259
-0.000479292
0.0911443
-0.000480321
0.091044
-0.000487801
0.0909709
-0.00048067
0.0909138
-0.000451976
0.0908534
-0.000377464
0.0908071
-0.000297576
0.0907337
-0.000203861
0.090679
-0.000116038
0.0906435
-3.19805e-05
0.0905656
0.000119476
0.0904716
0.000214591
0.0903918
0.00028367
0.0903017
0.000339494
0.0902532
0.000362473
0.0902392
0.000393059
0.0902664
0.000394957
0.0903586
0.0003316
0.0904665
0.00026329
0.0906392
0.000139416
0.0908056
7.72051e-05
0.0910463
-0.000131818
0.0912832
-4.67584e-05
0.0917099
-0.000530622
0.0921048
-0.000369636
0.0928403
-0.000886056
0.0934805
-0.000608835
0.0943807
-0.00131907
0.0944411
-0.000337008
0.000411458
0.0927656
0.0878914
0.00529864
-0.0882216
0.08928
0.0035495
0.0907234
-0.000332621
0.0910497
-0.00244322
0.0900571
-0.00232351
0.0882935
-0.00100914
0.0866026
-0.000102589
0.0856164
-0.000115551
0.0853001
-0.000410662
0.0853413
-0.000607881
0.0855728
-0.000710741
0.0860087
-0.0009162
0.0865272
-0.0010063
0.0870212
-0.000974685
0.0874938
-0.000924618
0.0879413
-0.000824893
0.088328
-0.000684271
0.0886376
-0.000513554
0.0888637
-0.000342047
0.0889647
-0.00013299
0.0890295
5.46812e-05
0.0890292
0.000214853
0.0889599
0.000352998
0.08879
0.000509382
0.0885308
0.000621668
0.0882185
0.000705378
0.0878639
0.000749508
0.0874615
0.000733981
0.0870422
0.00068261
0.0866451
0.000536499
0.0862228
0.000499539
0.0859607
0.000130283
0.0856088
0.000305124
0.08525
-0.000171807
0.0849242
-4.38083e-05
0.0845032
-0.000465134
0.0841978
-0.000303375
0.0839807
-0.00110196
0.0845351
-0.000891436
-0.00157499
0.0865216
0.088793
0.00491166
-0.088406
0.0898329
0.00250959
0.0896628
-0.000162463
0.0885169
-0.00129738
0.0876788
-0.00148539
0.088186
-0.00151638
0.0892909
-0.00120746
0.0903014
-0.00112608
0.0908895
-0.00099878
0.091141
-0.00085937
0.0912679
-0.000837565
0.0912098
-0.000858114
0.0910967
-0.000893203
0.0909879
-0.000865937
0.0908868
-0.000823488
0.0907862
-0.000724336
0.0906944
-0.000592384
0.0906236
-0.000442818
0.0905506
-0.000268983
0.0905349
-0.000117313
0.0904952
9.43738e-05
0.0904206
0.000289419
0.0903156
0.000458043
0.0902566
0.000568309
0.0902391
0.000639226
0.0902625
0.000681999
0.0903368
0.000675164
0.090464
0.000606831
0.0906483
0.000498319
0.0908602
0.000324581
0.0911008
0.000258903
0.0913021
-7.09775e-05
0.0915503
5.69047e-05
0.0919248
-0.000546298
0.0922697
-0.000388692
0.0928196
-0.00101508
0.0933598
-0.000843519
0.0935151
-0.00125729
0.0930151
-0.000391463
-0.000155268
0.0915954
0.089818
0.00373058
-0.0886369
0.0912371
0.0010905
0.0913759
-0.000301286
0.0912877
-0.00120917
0.0908521
-0.00104975
0.0897883
-0.000452633
0.0885399
4.09296e-05
0.0875113
-9.74145e-05
0.0868628
-0.000350326
0.0865948
-0.000591326
0.0865807
-0.000823545
0.086727
-0.0010044
0.0870541
-0.00122023
0.0874689
-0.00128078
0.0878915
-0.00124606
0.0882834
-0.00111629
0.0886462
-0.00095513
0.0889192
-0.000715832
0.0891239
-0.000473701
0.0892057
-0.000199085
0.0892377
6.23619e-05
0.0892546
0.000272527
0.0892368
0.000475871
0.0891161
0.000688966
0.0889073
0.000848016
0.088622
0.000967278
0.0882833
0.0010139
0.0878885
0.00100164
0.0874541
0.000932674
0.0870482
0.000730473
0.0866265
0.000680668
0.0863643
0.000191222
0.0861121
0.000309044
0.0858049
-0.000239055
0.0855992
-0.00018296
0.0853213
-0.000737196
0.0853779
-0.000900125
0.0855795
-0.00145891
0.0866621
-0.00147404
-0.00171211
0.0882189
0.0909271
0.00235206
-0.0895486
0.0914106
0.000607007
0.0908263
0.00028304
0.0897049
-8.77793e-05
0.0886098
4.54004e-05
0.0882158
-5.86559e-05
0.0888193
-0.00056263
0.0897205
-0.000998603
0.0904248
-0.00105461
0.0908464
-0.00101291
0.0910474
-0.00102452
0.0911561
-0.00111316
0.0910903
-0.00115442
0.0909756
-0.00116601
0.0908532
-0.00112372
0.0907265
-0.000989608
0.0906121
-0.000840676
0.0905291
-0.000632829
0.0904556
-0.000400259
0.0904654
-0.0002089
0.090459
6.88106e-05
0.0903867
0.000344797
0.0902869
0.000575716
0.0902385
0.000737334
0.0902355
0.000851004
0.0902796
0.000923216
0.0903851
0.00090841
0.0905627
0.000824053
0.0907709
0.000724425
0.0910241
0.000477272
0.091311
0.000393732
0.0914521
5.01288e-05
0.091659
0.000102172
0.0919166
-0.000496632
0.0921639
-0.000430303
0.0925168
-0.00109004
0.0925632
-0.000946579
0.0923508
-0.00124651
0.0917679
-0.000891158
-0.000910162
0.090966
0.0915762
0.00138494
-0.0906091
0.0916222
0.000560998
0.0913123
0.000592958
0.0908358
0.000388718
0.0906076
0.000273525
0.0902401
0.000308924
0.089628
4.94461e-05
0.0888731
-0.000243747
0.0882025
-0.000384005
0.0877726
-0.00058299
0.0876177
-0.000869608
0.0875973
-0.00109281
0.0877206
-0.00127767
0.0879971
-0.00144251
0.0883437
-0.00147028
0.0886829
-0.00132885
0.0890011
-0.00115886
0.0892512
-0.00088299
0.0894345
-0.000583536
0.089503
-0.000277356
0.0895009
7.08798e-05
0.0895254
0.000320299
0.0895353
0.000565854
0.0894876
0.000784953
0.0893246
0.00101408
0.0890835
0.00116432
0.0887752
0.00121672
0.0883971
0.00120212
0.0879631
0.0011584
0.0875444
0.000895974
0.0871401
0.000798003
0.0869118
0.000278412
0.0868251
0.000188916
0.0866225
-0.000294076
0.0866056
-0.000413316
0.0865361
-0.00102056
0.0868091
-0.00121958
0.0872691
-0.00170649
0.0882549
-0.00187698
-0.00204057
0.0893853
0.0918847
0.0010731
-0.0915728
0.0916769
0.000768714
0.0912011
0.00106883
0.090567
0.00102282
0.08982
0.00102047
0.0891514
0.000977502
0.0891304
7.04927e-05
0.0894718
-0.00058518
0.0900128
-0.000924949
0.0904922
-0.00106246
0.0907856
-0.00116296
0.0909485
-0.00125568
0.0910087
-0.00133789
0.0909454
-0.00137921
0.090821
-0.00134593
0.0906892
-0.00119702
0.0905831
-0.0010527
0.0904755
-0.000775396
0.0904186
-0.000526674
0.0904159
-0.000274613
0.0904724
1.43898e-05
0.0903883
0.000404308
0.0903145
0.000639677
0.0902533
0.000846128
0.0902629
0.00100451
0.0903203
0.00110696
0.0904169
0.0011201
0.0905948
0.00102421
0.0908569
0.00089631
0.0911258
0.000627093
0.0914231
0.000500648
0.091537
0.000164537
0.0916067
0.000119191
0.0917613
-0.000448621
0.0918739
-0.000525934
0.0919062
-0.0010529
0.0917297
-0.00104306
0.0914752
-0.00145201
0.09107
-0.00147174
-0.00167738
0.0907068
0.0919117
0.0011987
-0.0920373
0.0916001
0.00108034
0.0912069
0.00146197
0.0908096
0.00142019
0.0906216
0.00120847
0.0905351
0.00106399
0.0900702
0.000535364
0.0896269
-0.000141854
0.089193
-0.000491103
0.0888189
-0.000688315
0.0885878
-0.000931837
0.0884867
-0.00115456
0.0884696
-0.00132082
0.0885851
-0.00149472
0.0888342
-0.00159505
0.0891189
-0.00148177
0.0893901
-0.00132381
0.0896308
-0.0010161
0.089786
-0.000681954
0.0898331
-0.000321666
0.0897991
4.8349e-05
0.0898564
0.000347073
0.0898577
0.000638366
0.0898536
0.000850262
0.0897622
0.00109581
0.0895657
0.00130354
0.0892745
0.00141131
0.0889247
0.00137402
0.0885191
0.00130184
0.0881212
0.00102507
0.0877514
0.000870407
0.0875985
0.000317446
0.0876288
8.88862e-05
0.0876146
-0.000434399
0.0877645
-0.000675864
0.087853
-0.00114142
0.0881885
-0.00137854
0.0886737
-0.00193721
0.0894348
-0.00223287
-0.00240827
0.0901657
0.0918809
0.00149168
-0.0921739
0.0915626
0.00139863
0.0912838
0.00174074
0.0908615
0.00184258
0.0903637
0.00170624
0.0898976
0.00153009
0.0896117
0.000821231
0.0896958
-0.000225891
0.0899651
-0.000760446
0.0902852
-0.00100844
0.0905748
-0.00122139
0.0907652
-0.00134502
0.0908656
-0.00142115
0.0908745
-0.00150365
0.0908067
-0.00152724
0.0906961
-0.00137118
0.0905961
-0.00122377
0.0905021
-0.000922145
0.0904377
-0.000617594
0.0904676
-0.000351557
0.0905509
-3.48956e-05
0.090473
0.000424967
0.0903939
0.000717467
0.0903335
0.000910633
0.0903269
0.00110239
0.0903667
0.00126376
0.0904663
0.0013117
0.0906519
0.00118842
0.0909053
0.00104845
0.0911663
0.000764056
0.0914618
0.000574944
0.0915119
0.000267338
0.0914729
0.000127838
0.0915065
-0.000467966
0.0914606
-0.000629947
0.0913936
-0.00107442
0.0912071
-0.00119207
0.0910197
-0.00174982
0.0907778
-0.00199092
-0.00236254
0.090732
0.0918574
0.00181754
-0.0921832
0.0915285
0.00172748
0.0911804
0.00208886
0.0907928
0.00223025
0.0906629
0.00183607
0.0907142
0.00147881
0.0905876
0.000947793
0.090189
0.000172768
0.0898465
-0.00041794
0.089532
-0.000694001
0.0893046
-0.00099391
0.0891678
-0.00120823
0.089123
-0.00137636
0.0892176
-0.00159824
0.0893984
-0.00170806
0.0896053
-0.00157806
0.0898287
-0.0014472
0.0900101
-0.00110349
0.0901639
-0.000771423
0.0902194
-0.000407028
0.0901451
3.93633e-05
0.0901794
0.000390711
0.0901992
0.000697627
0.090221
0.000888873
0.0901625
0.00116084
0.0900294
0.00139684
0.0897901
0.00155101
0.0894783
0.00150024
0.0891194
0.00140737
0.0887765
0.00110696
0.0884715
0.000879876
0.0883947
0.000344202
0.088545
-2.24892e-05
0.0886165
-0.000539425
0.0888064
-0.00081992
0.0890029
-0.00127091
0.0893703
-0.00155943
0.0897954
-0.00217491
0.0903271
-0.00252269
-0.00273567
0.0907003
0.0917973
0.00213133
-0.0921111
0.0914747
0.00205003
0.0912306
0.00233297
0.0910345
0.00242637
0.0908256
0.00204498
0.0904802
0.00182425
0.0901248
0.00130319
0.090085
0.000212492
0.0901176
-0.000450474
0.0903073
-0.000883741
0.0905239
-0.00121055
0.0907008
-0.00138506
0.090832
-0.00150758
0.090866
-0.00163226
0.0908398
-0.00168184
0.0907703
-0.00150855
0.0906845
-0.00136143
0.0906362
-0.00105515
0.0905746
-0.000709825
0.0905883
-0.000420723
0.090704
-7.63362e-05
0.0906625
0.00043219
0.0905887
0.000771446
0.0905115
0.000966016
0.0904791
0.0011933
0.0905033
0.00137262
0.0905907
0.0014636
0.0907327
0.00135825
0.0909569
0.00118315
0.0911985
0.000865355
0.0914155
0.000662888
0.0914594
0.000300299
0.0913022
0.000134712
0.0912569
-0.000494112
0.0911363
-0.000699352
0.0910601
-0.00119472
0.0909399
-0.00143918
0.0908454
-0.00208042
0.0908072
-0.00248449
-0.00285776
0.0909293
0.0917339
0.00245414
-0.0920567
0.0914711
0.00231281
0.0912684
0.00253567
0.0910717
0.00262312
0.0908753
0.00224134
0.0907651
0.00193445
0.0907373
0.00133098
0.0905291
0.000420665
0.0903257
-0.000247038
0.090118
-0.000676072
0.0899297
-0.00102226
0.0898196
-0.00127492
0.0898146
-0.00150257
0.0898836
-0.00170122
0.0899974
-0.00179569
0.0901259
-0.001637
0.0903017
-0.00153724
0.0904428
-0.00119631
0.0905638
-0.000830796
0.0906095
-0.000466415
0.090532
1.14203e-06
0.0905606
0.000403581
0.0905832
0.000748851
0.0905766
0.00097261
0.0905758
0.00119414
0.0905061
0.00144234
0.0903519
0.00161776
0.0901107
0.00159941
0.0897932
0.00150066
0.0894814
0.00117719
0.0892414
0.000902858
0.0892264
0.000315366
0.0894291
-6.80011e-05
0.0895171
-0.000582128
0.0897242
-0.000906411
0.0899529
-0.00142347
0.0902697
-0.00175602
0.0905724
-0.00238306
0.0908262
-0.00273832
-0.00311088
0.0910793
0.0917045
0.00275872
-0.0920091
0.0915052
0.00251212
0.0913308
0.00271
0.0911755
0.00277844
0.0910465
0.00237035
0.0909506
0.00203041
0.0906989
0.00158266
0.0905052
0.000614384
0.0904922
-0.0002341
0.0905462
-0.000730077
0.0906473
-0.00112337
0.0907644
-0.001392
0.0908872
-0.00162533
0.0909307
-0.00174476
0.090926
-0.00179099
0.0909249
-0.00163591
0.0908833
-0.00149563
0.0908685
-0.00118145
0.0908189
-0.000781263
0.0908212
-0.000468726
0.0909318
-0.000109415
0.09093
0.000405387
0.0908824
0.000796415
0.0908228
0.00103219
0.0907561
0.00126086
0.0907452
0.00145323
0.0908032
0.00155983
0.0908979
0.00150465
0.091075
0.00132359
0.0912635
0.000988667
0.0914147
0.000751692
0.0914037
0.000326383
0.0912068
0.000128816
0.0911553
-0.000530614
0.0910345
-0.000785601
0.0909808
-0.00136975
0.0909293
-0.00170456
0.0909579
-0.00241157
0.0910514
-0.00283182
-0.0033151
0.0912556
0.0917773
0.00298659
-0.0920052
0.0916188
0.00267063
0.091484
0.00284479
0.0913659
0.00289655
0.0912622
0.00247406
0.0911476
0.00214506
0.0910549
0.0016753
0.0909544
0.00071495
0.0908107
-9.04308e-05
0.0906927
-0.000612057
0.0905595
-0.0009902
0.0904978
-0.00133025
0.0904842
-0.00161175
0.0905199
-0.00178047
0.0906037
-0.00187479
0.090693
-0.00172528
0.0907913
-0.00159388
0.0909045
-0.00129468
0.0909916
-0.00086831
0.0910408
-0.000517991
0.0909956
-6.41744e-05
0.091011
0.000390014
0.0910128
0.000794568
0.0909895
0.00105546
0.0909767
0.00127365
0.0909598
0.00147016
0.0909017
0.00161792
0.0907571
0.00164924
0.0905068
0.00157388
0.0902695
0.00122603
0.0900594
0.000961733
0.0900518
0.000333988
0.0902412
-6.05377e-05
0.0903428
-0.000632193
0.0905342
-0.000977086
0.0907175
-0.00155299
0.0909044
-0.00189152
0.0910567
-0.00256381
0.0912243
-0.0029994
-0.0034995
0.0914087
0.0918804
0.00319796
-0.0920918
0.0917258
0.00282523
0.0916118
0.00295881
0.0915165
0.00299182
0.0914181
0.00257252
0.0913275
0.00223564
0.0912459
0.0017569
0.0910508
0.000909999
0.0909539
6.49425e-06
0.0908976
-0.000555778
0.0909393
-0.00103193
0.091019
-0.00140986
0.0911043
-0.0016971
0.0911497
-0.00182586
0.0911794
-0.00190444
0.0911975
-0.00174346
0.0912013
-0.00159769
0.0912216
-0.00131496
0.0912171
-0.00086374
0.0912204
-0.000521316
0.0913151
-0.000158918
0.0913167
0.00038843
0.0912944
0.000816907
0.0912442
0.00110561
0.0911927
0.00132514
0.0911549
0.00150805
0.0911437
0.00162908
0.0912059
0.00158708
0.0913155
0.00146419
0.0914329
0.00110871
0.0915519
0.000842748
0.0915119
0.000373957
0.091326
0.000125298
0.0912492
-0.000555391
0.0911822
-0.000910025
0.0911785
-0.00154933
0.0912447
-0.00195774
0.0913307
-0.00264974
0.0914481
-0.00311682
-0.0036776
0.0916262
0.0920075
0.00340655
-0.0922161
0.0918183
0.00301438
0.0917176
0.00305949
0.0916554
0.00305403
0.0916051
0.00262288
0.0915486
0.00229212
0.0914504
0.0018551
0.0912918
0.00106862
0.0911856
0.000112619
0.0911538
-0.000523921
0.0911282
-0.00100637
0.0911167
-0.00139831
0.0911208
-0.0017012
0.0911552
-0.0018603
0.091221
-0.00197026
0.0912895
-0.00181196
0.0913477
-0.00165588
0.0914346
-0.0014018
0.0915015
-0.000930682
0.0915293
-0.000549161
0.0915231
-0.000152626
0.0915552
0.000356323
0.0915489
0.000823186
0.0915196
0.00113491
0.0914759
0.0013688
0.091435
0.00154902
0.0914205
0.00164349
0.0913905
0.00161714
0.0912497
0.00160497
0.0910879
0.00127046
0.0909297
0.001001
0.0909049
0.000398795
0.0910509
-2.07438e-05
0.0911132
-0.000617654
0.0912157
-0.00101252
0.0913145
-0.00164814
0.0914286
-0.00207185
0.0915411
-0.00276226
0.0916739
-0.00324961
-0.00382902
0.0918253
0.0921144
0.0036645
-0.0923724
0.0919174
0.00321136
0.0918239
0.00315301
0.0917872
0.00309073
0.0917522
0.0026579
0.0917162
0.00232814
0.0916503
0.00192102
0.091522
0.00119683
0.0914383
0.000196366
0.0914136
-0.000499248
0.0914108
-0.00100351
0.0914234
-0.00141097
0.0914788
-0.00175657
0.0915215
-0.00190305
0.091567
-0.00201571
0.0916364
-0.00188134
0.0916734
-0.00169292
0.0917172
-0.00144562
0.0917694
-0.000982859
0.091786
-0.00056577
0.0918122
-0.000178843
0.0918371
0.000331457
0.0918563
0.000803961
0.0918379
0.00115326
0.0917888
0.00141791
0.0917542
0.00158366
0.0917148
0.00168291
0.0916717
0.0016602
0.0917161
0.00156062
0.0917788
0.00120778
0.0918399
0.000939891
0.0918057
0.000432993
0.0916674
0.000117507
0.0916273
-0.000577559
0.0916025
-0.000987688
0.0916488
-0.00169442
0.09172
-0.00214313
0.0918173
-0.0028595
0.0919308
-0.00336314
-0.00397928
0.0920811
0.0922382
0.00393233
-0.0925061
0.0920697
0.00337991
0.0919746
0.00324811
0.0919398
0.00312548
0.0919359
0.00266179
0.0919165
0.0023476
0.0918925
0.00194498
0.0918171
0.00127227
0.091754
0.000259403
0.0917089
-0.000454145
0.0917172
-0.0010118
0.0917352
-0.00142898
0.0917632
-0.00178449
0.0918151
-0.00195499
0.0918695
-0.00207011
0.0919318
-0.00194364
0.0919878
-0.00174894
0.0920204
-0.0014782
0.0920926
-0.00105509
0.0921249
-0.000597979
0.0921414
-0.00019543
0.092164
0.000308867
0.092201
0.000767005
0.0921839
0.00117031
0.0921506
0.00145124
0.0921011
0.00163314
0.092052
0.00173201
0.0920338
0.00167839
0.0919975
0.00159693
0.0918973
0.001308
0.0918006
0.0010366
0.0917583
0.000475291
0.0918258
5.00436e-05
0.0918242
-0.000576
0.0918802
-0.0010437
0.0919211
-0.00173536
0.0919831
-0.00220511
0.0920902
-0.00296659
0.092181
-0.00345393
-0.00413569
0.0923374
0.0924445
0.00417365
-0.0926858
0.0922719
0.00355252
0.0921917
0.00332831
0.0921487
0.00316842
0.0921438
0.00266676
0.0921819
0.00230945
0.0921775
0.00194943
0.0921425
0.00130723
0.0920814
0.00032052
0.092058
-0.00043079
0.092038
-0.000991748
0.0920696
-0.00146054
0.0921056
-0.00182051
0.0921646
-0.00201397
0.092202
-0.00210757
0.0922734
-0.002015
0.0923249
-0.00180048
0.0923771
-0.00153038
0.0924379
-0.0011159
0.092496
-0.000656047
0.092497
-0.00019647
0.0925392
0.000266745
0.0925658
0.000740311
0.0925762
0.00115992
0.0925417
0.00148582
0.0925019
0.00167286
0.0924437
0.00179029
0.0924091
0.00171294
0.0923499
0.00165613
0.0923469
0.00131107
0.0923595
0.001024
0.0923431
0.000491665
0.0922599
0.000133224
0.0922517
-0.000567801
0.0922418
-0.00103382
0.0922731
-0.00176661
0.092327
-0.00225903
0.0924157
-0.00305526
0.0924948
-0.00353307
-0.00425351
0.0926126
0.0926438
0.00438217
-0.0928524
0.0924954
0.00370097
0.0924327
0.00339105
0.0924061
0.00319499
0.0924229
0.00264999
0.0924987
0.00223365
0.0925361
0.001912
0.0925207
0.00132267
0.0924719
0.00036926
0.0924489
-0.000407747
0.0924384
-0.000981278
0.0924489
-0.00147102
0.0925034
-0.00187507
0.0925567
-0.00206725
0.0926
-0.00215088
0.0926541
-0.00206912
0.0927144
-0.00186073
0.0927551
-0.00157109
0.0928397
-0.00120053
0.0928971
-0.000713373
0.0929312
-0.000230657
0.0929477
0.000250329
0.0929914
0.000696602
0.093022
0.0011293
0.0930093
0.00149854
0.092964
0.00171815
0.0929031
0.0018512
0.0928306
0.00178544
0.0928012
0.00168553
0.0927636
0.00134868
0.0926926
0.00109493
0.0926391
0.000545206
0.0926375
0.000134782
0.0926285
-0.000558794
0.0926317
-0.00103703
0.0926626
-0.00179751
0.0926975
-0.0022939
0.0927674
-0.00312515
0.0928278
-0.00359348
-0.00435325
0.0929275
0.0929471
0.00459116
-0.0931561
0.0928014
0.00384668
0.0927548
0.00343767
0.092767
0.00318273
0.0927821
0.00263493
0.0928711
0.00214467
0.0929465
0.00183654
0.0929521
0.00131716
0.0929165
0.000404834
0.0928813
-0.000372549
0.0928834
-0.000983399
0.0928976
-0.00148522
0.0929159
-0.00189335
0.0929802
-0.0021316
0.093028
-0.00219868
0.0931081
-0.00214921
0.0931938
-0.00194641
0.0932568
-0.00163411
0.0933087
-0.00125245
0.0933949
-0.000799558
0.0934183
-0.000253993
0.093447
0.000221617
0.0934699
0.000673676
0.0935115
0.00108767
0.0935128
0.00149722
0.0934817
0.0017493
0.0934191
0.00191383
0.0933491
0.00185536
0.0932928
0.0017419
0.0932339
0.0014076
0.0932042
0.00112454
0.0931688
0.000580691
0.0931289
0.000174682
0.0931125
-0.000542441
0.0931052
-0.00102968
0.0931485
-0.00184083
0.0931663
-0.00231173
0.0932012
-0.00316004
0.0932266
-0.00361884
-0.00442291
0.0932962
0.0932668
0.00476875
-0.0934444
0.0931231
0.0039904
0.0930937
0.00346711
0.0931132
0.00316321
0.0931496
0.00259855
0.093247
0.00204724
0.0933765
0.00170704
0.0934092
0.00128448
0.0933842
0.000429865
0.0933842
-0.000372644
0.093386
-0.000985113
0.0933976
-0.00149687
0.0934198
-0.0019155
0.0934646
-0.00217645
0.0935347
-0.00226879
0.0936078
-0.00222231
0.0937
-0.00203855
0.0937773
-0.00171146
0.0938501
-0.00132522
0.0939112
-0.0008607
0.0939786
-0.000321354
0.093999
0.000201177
0.0940202
0.000652473
0.0940467
0.00106116
0.0940717
0.00147225
0.0940527
0.00176826
0.0940288
0.00193777
0.0939696
0.00191461
0.0939061
0.00180536
0.0938462
0.00146748
0.093784
0.00118679
0.0937248
0.000639884
0.0936929
0.000206539
0.0936601
-0.000509675
0.0936522
-0.00102175
0.093664
-0.00185267
0.0936626
-0.00231027
0.0936679
-0.00316537
0.093683
-0.0036339
-0.00445453
0.0937146
0.0936436
0.00492012
-0.093795
0.0935314
0.0041026
0.093502
0.00349652
0.0935145
0.00315069
0.0935695
0.00254353
0.0937008
0.00191597
0.0938719
0.00153595
0.0939833
0.00117305
0.0939789
0.000434322
0.0939768
-0.000370536
0.0939776
-0.000985981
0.0939666
-0.00148586
0.0939853
-0.00193419
0.0940317
-0.00222281
0.0941012
-0.00233831
0.0941898
-0.00231086
0.0942843
-0.00213312
0.0943709
-0.00179804
0.0944452
-0.00139953
0.0945123
-0.000927773
0.094569
-0.00037808
0.0946212
0.000148981
0.0946559
0.000617758
0.0946576
0.0010595
0.094664
0.00146581
0.0946882
0.00174404
0.0946935
0.00193247
0.094684
0.00192416
0.0946524
0.00183691
0.0945972
0.0015227
0.0945332
0.00125081
0.0944744
0.000698718
0.0944091
0.000271851
0.0943779
-0.000478487
0.0943356
-0.000979446
0.0942813
-0.00179844
0.0942622
-0.00229114
0.0942298
-0.00313291
0.0941997
-0.00360382
-0.00448342
0.0942286
0.0941512
0.00504067
-0.0942717
0.0940085
0.00424525
0.0939583
0.00354677
0.0939727
0.00313632
0.0940313
0.00248486
0.0942037
0.00174364
0.0944444
0.00129517
0.0946216
0.000995839
0.0946435
0.000412514
0.0946249
-0.000351935
0.0946267
-0.000987822
0.0946382
-0.0014974
0.0946529
-0.00194889
0.0946899
-0.00225982
0.0947696
-0.00241793
0.0948521
-0.00239344
0.0949363
-0.0022173
0.0950428
-0.00190453
0.095131
-0.00148776
0.0952017
-0.000998392
0.0952751
-0.000451486
0.0953346
8.94657e-05
0.0953626
0.000589697
0.0953933
0.00102887
0.0954202
0.00143894
0.0954467
0.00171745
0.0954753
0.00190389
0.0954967
0.00190272
0.0954853
0.00184837
0.0954902
0.00151784
0.0954788
0.00126213
0.0954699
0.000707633
0.0954128
0.000329005
0.0953238
-0.000389573
0.0952071
-0.000862731
0.0950901
-0.00168143
0.0950016
-0.00220263
0.0949333
-0.00306458
0.0948803
-0.00355091
-0.00447974
0.0948767
0.094663
0.00516654
-0.0947889
0.0945154
0.00439284
0.0944769
0.0035853
0.0945378
0.00307541
0.0946016
0.00242103
0.094758
0.00158726
0.0950357
0.00101741
0.0952799
0.000751642
0.0953689
0.000323523
0.0953897
-0.000372713
0.0953929
-0.000990988
0.0954023
-0.00150682
0.0954132
-0.00195974
0.0954709
-0.00231752
0.0955337
-0.00248078
0.0956135
-0.00247322
0.0956996
-0.00230342
0.0957962
-0.00200109
0.0958932
-0.00158478
0.0959877
-0.00109291
0.0960762
-0.00054001
0.0961573
8.4081e-06
0.0962256
0.000521432
0.0962893
0.000965108
0.0963523
0.00137592
0.0964319
0.00163787
0.0964825
0.00185337
0.0965731
0.00181205
0.0966151
0.00180642
0.0966416
0.00149132
0.0965914
0.00131231
0.0965306
0.000768442
0.0964468
0.000412846
0.096347
-0.000289795
0.0962334
-0.000749113
0.0961125
-0.00156056
0.0959585
-0.0020486
0.0958211
-0.00292715
0.0957
-0.00342987
-0.00441786
0.0956381
0.0951757
0.00522754
-0.0952367
0.0951308
0.00443766
0.0951208
0.00359531
0.0952026
0.00299363
0.0952737
0.00234994
0.0953842
0.0014768
0.0956224
0.000779132
0.0958977
0.000476366
0.0960933
0.000127909
0.0961817
-0.000461046
0.0962362
-0.00104557
0.0962653
-0.00153584
0.0962915
-0.00198603
0.096326
-0.00235196
0.0963857
-0.00254053
0.0964662
-0.00255369
0.0965724
-0.00240961
0.0966772
-0.00210591
0.0967917
-0.00169925
0.0969062
-0.00120748
0.0970369
-0.000670663
0.0971384
-9.30876e-05
0.097248
0.000411791
0.097346
0.00086714
0.0974457
0.0012762
0.0975537
0.00152991
0.0976212
0.00178587
0.0976758
0.00175745
0.0976725
0.00180971
0.097662
0.00150181
0.0976328
0.00134155
0.0975522
0.000849036
0.0974412
0.000523761
0.0972823
-0.000130818
0.0970919
-0.000558705
0.0969469
-0.00141559
0.0967621
-0.00186382
0.0966431
-0.00280819
0.0965148
-0.00330151
-0.00438265
0.0964796
0.0960223
0.00523175
-0.0960265
0.0959945
0.00446549
0.0959845
0.00360528
0.0960448
0.00293338
0.096094
0.0023007
0.096112
0.00145888
0.0962629
0.000628183
0.0965623
0.000176988
0.0968458
-0.000155568
0.0970505
-0.000665812
0.0972321
-0.00122712
0.0973324
-0.00163613
0.0973817
-0.00203541
0.0974194
-0.0023896
0.0974735
-0.00259464
0.0975406
-0.00262076
0.0976298
-0.00249882
0.0977577
-0.00223384
0.0978711
-0.00181268
0.0979608
-0.00129711
0.0980686
-0.000778534
0.0982464
-0.000270824
0.0983877
0.000270498
0.0985591
0.000695721
0.0987068
0.00112847
0.0988531
0.00138367
0.0989429
0.001696
0.0990304
0.00166998
0.0990637
0.00177642
0.0990509
0.0015146
0.0989797
0.00141277
0.098924
0.000904704
0.0988202
0.000627582
0.0988314
-0.000141979
0.0987309
-0.00045819
0.0986004
-0.00128518
0.0984407
-0.00170409
0.0982587
-0.00262618
0.0980416
-0.00308439
-0.00421558
0.0978745
0.0968477
0.00517461
-0.0967905
0.0969018
0.00441143
0.0969193
0.00358772
0.0969952
0.00285748
0.0970926
0.00220336
0.0971574
0.00139406
0.0972829
0.000502706
0.09754
-8.01426e-05
0.0978377
-0.000453234
0.09814
-0.000968182
0.0983948
-0.0014819
0.0986038
-0.00184509
0.098706
-0.00213762
0.09874
-0.00242359
0.0987693
-0.00262399
0.0988173
-0.00266872
0.0988842
-0.00256575
0.0989684
-0.00231805
0.0991098
-0.00195411
0.0993314
-0.00151868
0.0994964
-0.000943539
0.0996317
-0.000406122
0.0997243
0.000177914
0.0998197
0.000600341
0.0998646
0.0010835
0.0999429
0.00130539
0.0999924
0.00164656
0.100023
0.00163896
0.100011
0.00178881
0.100002
0.00152372
0.0999284
0.00148626
0.0998365
0.000996614
0.099633
0.000831002
0.0993049
0.000186195
0.0989291
-8.24541e-05
0.0987115
-0.00106756
0.0985028
-0.0014954
0.0983956
-0.00251897
0.0982894
-0.00297824
-0.00410453
0.0981784
0.0981647
0.0052146
-0.0982047
0.0981492
0.00442687
0.0981142
0.00362281
0.0981078
0.00286379
0.0981213
0.00218993
0.0980878
0.00142754
0.0981745
0.000416037
0.0984732
-0.000378867
0.0988516
-0.000831616
0.0991941
-0.00131069
0.0995553
-0.00184313
0.0999167
-0.00220653
0.10016
-0.00238042
0.100295
-0.00255901
0.100369
-0.00269757
0.100418
-0.00271849
0.100449
-0.00259677
0.100486
-0.00235496
0.100515
-0.00198315
0.100565
-0.00156851
0.100669
-0.00104769
0.100879
-0.000616208
0.101156
-9.92109e-05
0.101435
0.000321706
0.101684
0.000834878
0.101979
0.00101055
0.102166
0.00145958
0.102351
0.00145401
0.102403
0.00173583
0.102455
0.00147262
0.102393
0.00154753
0.102379
0.00101099
0.10233
0.000880261
0.10252
-4.30307e-06
0.102677
-0.000239494
0.102648
-0.00103793
0.102568
-0.00141559
0.102415
-0.00236632
0.102184
-0.00274675
-0.00391727
0.101996
0.0989864
0.00495282
-0.0987246
0.0992537
0.00415951
0.0995263
0.0033503
0.099814
0.00257607
0.100098
0.00190614
0.100295
0.00123005
0.10032
0.000391347
0.10042
-0.000478528
0.100667
-0.0010788
0.100899
-0.00154277
0.101178
-0.00212221
0.101503
-0.00253126
0.101829
-0.00270716
0.10206
-0.00278909
0.10218
-0.00281787
0.102284
-0.00282278
0.102363
-0.00267547
0.102496
-0.00248778
0.102641
-0.00212863
0.102861
-0.00178862
0.103033
-0.00121985
0.103194
-0.000776739
0.103105
-1.01287e-05
0.10315
0.000276639
0.10316
0.000824374
0.10313
0.00104144
0.103108
0.00148091
0.103115
0.00144707
0.103147
0.00170419
0.103151
0.00146801
0.103168
0.00153102
0.103075
0.00110336
0.102952
0.00100393
0.102486
0.000461781
0.102013
0.000233719
0.101595
-0.000620457
0.101268
-0.00108846
0.100886
-0.00198435
0.100721
-0.00258225
-0.00363074
0.100435
0.100922
0.00505547
-0.101025
0.100856
0.00422581
0.10086
0.00334588
0.100934
0.00250289
0.101135
0.00170519
0.101387
0.000977248
0.101686
9.26896e-05
0.101929
-0.000721916
0.102227
-0.00137616
0.102546
-0.00186179
0.102825
-0.00240184
0.103208
-0.00291394
0.103664
-0.00316302
0.104078
-0.00320352
0.104373
-0.00311284
0.104575
-0.00302443
0.104651
-0.00275167
0.104675
-0.00251152
0.10462
-0.00207353
0.104588
-0.00175681
0.104601
-0.00123294
0.104734
-0.000909409
0.105096
-0.000372013
0.105546
-0.000174126
0.105865
0.000505505
0.106336
0.000570931
0.106751
0.00106576
0.107183
0.0010148
0.107462
0.0014257
0.107819
0.00111124
0.108042
0.00130711
0.108396
0.000749844
0.108626
0.000774139
0.109109
-2.14441e-05
0.109478
-0.000135529
0.109621
-0.000763651
0.109591
-0.00105787
0.109424
-0.0018174
0.109081
-0.00223932
-0.0032521
0.108702
0.102939
0.00442006
-0.102303
0.103551
0.0036136
0.104124
0.00277216
0.104632
0.00199492
0.105111
0.00122632
0.10548
0.000608922
0.105548
2.46487e-05
0.105715
-0.000889209
0.105956
-0.00161755
0.106215
-0.00212
0.106284
-0.00247089
0.106327
-0.00295737
0.106401
-0.00323703
0.106642
-0.00344478
0.106865
-0.00333566
0.107194
-0.00335351
0.107473
-0.00303029
0.107834
-0.00287226
0.108041
-0.0022807
0.108297