/*--------------------------------*- C++ -*----------------------------------*\
  =========                 |
  \\      /  F ield         | OpenFOAM: The Open Source CFD Toolbox
   \\    /   O peration     | Website:  https://openfoam.org
    \\  /    A nd           | Version:  10
     \\/     M anipulation  |
\*---------------------------------------------------------------------------*/
FoamFile
{
    format      ascii;
    class       volScalarField;
    location    "0.600752";
    object      rho;
}
// * * * * * * * * * * * * * * * * * * * * * * * * * * * * * * * * * * * * * //

dimensions      [1 -3 0 0 0 0 0];

internalField   nonuniform List<scalar> 
16320
(
0.96287
0.963292
0.991406
1.04051
1.06001
1.03893
0.959917
0.877639
0.852824
0.842021
0.832191
0.815786
0.797756
0.781066
0.765323
0.751029
0.738855
0.732001
0.733843
0.734316
0.73534
0.731027
0.70416
0.658502
0.637754
0.639801
0.654035
0.681266
0.734346
0.809594
0.856295
0.856449
0.833823
0.900115
0.878724
0.883082
0.937453
1.00719
1.00838
0.956064
0.873178
0.839899
0.83225
0.832896
0.82807
0.817321
0.803488
0.79075
0.781188
0.772024
0.764932
0.761065
0.757933
0.754917
0.745986
0.708597
0.668495
0.65353
0.66074
0.677343
0.718198
0.776107
0.844827
0.87683
0.870708
0.841339
0.881688
0.854134
0.842963
0.848395
0.895462
0.958314
0.952045
0.891948
0.843577
0.83005
0.834976
0.846573
0.854406
0.847224
0.835708
0.822159
0.809997
0.801272
0.79308
0.787362
0.780636
0.762388
0.719725
0.687346
0.68291
0.695646
0.724798
0.763485
0.82408
0.879773
0.894598
0.881971
0.842961
0.877639
0.846272
0.831035
0.829139
0.8364
0.876569
0.930983
0.918562
0.862889
0.835887
0.832778
0.858981
0.892458
0.903875
0.891487
0.868577
0.847217
0.832923
0.823079
0.815998
0.806665
0.781772
0.741868
0.722096
0.730243
0.744519
0.772024
0.817694
0.874447
0.909493
0.907263
0.884929
0.838785
0.87115
0.846985
0.829735
0.822245
0.825206
0.834198
0.869706
0.91578
0.900795
0.851541
0.836982
0.858825
0.91263
0.937812
0.939406
0.921407
0.894527
0.869322
0.855722
0.846379
0.835099
0.806763
0.774727
0.768316
0.779083
0.797071
0.832346
0.878023
0.917699
0.927319
0.913278
0.871587
0.833938
0.858252
0.843463
0.833382
0.827252
0.823677
0.826412
0.836109
0.872604
0.909661
0.88859
0.85122
0.850416
0.911418
0.959609
0.970707
0.963952
0.945989
0.919422
0.895851
0.882328
0.868134
0.839447
0.822045
0.826445
0.839536
0.863081
0.896515
0.928026
0.941955
0.932624
0.900734
0.851841
0.832638
0.848448
0.842833
0.841248
0.840521
0.839809
0.835092
0.831209
0.838816
0.870801
0.900151
0.879026
0.860683
0.88081
0.962013
0.995438
0.998113
0.986342
0.969239
0.950524
0.931298
0.911778
0.891527
0.88772
0.894228
0.905766
0.924372
0.944178
0.95355
0.946308
0.918766
0.868325
0.844923
0.836931
0.859005
0.863751
0.868316
0.870808
0.870072
0.868892
0.855668
0.836735
0.840553
0.870023
0.892136
0.879398
0.877796
0.923167
1.00051
1.02451
1.02368
1.01123
0.996248
0.981197
0.964669
0.951366
0.947172
0.949823
0.955428
0.962041
0.963339
0.955097
0.925193
0.879344
0.857154
0.847585
0.862715
0.897101
0.906084
0.909269
0.918286
0.917136
0.91238
0.908717
0.880411
0.844539
0.846453
0.872284
0.891011
0.891152
0.903485
0.961344
1.02825
1.04828
1.04556
1.03435
1.01925
1.00314
0.991276
0.984567
0.980735
0.977293
0.971453
0.9589
0.923518
0.88712
0.86907
0.860536
0.870485
0.883914
0.902819
0.905152
0.912636
0.920889
0.935885
0.948114
0.954039
0.947412
0.90022
0.855636
0.860775
0.884356
0.900825
0.9121
0.936631
0.990262
1.03992
1.05869
1.05595
1.04335
1.02604
1.01099
0.999205
0.988733
0.97566
0.95241
0.917311
0.890826
0.876314
0.868874
0.874159
0.870892
0.871551
0.88213
0.886129
0.890621
0.90534
0.924944
0.942409
0.959461
0.973864
0.968499
0.904608
0.865809
0.876612
0.902191
0.922165
0.9388
0.967107
1.00302
1.02917
1.04091
1.03772
1.02368
1.00591
0.986065
0.962776
0.93684
0.91173
0.893145
0.879549
0.867927
0.857979
0.844498
0.836599
0.866563
0.853807
0.862308
0.873529
0.883615
0.900646
0.924144
0.943228
0.96776
0.980671
0.97733
0.895592
0.877477
0.897575
0.925405
0.945814
0.962502
0.981194
0.994713
0.998458
0.993133
0.980247
0.962969
0.945261
0.928254
0.910361
0.892728
0.875589
0.855751
0.824874
0.805024
0.809121
0.878597
0.947578
0.835875
0.848868
0.853496
0.861356
0.875176
0.898425
0.922501
0.947627
0.978215
0.990541
0.959646
0.893211
0.894535
0.92027
0.949298
0.963309
0.97198
0.976353
0.975087
0.967676
0.955773
0.941576
0.924633
0.906069
0.885235
0.860659
0.821982
0.789021
0.779908
0.81024
0.910532
0.947268
0.919696
0.836065
0.83678
0.832763
0.833933
0.843796
0.867487
0.898115
0.926847
0.962308
0.994919
0.997983
0.928237
0.896443
0.913698
0.939402
0.96133
0.968872
0.968826
0.962774
0.952634
0.936229
0.913613
0.890406
0.866657
0.829764
0.789318
0.772971
0.77637
0.841436
0.92453
0.919534
0.872293
0.813081
0.83171
0.820988
0.796019
0.788482
0.794081
0.818818
0.863056
0.901894
0.943199
0.986418
1.01242
0.963843
0.902947
0.902738
0.922602
0.947028
0.955049
0.9538
0.943372
0.919545
0.896278
0.871943
0.840458
0.801897
0.77549
0.768339
0.787984
0.865411
0.912313
0.893797
0.839508
0.79512
0.767393
0.820563
0.788775
0.733299
0.720215
0.725793
0.754495
0.808339
0.867343
0.917303
0.97
1.0081
0.994431
0.913352
0.891617
0.904212
0.921057
0.931118
0.922328
0.90054
0.882509
0.855457
0.820751
0.79146
0.775447
0.771282
0.814708
0.882862
0.897503
0.870552
0.811645
0.781097
0.742743
0.689636
0.799449
0.748517
0.686351
0.660696
0.66339
0.688937
0.741014
0.814742
0.884811
0.94593
0.992335
0.994452
0.924309
0.885732
0.887273
0.896306
0.896381
0.885201
0.873105
0.844817
0.812949
0.788858
0.779891
0.780685
0.836194
0.883778
0.88255
0.85054
0.795643
0.756444
0.696521
0.651008
0.626598
0.783898
0.728824
0.671661
0.630014
0.623668
0.636013
0.674262
0.748313
0.842075
0.915733
0.969759
0.979313
0.920124
0.878843
0.871414
0.874019
0.872513
0.864769
0.837195
0.808874
0.792103
0.78364
0.796125
0.853431
0.878481
0.870704
0.833197
0.779057
0.719778
0.659364
0.626248
0.607958
0.60261
0.775791
0.727917
0.662501
0.615708
0.599256
0.602713
0.635859
0.701449
0.799382
0.879526
0.941759
0.961119
0.910615
0.872738
0.863718
0.862795
0.856668
0.833823
0.80923
0.797107
0.791929
0.825147
0.868796
0.872632
0.857661
0.811649
0.748064
0.66268
0.612026
0.587613
0.573674
0.571596
0.579035
0.77933
0.732156
0.666158
0.614895
0.597646
0.598797
0.633462
0.701742
0.779275
0.848925
0.910097
0.931618
0.898602
0.867234
0.857643
0.850312
0.831655
0.811897
0.801497
0.801896
0.846659
0.874939
0.866589
0.842846
0.7817
0.700905
0.61956
0.582828
0.565733
0.556346
0.556172
0.562774
0.573277
0.786087
0.753642
0.681951
0.624879
0.607472
0.608586
0.648027
0.723716
0.788349
0.847008
0.897792
0.91357
0.889189
0.861459
0.847285
0.83111
0.818051
0.80925
0.815063
0.862194
0.876266
0.86109
0.827522
0.748803
0.664157
0.606466
0.580023
0.566736
0.557964
0.556268
0.562732
0.574301
0.585612
0.796271
0.779488
0.727284
0.648561
0.624358
0.622726
0.653789
0.72537
0.786259
0.841472
0.890776
0.894949
0.869592
0.847456
0.835799
0.829755
0.826512
0.844611
0.881044
0.877543
0.85661
0.812719
0.72046
0.656591
0.618325
0.59564
0.581879
0.579599
0.587785
0.612275
0.632141
0.642159
0.645368
0.798529
0.802989
0.77696
0.704725
0.650024
0.640503
0.649023
0.689257
0.748583
0.800049
0.843444
0.836974
0.839865
0.843892
0.851314
0.856246
0.888038
0.905774
0.883966
0.853148
0.793524
0.712956
0.669611
0.642591
0.623992
0.623416
0.646457
0.668937
0.687262
0.689021
0.686771
0.679937
0.672106
0.799447
0.820778
0.814218
0.781153
0.702919
0.669634
0.667918
0.684195
0.714762
0.754514
0.790475
0.820892
0.853557
0.876781
0.90156
0.942819
0.943604
0.907141
0.860814
0.783102
0.720523
0.688748
0.668725
0.662048
0.691538
0.712692
0.718875
0.717628
0.712158
0.700556
0.688944
0.677918
0.668795
0.786483
0.824166
0.843815
0.833248
0.800931
0.733127
0.705828
0.712765
0.735053
0.770185
0.810039
0.855441
0.901388
0.957182
1.00281
1.00185
0.959912
0.891975
0.801957
0.744183
0.71417
0.693858
0.707869
0.732515
0.74072
0.736229
0.726721
0.713622
0.699867
0.686492
0.675694
0.666733
0.661723
0.790569
0.812902
0.85166
0.869703
0.861639
0.844886
0.805655
0.786234
0.800606
0.831242
0.875462
0.931211
0.992963
1.03237
1.04765
1.02286
0.942816
0.857456
0.787082
0.745607
0.724404
0.736302
0.749383
0.745187
0.735142
0.721472
0.707019
0.69225
0.680294
0.670386
0.664081
0.65852
0.65281
0.806732
0.821994
0.837972
0.877671
0.896416
0.902159
0.890978
0.891123
0.897601
0.9195
0.954048
0.992713
1.02928
1.04715
1.03618
0.992899
0.92992
0.863569
0.805697
0.766883
0.761472
0.756469
0.743298
0.729054
0.713562
0.698091
0.68355
0.672078
0.663059
0.655328
0.645746
0.63755
0.62711
0.833805
0.842416
0.848884
0.86008
0.88322
0.917822
0.932143
0.936221
0.938746
0.954205
0.976243
1.00069
1.01545
1.016
1.00268
0.981773
0.942527
0.891682
0.836688
0.799121
0.773989
0.746107
0.725747
0.706749
0.689863
0.67492
0.663497
0.652614
0.641079
0.62928
0.613876
0.599095
0.59364
0.871194
0.889067
0.880397
0.875808
0.882474
0.89268
0.912472
0.931687
0.946954
0.957039
0.969747
0.982955
0.998096
1.00345
0.999312
0.985163
0.959053
0.917581
0.869287
0.817499
0.767856
0.732973
0.70531
0.684941
0.668275
0.653441
0.639701
0.624222
0.607553
0.586967
0.576618
0.573294
0.5756
0.896159
0.935121
0.951213
0.925787
0.907134
0.908209
0.91571
0.927689
0.942248
0.957481
0.972579
0.988785
1.0017
1.00593
1.00015
0.988491
0.970017
0.940527
0.893035
0.830223
0.761247
0.720295
0.687468
0.664578
0.640648
0.623833
0.605664
0.581008
0.563648
0.55751
0.555839
0.558748
0.567745
0.904552
0.957465
0.991234
1.00724
0.990431
0.948311
0.939273
0.945077
0.957866
0.971694
0.986591
1.00025
1.01072
1.00795
0.998106
0.986179
0.977644
0.962419
0.916219
0.827361
0.754887
0.697519
0.662729
0.631006
0.607251
0.584486
0.560551
0.549705
0.544769
0.545461
0.547017
0.553958
0.565029
0.884138
0.96299
1.00625
1.03446
1.04529
1.03907
1.00312
0.975728
0.977903
0.988688
1.00189
1.01473
1.0168
1.0044
0.992566
0.981091
0.986914
0.98243
0.921335
0.822253
0.72737
0.668785
0.628125
0.594169
0.57048
0.550211
0.541566
0.537278
0.539122
0.544568
0.557013
0.572179
0.586085
0.87472
0.943493
0.999347
1.03063
1.05468
1.06831
1.07674
1.06095
1.01735
1.00992
1.01577
1.02045
1.01542
0.994555
0.983616
0.976259
0.995792
0.989648
0.908766
0.800911
0.697603
0.637495
0.591925
0.563646
0.546206
0.538149
0.53482
0.54093
0.554667
0.580762
0.617028
0.650555
0.665554
0.878934
0.921771
0.9722
1.0008
1.01962
1.04183
1.07496
1.09891
1.10574
1.06916
1.03565
1.02563
1.00914
0.984169
0.972463
0.972009
0.997804
0.981359
0.88939
0.771822
0.669634
0.608558
0.566547
0.546527
0.537344
0.539028
0.553551
0.587063
0.640531
0.703954
0.763736
0.800226
0.825653
0.893146
0.916153
0.948522
0.967021
0.959047
0.961478
0.997067
1.07113
1.11278
1.12722
1.10091
1.04815
1.00497
0.975077
0.961416
0.96143
0.991638
0.963973
0.868119
0.747234
0.646468
0.586868
0.555908
0.545134
0.550693
0.572945
0.610746
0.666255
0.731063
0.791455
0.835073
0.854101
0.873021
0.917341
0.917227
0.937736
0.946736
0.920544
0.88784
0.895451
0.964959
1.07506
1.11174
1.11781
1.08254
1.00969
0.96349
0.947375
0.949124
0.97824
0.941291
0.846014
0.731268
0.634126
0.579777
0.560544
0.558592
0.57362
0.60138
0.643672
0.69103
0.739472
0.781794
0.81606
0.832714
0.846809
0.96826
0.927385
0.927085
0.927678
0.892787
0.849779
0.849776
0.885568
0.996539
1.06582
1.08022
1.05642
0.980194
0.941877
0.929575
0.938789
0.964142
0.924987
0.83619
0.726722
0.635576
0.584852
0.568339
0.565798
0.580066
0.604174
0.634797
0.67195
0.710865
0.740874
0.754504
0.76202
0.765041
1.03928
0.938895
0.915833
0.902884
0.860565
0.825149
0.823753
0.850557
0.928555
0.990147
1.00479
0.990213
0.933661
0.915341
0.910716
0.933022
0.954074
0.91657
0.835198
0.736472
0.644761
0.5918
0.570733
0.565224
0.574512
0.590257
0.61573
0.637946
0.647733
0.65128
0.649149
0.645286
0.647171
1.07036
0.964379
0.90528
0.879142
0.835512
0.807078
0.804717
0.822369
0.863531
0.892291
0.901514
0.899475
0.886794
0.886041
0.902279
0.943527
0.94715
0.913684
0.842696
0.752542
0.657258
0.598239
0.571908
0.56114
0.563576
0.573372
0.582612
0.585158
0.587093
0.587692
0.589782
0.594248
0.60432
1.08156
1.00568
0.897022
0.860987
0.81895
0.795913
0.792595
0.805536
0.828017
0.838714
0.844146
0.850829
0.858985
0.877882
0.919567
0.947537
0.944775
0.916147
0.862626
0.775266
0.679644
0.60924
0.574784
0.558037
0.554162
0.554996
0.558292
0.559815
0.561678
0.564124
0.569491
0.578398
0.591554
1.08079
1.02385
0.895692
0.845164
0.808365
0.78977
0.786416
0.798131
0.814239
0.820516
0.826523
0.841212
0.862795
0.897008
0.936364
0.951078
0.950797
0.922414
0.87968
0.803962
0.711493
0.630275
0.584366
0.559871
0.55053
0.54791
0.548373
0.550632
0.553416
0.558123
0.565577
0.579229
0.599123
1.07155
1.03799
0.91227
0.834346
0.803077
0.788167
0.785162
0.797912
0.815408
0.823546
0.834207
0.859232
0.886765
0.923112
0.947881
0.95939
0.956809
0.930937
0.895757
0.833494
0.748456
0.661574
0.601294
0.567471
0.551813
0.546086
0.545255
0.547427
0.552206
0.561472
0.579362
0.607466
0.639265
1.06179
1.04131
0.925346
0.831169
0.800767
0.788416
0.785836
0.800833
0.82379
0.840887
0.859586
0.892346
0.927296
0.953158
0.964883
0.974232
0.966518
0.939836
0.907744
0.859392
0.783936
0.700116
0.627832
0.580856
0.558196
0.548835
0.547486
0.553146
0.568057
0.597206
0.635913
0.651321
0.652716
1.05151
1.04367
0.948525
0.829848
0.797658
0.784887
0.782245
0.797378
0.824735
0.852943
0.886217
0.932231
0.966667
0.981742
0.989711
0.991742
0.976629
0.953849
0.923259
0.88352
0.820702
0.743909
0.666641
0.606584
0.576459
0.567164
0.577818
0.60948
0.644424
0.655078
0.654517
0.648376
0.63345
1.03986
1.04002
0.972972
0.839499
0.797508
0.782176
0.777686
0.789856
0.818684
0.850563
0.88984
0.941118
0.988748
1.0117
1.02112
1.03184
1.02405
0.999294
0.966917
0.93018
0.882376
0.81772
0.747299
0.688558
0.668838
0.671092
0.676841
0.675084
0.668548
0.651983
0.624958
0.60267
0.588982
1.02517
1.03263
0.991481
0.857422
0.798165
0.778077
0.771242
0.776477
0.800536
0.832588
0.869489
0.914111
0.957891
0.992937
1.02061
1.03801
1.05657
1.06871
1.06867
1.05985
1.0359
0.992854
0.926353
0.84682
0.776353
0.722315
0.686605
0.650943
0.617601
0.595111
0.586105
0.578807
0.57311
1.00706
1.02227
1.00579
0.893267
0.800449
0.773297
0.763271
0.760078
0.772629
0.795059
0.819518
0.848196
0.87514
0.905791
0.938432
0.977761
1.00734
1.02818
1.0398
1.04381
1.03879
1.00665
0.945835
0.869765
0.779816
0.705477
0.648896
0.614379
0.595935
0.58403
0.577854
0.571604
0.566122
0.98435
1.00711
1.00942
0.935862
0.811838
0.773138
0.755043
0.746836
0.748023
0.760414
0.775124
0.789852
0.802296
0.810682
0.824335
0.842413
0.85974
0.875831
0.887563
0.892701
0.886567
0.866654
0.845184
0.795922
0.757977
0.700942
0.657779
0.622539
0.600714
0.586029
0.576927
0.569573
0.564271
0.961962
0.98334
1.00293
0.969088
0.838591
0.782106
0.753735
0.734552
0.727352
0.727379
0.731479
0.736229
0.740269
0.742124
0.747443
0.753614
0.761425
0.766744
0.772944
0.777059
0.776688
0.777308
0.767594
0.755432
0.732584
0.707503
0.67029
0.638287
0.60887
0.590429
0.577349
0.569502
0.562242
0.936932
0.953207
0.989424
0.985103
0.881687
0.799178
0.769901
0.729952
0.70916
0.697392
0.687436
0.67309
0.660415
0.646299
0.638275
0.634838
0.633357
0.635269
0.645382
0.65116
0.65945
0.663528
0.667553
0.667345
0.668075
0.660014
0.649512
0.630025
0.609962
0.592299
0.578579
0.567577
0.56023
0.910678
0.920141
0.963028
0.985222
0.930032
0.817214
0.782581
0.747454
0.704523
0.686509
0.672652
0.65144
0.628972
0.608903
0.587658
0.572893
0.565096
0.559791
0.55621
0.55428
0.555634
0.556803
0.559201
0.564279
0.570209
0.578788
0.583445
0.586747
0.583756
0.578632
0.572407
0.566066
0.557269
0.888335
0.892591
0.922826
0.970672
0.963751
0.845868
0.797084
0.771371
0.717447
0.682719
0.666281
0.646437
0.622124
0.600354
0.577852
0.556512
0.542949
0.53321
0.52616
0.520584
0.515388
0.511275
0.507256
0.503347
0.501035
0.501432
0.507037
0.516987
0.527147
0.537001
0.545513
0.552729
0.552076
0.868773
0.866096
0.882664
0.944288
0.966522
0.892535
0.811974
0.788131
0.750835
0.690541
0.665174
0.648893
0.624191
0.599692
0.579206
0.554963
0.537714
0.525096
0.514958
0.506411
0.49885
0.49119
0.484894
0.478055
0.471519
0.466436
0.462717
0.463001
0.468376
0.480872
0.495756
0.514716
0.535147
0.852858
0.842528
0.849668
0.891453
0.95013
0.936427
0.830724
0.799001
0.779285
0.725191
0.672434
0.65255
0.634064
0.611269
0.591613
0.569234
0.545297
0.526744
0.512608
0.501149
0.491775
0.482818
0.473889
0.465376
0.457813
0.451353
0.445578
0.440215
0.43652
0.436944
0.446576
0.46522
0.49076
0.83592
0.825593
0.821815
0.837718
0.908929
0.944595
0.859628
0.805796
0.792906
0.766641
0.698396
0.65924
0.640554
0.622606
0.602371
0.585933
0.563423
0.54027
0.520955
0.504761
0.493188
0.483521
0.473727
0.463769
0.454367
0.445658
0.438613
0.432543
0.427341
0.421512
0.417515
0.421402
0.44198
0.820605
0.811693
0.799316
0.804571
0.847082
0.917049
0.9025
0.811481
0.794069
0.787044
0.746859
0.677938
0.647939
0.631265
0.611742
0.59578
0.580334
0.558614
0.533601
0.513074
0.498589
0.488719
0.480488
0.472824
0.463103
0.453408
0.443817
0.435065
0.427667
0.420687
0.41372
0.407284
0.406825
0.80726
0.799529
0.785993
0.777446
0.787985
0.858896
0.910766
0.836413
0.785982
0.784457
0.776344
0.72277
0.665372
0.639293
0.625929
0.610787
0.596185
0.57901
0.554711
0.53058
0.508925
0.493876
0.484351
0.478179
0.474274
0.469581
0.463701
0.454528
0.442761
0.429999
0.419192
0.410124
0.401593
0.793721
0.787906
0.774304
0.757837
0.756336
0.785397
0.874529
0.873222
0.786216
0.767698
0.781674
0.763412
0.706296
0.657123
0.632862
0.621622
0.610136
0.596316
0.578038
0.557973
0.536305
0.516304
0.500995
0.489737
0.484861
0.482494
0.480906
0.478681
0.472333
0.459539
0.441576
0.422216
0.408241
0.77845
0.778823
0.765604
0.746956
0.733568
0.734409
0.791088
0.863304
0.821455
0.750787
0.760743
0.775715
0.747304
0.696507
0.655479
0.629958
0.615368
0.604414
0.592756
0.579068
0.564559
0.551399
0.541291
0.536466
0.537263
0.539263
0.537788
0.530595
0.514603
0.496206
0.480253
0.455804
0.429724
0.763241
0.766047
0.756629
0.734263
0.720041
0.711154
0.717748
0.817512
0.832877
0.763726
0.735009
0.755195
0.763048
0.734194
0.69716
0.663983
0.640234
0.623854
0.611237
0.605034
0.602737
0.606436
0.620645
0.64292
0.657932
0.661595
0.659139
0.65214
0.634871
0.59329
0.547447
0.509087
0.473009
0.747094
0.751309
0.745594
0.727068
0.709171
0.697044
0.684983
0.721569
0.80156
0.787861
0.723904
0.727453
0.744132
0.745439
0.726456
0.701907
0.681883
0.666995
0.661856
0.661909
0.670742
0.686634
0.70181
0.708705
0.70547
0.699037
0.693631
0.689094
0.684335
0.675326
0.66177
0.620889
0.546884
0.731704
0.736802
0.731736
0.716188
0.697144
0.683361
0.671186
0.670483
0.74087
0.769628
0.746008
0.708586
0.716181
0.731473
0.731806
0.721763
0.709042
0.700914
0.699725
0.703512
0.709181
0.709888
0.704542
0.692727
0.682198
0.681029
0.683537
0.685122
0.684174
0.68242
0.689197
0.684362
0.661555
0.714916
0.717752
0.717297
0.702238
0.68536
0.670289
0.662478
0.6495
0.665033
0.732031
0.738724
0.708061
0.696741
0.706169
0.717369
0.719049
0.715398
0.711861
0.709478
0.706009
0.699463
0.683948
0.666366
0.661798
0.674895
0.717019
0.748785
0.756253
0.737557
0.702234
0.683245
0.687839
0.69966
0.6981
0.69964
0.698812
0.68776
0.671085
0.658911
0.649036
0.638446
0.637707
0.668532
0.712897
0.70924
0.686885
0.686812
0.694816
0.702785
0.703154
0.701222
0.697201
0.68978
0.677545
0.667548
0.669325
0.723173
0.855398
0.944785
0.981782
0.988264
0.953581
0.850912
0.729723
0.690123
0.692519
0.681083
0.681386
0.678515
0.668134
0.655905
0.645819
0.635113
0.630245
0.622291
0.627408
0.672233
0.689952
0.684842
0.672003
0.673289
0.682885
0.686851
0.686381
0.683349
0.675559
0.667422
0.673764
0.762322
0.918644
1.00473
1.04638
1.07326
1.08941
1.08968
1.04876
0.915829
0.740733
0.698159
0.664216
0.662851
0.659228
0.646924
0.634092
0.630421
0.622612
0.617963
0.610193
0.609283
0.620912
0.662504
0.671886
0.66567
0.659243
0.661992
0.67029
0.673444
0.672649
0.669997
0.682959
0.7599
0.903569
0.977362
1.00583
1.02726
1.05914
1.0966
1.11659
1.11395
1.0662
0.91399
0.739432
0.647824
0.644816
0.63915
0.62761
0.613853
0.609363
0.608621
0.604722
0.598051
0.596338
0.598523
0.623672
0.653854
0.657418
0.653285
0.65077
0.654051
0.66076
0.667281
0.682448
0.725934
0.820475
0.906968
0.934615
0.922451
0.912477
0.94728
1.03692
1.09503
1.11741
1.10926
1.04118
0.859426
0.631794
0.626739
0.619575
0.608528
0.596057
0.591875
0.591198
0.591287
0.587731
0.585962
0.585974
0.593811
0.628627
0.645696
0.647608
0.646631
0.646536
0.65056
0.659512
0.677693
0.724849
0.814612
0.864317
0.844242
0.775194
0.757869
0.786195
0.897215
1.02517
1.08386
1.10179
1.07582
0.964541
0.616334
0.6099
0.601269
0.591991
0.584854
0.580276
0.577906
0.578922
0.577208
0.576477
0.576643
0.579762
0.593821
0.629366
0.641803
0.644599
0.645368
0.648168
0.654201
0.671838
0.717714
0.795995
0.803855
0.776571
0.711466
0.697056
0.715777
0.795456
0.937205
1.0213
1.05845
1.06329
0.99505
0.602471
0.595242
0.589406
0.582743
0.576946
0.57228
0.569214
0.569556
0.568712
0.568805
0.56967
0.57224
0.579468
0.604691
0.63473
0.644379
0.647801
0.648976
0.653305
0.662555
0.70335
0.755104
0.754475
0.733166
0.684891
0.670198
0.681325
0.74146
0.875084
0.962348
1.00318
1.0166
0.966646
0.591646
0.588326
0.583207
0.577159
0.571087
0.5661
0.562755
0.562525
0.562488
0.563369
0.565173
0.568652
0.573974
0.586474
0.620571
0.644114
0.653008
0.656891
0.659216
0.663443
0.681342
0.710145
0.706789
0.691952
0.663918
0.653761
0.661459
0.713943
0.83367
0.910392
0.946032
0.957613
0.886792
0.58668
0.585469
0.579865
0.573223
0.567801
0.563399
0.5597
0.557843
0.558023
0.559936
0.562709
0.566566
0.572995
0.582132
0.600067
0.63742
0.65829
0.665477
0.667898
0.66885
0.673491
0.683317
0.677051
0.665957
0.649708
0.645228
0.651144
0.706213
0.814029
0.869512
0.891339
0.889137
0.81153
0.585958
0.584608
0.577923
0.572923
0.568108
0.563599
0.560413
0.558577
0.557553
0.559416
0.561951
0.566891
0.573263
0.582656
0.594794
0.616969
0.654551
0.669232
0.67351
0.673526
0.673016
0.672515
0.664321
0.654398
0.646118
0.64342
0.653968
0.729695
0.816718
0.843492
0.847233
0.809416
0.723619
0.587305
0.58604
0.579364
0.572742
0.565864
0.560852
0.558313
0.557739
0.558863
0.561248
0.562855
0.566947
0.573019
0.580424
0.590845
0.605047
0.632673
0.66277
0.672868
0.67504
0.674487
0.670454
0.66338
0.656387
0.650702
0.652685
0.68231
0.776975
0.82233
0.825982
0.803748
0.721077
0.656059
0.593473
0.588802
0.578956
0.570434
0.561872
0.556361
0.554244
0.554636
0.55708
0.561201
0.563673
0.566776
0.572503
0.577555
0.585397
0.595378
0.611571
0.643944
0.665353
0.672772
0.676639
0.675102
0.670629
0.666802
0.664733
0.677997
0.752676
0.815018
0.821577
0.804765
0.732569
0.645044
0.61165
0.598663
0.588869
0.576296
0.563969
0.553282
0.54793
0.54732
0.54926
0.552626
0.558136
0.562432
0.565765
0.57072
0.575728
0.579895
0.588722
0.600269
0.621818
0.655486
0.672418
0.680544
0.683738
0.684502
0.685192
0.695316
0.751361
0.822092
0.833863
0.817022
0.744796
0.656242
0.616893
0.598348
0.599785
0.585697
0.567723
0.54988
0.537975
0.534962
0.53753
0.541942
0.547025
0.553404
0.559384
0.563645
0.568917
0.57388
0.576754
0.58201
0.591084
0.607777
0.640571
0.671108
0.68982
0.70136
0.706052
0.718061
0.764659
0.840694
0.856083
0.838458
0.763957
0.671016
0.634234
0.614313
0.598788
0.597588
0.576878
0.550188
0.527716
0.517788
0.517585
0.523541
0.531384
0.540199
0.548073
0.554977
0.5608
0.567288
0.572323
0.574963
0.579393
0.589124
0.603706
0.633363
0.67608
0.705818
0.720274
0.73905
0.794186
0.869989
0.8841
0.863075
0.775954
0.689781
0.655682
0.638126
0.629811
0.616935
0.590169
0.561085
0.524514
0.501299
0.492636
0.492762
0.497707
0.507
0.522799
0.535752
0.545602
0.554369
0.563318
0.568611
0.57241
0.57747
0.586688
0.60358
0.644712
0.694377
0.729612
0.760075
0.830669
0.900876
0.913052
0.886891
0.788593
0.705199
0.677208
0.669813
0.666618
0.662469
0.6486
0.578529
0.538451
0.496338
0.474304
0.464282
0.459069
0.457364
0.46111
0.47255
0.491118
0.511941
0.528628
0.542075
0.54994
0.558064
0.567638
0.589226
0.619558
0.672412
0.731372
0.788111
0.876356
0.935005
0.941175
0.904245
0.789197
0.717863
0.695818
0.688399
0.69076
0.687802
0.681622
0.668425
0.562192
0.51105
0.474161
0.458823
0.451752
0.448248
0.446993
0.448431
0.453837
0.465068
0.482269
0.498802
0.515627
0.532437
0.553518
0.579569
0.612597
0.659999
0.742251
0.84208
0.930085
0.967187
0.965036
0.900169
0.780915
0.72839
0.710675
0.700697
0.699667
0.701197
0.69798
0.691731
0.680904
0.540949
0.487645
0.465773
0.456776
0.453134
0.452622
0.45411
0.457565
0.464684
0.475757
0.489171
0.506124
0.525116
0.548036
0.57918
0.624792
0.701497
0.812666
0.911528
0.967555
0.989207
0.966197
0.858786
0.76889
0.734505
0.719376
0.709017
0.700533
0.690556
0.684555
0.685613
0.686378
0.681819
0.520032
0.478769
0.46534
0.460966
0.465617
0.476106
0.487337
0.496077
0.503251
0.51236
0.526817
0.547833
0.579716
0.632211
0.711883
0.806748
0.892788
0.948119
0.983014
0.979935
0.893049
0.793212
0.746464
0.726818
0.710633
0.693175
0.674535
0.658061
0.645502
0.636347
0.637817
0.658017
0.668941
0.5066
0.47777
0.468708
0.474145
0.495773
0.529017
0.565762
0.596901
0.620231
0.638685
0.663846
0.701367
0.755418
0.81337
0.867426
0.911096
0.944679
0.954185
0.903915
0.781974
0.725713
0.7147
0.697328
0.670471
0.633206
0.597593
0.576674
0.566073
0.558796
0.555776
0.565275
0.603259
0.640789
0.501656
0.479463
0.475051
0.490812
0.526701
0.575239
0.623663
0.663081
0.690181
0.7171
0.752642
0.789916
0.82214
0.853149
0.88102
0.88042
0.842257
0.761794
0.71344
0.683257
0.664235
0.629314
0.579722
0.528524
0.48779
0.46375
0.45026
0.441131
0.440601
0.450656
0.476151
0.526878
0.589196
0.500775
0.482526
0.482562
0.506919
0.5519
0.603945
0.648355
0.679175
0.702609
0.730763
0.753806
0.775563
0.782458
0.763384
0.726834
0.696605
0.683637
0.678254
0.652628
0.588936
0.525896
0.483397
0.467694
0.459095
0.447291
0.434587
0.418089
0.400432
0.389337
0.386923
0.395278
0.437921
0.517712
0.501792
0.486175
0.488912
0.518445
0.568426
0.613494
0.643901
0.656378
0.670857
0.679701
0.670207
0.647006
0.635578
0.633209
0.641882
0.648925
0.645207
0.604086
0.521372
0.475946
0.459233
0.456026
0.46243
0.469681
0.463145
0.447864
0.423013
0.396912
0.379152
0.371089
0.36853
0.383772
0.450983
0.505242
0.489607
0.493244
0.524855
0.567067
0.586465
0.592888
0.598133
0.59511
0.581426
0.57699
0.58474
0.59713
0.611586
0.622159
0.613437
0.570954
0.508904
0.474375
0.464195
0.464133
0.484308
0.512401
0.521463
0.514567
0.494303
0.452742
0.411269
0.383204
0.369094
0.364758
0.369988
0.428466
0.511999
0.492457
0.493525
0.520743
0.548634
0.555892
0.558626
0.555458
0.545007
0.546603
0.555959
0.570245
0.588297
0.602179
0.603366
0.580303
0.5331
0.497218
0.493408
0.499562
0.514291
0.524359
0.531959
0.533219
0.529607
0.521455
0.500666
0.465177
0.429217
0.403539
0.391741
0.39681
0.464703
0.522939
0.494153
0.491589
0.510646
0.532428
0.536516
0.536759
0.52956
0.527073
0.533975
0.548241
0.571265
0.587904
0.600813
0.601402
0.583054
0.563432
0.564153
0.563953
0.558669
0.549204
0.536723
0.536465
0.533789
0.530996
0.531209
0.53364
0.534215
0.532156
0.528241
0.527817
0.552737
0.615967
0.538635
0.497302
0.490704
0.501009
0.520293
0.523884
0.52329
0.516932
0.51837
0.527069
0.548092
0.578567
0.601354
0.621239
0.641659
0.660437
0.675185
0.678377
0.655305
0.614131
0.585772
0.557701
0.540688
0.533688
0.52929
0.530154
0.536985
0.547962
0.565205
0.585631
0.611857
0.645641
0.660553
0.557259
0.506301
0.491152
0.493178
0.509908
0.515063
0.514766
0.51081
0.512786
0.523818
0.551196
0.593181
0.636221
0.667394
0.692545
0.710724
0.72407
0.726857
0.712395
0.680712
0.635207
0.587103
0.554942
0.53626
0.527238
0.520148
0.516013
0.521755
0.538647
0.563623
0.587505
0.610644
0.608784
0.573396
0.527338
0.4932
0.489165
0.499296
0.508475
0.508802
0.507274
0.508863
0.520854
0.551756
0.602758
0.651389
0.680023
0.700172
0.715692
0.728081
0.732146
0.721589
0.691324
0.640809
0.591928
0.569571
0.549298
0.533394
0.520499
0.508929
0.496358
0.485163
0.477688
0.476739
0.488646
0.489234
0.5859
0.555147
0.501567
0.488844
0.490606
0.502673
0.504873
0.50454
0.505832
0.516163
0.545396
0.593885
0.645202
0.674506
0.69417
0.709197
0.721039
0.725077
0.713737
0.67976
0.62566
0.589728
0.575918
0.570138
0.556117
0.537255
0.516986
0.495105
0.477268
0.460426
0.448124
0.438023
0.429523
0.594807
0.579146
0.526634
0.491249
0.486549
0.494242
0.502118
0.50269
0.503471
0.510838
0.53302
0.574044
0.621323
0.65048
0.670042
0.68527
0.697577
0.700427
0.682411
0.638611
0.600533
0.588284
0.586896
0.585889
0.58604
0.569295
0.545559
0.515612
0.488534
0.459784
0.440405
0.424513
0.413591
0.602143
0.595736
0.561282
0.501822
0.486475
0.486029
0.497473
0.502125
0.503023
0.506768
0.521685
0.552455
0.588562
0.609189
0.624117
0.644666
0.662939
0.670156
0.65735
0.61978
0.600923
0.605491
0.623706
0.627112
0.620698
0.602633
0.575851
0.541465
0.506434
0.469165
0.437397
0.421621
0.413876
0.60909
0.606852
0.589619
0.532854
0.48995
0.482959
0.487358
0.499228
0.503676
0.506155
0.514237
0.53522
0.561885
0.576564
0.587765
0.607806
0.640708
0.654964
0.648286
0.622633
0.623482
0.656431
0.68734
0.687442
0.681725
0.652243
0.618243
0.57331
0.520237
0.467882
0.427831
0.415546
0.415274
0.808368
0.80492
0.853402
0.906317
0.928168
0.930273
0.912495
0.832445
0.813932
0.808512
0.842809
0.914631
0.933828
0.938937
0.929082
0.895064
0.816846
0.811953
0.842471
0.917806
0.950845
0.949947
0.937386
0.915552
0.819293
0.816908
0.852969
0.91965
0.960736
0.965728
0.951277
0.926675
0.821762
0.830189
0.881348
0.931337
0.967841
0.975401
0.959984
0.931576
0.829028
0.866913
0.921236
0.95535
0.978806
0.985757
0.972395
0.94708
0.8612
0.906996
0.942256
0.96427
0.979388
0.984099
0.97524
0.953147
0.894904
0.923313
0.949642
0.965694
0.975731
0.977625
0.969644
0.950608
0.903003
0.928314
0.951772
0.964718
0.968233
0.964363
0.955549
0.94037
0.898025
0.934019
0.954631
0.959938
0.946657
0.928711
0.914299
0.901467
0.930217
0.95521
0.939335
0.912421
0.870681
0.836749
0.816226
0.803619
0.94352
0.908933
0.840595
0.795
0.770295
0.752212
0.739738
0.731564
0.846471
0.795056
0.767718
0.748632
0.732614
0.719889
0.709209
0.699166
0.780676
0.756897
0.732655
0.703074
0.680209
0.663722
0.651045
0.64008
0.733226
0.690898
0.654332
0.635355