/*--------------------------------*- C++ -*----------------------------------*\
  =========                 |
  \\      /  F ield         | OpenFOAM: The Open Source CFD Toolbox
   \\    /   O peration     | Website:  https://openfoam.org
    \\  /    A nd           | Version:  10
     \\/     M anipulation  |
\*---------------------------------------------------------------------------*/
FoamFile
{
    format      ascii;
    class       volScalarField;
    location    "0.600752";
    object      T;
}
// * * * * * * * * * * * * * * * * * * * * * * * * * * * * * * * * * * * * * //

dimensions      [0 0 0 1 0 0 0];

internalField   nonuniform List<scalar> 
16320
(
0.00381179
0.00377798
0.00363707
0.00343032
0.00332583
0.00335283
0.00357799
0.0038679
0.00392592
0.00390992
0.00387876
0.00386847
0.00385722
0.00383315
0.00380242
0.00376931
0.00374132
0.00371099
0.00366553
0.00365387
0.00366214
0.00372124
0.00392025
0.00426259
0.00446771
0.00451071
0.00445714
0.00430594
0.00400076
0.00362348
0.00340998
0.00337975
0.00343626
0.00403171
0.00411748
0.00408181
0.0038401
0.00355273
0.00351969
0.00367278
0.00397409
0.00407828
0.00404871
0.00396729
0.00390165
0.00385526
0.00381727
0.00377182
0.00371757
0.00367214
0.00363637
0.00361048
0.00361377
0.00364175
0.00372654
0.00398423
0.00429563
0.00445798
0.00446801
0.0043975
0.00417086
0.00386044
0.00353743
0.00338673
0.00337957
0.00345429
0.00406115
0.00420211
0.00426459
0.00423764
0.00402031
0.00374701
0.00375176
0.00396014
0.00414189
0.00414922
0.00405323
0.00391287
0.00378513
0.00372004
0.00367257
0.00363478
0.00360029
0.00356819
0.0035596
0.00357174
0.00361631
0.00374532
0.00402995
0.00428474
0.00437908
0.00434972
0.00420649
0.00400589
0.00370835
0.00345898
0.00337245
0.0033866
0.003493
0.00400952
0.0041849
0.00428802
0.00432013
0.00430129
0.00411893
0.00387255
0.00390627
0.00411331
0.00419777
0.0041489
0.00395081
0.00372118
0.00358755
0.0035476
0.00355063
0.00355571
0.00354739
0.00354442
0.00356003
0.00361436
0.00376893
0.00402629
0.00420072
0.00420642
0.00416399
0.00403766
0.00381657
0.00356023
0.00340016
0.003372
0.00341665
0.00355127
0.00396641
0.00411457
0.00423882
0.0043174
0.00433927
0.00432222
0.0041629
0.0039482
0.00399524
0.00418047
0.00420405
0.00403736
0.00373208
0.00355767
0.00347406
0.00346337
0.00349176
0.00352871
0.00354145
0.00356343
0.00362087
0.00378036
0.00398153
0.00406108
0.00404409
0.00397917
0.00382187
0.00361925
0.0034466
0.00337868
0.00338944
0.00349809
0.00360502
0.0039543
0.00406067
0.00415288
0.00423276
0.00430178
0.00433456
0.00431925
0.00415514
0.0039791
0.00405109
0.00419155
0.00414929
0.00382394
0.00357333
0.00346982
0.00343063
0.00343409
0.00347808
0.00352704
0.0035609
0.00362123
0.00376297
0.0038736
0.00388014
0.00384298
0.00375005
0.00360956
0.00347523
0.00339716
0.00339219
0.00346264
0.00360653
0.0036324
0.00393206
0.00399113
0.00403828
0.00409218
0.00415297
0.00423527
0.00430782
0.0043045
0.00416374
0.00402127
0.00409956
0.00416064
0.00403346
0.00365767
0.00349021
0.00343497
0.00342944
0.00344537
0.0034765
0.00352255
0.00358706
0.00367125
0.0036936
0.00367606
0.00363479
0.00355932
0.00347399
0.00341765
0.00340868
0.00346676
0.00361188
0.00365439
0.00362664
0.00381168
0.00381684
0.00382632
0.0038634
0.00392284
0.00399265
0.00411937
0.0042684
0.00428664
0.00416435
0.00406631
0.00412037
0.00411539
0.00390058
0.00357749
0.00346685
0.00343851
0.00344551
0.00346009
0.00347971
0.00351308
0.0035449
0.00354962
0.00353182
0.00350096
0.00346236
0.00343614
0.00343582
0.00350267
0.00363569
0.00367264
0.00365109
0.00352828
0.00357998
0.00356622
0.00357525
0.00357206
0.00362255
0.00370285
0.00379075
0.00398409
0.00421641
0.00425863
0.00416729
0.00410165
0.00411405
0.0040667
0.00382616
0.00357063
0.00348316
0.00346246
0.0034606
0.0034667
0.0034799
0.00348602
0.00348192
0.00347209
0.00346131
0.00345745
0.00347375
0.00356279
0.00366332
0.00368619
0.0036608
0.00356085
0.00344427
0.00348665
0.00348676
0.003472
0.00346218
0.00344287
0.0034569
0.0035083
0.00361491
0.00388572
0.00416789
0.00421058
0.00415241
0.00412001
0.00410425
0.0040216
0.00381223
0.00362077
0.00352856
0.00349162
0.00347948
0.00348237
0.00348251
0.0034805
0.00348136
0.00349398
0.00354018
0.00363468
0.00369895
0.00371043
0.00368497
0.00360522
0.00355634
0.00348952
0.00348485
0.0034755
0.0034642
0.00341901
0.00337607
0.00336151
0.00337324
0.00341403
0.00353235
0.00387971
0.00415819
0.00419753
0.00415521
0.00412661
0.00409474
0.00399282
0.0038414
0.00371023
0.00361607
0.00356432
0.00354637
0.00354459
0.00355671
0.00359119
0.00364444
0.0037019
0.00373359
0.00374318
0.00374042
0.00372724
0.00372484
0.0036964
0.00350454
0.00352146
0.00348684
0.00344362
0.0034104
0.00336229
0.00331488
0.00331542
0.00332413
0.00339412
0.00353369
0.00398132
0.00419467
0.00420984
0.00416725
0.00413032
0.00407827
0.0039889
0.00389501
0.00381846
0.00376221
0.00373098
0.0037214
0.00372397
0.00373245
0.00375165
0.00377622
0.00380031
0.00383762
0.00392351
0.00396074
0.00387471
0.00351432
0.00319204
0.00352751
0.00346652
0.00344091
0.00340935
0.00336407
0.00330416
0.00327743
0.00328708
0.00331092
0.00341663
0.00368489
0.00411999
0.00424883
0.00422937
0.00416021
0.00411697
0.00406289
0.00399749
0.00393286
0.00388003
0.00384088
0.00381454
0.00380845
0.00381957
0.00384896
0.00390318
0.00402982
0.00414225
0.00413252
0.00391545
0.00342981
0.00323519
0.00326871
0.00347646
0.00345625
0.00345643
0.00344437
0.00340791
0.00333291
0.00326789
0.00326245
0.00328054
0.00334102
0.00351322
0.00395517
0.00425061
0.00427981
0.00422445
0.00414282
0.00408823
0.00403506
0.00398518
0.00393974
0.00391716
0.00392465
0.00394426
0.0039775
0.00408538
0.00423118
0.00426162
0.00418578
0.00380979
0.00341289
0.00336745
0.00348356
0.00366552
0.00345826
0.00347783
0.00356169
0.00357943
0.00355108
0.00345717
0.00332066
0.00326687
0.00327128
0.00331263
0.00342829
0.00379265
0.00421626
0.00433013
0.00429837
0.00420132
0.00414156
0.0040907
0.00405753
0.00406935
0.00407652
0.00409354
0.00415625
0.00427387
0.00434579
0.00431923
0.00414661
0.00372489
0.00347727
0.00349574
0.00365296
0.00378947
0.00385208
0.00348065
0.00359337
0.00382785
0.00387184
0.00382997
0.00369211
0.00347975
0.0033254
0.00329448
0.00331381
0.0034009
0.00364967
0.00414776
0.00436621
0.00436796
0.0043027
0.0042301
0.0042095
0.0042263
0.00421484
0.00424366
0.00432009
0.00438416
0.00438881
0.00433442
0.00404042
0.00367079
0.00355126
0.00360349
0.00380243
0.00388784
0.00401839
0.00424792
0.00356014
0.00376308
0.00407327
0.00420028
0.00416026
0.00400227
0.00374465
0.00348049
0.00335297
0.00334157
0.00340816
0.00361228
0.004064
0.00436379
0.00442186
0.0043925
0.00436447
0.00435534
0.00432664
0.00436824
0.00443036
0.00445906
0.00441183
0.00431809
0.00396104
0.00367998
0.00362525
0.00370317
0.00389885
0.00404137
0.00431552
0.00454039
0.00463136
0.00362388
0.00386835
0.00416372
0.00440372
0.0044187
0.00431496
0.00408111
0.00374279
0.00347061
0.003402
0.00344196
0.00362975
0.0040499
0.00436714
0.00447228
0.00447363
0.00444857
0.00442142
0.00447329
0.00452111
0.00450374
0.00444284
0.00427399
0.00390709
0.00372059
0.00368956
0.00379365
0.00399658
0.0042634
0.00458708
0.00475441
0.00481497
0.00476685
0.00366492
0.00388638
0.00424307
0.00452579
0.004607
0.00454893
0.00430936
0.0039663
0.0036293
0.00351738
0.00352102
0.00368011
0.00407547
0.00438178
0.00449217
0.00450621
0.00450043
0.00454819
0.00458513
0.00454023
0.00445335
0.00417254
0.00386982
0.00376707
0.0037602
0.00390661
0.00417328
0.00464678
0.00496398
0.0050961
0.00513771
0.00506599
0.00490209
0.00366993
0.00389827
0.00426779
0.0045836
0.0046718
0.00462544
0.0043629
0.00399795
0.00374741
0.00365624
0.00365431
0.00380649
0.00414086
0.00441866
0.00452616
0.00456421
0.00461372
0.0046356
0.00458204
0.00445791
0.00411342
0.00387357
0.00381805
0.00384334
0.00406606
0.00446312
0.00498597
0.00523241
0.00531746
0.00532667
0.00523989
0.00508145
0.00488324
0.00367546
0.00384376
0.00424828
0.00459712
0.004687
0.0046465
0.00435488
0.00396252
0.00378139
0.00373037
0.00376196
0.00393396
0.00423666
0.00449092
0.00461099
0.00468327
0.00468324
0.00461975
0.00445839
0.00409258
0.00390871
0.00387269
0.00393564
0.00425883
0.00472726
0.00510955
0.00527382
0.00532638
0.00533337
0.00526512
0.00511224
0.00490865
0.00470593
0.00368147
0.00379048
0.00407947
0.00454828
0.00468768
0.00468169
0.00445713
0.00408762
0.00391838
0.00387552
0.00390648
0.00412996
0.00444392
0.00466191
0.00475213
0.00473763
0.00464753
0.00441208
0.00408425
0.00395727
0.00393124
0.00403313
0.00444691
0.00480005
0.00502337
0.00514653
0.0051986
0.00514793
0.0050013
0.00472263
0.00448507
0.00431763
0.00419342
0.00373881
0.00376779
0.00391931
0.00432773
0.00465855
0.00471529
0.00466581
0.00447345
0.00428104
0.00422957
0.00426882
0.00456544
0.00475264
0.0048249
0.0047983
0.0046831
0.00437077
0.00410545
0.00402494
0.00401108
0.00416822
0.00452248
0.00472476
0.00484472
0.0049161
0.00485861
0.00462674
0.00440486
0.00421222
0.00411712
0.00404138
0.0039875
0.00393767
0.0038137
0.00378235
0.0038542
0.00403248
0.00447765
0.00468606
0.00472074
0.00469407
0.00466136
0.00464944
0.00470986
0.00481192
0.00484124
0.00481639
0.00470294
0.00439675
0.00419097
0.0041193
0.00411177
0.00431526
0.00453469
0.00462349
0.00466652
0.00464003
0.00438088
0.00418751
0.00408417
0.00402066
0.00397394
0.0039542
0.00393094
0.00390336
0.00386781
0.00396248
0.00386847
0.00383882
0.00391563
0.00408205
0.0044597
0.00465502
0.00469179
0.00470774
0.00471175
0.00474126
0.00475985
0.00474616
0.00459217
0.00442112
0.00431548
0.00425263
0.00425712
0.00442714
0.00452026
0.00452671
0.00452956
0.00434944
0.00412682
0.00401162
0.00396832
0.00394956
0.00394552
0.00394014
0.00392967
0.00390463
0.00387243
0.00382459
0.00403532
0.00402758
0.00392331
0.00389
0.0039492
0.00403915
0.004258
0.0044281
0.00448791
0.0045123
0.00451897
0.00449559
0.00443605
0.00440501
0.00439402
0.00441074
0.00450674
0.00455882
0.00457236
0.00451332
0.00442651
0.00420925
0.00403309
0.00397163
0.00395033
0.0039505
0.00395292
0.00395435
0.00393805
0.00391094
0.0038678
0.00382838
0.00380011
0.00405001
0.00409254
0.00410954
0.00399142
0.00394669
0.00394675
0.00402852
0.00409006
0.00416902
0.00422539
0.00426901
0.00431943
0.004372
0.00443742
0.00454173
0.00468256
0.00474354
0.00469335
0.00456556
0.00441053
0.00417497
0.00402835
0.00397812
0.00396032
0.00396026
0.00396361
0.00396265
0.00394528
0.0039159
0.0038849
0.0038746
0.00386779
0.00388702
0.00400555
0.00409763
0.00417631
0.0042065
0.00415809
0.00404674
0.00402517
0.00406923
0.00415305
0.00421943
0.00429214
0.00437406
0.00449097
0.00461825
0.00474132
0.00480395
0.00480122
0.00468956
0.00450258
0.00425687
0.00406767
0.00400384
0.00397015
0.00396473
0.00396344
0.00395951
0.00394008
0.00392322
0.00392003
0.00393033
0.00397792
0.00403345
0.00404536
0.00391419
0.00396939
0.0041332
0.00425715
0.00430243
0.00431717
0.00428031
0.00425877
0.00427586
0.00434536
0.00443018
0.00452835
0.00461169
0.00469774
0.00476848
0.00481054
0.00478162
0.00465567
0.0044157
0.00417547
0.00404541
0.00397581
0.00395662
0.00394508
0.00393651
0.00393211
0.00393191
0.00395563
0.0040046
0.00409965
0.00414163
0.00414587
0.00411545
0.00387858
0.00385384
0.00391312
0.00413054
0.00430893
0.00438001
0.00440992
0.00442196
0.00443448
0.00446269
0.00450965
0.00456199
0.00462404
0.00469212
0.0047606
0.00479295
0.00474834
0.00459277
0.00434306
0.00410025
0.00400053
0.00391987
0.00390497
0.00389658
0.00392901
0.00394509
0.00398938
0.00410296
0.00418884
0.00421122
0.00421259
0.00418466
0.00411696
0.00390904
0.00383238
0.00382747
0.00387801
0.0040384
0.00429823
0.00441238
0.00445345
0.00446888
0.00448978
0.00451606
0.00455388
0.00460093
0.00467981
0.00475583
0.0047866
0.00470365
0.00449579
0.00423258
0.00406529
0.00391864
0.00388693
0.00386854
0.00391051
0.00395615
0.00403246
0.00415136
0.00419805
0.00421772
0.00420639
0.0041975
0.00415177
0.00407935
0.0040626
0.00387065
0.00382911
0.00383474
0.00388803
0.00398912
0.00420343
0.0043875
0.00444668
0.00447164
0.00449028
0.00451304
0.00457662
0.00467996
0.00475236
0.00477231
0.00462302
0.0043747
0.00416633
0.00399379
0.00391314
0.00387255
0.00388271
0.00395684
0.0040279
0.00411732
0.00414995
0.00416776
0.0041509
0.00411791
0.00404134
0.00395076
0.00387356
0.00416587
0.0039997
0.00389979
0.00388478
0.00388279
0.00390705
0.00394335
0.00406718
0.00430196
0.00439905
0.00443999
0.00448498
0.00456195
0.00468718
0.00474038
0.00472773
0.00450734
0.00426429
0.00412639
0.00396518
0.00390803
0.0038728
0.00392643
0.00398371
0.00404407
0.00406
0.00407119
0.00401999
0.00392925
0.00377322
0.00357324
0.00340714
0.00335064
0.00419298
0.00412949
0.00403111
0.00401383
0.0040215
0.00400297
0.00393938
0.00391235
0.00394878
0.00414082
0.00433101
0.00442518
0.00453359
0.00466267
0.0047033
0.00464232
0.00438485
0.00417928
0.00408684
0.0039653
0.0039024
0.00387996
0.00392864
0.00395422
0.00396214
0.00392469
0.0038144
0.00360092
0.00331419
0.00302972
0.00281012
0.00270429
0.00264131
0.00415946
0.00417332
0.00413612
0.0041462
0.00425197
0.00429876
0.00419508
0.0039571
0.00386441
0.00386897
0.00401127
0.00425083
0.00445397
0.00459037
0.00462431
0.00454829
0.00426583
0.00411043
0.00404869
0.00396169
0.00389815
0.00387668
0.00387178
0.00383398
0.00374721
0.00357627
0.00334824
0.00307269
0.00281111
0.00261091
0.00248912
0.00245422
0.00242564
0.00406833
0.00417275
0.0041703
0.00420232
0.00437962
0.00457846
0.00458108
0.00428889
0.00389833
0.00381539
0.00383731
0.00399135
0.00429107
0.00448615
0.00452276
0.00443213
0.00416494
0.00406313
0.00403446
0.00395701
0.00388199
0.00382315
0.00372964
0.00363369
0.00348963
0.00330622
0.00308187
0.00287279
0.00269463
0.00256392
0.00247399
0.00244749
0.00243078
0.00386114
0.00411645
0.00418681
0.00423445
0.00443767
0.00468128
0.00470899
0.00454386
0.00406712
0.00383855
0.00381976
0.00392747
0.00424011
0.0044006
0.00442021
0.00430083
0.00407099
0.00401224
0.00400337
0.00394546
0.0038342
0.00372306
0.00359865
0.00350293
0.00336589
0.00320901
0.00304708
0.00287994
0.00272971
0.00263508
0.00260686
0.00260239
0.0026185
0.00359385
0.0040435
0.00419341
0.00428248
0.00450927
0.00470537
0.00472451
0.0045862
0.00421133
0.00396934
0.00393101
0.00400624
0.00425231
0.00433252
0.00432584
0.00416537
0.0039848
0.00396362
0.00398193
0.00391295
0.00379596
0.00365949
0.00353732
0.00344829
0.00333511
0.00321998
0.003077
0.00297091
0.002935
0.00293268
0.00296547
0.00300952
0.00303075
0.00347776
0.00391089
0.00419213
0.00432463
0.00454758
0.0046962
0.00470489
0.00459953
0.00437815
0.00424129
0.00420632
0.00422574
0.00429044
0.00429407
0.00420111
0.0039917
0.00391438
0.00392959
0.00396558
0.00390782
0.00379575
0.00364645
0.00351874
0.00343947
0.00335463
0.00326945
0.00320698
0.00319385
0.00319165
0.00320433
0.00321352
0.00321472
0.00319009
0.00342862
0.00372235
0.0041793
0.00434853
0.00455425
0.00466075
0.00466156
0.0045697
0.00443494
0.00437112
0.00434181
0.00430903
0.0042702
0.00418143
0.00399171
0.00387011
0.00385228
0.00390004
0.00393157
0.00393109
0.00381606
0.00365915
0.00352425
0.00345238
0.0033921
0.00335094
0.00331744
0.00330558
0.00330046
0.00329869
0.0032845
0.00325432
0.00320391
0.00341536
0.00362778
0.00414111
0.00436994
0.00453904
0.00461373
0.00460314
0.00450963
0.0044003
0.00434962
0.00430679
0.00422693
0.00411959
0.00396615
0.00381748
0.00376941
0.00377219
0.00386175
0.0039256
0.00395333
0.00385938
0.00369212
0.00353627
0.00346387
0.00341498
0.00338111
0.00335748
0.00333751
0.00332179
0.00330115
0.00326932
0.00320581
0.00311299
0.00342627
0.00354959
0.00403026
0.00437219
0.00450455
0.00455377
0.00453407
0.00442934
0.00430577
0.00423765
0.00416288
0.00403015
0.00390089
0.00375237
0.00367806
0.00366369
0.00369734
0.0038065
0.00390201
0.00396119
0.00391347
0.00374764
0.00357286
0.00347688
0.00342726
0.00339356
0.00336632
0.00333984
0.0033073
0.00325379
0.00315852
0.00301574
0.00286776
0.00343721
0.00350999
0.00393917
0.00433832
0.00446071
0.00449255
0.00446715
0.00434684
0.00419089
0.00407283
0.0039555
0.00379069
0.00364009
0.00354902
0.00352847
0.00353571
0.0036087
0.00373488
0.00386001
0.00394636
0.00396061
0.00381986
0.00362974
0.00350882
0.0034363
0.00339178
0.00335117
0.00329355
0.00319741
0.00303406
0.0028484
0.00277421
0.00275957
0.00344671
0.00347026
0.00380744
0.00429477
0.00442755
0.0044593
0.00443317
0.00430935
0.00412638
0.00395074
0.00376573
0.00355312
0.00341812
0.00336862
0.003363
0.00340036
0.00350845
0.00363268
0.00376858
0.00388969
0.00394661
0.00386588
0.00368002
0.00352833
0.00340988
0.0033176
0.00318699
0.00298547
0.00280705
0.00274557
0.00273413
0.00274656
0.00279633
0.00345207
0.00344365
0.00367113
0.00419779
0.00438064
0.00442403
0.00440961
0.00429958
0.0041043
0.00390633
0.00369108
0.00345512
0.00327865
0.00320036
0.00318686
0.00319404
0.0032737
0.0034077
0.00354947
0.00368921
0.00375767
0.00372342
0.00354624
0.00332397
0.00306898
0.00286601
0.002745
0.0026999
0.00269285
0.00273529
0.00283204
0.00291624
0.00296118
0.00345565
0.00342193
0.00355
0.00407154
0.00433051
0.00439617
0.00439861
0.00432516
0.00414866
0.00394187
0.00372846
0.00350745
0.00332458
0.00319917
0.00312227
0.00309995
0.003094
0.00311239
0.00314865
0.00319143
0.00321408
0.00317859
0.00307124
0.00293557
0.0028264
0.00278257
0.00276934
0.0028229
0.00291322
0.00297786
0.00299136
0.00299866
0.00299928
0.00346009
0.00340427
0.00344808
0.00386246
0.00426335
0.00437258
0.00439496
0.00437062
0.00425251
0.00408275
0.00391219
0.00373566
0.00358796
0.00345168
0.00332993
0.00321552
0.00315988
0.00314137
0.00314206
0.00314955
0.00315016
0.00316191
0.00316608
0.00311977
0.00308993
0.00307442
0.00307309
0.00306518
0.00304317
0.0030289
0.00300768
0.00299833
0.00299204
0.00346823
0.00339472
0.00337735
0.00363443
0.00414532
0.00432192
0.00438982
0.00440121
0.00434902
0.00422895
0.00409853
0.0039751
0.00387415
0.00380982
0.003737
0.00365904
0.00360629
0.00356847
0.00354865
0.00354092
0.00355922
0.00357671
0.00354146
0.00354392
0.00343214
0.00336218
0.0032462
0.00315945
0.00308229
0.00303216
0.00299472
0.00297382
0.00295941
0.00346441
0.00339928
0.00333505
0.00344694
0.00395771
0.00421983
0.00434976
0.00442672
0.00442776
0.0043783
0.00430277
0.00422547
0.00415846
0.00411415
0.00406472
0.00402325
0.00398597
0.0039682
0.00394267
0.00392072
0.00390889
0.00385698
0.00381718
0.00373697
0.00365211
0.00351994
0.00340111
0.00325993
0.00315447
0.00305814
0.00299554
0.00295011
0.00293284
0.00345395
0.00342112
0.00331428
0.00332837
0.00370859
0.00407221
0.0042046
0.00440109
0.00449102
0.00451929
0.00453385
0.00457861
0.00461789
0.00467687
0.00470259
0.00470487
0.00470244
0.00467867
0.00459321
0.00453367
0.0044467
0.00436989
0.00426617
0.00415744
0.00400411
0.00385457
0.00366704
0.00348278
0.00329834
0.00314175
0.00302612
0.00295801
0.00292028
0.0034389
0.00345305
0.00332449
0.00326119
0.00345802
0.0039188
0.0040761
0.00424491
0.00446409
0.00453781
0.00458259
0.00468019
0.00479677
0.00490808
0.00504405
0.00513837
0.00517986
0.00520161
0.00520554
0.0051873
0.0051274
0.00505627
0.00495117
0.00480033
0.00461855
0.00438666
0.00414425
0.00387
0.00359914
0.0033438
0.00313857
0.00299705
0.00293677
0.00340829
0.00345582
0.00337878
0.0032389
0.00327076
0.00371954
0.00393843
0.00405
0.00432473
0.00450439
0.00456882
0.00465844
0.0047892
0.00491375
0.00505878
0.00520971
0.00529953
0.00535629
0.0053853
0.00539391
0.00538944
0.00536214
0.00531367
0.00524562
0.00514108
0.00498572
0.00475255
0.00444324
0.00409881
0.00373867
0.00340879
0.00314273
0.00299565
0.00336372
0.00344491
0.0034339
0.00324718
0.0031863
0.00345685
0.0037933
0.00389461
0.00406759
0.00438387
0.00451104
0.00457627
0.00470692
0.00484774
0.00497022
0.005138
0.00525485
0.00533213
0.0053847
0.00541764
0.00543249
0.00543677
0.00541412
0.00538247
0.00533411
0.0052538
0.00513583
0.00494372
0.00466399
0.00428381
0.00387802
0.00348401
0.00315583
0.00329908
0.00342063
0.00345917
0.00333926
0.00315998
0.00322046
0.00362594
0.00376354
0.00384341
0.00410497
0.00438743
0.00447534
0.00455714
0.00467781
0.0047827
0.00492075
0.00508423
0.00520786
0.00529158
0.00534685
0.00537526
0.00539057
0.00539619
0.00538781
0.00536143
0.0053141
0.00524591
0.0051503
0.00500287
0.00477168
0.00441581
0.00397612
0.00353932
0.00323964
0.00337119
0.00345676
0.0034446
0.00320845
0.00310418
0.00341876
0.0036439
0.00369199
0.00380036
0.00414134
0.00434581
0.00442556
0.00450407
0.00460486
0.00468292
0.00481642
0.00496523
0.00508675
0.00518074
0.00522607
0.00524579
0.00526036
0.00527183
0.00527533
0.0052689
0.00523771
0.00518234
0.00509244
0.00497244
0.00479122
0.00449751
0.00404651
0.00318313
0.00330706
0.00343028
0.00346805
0.00333274
0.00310041
0.00316498
0.00351837
0.00359018
0.00360928
0.00378318
0.00413219
0.00428092
0.00434652
0.00443578
0.00450336
0.0045695
0.00468942
0.00484586
0.0049704
0.00503913
0.00505964
0.00505893
0.00504966
0.00506334
0.00507931
0.00509423
0.00509353
0.00506151
0.00499649
0.0048904
0.00473814
0.00449818
0.00312976
0.00324012
0.00336947
0.00346386
0.00346305
0.00319725
0.00303411
0.00331098
0.00351869
0.00351642
0.00353915
0.00377812
0.0040671
0.00418904
0.00423238
0.00428835
0.00434127
0.0044142
0.00454655
0.0046888
0.00481682
0.00488894
0.00490697
0.00489045
0.00485181
0.00482682
0.00481288
0.00483022
0.00486736
0.00489617
0.00487095
0.00478332
0.00465414
0.00309053
0.00318192
0.00330382
0.0034308
0.00348281
0.00338497
0.00305263
0.00306578
0.00340231
0.00347789
0.00340546
0.00347174
0.00372714
0.00396771
0.00407933
0.00410841
0.00413743
0.00418192
0.00425966
0.00435516
0.00447003
0.00457991
0.00465625
0.00469639
0.00468166
0.00464437
0.00460024
0.00456094
0.00455263
0.00459222
0.00466424
0.00471433
0.00467314
0.00307125
0.00312503
0.00323405
0.00336456
0.00346528
0.00349055
0.00324865
0.00298894
0.0031463
0.00343568
0.00338109
0.0033047
0.00341441
0.00363579
0.00383178
0.00394859
0.00399975
0.00402731
0.00405998
0.00410816
0.0041652
0.00421599
0.00424641
0.00423562
0.00418703
0.0041274
0.00409496
0.00410604
0.00417988
0.00427296
0.00432455
0.00442835
0.00452593
0.00306468
0.00309512
0.00317649
0.00331356
0.00341273
0.00348172
0.00346547
0.00304357
0.0029904
0.00326171
0.00337872
0.00327785
0.00323189
0.00334277
0.00349858
0.00364489
0.00374706
0.00381011
0.00385245
0.00385583
0.00383547
0.00377837
0.00366025
0.00350798
0.00339769
0.00335192
0.00333891
0.00334918
0.00340803
0.00359486
0.00382773
0.00401714
0.00418521
0.00307252
0.00308461
0.00313884
0.00324817
0.00335524
0.00343269
0.00350417
0.00332248
0.00299719
0.00304975
0.00331292
0.00328725
0.00320227
0.00318519
0.00325367
0.00334908
0.00342552
0.00347797
0.00348028
0.00345586
0.00338704
0.00328626
0.00319472
0.003146
0.00314446
0.0031601
0.00317331
0.00318168
0.00318631
0.00319919
0.0032178
0.00335164
0.00368448
0.0030872
0.0030831
0.00312361
0.00320985
0.00331336
0.00339166
0.00345851
0.00346245
0.00313124
0.00301537
0.00310928
0.0032641
0.00321902
0.00314176
0.00312966
0.00316083
0.00320373
0.00322584
0.0032158
0.0031832
0.00314299
0.00312641
0.00314004
0.0031857
0.00323034
0.00323465
0.00322373
0.00321587
0.00321558
0.00320831
0.00314441
0.00310516
0.00312515
0.0031167
0.00311045
0.00312044
0.00319566
0.00328121
0.00335973
0.0034014
0.00347026
0.00338283
0.00306878
0.00303834
0.00316447
0.00320674
0.00315538
0.00309764
0.00308207
0.00308911
0.00309579
0.00309762
0.00310479
0.00312754
0.0031943
0.00327837
0.00330426
0.0032457
0.00306447
0.00294407
0.00292636
0.00300752
0.00315931
0.00323022
0.00315955
0.00303241
0.00315468
0.00314329
0.00314461
0.00319408
0.00327249
0.00333148
0.0033796
0.0034327
0.00342852
0.00326095
0.00305318
0.00306498
0.00315875
0.00315258
0.00311001
0.00306962
0.00306343
0.00306816
0.00308295
0.00311455
0.0031717
0.00322444
0.00322381
0.00299454
0.00254197
0.00231399
0.00224501
0.00225306
0.00235352
0.00264027
0.00307663
0.00322341
0.00314921
0.00320169
0.0031863
0.00318809
0.00322771
0.0032792
0.00332198
0.00336971
0.00338771
0.00342181
0.00338264
0.00314886
0.00306386
0.00308265
0.00313761
0.00312845
0.00308283
0.00306463
0.00306755
0.00308314
0.00312242
0.00316707
0.00314726
0.00279454
0.00232789
0.0021424
0.00207895
0.00205301
0.00205488
0.0020836
0.00218163
0.00249444
0.00306682
0.00321058
0.00325657
0.00324035
0.00323761
0.00328035
0.00333014
0.00333427
0.00336206
0.0033751
0.00340667
0.00340023
0.00332677
0.00311179
0.00306595
0.00309329
0.00312349
0.00311232
0.00307735
0.00306812
0.00307728
0.00309642
0.0030484
0.00275363
0.00232312
0.00215935
0.00212109
0.0021081
0.00208111
0.00205253
0.00205476
0.00208652
0.00218811
0.00253773
0.00310718
0.00331759
0.00330112
0.00330078
0.00333417
0.00338461
0.00338751
0.00337264
0.00337864
0.00340254
0.00340087
0.00337898
0.00323681
0.00308548
0.0030708
0.00309414
0.00311148
0.00310403
0.00308132
0.00306109
0.00300326
0.00283338
0.00251461
0.00228161
0.00222938
0.00228855
0.0023571
0.00231627
0.00217452
0.00210799
0.002103
0.002139
0.00227959
0.00273642
0.00338496
0.0033713
0.00337153
0.00339698
0.00343561
0.00343189
0.00341263
0.00339348
0.00339995
0.00339972
0.00339242
0.00334384
0.00316002
0.00308118
0.0030812
0.00309688
0.00311001
0.00310335
0.00307296
0.0030012
0.00281531
0.00250904
0.00236891
0.00244126
0.002686
0.00280158
0.00275582
0.00248866
0.00223921
0.00217016
0.00217233
0.00223996
0.00249596
0.00345768
0.0034443
0.00344517
0.00345383
0.00345687
0.00345115
0.00343879
0.00341314
0.00341028
0.003407
0.00340361
0.00338731
0.00331369
0.00313747
0.00309204
0.00309672
0.00311095
0.00311483
0.00310017
0.00302887
0.00284144
0.00256234
0.00253632
0.00263393
0.00289227
0.00299678
0.00297118
0.00274494
0.00239745
0.0022674
0.00224748
0.00227968
0.00245459
0.00352998
0.00351311
0.00348958
0.00347585
0.00346462
0.0034555
0.00344581
0.00342508
0.00342062
0.00341816
0.00341756
0.00341324
0.00338762
0.00326765
0.00313388
0.0031094
0.00311535
0.00313068
0.00312668
0.00309347
0.00291744
0.00271146
0.0027064
0.00278172
0.00298073
0.0030701
0.00305607
0.00286284
0.00248456
0.00232941
0.00231453
0.00235734
0.00252779
0.00359246
0.00354354
0.00350587
0.00348071
0.00346504
0.00345445
0.00344642
0.00343194
0.00342851
0.00342872
0.00343263
0.00343488
0.00342969
0.00338732
0.00323455
0.00314762
0.00313529
0.00314319
0.00315151
0.00313917
0.00305371
0.00291547
0.00290628
0.0029499
0.00306279
0.00311645
0.00309495
0.00289933
0.00252094
0.00236522
0.0023603
0.00242961
0.00270413
0.00362488
0.00355237
0.00350899
0.00347949
0.00345403
0.00343748
0.00343269
0.00343277
0.00343471
0.00343799
0.00344854
0.00345964
0.00346219
0.00345319
0.0033976
0.00324298
0.00317698
0.00316997
0.00317268
0.00316766
0.00313409
0.00306373
0.0030563
0.00307573
0.00312844
0.00314009
0.00310817
0.0028834
0.00252047
0.002393
0.00240144
0.00250743
0.00285633
0.00363505
0.00355302
0.00350678
0.00346029
0.00342722
0.00340934
0.00340268
0.00340731
0.00342293
0.0034374
0.00346099
0.00347862
0.00349322
0.0034925
0.00347593
0.00339944
0.00324174
0.00319506
0.0031838
0.00317884
0.00316403
0.00313484
0.00313479
0.00314408
0.0031554
0.00314666
0.00307565
0.00276674
0.00247489
0.00241388
0.00244754
0.00263929
0.00307714
0.00363433
0.00354198
0.00348854
0.0034447
0.0034194
0.00340368
0.00339498
0.00339624
0.00340459
0.00342475
0.00346263
0.0034925
0.00351363
0.00352683
0.00351901
0.00348265
0.00336613
0.00323513
0.0031954
0.00318127
0.0031688
0.00315925
0.00315779
0.00315579
0.00315087
0.00311663
0.00295748
0.00258967
0.0024417
0.00244339
0.00253812
0.00287445
0.00327657
0.00360395
0.00352528
0.00348236
0.00344577
0.00342914
0.00341634
0.00340599
0.00340332
0.00340739
0.00342119
0.00345658
0.00349355
0.00351573
0.00354059
0.00354422
0.00352854
0.00346965
0.00331849
0.00322345
0.00319007
0.00316485
0.00315368
0.00314766
0.00313514
0.00311267
0.00301908
0.00271224
0.0024832
0.00245237
0.00250734
0.0027633
0.0031788
0.00342888
0.00357888
0.00352322
0.00349318
0.00347868
0.00347586
0.00346263
0.00344287
0.00342985
0.00342803
0.00343266
0.00345606
0.00349006
0.0035145
0.00353681
0.00356045
0.00355033
0.0035176
0.0034232
0.00326635
0.00319528
0.00315874
0.0031373
0.00311739
0.00308946
0.00301688
0.0027725
0.00251301
0.00245893
0.00249919
0.00272369
0.00310081
0.00331814
0.00346522
0.00357493
0.00354102
0.00354376
0.00356622
0.00357428
0.00354652
0.00350545
0.00347376
0.00345923
0.00345541
0.00346577
0.00349146
0.00351177
0.00353325
0.00356517
0.00357878
0.00356476
0.00350201
0.00335066
0.00321874
0.00314552
0.00309703
0.00307087
0.00300495
0.00280267
0.00252778
0.00246304
0.00249843
0.00271281
0.00307715
0.00324371
0.00335072
0.00345617
0.00358926
0.00359516
0.00365784
0.00372004
0.00372024
0.00367299
0.0036065
0.00354784
0.00350446
0.00348695
0.00348895
0.00350426
0.00351851
0.00354194
0.00357877
0.00360223
0.00358932
0.00354533
0.0034187
0.00323706
0.0031269
0.00307614
0.00299908
0.0027841
0.00252637
0.00246834
0.00251133
0.00275631
0.00307709
0.00320704
0.00327269
0.00330326
0.00337628
0.00363488
0.00369819
0.00384323
0.00392668
0.00392376
0.0038744
0.00381094
0.00373385
0.00363209
0.00357498
0.00355559
0.00355333
0.00355517
0.00358188
0.00361828
0.00364668
0.00364646
0.00359834
0.00342068
0.00322262
0.00310244
0.00299525
0.00274982
0.00253117
0.00248602
0.0025426
0.00281895
0.00311748
0.00320844
0.00320695
0.00319453
0.00319672
0.0032561
0.00370888
0.00385899
0.00407218
0.00416759
0.00418416
0.00418036
0.00417151
0.00413176
0.0040454
0.00392524
0.00381448
0.00375523
0.00373011
0.00374905
0.00376936
0.00378052
0.00371288
0.0035955
0.00337398
0.00315759
0.00296934
0.0026959
0.00253398
0.00251404
0.00260608
0.00294168
0.00318695
0.00324254
0.00323032
0.00318255
0.00316063
0.00316526
0.00321082
0.00381892
0.004075
0.00427577
0.0043269
0.00432455
0.0043131
0.00430611
0.00428988
0.0042574
0.0041939
0.00410177
0.00403859
0.00398977
0.00395271
0.00389243
0.00380601
0.00368369
0.00349183
0.00316615
0.00285483
0.0026248
0.00254497
0.00255745
0.00273405
0.0031156
0.00328337
0.00330905
0.0033005
0.00325815
0.00320695
0.00318338
0.00318215
0.00320838
0.0039754
0.0042751
0.00437077
0.00437173
0.00434259
0.00431126
0.00428437
0.00425647
0.00421662
0.00416422
0.00411452
0.00405739
0.00400285
0.00393442
0.00382336
0.00364275
0.00333782
0.00295885
0.00269939
0.00259263
0.00257433