/*--------------------------------*- C++ -*----------------------------------*\
  =========                 |
  \\      /  F ield         | OpenFOAM: The Open Source CFD Toolbox
   \\    /   O peration     | Website:  https://openfoam.org
    \\  /    A nd           | Version:  11
     \\/     M anipulation  |
\*---------------------------------------------------------------------------*/
FoamFile
{
    format      ascii;
    class       volScalarField;
    location    "5.5";
    object      p;
}
// * * * * * * * * * * * * * * * * * * * * * * * * * * * * * * * * * * * * * //

dimensions      [0 2 -2 0 0 0 0];

internalField   nonuniform List<scalar> 
9600
(
0.0356082
0.0352395
0.0345689
0.0336742
0.0326178
0.0314053
0.029933
0.0280889
0.0258751
0.023369
0.0205037
0.0172631
0.0136812
0.00989536
0.0060245
0.00140603
-0.00270984
-0.0061854
-0.00962656
-0.0131107
-0.0146576
-0.0166756
-0.0180813
-0.0188406
-0.0196548
-0.0203264
-0.0208598
-0.0214362
-0.0220439
-0.0226309
-0.0231809
-0.0235588
-0.0237714
-0.0232449
-0.0226313
-0.0217449
-0.0207222
-0.0196107
-0.018397
-0.0176277
0.0354903
0.0349444
0.0341343
0.0331339
0.0320049
0.0307233
0.0291208
0.0271301
0.0248042
0.0221707
0.0192506
0.0160613
0.0126229
0.00896955
0.0050687
0.00104707
-0.00327489
-0.00670162
-0.00996419
-0.013203
-0.0151306
-0.0166835
-0.0181999
-0.0192698
-0.02014
-0.0208784
-0.0214013
-0.0219946
-0.0225935
-0.0231893
-0.0237642
-0.0241984
-0.0245572
-0.0241339
-0.023444
-0.0225636
-0.0217203
-0.0206621
-0.0196695
-0.0190767
0.0353005
0.0346801
0.0338143
0.0328029
0.031675
0.0303522
0.0287081
0.0267304
0.0244657
0.0219428
0.0190947
0.0158839
0.0122998
0.00858649
0.00468123
0.000637231
-0.00329134
-0.00685377
-0.0103124
-0.0131859
-0.0150009
-0.016656
-0.0179538
-0.0186669
-0.0193552
-0.0199064
-0.0204046
-0.0208329
-0.0213906
-0.0219631
-0.0224552
-0.0228059
-0.0232999
-0.0233958
-0.0229476
-0.0222758
-0.0213525
-0.0203559
-0.0195495
-0.0188149
0.0351034
0.0344291
0.0335018
0.03245
0.0312875
0.0299167
0.0282339
0.0262088
0.0238494
0.0211852
0.0181969
0.0149248
0.0115154
0.00784228
0.00403368
0.000139275
-0.00372812
-0.00725861
-0.0106082
-0.0133019
-0.0155092
-0.0169615
-0.0184052
-0.0194358
-0.020311
-0.0210201
-0.0215934
-0.0221497
-0.0227433
-0.0234305
-0.0241775
-0.0246805
-0.0249054
-0.0247794
-0.0242667
-0.0235309
-0.0227029
-0.0214637
-0.0201236
-0.0186959
0.0348917
0.0341679
0.033191
0.0320989
0.0309121
0.0295111
0.0277671
0.025675
0.0232585
0.0205912
0.0176702
0.0145034
0.0110025
0.00728618
0.00350277
-0.000320584
-0.00416852
-0.00770596
-0.0109064
-0.0134995
-0.0155938
-0.0170938
-0.0182329
-0.0189251
-0.0195097
-0.0199304
-0.0203059
-0.0206475
-0.0210612
-0.0215878
-0.0221232
-0.022622
-0.0231486
-0.0235485
-0.0233213
-0.0229129
-0.0222496
-0.0215285
-0.0206804
-0.0197999
0.0346819
0.0339034
0.0328806
0.0317548
0.0305515
0.0291205
0.0273083
0.0251493
0.0227147
0.0200697
0.0171336
0.0138652
0.0103894
0.00667298
0.00296358
-0.00084882
-0.00462669
-0.00811794
-0.011258
-0.0139998
-0.0159824
-0.0174617
-0.018708
-0.0196113
-0.0203765
-0.0209626
-0.0214859
-0.0219905
-0.0225444
-0.0233107
-0.0241806
-0.0249009
-0.0252992
-0.0254491
-0.0255179
-0.0247118
-0.0237322
-0.0225829
-0.0213022
-0.0199421
0.0344767
0.033639
0.0325663
0.0314233
0.0302019
0.0287348
0.02687
0.0246685
0.0222044
0.0195104
0.0165125
0.0132457
0.00978312
0.00612381
0.00235836
-0.00148256
-0.005222
-0.00867387
-0.0117369
-0.0143705
-0.0163727
-0.0178019
-0.0188528
-0.0194822
-0.0199464
-0.0202167
-0.0204367
-0.0206851
-0.0209606
-0.0214397
-0.0220374
-0.0226548
-0.0232139
-0.0236037
-0.0238222
-0.0236168
-0.023377
-0.0227742
-0.021985
-0.0211502
0.0342814
0.0333802
0.0322575
0.0311036
0.02986
0.0283646
0.0264688
0.0242149
0.0216867
0.0189586
0.0159688
0.0126822
0.00916237
0.00550247
0.00172008
-0.00213002
-0.00582434
-0.00920717
-0.0122767
-0.0148763
-0.0168494
-0.0182517
-0.0192772
-0.0199579
-0.020512
-0.0208932
-0.0212233
-0.0216137
-0.0220858
-0.0228516
-0.023817
-0.0248211
-0.0256143
-0.0260976
-0.0262078
-0.0261724
-0.024886
-0.024036
-0.0228015
-0.0215442
0.0340861
0.03313
0.0319737
0.0307941
0.0295296
0.0280187
0.0260973
0.0237765
0.0211944
0.0184479
0.0154329
0.0120951
0.00854348
0.00485947
0.0010562
-0.00283937
-0.00654989
-0.00993003
-0.0129721
-0.0155225
-0.0174792
-0.0188557
-0.0197676
-0.0202397
-0.0205446
-0.0206603
-0.0206657
-0.0207622
-0.0209419
-0.0213373
-0.0220056
-0.0227231
-0.0234562
-0.0240691
-0.0245936
-0.0249458
-0.0248437
-0.0242807
-0.0236069
-0.0228529
0.0339019
0.032895
0.0317069
0.0305088
0.0292221
0.0276836
0.0257389
0.0233711
0.0207331
0.0179062
0.0148582
0.0115021
0.00790254
0.00418106
0.000283195
-0.00365448
-0.00733718
-0.0106834
-0.0137317
-0.0162739
-0.0181881
-0.0194926
-0.0203081
-0.0207107
-0.0209211
-0.0209724
-0.0209851
-0.0211268
-0.0214534
-0.0221016
-0.0230952
-0.0242912
-0.0255701
-0.0265054
-0.0268591
-0.0269005
-0.0266823
-0.0258651
-0.0247132
-0.0236031
0.0337342
0.0326892
0.0314608
0.0302487
0.0289454
0.0273662
0.0253933
0.0229944
0.0202738
0.0173817
0.0143121
0.0108955
0.00722751
0.0034061
-0.000527784
-0.00448615
-0.00820179
-0.011561
-0.014631
-0.0171677
-0.0190566
-0.020323
-0.021056
-0.0213295
-0.0212991
-0.0211061
-0.0208753
-0.0207464
-0.0208132
-0.0211027
-0.0217824
-0.0226469
-0.0237143
-0.0246871
-0.0254576
-0.0259512
-0.0261312
-0.0259293
-0.0255222
-0.0248998
0.0335949
0.032486
0.0312429
0.0300134
0.0286853
0.0270851
0.0250772
0.022621
0.0198316
0.0168878
0.0137431
0.0102294
0.00648897
0.00261513
-0.0014023
-0.00542818
-0.00919545
-0.0125826
-0.0156673
-0.0182135
-0.0200633
-0.0212486
-0.0218525
-0.0219725
-0.0217673
-0.0214062
-0.021
-0.0206909
-0.0206722
-0.0210673
-0.0220216
-0.0233121
-0.0249251
-0.0264167
-0.0275009
-0.0281231
-0.0281683
-0.0277803
-0.0269314
-0.0259236
0.0334839
0.0323244
0.0310678
0.0298133
0.0284517
0.0268268
0.0247708
0.0222511
0.0194081
0.016372
0.0131316
0.00954228
0.00572249
0.00175051
-0.00238965
-0.00646947
-0.0102955
-0.0137272
-0.0168272
-0.0194061
-0.0212275
-0.0223482
-0.0228467
-0.022849
-0.0224549
-0.0218039
-0.0211198
-0.0205422
-0.0202754
-0.0204227
-0.0211301
-0.0221969
-0.0235844
-0.0250335
-0.0262882
-0.0272364
-0.0278366
-0.0281724
-0.0278853
-0.0273416
0.0334015
0.0321945
0.0309231
0.0296459
0.0282626
0.0265803
0.024483
0.0219114
0.01897
0.0158486
0.0125214
0.00882518
0.00488275
0.00079514
-0.0034492
-0.00760864
-0.011525
-0.0150457
-0.018192
-0.020801
-0.0226112
-0.0236315
-0.023979
-0.0238154
-0.0231677
-0.022264
-0.0212984
-0.0204771
-0.0199272
-0.0198991
-0.0205322
-0.0217996
-0.0235964
-0.0256544
-0.0276204
-0.0290773
-0.0298711
-0.0300443
-0.0298304
-0.0289852
0.0333669
0.0321182
0.0308218
0.0295231
0.0280893
0.0263475
0.0241959
0.0215685
0.0185426
0.0153155
0.0118517
0.00803761
0.00396164
-0.000227115
-0.0046077
-0.00891845
-0.0129377
-0.016561
-0.019732
-0.0223615
-0.0241647
-0.0251024
-0.025315
-0.0249909
-0.0240738
-0.022941
-0.0216294
-0.0205019
-0.0195893
-0.0192938
-0.0196151
-0.0207822
-0.0224661
-0.0246327
-0.0267094
-0.0284468
-0.0297384
-0.0305139
-0.030652
-0.0306009
0.0333822
0.0320768
0.0307608
0.0294297
0.0279613
0.0261562
0.0239196
0.0212293
0.018114
0.0147468
0.011165
0.00720067
0.00298337
-0.00136494
-0.00592017
-0.0103822
-0.0145064
-0.0182448
-0.0214887
-0.0241677
-0.0259903
-0.026869
-0.0268898
-0.0263739
-0.0252029
-0.0237147
-0.0219685
-0.020504
-0.0192385
-0.0184824
-0.0186021
-0.0197891
-0.021513
-0.0240217
-0.0266883
-0.0292301
-0.03127
-0.0326156
-0.033185
-0.0333649
0.0334286
0.0320816
0.0307403
0.0293686
0.0278536
0.0259748
0.0236913
0.0208908
0.0176486
0.0141351
0.0103941
0.00629523
0.00186209
-0.00267169
-0.00735869
-0.0120205
-0.0163113
-0.0201866
-0.0235136
-0.0262313
-0.0280551
-0.0289209
-0.028687
-0.0280065
-0.0265438
-0.0247127
-0.0225671
-0.020587
-0.0189058
-0.0177728
-0.0175159
-0.0183976
-0.0200654
-0.0226978
-0.025641
-0.0285802
-0.0311929
-0.0330807
-0.0342707
-0.0351853
0.0335228
0.0321173
0.0307634
0.0293564
0.027762
0.0258281
0.0234707
0.0205494
0.0171754
0.0134956
0.00957263
0.00529281
0.000632755
-0.0040999
-0.00895641
-0.0138647
-0.0183625
-0.0224008
-0.025798
-0.0285882
-0.0303999
-0.0312768
-0.0308769
-0.0299816
-0.028172
-0.0259588
-0.0233373
-0.0207979
-0.0185423
-0.0169718
-0.0162009
-0.0165659
-0.0181988
-0.021067
-0.0244949
-0.028217
-0.0316753
-0.0345186
-0.0364523
-0.0378164
0.0336867
0.0322192
0.0308425
0.0293723
0.0277041
0.0257109
0.0232358
0.0202221
0.0166645
0.0127827
0.00861107
0.00413572
-0.000707477
-0.00574439
-0.0108276
-0.0159243
-0.0206741
-0.0249172
-0.028409
-0.0313205
-0.0331634
-0.0340054
-0.0335632
-0.0322202
-0.030036
-0.0274822
-0.0243639
-0.0212484
-0.0182971
-0.0161207
-0.0148033
-0.0146967
-0.0160933
-0.018652
-0.0223446
-0.0267771
-0.0310434
-0.0348745
-0.037549
-0.0396797
0.0339381
0.0324018
0.0309628
0.0294362
0.0277124
0.0256166
0.0229985
0.0198307
0.0161291
0.0120466
0.00756083
0.00282709
-0.00224367
-0.00757573
-0.0129122
-0.0182716
-0.0232558
-0.0277333
-0.0314441
-0.0344363
-0.0363449
-0.0371442
-0.0367433
-0.0349224
-0.0323197
-0.0293851
-0.0257442
-0.0220854
-0.0183513
-0.0152772
-0.0131747
-0.0123507
-0.0131985
-0.0155975
-0.0194054
-0.0244823
-0.0297709
-0.0350448
-0.0392452
-0.0421322
0.0342801
0.0326419
0.0311449
0.0295696
0.0277528
0.0255463
0.0227569
0.0193949
0.0154993
0.011157
0.00640184
0.00132217
-0.00404203
-0.0096427
-0.0153087
-0.0209631
-0.0261892
-0.0309718
-0.034934
-0.037984
-0.0399955
-0.0407667
-0.0403991
-0.0383481
-0.0352005
-0.0316724
-0.0274462
-0.0231423
-0.0187653
-0.0147698
-0.0116322
-0.00984732
-0.009862
-0.0118132
-0.0155746
-0.0209799
-0.0271619
-0.0336883
-0.0396745
-0.043422
0.0346868
0.0329485
0.0314012
0.0297549
0.027823
0.0254667
0.0225113
0.0189414
0.0147798
0.0101527
0.00507464
-0.000353766
-0.0060324
-0.0120213
-0.0180699
-0.0240371
-0.0295341
-0.0346144
-0.038926
-0.0421397
-0.0441957
-0.0449195
-0.0445532
-0.0424516
-0.0388422
-0.0346448
-0.0297865
-0.0246471
-0.0194347
-0.0146188
-0.0104522
-0.00749953
-0.00623353
-0.00702743
-0.0102429
-0.0156439
-0.0228091
-0.0308368
-0.0385493
-0.0444324
0.0352266
0.0333902
0.0317404
0.0299946
0.027925
0.0253699
0.0222278
0.0184145
0.0139592
0.00896615
0.00348218
-0.00230075
-0.00836372
-0.0147595
-0.0212023
-0.0276076
-0.0334466
-0.0387863
-0.043439
-0.0469674
-0.049163
-0.0497969
-0.0492438
-0.047139
-0.0433382
-0.0385562
-0.0330497
-0.0270452
-0.0207179
-0.0147517
-0.00938686
-0.00513299
-0.00259162
-0.00199411
-0.00405039
-0.0086916
-0.0159976
-0.0254161
-0.0348518
-0.0435106
0.0359368
0.0339389
0.0321425
0.0302601
0.0280335
0.0252792
0.0218821
0.0177956
0.013008
0.00761381
0.00170632
-0.0045583
-0.0110781
-0.0179429
-0.0247875
-0.0316586
-0.0379902
-0.0436591
-0.0485864
-0.052406
-0.0549055
-0.0556054
-0.0547625
-0.0525809
-0.0487099
-0.0434613
-0.0372791
-0.0303948
-0.0230627
-0.0158168
-0.00905352
-0.00325174
0.00102196
0.00329616
0.00298765
-0.000182521
-0.0065952
-0.0160308
-0.0271454
-0.0393499
0.0367418
0.0345853
0.0326245
0.0305584
0.0281585
0.0251779
0.0214536
0.0170231
0.0118277
0.00599896
-0.00038041
-0.00722476
-0.0142406
-0.0216401
-0.0290235
-0.0363512
-0.0432296
-0.0493353
-0.0546036
-0.0586712
-0.0614935
-0.0624868
-0.0614861
-0.0590859
-0.0550641
-0.0494493
-0.0426705
-0.0350178
-0.0267387
-0.0182232
-0.00988661
-0.00232802
0.00402654
0.00851306
0.0104855
0.00950414
0.00489106
-0.00317917
-0.0145953
-0.0281713
0.037631
0.0353196
0.0332255
0.0309202
0.0282579
0.0250209
0.0209467
0.0160863
0.0104206
0.0040388
-0.00281851
-0.0103178
-0.0179588
-0.0259132
-0.0339466
-0.0418005
-0.049307
-0.0559278
-0.0616382
-0.0660067
-0.0690421
-0.0703733
-0.069472
-0.0669017
-0.0626712
-0.0567715
-0.0494903
-0.0411528
-0.0319221
-0.0222014
-0.0123832
-0.00296558
0.00541549
0.01241
0.0171437
0.0194527
0.0177008
0.012713
0.00265768
-0.010007
0.0387426
0.0361791
0.033916
0.0314182
0.0283545
0.0246817
0.0202275
0.0148647
0.00872741
0.00164377
-0.00585378
-0.0139376
-0.0223695
-0.0309868
-0.0397352
-0.0481981
-0.0564058
-0.0636371
-0.0698545
-0.074703
-0.0779346
-0.0795184
-0.0789225
-0.07636
-0.0719276
-0.0657608
-0.0580762
-0.0490381
-0.0389918
-0.0282294
-0.0171691
-0.00601635
0.00442474
0.0142136
0.021814
0.0278087
0.0299492
0.0295051
0.0235306
0.0136782
0.0401168
0.0372451
0.0346531
0.0318531
0.0284759
0.0242407
0.0192809
0.0132787
0.00651387
-0.0011445
-0.00952983
-0.0182786
-0.027607
-0.0369503
-0.0465399
-0.0557972
-0.0646613
-0.0726855
-0.0794377
-0.0848193
-0.0884506
-0.0902495
-0.0899675
-0.0875634
-0.0830588
-0.0766145
-0.0686591
-0.0591783
-0.0484995
-0.0367466
-0.0246084
-0.011876
0.0003798
0.0124496
0.0229475
0.0323816
0.0390224
0.0435958
0.0442949
0.0403899
0.0417862
0.0385099
0.035581
0.0322658
0.0284
0.0236134
0.017923
0.0113052
0.00368947
-0.00467014
-0.0140322
-0.0236052
-0.0338486
-0.0441984
-0.054582
-0.0648171
-0.0744576
-0.0833364
-0.0908109
-0.0967539
-0.100911
-0.103022
-0.103003
-0.100847
-0.0965031
-0.0899765
-0.081838
-0.0719946
-0.0609085
-0.0484521
-0.035393
-0.0215475
-0.00766881
0.00619076
0.0193788
0.0317276
0.0425394
0.0516257
0.0582201
0.0624681
0.0436613
0.0399156
0.0364366
0.0326072
0.0280957
0.0227001
0.0161797
0.00871141
9.23238e-05
-0.0091522
-0.0195597
-0.0303997
-0.0415198
-0.0530679
-0.0644297
-0.0756726
-0.0862507
-0.0959654
-0.104295
-0.110879
-0.115589
-0.118176
-0.118516
-0.116539
-0.112539
-0.106095
-0.0978772
-0.0879074
-0.0765504
-0.0638026
-0.0500593
-0.0355152
-0.0203959
-0.00507442
0.0101181
0.0246386
0.03842
0.0507311
0.0615203
0.0702586
0.0461193
0.0416635
0.0372649
0.0326521
0.0274032
0.021317
0.013979
0.00578529
-0.00390634
-0.0145944
-0.0260529
-0.0384535
-0.0509272
-0.0637029
-0.0763638
-0.0886871
-0.100396
-0.111023
-0.120271
-0.127666
-0.13307
-0.136171
-0.137045
-0.135391
-0.131657
-0.125621
-0.11752
-0.107677
-0.0962996
-0.0834834
-0.0694741
-0.0544583
-0.0385868
-0.0223422
-0.00582114
0.0103622
0.02604
0.0405768
0.0540019
0.0653839
0.048657
0.0436282
0.038265
0.0325416
0.025961
0.0185804
0.00987528
2.22494e-05
-0.0107697
-0.0227775
-0.035461
-0.049006
-0.0630889
-0.0772797
-0.0914111
-0.105043
-0.118
-0.129678
-0.139881
-0.148109
-0.154333
-0.158114
-0.159583
-0.158467
-0.15502
-0.149316
-0.141609
-0.13206
-0.120857
-0.108292
-0.094342
-0.0793606
-0.0633545
-0.0465894
-0.0293398
-0.0119472
0.00509667
0.0212196
0.0362794
0.0492672
0.0512683
0.0454219
0.0392651
0.0327457
0.0254471
0.0170476
0.00734383
-0.00398794
-0.0168718
-0.0311687
-0.0463969
-0.0620442
-0.0779716
-0.09376
-0.109527
-0.124721
-0.138983
-0.151847
-0.163146
-0.172291
-0.179405
-0.184127
-0.18625
-0.185912
-0.18294
-0.177752
-0.170394
-0.161347
-0.15055
-0.138327
-0.124724
-0.109928
-0.0942672
-0.0779039
-0.0603972
-0.042782
-0.0249723
-0.00754604
0.0092126
0.0235009
0.0530537
0.0452901
0.0373501
0.0286328
0.0188419
0.00784621
-0.0039782
-0.0169792
-0.0312226
-0.046599
-0.0631649
-0.0806969
-0.0986804
-0.116565
-0.134159
-0.150973
-0.166578
-0.180554
-0.192807
-0.202866
-0.210603
-0.216018
-0.219035
-0.219619
-0.217998
-0.214148
-0.208537
-0.201091
-0.192314
-0.182191
-0.170427
-0.156954
-0.141899
-0.126541
-0.109644
-0.092705
-0.0745825
-0.0564194
-0.0386804
-0.0225927
0.058271
0.0502647
0.0419794
0.0323633
0.0212369
0.00800936
-0.00708736
-0.0238769
-0.0423929
-0.0622228
-0.0827933
-0.103769
-0.124657
-0.145029
-0.164639
-0.183099
-0.200062
-0.215096
-0.228155
-0.238779
-0.246844
-0.252217
-0.25496
-0.255297
-0.253108
-0.248923
-0.242696
-0.234926
-0.225734
-0.215371
-0.203927
-0.192031
-0.17911
-0.164913
-0.15036
-0.134886
-0.119518
-0.103856
-0.0886863
-0.0761749
0.0530792
0.0391226
0.0252032
0.0107915
-0.00442363
-0.0205886
-0.0377988
-0.0564751
-0.0767345
-0.098276
-0.120918
-0.144361
-0.168025
-0.191278
-0.213492
-0.234403
-0.253509
-0.270568
-0.285334
-0.297667
-0.30729
-0.314225
-0.318637
-0.320367
-0.320276
-0.317997
-0.314354
-0.309519
-0.3033
-0.296594
-0.288194
-0.279308
-0.268625
-0.256478
-0.242892
-0.228054
-0.212888
-0.198274
-0.184105
-0.173087
0.0752563
0.0631449
0.0473201
0.0287858
0.00804438
-0.0153093
-0.0408982
-0.0676265
-0.0950097
-0.122499
-0.149988
-0.176991
-0.203387
-0.228686
-0.252563
-0.274564
-0.294173
-0.311474
-0.325735
-0.337403
-0.345766
-0.351584
-0.354617
-0.355452
-0.35443
-0.352066
-0.348613
-0.344888
-0.340586
-0.336092
-0.331308
-0.325628
-0.319673
-0.311959
-0.303164
-0.293033
-0.280964
-0.269314
-0.259085
-0.252831
0.0145928
-0.0118089
-0.0373419
-0.0635902
-0.0901231
-0.11718
-0.144678
-0.173975
-0.205036
-0.236957
-0.269597
-0.301382
-0.333155
-0.362315
-0.390486
-0.415384
-0.437319
-0.456243
-0.471553
-0.483607
-0.491552
-0.496585
-0.497917
-0.497267
-0.494144
-0.490166
-0.485526
-0.481508
-0.478481
-0.47687
-0.476913
-0.478045
-0.48021
-0.482412
-0.483817
-0.482793
-0.47807
-0.467994
-0.454912
-0.440973
0.0928885
0.0599411
0.0229408
-0.0159414
-0.0533273
-0.091664
-0.131234
-0.170027
-0.209236
-0.246715
-0.283835
-0.31847
-0.351641
-0.381945
-0.409622
-0.434152
-0.454975
-0.472641
-0.485671
-0.494317
-0.498122
-0.497561
-0.492446
-0.484058
-0.472658
-0.460412
-0.447838
-0.43749
-0.429703
-0.426651
-0.42966
-0.439512
-0.458139
-0.483895
-0.520495
-0.565639
-0.622397
-0.690506
-0.736721
-0.741423
-0.248207
-0.291497
-0.337234
-0.390448
-0.448777
-0.507387
-0.565331
-0.620974
-0.673565
-0.721183
-0.763564
-0.800961
-0.83526
-0.868391
-0.89857
-0.924917
-0.944852
-0.957779
-0.963423
-0.962084
-0.954333
-0.939133
-0.917225
-0.888727
-0.855095
-0.817755
-0.778527
-0.738758
-0.700253
-0.664122
-0.631029
-0.604961
-0.585745
-0.575455
-0.577214
-0.58911
-0.61757
-0.64646
-0.658926
-0.660295
-0.0171433
-0.0148118
-0.0154314
-0.0151959
-0.0146977
-0.0140747
-0.012194
-0.00950728
-0.0062641
-0.00222108
0.00247436
0.000443856
0.00352182
0.00441042
0.00540396
0.00502067
0.00439908
0.00378066
0.00329103
0.00282733
0.00247731
0.00229538
0.00221449
0.00216285
0.002165
0.00223117
0.00234649
0.00249029
0.00266413
0.0027878
0.0029443
0.00306563
0.00319844
0.00329697
0.00335705
0.00347474
0.00363411
0.00378176
0.00373639
0.00323398
-0.0160482
-0.0156353
-0.0162981
-0.0161
-0.0157266
-0.0151568
-0.0133154
-0.0104307
-0.00692858
-0.00261099
0.00289541
0.000262004
0.0041208
0.00517118
0.00596934
0.00542537
0.00469535
0.00392714
0.00337689
0.00282994
0.00245952
0.00221339
0.00213067
0.00204215
0.00205719
0.00216584
0.00230939
0.00248903
0.00265527
0.00278928
0.00292411
0.00302615
0.00315617
0.00323159
0.0033303
0.00346835
0.0036483
0.00376194
0.00348873
0.00242303
-0.0166939
-0.0165076
-0.0171552
-0.0171026
-0.0168335
-0.0163366
-0.014569
-0.0115271
-0.00780687
-0.00322957
0.0034163
0.000434373
0.00477075
0.00603252
0.00664529
0.00591931
0.00508446
0.00413015
0.00352242
0.00286936
0.00244299
0.00215828
0.0020168
0.00191748
0.00197661
0.00208341
0.00224547
0.00241516
0.00253577
0.00266144
0.00277136
0.00287809
0.00300322
0.00311613
0.00326983
0.00344619
0.00363395
0.00379683
0.00396261
0.00412797
-0.0163991
-0.0172587
-0.0181236
-0.0182292
-0.0180138
-0.0177128
-0.0160752
-0.0128888
-0.00894127
-0.00404874
0.00388145
0.0010341
0.00559757
0.00710588
0.0074452
0.0065029
0.00556392
0.00441445
0.00373584
0.00293217
0.00244585
0.00216018
0.00192237
0.00181904
0.00187073
0.00194311
0.00211157
0.0022313
0.00233718
0.00245963
0.00259674
0.00273721
0.0028868
0.00305949
0.00324459
0.00343189
0.00360564
0.00373696
0.00361789
0.00310682
-0.0177679
-0.0180531
-0.0190489
-0.0194611
-0.0193343
-0.0193257
-0.0178632
-0.0146433
-0.0103904
-0.00493429
0.00439708
0.00195469
0.00656922
0.00842734
0.00842797
0.00720227
0.00612777
0.0047785
0.00399748
0.00304615
0.00251305
0.00219289
0.00184789
0.00173762
0.00175035
0.00180096
0.00195035
0.00203719
0.00218076
0.00231299
0.00249083
0.00266179
0.00284258
0.00304103
0.00322214
0.00339761
0.00357013
0.00373804
0.00393884
0.0042792
-0.0176504
-0.0189194
-0.0201026
-0.0208758
-0.0209166
-0.0212153
-0.0199674
-0.0167708
-0.0121814
-0.00594834
0.0045256
0.00341505
0.00770714
0.010024
0.00962038
0.00800815
0.00677412
0.00521578
0.00427795
0.00321525
0.00262571
0.0022102
0.00178465
0.00166913
0.00163467
0.00167791
0.00179877
0.00188653
0.00206172
0.00220595
0.00240676
0.00259398
0.00278372
0.00297377
0.00315322
0.00332897
0.00351599
0.00365151
0.00364707
0.00345255
-0.0193206
-0.0199575
-0.0213752
-0.0226162
-0.0228557
-0.023491
-0.0225212
-0.0193236
-0.0143766
-0.00716234
0.00420258
0.00548271
0.00919962
0.011774
0.0109931
0.00897025
0.00748847
0.00569739
0.00458343
0.00344759
0.00275554
0.00220419
0.00173519
0.00159648
0.0015098
0.00153337
0.00160946
0.00171265
0.00190645
0.00208454
0.0022969
0.00248097
0.00268645
0.00289261
0.00308729
0.0032773
0.00347768
0.00365371
0.00387464
0.00419343
-0.0193139
-0.0209304
-0.0227655
-0.0246035
-0.0251684
-0.0261624
-0.0256447
-0.0224471
-0.0170782
-0.0088052
0.00339004
0.00793909
0.0111197
0.0136878
0.0125276
0.0101127
0.00826954
0.00623438
0.00493157
0.00366489
0.00282643
0.00211998
0.00165512
0.00147595
0.00134189
0.00136564
0.00140373
0.00152499
0.00171649
0.00192171
0.00214383
0.00236384
0.00262976
0.00286682
0.00306696
0.00326067
0.00345186
0.00362231
0.00366602
0.00363709
-0.0212244
-0.0221722
-0.0242517
-0.0267517
-0.0278989
-0.0292746
-0.0294147
-0.0262927
-0.0204243
-0.0109165
0.0021065
0.0103916
0.0136382
0.0159544
0.0141757
0.0114263
0.00912547
0.0068356
0.00527636
0.00385264
0.00287492
0.0020502
0.00159339
0.00134905
0.00117903
0.00120309
0.00119649
0.00131553
0.00147818
0.00170525
0.00196856
0.00225189
0.00256594
0.00280378
0.00300939
0.00320617
0.00339267
0.00359028
0.00378241
0.00403267
-0.0214378
-0.0235558
-0.026136
-0.0292505
-0.0311978
-0.0330582
-0.0339539
-0.0309965
-0.0245743
-0.0134832
0.000352187
0.0124319
0.0167341
0.0185693
0.0159151
0.0129064
0.0100645
0.00750831
0.00567671
0.00412252
0.00297252
0.0020833
0.00157924
0.001241
0.00102946
0.000991935
0.000951917
0.00106241
0.00121439
0.00145324
0.00174025
0.00203822
0.00234268
0.00257461
0.00281433
0.00304411
0.0032749
0.00350914
0.00362386
0.00373465
-0.0236029
-0.0253381
-0.0285339
-0.0322781
-0.0352888
-0.0378498
-0.039554
-0.0368103
-0.0297133
-0.0165732
-0.00172736
0.0137886
0.0201085
0.0213406
0.0177505
0.0145232
0.0110496
0.00824658
0.00612932
0.00442408
0.00309143
0.00216171
0.00154305
0.00111203
0.000847051
0.000760628
0.000731749
0.000838727
0.00098207
0.00119802
0.00147293
0.00173691
0.00201399
0.00227685
0.00256654
0.00286425
0.00315159
0.00341332
0.00361604
0.00386544
-0.0242154
-0.0270039
-0.0311706
-0.0357838
-0.0402019
-0.0438715
-0.0465578
-0.0440409
-0.0360839
-0.0204663
-0.00420712
0.0146061
0.023388
0.0240641
0.0198433
0.0162416
0.011986
0.00902176
0.00658319
0.00466295
0.00318098
0.00218658
0.00142975
0.000957847
0.000662285
0.000576988
0.000576962
0.000683907
0.000831858
0.00103554
0.00130338
0.00156075
0.00185022
0.0021148
0.00240988
0.00271556
0.0030084
0.003291
0.00353571
0.00374606
-0.0266096
-0.0289469
-0.0339392
-0.0394762
-0.0457077
-0.0510438
-0.0551365
-0.0530571
-0.0439047
-0.0254562
-0.0071106
0.0149779
0.0264693
0.0266929
0.0221528
0.0179181
0.0129041
0.00986305
0.00692323
0.00479417
0.00316898
0.00210503
0.00125288
0.00076883
0.000427064
0.000329895
0.000353081
0.000491765
0.000683207
0.000930851
0.00123006
0.00149546
0.00178388
0.00199578
0.00226122
0.00251779
0.00279991
0.00307863
0.00337232
0.00367568
-0.0282593
-0.0312058
-0.0374257
-0.043979
-0.0521644
-0.0597864
-0.0656639
-0.0643645
-0.0534045
-0.0317798
-0.0103802
0.01489
0.0293997
0.0291914
0.0244468
0.0194535
0.0139237
0.0106572
0.00717447
0.00498009
0.00312895
0.00196346
0.000996192
0.000454036
2.52857e-05
-9.18879e-05
-8.19511e-05
8.91905e-05
0.000318248
0.000622597
0.000927195
0.00118994
0.00147248
0.00168895
0.00198407
0.00222934
0.00253866
0.00283852
0.00323133
0.00359544
-0.0311212
-0.0343111
-0.0418816
-0.0501909
-0.060525
-0.071249
-0.0793767
-0.0790311
-0.0651314
-0.0396126
-0.0141979
0.0143602
0.0321554
0.0313923
0.0265262
0.0207567
0.0150598
0.0113371
0.00757342
0.0051835
0.00321887
0.00185857
0.000796782
0.000142392
-0.000407512
-0.000574614
-0.000635406
-0.000464343
-0.000280364
4.19573e-05
0.000315721
0.000609306
0.000944524
0.00128387
0.00169112
0.00200494
0.00236773
0.00265055
0.00300826
0.00333676
-0.0337874
-0.0377933
-0.0468436
-0.0578829
-0.0712049
-0.0861851
-0.0981723
-0.0983222
-0.0800639
-0.0492358
-0.0190223
0.0134597
0.0345727
0.0329678
0.0281546
0.0217418
0.0161075
0.0118019
0.00805053
0.00536311
0.003455
0.00184997
0.000789964
-1.73349e-05
-0.000589585
-0.000826339
-0.000965962
-0.000838323
-0.000749288
-0.000423291
-0.000179788
0.000213307
0.000609019
0.00108686
0.00156398
0.0019328
0.00229687
0.00254207
0.00291417
0.00324344
-0.0370297
-0.0421336
-0.05203
-0.0662477
-0.0842722
-0.105385
-0.124305
-0.123715
-0.0990655
-0.0609388
-0.0247392
0.0117661
0.0361572
0.0336985
0.0291171
0.0223746
0.0166923
0.0119042
0.0082346
0.00541626
0.00345064
0.00177136
0.000741714
-0.000139949
-0.000614684
-0.000896072
-0.00106105
-0.000966143
-0.000927117
-0.000570444
-0.000360364
8.87749e-05
0.000433606
0.000936797
0.00133031
0.00172042
0.00207156
0.00235996
0.00268516
0.00286471
-0.0400541
-0.0472602
-0.0585389
-0.0760409
-0.101445
-0.134836
-0.158193
-0.157664
-0.12252
-0.0748797
-0.0314422
0.00948653
0.0362191
0.033651
0.0292769
0.0224198
0.0166656
0.0116044
0.00781029
0.00504187
0.00291803
0.00132993
0.000204194
-0.00067094
-0.00110298
-0.00136238
-0.00142092
-0.00127863
-0.00121922
-0.000877073
-0.00074255
-0.000330533
-0.00010092
0.000360365
0.000685779
0.00117127
0.00156644
0.00195266
0.00225683
0.00239707
-0.0435611
-0.0530996
-0.0671862
-0.088958
-0.124339
-0.174529
-0.207486
-0.198966
-0.149843
-0.0911325
-0.0384539
0.00699114
0.0338167
0.0326361
0.0284969
0.021634
0.016146
0.0108839
0.00697449
0.00426572
0.00191519
0.000369457
-0.000939213
-0.0017632
-0.00216482
-0.00234922
-0.00227963
-0.00212395
-0.00199259
-0.00170381
-0.00157448
-0.00119795
-0.000985498
-0.00049955
-0.000133877
0.000476116
0.000949551
0.00146321
0.00175243
0.00192222
-0.0475114
-0.0591367
-0.0764127
-0.107363
-0.164402
-0.222607
-0.272542
-0.247904
-0.179257
-0.108786
-0.046354
0.00535469
0.0282766
0.0294456
0.0261991
0.0198925
0.0150794
0.00972433
0.00603165
0.00320405
0.000838101
-0.000727483
-0.00204178
-0.00282103
-0.00318301
-0.00336293
-0.00324055
-0.00312235
-0.00286472
-0.0026359
-0.00237076
-0.00199813
-0.00168697
-0.00114487
-0.000678752
1.07642e-05
0.000520393
0.00106407
0.00132854
0.00152543
-0.0507491
-0.0653156
-0.0858581
-0.130941
-0.211974
-0.293676
-0.353032
-0.304327
-0.209057
-0.125478
-0.0552052
0.0024759
0.0196681
0.0233151
0.0219327
0.0166892
0.0129192
0.00801269
0.00484107
0.00187625
-4.99567e-05
-0.00165388
-0.00270751
-0.00355769
-0.00381664
-0.0041249
-0.00392396
-0.00386532
-0.00349271
-0.0033191
-0.00286111
-0.00251185
-0.00204105
-0.00151857
-0.000935529
-0.000233463
0.00025684
0.000704915
0.000918125
0.00114843
-0.0540975
-0.070672
-0.098793
-0.165561
-0.263997
-0.394296
-0.449759
-0.360015
-0.23714
-0.140904
-0.0616488
-0.00648881
0.00891473
0.0148222
0.0151289
0.0115828
0.00913217
0.00500753
0.00271724
-0.000119388
-0.00133664
-0.00300617
-0.00367209
-0.00457286
-0.0045474
-0.00497889
-0.00464325
-0.00466945
-0.00420414
-0.00394347
-0.00340565
-0.0030335
-0.00248644
-0.00203177
-0.00131417
-0.000708955
-0.000195454
0.000184374
0.00048029
0.000716459
-0.0573848
-0.0760788
-0.110988
-0.208398
-0.345889
-0.518076
-0.539287
-0.395358
-0.260211
-0.152985
-0.0691146
-0.0230236
-0.00544996
0.00368814
0.0048486
0.00437303
0.00306346
0.000249597
-0.00106674
-0.00330645
-0.00393552
-0.0053962
-0.00564971
-0.006343
-0.00608008
-0.00648429
-0.00596898
-0.00602348
-0.00538934
-0.00502581
-0.0044717
-0.00409485
-0.00352035
-0.00295052
-0.00225757
-0.00167266
-0.00105827
-0.000577756
-0.000104743
-1.47971e-05
-0.058545
-0.0812494
-0.124443
-0.245264
-0.437062
-0.610249
-0.559554
-0.402325
-0.26849
-0.158754
-0.0844724
-0.0456702
-0.0253288
-0.0122165
-0.00943426
-0.00567141
-0.00600706
-0.00614873
-0.00682847
-0.00764811
-0.00799292
-0.00860504
-0.0087803
-0.00891569
-0.00872382
-0.00876488
-0.00819436
-0.00809824
-0.00729691
-0.00696946
-0.00630909
-0.00586855
-0.00518087
-0.0045141
-0.00371079
-0.00298537
-0.00224324
-0.00156529
-0.00100982
-0.000968016
-0.049934
-0.0701102
-0.133009
-0.247758
-0.423099
-0.5453
-0.491518
-0.358097
-0.256035
-0.164952
-0.108616
-0.0763176
-0.0510004
-0.0350208
-0.0278425
-0.0198236
-0.018051
-0.0146056
-0.0144947
-0.0131296
-0.013431
-0.0127468
-0.0130217
-0.0122419
-0.0122504
-0.0115821
-0.0110561
-0.0105539
-0.00970571
-0.00918535
-0.0083618
-0.00773982
-0.00683149
-0.00602916
-0.00504004
-0.00424845
-0.00340138
-0.0026617
-0.00210478
-0.00203779
-0.0300841
-0.0464421
-0.0984611
-0.199998
-0.32503
-0.373383
-0.335418
-0.286637
-0.232314
-0.179629
-0.146762
-0.111986
-0.0837171
-0.0657367
-0.0511735
-0.0393554
-0.0329029
-0.0262197
-0.0238351
-0.0203797
-0.0199097
-0.0179326
-0.0176703
-0.0161057
-0.0159388
-0.0144321
-0.0138283
-0.0126455
-0.0118697
-0.0109372
-0.0100734
-0.00918842
-0.00823155
-0.00727649
-0.00628911
-0.00541785
-0.00453153
-0.00380086
-0.00327496
-0.0031956
-0.000178386
-0.0165563
-0.0478874
-0.10432
-0.187576
-0.220752
-0.230339
-0.23541
-0.217544
-0.20424
-0.182669
-0.15225
-0.129664
-0.10326
-0.0818668
-0.0649608
-0.0516558
-0.0420621
-0.0353197
-0.0301394
-0.0273301
-0.0241137
-0.022772
-0.0204949
-0.0193991
-0.017596
-0.0166727
-0.0150964
-0.0143446
-0.0131054
-0.012264
-0.0111889
-0.0102452
-0.00916122
-0.00816939
-0.00711469
-0.00609334
-0.00514775
-0.00474155
-0.00463614
0.0311311
0.0300115
0.0158942
-0.0266035
-0.0812308
-0.124949
-0.167291
-0.199176
-0.212712
-0.22491
-0.218952
-0.205284
-0.180106
-0.149934
-0.122639
-0.0977384
-0.0774033
-0.0632722
-0.051162
-0.0440552
-0.0373321
-0.0332276
-0.0297879
-0.0270324
-0.0250284
-0.0231129
-0.0216268
-0.0200029
-0.0187864
-0.017249
-0.0162214
-0.01492
-0.0136701
-0.0124009
-0.0110666
-0.00971521
-0.0084272
-0.00742781
-0.0068466
-0.00647001
0.0620906
0.0699144
0.0644272
0.0247338
-0.0163413
-0.0732595
-0.129917
-0.175054
-0.212994
-0.247518
-0.261481
-0.260406
-0.23599
-0.206513
-0.170546
-0.138756