/*--------------------------------*- C++ -*----------------------------------*\
  =========                 |
  \\      /  F ield         | OpenFOAM: The Open Source CFD Toolbox
   \\    /   O peration     | Website:  https://openfoam.org
    \\  /    A nd           | Version:  10
     \\/     M anipulation  |
\*---------------------------------------------------------------------------*/
FoamFile
{
    format      ascii;
    class       volScalarField;
    location    "0.949029";
    object      p;
}
// * * * * * * * * * * * * * * * * * * * * * * * * * * * * * * * * * * * * * //

dimensions      [1 -1 -2 0 0 0 0];

internalField   nonuniform List<scalar> 
16320
(
0.533192
0.526151
0.519282
0.512856
0.506861
0.501394
0.496533
0.492384
0.48902
0.486484
0.484802
0.484005
0.484062
0.484639
0.486199
0.48926
0.493498
0.499187
0.506992
0.517959
0.533516
0.55505
0.583098
0.616102
0.650015
0.679924
0.702466
0.71599
0.721762
0.722204
0.719025
0.714216
0.708302
0.533431
0.526306
0.519487
0.513052
0.50709
0.501706
0.497027
0.493122
0.489996
0.487744
0.486288
0.485753
0.485907
0.486672
0.488502
0.491611
0.495771
0.501258
0.508897
0.519637
0.53482
0.555888
0.583271
0.615373
0.648219
0.677178
0.698912
0.711668
0.716971
0.716886
0.713865
0.709131
0.703521
0.533315
0.526091
0.519351
0.512968
0.50705
0.501772
0.497195
0.493469
0.490675
0.488703
0.487526
0.487209
0.487491
0.488492
0.490592
0.493691
0.497827
0.503261
0.510729
0.521329
0.536242
0.556941
0.583648
0.614735
0.646344
0.674179
0.694998
0.707099
0.712262
0.711802
0.709017
0.704592
0.699502
0.533171
0.525742
0.518506
0.511948
0.50606
0.500837
0.496557
0.493144
0.490635
0.488954
0.488115
0.488099
0.488558
0.489873
0.492284
0.495393
0.499478
0.50498
0.512514
0.522969
0.537727
0.558201
0.584129
0.614104
0.644393
0.670941
0.690785
0.702367
0.707365
0.707029
0.704601
0.700662
0.696227
0.532009
0.524556
0.517554
0.510937
0.505034
0.499939
0.495735
0.492514
0.490246
0.488834
0.488292
0.488453
0.489211
0.490923
0.493415
0.496587
0.50075
0.506345
0.513998
0.524557
0.539299
0.559377
0.584571
0.613318
0.642208
0.66755
0.686265
0.697556
0.70236
0.702572
0.700583
0.697271
0.693543
0.53107
0.523514
0.516259
0.509473
0.503432
0.498305
0.494188
0.491178
0.489137
0.488043
0.487842
0.488211
0.489339
0.491374
0.493971
0.497276
0.501585
0.507334
0.51516
0.525915
0.540708
0.56032
0.584879
0.612299
0.639583
0.66388
0.681669
0.692726
0.697466
0.698311
0.696885
0.694306
0.691283
0.529831
0.521873
0.514283
0.507287
0.501143
0.496029
0.491998
0.489177
0.487393
0.486638
0.486739
0.487419
0.489014
0.491259
0.493997
0.497494
0.502063
0.508075
0.516134
0.527081
0.541952
0.560976
0.584664
0.610859
0.636809
0.659816
0.676958
0.687772
0.692762
0.694218
0.6935
0.691653
0.689333
0.528297
0.519935
0.511992
0.504666
0.498342
0.493189
0.48921
0.486512
0.484943
0.484561
0.484935
0.486082
0.488152
0.490655
0.493698
0.497496
0.502359
0.508701
0.517093
0.528308
0.5433
0.561641
0.584203
0.609008
0.633689
0.65555
0.67221
0.682717
0.688239
0.690335
0.690336
0.689248
0.68757
0.526655
0.517874
0.509511
0.501722
0.494806
0.489374
0.485495
0.483027
0.481845
0.481863
0.482695
0.484329
0.486813
0.489629
0.493026
0.497242
0.502527
0.509288
0.518042
0.529477
0.544441
0.562375
0.583899
0.607098
0.630746
0.65136
0.667374
0.677832
0.683842
0.686669
0.687307
0.686926
0.686015
0.525023
0.515393
0.50624
0.498062
0.490951
0.485322
0.481342
0.479004
0.47825
0.478628
0.479997
0.482155
0.48528
0.488385
0.492161
0.496822
0.502561
0.509779
0.518942
0.530637
0.545141
0.562853
0.583229
0.605183
0.627419
0.647177
0.662579
0.673005
0.679767
0.68303
0.684453
0.684746
0.684408
0.52318
0.513019
0.503278
0.494586
0.486875
0.480876
0.476734
0.474613
0.474222
0.475003
0.477038
0.479838
0.482975
0.487224
0.491299
0.496387
0.502622
0.510322
0.519903
0.531849
0.545891
0.562938
0.582046
0.603057
0.623995
0.642862
0.657781
0.668477
0.675449
0.679457
0.68157
0.682483
0.682608
0.521722
0.510947
0.500335
0.491068
0.48265
0.476366
0.472042
0.469996
0.470203
0.471436
0.474058
0.477268
0.481127
0.485767
0.49047
0.496102
0.502946
0.511096
0.52106
0.532962
0.546809
0.562936
0.580854
0.600754
0.620485
0.638431
0.652952
0.663817
0.671097
0.675757
0.678547
0.680029
0.680677
0.5208
0.509265
0.497907
0.487227
0.478429
0.471933
0.467848
0.466095
0.466533
0.468264
0.471396
0.475131
0.479494
0.484745
0.490088
0.496357
0.50367
0.512337
0.52262
0.534248
0.547803
0.562905
0.579925
0.5984
0.616939
0.633908
0.648105
0.658894
0.666612
0.671974
0.675476
0.677552
0.678977
0.520565
0.508422
0.496024
0.484847
0.475582
0.468745
0.464798
0.463289
0.463942
0.466077
0.469657
0.473825
0.478691
0.484505
0.490381
0.497157
0.505047
0.514204
0.524565
0.536018
0.548903
0.563048
0.579158
0.596291
0.613486
0.629414
0.643048
0.653874
0.662085
0.668066
0.671948
0.674729
0.676299
0.521414
0.508218
0.495256
0.483641
0.474087
0.467177
0.463305
0.462015
0.462938
0.465476
0.469352
0.473861
0.479
0.485231
0.491583
0.499005
0.507416
0.516867
0.526932
0.538157
0.55027
0.563734
0.578678
0.59445
0.610153
0.624979
0.637871
0.6486
0.657077
0.663517
0.668102
0.67121
0.673196
0.522627
0.508808
0.495522
0.483829
0.474325
0.467702
0.46434
0.463257
0.464162
0.466785
0.470671
0.475392
0.48098
0.487224
0.494304
0.502253
0.51095
0.520245
0.530164
0.540749
0.552147
0.564838
0.578641
0.592954
0.607182
0.620686
0.632823
0.643235
0.651771
0.658649
0.663633
0.667204
0.669643
0.524601
0.510714
0.497471
0.485945
0.476722
0.470416
0.467234
0.46647
0.467482
0.470121
0.474012
0.478999
0.484729
0.49138
0.498826
0.506934
0.515679
0.524538
0.53388
0.54375
0.554578
0.566435
0.578997
0.59185
0.604625
0.616848
0.628083
0.637994
0.64635
0.653318
0.658593
0.6625
0.665342
0.527722
0.514012
0.501068
0.489884
0.480938
0.475153
0.47215
0.471564
0.472668
0.475352
0.479538
0.484555
0.490561
0.497367
0.504773
0.512689
0.520738
0.529225
0.538061
0.547427
0.557558
0.568472
0.579812
0.591273
0.602608
0.613554
0.623783
0.63303
0.641014
0.64755
0.653059
0.657606
0.661121
0.531775
0.518681
0.506381
0.49577
0.487365
0.481793
0.479048
0.478495
0.479806
0.482777
0.486908
0.492107
0.498129
0.504751
0.511774
0.518983
0.526609
0.534493
0.542757
0.551563
0.561049
0.570974
0.581027
0.591168
0.601195
0.610902
0.620046
0.628398
0.635856
0.642388
0.648069
0.652955
0.656828
0.536815
0.524814
0.513283
0.503423
0.495687
0.490515
0.488178
0.487491
0.488878
0.491908
0.496146
0.501224
0.506966
0.513076
0.519357
0.526018
0.532958
0.540269
0.547972
0.556191
0.564822
0.573708
0.582731
0.591707
0.600504
0.60897
0.617043
0.624617
0.631624
0.637914
0.643463
0.648236
0.652288
0.542474
0.531869
0.521386
0.512365
0.50536
0.500706
0.498553
0.498175
0.499651
0.502634
0.506699
0.511455
0.51665
0.521946
0.52759
0.533494
0.539795
0.546473
0.553554
0.561095
0.568892
0.576844
0.584797
0.592597
0.600215
0.607609
0.614803
0.621653
0.628083
0.633907
0.639178
0.643962
0.648155
0.548674
0.539379
0.530294
0.52227
0.516016
0.511925
0.510109
0.509962
0.511513
0.514352
0.518049
0.522144
0.526624
0.531294
0.536199
0.54142
0.547034
0.553037
0.55946
0.566197
0.573103
0.580003
0.586858
0.593605
0.600298
0.606887
0.61338
0.619469
0.625328
0.630713
0.635692
0.640068
0.6441
0.554939
0.547033
0.539519
0.532677
0.527319
0.523925
0.522539
0.522488
0.523915
0.526363
0.529513
0.533106
0.536894
0.540901
0.545146
0.549703
0.554605
0.559899
0.565498
0.571255
0.577135
0.583018
0.588947
0.594898
0.600914
0.606828
0.612646
0.618133
0.623257
0.628003
0.632577
0.636823
0.640698
0.561226
0.554416
0.548241
0.542812
0.538444
0.535763
0.53474
0.534729
0.535949
0.538091
0.540828
0.54393
0.547222
0.550707
0.554367
0.558248
0.562406
0.56677
0.571356
0.57609
0.580994
0.586051
0.591273
0.596538
0.601856
0.607281
0.612251
0.616816
0.621492
0.625877
0.630096
0.634064
0.637703
0.567635
0.561736
0.556574
0.552269
0.548891
0.546789
0.546052
0.546211
0.547394
0.549381
0.551889
0.554701
0.557608
0.560631
0.563686
0.566792
0.570028
0.573415
0.577009
0.580846
0.58493
0.589237
0.593784
0.598456
0.603311
0.60728
0.611714
0.615932
0.620186
0.624266
0.628113
0.631678
0.634756
0.574136
0.569097
0.564703
0.561214
0.558626
0.55716
0.556729
0.557108
0.558352
0.560339
0.562687
0.565256
0.567847
0.57035
0.572752
0.575101
0.57745
0.579925
0.582626
0.585615
0.588934
0.592382
0.59619
0.599704
0.603581
0.60742
0.611398
0.615328
0.619173
0.622862
0.626252
0.629366
0.633166
0.580689
0.576454
0.572778
0.569884
0.567845
0.566898
0.566769
0.567375
0.568745
0.570678
0.572958
0.575329
0.577636
0.579724
0.581557
0.583189
0.584749
0.586414
0.588279
0.590262
0.592778
0.595057
0.597928
0.600932
0.604155
0.607634
0.611224
0.614703
0.618113
0.621343
0.625893
0.628558
0.630996
0.587109
0.583686
0.580661
0.578288
0.57671
0.5761
0.57618
0.577005
0.578462
0.580397
0.58261
0.584873
0.58696
0.588762
0.590114
0.591141
0.591981
0.592809
0.593839
0.594512
0.59587
0.597586
0.599567
0.60193
0.604684
0.60768
0.61068
0.61348
0.618468
0.6214
0.624527
0.627409
0.630347
0.593198
0.590533
0.588199
0.586343
0.585185
0.584827
0.5851
0.586053
0.587582
0.589545
0.591722
0.593959
0.59591
0.597465
0.59847
0.59893
0.598998
0.598832
0.598645
0.598615
0.598982
0.599761
0.601017
0.602806
0.604868
0.606759
0.611221
0.613888
0.617338
0.620794
0.624157
0.626807
0.62895
0.598769
0.596847
0.595175
0.593803
0.593052
0.592919
0.593395
0.594461
0.596056
0.598103
0.600279
0.602476
0.604383
0.605728
0.606398
0.606445
0.605656
0.604479
0.603388
0.602501
0.601952
0.601885
0.602369
0.603092
0.604032
0.60788
0.610405
0.613258
0.616891
0.620318
0.623175
0.62608
0.627952
0.603753
0.602493
0.601366
0.600482
0.600149
0.60024
0.600913
0.602089
0.60379
0.605861
0.608099
0.610287
0.612144
0.61336
0.613818
0.613381
0.612071
0.610175
0.608073
0.606136
0.604719
0.603768
0.603191
0.60299
0.605153
0.607252
0.609512
0.612728
0.616114
0.619269
0.622718
0.625674
0.626641
0.608124
0.607415
0.606747
0.606307
0.606242
0.606584
0.607449
0.608763
0.610561
0.612697
0.614997
0.617238
0.619108
0.620305
0.620648
0.619991
0.618249
0.61567
0.612677
0.609766
0.607282
0.605094
0.603663
0.60431
0.60505
0.60642
0.60892
0.611938
0.61511
0.618304
0.621791
0.624898
0.626119
0.611873
0.611616
0.611357
0.611245
0.611415
0.611952
0.612958
0.61442
0.616323
0.618558
0.620964
0.623324
0.625307
0.626549
0.626933
0.626156
0.624094
0.620956
0.617158
0.613228
0.609451
0.606438
0.605541
0.604635
0.604717
0.60591
0.608008
0.610772
0.613896
0.617205
0.620562
0.623915
0.626453
0.615048
0.615151
0.615232
0.615396
0.615768
0.616477
0.6176
0.619198
0.621177
0.623515
0.626067
0.628576
0.630721
0.632066
0.632539
0.631749
0.62946
0.625843
0.621341
0.616489
0.611746
0.60847
0.605985
0.604859
0.604469
0.604931
0.607179
0.609775
0.612743
0.61624
0.619696
0.623364
0.626663
0.617978
0.618147
0.618509
0.618879
0.619414
0.620235
0.621449
0.62312
0.625205
0.627649
0.63032
0.63297
0.635319
0.636798
0.637348
0.63662
0.634206
0.630226
0.625132
0.619517
0.614091
0.60977
0.606736
0.605027
0.604206
0.604102
0.606149
0.608868
0.61185
0.615529
0.619151
0.622852
0.626651
0.620201
0.620808
0.621217
0.621729
0.622371
0.623273
0.624519
0.626324
0.628427
0.630955
0.63373
0.636516
0.639031
0.64063
0.641202
0.640604
0.638135
0.633924
0.628372
0.622036
0.615874
0.610809
0.607178
0.604943
0.604203
0.604234
0.606258
0.608649
0.611707
0.61519
0.618944
0.623025
0.62696
0.62204
0.622912
0.623268
0.623924
0.624688
0.62559
0.627027
0.628725
0.630904
0.633488
0.636313
0.639162
0.641698
0.643342
0.644108
0.643629
0.64122
0.637019
0.630943
0.624154
0.61754
0.611255
0.608366
0.606582
0.605141
0.605033
0.606751
0.609043
0.612135
0.615899
0.619739
0.623628
0.627886
0.623499
0.624503
0.624698
0.625519
0.626407
0.627349
0.628785
0.630484
0.632678
0.635244
0.638068
0.640894
0.643238
0.645098
0.645984
0.645792
0.643646
0.639189
0.632922
0.625017
0.618806
0.614035
0.610192
0.607995
0.607111
0.606531
0.608305
0.610214
0.612914
0.616631
0.620638
0.624902
0.629138
0.62458
0.625623
0.625673
0.626627
0.627599
0.628583
0.629908
0.631621
0.633771
0.636316
0.639083
0.641516
0.643914
0.645928
0.646971
0.646995
0.644796
0.639696
0.634728
0.627449
0.620646
0.615608
0.612463
0.609618
0.608624
0.608487
0.60957
0.611647
0.61447
0.61749
0.621968
0.625925
0.630599
0.625342
0.626332
0.626393
0.627335
0.628296
0.629351
0.630534
0.632199
0.6343
0.636791
0.638927
0.64142
0.643843
0.645839
0.646802
0.646599
0.643992
0.641106
0.63568
0.628272
0.622408
0.617724
0.613801
0.611943
0.61079
0.610641
0.61155
0.613432
0.616133
0.619397
0.623133
0.626635
0.632238
0.625911
0.626791
0.62689
0.627736
0.628647
0.629635
0.630763
0.632301
0.634398
0.636152
0.638398
0.640804
0.64304
0.644754
0.645315
0.644596
0.643917
0.640749
0.634963
0.629208
0.623868
0.618836
0.615966
0.613884
0.612904
0.612914
0.613607
0.615248
0.617853
0.620979
0.624692
0.628654
0.632774
0.626411
0.627122
0.627243
0.627932
0.628735
0.629585
0.630601
0.632035
0.633762
0.635302
0.637435
0.639522
0.641348
0.642295
0.642347
0.643387
0.642182
0.638432
0.634196
0.629457
0.624107
0.620483
0.617571
0.616108
0.615092
0.615014
0.616064
0.617075
0.619665
0.622694
0.626398
0.630549
0.63508
0.626929
0.62742
0.62748
0.628017
0.628619
0.629314
0.63026
0.631689
0.632439
0.634051
0.635927
0.63765
0.638627
0.638501
0.640645
0.640592
0.638383
0.635961
0.63293
0.628014
0.624589
0.621374
0.619373
0.617751
0.617159
0.617101
0.617749
0.619177
0.621607
0.624429
0.628282
0.632486
0.637249
0.627481
0.627737
0.627693
0.628024
0.62841
0.628911
0.629682
0.630735
0.631175
0.632611
0.633942
0.635016
0.635202
0.636167
0.636915
0.636146
0.634677
0.633263
0.629686
0.627145
0.624565
0.622176
0.620298
0.619291
0.618846
0.618724
0.619476
0.621041
0.623581
0.626402
0.630235
0.634689
0.639584
0.628181
0.628164
0.628004
0.628051
0.628189
0.62846
0.628988
0.629499
0.629873
0.630829
0.631607
0.631927
0.631366
0.633135
0.632855
0.631454
0.63055
0.629389
0.62723
0.625606
0.623691
0.622283
0.620946
0.620243
0.619948
0.62011
0.620998
0.622709
0.625253
0.628511
0.632345
0.636856
0.642137
0.62909
0.628762
0.628449
0.628199
0.628061
0.628076
0.62831
0.627976
0.628455
0.628846
0.629071
0.628775
0.627937
0.628932
0.627981
0.627062
0.626769
0.625016
0.624317
0.623394
0.622641
0.621501
0.620855
0.620565
0.620491
0.62098
0.622167
0.624107
0.626836
0.630301
0.634478
0.639249
0.644748
0.630287
0.629674
0.629079
0.628532
0.628061
0.627727
0.627612
0.62684
0.626952
0.62675
0.626345
0.625102
0.62504
0.624509
0.623291
0.622597
0.622202
0.621452
0.621254
0.620908
0.620734
0.620261
0.620102
0.62007
0.620439
0.621317
0.622841
0.625096
0.628132
0.631928
0.636443
0.641619
0.647418
0.631847
0.630948
0.630033
0.629144
0.628287
0.627578
0.627029
0.625821
0.625408
0.624647
0.623524
0.621752
0.62194
0.620279
0.618803
0.618455
0.617538
0.617538
0.61774
0.618179
0.618247
0.618428
0.618592
0.619014
0.619754
0.621031
0.622939
0.625581
0.629033
0.633269
0.63822
0.643855
0.650077
0.633875
0.632714
0.631432
0.630163
0.628879
0.627714
0.626695
0.625038
0.624029
0.622678
0.620904
0.618657
0.6184
0.616249
0.6146
0.614045
0.613453
0.613651
0.614154
0.614881
0.615365
0.615938
0.6165
0.617272
0.618446
0.620136
0.622464
0.625561
0.629489
0.634226
0.639705
0.645882
0.652649
0.636367
0.635031
0.633416
0.63172
0.629991
0.628316
0.626763
0.624621
0.622986
0.621043
0.618762
0.615994
0.615133
0.612621
0.610789
0.609843
0.609457
0.609464
0.61044
0.611078
0.611908
0.612756
0.613643
0.61481
0.616402
0.61854
0.621361
0.624977
0.629443
0.634755
0.640846
0.647666
0.655075
0.640036
0.638165
0.636156
0.634015
0.631785
0.629544
0.627378
0.624666
0.622407
0.619867
0.617109
0.613939
0.612117
0.609471
0.607322
0.606054
0.605587
0.605611
0.60636
0.607017
0.607962
0.609006
0.61016
0.611652
0.613635
0.616195
0.619521
0.623703
0.628797
0.634771
0.641572
0.649134
0.657294
0.644534
0.642256
0.63981
0.637208
0.634434
0.631559
0.628719
0.625375
0.622438
0.619276
0.615996
0.612617
0.609516
0.606677
0.604306
0.602729
0.601885
0.601901
0.602182
0.602756
0.603692
0.604824
0.606194
0.608
0.610356
0.613264
0.617093
0.621826
0.627559
0.634261
0.641856
0.650252
0.659276
0.650405
0.647615
0.644638
0.641479
0.638098
0.634535
0.630872
0.627115
0.623164
0.619424
0.615501
0.611661
0.607949
0.604577
0.601833
0.599791
0.598421
0.598165
0.598027
0.598441
0.599294
0.600453
0.601975
0.604032
0.606599
0.609869
0.614131
0.619361
0.625739
0.633207
0.641661
0.650994
0.66099
0.657819
0.654452
0.650863
0.64707
0.642989
0.638666
0.634221
0.629746
0.624963
0.620392
0.615858
0.611456
0.607171
0.603272
0.600004
0.597442
0.595559
0.594676
0.59415
0.594302
0.595015
0.596172
0.597786
0.600012
0.602593
0.606416
0.611068
0.61681
0.623699
0.631801
0.641113
0.651384
0.662431
0.666137
0.662883
0.658531
0.654095
0.649312
0.644141
0.638822
0.633497
0.627949
0.62251
0.617208
0.612064
0.607279
0.602819
0.598913
0.595641
0.593443
0.591777
0.590743
0.590614
0.591179
0.592388
0.594295
0.596158
0.599278
0.603235
0.608201
0.614357
0.621739
0.630477
0.640611
0.651833
0.663832
0.674258
0.672261
0.667617
0.662385
0.657044
0.651099
0.644825
0.638604
0.632094
0.625924
0.619846
0.613771
0.608222
0.603272
0.598786
0.594798
0.592003
0.58962
0.588161
0.587738
0.588145
0.589303
0.591114
0.593344
0.596602
0.600738
0.605983
0.612373
0.620081
0.629255
0.640143
0.652347
0.665454
0.683507
0.680534
0.67762
0.671791
0.665903
0.659374
0.652278
0.645047
0.637985
0.630755
0.623793
0.616969
0.610501
0.60474
0.599595
0.59509
0.591623
0.588649
0.586745
0.586026
0.586346
0.587599
0.589155
0.591854
0.595299
0.599677
0.605078
0.611631
0.619539
0.6289
0.64049
0.653632
0.667708
0.691736
0.689824
0.686062
0.680969
0.675416
0.668556
0.660803
0.652864
0.644854
0.636954
0.62921
0.621858
0.614713
0.60795
0.601898
0.596553
0.592385
0.58904
0.586844
0.58596
0.586258
0.587597
0.589374
0.592331
0.596042
0.600649
0.606237
0.612948
0.620976
0.630528
0.641853
0.655588
0.670603
0.700524
0.697568
0.694813
0.689944
0.683874
0.678102
0.669974
0.661561
0.652923
0.644375
0.635977
0.627821
0.619986
0.61263
0.605917
0.599853
0.594836
0.590898
0.588404
0.587469
0.587888
0.589483
0.591776
0.595121
0.599205
0.604104
0.609911
0.61675
0.624768
0.634204
0.64504
0.658617
0.673403
0.70787
0.705684
0.702226
0.697464
0.69201
0.685384
0.678189
0.670439
0.661595
0.652604
0.643815
0.635212
0.626886
0.619029
0.611797
0.60524
0.599721
0.595288
0.592547
0.591669
0.592398
0.594495
0.597469
0.601312
0.605767
0.61086
0.61667
0.623304
0.630907
0.639384
0.650073
0.662574
0.676564
0.714029
0.712371
0.708905
0.704124
0.69824
0.692503
0.685613
0.677653
0.670196
0.661251
0.652394
0.643507
0.635032
0.626983
0.619514
0.612825
0.60717
0.602824
0.600237
0.599639
0.600843
0.603485
0.607062
0.611262
0.615885
0.620915
0.626432
0.632563
0.639462
0.647478
0.656818
0.66734
0.679803
0.718332
0.71736
0.714564
0.709856
0.704274
0.69774
0.69133
0.684085
0.676184
0.6686
0.660921
0.652291
0.644142
0.636215
0.628809
0.622361
0.617114
0.613382
0.611345
0.611446
0.613316
0.616512
0.620504
0.624866
0.629373
0.634007
0.638868
0.64427
0.650255
0.657075
0.664868
0.673286
0.683227
0.720882
0.72022
0.718161
0.714136
0.70849
0.702321
0.695519
0.688497
0.682013
0.67507
0.667348
0.660288
0.653488
0.646087
0.63951
0.63399
0.629636
0.626973
0.626144
0.627247
0.629885
0.633547
0.637633
0.641754
0.645727
0.649545
0.653486
0.657818
0.662659
0.668269
0.674011
0.680217
0.687916
0.721977
0.721338
0.719386
0.716138
0.711204
0.704943
0.698688
0.69263
0.685959
0.680086
0.673848
0.667763
0.66126
0.655956
0.65175
0.647821
0.645121
0.643799
0.644437
0.646774
0.650198
0.654043
0.657752
0.661097
0.664038
0.666671
0.669432
0.672588
0.676242
0.680351
0.684398
0.688799
0.693934
0.721574
0.720897
0.718907
0.715811
0.711483
0.706259
0.700964
0.69542
0.690024
0.684271
0.678694
0.674099
0.669801
0.666289
0.662886
0.661274
0.661267
0.662715
0.665518
0.669227
0.6732
0.676749
0.679533
0.681582
0.68305
0.684208
0.685674
0.687572
0.689999
0.692523
0.695602
0.698415
0.70099
0.719128
0.718521
0.71667
0.713776
0.710257
0.706252
0.701692
0.697144
0.692328
0.687619
0.683569
0.679506
0.677193
0.675991
0.675637
0.676772
0.679364
0.683294
0.688157
0.693023
0.697069
0.699799
0.701213
0.701638
0.701472
0.701205
0.701297
0.70189
0.703135
0.704382
0.706818
0.708161
0.708548
0.71494
0.714365
0.712765
0.710418
0.707698
0.704565
0.701058
0.697334
0.693973
0.690636
0.687903
0.686334
0.685648
0.685817
0.688112
0.692275
0.697839
0.704298
0.710787
0.716197
0.719754
0.721265
0.721105
0.719926
0.718253
0.71667
0.7155
0.714902
0.71503
0.715179
0.717166
0.717208
0.715639
0.709232
0.708785
0.707515
0.705721
0.703652
0.701383
0.699045
0.696681
0.694522
0.693184
0.692244
0.692327
0.693729
0.696837
0.701052
0.708045
0.71625
0.724592
0.731853
0.737019
0.739572
0.739676
0.738156
0.735579
0.732608
0.72991
0.727819
0.726318
0.725232
0.724401
0.725667
0.724592
0.721342
0.702499
0.702068
0.701025
0.699647
0.698321
0.696966
0.695853
0.694999
0.694566
0.694817
0.696122
0.698642
0.702366
0.70797
0.715652
0.7246
0.733796
0.742864
0.749975
0.754245
0.755548
0.754492
0.751896
0.748267
0.744452
0.740985
0.738122
0.735887
0.733814
0.732045
0.732558
0.730402
0.725685
0.694058
0.693948
0.693337
0.692665
0.692014
0.69171
0.691884
0.692569
0.693971
0.696227
0.699507
0.704273
0.710758
0.718596
0.728189
0.738774
0.749386
0.757817
0.764074
0.767313
0.767485
0.765692
0.762327
0.758177
0.753942
0.750108
0.746766
0.743987
0.741131
0.738637
0.738241
0.735164
0.729496
0.686043
0.685948
0.68556
0.68524
0.685278
0.685954
0.68734
0.689573
0.692705
0.696912
0.70239
0.709248
0.717558
0.727597
0.738599
0.750142
0.7607
0.769346
0.774472
0.77626
0.775658
0.773552
0.770065
0.765916
0.761659
0.757866
0.754267
0.751094
0.747844
0.744531
0.743583
0.739719
0.733765
0.677987
0.677831
0.677626
0.677774
0.678477
0.680003
0.682522
0.686138
0.69083
0.696718
0.703985
0.712601
0.722511
0.733551
0.745656
0.757401
0.767905
0.775856
0.780509
0.782277
0.78161
0.77956
0.776273
0.772468
0.768581
0.765013
0.761642
0.75815
0.754672
0.750941
0.749342
0.744942
0.738992
0.669894
0.670072
0.670232
0.670684
0.67198
0.674279
0.677779
0.682559
0.688496
0.695713
0.704241
0.714125
0.72506
0.736748
0.748724
0.760686
0.770936
0.778927
0.78383
0.785958
0.785948
0.784674
0.782151
0.779076
0.775745
0.772448
0.769162
0.765884
0.76224
0.758674
0.756087
0.751454
0.745659
0.664295
0.663487
0.663672
0.664413
0.66613
0.668998
0.673389
0.679107
0.686002
0.694054
0.703458
0.714081
0.725591
0.73756
0.749528
0.760902
0.771335
0.779576
0.785412
0.788734
0.790063
0.789962
0.788752
0.78658
0.783896
0.780976
0.777959
0.774878
0.771374
0.768072
0.764437
0.759836
0.754277
0.659677
0.658791
0.65856
0.659426
0.661386
0.664629
0.669373
0.675835
0.683449
0.692071
0.7021
0.713112
0.724948
0.737033
0.749004
0.760379
0.770653
0.779563
0.786473
0.791371
0.794451
0.795987
0.796158
0.795343
0.79358
0.791302
0.78871
0.785869
0.782595
0.779277
0.775097
0.770445
0.76493
0.658279
0.656484
0.655982
0.656505
0.658325
0.661668
0.666552
0.673253
0.68133
0.690468
0.7006
0.711767
0.723877
0.736176
0.748235
0.759793
0.770481
0.779937
0.788083
0.794622
0.799548
0.80292
0.804836
0.80529
0.804843
0.803524
0.801542
0.79909
0.796071
0.792722
0.788291
0.783406
0.777627
0.658499
0.656229
0.655374
0.655553
0.657008
0.660252
0.665236
0.672132
0.680019
0.689287
0.699503
0.710791
0.722986
0.735474
0.747685
0.759806
0.771003
0.781361
0.790658
0.798806
0.805568
0.810805
0.81451
0.816664
0.817625
0.817488
0.816538
0.814638
0.812024
0.808574
0.804094
0.798622
0.792273
0.660591
0.658217
0.656783
0.65655
0.657886
0.66065
0.66517
0.671258
0.679447
0.68883
0.69911
0.71047
0.722733
0.735419
0.748107
0.760608
0.772437
0.783887
0.794374
0.803965
0.812411
0.819466
0.825019
0.829023
0.831639
0.833019
0.833204
0.832378
0.830327
0.826857
0.821999
0.815811
0.808656
0.666148
0.662561
0.66061
0.659909
0.660619
0.662986
0.666859
0.672473
0.680092
0.689304
0.699584
0.710997
0.723326
0.736228
0.749346
0.762455
0.775161
0.787313
0.798712
0.809478
0.81966
0.828501
0.835925
0.841865
0.846346
0.849485
0.851306
0.85152
0.850266
0.846782
0.841275
0.834292
0.826097
0.672254
0.668779
0.666444
0.665646
0.665841
0.667701
0.670968
0.675961
0.682853
0.691476
0.701485
0.712738
0.72503
0.738068
0.751547
0.765055
0.778477
0.791478
0.803874
0.815433
0.827259
0.837496
0.846669
0.854578
0.861092
0.866292
0.870091
0.871772
0.870761
0.86742
0.861358
0.853377
0.84405
0.679815
0.676633
0.674486
0.673423
0.673212
0.674592
0.677418
0.681791
0.687881
0.695687
0.705201
0.716043
0.728056
0.740949
0.754475
0.768168
0.782089
0.795783
0.809132
0.821982
0.834223
0.845497
0.856159
0.865968
0.874439
0.881847
0.88751
0.890188
0.89026
0.888159
0.882272
0.87331
0.862179
0.688399
0.685349
0.68347
0.682549
0.682339
0.683622
0.685616
0.689623
0.694915
0.701997
0.710671
0.720756
0.732186
0.744666
0.757897
0.771604
0.785569
0.799689
0.813657
0.827352
0.840494
0.852765
0.864235
0.875544
0.885507
0.895227
0.902447
0.906216
0.905368
0.901843
0.895119
0.88542
0.873056
0.697788
0.695173
0.693118
0.691942
0.69197
0.693543
0.695904
0.699389
0.703372
0.709724
0.717298
0.726337
0.736905
0.748666
0.761321
0.774631
0.788567
0.802803
0.817072
0.831226
0.845077
0.858311
0.871057
0.883367
0.892917
0.902834
0.909243
0.913713
0.915452
0.91347
0.907445
0.897403
0.885079
0.704904
0.702734
0.70182
0.7021
0.702929
0.704398
0.706268
0.709379
0.713329
0.718166
0.725229
0.733028
0.742668
0.753514
0.765376
0.778006
0.791359
0.805306
0.819373
0.833193
0.846901
0.86035
0.873389
0.885483
0.895678
0.906226
0.915567
0.92273
0.926287
0.925302
0.919648
0.907804
0.892764
0.712651
0.711279
0.710719
0.710994
0.711926
0.713153
0.715343
0.718635
0.722717
0.726906
0.732972
0.739543
0.748238
0.758044
0.768787
0.780428
0.792687
0.805495
0.818897
0.832347
0.84586
0.859242
0.873017
0.885382
0.896654
0.907314
0.91761
0.925926
0.930843
0.930977
0.92589
0.913826
0.89716
0.719171
0.718463
0.718258
0.718916
0.720259
0.722105
0.724559
0.727774
0.73131
0.735396
0.740935
0.746698
0.753898
0.762352
0.772009
0.782378
0.79335
0.804883
0.817163
0.830369
0.843461
0.856161
0.868905
0.881485
0.894022
0.905607
0.916975
0.926091
0.931953
0.932892
0.928256
0.915991
0.898682
0.725466
0.725749
0.725963
0.726815
0.728093
0.729827
0.73201
0.734693
0.737846
0.741561
0.746374
0.751757
0.757991
0.765364
0.773571
0.782695
0.792721
0.803439
0.814559
0.825688
0.837594
0.850061
0.862867
0.875671
0.888655
0.901095
0.912677
0.922768
0.929694
0.931804
0.927806
0.91599
0.897152
0.731231
0.731899
0.732738
0.733845
0.735017
0.736531
0.738375
0.740606
0.743285
0.746166
0.749971
0.754476
0.759689
0.765792
0.772735
0.780511
0.789071
0.798384
0.808319
0.818817
0.829982
0.841811
0.854208
0.867106
0.880349
0.893392
0.90567
0.916321
0.923939
0.926944
0.923773
0.912701
0.893271
0.736259
0.737131
0.738596
0.739684
0.740686
0.741883
0.743286
0.744997
0.746961
0.749063
0.752149
0.755677
0.759844
0.764744
0.770348
0.776684
0.78376
0.791613
0.800334
0.809851
0.820113
0.831246
0.843197
0.855928
0.869213
0.882642
0.895305
0.90648
0.914682
0.918472
0.916064
0.905796
0.887696
0.740164
0.741716
0.743049
0.744362
0.745204
0.745894
0.746769
0.747916
0.748793
0.750335
0.75249
0.755045
0.758169
0.761872
0.766159
0.771107
0.776746
0.783144
0.790448
0.798796
0.808294
0.818641
0.829958
0.842268
0.855346
0.868802
0.881643
0.893149
0.901761
0.90622
0.904677
0.895946
0.879334
0.742821
0.745011
0.746615
0.747644
0.748519
0.748787
0.748946
0.749252
0.749659
0.750286
0.751466
0.753035
0.755059
0.757591
0.760634
0.764273
0.768516
0.773529
0.779441
0.786943
0.795132
0.804419
0.81477
0.826391
0.838986
0.852037
0.864848
0.876432
0.885234
0.890157
0.889306
0.882072
0.867201
0.744375
0.746968
0.748838
0.749919
0.750379
0.750316
0.750056
0.749614
0.749292
0.749274
0.749456
0.750061
0.751086
0.752548
0.754484
0.757018
0.760129
0.764376
0.769478
0.774911
0.781445
0.789468
0.798679
0.809233
0.82089
0.833222
0.845566
0.856891
0.865653
0.870886
0.870657
0.864934
0.852871
0.744949
0.747946
0.749957
0.751089
0.751458
0.751165
0.750414
0.749307
0.748237
0.747363
0.746756
0.746478
0.746609
0.747175
0.74826
0.749937
0.75226
0.755027
0.758632
0.762995
0.768377
0.774996
0.78294
0.792269
0.802708
0.813726
0.82509
0.835746
0.844207
0.849614
0.850136
0.845719
0.835998
0.743927
0.747578
0.749999
0.751247
0.751561
0.751008
0.749912
0.748402
0.746782
0.745179
0.743766
0.74269
0.742006
0.741738
0.741968
0.742749
0.744092
0.745995
0.748591
0.752004
0.75639
0.761812
0.768387
0.776095
0.784868
0.794735
0.804799
0.814406
0.822235
0.827941
0.829313
0.82621
0.818696
0.741289
0.745502
0.748366
0.749953
0.750395
0.749969
0.748756
0.746856
0.744836
0.742719
0.740727
0.73899
0.737587
0.736616
0.73602
0.736039
0.73654
0.737637
0.739417
0.741997
0.745482
0.749943
0.755398
0.761853
0.769165
0.777063
0.785039
0.792798
0.799848
0.806227
0.810003
0.810554
0.809569
0.736507
0.741547
0.744963
0.746925
0.747644
0.74733
0.746209
0.7446
0.742498
0.739913
0.737513
0.735305
0.73338
0.731851
0.730755
0.730044
0.729846
0.730197
0.731193
0.732968
0.735584
0.739101
0.743545
0.74883
0.754803
0.761225
0.767749
0.774203
0.780339
0.787065
0.792683
0.79935
0.808565
0.729195
0.73497
0.739263
0.742009
0.743268
0.743307
0.74245
0.740862
0.738674
0.736482
0.734047
0.731528
0.729235
0.727291
0.725759
0.724495
0.723729
0.723497
0.723853
0.724875
0.726727
0.72942
0.732942
0.737209
0.74205
0.747233
0.752537
0.757943
0.763325
0.769856
0.776461
0.788933
0.810973
0.702233
0.696192
0.690501
0.685209
0.680387
0.676262
0.672621
0.668492
0.697949
0.69261
0.687689
0.683236
0.679377
0.676008
0.67268
0.670228
0.694527
0.689872
0.685665
0.682045
0.679004
0.676364
0.673665
0.672072
0.691913
0.687949
0.684459
0.681582
0.679147
0.676979
0.675506
0.674119
0.689901
0.686575
0.6838
0.681434
0.679617
0.678272
0.67716
0.676083
0.688313
0.685658
0.683378
0.68165
0.68039
0.679434
0.678607
0.677844
0.687026
0.684928
0.68326
0.681991
0.681073
0.680363
0.679784
0.679159
0.685849
0.684377
0.683169
0.682236
0.681537
0.680998
0.680515
0.679939
0.684859
0.683816
0.68297
0.682285
0.681703
0.681134
0.680708
0.680081
0.683759
0.683111
0.682513
0.681952
0.681424
0.680875
0.680746
0.680393
0.682382
0.68211
0.681699
0.681265
0.681144
0.680738
0.679994
0.679423
0.680887
0.681113
0.681083
0.680833
0.680111
0.679446
0.678734