/*--------------------------------*- C++ -*----------------------------------*\
  =========                 |
  \\      /  F ield         | OpenFOAM: The Open Source CFD Toolbox
   \\    /   O peration     | Website:  https://openfoam.org
    \\  /    A nd           | Version:  10
     \\/     M anipulation  |
\*---------------------------------------------------------------------------*/
FoamFile
{
    format      ascii;
    class       surfaceScalarField;
    location    "0.949029";
    object      phi;
}
// * * * * * * * * * * * * * * * * * * * * * * * * * * * * * * * * * * * * * //

dimensions      [1 0 -1 0 0 0 0];

internalField   nonuniform List<scalar> 
32368
(
0.00027447
-9.53737e-05
0.000281205
-9.11831e-05
0.000286353
-8.66882e-05
0.000290267
-8.19927e-05
0.00029303
-7.7308e-05
0.000294671
-7.27191e-05
0.000295513
-6.83455e-05
0.000295577
-6.42984e-05
0.000294871
-6.06135e-05
0.000293566
-5.73841e-05
0.00029155
-5.45572e-05
0.000288964
-5.21798e-05
0.000285897
-5.01939e-05
0.000282319
-4.86032e-05
0.000278345
-4.76639e-05
0.00027382
-4.73136e-05
0.00026859
-4.73878e-05
0.000262257
-4.79285e-05
0.000254241
-4.91178e-05
0.000243691
-5.10238e-05
0.000229713
-5.36108e-05
0.000212044
-5.67754e-05
0.000191571
-6.04268e-05
0.000170264
-6.41771e-05
0.000151189
-6.73356e-05
0.000136019
-6.93823e-05
0.000125445
-6.83952e-05
0.000118694
-6.26724e-05
0.000114496
-5.11279e-05
0.00011122
-3.34161e-05
0.000108822
-1.18132e-05
0.000109215
1.26071e-05
3.81397e-05
0.000111869
0.000272017
-9.60335e-05
0.000277333
-9.10867e-05
0.000281377
-8.58731e-05
0.000284488
-8.06226e-05
0.000286817
-7.53828e-05
0.000288373
-7.03291e-05
0.000289154
-6.55393e-05
0.000289321
-6.11159e-05
0.000288791
-5.71885e-05
0.000287701
-5.35954e-05
0.000286086
-5.0476e-05
0.000284111
-4.78682e-05
0.000281518
-4.55576e-05
0.000278321
-4.3775e-05
0.00027473
-4.26887e-05
0.000270379
-4.19892e-05
0.00026504
-4.17472e-05
0.000258548
-4.20237e-05
0.00025061
-4.2988e-05
0.000240233
-4.48038e-05
0.000226017
-4.74061e-05
0.000207605
-5.05835e-05
0.000186194
-5.41892e-05
0.000164164
-5.78854e-05
0.000144625
-6.10908e-05
0.000128502
-6.31146e-05
0.000116886
-6.17739e-05
0.000108392
-5.5648e-05
0.000102426
-4.34326e-05
9.66589e-05
-2.55118e-05
9.28649e-05
-4.02448e-06
9.19435e-05
1.95345e-05
4.36052e-05
9.37538e-05
0.000263953
-9.49232e-05
0.000268207
-8.93342e-05
0.000271675
-8.343e-05
0.000274548
-7.77465e-05
0.000276813
-7.20778e-05
0.000278466
-6.67056e-05
0.000279392
-6.16466e-05
0.000279862
-5.69336e-05
0.000279839
-5.26499e-05
0.000279349
-4.87572e-05
0.00027843
-4.5377e-05
0.000276936
-4.24623e-05
0.000274825
-3.98298e-05
0.000272069
-3.78831e-05
0.000268464
-3.65599e-05
0.000263993
-3.55344e-05
0.000258733
-3.49363e-05
0.000252488
-3.49685e-05
0.000244643
-3.57565e-05
0.000234642
-3.73042e-05
0.000220521
-3.99663e-05
0.000201397
-4.30878e-05
0.000179026
-4.65657e-05
0.000156467
-5.01235e-05
0.00013641
-5.33128e-05
0.000119391
-5.51361e-05
0.000106453
-5.32669e-05
9.61397e-05
-4.65305e-05
8.80626e-05
-3.35401e-05
8.03288e-05
-1.5886e-05
7.55524e-05
5.08726e-06
7.40027e-05
2.71718e-05
4.93017e-05
7.54035e-05
0.000249987
-9.26285e-05
0.000254292
-8.72882e-05
0.000258551
-8.2013e-05
0.000262254
-7.64429e-05
0.000265427
-7.05763e-05
0.000267788
-6.48891e-05
0.000269258
-5.91524e-05
0.000270005
-5.37758e-05
0.000269955
-4.88217e-05
0.000269266
-4.43355e-05
0.000268097
-4.03844e-05
0.00026624
-3.67833e-05
0.000263965
-3.37754e-05
0.000261553
-3.14939e-05
0.000258681
-2.95831e-05
0.000255035
-2.81446e-05
0.000250162
-2.72094e-05
0.000243848
-2.68675e-05
0.000236016
-2.72652e-05
0.000226136
-2.86177e-05
0.000212361
-3.10651e-05
0.000192578
-3.40317e-05
0.00016943
-3.73901e-05
0.000146614
-4.08592e-05
0.00012597
-4.39689e-05
0.000108346
-4.54361e-05
9.38985e-05
-4.29944e-05
8.20299e-05
-3.55185e-05
7.18218e-05
-2.2031e-05
6.31208e-05
-4.83552e-06
5.79813e-05
1.48756e-05
5.6403e-05
3.48555e-05
5.47746e-05
5.78733e-05
0.000240596
-9.4568e-05
0.00024713
-8.93344e-05
0.000252826
-8.36064e-05
0.000257256
-7.71113e-05
0.00026074
-7.0399e-05
0.00026303
-6.35995e-05
0.000264191
-5.69805e-05
0.000264511
-5.06608e-05
0.000264109
-4.48709e-05
0.000262839
-3.96653e-05
0.00026094
-3.50059e-05
0.000258587
-3.077e-05
0.000255797
-2.73464e-05
0.000252403
-2.45183e-05
0.000248675
-2.20326e-05
0.000244622
-2.0001e-05
0.00023984
-1.85373e-05
0.000233422
-1.77426e-05
0.000225112
-1.77078e-05
0.000214487
-1.87219e-05
0.000200327
-2.08584e-05
0.000179718
-2.37158e-05
0.000156311
-2.7012e-05
0.000133797
-3.04116e-05
0.000112911
-3.33731e-05
9.49079e-05
-3.43424e-05
7.91181e-05
-3.13796e-05
6.61412e-05
-2.31444e-05
5.4492e-05
-9.9153e-06
4.60553e-05
6.68713e-06
4.14071e-05
2.44266e-05
4.0229e-05
4.21287e-05
5.97551e-05
4.19914e-05
0.000236087
-9.81112e-05
0.00024307
-9.22641e-05
0.000248632
-8.54498e-05
0.000252942
-7.79378e-05
0.000256072
-7.00437e-05
0.000258062
-6.21198e-05
0.000258682
-5.43838e-05
0.000258412
-4.69687e-05
0.000257473
-4.02721e-05
0.00025562
-3.42808e-05
0.000252951
-2.87916e-05
0.000250009
-2.40329e-05
0.000246687
-2.01726e-05
0.000242536
-1.66821e-05
0.000237857
-1.35781e-05
0.000232931
-1.09566e-05
0.000227482
-8.9002e-06
0.000220512
-7.55873e-06
0.000211415
-7.08557e-06
0.000199912
-7.74712e-06
0.000184804
-9.63097e-06
0.000163372
-1.24459e-05
0.000140547
-1.57662e-05
0.000118807
-1.91422e-05
9.816e-05
-2.21612e-05
7.98698e-05
-2.22899e-05
6.34081e-05
-1.88115e-05
4.94909e-05
-1.01011e-05
3.75865e-05
2.57823e-06
3.00126e-05
1.763e-05
2.63673e-05
3.30374e-05
2.58647e-05
4.85552e-05
6.39341e-05
2.79762e-05
0.000230862
-0.000101939
0.000237633
-9.52231e-05
0.000243029
-8.73301e-05
0.000246943
-7.85575e-05
0.00024955
-6.92544e-05
0.000250942
-5.99902e-05
0.000250844
-5.08752e-05
0.000249918
-4.22945e-05
0.000248367
-3.4615e-05
0.000245905
-2.77837e-05
0.000242673
-2.15834e-05
0.0002393
-1.64015e-05
0.000235397
-1.19566e-05
0.000230489
-7.81254e-06
0.000224826
-4.0131e-06
0.000218816
-6.97219e-07
0.000212367
1.95898e-06
0.000204515
3.73414e-06
0.000194641
4.39064e-06
0.000182564
3.75696e-06
0.000166811
1.94966e-06
0.000145532
-1.04457e-06
0.000123995
-4.4252e-06
0.000103085
-7.69201e-06
8.34988e-05
-1.03676e-05
6.49201e-05
-1.01271e-05
4.84824e-05
-6.02049e-06
3.41912e-05
2.92204e-06
2.31759e-05
1.46831e-05
1.65869e-05
2.76966e-05
1.35452e-05
4.08523e-05
1.34063e-05
5.40145e-05
6.66678e-05
1.58199e-05
0.000223554
-0.000105625
0.000229657
-9.77755e-05
0.000234222
-8.85008e-05
0.000237178
-7.82027e-05
0.000238639
-6.73285e-05
0.000238973
-5.64232e-05
0.000238056
-4.59814e-05
0.000236494
-3.63418e-05
0.000234445
-2.77148e-05
0.000231582
-2.0004e-05
0.00022831
-1.33407e-05
0.000224913
-7.6539e-06
0.000220642
-2.4444e-06
0.000214932
2.49243e-06
0.000208359
6.86531e-06
0.000201684
1.0558e-05
0.000194852
1.34915e-05
0.000186641
1.55049e-05
0.000176343
1.62552e-05
0.0001637
1.56331e-05
0.000147
1.37651e-05
0.000126639
1.00281e-05
0.000107091
6.33677e-06
8.75844e-05
3.07164e-06
6.91031e-05
1.20754e-06
5.07121e-05
2.01065e-06
3.42379e-05
6.89243e-06
2.02503e-05
1.53818e-05
1.06249e-05
2.56943e-05
4.92318e-06
3.66628e-05
2.45627e-06
4.74326e-05
2.76944e-06
5.7719e-05
6.71258e-05
5.57394e-06
0.000212294
-0.000108263
0.000216659
-9.89518e-05
0.000219607
-8.84073e-05
0.000221437
-7.71687e-05
0.00022215
-6.54003e-05
0.000221643
-5.33443e-05
0.000219807
-4.14913e-05
0.00021698
-3.0362e-05
0.000214098
-2.04699e-05
0.000211227
-1.17696e-05
0.000208212
-4.30364e-06
0.000205154
2.27931e-06
0.000201115
8.1612e-06
0.000195738
1.35195e-05
0.000189633
1.81426e-05
0.000183415
2.20859e-05
0.0001767
2.52756e-05
0.000168273
2.74481e-05
0.000157762
2.81151e-05
0.000144921
2.73151e-05
0.000127612
2.50074e-05
0.000108599
2.09263e-05
9.01146e-05
1.71903e-05
7.19203e-05
1.36561e-05
5.38824e-05
1.24771e-05
3.60671e-05
1.3658e-05
2.03856e-05
1.86822e-05
8.16734e-06
2.61616e-05
3.59981e-08
3.49557e-05
-4.57192e-06
4.38801e-05
-6.235e-06
5.22756e-05
-5.01981e-06
5.98962e-05
6.69809e-05
-1.2869e-06
0.000196285
-0.000110036
0.000200482
-0.000100874
0.00020412
-9.02241e-05
0.000206831
-7.83956e-05
0.000207826
-6.52474e-05
0.000206963
-5.15148e-05
0.000204442
-3.79714e-05
0.000200374
-2.53679e-05
0.000195488
-1.38997e-05
0.00018972
-3.90487e-06
0.000183845
4.74997e-06
0.000179939
1.23347e-05
0.000177805
1.89223e-05
0.000174239
2.43639e-05
0.000169361
2.9398e-05
0.000163807
3.37362e-05
0.000157255
3.71726e-05
0.000148656
3.92984e-05
0.0001381
3.96448e-05
0.000125148
3.84942e-05
0.000108241
3.51003e-05
9.14431e-05
3.0844e-05
7.46745e-05
2.69709e-05
5.81643e-05
2.3956e-05
4.05115e-05
2.2958e-05
2.37046e-05
2.43851e-05
9.33937e-06
2.89253e-05
-1.26525e-06
3.53248e-05
-8.21513e-06
4.24745e-05
-1.16226e-05
4.95337e-05
-1.18413e-05
5.57059e-05
-9.40812e-06
6.12639e-05
6.63079e-05
-4.52522e-06
0.000180125
-0.000113294
0.000184833
-0.00010398
0.000188562
-9.27327e-05
0.000191503
-8.04052e-05
0.000192199
-6.59152e-05
0.000191016
-5.04158e-05
0.00018793
-3.4987e-05
0.000182926
-2.03618e-05
0.000176531
-7.29477e-06
0.000169601
4.26785e-06
0.000162379
1.3871e-05
0.000155658
2.20958e-05
0.000151451
2.89536e-05
0.000149343
3.47257e-05
0.000146373
4.02971e-05
0.000142247
4.51285e-05
0.000136232
4.87015e-05
0.000127739
5.05555e-05
0.000117478
5.03898e-05
0.000104527
4.85278e-05
8.92179e-05
4.37992e-05
7.46992e-05
3.94128e-05
6.00117e-05
3.52662e-05
4.51828e-05
3.32473e-05
2.87469e-05
3.22618e-05
1.32553e-05
3.37567e-05
4.08997e-07
3.75409e-05
-8.63755e-06
4.25847e-05
-1.38386e-05
4.8306e-05
-1.55296e-05
5.33904e-05
-1.42894e-05
5.75988e-05
-1.04517e-05
6.11653e-05
6.4212e-05
-4.18022e-06
0.000162588
-0.000116546
0.000167285
-0.000107369
0.000172475
-9.71291e-05
0.000176778
-8.46546e-05
0.000177231
-6.8619e-05
0.000175093
-5.08514e-05
0.000170412
-3.30598e-05
0.000162971
-1.59184e-05
0.000154388
-4.92356e-07
0.000146381
1.23616e-05
0.000138919
2.28603e-05
0.000131668
3.14654e-05
0.000126019
3.83753e-05
0.00012453
4.44274e-05
0.000123019
5.07198e-05
0.000119737
5.58846e-05
0.000114055
5.95569e-05
0.000105896
6.07426e-05
9.61761e-05
5.98164e-05
8.35122e-05
5.63272e-05
7.07988e-05
5.11093e-05
5.85317e-05
4.64721e-05
4.6461e-05
4.26039e-05
3.28654e-05
4.07824e-05
1.81045e-05
3.98868e-05
4.41421e-06
4.12584e-05
-6.32565e-06
4.40201e-05
-1.34772e-05
4.78676e-05
-1.67166e-05
5.18202e-05
-1.65683e-05
5.50226e-05
-1.35829e-05
5.76995e-05
-7.86317e-06
5.98801e-05
6.18279e-05
3.73129e-07
0.00014357
-0.000119975
0.000150651
-0.000113347
0.000159407
-0.000104919
0.000163805
-9.10756e-05
0.000163224
-7.23704e-05
0.000159386
-5.19184e-05
0.000151754
-3.11206e-05
0.000140348
-1.12535e-05
0.000129259
6.24072e-06
0.000120263
2.00571e-05
0.000112932
3.10909e-05
0.000106261
3.98611e-05
0.000101369
4.6783e-05
0.0001007
5.36342e-05
9.96281e-05
6.05817e-05
9.67879e-05
6.61475e-05
9.1184e-05
6.92563e-05
8.35775e-05
6.94409e-05
7.43264e-05
6.75007e-05
6.32973e-05
6.19516e-05
5.32715e-05
5.67236e-05
4.34316e-05
5.16654e-05
3.35158e-05
4.8716e-05
2.14167e-05
4.63675e-05
8.77266e-06
4.54576e-05
-2.54614e-06
4.64684e-05
-1.09852e-05
4.82061e-05
-1.56366e-05
5.04943e-05
-1.66165e-05
5.30566e-05
-1.43059e-05
5.5335e-05
-8.88569e-06
5.73915e-05
-5.99305e-07
5.86846e-05
5.94312e-05
1.01637e-05
0.00012548
-0.00012535
0.000135916
-0.000121575
0.000141946
-0.000110753
0.000141945
-9.24308e-05
0.000138778
-7.10884e-05
0.000132747
-4.86758e-05
0.000122776
-2.61046e-05
0.000110524
-5.26046e-06
9.97476e-05
1.28805e-05
9.17723e-05
2.68641e-05
8.56734e-05
3.82056e-05
8.03316e-05
4.69979e-05
7.69829e-05
5.41886e-05
7.72448e-05
6.23959e-05
7.66371e-05
7.00196e-05
7.35784e-05
7.52341e-05
6.8061e-05
7.71437e-05
6.1307e-05
7.61968e-05
5.27038e-05
7.18965e-05
4.44626e-05
6.58434e-05
3.6836e-05
6.04444e-05
2.95064e-05
5.58747e-05
2.10683e-05
5.27474e-05
1.0966e-05
4.98154e-05
8.67292e-07
4.85605e-05
-7.58849e-06
4.886e-05
-1.30632e-05
4.97254e-05
-1.49472e-05
5.1022e-05
-1.34491e-05
5.24715e-05
-8.64069e-06
5.33808e-05
-1.02696e-06
5.36985e-05
9.04506e-06
5.3445e-05
5.23738e-05
2.15647e-05
0.000106723
-0.000130843
0.000113323
-0.000126406
0.000113865
-0.000111458
0.000111065
-9.07914e-05
0.000105887
-6.75795e-05
9.73729e-05
-4.27667e-05
8.61532e-05
-1.95194e-05
7.56972e-05
1.14037e-06
6.80639e-05
1.82057e-05
6.26324e-05
3.22728e-05
5.84351e-05
4.36624e-05
5.50981e-05
5.2572e-05
5.40683e-05
6.11066e-05
5.4942e-05
7.11238e-05
5.37321e-05
7.84532e-05
5.01841e-05
8.24136e-05
4.51616e-05
8.28214e-05
3.93001e-05
8.02836e-05
3.26245e-05
7.37432e-05
2.70892e-05
6.79513e-05
2.17959e-05
6.24457e-05
1.64034e-05
5.878e-05
9.37048e-06
5.46221e-05
1.59126e-06
5.10056e-05
-5.58618e-06
4.90031e-05
-1.10141e-05
4.81402e-05
-1.35668e-05
4.77961e-05
-1.30386e-05
4.78838e-05
-9.33789e-06
4.76299e-05
-2.75849e-06
4.70534e-05
6.28335e-06
4.59028e-05
1.75856e-05
4.41112e-05
4.17828e-05
3.04402e-05
8.21894e-05
-0.00013412
8.38341e-05
-0.000126832
8.15665e-05
-0.000109761
7.68174e-05
-8.7361e-05
6.8513e-05
-6.17539e-05
5.83433e-05
-3.54583e-05
4.94954e-05
-1.24358e-05
4.30377e-05
6.50379e-06
3.86705e-05
2.25971e-05
3.55935e-05
3.6252e-05
3.32502e-05
4.75777e-05
3.20473e-05
5.78982e-05
3.28443e-05
6.94643e-05
3.26285e-05
7.88287e-05
3.05542e-05
8.47859e-05
2.7126e-05
8.68641e-05
2.32519e-05
8.58064e-05
1.84647e-05
8.01564e-05
1.46398e-05
7.39516e-05
1.1195e-05
6.83797e-05
8.02943e-06
6.39116e-05
3.80571e-06
5.94416e-05
-1.42381e-06
5.43312e-05
-6.75896e-06
5.00061e-05
-1.11418e-05
4.69065e-05
-1.36375e-05
4.45671e-05
-1.36641e-05
4.27353e-05
-1.09259e-05
4.11199e-05
-5.60227e-06
3.94448e-05
2.16569e-06
3.74607e-05
1.19911e-05
3.51435e-05
2.30589e-05
3.27669e-05
3.03289e-05
3.42785e-05
5.36356e-05
-0.000133659
5.20938e-05
-0.000124541
4.79702e-05
-0.000106334
4.18239e-05
-8.28727e-05
3.31527e-05
-5.59681e-05
2.51596e-05
-2.97903e-05
1.94215e-05
-7.6026e-06
1.57712e-05
1.03028e-05
1.32805e-05
2.57141e-05
1.16855e-05
3.92587e-05
1.06906e-05
5.22149e-05
1.11601e-05
6.54098e-05
1.10345e-05
7.64558e-05
9.82108e-06
8.41327e-05
7.7091e-06
8.79978e-05
5.40182e-06
8.86255e-05
2.7407e-06
8.47184e-05
4.03986e-07
7.85688e-05
-1.38131e-06
7.28391e-05
-3.19744e-06
6.74726e-05
-5.3498e-06
6.32628e-05
-8.1301e-06
5.77591e-05
-1.12362e-05
5.20419e-05
-1.40276e-05
4.69052e-05
-1.57478e-05
4.25716e-05
-1.57434e-05
3.86973e-05
-1.3667e-05
3.52285e-05
-9.39634e-06
3.20432e-05
-2.89523e-06
2.90064e-05
5.03405e-06
2.62765e-05
1.35202e-05
2.35946e-05
2.10433e-05
2.11827e-05
1.91703e-05
2.84159e-05
2.40235e-05
-0.000129661
2.00812e-05
-0.0001201
1.48102e-05
-0.000101391
8.70011e-06
-7.79699e-05
2.47349e-06
-5.17137e-05
-2.35648e-06
-2.59032e-05
-5.69928e-06
-4.09588e-06
-7.7575e-06
1.31914e-05
-9.19212e-06
2.91375e-05
-9.99134e-06
4.46369e-05
-1.01096e-05
5.91732e-05
-1.06335e-05
7.13151e-05
-1.13166e-05
8.04527e-05
-1.23306e-05
8.61537e-05
-1.32628e-05
8.85961e-05
-1.39723e-05
8.65713e-05
-1.48034e-05
8.12976e-05
-1.5306e-05
7.59965e-05
-1.5812e-05
7.04131e-05
-1.65636e-05
6.58795e-05
-1.79055e-05
6.05318e-05
-1.9098e-05
5.43608e-05
-2.01955e-05
4.77933e-05
-2.07519e-05
4.1606e-05
-2.02699e-05
3.59772e-05
-1.82091e-05
3.07318e-05
-1.4603e-05
2.60012e-05
-9.71358e-06
2.18235e-05
-4.22968e-06
1.82311e-05
1.04877e-06
1.537e-05
6.69918e-06
1.30706e-05
1.36248e-05
1.10522e-05
9.04203e-06
2.16546e-05
-4.901e-06
-0.000122554
-1.04757e-05
-0.000114155
-1.61402e-05
-9.58751e-05
-2.13235e-05
-7.32975e-05
-2.54503e-05
-4.86888e-05
-2.81192e-05
-2.38437e-05
-2.93946e-05
-1.57763e-06
-3.06158e-05
1.65356e-05
-3.14381e-05
3.36676e-05
-3.21412e-05
4.94312e-05
-3.23146e-05
6.28e-05
-3.22971e-05
7.3418e-05
-3.22566e-05
8.10821e-05
-3.19389e-05
8.54639e-05
-3.10534e-05
8.52876e-05
-3.0396e-05
8.16003e-05
-2.97094e-05
7.75871e-05
-2.91689e-05
7.26209e-05
-2.91594e-05
6.72553e-05
-2.94679e-05
6.21912e-05
-2.93855e-05
5.59222e-05
-2.92272e-05
4.88223e-05
-2.87023e-05
4.1541e-05
-2.74505e-05
3.44696e-05
-2.52791e-05
2.79424e-05
-2.22383e-05
2.19123e-05
-1.87294e-05
1.67047e-05
-1.51034e-05
1.24502e-05
-1.11248e-05
9.05476e-06
-6.43072e-06
6.24354e-06
-3.7821e-07
3.48099e-06
6.93515e-06
8.44161e-07
-1.61181e-06
1.52925e-05
-3.07411e-05
-0.000112077
-3.79015e-05
-0.000106376
-4.37771e-05
-8.99804e-05
-4.84114e-05
-6.8772e-05
-5.15764e-05
-4.56828e-05
-5.32985e-05
-2.22183e-05
-5.37148e-05
-3.67711e-07
-5.42641e-05
1.85403e-05
-5.42117e-05
3.56939e-05
-5.37357e-05
5.07251e-05
-5.27247e-05
6.30776e-05
-5.1621e-05
7.26667e-05
-5.01489e-05
7.90366e-05
-4.77731e-05
8.07564e-05
-4.56605e-05
7.92102e-05
-4.39908e-05
7.69688e-05
-4.27089e-05
7.33309e-05
-4.17947e-05
6.84778e-05
-4.12963e-05
6.3283e-05
-4.07152e-05
5.71309e-05
-3.98327e-05
4.99784e-05
-3.84965e-05
4.23469e-05
-3.67133e-05
3.4627e-05
-3.4324e-05
2.70533e-05
-3.15826e-05
2.01449e-05
-2.88359e-05
1.43542e-05
-2.60204e-05
9.44261e-06
-2.29187e-05
4.90277e-06
-1.91586e-05
8.56014e-07
-1.41444e-05
-2.97414e-06
-7.74255e-06
-6.62418e-06
-1.00793e-07
-9.73171e-06
-1.15587e-05
7.64904e-06
-5.19851e-05
-0.00010056
-6.11446e-05
-9.64731e-05
-6.76313e-05
-8.31072e-05
-7.21125e-05
-6.4057e-05
-7.48697e-05
-4.26322e-05
-7.59344e-05
-2.0613e-05
-7.57936e-05
1.78559e-07
-7.51832e-05
1.89638e-05
-7.39459e-05
3.55686e-05
-7.22034e-05
4.98283e-05
-6.99735e-05
6.13197e-05
-6.71812e-05
6.92588e-05
-6.34694e-05
7.3031e-05
-6.00542e-05
7.40015e-05
-5.76671e-05
7.39231e-05
-5.58397e-05
7.20738e-05
-5.42125e-05
6.84903e-05
-5.30664e-05
6.37914e-05
-5.22377e-05
5.79282e-05
-5.09529e-05
5.10932e-05
-4.92916e-05
4.35197e-05
-4.70574e-05
3.54921e-05
-4.43827e-05
2.76005e-05
-4.17814e-05
2.05499e-05
-3.94758e-05
1.43157e-05
-3.75164e-05
8.47415e-06
-3.51844e-05
2.86172e-06
-3.23096e-05
-2.49143e-06
-2.80331e-05
-7.5588e-06
-2.24943e-05
-1.18881e-05
-1.63442e-05
-1.48673e-05
-9.88457e-06
-1.6198e-05
-1.72581e-05
-4.13562e-06
-6.72383e-05
-9.01231e-05
-7.86958e-05
-8.42525e-05
-8.63866e-05
-7.46989e-05
-9.12556e-05
-5.84835e-05
-9.38575e-05
-3.93419e-05
-9.45633e-05
-1.91734e-05
-9.39514e-05
3.57386e-07
-9.22632e-05
1.82216e-05
-8.98469e-05
3.40033e-05
-8.66547e-05
4.70561e-05
-8.21479e-05
5.64213e-05
-7.73852e-05
6.2353e-05
-7.3166e-05
6.62245e-05
-7.03879e-05
6.85032e-05
-6.81326e-05
6.86772e-05
-6.61152e-05
6.67686e-05
-6.45973e-05
6.32416e-05
-6.33441e-05
5.81696e-05
-6.19544e-05
5.18758e-05
-6.00987e-05
4.45554e-05
-5.75326e-05
3.66704e-05
-5.48886e-05
2.90937e-05
-5.26519e-05
2.21175e-05
-5.11563e-05
1.55016e-05
-4.9781e-05
9.08388e-06
-4.82391e-05
2.77781e-06
-4.58461e-05
-3.51557e-06
-4.22953e-05
-9.25711e-06
-3.72532e-05
-1.38214e-05
-3.11403e-05
-1.67365e-05
-2.58279e-05
-1.90515e-05
-2.22553e-05
-2.14914e-05
-2.40732e-05
-1.81387e-05
-7.74466e-05
-8.24537e-05
-8.79983e-05
-7.3504e-05
-9.79144e-05
-6.41831e-05
-0.000103964
-5.14737e-05
-0.000107091
-3.51245e-05
-0.000107801
-1.74373e-05
-0.000106651
1.05861e-07
-0.000103781
1.62805e-05
-9.94581e-05
3.01194e-05
-9.41986e-05
4.14854e-05
-8.90101e-05
5.00191e-05
-8.48246e-05
5.64772e-05
-8.18622e-05
6.09207e-05
-7.93848e-05
6.31208e-05
-7.71582e-05
6.30773e-05
-7.53799e-05
6.10804e-05
-7.39127e-05
5.73163e-05
-7.23298e-05
5.19777e-05
-7.0169e-05
4.51096e-05
-6.77193e-05
3.79434e-05
-6.55999e-05
3.10544e-05
-6.44182e-05
2.43552e-05
-6.36617e-05
1.76621e-05
-6.28963e-05
1.09234e-05
-6.17205e-05
4.17449e-06
-5.99388e-05
-2.20214e-06
-5.62126e-05
-8.22016e-06
-5.05535e-05
-1.25626e-05
-4.53891e-05
-1.65114e-05
-4.33312e-05
-2.08709e-05
-4.06606e-05
-2.52104e-05
-3.72436e-05
-2.93387e-05
-3.34308e-05
-3.36727e-05
-8.65741e-05
-7.66394e-05
-9.30258e-05
-6.68161e-05
-0.000100972
-5.61624e-05
-0.000107544
-4.45231e-05
-0.000110952
-3.08048e-05
-0.000111787
-1.55648e-05
-0.000110286
-3.54472e-07
-0.000106783
1.37788e-05
-0.000102827
2.62291e-05
-9.88228e-05
3.68971e-05
-9.51898e-05
4.5238e-05
-9.21556e-05
5.1591e-05
-8.95629e-05
5.56587e-05
-8.71646e-05
5.74459e-05
-8.51573e-05
5.71332e-05
-8.3553e-05
5.49642e-05
-8.16486e-05
5.06383e-05
-7.94386e-05
4.50354e-05
-7.74149e-05
3.90289e-05
-7.65543e-05
3.30666e-05
-7.64409e-05
2.69427e-05
-7.65028e-05
2.0517e-05
-7.62353e-05
1.38502e-05
-7.54522e-05
6.99279e-06
-7.33807e-05
5.35247e-07
-6.87034e-05
-4.54938e-06
-6.33747e-05
-9.72898e-06
-6.24215e-05
-1.56063e-05
-6.1363e-05
-2.13916e-05
-6.04788e-05
-2.76285e-05
-5.99594e-05
-3.41461e-05
-5.86048e-05
-4.06139e-05
-4.62812e-05
-5.60892e-05
-9.5183e-05
-7.14899e-05
-9.9496e-05
-6.20825e-05
-0.000104188
-5.13221e-05
-0.000109034
-3.9812e-05
-0.000112127
-2.74109e-05
-0.000113026
-1.42614e-05
-0.000112274
-8.7005e-07
-0.000110287
1.17509e-05
-0.000107583
2.31313e-05
-0.000104501
3.28673e-05
-0.00010144
4.06568e-05
-9.85086e-05
4.64114e-05
-9.59883e-05
5.00126e-05
-9.37517e-05
5.14192e-05
-9.17206e-05
5.06679e-05
-8.96143e-05
4.80208e-05
-8.76846e-05
4.41191e-05
-8.69092e-05
3.97024e-05
-8.72661e-05
3.48875e-05
-8.80641e-05
2.95501e-05
-8.88502e-05
2.37446e-05
-8.93631e-05
1.75803e-05
-8.83848e-05
1.08839e-05
-8.53044e-05
5.20006e-06
-7.99711e-05
-5.72441e-07
-7.96681e-05
-6.93272e-06
-8.0085e-05
-1.31552e-05
-8.22024e-05
-2.03599e-05
-8.50846e-05
-2.83909e-05
-8.71916e-05
-3.67244e-05
-8.78552e-05
-4.49569e-05
-8.65647e-05
-5.28422e-05
-6.03496e-05
-8.40604e-05
-0.000102724
-6.66024e-05
-0.000105996
-5.80675e-05
-0.000108933
-4.80147e-05
-0.000111479
-3.69722e-05
-0.000113372
-2.53334e-05
-0.000114341
-1.3518e-05
-0.000114122
-1.63382e-06
-0.000112755
9.68154e-06
-0.000110763
1.98956e-05
-0.000108283
2.87111e-05
-0.000105542
3.56932e-05
-0.000102863
4.07581e-05
-0.000100378
4.38251e-05
-9.8218e-05
4.49829e-05
-9.64567e-05
4.42934e-05
-9.55993e-05
4.24078e-05
-9.59681e-05
3.96282e-05
-9.71883e-05
3.60595e-05
-9.87594e-05
3.18002e-05
-0.000100247
2.69042e-05
-0.000100579
2.11347e-05
-9.90437e-05
1.56268e-05
-9.54044e-05
9.98766e-06
-9.55992e-05
3.57492e-06
-9.7081e-05
-2.42914e-06
-0.000100748
-9.39324e-06
-0.000106343
-1.72484e-05
-0.000111829
-2.60338e-05
-0.000115055
-3.5544e-05
-0.000117425
-4.54265e-05
-0.00012
-5.69296e-05
-0.00012131
-6.62998e-05
-7.2325e-05
-0.00011812
-0.000109154
-6.07857e-05
-0.00011187
-5.38359e-05
-0.00011388
-4.50464e-05
-0.000115192
-3.4971e-05
-0.00011602
-2.42741e-05
-0.000116121
-1.33413e-05
-0.000115395
-2.55318e-06
-0.000114149
7.6598e-06
-0.000112285
1.68867e-05
-0.000110137
2.47589e-05
-0.000107768
3.1105e-05
-0.00010565
3.56824e-05
-0.000103995
3.85681e-05
-0.000103054
3.98886e-05
-0.000103133
3.98309e-05
-0.000104178
3.85506e-05
-0.000105976
3.63862e-05
-0.000108136
3.33392e-05
-0.000109782
2.93581e-05
-0.000109972
2.48389e-05
-0.000108068
2.00214e-05
-0.000108979
1.43308e-05
-0.000111543
8.95891e-06
-0.000115875
3.10895e-06
-0.000123099
-3.72883e-06
-0.000130882
-1.1662e-05
-0.000136296
-2.07319e-05
-0.000142297
-3.09018e-05
-0.000150843
-4.41418e-05
-0.00015859
-5.65138e-05
-0.0001574
-6.50264e-05
-0.000151491
-7.20168e-05
-7.71478e-05
-0.000143982
-0.000112918
-5.37863e-05
-0.000116343
-4.86204e-05
-0.000118341
-4.15196e-05
-0.000119218
-3.28736e-05
-0.000119341
-2.32926e-05
-0.000118911
-1.33089e-05
-0.000117989
-3.41679e-06
-0.000116561
5.91376e-06
-0.000114837
1.43288e-05
-0.000113089
2.15431e-05
-0.000111459
2.73796e-05
-0.00011025
3.17043e-05
-0.00010976
3.4568e-05
-0.000110074
3.61225e-05
-0.000111298
3.64564e-05
-0.000113448
3.57242e-05
-0.000115767
3.39368e-05
-0.000117292
3.10762e-05
-0.000117221
2.7863e-05
-0.000118657
2.3726e-05
-0.000122106
1.94998e-05
-0.000126932
1.48997e-05
-0.000134222
9.66299e-06
-0.000143653
3.27218e-06
-0.000151648
-4.33478e-06
-0.000159584
-1.32917e-05
-0.000172327
-2.5127e-05
-0.00018706
-3.89223e-05
-0.000191197
-4.95148e-05
-0.000188951
-5.9152e-05
-0.000183451
-6.74303e-05
-0.000173304
-7.28081e-05
-7.49954e-05
-0.000158466
-0.000113035
-4.5888e-05
-0.000117637
-4.23155e-05
-0.000120532
-3.69905e-05
-0.000121869
-2.98983e-05
-0.000122244
-2.17037e-05
-0.000121893
-1.28602e-05
-0.000120992
-3.9513e-06
-0.000119769
4.58176e-06
-0.000118434
1.23354e-05
-0.000117185
1.90148e-05
-0.000116311
2.44781e-05
-0.000115987
2.86436e-05
-0.000116299
3.15421e-05
-0.000117506
3.32604e-05
-0.000119345
3.38415e-05
-0.000121252
3.33252e-05
-0.000122759
3.21066e-05
-0.000124545
3.01238e-05
-0.000128676
2.7519e-05
-0.000134156
2.44618e-05
-0.000141151
2.09965e-05
-0.000150762
1.65902e-05
-0.000160688
1.10054e-05
-0.000170134
4.03052e-06
-0.000183765
-4.7025e-06
-0.000202829
-1.74127e-05
-0.000216405
-2.92817e-05
-0.000219069
-3.97796e-05
-0.000217307
-5.01352e-05
-0.000210374
-5.9203e-05
-0.000196163
-6.55086e-05
-0.000178245
-6.98325e-05
-7.2432e-05
-0.000161376
-0.000109519
-3.75926e-05
-0.000115055
-3.5421e-05
-0.000119137
-3.14694e-05
-0.000121618
-2.59771e-05
-0.000122903
-1.92995e-05
-0.000123213
-1.16948e-05
-0.000122923
-3.80072e-06
-0.000122271
3.91426e-06
-0.000121624
1.1027e-05
-0.000121076
1.72868e-05
-0.000120887
2.24456e-05
-0.000121246
2.64435e-05
-0.000122165
2.9329e-05
-0.00012351
3.11551e-05
-0.000125161
3.20425e-05
-0.000127494
3.23293e-05
-0.000131708
3.18475e-05
-0.000137535
3.08089e-05
-0.000144553
2.92364e-05
-0.000153671
2.68775e-05
-0.000164146
2.34021e-05
-0.000174324
1.86375e-05
-0.00018697
1.24199e-05
-0.000205603
4.67766e-06
-0.000228058
-7.25719e-06
-0.000238879
-1.75219e-05
-0.000242046
-2.83617e-05
-0.000241031
-3.92419e-05
-0.00023425
-4.91581e-05
-0.000221299
-5.74543e-05
-0.000205864
-6.45987e-05
-0.000189658
-6.99878e-05
-7.3275e-05
-0.000176071
-0.000104403
-2.90227e-05
-0.000109908
-2.80964e-05
-0.000114342
-2.54926e-05
-0.000118081
-2.13728e-05
-0.000120746
-1.59346e-05
-0.000122242
-9.56345e-06
-0.000122941
-2.71958e-06
-0.000123259
4.16965e-06
-0.000123433
1.06648e-05
-0.000123679
1.64494e-05
-0.00012411
2.13321e-05
-0.000124934
2.52844e-05
-0.000126508
2.83281e-05
-0.000128987
3.05811e-05
-0.000132746
3.22085e-05
-0.000138091
3.3132e-05
-0.000144908
3.34839e-05
-0.000153474
3.32187e-05
-0.000163746
3.20466e-05
-0.000174168
2.96194e-05
-0.000185419
2.56649e-05
-0.000200373
2.06849e-05
-0.000221393
1.39781e-05
-0.00024446
3.61331e-06
-0.000255499
-5.86996e-06
-0.000259076
-1.63083e-05
-0.000259399
-2.72644e-05
-0.000255061
-3.7817e-05
-0.000246222
-4.75896e-05
-0.000234616
-5.65414e-05
-0.000220733
-6.43726e-05
-0.000204036
-7.01727e-05
-7.47116e-05
-0.000193396
-9.83857e-05
-2.00052e-05
-0.00010431
-2.01114e-05
-0.000109208
-1.89531e-05
-0.000113186
-1.61456e-05
-0.000116342
-1.1913e-05
-0.000118941
-6.61062e-06
-0.000120766
-6.04654e-07
-0.000122279
5.5411e-06
-0.00012364
1.15041e-05
-0.000125119
1.69796e-05
-0.000127053
2.17982e-05
-0.000129669
2.59019e-05
-0.000133235
2.92884e-05
-0.000137894
3.20169e-05
-0.000143869
3.41186e-05
-0.000151381
3.56533e-05
-0.000160714
3.648e-05
-0.000170823
3.62867e-05
-0.000181314
3.46949e-05
-0.000193195
3.18558e-05
-0.000208426
2.77632e-05
-0.000228266
2.20418e-05
-0.000250861
1.37583e-05
-0.000263303
5.07428e-06
-0.000267941
-4.67285e-06
-0.000269427
-1.50358e-05
-0.00026808
-2.55315e-05
-0.000263671
-3.58884e-05
-0.000257073
-4.60499e-05
-0.000247812
-5.56651e-05
-0.000235171
-6.38861e-05
-0.000219699
-7.04247e-05
-7.58445e-05
-0.000210566
-9.32551e-05
-1.11046e-05
-9.94429e-05
-1.16898e-05
-0.000104839
-1.16714e-05
-0.000109453
-1.0209e-05
-0.000113357
-7.09748e-06
-0.000116741
-2.70155e-06
-0.000119779
2.58968e-06
-0.000122665
8.26096e-06
-0.00012564
1.39029e-05
-0.000128964
1.92654e-05
-0.000132795
2.41277e-05
-0.000137266
2.84034e-05
-0.000142675
3.21056e-05
-0.000149219
3.51866e-05
-0.000157023
3.75802e-05
-0.000165739
3.913e-05
-0.000175043
3.95985e-05
-0.000185115
3.8885e-05
-0.000196606
3.68911e-05
-0.00021049
3.36033e-05
-0.000227652
2.89517e-05
-0.000247529
2.23702e-05
-0.000261075
1.45294e-05
-0.000266838
5.64113e-06
-0.000268913
-3.95586e-06
-0.000269824
-1.39468e-05
-0.000269874
-2.44193e-05
-0.00026904
-3.49087e-05
-0.000266565
-4.49501e-05
-0.000261242
-5.45136e-05
-0.000252242
-6.2936e-05
-0.00023956
-6.98304e-05
-7.47629e-05
-0.000226486
-9.10557e-05
-2.24533e-06
-9.66774e-05
-3.51691e-06
-0.0001023
-4.20406e-06
-0.000107504
-3.5942e-06
-0.000112306
-1.38763e-06
-0.000116813
2.30785e-06
-0.000121218
7.06719e-06
-0.000125668
1.24233e-05
-0.00013024
1.7932e-05
-0.000135285
2.33003e-05
-0.000140816
2.82287e-05
-0.000147026
3.26983e-05
-0.000153914
3.6464e-05
-0.000161211
3.94626e-05
-0.000168892
4.15462e-05
-0.000177256
4.26015e-05
-0.000186429
4.2548e-05
-0.00019677
4.12723e-05
-0.000208899
3.87646e-05
-0.000223244
3.49846e-05
-0.000239119
2.97054e-05
-0.000252265
2.28994e-05
-0.00025956
1.45918e-05
-0.000263882
5.27286e-06
-0.000267694
-4.6247e-06
-0.00027215
-1.48302e-05
-0.000274821
-2.54759e-05
-0.000274437
-3.55323e-05
-0.000272852
-4.49442e-05
-0.000269347
-5.37731e-05
-0.000263137
-6.13148e-05
-0.00025405
-6.74738e-05
-7.20676e-05
-0.000240935
-9.24405e-05
6.07165e-06
-9.65093e-05
4.24378e-06
-0.000102068
3.41207e-06
-0.000107839
3.51742e-06
-0.000113556
5.19837e-06
-0.000119234
8.41922e-06
-0.000125016
1.28913e-05
-0.000131126
1.8097e-05
-0.000137436
2.35658e-05
-0.000144103
2.89294e-05
-0.000150676
3.39157e-05
-0.00015745
3.81189e-05
-0.000164288
4.15636e-05
-0.0001714
4.41328e-05
-0.000178872
4.57498e-05
-0.000186892
4.61585e-05
-0.00019578
4.53461e-05
-0.000206163
4.34618e-05
-0.000218763
4.043e-05
-0.000233381
3.61333e-05
-0.000248134
3.0313e-05
-0.000259932
2.2953e-05
-0.000267002
1.38942e-05
-0.000272045
4.03242e-06
-0.000277764
-7.25571e-06
-0.000283525
-1.8817e-05
-0.000285117
-2.96604e-05
-0.000283796
-3.93159e-05
-0.000281019
-4.79505e-05
-0.000276224
-5.46434e-05
-0.000270466
-6.00757e-05
-0.00026332
-6.4651e-05
-6.79411e-05
-0.000253715
-9.65187e-05
1.34299e-05
-9.90441e-05
1.20481e-05
-0.000104434
1.09756e-05
-0.000110738
1.09837e-05
-0.000117335
1.24618e-05
-0.000124216
1.56009e-05
-0.00013168
1.99241e-05
-0.000139192
2.50956e-05
-0.000146259
3.05409e-05
-0.000153277
3.56506e-05
-0.000159982
4.02506e-05
-0.000166552
4.4105e-05
-0.000173108
4.70659e-05
-0.000179534
4.88804e-05
-0.000186318
4.96496e-05
-0.000193464
4.91251e-05
-0.000202104
4.76859e-05
-0.000213428
4.5203e-05
-0.000227158
4.18572e-05
-0.00024275
3.70574e-05
-0.000258816
3.05331e-05
-0.000274715
2.31095e-05
-0.000289443
1.17107e-05
-0.000304119
-2.80654e-07
-0.000311365
-1.23483e-05
-0.000311788
-2.37956e-05
-0.000309375
-3.39474e-05