/*--------------------------------*- C++ -*----------------------------------*\
  =========                 |
  \\      /  F ield         | OpenFOAM: The Open Source CFD Toolbox
   \\    /   O peration     | Website:  https://openfoam.org
    \\  /    A nd           | Version:  10
     \\/     M anipulation  |
\*---------------------------------------------------------------------------*/
FoamFile
{
    format      ascii;
    class       volScalarField;
    location    "0.949029";
    object      rho;
}
// * * * * * * * * * * * * * * * * * * * * * * * * * * * * * * * * * * * * * //

dimensions      [1 -3 0 0 0 0 0];

internalField   nonuniform List<scalar> 
16320
(
0.635716
0.627816
0.619266
0.610255
0.601937
0.593799
0.586405
0.580511
0.575316
0.571302
0.568405
0.565915
0.564782
0.564097
0.564138
0.565601
0.568246
0.571647
0.575849
0.580864
0.586771
0.593681
0.603305
0.616708
0.63401
0.658045
0.682241
0.70143
0.711217
0.708921
0.695545
0.688203
0.684673
0.623449
0.612416
0.600996
0.590585
0.581348
0.573775
0.567498
0.562583
0.559069
0.556737
0.555422
0.555528
0.556674
0.558073
0.560154
0.563482
0.567165
0.571234
0.576471
0.583228
0.59072
0.597823
0.606579
0.618954
0.636833
0.663727
0.688491
0.708862
0.716344
0.709575
0.692777
0.683415
0.679803
0.598965
0.585588
0.573095
0.562868
0.554305
0.548051
0.543305
0.540209
0.539295
0.539293
0.540928
0.543764
0.547072
0.550753
0.554877
0.55923
0.563903
0.569502
0.57664
0.584739
0.595157
0.603015
0.610628
0.621645
0.641131
0.669527
0.695442
0.714799
0.719319
0.705931
0.688414
0.678816
0.675208
0.561744
0.548068
0.537688
0.531458
0.525344
0.522911
0.520709
0.520249
0.52079
0.522257
0.524962
0.528757
0.53295
0.537991
0.544661
0.552067
0.559766
0.567041
0.575195
0.584977
0.59806
0.608083
0.613898
0.62438
0.646152
0.675024
0.702389
0.719114
0.718957
0.699759
0.683274
0.674174
0.67072
0.536078
0.52851
0.524649
0.519873
0.517017
0.514725
0.513649
0.513378
0.514676
0.516774
0.519632
0.523527
0.52825
0.533386
0.5394
0.546895
0.555906
0.565907
0.575101
0.586074
0.598884
0.610262
0.614613
0.625899
0.650956
0.680973
0.707792
0.720996
0.714608
0.692687
0.678653
0.670953
0.667762
0.52959
0.525293
0.520659
0.516254
0.513124
0.51086
0.510195
0.509599
0.511278
0.513921
0.516973
0.520976
0.526182
0.531781
0.537513
0.544709
0.554061
0.565239
0.575759
0.587039
0.600116
0.609708
0.613521
0.628317
0.656712
0.688601
0.712958
0.721931
0.707481
0.687824
0.67569
0.668526
0.664399
0.528378
0.523247
0.517961
0.513165
0.508751
0.506316
0.504702
0.504036
0.505879
0.509149
0.512763
0.517408
0.523722
0.530005
0.535959
0.543353
0.553341
0.565535
0.576817
0.588322
0.60096
0.60738
0.612335
0.631509
0.662213
0.694593
0.715401
0.719237
0.70176
0.685387
0.672989
0.66438
0.657539
0.527171
0.519955
0.51239
0.504986
0.498496
0.49387
0.490797
0.489912
0.492104
0.496424
0.501459
0.508447
0.517397
0.525573
0.53287
0.541417
0.55282
0.566382
0.578219
0.589894
0.601215
0.603828
0.611549
0.634788
0.668727
0.699003
0.716694
0.714084
0.697415
0.681317
0.667094
0.654256
0.639866
0.521564
0.509569
0.497416
0.486462
0.478044
0.472487
0.468401
0.466453
0.466451
0.471324
0.478581
0.489911
0.503551
0.51587
0.526506
0.53828
0.552682
0.567914
0.580078
0.591654
0.600328
0.600563
0.612869
0.639357
0.676246
0.702469
0.715635
0.707603
0.691614
0.673835
0.653936
0.634154
0.617565
0.506446
0.492735
0.482367
0.474985
0.468503
0.462986
0.458315
0.454711
0.452609
0.452493
0.455198
0.461778
0.480869
0.50109
0.518233
0.535196
0.553224
0.570156
0.582276
0.593237
0.597145
0.598557
0.6154
0.646666
0.682594
0.705045
0.712769
0.700652
0.682744
0.660327
0.639037
0.62152
0.608106
0.496034
0.486622
0.47764
0.472039
0.466493
0.460247
0.455695
0.45075
0.445931
0.443366
0.444683
0.448612
0.458047
0.480607
0.505688
0.531207
0.554577
0.572825
0.584542
0.593836
0.592479
0.598108
0.618939
0.656878
0.688211
0.707227
0.70796
0.691718
0.672211
0.652096
0.633587
0.618303
0.60688
0.493346
0.484201
0.479989
0.483209
0.480624
0.473676
0.466106
0.456306
0.444967
0.437928
0.437688
0.440995
0.448174
0.466297
0.500152
0.53196
0.55856
0.576241
0.58698
0.591572
0.587814
0.599083
0.625453
0.667939
0.693552
0.708672
0.702821
0.685689
0.667151
0.649214
0.633835
0.622563
0.616704
0.493403
0.492405
0.505776
0.521493
0.51902
0.510234
0.497386
0.474666
0.450568
0.436138
0.432454
0.435355
0.443004
0.465783
0.503243
0.538182
0.565494
0.580281
0.588579
0.584828
0.585646
0.602011
0.638083
0.676072
0.697652
0.708997
0.698929
0.682114
0.667428
0.656544
0.652036
0.653676
0.66037
0.503115
0.527294
0.556119
0.556509
0.545465
0.531154
0.510669
0.478509
0.448742
0.432654
0.429568
0.433567
0.443728
0.472476
0.514492
0.551121
0.573729
0.584135
0.586139
0.577842
0.586197
0.609415
0.652765
0.681775
0.699949
0.70904
0.699643
0.689221
0.686991
0.689948
0.694503
0.699835
0.705947
0.531308
0.572256
0.579663
0.567963
0.551527
0.529588
0.495198
0.459686
0.437044
0.427255
0.428425
0.434522
0.451436
0.492947
0.536261
0.566739
0.580956
0.58602
0.575929
0.574709
0.589381
0.626061
0.664302
0.685625
0.700754
0.707551
0.705298
0.705657
0.708958
0.713636
0.718
0.722357
0.72579
0.565497
0.592968
0.589804
0.573271
0.54698
0.499347
0.45917
0.436014
0.426197
0.425962
0.430613
0.443495
0.479103
0.526084
0.561574
0.579417
0.585205
0.578712
0.567492
0.575698
0.600727
0.64415
0.671355
0.687189
0.69926
0.704874
0.707657
0.71168
0.716237
0.720917
0.724608
0.725595
0.721419
0.58535
0.604786
0.597488
0.577534
0.538487
0.479294
0.443676
0.430551
0.428268
0.431832
0.444567
0.478594
0.525059
0.561108
0.579792
0.585518
0.582242
0.56379
0.564662
0.580737
0.621005
0.654353
0.673467
0.686309
0.696196
0.70068
0.704531
0.709086
0.713487
0.716059
0.71232
0.694628
0.673722
0.596409
0.612655
0.604459
0.585268
0.539998
0.481562
0.451786
0.442567
0.445053
0.460461
0.496005
0.536403
0.566202
0.582184
0.587196
0.584735
0.563561
0.558098
0.567895
0.594843
0.633122
0.657365
0.672091
0.681488
0.688379
0.692889
0.696401
0.698574
0.694157
0.674746
0.652766
0.640489
0.640738
0.602494
0.619105
0.611437
0.597813
0.572541
0.530904
0.506291
0.496492
0.505504
0.531263
0.556659
0.575554
0.58649
0.590481
0.587147
0.564898
0.555482
0.560076
0.575031
0.60966
0.636287
0.652892
0.659623
0.666707
0.673289
0.674776
0.669247
0.651554
0.630734
0.620615
0.623263
0.629185
0.636975
0.592794
0.622413
0.619784
0.609247
0.596489
0.57835
0.566638
0.562064
0.567241
0.578588
0.586953
0.592388
0.594801
0.5894
0.5658
0.554084
0.556378
0.566774
0.588833
0.614504
0.630761
0.6401
0.647493
0.649505
0.643753
0.627327
0.60952
0.602178
0.60464
0.612993
0.623403
0.629247
0.6272
0.568975
0.617353
0.62556
0.620264
0.612548
0.60509
0.599102
0.596054
0.596485
0.598521
0.599871
0.599318
0.590081
0.564935
0.554197
0.555575
0.56248
0.576485
0.598603
0.614927
0.624643
0.628947
0.62533
0.6092
0.591922
0.586605
0.5895
0.597604
0.610025
0.616335
0.61167
0.58854
0.557959
0.540885
0.596358
0.620404
0.624389
0.621451
0.617559
0.613921
0.610918
0.609468
0.607638
0.601572
0.584679
0.562904
0.555412
0.556442
0.561362
0.571653
0.588265
0.601479
0.610107
0.609973
0.596741
0.580122
0.57521
0.577888
0.584445
0.596276
0.603318
0.59818
0.570944
0.537253
0.511176
0.505307
0.52608
0.548227
0.595207
0.612212
0.61749
0.618108
0.617559
0.613078
0.60571
0.593556
0.574715
0.560852
0.557005
0.55842
0.562496
0.570194
0.58187
0.59137
0.596337
0.587699
0.572907
0.566912
0.568453
0.573789
0.583202
0.590086
0.589133
0.564135
0.522734
0.501732
0.500581
0.505614
0.51701
0.524228
0.526868
0.544787
0.573746
0.584824
0.588946
0.589888
0.584481
0.57221
0.566976
0.560408
0.559505
0.561451
0.564972
0.570251
0.577729
0.583745
0.582246
0.568668
0.561467
0.561998
0.566081
0.572333
0.577572
0.578542
0.559826
0.515911
0.495096
0.495954
0.505927
0.529071
0.562253
0.594054
0.528622
0.524715
0.527345
0.539919
0.554721
0.560796
0.563364
0.564422
0.563286
0.56284
0.562926
0.564689
0.567124
0.57054
0.573878
0.575156
0.566441
0.55898
0.558297
0.560777
0.564633
0.568271
0.56842
0.553689
0.513973
0.492345
0.493881
0.507667
0.539602
0.577493
0.614363
0.645801
0.669138
0.536715
0.530141
0.52721
0.528987
0.535255
0.54276
0.548205
0.552679
0.555815
0.559032
0.561674
0.563924
0.565816
0.566072
0.563348
0.558614
0.557431
0.558544
0.560963
0.56307
0.562803
0.552371
0.522003
0.500858
0.500556
0.510564
0.538836
0.578785
0.613695
0.637595
0.672051
0.710153
0.741021
0.549635
0.540959
0.534749
0.531876
0.532527
0.536108
0.539449
0.543268
0.547555
0.550804
0.553716
0.555871
0.557294
0.557994
0.558254
0.559075
0.560431
0.561688
0.561109
0.554209
0.532755
0.511985
0.509712
0.513974
0.533955
0.570903
0.599778
0.62133
0.662316
0.718124
0.753179
0.763297
0.764771
0.557346
0.552873
0.547454
0.542603
0.540263
0.539685
0.54158
0.544255
0.546944
0.550164
0.553419
0.556235
0.55876
0.561035
0.562413
0.563189
0.562576
0.557939
0.543738
0.523182
0.518016
0.518728
0.527765
0.554491
0.584365
0.602816
0.640157
0.704337
0.753036
0.767489
0.770101
0.759868
0.732414
0.559957
0.55901
0.55704
0.554026
0.551192
0.55012
0.550185
0.551534
0.553732
0.556353
0.559203
0.562269
0.564429
0.565716
0.565563
0.562516
0.553355
0.536129
0.528186
0.526461
0.528596
0.542831
0.568171
0.586442
0.613755
0.670596
0.736701
0.764477
0.771731
0.767954
0.741568
0.696299
0.648812
0.557752
0.557478
0.559768
0.559616
0.559099
0.558407
0.558553
0.559416
0.560901
0.563226
0.565264
0.566872
0.567449
0.56551
0.559078
0.549337
0.540601
0.537235
0.536091
0.541271
0.557946
0.574085
0.591959
0.631235
0.694587
0.749476
0.766104
0.770756
0.764114
0.737082
0.698279
0.658545
0.6214
0.559753
0.557384
0.5561
0.557269
0.560667
0.562185
0.563148
0.564208
0.565289
0.566368
0.566667
0.565027
0.56203
0.557897
0.552926
0.549904
0.5479
0.548029
0.556201
0.568116
0.578197
0.600965
0.63931
0.704428
0.747751
0.761616
0.765455
0.761383
0.744065
0.718474
0.688613
0.650686
0.618022
0.564376
0.560404
0.557737
0.556668
0.55666
0.558457
0.560267
0.56155
0.562495
0.562783
0.562709
0.562551
0.561574
0.560475
0.559916
0.559276
0.562908
0.569727
0.575205
0.585311
0.603749
0.639312
0.692085
0.732737
0.74632
0.749589
0.749318
0.742098
0.730587
0.714721
0.690183
0.655206
0.626237
0.571787
0.565347
0.561854
0.559242
0.558531
0.558805
0.559778
0.561311
0.562727
0.564253
0.565941
0.56718
0.568182
0.569151
0.571935
0.575402
0.57781
0.580928
0.587317
0.600743
0.625443
0.663926
0.699396
0.712557
0.714986
0.716323
0.717639
0.720198
0.721915
0.718553
0.705706
0.681809
0.646173
0.585306
0.57112
0.566284
0.56366
0.562443
0.5626
0.563548
0.565562
0.567544
0.569634
0.572521
0.575375
0.578954
0.581174
0.582023
0.582727
0.584063
0.587205
0.594854
0.609734
0.633221
0.659553
0.671925
0.676575
0.681743
0.692024
0.706024
0.713968
0.718054
0.719325
0.712699
0.696789
0.668562
0.603687
0.579567
0.571098
0.5682
0.567213
0.567512
0.568614
0.571444
0.575357
0.579416
0.583002
0.585418
0.586506
0.586628
0.586748
0.586737
0.587705
0.591142
0.600003
0.616819
0.639561
0.660821
0.673972
0.681111
0.692917
0.712842
0.728607
0.736022
0.73953
0.73586
0.726701
0.712395
0.69096
0.615858
0.590382
0.576468
0.573453
0.573276
0.574092
0.577048
0.582899
0.586238
0.588575
0.589985
0.590014
0.589699
0.588766
0.587506
0.58671
0.586847
0.593919
0.608709
0.629958
0.65708
0.687169
0.72107
0.761611
0.796521
0.810194
0.816823
0.819815
0.815018
0.797812
0.770386
0.744748
0.718002
0.623301
0.601391
0.582766
0.57927
0.579596
0.582151
0.58784
0.590952
0.592898
0.593286
0.592385
0.59137
0.588674
0.583986
0.582635
0.582634
0.589849
0.605472
0.630931
0.672606
0.736737
0.801928
0.829442
0.846713
0.845805
0.847274
0.847459
0.84545
0.844112
0.842658
0.838223
0.820854
0.778427
0.631092
0.612202
0.589342
0.584419
0.584868
0.5888
0.593632
0.595704
0.596195
0.594377
0.591896
0.586856
0.579411
0.577959
0.579001
0.586747
0.604942
0.639245
0.7029
0.786225
0.811176
0.8253
0.821273
0.816891
0.803166
0.794053
0.79578
0.807038
0.830606
0.845745
0.853045
0.854579
0.840988
0.63703
0.61917
0.594698
0.588887
0.589309
0.593431
0.596834
0.598223
0.596601
0.592376
0.584793
0.574901
0.573358
0.575138
0.583218
0.603782
0.647143
0.730081
0.792124
0.810205
0.806025
0.79769
0.769687
0.733505
0.722219
0.721896
0.729116
0.743024
0.763406
0.795487
0.834235
0.852106
0.860375
0.638866
0.620132
0.597985
0.593044
0.593522
0.596679
0.59861
0.598427
0.593943
0.583973
0.571404
0.568919
0.570804
0.578657
0.599543
0.647388
0.736197
0.791861
0.804144
0.797467
0.780059
0.739013
0.706743
0.700219
0.700924
0.707817
0.716724
0.725642
0.733514
0.743542
0.766276
0.811547
0.851356
0.63863
0.61933
0.599986
0.596191
0.596661
0.598172
0.598847
0.59591
0.585729
0.56997
0.565278
0.566565
0.57296
0.592065
0.63839
0.726214
0.78464
0.798048
0.792549
0.771561
0.726108
0.696639
0.690301
0.691729
0.701643
0.708117
0.709489
0.709518
0.711667
0.717485
0.729454
0.751467
0.792752
0.63683
0.617288
0.60121
0.598103
0.598185
0.598585
0.597131
0.589635
0.573123
0.563288
0.563077
0.567229
0.582257
0.622277
0.70339
0.771449
0.790777
0.788281
0.769763
0.725054
0.693542
0.685797
0.686511
0.695617
0.698035
0.695655
0.684912
0.668889
0.666362
0.670463
0.681093
0.700483
0.731766
0.631834
0.615007
0.601655
0.598775
0.598236
0.597541
0.592857
0.580497
0.564652
0.561018
0.562762
0.572555
0.603181
0.670834
0.751009
0.780751
0.782653
0.770801
0.732255
0.694884
0.684873
0.683167
0.690024
0.690935
0.686593
0.672237
0.652053
0.639896
0.636078
0.635962
0.639597
0.648079
0.665465
0.620549
0.610741
0.601439
0.598717
0.597799
0.595504
0.587866
0.572721
0.561462
0.560605
0.565001
0.584883
0.634355
0.718233
0.765226
0.774671
0.770435
0.743288
0.700224
0.684794
0.681114
0.685652
0.686926
0.683346
0.6704
0.651789
0.640452
0.636391
0.631817
0.625332
0.625966
0.630265
0.637771
0.61105
0.606483
0.600894
0.598952
0.597527
0.593294
0.583524
0.567892
0.561142
0.561551
0.57124
0.602771
0.66859
0.739699
0.763648
0.765082
0.751315
0.712434
0.685367
0.679633
0.680528
0.683768
0.681845
0.672755
0.657588
0.646254
0.641922
0.637664
0.629338
0.623185
0.622128
0.624471
0.629372
0.607648
0.604932
0.601468
0.599639
0.597678
0.592231
0.580514
0.566237
0.562285
0.56457
0.579981
0.620047
0.691889
0.742975
0.754037
0.75127
0.72649
0.688917
0.677671
0.676286
0.680887
0.681186
0.676972
0.6661
0.655222
0.650918
0.647066
0.637887
0.628867
0.625226
0.623853
0.624678
0.628284
0.607954
0.605936
0.602871
0.601004
0.598469
0.592154
0.579775
0.567013
0.564707
0.568486
0.58743
0.631518
0.700687
0.735179
0.740642
0.731206
0.698845
0.676621
0.672928
0.675711
0.680188
0.67956
0.674349
0.666605
0.663447
0.66148
0.655281
0.645963
0.63821
0.632955
0.629665
0.62932
0.632033
0.609992
0.608215
0.605706
0.603368
0.60017
0.593001
0.580082
0.569364
0.56734
0.57159
0.591501
0.63672
0.698045
0.720613
0.720946
0.705935
0.677873
0.668996
0.669092
0.676791
0.679393
0.678463
0.674351
0.670993
0.670083
0.66743
0.6618
0.655915
0.651212
0.64618
0.641128
0.637975
0.638759
0.615814
0.613383
0.611554
0.608919
0.604106
0.595216
0.581991
0.572583
0.570501
0.574443
0.593398
0.636301
0.685365
0.697316
0.694912
0.680011
0.664785
0.662362
0.668052
0.67619
0.677349
0.675534
0.671926
0.670117
0.669474
0.666661
0.662667
0.659625
0.657378
0.654803
0.652548
0.650764
0.649824
0.630718
0.623113
0.619202
0.616288
0.610807
0.600593
0.585937
0.576904
0.574515
0.577412
0.59342
0.630039
0.665836
0.672098
0.669279
0.65912
0.654615
0.656456
0.669497
0.673629
0.673998
0.671375
0.668012
0.666859
0.665616
0.662291
0.659442
0.658481
0.658062
0.657282
0.657517
0.658199
0.659095
0.664339
0.644059
0.631226
0.623876
0.617619
0.608552
0.594809
0.583277
0.579531
0.58012
0.591287
0.619153
0.645869
0.65098
0.648837
0.645626
0.645183
0.656963
0.667896
0.670005
0.669133
0.665556
0.661893
0.659957
0.657057
0.652689
0.651343
0.652317
0.653304
0.654564
0.657632
0.660197
0.662877
0.697621
0.67667
0.654014
0.637067
0.625767
0.616173
0.604723
0.591617
0.585503
0.583216
0.588058
0.603137
0.623462
0.632617
0.634617
0.635187
0.642854
0.658532
0.664781
0.665572
0.662963
0.657305
0.651545
0.646653
0.640181
0.633994
0.633776
0.635866
0.638415
0.643531
0.650026
0.656264
0.662562
0.720732
0.708916
0.686668
0.661401
0.640794
0.625627
0.612755
0.599601
0.591191
0.587092
0.586851
0.593741
0.605904
0.616563
0.62291
0.629491
0.643118
0.65787
0.661039
0.660162
0.654767
0.644755
0.632807
0.619375
0.602582
0.594009
0.593465
0.597041
0.603356
0.616065
0.628257
0.639382
0.650798
0.732969
0.729503
0.71792
0.695187
0.667689
0.643358
0.623888
0.607058
0.596315
0.590809
0.58784
0.589924
0.597028
0.606472
0.616028
0.627693
0.645279
0.655859
0.656806
0.653747
0.643352
0.624658
0.597609
0.56151
0.535051
0.525159
0.525436
0.528792
0.536434
0.55329
0.57262
0.592978
0.621498
0.734391
0.739576
0.73546
0.724505
0.702471
0.673494
0.645356
0.620771
0.603898
0.595645
0.590753
0.589878
0.593951
0.601933
0.612721
0.627308
0.646651
0.653228
0.652367
0.645679
0.626521
0.591363
0.545487
0.504739
0.49039
0.487167
0.489218
0.494435
0.506926
0.523359
0.536449
0.554836
0.571036
0.696112
0.735693
0.743161
0.738633
0.728476
0.707912
0.678888
0.64787
0.619852
0.604795
0.597201
0.593016
0.594635
0.601183
0.612137
0.628753
0.647395
0.650316
0.647528
0.634623
0.603925
0.55597
0.500892
0.473387
0.465344
0.464864
0.468351
0.477165
0.495021
0.51126
0.530333
0.547183
0.561279
0.656877
0.683375
0.729326
0.743031
0.739317
0.72919
0.710703
0.683675
0.6526
0.625433
0.611133
0.603171
0.600083
0.603794
0.614147
0.634013
0.647807
0.647937
0.642557
0.624007
0.584218
0.524021
0.473296
0.454623
0.450005
0.451518
0.456949
0.472675
0.496567
0.527318
0.561109
0.580734
0.594322
0.661794
0.65556
0.668432
0.712411
0.737909
0.736908
0.726611
0.710257
0.686916
0.659668
0.638139
0.625958
0.617702
0.614788
0.622178
0.639501
0.648032
0.646595
0.63857
0.614447
0.563956
0.499962
0.457156
0.442782
0.439801
0.441876
0.448573
0.467301
0.492552
0.529893
0.585336
0.6399
0.673263
0.708544
0.670118
0.655077
0.656002
0.687434
0.724837
0.730227
0.721255
0.706485
0.687503
0.666896
0.652079
0.642224
0.635581
0.636095
0.644614
0.64888
0.645514
0.635096
0.605424
0.546552
0.486341
0.448736
0.436015
0.433427
0.435527
0.442311
0.459571
0.483282
0.525885
0.60167
0.665229
0.706622
0.741494
0.723125
0.681233
0.655463
0.647997
0.662355
0.69973
0.718017
0.713333
0.700265
0.684807
0.67093
0.660614
0.65234
0.647931
0.649355
0.651028
0.646498
0.633849
0.595442
0.535477
0.480503
0.445652
0.433331
0.430313
0.431912
0.43874
0.451735
0.472172
0.52612
0.622772
0.692215
0.738026
0.736535
0.741418
0.732347
0.695659
0.657975
0.643799
0.643605
0.667631
0.697438
0.701899
0.69295
0.681014
0.6711
0.662647
0.656269
0.654788
0.654167
0.649088
0.63164
0.587341
0.53088
0.481508
0.448377
0.434477
0.430738
0.431829
0.43747
0.447387
0.466494
0.54027
0.635263
0.706128
0.77123
0.691911
0.723707
0.739883
0.735424
0.709285
0.664758
0.641901
0.632775
0.639634
0.666189
0.684398
0.683997
0.678082
0.670976
0.664614
0.660962
0.659117
0.652525
0.628815
0.583659
0.532264
0.487685
0.456021
0.43994
0.435286
0.436017
0.439969
0.447627
0.468726
0.547626
0.633656
0.724062
0.84625
0.680636
0.680192
0.700648
0.735396
0.734951
0.717347
0.675532
0.640958
0.626426
0.622226
0.633892
0.656856
0.669906
0.671328
0.668563
0.665163
0.661236
0.65209
0.624301
0.582195
0.536425
0.496439
0.466409
0.449388
0.443438
0.443308
0.446121
0.452115
0.476795
0.549818
0.628808
0.77244
0.946581
0.689604
0.676007
0.671082
0.678331
0.721132
0.729646
0.718461
0.68688
0.644079
0.623603
0.612697
0.611756
0.623782
0.642859
0.655236
0.658311
0.654236
0.641828
0.615363
0.579241
0.540759
0.505765
0.478404
0.461648
0.454187
0.452622
0.454527
0.459976
0.488514
0.544304
0.636994
0.817732
0.999026
0.701327
0.689116
0.669762
0.662521
0.665246
0.70168
0.721734
0.715516
0.695394
0.653885
0.621845
0.607475
0.598703
0.599796
0.608298
0.620772
0.620822
0.615471
0.600793
0.573798
0.543099
0.51399
0.491041
0.475252
0.466296
0.463161
0.464375
0.470013
0.498985
0.541678
0.655799
0.858731
1.02691
0.700119
0.691085
0.675729
0.662686
0.654487
0.659547
0.687208
0.711854
0.710818
0.69815
0.665988
0.624596
0.605281
0.593661
0.586565
0.587558
0.588883
0.588353
0.582367
0.565902
0.544443
0.522283
0.503807
0.488981
0.478688
0.474863
0.475514
0.482034
0.506709
0.549048
0.6776
0.881415
1.03662
0.693486
0.684472
0.67226
0.660977
0.653079
0.649514
0.653411
0.673224
0.702351
0.706138
0.6994
0.678236
0.637254
0.608184
0.594436
0.585259
0.578598
0.575264
0.570705
0.56123
0.546907
0.530391
0.515671
0.501606
0.491097
0.488105
0.488531
0.49658
0.517154
0.560478
0.694593
0.889867
1.03583
0.678103
0.664997
0.658751
0.651307
0.646817
0.644361
0.644592
0.648855
0.664353
0.695294
0.704255
0.702724
0.691344
0.658871
0.619328
0.601661
0.590987
0.581873
0.573108
0.563335
0.551622
0.539156
0.526139
0.51284
0.504097
0.502145
0.503068
0.512944
0.532103
0.575369
0.704699
0.893766
1.02153
0.647935
0.630925
0.629758
0.627522
0.628232
0.631921
0.636443
0.640795
0.646169
0.660509
0.692366
0.707244
0.7099
0.706079
0.686061
0.646852
0.616428
0.60024
0.588411
0.575965
0.562849
0.549851
0.536621
0.524222
0.518244
0.516415
0.518294
0.530471
0.548862
0.589176
0.712465
0.889923
0.986819
0.610727
0.599505
0.596642
0.597448
0.601603
0.609632
0.621073
0.630679
0.638894
0.646084
0.661259
0.694353
0.715059
0.72179
0.724255
0.714403
0.68251
0.638526
0.612042
0.59291
0.57684
0.562534
0.548428
0.537342
0.533882
0.532922
0.536682
0.552316
0.569123
0.604195
0.719329
0.873332
0.951379
0.595235
0.58629
0.57929
0.572533
0.570281
0.578194
0.594112
0.612683
0.628315
0.640013
0.649858
0.667222
0.701804
0.72695
0.737447
0.744007
0.738841
0.717883
0.674408
0.629527
0.602461
0.583003
0.566015
0.55735
0.555118
0.556476
0.563423
0.580018
0.593948
0.626226
0.727953
0.855518
0.926581
0.58885
0.579716
0.570927
0.560476
0.550288
0.550883
0.560082
0.580032
0.609443
0.630703
0.644865
0.657641
0.677747
0.713481
0.740835
0.753373
0.76097
0.758038
0.739737
0.708506
0.666871
0.632073
0.60533
0.596064
0.594063
0.595575
0.602233
0.614764
0.625735
0.652577
0.735007
0.840008
0.908676
0.597748
0.584531
0.566129
0.551757
0.540499
0.534726
0.539322
0.550383
0.573055
0.613339
0.637741
0.65378
0.668362
0.689599
0.724906
0.753314
0.766236
0.772918
0.770745
0.757186
0.732782
0.703118
0.672753
0.649587
0.643446
0.642334
0.645267
0.655078
0.663575
0.683664
0.74398
0.829359
0.894908
0.620581
0.585463
0.560246
0.543316
0.532105
0.527333
0.528092
0.535668
0.549615
0.579762
0.623593
0.648841
0.666121
0.681951
0.703242
0.736282
0.763596
0.775977
0.781498
0.780804
0.77165
0.75252
0.731419
0.707903
0.698999
0.697178
0.698298
0.705834
0.71259
0.72454
0.759237
0.822859
0.880582
0.625004
0.577462
0.551404
0.537337
0.526788
0.522765
0.523649
0.528602
0.538885
0.558943
0.598969
0.635375
0.658998
0.676585
0.693842
0.715017
0.747268
0.772896
0.784502
0.790099
0.790859
0.785265
0.770799
0.75349
0.747233
0.745782
0.746198
0.751139
0.75556
0.761793
0.779238
0.819917
0.861182
0.617999
0.568972
0.548136
0.536925
0.528954
0.525937
0.525193
0.528985
0.538904
0.559619
0.598652
0.633391
0.657082
0.67385
0.688424
0.705988
0.727541
0.759997
0.78304
0.793776
0.800072
0.802188
0.799328
0.788329
0.784896
0.784259
0.784787
0.788602
0.79157
0.794062
0.801741
0.822343
0.842153
0.61157
0.571703
0.559273
0.554297
0.551583
0.550452
0.546453
0.547252
0.554235
0.574194
0.606821
0.636579
0.657925
0.67387
0.687915
0.701563
0.718314
0.740156
0.772361
0.794648
0.805504
0.811664
0.814721
0.814238
0.814769
0.815464
0.817002
0.819909
0.820827
0.820369
0.821762
0.825936
0.828772
0.623095
0.598293
0.59206
0.591402
0.596055
0.601834
0.603751
0.600286
0.602642
0.61118
0.629555
0.647479
0.662846
0.676321
0.688968
0.701272
0.715663
0.73395
0.75858
0.790029
0.808433
0.819037
0.824972
0.82909
0.832668
0.836124
0.838168
0.840576
0.840027
0.839673
0.835938
0.832057
0.825463
0.669495
0.637637
0.622136
0.617985
0.618056
0.623964
0.628384
0.63248
0.633876
0.640129
0.649483
0.660178
0.670904
0.681802
0.691591
0.702816
0.715038
0.730252
0.749138
0.774359
0.801978
0.820454
0.832402
0.840108
0.846357
0.851421
0.854667
0.85654
0.855147
0.850992
0.844491
0.835226
0.825589
0.692401
0.670917
0.644997
0.632932
0.630101
0.631063
0.636256
0.641959
0.648525
0.652807
0.660272
0.668817
0.677344
0.686265
0.694838
0.705263
0.71741
0.731039
0.749102
0.770686
0.797783
0.819004
0.834453
0.845629
0.853649
0.858448
0.860675
0.857582
0.852356
0.845366
0.83628
0.824499
0.812182
0.703086
0.689094
0.676001
0.65804
0.643411
0.638033
0.639865
0.644295
0.651618
0.659105
0.664298
0.672022
0.680566
0.688667
0.697762
0.707864
0.719982
0.733205
0.747752
0.764582
0.784339
0.802248
0.817076
0.826863
0.834626
0.840075
0.843612
0.846267
0.840946
0.825854
0.802256
0.778607
0.752077
0.702202
0.697083
0.69103
0.68359
0.676728
0.662891
0.648923
0.645383
0.649402
0.656003
0.664444
0.672566
0.680332
0.689624
0.699038
0.708863
0.719911
0.732384
0.745665
0.760101
0.776502
0.794039
0.814495
0.834927
0.848738
0.856312
0.841343
0.800725
0.760242
0.746382
0.732122
0.720494
0.706753
0.657221
0.66768
0.680117
0.688686
0.692287
0.694939
0.691959
0.684614
0.668183
0.665043
0.670033
0.677192
0.684257
0.692608
0.702279
0.71374
0.72637
0.7436
0.760473
0.775494
0.789897
0.798376
0.801491
0.798069
0.745172
0.703562
0.704413
0.722979
0.751202
0.769176
0.78071
0.78557
0.771498
0.613101
0.610936
0.613103
0.626029
0.647249
0.671159
0.697503
0.720408
0.73381
0.740027
0.729904
0.719338
0.722027
0.726305
0.73081
0.737575
0.743527
0.74664
0.751019
0.744196
0.713747
0.698684
0.676536
0.671194
0.702756
0.761538
0.818836
0.853011
0.86181
0.85874
0.848
0.827898
0.794712
0.612513
0.607435
0.600558
0.596169
0.594679
0.593554
0.595045
0.59834
0.610169
0.632717
0.65538
0.669886
0.680153
0.689073
0.689622
0.688196
0.679687
0.667698
0.656306
0.654647
0.661327
0.696733
0.733046
0.808085
0.853391
0.87495
0.883555
0.887033
0.882074
0.871943
0.857526
0.832249
0.785698
0.629776
0.633823
0.633725
0.626285
0.620468
0.611036
0.601284
0.592364
0.584423
0.582805
0.586612
0.594726
0.604562
0.614645
0.623791
0.633276
0.643545
0.655636
0.668547
0.702518
0.744674
0.801357
0.846995
0.870347
0.884155
0.890292
0.891757
0.890505
0.884951
0.874539
0.858818
0.829358
0.776124
0.645787
0.673145
0.685258
0.688482
0.689073
0.68534
0.677237
0.668371
0.659646
0.649466
0.63797
0.633961
0.63626
0.641917
0.650085
0.665837
0.690338
0.722743
0.763345
0.799566
0.830142
0.851792
0.867583
0.879173
0.88532
0.88838
0.888648
0.885893
0.880624
0.868463
0.852851
0.824815
0.772295
0.638948
0.677693
0.697598
0.70311
0.704361
0.701461
0.692368
0.682142
0.674584
0.667621
0.667037
0.670382
0.675888
0.685832
0.702005
0.725317
0.754239
0.784126
0.808304
0.825696
0.839874
0.852319
0.862693
0.870901
0.876291
0.879345
0.87932
0.874302
0.864679
0.849478
0.836685
0.819529
0.776867
0.617362
0.651705
0.692546
0.706719
0.709616
0.708055
0.698705
0.685797
0.675531
0.669979
0.670925
0.674499
0.681738
0.693812
0.711367
0.733316
0.757084
0.780208
0.80031
0.814633
0.826355
0.837147
0.846406
0.854094
0.859215
0.861941
0.860247
0.85408
0.843338
0.82791
0.81706
0.809008
0.781117
0.597857
0.612723
0.651801
0.693576
0.705531
0.70677
0.698486
0.677574
0.659799
0.655512
0.656913
0.661458
0.669987
0.682169
0.696739
0.713391
0.733989
0.752004
0.771008
0.786389
0.79927
0.810377
0.82006
0.827737
0.833023
0.835951
0.834858
0.82929
0.818131
0.802703
0.795385
0.79222
0.776758
0.577644
0.588107
0.598387
0.627719
0.674467
0.689705
0.689939
0.674998
0.647622
0.632984
0.630193
0.631791
0.637786
0.648925
0.661024
0.670192
0.685161
0.69836
0.712859
0.730107
0.746699
0.761611
0.774046
0.78443
0.792338
0.797972
0.799453
0.796162
0.78622
0.77305
0.768152
0.777086
0.76561
0.576708
0.574291
0.57779
0.583385
0.595696
0.626083
0.655028
0.659113
0.649222
0.63006
0.612298
0.606341
0.605816
0.607107
0.609962
0.616272
0.624181
0.635228
0.646121
0.658975
0.674092
0.689706
0.704908
0.719768
0.733259
0.744059
0.751438
0.753727
0.748599
0.739938
0.739981
0.760564
0.753929
0.618485
0.589722
0.576512
0.572557
0.573064
0.576167
0.583089
0.599225
0.611659
0.612292
0.607792
0.596608
0.589402
0.584589
0.580814
0.579044
0.578703
0.581302
0.587261
0.595581
0.605012
0.616466
0.630452
0.648158
0.665778
0.683624
0.697779
0.70743
0.712149
0.710058
0.714286
0.746485
0.738791
0.663401
0.647602
0.618605
0.591011
0.576095
0.569416
0.566756
0.566022
0.566854
0.569462
0.571404
0.571471
0.570741
0.569503
0.56765
0.56454
0.560512
0.558245
0.557884
0.558682
0.5611
0.565561
0.573372
0.58637
0.60274
0.622091
0.644095
0.664276
0.675736
0.681941
0.692774
0.734412
0.723774
0.677798
0.672559
0.663964
0.647414
0.618878
0.591856
0.57463
0.564968
0.559445
0.555843
0.553258
0.550853
0.548531
0.54738
0.54686
0.546532
0.546105
0.545083
0.543502
0.542343
0.543468
0.546498
0.551685
0.560264
0.572516
0.588362
0.607237
0.628086
0.64547
0.656543
0.673508
0.723433
0.712372
0.702793
0.683992
0.67657
0.671315
0.662672
0.645035
0.616705
0.590572
0.572116
0.559856
0.5519
0.546386
0.542176
0.538896
0.536155
0.533499
0.531642
0.531122
0.531485
0.532607
0.534391
0.537288
0.54204
0.549167
0.559511
0.573316
0.590273
0.60943
0.627002
0.639351
0.65776
0.714537
0.705077
0.749989
0.720538
0.692787
0.679796
0.674219
0.669083
0.65927
0.639095
0.611478
0.586964
0.567864
0.554114
0.544516
0.537708
0.53279
0.529254
0.526662
0.525622
0.525761
0.526858
0.52906
0.532973
0.5385
0.54525
0.554668
0.566871
0.581786
0.598707
0.615036
0.627364
0.644067
0.704353
0.70385
0.687087
0.694835
0.704087
0.710245
0.708373
0.701407
0.681299
0.638289
0.681329
0.68921
0.698006
0.701328
0.697711
0.6881
0.659159
0.620758
0.674857
0.680931
0.688438
0.689219
0.684476
0.668895
0.634038
0.606273
0.670414
0.674881
0.677642
0.675075
0.666092
0.641512
0.6126
0.595575
0.667005
0.668076
0.665274
0.656364
0.640521
0.61542
0.597174
0.588319
0.661416
0.656547
0.64592
0.631871
0.614064
0.596671
0.587435
0.584146
0.64857
0.635053
0.620895
0.607332
0.593678
0.585627
0.582823
0.582789
0.623856
0.610373
0.59918
0.59004
0.584071
0.582183
0.582353
0.584651
0.604841
0.595372
0.58862
0.584542
0.58293
0.583053
0.586207
0.596843
0.598276
0.591738
0.587701
0.586002
0.587209
0.593759
0.611388
0.639532
0.599236
0.595469
0.595632
0.601638
0.617517
0.641277
0.666848
0.688505
0.616287
0.624014
0.639738
0.659165
0.678027
0.694732
0.707094
0.712256