/*--------------------------------*- C++ -*----------------------------------*\
  =========                 |
  \\      /  F ield         | OpenFOAM: The Open Source CFD Toolbox
   \\    /   O peration     | Website:  https://openfoam.org
    \\  /    A nd           | Version:  10
     \\/     M anipulation  |
\*---------------------------------------------------------------------------*/
FoamFile
{
    format      ascii;
    class       volScalarField;
    location    "0.0977888";
    object      T;
}
// * * * * * * * * * * * * * * * * * * * * * * * * * * * * * * * * * * * * * //

dimensions      [0 0 0 1 0 0 0];

internalField   nonuniform List<scalar> 
15708
(
0.00870218
0.00870375
0.00870497
0.00870592
0.00870663
0.00870711
0.0087074
0.00870755
0.00870759
0.00870757
0.00870753
0.00870747
0.00870758
0.0087077
0.00870804
0.00870855
0.00870934
0.00871038
0.00871177
0.00871348
0.00871551
0.00871788
0.00872058
0.00872362
0.00872702
0.00873077
0.00873493
0.00873951
0.00874458
0.00875015
0.00875626
0.00876288
0.00876994
0.0087773
0.0087848
0.00879212
0.00879911
0.00880528
0.0088105
0.00881449
0.00881707
0.00881805
0.00881751
0.008816
0.00881298
0.00880869
0.00880307
0.00879716
0.00879041
0.00878354
0.0087765
0.00870731
0.00870851
0.00870934
0.00870986
0.00871005
0.00871005
0.00870992
0.00870956
0.00870912
0.00870868
0.00870823
0.00870795
0.00870778
0.00870788
0.00870816
0.00870868
0.00870977
0.00871109
0.00871291
0.0087151
0.00871766
0.00872055
0.00872374
0.00872718
0.00873082
0.00873463
0.00873858
0.00874268
0.00874692
0.00875134
0.00875594
0.00876075
0.00876574
0.00877086
0.00877601
0.00878104
0.00878588
0.00879022
0.0087939
0.00879674
0.00879862
0.00879934
0.00879897
0.00879783
0.00879565
0.0087924
0.00878848
0.00878382
0.00877906
0.00877397
0.00876888
0.00871186
0.00871276
0.00871318
0.00871314
0.00871313
0.00871253
0.00871185
0.00871103
0.00871016
0.00870929
0.00870855
0.00870801
0.0087077
0.00870778
0.00870814
0.00870889
0.00871031
0.0087121
0.00871453
0.00871739
0.00872065
0.00872425
0.0087281
0.00873209
0.00873615
0.00874016
0.00874411
0.00874785
0.00875148
0.00875495
0.00875829
0.00876153
0.0087647
0.0087678
0.00877079
0.00877371
0.00877635
0.00877869
0.00878066
0.00878208
0.00878291
0.00878294
0.00878246
0.00878132
0.00877952
0.00877716
0.00877438
0.00877122
0.00876799
0.00876477
0.00876161
0.00871593
0.00871647
0.00871633
0.00871628
0.00871537
0.0087144
0.00871322
0.00871193
0.00871066
0.00870938
0.00870843
0.00870769
0.00870731
0.00870754
0.00870804
0.00870919
0.00871116
0.0087136
0.00871683
0.00872054
0.00872469
0.00872916
0.00873379
0.00873845
0.008743
0.0087473
0.0087512
0.00875473
0.00875781
0.00876043
0.00876265
0.00876446
0.00876603
0.00876721
0.00876816
0.00876907
0.00876974
0.00877014
0.00877024
0.0087702
0.00876976
0.00876902
0.00876797
0.00876664
0.00876506
0.0087633
0.00876145
0.00875966
0.00875796
0.00875649
0.00875525
0.00871946
0.00871945
0.00871902
0.00871847
0.00871706
0.00871556
0.00871389
0.00871215
0.00871049
0.00870892
0.00870779
0.00870697
0.00870675
0.00870707
0.00870805
0.00870981
0.00871248
0.00871583
0.00872003
0.00872479
0.00872999
0.00873543
0.00874092
0.00874626
0.00875131
0.00875577
0.00875967
0.00876288
0.00876537
0.00876716
0.00876828
0.00876875
0.00876869
0.00876822
0.00876751
0.00876642
0.00876515
0.00876373
0.0087622
0.00876063
0.00875889
0.00875723
0.0087556
0.008754
0.00875255
0.00875129
0.00875037
0.00874962
0.00874963
0.00874979
0.00875033
0.00872201
0.008722
0.00872084
0.00871959
0.00871783
0.00871583
0.0087137
0.00871159
0.00870956
0.00870786
0.00870664
0.00870591
0.00870601
0.00870664
0.00870827
0.00871095
0.00871446
0.00871909
0.00872443
0.00873039
0.00873671
0.00874316
0.00874947
0.00875544
0.00876078
0.00876531
0.00876901
0.00877175
0.00877353
0.00877437
0.00877422
0.00877359
0.00877199
0.00877003
0.00876755
0.00876478
0.00876181
0.00875877
0.00875569
0.00875282
0.00874977
0.00874745
0.00874522
0.00874341
0.00874212
0.00874141
0.00874141
0.00874188
0.00874342
0.00874474
0.00874755
0.00872384
0.00872321
0.00872159
0.0087197
0.00871745
0.008715
0.00871246
0.00871008
0.00870777
0.00870615
0.00870498
0.00870465
0.00870513
0.00870644
0.00870893
0.00871291
0.00871747
0.00872357
0.00873026
0.00873749
0.00874494
0.00875232
0.0087593
0.00876568
0.00877102
0.00877538
0.00877859
0.00878062
0.00878144
0.00878115
0.00878001
0.00877782
0.00877511
0.00877145
0.00876749
0.00876326
0.00875885
0.00875442
0.00875008
0.00874605
0.00874228
0.00873921
0.00873662
0.00873481
0.00873383
0.00873397
0.00873468
0.00873656
0.00873965
0.0087426
0.00874708
0.00872411
0.00872319
0.00872077
0.00871838
0.00871567
0.00871284
0.00871
0.00870751
0.00870512
0.00870375
0.00870291
0.00870329
0.00870419
0.00870675
0.00871043
0.00871599
0.00872193
0.00872959
0.0087377
0.00874619
0.00875466
0.00876274
0.0087701
0.00877646
0.0087815
0.00878527
0.00878766
0.00878862
0.00878823
0.00878707
0.00878436
0.00878103
0.0087765
0.00877176
0.00876658
0.00876108
0.00875545
0.00874994
0.00874471
0.00873976
0.00873557
0.00873217
0.00872959
0.00872807
0.00872793
0.00872861
0.00873068
0.0087342
0.00873868
0.00874348
0.00874923
0.00872272
0.008721
0.0087183
0.00871538
0.00871227
0.00870917
0.00870623
0.00870373
0.00870164
0.00870069
0.00870077
0.00870151
0.00870412
0.00870772
0.00871324
0.00872041
0.00872806
0.00873727
0.00874686
0.00875648
0.00876567
0.00877404
0.00878139
0.00878715
0.00879146
0.00879418
0.00879538
0.00879484
0.00879353
0.00879063
0.00878657
0.0087818
0.00877618
0.00877027
0.00876394
0.00875747
0.00875106
0.00874474
0.00873909
0.00873353
0.00872947
0.00872613
0.00872397
0.00872337
0.00872412
0.00872606
0.0087296
0.00873496
0.00874048
0.00874737
0.00875421
0.00871893
0.00871713
0.00871357
0.00871032
0.00870701
0.00870381
0.00870106
0.00869874
0.00869738
0.0086974
0.00869824
0.00870043
0.00870425
0.00871029
0.00871752
0.00872673
0.00873631
0.008747
0.00875777
0.00876813
0.00877759
0.00878575
0.00879238
0.00879708
0.00880007
0.00880132
0.00880081
0.00879902
0.00879607
0.00879105
0.00878641
0.0087797
0.00877328
0.00876632
0.00875923
0.00875204
0.00874516
0.00873848
0.00873282
0.00872717
0.00872369
0.008721
0.00871975
0.00872073
0.00872236
0.00872602
0.00873196
0.00873918
0.00874568
0.00875418
0.00876182
0.00871272
0.00871051
0.00870667
0.00870315
0.00869983
0.00869675
0.00869455
0.00869266
0.00869271
0.00869386
0.00869578
0.00869985
0.00870647
0.00871393
0.00872439
0.00873466
0.00874674
0.0087587
0.00877028
0.00878083
0.00878988
0.00879718
0.00880236
0.00880544
0.00880659
0.0088056
0.00880376
0.00880002
0.00879514
0.00878875
0.00878229
0.00877483
0.00876741
0.00875972
0.0087521
0.00874465
0.00873761
0.00873101
0.00872565
0.00872073
0.00871818
0.0087167
0.00871762
0.00871921
0.00872352
0.00873017
0.00873633
0.00874698
0.0087544
0.00876373
0.00877163
0.0087044
0.00870127
0.00869749
0.00869386
0.00869074
0.0086881
0.00868672
0.0086861
0.00868746
0.00868979
0.00869454
0.00870114
0.00870936
0.00872055
0.00873324
0.00874539
0.00875915
0.00877211
0.00878391
0.00879396
0.00880188
0.00880756
0.00881065
0.00881143
0.00881009
0.00880761
0.00880328
0.00879727
0.00879027
0.00878372
0.00877444
0.00876673
0.00875866
0.00875049
0.00874251
0.0087351
0.00872829
0.00872249
0.0087176
0.00871428
0.00871307
0.00871418
0.00871565
0.00872128
0.0087274
0.00873593
0.00874598
0.00875754
0.00876618
0.00877564
0.0087831
0.00869347
0.0086896
0.0086859
0.00868254
0.0086799
0.00867817
0.00867783
0.00867942
0.00868136
0.00868751
0.00869399
0.00870357
0.00871592
0.00872883
0.00874473
0.00875878
0.00877356
0.00878687
0.00879813
0.00880689
0.0088129
0.0088162
0.0088163
0.0088153
0.00881063
0.00880606
0.00879863
0.00879134
0.00878227
0.00877405
0.00876436
0.00875588
0.00874689
0.00873851
0.00873076
0.00872386
0.00871752
0.00871312
0.00870902
0.00870817
0.00870942
0.00871114
0.00871773
0.00872435
0.00873459
0.00874616
0.0087583
0.00877073
0.00878071
0.00878933
0.00879543
0.00868022
0.00867581
0.00867229
0.00866954
0.00866763
0.00866757
0.00866887
0.00867124
0.00867764
0.00868476
0.00869611
0.00870888
0.00872401
0.00874036
0.00875897
0.00877416
0.00878951
0.00880241
0.0088123
0.0088189
0.0088224
0.00882194
0.00882049
0.00881454
0.0088095
0.00879983
0.00879168
0.00878133
0.00877265
0.00876018
0.0087521
0.0087418
0.0087329
0.00872471
0.00871724
0.00871124
0.00870574
0.00870318
0.00870089
0.00870247
0.00870512
0.00871252
0.00871963
0.00873208
0.00874494
0.00875892
0.00877395
0.00878626
0.00879655
0.00880389
0.00880789
0.0086649
0.00866042
0.00865725
0.00865536
0.00865492
0.00865628
0.00865872
0.00866573
0.00867271
0.00868613
0.00869953
0.00871653
0.00873576
0.0087552
0.00877474
0.00879153
0.00880639
0.00881793
0.00882559
0.00882944
0.0088289
0.00882692
0.00881984
0.00881354
0.00880228
0.00879258
0.00878128
0.00876924
0.00875777
0.00874738
0.00873532
0.00872632
0.00871748
0.00870954
0.00870269
0.00869774
0.00869375
0.00869311
0.00869378
0.00869659
0.00870492
0.00871217
0.00872725
0.00874158
0.00875765
0.00877463
0.00879174
0.00880363
0.00881294
0.00881831
0.00881874
0.00864843
0.00864388
0.00864137
0.00864085
0.00864198
0.00864422
0.00865147
0.00865862
0.00867298
0.00868698
0.00870719
0.0087276
0.00874907
0.00877246
0.00879255
0.00880978
0.00882337
0.00883265
0.00883749
0.00883716
0.00883497
0.00882717
0.00881892
0.0088067
0.00879487
0.00878206
0.00876819
0.00875507
0.00874225
0.00873046
0.00872004
0.00870954
0.00870085
0.00869353
0.00868805
0.00868406
0.00868262
0.00868389
0.00868588
0.00869418
0.00870308
0.0087192
0.00873497
0.00875307
0.00877519
0.00879179
0.0088099
0.00882139
0.0088289
0.00883093
0.00882967
0.00863141
0.00862705
0.00862561
0.00862655
0.00862856
0.00863503
0.00864232
0.008657
0.00867187
0.00869418
0.00871546
0.00874153
0.00876608
0.0087912
0.00881136
0.00882782
0.00883935
0.00884581
0.00884649
0.00884449
0.00883622
0.00882703
0.00881363
0.00879958
0.00878565
0.00876862
0.00875447
0.00873944
0.00872718
0.00871374
0.00870188
0.0086928
0.00868492
0.00867789
0.00867379
0.00867122
0.00867244
0.00867442
0.0086812
0.00869149
0.00870788
0.00872438
0.00874563
0.00877029
0.00878896
0.00881231
0.00882763
0.00883844
0.00884286
0.00884213
0.00883653
0.00861437
0.00861052
0.00861089
0.00861215
0.00861813
0.00862432
0.00864004
0.00865333
0.00867824
0.00869901
0.00873076
0.00875579
0.0087858
0.00880935
0.00883056
0.00884479
0.00885363
0.00885622
0.00885483
0.00884728
0.00883701
0.00882454
0.00880669
0.00879172
0.00877272
0.00875639
0.00874028
0.0087245
0.00870998
0.00869779
0.00868679
0.00867669
0.00866917
0.00866319
0.00866067
0.0086603
0.00866262
0.00866824
0.00867685
0.00869394
0.00870941
0.00873569
0.00876006
0.00878292
0.00880953
0.00882943
0.00884503
0.00885256
0.00885409
0.00885103
0.00884281
0.00860015
0.00859634
0.00859667
0.0086016
0.00860685
0.00862108
0.00863367
0.00865846
0.00868095
0.00871432
0.0087414
0.00877602
0.00880323
0.00882828
0.0088479
0.00885978
0.00886508
0.00886462
0.00885906
0.00884931
0.0088366
0.00881763
0.00880052
0.00878082
0.0087625
0.0087438
0.00872573
0.00871059
0.00869528
0.0086831
0.00867132
0.00866286
0.00865594
0.00865107
0.00864989
0.00865007
0.00865687
0.00866166
0.00867819
0.00869285
0.0087199
0.00874523
0.00877183
0.00880273
0.00882371
0.00884657
0.00885863
0.00886436
0.00886308
0.008857
0.00884322
0.00858522
0.00858331
0.00858586
0.00858988
0.00860198
0.00861323
0.00863864
0.00865875
0.00869537
0.00872059
0.00876342
0.00878976
0.00882292
0.00884636
0.00886216
0.0088714
0.00887334
0.00887049
0.00886175
0.00884994
0.00883044
0.00881424
0.00879178
0.00877237
0.00875097
0.00873238
0.00871403
0.00869754
0.00868274
0.00867119
0.00865929
0.00865121
0.0086445
0.00864069
0.00864085
0.0086424
0.00865145
0.00865803
0.00867733
0.00870123
0.00872567
0.00875644
0.00878751
0.00881619
0.00883845
0.00885943
0.00887012
0.00887125
0.00886853
0.00885785
0.00884458
0.00857708
0.00857504
0.00857627
0.00858561
0.00859598
0.00861585
0.00863629
0.00867186
0.00869917
0.00874286
0.00877355
0.00881039
0.00883793
0.00886059
0.00887366
0.00887955
0.00887902
0.00887315
0.00886344
0.00884458
0.00882885
0.00880624
0.00878551
0.00876351
0.00874255
0.00872241
0.00870498
0.00868711
0.00867329
0.00866207
0.0086495
0.00864196
0.00863522
0.00863337
0.00863427
0.00863558
0.00864912
0.00865709
0.00868198
0.0087008
0.00873783
0.00876828
0.00879875
0.00882743
0.00885121
0.00886897
0.00887589
0.00887531
0.0088699
0.00885846
0.0088397
0.00856905
0.00856784
0.0085704
0.00857822
0.00859711
0.0086138
0.00864702
0.00867386
0.00871949
0.00874852
0.00879468
0.00882126
0.00885156
0.00887201
0.00888156
0.00888451
0.00888215
0.00887303
0.00885982
0.0088441
0.00882218
0.00880202
0.00877803
0.00875784
0.0087341
0.00871685
0.00869598
0.00868167
0.00866688
0.00865486
0.00864357
0.00863595
0.00862959
0.00862817
0.00862793
0.00863206
0.00864494
0.00865674
0.0086794
0.00871215
0.00874477
0.00877439
0.00880916
0.00883928
0.00885555
0.00887209
0.00887944
0.00887669
0.00886843
0.00885283
0.00883672
0.00856617
0.00856573
0.00856775
0.00858107
0.00859244
0.00862324
0.00864701
0.00869135
0.0087226
0.00876956
0.00880132
0.00883648
0.00886074
0.00887776
0.00888597
0.00888582
0.00888166
0.00887111
0.00885822
0.0088373
0.00882005
0.00879616
0.00877403
0.00875215
0.00872898
0.0087151
0.0086883
0.00868241
0.00865921
0.0086517
0.00864204
0.00863171
0.00862518
0.00862362
0.00862355
0.00862895
0.00864272
0.00865193
0.00868446
0.00871794
0.00874327
0.00878538
0.00881396
0.00884001
0.00886039
0.00887529
0.00887614
0.0088727
0.00886367
0.00884984
0.00882963
0.00856285
0.00856245
0.00856434
0.00857788
0.0085998
0.0086166
0.00866376
0.00869094
0.00874095
0.00877248
0.00881556
0.0088401
0.00886591
0.00888195
0.00888595
0.00888545
0.00887972
0.0088677
0.00885323
0.00883517
0.00881468
0.00879314
0.00877031
0.00875216
0.00872249
0.00871957
0.00868237
0.00868174
0.00865556
0.00865562
0.00863735
0.00862515
0.00862408
0.00862097
0.00861758
0.00862411
0.00862988
0.00865646
0.00868769
0.00870538
0.00875925
0.00877559
0.00881667
0.00884093
0.00885686
0.00886997
0.00887285
0.00886882
0.00885756
0.00884144
0.00882438
0.00856421
0.00856493
0.00856273
0.00858743
0.00858559
0.008641
0.0086486
0.008715
0.0087337
0.00878941
0.00881481
0.00884699
0.00886752
0.00887919
0.00888451
0.00888219
0.00887533
0.00886423
0.00884898
0.00883157
0.00881171
0.0087916
0.00876877
0.00875285
0.0087216
0.00872079
0.00868482
0.00868458
0.00865341
0.00865046
0.00862793
0.00862283
0.00861112
0.00859404
0.00855745
0.00856154
0.00857213
0.00861699
0.00867418
0.00871264
0.00874481
0.00878048
0.00881088
0.00883351
0.00885204
0.00886254
0.00886342
0.00886017
0.00885194
0.00883649
0.00881849
0.00856574
0.00856057
0.00856594
0.00857376
0.00860332
0.00861344
0.00868043
0.00868484
0.00875922
0.0087732
0.00882432
0.00884141
0.00886498
0.00887776
0.00887888
0.00887699
0.0088715
0.00885957
0.00884601
0.00882926
0.00881106
0.00879097
0.00877118
0.00875317
0.00872678
0.00872259
0.00868548
0.00868575
0.00865812
0.00864568
0.00858714
0.00859667
0.00848371
0.00845996
0.00811642
0.00807009
0.00813374
0.00833503
0.00853808
0.008667
0.00872559
0.00877218
0.00880085
0.00882583
0.00884039
0.00885504
0.00885581
0.00885221
0.00884138
0.00882867
0.00881357
0.00854631
0.00851008
0.00851356
0.00853961
0.00857183
0.00863442
0.00864617
0.00871873
0.0087239
0.0087941
0.00880599
0.00884008
0.00886085
0.00887116
0.00887522
0.00887329
0.00886637
0.00885634
0.00884353
0.00882715
0.00881211
0.00879258
0.00877407
0.00875398
0.00874059
0.00871273
0.00869715
0.00868794
0.00863823
0.00862416
0.00842613
0.00842994
0.00794645
0.00732972
0.00638717
0.00619964
0.00630432
0.00697356
0.00788137
0.00839645
0.00862018
0.008723
0.00876825
0.00880517
0.00882596
0.00884489
0.00884924
0.00884723
0.00883997
0.00882576
0.00880913
0.00835401
0.00810238
0.00807968
0.0081605
0.00836311
0.00852652
0.00863373
0.00867891
0.00874152
0.00875751
0.00881425
0.00882436
0.00885256
0.00886434
0.00886758
0.00886742
0.00886477
0.00885488
0.00884231
0.00882954
0.0088131
0.00879684
0.00877804
0.00875878
0.00874547
0.00871371
0.00870533
0.00862367
0.00856386
0.00843399
0.00786984
0.00735121
0.00633495
0.00499908
0.00467898
0.00468113
0.00494522
0.00528636
0.00657743
0.00776965
0.00842991
0.00867999
0.00876421
0.00879654
0.0088089
0.00882795
0.00883499
0.00883499
0.00883168
0.00882283
0.00880895
0.0071209
0.00632848
0.00626907
0.00648329
0.00713199
0.00796764
0.00839798
0.00860448
0.00869995
0.00874915
0.00878752
0.00881577
0.00884335
0.00885774
0.008864
0.00886337
0.00886021
0.00885274
0.00884358
0.00883088
0.00881763
0.00880056
0.00878427
0.00876444
0.00874481
0.00871818
0.0086668
0.00834439
0.00820218
0.00766684
0.00607266
0.00507202
0.00462669
0.0043612
0.00437224
0.00442898
0.00452003
0.00490641
0.00577212
0.00722365
0.00812642
0.0085494
0.0087284
0.00878779
0.00881022
0.00882775
0.00883404
0.00883376
0.00882909
0.00882025
0.00880638
0.00484185
0.00466194
0.00471894
0.00498577
0.00557306
0.00679782
0.00788884
0.00842416
0.00864492
0.00873901
0.00879266
0.00880104
0.00882838
0.00884765
0.00885664
0.0088617
0.0088618
0.00885659
0.00884643
0.00883475
0.00882287
0.00880383
0.00879308
0.00876474
0.00874214
0.00866124
0.00835205
0.00744703
0.00695318
0.00568573
0.00439137
0.00434471
0.00433922
0.00434723
0.00435094
0.00437341
0.0044245
0.00455453
0.00494894
0.00615538
0.00760393
0.00836363
0.00864952
0.00876536
0.00880615
0.00882806
0.00883081
0.00882962
0.00882759
0.00882095
0.00880797
0.00433218
0.00435136
0.00441087
0.00452556
0.00478837
0.00536693
0.00656852
0.00783042
0.00842728
0.00867339
0.0087778
0.0088094
0.00883407
0.00885084
0.00885948
0.00886271
0.00886265
0.00885871
0.0088501
0.00883778
0.00882944
0.00881168
0.0087976
0.00874619
0.00867751
0.00826918
0.00678495
0.00551559
0.00486817
0.00435731
0.0043466
0.00433412
0.00434011
0.00434578
0.00434679
0.00436039
0.00438628
0.00443685
0.00458843
0.00505385
0.00612399
0.00757042
0.00842395
0.00869389
0.00878277
0.00881982
0.00883125
0.00883114
0.00882705
0.00882106
0.00880774
0.00431357
0.00431757
0.00433654
0.00436847
0.00445027
0.00465969
0.00518551
0.00649341
0.00785428
0.00847302
0.00870961
0.00879764
0.00883382
0.00885372
0.008858
0.00886322
0.00886425
0.00886191
0.00885386
0.0088429
0.00883423
0.00881928
0.00877632
0.00862129
0.00831545
0.00643091
0.00469055
0.00445006
0.00439128
0.0043432
0.00433892
0.00433846
0.00434887
0.00435229
0.00436186
0.0043648
0.00437835
0.00440644
0.00445966
0.00463785
0.00509962
0.00615232
0.00784747
0.00858335
0.00872242
0.00878356
0.00882327
0.00882372
0.00882184
0.00881654
0.00880423
0.00431224
0.0043131
0.00432629
0.0043478
0.00438353
0.00446015
0.00468394
0.00523872
0.00639293
0.00773475
0.00854179
0.00874556
0.00882106
0.00885225
0.0088598
0.00886418
0.00886626
0.00886474
0.00885602
0.00884746
0.00884016
0.00879952
0.00857208
0.00804694
0.00602993
0.00455187
0.00440099
0.00436685
0.00434076
0.00433511
0.00433647
0.0043406
0.00435434
0.00436031
0.00437071
0.00437636
0.00438607
0.00439856
0.00442755
0.00449842
0.00470749
0.00521112
0.00635553
0.00799618
0.00861305
0.00874318
0.00879735
0.00880998
0.00881275
0.00880838
0.00879381
0.00431746
0.00432351
0.00433562
0.00434661
0.00437183
0.00440941
0.00450434
0.00475628
0.00532762
0.00654363
0.00811966
0.00865747
0.00877823
0.00884118
0.00885636
0.00886088
0.00886267
0.00886183
0.00885332
0.00885252
0.00883366
0.00849542
0.00713466
0.0052677
0.00455132
0.00439557
0.00435423
0.00434106
0.0043341
0.00433169
0.00434053
0.00434497
0.00435973
0.00436946
0.00438173
0.00438842
0.00439637
0.00440262
0.00441627
0.00445211
0.00455327
0.00480869
0.00538593
0.00652719
0.00797967
0.00865464
0.00867691
0.00872949
0.008771
0.00877612
0.00874698
0.00432319
0.00433355
0.00434705
0.00435895
0.00437423
0.00439583
0.0044409
0.00455812
0.00484567
0.00550333
0.0068418
0.00828695
0.00867052
0.00881017
0.00883039
0.0088424
0.00884496
0.00884748
0.00883874
0.00867457
0.00728555
0.00541186
0.00479668
0.00459492
0.00439192
0.00435655
0.00434101
0.00433453
0.00433058
0.00433429
0.00434217
0.0043518
0.00436556
0.00437928
0.00439132
0.00440003
0.00440431
0.00440571
0.00440503
0.00441386
0.00444826
0.00455582
0.00481047
0.00537926
0.00644747
0.00768383
0.00843388
0.00836607
0.00804942
0.00690499
0.00608067
0.00433088
0.00434608
0.00435941
0.00437166
0.00438313
0.00439347
0.00441222
0.0044643
0.00458668
0.0048981
0.00557568
0.00678701
0.00827523
0.00834982
0.00861286
0.00861681
0.00871822
0.00874102
0.00844684
0.00696927
0.00514898
0.00458724
0.00451416
0.00439329
0.0043776
0.00434468
0.00433737
0.00433259
0.0043338
0.00433568
0.00434678
0.004359
0.00437201
0.00438786
0.00439964
0.00440754
0.00441087
0.0044108
0.00440171
0.00439829
0.00440005
0.00442663
0.00450644
0.00467438
0.0050157
0.00555194
0.0058551
0.00578605
0.0053469
0.00498029
0.00474451
0.00434082
0.00435877
0.00437231
0.00438226
0.00439036
0.00439173
0.00439497
0.00440124
0.00442208
0.00447086
0.00459109
0.00488955
0.0054776
0.00625461
0.00690239
0.00767183
0.0078707
0.00766321
0.00639543
0.00479127
0.00464325
0.00442966
0.00442673
0.00436176
0.00435936
0.00434388
0.00433874
0.00433299
0.00433807
0.00433984
0.00435264
0.0043656
0.00437978
0.00439439
0.00440535
0.00441181
0.00441358
0.00441065
0.00439924
0.00438389
0.00437373
0.00437147
0.0043777
0.0044034
0.00445189
0.00453354
0.00458053
0.00458256
0.0045292
0.0044801
0.00443051
0.00435305
0.00436978
0.00438387
0.00439567
0.00440176
0.00440384
0.00440275
0.00440307
0.00440651
0.00441928
0.00445004
0.00451387
0.00465994
0.00490318
0.00521072
0.00539599
0.00548072
0.0052548
0.00478891
0.00455363
0.00440832
0.00440847
0.00437882
0.00436246
0.00435248
0.00434494
0.00433875
0.00434057
0.00433916
0.00434826
0.00435844
0.00437321
0.00438532
0.00439852
0.00440771
0.00441064
0.00441036
0.00440341
0.00439107
0.00437267
0.00436259
0.00435274
0.00435093
0.00435364
0.00435804
0.00436563
0.00437369
0.00437588
0.00437305
0.00436558
0.00436223
0.00436393
0.00437968
0.00439384
0.00440229
0.00440665
0.00440645
0.00440343
0.00439925
0.00439841
0.0043987
0.00440625
0.00441957
0.00444787
0.00450183
0.00457232
0.00460072
0.00461594
0.00456399
0.00446318
0.00441817
0.00438667
0.00438924
0.0043722
0.00436116
0.00435134
0.00434753
0.00434175
0.00434634
0.00434657
0.00435623
0.00436614
0.00437951
0.00438935
0.00439948
0.00440434
0.00440498
0.00439971
0.00438861
0.0043739
0.00435644
0.00434393
0.00433503
0.00433196
0.00433174
0.00433122
0.00433069
0.00433377
0.00433535
0.00433492
0.00433427
0.00433331
0.00437311
0.00438697
0.00439824
0.00440396
0.00440747
0.00440602
0.00440173
0.00439743
0.00439568
0.00439535
0.0043972
0.00440222
0.00440854
0.00442104
0.00443299
0.0044383
0.00443818
0.00442613
0.00440485
0.00439277
0.00438388
0.00438104
0.00436997
0.00436086
0.00435542
0.00435156
0.00434937
0.00435338
0.00435691
0.00436498
0.00437404
0.00438396
0.00439044
0.00439608
0.00439638
0.00439131
0.00438119
0.00436768
0.00435011
0.00433477
0.00432121
0.00431423
0.00431073
0.00431046
0.00431036
0.00430938
0.00431067
0.00431311
0.00431385
0.00431422
0.00431511
0.00437932
0.00439089
0.00439762
0.00440209
0.00440287
0.00439935
0.00439418
0.00439122
0.00438935
0.00438915
0.00439112
0.00439508
0.00439764
0.00440249
0.00440636
0.0044079
0.00440691
0.00440182
0.0043941
0.00438752
0.00438255
0.00437758
0.00437038
0.00436362
0.00436093
0.00435972
0.00435915
0.00436355
0.00436784
0.00437391
0.00438049
0.00438617
0.00438808
0.00438823
0.00438286
0.00437219
0.00435731
0.00434084
0.00432206
0.00430887
0.00429688
0.00429135
0.00428855
0.0042882
0.00428871
0.00428893
0.00428884
0.00429251
0.00429464
0.00429585
0.00429912
0.00438274
0.00438988
0.00439293
0.00439419
0.00439273
0.00438822
0.00438362
0.00438128
0.00438069
0.0043811
0.00438399
0.00438784
0.00439039
0.00439395
0.00439666
0.0043977
0.00439687
0.0043939
0.00438959
0.00438511
0.00438147
0.00437801
0.00437275
0.00437024
0.00437007
0.00436899
0.00437178
0.00437462
0.00437842
0.00438167
0.00438445
0.004385
0.00438219
0.00437542
0.00436389
0.00434811
0.00432956
0.00431024
0.0042951
0.0042808
0.0042727
0.00426719
0.00426633
0.00426554
0.00426714
0.00426863
0.00426961
0.00427193
0.00427723
0.00427987
0.00428524
0.00438283
0.00438422
0.0043851
0.00438284
0.00437835
0.00437485
0.00437075
0.00437012
0.00436996
0.00437215
0.00437577
0.0043799
0.00438303
0.00438629
0.00438964
0.00439125
0.00439109
0.00438949
0.00438742
0.00438469
0.00438284
0.00438087
0.0043794
0.00437947
0.00438006
0.00438076
0.00438382
0.00438563
0.00438713
0.0043872
0.00438505
0.00438071
0.00437102
0.00435801
0.00434091
0.00432111
0.00430037
0.00428127
0.00426642
0.00425478
0.00424867
0.00424452
0.00424409
0.00424454
0.00424647
0.00424911
0.004252
0.00425347
0.00426006
0.00426739
0.00427335
0.00437859
0.0043767
0.00437341
0.00436933
0.00436323
0.00436058
0.00435835
0.00435813
0.00435968
0.00436322
0.00436754
0.00437239
0.00437612
0.00437978
0.00438366
0.00438622
0.00438712
0.00438727
0.00438734
0.00438676
0.00438706
0.00438754
0.00438732
0.00439003
0.00439105
0.00439294
0.00439408
0.00439436
0.00439277
0.00438877
0.00438204
0.00437114
0.00435589
0.00433719
0.00431585
0.00429355
0.00427241
0.00425393
0.00424031
0.004231
0.00422676
0.00422422
0.00422351
0.004225
0.00422753
0.00423068
0.00423467
0.00423844
0.00424383
0.00425607
0.00426349
0.00437233
0.00436678
0.00436089
0.00435534
0.00435045
0.00434793
0.00434653
0.00434806
0.00435084
0.00435541
0.00436049
0.00436608
0.00437046
0.00437494
0.00437943
0.00438339
0.00438549
0.00438759
0.00438937
0.00439099
0.00439338
0.00439522
0.0043966
0.00440115
0.00440056
0.00440234
0.00440215
0.00439941
0.00439432
0.00438603
0.0043738
0.00435761
0.00433727
0.00431457
0.00429067
0.0042676
0.00424703
0.00423006
0.00421804
0.00421038
0.00420751
0.00420572
0.00420543
0.00420733
0.00421
0.00421395
0.00421884
0.00422452
0.00422838
0.00424296
0.00425558
0.00436451
0.00435672
0.00434945
0.00434376
0.00433975
0.00433827
0.00433773
0.0043405
0.0043443
0.00434958
0.00435533
0.00436151
0.00436666
0.00437197
0.00437749
0.00438239
0.00438586
0.00438992
0.00439309
0.00439651
0.00440018
0.00440333
0.00440545
0.00440807
0.00440867
0.00440857
0.00440538
0.00439987
0.00439094
0.00437802
0.00436094
0.00434062
0.00431678
0.00429191
0.00426712
0.00424452
0.00422536
0.00421031
0.00419908
0.00419288
0.00419039
0.00418908
0.00418907
0.00419128
0.00419415
0.00419796
0.00420252
0.00420884
0.00421371
0.0042284
0.004247
0.00435664
0.00434793
0.00434054
0.00433568
0.00433268
0.00433173
0.00433247
0.00433591
0.00434037
0.00434604
0.00435232
0.00435886
0.00436475
0.00437079
0.00437725
0.00438279
0.00438778
0.00439295
0.00439728
0.00440165
0.00440594
0.00440908
0.0044119
0.00441262
0.00441257
0.00440967
0.00440402
0.00439516
0.00438216
0.00436513
0.00434463
0.00432151
0.00429601
0.00427042
0.00424628
0.00422502
0.00420719
0.00419362
0.00418336
0.00417759
0.00417523
0.00417416
0.00417402
0.00417573
0.00417843
0.00418168
0.00418592
0.00419241
0.00419774
0.00420954
0.0042349
0.00434995
0.00434154
0.00433495
0.00433083
0.00432938
0.00432862
0.0043304
0.00433404
0.00433891
0.00434472
0.00435119
0.00435795
0.00436425
0.00437091
0.00437793
0.00438391
0.00438995
0.00439558
0.00440073
0.0044054
0.00440962
0.00441204
0.00441384
0.00441373
0.00441127
0.00440597
0.00439734
0.00438487
0.00436878
0.00434913
0.00432633
0.00430158
0.00427611
0.00425116
0.00422824
0.00420833
0.00419187
0.0041793
0.00417004
0.00416399
0.00416133
0.00416026
0.00416043
0.00416211
0.00416478
0.00416732
0.00416881
0.00417159
0.00417676
0.00418351
0.00421881
0.00434513
0.00433769
0.00433254
0.00432949
0.0043286
0.00432835
0.00433087
0.00433453
0.00433941
0.00434518
0.00435155
0.00435824
0.00436466
0.00437168
0.00437871
0.00438493
0.00439131
0.00439694
0.00440217
0.00440678
0.00440961
0.00441162
0.00441188
0.00440997
0.00440504
0.00439702
0.00438563
0.00437077
0.00435242
0.00433109
0.00430748
0.00428267
0.00425779
0.00423434
0.00421264
0.00419408
0.00417881
0.00416693
0.00415825
0.00415253
0.00414921
0.00414708
0.00414583
0.00414529
0.00414508
0.00414614
0.00414705
0.00414983
0.00415035
0.00414641
0.00418845
0.00434246
0.00433639
0.00433252
0.0043306
0.00433001
0.00433053
0.00433308
0.00433668
0.00434132
0.00434678
0.00435283
0.0043592
0.00436543
0.00437236
0.00437891
0.00438515
0.00439117
0.00439649
0.00440114
0.00440478
0.00440661
0.00440709
0.00440572
0.00440138
0.00439438
0.00438427
0.00437088
0.00435426
0.00433473
0.00431284
0.00428939
0.0042654
0.00424179
0.00421937
0.00419916
0.00418148
0.00416677
0.00415517
0.00414647
0.00414036
0.00413575
0.00413377
0.00413277
0.00413375
0.00413453
0.00413431
0.00413507
0.00412212
0.00409933
0.00408236
0.00413334
0.00434164
0.00433696
0.00433451
0.0043332
0.00433294
0.00433392
0.00433638
0.0043397
0.00434396
0.00434891
0.00435443
0.00436014
0.00436602
0.00437239
0.00437824
0.00438402
0.00438928
0.00439386
0.00439744
0.00439948
0.00439998
0.00439933
0.00439572
0.00438981
0.00438103
0.00436931
0.00435461
0.00433714
0.0043173
0.00429566
0.00427301
0.00425005
0.00422757
0.00420629
0.00418674
0.00416972
0.00415527
0.00414365
0.00413488
0.00412874
0.00412456
0.00412152
0.00411837
0.00411342
0.00410552
0.00409919
0.00409262
0.00408362
0.00406615
0.00404115
0.0040239
0.00876945
0.00876256
0.00875589
0.00874956
0.00874362
0.0087381
0.00873301
0.00872842
0.00872438
0.00872097
0.00871827
0.00871642
0.00871537
0.00871562
0.00871659
0.00871864
0.00872212
0.00872674
0.00873223
0.00873842
0.00874501
0.00875185
0.00875848
0.00876472
0.0087701
0.00877467
0.00876388
0.00875902
0.00875437
0.00875
0.00874585
0.00874197
0.00873833
0.00873493
0.00873179
0.00872898
0.00872653
0.00872452
0.00872304
0.0087221
0.00872211
0.00872264
0.00872398
0.0087263
0.00872946
0.00873323
0.00873756
0.0087421
0.00874676
0.00875131
0.00875552
0.00875917
0.00875864
0.00875586
0.00875324
0.00875079
0.00874846
0.00874619
0.00874396
0.00874169
0.0087394
0.00873715
0.0087349
0.00873278
0.00873079
0.00872912
0.00872777
0.00872693
0.00872671
0.00872699
0.00872795
0.00872942
0.00873143
0.00873386
0.00873655
0.00873933
0.0087421
0.00874474
0.00875427
0.00875352
0.00875291
0.00875228
0.00875161
0.00875096
0.00875002
0.00874847
0.0087471
0.00874509
0.00874305