/*--------------------------------*- C++ -*----------------------------------*\
  =========                 |
  \\      /  F ield         | OpenFOAM: The Open Source CFD Toolbox
   \\    /   O peration     | Website:  https://openfoam.org
    \\  /    A nd           | Version:  10
     \\/     M anipulation  |
\*---------------------------------------------------------------------------*/
FoamFile
{
    format      ascii;
    class       volScalarField;
    location    "0.799866";
    object      p;
}
// * * * * * * * * * * * * * * * * * * * * * * * * * * * * * * * * * * * * * //

dimensions      [1 -1 -2 0 0 0 0];

internalField   nonuniform List<scalar> 
15708
(
2.45192
2.45723
2.46211
2.46653
2.47042
2.4738
2.47665
2.479
2.48087
2.48229
2.4833
2.48393
2.48422
2.48422
2.48399
2.48352
2.48288
2.48212
2.48129
2.48042
2.47955
2.47873
2.47798
2.47734
2.47685
2.47653
2.47641
2.4765
2.47683
2.47743
2.47831
2.47949
2.48098
2.48276
2.48487
2.48728
2.49001
2.49305
2.4964
2.50003
2.50395
2.50813
2.51256
2.51723
2.5221
2.52715
2.53237
2.53773
2.54321
2.54879
2.55445
2.45104
2.45627
2.46109
2.46546
2.46936
2.47277
2.47568
2.47811
2.48007
2.4816
2.48273
2.48349
2.48392
2.48406
2.48396
2.48366
2.48317
2.48257
2.48189
2.48118
2.48046
2.47979
2.4792
2.47871
2.47836
2.47818
2.47819
2.47841
2.47887
2.47959
2.48059
2.48187
2.48344
2.48531
2.48749
2.48997
2.49276
2.49586
2.49925
2.50293
2.5069
2.51112
2.5156
2.5203
2.52522
2.53033
2.53561
2.54103
2.54657
2.55222
2.55796
2.44965
2.45484
2.45961
2.46399
2.46791
2.47138
2.47437
2.47689
2.47897
2.48063
2.4819
2.48281
2.4834
2.4837
2.48376
2.48364
2.48333
2.48291
2.48241
2.48187
2.48134
2.48084
2.48042
2.4801
2.47992
2.47991
2.48007
2.48045
2.48106
2.48192
2.48303
2.48442
2.4861
2.48806
2.49031
2.49287
2.49572
2.49887
2.50231
2.50603
2.51003
2.51429
2.51879
2.52353
2.52848
2.53362
2.53893
2.54439
2.54998
2.55567
2.56146
2.44778
2.4529
2.45767
2.46208
2.46606
2.4696
2.47269
2.47533
2.47755
2.47936
2.48079
2.48187
2.48264
2.48313
2.48339
2.48345
2.48336
2.48313
2.48283
2.4825
2.48216
2.48187
2.48165
2.48153
2.48155
2.48171
2.48205
2.4826
2.48337
2.48437
2.48562
2.48714
2.48892
2.49098
2.49333
2.49596
2.49888
2.50208
2.50556
2.50932
2.51335
2.51762
2.52215
2.5269
2.53186
2.53701
2.54234
2.54782
2.55343
2.55915
2.56496
2.44539
2.45049
2.4553
2.45974
2.46379
2.46742
2.47064
2.47342
2.4758
2.47779
2.47941
2.48069
2.48165
2.48235
2.48282
2.48309
2.48322
2.48322
2.48316
2.48306
2.48296
2.48289
2.4829
2.48299
2.48321
2.48358
2.48411
2.48484
2.48578
2.48695
2.48835
2.49
2.49191
2.49408
2.49652
2.49923
2.50222
2.50548
2.509
2.51279
2.51684
2.52113
2.52566
2.53042
2.53537
2.54052
2.54585
2.55132
2.55693
2.56265
2.56847
2.44248
2.44758
2.45242
2.45693
2.46108
2.46485
2.46821
2.47116
2.47372
2.4759
2.47773
2.47922
2.48043
2.48137
2.48208
2.48261
2.48298
2.48325
2.48344
2.48358
2.48373
2.4839
2.48414
2.48446
2.4849
2.48548
2.48623
2.48716
2.48828
2.48963
2.49119
2.49299
2.49504
2.49733
2.49987
2.50268
2.50574
2.50905
2.51262
2.51644
2.52051
2.52481
2.52934
2.53408
2.53903
2.54416
2.54946
2.55491
2.56049
2.56619
2.57199
2.43898
2.4441
2.44904
2.45362
2.45792
2.46184
2.46538
2.46854
2.47133
2.47375
2.47583
2.47758
2.47905
2.48025
2.48123
2.48202
2.48266
2.48318
2.48362
2.48403
2.48442
2.48485
2.48533
2.4859
2.48659
2.48741
2.48838
2.48952
2.49086
2.49239
2.49414
2.4961
2.49829
2.50072
2.50338
2.50628
2.50942
2.5128
2.51642
2.52027
2.52435
2.52866
2.53318
2.5379
2.54282
2.54792
2.55318
2.55859
2.56414
2.56979
2.57554
2.43483
2.44008
2.44508
2.44985
2.45434
2.45848
2.46227
2.46569
2.46873
2.47142
2.47376
2.47577
2.47749
2.47896
2.48019
2.48125
2.48215
2.48295
2.48367
2.48435
2.48502
2.48572
2.48648
2.48732
2.48826
2.48933
2.49055
2.49193
2.49349
2.49523
2.49717
2.49931
2.50166
2.50423
2.50702
2.51003
2.51325
2.5167
2.52037
2.52426
2.52836
2.53267
2.53718
2.54188
2.54677
2.55182
2.55703
2.56239
2.56787
2.57346
2.57914
2.43009
2.43552
2.44068
2.4457
2.45046
2.45485
2.45889
2.46255
2.46585
2.46878
2.47138
2.47366
2.47565
2.47739
2.47892
2.48026
2.48146
2.48255
2.48357
2.48454
2.48552
2.48651
2.48756
2.48868
2.48991
2.49125
2.49273
2.49436
2.49615
2.49812
2.50027
2.5026
2.50513
2.50786
2.51078
2.51391
2.51723
2.52076
2.52449
2.52842
2.53254
2.53685
2.54135
2.54603
2.55087
2.55587
2.56102
2.5663
2.5717
2.5772
2.58279
2.42489
2.43047
2.43594
2.44113
2.44611
2.45074
2.45503
2.45899
2.46255
2.46577
2.46865
2.47123
2.47353
2.47558
2.47741
2.47907
2.48058
2.48199
2.48332
2.48461
2.4859
2.48721
2.48856
2.48999
2.49151
2.49314
2.49489
2.49679
2.49884
2.50104
2.50342
2.50596
2.50868
2.51157
2.51465
2.51791
2.52134
2.52496
2.52876
2.53274
2.53689
2.54121
2.54569
2.55034
2.55514
2.56008
2.56516
2.57035
2.57565
2.58104
2.58652
2.41905
2.42482
2.43051
2.43597
2.44119
2.4461
2.45071
2.45495
2.45884
2.46238
2.46558
2.46849
2.47111
2.47349
2.47566
2.47765
2.4795
2.48124
2.48291
2.48454
2.48615
2.48779
2.48947
2.49121
2.49305
2.49498
2.49703
2.49921
2.50153
2.50399
2.5066
2.50937
2.51229
2.51537
2.51862
2.52202
2.52558
2.5293
2.53318
2.53721
2.5414
2.54573
2.55021
2.55483
2.55958
2.56446
2.56945
2.57454
2.57973
2.58501
2.59036
2.41233
2.41845
2.42433
2.43013
2.43568
2.44092
2.44588
2.45046
2.45471
2.4586
2.46217
2.46543
2.46841
2.47114
2.47367
2.47601
2.47821
2.48031
2.48233
2.48431
2.48627
2.48825
2.49027
2.49235
2.49451
2.49676
2.49912
2.5016
2.5042
2.50693
2.5098
2.51281
2.51595
2.51924
2.52266
2.52623
2.52993
2.53377
2.53774
2.54184
2.54607
2.55043
2.55491
2.55951
2.56422
2.56902
2.57392
2.57891
2.58398
2.58912
2.59432
2.40485
2.41127
2.41749
2.42365
2.42952
2.4352
2.44051
2.4455
2.45014
2.45444
2.45839
2.46204
2.4654
2.46852
2.47142
2.47414
2.47672
2.47919
2.48157
2.48392
2.48624
2.48858
2.49095
2.49338
2.49588
2.49846
2.50114
2.50393
2.50684
2.50986
2.513
2.51626
2.51965
2.52315
2.52678
2.53052
2.53438
2.53835
2.54244
2.54663
2.55092
2.55531
2.5598
2.56438
2.56905
2.57379
2.5786
2.58348
2.58842
2.59341
2.59845
2.3966
2.40322
2.40988
2.41644
2.42278
2.42887
2.43462
2.44008
2.44514
2.44987
2.45424
2.45831
2.46209
2.46562
2.46892
2.47204
2.47501
2.47787
2.48064
2.48336
2.48606
2.48877
2.4915
2.49429
2.49714
2.50007
2.50309
2.5062
2.50942
2.51275
2.51618
2.51972
2.52336
2.52711
2.53095
2.5349
2.53894
2.54306
2.54727
2.55157
2.55593
2.56038
2.56489
2.56946
2.57409
2.57877
2.5835
2.58827
2.59307
2.59791
2.60277
2.38767
2.39457
2.40183
2.40864
2.41549
2.42198
2.42825
2.43416
2.43972
2.4449
2.44973
2.45425
2.45848
2.46244
2.46618
2.46972
2.4731
2.47635
2.47952
2.48263
2.48572
2.4888
2.49192
2.49507
2.49828
2.50157
2.50493
2.50839
2.51194
2.51558
2.51932
2.52315
2.52708
2.53109
2.53518
2.53934
2.54358
2.54788
2.55225
2.55666
2.56113
2.56564
2.57019
2.57477
2.57937
2.584
2.58864
2.5933
2.59796
2.60263
2.6073
2.37851
2.38568
2.39296
2.40023
2.40745
2.41455
2.42132
2.4278
2.43383
2.43953
2.44487
2.44988
2.45458
2.45901
2.46319
2.46717
2.47098
2.47465
2.47823
2.48174
2.48522
2.48869
2.49218
2.49571
2.49929
2.50294
2.50667
2.51048
2.51437
2.51835
2.52242
2.52656
2.53078
2.53508
2.53944
2.54385
2.54831
2.55282
2.55735
2.56192
2.5665
2.5711
2.5757
2.5803
2.58489
2.58948
2.59404
2.59859
2.60312
2.60762
2.61208
2.36878
2.3763
2.38395
2.39156
2.39913
2.40658
2.41392
2.4209
2.42754
2.43379
2.43968
2.44522
2.45043
2.45534
2.46
2.46443
2.46867
2.47277
2.47676
2.48067
2.48455
2.48841
2.49228
2.49619
2.50015
2.50418
2.50827
2.51245
2.5167
2.52103
2.52544
2.52992
2.53447
2.53907
2.54372
2.54841
2.55312
2.55786
2.56259
2.56733
2.57205
2.57676
2.58144
2.58608
2.59068
2.59523
2.59973
2.60418
2.60857
2.61289
2.61715
2.35866
2.36671
2.3746
2.38254
2.39049
2.39845
2.40623
2.41377
2.42096
2.42778
2.43423
2.44031
2.44605
2.45147
2.45661
2.46151
2.4662
2.47073
2.47513
2.47945
2.48372
2.48797
2.49223
2.49652
2.50086
2.50526
2.50973
2.51428
2.51891
2.52361
2.52838
2.53321
2.53811
2.54305
2.54801
2.55301
2.55801
2.563
2.56797
2.57291
2.5778
2.58264
2.58742
2.59213
2.59675
2.60128
2.60573
2.61008
2.61433
2.61849
2.62254
2.34762
2.35654
2.36495
2.37333
2.38172
2.39006
2.39837
2.40648
2.41422
2.4216
2.4286
2.43524
2.44151
2.44745
2.45308
2.45844
2.46358
2.46853
2.47335
2.47807
2.48273
2.48737
2.49201
2.49668
2.5014
2.50618
2.51103
2.51597
2.52097
2.52606
2.53121
2.53643
2.54169
2.547
2.55231
2.55763
2.56296
2.56823
2.57347
2.57865
2.58374
2.58875
2.59366
2.59845
2.60311
2.60765
2.61205
2.61632
2.62045
2.62443
2.62827
2.33392
2.34557
2.35496
2.36384
2.37277
2.3817
2.3904
2.39906
2.40745
2.4154
2.42295
2.43011
2.43689
2.44333
2.44944
2.45527
2.46085
2.46622
2.47144
2.47655
2.48159
2.48661
2.49162
2.49666
2.50176
2.50692
2.51215
2.51748
2.52288
2.52837
2.53392
2.53954
2.5452
2.5509
2.5566
2.56229
2.56796
2.57356
2.57909
2.58455
2.58988
2.59509
2.60015
2.60505
2.60979
2.61435
2.61873
2.62293
2.62694
2.63076
2.6344
2.32276
2.3343
2.34461
2.35425
2.36363
2.37315
2.38222
2.39178
2.40058
2.40926
2.41729
2.42496
2.43224
2.43916
2.44575
2.45203
2.45804
2.46382
2.46943
2.47491
2.48032
2.48569
2.49106
2.49647
2.50193
2.50746
2.51309
2.5188
2.52462
2.53051
2.53649
2.54253
2.54862
2.55473
2.56086
2.56696
2.57301
2.57898
2.58486
2.59061
2.59622
2.60166
2.60691
2.61196
2.61679
2.6214
2.62578
2.62992
2.63383
2.6375
2.64094
2.31484
2.32172
2.33424
2.34455
2.35456
2.36447
2.37422
2.38369
2.39383
2.40279
2.41166
2.41983
2.42761
2.435
2.44205
2.44876
2.45518
2.46135
2.46732
2.47316
2.47891
2.48462
2.49033
2.49608
2.5019
2.5078
2.5138
2.51992
2.52614
2.53246
2.53888
2.54537
2.55191
2.55849
2.56506
2.5716
2.57808
2.58447
2.59073
2.59683
2.60275
2.60846
2.61394
2.61917
2.62413
2.62881
2.63321
2.63733
2.64115
2.64468
2.64793
2.30565
2.31332
2.32463
2.33514
2.34556
2.35613
2.36655
2.37671
2.38655
2.39668
2.40598
2.41477
2.42305
2.4309
2.43838
2.4455
2.4523
2.45884
2.46516
2.47132
2.47738
2.4834
2.48943
2.4955
2.50165
2.5079
2.51428
2.52079
2.52742
2.53419
2.54105
2.54802
2.55505
2.56212
2.56918
2.57622
2.58317
2.59002
2.59671
2.60321
2.60949
2.61551
2.62126
2.6267
2.63182
2.63661
2.64106
2.64516
2.64892
2.65233
2.6554
2.29599
2.30389
2.31517
2.32594
2.33688
2.34799
2.35896
2.36967
2.38027
2.39058
2.40046
2.40978
2.41856
2.42688
2.43477
2.44229
2.44945
2.45632
2.46295
2.4694
2.47574
2.48204
2.48834
2.49471
2.50116
2.50775
2.51447
2.52137
2.52842
2.53564
2.54298
2.55044
2.558
2.5656
2.5732
2.58077
2.58825
2.5956
2.60278
2.60973
2.61641
2.6228
2.62886
2.63456
2.63988
2.6448
2.64933
2.65345
2.65715
2.66045
2.66335
2.28775
2.29686
2.30681
2.31752
2.32874
2.34031
2.35183
2.36318
2.3742
2.38491
2.39524
2.40497
2.41422
2.42295
2.43124
2.43912
2.44662
2.45379
2.4607
2.46741
2.47399
2.48052
2.48706
2.49368
2.5004
2.5073
2.51436
2.52164
2.5291
2.53677
2.5446
2.5526
2.56069
2.56887
2.57706
2.58522
2.59328
2.6012
2.60892
2.61637
2.62351
2.63031
2.63673
2.64273
2.64828
2.65339
2.65802
2.66217
2.66583
2.66902
2.67176
2.28138
2.28956
2.29908
2.3098
2.32128
2.33317
2.34517
2.35695
2.36849
2.37962
2.39027
2.40043
2.41005
2.41916
2.42781
2.43603
2.44385
2.4513
2.45844
2.46535
2.47211
2.47883
2.48556
2.49237
2.49933
2.50649
2.51387
2.52151
2.52938
2.53751
2.54585
2.55439
2.56308
2.57188
2.5807
2.58952
2.59823
2.60678
2.6151
2.62311
2.63076
2.63802
2.64483
2.65118
2.65701
2.66233
2.66711
2.67132
2.67494
2.67802
2.68058
2.27688
2.28428
2.29329
2.30377
2.31525
2.32726
2.33942
2.35144
2.36315
2.37458
2.38554
2.39606
2.40604
2.41552
2.42452
2.43305
2.44116
2.44885
2.45617
2.46322
2.47012
2.47695
2.4838
2.49075
2.49788
2.50526
2.51293
2.52091
2.52918
2.53777
2.54663
2.55575
2.56506
2.57453
2.58406
2.59359
2.60303
2.61228
2.62127
2.6299
2.63812
2.64587
2.6531
2.65984
2.66599
2.67157
2.67654
2.68082
2.6844
2.68732
2.68969
2.2721
2.27794
2.28647
2.29689
2.30846
2.32064
2.33305
2.34543
2.35751
2.36928
2.38053
2.39141
2.40172
2.41152
2.42085
2.42972
2.43813
2.44606
2.45348
2.46068
2.46777
2.47474
2.48167
2.48871
2.49596
2.50352
2.51143
2.51972
2.5284
2.53743
2.54682
2.55655
2.56654
2.57673
2.58702
2.59734
2.60758
2.61762
2.62735
2.63669
2.64554
2.65383
2.66155
2.66859
2.67505
2.68096
2.68617
2.69055
2.69406
2.69681
2.69895
2.26562
2.2742
2.2836
2.29406
2.3054
2.31734
2.32949
2.34158
2.35354
2.36512
2.37653
2.38742
2.39793
2.40803
2.41763
2.42667
2.43539
2.4435
2.45052
2.45779
2.46499
2.47203
2.479
2.48608
2.49343
2.50114
2.50927
2.51786
2.5269
2.53639
2.54632
2.55665
2.56737
2.57835
2.58948
2.60068
2.61182
2.62273
2.63326
2.64334
2.65283
2.66169
2.66982
2.67721
2.68395
2.69032
2.69597
2.70055
2.70377
2.70652
2.70846
2.25768
2.2655
2.27429
2.28327
2.29449
2.30664
2.31909
2.33176
2.34427
2.35648
2.36872
2.38023
2.39136
2.40202
2.41206
2.42157
2.43077
2.43963
2.44861
2.45622
2.46326
2.46984
2.4764
2.48323
2.49045
2.49817
2.50644
2.51526
2.52462
2.53452
2.54498
2.55598
2.56749
2.57933
2.59136
2.60347
2.61553
2.62732
2.63865
2.64951
2.65978
2.66949
2.67847
2.68671
2.69404
2.70009
2.70672
2.71178
2.7148
2.71684
2.71812
2.24971
2.2551
2.26323
2.27423
2.28696
2.29942
2.31188
2.32358
2.33585
2.34843
2.36093
2.37299
2.38474
2.39573
2.40618
2.41613
2.42571
2.43489
2.44352
2.45108
2.45847
2.46534
2.47212
2.47908
2.48643
2.49426
2.50271
2.51183
2.52149
2.53178
2.54272
2.55434
2.56669
2.57931
2.59218
2.60523
2.61856
2.63156
2.64433
2.65674
2.66865
2.67983
2.69023
2.69966
2.70818
2.71552
2.72032
2.72392
2.72582
2.72677
2.72742
2.24513
2.25019
2.25817
2.26821
2.27873
2.29083
2.30366
2.31714
2.33037
2.343
2.35539
2.36756
2.37918
2.39005
2.40058
2.41062
2.42031
2.42965
2.4386
2.44617
2.45346
2.46041
2.46729
2.47423
2.48162
2.48947
2.49803
2.5074
2.51717
2.52764
2.53895
2.55114
2.5648
2.57872
2.59314
2.60783
2.62232
2.63724
2.65198
2.6662
2.67966
2.69209
2.70335
2.71333
2.72196
2.72889
2.73365
2.73519
2.73547
2.73594
2.73613
2.24249
2.24775
2.25528
2.2652
2.27628
2.28824
2.3007
2.31348
2.32607
2.33824
2.35021
2.36215
2.37315
2.38418
2.39484
2.40516
2.41485
2.42446
2.43239
2.43975
2.447
2.4541
2.46115
2.46832
2.47562
2.48336
2.49208
2.50212
2.51247
2.52376
2.53593
2.54904
2.5622
2.57712
2.59321
2.60995
2.62692
2.64385
2.6603
2.67602
2.69067
2.70413
2.71619
2.72658
2.73533
2.74177
2.74419
2.74453
2.74356
2.74454
2.74696
2.24365
2.24806
2.25503
2.26396
2.27446
2.28597
2.29813
2.31116
2.32351
2.3353
2.34631
2.35685
2.36774
2.37875
2.38948
2.39925
2.40736
2.41602
2.4248
2.4334
2.4408
2.44758
2.45505
2.46302
2.47121
2.47895
2.48681
2.49438
2.50366
2.51498
2.52772
2.54223
2.55809
2.57553
2.59355
2.61219
2.63108
2.64985
2.66771
2.68466
2.70039
2.71514
2.72826
2.73893
2.74734
2.75123
2.7535
2.75336
2.75723
2.75835
2.75942
2.24917
2.25342
2.25971
2.26748
2.27737
2.28771
2.29795
2.30801
2.31918
2.33076
2.34203
2.35142
2.36041
2.37022
2.38068
2.39129
2.40091
2.41001
2.41941
2.42941
2.43743
2.44376
2.44872
2.45324
2.45994
2.46702
2.47582
2.48407
2.49331
2.50519
2.51913
2.53502
2.55244
2.57111
2.59111
2.6117
2.63256
2.65303
2.67291
2.6916
2.70905
2.72524
2.73888
2.74814
2.75485
2.75885
2.76246
2.76522
2.76753
2.76842
2.76905
2.25605
2.25978
2.26408
2.27048
2.27849
2.28698
2.2958
2.30468
2.31394
2.32362
2.33444
2.3452
2.35541
2.36513
2.37559
2.38805
2.39861
2.40714
2.4136
2.41902
2.42493
2.4305
2.43443
2.43932
2.4457
2.45342
2.46228
2.47257
2.48497
2.49824
2.51307
2.52977
2.54814
2.56785
2.58871
2.61021
2.63253
2.65473
2.67666
2.69772
2.71594
2.73259
2.74551
2.75545
2.76139
2.76744
2.77178
2.77533
2.77812
2.77658
2.77593
2.26614
2.26666
2.26886
2.27318
2.2796
2.28741
2.29549
2.30368
2.31221
2.32223
2.33352
2.3443
2.35449
2.36373
2.37173
2.3793
2.38729
2.39478
2.40021
2.40539
2.41181
2.4183
2.42473
2.43117
2.43819
2.44641
2.45543
2.46539
2.47761
2.49106
2.50638
2.52395
2.54299
2.56323
2.58544
2.60879
2.63301
2.657
2.68011
2.70228
2.71895
2.73502
2.74938
2.76153
2.76858
2.77556
2.78021
2.78366
2.785
2.78352
2.78286
2.27318
2.27314
2.27601
2.27961
2.2849
2.29146
2.29874
2.3063
2.31357
2.3211
2.32819
2.33626
2.34486
2.35349
2.36041
2.36743
2.37509
2.38355
2.39117
2.39812
2.40462
2.41082
2.41713
2.42368
2.43127
2.43939
2.44788
2.45864
2.47189
2.48502
2.5017
2.51979
2.53988
2.56119
2.5836
2.60892
2.63273
2.65757
2.67967
2.70126
2.72125
2.73746
2.75371
2.76502
2.77467
2.78151
2.78706
2.78974
2.79164
2.79153
2.79085
2.2814
2.27959
2.27945
2.28151
2.28485
2.28938
2.29493
2.30134
2.3082
2.31475
2.32115
2.32815
2.33574
2.34496
2.35076
2.36118
2.36915
2.37685
2.38396
2.39084
2.39733
2.40324
2.40803
2.41439
2.42335
2.43148
2.44118
2.45285
2.46684
2.48171
2.49926
2.51805
2.53753
2.5584
2.58276
2.60771
2.631
2.65507
2.67785
2.70046
2.72291
2.74041
2.75541
2.76896
2.77919
2.7864
2.79356
2.79705
2.79906
2.80022
2.80049
2.28838
2.28558
2.28446
2.28482
2.28642
2.28928
2.29317
2.29791
2.30343
2.30978
2.31681
2.32469
2.33117
2.33874
2.3472
2.3552
2.36288
2.37029
2.3772
2.38354
2.38969
2.39553
2.40113
2.40813
2.4168
2.42596
2.43639
2.44858
2.46253
2.47823
2.49575
2.51455
2.53557
2.55673
2.58009
2.60447
2.62863
2.65233
2.67502
2.70083
2.72129
2.74004
2.75654
2.7713
2.78303
2.79196
2.79949
2.80494
2.80851
2.81034
2.81088
2.29442
2.29025
2.28786
2.28706
2.28749
2.28927
2.29229
2.29634
2.3012
2.30696
2.3138
2.32092
2.32735
2.33404
2.34182
2.34991
2.35719
2.36425
2.371
2.37748
2.38379
2.38989
2.39622
2.40372
2.4128
2.42256
2.43367
2.44631
2.46051
2.47634
2.49376
2.51246
2.5324
2.55371
2.5768
2.60269
2.62906
2.6471
2.67217
2.69818
2.71972
2.73952
2.75698
2.77251
2.78572
2.79679
2.80584
2.81274
2.81746
2.8199
2.82063
2.29984
2.29468
2.291
2.28919
2.28871
2.2895
2.29169
2.29502
2.29935
2.30497
2.31265
2.31975
2.32079
2.32963
2.33774
2.34521
2.35245
2.3595
2.36638
2.37321
2.37999
2.38675
2.39401
2.40217
2.41137
2.42154
2.43282
2.44548
2.45943
2.47491
2.4916
2.50956
2.52996
2.5524
2.57536
2.59762
2.62257
2.64667
2.67031
2.69511
2.71741
2.73809
2.75676
2.77351
2.78814
2.8007
2.8112
2.81947
2.82531
2.82848
2.82955
2.3046
2.29877
2.29407
2.2912
2.29004
2.29001
2.29145
2.29421
2.29805
2.30322
2.30892
2.31705
2.32132
2.32516
2.334
2.3416
2.34902
2.35627
2.36344
2.37068
2.37801
2.3856
2.39342
2.402
2.41151
2.42187
2.43323
2.44551
2.4593
2.47485
2.49208
2.51059
2.53012
2.54867
2.5699
2.596
2.61868
2.64359
2.66758
2.6916
2.71434
2.73571
2.75554
2.7735
2.78951
2.80346
2.81533
2.82492
2.83199
2.83601
2.83749
2.30873
2.30241
2.29704
2.29319
2.29116
2.29049
2.29112
2.29347
2.29686
2.30138
2.30634
2.31238
2.3188
2.3259
2.33059
2.339
2.347
2.35442
2.36203
2.36967
2.37762
2.38582
2.39432
2.40344
2.41349
2.4244
2.43608
2.44872
2.46235
2.47667
2.49234
2.50969
2.52833
2.54814
2.5686
2.59214
2.61552
2.63961
2.66361
2.68741
2.71059
2.73267
2.75338
2.77252
2.78982
2.80505
2.81828
2.8292
2.83752
2.84262
2.8446
2.31225
2.30559
2.29978
2.29522
2.29236
2.29111
2.29105
2.29324
2.29579
2.30022
2.30356
2.31118
2.31543
2.32318
2.33014
2.3374
2.34546
2.35357
2.36179
2.37028
2.37911
2.38814
2.3974
2.407
2.41696
2.42755
2.43905
2.45153
2.465
2.47926
2.49429
2.51011
2.52904
2.54717
2.56778
2.58944
2.61202
2.63537
2.65905
2.68282
2.70625
2.7288
2.75033
2.77081
2.78904
2.80558
2.82011
2.83249
2.84201
2.84833
2.85105
2.31513
2.30833
2.30225
2.29731
2.29401
2.29241
2.29203
2.29321
2.29559
2.29893
2.3033
2.30898
2.31446
2.32126
2.32885
2.33688
2.3452
2.3538
2.36265
2.37183
2.38131
2.391
2.40096
2.41126
2.42189
2.43287
2.44439
2.45661
2.46954
2.48313
2.49752
2.51267
2.52973
2.54745
2.56662
2.58708
2.60864
2.63112
2.65425
2.67774
2.70124
2.72431
2.74663
2.76781
2.78741
2.80521
2.82106
2.83474
2.84583
2.85326
2.85702
2.31739
2.31061
2.30446
2.29937
2.29582
2.29399
2.29344
2.29394
2.29568
2.29879
2.3031
2.30797
2.31451
2.32149
2.32905
2.33746
2.3463
2.35547
2.36501
2.3749
2.38507
2.39545
2.40605
2.41692
2.42803
2.43939
2.45102
2.46305
2.47538
2.4884
2.50205
2.51648
2.53184
2.54841
2.56622
2.58526
2.60553
2.62692
2.64926
2.67232
2.69571
2.71907
2.74195
2.76401
2.78474
2.80392
2.82111
2.83628
2.84884
2.85791
2.86259
2.31909
2.31248
2.30643
2.30135
2.2977
2.2957
2.29502
2.29527
2.29682
2.29972
2.30386
2.30917
2.31568
2.32255
2.33073
2.33962
2.34892
2.3587
2.36891
2.37949
2.39038
2.40146
2.4127
2.4241
2.43558
2.44726
2.45899
2.47089
2.48293
2.4952
2.50803
2.52138
2.53546
2.55046
2.56661
2.58398
2.60266
2.62269
2.64395
2.6663
2.68944
2.71297
2.73644
2.75935
2.78123
2.80167
2.82033
2.83702
2.85127
2.86197
2.86795
2.32033
2.31402
2.30822
2.30332
2.29975
2.29774
2.29703
2.29721
2.29876
2.30166
2.30586
2.31128
2.31785
2.32525
2.33378
2.34308
2.35285
2.3633
2.37418
2.38545
2.39707
2.40886
2.42069
2.4327
2.44459
2.45662
2.46844
2.4803
2.49188
2.50363
2.51547
2.52766
2.54027
2.5536
2.56786
2.58331
2.60012
2.61846
2.6384
2.65988
2.68262
2.70621
2.73016
2.75391
2.77695
2.79881
2.81904
2.83737
2.85344
2.866
2.87305
2.32113
2.31528
2.30983
2.30525
2.30192
2.30008
2.29945
2.29975
2.30142
2.30446
2.30882
2.31445
2.32124
2.3291
2.338
2.34772
2.35807
2.36908
2.38073
2.39263
2.40504
2.41762
2.42986
2.44277
2.45482
2.46748
2.47927
2.49119
2.50233
2.51359
2.52452
2.53546
2.54651
2.55798
2.57013
2.58334
2.59786
2.6141
2.63234
2.65263
2.67476
2.69834
2.72282
2.74757
2.7719
2.79522
2.81684
2.83634
2.85375
2.86808
2.87634
2.32159
2.31627
2.31132
2.30718
2.30424
2.30272
2.30225
2.3028
2.30471
2.308
2.31263
2.31854
2.32565
2.33392
2.34323
2.35343
2.36439
2.37605
2.3883
2.40097
2.41399
2.4272
2.44042
2.45368
2.46666
2.47939
2.49162
2.50337
2.51457
2.52514
2.5352
2.5448
2.55417
2.56356
2.57332
2.58393
2.59585
2.60962
2.62574
2.64457
2.66603
2.68965
2.71472
2.74034
2.76543
2.78951
2.81241
2.8333
2.85173
2.86765
2.87915
2.56017
2.56594
2.57174
2.57758
2.58345
2.58935
2.59527
2.60121
2.60718
2.61319
2.61922
2.62529
2.63137
2.63746
2.64355
2.6496
2.65559
2.66148
2.66723
2.6728
2.67814
2.68319
2.68789
2.69221
2.69607
2.69943
2.56376
2.56961
2.5755
2.58142
2.58736
2.59331
2.59928
2.60526
2.61126
2.61726
2.62328
2.62929
2.63531
2.6413
2.64726
2.65316
2.65898
2.66467
2.6702
2.67552
2.68059
2.68536
2.68977
2.69378
2.69733
2.70037
2.56731
2.57322
2.57917
2.58514
2.59114
2.59714
2.60315
2.60915
2.61516
2.62116
2.62715
2.63312
2.63907
2.64497
2.65082
2.65658
2.66224
2.66775
2.67308
2.67818
2.68301
2.68753
2.69167
2.6954
2.69866
2.70141
2.57085
2.57679
2.58277
2.58878
2.5948
2.60083
2.60686
2.61288
2.61888
2.62487
2.63083
2.63675
2.64263
2.64845
2.65419
2.65983
2.66534
2.67069
2.67583
2.68074
2.68536
2.68964
2.69355
2.69703
2.70004
2.70254
2.57436
2.58031
2.5863
2.59232
2.59835
2.60439
2.61042
2.61643
2.62242
2.62838
2.6343
2.64017
2.64598
2.65172
2.65736
2.66288
2.66825
2.67345
2.67843
2.68316
2.68759
2.69168
2.69538
2.69865
2.70144
2.70372
2.57786
2.5838
2.58977
2.59578
2.6018
2.60782
2.61383
2.61981
2.62577
2.63169
2.63756
2.64337
2.6491
2.65475
2.66029
2.6657
2.67095
2.67601
2.68084
2.68542
2.68968
2.6936
2.69712
2.70021
2.70282
2.70492
2.58138
2.58727
2.5932
2.59917
2.60514
2.61112
2.61708
2.62302
2.62892
2.63478
2.64058
2.64632
2.65197
2.65753
2.66297
2.66827
2.6734
2.67833
2.68304
2.68747
2.69159
2.69537
2.69874
2.70169
2.70415
2.7061
2.5849
2.59072
2.59659
2.60248
2.60838
2.61429
2.62018
2.62604
2.63187
2.63764
2.64336
2.649
2.65456
2.66002
2.66535
2.67054
2.67557
2.68039
2.68497
2.68929
2.6933
2.69695
2.70021
2.70304
2.7054
2.70725
2.58846
2.59418
2.59995
2.60574
2.61154
2.61735
2.62314
2.6289
2.63462
2.64029
2.6459
2.65143
2.65688
2.66222
2.66744
2.67252
2.67743
2.68214
2.68662
2.69084
2.69475
2.69832
2.7015
2.70425
2.70654
2.70833
2.59207
2.59767
2.60331
2.60898
2.61465
2.62032
2.62598
2.63161
2.63719
2.64273
2.6482
2.6536
2.65891
2.66412
2.66922
2.67417
2.67896
2.68357
2.68795
2.69208
2.69592
2.69942
2.70256
2.70528
2.70754
2.70932
2.59576
2.60122
2.60671
2.61222
2.61773
2.62324
2.62873
2.63419
2.6396
2.64497
2.65028
2.65551
2.66066
2.66572
2.67067
2.67549
2.68015
2.68465
2.68894
2.69299
2.69677
2.70024
2.70335
2.70608
2.70836
2.71018
2.59957
2.60486
2.61017
2.61549
2.62081
2.62611
2.6314
2.63665
2.64186
2.64703
2.65213
2.65717
2.66213
2.667
2.67178
2.67644
2.68097
2.68535
2.68955
2.69353
2.69727
2.70073
2.70386
2.70662
2.70897
2.71087
2.60352
2.60861
2.61371
2.61881
2.62391
2.62898
2.63402
2.63903
2.644
2.64891
2.65377
2.65857
2.6633
2.66796
2.67253
2.67701
2.68139
2.68564
2.68974
2.69367
2.69739
2.70086
2.70404
2.70688
2.70934
2.71138
2.60764
2.61251
2.61738
2.62223
2.62706
2.63187
2.63663
2.64135
2.64602
2.65064
2.65521
2.65973
2.66418
2.66857
2.6729
2.67717
2.68137
2.68548
2.68949
2.69336
2.69707
2.70058
2.70384
2.70681
2.70944
2.71166
2.61195
2.61659
2.6212
2.62578
2.63032
2.63481
2.63925
2.64364
2.64797
2.65225
2.65647
2.66065
2.66477
2.66885
2.67289
2.6769
2.68089
2.68483
2.68873
2.69255
2.69626
2.69984
2.70323
2.70637
2.70921
2.7117
2.61651
2.62089
2.62523
2.6295
2.63371
2.63786
2.64193
2.64594
2.64988
2.65376
2.65757
2.66134
2.66507
2.66878
2.67248
2.67618
2.6799
2.68364
2.68741
2.69116
2.6949
2.69856
2.70212
2.70549
2.70862
2.71144
2.62134
2.62545
2.62948
2.63343
2.63728
2.64104
2.64471
2.64829
2.65178
2.65519
2.65854
2.66183
2.66509
2.66835
2.67163
2.67496
2.67835
2.68186
2.68545
2.68917
2.69291
2.69672
2.70048
2.70413
2.70761
2.71084
2.62648
2.63031
2.63402
2.63762
2.64108
2.64443
2.64764
2.65074
2.65372
2.6566
2.65939
2.66213
2.66484
2.66756
2.67033
2.6732
2.67619
2.67941
2.68283
2.68644
2.69027
2.69422
2.69825
2.70224
2.70615
2.70987
2.63197
2.63551
2.63889
2.64211
2.64516
2.64805
2.65077
2.65334
2.65574
2.65802
2.66018
2.66226
2.66432
2.66639
2.66856
2.67088
2.67338
2.67624
2.67942
2.68298
2.68687
2.69102
2.69537
2.69979
2.70422
2.70854
2.63784
2.64108
2.64413
2.64696
2.64958
2.65198
2.65417
2.65614
2.65791
2.65949
2.66093
2.66226
2.66354
2.66487
2.66634
2.668
2.66987
2.67231
2.67525
2.67877
2.68279
2.6872
2.6919
2.69681
2.70182
2.70677
2.64413
2.64708
2.64978
2.65222
2.65439
2.65627
2.65788
2.65921
2.66028
2.6611
2.66172
2.66219
2.66257
2.66304
2.66381
2.66471
2.66584
2.66762
2.67027
2.67391
2.6782
2.68298
2.68813
2.69359
2.69927
2.70499
2.65089
2.65355
2.6559
2.65794
2.65964
2.66099
2.66199
2.66263
2.66294
2.6629
2.66262
2.66213
2.66165
2.66091
2.66085
2.66083
2.66112
2.66212
2.66415
2.66764
2.67207
2.67732
2.68314
2.68941
2.69598
2.70272
2.65812
2.66051
2.66253
2.66416
2.66539
2.66619
2.66653
2.66645
2.66591
2.665
2.66373
2.66229
2.6606
2.65868
2.6567
2.65497
2.65484
2.65613
2.65822
2.66128
2.66556
2.67091
2.67717
2.6841
2.69143
2.69902
2.66586
2.66798
2.66967
2.67091
2.67167
2.6719
2.67159
2.67072
2.6693
2.66744
2.66505
2.66253
2.65877
2.65535
2.65392
2.65193
2.64992
2.64902
2.64973
2.65234
2.65705
2.66331
2.67068
2.67868
2.68705
2.69582
2.67406
2.67591
2.6773
2.67817
2.67845
2.67812
2.67711
2.6754
2.67309
2.6699
2.66624
2.66224
2.65974
2.65581
2.65101
2.64688
2.64406
2.64269
2.643
2.64559
2.65066
2.65752
2.66535
2.67388
2.6827
2.69266
2.68267
2.68428
2.68536
2.68585
2.68568
2.68477
2.68298
2.68033
2.67695
2.67224
2.66984
2.66608
2.66093
2.65517
2.6493
2.64266
2.6377
2.636
2.63645
2.63949
2.64538
2.65284
2.66147
2.67088
2.68051
2.69094
2.69156
2.6929
2.69368
2.69378
2.69315
2.6916
2.68905
2.6853
2.68266
2.67969
2.67494
2.66969
2.6633
2.65447
2.647
2.64074
2.63515
2.63224
2.63176
2.63464
2.64142
2.64968
2.65892
2.66897
2.67882
2.6899
2.70057
2.70166
2.70208
2.70175
2.70054
2.69829
2.69523
2.6943
2.69053
2.68632
2.68076
2.67256
2.66516
2.65723
2.64816
2.64065
2.63441
2.63165
2.63272
2.63493
2.6401
2.64831
2.6584
2.6691
2.67986
2.6913
2.70972
2.71037
2.71033
2.70968
2.70815
2.70787
2.70559
2.70328
2.69899
2.69124
2.68456
2.67728
2.66925
2.66114
2.65205
2.64414
2.63804
2.63521
2.63593
2.63922
2.6446
2.65215
2.66149
2.67221
2.68342
2.69434
2.71881
2.71892
2.71816
2.71721
2.7184
2.71832
2.71516
2.7091
2.70434
2.69738
2.6899
2.68214
2.67353
2.66572
2.65745
2.65028
2.64503
2.64267
2.64283
2.64544
2.65085
2.65824
2.66688
2.67617
2.68627
2.69617
2.72783
2.72793
2.72805
2.72854
2.72921
2.72479
2.72115
2.71612
2.7098
2.70255
2.69481
2.68689
2.67898
2.67142
2.66408
2.65756
2.65314
2.65108
2.65098
2.653
2.65731
2.66332
2.6709
2.67902
2.6886
2.69946
2.73769
2.73874
2.73964
2.73982
2.73593
2.73208
2.72713
2.72134
2.71477
2.7075
2.69974
2.69175
2.68382
2.67624
2.66925
2.6633
2.65905
2.65693
2.65663
2.65837
2.66221
2.66819
2.67582
2.68452
2.69302
2.70187
2.74956
2.75101
2.7499
2.74647
2.74244
2.73769
2.73216
2.72598
2.71906
2.71158
2.70369
2.69566
2.68765
2.68007
2.67319
2.66733
2.66306
2.66123
2.66125
2.66363
2.66787
2.67342
2.68051
2.68825
2.69629
2.7046
2.76015
2.75607
2.75451
2.75264
2.74871
2.74365
2.73768
2.73087
2.72311
2.71493
2.70663
2.69844
2.69046
2.68322
2.67729
2.67222
2.66875
2.66714
2.66696
2.66946
2.67371
2.67899
2.68557
2.69221
2.69916
2.70603
2.76757
2.76485
2.76218
2.75875
2.75439
2.74876
2.74212
2.73497
2.72708
2.71915
2.71068
2.70285
2.6942
2.6877
2.68227
2.67685
2.67377
2.67226
2.67249
2.67436
2.67784
2.68254
2.68814
2.69414
2.70022
2.70609
2.77455
2.77178
2.76898
2.7647
2.75948
2.75401
2.74756
2.7402
2.73171
2.72312
2.71482
2.70591
2.69763
2.69068
2.68447
2.67954
2.67616
2.67486
2.67503
2.67678
2.67995
2.68423
2.68926
2.69465
2.70008
2.70525
2.78159
2.77876
2.77492
2.77117
2.76667
2.7605
2.75335
2.7451
2.73613
2.72687
2.71767
2.70855
2.70012
2.69256
2.68606
2.68093
2.67743
2.67597
2.67595
2.67751
2.68045
2.68444
2.68912
2.6941
2.69907
2.70371
2.78874
2.78696
2.78402
2.77973
2.77427
2.76717
2.759
2.74991
2.74013
2.73009
2.72008
2.71033
2.70127
2.69309
2.68616
2.68067
2.67688
2.67523
2.67506
2.67649
2.67929
2.68312
2.68762
2.6924
2.69711
2.70144
2.79904
2.79708
2.79373
2.7885
2.78189
2.7738
2.7646
2.75452
2.74382
2.73282
2.72189
2.71123
2.70131
2.69238
2.68474
2.67869
2.6745
2.6725
2.67219
2.67349
2.67627
2.68014
2.68468
2.68949
2.69418
2.69844
2.8097
2.80726
2.80309
2.79704
2.78942
2.78035
2.77012
2.75896
2.74717
2.73505
2.72293
2.71116
2.70012
2.69018
2.6816
2.67476
2.66991
2.66753
2.66706
2.66831
2.6712
2.6753
2.68015
2.68527
2.69023
2.69468
2.81976
2.81685
2.81201
2.80525
2.79678
2.78677
2.77547
2.76315
2.75012
2.73668
2.72318
2.71001
2.69756
2.68626
2.67651
2.66856
2.66281
2.65993
2.65929
2.66057
2.66375
2.66834
2.6738
2.67957
2.68515
2.69011
2.82876
2.82571
2.82046
2.81312
2.80389
2.79296
2.78059
2.76705
2.75264
2.73768
2.72255
2.70767
2.69349
2.68049
2.66913
2.65977
2.65277
2.64923
2.64839
2.64981
2.65348
2.65886
2.66531
2.67218
2.67882
2.68466
2.83697
2.83392
2.82841
2.8206
2.81072
2.79893
2.78548
2.77064
2.75472
2.73806
2.72103
2.7041
2.68779
2.67265
2.65923
2.64803
2.63943
2.63497
2.6338
2.63553
2.63991
2.64642
2.65431