/*--------------------------------*- C++ -*----------------------------------*\
  =========                 |
  \\      /  F ield         | OpenFOAM: The Open Source CFD Toolbox
   \\    /   O peration     | Website:  https://openfoam.org
    \\  /    A nd           | Version:  10
     \\/     M anipulation  |
\*---------------------------------------------------------------------------*/
FoamFile
{
    format      ascii;
    class       surfaceScalarField;
    location    "0.799866";
    object      phi;
}
// * * * * * * * * * * * * * * * * * * * * * * * * * * * * * * * * * * * * * //

dimensions      [1 0 -1 0 0 0 0];

internalField   nonuniform List<scalar> 
31108
(
0.000474065
-9.91332e-05
0.000461621
-9.47651e-05
0.000449349
-9.02468e-05
0.000437279
-8.55684e-05
0.000425538
-8.08964e-05
0.000414137
-7.62248e-05
0.000403106
-7.15817e-05
0.000392491
-6.70124e-05
0.000382309
-6.25384e-05
0.000372583
-5.81792e-05
0.000363325
-5.39498e-05
0.000354531
-4.98592e-05
0.000346211
-4.59136e-05
0.000338359
-4.21162e-05
0.000330953
-3.8453e-05
0.000324006
-3.49549e-05
0.000317503
-3.15994e-05
0.000311432
-2.83846e-05
0.000305781
-2.5307e-05
0.000300538
-2.23601e-05
0.000295686
-1.95391e-05
0.000291213
-1.68383e-05
0.000287104
-1.42508e-05
0.000283347
-1.17713e-05
0.000279927
-9.39436e-06
0.00027683
-7.11344e-06
0.000274044
-4.92315e-06
0.000271564
-2.81422e-06
0.000269371
-7.94731e-07
0.000267459
1.14561e-06
0.000265815
3.01107e-06
0.000264429
4.80123e-06
0.000263296
6.51842e-06
0.000262406
8.16826e-06
0.000261752
9.74863e-06
0.000261328
1.12599e-05
0.000261124
1.27041e-05
0.000261137
1.40787e-05
0.00026136
1.5383e-05
0.000261784
1.66152e-05
0.000262411
1.77716e-05
0.000263231
1.88505e-05
0.000264237
1.98446e-05
0.000265426
2.07526e-05
0.000266789
2.15662e-05
0.000268316
2.22825e-05
0.000270001
2.28939e-05
0.000271831
2.33967e-05
0.000273788
2.3785e-05
0.000275868
2.40555e-05
2.42075e-05
0.000278042
0.000478513
-8.56571e-05
0.000466203
-8.13893e-05
0.00045394
-7.70492e-05
0.000441897
-7.2602e-05
0.00043016
-6.82225e-05
0.000418716
-6.38555e-05
0.000407621
-5.95512e-05
0.00039691
-5.53513e-05
0.00038662
-5.1268e-05
0.00037677
-4.73177e-05
0.000367375
-4.35106e-05
0.00035844
-3.98529e-05
0.000349978
-3.63466e-05
0.000341977
-3.29948e-05
0.000334442
-2.97845e-05
0.000327359
-2.67232e-05
0.000320724
-2.38153e-05
0.000314528
-2.10429e-05
0.00030876
-1.84041e-05
0.000303404
-1.58927e-05
0.000298448
-1.35028e-05
0.000293876
-1.12285e-05
0.000289674
-9.0639e-06
0.000285828
-7.00209e-06
0.000282322
-5.03783e-06
0.000279144
-3.16507e-06
0.000276283
-1.37352e-06
0.000273734
3.28591e-07
0.000271478
1.95275e-06
0.000269501
3.50187e-06
0.000267797
4.97767e-06
0.000266353
6.38296e-06
0.000265163
7.7235e-06
0.000264216
8.99851e-06
0.000263505
1.02092e-05
0.000263022
1.13591e-05
0.000262761
1.2446e-05
0.000262715
1.34721e-05
0.000262877
1.44359e-05
0.000263236
1.5337e-05
0.000263793
1.61732e-05
0.000264537
1.69432e-05
0.000265463
1.76431e-05
0.000266564
1.82709e-05
0.000267832
1.88215e-05
0.000269263
1.92927e-05
0.000270841
1.96794e-05
0.000272561
1.99789e-05
0.000274406
2.01874e-05
0.000276366
2.03029e-05
2.03248e-05
0.000278426
0.000482719
-7.23158e-05
0.000470441
-6.81259e-05
0.000458244
-6.38954e-05
0.00044623
-5.96855e-05
0.000434465
-5.55417e-05
0.0004229
-5.14261e-05
0.000411712
-4.74607e-05
0.000400902
-4.3611e-05
0.000390493
-3.99083e-05
0.000380512
-3.63586e-05
0.000370981
-3.29689e-05
0.000361908
-2.97413e-05
0.000353304
-2.66738e-05
0.000345167
-2.3767e-05
0.000337497
-2.10128e-05
0.000330285
-1.83996e-05
0.000323523
-1.59344e-05
0.000317205
-1.36098e-05
0.00031132
-1.14148e-05
0.000305856
-9.34337e-06
0.000300798
-7.38822e-06
0.00029613
-5.54218e-06
0.000291835
-3.79945e-06
0.000287903
-2.15553e-06
0.000284318
-6.04708e-07
0.000281063
8.64909e-07
0.000278141
2.24811e-06
0.000275522
3.55166e-06
0.0002732
4.78179e-06
0.000271165
5.93985e-06
0.000269404
7.03135e-06
0.000267906
8.05837e-06
0.000266665
9.02347e-06
0.000265667
9.9285e-06
0.000264905
1.07762e-05
0.000264372
1.15668e-05
0.000264059
1.23027e-05
0.00026396
1.29842e-05
0.000264066
1.36117e-05
0.000264371
1.41856e-05
0.000264867
1.47045e-05
0.000265548
1.51687e-05
0.000266407
1.55757e-05
0.000267437
1.59243e-05
0.000268629
1.62118e-05
0.000269977
1.64364e-05
0.000271472
1.65953e-05
0.000273106
1.66871e-05
0.000274863
1.67094e-05
0.000276733
1.66616e-05
1.65442e-05
0.000278704
0.000486723
-5.90785e-05
0.000474503
-5.49381e-05
0.000462278
-5.08052e-05
0.000450245
-4.67499e-05
0.000438323
-4.27853e-05
0.000426737
-3.89616e-05
0.000415425
-3.52875e-05
0.000404476
-3.17808e-05
0.000393919
-2.84466e-05
0.000383788
-2.52929e-05
0.000374109
-2.232e-05
0.000364895
-1.95239e-05
0.000356149
-1.68982e-05
0.000347877
-1.44385e-05
0.000340071
-1.21381e-05
0.000332739
-9.98884e-06
0.000325864
-7.97798e-06
0.000319434
-6.09568e-06
0.000313441
-4.34896e-06
0.000307874
-2.71914e-06
0.000302719
-1.20136e-06
0.000297961
2.13582e-07
0.000293585
1.531e-06
0.000289573
2.75889e-06
0.000285911
3.90025e-06
0.000282598
4.95736e-06
0.000279606
5.93696e-06
0.000276927
6.84483e-06
0.000274545
7.68337e-06
0.000272452
8.45637e-06
0.000270637
9.16761e-06
0.000269088
9.82003e-06
0.000267796
1.04143e-05
0.00026675
1.0955e-05
0.000265942
1.14427e-05
0.000265362
1.18801e-05
0.000265005
1.22687e-05
0.00026486
1.26098e-05
0.000264921
1.29051e-05
0.000265179
1.31547e-05
0.000265625
1.33591e-05
0.000266252
1.35196e-05
0.000267057
1.36338e-05
0.00026803
1.37036e-05
0.000269163
1.3726e-05
0.000270448
1.37018e-05
0.000271878
1.36287e-05
0.000273445
1.3507e-05
0.000275134
1.33357e-05
0.000276942
1.31151e-05
1.28471e-05
0.000278845
0.000490669
-4.59248e-05
0.000478352
-4.17349e-05
0.000466088
-3.76726e-05
0.000453898
-3.3732e-05
0.000441917
-2.99724e-05
0.000430177
-2.63911e-05
0.000418735
-2.30104e-05
0.000407638
-1.98347e-05
0.000396929
-1.68675e-05
0.000386644
-1.41097e-05
0.000376814
-1.15572e-05
0.000367451
-9.19802e-06
0.00035856
-7.02003e-06
0.000350148
-5.01452e-06
0.00034221
-3.1731e-06
0.000334738
-1.48362e-06
0.000327738
6.49123e-08
0.000321208
1.47875e-06
0.000315118
2.77929e-06
0.000309458
3.96618e-06
0.000304212
5.04896e-06
0.000299367
6.03158e-06
0.000294908
6.92159e-06
0.000290829
7.72662e-06
0.00028711
8.45344e-06
0.000283731
9.10363e-06
0.00028068
9.68456e-06
0.000277944
1.01995e-05
0.00027551
1.06519e-05
0.000273365
1.10441e-05
0.000271501
1.13798e-05
0.000269906
1.16615e-05
0.000268567
1.18915e-05
0.000267477
1.20721e-05
0.000266625
1.22058e-05
0.000266004
1.22944e-05
0.000265603
1.23403e-05
0.000265418
1.23456e-05
0.000265438
1.23115e-05
0.000265654
1.224e-05
0.000266061
1.21319e-05
0.000266646
1.19891e-05
0.000267406
1.18118e-05
0.000268334
1.16008e-05
0.000269423
1.13562e-05
0.000270663
1.10791e-05
0.000272045
1.07689e-05
0.000273565
1.04267e-05
0.000275206
1.00534e-05
0.000276967
9.64991e-06
9.21913e-06
0.000278829
0.000494346
-3.27236e-05
0.000481971
-2.84787e-05
0.000469607
-2.44612e-05
0.000457319
-2.06141e-05
0.000445201
-1.70387e-05
0.0004333
-1.36858e-05
0.00042169
-1.05937e-05
0.00041042
-7.74653e-06
0.000399539
-5.14943e-06
0.000389083
-2.79247e-06
0.000379083
-6.63957e-07
0.000369561
1.24924e-06
0.000360523
2.96617e-06
0.000351972
4.50106e-06
0.000343904
5.87089e-06
0.000336313
7.09261e-06
0.00032919
8.17797e-06
0.000322534
9.13334e-06
0.000316336
9.97223e-06
0.000310585
1.07046e-05
0.000305263
1.13402e-05
0.000300351
1.18853e-05
0.000295832
1.23485e-05
0.000291686
1.27344e-05
0.000287901
1.30499e-05
0.000284462
1.32983e-05
0.000281354
1.34843e-05
0.000278566
1.36097e-05
0.000276084
1.36799e-05
0.000273896
1.36959e-05
0.000271989
1.36612e-05
0.000270353
1.3578e-05
0.000268977
1.34486e-05
0.000267848
1.32752e-05
0.000266958
1.306e-05
0.0002663
1.28053e-05
0.000265864
1.25134e-05
0.000265642
1.21865e-05
0.000265628
1.1827e-05
0.000265809
1.14369e-05
0.000266181
1.10182e-05
0.000266732
1.0573e-05
0.000267459
1.0103e-05
0.000268353
9.61016e-06
0.000269405
9.09553e-06
0.000270612
8.56069e-06
0.000271961
8.0076e-06
0.000273447
7.4372e-06
0.000275063
6.85229e-06
0.000276794
6.255e-06
5.64873e-06
0.000278636
0.000498113
-1.94249e-05
0.000485557
-1.51485e-05
0.000473061
-1.10763e-05
0.000460602
-7.35151e-06
0.000448233
-3.90119e-06
0.000436139
-7.8849e-07
0.000424308
2.00911e-06
0.000412819
4.51204e-06
0.00040172
6.72396e-06
0.000391062
8.66445e-06
0.000380873
1.03568e-05
0.000371172
1.18169e-05
0.00036197
1.30643e-05
0.000353267
1.41214e-05
0.000345059
1.50091e-05
0.000337342
1.57461e-05
0.000330116
1.63477e-05
0.000323373
1.68282e-05
0.000317098
1.72009e-05
0.000311271
1.74758e-05
0.00030587
1.76621e-05
0.000300886
1.77697e-05
0.000296305
1.78048e-05
0.000292111
1.77731e-05
0.000288285
1.76797e-05
0.000284812
1.75287e-05
0.00028167
1.73219e-05
0.000278845
1.70651e-05
0.000276321
1.67581e-05
0.000274086
1.64045e-05
0.000272131
1.60058e-05
0.00027045
1.55641e-05
0.000269031
1.50817e-05
0.000267863
1.45601e-05
0.000266938
1.40017e-05
0.000266247
1.34089e-05
0.00026578
1.27838e-05
0.000265529
1.21292e-05
0.000265485
1.14475e-05
0.000265638
1.07413e-05
0.000265984
1.00133e-05
0.000266511
9.26626e-06
0.000267211
8.50296e-06
0.000268082
7.72583e-06
0.000269112
6.93758e-06
0.000270297
6.14054e-06
0.000271626
5.33739e-06
0.000273093
4.53098e-06
0.000274692
3.72447e-06
0.000276412
2.92173e-06
2.12655e-06
0.000278248
0.000501691
-5.99592e-06
0.000488988
-1.58111e-06
0.000476229
2.49611e-06
0.000463499
6.1472e-06
0.000450926
9.40585e-06
0.000438555
1.22992e-05
0.000426457
1.48196e-05
0.00041472
1.6968e-05
0.000403391
1.87926e-05
0.000392518
2.02985e-05
0.00038213
2.15318e-05
0.000372251
2.25123e-05
0.000362888
2.3268e-05
0.000354049
2.38268e-05
0.000345729
2.42142e-05
0.000337913
2.44534e-05
0.000330593
2.45635e-05
0.000323761
2.45607e-05
0.000317402
2.44598e-05
0.0003115
2.42717e-05
0.000306035
2.40068e-05
0.000300997
2.36741e-05
0.000296374
2.32803e-05
0.000292144
2.28312e-05
0.000288285
2.23309e-05
0.000284773
2.17828e-05
0.000281593
2.11903e-05
0.000278729
2.05546e-05
0.000276171
1.98776e-05
0.000273905
1.9161e-05
0.000271917
1.84059e-05
0.0002702
1.76133e-05
0.000268743
1.67848e-05
0.000267538
1.5922e-05
0.000266579
1.50266e-05
0.000265857
1.41011e-05
0.000265362
1.31479e-05
0.000265086
1.21695e-05
0.00026502
1.11689e-05
0.000265153
1.0149e-05
0.000265477
9.11296e-06
0.000265985
8.06443e-06
0.000266668
7.00681e-06
0.000267522
5.94329e-06
0.000268539
4.8775e-06
0.000269709
3.81288e-06
0.000271029
2.75301e-06
0.000272491
1.70157e-06
0.000274086
6.63283e-07
0.000275811
-3.5668e-07
-1.35317e-06
0.000277651
0.000505254
7.57756e-06
0.0004923
1.22133e-05
0.000479187
1.62619e-05
0.00046614
1.99001e-05
0.0004532
2.30351e-05
0.000440499
2.56822e-05
0.000428104
2.78867e-05
0.000416104
2.96503e-05
0.000404542
3.10632e-05
0.000393476
3.21084e-05
0.000382917
3.28599e-05
0.00037287
3.33369e-05
0.000363337
3.35783e-05
0.000354328
3.3618e-05
0.000345859
3.34858e-05
0.000337928
3.32095e-05
0.000330524
3.28131e-05
0.000323632
3.23155e-05
0.00031723
3.17325e-05
0.000311293
3.10755e-05
0.000305803
3.0356e-05
0.000300734
2.95816e-05
0.000296071
2.87597e-05
0.000291796
2.78946e-05
0.000287891
2.69908e-05
0.000284339
2.6051e-05
0.000281123
2.50769e-05
0.000278227
2.40696e-05
0.000275638
2.30296e-05
0.000273344
2.19575e-05
0.000271332
2.08534e-05
0.00026959
1.97177e-05
0.000268111
1.85511e-05
0.000266883
1.73544e-05
0.000265897
1.61294e-05
0.00026515
1.48774e-05
0.000264631
1.36014e-05
0.000264332
1.23036e-05
0.000264243
1.09876e-05
0.000264356
9.65624e-06
0.000264663
8.3136e-06
0.000265157
6.96346e-06
0.000265829
5.61035e-06
0.000266673
4.25797e-06
0.000267683
2.91075e-06
0.000268852
1.57291e-06
0.000270172
2.49255e-07
0.000271636
-1.05477e-06
0.00027324
-2.33402e-06
0.000274976
-3.58264e-06
-4.7942e-06
0.000276837
0.000508417
2.14821e-05
0.000495068
2.62676e-05
0.00048172
3.03999e-05
0.000468282
3.39619e-05
0.000455061
3.69391e-05
0.000442032
3.9344e-05
0.000429337
4.12003e-05
0.000417022
4.26102e-05
0.000405213
4.35567e-05
0.000393882
4.41253e-05
0.000383088
4.43524e-05
0.000372835
4.42941e-05
0.000363138
4.39921e-05
0.00035401
4.34866e-05
0.000345454
4.28157e-05
0.00033746
4.20083e-05
0.00033001
4.10909e-05
0.000323073
4.00847e-05
0.000316621
3.90074e-05
0.000310633
3.78734e-05
0.000305097
3.6692e-05
0.000299995
3.54727e-05
0.000295308
3.42228e-05
0.000291009
3.29455e-05
0.00028708
3.16435e-05
0.000283502
3.03186e-05
0.000280262
2.89708e-05
0.000277344
2.76002e-05
0.000274734
2.62059e-05
0.000272419
2.4787e-05
0.000270386
2.33428e-05
0.000268626
2.18724e-05
0.000267125
2.03758e-05
0.00026588
1.88528e-05
0.000264879
1.7305e-05
0.000264114
1.5733e-05
0.000263577
1.41396e-05
0.000263262
1.25269e-05
0.000263158
1.08988e-05
0.000263256
9.25855e-06
0.000263551
7.61057e-06
0.000264035
5.95911e-06
0.000264701
4.30933e-06
0.000265542
2.66555e-06
0.000266552
1.03297e-06
0.000267724
-5.83039e-07
0.000269052
-2.17664e-06
0.00027053
-3.74111e-06
0.000272153
-5.27161e-06
0.000273913
-6.76162e-06
-8.20376e-06
0.000275807
0.000510887
3.56527e-05
0.000497239
4.0593e-05
0.000483542
4.4862e-05
0.000469872
4.83757e-05
0.000456293
5.11501e-05
0.000442984
5.33211e-05
0.000429939
5.48446e-05
0.000417342
5.58193e-05
0.000405216
5.62907e-05
0.000393625
5.63304e-05
0.000382602
5.60079e-05
0.000372181
5.53794e-05
0.000362363
5.4502e-05
0.000353141
5.34236e-05
0.000344502
5.21844e-05
0.000336433
5.08209e-05
0.000328912
4.93625e-05
0.00032192
4.78328e-05
0.000315438
4.62516e-05
0.000309444
4.46346e-05
0.000303906
4.29915e-05
0.000298799
4.13292e-05
0.000294103
3.96537e-05
0.000289799
3.79681e-05
0.00028587
3.6274e-05
0.000282296
3.45714e-05
0.000279056
3.2859e-05
0.000276136
3.11346e-05
0.000273518
2.93963e-05
0.00027119
2.76409e-05
0.000269141
2.58667e-05
0.000267361
2.40714e-05
0.000265841
2.22539e-05
0.000264573
2.04131e-05
0.00026355
1.85497e-05
0.000262765
1.66641e-05
0.000262209
1.47589e-05
0.000261873
1.28359e-05
0.000261755
1.0899e-05
0.000261844
8.9519e-06
0.000262134
6.99962e-06
0.000262617
5.04672e-06
0.000263283
3.09895e-06
0.000264127
1.1615e-06
0.000265143
-7.59951e-07
0.000266325
-2.65868e-06
0.00026767
-4.52841e-06
0.000269169
-6.36275e-06
0.000270819
-8.15553e-06
0.000272615
-9.89968e-06
-1.1587e-05
0.000274552
0.000512089
4.98993e-05
0.000498403
5.50709e-05
0.000484388
5.94931e-05
0.000470425
6.29582e-05
0.000456582
6.56969e-05
0.000443024
6.75282e-05
0.00042973
6.87559e-05
0.000416896
6.92431e-05
0.000404514
6.92395e-05
0.000392704
6.87041e-05
0.000381488
6.78027e-05
0.000370896
6.65715e-05
0.000360935
6.5086e-05
0.000351606
6.34015e-05
0.000342891
6.15674e-05
0.000334772
5.96241e-05
0.000327226
5.7607e-05
0.000320226
5.55412e-05
0.000313747
5.34476e-05
0.000307765
5.13415e-05
0.000302248
4.92343e-05
0.000297164
4.71293e-05
0.000292489
4.50319e-05
0.000288204
4.29443e-05
0.000284287
4.08661e-05
0.000280719
3.87949e-05
0.000277482
3.67278e-05
0.00027456
3.46606e-05
0.000271939
3.25892e-05
0.000269605
3.0509e-05
0.000267547
2.84159e-05
0.000265755
2.63066e-05
0.000264222
2.41783e-05
0.000262939
2.20292e-05
0.000261901
1.98584e-05
0.000261101
1.76663e-05
0.000260532
1.54547e-05
0.000260188
1.32259e-05
0.000260059
1.09837e-05
0.000260139
8.73203e-06
0.000260423
6.47635e-06
0.000260903
4.22201e-06
0.000261572
1.97491e-06
0.000262427
-2.58894e-07
0.00026346
-2.47253e-06
0.000264663
-4.65902e-06
0.000266032
-6.812e-06
0.000267561
-8.9246e-06
0.000269245
-1.09902e-05
0.000271083
-1.30008e-05
-1.49476e-05
0.000273071
0.000511504
6.40128e-05
0.000497745
6.96192e-05
0.000483726
7.41716e-05
0.000469667
7.7742e-05
0.000455639
8.03363e-05
0.000441854
8.19299e-05
0.00042837
8.28121e-05
0.000415305
8.28218e-05
0.00040282
8.22902e-05
0.000390848
8.12122e-05
0.000379508
7.96852e-05
0.000368821
7.78246e-05
0.000358789
7.57036e-05
0.000349406
7.33877e-05
0.000340663
7.09382e-05
0.00033254
6.83992e-05
0.000325009
6.58098e-05
0.000318035
6.31959e-05
0.000311586
6.05798e-05
0.00030563
5.79769e-05
0.000300141
5.53994e-05
0.000295089
5.28509e-05
0.00029045
5.03363e-05
0.000286199
4.78539e-05
0.000282311
4.54006e-05
0.000278767
4.29721e-05
0.000275549
4.05626e-05
0.000272638
3.8166e-05
0.000270022
3.57751e-05
0.000267686
3.33834e-05
0.000265623
3.09843e-05
0.000263824
2.85728e-05
0.000262283
2.61446e-05
0.000260991
2.36967e-05
0.000259941
2.12272e-05
0.000259128
1.87358e-05
0.000258548
1.62236e-05
0.000258195
1.36932e-05
0.000258059
1.11484e-05
0.000258136
8.59435e-06
0.000258422
6.0361e-06
0.00025891
3.47993e-06
0.000259588
9.32362e-07
0.000260455
-1.60012e-06
0.000261504
-4.10952e-06
0.000262728
-6.58892e-06
0.000264125
-9.03167e-06
0.000265689
-1.14307e-05
0.000267417
-1.37787e-05
0.000269306
-1.60677e-05
-1.82885e-05
0.000271358
0.000507978
7.74954e-05
0.000494331
8.37377e-05
0.00048052
8.82378e-05
0.000466625
9.22614e-05
0.000452694
9.46147e-05
0.000438954
9.62395e-05
0.00042554
9.67135e-05
0.000412423
9.64222e-05
0.00039987
9.53326e-05
0.000387903
9.36865e-05
0.000376562
9.15464e-05
0.000365881
8.90453e-05
0.000355861
8.62768e-05
0.000346499
8.33179e-05
0.000337785
8.02369e-05
0.000329699
7.70851e-05
0.00032221
7.39067e-05
0.00031528
7.07336e-05
0.00030888
6.75899e-05
0.000302981
6.4491e-05
0.000297554
6.14472e-05
0.000292567
5.84639e-05
0.000287991
5.55382e-05
0.000283795
5.26716e-05
0.000279955
4.98566e-05
0.000276449
4.70857e-05
0.000273262
4.43494e-05
0.000270377
4.16388e-05
0.000267779
3.8944e-05
0.000265455
3.62556e-05
0.000263396
3.35647e-05
0.000261594
3.08645e-05
0.000260045
2.81484e-05
0.000258743
2.54119e-05
0.000257685
2.26527e-05
0.000256863
1.98689e-05
0.000256271
1.70621e-05
0.000255905
1.42343e-05
0.000255766
1.13898e-05
0.000255845
8.53452e-06
0.000256134
5.67427e-06
0.000256628
2.81563e-06
0.000257317
-3.40228e-08
0.000258199
-2.86713e-06
0.00025927
-5.676e-06
0.000260524
-8.45321e-06
0.000261956
-1.11916e-05
0.000263563
-1.38843e-05
0.00026534
-1.65239e-05
0.000267287
-1.91024e-05
-2.1611e-05
0.000269405
0.000500795
8.98294e-05
0.000487119
9.66796e-05
0.000473748
0.000101951
0.000460272
0.000105937
0.0004467
0.000108644
0.000433501
0.000109921
0.000420336
0.000110319
0.00040769
0.000109597
0.000395368
0.000108157
0.000383577
0.000105943
0.000372368
0.000103224
0.000361812
0.000100094
0.000351918
9.66812e-05
0.000342677
9.30792e-05
0.00033407
8.9365e-05
0.000326075
8.56e-05
0.000318676
8.18345e-05
0.00031185
7.81042e-05
0.000305562
7.44331e-05
0.000299774
7.08408e-05
0.000294456
6.73376e-05
0.000289571
6.39291e-05
0.000285091
6.06082e-05
0.000280988
5.73713e-05
0.00027723
5.42106e-05
0.000273794
5.11141e-05
0.00027066
4.80705e-05
0.00026781
4.5064e-05
0.000265235
4.20845e-05
0.000262922
3.91167e-05
0.000260867
3.61513e-05
0.000259064
3.31768e-05
0.000257507
3.01869e-05
0.000256197
2.71722e-05
0.000255125
2.41335e-05
0.000254292
2.10634e-05
0.000253692
1.79679e-05
0.000253321
1.48465e-05
0.000253177
1.17045e-05
0.000253255
8.54897e-06
0.000253551
5.3865e-06
0.000254058
2.2245e-06
0.000254765
-9.29193e-07
0.000255668
-4.06584e-06
0.000256765
-7.17739e-06
0.00025805
-1.02563e-05
0.000259519
-1.32953e-05
0.000261171
-1.62877e-05
0.000263002
-1.9227e-05
0.000265012
-2.21051e-05
-2.49144e-05
0.000267205
0.000489439
0.00010168
0.000475931
0.000108524
0.000462849
0.000114133
0.000450367
0.000118177
0.000437677
0.000121316
0.000425011
0.000122817
0.000412665
0.000123123
0.000400516
0.000122222
0.00038878
0.000120377
0.000377435
0.000117746
0.000366622
0.000114495
0.000356381
0.00011079
0.000346756
0.000106767
0.000337754
0.000102544
0.000329373
9.82131e-05
0.000321605
9.38528e-05
0.000314422
8.95153e-05
0.00030779
8.52403e-05
0.000301681
8.10574e-05
0.000296063
7.69864e-05
0.000290901
7.30378e-05
0.000286161
6.92157e-05
0.000281807
6.55134e-05
0.000277812
6.19257e-05
0.000274146
5.84391e-05
0.000270788
5.50395e-05
0.000267717
5.17073e-05
0.000264918
4.84297e-05
0.00026238
4.51836e-05
0.000260093
4.19604e-05
0.000258053
3.87361e-05
0.000256254
3.55076e-05
0.000254693
3.22563e-05
0.000253371
2.89773e-05
0.000252287
2.56685e-05
0.00025144
2.23179e-05
0.000250826
1.89402e-05
0.000250446
1.55285e-05
0.000250298
1.20896e-05
0.000250375
8.63489e-06
0.000250676
5.16918e-06
0.000251195
1.70175e-06
0.000251923
-1.75844e-06
0.000252855
-5.20101e-06
0.000253983
-8.6178e-06
0.000255306
-1.20017e-05
0.000256819
-1.53454e-05
0.000258518
-1.86425e-05
0.000260403
-2.18875e-05
0.000262474
-2.50739e-05
-2.81954e-05
0.00026474
0.000478927
0.0001138
0.000462617
0.000119753
0.00044884
0.000125156
0.000436246
0.000129438
0.000424551
0.000132589
0.00041306
0.000134237
0.000401805
0.000134618
0.000390684
0.000133686
0.000379823
0.000131646
0.000369284
0.000128708
0.00035914
0.000125058
0.000349462
0.00012088
0.000340306
0.000116332
0.000331704
0.000111555
0.00032368
0.000106659
0.000316235
0.000101734
0.00030935
9.68464e-05
0.000303
9.20477e-05
0.000297156
8.73733e-05
0.000291786
8.28453e-05
0.000286852
7.84734e-05
0.000282312
7.42638e-05
0.000278134
7.02106e-05
0.000274284
6.62986e-05
0.000270742
6.25126e-05
0.000267478
5.88372e-05
0.000264488
5.52466e-05
0.000261744
5.17206e-05
0.000259251
4.82378e-05
0.000256987
4.47768e-05
0.000254964
4.13204e-05
0.000253162
3.78512e-05
0.000251597
3.43586e-05
0.000250261
3.08259e-05
0.000249151
2.7263e-05
0.000248295
2.36328e-05
0.000247669
1.99758e-05
0.000247273
1.62797e-05
0.000247121
1.25432e-05
0.0002472
8.78934e-06
0.000247509
5.01874e-06
0.000248041
1.24357e-06
0.000248789
-2.52648e-06
0.00024975
-6.27682e-06
0.000250915
-1.00026e-05
0.00025228
-1.36944e-05
0.00025384
-1.73452e-05
0.00025559
-2.09498e-05
0.000257531
-2.45042e-05
0.000259666
-2.80045e-05
-3.1447e-05
0.000262001
0.00047588
0.000127787
0.000451517
0.000132108
0.000433796
0.000136096
0.000420227
0.000139481
0.00040858
0.000142436
0.000397906
0.000144183
0.000387705
0.000144639
0.000377784
0.00014371
0.000368051
0.000141623
0.000358573
0.000138505
0.000349386
0.000134588
0.000340562
0.000130051
0.00033216
0.000125083
0.000324227
0.000119849
0.000316785
0.000114473
0.00030984
0.000109057
0.000303399
0.000103682
0.000297448
9.8409e-05
0.00029196
9.32827e-05
0.000286902
8.83314e-05
0.000282246
8.35709e-05
0.000277961
7.9004e-05
0.000274013
7.46318e-05
0.000270366
7.04333e-05
0.00026699
6.63892e-05
0.000263871
6.24754e-05
0.000260973
5.86656e-05
0.000258313
5.49276e-05
0.000255852
5.12403e-05
0.000253624
4.75697e-05
0.000251603
4.39035e-05
0.000249803
4.02128e-05
0.000248233
3.64903e-05
0.000246881
3.27171e-05
0.000245765
2.88929e-05
0.000244861
2.50294e-05
0.000244216
2.10806e-05
0.000243808
1.71079e-05
0.000243646
1.30655e-05
0.000243724
9.00822e-06
0.000244043
4.93115e-06
0.000244597
8.45348e-07
0.000245376
-3.23686e-06
0.000246371
-7.29989e-06
0.000247576
-1.13361e-05
0.000248986
-1.53366e-05
0.000250591
-1.9295e-05
0.00025239
-2.32072e-05
0.000254378
-2.70722e-05
0.000256566
-3.08888e-05
-3.46579e-05
0.000258965
0.000479117
0.00014313
0.000445587
0.000145742
0.000420706
0.000147621
0.000402821
0.000149961
0.00038995
0.000151411
0.000379506
0.000152869
0.000370348
0.000152961
0.000361656
0.000152155
0.000353297
0.000150038
0.000345127
0.000146866
0.000337144
0.000142825
0.000329425
0.000138046
0.000322021
0.000132776
0.000314983
0.00012719
0.000308345
0.00012143
0.000302124
0.000115614
0.00029632
0.000109832
0.000290933
0.000104156
0.000285948
9.86413e-05
0.000281343
9.33257e-05
0.00027708
8.82306e-05
0.000273132
8.33645e-05
0.000269472
7.87182e-05
0.000266068
7.42834e-05
0.000262905
7.00201e-05
0.000259943
6.59192e-05
0.000257193
6.19208e-05
0.000254612
5.80317e-05
0.000252225
5.41589e-05
0.000250014
5.0335e-05
0.000248006
4.64743e-05
0.000246203
4.25984e-05
0.000244596
3.86641e-05
0.000243222
3.46744e-05
0.000242055
3.06093e-05
0.000241137
2.6467e-05
0.000240472
2.22693e-05
0.000240056
1.79813e-05
0.000239875
1.36805e-05
0.000239954
9.29686e-06
0.000240271
4.90672e-06
0.000240833
5.05914e-07
0.000241633
-3.89571e-06
0.000242669
-8.27363e-06
0.000243918
-1.26225e-05
0.000245377
-1.69318e-05
0.000247037
-2.1197e-05
0.000248889
-2.54137e-05
0.000250936
-2.95866e-05
0.000253173
-3.37168e-05
-3.7812e-05
0.000255619
0.000479696
0.00015526
0.000440705
0.00015784
0.00041057
0.000159073
0.000388087
0.000159432
0.000371645
0.000160568
0.000359895
0.000160175
0.000350312
0.000160892
0.000342935
0.000158525
0.00033575
0.00015693
0.000329106
0.000153455
0.000322516
0.000149495
0.000316088
0.000144642
0.000309882
0.000139198
0.000303946
0.000133373
0.000298321
0.000127331
0.000293024
0.000121205
0.000288058
0.000115105
0.000283414
0.000109112
0.000279082
0.000103291
0.000275045
9.76881e-05
0.000271287
9.23296e-05
0.000267779
8.72324e-05
0.000264497
8.2383e-05
0.000261404
7.77776e-05
0.000258498
7.33672e-05
0.000255742
6.91299e-05
0.000253141
6.50092e-05
0.000250692
6.09865e-05
0.000248365
5.70091e-05
0.000246221
5.30288e-05
0.000244204
4.90571e-05
0.000242389
4.4991e-05
0.000240749
4.09005e-05
0.000239327
3.66835e-05
0.000238119
3.2408e-05
0.00023716
2.80038e-05
0.000236444
2.35238e-05
0.000235985
1.89688e-05
0.000235807
1.43297e-05
0.000235857
9.66691e-06
0.000236197
4.94277e-06
0.000236783
2.22384e-07
0.000237607
-4.50663e-06
0.000238674
-9.20482e-06
0.000239969
-1.38681e-05
0.000241478
-1.84858e-05
0.00024319
-2.30528e-05
0.000245094
-2.75682e-05
0.000247185
-3.20383e-05
0.000249458
-3.64728e-05
-4.08852e-05
0.000251933
0.000467231
0.000161903
0.000425774
0.000168666
0.000392615
0.000168454
0.000368591
0.000167875
0.000350477
0.000167739
0.00033853
0.000166796
0.000328847
0.000166231
0.000321006
0.000165372
0.000315461
0.000161431
0.000309971
0.000158797
0.000305103
0.000154363
0.000300268
0.000149543
0.000295544
0.000144043
0.000290969
0.00013811
0.000286576
0.000131913
0.000282397
0.000125596
0.000278451
0.000119285
0.000274738
0.000113077
0.000271246
0.00010705
0.000267954
0.000101256
0.000264845
9.57333e-05
0.000261897
9.04919e-05
0.000259084
8.55371e-05
0.000256403
8.08329e-05
0.000253794
7.63716e-05
0.000251293
7.20594e-05
0.000248867
6.79125e-05
0.000246529
6.38091e-05
0.000244289
5.97802e-05
0.000242148
5.5703e-05
0.000240169
5.16126e-05
0.000238313
4.74385e-05
0.000236663
4.31662e-05
0.000235156
3.87833e-05
0.000233944
3.42602e-05
0.000232881
2.96596e-05
0.000232105
2.48811e-05
0.000231591
2.00494e-05
0.000231382
1.50833e-05
0.000231459
1.00854e-05
0.000231801
5.0365e-06
0.00023244
-2.64779e-08
0.000233304
-5.06968e-06
0.000234415
-1.00971e-05
0.000235757
-1.50764e-05
0.000237306
-2.00002e-05
0.000239062
-2.48625e-05
0.000241004
-2.9664e-05
0.000243121
-3.44146e-05
0.00024541
-3.91316e-05
-4.38407e-05
0.000247875
0.000441494
0.000167316
0.000403455
0.00017164
0.000370843
0.000173831
0.000344941
0.000173901
0.000326379
0.00017308
0.000313075
0.00017182
0.000305393
0.000169701
0.000298321
0.000168635
0.000292776
0.000166218
0.000289217
0.000161727
0.000285586
0.000157703
0.000282304
0.000152764
0.000279145
0.000147238
0.000276074
0.000141266
0.000273102
0.000135008
0.000270245
0.000128607
0.000267512
0.000122193
0.000264911
0.000115875
0.000262425
0.000109748
0.00026004
0.000103869
0.000257725
9.82898e-05
0.00025547
9.30175e-05
0.000253241
8.806e-05
0.000251037
8.3373e-05
0.000248828
7.89481e-05
0.000246609
7.46815e-05
0.000244411
7.05555e-05
0.000242196
6.6489e-05
0.000240051
6.24348e-05
0.000237917
5.83731e-05
0.000235914
5.41951e-05
0.000234011
4.99562e-05
0.000232275
4.5518e-05
0.000230721
4.09844e-05
0.000229371
3.62502e-05
0.000228289
3.13957e-05
0.000227449
2.63545e-05
0.000226919
2.11998e-05
0.000226625
1.59428e-05
0.000226672
1.05888e-05
0.000227013
5.19876e-06
0.000227643
-2.12209e-07
0.000228554
-5.60149e-06
0.000229733
-1.09576e-05
0.000231156
-1.62528e-05
0.000232786
-2.14749e-05
0.000234593
-2.66172e-05
0.000236564
-3.168e-05
0.000238677
-3.66786e-05
0.000240919
-4.16374e-05
-4.65993e-05
0.000243306
0.000394129
0.000165082
0.00036285
0.000171327
0.000335713
0.000174211
0.000314537
0.000174496
0.00029831
0.000174978
0.000286268
0.000173506
0.000278052
0.000172178
0.00027365
0.00016979
0.000269561
0.000167579
0.000266234
0.000163845
0.000264447
0.000159088
0.000262751
0.000154226
0.000261144
0.000148748
0.000259612
0.000142802
0.000258126
0.000136544
0.000256687
0.000130131
0.000255292
0.000123699
0.000253938
0.000117367
0.000252606
0.000111235
0.000251271
0.000105382
0.000249901
9.98589e-05
0.000248458
9.46878e-05
0.000246924
8.98472e-05
0.000245284
8.53216e-05
0.000243533
8.1028e-05
0.000241654
7.69466e-05
0.000239673
7.29335e-05
0.000237622
6.90147e-05
0.000235521
6.50123e-05
0.000233456
6.1013e-05
0.000231387
5.68129e-05
0.000229443
5.25484e-05
0.000227587
4.79874e-05
0.000225959
4.33067e-05
0.000224488
3.83711e-05
0.000223313
3.32644e-05
0.000222357
2.79564e-05
0.000221796
2.24732e-05
0.000221495
1.68747e-05
0.000221498
1.11739e-05
0.000221849
5.41918e-06
0.000222499
-3.46907e-07
0.000223434
-6.08527e-06
0.000224637
-1.17697e-05
0.000226079
-1.73723e-05
0.000227729
-2.28746e-05
0.00022954
-2.82664e-05
0.000231471
-3.3547e-05
0.000233494
-3.87318e-05
0.000235586
-4.38583e-05
-4.89872e-05
0.000237735
0.000331398
0.0001576
0.000309018
0.000163022
0.000288801
0.00016848
0.000272912
0.000170524
0.000261659
0.000171901
0.000253486
0.000171829
0.000248528
0.00017058
0.000245298
0.000169059
0.000243765
0.000166325
0.00024262
0.000163374
0.000241656
0.000158958
0.000241616
0.000153859
0.000241724
0.000148435
0.000241807
0.000142604
0.000241854
0.000136445
0.000241875
0.000130107
0.000241873
0.000123733
0.000241838
0.000117466
0.000241747
0.000111418
0.000241558
0.000105688
0.000241236
0.000100334
0.000240709
9.53953e-05
0.000239967
9.08089e-05
0.000238966
8.65917e-05
0.000237698
8.25841e-05
0.000236204
7.8803e-05
0.000234477
7.50421e-05
0.000232607
7.13465e-05
0.000230576
6.75136e-05
0.000228526
6.36249e-05
0.000226415
5.94832e-05
0.000224405
5.51913e-05
0.000222384
5.06277e-05
0.00022059
4.57689e-05
0.00021902
4.06557e-05
0.000217719
3.52868e-05
0.000216728
2.96781e-05
0.000216001
2.38877e-05
0.000215714
1.78991e-05
0.000215737
1.18389e-05
0.000216057
5.72062e-06
0.000216716
-4.05075e-07
0.000217671
-6.48143e-06
0.000218864
-1.24709e-05
0.000220247
-1.83435e-05
0.000221779
-2.40766e-05
0.000223421
-2.9658e-05
0.00022512
-3.50804e-05
0.000226814