/*--------------------------------*- C++ -*----------------------------------*\
  =========                 |
  \\      /  F ield         | OpenFOAM: The Open Source CFD Toolbox
   \\    /   O peration     | Website:  https://openfoam.org
    \\  /    A nd           | Version:  10
     \\/     M anipulation  |
\*---------------------------------------------------------------------------*/
FoamFile
{
    format      ascii;
    class       volScalarField;
    location    "0.799866";
    object      T;
}
// * * * * * * * * * * * * * * * * * * * * * * * * * * * * * * * * * * * * * //

dimensions      [0 0 0 1 0 0 0];

internalField   nonuniform List<scalar> 
15708
(
0.00867316
0.00867966
0.00867952
0.00868632
0.00869012
0.00869325
0.00869644
0.00869895
0.00870092
0.0087023
0.00870292
0.00870289
0.00870265
0.00870182
0.00870088
0.00869991
0.0086986
0.00869738
0.00869599
0.00869464
0.00869328
0.00869215
0.0086911
0.00869024
0.00868958
0.00868914
0.00868903
0.00868905
0.00868943
0.00869004
0.00869106
0.00869238
0.00869379
0.00869569
0.00869775
0.00870008
0.00870278
0.00870579
0.00870901
0.00871263
0.00871664
0.00872062
0.00872523
0.00872979
0.00873479
0.00873981
0.00874522
0.00875045
0.00875609
0.00876176
0.00876711
0.00867398
0.00867593
0.00868026
0.00868624
0.00868931
0.0086927
0.00869564
0.00869827
0.0087003
0.00870163
0.00870247
0.00870266
0.00870255
0.008702
0.00870131
0.00870036
0.00869929
0.00869823
0.00869696
0.00869576
0.00869463
0.0086935
0.0086926
0.00869187
0.00869135
0.0086911
0.0086911
0.00869123
0.00869182
0.00869248
0.00869357
0.00869489
0.00869656
0.00869837
0.00870064
0.00870307
0.00870583
0.0087089
0.00871209
0.00871571
0.0087197
0.00872364
0.00872832
0.00873271
0.00873792
0.00874278
0.00874813
0.0087535
0.00875903
0.00876479
0.00877048
0.00866774
0.00867843
0.00867727
0.00868694
0.00868543
0.00869185
0.0086951
0.00869735
0.0086992
0.00870067
0.00870155
0.0087019
0.00870183
0.0087015
0.0087008
0.00870012
0.00869921
0.00869836
0.00869737
0.0086964
0.00869543
0.00869459
0.00869386
0.00869336
0.00869291
0.00869291
0.00869299
0.00869333
0.00869399
0.00869494
0.00869602
0.00869752
0.00869917
0.00870104
0.00870343
0.00870584
0.00870876
0.0087117
0.00871518
0.00871866
0.00872265
0.00872671
0.00873125
0.00873575
0.00874081
0.00874579
0.00875117
0.0087565
0.00876205
0.00876776
0.0087735
0.00867398
0.0086704
0.00868128
0.00867975
0.00868793
0.00868964
0.00869316
0.00869585
0.00869806
0.00869982
0.00870095
0.00870147
0.00870146
0.00870124
0.0087007
0.00870004
0.00869937
0.00869856
0.00869778
0.008697
0.00869623
0.00869555
0.00869504
0.00869467
0.0086945
0.00869457
0.00869483
0.00869541
0.00869618
0.00869734
0.00869859
0.00870018
0.00870199
0.00870406
0.00870634
0.00870905
0.00871182
0.00871493
0.00871833
0.00872179
0.00872581
0.00872986
0.00873443
0.00873891
0.0087439
0.00874891
0.00875426
0.00875961
0.00876517
0.00877087
0.00877645
0.00866489
0.00867237
0.00867555
0.00868119
0.00868483
0.00868837
0.00869142
0.00869417
0.00869638
0.0086982
0.00869938
0.00869999
0.00870022
0.00870016
0.00869991
0.00869946
0.00869919
0.00869858
0.00869805
0.0086975
0.00869695
0.00869652
0.00869622
0.00869614
0.00869619
0.00869639
0.00869691
0.00869759
0.00869858
0.00869978
0.00870128
0.00870287
0.0087049
0.00870704
0.00870956
0.00871221
0.00871522
0.00871836
0.00872171
0.00872536
0.00872929
0.00873328
0.00873789
0.00874236
0.00874735
0.00875218
0.00875757
0.00876279
0.00876836
0.00877408
0.00877967
0.00866582
0.00867046
0.00867482
0.00867905
0.00868249
0.00868583
0.00868887
0.00869156
0.0086938
0.00869567
0.00869701
0.00869774
0.00869806
0.00869817
0.00869825
0.0086983
0.00869833
0.0086983
0.00869813
0.00869787
0.00869765
0.00869744
0.00869742
0.00869758
0.00869794
0.00869845
0.00869927
0.00870021
0.00870135
0.00870271
0.00870428
0.00870603
0.00870804
0.00871026
0.00871283
0.00871565
0.00871863
0.00872188
0.00872529
0.00872891
0.00873291
0.00873697
0.00874147
0.00874597
0.00875088
0.00875585
0.00876098
0.00876642
0.00877173
0.00877737
0.00878311
0.00866575
0.00866238
0.00867444
0.00867148
0.00867956
0.00868154
0.00868473
0.00868759
0.00869039
0.00869291
0.00869483
0.00869612
0.00869688
0.00869731
0.00869752
0.00869782
0.00869818
0.00869835
0.00869837
0.00869843
0.00869857
0.00869892
0.00869926
0.00869958
0.0086999
0.00870042
0.0087009
0.00870187
0.00870308
0.00870479
0.00870677
0.00870897
0.00871126
0.00871381
0.00871655
0.00871942
0.00872254
0.00872578
0.00872924
0.0087329
0.00873684
0.00874087
0.00874531
0.00874984
0.00875457
0.00875954
0.00876451
0.00876996
0.00877526
0.00878084
0.00878651
0.0086568
0.00866317
0.00866615
0.00867067
0.00867438
0.0086783
0.00868191
0.00868529
0.00868825
0.00869065
0.0086927
0.00869424
0.00869541
0.00869624
0.00869664
0.00869703
0.0086975
0.00869805
0.00869849
0.00869901
0.00869958
0.00870031
0.00870082
0.00870116
0.00870152
0.00870196
0.00870291
0.00870409
0.00870561
0.00870734
0.00870943
0.00871188
0.00871446
0.00871736
0.00872039
0.00872345
0.00872666
0.00872998
0.0087334
0.00873704
0.00874093
0.00874504
0.00874932
0.00875386
0.00875854
0.0087634
0.00876854
0.00877357
0.00877905
0.0087844
0.00878997
0.00865452
0.00865325
0.00866454
0.0086636
0.00867201
0.00867512
0.00867965
0.00868283
0.00868603
0.00868819
0.00868974
0.00869097
0.00869242
0.00869405
0.00869576
0.00869698
0.00869787
0.00869843
0.00869868
0.008699
0.00869933
0.0086999
0.00870067
0.00870158
0.0087026
0.0087038
0.0087052
0.00870678
0.00870863
0.00871065
0.00871289
0.00871535
0.0087181
0.00872091
0.00872407
0.00872731
0.00873059
0.00873402
0.00873757
0.00874129
0.00874525
0.00874935
0.00875365
0.00875812
0.00876277
0.00876753
0.00877252
0.00877756
0.00878291
0.00878813
0.00879373
0.00864368
0.00865563
0.00865377
0.00866469
0.00866367
0.0086735
0.00867226
0.00868064
0.00868156
0.00868496
0.0086871
0.00868927
0.00869134
0.00869333
0.00869476
0.00869578
0.00869627
0.00869656
0.00869705
0.00869798
0.00869913
0.00870034
0.00870145
0.00870275
0.00870425
0.00870595
0.00870789
0.00870986
0.00871206
0.00871435
0.00871679
0.00871947
0.00872222
0.00872529
0.00872823
0.00873154
0.00873479
0.00873838
0.0087418
0.0087457
0.00874961
0.00875381
0.00875806
0.00876253
0.0087671
0.00877182
0.00877669
0.0087817
0.00878685
0.00879203
0.0087975
0.00864745
0.00864286
0.00865745
0.0086542
0.00866425
0.0086638
0.00867037
0.00867427
0.00867802
0.00868157
0.00868493
0.0086876
0.00868963
0.00869124
0.00869265
0.00869387
0.00869499
0.00869621
0.00869737
0.00869844
0.0086995
0.00870088
0.00870249
0.00870427
0.00870611
0.00870794
0.00870991
0.00871204
0.0087143
0.00871691
0.00871961
0.00872255
0.00872561
0.0087289
0.00873222
0.00873571
0.00873916
0.00874292
0.00874669
0.0087505
0.00875444
0.00875855
0.00876269
0.00876716
0.00877162
0.00877635
0.00878112
0.00878601
0.00879106
0.00879616
0.0088013
0.0086403
0.00863767
0.00865095
0.00864922
0.00866072
0.00865876
0.00866625
0.00866821
0.00867294
0.00867684
0.0086807
0.00868403
0.00868706
0.00868945
0.00869145
0.00869319
0.00869465
0.00869608
0.00869745
0.00869874
0.00869995
0.00870137
0.00870313
0.0087051
0.00870722
0.00870948
0.00871189
0.00871444
0.00871713
0.00871998
0.008723
0.00872618
0.00872948
0.00873298
0.00873646
0.00874016
0.00874372
0.00874749
0.00875122
0.00875532
0.00875928
0.00876351
0.00876776
0.0087721
0.00877646
0.00878097
0.00878558
0.00879036
0.00879522
0.00880029
0.00880531
0.00861205
0.00863794
0.0086313
0.00864891
0.00864514
0.00865876
0.00865681
0.00866773
0.00866747
0.00867355
0.00867744
0.00868108
0.00868404
0.00868696
0.00868928
0.00869137
0.00869294
0.00869445
0.00869598
0.00869767
0.00869954
0.00870154
0.00870371
0.00870604
0.00870845
0.00871112
0.00871387
0.00871681
0.0087199
0.00872314
0.00872657
0.00873008
0.00873363
0.00873719
0.00874092
0.0087447
0.00874851
0.00875234
0.00875622
0.00876026
0.00876442
0.00876843
0.00877261
0.00877692
0.0087813
0.00878586
0.00879043
0.0087951
0.00879988
0.00880466
0.00880963
0.00858526
0.00861191
0.00861638
0.00863622
0.00863439
0.00865186
0.00864984
0.00865982
0.0086649
0.00866935
0.00867342
0.00867696
0.00868002
0.00868303
0.00868557
0.00868791
0.0086899
0.00869203
0.00869431
0.00869668
0.00869904
0.00870155
0.00870407
0.00870668
0.00870965
0.00871268
0.00871602
0.00871928
0.0087227
0.00872622
0.00872991
0.00873369
0.00873755
0.00874143
0.00874532
0.00874911
0.00875312
0.0087572
0.00876135
0.00876527
0.0087694
0.00877348
0.00877779
0.00878214
0.0087866
0.00879099
0.0087955
0.00879998
0.00880452
0.00880921
0.00881386
0.00854231
0.00853521
0.00861653
0.00859856
0.00864318
0.00863407
0.00865295
0.00865295
0.00865984
0.00866444
0.00866939
0.00867356
0.00867689
0.00867981
0.00868252
0.00868543
0.00868846
0.0086913
0.00869396
0.00869662
0.00869936
0.00870209
0.00870497
0.00870785
0.0087108
0.00871402
0.0087174
0.00872113
0.008725
0.00872903
0.00873324
0.00873735
0.00874163
0.0087458
0.00874987
0.00875404
0.00875809
0.00876229
0.00876645
0.00877065
0.00877473
0.00877887
0.00878306
0.00878736
0.0087919
0.00879625
0.0088008
0.00880515
0.0088096
0.00881397
0.00881846
0.00838131
0.00848293
0.00853471
0.00858901
0.00859097
0.00863438
0.00863423
0.00865232
0.00865423
0.0086614
0.00866626
0.00867094
0.00867494
0.00867843
0.0086817
0.00868462
0.00868724
0.0086899
0.00869274
0.00869563
0.00869866
0.00870167
0.00870491
0.00870825
0.00871177
0.0087156
0.00871933
0.00872365
0.0087276
0.00873221
0.00873638
0.00874102
0.00874532
0.00874994
0.00875423
0.0087586
0.00876297
0.00876736
0.00877165
0.00877598
0.00878023
0.0087845
0.00878868
0.00879297
0.00879728
0.00880174
0.00880598
0.00881038
0.00881456
0.00881891
0.0088232
0.00807742
0.00828792
0.00842162
0.00851657
0.00857231
0.00860378
0.00862411
0.00863803
0.00864739
0.00865437
0.00866024
0.00866551
0.00867044
0.008675
0.00867927
0.00868288
0.00868605
0.00868901
0.00869193
0.0086948
0.0086977
0.00870069
0.00870416
0.00870782
0.00871215
0.00871609
0.00872119
0.00872505
0.00873074
0.00873439
0.00874049
0.00874391
0.00875007
0.00875365
0.00875926
0.00876355
0.00876791
0.00877263
0.0087772
0.0087815
0.00878593
0.00879018
0.0087946
0.00879884
0.00880314
0.00880746
0.00881164
0.00881582
0.00881992
0.008824
0.008828
0.00749752
0.00791685
0.00820299
0.00838465
0.00848967
0.00855835
0.00859797
0.00862206
0.00863782
0.00864841
0.00865604
0.00866209
0.00866744
0.00867193
0.00867591
0.00867967
0.00868333
0.00868669
0.00868998
0.00869334
0.00869701
0.00870066
0.00870434
0.00870832
0.00871241
0.00871724
0.00872141
0.00872792
0.00873122
0.00873961
0.00874119
0.00875092
0.00875118
0.00876091
0.00876112
0.00876914
0.00877336
0.00877814
0.00878262
0.00878732
0.00879179
0.00879612
0.00880029
0.00880443
0.00880882
0.00881292
0.00881715
0.00882119
0.00882526
0.00882936
0.00883318
0.00679735
0.00736449
0.00781475
0.00816365
0.00836563
0.00849297
0.00855617
0.00860093
0.00862507
0.00864064
0.00865162
0.00865949
0.00866579
0.00867079
0.00867493
0.00867852
0.00868192
0.00868541
0.00868879
0.00869225
0.00869582
0.00869994
0.00870429
0.00870864
0.00871355
0.00871779
0.00872414
0.00872748
0.00873621
0.00873835
0.00874899
0.00874958
0.00876039
0.00876071
0.00877137
0.0087714
0.0087815
0.0087815
0.00878886
0.00879299
0.00879767
0.00880255
0.00880699
0.00881144
0.0088153
0.00881984
0.00882332
0.00882762
0.008831
0.00883492
0.00883845
0.00617655
0.0067562
0.00734406
0.00776232
0.00814491
0.00833035
0.00850377
0.00855061
0.00860461
0.00862502
0.00864032
0.00865198
0.00866069
0.00866742
0.00867246
0.00867636
0.00867959
0.0086829
0.00868656
0.00869053
0.00869498
0.00869928
0.00870429
0.00870867
0.00871482
0.00871854
0.00872648
0.00872926
0.0087376
0.00874234
0.00874799
0.00875625
0.00875915
0.00876922
0.0087703
0.00878099
0.00878119
0.00879174
0.0087918
0.0088
0.00880398
0.00880855
0.00881306
0.00881812
0.00882204
0.0088266
0.00883013
0.00883417
0.00883738
0.00884098
0.0088444
0.00568557
0.00634008
0.00690384
0.0074942
0.00782691
0.00823359
0.00829626
0.00854996
0.00855368
0.00862539
0.00863636
0.00864756
0.00865662
0.00866367
0.00866926
0.00867399
0.00867788
0.00868149
0.00868507
0.00868906
0.00869366
0.00869841
0.00870372
0.00870919
0.0087138
0.0087216
0.00872479
0.0087349
0.00873679
0.00874877
0.00874952
0.00876151
0.00876196
0.00877368
0.00877536
0.00878157
0.00879077
0.00879329
0.00880223
0.00880321
0.00881139
0.0088132
0.00881851
0.0088234
0.00882776
0.00883237
0.0088368
0.00884039
0.00884409
0.00884716
0.00885048
0.00545969
0.00593222
0.00657214
0.00711842
0.00765216
0.00796973
0.00830244
0.00831986
0.00856542
0.00857039
0.00862303
0.00864268
0.00865361
0.00866154
0.00866763
0.00867244
0.00867639
0.00868015
0.00868363
0.00868791
0.00869211
0.00869781
0.00870243
0.00870925
0.00871339
0.00872168
0.00872602
0.00873444
0.00874047
0.00874701
0.00875688
0.00876005
0.00877137
0.00877306
0.00878458
0.00878566
0.00879664
0.00879732
0.00880605
0.00881213
0.00881682
0.00882235
0.00882703
0.00883184
0.00883555
0.00883931
0.00884285
0.00884688
0.00884982
0.00885351
0.00885647
0.00538087
0.00585984
0.00640818
0.00696909
0.00740635
0.00783885
0.00810353
0.00835516
0.00838861
0.0085624
0.00860083
0.00862478
0.00864368
0.00865609
0.00866449
0.00867044
0.00867514
0.00867929
0.00868307
0.00868721
0.00869157
0.0086967
0.00870224
0.00870823
0.00871442
0.00872009
0.0087284
0.00873376
0.00874433
0.00874814
0.00875961
0.00876246
0.00877476
0.00877669
0.00878911
0.00879008
0.00880162
0.00880473
0.00880954
0.00881742
0.00882301
0.00882829
0.00883396
0.00883893
0.00884376
0.0088477
0.0088513
0.00885487
0.00885818
0.00886113
0.00886381
0.00549341
0.00594455
0.00645832
0.00699527
0.0074199
0.00779019
0.00808008
0.00825784
0.00841778
0.00847055
0.00857803
0.00861572
0.00863433
0.00864744
0.00865771
0.00866576
0.00867229
0.00867757
0.00868242
0.00868707
0.00869204
0.00869632
0.00870321
0.00870704
0.00871638
0.00871977
0.00873123
0.00873353
0.00874679
0.00874849
0.00876261
0.00876378
0.00877413
0.00878707
0.00878956
0.00880184
0.00880268
0.00881318
0.00881935
0.00882242
0.00882991
0.00883624
0.0088408
0.00884551
0.00885003
0.00885518
0.00885978
0.00886409
0.00886796
0.00887203
0.00887533
0.00577182
0.00620601
0.00665377
0.00711508
0.0075036
0.00782548
0.00809598
0.00827403
0.0084001
0.00848593
0.00852879
0.00859402
0.00862811
0.00864401
0.00865474
0.00866303
0.00867009
0.00867588
0.00868148
0.00868654
0.00869226
0.00869644
0.00870416
0.00870805
0.00871855
0.00872197
0.00873352
0.00873647
0.00874895
0.0087519
0.00876552
0.00876769
0.00878096
0.00878368
0.0087994
0.00880019
0.00881454
0.00881457
0.00882491
0.00883278
0.00883588
0.00884354
0.0088493
0.0088544
0.00885915
0.00886377
0.00886809
0.00887191
0.00887495
0.00887816
0.00888218
0.00681475
0.00703614
0.00729393
0.00754027
0.00779976
0.00800463
0.00818883
0.00832308
0.00841594
0.00849684
0.00853664
0.00858062
0.00861319
0.00863422
0.00864713
0.00865603
0.00866384
0.00867048
0.00867735
0.00868332
0.00869026
0.00869535
0.00870347
0.00870822
0.00871829
0.00872385
0.00873696
0.00874122
0.00875508
0.00875765
0.00877145
0.00877324
0.00878632
0.00878793
0.0088003
0.00880828
0.00881623
0.00882233
0.00883218
0.00883603
0.00884432
0.00884767
0.00885562
0.00886027
0.00886312
0.00886639
0.00887006
0.00887327
0.00887493
0.00887832
0.00888258
0.007598
0.00766239
0.00777544
0.00788399
0.00801478
0.0081303
0.00824046
0.00834227
0.0084142
0.00848262
0.00852306
0.00855397
0.00858428
0.00860244
0.00861521
0.00862476
0.00863298
0.00864152
0.00865157
0.0086614
0.0086727
0.00868261
0.00869411
0.00870246
0.0087145
0.00872212
0.00873561
0.00874345
0.00875682
0.00876368
0.00877629
0.00878212
0.00879329
0.00879762
0.00880884
0.00881403
0.00882201
0.00882865
0.00883665
0.00884149
0.00884627
0.00885294
0.00885528
0.00885817
0.00885809
0.00885712
0.00885485
0.00885363
0.00885421
0.00885951
0.00886819
0.00697248
0.00716908
0.00738158
0.00756571
0.00774329
0.00789175
0.00801889
0.00813728
0.00821357
0.00828277
0.00832262
0.00835817
0.00837151
0.00839216
0.00841072
0.00841699
0.00843433
0.00846038
0.00849646
0.00853639
0.00857717
0.00861417
0.00864684
0.00867273
0.00869509
0.00871169
0.00872907
0.00874125
0.00875556
0.00876523
0.00877727
0.00878476
0.00879811
0.00880288
0.00881191
0.00881926
0.00882395
0.00883076
0.00883733
0.00883997
0.00883997
0.00883628
0.00882296
0.00880209
0.00878465
0.00876292
0.00874396
0.00873903
0.00874863
0.00878465
0.00881175
0.00572335
0.00581805
0.00594133
0.00609548
0.00626196
0.00643253
0.0065857
0.00677141
0.00687096
0.00701493
0.00706447
0.00717115
0.00719869
0.00722804
0.00725929
0.00732469
0.00736435
0.00746705
0.00770723
0.00797058
0.00817941
0.00834399
0.0084704
0.00856205
0.00862653
0.00867198
0.00870482
0.00872911
0.00874906
0.00876268
0.00877582
0.00878583
0.00879715
0.00880256
0.00881175
0.00881783
0.00882214
0.00882256
0.00881333
0.0087825
0.00872267
0.00863684
0.00854006
0.00845737
0.00838345
0.00832625
0.00831061
0.0083238
0.00843767
0.00856345
0.00869573
0.00621132
0.0060222
0.00592731
0.00586938
0.00581742
0.00577694
0.00573245
0.00572314
0.00568607
0.0056826
0.00565382
0.00566381
0.00565144
0.00565207
0.00566876
0.00571143
0.00576958
0.00585025
0.00600596
0.00634387
0.00683874
0.00736462
0.00782173
0.00816407
0.00839496
0.0085438
0.00863447
0.00869179
0.00872866
0.00875379
0.00876931
0.00878241
0.00879185
0.00879691
0.00879776
0.00878433
0.00873706
0.00863121
0.00846328
0.0082346
0.00792679
0.00760844
0.00736138
0.00719101
0.00710207
0.00707695
0.00710992
0.0073677
0.00790935
0.00840655
0.00870785
0.00719663
0.00698974
0.00669918
0.00639333
0.00611721
0.00592116
0.00577275
0.00567195
0.00554931
0.00544453
0.00532495
0.00524565
0.00516713
0.00513805
0.00510454
0.00510001
0.00510655
0.0051436
0.00529331
0.00574502
0.00646657
0.00715752
0.00771887
0.0081179
0.00837692
0.00853668
0.00863195
0.00868775
0.00872255
0.00874388
0.00875307
0.00875229
0.00872258
0.00863201
0.00847166
0.00820696
0.00781598
0.00732999
0.00688327
0.00653264
0.00627148
0.00610827
0.00602265
0.00600539
0.00600968
0.00604384
0.0063576
0.00730846
0.00816013
0.00865327
0.00880073
0.00682344
0.00700448
0.0070886
0.0070741
0.00693717
0.00667632
0.0063932
0.00615525
0.00593278
0.00574282
0.00551605
0.00528042
0.00510343
0.0049643
0.00489165
0.00488655
0.00491847
0.00503249
0.00531371
0.00591911
0.00668914
0.00738373
0.00791785
0.00829066
0.00850034
0.00860253
0.00865065
0.00866733
0.00864824
0.00853255
0.00831411
0.00802777
0.00758765
0.00707498
0.00661485
0.00624045
0.00598313
0.005818
0.00569591
0.00560389
0.00549327
0.00547038
0.00546248
0.00541804
0.00544861
0.00581031
0.00671913
0.00805006
0.00864953
0.0085858
0.00766585
0.00646533
0.00696584
0.00728661
0.00736248
0.00735182
0.00725918
0.00707027
0.00678669
0.00642115
0.0059797
0.00551393
0.00518976
0.00495846
0.00487233
0.00485894
0.00490029
0.00502471
0.00533928
0.00599525
0.00695821
0.00775726
0.00821129
0.00842425
0.0084785
0.00845626
0.00830152
0.0079606
0.0075177
0.00698131
0.00643902
0.00601949
0.00575586
0.00561978
0.00557827
0.00555982
0.0055393
0.00551364
0.00548224
0.00543253
0.00538193
0.00535181
0.0052254
0.00511624
0.00521407
0.00551953
0.00640542
0.00800156
0.00834204
0.00790051
0.00617817
0.00547886
0.00643263
0.00688104
0.007113
0.00717404
0.0071646
0.00702471
0.00671499
0.0062961
0.00590553
0.00548552
0.00517925
0.00502655
0.00498025
0.00499814
0.00516564
0.00553441
0.00626884
0.00715577
0.00781229
0.00807881
0.0081168
0.00796813
0.00740937
0.00670056
0.00616471
0.00569957
0.00539941
0.00524646
0.00521663
0.00528035
0.0054197
0.00550619
0.00557033
0.00560822
0.00561698
0.00560671
0.00557009
0.00553236
0.00550025
0.00532924
0.00511963
0.00503418
0.00512445
0.00544831
0.00656626
0.00764747
0.00776638
0.00680428
0.00566741
0.00548963
0.00567463
0.00572495
0.0058592
0.00594322
0.00597522
0.00597802
0.00588075
0.0057125
0.00562555
0.00554581
0.00546685
0.00542233
0.00559417
0.00596781
0.00645964
0.00694821
0.00732454
0.00747389
0.0074283
0.00719651
0.00633743
0.00583115
0.00533039
0.00504491
0.00502141
0.00518694
0.00543614
0.00563963
0.00589007
0.00616536
0.00639841
0.00649701
0.00650135
0.0064583
0.00637906
0.0063179
0.00623564
0.00603174
0.00574682
0.00541455
0.00513613
0.00505904
0.00510924
0.00559843
0.00677662
0.00715807
0.00702625
0.00592643
0.00561622
0.00562689
0.00610458
0.00738842
0.00629374
0.00620243
0.00620775
0.00619403
0.00622947
0.00628853
0.00632289
0.00641904
0.00653963
0.00665494
0.00683766
0.00693179
0.00694774
0.00682531
0.00671137
0.00623921
0.00579532
0.00539476
0.00512478
0.00504177
0.00522816
0.00560481
0.00611913
0.00678249
0.00725517
0.0075471
0.00778139
0.00789071
0.0076219
0.00742922
0.00737014
0.00731603
0.00720267
0.00705268
0.00680025
0.00642322
0.0059894
0.00552263
0.0052343
0.00519219
0.00526231
0.00601738
0.00658417
0.00669789
0.00629793
0.00569369
0.00561858
0.00586761
0.00670019
0.0077547
0.00814548
0.00748113
0.00733688
0.00716099
0.00703695
0.00693739
0.00682629
0.00670159
0.00659013
0.00647658
0.00630888
0.00603347
0.00578363
0.00553944
0.0052935
0.00515643
0.00508983
0.00518711
0.00552335
0.00599418
0.00687687
0.00757041
0.0079043
0.00804891
0.0080229
0.00775366
0.00737526
0.00720702
0.00718149
0.00716823
0.00725189
0.00734571
0.00733183
0.00721099
0.00699774
0.00661071
0.0060351
0.00550959
0.00534979
0.00532336
0.00558382
0.00621544
0.00628864
0.00629624
0.00575586
0.00559199
0.00561361
0.00602357
0.00692129
0.00745153
0.00765263
0.00766834
0.00561919
0.00561701
0.00560288
0.00552909
0.00542731
0.00531122
0.00518584
0.00508324
0.00500131
0.0049485
0.00493635
0.00499516
0.00515465
0.00537876
0.00570415
0.00627447
0.00709559
0.00773676
0.00804116
0.00810008
0.00806571
0.00779907
0.00738311
0.00683852
0.0065161
0.00640269
0.00638581
0.00648517
0.00672148
0.00701066
0.00710229
0.00709311
0.00686804
0.0063092
0.00584166
0.00557272
0.00555319
0.00559491
0.00596668
0.00610871
0.00608864
0.00577795
0.00543588
0.00542474
0.00547773
0.00589729
0.00643877
0.00671868
0.00678661
0.00655492
0.0059921
0.00452476
0.00452377
0.00453991
0.0045721
0.004616
0.00466546
0.00474666
0.00484764
0.00500096
0.00518993
0.0054616
0.00586977
0.00636737
0.00701931
0.0076852
0.00807581
0.00811866
0.00815024
0.00807009
0.00784925
0.00747674
0.00696826
0.00646845
0.00625714
0.00614714
0.00615184
0.00616093
0.00623728
0.00635145
0.00639333
0.00640401
0.00629089
0.00601858
0.00579217
0.00573739
0.00571477
0.00584327
0.00590871
0.00591603
0.00573657
0.00538662
0.00521199
0.00520806
0.0052675
0.00549595
0.00576181
0.00580498
0.00570825
0.00541864
0.00525538
0.00500448
0.00445759
0.0045048
0.00457285
0.00466258
0.00478548
0.00494448
0.00515292
0.00541671
0.00575328
0.00616876
0.00665193
0.00716278
0.00765311
0.00811687
0.00809248
0.00815354
0.00810809
0.00799639
0.00777754
0.00742428
0.00705391
0.00664851
0.00632136
0.00617258
0.00611487
0.00611575
0.0061048
0.00611068
0.00611478
0.0061055
0.00605776
0.00597938
0.00590221
0.00584828
0.00584213
0.005838
0.00579308
0.00568206
0.00529234
0.00502321
0.0050131
0.00497788
0.0050237
0.0051062
0.00515031
0.00513074
0.00501407
0.004951
0.00483783
0.00473805
0.00465112
0.00448961
0.00457262
0.0046808
0.004824
0.00500678
0.00523643
0.00552113
0.00586578
0.00627293
0.00673724
0.00723584
0.00771324
0.00798616
0.00808623
0.00805637
0.00805233
0.00793294
0.00778422
0.00753693
0.00724919
0.00698292
0.00669782
0.00648412
0.00630328
0.00620714
0.00615048
0.00613048
0.00610246
0.00608248
0.00603927
0.0059989
0.00593183
0.00587011
0.00582128
0.0057377
0.00557564
0.00525164
0.00486302
0.00484761
0.00476277
0.00476161
0.00475397
0.00476819
0.00477336
0.00476895
0.0047356
0.00468653
0.00465468
0.00461146
0.00457161
0.00454793
0.00450135
0.00459465
0.00471704
0.00487703
0.00508305
0.00534223
0.00565913
0.00603889
0.00647496
0.0069411
0.00741726
0.00771985
0.00792461
0.0078812
0.00790064
0.00781986
0.00771824
0.0075406
0.00730696
0.00709144
0.00685827
0.00668549
0.00650266
0.00637604
0.00627465
0.0061935
0.00613817
0.00607949
0.00603908
0.00596986
0.00590042
0.00579575
0.00566484
0.0054465
0.00510866
0.00484749
0.00473516
0.00463396
0.00463449
0.00460592
0.00460463
0.00460324
0.00460492
0.00460344
0.00459543
0.00457918
0.00456531
0.00455427
0.00454086
0.00453075
0.00452562
0.00446592
0.00454754
0.00465382
0.00479518
0.00497554
0.00520309
0.00547769
0.00580932
0.00617873
0.00658464
0.00697695
0.00733649
0.00743692
0.00755393
0.00752419
0.00746702
0.0074085
0.00723786
0.00707957
0.00688033
0.0067091
0.00657947
0.00643293
0.00632242
0.00621011
0.00613035
0.00604432
0.00594815
0.00584284
0.00569248
0.00549066
0.00522573
0.00499216
0.00474474
0.00465759
0.00456028
0.00455709
0.00452597
0.00452449
0.00451862
0.00452197
0.0045275
0.00453023
0.00453121
0.00453085
0.00452986
0.00452813
0.00452723
0.00452441
0.00452294
0.00452111
0.00439941
0.00445581
0.00453063
0.00463059
0.00476062
0.00491657
0.00511643
0.00533067
0.00559049
0.00584418
0.00612553
0.0063468
0.00656509
0.00663301
0.00670244
0.00668201
0.00668372
0.00661523
0.0065452
0.00643199
0.00632267
0.00623365
0.00611317
0.00599889
0.00585128
0.00572172
0.00556055
0.00537344
0.00517994
0.00499088
0.00481789
0.00469627
0.0045787
0.00452652
0.00448908
0.0044832
0.00447391
0.00446946
0.00447433
0.00448134
0.00449032
0.00449319
0.00450447
0.00450328
0.00451209
0.00451309
0.0045184
0.0045194
0.00452171
0.00452258
0.00452303
0.00435348
0.00438705
0.0044345
0.00449634
0.00457552
0.00467302
0.00478399
0.00492392
0.00507962
0.00528406
0.00528381
0.00557301
0.00552886
0.00567021
0.00564874
0.00566365
0.00564854
0.00561782
0.00556714
0.00549533
0.00544666
0.00537752
0.00529673
0.00519119
0.00508338
0.00499461
0.00488201
0.00477285
0.0046805
0.00460047
0.00452947
0.00448543
0.004448
0.0044503
0.00443717
0.00443722
0.00444026
0.00444975
0.00445634
0.00447059
0.00446836
0.00448654
0.0044856
0.00450205
0.00450092
0.00451427
0.00451391
0.00452486
0.00452462
0.004532
0.00453287
0.00431634
0.0043352
0.0043599
0.00439556
0.00443938
0.00449579
0.00456214
0.00463496
0.00471429
0.00479335
0.00488253
0.00493208
0.00496744
0.00500684
0.00500101
0.00500342
0.00498706
0.00496636
0.00492398
0.00488831
0.00484866
0.00480877
0.00475267
0.0047007
0.0046498
0.00460882
0.00455031
0.00450921
0.00447889
0.00444636
0.00443018
0.00441353
0.0044141
0.00441233
0.00441387
0.00442142
0.00442779
0.00444026
0.00444664
0.00445738
0.00446658
0.0044775
0.00448537
0.00449673
0.0045031
0.0045131
0.00451935
0.00452747
0.00453453
0.00453739
0.00454347
0.00429446
0.00430429
0.00431695
0.00433431
0.0043576
0.00438591
0.00442003
0.00445859
0.00449979
0.00454118
0.00458177
0.00460631
0.00463579
0.00463154
0.00463733
0.00463223
0.0046245
0.00460734
0.0045835
0.00456439
0.00454154
0.004521
0.00449331
0.00447276
0.0044587
0.00444139
0.0044245
0.00441277
0.00439897
0.0043988
0.0043926
0.00439173
0.00439535
0.00439955
0.00440854
0.00441594
0.00442615
0.00443647
0.0044453
0.00445698
0.00446803
0.00447958
0.00449093
0.00450444
0.00451298
0.00452735
0.00453222
0.00454483
0.00455089
0.00455813
0.00456365
0.00428356
0.00428689
0.00429307
0.00430091
0.0043121
0.0043258
0.00434246
0.00436098
0.00438091
0.00440088
0.00441907
0.0044333
0.00443926
0.00444352
0.00444192
0.00444173
0.00443591
0.00442982
0.00441909
0.00441009
0.00440317
0.00439584
0.00439109
0.00438681
0.00438134
0.00438106
0.0043781
0.00437775
0.00437755
0.00438131
0.00438291
0.00438917
0.00439419
0.00440065
0.00440874
0.00441679
0.00442741
0.00443762
0.00444777
0.00446096
0.00447403
0.00448714
0.00450072
0.00451234
0.00452449
0.00453569
0.00454651
0.00455767
0.00456639
0.00457518
0.004583
0.00427769
0.0042783
0.00427974
0.00428349
0.00428761
0.00429394
0.00430109
0.0043091
0.00431763
0.0043262
0.00433471
0.00434138
0.0043464
0.00434888
0.00435045
0.0043506
0.00434963
0.00434955
0.00434817
0.00434804
0.00434765
0.00434908
0.00434928
0.00435327
0.00435633
0.0043594
0.00436744
0.00436651
0.00437682
0.00437759
0.00438561
0.00439003
0.00439714
0.00440437
0.00441309
0.00442236
0.00443332
0.0044439
0.00445633
0.00447074
0.00448435
0.00449891
0.00451389
0.00452829
0.00454419
0.00455804
0.00457252
0.00458445
0.00459454
0.00460274
0.00460881
0.0042752
0.00427379
0.00427388
0.0042748
0.00427678
0.00427966
0.0042832
0.00428718
0.00429127
0.00429471
0.00429818
0.00430127
0.0043048
0.00430778
0.00431122
0.00431048
0.00431648
0.00431521
0.00432249
0.00432018
0.00433172
0.00433026
0.00434412
0.004343
0.00435531
0.00435644
0.00436587
0.00436856
0.00437636
0.00438195
0.00439086
0.00439581
0.0044058
0.00441372
0.0044235
0.00443476
0.00444819
0.00446323
0.00448161
0.00449939
0.00451941
0.00453889
0.00455931
0.00457932
0.00459767
0.00461622
0.00463243
0.00464722
0.00466058
0.00467181
0.00468043
0.00427353
0.00427098
0.00427108
0.0042708
0.0042717
0.00427297
0.00427466
0.00427673
0.00427901
0.00428167
0.00428431
0.00428682
0.00428944
0.00429222
0.00429555
0.00429897
0.00430311
0.00430744
0.00431176
0.00431892
0.00432431
0.00433232
0.00433811
0.00434496
0.00435412
0.00435975
0.00436775
0.00437472
0.00438532
0.00439098
0.00440273
0.00441006
0.00442298
0.00443397
0.0044498
0.0044642
0.00448096
0.00449253
0.00451021
0.00452116
0.00453714
0.00454975
0.0045651
0.00457797
0.00459267
0.004606
0.00462089
0.00463499
0.00464849
0.004662
0.00467555
0.00877323
0.00877867
0.00878478
0.00879023
0.00879661
0.00880185
0.00880784
0.0088136
0.0088197
0.00882545
0.0088314
0.00883729
0.00884338
0.00884931
0.00885518
0.00886121
0.00886693
0.00887264
0.00887808
0.00888349
0.00888848
0.00889336
0.00889775
0.00890194
0.00890541
0.00890877
0.00877623
0.008782
0.00878783
0.00879376
0.00879954
0.00880554
0.00881135
0.00881736
0.00882321
0.00882887
0.00883489
0.00884064
0.00884637
0.00885259
0.00885802
0.00886395
0.00886945
0.00887496
0.0088803
0.00888522
0.0088901
0.00889456
0.0088988
0.00890249
0.00890584
0.00890865
0.00877934
0.00878532
0.00879073
0.00879747
0.00880237
0.00880901
0.00881449
0.00882059
0.0088266
0.00883238
0.00883809
0.008844
0.00884962
0.00885541
0.00886113
0.00886664
0.00887215
0.00887736
0.0088825
0.00888736
0.00889188
0.00889612
0.00889999
0.00890366
0.00890654
0.00890922
0.00878269
0.00878805
0.0087944
0.00880022
0.00880606
0.00881188
0.00881782
0.00882374
0.00882974
0.00883565
0.00884132
0.00884713
0.00885275
0.0088584
0.00886394