/*--------------------------------*- C++ -*----------------------------------*\
  =========                 |
  \\      /  F ield         | OpenFOAM: The Open Source CFD Toolbox
   \\    /   O peration     | Website:  https://openfoam.org
    \\  /    A nd           | Version:  10
     \\/     M anipulation  |
\*---------------------------------------------------------------------------*/
FoamFile
{
    format      ascii;
    class       volVectorField;
    location    "0.799866";
    object      U;
}
// * * * * * * * * * * * * * * * * * * * * * * * * * * * * * * * * * * * * * //

dimensions      [0 1 -1 0 0 0 0];

internalField   nonuniform List<vector> 
15708
(
(0.624218 -0.137702 0)
(0.606929 -0.131625 0)
(0.589902 -0.125443 0)
(0.573394 -0.119116 0)
(0.557384 -0.112743 0)
(0.541871 -0.106385 0)
(0.526959 -0.100084 0)
(0.512654 -0.0938835 0)
(0.498977 -0.0878115 0)
(0.485943 -0.0818927 0)
(0.473557 -0.0761454 0)
(0.461821 -0.0705804 0)
(0.450736 -0.0652094 0)
(0.440276 -0.0600257 0)
(0.430448 -0.0550306 0)
(0.421256 -0.0502422 0)
(0.41266 -0.0456445 0)
(0.404638 -0.0412292 0)
(0.39717 -0.0369911 0)
(0.390237 -0.0329236 0)
(0.383819 -0.0290193 0)
(0.377893 -0.0252706 0)
(0.372437 -0.0216695 0)
(0.367432 -0.0182084 0)
(0.362858 -0.01488 0)
(0.358692 -0.0116772 0)
(0.354919 -0.0085936 0)
(0.351524 -0.00561757 0)
(0.348487 -0.00275757 0)
(0.345787 2.25734e-06 0)
(0.343413 0.00265512 0)
(0.341352 0.00520683 0)
(0.33959 0.00766141 0)
(0.338116 0.0100213 0)
(0.336922 0.0122842 0)
(0.335996 0.0144525 0)
(0.335331 0.0165241 0)
(0.334918 0.018497 0)
(0.334749 0.0203694 0)
(0.334819 0.0221369 0)
(0.33512 0.0237963 0)
(0.335648 0.0253415 0)
(0.336395 0.026766 0)
(0.337354 0.0280639 0)
(0.338519 0.0292273 0)
(0.33988 0.030249 0)
(0.341425 0.0311212 0)
(0.343145 0.0318372 0)
(0.345023 0.0323906 0)
(0.347042 0.0327769 0)
(0.349184 0.0329941 0)
(0.630033 -0.120021 0)
(0.612937 -0.114281 0)
(0.596075 -0.108339 0)
(0.579618 -0.102351 0)
(0.563564 -0.0963656 0)
(0.548008 -0.090464 0)
(0.532998 -0.084616 0)
(0.518562 -0.0789104 0)
(0.50473 -0.0733583 0)
(0.49152 -0.067977 0)
(0.478946 -0.0627806 0)
(0.467014 -0.0577765 0)
(0.455728 -0.0529705 0)
(0.445077 -0.0483633 0)
(0.43505 -0.0439377 0)
(0.425653 -0.0397159 0)
(0.416869 -0.0356855 0)
(0.408668 -0.0318359 0)
(0.401028 -0.0281591 0)
(0.39393 -0.0246485 0)
(0.387356 -0.021296 0)
(0.381281 -0.0180941 0)
(0.375687 -0.0150358 0)
(0.370551 -0.0121132 0)
(0.365851 -0.00931851 0)
(0.361567 -0.00664393 0)
(0.357685 -0.00407789 0)
(0.354184 -0.00162027 0)
(0.351045 0.000728846 0)
(0.348251 0.00297467 0)
(0.345786 0.00512277 0)
(0.343639 0.00717561 0)
(0.341794 0.00913769 0)
(0.34024 0.011011 0)
(0.338966 0.0127953 0)
(0.337962 0.0144925 0)
(0.337216 0.0161022 0)
(0.336721 0.0176239 0)
(0.336467 0.0190565 0)
(0.336448 0.0203982 0)
(0.336655 0.0216459 0)
(0.337081 0.0227967 0)
(0.33772 0.0238456 0)
(0.338564 0.0247887 0)
(0.339604 0.0256204 0)
(0.340833 0.0263356 0)
(0.342239 0.0269288 0)
(0.343811 0.0273953 0)
(0.345537 0.0277307 0)
(0.3474 0.0279322 0)
(0.349385 0.0279993 0)
(0.635687 -0.102674 0)
(0.618719 -0.097028 0)
(0.601944 -0.0913455 0)
(0.585473 -0.0856455 0)
(0.569364 -0.0800387 0)
(0.553711 -0.0744854 0)
(0.538592 -0.069094 0)
(0.523979 -0.0638548 0)
(0.509967 -0.0588008 0)
(0.496566 -0.0539426 0)
(0.483791 -0.0492877 0)
(0.471654 -0.0448392 0)
(0.46016 -0.0405964 0)
(0.44931 -0.0365607 0)
(0.439088 -0.0327174 0)
(0.429492 -0.0290643 0)
(0.420517 -0.0256045 0)
(0.412138 -0.0223241 0)
(0.404329 -0.0192122 0)
(0.397071 -0.0162612 0)
(0.390345 -0.0134679 0)
(0.384129 -0.0108236 0)
(0.378398 -0.00831379 0)
(0.373131 -0.00592631 0)
(0.368307 -0.00365614 0)
(0.363912 -0.00149619 0)
(0.359925 0.000551485 0)
(0.35632 0.00248576 0)
(0.353084 0.00431978 0)
(0.350199 0.0060584 0)
(0.347647 0.00770695 0)
(0.345418 0.00926645 0)
(0.343496 0.0107423 0)
(0.341866 0.0121346 0)
(0.340518 0.0134464 0)
(0.339441 0.0146788 0)
(0.338624 0.0158329 0)
(0.338056 0.0169095 0)
(0.337729 0.0179085 0)
(0.337633 0.0188293 0)
(0.33776 0.0196706 0)
(0.338103 0.0204313 0)
(0.338653 0.0211084 0)
(0.339402 0.021699 0)
(0.340343 0.0222 0)
(0.341466 0.0226081 0)
(0.342761 0.0229199 0)
(0.344218 0.0231325 0)
(0.345825 0.0232432 0)
(0.347568 0.0232511 0)
(0.349433 0.0231562 0)
(0.641272 -0.0854718 0)
(0.624359 -0.0799174 0)
(0.60756 -0.0744082 0)
(0.591015 -0.0689465 0)
(0.574818 -0.0636464 0)
(0.559039 -0.0584472 0)
(0.543709 -0.053476 0)
(0.528929 -0.0486903 0)
(0.514708 -0.04412 0)
(0.501091 -0.0397748 0)
(0.488098 -0.0356567 0)
(0.475743 -0.031763 0)
(0.464034 -0.0280865 0)
(0.452974 -0.0246234 0)
(0.442555 -0.0213618 0)
(0.432765 -0.0182887 0)
(0.423601 -0.0154044 0)
(0.415047 -0.0127031 0)
(0.407074 -0.010183 0)
(0.399659 -0.00781727 0)
(0.392784 -0.00558195 0)
(0.386427 -0.00346401 0)
(0.380566 -0.00147112 0)
(0.375175 0.000389163 0)
(0.370238 0.00212202 0)
(0.365734 0.00374231 0)
(0.36164 0.00525704 0)
(0.35794 0.00667688 0)
(0.354612 0.0080048 0)
(0.351639 0.00924328 0)
(0.349006 0.0103972 0)
(0.346698 0.0114703 0)
(0.344701 0.0124639 0)
(0.343001 0.0133825 0)
(0.341585 0.0142278 0)
(0.340441 0.0150018 0)
(0.339558 0.0157071 0)
(0.338926 0.0163444 0)
(0.338534 0.0169155 0)
(0.338374 0.0174206 0)
(0.338435 0.0178598 0)
(0.338709 0.0182336 0)
(0.339187 0.0185404 0)
(0.339862 0.0187794 0)
(0.340724 0.018949 0)
(0.341766 0.0190476 0)
(0.342977 0.0190737 0)
(0.344347 0.019026 0)
(0.345865 0.0189037 0)
(0.34752 0.018707 0)
(0.349297 0.0184373 0)
(0.64678 -0.0683355 0)
(0.629857 -0.062854 0)
(0.613002 -0.0574392 0)
(0.596317 -0.0522079 0)
(0.579948 -0.0471361 0)
(0.563962 -0.0423164 0)
(0.548429 -0.0377151 0)
(0.533413 -0.0333722 0)
(0.518957 -0.0292822 0)
(0.505098 -0.0254486 0)
(0.491865 -0.0218675 0)
(0.479279 -0.0185334 0)
(0.467347 -0.0154376 0)
(0.456073 -0.0125696 0)
(0.445451 -0.00991742 0)
(0.435467 -0.00746691 0)
(0.426115 -0.00518869 0)
(0.417379 -0.00304885 0)
(0.409247 -0.00104904 0)
(0.40169 0.000804432 0)
(0.394672 0.00250051 0)
(0.388173 0.0040409 0)
(0.382182 0.00544565 0)
(0.376678 0.00674119 0)
(0.371637 0.00793726 0)
(0.367033 0.00903408 0)
(0.362843 0.010037 0)
(0.359049 0.0109494 0)
(0.355634 0.0117753 0)
(0.35258 0.012519 0)
(0.349869 0.0131848 0)
(0.347488 0.0137765 0)
(0.345421 0.0142959 0)
(0.343654 0.0147472 0)
(0.342174 0.0151328 0)
(0.340969 0.0154555 0)
(0.340028 0.0157176 0)
(0.339338 0.0159219 0)
(0.338891 0.01607 0)
(0.338674 0.0161638 0)
(0.33868 0.0162045 0)
(0.338899 0.0161937 0)
(0.33932 0.0161315 0)
(0.339938 0.0160186 0)
(0.340741 0.0158549 0)
(0.341723 0.0156407 0)
(0.342872 0.0153756 0)
(0.34418 0.0150602 0)
(0.345637 0.014695 0)
(0.347231 0.0142815 0)
(0.348951 0.0138226 0)
(0.65236 -0.0512862 0)
(0.635295 -0.0456923 0)
(0.618261 -0.0404225 0)
(0.601386 -0.035299 0)
(0.58478 -0.0305195 0)
(0.56854 -0.0259786 0)
(0.552738 -0.0217711 0)
(0.537449 -0.0178721 0)
(0.522719 -0.0142845 0)
(0.508592 -0.0109994 0)
(0.495096 -0.00800244 0)
(0.482255 -0.00525678 0)
(0.470083 -0.0027334 0)
(0.458586 -0.000422279 0)
(0.44776 0.00168699 0)
(0.437593 0.00361021 0)
(0.428065 0.00534521 0)
(0.419153 0.00687681 0)
(0.410846 0.00823936 0)
(0.403128 0.00945113 0)
(0.395976 0.0105372 0)
(0.389365 0.0115117 0)
(0.383268 0.0123824 0)
(0.377659 0.0131503 0)
(0.372514 0.0138211 0)
(0.367811 0.0143967 0)
(0.363531 0.0148857 0)
(0.359653 0.0152915 0)
(0.356157 0.0156211 0)
(0.353027 0.0158756 0)
(0.350245 0.01606 0)
(0.347795 0.0161771 0)
(0.345662 0.0162301 0)
(0.343834 0.0162218 0)
(0.342295 0.0161555 0)
(0.341035 0.0160339 0)
(0.34004 0.0158601 0)
(0.3393 0.0156372 0)
(0.338804 0.0153676 0)
(0.338541 0.0150542 0)
(0.338502 0.0146994 0)
(0.338676 0.0143056 0)
(0.339055 0.0138748 0)
(0.339629 0.0134087 0)
(0.34039 0.0129087 0)
(0.34133 0.0123765 0)
(0.342438 0.0118134 0)
(0.343706 0.0112213 0)
(0.345124 0.0106025 0)
(0.346683 0.00995939 0)
(0.348372 0.00929599 0)
(0.65797 -0.0340571 0)
(0.640686 -0.0284582 0)
(0.623408 -0.0231648 0)
(0.606254 -0.0182378 0)
(0.589331 -0.0136962 0)
(0.572788 -0.0095381 0)
(0.556632 -0.0057328 0)
(0.541021 -0.00226234 0)
(0.525976 0.000881372 0)
(0.511552 0.00370594 0)
(0.49778 0.00622855 0)
(0.484674 0.00844726 0)
(0.472247 0.0103731 0)
(0.460507 0.0120403 0)
(0.449452 0.0134786 0)
(0.439074 0.0147154 0)
(0.429362 0.0157765 0)
(0.420297 0.0166856 0)
(0.411855 0.017459 0)
(0.404012 0.0181078 0)
(0.396741 0.0186405 0)
(0.390014 0.0190636 0)
(0.38381 0.0193846 0)
(0.378101 0.0196101 0)
(0.372865 0.0197483 0)
(0.368078 0.0198051 0)
(0.363717 0.0197848 0)
(0.359762 0.0196926 0)
(0.356195 0.0195314 0)
(0.352994 0.0193045 0)
(0.350145 0.019015 0)
(0.347631 0.0186659 0)
(0.345438 0.0182601 0)
(0.343551 0.0178003 0)
(0.341959 0.0172898 0)
(0.340647 0.0167314 0)
(0.339605 0.0161284 0)
(0.33882 0.0154842 0)
(0.338282 0.0148021 0)
(0.337981 0.0140855 0)
(0.337905 0.013338 0)
(0.338046 0.0125628 0)
(0.338392 0.0117631 0)
(0.338937 0.0109418 0)
(0.33967 0.010102 0)
(0.340583 0.00924628 0)
(0.341667 0.00837775 0)
(0.342913 0.00749922 0)
(0.344314 0.00661463 0)
(0.345859 0.00572814 0)
(0.34754 0.00484483 0)
(0.663661 -0.016705 0)
(0.646032 -0.0110594 0)
(0.628415 -0.0057857 0)
(0.61087 -0.000962238 0)
(0.593577 0.00343988 0)
(0.576641 0.00740422 0)
(0.56012 0.010904 0)
(0.544117 0.0139229 0)
(0.528699 0.0165207 0)
(0.51392 0.0187258 0)
(0.49982 0.0205814 0)
(0.486423 0.0221237 0)
(0.473742 0.0233905 0)
(0.461777 0.0244148 0)
(0.450522 0.0252257 0)
(0.439965 0.0258495 0)
(0.43009 0.0263076 0)
(0.420875 0.0266168 0)
(0.412296 0.0267926 0)
(0.404327 0.0268483 0)
(0.396942 0.0267951 0)
(0.390113 0.0266461 0)
(0.383814 0.0264095 0)
(0.378019 0.0260932 0)
(0.372703 0.0257031 0)
(0.367839 0.0252446 0)
(0.363407 0.024721 0)
(0.359384 0.0241371 0)
(0.355749 0.0234934 0)
(0.352486 0.0227941 0)
(0.349576 0.0220405 0)
(0.347004 0.0212348 0)
(0.344756 0.0203795 0)
(0.342817 0.0194771 0)
(0.341175 0.0185304 0)
(0.339817 0.0175426 0)
(0.338732 0.0165172 0)
(0.337908 0.0154577 0)
(0.337335 0.0143681 0)
(0.337001 0.0132523 0)
(0.336897 0.0121145 0)
(0.337013 0.0109589 0)
(0.337337 0.00978989 0)
(0.337862 0.00861127 0)
(0.338579 0.0074274 0)
(0.33948 0.00624223 0)
(0.340555 0.00506001 0)
(0.341797 0.00388566 0)
(0.343197 0.00272409 0)
(0.344748 0.00158054 0)
(0.346441 0.000459953 0)
(0.669296 0.000880732 0)
(0.651311 0.00684006 0)
(0.633277 0.0122085 0)
(0.615242 0.0169393 0)
(0.597454 0.0210863 0)
(0.58005 0.024621 0)
(0.563039 0.0276418 0)
(0.546611 0.0301181 0)
(0.530806 0.0321834 0)
(0.515672 0.0337992 0)
(0.501251 0.0350591 0)
(0.487563 0.0359814 0)
(0.47462 0.0366119 0)
(0.462422 0.0369894 0)
(0.45096 0.037148 0)
(0.44022 0.0371182 0)
(0.430183 0.0369272 0)
(0.420827 0.0365972 0)
(0.412124 0.0361475 0)
(0.404048 0.0355953 0)
(0.396568 0.0349534 0)
(0.389656 0.0342327 0)
(0.38328 0.0334415 0)
(0.377413 0.0325861 0)
(0.372028 0.0316722 0)
(0.3671 0.0307037 0)
(0.362605 0.0296845 0)
(0.358522 0.0286152 0)
(0.35483 0.0274985 0)
(0.351511 0.0263355 0)
(0.348548 0.0251272 0)
(0.345925 0.0238749 0)
(0.343627 0.0225801 0)
(0.341641 0.0212447 0)
(0.339955 0.019871 0)
(0.338556 0.0184621 0)
(0.337434 0.0170214 0)
(0.336576 0.0155528 0)
(0.335972 0.0140605 0)
(0.335612 0.0125491 0)
(0.335486 0.0110233 0)
(0.335583 0.00948822 0)
(0.335894 0.00794923 0)
(0.336409 0.00641104 0)
(0.337121 0.0048789 0)
(0.338021 0.00335826 0)
(0.3391 0.00185503 0)
(0.340351 0.000373327 0)
(0.341767 -0.00108019 0)
(0.34334 -0.00249827 0)
(0.345062 -0.0038732 0)
(0.674707 0.0190524 0)
(0.656225 0.0251369 0)
(0.637642 0.0304024 0)
(0.61913 0.0350081 0)
(0.600822 0.0389075 0)
(0.582896 0.0421368 0)
(0.565412 0.0447071 0)
(0.548537 0.0467423 0)
(0.532319 0.0482274 0)
(0.516783 0.0492393 0)
(0.502024 0.0498413 0)
(0.48802 0.0500862 0)
(0.474805 0.0500251 0)
(0.462373 0.049705 0)
(0.45071 0.0491682 0)
(0.4398 0.0484508 0)
(0.429621 0.0475851 0)
(0.420143 0.0465981 0)
(0.411339 0.0455121 0)
(0.403174 0.0443438 0)
(0.395617 0.0431071 0)
(0.388634 0.041811 0)
(0.382196 0.0404644 0)
(0.376272 0.0390723 0)
(0.370834 0.0376392 0)
(0.365856 0.0361677 0)
(0.361313 0.0346595 0)
(0.357183 0.033115 0)
(0.353444 0.0315346 0)
(0.350079 0.0299181 0)
(0.34707 0.0282655 0)
(0.344402 0.0265768 0)
(0.342061 0.0248527 0)
(0.340034 0.0230942 0)
(0.338309 0.0213033 0)
(0.336874 0.0194821 0)
(0.335718 0.0176341 0)
(0.33483 0.0157631 0)
(0.334201 0.0138738 0)
(0.33382 0.0119708 0)
(0.333677 0.0100596 0)
(0.333763 0.00814599 0)
(0.334067 0.0062362 0)
(0.334581 0.0043358 0)
(0.335297 0.00245135 0)
(0.336206 0.000588866 0)
(0.337301 -0.00124581 0)
(0.338574 -0.00304403 0)
(0.34002 -0.00479918 0)
(0.341631 -0.00650334 0)
(0.3434 -0.00814819 0)
(0.679343 0.037402 0)
(0.660453 0.0437007 0)
(0.641391 0.0490761 0)
(0.622374 0.0536312 0)
(0.603537 0.0572774 0)
(0.585071 0.0601904 0)
(0.567091 0.0622899 0)
(0.54975 0.0637956 0)
(0.533055 0.0646327 0)
(0.517136 0.0649778 0)
(0.502018 0.0648626 0)
(0.487714 0.0643749 0)
(0.474237 0.0635745 0)
(0.461584 0.0625166 0)
(0.449739 0.0612513 0)
(0.438678 0.0598212 0)
(0.428374 0.0582617 0)
(0.418796 0.0566023 0)
(0.409909 0.0548664 0)
(0.401676 0.0530714 0)
(0.394064 0.0512316 0)
(0.387037 0.0493568 0)
(0.38056 0.0474544 0)
(0.374601 0.0455289 0)
(0.369131 0.0435824 0)
(0.364121 0.0416158 0)
(0.359546 0.0396288 0)
(0.355382 0.0376202 0)
(0.351609 0.0355882 0)
(0.348208 0.0335309 0)
(0.345162 0.0314466 0)
(0.342456 0.029334 0)
(0.340077 0.0271923 0)
(0.338013 0.0250216 0)
(0.336251 0.0228229 0)
(0.334782 0.0205981 0)
(0.333596 0.0183503 0)
(0.332682 0.016083 0)
(0.33203 0.0138013 0)
(0.331632 0.0115106 0)
(0.331478 0.00921659 0)
(0.331558 0.0069256 0)
(0.331862 0.00464456 0)
(0.332382 0.00237985 0)
(0.33311 0.000138455 0)
(0.334037 -0.00207234 0)
(0.335159 -0.00424349 0)
(0.336467 -0.00636751 0)
(0.337955 -0.00843709 0)
(0.339616 -0.0104439 0)
(0.341447 -0.0123785 0)
(0.68249 0.0562372 0)
(0.663322 0.0626978 0)
(0.643916 0.0683384 0)
(0.624438 0.0726955 0)
(0.60516 0.0762251 0)
(0.586222 0.0786536 0)
(0.567781 0.080356 0)
(0.549983 0.0811816 0)
(0.532875 0.0813988 0)
(0.516587 0.0809935 0)
(0.501143 0.0801371 0)
(0.48656 0.0788686 0)
(0.472849 0.0772799 0)
(0.460002 0.0754394 0)
(0.447999 0.0734048 0)
(0.436815 0.0712251 0)
(0.426415 0.0689407 0)
(0.416765 0.0665837 0)
(0.407825 0.0641792 0)
(0.399556 0.0617461 0)
(0.391918 0.0592978 0)
(0.384872 0.0568435 0)
(0.378381 0.054388 0)
(0.37241 0.0519341 0)
(0.366927 0.049482 0)
(0.361903 0.0470301 0)
(0.357311 0.044576 0)
(0.353127 0.0421158 0)
(0.34933 0.0396458 0)
(0.345903 0.0371616 0)
(0.342827 0.0346596 0)
(0.34009 0.0321365 0)
(0.337679 0.0295901 0)
(0.335581 0.027019 0)
(0.333788 0.0244233 0)
(0.332289 0.0218043 0)
(0.331075 0.0191647 0)
(0.330137 0.0165082 0)
(0.329467 0.0138395 0)
(0.329055 0.0111643 0)
(0.328893 0.00848934 0)
(0.328972 0.00582121 0)
(0.329282 0.00316769 0)
(0.329814 0.000536435 0)
(0.330562 -0.00206516 0)
(0.331518 -0.0046276 0)
(0.332675 -0.00714315 0)
(0.334027 -0.00960397 0)
(0.335568 -0.0120016 0)
(0.337292 -0.0143267 0)
(0.339197 -0.0165689 0)
(0.682704 0.0750293 0)
(0.663596 0.0820285 0)
(0.644168 0.0877159 0)
(0.62455 0.0921586 0)
(0.60504 0.0954323 0)
(0.585809 0.0975207 0)
(0.567065 0.098706 0)
(0.548917 0.098906 0)
(0.531509 0.0984148 0)
(0.514918 0.0972626 0)
(0.499236 0.0955863 0)
(0.484419 0.0934923 0)
(0.470528 0.091074 0)
(0.457539 0.0884122 0)
(0.445428 0.085574 0)
(0.434165 0.0826154 0)
(0.423714 0.0795814 0)
(0.414033 0.0765077 0)
(0.405079 0.0734212 0)
(0.396808 0.070341 0)
(0.389175 0.0672792 0)
(0.38214 0.0642445 0)
(0.375661 0.0612396 0)
(0.369702 0.0582644 0)
(0.36423 0.0553166 0)
(0.359211 0.052392 0)
(0.35462 0.0494848 0)
(0.350431 0.0465884 0)
(0.346623 0.0436959 0)
(0.343179 0.0408004 0)
(0.340082 0.0378957 0)
(0.33732 0.0349766 0)
(0.334881 0.0320389 0)
(0.332754 0.0290798 0)
(0.330931 0.0260981 0)
(0.329404 0.0230943 0)
(0.328164 0.0200707 0)
(0.327205 0.017031 0)
(0.326518 0.0139803 0)
(0.326096 0.0109246 0)
(0.32593 0.00787088 0)
(0.326011 0.00482696 0)
(0.326332 0.00180093 0)
(0.326881 -0.00119954 0)
(0.327655 -0.00416444 0)
(0.328646 -0.00708536 0)
(0.329847 -0.0099538 0)
(0.331251 -0.0127613 0)
(0.332854 -0.0154989 0)
(0.334652 -0.0181569 0)
(0.336643 -0.0207243 0)
(0.67772 0.0933702 0)
(0.659493 0.101058 0)
(0.64063 0.1068 0)
(0.621447 0.111715 0)
(0.602104 0.114671 0)
(0.583009 0.116669 0)
(0.564234 0.117225 0)
(0.546021 0.116903 0)
(0.528543 0.11562 0)
(0.511825 0.113697 0)
(0.496009 0.111157 0)
(0.481109 0.108194 0)
(0.467139 0.104905 0)
(0.454092 0.101384 0)
(0.441945 0.0977098 0)
(0.430667 0.0939449 0)
(0.420219 0.0901402 0)
(0.410558 0.086334 0)
(0.401635 0.0825545 0)
(0.393403 0.0788201 0)
(0.385816 0.0751431 0)
(0.378829 0.0715297 0)
(0.372398 0.0679809 0)
(0.366482 0.0644941 0)
(0.361047 0.0610634 0)
(0.356058 0.0576808 0)
(0.351487 0.0543371 0)
(0.34731 0.051022 0)
(0.343505 0.047725 0)
(0.340054 0.0444363 0)
(0.336944 0.0411464 0)
(0.334162 0.0378475 0)
(0.331698 0.0345333 0)
(0.329544 0.0311992 0)
(0.327693 0.0278432 0)
(0.326138 0.0244643 0)
(0.324873 0.0210647 0)
(0.323893 0.0176479 0)
(0.32319 0.0142194 0)
(0.322759 0.0107863 0)
(0.32259 0.00735579 0)
(0.322678 0.00393606 0)
(0.323013 0.000536409 0)
(0.323584 -0.00283452 0)
(0.32439 -0.00616664 0)
(0.325423 -0.00945084 0)
(0.326673 -0.0126787 0)
(0.328137 -0.0158415 0)
(0.32981 -0.0189304 0)
(0.33169 -0.0219356 0)
(0.333776 -0.0248457 0)
(0.665228 0.110209 0)
(0.648617 0.11868 0)
(0.631629 0.125479 0)
(0.613712 0.130404 0)
(0.595206 0.133647 0)
(0.576822 0.135244 0)
(0.55847 0.135609 0)
(0.540646 0.134676 0)
(0.523369 0.132788 0)
(0.506859 0.130039 0)
(0.491155 0.126684 0)
(0.47635 0.122844 0)
(0.46246 0.118667 0)
(0.449486 0.114266 0)
(0.437412 0.109735 0)
(0.426213 0.105146 0)
(0.41585 0.100555 0)
(0.406279 0.0960038 0)
(0.397452 0.0915221 0)
(0.389318 0.0871302 0)
(0.381829 0.08284 0)
(0.374936 0.0786546 0)
(0.368593 0.0745735 0)
(0.362758 0.0705891 0)
(0.357392 0.0666927 0)
(0.35246 0.0628718 0)
(0.347932 0.0591125 0)
(0.343784 0.0554001 0)
(0.339995 0.0517201 0)
(0.336549 0.0480585 0)
(0.333431 0.0444027 0)
(0.330633 0.0407419 0)
(0.328147 0.0370675 0)
(0.325965 0.0333722 0)
(0.324084 0.0296536 0)
(0.3225 0.0259087 0)
(0.321209 0.0221411 0)
(0.320206 0.0183535 0)
(0.319487 0.0145515 0)
(0.319047 0.0107433 0)
(0.318877 0.00693727 0)
(0.318973 0.00314237 0)
(0.319324 -0.000632021 0)
(0.319924 -0.00437522 0)
(0.320767 -0.00807781 0)
(0.321845 -0.0117301 0)
(0.323151 -0.0153237 0)
(0.32468 -0.0188495 0)
(0.326428 -0.0222993 0)
(0.328395 -0.0256638 0)
(0.330582 -0.0289326 0)
(0.642847 0.124388 0)
(0.629958 0.134299 0)
(0.615384 0.142171 0)
(0.599553 0.147546 0)
(0.582879 0.151315 0)
(0.566021 0.153078 0)
(0.548966 0.153244 0)
(0.531982 0.15193 0)
(0.515467 0.14946 0)
(0.499472 0.146028 0)
(0.484253 0.141885 0)
(0.469807 0.137211 0)
(0.456223 0.13217 0)
(0.443511 0.126904 0)
(0.43167 0.121522 0)
(0.420683 0.11611 0)
(0.410519 0.110733 0)
(0.401136 0.105438 0)
(0.39249 0.100257 0)
(0.384531 0.0952139 0)
(0.377207 0.0903191 0)
(0.370467 0.0855745 0)
(0.364262 0.0809765 0)
(0.358548 0.0765148 0)
(0.353285 0.0721753 0)
(0.348437 0.06794 0)
(0.343975 0.0637902 0)
(0.339874 0.059706 0)
(0.336114 0.0556676 0)
(0.33268 0.0516575 0)
(0.329562 0.047658 0)
(0.326751 0.0436562 0)
(0.324242 0.039639 0)
(0.322032 0.035598 0)
(0.320118 0.0315298 0)
(0.318501 0.0274274 0)
(0.31718 0.0232988 0)
(0.316151 0.0191447 0)
(0.315414 0.0149721 0)
(0.314963 0.0107912 0)
(0.314792 0.00661022 0)
(0.314897 0.00243958 0)
(0.315268 -0.00171031 0)
(0.315899 -0.00582757 0)
(0.316782 -0.00990293 0)
(0.31791 -0.0139269 0)
(0.319275 -0.0178904 0)
(0.320872 -0.0217858 0)
(0.322698 -0.0256051 0)
(0.324755 -0.0293409 0)
(0.327045 -0.0329836 0)
(0.611223 0.134638 0)
(0.602126 0.146411 0)
(0.591099 0.155605 0)
(0.578587 0.162452 0)
(0.564808 0.166958 0)
(0.550043 0.169306 0)
(0.534705 0.169494 0)
(0.519313 0.168099 0)
(0.504038 0.1652 0)
(0.489147 0.161256 0)
(0.474783 0.156439 0)
(0.461071 0.151018 0)
(0.448095 0.145184 0)
(0.435902 0.139103 0)
(0.42451 0.132908 0)
(0.413916 0.1267 0)
(0.404103 0.120556 0)
(0.395039 0.114533 0)
(0.386686 0.108672 0)
(0.378996 0.102995 0)
(0.371919 0.0975154 0)
(0.365402 0.0922345 0)
(0.359397 0.0871442 0)
(0.353858 0.0822329 0)
(0.348741 0.0774789 0)
(0.344012 0.0728596 0)
(0.339641 0.0683492 0)
(0.335606 0.0639234 0)
(0.331888 0.0595548 0)
(0.328475 0.055224 0)
(0.325359 0.0509049 0)
(0.322536 0.0465809 0)
(0.32 0.0422459 0)
(0.317757 0.0378672 0)
(0.315802 0.0334734 0)
(0.314145 0.0290108 0)
(0.31279 0.0245392 0)
(0.31173 0.0200242 0)
(0.31097 0.0154803 0)
(0.310508 0.010926 0)
(0.310335 0.00636857 0)
(0.310449 0.00182032 0)
(0.310842 -0.00270677 0)
(0.311504 -0.00720097 0)
(0.312431 -0.0116514 0)
(0.313612 -0.0160488 0)
(0.31504 -0.0203847 0)
(0.316709 -0.0246525 0)
(0.318615 -0.0288461 0)
(0.320761 -0.0329601 0)
(0.323151 -0.0369881 0)
(0.572518 0.140881 0)
(0.567328 0.15445 0)
(0.56018 0.165699 0)
(0.551148 0.174178 0)
(0.540399 0.179951 0)
(0.528394 0.183018 0)
(0.515552 0.183797 0)
(0.502191 0.182478 0)
(0.488712 0.179517 0)
(0.47534 0.175222 0)
(0.462283 0.16993 0)
(0.449689 0.16391 0)
(0.437674 0.157402 0)
(0.426309 0.150602 0)
(0.415634 0.143669 0)
(0.405669 0.136724 0)
(0.396411 0.129863 0)
(0.387843 0.123154 0)
(0.379933 0.116647 0)
(0.37264 0.110371 0)
(0.365918 0.10434 0)
(0.359717 0.0985567 0)
(0.353988 0.0930128 0)
(0.348685 0.0876896 0)
(0.343766 0.0825613 0)
(0.339196 0.0775979 0)
(0.33495 0.0727692 0)
(0.331001 0.0680386 0)
(0.327342 0.0633776 0)
(0.323956 0.0587573 0)
(0.320842 0.0541413 0)
(0.318007 0.049532 0)
(0.315437 0.0448762 0)
(0.313155 0.0402011 0)
(0.31115 0.0354632 0)
(0.309442 0.0306938 0)
(0.308057 0.0258501 0)
(0.306944 0.0209928 0)
(0.306154 0.0160683 0)
(0.305677 0.0111495 0)
(0.3055 0.00621363 0)
(0.305625 0.00128415 0)
(0.30604 -0.00362363 0)
(0.306739 -0.00849632 0)
(0.307713 -0.0133235 0)
(0.308951 -0.0180954 0)
(0.310443 -0.0228048 0)
(0.312182 -0.0274463 0)
(0.314166 -0.0320171 0)
(0.316395 -0.036515 0)
(0.318877 -0.0409371 0)
(0.530364 0.144415 0)
(0.527652 0.159466 0)
(0.523819 0.172263 0)
(0.518139 0.182514 0)
(0.510644 0.189744 0)
(0.501574 0.194035 0)
(0.491322 0.19559 0)
(0.480394 0.194728 0)
(0.469102 0.191884 0)
(0.457679 0.187467 0)
(0.446344 0.181906 0)
(0.435258 0.175464 0)
(0.42457 0.168441 0)
(0.414372 0.161062 0)
(0.404726 0.15351 0)
(0.39567 0.145931 0)
(0.387217 0.138437 0)
(0.379364 0.131116 0)
(0.372088 0.124026 0)
(0.365359 0.117207 0)
(0.359133 0.110681 0)
(0.353368 0.10445 0)
(0.348015 0.0985047 0)
(0.34303 0.0928209 0)
(0.338372 0.0873705 0)
(0.334013 0.0821128 0)
(0.329923 0.0770156 0)
(0.326088 0.0720292 0)
(0.322499 0.0671197 0)
(0.319142 0.0622499 0)
(0.316039 0.0573836 0)
(0.313176 0.0525 0)
(0.310567 0.0475666 0)
(0.308237 0.0425887 0)
(0.306175 0.0375375 0)
(0.304407 0.0324311 0)
(0.302948 0.0272565 0)
(0.301799 0.0220154 0)
(0.300966 0.0167594 0)
(0.30048 0.0114431 0)
(0.300284 0.00613794 0)
(0.300415 0.000825266 0)
(0.300854 -0.00446937 0)
(0.301592 -0.00972442 0)
(0.302616 -0.0149296 0)
(0.303913 -0.0200763 0)
(0.305473 -0.0251561 0)
(0.307285 -0.0301681 0)
(0.309344 -0.0351117 0)
(0.311649 -0.0399913 0)
(0.31421 -0.04481 0)
(0.489464 0.145371 0)
(0.48515 0.161576 0)
(0.483837 0.17591 0)
(0.480962 0.187737 0)
(0.476242 0.196603 0)
(0.470046 0.20211 0)
(0.462564 0.204814 0)
(0.454135 0.204206 0)
(0.445213 0.202077 0)
(0.436045 0.197634 0)
(0.426773 0.192073 0)
(0.417534 0.185372 0)
(0.408531 0.177986 0)
(0.399842 0.170172 0)
(0.391546 0.162136 0)
(0.383697 0.154042 0)
(0.376323 0.146026 0)
(0.369434 0.138191 0)
(0.363018 0.130612 0)
(0.35705 0.123338 0)
(0.351495 0.116397 0)
(0.346311 0.109796 0)
(0.341455 0.103522 0)
(0.336887 0.0975518 0)
(0.332568 0.0918469 0)
(0.328479 0.0863639 0)
(0.324591 0.0810508 0)
(0.320897 0.0758639 0)
(0.317394 0.0707599 0)
(0.314083 0.0656748 0)
(0.310969 0.0606105 0)
(0.308076 0.0554694 0)
(0.305412 0.0503139 0)
(0.303011 0.0450376 0)
(0.30087 0.0397173 0)
(0.299027 0.034259 0)
(0.297499 0.028764 0)
(0.296286 0.0231594 0)
(0.295415 0.0175229 0)
(0.294878 0.0118333 0)
(0.294696 0.00612032 0)
(0.294821 0.000430874 0)
(0.295283 -0.00525721 0)
(0.296063 -0.0108913 0)
(0.29714 -0.0164744 0)
(0.2985 -0.0219928 0)
(0.30013 -0.0274387 0)
(0.302013 -0.0328135 0)
(0.304141 -0.0381218 0)
(0.306509 -0.0433747 0)
(0.309128 -0.0485839 0)
(0.445285 0.143575 0)
(0.441649 0.162726 0)
(0.441543 0.177934 0)
(0.440628 0.190982 0)
(0.438289 0.201023 0)
(0.434665 0.207855 0)
(0.429378 0.211117 0)
(0.423777 0.211954 0)
(0.417599 0.209243 0)
(0.410575 0.205737 0)
(0.403686 0.199941 0)
(0.396463 0.193253 0)
(0.389446 0.18569 0)
(0.38258 0.177603 0)
(0.375942 0.16923 0)
(0.369598 0.160764 0)
(0.363588 0.152358 0)
(0.357928 0.144134 0)
(0.352615 0.136182 0)
(0.347629 0.128564 0)
(0.342939 0.121316 0)
(0.338506 0.114448 0)
(0.334292 0.107948 0)
(0.330258 0.101788 0)
(0.326374 0.0959203 0)
(0.322614 0.0903001 0)
(0.318975 0.0848532 0)
(0.315454 0.0795416 0)
(0.312047 0.0742932 0)
(0.308776 0.0690632 0)
(0.30566 0.06381 0)
(0.302718 0.0584996 0)
(0.299994 0.0530884 0)
(0.297493 0.0475941 0)
(0.295255 0.0419468 0)
(0.293305 0.0362302 0)
(0.291691 0.0303488 0)
(0.290387 0.0244271 0)
(0.289453 0.0183655 0)
(0.288885 0.012317 0)
(0.288676 0.00620046 0)
(0.288828 0.000102574 0)
(0.289317 -0.00596853 0)
(0.290151 -0.0119951 0)
(0.291283 -0.0179581 0)
(0.292711 -0.0238459 0)
(0.294411 -0.0296522 0)
(0.29636 -0.0353779 0)
(0.298543 -0.0410347 0)
(0.300951 -0.0466412 0)
(0.30359 -0.0522231 0)
(0.400476 0.143502 0)
(0.398688 0.161706 0)
(0.397085 0.178082 0)
(0.397933 0.192184 0)
(0.397592 0.20329 0)
(0.395941 0.210929 0)
(0.393679 0.214976 0)
(0.389675 0.21622 0)
(0.385993 0.214715 0)
(0.382148 0.21077 0)
(0.377107 0.205501 0)
(0.372492 0.198832 0)
(0.367563 0.191228 0)
(0.362723 0.183033 0)
(0.357981 0.174492 0)
(0.353392 0.165811 0)
(0.348996 0.157164 0)
(0.344812 0.148692 0)
(0.340838 0.140504 0)
(0.337055 0.132676 0)
(0.333433 0.125251 0)
(0.329933 0.118247 0)
(0.326515 0.111648 0)
(0.323141 0.105419 0)
(0.319791 0.0995105 0)
(0.316441 0.0938551 0)
(0.313102 0.0883856 0)
(0.309774 0.0830298 0)
(0.306478 0.0777207 0)
(0.303246 0.072415 0)
(0.300109 0.0670354 0)
(0.2971 0.0615844 0)
(0.294272 0.0559676 0)
(0.291654 0.0502383 0)
(0.289286 0.0443197 0)
(0.287223 0.0382935 0)
(0.28548 0.0320797 0)
(0.284089 0.0257715 0)
(0.283074 0.0193527 0)
(0.282469 0.0128618 0)
(0.282224 0.00635459 0)
(0.282377 -0.000169952 0)
(0.282902 -0.00663985 0)
(0.28378 -0.0130648 0)
(0.284983 -0.0194026 0)
(0.286485 -0.0256464 0)
(0.288252 -0.0317921 0)
(0.290253 -0.0378442 0)
(0.292462 -0.0438168 0)
(0.294859 -0.0497419 0)
(0.297443 -0.0556587 0)
(0.352381 0.143948 0)
(0.351702 0.160708 0)
(0.352291 0.177719 0)
(0.353934 0.192322 0)
(0.354973 0.203825 0)
(0.355199 0.211917 0)
(0.354645 0.21663 0)
(0.354046 0.217949 0)
(0.352301 0.21734 0)
(0.350321 0.213639 0)
(0.348474 0.208559 0)
(0.345783 0.202022 0)
(0.343218 0.194504 0)
(0.340581 0.186318 0)
(0.337894 0.177732 0)
(0.335229 0.16897 0)
(0.332634 0.160222 0)
(0.330123 0.151644 0)
(0.327692 0.143362 0)
(0.325314 0.135467 0)
(0.322952 0.128016 0)
(0.320559 0.121026 0)
(0.318088 0.114481 0)
(0.315505 0.108334 0)
(0.312783 0.102528 0)
(0.309917 0.0969714 0)
(0.306913 0.0915942 0)
(0.303809 0.0863081 0)
(0.30063 0.0810345 0)
(0.297431 0.0757261 0)
(0.294254 0.0703003 0)
(0.291153 0.0647466 0)
(0.288185 0.0589724 0)
(0.285428 0.0530276 0)
(0.282904 0.0468754 0)
(0.28068 0.0405005 0)
(0.278793 0.0339718 0)
(0.277292 0.0272403 0)
(0.276188 0.0204412 0)
(0.27552 0.013519 0)
(0.275264 0.00657006 0)
(0.275426 -0.000367221 0)
(0.275976 -0.00726034 0)
(0.276889 -0.0140785 0)
(0.278132 -0.020792 0)
(0.279668 -0.0273833 0)
(0.281451 -0.0338452 0)
(0.283435 -0.0401822 0)
(0.285575 -0.0464148 0)
(0.287834 -0.0525855 0)
(0.290194 -0.0587583 0)
(0.302602 0.142856 0)
(0.304044 0.159782 0)
(0.305217 0.176773 0)
(0.308214 0.191514 0)
(0.310884 0.203126 0)
(0.312945 0.21142 0)
(0.314729 0.216329 0)
(0.315936 0.218245 0)
(0.316836 0.217044 0)
(0.317225 0.214266 0)
(0.31728 0.20914 0)
(0.317275 0.202793 0)
(0.316919 0.195456 0)
(0.316468 0.187384 0)
(0.315899 0.17886 0)
(0.315257 0.170134 0)
(0.314575 0.161407 0)
(0.313866 0.152852 0)
(0.313119 0.144613 0)
(0.3123 0.136799 0)
(0.311353 0.129478 0)
(0.310217 0.122668 0)
(0.308824 0.11635 0)
(0.307141 0.110459 0)
(0.305128 0.104924 0)
(0.3028 0.0996247 0)
(0.30018 0.0944826 0)
(0.297311 0.08939 0)
(0.29425 0.084263 0)
(0.291076 0.0790294 0)
(0.287843 0.0736267 0)
(0.284613 0.0680125 0)
(0.281494 0.0621415 0)
(0.278568 0.0560053 0)
(0.275845 0.049579 0)
(0.273455 0.0429087 0)
(0.271416 0.0359932 0)
(0.269779 0.0288898 0)
(0.268606 0.0216132 0)
(0.267868 0.0142768 0)
(0.267582 0.00688529 0)
(0.267733 -0.000494646 0)
(0.268273 -0.00779948 0)
(0.269165 -0.0149999 0)
(0.270361 -0.0220609 0)
(0.271805 -0.0289612 0)
(0.273443 -0.0356881 0)
(0.275213 -0.0422409 0)
(0.277048 -0.0486405 0)
(0.278884 -0.0549447 0)
(0.280681 -0.0612434 0)
(0.250213 0.141021 0)
(0.253119 0.157545 0)
(0.257495 0.174729 0)
(0.26191 0.189389 0)
(0.266154 0.200898 0)
(0.270066 0.20911 0)
(0.273706 0.214047 0)
(0.277147 0.215839 0)
(0.280142 0.215077 0)
(0.282722 0.211977 0)
(0.284998 0.207326 0)
(0.287069 0.201157 0)
(0.288968 0.194005 0)
(0.290608 0.186099 0)
(0.292067 0.177732 0)
(0.29339 0.169136 0)
(0.294598 0.160525 0)
(0.295701 0.152094 0)
(0.296679 0.144018 0)
(0.297485 0.136429 0)
(0.298037 0.129411 0)
(0.298246 0.122979 0)
(0.298019 0.117099 0)
(0.297315 0.111683 0)
(0.296074 0.106624 0)
(0.294331 0.101773 0)
(0.292121 0.0970363 0)
(0.28952 0.0922661 0)
(0.286594 0.0874093 0)
(0.283456 0.0823414 0)
(0.280178 0.0770323 0)
(0.276863 0.0714049 0)
(0.273605 0.065477 0)
(0.270503 0.0591658 0)
(0.267635 0.0524935 0)
(0.265096 0.0455144 0)
(0.262923 0.038201 0)
(0.26118 0.0306762 0)
(0.259893 0.0229536 0)
(0.259106 0.0151375 0)
(0.258725 0.00730509 0)
(0.258767 -0.00048772 0)
(0.259153 -0.00817707 0)
(0.259815 -0.0157055 0)
(0.260695 -0.0230469 0)
(0.261724 -0.0301753 0)
(0.262839 -0.0370729 0)
(0.263977 -0.0437273 0)
(0.265057 -0.0501512 0)
(0.26599 -0.0564146 0)
(0.266709 -0.0626516 0)
(0.195796 0.136853 0)
(0.202895 0.15467 0)
(0.209243 0.171288 0)
(0.215431 0.185485 0)