FoamFile
{
    version     2.0;
    format      ascii;
    class       volVectorField;
    object      U;
}
dimensions      [0 1 -1 0 0 0 0];

internalField   nonuniform List<vector>
16384
(
(-0.8902229998312958 0.0312976607699772 0.0)
(-0.8902229998312958 -0.060339095352424134 0.0)
(-0.8902229998312958 0.5887646907500013 0.0)
(-0.8902229998312958 0.16416670387888493 0.0)
(-0.8902229998312958 0.10504524126361506 0.0)
(-0.8902229998312958 -0.3214386974969056 0.0)
(-0.8902229998312958 -0.025115593353503485 0.0)
(-0.8902229998312958 0.07083676498833012 0.0)
(-0.8902229998312958 -0.6198971257205833 0.0)
(-0.8902229998312958 -0.02913572543288498 0.0)
(-0.8902229998312958 0.11024031289758149 0.0)
(-0.8902229998312958 -0.5077938837374919 0.0)
(-0.8902229998312958 -0.6338010461548103 0.0)
(-0.8902229998312958 -0.1914063710415978 0.0)
(-0.8902229998312958 -0.44488729909412744 0.0)
(-0.8902229998312958 -0.4746595745975246 0.0)
(-0.8902229998312958 -0.15950422000128714 0.0)
(-0.8902229998312958 0.1556871476075708 0.0)
(-0.8902229998312958 0.11320082950774962 0.0)
(-0.8902229998312958 0.6211916209317953 0.0)
(-0.8902229998312958 0.10566127268769177 0.0)
(-0.8902229998312958 -0.3708961853257532 0.0)
(-0.8902229998312958 -0.2861420213698345 0.0)
(-0.8902229998312958 0.07948527854767641 0.0)
(-0.8902229998312958 -0.12086460255140856 0.0)
(-0.8902229998312958 -0.16528491006891302 0.0)
(-0.8902229998312958 0.48266967084077916 0.0)
(-0.8902229998312958 -0.08646167408941859 0.0)
(-0.8902229998312958 0.37229474957542613 0.0)
(-0.8902229998312958 0.15472743737544747 0.0)
(-0.8902229998312958 -0.09615911126187522 0.0)
(-0.8902229998312958 -0.23134212204678775 0.0)
(-0.8902229998312958 0.061572261270482785 0.0)
(-0.8902229998312958 0.5463449615917086 0.0)
(-0.8902229998312958 -0.6045435277387666 0.0)
(-0.8902229998312958 -0.14792292104637214 0.0)
(-0.8902229998312958 -0.3836095496313188 0.0)
(-0.8902229998312958 -0.27909261479872016 0.0)
(-0.8902229998312958 0.26180935405813266 0.0)
(-0.8902229998312958 0.12322149756156732 0.0)
(-0.8902229998312958 0.3683206559948528 0.0)
(-0.8902229998312958 0.41470173127816007 0.0)
(-0.8902229998312958 -0.6108948939696562 0.0)
(-0.8902229998312958 0.37266185895234977 0.0)
(-0.8902229998312958 0.22000429726886123 0.0)
(-0.8902229998312958 -0.19114285555555777 0.0)
(-0.8902229998312958 -0.1293683430179768 0.0)
(-0.8902229998312958 -0.029807204834374518 0.0)
(-0.8902229998312958 -0.300744967505307 0.0)
(-0.8902229998312958 -0.23008446857453274 0.0)
(-0.8902229998312958 -0.37006916276810525 0.0)
(-0.8902229998312958 0.4895013932850703 0.0)
(-0.8902229998312958 -0.1079528171134601 0.0)
(-0.8902229998312958 -0.15454915923994217 0.0)
(-0.8902229998312958 -0.12414484292590089 0.0)
(-0.8902229998312958 -0.5255018282601308 0.0)
(-0.8902229998312958 -0.031584231838263296 0.0)
(-0.8902229998312958 -0.2148350377610839 0.0)
(-0.8902229998312958 0.14406054802817436 0.0)
(-0.8902229998312958 0.18537627873297952 0.0)
(-0.8902229998312958 0.26403854382494757 0.0)
(-0.8902229998312958 -0.004536813309182712 0.0)
(-0.8902229998312958 -0.07530826094217177 0.0)
(-0.8902229998312958 0.2708594110261859 0.0)
(-0.8902229998312958 0.08697437773938257 0.0)
(-0.8902229998312958 0.08607662960391135 0.0)
(-0.8902229998312958 -0.03321188508936843 0.0)
(-0.8902229998312958 0.3079883930179267 0.0)
(-0.8902229998312958 -0.2802603873187942 0.0)
(-0.8902229998312958 0.005575510669377823 0.0)
(-0.8902229998312958 -0.5577647904538696 0.0)
(-0.8902229998312958 -0.6032286072316777 0.0)
(-0.8902229998312958 -0.1526154542312484 0.0)
(-0.8902229998312958 -0.06242398723819998 0.0)
(-0.8902229998312958 0.12782269763120732 0.0)
(-0.8902229998312958 -0.37583669250729823 0.0)
(-0.8902229998312958 -0.01562201510248691 0.0)
(-0.8902229998312958 -0.7505146528377259 0.0)
(-0.8902229998312958 -0.09242727891510165 0.0)
(-0.8902229998312958 0.028594209633284733 0.0)
(-0.8902229998312958 -0.29865408247646946 0.0)
(-0.8902229998312958 0.06614203611692174 0.0)
(-0.8902229998312958 0.38251169610436325 0.0)
(-0.8902229998312958 -0.2801415911765265 0.0)
(-0.8902229998312958 -0.09767000909670176 0.0)
(-0.8902229998312958 -0.1246512882022667 0.0)
(-0.8902229998312958 0.09731922042101523 0.0)
(-0.8902229998312958 0.2777423490161515 0.0)
(-0.8902229998312958 0.25643581152987754 0.0)
(-0.8902229998312958 0.5899386478665318 0.0)
(-0.8902229998312958 0.3100506610752675 0.0)
(-0.8902229998312958 0.7439284423468479 0.0)
(-0.8902229998312958 0.06165526182782827 0.0)
(-0.8902229998312958 0.6740223599542521 0.0)
(-0.8902229998312958 -0.22721279183057605 0.0)
(-0.8902229998312958 0.009775221028491437 0.0)
(-0.8902229998312958 0.42250174966305015 0.0)
(-0.8902229998312958 -0.2702793628469283 0.0)
(-0.8902229998312958 -0.06820508340816822 0.0)
(-0.8902229998312958 -0.3589518574755489 0.0)
(-0.8902229998312958 0.2018927718602932 0.0)
(-0.8902229998312958 -0.20443526803761944 0.0)
(-0.8902229998312958 -0.17943005919712865 0.0)
(-0.8902229998312958 0.5378756167868313 0.0)
(-0.8902229998312958 0.47209145869498464 0.0)
(-0.8902229998312958 0.17231837158791383 0.0)
(-0.8902229998312958 0.8736218292592309 0.0)
(-0.8902229998312958 -0.12814166489314427 0.0)
(-0.8902229998312958 0.011380046804374315 0.0)
(-0.8902229998312958 -0.4487138755800229 0.0)
(-0.8902229998312958 0.07769706860035346 0.0)
(-0.8902229998312958 -0.23740381261811577 0.0)
(-0.8902229998312958 -0.10618505928440086 0.0)
(-0.8902229998312958 0.25822433407378276 0.0)
(-0.8902229998312958 -0.7245216706951757 0.0)
(-0.8902229998312958 -0.004083792697288836 0.0)
(-0.8902229998312958 -0.38891315850364516 0.0)
(-0.8902229998312958 0.4320230005386297 0.0)
(-0.8902229998312958 -0.05139115147984712 0.0)
(-0.8902229998312958 -0.19642793380218398 0.0)
(-0.8902229998312958 0.2877633996280353 0.0)
(-0.8902229998312958 -0.18049998836071568 0.0)
(-0.8902229998312958 -0.3557416865289864 0.0)
(-0.8902229998312958 0.31542721407066043 0.0)
(-0.8902229998312958 0.6035347872452784 0.0)
(-0.8902229998312958 -0.29345801782856723 0.0)
(-0.8902229998312958 -0.379504821291447 0.0)
(-0.8902229998312958 -0.36410657098351906 0.0)
(-0.8902229998312958 -0.2934556523445076 0.0)
(-0.8902229998312958 0.17063632534710152 0.0)
(-0.8902229998312958 -0.2533750836546561 0.0)
(-0.8902229998312958 -0.4434147897274494 0.0)
(-0.8902229998312958 -0.06618433219674094 0.0)
(-0.8902229998312958 0.2880509233584953 0.0)
(-0.8902229998312958 -0.6814284182885514 0.0)
(-0.8902229998312958 -0.1799635696389298 0.0)
(-0.8902229998312958 -0.1624846098831163 0.0)
(-0.8902229998312958 0.28659258221710737 0.0)
(-0.8902229998312958 -0.4054040613970529 0.0)
(-0.8902229998312958 -0.10240890023868388 0.0)
(-0.8902229998312958 -0.13351991793601137 0.0)
(-0.8902229998312958 -0.7160294073816261 0.0)
(-0.8902229998312958 -0.1673790587319842 0.0)
(-0.8902229998312958 -0.20579435974743548 0.0)
(-0.8902229998312958 0.1084785128962321 0.0)
(-0.8902229998312958 0.27495745018215056 0.0)
(-0.8902229998312958 0.23337322392975068 0.0)
(-0.8902229998312958 -0.21722121777441294 0.0)
(-0.8902229998312958 -0.12363980970621809 0.0)
(-0.8902229998312958 0.0698351008583907 0.0)
(-0.8902229998312958 -0.03489058272436499 0.0)
(-0.8902229998312958 0.14788501356689315 0.0)
(-0.8902229998312958 -0.5453124758329945 0.0)
(-0.8902229998312958 0.516777512655312 0.0)
(-0.8902229998312958 0.4377131205056327 0.0)
(-0.8902229998312958 -0.40609670436201656 0.0)
(-0.8902229998312958 0.03631115944711273 0.0)
(-0.8902229998312958 -0.08219093629790887 0.0)
(-0.8902229998312958 0.3445694854886014 0.0)
(-0.8902229998312958 -0.21504456631958513 0.0)
(-0.8902229998312958 -0.06121549895712471 0.0)
(-0.8902229998312958 0.3478908261775941 0.0)
(-0.8902229998312958 -0.129718396517474 0.0)
(-0.8902229998312958 0.23080850492972885 0.0)
(-0.8902229998312958 0.4749023043766856 0.0)
(-0.8902229998312958 0.26041134288186946 0.0)
(-0.8902229998312958 0.24310658184478326 0.0)
(-0.8902229998312958 0.1748721429972239 0.0)
(-0.8902229998312958 -0.26510106332005945 0.0)
(-0.8902229998312958 1.32881490711147 0.0)
(-0.8902229998312958 -0.5484808403938409 0.0)
(-0.8902229998312958 -0.04578459762981775 0.0)
(-0.8902229998312958 0.03440105136045012 0.0)
(-0.8902229998312958 -0.4155093867906633 0.0)
(-0.8902229998312958 -0.07767755249368598 0.0)
(-0.8902229998312958 -0.3901236796382882 0.0)
(-0.8902229998312958 -0.22391544129693364 0.0)
(-0.8902229998312958 0.21308479049202925 0.0)
(-0.8902229998312958 0.21207477587797646 0.0)
(-0.8902229998312958 0.09161140777811468 0.0)
(-0.8902229998312958 -0.5355061247356271 0.0)
(-0.8902229998312958 0.08712905010742211 0.0)
(-0.8902229998312958 -0.08899586799777591 0.0)
(-0.8902229998312958 -0.19154110501174842 0.0)
(-0.8902229998312958 0.02918218744591623 0.0)
(-0.8902229998312958 0.33758749163565643 0.0)
(-0.8902229998312958 0.44492317978891066 0.0)
(-0.8902229998312958 0.2220973319891243 0.0)
(-0.8902229998312958 -0.08656721180268283 0.0)
(-0.8902229998312958 0.29015333846266783 0.0)
(-0.8902229998312958 -0.2598610731521007 0.0)
(-0.8902229998312958 -0.3194914074597443 0.0)
(-0.8902229998312958 0.022026942395747602 0.0)
(-0.8902229998312958 -0.5886554102029811 0.0)
(-0.8902229998312958 -0.23551066711082125 0.0)
(-0.8902229998312958 0.1769178912137016 0.0)
(-0.8902229998312958 -0.012851732779467526 0.0)
(-0.8902229998312958 0.41847720254154974 0.0)
(-0.8902229998312958 -0.0583593600629386 0.0)
(-0.8902229998312958 -0.4511141027356331 0.0)
(-0.8902229998312958 0.05981855750397923 0.0)
(-0.8902229998312958 0.3229057838296683 0.0)
(-0.8902229998312958 -0.13384527976371072 0.0)
(-0.8902229998312958 0.03339965452408959 0.0)
(-0.8902229998312958 -0.03641330472673037 0.0)
(-0.8902229998312958 0.5678158150756663 0.0)
(-0.8902229998312958 0.2721497761488798 0.0)
(-0.8902229998312958 -0.06769881494956052 0.0)
(-0.8902229998312958 -0.07834695097281416 0.0)
(-0.8902229998312958 -0.20397283931558266 0.0)
(-0.8902229998312958 0.4678447353637212 0.0)
(-0.8902229998312958 -0.1672546884723329 0.0)
(-0.8902229998312958 -0.19172628509893025 0.0)
(-0.8902229998312958 -0.17749410302401084 0.0)
(-0.8902229998312958 -0.07275198863058893 0.0)
(-0.8902229998312958 -0.1870955931065912 0.0)
(-0.8902229998312958 0.14134233760349135 0.0)
(-0.8902229998312958 -0.34702104572217674 0.0)
(-0.8902229998312958 0.4122273990393638 0.0)
(-0.8902229998312958 0.18085829871683515 0.0)
(-0.8902229998312958 -0.13924781265249436 0.0)
(-0.8902229998312958 -0.07082984520098548 0.0)
(-0.8902229998312958 -0.013505670496114093 0.0)
(-0.8902229998312958 -0.3571644062470222 0.0)
(-0.8902229998312958 -0.6490292110484983 0.0)
(-0.8902229998312958 0.004251713999444822 0.0)
(-0.8902229998312958 0.305342192689656 0.0)
(-0.8902229998312958 -0.004946537008536447 0.0)
(-0.8902229998312958 0.00798984049876727 0.0)
(-0.8902229998312958 0.4386532299501603 0.0)
(-0.8902229998312958 0.4776735782226531 0.0)
(-0.8902229998312958 0.5674924353048486 0.0)
(-0.8902229998312958 0.041861771097225504 0.0)
(-0.8902229998312958 -0.39325835758303285 0.0)
(-0.8902229998312958 0.5659627899719921 0.0)
(-0.8902229998312958 0.09428669473012838 0.0)
(-0.8902229998312958 -0.011666348164249888 0.0)
(-0.8902229998312958 -0.13464980753370143 0.0)
(-0.8902229998312958 0.4732111459157855 0.0)
(-0.8902229998312958 0.3148169783991262 0.0)
(-0.8902229998312958 0.5184018142287986 0.0)
(-0.8902229998312958 0.11185965896379309 0.0)
(-0.8902229998312958 0.2087973216435427 0.0)
(-0.8902229998312958 -0.2860944186314639 0.0)
(-0.8902229998312958 -0.2805168515393522 0.0)
(-0.8902229998312958 0.3725280183125259 0.0)
(-0.8902229998312958 0.5013817939082855 0.0)
(-0.8902229998312958 0.2872279881650645 0.0)
(-0.8902229998312958 -0.2878807542116616 0.0)
(-0.8902229998312958 -0.40972238022166246 0.0)
(-0.8902229998312958 -0.068548845491375 0.0)
(-0.8902229998312958 -0.20033877443632117 0.0)
(-0.8902229998312958 -0.15826646023427549 0.0)
(-0.8902229998312958 -0.6266599388911674 0.0)
(-0.8902229998312958 0.0651444517422544 0.0)
(-0.8902229998312958 -0.3017178714060349 0.0)
(-0.8902229998312957 0.299127375155239 0.0)
(-0.8902229998312957 0.38631269267426854 0.0)
(-0.8902229998312957 -0.09987971173732138 0.0)
(-0.8902229998312957 -0.29040497972284723 0.0)
(-0.8902229998312957 -0.3830346089900793 0.0)
(-0.8902229998312957 0.10059215232409191 0.0)
(-0.8902229998312957 -0.3042329369335538 0.0)
(-0.8902229998312957 0.15895177119561535 0.0)
(-0.8902229998312957 -0.15970767950357004 0.0)
(-0.8902229998312957 0.29110835334342255 0.0)
(-0.8902229998312957 0.14833322241195115 0.0)
(-0.8902229998312957 0.2455888775605291 0.0)
(-0.8902229998312957 -0.013550732891488173 0.0)
(-0.8902229998312957 -0.1062016936520246 0.0)
(-0.8902229998312957 -0.5797884824318408 0.0)
(-0.8902229998312957 -0.48271823799706154 0.0)
(-0.8902229998312957 -0.22098659823873845 0.0)
(-0.8902229998312957 -0.6601552385191313 0.0)
(-0.8902229998312957 -0.23940960012020304 0.0)
(-0.8902229998312957 0.31148525409253025 0.0)
(-0.8902229998312957 0.2832293469295051 0.0)
(-0.8902229998312957 0.26878746026980155 0.0)
(-0.8902229998312957 0.11951602800190038 0.0)
(-0.8902229998312957 -0.007017764982225148 0.0)
(-0.8902229998312957 0.4124861991521068 0.0)
(-0.8902229998312957 -0.17724098920094375 0.0)
(-0.8902229998312957 -0.15995505891346828 0.0)
(-0.8902229998312957 0.2062531164288697 0.0)
(-0.8902229998312957 -0.117843277158113 0.0)
(-0.8902229998312957 0.26992647026339356 0.0)
(-0.8902229998312957 0.19149744297899218 0.0)
(-0.8902229998312957 -0.27019003471613645 0.0)
(-0.8902229998312957 0.12231516897495301 0.0)
(-0.8902229998312957 0.30561787058122225 0.0)
(-0.8902229998312957 -0.21296368789522724 0.0)
(-0.8902229998312957 0.25601037392894754 0.0)
(-0.8902229998312957 0.09075316397315115 0.0)
(-0.8902229998312957 0.05310629194906976 0.0)
(-0.8902229998312957 -0.6394353751990107 0.0)
(-0.8902229998312957 0.24550324053873993 0.0)
(-0.8902229998312957 0.1785137685828319 0.0)
(-0.8902229998312957 -0.2658297163461558 0.0)
(-0.8902229998312957 -0.3654484099622453 0.0)
(-0.8902229998312957 0.49144006853262 0.0)
(-0.8902229998312957 -0.0006421013621317171 0.0)
(-0.8902229998312957 0.020366474065453364 0.0)
(-0.8902229998312957 0.14244086887477264 0.0)
(-0.8902229998312957 0.11511375116440328 0.0)
(-0.8902229998312957 -0.5696407201752764 0.0)
(-0.8902229998312957 0.14291048489905261 0.0)
(-0.8902229998312957 -0.16235960298956167 0.0)
(-0.8902229998312957 0.017753497001327237 0.0)
(-0.8902229998312957 -0.3114126485109266 0.0)
(-0.8902229998312957 -0.19879968068849835 0.0)
(-0.8902229998312957 -0.3232509326371193 0.0)
(-0.8902229998312957 -0.3804262246563822 0.0)
(-0.8902229998312957 0.08096627428985652 0.0)
(-0.8902229998312957 -0.2766197305593295 0.0)
(-0.8902229998312957 -0.09518535202119996 0.0)
(-0.8902229998312957 -0.1872274213277612 0.0)
(-0.8902229998312957 0.01385944201409783 0.0)
(-0.8902229998312957 -0.09513491030645516 0.0)
(-0.8902229998312957 -0.2144250607356771 0.0)
(-0.8902229998312957 -0.5368589558554335 0.0)
(-0.8902229998312957 -0.21317499806494714 0.0)
(-0.8902229998312957 0.18330194517084739 0.0)
(-0.8902229998312957 0.32584757747494913 0.0)
(-0.8902229998312957 -0.04964382040991281 0.0)
(-0.8902229998312957 -0.24117510965701658 0.0)
(-0.8902229998312957 -0.16409866194074496 0.0)
(-0.8902229998312957 -0.05119326745607476 0.0)
(-0.8902229998312957 -0.054071351768076814 0.0)
(-0.8902229998312957 -0.17417797357903322 0.0)
(-0.8902229998312957 -0.17576934844309716 0.0)
(-0.8902229998312957 -0.0105986015887098 0.0)
(-0.8902229998312957 0.45474610423046447 0.0)
(-0.8902229998312957 0.053252401112893845 0.0)
(-0.8902229998312957 -0.2351968475151394 0.0)
(-0.8902229998312957 -0.1004400780414591 0.0)
(-0.8902229998312957 -0.031007176751014675 0.0)
(-0.8902229998312957 -0.15071738513641025 0.0)
(-0.8902229998312957 0.5274006212945284 0.0)
(-0.8902229998312957 -0.2147437933497968 0.0)
(-0.8902229998312957 -0.6254293583468606 0.0)
(-0.8902229998312957 -0.9526415305857269 0.0)
(-0.8902229998312957 -0.47902604168780266 0.0)
(-0.8902229998312957 0.49667272083289454 0.0)
(-0.8902229998312957 0.22974013117556297 0.0)
(-0.8902229998312957 0.3013415971122301 0.0)
(-0.8902229998312957 -0.08479140354550287 0.0)
(-0.8902229998312957 0.22475410140992735 0.0)
(-0.8902229998312957 -0.5068772394957345 0.0)
(-0.8902229998312957 0.6424776924897961 0.0)
(-0.8902229998312957 0.19582245167193402 0.0)
(-0.8902229998312957 0.2279658920693375 0.0)
(-0.8902229998312957 -0.566406126935989 0.0)
(-0.8902229998312957 0.13957093814025315 0.0)
(-0.8902229998312957 0.32073047687147593 0.0)
(-0.8902229998312957 0.36168731133279697 0.0)
(-0.8902229998312957 -0.6584774680728147 0.0)
(-0.8902229998312957 0.06906195748423079 0.0)
(-0.8902229998312957 0.0787187627174157 0.0)
(-0.8902229998312957 -0.21167060131124205 0.0)
(-0.8902229998312957 -0.03244301108780497 0.0)
(-0.8902229998312957 0.008676258716835705 0.0)
(-0.8902229998312957 0.21425558794259728 0.0)
(-0.8902229998312957 0.4172050361908866 0.0)
(-0.8902229998312957 -0.20767482687101335 0.0)
(-0.8902229998312957 0.5475721676937196 0.0)
(-0.8902229998312957 -0.3249379197990892 0.0)
(-0.8902229998312957 -0.278951335794778 0.0)
(-0.8902229998312957 0.6612527062940788 0.0)
(-0.8902229998312957 -0.1706478133243012 0.0)
(-0.8902229998312957 0.15854582916733326 0.0)
(-0.8902229998312957 0.14455203370049816 0.0)
(-0.8902229998312957 -0.6880903466142942 0.0)
(-0.8902229998312957 -0.525703965496794 0.0)
(-0.8902229998312957 -0.08920142442184048 0.0)
(-0.8902229998312957 -0.4283186922773343 0.0)
(-0.8902229998312957 0.15203782143582606 0.0)
(-0.8902229998312957 -0.769385310807618 0.0)
(-0.8902229998312957 -0.07523317010225224 0.0)
(-0.8902229998312957 0.5486910934593355 0.0)
(-0.8902229998312957 -0.22869838475577112 0.0)
(-0.8902229998312957 0.051345231752008405 0.0)
(-0.8902229998312957 -0.4027252514073104 0.0)
(-0.8902229998312957 -0.49264606991693916 0.0)
(-0.8902229998312957 0.15814973894807471 0.0)
(-0.890222999831295 -0.17187370356025705 0.0)
(-0.890222999831295 -0.23567504595251335 0.0)
(-0.890222999831295 -0.21593284468267365 0.0)
(-0.890222999831295 -0.25970153636417814 0.0)
(-0.890222999831295 0.023612046851365726 0.0)
(-0.890222999831295 -0.14481796181710624 0.0)
(-0.890222999831295 -0.40510083057712787 0.0)
(-0.890222999831295 0.1094409212361323 0.0)
(-0.890222999831295 0.08015706937667075 0.0)
(-0.890222999831295 0.3401313212418326 0.0)
(-0.890222999831295 -0.13548559751923034 0.0)
(-0.890222999831295 -0.7740453007764552 0.0)
(-0.890222999831295 0.3285840310242918 0.0)
(-0.890222999831295 -0.06304734655205808 0.0)
(-0.890222999831295 0.21263394506038563 0.0)
(-0.890222999831295 -0.002930785769225744 0.0)
(-0.890222999831295 0.11291816510889713 0.0)
(-0.890222999831295 0.2655978251503485 0.0)
(-0.890222999831295 -0.35490193878589843 0.0)
(-0.890222999831295 -0.06987515068792498 0.0)
(-0.890222999831295 0.11321125617552297 0.0)
(-0.890222999831295 -0.48918245997406545 0.0)
(-0.890222999831295 -0.026648102396959788 0.0)
(-0.890222999831295 -0.03778448753214577 0.0)
(-0.890222999831295 0.5348714746766842 0.0)
(-0.890222999831295 -0.2764215644225112 0.0)
(-0.890222999831295 -0.15639986550725496 0.0)
(-0.890222999831295 0.0364643534590441 0.0)
(-0.890222999831295 -0.36294887778290386 0.0)
(-0.890222999831295 0.31277923957139325 0.0)
(-0.890222999831295 -0.5053048043545832 0.0)
(-0.890222999831295 -0.3243575121590984 0.0)
(-0.890222999831295 0.21759894798162893 0.0)
(-0.890222999831295 -0.09668389337416751 0.0)
(-0.890222999831295 0.18916677045390823 0.0)
(-0.890222999831295 0.12063245934148922 0.0)
(-0.890222999831295 0.04734236909385163 0.0)
(-0.890222999831295 -0.36129290237845463 0.0)
(-0.890222999831295 -0.012035995832950189 0.0)
(-0.890222999831295 -0.2041748739793454 0.0)
(-0.890222999831295 0.014122982382848153 0.0)
(-0.890222999831295 0.3276321959476194 0.0)
(-0.890222999831295 -0.5322825055810672 0.0)
(-0.890222999831295 0.18987617861729636 0.0)
(-0.890222999831295 0.18863498567019651 0.0)
(-0.890222999831295 0.07771467053679897 0.0)
(-0.890222999831295 0.15509200302999512 0.0)
(-0.890222999831295 0.3171431746653634 0.0)
(-0.890222999831295 0.018912094567821763 0.0)
(-0.890222999831295 -0.121540970844289 0.0)
(-0.890222999831295 -0.1049580219166416 0.0)
(-0.890222999831295 0.24202883897365857 0.0)
(-0.890222999831295 -0.17454284405666307 0.0)
(-0.890222999831295 -0.12635785206528055 0.0)
(-0.890222999831295 0.30145376163730747 0.0)
(-0.890222999831295 0.4015465532247241 0.0)
(-0.890222999831295 0.15164962760180092 0.0)
(-0.890222999831295 0.20121176151619025 0.0)
(-0.890222999831295 0.5459388994227903 0.0)
(-0.890222999831295 0.37529607402044296 0.0)
(-0.890222999831295 -0.078195037055395 0.0)
(-0.890222999831295 -0.22275297815792447 0.0)
(-0.890222999831295 -0.45889064553949577 0.0)
(-0.890222999831295 -0.6200565257903755 0.0)
(-0.890222999831295 -0.18832074750559932 0.0)
(-0.890222999831295 -0.1357001434356888 0.0)
(-0.890222999831295 -0.22390466044010152 0.0)
(-0.890222999831295 0.3616156059635606 0.0)
(-0.890222999831295 0.022809403531077816 0.0)
(-0.890222999831295 -0.2683060799605168 0.0)
(-0.890222999831295 0.31939228940037395 0.0)
(-0.890222999831295 0.5814020106258824 0.0)
(-0.890222999831295 -0.5532279995683749 0.0)
(-0.890222999831295 -0.10060441318495314 0.0)
(-0.890222999831295 -0.17898433275313566 0.0)
(-0.890222999831295 0.35874221093024683 0.0)
(-0.890222999831295 -0.05959883040819496 0.0)
(-0.890222999831295 -0.30016766892186264 0.0)
(-0.890222999831295 -0.10196120141380555 0.0)
(-0.890222999831295 0.07183983768990787 0.0)
(-0.890222999831295 -0.41429161856678076 0.0)
(-0.890222999831295 0.102713779029537 0.0)
(-0.890222999831295 -0.014078795751091427 0.0)
(-0.890222999831295 -0.0509930652644522 0.0)
(-0.890222999831295 0.6080175230972552 0.0)
(-0.890222999831295 -0.7455067635779834 0.0)
(-0.890222999831295 -0.5524166794715903 0.0)
(-0.890222999831295 -0.2833661243069345 0.0)
(-0.890222999831295 0.06079997556898929 0.0)
(-0.890222999831295 0.08265402320464225 0.0)
(-0.890222999831295 -0.3295563295219041 0.0)
(-0.890222999831295 -0.3321758407657659 0.0)
(-0.890222999831295 -0.20733174169447055 0.0)
(-0.890222999831295 -0.08941712915875415 0.0)
(-0.890222999831295 0.47172893942676636 0.0)
(-0.890222999831295 0.37413146400222946 0.0)
(-0.890222999831295 0.02672374489533645 0.0)
(-0.890222999831295 0.1293126223830913 0.0)
(-0.890222999831295 -0.4785716910437804 0.0)
(-0.890222999831295 -0.18283437778319758 0.0)
(-0.890222999831295 0.28042045918710695 0.0)
(-0.890222999831295 0.09438819184149892 0.0)
(-0.890222999831295 -0.02702027818229378 0.0)
(-0.890222999831295 0.18500723303797956 0.0)
(-0.890222999831295 -0.6361511915860056 0.0)
(-0.890222999831295 0.15343674837250793 0.0)
(-0.890222999831295 0.3724886701555329 0.0)
(-0.890222999831295 -0.10689933735749865 0.0)
(-0.890222999831295 0.0324034603868621 0.0)
(-0.890222999831295 -0.06600140641175456 0.0)
(-0.890222999831295 0.43323920375804464 0.0)
(-0.890222999831295 0.1432957190778156 0.0)
(-0.890222999831295 0.018018815024569878 0.0)
(-0.890222999831295 0.3954267824608498 0.0)
(-0.890222999831295 0.2763610813920865 0.0)
(-0.890222999831295 0.45010169588158133 0.0)
(-0.890222999831295 0.031205278405766996 0.0)
(-0.890222999831295 -0.06897548646311588 0.0)
(-0.890222999831295 0.2012392480803542 0.0)
(-0.890222999831295 0.8617522937112124 0.0)
(-0.890222999831295 -0.020124642154156925 0.0)
(-0.890222999831295 -0.10243675408829236 0.0)
(-0.890222999831295 0.42932265006994935 0.0)
(-0.890222999831295 -0.1594846018467902 0.0)
(-0.890222999831295 0.3958795102756735 0.0)
(-0.890222999831295 -0.07175176310202487 0.0)
(-0.890222999831295 -0.23076514084173627 0.0)
(-0.890222999831295 0.5265496140272189 0.0)
(-0.8902229998312929 0.23642796083747422 0.0)
(-0.8902229998312929 0.07169487312404181 0.0)
(-0.8902229998312929 0.025129389863187444 0.0)
(-0.8902229998312929 0.20237999967045328 0.0)
(-0.8902229998312929 -0.3579366541606635 0.0)
(-0.8902229998312929 0.6310283016267632 0.0)
(-0.8902229998312929 0.22358851646226507 0.0)
(-0.8902229998312929 0.7777085743918459 0.0)
(-0.8902229998312929 -0.12929426657685242 0.0)
(-0.8902229998312929 -0.37456732606377585 0.0)
(-0.8902229998312929 -0.26436771338236786 0.0)
(-0.8902229998312929 0.17389830005275284 0.0)
(-0.8902229998312929 -0.5907355981614614 0.0)
(-0.8902229998312929 -0.32194196988565776 0.0)
(-0.8902229998312929 -0.11260427050948606 0.0)
(-0.8902229998312929 -0.181313269795051 0.0)
(-0.8902229998312929 0.11188103622656145 0.0)
(-0.8902229998312929 0.3737292512425399 0.0)
(-0.8902229998312929 -0.2283641557356156 0.0)
(-0.8902229998312929 0.0808878253861214 0.0)
(-0.8902229998312929 0.03405534526841334 0.0)
(-0.8902229998312929 -0.0006935902492637289 0.0)
(-0.8902229998312929 -0.3805294484041612 0.0)
(-0.8902229998312929 0.017857430870681427 0.0)
(-0.8902229998312929 0.2916872862756391 0.0)
(-0.8902229998312929 0.10084397760966578 0.0)
(-0.8902229998312929 0.17320699789047408 0.0)
(-0.8902229998312929 0.11110672561787945 0.0)
(-0.8902229998312929 -0.0899891666586739 0.0)
(-0.8902229998312929 0.7151737085276748 0.0)
(-0.8902229998312929 -0.4253326265047457 0.0)
(-0.8902229998312929 0.10492383985592114 0.0)
(-0.8902229998312929 0.543571013407549 0.0)
(-0.8902229998312929 -0.26940564644058945 0.0)
(-0.8902229998312929 0.06644501722067767 0.0)
(-0.8902229998312929 -0.6234211131367766 0.0)
(-0.8902229998312929 -0.272705573475747 0.0)
(-0.8902229998312929 -0.025905029190610957 0.0)
(-0.8902229998312929 -0.012738496747416535 0.0)
(-0.8902229998312929 0.02658998842927253 0.0)
(-0.8902229998312929 0.3779091985166238 0.0)
(-0.8902229998312929 0.05641691102841034 0.0)
(-0.8902229998312929 -0.1968630768186579 0.0)
(-0.8902229998312929 -0.5660360950508541 0.0)
(-0.8902229998312929 0.027359003571362724 0.0)
(-0.8902229998312929 -0.20409262675476653 0.0)
(-0.8902229998312929 0.029316284523650638 0.0)
(-0.8902229998312929 -0.1905621753777472 0.0)
(-0.8902229998312929 -0.006237288508018767 0.0)
(-0.8902229998312929 -0.2172514475860306 0.0)
(-0.8902229998312929 0.42540909073892846 0.0)
(-0.8902229998312929 0.21065993417649295 0.0)
(-0.8902229998312929 -0.13181891620719569 0.0)
(-0.8902229998312929 0.3002087036422206 0.0)
(-0.8902229998312929 -0.31286906545165716 0.0)
(-0.8902229998312929 -0.3696682747769232 0.0)
(-0.8902229998312929 0.22806695310118658 0.0)
(-0.8902229998312929 0.47729159669085824 0.0)
(-0.8902229998312929 -0.0529469894238449 0.0)
(-0.8902229998312929 0.10381662319381682 0.0)
(-0.8902229998312929 0.3551354795597724 0.0)
(-0.8902229998312929 -0.24220053862017196 0.0)
(-0.8902229998312929 -0.0886250154463142 0.0)
(-0.8902229998312929 -0.19074801243728232 0.0)
(-0.8902229998312929 0.5203583552356942 0.0)
(-0.8902229998312929 -0.556564992616773 0.0)
(-0.8902229998312929 -0.15953965282878974 0.0)
(-0.8902229998312929 0.0018627303468148723 0.0)
(-0.8902229998312929 0.44821443106636266 0.0)
(-0.8902229998312929 -0.32626856932372506 0.0)
(-0.8902229998312929 -0.4546182641624453 0.0)
(-0.8902229998312929 -0.02259293834344004 0.0)
(-0.8902229998312929 0.02988674296106546 0.0)
(-0.8902229998312929 -0.07541900287134726 0.0)
(-0.8902229998312929 -0.14714169006695704 0.0)
(-0.8902229998312929 -0.0942560559887175 0.0)
(-0.8902229998312929 0.726935814416539 0.0)
(-0.8902229998312929 0.11207345492266794 0.0)
(-0.8902229998312929 -0.13607306880082615 0.0)
(-0.8902229998312929 0.11919457097139938 0.0)
(-0.8902229998312929 0.20535545778597036 0.0)
(-0.8902229998312929 0.19022415364816128 0.0)
(-0.8902229998312929 0.018776033410162728 0.0)
(-0.8902229998312929 -0.14109931926850777 0.0)
(-0.8902229998312929 0.14472528596851364 0.0)
(-0.8902229998312929 -0.5192930068521446 0.0)
(-0.8902229998312929 0.17092634304502718 0.0)
(-0.8902229998312929 0.1718473584827218 0.0)
(-0.8902229998312929 -0.4528551410093511 0.0)
(-0.8902229998312929 -0.2657334334871889 0.0)
(-0.8902229998312929 0.4647333207259248 0.0)
(-0.8902229998312929 -0.1718282361972495 0.0)
(-0.8902229998312929 0.06092886406302712 0.0)
(-0.8902229998312929 -0.1789491913508873 0.0)
(-0.8902229998312929 -0.025227106221508797 0.0)
(-0.8902229998312929 0.029013326810699878 0.0)
(-0.8902229998312929 -0.4341822184952417 0.0)
(-0.8902229998312929 0.3390934716489938 0.0)
(-0.8902229998312929 0.14190214022535924 0.0)
(-0.8902229998312929 -0.1234802327706435 0.0)
(-0.8902229998312929 -0.7979211864071439 0.0)
(-0.8902229998312929 -0.2266229364035189 0.0)
(-0.8902229998312929 0.32950841143045867 0.0)
(-0.8902229998312929 -0.45616061682358194 0.0)
(-0.8902229998312929 0.013383796770638102 0.0)
(-0.8902229998312929 -0.2366016297042443 0.0)
(-0.8902229998312929 0.4712923136534587 0.0)
(-0.8902229998312929 0.34372748664708286 0.0)
(-0.8902229998312929 0.11411373791038155 0.0)
(-0.8902229998312929 -0.0024106063574288574 0.0)
(-0.8902229998312929 -0.08461548938541433 0.0)
(-0.8902229998312929 -0.08667835288489929 0.0)
(-0.8902229998312929 -0.12686560127433022 0.0)
(-0.8902229998312929 0.3167271748502718 0.0)
(-0.8902229998312929 -0.015833604442729604 0.0)
(-0.8902229998312929 0.8133558452790075 0.0)
(-0.8902229998312929 0.17439369869539362 0.0)
(-0.8902229998312929 -0.17431264451455558 0.0)
(-0.8902229998312929 0.02661698950374079 0.0)
(-0.8902229998312929 0.268793815720865 0.0)
(-0.8902229998312929 0.1544513883533771 0.0)
(-0.8902229998312929 0.5731645840444356 0.0)
(-0.8902229998312929 -0.4351860616965946 0.0)
(-0.8902229998312929 -0.3863754630617117 0.0)
(-0.8902229998312929 -0.019014035714233362 0.0)
(-0.8902229998312929 0.807656688761935 0.0)
(-0.8902229998312929 0.11272739811180266 0.0)
(-0.8902229998312929 -0.29135798778517813 0.0)
(-0.8902229998312858 -0.2891355471774581 0.0)
(-0.8902229998312858 0.2785366151247805 0.0)
(-0.8902229998312858 0.12407558378907745 0.0)
(-0.8902229998312858 -0.02878997459040048 0.0)
(-0.8902229998312858 0.2524085765037509 0.0)
(-0.8902229998312858 0.24093238593378338 0.0)
(-0.8902229998312858 0.4043393119317089 0.0)
(-0.8902229998312858 0.07727062990125755 0.0)