/*--------------------------------*- C++ -*----------------------------------*\
  =========                 |
  \\      /  F ield         | OpenFOAM: The Open Source CFD Toolbox
   \\    /   O peration     | Website:  https://openfoam.org
    \\  /    A nd           | Version:  11
     \\/     M anipulation  |
\*---------------------------------------------------------------------------*/
FoamFile
{
    format      ascii;
    class       volScalarField;
    location    "4";
    object      mag(U);
}
// * * * * * * * * * * * * * * * * * * * * * * * * * * * * * * * * * * * * * //

dimensions      [0 1 -1 0 0 0 0];

internalField   nonuniform List<scalar> 
9600
(
0.969036
0.9658
0.964456
0.963355
0.956885
0.946862
0.940904
0.940718
0.940737
0.927909
0.88038
0.837521
0.81995
0.819284
0.825857
0.849636
0.888625
0.928271
0.964523
0.999219
1.0382
1.07346
1.10392
1.13863
1.16985
1.1824
1.18106
1.17399
1.15871
1.12954
1.09416
1.06113
1.03257
1.0104
0.993533
0.982596
0.974877
0.969002
0.964284
0.956759
0.972863
0.971757
0.968984
0.966717
0.964276
0.960557
0.957085
0.954743
0.952359
0.946533
0.93162
0.916203
0.907552
0.906685
0.910711
0.925692
0.956912
0.98853
1.01851
1.04677
1.07702
1.10758
1.13529
1.16418
1.19317
1.21171
1.21542
1.21204
1.19927
1.17016
1.1395
1.10611
1.07561
1.04906
1.02685
1.0096
0.99552
0.983584
0.979145
0.97014
0.971706
0.970806
0.96845
0.966094
0.964661
0.961727
0.955607
0.952328
0.952356
0.95061
0.945132
0.930299
0.913982
0.910874
0.915986
0.93634
0.962734
0.988542
1.01769
1.04594
1.07264
1.10431
1.13536
1.16211
1.18955
1.21246
1.21977
1.21785
1.20803
1.18154
1.15085
1.11752
1.08744
1.06284
1.04291
1.02629
1.01754
1.00889
1.00508
0.997251
0.97075
0.96974
0.967162
0.965073
0.96305
0.958906
0.954329
0.952703
0.952592
0.951427
0.949774
0.945469
0.937487
0.937373
0.946258
0.966101
0.988258
1.01203
1.03629
1.05999
1.08311
1.10864
1.13661
1.16237
1.18679
1.20969
1.22183
1.22095
1.21038
1.18572
1.1575
1.12681
1.09618
1.07013
1.04618
1.02895
1.01224
0.998424
0.987577
0.979271
0.969873
0.968734
0.966119
0.963654
0.961452
0.958895
0.955608
0.951984
0.950549
0.95328
0.958386
0.96158
0.958247
0.954959
0.95943
0.971181
0.988418
1.0088
1.03291
1.05903
1.08325
1.10722
1.13644
1.16377
1.18609
1.20728
1.22271
1.22476
1.21707
1.19472
1.16594
1.13374
1.10414
1.07638
1.05454
1.03493
1.02311
1.01221
1.00791
0.998953
0.968735
0.967496
0.964777
0.962281
0.960547
0.958334
0.954552
0.951254
0.951124
0.955635
0.962981
0.965584
0.96255
0.961787
0.970969
0.985566
1.00433
1.02458
1.04715
1.06925
1.09124
1.11277
1.13773
1.16399
1.18681
1.20761
1.22447
1.2295
1.22194
1.20091
1.17439
1.14388
1.11344
1.08547
1.0605
1.04199
1.02522
1.01065
0.99962
0.986487
0.967741
0.96641
0.963646
0.961333
0.959755
0.957352
0.953697
0.951631
0.952506
0.958025
0.966029
0.969019
0.969044
0.972276
0.981889
0.992323
1.00662
1.02352
1.0442
1.06674
1.09043
1.11244
1.13678
1.1641
1.18813
1.20666
1.22285
1.23216
1.22877
1.21004
1.1836
1.15249
1.12252
1.09244
1.0683
1.047
1.03278
1.0182
1.01258
1.00206
0.966578
0.965196
0.962533
0.960454
0.958754
0.956188
0.953343
0.952539
0.953853
0.960187
0.967772
0.970555
0.972214
0.975523
0.984829
0.997299
1.01489
1.03346
1.05407
1.07556
1.09629
1.11712
1.13899
1.16414
1.18783
1.20884
1.22696
1.23767
1.23472
1.21756
1.19406
1.1628
1.13109
1.10134
1.07425
1.05332
1.0361
1.02036
1.01139
0.994707
0.96567
0.964285
0.961663
0.95964
0.957792
0.95525
0.953466
0.953462
0.955106
0.961837
0.9688
0.971176
0.97359
0.978271
0.988423
1.00052
1.0168
1.0348
1.05372
1.07587
1.09667
1.11787
1.13821
1.16331
1.18895
1.20925
1.22589
1.23872
1.24036
1.22747
1.20352
1.17358
1.14379
1.11225
1.08589
1.06158
1.04576
1.02766
1.01939
1.0061
0.964486
0.963101
0.960608
0.958611
0.956515
0.954536
0.953823
0.954103
0.955983
0.962631
0.969269
0.972336
0.976776
0.980884
0.988451
0.999051
1.0168
1.0381
1.05878
1.0812
1.10183
1.12257
1.14256
1.16459
1.18833
1.21017
1.23064
1.24523
1.24735
1.23765
1.21545
1.18538
1.15417
1.12275
1.09382
1.06897
1.04946
1.03003
1.02077
1.00476
0.963518
0.962192
0.959717
0.95754
0.955559
0.954291
0.954071
0.954538
0.956601
0.96303
0.970606
0.973183
0.976777
0.981311
0.990395
1.00175
1.01731
1.03799
1.05793
1.08062
1.1023
1.12409
1.14281
1.16441
1.1894
1.2129
1.23112
1.24675
1.25317
1.24611
1.2274
1.19802
1.16771
1.1343
1.10591
1.07849
1.05986
1.03941
1.029
1.01361
0.962204
0.960888
0.958521
0.956271
0.954713
0.953934
0.95389
0.954647
0.957121
0.963841
0.971012
0.973048
0.977405
0.984228
0.992006
1.0008
1.01374
1.03496
1.05767
1.08184
1.10533
1.12679
1.14792
1.16984
1.19152
1.21398
1.23562
1.25351
1.26205
1.25823
1.24191
1.21387
1.18203
1.14769
1.11752
1.08866
1.06743
1.04433
1.03188
1.01475
0.961179
0.959856
0.957556
0.955408
0.954252
0.953711
0.953661
0.95468
0.958195
0.963697
0.970043
0.973882
0.978848
0.984332
0.991257
1.00176
1.01427
1.03348
1.05478
1.07743
1.10131
1.12459
1.14741
1.16903
1.1914
1.21807
1.23888
1.2575
1.26875
1.26752
1.25486
1.22807
1.19674
1.16117
1.13088
1.09982
1.07765
1.05399
1.04095
1.02284
0.959862
0.958568
0.956359
0.954335
0.953613
0.953301
0.953172
0.954428
0.958758
0.963426
0.969595
0.974445
0.978066
0.984863
0.993309
1.00338
1.01393
1.0292
1.04931
1.07271
1.09813
1.1215
1.14561
1.17083
1.19461
1.21937
1.24361
1.26523
1.27962
1.28169
1.27162
1.24734
1.21679
1.1797
1.14659
1.11355
1.08899
1.06354
1.0477
1.02741
0.958813
0.95761
0.955443
0.953566
0.953134
0.953031
0.952693
0.954241
0.958732
0.9634
0.968531
0.973082
0.977729
0.986254
0.993524
1.00312
1.01461
1.02828
1.04815
1.07001
1.09105
1.11473
1.13888
1.16425
1.18966
1.21874
1.24645
1.27121
1.28874
1.29401
1.28678
1.265
1.23525
1.1962
1.16151
1.12642
1.09975
1.07233
1.05708
1.03502
0.957474
0.95636
0.954175
0.952502
0.952281
0.952129
0.952038
0.953094
0.957939
0.962072
0.966338
0.972125
0.977888
0.984845
0.994263
1.00485
1.01773
1.03191
1.04616
1.06519
1.08552
1.10754
1.12929
1.15546
1.18385
1.21413
1.24487
1.27566
1.29933
1.31054
1.30715
1.28773
1.25853
1.2207
1.18377
1.14652
1.11634
1.08707
1.06784
1.04404
0.956274
0.955275
0.953173
0.951755
0.951643
0.951624
0.951724
0.952411
0.956961
0.961103
0.966225
0.97124
0.976785
0.985384
0.994244
1.00519
1.0182
1.03186
1.04664
1.06472
1.08109
1.1009
1.12034
1.14356
1.16947
1.20218
1.23598
1.27218
1.30329
1.32286
1.32608
1.3108
1.2829
1.2436
1.20317
1.16329
1.1316
1.09803
1.0786
1.05198
0.954802
0.953819
0.952093
0.950733
0.950165
0.950267
0.951194
0.951024
0.954016
0.959582
0.96596
0.969578
0.975617
0.983455
0.993265
1.00433
1.01513
1.03237
1.04749
1.06322
1.07773
1.09561
1.11095
1.13167
1.15581
1.18791
1.22196
1.26184
1.30098
1.33207
1.34464
1.33914
1.31398
1.2763
1.23318
1.18994
1.15313
1.1168
1.09461
1.06462
0.953509
0.952664
0.950831
0.950279
0.949563
0.948729
0.950805
0.950515
0.953998
0.958933
0.965966
0.97164
0.975684
0.983197
0.991484
1.0037
1.01603
1.03175
1.04563
1.06409
1.07707
1.09324
1.1061
1.12527
1.14312
1.17215
1.20424
1.24612
1.28736
1.33019
1.35564
1.36288
1.34506
1.31082
1.26625
1.21764
1.17847
1.13619
1.11233
1.07767
0.952099
0.951361
0.949579
0.948614
0.948222
0.946725
0.947753
0.949144
0.952673
0.956432
0.963008
0.970093
0.975873
0.983676
0.990093
1.00407
1.01563
1.03271
1.04611
1.06424
1.07632
1.09308
1.10295
1.11935
1.13466
1.16189
1.18985
1.23184
1.27213
1.31965
1.35612
1.37977
1.37605
1.35035
1.30707
1.25496
1.21056
1.16254
1.13494
1.09675
0.951131
0.950219
0.948633
0.947002
0.947543
0.94612
0.946748
0.947859
0.952128
0.95762
0.962056
0.969908
0.975332
0.986303
0.992959
1.0057
1.01574
1.03531
1.04715
1.06519
1.07627
1.09201
1.10099
1.11564
1.12923
1.15331
1.17868
1.2204
1.26152
1.31066
1.34977
1.38416
1.39701
1.38606
1.353
1.29957
1.25102
1.19378
1.16278
1.11766
0.949389
0.948163
0.946804
0.944908
0.944626
0.943814
0.944729
0.945453
0.948321
0.954347
0.95887
0.966831
0.970962
0.984265
0.991423
1.00821
1.01847
1.03685
1.04917
1.06754
1.07749
1.0909
1.10132
1.11149
1.12306
1.14384
1.16876
1.20878
1.25198
1.30627
1.35045
1.38789
1.40911
1.41238
1.39596
1.34963
1.30225
1.23811
1.19892
1.14463
0.947956
0.946715
0.945446
0.943602
0.943255
0.942371
0.94317
0.946257
0.947665
0.953749
0.956924
0.967159
0.971792
0.984421
0.992334
1.00989
1.0209
1.04072
1.0528
1.07017
1.08116
1.09173
1.10093
1.1069
1.11816
1.13443
1.15559
1.19442
1.23783
1.29719
1.35208
1.40028
1.42832
1.43418
1.42917
1.39519
1.35855
1.2918
1.2503
1.18132
0.945091
0.943601
0.942126
0.940669
0.939651
0.939715
0.938835
0.942207
0.943571
0.950967
0.953054
0.963176
0.968368
0.982308
0.99133
1.0086
1.02039
1.0413
1.0549
1.07139
1.08421
1.09173
1.10201
1.10375
1.11286
1.12337
1.14244
1.17267
1.21913
1.27714
1.34408
1.40467
1.45449
1.46975
1.47057
1.43583
1.41097
1.34597
1.31211
1.23334
0.943318
0.942081
0.939728
0.938746
0.937431
0.939095
0.937488
0.941863
0.94177
0.949404
0.953344
0.964009
0.970091
0.983974
0.993936
1.01213
1.02535
1.04468
1.05924
1.07304
1.08706
1.092
1.1017
1.10135
1.10678
1.11069
1.12843
1.14779
1.19521
1.24625
1.32773
1.39053
1.4674
1.50101
1.53092
1.49654
1.47368
1.3994
1.37039
1.29627
0.938896
0.938127
0.934922
0.934529
0.931203
0.934082
0.932091
0.936986
0.937238
0.944364
0.94803
0.958897
0.967674
0.981899
0.993959
1.01123
1.0282
1.04553
1.06279
1.07597
1.08929
1.09393
1.10103
1.09962
1.10129
1.09792
1.1122
1.12078
1.16702
1.20785
1.30019
1.36201
1.47013
1.51176
1.57827
1.5632
1.56566
1.49022
1.44523
1.35694
0.935855
0.936207
0.931767
0.93278
0.929289
0.932153
0.930206
0.935113
0.936814
0.943213
0.950259
0.958619
0.970714
0.981769
1.0001
1.01435
1.03451
1.05146
1.06837
1.08243
1.0946
1.09915
1.1028
1.10008
1.09661
1.0896
1.09425
1.09724
1.12936
1.16564
1.25364
1.31756
1.45589
1.50855
1.61757
1.61547
1.65389
1.59204
1.564
1.45496
0.928708
0.929099
0.924123
0.925241
0.921477
0.92437
0.92394
0.926571
0.931433
0.934903
0.946103
0.952156
0.969239
0.980198
0.998879
1.01526
1.03474
1.05415
1.07033
1.08557
1.09497
1.10142
1.10387
1.10031
1.09294
1.08474
1.07644
1.07962
1.08744
1.12116
1.18526
1.25988
1.40062
1.48291
1.62799
1.64033
1.72424
1.68334
1.69565
1.59254
0.924659
0.925825
0.920921
0.921169
0.920135
0.919964
0.924367
0.923971
0.933294
0.935519
0.948253
0.956892
0.97165
0.98635
1.00493
1.02397
1.04213
1.06276
1.07777
1.09338
1.10257
1.10816
1.10928
1.10424
1.0923
1.08298
1.06355
1.06143
1.04878
1.07321
1.10437
1.18517
1.30049
1.42801
1.52841
1.57479
1.67352
1.70197
1.74322
1.73495
0.914411
0.913425
0.911276
0.906927
0.910911
0.90733
0.91421
0.915185
0.922989
0.930946
0.940762
0.954516
0.969238
0.986808
1.00557
1.02638
1.04576
1.06696
1.08253
1.09841
1.10725
1.11333
1.1135
1.10921
1.09611
1.08418
1.06169
1.04779
1.02404
1.02477
1.02972
1.08951
1.17889
1.27766
1.26757
1.33563
1.41238
1.52985
1.58225
1.70078
0.913031
0.908092
0.908989
0.90452
0.905305
0.908643
0.909573
0.918776
0.922262
0.934726
0.945402
0.960456
0.976958
0.9956
1.01647
1.03762
1.0582
1.07829
1.09436
1.1094
1.11782
1.1242
1.12354
1.11959
1.10751
1.0946
1.06968
1.04582
1.01555
0.988226
0.978649
0.977589
1.04906
1.00035
0.931585
1.03438
1.1379
1.23081
1.27656
1.39965
0.89803
0.896256
0.891737
0.893887
0.890499
0.896999
0.89904
0.906609
0.916245
0.927498
0.941956
0.958658
0.977517
0.99824
1.02032
1.04263
1.06423
1.08517
1.10107
1.11714
1.12523
1.13211
1.13232
1.12852
1.11834
1.10504
1.08558
1.05328
1.0277
0.978948
0.955482
0.905478
0.907963
0.790853
0.733631
0.852793
0.965679
1.04367
1.09374
1.12915
0.886917
0.889439
0.888138
0.888257
0.89099
0.894707
0.902118
0.91142
0.923195
0.937148
0.952629
0.972611
0.992656
1.01533
1.03824
1.06207
1.08343
1.10413
1.11979
1.13425
1.14349
1.1491
1.15085
1.14785
1.14315
1.12657
1.11426
1.083
1.05474
1.00822
0.962745
0.900646
0.850153
0.72983
0.600006
0.640957
0.742768
0.856901
0.958718
1.04605
0.866895
0.866231
0.866451
0.869179
0.873367
0.881026
0.890118
0.90346
0.917816
0.935626
0.954772
0.976393
0.999939
1.02273
1.049
1.07235
1.09411
1.11577
1.13006
1.14684
1.15357
1.16215
1.16315
1.16462
1.16188
1.15411
1.14296
1.11802
1.09399
1.04578
1.0063
0.932393
0.869977
0.789961
0.608484
0.465899
0.467805
0.582007
0.710276
0.827494
0.857358
0.860892
0.860834
0.866638
0.871545
0.883149
0.894784
0.911555
0.929602
0.950063
0.973323
0.996388
1.02275
1.04779
1.07477
1.0992
1.12113
1.14321
1.15677
1.17441
1.17934
1.19025
1.19235
1.19415
1.19895
1.18934
1.19211
1.16499
1.14823
1.10359
1.06011
1.0028
0.914514
0.837447
0.747996
0.542829
0.363761
0.324013
0.333317
0.470637
0.828736
0.836779
0.839729
0.850256
0.858331
0.875859
0.890883
0.914478
0.93546
0.96288
0.988101
1.01662
1.04458
1.07205
1.10056
1.12447
1.14856
1.16807
1.182
1.19903
1.20329
1.21324
1.21688
1.21527
1.22273
1.21422
1.21553
1.20415
1.17803
1.1585
1.1071
1.05944
0.999711
0.905641
0.806782
0.721378
0.564426
0.393347
0.299584
0.163999
0.822459
0.832991
0.845835
0.863517
0.88232
0.907797
0.929201
0.95911
0.982874
1.01565
1.04201
1.07518
1.10373
1.13373
1.16073
1.18477
1.20474
1.22072
1.22957
1.23496
1.23289
1.23375
1.22917
1.22832
1.22941
1.22632
1.22847
1.22001
1.19983
1.18584
1.14359
1.09519
1.04545
0.964457
0.870799
0.814631
0.731629
0.608147
0.556976
0.501013
0.791989
0.812786
0.830621
0.852692
0.873969
0.904922
0.93361
0.972201
1.00478
1.04483
1.07738
1.11403
1.14382
1.17387
1.19707
1.21824
1.2316
1.24126
1.24224
1.24005
1.23226
1.22612
1.21399
1.21895
1.21796
1.21928
1.21245
1.1826
1.15087
1.10023
1.05425
1.01147
0.928017
0.854689
0.731274
0.6418
0.532117
0.480073
0.460856
0.593389
0.842773
0.881497
0.927057
0.965838
1.00662
1.04343
1.08067
1.1162
1.14841
1.18033
1.20462
1.22915
1.24384
1.25799
1.26416
1.27435
1.26912
1.27091
1.24999
1.23858
1.21098
1.18214
1.16113
1.13304
1.10139
1.06627
1.02622
0.934055
0.792073
0.616404
0.46858
0.372961
0.274325
0.2049
0.180322
0.195489
0.221653
0.313127
0.393001
0.524402
0.95277
0.990042
1.0233
1.05909
1.09347
1.12452
1.15232
1.17446
1.19407
1.20804
1.20604
1.22169
1.20469
1.21865
1.19168
1.1965
1.15341
1.14087
1.08362
1.0514
0.978055
0.918733
0.829471
0.738484
0.663473
0.427252
0.08728
0.0236987
0.0392497
0.0746939
0.110263
0.125238
0.139919
0.130563
0.135483
0.140888
0.159507
0.179589
0.218915
0.287693
0.982299
0.981291
0.974871
0.971173
0.96724
0.966982
0.972725
0.984095
0.992219
0.995935
0.997758
1.00108
1.00261
1.00339
1.00392
1.00459
1.00569
1.00667
1.00743
1.00793
1.0083
1.00853
1.00892
1.0092
1.00912
1.00919
1.00911
1.00903
1.00882
1.00866
1.00861
1.00846
1.0084
1.00831
1.0081
1.00798
1.0077
1.00765
1.00754
1.01132
0.986398
0.982181
0.973458
0.9685
0.963897
0.963629
0.970131
0.983273
0.992917
0.996605
0.998533
1.00156
1.00254
1.00303
1.00381
1.00492
1.00611
1.00692
1.00744
1.00796
1.0084
1.00861
1.009
1.00925
1.00918
1.0093
1.00929
1.00926
1.00906
1.00883
1.0088
1.00868
1.00862
1.00859
1.00836
1.00825
1.00798
1.00757
1.00678
1.00549
0.987765
0.982345
0.972599
0.965702
0.960302
0.959758
0.967182
0.982735
0.99432
0.997877
0.999755
1.00236
1.00274
1.00287
1.00388
1.00525
1.00641
1.00727
1.00782
1.00832
1.00878
1.009
1.0094
1.00965
1.00955
1.00959
1.00957
1.00952
1.00935
1.00915
1.0091
1.009
1.00894
1.00889
1.00867
1.00852
1.00839
1.00825
1.00869
1.01097
0.987154
0.983525
0.971839
0.962602
0.956028
0.954914
0.963168
0.981245
0.995318
0.999352
1.00087
1.00264
1.00284
1.00283
1.00407
1.00564
1.00683
1.00748
1.00785
1.00844
1.00911
1.00928
1.00956
1.0099
1.00987
1.00982
1.00978
1.00974
1.00962
1.00942
1.00928
1.00922
1.00909
1.00906
1.00889
1.00867
1.00844
1.0081
1.00744
1.00566
0.990697
0.983652
0.97089
0.959203
0.951181
0.949158
0.95829
0.979453
0.996915
1.00161
1.0024
1.00344
1.00346
1.00313
1.00457
1.00606
1.00684
1.00755
1.00825
1.00888
1.00951
1.00962
1.0098
1.01027
1.01029
1.01026
1.01026
1.01017
1.01011
1.00991
1.00973
1.00962
1.00939
1.0093
1.00919
1.00911
1.00899
1.00883
1.00917
1.01049
0.989849
0.984395
0.970638
0.956004
0.945612
0.942407
0.951703
0.97614
0.998332
1.00423
1.00401
1.00408
1.00414
1.00367
1.00492
1.00624
1.00696
1.00785
1.00862
1.00909
1.0096
1.00969
1.00982
1.01031
1.01035
1.01037
1.01055
1.0105
1.01051
1.01031
1.0101
1.00999
1.00972
1.00957
1.00934
1.00922
1.00908
1.00872
1.00823
1.00673
0.994354
0.98466
0.969571
0.952344
0.939558
0.934581
0.943574
0.971655
0.999856
1.00774
1.00645
1.00543
1.00539
1.00448
1.00547
1.00658
1.00712
1.00805
1.0089
1.00944
1.01
1.01019
1.01016
1.01048
1.01052
1.01059
1.01085
1.01084
1.01092
1.0108
1.01062
1.01044
1.01016
1.01001
1.0098
1.00969
1.00962
1.00942
1.00964
1.01033
0.993916
0.985109
0.969423
0.948909
0.93311
0.925837
0.933296
0.965447
1.00082
1.01103
1.00923
1.00695
1.00671
1.00537
1.00563
1.00665
1.00726
1.00816
1.00897
1.00954
1.01002
1.01042
1.01062
1.01078
1.01076
1.0108
1.01109
1.01115
1.01124
1.01108
1.01094
1.01081
1.01051
1.01027
1.00995
1.00979
1.0097
1.00934
1.00906
1.00783
0.999026
0.986006
0.968742
0.945301
0.926431
0.916553
0.921244
0.957769
1.00154
1.01393
1.01269
1.00918
1.00818
1.00625
1.0061
1.00708
1.00763
1.00843
1.00913
1.00991
1.01031
1.01089
1.01116
1.01118
1.01126
1.01126
1.01149
1.01147
1.01162
1.01143
1.01124
1.01117
1.01097
1.01086
1.01055
1.01032
1.01031
1.01005
1.01019
1.01046
0.998918
0.986764
0.968702
0.941816
0.919804
0.906676
0.907273
0.94753
1.00207
1.01617
1.01583
1.01152
1.00952
1.00709
1.00625
1.00707
1.00765
1.00847
1.00929
1.01012
1.01036
1.01101
1.01146
1.01147
1.01186
1.01176
1.01197
1.0118
1.01195
1.01174
1.01157
1.01146
1.01119
1.01112
1.01084
1.01058
1.01046
1.0101
1.0099
1.00904
1.00512
0.988865
0.96914
0.938976
0.913691
0.897137
0.89219
0.934599
1.00141
1.0184
1.01892
1.01395
1.01043
1.00789
1.00685
1.00755
1.00789
1.00874
1.00963
1.01051
1.01078
1.01137
1.01182
1.01169
1.0123
1.01224
1.01251
1.01227
1.01243
1.01217
1.01203
1.01201
1.01179
1.01173
1.0115
1.01128
1.01108
1.01077
1.01071
1.01072
1.00591
0.98981
0.969924
0.936804
0.907637
0.887957
0.876391
0.918132
0.998441
1.0196
1.02057
1.01579
1.01089
1.00845
1.00733
1.00768
1.00786
1.00882
1.0099
1.01069
1.01115
1.01165
1.01222
1.0121
1.01287
1.01276
1.01305
1.0127
1.01285
1.01251
1.01236
1.01217
1.01193
1.01187
1.01163
1.01152
1.01116
1.01086
1.01056
1.01014
1.01343
0.993293
0.972097
0.936194
0.902809
0.880282
0.861093
0.898427
0.992248
1.01985
1.02146
1.01732
1.01139
1.00911
1.00808
1.00808
1.00806
1.00908
1.01009
1.01082
1.01178
1.01224
1.01303
1.01276
1.01348
1.01318
1.01365
1.01319
1.01332
1.013
1.01296
1.0127
1.01248
1.01236
1.01211
1.01214
1.01175
1.01163
1.01131
1.01133
1.01559
0.994922
0.974291
0.937001
0.898423
0.873671
0.847613
0.875
0.980955
1.01799
1.02098
1.0176
1.01145
1.00921
1.00829
1.00812
1.00823
1.00916
1.01019
1.01093
1.01229
1.01266
1.01356
1.01348
1.01439
1.01386
1.01435
1.01382
1.01385
1.01341
1.01337
1.01309
1.01298
1.01282
1.0125
1.01247
1.01199
1.01185
1.01137
1.01129
1.02462
1.001
0.978666
0.940014
0.8956
0.868328
0.837165
0.849514
0.963564
1.01466
1.01996
1.0169
1.01081
1.00895
1.00809
1.00827
1.00855
1.00953
1.01042
1.01124
1.01266
1.01297
1.01419
1.01422
1.01497
1.01455
1.01504
1.01463
1.01477
1.01437
1.01444
1.01412
1.01414
1.01391
1.01357
1.01332
1.01279
1.01266
1.01223
1.01219
1.02945
1.00523
0.982847
0.944651
0.894035
0.863586
0.830008
0.823011
0.937926
1.00744
1.01667
1.01433
1.00919
1.008
1.00738
1.00803
1.00848
1.00963
1.0107
1.01174
1.01318
1.01351
1.01468
1.01477
1.01557
1.0153
1.01562
1.01518
1.01532
1.01487
1.015
1.01459
1.0146
1.01425
1.01395
1.01348
1.01301
1.01274
1.0124
1.01241
1.0401
1.0161
0.990393
0.95122
0.894143
0.859308
0.825868
0.800102
0.902849
0.995371
1.01205
1.01051
1.00613
1.00627
1.0061
1.00763
1.00836
1.01007
1.01117
1.01247
1.01377
1.01424
1.01524
1.01539
1.0159
1.01598
1.01616
1.01585
1.01603
1.01553
1.01566
1.01509
1.01511
1.01458
1.01455
1.01402
1.01385
1.01342
1.01317
1.01317
1.04916
1.02499
0.997338
0.958133
0.896776
0.855008
0.823315
0.780091
0.859958
0.975681
1.00351
1.00412
1.00141
1.0035
1.00365
1.00654
1.00745
1.01004
1.01151
1.01324
1.01453
1.01515
1.01607
1.01628
1.01656
1.01668
1.01671
1.01642
1.01643
1.0161
1.01617
1.01575
1.0158
1.01516
1.01512
1.01447
1.01446
1.01378
1.01375
1.01368
1.06369
1.04202
1.01018
0.967461
0.901625
0.85086
0.820059
0.762738
0.814414
0.948008
0.990888
0.995584
0.994848
0.999742
1.00027
1.00506
1.00651
1.00973
1.01157
1.01337
1.01484
1.01581
1.01671
1.01719
1.01753
1.01761
1.01773
1.01772
1.01771
1.01756
1.01755
1.01731
1.01738
1.01679
1.01673
1.01589
1.01566
1.01482
1.01475
1.01448
1.07913
1.05707
1.02383
0.97784
0.909946
0.847464
0.81327
0.746157
0.765925
0.91029
0.972521
0.983727
0.986093
0.994675
0.995693
1.00271
1.0049
1.00893
1.01174
1.0136
1.01531
1.01656
1.01733
1.01781
1.01837
1.01835
1.01857
1.01856
1.01873
1.01873
1.0187
1.01845
1.01828
1.01761
1.01753
1.01661
1.01651
1.01568
1.01567
1.01533
1.1009
1.08169
1.04682
0.994464
0.921759
0.844224
0.800473
0.728884
0.715601
0.863488
0.94866
0.968575
0.974559
0.987938
0.990279
0.999748
1.003
1.00819
1.01155
1.01375
1.01563
1.01728
1.01804
1.01847
1.01931
1.01898
1.01945
1.01911
1.01948
1.01925
1.01937
1.01914
1.01908
1.01839
1.0184
1.01746
1.01751
1.01664
1.01663
1.01625
1.1293
1.10722
1.07207
1.01468
0.936725
0.840758
0.779937
0.704732
0.663374
0.805424
0.916731
0.948163
0.959812
0.978063
0.983288
0.995596
1.00042
1.0067
1.011
1.01416
1.01601
1.01806
1.01887
1.01928
1.0203
1.01977
1.0204
1.01975
1.02023
1.01968
1.02002
1.01963
1.01983
1.01913
1.01936
1.0184
1.01858
1.01764
1.01767
1.01724
1.16597
1.14549
1.11157
1.04586
0.952477
0.833293
0.748039
0.668046
0.609713
0.740182
0.877295
0.921762
0.940974
0.965083
0.974715
0.989916
0.996772
1.00413
1.00943
1.01353
1.01597
1.01893
1.02011
1.02093
1.02212
1.0214
1.02219
1.02139
1.02208
1.0213
1.02182
1.02115
1.02132
1.0204
1.02058
1.01952
1.01972
1.01869
1.01876
1.01831
1.20989
1.18625
1.15761
1.07987
0.962361
0.815911
0.700958
0.611914
0.548502
0.67187
0.831146
0.889012
0.919723
0.949977
0.964152
0.982119
0.991202
1.00042
1.00711
1.01229
1.01537
1.01927
1.02073
1.02217
1.02364
1.02307
1.02412
1.02323
1.02407
1.02302
1.02358
1.02256
1.02277
1.02168
1.02183
1.02074
1.02095
1.01984
1.01997
1.01946
1.26591
1.25147
1.23515
1.11541
0.954601
0.775408
0.62909
0.532043
0.476492
0.603237
0.78188
0.851898
0.896142
0.933283
0.952099
0.973676
0.984579
0.996376
1.00362
1.01009
1.01376
1.01854
1.01987
1.02216
1.02376
1.02374
1.02519
1.02442
1.02553
1.0244
1.02518
1.02401
1.02438
1.02331
1.02352
1.02252
1.02261
1.02149
1.02157
1.02104
1.33674
1.35504
1.2867
1.11754
0.904289
0.69258
0.522772
0.424806
0.395828
0.535702
0.731
0.812397
0.869106
0.915471
0.940078
0.964862
0.978464
0.992318
1.00011
1.00794
1.01177
1.01734
1.01882
1.02212
1.02372
1.02441
1.02588
1.02568
1.027
1.02609
1.02722
1.02603
1.02676
1.02564
1.02596
1.02492
1.02474
1.02367
1.02347
1.02301
1.43408
1.4229
1.29672
1.06821
0.796664
0.551482
0.372812
0.298514
0.327574
0.485332
0.684337
0.772593
0.843596
0.895974
0.927043
0.955788
0.972118
0.988693
0.997249
1.00694
1.01132
1.01798
1.01961
1.02379
1.02526
1.02681
1.02807
1.02836
1.02949
1.02892
1.03001
1.02887
1.02971
1.02839
1.02882
1.02753
1.02721
1.02625
1.02557
1.0254
1.56075
1.46155
1.25612
0.929217
0.599926
0.339095
0.196088
0.220869
0.314712
0.472051
0.651289
0.739645
0.821374
0.876505
0.914556
0.945692
0.965775
0.984534
0.995327
1.00737
1.01249
1.02035
1.02256
1.02724
1.02825
1.0306
1.03096
1.03197
1.03217
1.03205
1.03257
1.03144
1.03217
1.03068
1.03137
1.02972
1.02967
1.02846
1.02764
1.02775
1.65846
1.43682
1.08584
0.65953
0.307275
0.148686
0.22163
0.323756
0.388124
0.502316
0.64182
0.722973
0.809438
0.859755
0.905899
0.93575
0.960658
0.98014
0.993884
1.00665
1.01367
1.0216
1.02496
1.02968
1.0306
1.03359
1.03315
1.03505
1.03416
1.03486
1.03433
1.03384
1.03405
1.03286
1.03355
1.03171
1.03224
1.03057
1.03049
1.0305
1.60181
1.28747
0.804077
0.393451
0.301424
0.427969
0.497251
0.527296
0.506554
0.565485
0.661777
0.731246
0.810982
0.854156
0.90407
0.929783
0.959546
0.975527
0.993747
1.00288
1.01431
1.01907
1.02557
1.02899
1.03142
1.03478
1.03461
1.03751
1.03606
1.03818
1.03642
1.03737
1.03635
1.036
1.03588
1.03437
1.03472
1.03258
1.03314
1.03257
1.35424
1.05002
0.749928
0.719968
0.749313
0.775398
0.764168
0.692459
0.61694
0.660517
0.709597
0.770417
0.829156
0.867376
0.912055
0.933389
0.963147
0.973901
0.995743
0.999645
1.01618
1.01663
1.02844
1.02875
1.03485
1.03685
1.03857
1.04137
1.04067
1.0433
1.04113
1.04322
1.04109
1.04217
1.04072
1.04012
1.03921
1.03766
1.03823
1.03766
1.11796
1.10655
1.01006
1.05694
1.01777
0.991091
0.891492
0.787736
0.747972
0.786523
0.785707
0.845339
0.869617
0.908449
0.934772
0.956669
0.976468
0.987121
1.00481
1.00857
1.02559
1.02428
1.03847
1.03621
1.04523
1.0445
1.04866
1.04915
1.05025
1.0509
1.05012
1.05099
1.04923
1.0499
1.04732
1.04706
1.04479
1.04447
1.04376
1.04349
1.08115
1.11261
1.05517
1.07613
1.03038
0.965978
0.869036
0.850501
0.836591
0.861236
0.874207
0.916131
0.933071
0.972254
0.979661
1.00532
1.00869
1.02487
1.02839
1.03757
1.04571
1.04688
1.05678
1.05438
1.06156
1.05887
1.0628
1.06073
1.06256
1.06106
1.06184
1.06001
1.05995
1.05835
1.05747
1.05597
1.05415
1.05369
1.05167
1.05177
0.937486
0.912887
0.905398
0.908245
0.870824
0.837074
0.834347
0.852466
0.848989
0.877297
0.896183
0.943846
0.966095
1.00555
1.02707
1.05027
1.05888
1.07298
1.06611
1.07601
1.07123
1.07559
1.07623
1.07561
1.0776
1.07629
1.07689
1.07644
1.07583
1.07566
1.07458
1.07286
1.07265
1.06908
1.06886
1.06598
1.06595
1.06454
1.06343
1.06356
0.607483
0.569068
0.626706
0.642647
0.673529
0.694677
0.74844
0.76621
0.811826
0.855044
0.898671
0.947292
0.973757
1.01495
1.04002
1.0655
1.08471
1.10193
1.10786
1.11604
1.11063
1.11006
1.10616
1.10394
1.10377
1.10338
1.10279
1.10518
1.10195
1.10501
1.09959
1.10115
1.09749
1.09687
1.09431
1.0913
1.09002
1.08687
1.08386
1.08302
0.204236
0.159427
0.252539
0.303796
0.380869
0.44609
0.527009
0.599261
0.686266
0.765562
0.844288
0.914204
0.965423
1.00744
1.04644
1.0681
1.09438
1.11196
1.12555
1.14273
1.14973
1.15764
1.16047
1.15827
1.1563
1.15072
1.14899
1.14501
1.14457
1.14333
1.14086
1.13997
1.13742
1.13656
1.13467
1.13338
1.12478
1.12171
1.1128
1.11057
0.343719
0.281303
0.166163
0.102703
0.0503585
0.0950234
0.179178
0.285931
0.42022
0.543693
0.653735
0.768432
0.854554
0.92444
0.990188
1.03201
1.07838
1.10461
1.13384
1.15006
1.16735
1.17841
1.18877
1.19465
1.20159
1.20241
1.20426
1.20207
1.1996
1.19722
1.19818
1.19345
1.19633
1.18926
1.19069
1.18738
1.18516
1.18268
1.17737
1.17351
0.616457
0.618093
0.546438
0.465809
0.398561
0.339778
0.277801
0.220393
0.170801
0.248166
0.34343
0.455614
0.562307
0.667499
0.749541
0.850251
0.919573
0.995293
1.04655
1.09422
1.12994
1.15553
1.17954
1.19129
1.20439
1.20949
1.21596
1.21668
1.21884
1.21542
1.22086
1.2154
1.21857
1.21347
1.2138
1.21044
1.21306
1.21254
1.21731
1.22425
0.562282
0.575912
0.578788
0.577198
0.591016
0.605472
0.622923
0.641879
0.65592
0.647056
0.617528
0.630436
0.688097
0.666027
0.520447
0.444128
0.443046
0.465655
0.507319
0.579009
0.66241
0.755063
0.825921
0.896561
0.958397
1.0116
1.06193
1.10336
1.14206
1.16809
1.19414
1.21689
1.23931
1.25609
1.27309
1.28484
1.29836
1.30464
1.31216
1.31372
0.323143
0.347061
0.380162
0.423242
0.477011
0.530608
0.582376
0.632142
0.677218
0.715903
0.746213
0.762825
0.77014
0.756192
0.740743
0.713476
0.688012
0.650524
0.599652
0.548218
0.338327
0.267873
0.504309
0.559998
0.614529
0.652672
0.698633
0.734795
0.777738
0.81917
0.86882
0.911114
0.965253
1.00447
1.05662
1.09102
1.14495
1.18728
1.25408
1.30374
1.01733
1.01686
1.01849
1.01881
1.01966
1.01963
1.0202
1.02006
1.02057
1.02021
1.02049
1.0204
1.02008
1.02019
1.01931
1.01925
1.01769
1.01681
1.01424
1.01161
1.0072
1.00204
0.995384
0.988199
0.982111
0.98025
0.98469
0.994651
1.00344
1.0078
1.00826
1.00826
1.00841
1.00855
1.0086
1.00858
1.00855
1.00844
1.0083
1.00824
1.00019
1.00079
0.99965
1.00002
0.999372
1.00006
0.99951
1.00008
0.999883
1.00008
1.00033
1.0002
1.00088
1.00071
1.00154
1.00185
1.00296
1.0043
1.00635
1.00931
1.01294
1.01733
1.02168
1.02599
1.02768
1.02791
1.02608
1.02034
1.01259
1.01022
1.00979
1.00989
1.00994
1.00992
1.00975
1.00957
1.00921
1.00892
1.00874
1.00865
1.01512
1.01547
1.01713
1.01763
1.01871
1.01871
1.01945
1.01903
1.01943
1.01924
1.01886
1.01887
1.01805
1.01795
1.0166
1.01628
1.01418
1.01312
1.01023
1.00807
1.00465
1.00208
0.999817
0.999847
1.00126
1.00367
1.00659
1.00809
1.00849
1.00863
1.00882
1.00905
1.00924
1.00942
1.00935
1.00932
1.00939
1.00922
1.00911
1.00907
1.00213
1.0029
1.00213
1.00238
1.0018
1.00233
1.00204
1.00254
1.00252
1.00287
1.00328
1.00353
1.00439
1.00497
1.00573
1.00714
1.00822
1.01044
1.01223
1.0151
1.01731
1.01997
1.02199
1.02325
1.02361
1.02312
1.02123
1.019
1.01638
1.01367
1.01236
1.01184
1.01152
1.01087
1.01058
1.01023
1.00967
1.00946
1.00929
1.00925
1.01349
1.01438
1.01564
1.0162
1.01699
1.01703
1.01755
1.0174
1.01732
1.01737
1.01671
1.01658
1.01578
1.01543
1.01426
1.01356
1.01183
1.0107
1.00863
1.00714
1.00534
1.00455
1.00459
1.00541
1.00588
1.00702
1.00872
1.00977
1.01011
1.01016
1.01015
1.01027
1.01047
1.01042
1.01035
1.01036
1.01012
1.00983
1.00968
1.00964
1.00441
1.00487
1.00442
1.00478
1.00447
1.0048
1.00489
1.0052
1.0056
1.00607
1.00656
1.00706
1.00768
1.00855
1.0093
1.01051
1.01155
1.013
1.01416
1.01565
1.01655
1.01776
1.01874
1.01945
1.0195
1.01912
1.01848
1.01744
1.01567
1.01411
1.01331
1.01295
1.01237
1.01152
1.01114
1.01058
1.01021
1.01004
1.0099
1.00982
1.01238
1.01342
1.01432
1.01496
1.01544
1.01571
1.01572
1.01595
1.01558
1.01562
1.01517
1.01496
1.01431
1.01388
1.01292
1.01224
1.01103
1.01018
1.00889
1.00813
1.00726
1.00708
1.00725
1.00777
1.00805
1.00903
1.01027
1.01085
1.01107
1.01115
1.01132
1.01139
1.01146
1.01147
1.0114
1.01105
1.01067
1.01043
1.01026
1.01023
1.0063
1.00639
1.00643
1.00675
1.007
1.00738
1.00765
1.00804
1.00845
1.00876
1.00926
1.00982
1.0104
1.01106
1.01164
1.01244
1.01313
1.01389
1.01457
1.01523
1.01591
1.01679
1.01716
1.01724
1.01696
1.01663
1.01633
1.01558
1.01442
1.01359
1.01341
1.01315
1.01238
1.01188
1.01156
1.01119
1.01088
1.01065
1.01044
1.01041
1.01172
1.01278
1.01324
1.01389
1.01407
1.01446
1.01439
1.01473
1.01446
1.01466
1.01422
1.01412
1.01365
1.01336
1.01275
1.0123
1.01163
1.01124
1.01068
1.01027
1.00977
1.00991
1.01013
1.01014
1.01023
1.01096
1.01159
1.01188
1.01202
1.01219
1.01237
1.01238
1.0124
1.01229
1.01199
1.01161
1.01126
1.01098
1.0108
1.01075
1.00826
1.00837
1.00854
1.00887