/*--------------------------------*- C++ -*----------------------------------*\
  =========                 |
  \\      /  F ield         | OpenFOAM: The Open Source CFD Toolbox
   \\    /   O peration     | Website:  https://openfoam.org
    \\  /    A nd           | Version:  11
     \\/     M anipulation  |
\*---------------------------------------------------------------------------*/
FoamFile
{
    format      ascii;
    class       surfaceScalarField;
    location    "4";
    object      phi;
}
// * * * * * * * * * * * * * * * * * * * * * * * * * * * * * * * * * * * * * //

dimensions      [0 3 -1 0 0 0 0];

internalField   nonuniform List<scalar> 
18960
(
0.0475781
0.000577386
-0.0481555
0.0470723
0.000505793
0.0466377
0.000434667
0.0460886
0.000549049
0.0453798
0.000708779
0.044795
0.000584825
0.0444884
0.000306615
0.0442276
0.000260818
0.0434973
0.000730315
0.0417888
0.00170841
0.0397049
0.00208394
0.0383854
0.00131948
0.0380271
0.000358376
0.03821
-0.000182995
0.0389782
-0.000768154
0.0404766
-0.00149845
0.0423263
-0.00184961
0.0440771
-0.00175081
0.045597
-0.00151993
0.0471591
-0.00156211
0.0487461
-0.00158698
0.0501651
-0.00141901
0.0515997
-0.00143463
0.0531435
-0.00154375
0.0542552
-0.00111175
0.0545991
-0.000343897
0.0544008
0.000198273
0.0537833
0.000617571
0.0527143
0.00106896
0.0512247
0.00148959
0.0496812
0.00154349
0.0483621
0.0013191
0.0473929
0.000969226
0.0467347
0.000658188
0.04635
0.000384693
0.046425
-7.4989e-05
0.046583
-0.000158003
0.0470839
-0.000500906
0.0473942
-0.000310268
-0.000784297
0.0481785
0.0479566
0.000839327
-0.0482186
0.0476468
0.000815617
0.0473137
0.00076778
0.0469896
0.000873114
0.0466722
0.00102617
0.0463688
0.000888253
0.046058
0.000617475
0.0456012
0.000717546
0.0450339
0.00129766
0.0442122
0.0025301
0.0433514
0.00294474
0.0426866
0.00198425
0.0424265
0.000618471
0.0424804
-0.00023688
0.0428367
-0.00112442
0.0437533
-0.00241503
0.0450439
-0.00314019
0.0464244
-0.00313135
0.0477608
-0.00285631
0.0491517
-0.00295301
0.0505892
-0.00302447
0.0520096
-0.00283948
0.0533663
-0.00279129
0.0548216
-0.00299907
0.0561496
-0.00243975
0.0570249
-0.00121915
0.0572921
-6.89624e-05
0.0572888
0.00062085
0.0568899
0.00146787
0.0560845
0.00229498
0.0549797
0.00264836
0.0538336
0.00246513
0.0527404
0.00206247
0.0517732
0.00162535
0.0508947
0.00126326
0.0500141
0.000805615
0.049312
0.000544097
0.0486679
0.000143157
0.0483438
1.3827e-05
-0.000647731
0.0482072
0.0478452
0.001179
-0.0481848
0.0474731
0.00118765
0.0470251
0.00121585
0.0465337
0.00136448
0.0460677
0.00149218
0.0456024
0.00135352
0.0451391
0.00108085
0.0447226
0.00113403
0.0442391
0.00178109
0.0436936
0.00307563
0.0432143
0.00342404
0.0426526
0.00254593
0.042347
0.000924127
0.0425218
-0.000411725
0.0432249
-0.00182752
0.0443747
-0.00356484
0.045549
-0.00431448
0.0467523
-0.00433465
0.0479128
-0.00401686
0.0490031
-0.00404327
0.0501776
-0.004199
0.0514916
-0.00415342
0.0526854
-0.00398513
0.0538859
-0.00419961
0.0551751
-0.0037289
0.056084
-0.00212806
0.0563955
-0.00038044
0.0562379
0.000778472
0.0556716
0.00203417
0.0546764
0.00329018
0.053468
0.00385676
0.0521475
0.00378562
0.0510811
0.00312887
0.0502247
0.00248175
0.0496551
0.00183284
0.0493944
0.0010663
0.0495008
0.000437735
0.0497616
-0.000117693
0.0499844
-0.000208925
-0.000757482
0.0500941
0.0477516
0.00152484
-0.0480974
0.0474045
0.00153474
0.0470018
0.00161853
0.0465956
0.00177062
0.0462293
0.00185853
0.0459004
0.00168236
0.0455915
0.00138976
0.0452234
0.00150217
0.044699
0.00230552
0.0442955
0.00347907
0.0440651
0.00365448
0.0438336
0.00277742
0.0438141
0.000943631
0.0441738
-0.000771427
0.0448899
-0.00254359
0.0457238
-0.00439879
0.0465829
-0.00517357
0.0475596
-0.0053113
0.0485375
-0.00499475
0.0495757
-0.00508147
0.0506375
-0.00526085
0.0518952
-0.00541114
0.0531029
-0.00519279
0.054292
-0.00538865
0.0555783
-0.00501525
0.0568806
-0.00343036
0.0576176
-0.00111746
0.0578441
0.000551972
0.0577498
0.0021285
0.0571902
0.00384979
0.0563312
0.00471572
0.0552341
0.0048827
0.0540824
0.00428059
0.0530523
0.00351193
0.0520184
0.0028667
0.0511092
0.00197546
0.0501231
0.00142387
0.0494555
0.000549912
0.0489682
0.000278326
-0.000670209
0.048881
0.0476601
0.00188993
-0.0480252
0.0472894
0.00190545
0.0468709
0.00203709
0.0464211
0.00222042
0.0460115
0.0022681
0.0456611
0.00203273
0.0452607
0.00179023
0.0447406
0.00202222
0.0443153
0.0027308
0.0442222
0.00357219
0.0443617
0.00351499
0.0445278
0.00261126
0.0445526
0.000918817
0.0447592
-0.000977941
0.0452569
-0.00304137
0.0459413
-0.0050831
0.0467102
-0.00594257
0.047607
-0.00620808
0.0485684
-0.00595613
0.0495107
-0.00602375
0.0504315
-0.00618169
0.0514989
-0.0064785
0.0526462
-0.0063401
0.0536711
-0.00641359
0.0547492
-0.00609332
0.0558395
-0.00452069
0.0566102
-0.0018881
0.0568583
0.000303798
0.0567156
0.00227129
0.056222
0.00434334
0.0553836
0.00555412
0.0542959
0.00597041
0.0531744
0.00540206
0.0521993
0.00448704
0.0514392
0.00362681
0.0508872
0.00252744
0.0507045
0.00160658
0.0506379
0.000616498
0.0506179
0.000298324
-0.000631435
0.0505791
0.0475512
0.00226608
-0.0479273
0.0471743
0.0022823
0.0467453
0.00246616
0.0463086
0.00265708
0.0459648
0.00261193
0.0456864
0.00231108
0.0452564
0.00222029
0.0447812
0.00249736
0.0445176
0.00299447
0.044581
0.00350874
0.044775
0.00332107
0.0448986
0.00248765
0.0450462
0.000771157
0.0454544
-0.00138607
0.0461086
-0.00369563
0.0467898
-0.0057643
0.0474549
-0.00660768
0.0482404
-0.00699353
0.0490813
-0.00679704
0.0499512
-0.00689363
0.0508175
-0.00704802
0.0517826
-0.00744358
0.0528788
-0.00743633
0.0539701
-0.00750491
0.0550824
-0.00720559
0.0564494
-0.00588765
0.0576415
-0.00308029
0.0582615
-0.000316129
0.0584294
0.00210341
0.0581417
0.00463103
0.0574684
0.00622735
0.0565252
0.00691366
0.0553827
0.00654456
0.0543242
0.00554553
0.0532657
0.00468531
0.0523286
0.00346456
0.0513278
0.00260738
0.0505299
0.00141433
0.0498692
0.000959088
-0.000354531
0.0495923
0.047455
0.00266766
-0.0478566
0.0470714
0.00266592
0.0466403
0.00289726
0.0462311
0.00306629
0.0459312
0.00291186
0.0455675
0.00267473
0.0451097
0.00267812
0.0447451
0.00286191
0.0446108
0.00312878
0.0447176
0.00340201
0.0449101
0.00312853
0.0451439
0.00225387
0.0454416
0.000473482
0.0459475
-0.00189201
0.0464959
-0.00424399
0.0470216
-0.00629009
0.047582
-0.00716801
0.0482556
-0.00766718
0.0490157
-0.00755712
0.0498423
-0.00772022
0.0506671
-0.00787284
0.0515359
-0.00831236
0.0525497
-0.00845017
0.0535816
-0.00853679
0.0545811
-0.00820511
0.0556171
-0.0069236
0.0566412
-0.00410441
0.0574316
-0.0011065
0.0577284
0.00180659
0.0577095
0.00464997
0.0572723
0.00666453
0.0564889
0.00769707
0.0554183
0.00761512
0.0543509
0.00661294
0.0534096
0.00562665
0.052604
0.00427012
0.0521078
0.00310354
0.0518302
0.00169202
0.0515668
0.0012224
-0.000191656
0.051404
0.0473302
0.00307373
-0.0477362
0.046934
0.00306205
0.0465227
0.00330857
0.0461641
0.00342487
0.045827
0.00324898
0.0454475
0.00305426
0.0450513
0.00307432
0.0447965
0.00311673
0.0447368
0.00318845
0.044875
0.00326387
0.0450825
0.00292103
0.0453655
0.00197078
0.0457691
6.9949e-05
0.0462954
-0.00241834
0.0468893
-0.00483784
0.0474805
-0.0068813
0.048068
-0.00775557
0.0487313
-0.00833049
0.0494433
-0.00826907
0.0501847
-0.00846162
0.0509277
-0.00861589
0.0517189
-0.00910348
0.0526331
-0.00936439
0.0536409
-0.00954462
0.0547155
-0.00927969
0.0560054
-0.00821355
0.05745
-0.00554895
0.0585283
-0.00218483
0.0590855
0.00124939
0.0591537
0.00458175
0.0587694
0.00704889
0.0580134
0.00845298
0.0569725
0.00865608
0.0558935
0.00769191
0.0548595
0.00666067
0.0538799
0.00524973
0.0527873
0.00419609
0.0519477
0.00253168
0.0511197
0.00205039
0.000296159
0.0506319
0.0472341
0.00348646
-0.0476469
0.0468282
0.00346797
0.0464294
0.00370738
0.046087
0.00376729
0.045743
0.00359293
0.0453542
0.00344313
0.045045
0.00338345
0.0448839
0.00327785
0.0448753
0.00319703
0.0450401
0.00309908
0.0452254
0.00273572
0.0455391
0.00165709
0.045978
-0.000368896
0.0465581
-0.00299852
0.0470925
-0.00537223
0.0476448
-0.00743361
0.0482112
-0.00832197
0.0488091
-0.00892833
0.0494733
-0.00893328
0.0501765
-0.00916487
0.0508784
-0.00931775
0.0515889
-0.00981394
0.0524081
-0.0101836
0.0533976
-0.0105342
0.054409
-0.010291
0.0554735
-0.0092781
0.0566191
-0.00669455
0.0577583
-0.00332402
0.0585818
0.000425874
0.0590382
0.00412537
0.0589555
0.00713164
0.0585208
0.00888766
0.0576489
0.00952797
0.0565918
0.00874898
0.0555204
0.00773208
0.0545802
0.00618994
0.0537466
0.00502972
0.0532284
0.00304985
0.0528042
0.00247459
0.000610922
0.0524894
0.0471002
0.00388865
-0.0475024
0.0467066
0.00386163
0.0463228
0.00409116
0.0459814
0.00410864
0.0456339
0.00394044
0.0453023
0.00377479
0.0450908
0.0035949
0.0449663
0.00340235
0.0449784
0.00318497
0.0451251
0.00295238
0.045375
0.00248581
0.0457815
0.00125054
0.0462424
-0.000829815
0.0467318
-0.00348787
0.0472049
-0.00584532
0.0477486
-0.00797735
0.0483903
-0.0089636
0.0490418
-0.00957984
0.0497326
-0.00962407
0.050427
-0.00985925
0.0511038
-0.00999463
0.0517576
-0.0104678
0.052491
-0.0109169
0.0533415
-0.0113847
0.0543416
-0.0112912
0.0555704
-0.0105069
0.0570985
-0.00822264
0.0585549
-0.00478043
0.0596146
-0.000633863
0.0602053
0.00353475
0.0602331
0.00710377
0.0598748
0.00924605
0.0591496
0.0102531
0.0581474
0.0097512
0.0570557
0.00882384
0.0560202
0.00722536
0.0547888
0.00626115
0.0537337
0.00410497
0.0527262
0.00348212
0.00130702
0.0520301
0.0470006
0.00430144
-0.0474134
0.0465953
0.00426691
0.0462426
0.0044439
0.0458866
0.00446467
0.0455454
0.00428165
0.0452934
0.0040268
0.0451163
0.00377197
0.045035
0.00348361
0.0450776
0.00314235
0.0452781
0.00275195
0.0455515
0.00221235
0.0459441
0.000857942
0.0464156
-0.00130128
0.0469531
-0.00402543
0.0474216
-0.00631375
0.0478943
-0.00845008
0.048448
-0.00951731
0.0490788
-0.0102106
0.0497206
-0.0102659
0.0504106
-0.0105492
0.0510781
-0.0106622
0.0517211
-0.0111107
0.0523439
-0.0115397
0.0531613
-0.0122021
0.0541579
-0.0122877
0.0552846
-0.0116337
0.0565462
-0.00948421
0.0579073
-0.00614153
0.0591904
-0.00191697
0.060155
0.00257012
0.0605297
0.00672908
0.0604103
0.00936553
0.0598408
0.0108226
0.0589432
0.0106487
0.0578228
0.0099443
0.056838
0.00821011
0.0558222
0.00727697
0.0550502
0.00487691
0.0544058
0.00412652
0.00179772
0.0539152
0.046849
0.00470329
-0.0472509
0.0464755
0.00464044
0.046109
0.00481037
0.0457724
0.00480135
0.0455042
0.0045498
0.0452783
0.00425273
0.0451409
0.00390929
0.0451171
0.00350746
0.0451966
0.00306282
0.0454408
0.00250776
0.0456929
0.00196025
0.0461248
0.000426038
0.0466443
-0.0018207
0.0471542
-0.00453535
0.0475344
-0.00669397
0.0479082
-0.00882391
0.0484146
-0.0100237
0.0490725
-0.0108686
0.0497815
-0.0109748
0.0505183
-0.011286
0.0512128
-0.0113567
0.0518565
-0.0117545
0.0525235
-0.0122067
0.0532337
-0.0129124
0.0540774
-0.0131314
0.0551877
-0.012744
0.0566934
-0.01099
0.0584177
-0.00786579
0.059932
-0.00343125
0.0611691
0.00133297
0.0617882
0.00610995
0.0618928
0.00926098
0.0614771
0.0112383
0.0607287
0.0113971
0.0596555
0.0110175
0.0586406
0.00922504
0.0574178
0.00849976
0.056176
0.00611873
0.0548879
0.00541466
0.0027274
0.0539582
0.0467602
0.00510857
-0.0471655
0.0463781
0.00502253
0.0460204
0.00516805
0.0457262
0.00509552
0.0454709
0.00480518
0.0452809
0.00444266
0.0451929
0.00399733
0.0452081
0.00349228
0.0453129
0.00295804
0.0455436
0.00227698
0.0458459
0.00165799
0.0463513
-7.93657e-05
0.046838
-0.00230738
0.0473053
-0.00500268
0.0476786
-0.0070672
0.0480516
-0.00919698
0.0484519
-0.0104239
0.0490174
-0.0114341
0.0496354
-0.0115928
0.0503045
-0.011955
0.0509998
-0.012052
0.0516934
-0.0124481
0.0523401
-0.0128534
0.053021
-0.0135932
0.053901
-0.0140114
0.0550668
-0.0139098
0.056384
-0.0123072
0.0579504
-0.00943218
0.0595759
-0.00505669
0.0610931
-0.000184237
0.0620644
0.00513859
0.0624383
0.00888707
0.0621953
0.0114814
0.0615766
0.0120158
0.0605598
0.0120343
0.0595387
0.0102461
0.0584314
0.00960705
0.0574688
0.00708137
0.0565614
0.00632204
0.00349726
0.0557915
0.0466049
0.00549078
-0.0469871
0.0462441
0.00538337
0.0459172
0.00549492
0.0456672
0.0053455
0.0454541
0.0050183
0.045293
0.00460378
0.0452349
0.00405547
0.0453152
0.00341196
0.0454516
0.00282166
0.0456776
0.0020509
0.0460233
0.00131229
0.0465413
-0.000597379
0.0470182
-0.00278422
0.0474956
-0.00548006
0.0478579
-0.00742958
0.048158
-0.00949702
0.0484388
-0.0107048
0.0488481
-0.0118435
0.0494254
-0.01217
0.0501064
-0.012636
0.0508248
-0.0127704
0.0515027
-0.013126
0.0522521
-0.0136028
0.0530198
-0.0143609
0.0538313
-0.0148229
0.0548892
-0.0149678
0.0563325
-0.0137505
0.0581897
-0.0112894
0.0600799
-0.00694685
0.0618607
-0.00196503
0.0631949
0.00380439
0.0639237
0.00815823
0.0639585
0.0114466
0.063561
0.0124133
0.0626331
0.0129621
0.0616407
0.0112386
0.0605171
0.0107306
0.0593054
0.00829308
0.0578314
0.00779611
0.00468781
0.0566408
0.0465305
0.00586449
-0.0469042
0.0461845
0.00572931
0.0458842
0.0057953
0.0456434
0.00558628
0.0454527
0.005209
0.0453343
0.00472213
0.0453036
0.00408622
0.0454236
0.00329199
0.0455818
0.00266341
0.0458157
0.00181698
0.0461722
0.000955835
0.0467066
-0.00113177
0.0472023
-0.00327999
0.0476718
-0.00594948
0.0479948
-0.00775261
0.048273
-0.00977519
0.0484987
-0.0109305
0.0488592
-0.012204
0.0493518
-0.0126626
0.0498768
-0.013161
0.0504254
-0.0133191
0.051094
-0.0137946
0.0517653
-0.0142741
0.0525007
-0.0150962
0.0533525
-0.0156747
0.0545733
-0.0161886
0.0560627
-0.0152398
0.0578886
-0.0131153
0.0598169
-0.00887519
0.0618291
-0.00397723
0.0634763
0.00215719
0.0645775
0.00705704
0.0648188
0.0112053
0.064554
0.012678
0.0637353
0.0137809
0.0627394
0.0122345
0.0616187
0.0118513
0.0605706
0.00934122
0.059489
0.00887768
0.00580337
0.0583735
0.046378
0.00620323
-0.0467168
0.0460547
0.00605265
0.0457919
0.00605812
0.0456004
0.00577782
0.0454387
0.00537065
0.0453742
0.00478667
0.0453777
0.00408265
0.0455263
0.00314344
0.0456709
0.00251877
0.0459208
0.00156712
0.0463231
0.000553516
0.0469005
-0.00170922
0.0473856
-0.00376502
0.0478346
-0.0063985
0.048178
-0.00809603
0.0484827
-0.0100799
0.0487291
-0.0111769
0.048945
-0.0124198
0.0492155
-0.0129332
0.0496226
-0.0135681
0.0500839
-0.0137804
0.0506147
-0.0143254
0.0511851
-0.0148445
0.0519964
-0.0159075
0.0529048
-0.0165831
0.0540907
-0.0173745
0.0556189
-0.016768
0.0577408
-0.0152373
0.0600368
-0.0111712
0.062396
-0.00633645
0.0643841
0.000169074
0.0658772
0.00556397
0.0665222
0.0105603
0.0666403
0.01256
0.0660978
0.0143233
0.0651508
0.0131814
0.0640133
0.0129888
0.0629205
0.0104341
0.0615319
0.0102662
0.00719787
0.0601374
0.046327
0.00653332
-0.0466571
0.0460348
0.0063448
0.045789
0.00630396
0.0456132
0.0059536
0.0454758
0.0055081
0.045467
0.00479544
0.0454793
0.00407031
0.0456324
0.00299038
0.0458085
0.00234262
0.0461169
0.00125876
0.0465475
0.000122961
0.0471019
-0.00226367
0.0475818
-0.00424494
0.0479892
-0.00680586
0.0483038
-0.00841062
0.0485926
-0.0103687
0.0488037
-0.011388
0.0490098
-0.0126259
0.0492308
-0.0131542
0.0495022
-0.0138395
0.0497563
-0.0140345
0.0501595
-0.0147286
0.0505458
-0.0152308
0.0511105
-0.0164722
0.0518309
-0.0173035
0.0530638
-0.0186074
0.0547047
-0.0184089
0.0569924
-0.0175249
0.0595447
-0.0137235
0.0622894
-0.00908114
0.0647213
-0.00226284
0.0666733
0.00361198
0.0676796
0.00955399
0.0679328
0.0123068
0.0674736
0.0147825
0.0667337
0.0139214
0.0656155
0.014107
0.0644547
0.0115949
0.0632762
0.0114447
0.00852992
0.0619442
0.0461859
0.00682507
-0.0464776
0.045916
0.00661464
0.0457317
0.00648828
0.0455839
0.00610139
0.045502
0.00559003
0.045539
0.00475848
0.0455801
0.00402916
0.0457098
0.00286069
0.0459082
0.00214419
0.0462974
0.000869572
0.046773
-0.00035263
0.0472883
-0.00277897
0.0477074
-0.00466405
0.0481034
-0.00720178
0.0483967
-0.00870398
0.0486045
-0.0105765
0.0488288
-0.0116123
0.0490712
-0.0128684
0.0492136
-0.0132966
0.0493814
-0.0140073
0.0494942
-0.0141472
0.049704
-0.0149384
0.0498921
-0.0154189
0.050293
-0.0168731
0.0509172
-0.0179277
0.052016
-0.0197062
0.0534582
-0.0198511
0.0558214
-0.0198881
0.0587668
-0.016669
0.0621308
-0.0124451
0.0651917
-0.00532382
0.0678266
0.000977112
0.0693802
0.00800039
0.0701114
0.0115756
0.0699911
0.0149028
0.0693312
0.0145813
0.0682494
0.0151888
0.0671215
0.0127228
0.065879
0.0126871
0.00998686
0.0644221
0.0461822
0.00710641
-0.0464636
0.0459256
0.00687131
0.0457549
0.00665891
0.045637
0.00621929
0.0455835
0.00564355
0.0456522
0.00468977
0.0457418
0.00393958
0.0459133
0.00268921
0.0461492
0.00190828
0.046614
0.000404731
0.0471072
-0.000845794
0.0475724
-0.00324415
0.0479282
-0.00501989
0.0482231
-0.0074967
0.0484755
-0.00895639
0.0487189
-0.0108199
0.048898
-0.0117914
0.0490871
-0.0130575
0.0492146
-0.0134241
0.0493761
-0.0141688
0.0493978
-0.0141689
0.0494697
-0.0150103
0.0495355
-0.0154848
0.0496973
-0.0170349
0.0499037
-0.0181341
0.0506464
-0.0204489
0.0518738
-0.0210786
0.0540707
-0.022085
0.0570742
-0.0196724
0.0609657
-0.0163366
0.0647849
-0.00914294
0.0683205
-0.00255856
0.0706816
0.00563932
0.0719611
0.0102962
0.0721312
0.0147327
0.0716169
0.0150956
0.0706957
0.0161101
0.0694777
0.0139407
0.0682669
0.013898
0.0114984
0.0667553
0.0460188
0.00734819
-0.0462606
0.0458249
0.00706525
0.0456986
0.00678511
0.0456482
0.0062697
0.0456462
0.0056456
0.0457221
0.00461383
0.045842
0.00381968
0.0460601
0.00247117
0.0463303
0.00163802
0.0467774
-4.23665e-05
0.0472789
-0.00134724
0.0478017
-0.00376694
0.0481368
-0.00535502
0.048392
-0.00775189
0.0486068
-0.00917122
0.0488465
-0.0110595
0.0489864
-0.0119314
0.0491744
-0.0132454
0.049234
-0.0134837
0.0493439
-0.0142787
0.0493367
-0.0141617
0.0493239
-0.0149975
0.049193
-0.0153539
0.0491823
-0.0170241
0.0492161
-0.0181679
0.0496864
-0.0209191
0.0505289
-0.0219211
0.0523274
-0.0238834
0.0549854
-0.0223304
0.0590415
-0.0203927
0.0635783
-0.0136797
0.0682059
-0.00718618
0.0717963
0.00204893
0.0740397
0.00805282
0.0748397
0.0139326
0.0746535
0.0152819
0.0738209
0.0169427
0.0725838
0.0151778
0.0713648
0.0151171
0.0130197
0.0698435
0.0459735
0.00760624
-0.0462315
0.0458258
0.00721297
0.0457609
0.00685
0.0457785
0.00625208
0.0458349
0.00558918
0.045928
0.00452074
0.0460908
0.00365685
0.0463421
0.00221992
0.0467013
0.0012788
0.0471549
-0.00049596
0.0476428
-0.00183511
0.0480836
-0.00420774
0.0484472
-0.00571871
0.0486987
-0.00800333
0.0488565
-0.00932906
0.0490257
-0.0112287
0.0491356
-0.0120413
0.0492942
-0.013404
0.0492974
-0.013487
0.0493402
-0.0143215
0.049268
-0.0140895
0.0491761
-0.0149057
0.048999
-0.0151767
0.0488544
-0.0168795
0.0487464
-0.0180599
0.0488389
-0.0210116
0.0493174
-0.0223996
0.0507794
-0.0253455
0.0530199
-0.024571
0.0566418
-0.0240147
0.0612603
-0.0182983
0.0666713
-0.0125972
0.0717541
-0.00303381
0.0755216
0.00428528
0.0774935
0.0119607
0.0778532
0.0149222
0.0772427
0.0175531
0.0759406
0.0164799
0.0747155
0.0163422
0.0146454
0.0730897
0.045906
0.00777663
-0.0460763
0.045828
0.00729094
0.0458031
0.00687486
0.0458358
0.00621945
0.0458954
0.00552956
0.0460516
0.00436457
0.0462386
0.00346984
0.0464882
0.00197033
0.0468713
0.000895613
0.0473211
-0.000945707
0.0477897
-0.0023037
0.048171
-0.00458906
0.0485274
-0.00607507
0.0488156
-0.00829154
0.0490509
-0.00956439
0.049267
-0.0114448
0.0493023
-0.0120766
0.0494186
-0.0135203
0.0494106
-0.0134789
0.0493975
-0.0143084
0.0492455
-0.0139376
0.0490783
-0.0147384
0.048856
-0.0149545
0.0484778
-0.0165013
0.0481722
-0.0177543
0.0480372
-0.0208766
0.0482133
-0.0225757
0.0492234
-0.0263557
0.0511851
-0.0265326
0.0545174
-0.027347
0.0589256
-0.0227064
0.064362
-0.0180336
0.0701843
-0.00885612
0.0756519
-0.00118231
0.0794668
0.00814589
0.081231
0.0131579
0.0814298
0.0173543
0.0802267
0.017683
0.0787609
0.017808
0.016373
0.0770333
0.0460393
0.00792517
-0.0461879
0.0459893
0.00734094
0.0460017
0.00686244
0.0460599
0.0061613
0.0461836
0.00540584
0.0463611
0.00418708
0.0466274
0.00320352
0.0469306
0.00166711
0.0473085
0.000517801
0.0477146
-0.00135187
0.0481745
-0.00276359
0.0485305
-0.00494507
0.0488521
-0.0063966
0.0491305
-0.00856995
0.0492906
-0.0097245
0.049498
-0.0116522
0.0495663
-0.012145
0.0496403
-0.0135943
0.049567
-0.0134056
0.0495117
-0.0142531
0.0493313
-0.0137571
0.0490276
-0.0144347
0.0487049
-0.0146318
0.0481741
-0.0159704
0.0477583
-0.0173386
0.04729
-0.0204083
0.0471012
-0.0223869
0.0475477
-0.0268021
0.0491052
-0.0280901
0.0520197
-0.0302615
0.0565534
-0.0272401
0.0620436
-0.0235238
0.0681528
-0.0149653
0.0742145
-0.00724399
0.0797401
0.00262024
0.0834755
0.00942256
0.0854345
0.0153952
0.0853442
0.0177733
0.0839517
0.0192005
0.0184225
0.0819022
0.0459816
0.00799466
-0.0460511
0.0459885
0.00733407
0.0460299
0.00682101
0.0461355
0.00605574
0.0462825
0.00525887
0.0464794
0.00399018
0.04677
0.0029129
0.0470765
0.00136061
0.0474944
9.99302e-05
0.0478988
-0.00175635
0.0483002
-0.00316496
0.0486733
-0.00531817
0.048977
-0.00670029
0.0492592
-0.00885215
0.0494258
-0.00989108
0.0496075
-0.0118339
0.0496566
-0.012194
0.0497308
-0.0136686
0.0496678
-0.0133426
0.0495567
-0.0141419
0.0493818
-0.0135822
0.0489971
-0.0140501
0.0486332
-0.0142679
0.0480004
-0.0153376
0.0473542
-0.0166924
0.0465049
-0.019559
0.045946
-0.021828
0.0456533
-0.0265094
0.046632
-0.0290687
0.0487125
-0.032342
0.053179
-0.0317067
0.0588379
-0.0291826
0.0660148
-0.0221422
0.0727464
-0.0139756
0.0791235
-0.00375691
0.0841779
0.00436822
0.0877958
0.0117773
0.0896146
0.0159546
0.0899691
0.0188459
0.0204464
0.0879452
0.0462501
0.00804957
-0.046305
0.046275
0.00730917
0.0463585
0.0067375
0.046511
0.00590323
0.0467439
0.00502599
0.0469761
0.00375799
0.0472806
0.00260841
0.0476189
0.00102232
0.0480007
-0.000281953
0.0484102
-0.00216579
0.0487796
-0.00353443
0.049156
-0.00569455
0.0494113
-0.00695555
0.049674
-0.00911481
0.0498193
-0.0100364
0.0499284
-0.011943
0.0499765
-0.0122421
0.0499442
-0.0136362
0.0498164
-0.0132148
0.049628
-0.0139535
0.049422
-0.0133762
0.0489887
-0.0136168
0.0485494
-0.0138286
0.0478371
-0.0146252
0.0470232
-0.0158785
0.0458315
-0.0183673
0.0449248
-0.0209214
0.0438191
-0.0254037
0.0440697
-0.0293194
0.0450067
-0.033279
0.0487994
-0.0354994
0.0538622
-0.0342455
0.0619029
-0.0301829
0.0701637
-0.0222364
0.0784834
-0.0120766
0.0849714
-0.00211974
0.0899741
0.00677457
0.0923853
0.0135434
0.0946971
0.0165342
0.020984
0.0941595
0.0461937
0.00801371
-0.0461578
0.0462513
0.00725157
0.0463891
0.00659968
0.0465519
0.00574047
0.0467959
0.00478198
0.0470801
0.00347377
0.0474003
0.00228819
0.047785
0.000637702
0.04815
-0.000646993
0.0485734
-0.00258923
0.0489313
-0.00389226
0.0493039
-0.00606719
0.0496038
-0.00725539
0.0498458
-0.00935685
0.0500359
-0.0102265
0.0501098
-0.0120169
0.0501694
-0.0123018
0.0500542
-0.013521
0.0499962
-0.0131568
0.0497038
-0.0136611
0.049491
-0.0131635
0.0490261
-0.0131518
0.0484773
-0.0132799
0.0477258
-0.0138737
0.0467691
-0.0149218
0.0452943
-0.0168925
0.0440145
-0.0196415
0.0421759
-0.0235651
0.0415213
-0.0286648
0.0411217
-0.0328795
0.0437099
-0.0380876
0.047532
-0.0380676
0.0556909
-0.0383418
0.0642561
-0.0308015
0.0753434
-0.023164
0.0841609
-0.0109372
0.0925863
-0.00165084
0.096586
0.00954368
0.0992051
0.0139151
0.0204821
0.0997069
0.0466617
0.00796438
-0.0466124
0.0467677
0.00714559
0.0469797
0.00638761
0.0471962
0.00552397
0.047445
0.00453324
0.0477707
0.00314799
0.0480748
0.00198416
0.0484779
0.000234592
0.0488101
-0.000979223
0.0492026
-0.00298172
0.049569
-0.00425864
0.0498413
-0.00633953
0.050175
-0.00758912
0.0503023
-0.00948413
0.0505647
-0.0104889
0.0504903
-0.0119425
0.0506103
-0.0124217
0.0503387
-0.0132494
0.0503014
-0.0131195
0.0499301
-0.0132898
0.0496792
-0.0129127
0.0492186
-0.0126913
0.0485755
-0.0126367
0.0477497
-0.013048
0.0466445
-0.0138166
0.0450632
-0.0153111
0.0433376
-0.017916
0.0409598
-0.0211873
0.0391515
-0.0268565
0.0373755
-0.0311034
0.0381303
-0.0388424
0.0403358
-0.040273
0.0472364
-0.0452424
0.0557169
-0.039282
0.0680351
-0.0354822
0.0796069
-0.022509
0.0915458
-0.0135897
0.100277
0.000812124
0.1058
0.0083929
0.0197576
0.106524
0.0465432
0.00783021
-0.0464091
0.0467372
0.00695164
0.0469136
0.00621115
0.0471934
0.00524422
0.0474869
0.00423972
0.0478627
0.00277223
0.0482093
0.00163748
0.0485765
-0.000132575
0.0490277
-0.00143037
0.049339
-0.0032931
0.0498434
-0.00476297
0.0500057
-0.00650181
0.0505031
-0.00808657
0.0504736
-0.00945466
0.0508231
-0.0108384
0.0506243
-0.0117437
0.0508031
-0.0126005
0.0504515
-0.0128978
0.0504077
-0.0130757
0.0499877
-0.0128697
0.0496764
-0.0126014
0.0492583
-0.0122732
0.0486591
-0.0120375
0.0477909
-0.0121798
0.0466215
-0.0126471
0.0450583
-0.013748
0.04303
-0.0158877
0.0403985
-0.0185558
0.0373495
-0.0238075
0.0343483
-0.0281022
0.032371
-0.0368651
0.0328435
-0.0407455
0.0363115
-0.0487105
0.0444341
-0.0474045
0.055313
-0.0463611
0.0686457
-0.0358417
0.0838815
-0.0288255
0.0975902
-0.0128966
0.110425
-0.00444187
0.0150525
0.11513
0.0472744
0.00770138
-0.0471455
0.0474984
0.0067276
0.0477459
0.00596364
0.0480817
0.00490837
0.0484105
0.00391094
0.0486998
0.00248299
0.0491923
0.00114491
0.0494273
-0.000367578
0.0500074
-0.0020104
0.0501507
-0.00343643
0.0507352
-0.00534749
0.050788
-0.0065546
0.0512513
-0.00854991
0.0511758
-0.00937907
0.051452
-0.0111146
0.0512359
-0.0115276
0.0512364
-0.012601
0.0509259
-0.0125873
0.0506934
-0.0128432
0.0503447
-0.012521
0.049939
-0.0121956
0.0494677
-0.0118019
0.0488621
-0.0114319
0.0480307
-0.0113484
0.0468508
-0.0114672
0.0453085
-0.0122058
0.0431111
-0.0136902
0.0403937
-0.0158383
0.0365473
-0.0199612
0.0326885
-0.0242434
0.02776
-0.0319366
0.025575
-0.0385605
0.0247749
-0.0479104
0.0290377
-0.0516673
0.0351315
-0.0524549
0.0475947
-0.0483049
0.0633422
-0.044573
0.0811315
-0.0306859
0.10014
-0.0234502
-0.0012145
0.116407
0.0470625
0.00749125
-0.0468524
0.0473248
0.00646534
0.0476564
0.00563199
0.0479805
0.00458429
0.048502
0.00338945
0.0488148
0.00217018
0.049407
0.000552717
0.0496664
-0.000626932
0.0502845
-0.00262858
0.0505773
-0.00372916
0.0510736
-0.00584379
0.0512788
-0.00675979
0.05154
-0.00881115
0.0516701
-0.00950916
0.0516883
-0.0111328
0.0516495
-0.0114888
0.0514412
-0.0123927
0.0512323
-0.0123784
0.0508714
-0.0124823
0.0505396
-0.0121892
0.0501132
-0.0117693
0.0496341
-0.0113229
0.0490997
-0.0108975
0.0484046
-0.0106532
0.0473797
-0.0104423
0.0459603
-0.0107863
0.0438286
-0.0115586
0.0410801
-0.0130898
0.0369747
-0.0158558
0.0324124
-0.0196811
0.0259451
-0.0254693
0.0201836
-0.032799
0.0147796
-0.0425064
0.0112785
-0.0481662
0.00888767
-0.0500641
0.0144732
-0.0538904
0.0260091
-0.056109
0.045364
-0.0500408
0.0666026
-0.0446887
-0.0262127
0.0916007
0.0482929
0.00722951
-0.0480311
0.0485588
0.00619942
0.0489635
0.00522731
0.0492408
0.00430691
0.0497398
0.0028905
0.0500519
0.0018581
0.0505588
4.57459e-05
0.0510053
-0.00107344
0.0513717
-0.00299494
0.0518782
-0.00423569
0.0520575
-0.00602303
0.0524668
-0.00716907
0.0524696
-0.00881397
0.0527139
-0.00975352
0.052493
-0.0109119
0.0524757
-0.0114715
0.0520833
-0.0120004
0.0518306
-0.0121257
0.0513845
-0.0120362
0.0509696
-0.0117743
0.0505136
-0.0113132
0.0500778
-0.010887
0.0495567
-0.0103765
0.0490044
-0.0101009
0.0481694
-0.00960729
0.0470043
-0.00962129
0.0451322
-0.00968644
0.0426284
-0.010586
0.0388007
-0.0120281
0.0338585
-0.0147389
0.027232
-0.0188428
0.018784
-0.024351
0.00907618
-0.0327985
-0.00247804
-0.036612
-0.0123165
-0.0402256
-0.0171044
-0.0491025
-0.0165255
-0.0566879
-0.00841771
-0.0581486
0.00731837
-0.0604248
-0.0528494
0.0339551
0.0482584
0.00681876
-0.0478476
0.0485963
0.00586147
0.0491159
0.00470773
0.0496474
0.00377544
0.0500855
0.00245239
0.0507285
0.00121513
0.0510318
-0.000257626
0.0517327
-0.00177427
0.0520213
-0.00328361
0.0525971
-0.00481142
0.0527151
-0.00614107
0.0531789
-0.00763288
0.0531337
-0.00876877
0.0532688
-0.0098886
0.0530315
-0.0106747
0.052882
-0.0113219
0.0525089
-0.0116273
0.0521515
-0.0117684
0.051687
-0.0115717
0.0512559
-0.0113432
0.0507729
-0.0108302
0.0503907
-0.0105048
0.0499615
-0.00994727
0.0495113
-0.00965073
0.0489385
-0.00903447
0.0481279
-0.00881068
0.0468161
-0.00837472
0.0447689
-0.0085388
0.0419242
-0.00918338
0.0375228
-0.0103375
0.0316417
-0.0129617
0.0228968
-0.0156062
0.0116562
-0.0215579
-0.00099457
-0.0239612
-0.014578
-0.0266422
-0.0280623
-0.0356182
-0.0394732
-0.0452769
-0.0455544
-0.0520674
-0.0485186
-0.0574606
-0.0596826
-0.0416854
0.0496447
0.00644783
-0.0492737
0.0501878
0.00531832
0.0505781
0.00431747
0.0511764
0.00317717
0.0516099
0.00201882
0.0523286
0.000496501
0.0527485
-0.000677593
0.0533617
-0.00238743
0.0537385
-0.00366041
0.0541725
-0.00524541
0.0544722
-0.00644076
0.0546421
-0.0078028
0.0546953
-0.00882194
0.0545583
-0.00975162
0.0543596
-0.010476
0.0539875
-0.0109498
0.0535435
-0.0111832
0.0530332
-0.0112581
0.0524865
-0.0110249
0.0519397
-0.0107964
0.0514658
-0.0103563
0.0510804
-0.0101195
0.0507544
-0.00962124
0.0504768
-0.00937311
0.0501818
-0.00873947
0.0496706
-0.0082995
0.0489917
-0.00769581
0.0476759
-0.00722305
0.0457012
-0.00720862
0.0425129
-0.00714917
0.0380605
-0.00850931
0.0316806
-0.00922622
0.0220747
-0.0119521
0.0123026
-0.0141891
-0.000557729
-0.0137818
-0.0178663
-0.0183096
-0.0358963
-0.0272469
-0.0516479
-0.0363158
-0.0646383
-0.0444703
-0.0504807
-0.0738401
0.0502984
0.00580462
-0.0496552
0.0510721
0.00454468
0.0517388
0.00365072
0.0524997
0.00241626
0.0531921
0.0013264
0.0536851
3.55702e-06
0.0543655
-0.00135801
0.0548339
-0.00285581
0.055329
-0.00415555
0.0555883
-0.00550468
0.0558704
-0.00672285
0.0558615
-0.00779391
0.0558366
-0.00879707
0.0555547
-0.00946975
0.0552362
-0.0101575
0.0547131
-0.0104268
0.0541793
-0.0106494
0.0535291
-0.0106079
0.0529309
-0.0104268
0.0523596
-0.0102251
0.0518868
-0.00988352
0.0515469
-0.00977961
0.0513984
-0.00947272
0.051323
-0.00929765
0.0513485
-0.00876499
0.0513671
-0.00831812
0.0511023
-0.00743107
0.0506636
-0.00678428
0.0495273
-0.00607232
0.0478726
-0.00549452
0.0448567
-0.00549338
0.0411641
-0.00553367
0.0346232
-0.00541114
0.0275877
-0.00715364
0.0202828
-0.00647692
0.0064142
-0.004441
-0.0132299
-0.0076028
-0.0339709
-0.0155748
-0.0538541
-0.0245871
-0.0327012
-0.0716336
0.0522041
0.0053146
-0.0517141
0.0527498
0.00399895
0.0533978
0.00300276
0.054107
0.00170709
0.0548772
0.000556201
0.0556717
-0.000790975
0.0563351
-0.00202145
0.0569369
-0.00345759
0.0573627
-0.00458133
0.0577264
-0.00586835
0.0578271
-0.00682356
0.0578388