/*--------------------------------*- C++ -*----------------------------------*\
  =========                 |
  \\      /  F ield         | OpenFOAM: The Open Source CFD Toolbox
   \\    /   O peration     | Website:  https://openfoam.org
    \\  /    A nd           | Version:  11
     \\/     M anipulation  |
\*---------------------------------------------------------------------------*/
FoamFile
{
    format      ascii;
    class       volVectorField;
    location    "4";
    object      U;
}
// * * * * * * * * * * * * * * * * * * * * * * * * * * * * * * * * * * * * * //

dimensions      [0 1 -1 0 0 0 0];

internalField   nonuniform List<vector> 
9600
(
(0.969034 0.00190998 5.98255e-21)
(0.965798 0.00207729 0)
(0.964452 0.00277749 0)
(0.963344 0.00457396 1.08477e-22)
(0.956862 0.00656272 0)
(0.946836 0.00701146 -1.20214e-22)
(0.940883 0.00622186 -4.06277e-21)
(0.940699 0.0059635 4.04565e-21)
(0.940697 0.00871425 -4.36899e-21)
(0.927806 0.0138106 4.41813e-21)
(0.880248 0.0152642 0)
(0.837456 0.0104431 -4.64614e-21)
(0.819934 0.00507811 4.73365e-21)
(0.81928 0.00255733 -7.13145e-23)
(0.825857 -0.000324964 2.20943e-21)
(0.849612 -0.00644676 -2.19698e-21)
(0.888534 -0.0127155 0)
(0.928103 -0.017638 -8.3786e-22)
(0.964286 -0.0213589 8.38646e-22)
(0.998956 -0.0229033 -2.48135e-24)
(1.03796 -0.0224314 1.97451e-24)
(1.07324 -0.0219 3.21666e-22)
(1.10373 -0.0206572 -3.24386e-22)
(1.13849 -0.0177669 0)
(1.16976 -0.0146256 0)
(1.18233 -0.013183 -4.06718e-22)
(1.18099 -0.0124757 -2.19363e-22)
(1.17391 -0.0133697 6.48054e-22)
(1.1586 -0.0157206 -2.34953e-23)
(1.1294 -0.0180516 2.09746e-23)
(1.09398 -0.0195898 0)
(1.06095 -0.0196326 -5.78962e-22)
(1.03238 -0.0199762 5.63923e-22)
(1.01024 -0.017991 1.40522e-22)
(0.993387 -0.0170487 -1.39749e-22)
(0.982488 -0.0145831 1.13865e-25)
(0.974814 -0.0111159 0)
(0.968977 -0.00699343 2.91347e-22)
(0.964279 -0.00322454 -2.9172e-22)
(0.956759 0.000761374 4.90038e-24)
(0.972863 0.000557276 2.93486e-22)
(0.971757 7.72044e-05 0)
(0.968984 -0.000907805 0)
(0.966716 -0.00137581 -3.37087e-22)
(0.964274 -0.00176283 -7.76252e-21)
(0.960552 -0.0032239 1.22531e-20)
(0.957073 -0.00484875 -4.0953e-21)
(0.954731 -0.00484891 -1.36223e-22)
(0.952354 -0.00317236 -1.41643e-22)
(0.946533 0.000381002 0)
(0.931618 0.00205681 -1.48859e-22)
(0.916203 -0.000138054 -4.90313e-21)
(0.907547 -0.00298626 7.05203e-21)
(0.906671 -0.00500547 -2.34185e-21)
(0.910683 -0.00717445 -3.56032e-23)
(0.925662 -0.00746503 0)
(0.956902 -0.00439103 -8.8571e-22)
(0.988529 0.00118834 9.49337e-22)
(1.01849 0.0069796 -3.55179e-22)
(1.04674 0.00843981 3.5783e-22)
(1.07699 0.00812336 2.2435e-22)
(1.10754 0.00939539 -2.16989e-22)
(1.13526 0.0086627 0)
(1.16416 0.00613683 -1.58991e-22)
(1.19315 0.00706914 1.58731e-22)
(1.21165 0.0117858 -4.13283e-24)
(1.21532 0.0154405 6.08173e-22)
(1.21189 0.0192672 -5.97648e-22)
(1.19902 0.0246246 7.30107e-23)
(1.16978 0.0297967 1.25289e-21)
(1.13906 0.0315847 -1.35179e-21)
(1.1057 0.0299885 7.65699e-22)
(1.07525 0.0279901 -7.49287e-22)
(1.04878 0.024067 1.08439e-23)
(1.02663 0.0214883 -2.07634e-22)
(1.00948 0.0158269 1.96154e-22)
(0.99545 0.0118397 0)
(0.983568 0.00553575 2.95554e-22)
(0.979138 0.00363237 -2.97262e-22)
(0.97013 -0.00441879 -1.49178e-23)
(0.971706 0.000690569 6.20601e-21)
(0.970805 0.0010118 -2.09524e-22)
(0.968449 0.00152671 0)
(0.96609 0.00293267 2.31166e-22)
(0.96465 0.00460409 0)
(0.961713 0.00515409 -4.4246e-21)
(0.955594 0.00500586 -1.58849e-22)
(0.95231 0.00586366 4.49525e-21)
(0.952313 0.00910021 1.44234e-22)
(0.950482 0.0155737 0)
(0.944966 0.0176931 4.55932e-22)
(0.930208 0.0129896 -4.82919e-21)
(0.913965 0.0055807 5.01628e-21)
(0.910873 0.000980718 2.23339e-22)
(0.91598 -0.00344051 -1.44654e-22)
(0.936248 -0.0131198 6.88346e-23)
(0.962501 -0.0211813 -9.73098e-22)
(0.988204 -0.0258511 1.09137e-22)
(1.01728 -0.0287772 8.90182e-22)
(1.04549 -0.0308269 -5.1464e-24)
(1.0722 -0.0308888 4.13085e-24)
(1.10389 -0.0304623 3.48906e-22)
(1.13498 -0.0291844 -3.54965e-22)
(1.16176 -0.028369 -1.97189e-22)
(1.1893 -0.0246196 1.96879e-22)
(1.21231 -0.0190774 0)
(1.2197 -0.0131581 1.59205e-23)
(1.21781 -0.0103581 -9.01473e-23)
(1.20801 -0.00737067 -4.98225e-23)
(1.18153 -0.00433117 1.41328e-22)
(1.15085 -0.00237116 1.18109e-22)
(1.11752 -0.00215079 -8.12537e-22)
(1.08743 -0.003649 2.70775e-22)
(1.06283 -0.00388281 4.62616e-22)
(1.0429 -0.00465623 1.04523e-23)
(1.02628 -0.00327022 0)
(1.01754 -0.00228599 -1.73056e-24)
(1.00889 0.000749911 2.49004e-22)
(1.00508 0.00184131 -2.46341e-22)
(0.997241 0.00440138 1.00578e-23)
(0.97075 0.000780961 4.17891e-22)
(0.969739 0.00112176 -2.21383e-22)
(0.967161 0.00162008 0)
(0.965071 0.00218956 0)
(0.963047 0.00235417 -7.80211e-21)
(0.958905 0.0011193 8.09919e-21)
(0.954329 -0.000521361 4.27341e-21)
(0.952703 -0.000456296 -4.24919e-21)
(0.952589 0.0024794 4.82952e-21)
(0.951392 0.0081618 -4.58545e-21)
(0.949727 0.00942388 -3.10039e-22)
(0.945445 0.00667595 -1.563e-22)
(0.937487 -0.000410132 -1.55048e-22)
(0.937345 -0.00725831 -1.53149e-22)
(0.946141 -0.0148618 2.61667e-21)
(0.965887 -0.0203531 -9.46917e-23)
(0.988069 -0.0193363 -3.21487e-21)
(1.01192 -0.0151969 9.82941e-22)
(1.03625 -0.0093326 -2.54235e-23)
(1.05997 -0.00712235 1.04894e-23)
(1.08308 -0.00779003 -2.41378e-22)
(1.10862 -0.00730956 5.92743e-22)
(1.13659 -0.00610681 -3.74443e-22)
(1.16234 -0.00789299 -2.26461e-23)
(1.18677 -0.00681744 0)
(1.20969 0.00222518 0)
(1.22176 0.0130135 6.17832e-22)
(1.22078 0.0201477 -6.56017e-22)
(1.21006 0.027719 1.67535e-21)
(1.1852 0.0350981 -1.77069e-21)
(1.15688 0.0377444 -8.22789e-23)
(1.12619 0.037243 6.33948e-23)
(1.09566 0.0339075 -5.07774e-23)
(1.06973 0.0294219 3.96757e-22)
(1.04586 0.0257125 -7.92887e-22)
(1.02878 0.0188668 4.99524e-22)
(1.01214 0.0138988 -9.98171e-23)
(0.998403 0.00649104 -9.39579e-24)
(0.987564 0.00509856 2.53371e-23)
(0.979269 -0.00202023 -1.94697e-23)
(0.969873 0.000916934 6.44565e-21)
(0.968733 0.00134163 -7.88428e-24)
(0.966117 0.00209383 0)
(0.96365 0.00293786 0)
(0.961444 0.00382101 -5.2558e-22)
(0.958887 0.00380246 8.32264e-22)
(0.955602 0.00332765 -4.40199e-21)
(0.951972 0.00471795 9.27151e-21)
(0.950506 0.00908996 -4.87789e-21)
(0.953176 0.0140748 -3.17257e-22)
(0.958269 0.0149983 0)
(0.961518 0.010885 -1.01618e-20)
(0.958242 0.0032036 1.02092e-20)
(0.954951 -0.00395027 -2.78861e-21)
(0.959368 -0.0109092 2.3286e-21)
(0.970959 -0.0207751 -2.87902e-22)
(0.988047 -0.0270674 -1.13527e-21)
(1.00833 -0.0309187 1.16341e-22)
(1.03239 -0.0328714 8.88113e-22)
(1.05845 -0.0349124 -5.34755e-24)
(1.08267 -0.0353121 -2.47753e-22)
(1.10663 -0.0361458 6.25901e-22)
(1.1359 -0.0349374 -3.58472e-22)
(1.16326 -0.0343713 2.32089e-23)
(1.18568 -0.0312415 8.35163e-24)
(1.20701 -0.0254179 -2.97525e-22)
(1.2226 -0.0161753 2.41346e-22)
(1.22474 -0.00758009 2.50676e-24)
(1.21707 -5.05381e-06 1.08876e-22)
(1.19469 0.00901745 0)
(1.16584 0.0152832 9.77355e-23)
(1.1336 0.0178892 0)
(1.10402 0.0160663 1.68267e-22)
(1.07629 0.0136789 0)
(1.05448 0.0115291 0)
(1.03488 0.00978476 1.82249e-22)
(1.02307 0.0089665 -1.82271e-22)
(1.01217 0.0089439 1.90407e-22)
(1.00787 0.00848686 -1.90371e-22)
(0.998922 0.00786996 1.9884e-23)
(0.968734 0.00116364 0)
(0.967495 0.00162228 -8.42635e-24)
(0.964773 0.00264182 0)
(0.962273 0.00399666 0)
(0.960536 0.0045908 -8.9779e-21)
(0.958327 0.0035627 3.7824e-21)
(0.954548 0.00292207 9.57123e-21)
(0.951243 0.00452503 -4.89071e-21)
(0.951093 0.00768771 0)
(0.955572 0.0110121 0)
(0.962925 0.0104244 0)
(0.96556 0.00675281 -4.58533e-21)
(0.96255 -0.000273575 4.93732e-21)
(0.961738 -0.00967498 2.85714e-21)
(0.970747 -0.0207678 -2.85288e-21)
(0.985129 -0.0293324 -2.10309e-21)
(1.00386 -0.0307054 1.36886e-21)
(1.02416 -0.0292887 1.02001e-21)
(1.04685 -0.0249173 -3.79619e-22)
(1.06901 -0.0227697 3.79753e-22)
(1.091 -0.0228034 8.67672e-24)
(1.11252 -0.0237601 2.74651e-23)
(1.13751 -0.0226051 -4.12676e-23)
(1.16377 -0.0225145 0)
(1.18661 -0.0216098 -8.56501e-24)
(1.20754 -0.0126515 3.02163e-22)
(1.22446 0.0039052 -1.91532e-22)
(1.22938 0.0169422 -1.56703e-21)
(1.22163 0.0275856 3.38391e-21)
(1.20032 0.0375286 -1.71778e-21)
(1.17362 0.042559 -1.84904e-21)
(1.14303 0.0441083 1.34382e-21)
(1.11267 0.0413414 -1.19086e-22)
(1.08486 0.0364793 -5.72949e-22)
(1.06002 0.0320441 -9.79689e-23)
(1.04168 0.0255083 6.30906e-22)
(1.02503 0.0198518 0)
(1.01058 0.0115149 1.39202e-22)
(0.999576 0.00937566 1.24669e-22)
(0.986485 0.0018106 -2.68966e-22)
(0.96774 0.0014004 8.38015e-21)
(0.966408 0.00192012 -8.90017e-24)
(0.96364 0.00340732 0)
(0.961321 0.00484104 0)
(0.959743 0.00478048 8.76107e-21)
(0.957344 0.00387812 -8.80293e-21)
(0.953687 0.00428573 5.0403e-21)
(0.951612 0.00609154 7.79297e-22)
(0.95247 0.0082244 -5.19779e-21)
(0.957967 0.0104965 5.39006e-21)
(0.965976 0.0100728 -4.76326e-21)
(0.968995 0.00677999 -5.74196e-21)
(0.969044 -0.000699958 6.10003e-21)
(0.97222 -0.0104013 0)
(0.981691 -0.0197062 2.79068e-21)
(0.99191 -0.0286204 -5.07072e-21)
(1.00606 -0.0336042 1.25997e-21)
(1.02285 -0.0369627 1.26776e-22)
(1.04352 -0.0377898 4.72858e-22)
(1.06601 -0.0395096 3.86907e-22)
(1.08971 -0.0397414 2.46576e-22)
(1.11168 -0.0411847 1.42679e-22)
(1.13604 -0.0409846 -3.55249e-22)
(1.16339 -0.040608 -3.21145e-22)
(1.18754 -0.037472 3.20541e-22)
(1.20624 -0.0318861 -2.47527e-22)
(1.22266 -0.02139 2.4244e-22)
(1.23213 -0.00924045 8.91455e-23)
(1.22876 0.00455939 0)
(1.20989 0.0192157 2.0439e-21)
(1.18321 0.030362 -1.68041e-21)
(1.15192 0.0362058 -1.17299e-21)
(1.12193 0.0364236 1.34931e-21)
(1.09196 0.032422 7.81453e-22)
(1.06791 0.0289369 -5.93707e-22)
(1.04673 0.0237092 -9.63144e-24)
(1.03258 0.0205334 0)
(1.01803 0.0183428 4.73335e-23)
(1.01243 0.0172093 1.32145e-22)
(1.00197 0.0134448 -1.4219e-22)
(0.966576 0.00191353 6.79488e-21)
(0.965193 0.00241819 -5.23497e-22)
(0.962524 0.00419565 8.87962e-21)
(0.960439 0.00544102 -8.96174e-21)
(0.95874 0.00515936 5.92643e-22)
(0.956176 0.00473283 -6.17848e-22)
(0.953328 0.00538521 0)
(0.952516 0.00662285 4.03351e-21)
(0.95382 0.00796568 -5.35903e-21)
(0.960142 0.0093452 0)
(0.967734 0.00856987 4.19409e-21)
(0.970543 0.00477138 -4.92077e-21)
(0.972207 -0.00377044 1.0564e-24)
(0.975408 -0.0150061 0)
(0.984462 -0.0268931 2.53133e-21)
(0.996624 -0.036683 -2.22657e-21)
(1.01412 -0.0396107 -1.05843e-21)
(1.03268 -0.0402384 1.32399e-22)
(1.0534 -0.0376363 5.89458e-22)
(1.07494 -0.0365489 4.13782e-22)
(1.09569 -0.0363315 0)
(1.11648 -0.0377667 3.49213e-22)
(1.13836 -0.0377628 -3.61771e-22)
(1.16354 -0.0372162 0)
(1.18729 -0.0356659 -3.09564e-23)
(1.20851 -0.028249 0)
(1.22691 -0.0105691 4.73887e-22)
(1.23764 0.00885394 -2.36805e-21)
(1.23448 0.0244379 1.93807e-21)
(1.21696 0.0383757 -5.3011e-22)
(1.19311 0.0475073 -1.62907e-21)
(1.16161 0.0526018 3.6766e-21)
(1.12988 0.0522891 -1.73583e-21)
(1.10031 0.0475742 8.43428e-22)
(1.0734 0.0428304 -1.85927e-21)
(1.05268 0.0366979 1.09374e-21)
(1.03565 0.0306765 0)
(1.02016 0.0202377 -9.1381e-24)
(1.01124 0.0175598 1.85426e-22)
(0.994676 0.00787008 -2.02451e-22)
(0.965667 0.0022857 0)
(0.964281 0.00286556 1.05358e-21)
(0.961651 0.00484873 0)
(0.959621 0.00598489 1.20296e-21)
(0.957775 0.00564511 8.86e-21)
(0.955234 0.00545012 -4.94618e-21)
(0.953446 0.00621155 -5.28558e-21)
(0.953439 0.00667831 6.81721e-22)
(0.955079 0.00724389 0)
(0.961806 0.00775071 0)
(0.968777 0.00662392 6.50241e-21)
(0.971172 0.00265527 -6.52727e-21)
(0.973569 -0.00645924 -1.07662e-21)
(0.978089 -0.0188669 -3.50127e-22)
(0.987991 -0.0292146 2.59034e-21)
(0.999805 -0.0377029 -2.28095e-21)
(1.01596 -0.0414044 -1.07783e-21)
(1.03384 -0.0445356 1.37797e-22)
(1.05277 -0.0447943 5.45087e-22)
(1.07488 -0.0461493 3.96855e-22)
(1.09569 -0.0462612 1.80795e-23)
(1.11684 -0.0478644 4.481e-22)
(1.13717 -0.0485764 -4.63775e-22)
(1.16227 -0.049119 -3.33547e-23)
(1.18805 -0.0461512 6.8754e-23)
(1.20858 -0.0402656 0)
(1.22555 -0.0288764 5.75928e-22)
(1.23864 -0.0144104 -3.52459e-22)
(1.24035 0.00476091 -2.46038e-22)
(1.22722 0.0245796 5.65628e-22)
(1.20282 0.0409903 -2.70707e-22)
(1.1725 0.0504279 -2.03598e-21)
(1.14252 0.0538655 2.19131e-21)
(1.11111 0.0503439 -2.98085e-22)
(1.08493 0.0456845 -9.26882e-23)
(1.06088 0.0384661 9.54696e-22)
(1.04521 0.0337855 -8.04853e-22)
(1.02727 0.0283426 -1.68838e-22)
(1.01902 0.0273258 1.67334e-22)
(1.00587 0.0213782 0)
(0.964482 0.00289756 0)
(0.963095 0.00349538 0)
(0.960592 0.00555878 1.08722e-20)
(0.958589 0.00643372 -2.114e-20)
(0.956495 0.00619239 1.01947e-20)
(0.954515 0.00633348 0)
(0.953801 0.00644368 5.57209e-21)
(0.954082 0.00637185 1.18822e-22)
(0.955962 0.00635754 -5.03178e-21)
(0.96261 0.00629498 0)
(0.969255 0.00512939 -7.51502e-22)
(0.972336 -0.000257708 7.50899e-22)
(0.976728 -0.00971516 3.65631e-21)
(0.980641 -0.0218502 -2.56886e-21)
(0.987879 -0.0336143 0)
(0.99807 -0.0442552 2.44629e-21)
(1.01564 -0.0485841 -3.84242e-21)
(1.03688 -0.0503759 2.18428e-21)
(1.05766 -0.0486309 -9.56667e-22)
(1.08014 -0.0478714 -4.48048e-25)
(1.10082 -0.0472593 -3.0409e-22)
(1.12151 -0.0488007 2.67185e-22)
(1.14147 -0.0499278 -4.74886e-23)
(1.16349 -0.0505391 3.43564e-23)
(1.18732 -0.0489622 -3.79763e-23)
(1.2094 -0.0431696 0)
(1.23033 -0.0275679 0)
(1.24522 -0.00523308 -1.79081e-22)
(1.24724 0.0164898 2.25236e-21)
(1.23712 0.036244 -2.53279e-21)
(1.21432 0.0524266 0)
(1.18372 0.0627758 2.36115e-21)
(1.1522 0.0673552 -2.27174e-21)
(1.12093 0.0639056 1.37181e-21)
(1.09222 0.0591363 -1.19815e-21)
(1.06771 0.0518252 9.07722e-22)
(1.04842 0.0466637 -1.04683e-21)
(1.02949 0.0333972 0)
(1.02033 0.0298545 0)
(1.00462 0.0168371 7.23574e-25)
(0.963512 0.00327377 -1.83471e-22)
(0.962184 0.00400854 1.02982e-20)
(0.959698 0.00600278 -1.22964e-21)
(0.957515 0.00689896 -1.31178e-21)
(0.955534 0.00693758 -1.10009e-20)
(0.954268 0.00665608 1.67525e-20)
(0.95405 0.00634089 -5.65683e-21)
(0.954519 0.00596174 5.91782e-21)
(0.956586 0.00542756 -7.51175e-21)
(0.963019 0.00466672 -6.92149e-21)
(0.970601 0.00296168 1.3176e-20)
(0.973178 -0.00301968 -1.3143e-20)
(0.976688 -0.0131696 6.17751e-21)
(0.980942 -0.0268925 0)
(0.989657 -0.0382299 0)
(1.00061 -0.0477182 -3.15926e-21)
(1.01601 -0.051373 1.98523e-21)
(1.03659 -0.0537973 1.11842e-21)
(1.05657 -0.0536505 4.62005e-22)
(1.07922 -0.0550082 -4.30358e-22)
(1.10092 -0.0550776 1.88462e-23)
(1.12267 -0.0565035 4.37832e-22)
(1.14137 -0.0574405 -3.88215e-22)
(1.16289 -0.0594398 -4.87695e-22)
(1.188 -0.0576773 4.87208e-22)
(1.21179 -0.0519509 0)
(1.23048 -0.0398104 0)
(1.24652 -0.0236888 -1.62862e-22)
(1.25317 -0.00141141 2.33682e-21)
(1.24588 0.0239888 -2.32247e-21)
(1.22652 0.0464967 -3.00678e-21)
(1.1965 0.0602475 -3.77252e-23)
(1.16574 0.0677881 2.35414e-21)
(1.1323 0.0673154 1.45699e-21)
(1.10408 0.0636658 -3.4984e-21)
(1.07708 0.0551042 1.80552e-21)
(1.05867 0.0502115 1.49781e-22)
(1.03858 0.0414651 -4.8183e-22)
(1.02824 0.0394435 4.29747e-22)
(1.01312 0.0315065 -1.58929e-23)
(0.962195 0.00406194 -9.45443e-21)
(0.960876 0.00473236 1.83031e-20)
(0.958498 0.00658639 4.06676e-22)
(0.956241 0.00759022 -2.17533e-20)
(0.954685 0.00735233 1.3971e-20)
(0.95391 0.00672414 0)
(0.95387 0.00613684 0)
(0.954632 0.00528996 1.5508e-21)
(0.957112 0.00417915 7.84603e-22)
(0.963838 0.0025297 -4.78999e-21)
(0.971012 0.000445455 6.44803e-21)
(0.973029 -0.00609253 -6.36502e-21)
(0.977251 -0.0173356 9.5038e-21)
(0.983754 -0.0305404 -2.35501e-21)
(0.991151 -0.041181 2.79417e-21)
(0.99944 -0.0521033 -5.0248e-21)
(1.01209 -0.0578533 1.12123e-21)
(1.03314 -0.0613378 2.56638e-23)
(1.05595 -0.060303 6.27043e-22)
(1.08019 -0.0597555 4.10038e-22)
(1.10379 -0.0582605 0)
(1.12525 -0.0588543 3.85412e-22)
(1.14635 -0.0599525 -4.45016e-22)
(1.16818 -0.0622497 0)
(1.18992 -0.0616905 0)
(1.21259 -0.0580304 3.03975e-23)
(1.23478 -0.0456452 -4.63815e-22)
(1.25329 -0.0232702 7.52984e-22)
(1.26205 0.00346221 -2.64274e-22)
(1.25789 0.0291034 0)
(1.24072 0.0542658 3.3277e-21)
(1.2118 0.0708212 -2.94416e-21)
(1.17923 0.0812495 6.71486e-22)
(1.14479 0.0814927 0)
(1.11474 0.0788348 0)
(1.08643 0.0695789 1.97501e-21)
(1.06535 0.0665681 -1.87683e-21)
(1.04307 0.0513011 -5.23981e-22)
(1.0308 0.0471676 7.61768e-22)
(1.0143 0.0303376 1.55438e-23)
(0.961169 0.0044171 -9.9015e-21)
(0.959843 0.00507632 1.13032e-20)
(0.95753 0.00710805 0)
(0.955375 0.00797224 2.8459e-21)
(0.954223 0.00750063 -2.95526e-21)
(0.953687 0.0067128 7.71135e-21)
(0.953644 0.0056429 -7.80527e-21)
(0.954671 0.00424574 1.72359e-23)
(0.958192 0.0025361 -6.58653e-21)
(0.963697 0.000108751 1.16472e-20)
(0.970041 -0.00197503 -5.02235e-21)
(0.973831 -0.0100048 7.43198e-21)
(0.978623 -0.0210011 -3.41934e-21)
(0.983704 -0.0351528 -4.01564e-21)
(0.990179 -0.0462242 0)
(1.00014 -0.0569509 0)
(1.01238 -0.061927 0)
(1.03142 -0.0652133 -9.90952e-22)
(1.05281 -0.0645088 7.65737e-22)
(1.07544 -0.065473 0)
(1.09936 -0.0654244 2.72505e-22)
(1.12261 -0.0666662 1.80797e-22)
(1.14541 -0.067658 -2.45929e-23)
(1.16691 -0.0703401 -3.73801e-22)
(1.18931 -0.0704708 0)
(1.21627 -0.0661994 7.1712e-23)
(1.23769 -0.0543161 -4.12074e-22)
(1.25692 -0.0381597 3.5275e-22)
(1.26868 -0.0131263 8.40982e-24)
(1.26741 0.0164004 0)
(1.254 0.0463545 3.29843e-21)
(1.22622 0.0673875 -3.27519e-21)
(1.19401 0.080818 -1.47308e-21)
(1.15814 0.0838489 1.47001e-21)
(1.12777 0.0838018 -4.74456e-21)
(1.09729 0.0746236 3.11633e-21)
(1.07536 0.0701408 0)
(1.05234 0.0589265 -1.07404e-21)
(1.03944 0.0560795 9.69158e-22)
(1.02186 0.0446742 6.21489e-23)
(0.959848 0.00527011 0)
(0.95855 0.00582942 1.09442e-20)
(0.956327 0.00781946 4.16863e-22)
(0.954299 0.00833893 -1.47085e-20)
(0.953583 0.00761648 1.24809e-20)
(0.953278 0.00655325 -1.25984e-20)
(0.953159 0.00493707 1.63229e-21)
(0.954424 0.00280902 5.08975e-21)
(0.958758 0.000662614 -8.53756e-21)
(0.963424 -0.00219252 8.67099e-21)
(0.969583 -0.00485231 -1.38976e-20)
(0.974343 -0.0140747 6.11172e-21)
(0.977727 -0.0257311 3.32268e-21)
(0.984048 -0.0400642 -3.33917e-21)
(0.992055 -0.0498988 -3.71356e-21)
(1.00157 -0.0602653 5.62989e-21)
(1.01176 -0.0663321 -3.85663e-21)
(1.0267 -0.0716621 1.04369e-21)
(1.04683 -0.0720584 1.15418e-22)
(1.07023 -0.0729685 -2.26019e-23)
(1.09582 -0.0712282 2.70882e-22)
(1.11924 -0.0710943 -2.084e-22)
(1.14337 -0.0715936 -1.22145e-24)
(1.16853 -0.0733772 -7.2411e-22)
(1.19233 -0.0738014 6.32456e-22)
(1.21718 -0.0730255 -1.21603e-22)
(1.24195 -0.0642133 1.58867e-24)
(1.26444 -0.0446279 -1.44303e-22)
(1.27952 -0.0157004 2.89853e-21)
(1.2816 0.0152081 7.45817e-22)
(1.27068 0.0488924 -3.3325e-21)
(1.24516 0.0736907 -3.57764e-21)
(1.21328 0.0923737 4.35546e-21)
(1.17565 0.0976955 2.45302e-21)
(1.14221 0.1001 -3.66019e-21)
(1.10994 0.0895566 0)
(1.08539 0.0885146 0)
(1.06101 0.0732552 -1.49928e-21)
(1.04537 0.0697954 1.15552e-21)
(1.02621 0.0497243 -1.58424e-22)
(0.958797 0.00551046 -1.98443e-22)
(0.957591 0.00607736 9.64136e-21)
(0.955409 0.00804727 1.50933e-21)
(0.95353 0.00823646 1.54915e-21)
(0.953106 0.00736871 1.63308e-20)
(0.953012 0.00602387 -8.1333e-21)
(0.952685 0.00388864 -8.53516e-21)
(0.95424 0.000998356 0)
(0.958731 -0.00132998 1.78116e-21)
(0.963388 -0.00485067 5.42037e-21)
(0.968496 -0.00824682 -9.07963e-21)
(0.972903 -0.0186613 -7.10206e-21)
(0.977263 -0.0301769 8.03714e-21)
(0.98525 -0.0445004 0)
(0.992045 -0.0541862 3.82215e-21)
(1.00098 -0.0654384 -3.03985e-21)
(1.01213 -0.0708683 -1.19348e-21)
(1.02543 -0.0765321 4.65818e-22)
(1.04534 -0.0766783 1.41747e-21)
(1.0672 -0.077459 -3.86963e-22)
(1.08832 -0.0771723 -1.77376e-23)
(1.11196 -0.078533 0)
(1.13611 -0.0794422 -5.31155e-23)
(1.16132 -0.0825873 9.29159e-23)
(1.18666 -0.0843786 -8.04007e-23)
(1.21587 -0.0835186 3.14861e-22)
(1.24432 -0.0727545 -1.96607e-23)
(1.26989 -0.0578683 -2.04073e-22)
(1.28837 -0.0310664 0)
(1.29401 0.000550972 0)
(1.28622 0.0380987 4.06623e-21)
(1.26316 0.0681482 -4.03502e-21)
(1.23184 0.091707 0)
(1.19201 0.100039 1.72183e-21)
(1.1567 0.105576 4.69616e-21)
(1.1222 0.0973796 -1.21507e-21)
(1.0957 0.0942533 -3.51722e-21)
(1.06931 0.0804635 -1.49484e-21)
(1.05414 0.0787956 1.7041e-21)
(1.0331 0.063031 -4.19653e-23)
(0.957453 0.00632233 -1.14596e-20)
(0.956336 0.00681624 1.16038e-20)
(0.954137 0.00851807 -1.55593e-21)
(0.952466 0.00833041 0)
(0.952253 0.00729117 -1.53985e-20)
(0.952114 0.00535611 2.09209e-20)
(0.952035 0.00252272 -5.34501e-21)
(0.953093 -0.00137134 0)
(0.957932 -0.00372554 1.68815e-20)
(0.962043 -0.00752536 -8.53057e-21)
(0.966264 -0.0119214 -7.59585e-21)
(0.971834 -0.023799 -7.38598e-21)
(0.977262 -0.034982 1.00979e-20)
(0.983572 -0.0500642 -2.71329e-21)
(0.992489 -0.0593657 3.92592e-21)
(1.00244 -0.069498 -3.49351e-21)
(1.01498 -0.0747946 -1.20815e-21)
(1.02874 -0.080854 1.98854e-22)
(1.0429 -0.0824794 7.13685e-22)
(1.06178 -0.0851946 3.85284e-22)
(1.08226 -0.0841108 3.5509e-23)
(1.10432 -0.0844158 4.4526e-22)
(1.12602 -0.0858233 -4.95366e-22)
(1.15203 -0.0889136 -7.3146e-22)
(1.18052 -0.0887788 8.12339e-22)
(1.21077 -0.090225 -3.40925e-22)
(1.24197 -0.0848713 2.79459e-22)
(1.27372 -0.0702974 0)
(1.29869 -0.0408141 2.84879e-21)
(1.31052 -0.00721291 7.59143e-22)
(1.3067 0.0344821 1.82896e-21)
(1.28592 0.0683188 -4.44999e-21)
(1.25467 0.0984633 0)
(1.21568 0.110587 2.79511e-21)
(1.17747 0.121953 -2.94036e-21)
(1.14095 0.112866 -7.17756e-22)
(1.11069 0.112193 5.34597e-22)
(1.0827 0.0973826 0)
(1.06348 0.0963601 0)
(1.04128 0.075908 3.38686e-22)
(0.956253 0.00628046 -1.20611e-20)
(0.955251 0.00679099 1.22301e-20)
(0.953138 0.00821977 0)
(0.951723 0.00778579 0)
(0.95162 0.00661117 0)
(0.951615 0.00411551 0)
(0.951723 0.00121854 0)
(0.952404 -0.00356906 0)
(0.956942 -0.0060939 -1.17824e-20)
(0.961041 -0.0108917 1.38857e-20)
(0.966086 -0.0163849 7.86352e-21)
(0.970803 -0.0291213 -1.19864e-21)
(0.975938 -0.0406641 -4.05395e-21)
(0.983823 -0.055445 -4.6279e-21)
(0.992202 -0.0636878 -4.04224e-21)
(1.00239 -0.074954 7.46237e-22)
(1.01508 -0.0796214 1.63507e-21)
(1.02828 -0.0859289 7.58312e-23)
(1.04295 -0.0878634 3.84574e-22)
(1.06098 -0.0891899 4.02497e-22)
(1.07748 -0.0882253 -1.45539e-24)
(1.09717 -0.090497 4.84874e-22)
(1.11663 -0.0910406 -8.80967e-22)
(1.13952 -0.0960884 3.05028e-22)
(1.16518 -0.100083 0)
(1.19761 -0.104728 1.68077e-22)
(1.23212 -0.0975839 6.20324e-23)
(1.26927 -0.0860641 0)
(1.302 -0.0580629 2.29055e-21)
(1.32263 -0.0248915 -2.09696e-21)
(1.32592 0.0206816 -1.11296e-21)
(1.30945 0.0595495 0)
(1.27924 0.0968165 0)
(1.23838 0.11377 4.53192e-21)
(1.19644 0.127124 -4.48714e-21)
(1.15681 0.122569 -1.63415e-22)
(1.12484 0.123529 1.36023e-22)
(1.09279 0.107131 -2.56272e-21)
(1.07329 0.106877 3.03443e-21)
(1.04824 0.0886688 -2.01333e-22)
(0.954777 0.00696332 0)
(0.953792 0.00723926 0)
(0.952056 0.00837117 0)
(0.950703 0.00752066 0)
(0.950146 0.00595264 0)
(0.950263 0.00263311 9.72977e-21)
(0.951194 -0.000584607 -7.87277e-21)
(0.951003 -0.00627647 -8.13816e-21)
(0.953975 -0.00880318 1.84968e-20)
(0.959467 -0.0148504 -4.16869e-21)
(0.965739 -0.0206524 -9.38744e-21)
(0.968928 -0.035498 2.04652e-21)
(0.974532 -0.0459959 9.91834e-22)
(0.98158 -0.0607035 -9.36448e-22)
(0.990825 -0.0695772 3.28634e-21)
(1.00115 -0.079796 -3.68765e-21)
(1.01156 -0.0850369 -1.23249e-21)
(1.02836 -0.090899 1.23579e-21)
(1.04353 -0.0909949 -1.70056e-22)
(1.05903 -0.0942553 4.13214e-22)
(1.07359 -0.0943229 -1.69154e-24)
(1.09138 -0.096212 -5.56976e-23)
(1.10668 -0.0972769 1.02621e-22)
(1.12686 -0.10419 -8.10941e-22)
(1.15086 -0.106815 8.11922e-22)
(1.18259 -0.112272 -3.72753e-22)
(1.217 -0.110012 2.41761e-22)
(1.2575 -0.104536 -2.40346e-22)
(1.29871 -0.0768188 -1.58449e-22)
(1.33138 -0.0427927 0)
(1.34462 0.00786959 5.31243e-21)
(1.33816 0.0512744 -1.12921e-20)
(1.31037 0.0973796 5.96952e-21)
(1.27069 0.11949 0)
(1.22506 0.141247 0)
(1.18189 0.138144 8.24002e-21)
(1.1445 0.140775 -8.82141e-21)
(1.10979 0.124969 4.25086e-21)
(1.08734 0.125919 -4.05583e-21)
(1.05918 0.10752 -3.7517e-22)
(0.953487 0.00650798 0)
(0.95264 0.00680748 0)
(0.950801 0.00751189 1.48797e-20)
(0.950255 0.00669271 -1.70045e-20)
(0.94955 0.00488092 1.59408e-20)
(0.948729 0.000538139 -2.01979e-20)
(0.950802 -0.00257837 -1.05042e-20)
(0.950471 -0.00909797 -2.22538e-21)
(0.953919 -0.0122681 1.08441e-20)
(0.958727 -0.0198633 0)
(0.965589 -0.0269883 2.18073e-21)
(0.970783 -0.0408107 -1.05252e-20)
(0.974328 -0.0514177 7.41224e-21)
(0.980903 -0.0671311 9.73197e-22)
(0.988689 -0.074393 8.89316e-22)
(1.00006 -0.0854245 7.15446e-24)
(1.01206 -0.089751 -9.02334e-22)
(1.02728 -0.095884 2.52713e-22)
(1.04105 -0.0977574 5.02146e-22)
(1.0594 -0.0998472 3.77124e-22)
(1.0727 -0.096901 -1.58639e-23)
(1.08858 -0.100833 3.76107e-22)
(1.10148 -0.101001 -3.75389e-22)
(1.12011 -0.107607 1.02237e-22)
(1.13751 -0.113105 0)
(1.16537 -0.125866 2.06183e-22)
(1.19771 -0.125196 -4.56331e-22)
(1.23988 -0.124594 1.32389e-22)
(1.28341 -0.100814 -1.56394e-21)
(1.32837 -0.0695609 5.65752e-21)
(1.35555 -0.0155161 -9.6056e-21)
(1.36246 0.0337414 1.23831e-20)
(1.3421 0.0891379 -8.55786e-21)
(1.30527 0.120442 0)
(1.25749 0.148675 0)
(1.20853 0.148678 0)
(1.16805 0.156347 -2.32172e-22)
(1.12748 0.140396 -6.14694e-21)
(1.10329 0.141486 5.38533e-21)
(1.07066 0.122681 9.01863e-22)
(0.952074 0.00691879 -1.41991e-20)
(0.951336 0.00694213 1.44203e-20)
(0.949552 0.00715342 0)
(0.948597 0.00566209 1.99903e-21)
(0.948215 0.0035133 0)
(0.946724 -0.00163836 4.30087e-21)
(0.947739 -0.00513592 -1.78081e-20)
(0.949067 -0.0120698 1.34358e-20)
(0.952542 -0.0157895 -4.58472e-21)
(0.956096 -0.0253643 6.9089e-21)
(0.962489 -0.0316182 1.25684e-23)
(0.968941 -0.0472596 1.09986e-20)
(0.974205 -0.0570362 -8.82661e-21)
(0.981039 -0.0719792 -1.0069e-21)
(0.986808 -0.0805836 -9.25684e-22)
(0.999936 -0.091003 8.48083e-24)
(1.01117 -0.095048 -3.49425e-22)
(1.02758 -0.102823 -9.67584e-22)
(1.04115 -0.101722 1.32596e-21)
(1.05913 -0.104198 -3.56895e-22)
(1.07149 -0.101898 -2.00429e-22)
(1.08808 -0.104431 5.18091e-22)
(1.09798 -0.104627 2.8555e-23)
(1.11351 -0.114165 -3.56319e-22)
(1.12836 -0.119396 1.16448e-22)
(1.15417 -0.133745 1.21544e-21)
(1.18211 -0.135471 -9.48347e-22)
(1.22354 -0.142774 -1.63612e-22)
(1.26597 -0.125048 1.85468e-23)
(1.31578 -0.10096 3.56916e-22)
(1.3554 -0.044242 1.17389e-21)
(1.37974 0.00895445 0)
(1.37394 0.0761184 1.92979e-21)
(1.34518 0.118007 0)
(1.2977 0.156228 -2.10297e-21)
(1.24416 0.164293 0)
(1.19794 0.174308 2.68795e-21)
(1.15146 0.160144 -7.27834e-21)
(1.12354 0.160474 2.46305e-21)
(1.08706 0.145433 5.65467e-21)
(0.951111 0.00611291 1.3167e-20)
(0.950202 0.00568428 0)
(0.948616 0.00572322 2.08155e-21)
(0.946994 0.00383723 -1.94511e-20)
(0.947542 0.00116134 1.75283e-20)
(0.94611 -0.00434872 -4.5653e-21)
(0.946711 -0.00833478 2.11364e-20)
(0.947714 -0.0165879 -2.38176e-20)
(0.951899 -0.0208954 2.40175e-21)
(0.957103 -0.0314715 2.41512e-21)
(0.961248 -0.039424 -1.19957e-21)
(0.968363 -0.0547184 -1.17226e-21)
(0.973277 -0.0632871 4.32675e-21)
(0.983161 -0.07867 -3.3082e-21)
(0.989259 -0.0856423 0)
(1.00098 -0.0972776 1.04584e-23)
(1.01062 -0.101863 -3.37205e-22)
(1.0297 -0.107668 0)
(1.04177 -0.106045 -3.30867e-22)
(1.05943 -0.110614 3.31204e-22)
(1.07105 -0.105914 1.24362e-23)
(1.08657 -0.108847 0)
(1.09565 -0.108276 0)
(1.10947 -0.117149 0)
(1.1227 -0.121304 -2.39195e-22)
(1.14479 -0.139901 -2.7238e-22)
(1.16953 -0.14658 9.93209e-22)
(1.20977 -0.160761 -8.15641e-22)
(1.25288 -0.147412 6.47464e-23)
(1.30382 -0.133703 1.9285e-22)
(1.34729 -0.081716 4.73465e-21)
(1.38386 -0.0289425 -1.58063e-20)
(1.39613 0.0496334 8.05906e-21)
(1.38218 0.103692 -9.67945e-21)
(1.34361 0.159165 2.96934e-20)
(1.28769 0.175296 -1.77204e-20)
(1.23609 0.192718 -1.55117e-21)
(1.18001 0.180769 -1.13395e-20)
(1.14838 0.182425 1.04362e-21)
(1.10515 0.166722 7.69057e-21)
(0.949369 0.00612354 1.97958e-21)
(0.948151 0.00481045 -2.12605e-21)
(0.946794 0.00435638 5.42176e-23)
(0.944906 0.00198175 2.24705e-21)
(0.944626 -0.000868191 0)
(0.943788 -0.00705632 -4.91271e-21)
(0.944661 -0.0113502 9.9071e-21)
(0.945232 -0.0204462 1.2662e-20)
(0.947974 -0.0256413 -1.02566e-20)
(0.953614 -0.0373939 2.58934e-21)
(0.957819 -0.0448852 0)
(0.964911 -0.0609073 -8.35232e-21)
(0.968433 -0.0700327 1.53468e-20)
(0.98066 -0.0841635 -3.45523e-21)
(0.98715 -0.0919517 -9.67124e-22)
(1.00281 -0.104231 3.48643e-21)
(1.01295 -0.105937 -2.71931e-21)
(1.03047 -0.114813 0)
(1.04313 -0.112447 0)
(1.06136 -0.114724 0)
(1.07191 -0.109553 -6.3361e-24)
(1.08505 -0.112782 0)
(1.09581 -0.109992 2.51418e-22)
(1.10501 -0.119821 -1.03574e-21)
(1.11592 -0.126409 9.08183e-22)
(1.13436 -0.146967 3.18741e-22)
(1.15848 -0.154644 0)
(1.19576 -0.176963 0)
(1.24038 -0.17 1.24225e-22)
(1.29578 -0.165213 -2.84087e-21)
(1.34527 -0.118198 -3.97853e-21)
(1.38606 -0.071286 5.74519e-21)
(1.40908 0.00893838 2.45515e-21)
(1.41037 0.0753603 1.44478e-20)
(1.38813 0.147617 -1.13581e-20)
(1.33724 0.18246 -2.9399e-21)
(1.28512 0.210501 0)
(1.22067 0.207063 1.62709e-21)
(1.1811 0.205969 -1.04717e-20)
(1.12818 0.193341 1.05108e-20)
(0.947945 0.00458976 -1.92911e-20)
(0.946711 0.00271615 2.20827e-21)
(0.945444 0.00187605 -2.30126e-21)
(0.943601 -0.00103005 2.46281e-21)
(0.943245 -0.00439144 -2.55452e-21)
(0.942299 -0.0116153 1.82886e-20)
(0.943027 -0.0164362 -2.11399e-20)
(0.945892 -0.026272 0)
(0.947097 -0.0328123 2.75392e-21)
(0.952665 -0.0454659 8.05391e-21)
(0.955416 -0.0537047 -1.08773e-20)
(0.964717 -0.0686794 -1.1337e-20)
(0.968688 -0.0776046 1.36048e-20)
(0.980015 -0.0930308 -4.73887e-21)
(0.987323 -0.0995948 2.14233e-23)
(1.00375 -0.111224 0)
(1.01464 -0.112889 -1.50924e-21)
(1.03359 -0.121647 5.95069e-22)
(1.0463 -0.116822 8.26067e-22)
(1.06333 -0.120788 0)
(1.07521 -0.113292 6.63906e-24)
(1.08562 -0.115351 6.77774e-23)
(1.0951 -0.113125 -7.07487e-23)
(1.10013 -0.122257 4.60268e-23)
(1.11076 -0.128449 0)
(1.12455 -0.149371 -6.66807e-22)
(1.14441 -0.160335 0)
(1.17912 -0.190594 0)
(1.223 -0.191049 -5.87663e-22)
(1.28189 -0.198655 0)
(1.34274 -0.158652 9.31011e-22)
(1.39537 -0.117171 -6.8547e-21)
(1.42789 -0.0351774 3.46883e-21)
(1.43381 0.0325708 -3.0677e-21)
(1.42428 0.118074 2.73527e-20)
(1.38455 0.171941 -2.39122e-20)
(1.34066 0.219718 0)
(1.27086 0.231648 -2.86157e-21)
(1.22752 0.237559 1.68173e-20)
(1.15977 0.224603 -1.54345e-20)
(0.945084 0.00374489 -1.61243e-20)
(0.9436 0.00101493 0)
(0.942126 -9.22369e-05 -2.54129e-21)
(0.940663 -0.00336302 1.58418e-20)
(0.939625 -0.00697291 -1.87231e-20)
(0.939597 -0.0149144 0)
(0.938609 -0.0206122 2.87857e-21)
(0.941694 -0.0310836 -2.91946e-21)