/*--------------------------------*- C++ -*----------------------------------*\
  =========                 |
  \\      /  F ield         | OpenFOAM: The Open Source CFD Toolbox
   \\    /   O peration     | Website:  https://openfoam.org
    \\  /    A nd           | Version:  11
     \\/     M anipulation  |
\*---------------------------------------------------------------------------*/
FoamFile
{
    format      ascii;
    class       volScalarField;
    location    "0.5";
    object      mag(U);
}
// * * * * * * * * * * * * * * * * * * * * * * * * * * * * * * * * * * * * * //

dimensions      [0 1 -1 0 0 0 0];

internalField   nonuniform List<scalar> 
9600
(
0.86773
0.786708
0.803276
0.867905
0.912751
0.944266
0.965451
0.977961
0.987773
0.997361
1.00557
1.01395
1.02336
1.03486
1.04829
1.06216
1.07641
1.08893
1.09748
1.10304
1.10417
1.09911
1.09049
1.07992
1.06645
1.05199
1.03876
1.02708
1.01759
1.01076
1.00393
1.00017
0.997465
0.992075
0.99088
0.988408
0.9852
0.97906
0.966907
0.879031
0.89398
0.883575
0.929923
0.970357
0.97571
0.975941
0.975922
0.97953
0.986427
0.99246
0.998469
1.00596
1.01431
1.02473
1.0369
1.04929
1.06303
1.07409
1.08262
1.08679
1.08642
1.08347
1.07599
1.06537
1.05165
1.037
1.02347
1.01143
1.00159
0.993644
0.986315
0.982388
0.977571
0.970678
0.969105
0.965657
0.965745
0.954729
0.957577
0.912762
0.91253
0.895083
0.9026
0.920926
0.941669
0.964184
0.980192
0.988875
0.998163
1.00615
1.01319
1.02152
1.03067
1.04146
1.05394
1.0669
1.08036
1.09193
1.09965
1.10445
1.10641
1.10264
1.09508
1.08567
1.07272
1.05865
1.04576
1.03488
1.02541
1.01816
1.01133
1.00564
1.00133
0.998025
0.994291
0.99088
0.987983
0.975568
0.954136
0.896086
0.950526
0.948822
0.978095
0.997392
0.997271
0.990748
0.985286
0.984903
0.989937
0.995646
1.00072
1.00792
1.01643
1.0274
1.04034
1.05271
1.06606
1.07824
1.08669
1.09071
1.09054
1.08749
1.08103
1.07188
1.0584
1.04351
1.02921
1.01614
1.0054
0.997764
0.990753
0.987079
0.983928
0.97724
0.975428
0.973405
0.979777
0.979236
0.982191
0.961004
0.973541
0.951552
0.950436
0.944271
0.948403
0.964246
0.978769
0.990089
1.00034
1.00824
1.01532
1.02388
1.03305
1.04358
1.05541
1.06756
1.08058
1.09164
1.09781
1.10262
1.10479
1.10112
1.09382
1.08507
1.07311
1.05961
1.04736
1.03687
1.02774
1.02059
1.01317
1.00585
1.0017
0.997623
0.994046
0.989097
0.978798
0.959099
0.951962
0.935184
0.978763
0.971332
0.985055
0.992427
1.00207
1.00282
0.996598
0.993471
0.994167
0.998697
1.00307
1.00986
1.01867
1.02991
1.04384
1.05631
1.06968
1.08234
1.09117
1.09588
1.09514
1.09223
1.08707
1.07827
1.06498
1.04991
1.03501
1.02122
1.00967
1.0017
0.994964
0.990023
0.987845
0.983434
0.983203
0.983109
0.988537
0.987045
0.987712
0.972103
0.986493
0.975443
0.977385
0.967609
0.960774
0.964287
0.974967
0.988493
1.00076
1.00945
1.01728
1.0261
1.03505
1.04559
1.05701
1.06864
1.08096
1.09178
1.09824
1.1022
1.10408
1.10119
1.09393
1.08507
1.07351
1.0604
1.0486
1.03821
1.02927
1.02241
1.01518
1.00698
1.00187
0.996274
0.98969
0.98292
0.969854
0.958738
0.961185
0.955637
0.993682
0.985075
0.988598
0.989315
0.993452
1.00208
1.00453
1.00263
1.00132
1.0015
1.00524
1.01249
1.02188
1.03383
1.04751
1.06075
1.07395
1.0867
1.09612
1.10099
1.10011
1.09723
1.09264
1.08349
1.07075
1.05592
1.04105
1.02668
1.01446
1.00537
0.998858
0.993332
0.992177
0.989619
0.989538
0.988897
0.993397
0.986761
0.985317
0.973095
0.999161
0.991471
0.993835
0.98592
0.977259
0.972745
0.97565
0.986819
0.999142
1.00907
1.01859
1.02785
1.03659
1.04744
1.05848
1.07003
1.08187
1.09321
1.1003
1.10407
1.10553
1.10272
1.09577
1.08648
1.07501
1.06202
1.04988
1.03919
1.03027
1.02344
1.0167
1.00827
1.00205
0.993047
0.985558
0.976333
0.972204
0.967487
0.971858
0.967862
1.00342
0.996358
0.997525
0.991377
0.991434
0.994705
1.00207
1.00709
1.00657
1.00643
1.00816
1.0151
1.0256
1.03845
1.05208
1.06577
1.07891
1.09182
1.10126
1.10604
1.10586
1.10283
1.09737
1.08808
1.07602
1.06179
1.04722
1.03276
1.0199
1.00981
1.00263
0.996634
0.996682
0.994601
0.994172
0.990915
0.990515
0.982231
0.981584
0.973427
1.00714
1.00086
1.00204
0.994075
0.989896
0.986019
0.982687
0.988249
0.998181
1.00883
1.01877
1.02867
1.03767
1.04884
1.06016
1.07213
1.08413
1.09596
1.10397
1.10806
1.1091
1.1061
1.10019
1.09061
1.07818
1.06451
1.05153
1.0402
1.03096
1.02367
1.01763
1.00939
1.00069
0.990541
0.985725
0.978794
0.977996
0.975936
0.978889
0.973813
1.01022
1.00476
1.00595
0.996533
0.99329
0.994658
0.996668
1.00424
1.00803
1.01028
1.01265
1.02034
1.03068
1.04393
1.05762
1.07144
1.08456
1.09751
1.10659
1.11118
1.11165
1.1083
1.10286
1.09311
1.08055
1.06704
1.05294
1.03864
1.02619
1.01482
1.00687
1.00082
0.99994
0.997621
0.996856
0.99112
0.985734
0.980663
0.981411
0.976048
1.01267
1.00805
1.00925
1.00009
0.995732
0.993999
0.99294
0.994043
1.001
1.01
1.01941
1.02969
1.03902
1.05061
1.06283
1.07541
1.08802
1.10063
1.1096
1.11411
1.11473
1.1115
1.106
1.09623
1.083
1.06906
1.05516
1.04185
1.03203
1.0235
1.01777
1.01004
1.00044
0.991458
0.989707
0.984628
0.983485
0.980718
0.982045
0.977525
1.01454
1.01095
1.01248
1.00301
0.997681
0.995854
0.997712
1.00248
1.0078
1.01244
1.01799
1.02659
1.03671
1.05001
1.06393
1.07758
1.09064
1.10345
1.11274
1.11724
1.11831
1.11507
1.10927
1.09959
1.08606
1.07158
1.05735
1.04359
1.03156
1.02004
1.01144
1.00515
1.00264
0.99985
0.996066
0.989355
0.98531
0.982285
0.983264
0.979212
1.01576
1.0134
1.01535
1.00608
0.999865
0.997465
0.998246
1.0006
1.00618
1.01338
1.02156
1.03128
1.04099
1.05374
1.067
1.08089
1.09387
1.10648
1.11627
1.12083
1.12226
1.11914
1.11313
1.10339
1.08934
1.07414
1.05953
1.04561
1.03377
1.02428
1.01751
1.01014
1.00163
0.996562
0.994628
0.988923
0.98606
0.982986
0.984001
0.980507
1.01637
1.01539
1.01778
1.00901
1.0024
0.999626
0.999448
1.00296
1.009
1.0153
1.02219
1.03173
1.04217
1.05576
1.06959
1.08439
1.09711
1.10996
1.12044
1.12542
1.12645
1.12326
1.11697
1.10707
1.09297
1.07768
1.06209
1.04777
1.03573
1.02469
1.01615
1.00883
1.00414
0.999988
0.996131
0.990904
0.98756
0.983982
0.984701
0.981559
1.01626
1.01663
1.01945
1.01184
1.00481
1.00089
1.00051
1.00442
1.01033
1.0166
1.02402
1.03382
1.04488
1.0581
1.07306
1.08805
1.10092
1.11387
1.12423
1.13073
1.13071
1.12717
1.12131
1.11102
1.09622
1.08078
1.06485
1.05001
1.03758
1.0266
1.01847
1.0107
1.00459
0.999547
0.99672
0.991781
0.98862
0.984947
0.985427
0.982584
1.01552
1.01735
1.02064
1.01408
1.00635
1.00209
1.00168
1.00571
1.01117
1.01781
1.02554
1.0354
1.04745
1.06066
1.07657
1.09204
1.10542
1.11838
1.12822
1.13691
1.1361
1.13104
1.1253
1.11519
1.10046
1.08438
1.06785
1.05261
1.03979
1.0285
1.01954
1.01141
1.00582
1.00035
0.997215
0.992514
0.989574
0.986065
0.98644
0.983852
1.0144
1.01787
1.0217
1.01614
1.00863
1.00397
1.00285
1.00646
1.01228
1.01928
1.02738
1.0375
1.05018
1.06393
1.08034
1.09664
1.11042
1.12359
1.13285
1.14261
1.14238
1.13654
1.13083
1.1201
1.10519
1.08857
1.07118
1.05559
1.04239
1.03061
1.02131
1.01234
1.00681
1.00093
0.997683
0.993019
0.990317
0.986713
0.986833
0.98433
1.013
1.01778
1.02205
1.01782
1.01049
1.0052
1.00359
1.00705
1.01329
1.02058
1.02922
1.03987
1.05307
1.06739
1.08467
1.10141
1.11577
1.12915
1.13801
1.1488
1.14949
1.14258
1.1371
1.12576
1.11015
1.09337
1.07521
1.05811
1.0444
1.03231
1.0228
1.01376
1.0078
1.00146
0.998092
0.99329
0.990774
0.987208
0.987107
0.984605
1.01128
1.01709
1.02173
1.01941
1.01189
1.00667
1.00483
1.00756
1.01387
1.02189
1.03132
1.04254
1.05618
1.07158
1.08957
1.10638
1.12232
1.13552
1.14393
1.15588
1.15862
1.15058
1.14438
1.13277
1.11591
1.09885
1.08022
1.06164
1.04659
1.03385
1.02444
1.01476
1.00888
1.002
0.99852
0.993542
0.991091
0.987545
0.987413
0.984971
1.01054
1.01635
1.02119
1.02106
1.01343
1.00826
1.00643
1.00886
1.01502
1.0235
1.03348
1.04545
1.05989
1.0761
1.09459
1.11243
1.12889
1.14289
1.15161
1.1635
1.16769
1.15902
1.15159
1.14045
1.12226
1.10461
1.08644
1.06643
1.04947
1.03498
1.02536
1.01584
1.00964
1.00217
0.998701
0.993794
0.9913
0.987647
0.987488
0.985181
1.00976
1.01571
1.02078
1.02248
1.01613
1.01029
1.00796
1.01001
1.01616
1.02502
1.03592
1.04884
1.06388
1.08079
1.10032
1.11924
1.13617
1.15116
1.15998
1.1718
1.17718
1.16944
1.15937
1.14852
1.13073
1.11038
1.09199
1.073
1.05476
1.03838
1.02735
1.0168
1.01099
1.0027
0.998651
0.993613
0.991379
0.987592
0.987361
0.985138
1.00903
1.01537
1.02095
1.02415
1.01953
1.01156
1.00921
1.01248
1.01768
1.02656
1.03865
1.05192
1.06771
1.08544
1.10638
1.12672
1.14391
1.16065
1.16973
1.18092
1.18762
1.18109
1.16969
1.15705
1.14008
1.11835
1.09762
1.07934
1.06101
1.04266
1.02899
1.01704
1.01057
1.00203
0.998102
0.9933
0.991128
0.986943
0.986635
0.984559
1.00787
1.01427
1.02028
1.02553
1.02151
1.0128
1.01125
1.01417
1.01926
1.02928
1.0415
1.05557
1.07277
1.09224
1.11444
1.13613
1.1534
1.17211
1.18159
1.19084
1.19937
1.19369
1.18212
1.16788
1.14939
1.12813
1.10572
1.0851
1.06714
1.04989
1.03475
1.02103
1.0128
1.00313
0.998309
0.992728
0.990395
0.985891
0.985516
0.983532
1.00554
1.01194
1.0185
1.02647
1.02259
1.01452
1.01307
1.01542
1.0219
1.0312
1.04438
1.06044
1.07921
1.0997
1.12314
1.14638
1.16395
1.18411
1.1949
1.20279
1.21239
1.20826
1.19591
1.18033
1.16013
1.13715
1.11514
1.09259
1.07308
1.05465
1.04005
1.02537
1.01573
1.00492
0.999541
0.9927
0.989602
0.984199
0.983634
0.981948
1.00206
1.00836
1.01537
1.02494
1.02334
1.01581
1.01389
1.01673
1.02492
1.0348
1.04881
1.06544
1.08613
1.10806
1.13267
1.15846
1.17654
1.19702
1.21028
1.21685
1.22692
1.22465
1.2118
1.1944
1.17208
1.14676
1.12405
1.10058
1.08081
1.06027
1.04542
1.02915
1.01829
1.00682
1.00113
0.993289
0.989398
0.982647
0.98128
0.979504
0.997892
1.00373
1.01113
1.02176
1.02349
1.01705
1.01477
1.01896
1.028
1.03908
1.05412
1.0727
1.09495
1.12026
1.14489
1.17181
1.19347
1.20964
1.22854
1.23565
1.24163
1.24053
1.23003
1.21427
1.19062
1.16269
1.13714
1.11173
1.09038
1.06838
1.05128
1.03431
1.0225
1.00889
1.00142
0.992696
0.988819
0.981619
0.979166
0.97664
0.992907
0.998436
1.00579
1.01708
1.02247
1.01885
1.0173
1.02195
1.03117
1.0439
1.06108
1.0818
1.10487
1.13321
1.16013
1.18698
1.21358
1.22696
1.24653
1.25775
1.26099
1.25734
1.24856
1.2359
1.21406
1.1846
1.15531
1.12748
1.10297
1.07873
1.05965
1.04004
1.02709
1.01211
1.00334
0.992774
0.98823
0.980438
0.97714
0.973694
0.985917
0.991482
0.998931
1.01091
1.02089
1.02058
1.02068
1.02632
1.03614
1.05002
1.06976
1.09343
1.11846
1.14731
1.17686
1.20439
1.2329
1.24964
1.26711
1.27959
1.28425
1.28034
1.27075
1.25797
1.23667
1.20597
1.17404
1.14342
1.11718
1.091
1.07062
1.04839
1.03374
1.01662
1.0066
0.994514
0.98899
0.980173
0.975418
0.971299
0.97831
0.984317
0.991703
1.00359
1.01822
1.02264
1.02474
1.03251
1.04359
1.05955
1.08016
1.10658
1.13494
1.16587
1.19772
1.22598
1.25557
1.27692
1.29264
1.30433
1.31118
1.30811
1.29631
1.28175
1.26225
1.23277
1.19897
1.16528
1.13575
1.10687
1.08475
1.05937
1.04216
1.02343
1.01174
0.996956
0.989469
0.979639
0.972914
0.968528
0.968152
0.975564
0.983072
0.995474
1.01371
1.02431
1.03087
1.04079
1.05479
1.07309
1.09566
1.12295
1.15512
1.18894
1.22258
1.25359
1.28008
1.30456
1.32206
1.33133
1.3387
1.33986
1.32799
1.30889
1.28815
1.2624
1.23198
1.19734
1.1653
1.13186
1.10556
1.07716
1.05592
1.03316
1.01918
1.00185
0.991762
0.981078
0.971282
0.966189
0.962127
0.968716
0.975239
0.987459
1.00839
1.02696
1.03986
1.05423
1.07235
1.09314
1.11804
1.14736
1.18091
1.21692
1.25216
1.2861
1.31414
1.33745
1.35657
1.36631
1.37108
1.37325
1.36571
1.34586
1.32068
1.2928
1.26418
1.23076
1.19873
1.16339
1.13372
1.10174
1.07736
1.0497
1.03174
1.01158
0.996977
0.984861
0.970645
0.96438
0.951916
0.959835
0.965965
0.978004
1.00017
1.02684
1.04792
1.06945
1.09449
1.12068
1.14869
1.18038
1.21498
1.25175
1.28887
1.32452
1.3555
1.37975
1.39804
1.40893
1.41182
1.41132
1.40525
1.38855
1.36415
1.33324
1.3016
1.26623
1.23297
1.19587
1.16397
1.12861
1.10139
1.07013
1.04717
1.02504
1.00472
0.991325
0.9725
0.96363
0.954212
0.963633
0.971206
0.984338
1.00716
1.03655
1.06463
1.08976
1.12336
1.15638
1.18998
1.22421
1.26037
1.29971
1.33729
1.37447
1.40786
1.43413
1.45265
1.46358
1.46669
1.46308
1.45407
1.43813
1.41511
1.38596
1.35492
1.31923
1.28301
1.24242
1.21009
1.17387
1.1449
1.11366
1.08364
1.05855
1.02859
1.0089
0.983143
0.967184
0.946153
0.963591
0.97596
0.985889
1.00744
1.03485
1.07657
1.10489
1.14598
1.18809
1.23004
1.27309
1.314
1.35823
1.4011
1.44011
1.47597
1.50549
1.52692
1.5428
1.54809
1.54391
1.53154
1.51023
1.48412
1.44992
1.41646
1.37777
1.34244
1.29998
1.2622
1.22271
1.18363
1.14757
1.10876
1.08151
1.05145
1.03398
1.01059
0.985201
0.968971
0.990661
1.02089
1.04147
1.08117
1.11459
1.1617
1.19462
1.23022
1.2772
1.32079
1.37073
1.41506
1.45797
1.50285
1.54145
1.57184
1.59919
1.61733
1.62534
1.62907
1.6289
1.62347
1.61175
1.59334
1.56404
1.52849
1.49392
1.4551
1.41719
1.37058
1.33334
1.29253
1.26165
1.22576
1.1918
1.15239
1.10919
1.0765
1.03541
0.973139
0.997041
1.03474
1.06508
1.10655
1.14544
1.19055
1.24529
1.28903
1.34064
1.38543
1.43968
1.48468
1.53232
1.57089
1.61416
1.64699
1.67868
1.70022
1.71446
1.71242
1.70525
1.68222
1.65332
1.61926
1.58774
1.54986
1.51726
1.47353
1.43373
1.38465
1.34566
1.29974
1.26651
1.23476
1.20393
1.17421
1.14179
1.10996
1.07245
1.08842
1.14039
1.19836
1.25226
1.30048
1.34972
1.39699
1.44499
1.48999
1.53467
1.5732
1.61188
1.6447
1.67892
1.70211
1.7295
1.75076
1.77617
1.79275
1.8104
1.82169
1.8332
1.83489
1.8325
1.82096
1.80612
1.77976
1.75455
1.71415
1.67887
1.62639
1.58931
1.52892
1.48409
1.42276
1.38344
1.32463
1.28629
1.22864
1.20705
1.24763
1.28691
1.32735
1.37012
1.41205
1.4502
1.48504
1.51566
1.54211
1.56463
1.57669
1.596
1.60242
1.62114
1.62932
1.63979
1.64165
1.64101
1.63491
1.62902
1.61491
1.59457
1.56731
1.53466
1.49805
1.46457
1.42391
1.39255
1.353
1.32173
1.28057
1.24388
1.19619
1.15465
1.10465
1.06011
1.00768
0.961104
0.910351
0.866799
0.994867
0.979662
0.993097
0.984143
0.993818
0.988479
0.993078
0.992123
0.994291
0.995531
0.996926
0.997865
0.998844
0.999425
1.00009
1.00169
1.00235
1.00252
1.00349
1.00415
1.00412
1.00396
1.00429
1.00424
1.00413
1.00454
1.0048
1.00479
1.00466
1.00465
1.00471
1.00442
1.00326
1.00287
1.00325
1.00384
1.0033
1.0046
1.0043
0.994615
1.01184
0.978132
0.992521
0.982206
0.991346
0.988154
0.992596
0.992063
0.993575
0.994613
0.995835
0.996937
0.997974
0.99891
0.999783
1.001
1.00172
1.00223
1.0029
1.00315
1.00297
1.00334
1.00383
1.00373
1.0036
1.00413
1.00431
1.00421
1.00451
1.00469
1.00452
1.00432
1.00456
1.00457
1.00469
1.00468
1.00386
1.0055
1.01131
1.01895
1.0191
0.973536
0.992204
0.981703
0.990314
0.988019
0.991786
0.992269
0.993254
0.994234
0.995448
0.996701
0.997785
0.998939
1.00018
1.00093
1.00168
1.00253
1.00295
1.00301
1.00285
1.00378
1.00393
1.00387
1.00434
1.00451
1.00429
1.00419
1.00497
1.00525
1.0044
1.00397
1.00483
1.00494
1.00514
1.00505
1.00388
1.00361
1.00353
0.995403
1.03108
0.973151
0.992591
0.981254
0.989435
0.987632
0.99079
0.992085
0.992738
0.993805
0.995123
0.996428
0.997842
0.999187
1.00046
1.00086
1.00154
1.00231
1.0029
1.00308
1.00319
1.00402
1.00387
1.00428
1.00464
1.00469
1.0043
1.00444
1.00509
1.00535
1.00497
1.005
1.00521
1.0052
1.00557
1.00566
1.00496
1.00567
1.00801
1.00947
1.02953
0.971623
0.993792
0.980761
0.98888
0.987249
0.989906
0.991352
0.992338
0.99359
0.995053
0.996447
0.998063
0.999514
1.0007
1.00122
1.00164
1.00261
1.00351
1.00343
1.00325
1.0039
1.00427
1.00472
1.00465
1.00481
1.00503
1.00497
1.00482
1.00488
1.00553
1.00566
1.00529
1.00545
1.00594
1.00529
1.00447
1.00511
1.00444
0.996986
1.03776
0.970986
0.995318
0.979832
0.988422
0.986565
0.989042
0.990671
0.991692
0.99314
0.994802
0.996494
0.99808
0.999566
1.00074
1.00137
1.00205
1.00333
1.00378
1.00351
1.00333
1.0039
1.00451
1.00482
1.00451
1.00525
1.00561
1.00507
1.00457
1.00478
1.0058
1.00602
1.00591
1.00626
1.0066
1.00484
1.00456
1.00668
1.00727
1.00657
1.03633
0.970032
0.996921
0.978811
0.987837
0.985911
0.988152
0.989724
0.991108
0.992791
0.994664
0.996391
0.998295
0.999886
1.00098
1.00167
1.0031
1.00366
1.00368
1.00359
1.00402
1.00411
1.0041
1.00431
1.00486
1.00561
1.00577
1.00523
1.00552
1.00641
1.00658
1.00665
1.00641
1.00669
1.00679
1.00459
1.00434
1.00599
1.00537
1.00112
1.03984
0.969698
0.998339
0.977653
0.987144
0.984985
0.987332
0.988848
0.990416
0.992294
0.994363
0.996356
0.998161
0.999803
1.00122
1.00267
1.00353
1.00374
1.00355
1.00354
1.00424
1.00414
1.00395
1.00433
1.00533
1.00573
1.00547
1.00565
1.00685
1.00716
1.00734
1.00701
1.00664
1.00693
1.00691
1.00514
1.00537
1.00735
1.00684
1.00528
1.03862
0.969429
0.999215
0.976538
0.986541
0.984034
0.986493
0.987889
0.989703
0.991759
0.993992
0.996097
0.998144
0.99992
1.00155
1.00325
1.00373
1.00356
1.00377
1.00354
1.00374
1.00367
1.00417
1.00467
1.00526
1.00533
1.00541
1.00684
1.00748
1.0079
1.00768
1.00733
1.00676
1.0071
1.00699
1.00538
1.00571
1.00749
1.00618
1.00395
1.03804
0.969361
0.99944
0.975508
0.986138
0.983005
0.985648
0.986951
0.988907
0.991143
0.993524
0.995793
0.99789
0.99977
1.00155
1.00322
1.00349
1.00359
1.00383
1.00341
1.00327
1.00363
1.00466
1.00491
1.00505
1.00517
1.00649
1.00751
1.00818
1.00847
1.0082
1.00781
1.0072
1.00746
1.00708
1.00565
1.00635
1.00822
1.00678
1.0048
1.03671
0.969819
0.999355
0.974513
0.985742
0.982008
0.98478
0.985975
0.988059
0.99042
0.992923
0.995315
0.99761
0.999584
1.0014
1.00262
1.0027
1.00321
1.00334
1.00342
1.00319
1.00364
1.00476
1.0049
1.00465
1.00613
1.00752
1.00791
1.00833
1.00854
1.00826
1.00761
1.00725
1.00771
1.00718
1.00584
1.0067
1.00851
1.00659
1.00478
1.03505
0.97062
0.998925
0.973839
0.985203
0.980994
0.983841
0.984958
0.987127
0.989587
0.992193
0.994735
0.997135
0.999227
1.00101
1.00174
1.00194
1.00224
1.00303
1.00325
1.00308
1.00393
1.00444
1.00441
1.00552
1.00724
1.00778
1.00777
1.00805
1.00816
1.00749
1.007
1.00705
1.00783
1.00732
1.0062
1.00738
1.00891
1.00647
1.00491
1.03316
0.971742
0.998319
0.973336
0.984557
0.979922
0.982753
0.983891
0.986087
0.98863
0.99133
0.994006
0.996513
0.998767
1.00038
1.00051
1.001
1.00176
1.00248
1.00258
1.00315
1.00382
1.00383
1.00494
1.0068
1.00759
1.00812
1.00792
1.00833
1.00821
1.00731
1.00703
1.0073
1.00811
1.00754
1.00646
1.00786
1.00918
1.00646
1.00511
1.03091
0.973154
0.997583
0.973048
0.983744
0.978785
0.981573
0.982763
0.984933
0.987537
0.990351
0.993137
0.995677
0.998
0.999228
0.999422
1.00007
1.00092
1.00182
1.00223
1.00305
1.00357
1.00403
1.00668
1.00761
1.00863
1.0088
1.00893
1.00903
1.00878
1.00783
1.00754
1.00793
1.0087
1.00808
1.007
1.00845
1.00949
1.00658
1.00547
1.02856
0.974781
0.996655
0.972985
0.982775
0.977714
0.980286
0.981517
0.983634
0.986299
0.989215
0.992112
0.994809
0.997015
0.997633
0.998287
0.99922
1.00041
1.0014
1.00199
1.00286
1.00414
1.0056
1.00739
1.00855
1.00901
1.0091
1.00909
1.00918
1.00909
1.00856
1.0082
1.00848
1.00942
1.00872
1.00778
1.00918
1.00979
1.00679
1.00593
1.02603
0.976331
0.995565
0.973009
0.981576
0.976759
0.978585
0.98008
0.98213
0.984889
0.987879
0.990851
0.993753
0.995697
0.995997
0.997234
0.998487
0.99979
1.00081
1.00159
1.00395
1.00616
1.00713
1.00846
1.00914
1.00938
1.00904
1.00866
1.00856
1.009
1.00881
1.0084
1.00883
1.00988
1.00914
1.00834
1.00958
1.00983
1.00699
1.00637
1.02336
0.977903
0.994241
0.972986
0.980101
0.975648
0.976756
0.978413
0.980445
0.983265
0.986333
0.989392
0.992321
0.993758
0.994591
0.9962
0.997917
0.999348
1.00027
1.00183
1.00525
1.00742
1.00908
1.01003
1.01083
1.0105
1.00939
1.00873
1.00849
1.00866
1.00886
1.00856
1.00918
1.01015
1.00957
1.00903
1.00996
1.00981
1.00727
1.00685
1.02064
0.979352
0.992741
0.972899
0.978371
0.974166
0.97516
0.976525
0.978594
0.981351
0.984525
0.98793
0.990456
0.991325
0.993195
0.995316
0.997362
0.998918
1.00003
1.00292
1.00613
1.00859
1.01017
1.01194
1.01233
1.01127
1.01077
1.00995
1.00935
1.00914
1.00895
1.00869
1.00943
1.01034
1.0098
1.00946
1.01053
1.01011
1.00782
1.00754
1.01762
0.980489
0.990942
0.972597
0.976333
0.972513
0.972945
0.974376
0.976459
0.979146
0.982369
0.985871
0.988193
0.989255
0.991749
0.994438
0.996843
0.998511
1.00062
1.00443
1.00679
1.0092
1.01109
1.01262
1.01278
1.01187
1.01172
1.01135
1.01097
1.01045
1.00983
1.0093
1.00986
1.01066
1.00979
1.0096
1.01073
1.01023
1.00827
1.00807
1.0145
0.981207
0.988844
0.972057
0.973973
0.970556
0.970415
0.97179
0.973903
0.976698
0.980194
0.983278
0.98486
0.987354
0.990326
0.993467
0.996056
0.998321
1.00222
1.00552
1.00771
1.01021
1.01205
1.01284
1.01257
1.01242
1.01215
1.01211
1.01169
1.01172
1.0114
1.01091
1.01144
1.01161
1.01047
1.01018
1.01087
1.01017
1.00853
1.0084
1.01126
0.981618
0.986458
0.971268
0.971257
0.968089
0.967727
0.968766
0.970865
0.973794
0.977456
0.980283
0.981964
0.985334
0.988916
0.992194
0.99492
0.998983
1.00406
1.00652
1.00967
1.01251
1.01336
1.0132
1.01264
1.01223
1.01211
1.01237
1.01224
1.01232
1.01233
1.01269
1.0135
1.01329
1.01206
1.01157
1.01213
1.01091
1.00934
1.00912
1.00762
0.981695
0.983684
0.970135
0.968013
0.965209
0.964358
0.96533
0.967408
0.970627
0.97409
0.976254
0.979374
0.983311
0.987321
0.990534
0.994169
1.00022
1.00476
1.00856
1.01252
1.01429
1.01396
1.01367
1.01354
1.0132
1.01282
1.01225
1.01228
1.01265
1.01292
1.01328
1.01419
1.01408
1.01311
1.01256
1.01312
1.01171
1.01043
1.01016
1.00342
0.98137
0.980497
0.968581
0.964122
0.961706
0.960606
0.96126
0.963255
0.966691
0.969935
0.972085
0.976588
0.981254
0.985444
0.989024
0.994648
1.00079
1.00592
1.01096
1.01352
1.01389
1.01344
1.01421
1.01388
1.01431
1.01387
1.01341
1.01291
1.01332
1.01377
1.01409
1.01472
1.01468
1.01385
1.01349
1.01396
1.01243
1.01138
1.0111
0.999197
0.980729
0.976918
0.966456
0.959714
0.957333
0.956037
0.956485
0.958517
0.961735
0.964495
0.968354
0.973525
0.978854
0.983353
0.98889
0.996017
1.00151
1.00758
1.01171
1.0137
1.01296
1.01265
1.01322
1.01296
1.01365
1.01359
1.01372
1.01366
1.01422
1.01479
1.01529
1.01574
1.01539
1.01458
1.01438
1.01469
1.01328
1.01241
1.01214
0.994475
0.979275
0.973198
0.96367
0.954825
0.952263
0.950675
0.950798
0.952764
0.955728
0.958626
0.96408
0.97004
0.97582
0.982164
0.990674
0.99696
1.00252
1.00721
1.0113
1.01356
1.01352
1.012
1.0124
1.0119
1.01244
1.01257
1.01338
1.01382
1.01461
1.01553
1.01653
1.01679
1.01624
1.01544
1.01528
1.01544
1.01419
1.01342
1.01309
0.989081
0.976865
0.969435
0.960028
0.949377
0.946546
0.944309
0.94419
0.945961
0.948783
0.953016
0.959098
0.965751
0.97305
0.982734
0.992038
0.998005
1.00239
1.0059
1.00928
1.0131
1.01403
1.01214
1.0126
1.01204
1.01262
1.0128
1.01347
1.01407
1.01477
1.01608
1.01723
1.01737
1.01695
1.01615
1.01607
1.01616
1.01522
1.01475
1.01447
0.983184
0.973994
0.964449
0.95541
0.943509
0.939891
0.93686
0.936502
0.938171
0.941136
0.946418
0.953343
0.961407
0.971384
0.982761
0.991005
0.997583
1.00171
1.00509
1.00837
1.01282
1.01317
1.01174
1.013
1.01267
1.01353
1.01407
1.01501
1.01603
1.01657
1.0172
1.01841
1.0185
1.01797
1.01702
1.01679
1.01672
1.01574
1.01551
1.01532
0.97707
0.970562
0.95865
0.949712
0.937319
0.931874
0.928098
0.92728
0.928887
0.932204
0.938643
0.947188
0.957385
0.968852
0.979694
0.98846
0.995917
1.00157
1.00549
1.00893
1.0102
1.01067
1.01117
1.01247
1.01381
1.01452
1.0155
1.01619
1.01784
1.01872
1.01977
1.02054
1.02056
1.01983
1.01874
1.0185
1.01816
1.017
1.01669
1.01645
0.970835
0.966345
0.952118
0.942604
0.929731
0.92183
0.917403
0.916043
0.917348
0.921259
0.929526
0.940078
0.951681
0.964608
0.97527
0.984564
0.992773
1.00051
1.00508
1.0061
1.00667
1.00863
1.01083
1.01122
1.01378
1.01467
1.01638
1.01768
1.01896
1.0206
1.02215
1.0225
1.0223
1.02138
1.02059
1.02044
1.01998
1.01882
1.0184
1.0181
0.964838
0.961059
0.945444
0.933342
0.919274
0.909326
0.903979
0.901757
0.902833
0.908097
0.917959
0.929673
0.943826
0.958268
0.969681
0.980113
0.988202
0.994181
0.99796
1.0017
1.00558
1.0068
1.00948
1.01197
1.01307
1.01552
1.01686
1.01878
1.02024
1.02228
1.02383
1.02393
1.02366
1.02301
1.02269
1.02254
1.02214
1.02115
1.02068
1.02029
0.958614
0.952753
0.938279
0.922005
0.90601
0.894167
0.887411
0.883551
0.885091
0.891722
0.901897
0.915754
0.932723
0.948256
0.962603
0.975051
0.98362
0.98889
0.994077
0.998144
1.00169
1.00608
1.00831
1.01108
1.01358
1.01566
1.01808
1.0204
1.02216
1.02381
1.02587
1.02614
1.02595
1.02532
1.02504
1.02505
1.02464
1.02373
1.02326
1.0229
0.952262
0.941297
0.928637
0.909086
0.891472
0.875594
0.867116
0.860959
0.862727
0.869408
0.880397
0.897076
0.916317
0.934063
0.950772
0.963983
0.973592
0.981639
0.988264
0.994707
0.999614
1.00354
1.00759
1.01071
1.0136
1.01655
1.01931
1.02217
1.02405
1.02652
1.0286
1.029
1.0287
1.02777
1.02775
1.02787
1.02753
1.02648
1.02599
1.0259
0.946826
0.929561
0.916385
0.894589
0.874357
0.853356
0.841645
0.833169
0.832645
0.838966
0.850946
0.870613
0.892369
0.914648
0.935206
0.949962
0.961224
0.973602
0.982077
0.989781
0.996363
1.00166
1.00619
1.01041
1.01411
1.01776
1.02088
1.02421
1.02617
1.02798
1.02871
1.02887
1.02845
1.02925
1.03074
1.0314
1.03128
1.02984
1.02948
1.02955
0.942933
0.919327
0.901912
0.877208
0.853307
0.827502
0.809081
0.797974
0.792642
0.798311
0.810353
0.831358
0.855486
0.882517
0.908325
0.928263
0.944233
0.960939
0.973994
0.983776
0.992696
0.999236
1.00502
1.01044
1.01471
1.01938
1.02244
1.02561
1.02698
1.02795
1.02818
1.02899
1.031
1.03342
1.03545
1.03647
1.03586
1.03431
1.0345
1.03453
0.944188
0.911242
0.887483
0.858484
0.829686
0.798707
0.769387
0.752829
0.741046
0.742831
0.754733
0.7736
0.801192
0.833593
0.866369
0.89269
0.917528
0.941136
0.960276
0.97521
0.987751
0.997601
1.00485
1.01218
1.01707
1.02227
1.02526
1.02852
1.02968
1.0315
1.03181
1.03327
1.03604
1.0389
1.04155
1.04294
1.04309
1.04139
1.04228
1.04204
0.967455
0.918547
0.880403
0.846233
0.810217
0.773236
0.729866
0.699279
0.679421
0.670698
0.676403
0.690188
0.718449
0.756356
0.799122
0.835001
0.869439
0.903554
0.932917
0.955936
0.977141
0.992319
1.00477
1.01488
1.02237
1.02855
1.03294
1.03746
1.04076
1.04443
1.04534
1.04752
1.05091
1.05454
1.05865
1.06011
1.06061
1.05989
1.06332
1.06164
1.00753
0.959884
0.906348
0.861301
0.817922
0.771216
0.714364
0.654821
0.612123
0.578498
0.565145
0.569791
0.592943
0.631747
0.681469
0.731316
0.778358
0.826949
0.873343
0.910578
0.94659
0.972955
0.996719
1.01511
1.03079
1.04161
1.05035
1.05648
1.0615
1.0656
1.06577
1.06775
1.07058
1.07486
1.07777
1.08016
1.08795
1.08961
1.09205
1.09242
1.03874
1.00714
0.960566
0.913468
0.869162
0.808854
0.737534
0.654634
0.569889
0.490575
0.415943
0.365638
0.354368
0.38773
0.448803
0.522914
0.600631
0.66788
0.735411
0.792413
0.845461
0.890403
0.930443
0.963939
0.993241
1.01546
1.0351
1.05054
1.06214
1.07005
1.07507
1.08579
1.08959
1.09419
1.09472
1.09233
1.09129
1.08889
1.09364
1.09579
1.15374
1.10512
1.03958
0.951134
0.865246
0.784224
0.69259
0.59947
0.513668
0.431254
0.350469
0.263706
0.174438
0.0939232
0.0585008
0.113669
0.191396
0.276813
0.359141
0.443384
0.525024
0.600878
0.674196
0.740724
0.804734
0.861285
0.913239
0.961666
1.00184
1.03641
1.06411
1.08996
1.11483
1.13715
1.15974
1.17615
1.18771
1.19352
1.19914
1.19999
0.797393
0.73839
0.680796
0.596681
0.529605
0.485324
0.42643
0.369727
0.329136
0.27443
0.198815
0.12467
0.0720706
0.0562023
0.0863102
0.0990548
0.0998135
0.0882741
0.089672
0.114398
0.152274
0.197322
0.242141
0.294917
0.348162
0.408108
0.469493
0.52839
0.590044
0.649801
0.709793
0.764852
0.819894
0.870378
0.918031
0.96254
1.00868
1.05933
1.11785
1.17373
0.924192
1.01279
1.0018
1.01187
1.01233
1.01501
1.01538
1.01618
1.01646
1.01672
1.01685
1.01696
1.01704
1.01709
1.01712
1.01715
1.01716
1.01716
1.01714
1.0171
1.01702
1.0169
1.01677
1.01661
1.01645
1.01623
1.01598
1.01565
1.01523
1.01465
1.01377
1.01239
1.01025
1.00654
0.999696
0.99081
0.985661
0.969674
0.952078
0.976401
1.02761
1.00847
1.00259
1.00068
0.99881
0.998176
0.997351
0.997025
0.996703
0.996569
0.996468
0.996432
0.996436
0.996464
0.996493
0.996498
0.996506
0.996512
0.99645
0.996343
0.996274
0.996231
0.996164
0.996098
0.996044
0.995997
0.995989
0.996045
0.996195
0.996497
0.997061
0.998166
1.00007
1.0025
1.00484
1.01129
1.02618
1.02899
1.0237
1.02285
0.985806
0.998028
0.998367
1.00565
1.00764
1.01042
1.01143
1.01253
1.01318
1.01365
1.01399
1.01422
1.01439
1.01449
1.01455
1.01461
1.01462
1.01456
1.01458
1.01463
1.01453
1.01434
1.01412
1.01386
1.01356
1.0132
1.01273
1.01211
1.0113
1.01021
1.00869
1.00662
1.00425
1.00061
0.994699
0.992864
0.994268
0.991784
0.984411
0.994858
1.0171
1.01535
1.00973
1.00913
1.00601
1.0048
1.00279
1.00188
1.001
1.00046
1.00004
0.999788
0.99963
0.99953
0.999458
0.999398
0.999366
0.999353
0.999246
0.999071
0.999039
0.99911
0.999165
0.999242
0.999363
0.999557
0.999853
1.00028
1.00088
1.00171
1.00282
1.00444
1.00672
1.00889
1.00959
1.01362
1.02031
1.0191
1.01381
1.01497
0.991827
0.998944
0.998526
1.00352
1.00566
1.0076
1.00873
1.00975
1.01044
1.01096
1.01133
1.01158
1.01167
1.01179
1.01186
1.01183
1.0118
1.01176
1.01186
1.01196
1.01183
1.01156
1.01128
1.01098
1.01061
1.01017
1.00963
1.0089
1.00801
1.00691
1.00553
1.00403
1.00262
1.00008
0.99733
0.997657
1.00102
0.999225
0.993601
1.00063
1.00976
1.01196
1.00928
1.01001
1.00916
1.00823
1.00673
1.00572
1.00475
1.00409
1.00358
1.00323
1.00298
1.00279
1.0027
1.0026
1.00257
1.00261
1.00228
1.00183
1.00192
1.00213
1.00223
1.00244
1.00265
1.00296
1.00333
1.00374
1.00436
1.0051
1.00594
1.00701
1.00853
1.00903
1.00821
1.01103
1.01517
1.01166
1.00515
1.00733
0.999519
1.00316
1.00186
1.00477
1.00597
1.00723
1.00794
1.00852
1.00893
1.00923
1.00944
1.00958
1.00965
1.00965
1.00963
1.00956
1.00947
1.00945
1.0096
1.00967
1.00948
1.0092
1.00893
1.00864
1.00833
1.00793
1.00739
1.00685
1.0062
1.00543
1.00461
1.00389
1.00346
1.00186
1.00051
1.00216
1.00551
1.00275
0.997898
1.00387
1.00631
1.00901
1.00748
1.0092
1.00951
1.00935
1.00866
1.008
1.00735
1.00683
1.0064
1.00605
1.00577
1.00553
1.00533
1.00516
1.00502
1.00484
1.00455
1.00436
1.00444
1.00463
1.00478
1.00495
1.00514
1.00536
1.00562
1.00592
1.00623
1.00658
1.00694
1.00743
1.00805
1.00749
1.00656
1.00869
1.01158
1.00703
1.00189
1.00545
1.00412
1.00645
1.00503
1.00678
1.0074
1.0079
1.00837
1.0087
1.00877
1.00878
1.00877
1.0087
1.00862
1.00849
1.00837
1.00821
1.00808
1.00808
1.00818
1.00817
1.00792
1.00764
1.00744
1.00722
1.00699
1.00675
1.00649
1.00619
1.00589
1.00557
1.00526
1.00517
1.00527
1.00447
1.00367
1.00627
1.00913
1.00538
1.0018
1.00611
1.00571
1.00776
1.00657
1.0084
1.00912
1.00943
1.00935
1.00912
1.00883
1.00855
1.00828
1.00803