/*--------------------------------*- C++ -*----------------------------------*\
  =========                 |
  \\      /  F ield         | OpenFOAM: The Open Source CFD Toolbox
   \\    /   O peration     | Website:  https://openfoam.org
    \\  /    A nd           | Version:  11
     \\/     M anipulation  |
\*---------------------------------------------------------------------------*/
FoamFile
{
    format      ascii;
    class       volScalarField;
    location    "0.5";
    object      p;
}
// * * * * * * * * * * * * * * * * * * * * * * * * * * * * * * * * * * * * * //

dimensions      [0 2 -2 0 0 0 0];

internalField   nonuniform List<scalar> 
9600
(
-0.00754376
0.0211705
0.0292605
0.0217948
0.013628
0.00675939
-0.000101833
-0.00545127
-0.0104705
-0.0152919
-0.0203
-0.0260586
-0.033221
-0.0421553
-0.0533187
-0.0669267
-0.0818798
-0.0967615
-0.109797
-0.119927
-0.126162
-0.126912
-0.122437
-0.11426
-0.101967
-0.0870838
-0.0724631
-0.0596309
-0.0493275
-0.0411502
-0.0348856
-0.0304889
-0.0270248
-0.0255391
-0.0272568
-0.0301249
-0.0335403
-0.0370418
-0.0416209
-0.0421574
0.0106413
0.0256927
0.0259328
0.0128943
0.00121615
-0.00765203
-0.0130002
-0.0171359
-0.0210889
-0.0243539
-0.0280953
-0.0331328
-0.0398483
-0.0487136
-0.0595542
-0.0724883
-0.0868432
-0.100899
-0.112861
-0.12175
-0.127064
-0.127143
-0.122887
-0.115075
-0.103054
-0.0882175
-0.073329
-0.0599669
-0.0489446
-0.0401993
-0.0327892
-0.0278793
-0.0228701
-0.0191546
-0.019503
-0.021446
-0.0248822
-0.0295336
-0.03335
-0.0370866
0.0160236
0.0290636
0.0277563
0.0212995
0.0155349
0.0104337
0.0044871
-0.00066131
-0.00624202
-0.0118753
-0.0180438
-0.0250228
-0.0331876
-0.0426205
-0.054079
-0.067747
-0.0824946
-0.0968208
-0.10922
-0.119152
-0.12586
-0.127568
-0.124031
-0.117408
-0.106771
-0.0933454
-0.0798931
-0.0676488
-0.0575898
-0.0494549
-0.0432679
-0.039058
-0.0357647
-0.0338965
-0.034003
-0.0355271
-0.0379673
-0.0400245
-0.0415821
-0.0421149
0.0215039
0.0275366
0.019264
0.00423813
-0.00800812
-0.0186598
-0.0246793
-0.0279682
-0.0310107
-0.0336691
-0.0359897
-0.040053
-0.0458744
-0.0542761
-0.0647854
-0.0772989
-0.0911619
-0.104801
-0.116299
-0.124444
-0.128945
-0.128338
-0.12437
-0.116864
-0.105071
-0.0902585
-0.0749359
-0.0608742
-0.0489786
-0.0393981
-0.0311692
-0.0247358
-0.0199128
-0.0158808
-0.0141321
-0.0156386
-0.0193543
-0.0237489
-0.0264795
-0.0324362
0.0249651
0.0283086
0.0199619
0.0171505
0.0148489
0.0115907
0.00756327
0.00273307
-0.00275743
-0.00900653
-0.0164281
-0.0245591
-0.033459
-0.0437618
-0.0556995
-0.0695088
-0.0843282
-0.0984278
-0.110228
-0.119579
-0.126538
-0.129061
-0.125935
-0.120213
-0.110656
-0.098372
-0.0859066
-0.0744647
-0.0649351
-0.0573659
-0.0516145
-0.0472716
-0.043551
-0.0404422
-0.0389497
-0.0379902
-0.0388334
-0.0393627
-0.0399092
-0.0388954
0.0238922
0.0249514
0.0129336
0.00154865
-0.0114188
-0.023381
-0.0319405
-0.0359788
-0.0386933
-0.0407271
-0.0420748
-0.0451614
-0.0506701
-0.0587722
-0.0689259
-0.0810824
-0.0945921
-0.10809
-0.119475
-0.127441
-0.131512
-0.13044
-0.126758
-0.119717
-0.108301
-0.0936675
-0.0781375
-0.0634134
-0.0505307
-0.0396795
-0.0304329
-0.0232042
-0.0184971
-0.0151692
-0.0128741
-0.0129718
-0.0152519
-0.0196793
-0.0240919
-0.0303287
0.0198143
0.0233289
0.0129531
0.00798647
0.00856426
0.00816134
0.00684928
0.00336216
-0.00187221
-0.00830877
-0.0168142
-0.0254743
-0.0350105
-0.0461619
-0.0586093
-0.0725705
-0.0875972
-0.101845
-0.113253
-0.122069
-0.128776
-0.131123
-0.128401
-0.122944
-0.113735
-0.101996
-0.0900877
-0.0792981
-0.0704979
-0.0635382
-0.0583255
-0.0534937
-0.0489514
-0.0442282
-0.0409561
-0.0386319
-0.0367847
-0.0361022
-0.0354768
-0.0334638
0.0154553
0.0203753
0.00880349
-0.000287422
-0.010001
-0.0222421
-0.0331222
-0.0393033
-0.0425966
-0.0442984
-0.0448054
-0.0480554
-0.0537984
-0.0618033
-0.0718136
-0.0838287
-0.0972533
-0.110841
-0.122304
-0.130462
-0.134407
-0.133402
-0.130029
-0.123578
-0.112731
-0.0984871
-0.083093
-0.0679588
-0.0541538
-0.0421444
-0.0320023
-0.0242513
-0.0195759
-0.0170053
-0.0148141
-0.0139697
-0.0153092
-0.0194032
-0.024715
-0.0299298
0.0112963
0.0172285
0.00634397
0.000272634
-0.00186053
-0.000357214
0.00118375
-8.16368e-05
-0.00445654
-0.0105683
-0.0188842
-0.02818
-0.0382533
-0.0500411
-0.0629822
-0.0770674
-0.0923075
-0.106939
-0.118422
-0.126507
-0.132516
-0.134507
-0.131808
-0.126129
-0.116609
-0.104661
-0.0926758
-0.0820778
-0.0737003
-0.0674089
-0.062197
-0.0571949
-0.0513294
-0.0451593
-0.040679
-0.0366663
-0.0334688
-0.0304236
-0.0285455
-0.0291776
0.00817746
0.01447
0.00456861
-0.00258582
-0.00865854
-0.0173191
-0.0284312
-0.0373487
-0.0419604
-0.043652
-0.0450276
-0.0489356
-0.0551854
-0.0634324
-0.0736939
-0.0859138
-0.0995906
-0.113494
-0.1251
-0.133662
-0.137891
-0.137159
-0.134073
-0.128245
-0.117921
-0.104237
-0.0893738
-0.0742855
-0.059965
-0.0470394
-0.0361648
-0.0279468
-0.0234283
-0.0209335
-0.0188609
-0.0185009
-0.0200128
-0.0227053
-0.0260376
-0.0279492
0.0056576
0.0118148
0.00243589
-0.0048678
-0.00876524
-0.0103524
-0.00837983
-0.00757154
-0.0103691
-0.0156604
-0.0231027
-0.0322798
-0.0430051
-0.0551781
-0.0685424
-0.0827993
-0.0981839
-0.113242
-0.125246
-0.132985
-0.137984
-0.139241
-0.136378
-0.130538
-0.12041
-0.107515
-0.0947045
-0.0834844
-0.0748941
-0.0686779
-0.0637583
-0.0585451
-0.0514608
-0.0441649
-0.0380929
-0.0328717
-0.0294227
-0.0260716
-0.0255525
-0.0271442
0.00347521
0.00932788
0.000540655
-0.00642466
-0.0103467
-0.0147554
-0.0224664
-0.031144
-0.0372759
-0.0404637
-0.0434281
-0.0483117
-0.0552917
-0.0642709
-0.0753594
-0.0882294
-0.102522
-0.117062
-0.129032
-0.137715
-0.142434
-0.142196
-0.139128
-0.133248
-0.123097
-0.110108
-0.0959795
-0.0814708
-0.0673027
-0.0540365
-0.0424245
-0.0338321
-0.0294328
-0.0268038
-0.0249747
-0.0244472
-0.0248054
-0.024978
-0.0253384
-0.0263663
0.00156461
0.00705067
-0.00112804
-0.00791068
-0.0121631
-0.0153132
-0.0167579
-0.0165945
-0.0180088
-0.0221936
-0.0285353
-0.0375233
-0.0485689
-0.060935
-0.0746518
-0.0890308
-0.104317
-0.119553
-0.132116
-0.140617
-0.144947
-0.145252
-0.14219
-0.136209
-0.125853
-0.112641
-0.0983746
-0.0853169
-0.0754169
-0.0684168
-0.0631489
-0.057764
-0.0501515
-0.0421181
-0.0354918
-0.0300361
-0.0267367
-0.0251434
-0.025319
-0.0259068
-0.000103654
0.00499094
-0.00261817
-0.00931619
-0.0133599
-0.0161551
-0.0195761
-0.0251909
-0.0310774
-0.0362389
-0.0411559
-0.0473226
-0.0552813
-0.0654591
-0.0780012
-0.0920578
-0.107394
-0.122812
-0.135629
-0.144342
-0.148821
-0.148877
-0.145709
-0.139477
-0.128883
-0.115474
-0.101138
-0.0875589
-0.0747255
-0.0619657
-0.0503164
-0.0411887
-0.0361404
-0.0335091
-0.0312367
-0.0292179
-0.0270975
-0.0253408
-0.0252351
-0.025549
-0.00155692
0.003123
-0.00396735
-0.0104835
-0.0144011
-0.01726
-0.0199411
-0.0221957
-0.0246937
-0.0284522
-0.0343936
-0.04311
-0.0539072
-0.0662161
-0.0799791
-0.0947908
-0.110556
-0.126266
-0.139476
-0.148515
-0.152948
-0.152937
-0.149658
-0.143121
-0.132224
-0.118523
-0.10401
-0.0899653
-0.0774952
-0.0684286
-0.0618737
-0.0560254
-0.0485879
-0.0406586
-0.0342852
-0.0301706
-0.0276231
-0.0256502
-0.0253865
-0.0253989
-0.00278607
0.00143963
-0.00514737
-0.0114281
-0.0153077
-0.0179014
-0.0201236
-0.023173
-0.0275256
-0.0329566
-0.0391831
-0.0469732
-0.0567463
-0.0688728
-0.0829368
-0.0980989
-0.11417
-0.130141
-0.143735
-0.15316
-0.157598
-0.157528
-0.154117
-0.147179
-0.135896
-0.121883
-0.107121
-0.0927349
-0.0799113
-0.0688188
-0.0581865
-0.0490956
-0.0431853
-0.0392026
-0.0352308
-0.0311491
-0.0281259
-0.0260219
-0.025614
-0.0253826
-0.00384798
-4.75547e-05
-0.00611689
-0.012163
-0.0159668
-0.0182812
-0.0204334
-0.0234619
-0.0274747
-0.0323475
-0.0388516
-0.0476183
-0.0582941
-0.071175
-0.085992
-0.101694
-0.118178
-0.134449
-0.148437
-0.158313
-0.16287
-0.16269
-0.159117
-0.151739
-0.139935
-0.125608
-0.110506
-0.0957077
-0.0824209
-0.0711389
-0.0619423
-0.0550257
-0.0480572
-0.0414147
-0.0364088
-0.0320845
-0.0287944
-0.0264941
-0.0259046
-0.025493
-0.00477145
-0.00129077
-0.00683834
-0.0126811
-0.0163857
-0.0185002
-0.0206176
-0.0235688
-0.027635
-0.0328619
-0.039953
-0.0492184
-0.0604365
-0.0738762
-0.0894291
-0.105809
-0.122706
-0.139252
-0.153637
-0.164046
-0.168794
-0.168468
-0.164654
-0.15687
-0.144473
-0.129726
-0.11418
-0.0989357
-0.0852224
-0.0735916
-0.0636367
-0.05527
-0.0484689
-0.0426567
-0.0375813
-0.0331132
-0.0295632
-0.0270027
-0.0262033
-0.0256558
-0.00546554
-0.00237727
-0.00737494
-0.0129755
-0.0165926
-0.0185312
-0.0205682
-0.0235997
-0.0278481
-0.0334809
-0.0410467
-0.050816
-0.0627242
-0.0768457
-0.0932638
-0.110476
-0.127826
-0.144627
-0.159379
-0.170409
-0.175495
-0.174974
-0.170859
-0.162585
-0.149622
-0.134343
-0.11821
-0.10247
-0.0882504
-0.0761077
-0.0657539
-0.0571355
-0.0500593
-0.044008
-0.0387662
-0.0341631
-0.0304102
-0.0275829
-0.0265185
-0.0258042
-0.00594969
-0.00336526
-0.00772979
-0.0130142
-0.0165081
-0.0183417
-0.0203675
-0.0235506
-0.0280681
-0.0341627
-0.0422374
-0.0526002
-0.0653031
-0.0802589
-0.0975756
-0.115704
-0.133602
-0.15068
-0.16582
-0.177521
-0.182989
-0.182276
-0.177844
-0.168962
-0.155439
-0.139519
-0.122667
-0.106341
-0.0915813
-0.078903
-0.0681177
-0.0591536
-0.0516862
-0.0453992
-0.0399743
-0.035248
-0.0313184
-0.0282526
-0.0268574
-0.0258511
-0.00640629
-0.00423051
-0.0078052
-0.012722
-0.0161479
-0.0179507
-0.0200057
-0.0233951
-0.0283212
-0.0349342
-0.0436
-0.054673
-0.0682243
-0.0841579
-0.102394
-0.12153
-0.140205
-0.157551
-0.173062
-0.185466
-0.191378
-0.190522
-0.185679
-0.176226
-0.162032
-0.14527
-0.127633
-0.110689
-0.0952675
-0.0820169
-0.0707241
-0.0613359
-0.0534269
-0.0467078
-0.0411757
-0.0363269
-0.0322129
-0.0289247
-0.0271974
-0.0259542
-0.00651807
-0.00465659
-0.00747774
-0.0120597
-0.0155319
-0.017323
-0.0194907
-0.0232136
-0.0286237
-0.0358255
-0.0452114
-0.057112
-0.0716035
-0.0885951
-0.107885
-0.12814
-0.147665
-0.165352
-0.181287
-0.194398
-0.200752
-0.199844
-0.194477
-0.184438
-0.169541
-0.151792
-0.133254
-0.115553
-0.0993561
-0.0854248
-0.0735919
-0.0637703
-0.0554132
-0.048315
-0.0424818
-0.0374617
-0.033151
-0.0296481
-0.0275555
-0.026036
-0.0058887
-0.00442193
-0.00668423
-0.0110298
-0.0146114
-0.0164513
-0.0188678
-0.0230251
-0.0290059
-0.0369249
-0.0471488
-0.0599598
-0.0754879
-0.0936946
-0.114229
-0.135644
-0.156062
-0.174263
-0.19073
-0.204496
-0.211258
-0.210342
-0.204434
-0.193688
-0.178039
-0.159242
-0.139654
-0.121061
-0.1041
-0.0893433
-0.0768022
-0.0664011
-0.0575409
-0.0500069
-0.0438321
-0.0385959
-0.0340939
-0.0303933
-0.0279297
-0.0261085
-0.00504727
-0.00396209
-0.00553331
-0.00960598
-0.0134236
-0.0153924
-0.0182105
-0.0229441
-0.0295447
-0.0382635
-0.0494681
-0.0633589
-0.0800527
-0.0996014
-0.121543
-0.144179
-0.165574
-0.184502
-0.20157
-0.215895
-0.223114
-0.222155
-0.215758
-0.204293
-0.187636
-0.167737
-0.147071
-0.127385
-0.10946
-0.0937934
-0.0804171
-0.0693082
-0.059916
-0.0519361
-0.0453358
-0.0397897
-0.0350476
-0.0311342
-0.028317
-0.0262554
-0.00396714
-0.00295719
-0.00403965
-0.00785648
-0.0118288
-0.0142177
-0.0174685
-0.0228406
-0.0302964
-0.0401182
-0.0524198
-0.067464
-0.0855136
-0.106601
-0.130021
-0.153999
-0.176542
-0.196296
-0.213995
-0.228833
-0.23651
-0.235504
-0.228562
-0.216431
-0.198672
-0.177474
-0.155577
-0.134693
-0.115677
-0.0990158
-0.0846866
-0.0726302
-0.0625724
-0.0541495
-0.0471109
-0.041138
-0.0360531
-0.0318389
-0.0286665
-0.0264109
-0.00249686
-0.00140983
-0.00219073
-0.00589608
-0.00985883
-0.0128319
-0.0169805
-0.0231002
-0.0314964
-0.042388
-0.05596
-0.0724497
-0.0921082
-0.114915
-0.139882
-0.165367
-0.189238
-0.209902
-0.228309
-0.243652
-0.251745
-0.250683
-0.243081
-0.23032
-0.211469
-0.188777
-0.165487
-0.143267
-0.122921
-0.104969
-0.0895804
-0.0765478
-0.0656819
-0.056673
-0.0491326
-0.0426798
-0.0371534
-0.0325545
-0.0290413
-0.0265909
-0.000519403
0.000579878
-1.04834e-05
-0.00375718
-0.00783348
-0.0110417
-0.0161012
-0.0236816
-0.0335275
-0.0455446
-0.0603057
-0.0785034
-0.100079
-0.124799
-0.151449
-0.178612
-0.204001
-0.225695
-0.244819
-0.260677
-0.269363
-0.268154
-0.259691
-0.246163
-0.226245
-0.201999
-0.17709
-0.153292
-0.131495
-0.112138
-0.0954483
-0.0812859
-0.0694001
-0.0595786
-0.0514475
-0.044504
-0.0384546
-0.03334
-0.0293637
-0.0266857
0.00194875
0.00291964
0.00241747
-0.001443
-0.00594003
-0.00946433
-0.0149251
-0.0237788
-0.0355852
-0.0496111
-0.0662793
-0.0863528
-0.109841
-0.136586
-0.1652
-0.194162
-0.221196
-0.244196
-0.264043
-0.280223
-0.289435
-0.288364
-0.27901
-0.264462
-0.243414
-0.217476
-0.19074
-0.165208
-0.141706
-0.120713
-0.10249
-0.0870078
-0.0739838
-0.063092
-0.0540877
-0.0465446
-0.039986
-0.0343241
-0.0298136
-0.0267316
0.00481469
0.00556575
0.00513818
0.00116842
-0.00397371
-0.00825312
-0.0146033
-0.0246945
-0.0376376
-0.0540723
-0.0738961
-0.0964605
-0.121886
-0.150617
-0.18154
-0.212579
-0.241497
-0.266052
-0.286471
-0.302865
-0.312553
-0.311763
-0.301624
-0.285805
-0.263558
-0.23595
-0.207098
-0.179468
-0.153971
-0.131145
-0.111163
-0.0940149
-0.0796517
-0.0675719
-0.0574596
-0.0490041
-0.0417806
-0.035511
-0.0304111
-0.0267998
0.00827917
0.0086057
0.00823824
0.00400198
-0.00204926
-0.00761409
-0.0150687
-0.0266716
-0.0414237
-0.0595305
-0.082364
-0.108515
-0.137031
-0.168052
-0.201205
-0.234443
-0.26543
-0.291967
-0.313071
-0.329193
-0.339287
-0.339127
-0.328462
-0.310931
-0.287131
-0.257928
-0.226846
-0.196855
-0.169057
-0.144046
-0.121994
-0.102921
-0.0868247
-0.0732127
-0.0617575
-0.0521834
-0.0440445
-0.0369688
-0.0311629
-0.0268891
0.012986
0.0122979
0.0116184
0.00691479
-0.000403081
-0.00758189
-0.0166561
-0.0301478
-0.0472406
-0.067795
-0.092679
-0.122318
-0.155145
-0.189826
-0.225496
-0.260864
-0.293895
-0.322516
-0.344831
-0.360581
-0.370046
-0.37079
-0.360204
-0.341075
-0.315388
-0.284336
-0.250852
-0.218136
-0.187566
-0.160067
-0.135689
-0.11428
-0.0959947
-0.0805665
-0.0674737
-0.0563909
-0.0470068
-0.0388791
-0.0321047
-0.0268943
0.0185957
0.0165042
0.0149874
0.00959715
0.00050802
-0.00901208
-0.0200119
-0.0358494
-0.0559175
-0.0795188
-0.107272
-0.139665
-0.176603
-0.215802
-0.255284
-0.293339
-0.328282
-0.358726
-0.382451
-0.398189
-0.407203
-0.408196
-0.397867
-0.377124
-0.349232
-0.31627
-0.280488
-0.244797
-0.211072
-0.180474
-0.153318
-0.129355
-0.10845
-0.0906019
-0.0755515
-0.0627049
-0.0517266
-0.0421031
-0.0338867
-0.0273104
0.0251758
0.0212744
0.0186622
0.0124868
0.00100419
-0.0120463
-0.0259228
-0.0446043
-0.0684254
-0.0959028
-0.127414
-0.163593
-0.203757
-0.24708
-0.291024
-0.333041
-0.370658
-0.402535
-0.427397
-0.443258
-0.451255
-0.452309
-0.442804
-0.421314
-0.391007
-0.355382
-0.316997
-0.278183
-0.240849
-0.206393
-0.175572
-0.148338
-0.124334
-0.103422
-0.0856864
-0.0705072
-0.0576214
-0.0463689
-0.0365372
-0.0282671
0.0310293
0.0243892
0.0194484
0.0116442
-0.00274662
-0.0199965
-0.0374653
-0.0592529
-0.0873932
-0.119694
-0.155552
-0.195846
-0.239894
-0.286594
-0.334758
-0.381253
-0.422709
-0.456806
-0.482635
-0.498546
-0.505133
-0.504754
-0.495703
-0.474442
-0.442871
-0.404784
-0.363513
-0.321349
-0.280189
-0.241768
-0.206975
-0.175995
-0.148464
-0.123972
-0.102838
-0.0844844
-0.0685999
-0.0548065
-0.0425993
-0.0322616
0.0399221
0.0306228
0.0222189
0.0106983
-0.00816886
-0.0316907
-0.0546765
-0.0807093
-0.114382
-0.152968
-0.193955
-0.238548
-0.286979
-0.337767
-0.38979
-0.440147
-0.485638
-0.523748
-0.551912
-0.569037
-0.574904
-0.570471
-0.558779
-0.536808
-0.504369
-0.464499
-0.420524
-0.374762
-0.329109
-0.285551
-0.245856
-0.210024
-0.178337
-0.149894
-0.124617
-0.102206
-0.0823025
-0.064685
-0.0490448
-0.0354072
0.0373661
0.0215873
0.0081723
-0.00568271
-0.0261327
-0.0554715
-0.0879947
-0.120231
-0.158417
-0.203196
-0.249963
-0.29897
-0.350681
-0.404554
-0.459776
-0.512302
-0.560158
-0.60185
-0.63523
-0.6586
-0.670891
-0.670129
-0.654722
-0.626949
-0.590089
-0.546782
-0.499139
-0.449982
-0.400259
-0.35095
-0.304625
-0.263007
-0.225787
-0.19218
-0.161435
-0.135144
-0.113014
-0.0953358
-0.0797518
-0.0664296
0.0534345
0.0324378
0.00635067
-0.0227854
-0.0576092
-0.0990062
-0.143387
-0.184495
-0.227601
-0.279058
-0.335148
-0.392382
-0.4496
-0.506558
-0.563775
-0.616442
-0.66106
-0.697353
-0.72281
-0.736618
-0.743136
-0.742345
-0.733504
-0.714979
-0.684834
-0.642367
-0.593295
-0.542141
-0.489784
-0.435473
-0.382353
-0.33383
-0.290205
-0.249957
-0.211104
-0.172955
-0.135488
-0.100929
-0.0718719
-0.049983
-0.0173172
-0.0464448
-0.0791626
-0.114362
-0.152755
-0.194824
-0.244933
-0.299821
-0.35486
-0.411809
-0.474113
-0.53975
-0.606302
-0.670794
-0.734154
-0.796523
-0.854742
-0.906096
-0.946757
-0.973071
-0.982325
-0.975765
-0.947172
-0.90699
-0.860267
-0.810334
-0.757636
-0.702251
-0.642028
-0.578835
-0.516594
-0.459358
-0.408367
-0.365965
-0.33138
-0.302037
-0.275105
-0.24968
-0.22445
-0.198916
0.0381388
-0.0129039
-0.0701646
-0.125642
-0.180495
-0.236216
-0.295542
-0.359232
-0.424254
-0.489614
-0.555621
-0.621282
-0.686527
-0.749094
-0.806956
-0.861188
-0.909634
-0.951982
-0.98546
-1.01007
-1.02505
-1.03112
-1.02643
-1.01013
-0.982411
-0.945147
-0.899164
-0.846216
-0.785153
-0.71716
-0.64561
-0.573265
-0.497919
-0.423538
-0.354975
-0.294651
-0.239777
-0.190879
-0.150909
-0.122007
-0.442245
-0.488942
-0.545725
-0.618075
-0.695985
-0.774564
-0.851936
-0.930603
-1.00646
-1.07537
-1.13544
-1.18901
-1.2411
-1.29623
-1.34918
-1.39689
-1.43694
-1.46883
-1.49511
-1.51427
-1.52248
-1.51548
-1.49605
-1.46384
-1.42498
-1.38043
-1.33145
-1.27882
-1.22333
-1.16525
-1.10551
-1.04186
-0.975982
-0.908889
-0.84262
-0.77481
-0.707357
-0.641222
-0.577914
-0.517177
-0.0294562
0.000860968
-0.0275129
0.000879318
-0.0242018
-0.00439668
-0.017466
-0.0107192
-0.0117994
-0.0110721
-0.0101914
-0.00923292
-0.00807506
-0.00652929
-0.00504298
-0.00426321
-0.00325337
-0.00233528
-0.00209531
-0.0015133
0.00020402
0.00270042
0.00462777
0.00646828
0.00821735
0.00929235
0.0100826
0.0114558
0.0133007
0.0145466
0.015365
0.0167413
0.0182849
0.0187018
0.017759
0.0162129
0.0158594
0.0126643
0.00896614
0.000641466
-0.0328813
0.00162894
-0.0244619
0.000457866
-0.0223743
-0.00523962
-0.0172181
-0.0118898
-0.0119461
-0.0111984
-0.0102495
-0.00933325
-0.00817345
-0.00681313
-0.00543836
-0.0043134
-0.00319502
-0.00248879
-0.00208567
-0.00143439
0.00010132
0.00211643
0.00416703
0.00635367
0.00793591
0.00895244
0.0097671
0.0110105
0.01263
0.0138255
0.0150183
0.0165497
0.0170901
0.0174973
0.017133
0.016654
0.0163054
0.0145721
0.0114669
0.0122562
-0.0254375
0.0020356
-0.0222687
-0.000543034
-0.0209625
-0.00615198
-0.0168265
-0.0131033
-0.0122803
-0.0113889
-0.0104483
-0.00960364
-0.00853952
-0.00737238
-0.00620014
-0.00452812
-0.00334214
-0.00269495
-0.00206974
-0.0013854
-0.000240411
0.00115394
0.00361548
0.00592528
0.00712609
0.00838124
0.00955131
0.0105936
0.0116707
0.0129784
0.0146386
0.0160266
0.0161408
0.0163342
0.0164914
0.0166412
0.0165331
0.0148688
0.0113756
0.00914749
-0.028295
0.000727645
-0.0205596
-0.00169164
-0.0199339
-0.00695441
-0.0163683
-0.0138905
-0.0127256
-0.0117701
-0.0108828
-0.0100685
-0.00917251
-0.00815485
-0.00698423
-0.00502126
-0.00358368
-0.00294314
-0.0023732
-0.00159
-0.000747138
0.000526216
0.00274396
0.00486976
0.00632588
0.00779075
0.00915028
0.0101631
0.0109569
0.0123395
0.0139024
0.014729
0.0151827
0.0156271
0.0158157
0.0162188
0.0169358
0.0156384
0.0132703
0.0144418
-0.0227106
0.000247233
-0.0196121
-0.00258839
-0.0192005
-0.00765972
-0.0159741
-0.0141515
-0.0131031
-0.0122189
-0.0114223
-0.0106665
-0.0099195
-0.00899967
-0.00773555
-0.005742
-0.00406031
-0.00359621
-0.00289684
-0.00178041
-0.000933026
0.00014726
0.00148219
0.00350375
0.0057419
0.00708965
0.00812629
0.00952141
0.0109031
0.0120756
0.0124891
0.013392
0.014173
0.0147095
0.0148601
0.0160596
0.0171571
0.015807
0.013136
0.0120645
-0.0238236
-0.000875969
-0.0191121
-0.00346193
-0.0185935
-0.00828536
-0.0156519
-0.0141922
-0.0133757
-0.012635
-0.0119806
-0.0113355
-0.0106621
-0.0097822
-0.00841057
-0.00654172
-0.00505675
-0.00448077
-0.00336083
-0.00195142
-0.00128091
-0.000402425
0.000704506
0.00258468
0.00489036
0.00616554
0.00706978
0.00886761
0.010566
0.0114632
0.0113517
0.0118732
0.0128234
0.013366
0.0137459
0.0156189
0.0171312
0.0163629
0.0148445
0.0161091
-0.0209322
-0.00180043
-0.0187658
-0.00425563
-0.0179733
-0.00881084
-0.0153881
-0.0141482
-0.0135699
-0.0130116
-0.0125149
-0.0119795
-0.0113966
-0.0105519
-0.00916708
-0.0076228
-0.00629546
-0.0051738
-0.0035664
-0.00213901
-0.00176232
-0.000795306
0.000775287
0.00237308
0.00347673
0.00481797
0.00628002
0.00811109
0.00887385
0.00972291
0.0101684
0.0106868
0.0115417
0.0120491
0.0127964
0.0145153
0.0159401
0.0153554
0.0144464
0.0145204
-0.020935
-0.0031848
-0.0183419
-0.00501724
-0.0173148
-0.00922893
-0.0151574
-0.0140658
-0.0137189
-0.0133439
-0.0129998
-0.012599
-0.0121006
-0.0113196
-0.0100588
-0.00901365
-0.0074745
-0.00562271
-0.00376058
-0.0023282
-0.00193493
-0.000888579
0.000661251
0.00199196
0.00265489
0.00400325
0.00561237
0.00653771
0.00691896
0.00745922
0.00851094
0.00966617
0.0106888
0.0111691
0.0122343
0.0136555
0.0141445
0.0140042
0.0145574
0.0162079
-0.0195778
-0.00445954
-0.0177382
-0.00588718
-0.0167243
-0.00955963
-0.0149379
-0.0139718
-0.0138124
-0.0136242
-0.013434
-0.013163
-0.0127567
-0.0121172
-0.0111224
-0.0102688
-0.00832339
-0.00604519
-0.00407451
-0.00243608
-0.0016053
-0.00048563
0.000104233
0.00127615
0.00242956
0.00372337
0.00454482
0.00453327
0.00467683
0.00532236
0.00673437
0.00829919
0.00968191
0.010218
0.0115762
0.0130549
0.0129504
0.0125108
0.0132123
0.0146299
-0.0185826
-0.00528996
-0.0171245
-0.0067696
-0.016297
-0.00983904
-0.0147109
-0.0138769
-0.0138691
-0.0138576
-0.0138067
-0.0136624
-0.01338
-0.0128813
-0.0121539
-0.0110809
-0.00878818
-0.006526
-0.00416696
-0.00234624
-0.00124345
-0.000457553
-0.000240439
0.000738042
0.00224316
0.00325959
0.00313799
0.00281695
0.00289151
0.00341485
0.00465211
0.00635087
0.00821332
0.00909276
0.0107507
0.0124841
0.0121185
0.0113574
0.0123725
0.0142717
-0.0179882
-0.00598261
-0.0165442
-0.00747669
-0.0159638
-0.0100802
-0.0144664
-0.0137697
-0.0138862
-0.0140331
-0.0141119
-0.0140968
-0.0139371
-0.0135426
-0.0129294
-0.0114798
-0.00904025
-0.00670656
-0.00409431
-0.00239756
-0.00107881
-0.000544435
-0.000265547
0.000888012
0.00197553
0.00179329
0.00132838
0.00137073
0.00166819
0.00211227
0.00298165
0.00479081
0.0065471
0.00785259
0.0096807
0.0116025
0.011176
0.0103561
0.0117622
0.0135165
-0.0176734
-0.00673299
-0.0160436
-0.00809491
-0.0156293
-0.0102847
-0.0141707
-0.0136351
-0.0138612
-0.0141405
-0.0143398
-0.0144605
-0.0144273
-0.0141096
-0.0134115
-0.0115005
-0.00909313
-0.00678163
-0.00449982
-0.00245052
-0.000949343
-0.000532538
0.000238671
0.00136226
0.00101978
0.000176993
-2.70404e-05
0.000322527
0.000597003
0.00106799
0.00207183
0.00364148
0.00504049
0.00638942
0.00839042
0.0104207
0.0100719
0.00946677
0.0112572
0.012877
-0.0175284
-0.00750816
-0.0155844
-0.00866652
-0.0152753
-0.0104324
-0.0138064
-0.0134636
-0.0137799
-0.0141723
-0.0144929
-0.0147462
-0.0148088
-0.0145999
-0.0136102
-0.0112791
-0.0090095
-0.00684117
-0.00468305
-0.00233198
-0.000972166
-0.000261417
0.000926049
0.000982394
-0.000205951
-0.000981725
-0.000924844
-0.000695513
-0.000596367
9.62352e-05
0.0013435
0.00274929
0.00405393
0.00505118
0.00695824
0.00895067
0.00868193
0.00837954
0.0105226
0.0121324
-0.0175926
-0.00839207
-0.0152179
-0.00922438
-0.0148877
-0.0105384
-0.013418
-0.0132438
-0.013626
-0.0141172
-0.0145663
-0.0149439
-0.0150533
-0.0148663
-0.0134018
-0.0109959
-0.00886175
-0.00683653
-0.00472303
-0.00244275
-0.000906696
7.98127e-05
0.000352206
-0.000217341
-0.00126539
-0.00191247
-0.0018359
-0.00186447
-0.00178581
-0.00112324
4.7283e-05
0.00154609
0.00309198
0.003943
0.00563518
0.0073423
0.00701307
0.00703694
0.0094078
0.0110103
-0.0178173
-0.00937318
-0.0149457
-0.00979828
-0.014445
-0.0106656
-0.0129686
-0.0129492
-0.0133691
-0.0139566
-0.0145353
-0.0150385
-0.0152811
-0.0148588
-0.0128095
-0.0106584
-0.00869067
-0.00682485
-0.00480608
-0.0025741
-0.00105782
-0.000627946
-0.000965337
-0.00171276
-0.00225816
-0.00260683
-0.0025644
-0.00259256
-0.0025046
-0.00229203
-0.00163629
-0.00042614
0.00135488
0.00258143
0.00431246
0.00570553
0.00526087
0.00555137
0.00796029
0.00953612
-0.0181718
-0.0103954
-0.0147424
-0.0103659
-0.0139403
-0.0108085
-0.0123416
-0.0125494
-0.012982
-0.0136672
-0.0143686
-0.0149651
-0.015385
-0.0145107
-0.0121647
-0.0102979
-0.00857128
-0.00685477
-0.00483258
-0.00278866
-0.0021388
-0.00218323
-0.00254266
-0.00306368
-0.00324741
-0.00324273
-0.00308468
-0.00283646
-0.00262945
-0.00265252
-0.00260196
-0.00215563
-0.000791591
0.000959555
0.00286774
0.00411593
0.00365597
0.00413436
0.00642945
0.00788677
-0.018622
-0.0114105
-0.0145673
-0.0108799
-0.0133712
-0.0108311
-0.0116347
-0.01202
-0.0124632
-0.0132269
-0.014056
-0.0147653
-0.0150895
-0.0136154
-0.0115637
-0.00996765
-0.00848867
-0.0068625
-0.00486477
-0.00356833
-0.00398515
-0.00408289
-0.00449685
-0.00493427
-0.00493134
-0.0041574
-0.0032727
-0.0028716
-0.00273339
-0.00281722
-0.00293626
-0.00319445
-0.00293418
-0.00113033
0.00103863
0.00234045
0.00211629
0.00297562
0.00494627
0.00622314
-0.0191762
-0.0124193
-0.014406
-0.0113
-0.012735
-0.0106634
-0.0109341
-0.0113277
-0.0118007
-0.0125991
-0.013553
-0.0145195
-0.0143721
-0.0124307
-0.0109574
-0.00969713
-0.00844377
-0.00685832
-0.00521397
-0.00516896
-0.005743
-0.00596135
-0.0063478
-0.00706839
-0.00680408
-0.00525002
-0.0039076
-0.00316041
-0.00293801
-0.00290265
-0.00291334
-0.00333288
-0.00402283
-0.0031617
-0.0010036
0.000414208
0.000478009
0.00154111
0.00334408
0.00450797
-0.0197818
-0.0133674
-0.0142206
-0.0115668
-0.0120038
-0.0103346
-0.0100653
-0.0104368
-0.0109427
-0.0117587
-0.0127871
-0.0138082
-0.0130697
-0.0113572
-0.0103603
-0.00947714
-0.00838914
-0.00689886
-0.00623774
-0.00726025
-0.00752579
-0.00782952
-0.00831477
-0.00863674
-0.00793835
-0.00663816
-0.0054832
-0.00440719
-0.00370476
-0.00317167
-0.00281785
-0.00299459
-0.00386546
-0.00384888
-0.00242921
-0.00134697
-0.00119226
-5.48946e-05
0.00161707
0.00268258
-0.0204383
-0.014226
-0.0139988
-0.0116352
-0.0111542
-0.00975183
-0.00903382
-0.00932129
-0.0098132
-0.0106842
-0.0118655
-0.0124709
-0.011225
-0.0103161
-0.00979646
-0.00925401
-0.00824883
-0.00732506
-0.00815472
-0.00912523
-0.00948435
-0.0101729
-0.0105885
-0.00999288
-0.00876481
-0.00760775
-0.00663085
-0.00565605
-0.00486024
-0.00418353
-0.00340714
-0.00311204
-0.00387264
-0.00402411
-0.00322317
-0.00271658
-0.00264879
-0.00157683
1.85753e-06
0.000931811
-0.0211842
-0.0150477
-0.0137482
-0.01148
-0.0101473
-0.00888496
-0.00786661
-0.00794033
-0.00836131
-0.0093107
-0.0105386
-0.0105327
-0.00944346
-0.00923977
-0.00921345
-0.00887326
-0.00814748
-0.00868294
-0.0105117
-0.0111679
-0.0122873
-0.0132993
-0.0127974
-0.0112756
-0.00981228
-0.00850298
-0.00743527
-0.00634661
-0.00558077
-0.00518105
-0.004557
-0.00402409
-0.00431256
-0.00415648
-0.00367049
-0.00379329
-0.00394116
-0.00298535
-0.0015203
-0.000686229
-0.0218925
-0.0158245
-0.0134454
-0.0111262
-0.00891256
-0.00775668
-0.0064277
-0.00624782
-0.00657668
-0.00759884
-0.00856289
-0.00796459
-0.00770321
-0.00808183
-0.00844045
-0.00828168
-0.00866556
-0.0109478
-0.0126831
-0.0141564
-0.0159537
-0.016097
-0.0145339
-0.0127216
-0.0112876
-0.00996647
-0.00876414
-0.00731874
-0.00605508
-0.00577017
-0.0056058
-0.0051334
-0.00503315
-0.0046642
-0.00412149
-0.00438963
-0.00480046
-0.00402214
-0.00283983
-0.00215391
-0.022516
-0.0164543
-0.0130177
-0.0105117
-0.00746774
-0.00626938
-0.00464275
-0.00417274
-0.00439141
-0.00534521
-0.00579766
-0.00527633
-0.00586638
-0.00675676
-0.00732614
-0.00789144
-0.0102829
-0.0133806
-0.0156016
-0.0179049
-0.018852
-0.0178332
-0.0158351
-0.0142865
-0.0129005
-0.0115318
-0.0101751
-0.00870378
-0.00705907
-0.00631891
-0.00628728
-0.00606784
-0.00591811
-0.00557197
-0.00498616
-0.00514962
-0.00547214
-0.00484955
-0.00389276
-0.00339346
-0.0230669
-0.0168677
-0.0123564
-0.00965529
-0.005826
-0.00431351
-0.00242846
-0.00162991
-0.00167766
-0.0023013
-0.0022251
-0.00259236
-0.00382788
-0.00504961
-0.00606648
-0.00855015
-0.0128245
-0.0161415
-0.0191115
-0.0208095
-0.0207796
-0.0191649
-0.0171342
-0.0154286
-0.013893
-0.0124388
-0.0110162
-0.00968281
-0.00826563
-0.00701369
-0.00665862
-0.00674148
-0.00670183
-0.00642329
-0.00606808
-0.00617608
-0.00631645
-0.00572986
-0.00490223
-0.00443814
-0.0233838
-0.0169993
-0.011604
-0.00848902
-0.00389516
-0.00188525
0.000299658
0.00145634
0.00168131
0.00153494
0.00157217
0.000289635
-0.00140044
-0.00301334
-0.00562622
-0.0106055
-0.0152545
-0.0191064
-0.0216757
-0.022781
-0.0225432
-0.0210657
-0.0186534
-0.0163649
-0.0145327
-0.0129985
-0.0116387
-0.0103371
-0.00905742
-0.00767743
-0.00684727
-0.00701753
-0.00715036
-0.00690671
-0.0067867
-0.00700727
-0.00714536
-0.00661907
-0.00590407
-0.00550647
-0.0234817
-0.0169062
-0.0107811
-0.00691719
-0.0015535
0.00107565
0.00359459
0.00514413
0.00570374
0.0058967
0.00537638
0.00360587
0.00142491
-0.00152975
-0.00670936
-0.0126412
-0.0172822
-0.0207817
-0.0230688
-0.0241983
-0.0246829
-0.023492
-0.020618
-0.0180444
-0.0159181
-0.0142237
-0.0128757
-0.0116629
-0.0103705
-0.00889566
-0.00754102
-0.00740249
-0.00756846
-0.00748943
-0.00749726
-0.00768259
-0.00786459
-0.00743202
-0.00685479
-0.00658809
-0.0234361
-0.0166188
-0.00943381
-0.00498592
0.00116213
0.00462347
0.00750207
0.0094606
0.0103212
0.0105944
0.00957474
0.00732536
0.0039741
-0.00124518
-0.00796178
-0.0134842
-0.0179695
-0.0215003
-0.0240436
-0.025963
-0.0269606
-0.0253584
-0.022693
-0.02047
-0.018363
-0.0165526
-0.0149958
-0.0137514
-0.0125809
-0.0110719
-0.00940954
-0.00878799
-0.00876573
-0.00865106
-0.00853745
-0.00859794
-0.0086799
-0.00824049
-0.00773469
-0.00757443
-0.0231087
-0.0158982
-0.00758909
-0.00266381
0.00423499
0.00886456
0.0121226
0.0144943
0.0156533
0.0158763
0.0143444
0.0110313
0.005996
-0.000626389
-0.00752483
-0.0131222
-0.0179846
-0.0220918
-0.0253903
-0.0275724
-0.0275359
-0.025845
-0.0245091
-0.023157
-0.021595
-0.0198911
-0.0180535
-0.0164646
-0.0151819
-0.0136966
-0.0120704
-0.0112267
-0.0109992
-0.010535
-0.0100212
-0.0100084
-0.00987408
-0.00932032
-0.00875451