/*--------------------------------*- C++ -*----------------------------------*\
  =========                 |
  \\      /  F ield         | OpenFOAM: The Open Source CFD Toolbox
   \\    /   O peration     | Website:  https://openfoam.org
    \\  /    A nd           | Version:  11
     \\/     M anipulation  |
\*---------------------------------------------------------------------------*/
FoamFile
{
    format      ascii;
    class       surfaceScalarField;
    location    "0.5";
    object      phi;
}
// * * * * * * * * * * * * * * * * * * * * * * * * * * * * * * * * * * * * * //

dimensions      [0 3 -1 0 0 0 0];

internalField   nonuniform List<scalar> 
18960
(
0.040762
0.00094285
-0.0417048
0.0447772
-0.00401523
0.0493305
-0.00455328
0.0525326
-0.00320215
0.0535489
-0.00101623
0.0534928
5.61107e-05
0.0530494
0.000443393
0.0524995
0.000549813
0.0518698
0.000629704
0.0513553
0.000514505
0.0509139
0.000441441
0.0505839
0.000330007
0.0503831
0.000200763
0.0503387
4.44725e-05
0.0503927
-5.40876e-05
0.0505301
-0.00013732
0.0507963
-0.000266279
0.0509901
-0.000193734
0.0510773
-8.71815e-05
0.0510469
3.03874e-05
0.0508582
0.000188634
0.0506133
0.000244908
0.0503896
0.000223711
0.0500394
0.000350201
0.0497175
0.000321959
0.049498
0.00021943
0.0494403
5.77648e-05
0.0495512
-0.000110982
0.0498177
-0.000266472
0.0502248
-0.000407124
0.050749
-0.000524149
0.0515197
-0.000770696
0.0523328
-0.000813137
0.0533002
-0.000967402
0.054294
-0.00099379
0.0555278
-0.00123377
0.0566106
-0.00108286
0.058642
-0.00203134
0.0568381
0.0018039
-0.000188832
0.0570269
0.0436709
-0.00089179
-0.0418362
0.0439013
-0.00424565
0.042174
-0.002826
0.0394489
-0.000477073
0.0383164
0.000116317
0.0382383
0.000134131
0.039102
-0.000420233
0.0398079
-0.000156138
0.0407425
-0.000304882
0.0416693
-0.000412322
0.0424679
-0.000357122
0.043348
-0.000550127
0.0442668
-0.00071798
0.0452589
-0.000947681
0.0462879
-0.00108303
0.04734
-0.00118949
0.0483598
-0.00128604
0.0492928
-0.00112672
0.049993
-0.000787437
0.0502436
-0.000220151
0.0502487
0.000183474
0.0499324
0.000561281
0.0492786
0.000877503
0.0483737
0.00125513
0.0473613
0.0013343
0.0463578
0.00122295
0.0453892
0.00102637
0.0445222
0.000756031
0.0437231
0.000532645
0.042936
0.000379893
0.0422972
0.00011468
0.041353
0.000173474
0.0410523
-0.000512424
0.0404033
-0.000318409
0.0393894
2.01552e-05
0.0385684
-0.000412743
0.0371928
0.00029266
0.0360641
-0.000902585
0.0363471
0.00152086
-0.00348135
0.0396397
0.0481719
-0.0044584
-0.0446053
0.04903
-0.00510373
0.0504911
-0.00428706
0.05256
-0.00254601
0.0538133
-0.00113699
0.054113
-0.000165599
0.0536477
4.5108e-05
0.0530536
0.000437982
0.0524083
0.000340385
0.0518164
0.000179538
0.0513567
0.000102664
0.0510031
-0.000196564
0.0507458
-0.000460657
0.0506366
-0.000838528
0.0506442
-0.00109057
0.0507062
-0.00125151
0.0508648
-0.00144466
0.0510375
-0.00129938
0.0511343
-0.000884229
0.0511612
-0.000247135
0.0509937
0.000351001
0.0507993
0.000755666
0.0505588
0.00111803
0.0502563
0.00155767
0.0500122
0.00157832
0.0498908
0.00134443
0.049896
0.00102108
0.0500513
0.000600751
0.0503234
0.0002606
0.050708
-4.72982e-06
0.0512466
-0.000423888
0.0517705
-0.00035048
0.0524996
-0.0012415
0.0536098
-0.0014286
0.0546077
-0.000977796
0.0561339
-0.00193893
0.0572722
-0.000845619
0.0573713
-0.00100171
0.0554627
0.00342947
-0.00157405
0.0535554
0.0504994
-0.00715915
-0.0477986
0.049179
-0.00378339
0.0468818
-0.00198981
0.0432289
0.00110686
0.0406871
0.00140481
0.0397684
0.000753122
0.0399144
-0.000100938
0.0405375
-0.000185111
0.0412873
-0.000409389
0.0420732
-0.000606359
0.0428494
-0.000673512
0.0437251
-0.00107227
0.0447086
-0.00144423
0.0457603
-0.00189018
0.0467805
-0.00211075
0.0477674
-0.00223843
0.0487294
-0.00240671
0.0495837
-0.00215359
0.0501963
-0.00149687
0.0504212
-0.000472025
0.0504238
0.000348372
0.0502012
0.000978332
0.0496636
0.00165556
0.0488807
0.00234064
0.047943
0.00251593
0.0469481
0.0023394
0.0459399
0.0020293
0.0449771
0.00156352
0.0441322
0.00110549
0.0433271
0.000800349
0.0426463
0.000256975
0.0420062
0.000289554
0.041057
-0.00029223
0.0403017
-0.000673388
0.0395988
-0.000274832
0.0387958
-0.00113593
0.038845
-0.000894842
0.0397971
-0.00195386
0.0420824
0.00114424
-0.00408582
0.0445941
0.0520933
-0.0075365
-0.0517159
0.0497832
-0.00147327
0.0488953
-0.00110195
0.0505361
-0.000533963
0.0519367
4.28481e-06
0.052985
-0.000295268
0.0531226
-0.000238526
0.0528314
0.000106135
0.0523303
9.16814e-05
0.0518247
-0.000100742
0.0514392
-0.000287997
0.0511115
-0.000744619
0.0508564
-0.00118907
0.0506973
-0.00173114
0.0506875
-0.00210093
0.0507346
-0.00228553
0.0508475
-0.00251956
0.0509432
-0.0022493
0.0510047
-0.0015584
0.0510927
-0.00056001
0.0509416
0.000499481
0.0507688
0.00115107
0.0505731
0.0018513
0.0503228
0.00259092
0.0501024
0.00273638
0.0499853
0.0024565
0.0500171
0.00199745
0.050188
0.00139265
0.0504761
0.000817415
0.0508211
0.00045532
0.0512489
-0.000170879
0.0517393
-0.000200765
0.0523001
-0.000853038
0.0533793
-0.00175266
0.0543661
-0.00126159
0.0556649
-0.00243471
0.0553648
-0.000594806
0.0544215
-0.00101055
0.0529763
0.00258943
-0.00260831
0.0514988
0.0519463
-0.006213
-0.0532698
0.0496292
0.000843864
0.0480217
0.000505496
0.0461595
0.00132832
0.0438876
0.0022761
0.0422888
0.00130356
0.0417161
0.000334144
0.041849
-2.67109e-05
0.0422553
-0.000314585
0.0428031
-0.000648587
0.0434961
-0.000980957
0.0444032
-0.00165175
0.0454048
-0.0021907
0.0464605
-0.00278683
0.0474406
-0.00308103
0.0483596
-0.00320453
0.0492006
-0.00336052
0.0499137
-0.00296247
0.0504672
-0.00211188
0.0506224
-0.000715233
0.0506239
0.000498027
0.0505034
0.00127158
0.0501007
0.00225402
0.0494744
0.00321718
0.0486414
0.00356935
0.0477297
0.00336827
0.046741
0.0029861
0.045736
0.00239769
0.0448185
0.0017349
0.0439952
0.0012786
0.0433056
0.000518714
0.0427726
0.000332193
0.0420402
-0.000120555
0.0412589
-0.000971376
0.0409877
-0.000990432
0.0404736
-0.00192059
0.0415188
-0.00164003
0.0433023
-0.00279401
0.0458722
1.95165e-05
-0.00427665
0.0475406
0.0511562
-0.004161
-0.0532082
0.0494035
0.00259657
0.0483817
0.00152726
0.0485658
0.00114418
0.0499019
0.000939986
0.0511056
9.99437e-05
0.0518865
-0.000446816
0.0520382
-0.000178377
0.0518608
-0.000137205
0.0515962
-0.000383958
0.0513359
-0.000720684
0.0510351
-0.00135099
0.0507982
-0.00195371
0.0506361
-0.00262474
0.0506382
-0.00308315
0.0507062
-0.00327255
0.050798
-0.00345228
0.0508796
-0.00304405
0.0509701
-0.00220239
0.0510541
-0.000799308
0.0509843
0.000567883
0.0508033
0.00145259
0.0506059
0.00245144
0.0503459
0.00347712
0.0501116
0.00380372
0.0499567
0.0035231
0.0499703
0.0029725
0.0501428
0.00222522
0.0504159
0.00146177
0.0508011
0.000893384
0.0510795
0.000240305
0.0515164
-0.000104674
0.0518283
-0.000432452
0.0526124
-0.00175552
0.0532655
-0.0016435
0.0536027
-0.00225773
0.0526191
-0.000656468
0.0516853
-0.00186023
0.0506597
0.00104515
-0.00361922
0.0500022
0.0506802
-0.00203573
-0.0528054
0.0492521
0.00402461
0.0483012
0.00247822
0.0476815
0.00176387
0.0467228
0.0018987
0.0451252
0.00169752
0.0439448
0.000733621
0.0435892
0.000177144
0.0436436
-0.000191529
0.0438605
-0.000600856
0.0444583
-0.00131854
0.0453647
-0.00225735
0.0463459
-0.00293494
0.0473268
-0.00360559
0.0482413
-0.00399773
0.0490259
-0.00405706
0.0497151
-0.00414152
0.0502922
-0.00362114
0.0507646
-0.00267486
0.0508754
-0.000910034
0.0508624
0.000580882
0.050796
0.00151895
0.0504921
0.00275536
0.0500119
0.00395732
0.0493757
0.00443986
0.0485986
0.0043002
0.0477108
0.00386034
0.0467276
0.00320847
0.0457732
0.00241617
0.0449067
0.00175981
0.0442361
0.00091094
0.0437929
0.000338525
0.0433827
-2.22708e-05
0.0428001
-0.00117294
0.0428426
-0.00168593
0.0430309
-0.00244603
0.04449
-0.00211556
0.0459007
-0.00327101
0.0479216
-0.000975722
-0.00442778
0.0487302
0.0501783
-0.000220018
-0.051994
0.0492484
0.00495452
0.0485144
0.00321223
0.0481317
0.00214659
0.0483544
0.001676
0.0493745
0.000677375
0.0503587
-0.000250484
0.0509262
-0.000390369
0.0510708
-0.000336196
0.0511629
-0.000692903
0.0510499
-0.00120556
0.0507946
-0.002002
0.0506103
-0.00275071
0.0504998
-0.00349508
0.0505202
-0.00401818
0.0506522
-0.00418905
0.0507689
-0.00425818
0.050889
-0.0037412
0.0510048
-0.0027907
0.0511174
-0.00102265
0.0511039
0.000594384
0.0509395
0.00168342
0.0507001
0.00299476
0.050424
0.00423338
0.0501421
0.00472181
0.0499232
0.0045191
0.0498451
0.00393839
0.0499583
0.00309527
0.0502269
0.00214758
0.0505848
0.00140188
0.0508212
0.000674575
0.051089
7.07101e-05
0.0511568
-9.0106e-05
0.0514074
-0.00142349
0.0513515
-0.00163007
0.0512779
-0.00237238
0.0503143
-0.001152
0.0496656
-0.00262233
0.0494797
-0.000789731
-0.00434399
0.0493959
0.0499445
0.00119147
-0.051356
0.0492384
0.00566063
0.0484673
0.0039834
0.0482105
0.00240335
0.0480602
0.00182627
0.0474352
0.00130243
0.0461649
0.00101977
0.0453574
0.000417095
0.0450981
-7.68193e-05
0.0452104
-0.000805227
0.0457211
-0.00171626
0.0465074
-0.00278836
0.0474206
-0.00366382
0.0482907
-0.00436524
0.049078
-0.00480544
0.0497302
-0.00484124
0.0502672
-0.00479526
0.0506643
-0.00413821
0.0510318
-0.00315827
0.0511423
-0.0011331
0.0511368
0.000599852
0.0510595
0.00176076
0.0508159
0.00323836
0.050465
0.00458425
0.0500356
0.00515123
0.0494682
0.00508647
0.0487444
0.00466215
0.0478593
0.00398038
0.0469291
0.00307784
0.046018
0.00231292
0.0453136
0.00137898
0.0450429
0.000341439
0.0449785
-2.57224e-05
0.0447941
-0.00123906
0.0450214
-0.0018574
0.0454692
-0.00282017
0.0467408
-0.00242361
0.0475275
-0.003409
0.0486547
-0.00191694
-0.00474755
0.0490583
0.0497805
0.00231141
-0.0509004
0.0492376
0.00620347
0.0487454
0.00447566
0.0483807
0.002768
0.0482045
0.00200251
0.0482968
0.00121013
0.0490054
0.000311134
0.0498091
-0.000386557
0.050329
-0.000596696
0.0505984
-0.00107466
0.0506153
-0.00173316
0.0504786
-0.00265166
0.0503778
-0.00356306
0.0503441
-0.0043315
0.0504295
-0.00489085
0.0506279
-0.00503968
0.0508042
-0.00497155
0.0509873
-0.00432125
0.0511395
-0.00331047
0.051272
-0.00126565
0.0512828
0.000589107
0.0512034
0.00184013
0.0509571
0.00348464
0.0506284
0.00491294
0.0502718
0.00550787
0.0499545
0.00540373
0.0497867
0.00482996
0.0497893
0.00397777
0.0499705
0.00289668
0.0503196
0.00196379
0.0505291
0.00116943
0.050545
0.000325536
0.0503194
0.000199893
0.0501287
-0.00104836
0.0497054
-0.00143406
0.0494115
-0.00252626
0.0489931
-0.00200528
0.0487976
-0.00321349
0.0490462
-0.00216552
-0.00489545
0.0491941
0.0497028
0.00318143
-0.0505729
0.0493074
0.00659894
0.0488536
0.00492941
0.0484713
0.00315032
0.0484716
0.0020022
0.0483585
0.00132328
0.0478215
0.00084807
0.0469673
0.000467731
0.0465209
-0.000150376
0.0466455
-0.00119924
0.0470691
-0.00215676
0.0477704
-0.00335299
0.0485512
-0.00434384
0.0492497
-0.00502997
0.049868
-0.00550916
0.0503763
-0.00554802
0.0507683
-0.00536349
0.0510407
-0.00459372
0.0512757
-0.00354538
0.0514033
-0.00139328
0.0514099
0.000582486
0.0513608
0.00188923
0.0511316
0.00371384
0.0508008
0.00524371
0.0504763
0.00583237
0.0500954
0.0057847
0.0496345
0.00529083
0.0489739
0.00463838
0.0481437
0.00372686
0.0472956
0.00281194
0.0465505
0.00191449
0.0463701
0.000505895
0.0465622
7.79973e-06
0.0466631
-0.00114926
0.0469444
-0.00171531
0.0472772
-0.00285905
0.0479359
-0.002664
0.0483439
-0.00362152
0.0489011
-0.00272267
-0.00512616
0.0491318
0.0496785
0.00384509
-0.0503421
0.049368
0.00690944
0.0489513
0.00534609
0.0486148
0.00348686
0.0484939
0.00212302
0.0484336
0.00138358
0.0484679
0.000813797
0.049072
-0.000136302
0.049746
-0.000824453
0.0500602
-0.00151343
0.0502199
-0.00231649
0.0502036
-0.00333662
0.0502147
-0.00435501
0.050293
-0.00510824
0.0504752
-0.00569133
0.0507684
-0.00584125
0.0510143
-0.00560937
0.0512288
-0.00480818
0.0514119
-0.00372851
0.0515305
-0.0015119
0.0515611
0.000551843
0.0515161
0.00193425
0.0513016
0.00392841
0.0510069
0.00553842
0.0506637
0.0061755
0.0503026
0.00614581
0.049954
0.00563942
0.0497779
0.0048145
0.0498081
0.00369667
0.0500251
0.0025949
0.0502484
0.00169127
0.0500726
0.000681613
0.0496101
0.000470295
0.0492651
-0.000804246
0.0488187
-0.0012689
0.0485617
-0.00260199
0.0485752
-0.00267753
0.0486493
-0.00369561
0.049027
-0.00310038
-0.0052972
0.049198
0.0497038
0.00435622
-0.0502149
0.0494536
0.00715966
0.0491028
0.00569689
0.0488136
0.00377604
0.0486349
0.00230172
0.0485562
0.00146225
0.0485947
0.000775364
0.0482365
0.000221831
0.0479302
-0.000518134
0.0479953
-0.00157848
0.0484246
-0.00274576
0.0489979
-0.00390993
0.0495789
-0.00493607
0.0500719
-0.00560117
0.0505074
-0.00612687
0.0508929
-0.00622679
0.0511881
-0.0059045
0.051381
-0.00500114
0.0515603
-0.00390777
0.0516682
-0.00161986
0.0517308
0.000489241
0.0516729
0.0019922
0.0515017
0.0040996
0.0512136
0.00582654
0.0508975
0.0064916
0.0505493
0.00649395
0.0502198
0.00596893
0.0498406
0.00519376
0.0492632
0.00427406
0.0485515
0.00330657
0.047857
0.00238581
0.0476717
0.000866858
0.0479206
0.000221403
0.0480301
-0.000913698
0.0481851
-0.00142392
0.0482902
-0.00270708
0.0485046
-0.00289194
0.0486993
-0.00389028
0.0490582
-0.00345928
-0.00545873
0.0492197
0.0497422
0.00475261
-0.0501386
0.0495645
0.00733744
0.0492667
0.00599465
0.0489627
0.00407999
0.0488197
0.00244472
0.0487676
0.00151438
0.0487353
0.000807624
0.048969
-1.18404e-05
0.0494194
-0.000968488
0.0497816
-0.00194075
0.0500035
-0.00296766
0.050115
-0.00402142
0.050261
-0.00508201
0.0504975
-0.00583769
0.0508074
-0.00643681
0.0511416
-0.00656101
0.0513839
-0.00614675
0.0515893
-0.0052065
0.0517201
-0.00403866
0.0518465
-0.00174616
0.0519158
0.000419905
0.051869
0.00203899
0.0517032
0.00426545
0.0514525
0.00607724
0.051137
0.00680709
0.0507983
0.00683266
0.0504522
0.00631495
0.0501277
0.00551835
0.0498873
0.0045144
0.0499199
0.00327403
0.0499897
0.00231598
0.0497792
0.00107728
0.0493502
0.000650469
0.049069
-0.00063251
0.0488259
-0.00118078
0.0486371
-0.00251832
0.0487089
-0.00296374
0.0488569
-0.0040383
0.0491571
-0.00375946
-0.00559391
0.0492923
0.0498104
0.00506783
-0.0501256
0.0496726
0.00747521
0.0494284
0.00623888
0.0491886
0.00431982
0.0490513
0.002582
0.0489637
0.00160194
0.0489788
0.000792516
0.0490324
-6.53837e-05
0.0491155
-0.00105159
0.0492891
-0.00211438
0.0496072
-0.00328578
0.0499896
-0.0044038
0.0503793
-0.00547169
0.0507154
-0.00617381
0.0510445
-0.00676593
0.0513923
-0.00690876
0.0516129
-0.00636733
0.051809
-0.00540265
0.0519288
-0.00415841
0.0520425
-0.00185985
0.0521112
0.000351128
0.0520429
0.00210736
0.0519207
0.0043876
0.0517119
0.00628608
0.0514218
0.0070972
0.0511105
0.00714396
0.0507531
0.00667234
0.0504408
0.00583063
0.0500965
0.0048587
0.0496713
0.00369929
0.0491393
0.00284793
0.048903
0.00131357
0.0489419
0.000611612
0.0489359
-0.000626568
0.0489668
-0.00121168
0.0489069
-0.00245843
0.0488946
-0.00295139
0.0489824
-0.00412609
0.0492455
-0.00402262
-0.00571113
0.0493627
0.0498653
0.00533354
-0.050131
0.0497897
0.00755082
0.0496013
0.00642723
0.0493914
0.00452975
0.0492623
0.00271115
0.0492258
0.00163845
0.0492566
0.000761695
0.0493889
-0.000197676
0.0496156
-0.00127836
0.0498814
-0.00238019
0.0501642
-0.00356855
0.0504247
-0.00466433
0.050726
-0.00577293
0.0510197
-0.00646748
0.0513216
-0.0070679
0.0516494
-0.00723651
0.0518536
-0.00657153
0.0520371
-0.0055862
0.0521566
-0.00427793
0.0522598
-0.00196305
0.0522954
0.000315611
0.0522323
0.00217045
0.0521278
0.00449211
0.0519405
0.00647332
0.0516807
0.00735704
0.0513885
0.0074361
0.0510579
0.00700302
0.0507442
0.00614424
0.0504346
0.00516837
0.0501556
0.00397829
0.0500233
0.00298016
0.0497723
0.00156463
0.0495327
0.000851189
0.0493675
-0.000461413
0.0492538
-0.00109795
0.04919
-0.00239467
0.0491663
-0.00292768
0.0492021
-0.00416185
0.0493886
-0.00420914
-0.00579525
0.0494727
0.0499362
0.00554829
-0.050151
0.0499126
0.00757444
0.0497907
0.00654913
0.0496139
0.00470651
0.0494944
0.00283067
0.0494388
0.00169402
0.0495087
0.000691781
0.0496809
-0.000369839
0.0498812
-0.00147861
0.0501425
-0.00264151
0.0504229
-0.00384895
0.0507122
-0.00495369
0.0510194
-0.00608013
0.0513421
-0.00679013
0.0516437
-0.00736954
0.0519298
-0.00752263
0.0521439
-0.00678557
0.0522808
-0.00572316
0.0524106
-0.00440768
0.0525243
-0.00207682
0.0525
0.000339955
0.0524219
0.00224854
0.0523647
0.00454928
0.0522107
0.00662733
0.0520105
0.00755727
0.0517255
0.00772112
0.0513894
0.00733907
0.0510748
0.00645887
0.0507719
0.00547127
0.0504639
0.00428633
0.050183
0.00326105
0.0498951
0.0018525
0.0497159
0.0010304
0.0495965
-0.000341979
0.0495244
-0.00102586
0.0494586
-0.00232884
0.049452
-0.00292108
0.0494599
-0.00416977
0.0496013
-0.00435061
-0.00583925
0.0496453
0.0500518
0.00570969
-0.0502132
0.0500855
0.00754078
0.0500156
0.00661903
0.0498532
0.00486888
0.049732
0.00295194
0.0497257
0.00170023
0.0498135
0.000604006
0.0500129
-0.000569177
0.050243
-0.0017088
0.0504981
-0.00289654
0.0507703
-0.00412121
0.051072
-0.00525531
0.0513709
-0.00637906
0.0516873
-0.00710653
0.0519844
-0.00766667
0.0522353
-0.00777346
0.0524662
-0.0070165
0.0525974
-0.00585439
0.0527115
-0.00452172
0.052799
-0.00216435
0.0527849
0.000354041
0.0527109
0.00232251
0.0526383
0.00462188
0.0525145
0.00675116
0.0523479
0.00772385
0.0520642
0.00800483
0.051754
0.00764933
0.0514585
0.00675436
0.051169
0.00576075
0.0508598
0.00459548
0.0505664
0.00355448
0.0503204
0.0020985
0.0500877
0.00126306
0.0499288
-0.000183043
0.0498275
-0.000924574
0.0497595
-0.00226087
0.0497425
-0.00290403
0.0497183
-0.00414562
0.0498194
-0.00445163
-0.00586081
0.0498409
0.0501848
0.00584779
-0.0503229
0.0502661
0.00745949
0.0502072
0.00667792
0.050081
0.00499514
0.050037
0.00299596
0.0500518
0.0016854
0.0501595
0.000496294
0.0503587
-0.000768357
0.050584
-0.00193413
0.0508453
-0.00315788
0.0511359
-0.00441175
0.051451
-0.00557038
0.0517262
-0.00665434
0.0520639
-0.0074442
0.0523461
-0.00794893
0.0525786
-0.00800592
0.0527895
-0.00722742
0.0529364
-0.00600124
0.0530304
-0.00461572
0.0531108
-0.00224481
0.0530886
0.000376257
0.0530255
0.00238564
0.0529398
0.0047076
0.0528658
0.00682517
0.0527156
0.00787402
0.0524723
0.00824812
0.0521228
0.00799886
0.0518035
0.00707358
0.0515144
0.00604988
0.0512416
0.00486827
0.0509489
0.00384718
0.0506885
0.00235893
0.0504499
0.00150161
0.0502649
2.0205e-06
0.0501331
-0.000792767
0.0500592
-0.00218695
0.050045
-0.00288988
0.0500435
-0.00414413
0.0501023
-0.00451039
-0.00584612
0.0500876
0.0503418
0.00599334
-0.0504874
0.05044
0.00736133
0.0504232
0.00669475
0.0503757
0.00504255
0.0503508
0.00302092
0.0503719
0.00166427
0.0505341
0.00033412
0.0507345
-0.000968807
0.0509892
-0.00218881
0.0512663
-0.00343492
0.0515592
-0.00470471
0.0518719
-0.00588304
0.0521541
-0.00693657
0.0524702
-0.00776024
0.0527494
-0.00822813
0.0529653
-0.00822187
0.053184
-0.00744607
0.0533153
-0.00613261
0.053396
-0.00469637
0.0534932
-0.00234205
0.0534794
0.000390045
0.0533989
0.00246616
0.0533218
0.00478472
0.0532395
0.00690744
0.0531191
0.00799445
0.0529067
0.00846049
0.0525981
0.0083075
0.0522454
0.00742627
0.0519277
0.0063676
0.0516583
0.00513761
0.0514076
0.00409789
0.0511349
0.00263162
0.0509026
0.00173394
0.05069
0.000214596
0.0505259
-0.000628651
0.0504149
-0.00207593
0.050359
-0.00283396
0.0503475
-0.00413262
0.0504125
-0.00457538
-0.00582562
0.050392
0.0505285
0.00609218
-0.0506274
0.0506566
0.00723328
0.0507029
0.00664838
0.050707
0.00503847
0.0507046
0.00302333
0.0508279
0.00154102
0.0509984
0.000163578
0.0511815
-0.00115188
0.0514222
-0.00242948
0.051705
-0.00371779
0.0519973
-0.00499702
0.0523134
-0.0061991
0.052615
-0.00723814
0.0529087
-0.00805395
0.0531834
-0.00850283
0.0533922
-0.00843073
0.0535686
-0.0076224
0.0537338
-0.00629785
0.0538055
-0.0047681
0.0538913
-0.00242783
0.0538863
0.000395013
0.0537574
0.00259511
0.0537178
0.00482432
0.0536568
0.00696846
0.0535329
0.00811828
0.0534006
0.00859278
0.0531404
0.00856771
0.0527271
0.00783959
0.0523518
0.00674287
0.0520508
0.00543865
0.0518108
0.00433788
0.0515411
0.00290129
0.0513078
0.00196727
0.0510975
0.00042488
0.0509118
-0.000442868
0.0507905
-0.00195471
0.0507082
-0.00275165
0.0506823
-0.00410669
0.0507433
-0.00463636
-0.00582268
0.0507403
0.0507966
0.00612913
-0.0508335
0.0509576
0.00707224
0.0510733
0.00653275
0.0511113
0.00500041
0.0511915
0.00294313
0.0513279
0.00140467
0.0514485
4.29406e-05
0.0516278
-0.00133119
0.0518901
-0.00269176
0.0521949
-0.00402261
0.0525022
-0.00530426
0.0528081
-0.00650503
0.0531093
-0.00753933
0.0534087
-0.00835334
0.0536645
-0.00875866
0.0538699
-0.00863611
0.0540519
-0.00780442
0.0541998
-0.00644578
0.0542424
-0.00481064
0.0543157
-0.00250112
0.054351
0.000359646
0.054198
0.00274812
0.0541454
0.00487696
0.0541524
0.00696141
0.054002
0.0082687
0.0538784
0.00871641
0.0537222
0.00872389
0.0533847
0.00817708
0.0529743
0.00715334
0.0526318
0.00578108
0.0523497
0.00461999
0.0520986
0.00315243
0.0518625
0.00220339
0.0516261
0.000661263
0.0514106
-0.000227355
0.051223
-0.00176711
0.0511181
-0.00264681
0.0510529
-0.0040415
0.0510746
-0.00465797
-0.00583448
0.0510864
0.0511653
0.00607904
-0.0511152
0.0513796
0.00685792
0.0515607
0.00635163
0.0516998
0.00486134
0.0517371
0.00290584
0.0518553
0.00128651
0.0520065
-0.000108278
0.0521966
-0.00152133
0.0524319
-0.00292702
0.052715
-0.00430575
0.0530274
-0.00561665
0.0533209
-0.00679849
0.0536155
-0.00783391
0.0539034
-0.00864127
0.0541713
-0.0090266
0.0543848
-0.00884963
0.0545647
-0.00798431
0.0547013
-0.00658235
0.054721
-0.00483031
0.0547785
-0.00255867
0.0548635
0.00027465
0.0547338
0.0028778
0.0546228
0.00498796
0.0546794
0.00690479
0.0545794
0.00836876
0.0543978
0.00889797
0.0542853
0.00883645
0.0540829
0.00837949
0.0536647
0.00757149
0.0532166
0.00622916
0.052832
0.00500463
0.0525272
0.00345723
0.0523063
0.00242426
0.0520943
0.000873326
0.0518887
-2.174e-05
0.0517058
-0.0015843
0.0515451
-0.00248603
0.0514315
-0.00392796
0.051416
-0.00464246
-0.00585174
0.0514333
0.0516
0.00597376
-0.0514947
0.0518741
0.00658375
0.0520901
0.0061357
0.052241
0.00471044
0.052308
0.00283883
0.0524091
0.00118534
0.0525704
-0.000269528
0.0527684
-0.00171934
0.0530783
-0.00323692
0.0533667
-0.00459414
0.0536377
-0.00588766
0.0539319
-0.00709273
0.0542566
-0.00815861
0.0545595
-0.0089441
0.0548045
-0.0092716
0.0549881
-0.00903331
0.0551951
-0.00819126
0.0552972
-0.00668446
0.0552523
-0.00478544
0.055316
-0.00262234
0.05541
0.000180623
0.0553508
0.00293704
0.055247
0.00509175
0.0552178
0.00693398
0.0551984
0.00838821
0.0550807
0.00901565
0.0548999
0.00901717
0.0547359
0.00854358
0.0544995
0.00780784
0.0541346
0.00659402
0.0537
0.00543926
0.053299
0.00385826
0.0529509
0.00277229
0.0526811
0.00114318
0.0524589
0.000200414
0.0522607
-0.0013861
0.0520795
-0.00230474
0.0519414
-0.00378995
0.0518488
-0.00454977
-0.00582357
0.0518206
0.0520671
0.00582136
-0.0519147
0.0524062
0.00624472
0.0527296
0.00581224
0.0529127
0.00452739
0.0530572
0.00269429
0.0531229
0.00111966
0.0532776
-0.000424263
0.0534877
-0.00192938
0.0537036
-0.00345285
0.0539509
-0.00484143
0.0542881
-0.00622482
0.0546444
-0.00744911
0.0549499
-0.00846409
0.0552198
-0.00921401
0.0554834
-0.00953521
0.0556356
-0.00918543
0.0558243
-0.00838001
0.055935
-0.00679517
0.0558853
-0.00473569
0.0559161
-0.00265315
0.056054
4.26839e-05
0.0560291
0.002962
0.0559344
0.00518645
0.0558511
0.00701725
0.0558248
0.00841453
0.0557609
0.00907956
0.0556334
0.00914465
0.055465
0.00871199
0.0552251
0.00804767
0.0549465
0.00687262
0.0545378
0.00584798
0.0541575
0.00423854
0.0537939
0.00313592
0.0534451
0.00149201
0.0531206
0.000524929
0.0528391
-0.00110462
0.052611
-0.00207665
0.0524425
-0.00362145
0.0523345
-0.00444172
-0.00578158
0.0522925
0.0526337
0.005588
-0.0524003
0.0530589
0.00581949
0.0534896
0.00538152
0.0537908
0.00422617
0.0540189
0.00246626
0.0539425
0.00119603
0.0540102
-0.000491983
0.0542643
-0.00218343
0.0544706
-0.00365922
0.0547697
-0.00514048
0.0551002
-0.00655538
0.0554279
-0.00777674
0.0557379
-0.00877413
0.0559912
-0.00946733
0.0562649
-0.00980886
0.0564016
-0.0093222
0.0565509
-0.00852931
0.0566786
-0.00692286
0.0566035
-0.00466058
0.0565992
-0.00264886
0.0567638
-0.000121884
0.0568472
0.00287856
0.0567542
0.00527949
0.0565986
0.00717289
0.056512
0.00850108
0.0564747
0.00911687
0.0563887
0.00923067
0.0562844
0.00881624
0.0560755
0.00825658
0.0558563
0.00709182
0.0554967
0.00620762
0.0550946
0.00464062
0.0547103
0.00352024
0.05437
0.00183233
0.054052
0.000842891
0.0537114
-0.000764055
0.0533935
-0.0017587
0.0531057
-0.0033337
0.0528946
-0.00423056
-0.00568024
0.0527932
0.0533813
0.00529427
-0.0530875
0.0538422
0.00535857
0.0542884
0.00493526
0.0546437
0.00387087
0.054931
0.00217899
0.0551171
0.0010099
0.0551307
-0.000505509
0.0551602
-0.00221293
0.055458
-0.00395708
0.0557761
-0.00545855
0.0560597
-0.00683898
0.0563519
-0.00806894
0.0566828
-0.00910501
0.056917
-0.00970157
0.0571204
-0.0100123
0.0572652
-0.00946696
0.0573433
-0.00860738
0.0574501
-0.00702973
0.0574857
-0.00469612
0.0573897
-0.00255291
0.0574513
-0.000183424
0.0576936
0.00263624
0.0577448
0.00522825
0.0576439
0.00727381
0.0575195
0.00862547
0.0574466
0.00918984
0.0573428
0.00933446
0.0572531
0.00890589
0.0570757
0.00843401
0.0568556
0.00731188
0.0565662
0.0064971
0.0561956
0.00501122
0.055786
0.00392984
0.0553528
0.0022655
0.0549723
0.00122335
0.0545975
-0.000389194
0.054274
-0.00143521
0.0539771
-0.00303679
0.0536802
-0.00393365
-0.00547923
0.0534792
0.0541939
0.0049951
-0.0538948
0.0546458
0.00490669
0.0551177
0.00446343
0.0555273
0.0034612
0.0558331
0.00187317
0.0561435
0.000699539
0.0563287
-0.000690658
0.0564821
-0.00236636
0.0565703
-0.00404528
0.0568031
-0.00569138
0.0570934
-0.00712924
0.0574031
-0.00837863
0.0577311
-0.00943304
0.0579803
-0.00995081
0.0581326
-0.0101646
0.0582864
-0.0096208
0.0582906
-0.0086115
0.0583034
-0.00704259
0.0584351
-0.00482775
0.058355
-0.00247289
0.0582723
-0.000100689
0.0584896
0.00241889
0.0587318
0.00498604
0.0588567
0.00714899
0.0588328
0.00864936
0.0587296
0.00929302
0.0585948
0.00946929
0.0584634
0.00903729
0.0582803
0.00861703
0.0580685
0.00752368
0.0577813
0.00678439
0.0574432
0.0053493
0.0570557
0.0043173
0.0566135
0.00270771
0.0561689
0.001668
0.055729
5.067e-05
0.0553156
-0.00102183
0.0549626
-0.00268376
0.0546308
-0.00360186
-0.0052218
0.0543734
0.0550634
0.00467166
-0.0547399
0.0555857
0.00438441
0.0561024
0.00394673
0.0565669
0.00299666
0.0569494
0.00149069
0.0572761
0.000372819
0.0575453
-0.000959826
0.0578232
-0.00264431
0.0580831
-0.00430519
0.0581359
-0.00574411
0.0584236
-0.00741692
0.0587332
-0.00868826
0.0589727
-0.00967258
0.0591526
-0.0101307
0.0592198
-0.0102317
0.0593269
-0.00972784
0.0593492
-0.0086338
0.0592946
-0.00698803
0.0594151
-0.00494827
0.0594292
-0.002487
0.0593284
1.21636e-07
0.0594672
0.00228011
0.0598028
0.00465047
0.0600626
0.00688919
0.0601388
0.00857318
0.060068
0.00936378
0.0599286
0.00960864
0.0598037
0.0091622
0.0596788
0.00874195
0.0594872
0.00771528
0.0592325
0.0070391
0.0589335
0.0056483
0.0585464
0.00470436
0.0581134
0.00314079
0.0576718
0.00210961
0.0572143
0.000508164
0.0567292
-0.000536774
0.0562961
-0.00225063
0.0558688
-0.00317459
-0.00489729
0.0555443
0.0562223
0.00438776
-0.0559384
0.0567369
0.0038698
0.0572977
0.00338601
0.0577708
0.00252353
0.0582035
0.00105795
0.0586203
-4.3943e-05
0.0589977
-0.0013372
0.0593411
-0.00298775
0.0596491
-0.00461317
0.0599339
-0.00602892
0.0600214
-0.00750444
0.0602437
-0.00891058
0.0604152
-0.00984408
0.0605465
-0.010262
0.0605523
-0.0102375
0.0605785
-0.00975401
0.0605658
-0.00862114
0.0605325
-0.00695469
0.0605523
-0.00496815
0.0606338
-0.00256844
0.0606269
6.97646e-06
0.0606687
0.0022383
0.0609275
0.00439171
0.0613546
0.00646208
0.0616651
0.00826265
0.0617289
0.00929999
0.0616456
0.00969193
0.0614851
0.00932269
0.0613378
0.00888929
0.0611781
0.00787499
0.060987
0.00723014
0.0607021
0.00593322
0.0603382
0.00506829
0.0599203
0.00355874
0.0594558
0.00257409
0.0589628
0.00100117
0.0584337
-7.71252e-06
0.0579095
-0.0017264
0.0574241
-0.00268924
-0.00449543
0.0570223
0.0574952
0.00413
-0.0572374
0.0580237
0.00334122
0.0586474
0.00276232
0.0592112
0.00195978
0.0597211
0.000548056
0.0603279
-0.00065078
0.0608208
-0.00183007
0.0611817
-0.00334868
0.0615307
-0.00496217
0.0618898
-0.00638797
0.0621181
-0.00773277
0.0621138
-0.00890632
0.0621382
-0.00986844
0.0621926
-0.0103164
0.0621244
-0.0101693
0.0619772
-0.00960683
0.0618619
-0.00850587
0.0618186
-0.00691131
0.061789
-0.00493857
0.0618646
-0.00264403
0.0620018
-0.00013029
0.0621234
0.00211671
0.0623175
0.00419764
0.0626923
0.00608728
0.0632233
0.00773164
0.0636624
0.0088609
0.0638292
0.00952511
0.0637954
0.00935651
0.0636194
0.00906527
0.0633829
0.00811156
0.0631444
0.00746863
0.0628407
0.00623684
0.062475
0.00543403
0.0620503
0.00398339
0.0615951
0.00302931
0.0611001
0.00149614
0.0605234
0.000569019
0.0599398
-0.00114276
0.0593501
-0.00209961
-0.00396483
0.0588195
0.059027
0.00395204
-0.058849
0.0595178
0.00285038
0.0601759
0.0021042
0.0608379
0.00129777
0.0615574
-0.000171369
0.0623909
-0.00148432
0.0630606
-0.00249979
0.0635452
-0.00383328
0.063944
-0.00536098
0.0643004
-0.00674432
0.0644979
-0.00793027
0.0645472
-0.00895566
0.0643596
-0.00968084
0.0641607
-0.0101175
0.0640027
-0.0100113
0.0637659
-0.00937009
0.0635106
-0.00825052
0.063344
-0.00674474
0.0633065
-0.0049011
0.0633817
-0.00271922
0.0635389
-0.000287448
0.0637994
0.00185616
0.0640602
0.00393685
0.0644186
0.00572885
0.0649272
0.00722307
0.0655553
0.00823283
0.0660934
0.00898695
0.0664315
0.0090184
0.0665332
0.00896359
0.066467
0.0081778
0.066276
0.00765959
0.066001
0.00651187
0.0656442
0.00579083
0.0651736
0.00445395
0.0646254
0.00357757
0.064067
0.00205452
0.06345
0.00118598
0.0627752
-0.00046793
0.0620321
-0.00135648
-0.00322811
0.0612954
0.0617064
0.00342146
-0.0611759
0.0623499
0.00220693
0.0631064
0.00134764
0.0637885
0.000615724
0.064383
-0.000765884
0.0652334
-0.00233469
0.0660501
-0.00331653
0.0666429
-0.00442603
0.0670111
-0.00572924
0.0672935
-0.00702666
0.0673993
-0.00803608
0.067329
-0.00888536
0.0671082
-0.00946003
0.0667016
-0.00971094
0.0663077
-0.00961734
0.0659617
-0.00902409
0.0656368
-0.00792561
0.0653461
-0.00645406
0.0651141
-0.00466913
0.0651925
-0.00279755
0.0654342
-0.000529237
0.0656927
0.00159768
0.0660811
0.00354847
0.0665791
0.00523087
0.0670676
0.00673457
0.0676345
0.0076659
0.0681454
0.00847602
0.0685916