/*--------------------------------*- C++ -*----------------------------------*\
  =========                 |
  \\      /  F ield         | OpenFOAM: The Open Source CFD Toolbox
   \\    /   O peration     | Website:  https://openfoam.org
    \\  /    A nd           | Version:  11
     \\/     M anipulation  |
\*---------------------------------------------------------------------------*/
FoamFile
{
    format      ascii;
    class       volVectorField;
    location    "0.5";
    object      U;
}
// * * * * * * * * * * * * * * * * * * * * * * * * * * * * * * * * * * * * * //

dimensions      [0 1 -1 0 0 0 0];

internalField   nonuniform List<vector> 
9600
(
(0.867704 0.00670212 -6.05701e-22)
(0.786033 -0.0325937 0)
(0.800349 -0.068513 0)
(0.86112 -0.108312 2.42775e-23)
(0.905842 -0.112092 0)
(0.938129 -0.107481 6.72602e-25)
(0.96019 -0.100653 1.27119e-22)
(0.973171 -0.0966731 -1.27768e-22)
(0.983638 -0.0902848 5.9512e-22)
(0.993732 -0.0850019 -5.97758e-22)
(1.00231 -0.0808978 0)
(1.01101 -0.0771405 1.38617e-21)
(1.02075 -0.073102 -1.41754e-21)
(1.03254 -0.0692329 3.3416e-23)
(1.0463 -0.0645804 -1.43907e-21)
(1.06051 -0.0591848 1.42118e-21)
(1.07507 -0.0536535 0)
(1.08796 -0.0459773 1.22409e-21)
(1.09685 -0.0372483 -1.22521e-21)
(1.10271 -0.0267906 5.60231e-24)
(1.10403 -0.0174215 -5.86972e-24)
(1.09909 -0.00717964 -1.46718e-21)
(1.09048 0.00355837 1.47765e-21)
(1.07982 0.0146261 0)
(1.06617 0.0242568 0)
(1.0515 0.0322431 -1.8494e-21)
(1.03802 0.0391836 3.22961e-22)
(1.0261 0.0449341 1.59332e-21)
(1.01638 0.0496881 -3.59024e-23)
(1.00929 0.0544285 2.96083e-23)
(1.0022 0.0588272 0)
(0.998184 0.0630366 -1.34881e-21)
(0.994923 0.0711674 1.31871e-21)
(0.989296 0.0741994 1.20484e-21)
(0.987586 0.0807315 -1.2007e-21)
(0.984747 0.0849914 -3.63253e-23)
(0.9809 0.0919519 0)
(0.974238 0.0970522 -3.47917e-21)
(0.960023 0.115176 3.48174e-21)
(0.873792 0.095827 -5.36543e-23)
(0.893978 0.00180614 3.94231e-23)
(0.883575 -0.000333438 0)
(0.929599 0.0245471 0)
(0.967586 0.0732809 -7.39756e-23)
(0.970896 0.0968078 2.97943e-22)
(0.970529 0.102635 -7.70379e-22)
(0.970916 0.098717 4.7906e-22)
(0.974857 0.095565 1.30261e-23)
(0.982319 0.0899329 2.01363e-23)
(0.988871 0.0843317 0)
(0.995242 0.0802102 3.43332e-23)
(1.00307 0.0761483 1.78951e-21)
(1.01177 0.0717035 -2.78757e-21)
(1.02254 0.0669586 1.06625e-21)
(1.03505 0.0618403 2.12893e-23)
(1.0478 0.0558665 0)
(1.06189 0.0492534 1.07322e-21)
(1.07325 0.0425655 -1.13906e-21)
(1.08204 0.0353641 7.12352e-22)
(1.08647 0.0263988 -7.18437e-22)
(1.08626 0.0184055 -7.66198e-22)
(1.08343 0.00937533 7.35638e-22)
(1.07599 -0.00110099 0)
(1.06532 -0.010795 2.64283e-21)
(1.05146 -0.0201992 -2.63787e-21)
(1.0366 -0.0288305 -3.30557e-23)
(1.0228 -0.0369763 1.54691e-21)
(1.01048 -0.0437483 -1.54903e-21)
(1.00038 -0.0491211 1.16405e-22)
(0.99215 -0.0544624 1.64248e-21)
(0.984536 -0.0592064 -1.78886e-21)
(0.980248 -0.0648147 1.22055e-21)
(0.974863 -0.0727196 -1.19279e-21)
(0.967683 -0.0761948 3.87992e-23)
(0.965583 -0.0825414 -1.98194e-21)
(0.961624 -0.0881634 1.92995e-21)
(0.961147 -0.0941306 0)
(0.948833 -0.10594 -2.8388e-21)
(0.953072 -0.0927804 2.85849e-21)
(0.908003 -0.0930864 1.64459e-22)
(0.912373 -0.0169367 7.14687e-22)
(0.894318 -0.0370073 -8.17823e-23)
(0.901288 -0.0486423 0)
(0.91757 -0.0785489 5.0079e-23)
(0.936731 -0.0963078 0)
(0.958885 -0.100949 -3.58915e-22)
(0.974924 -0.101489 2.65384e-22)
(0.984181 -0.09624 7.85729e-23)
(0.993919 -0.0919491 -2.06049e-23)
(1.00236 -0.0872158 0)
(1.00979 -0.082916 -1.1765e-22)
(1.0184 -0.0798009 1.43129e-21)
(1.02784 -0.076289 -1.49174e-21)
(1.03891 -0.072897 -1.09867e-22)
(1.05171 -0.0685445 9.1847e-23)
(1.06502 -0.0632293 -5.61562e-23)
(1.07884 -0.0572619 1.11071e-21)
(1.09081 -0.0493487 1.66014e-22)
(1.09894 -0.039641 -1.32525e-21)
(1.10412 -0.0271131 1.18455e-23)
(1.1063 -0.0158251 -1.23899e-23)
(1.10263 -0.00431804 -1.54009e-21)
(1.09505 0.00848181 1.56307e-21)
(1.08547 0.0208144 2.78141e-21)
(1.07229 0.0304576 -2.77631e-21)
(1.05797 0.0380478 0)
(1.04481 0.0445928 5.90314e-23)
(1.0337 0.0494003 -1.96739e-22)
(1.02402 0.0534062 -8.15673e-23)
(1.01651 0.058018 2.03809e-22)
(1.00948 0.0611183 1.70691e-22)
(1.00339 0.0672849 -1.90516e-21)
(0.998981 0.0685648 1.24136e-22)
(0.995264 0.0741867 1.62628e-21)
(0.990776 0.0835257 7.95906e-23)
(0.987184 0.0854997 0)
(0.98311 0.0980107 8.33107e-23)
(0.970577 0.0985585 -3.79208e-21)
(0.948346 0.104957 3.73879e-21)
(0.893904 0.062503 -1.12205e-22)
(0.950065 -0.0295947 1.35727e-22)
(0.948632 -0.0189936 -7.98945e-23)
(0.978093 -0.00198024 0)
(0.996548 0.0410144 0)
(0.994636 0.0724543 1.31079e-21)
(0.986956 0.0866023 -1.28786e-21)
(0.981228 0.0893347 -1.25187e-21)
(0.980953 0.0881163 1.23886e-21)
(0.986375 0.0839051 -1.59109e-21)
(0.992524 0.0787905 1.54265e-21)
(0.997897 0.0750523 8.44869e-23)
(1.00545 0.070492 5.01384e-23)
(1.01435 0.0649411 6.22421e-23)
(1.02576 0.0579744 7.65006e-23)
(1.03906 0.0516577 -1.98831e-21)
(1.05173 0.0453895 -3.936e-22)
(1.06537 0.0382341 3.45674e-21)
(1.07775 0.0324485 -1.24761e-21)
(1.08633 0.027878 4.49291e-23)
(1.09047 0.0230588 -2.43045e-23)
(1.0904 0.0177174 8.33445e-22)
(1.08743 0.0113121 -2.43122e-21)
(1.08102 0.00363254 1.70871e-21)
(1.07188 -0.00323108 1.884e-22)
(1.05834 -0.011282 0)
(1.04332 -0.0199806 0)
(1.02881 -0.0286369 1.71467e-21)
(1.01547 -0.0370136 -1.82148e-21)
(1.00442 -0.0443697 2.21702e-21)
(0.996488 -0.0504531 -2.34686e-21)
(0.98917 -0.055985 -1.1564e-22)
(0.985189 -0.0610587 9.8588e-23)
(0.981672 -0.0665851 -9.77757e-23)
(0.974531 -0.0727181 7.34581e-22)
(0.972247 -0.0787132 -2.17883e-21)
(0.969565 -0.0863804 3.13003e-21)
(0.975445 -0.0920362 -1.59134e-21)
(0.974745 -0.0936787 1.86593e-22)
(0.980478 -0.0579819 -2.91791e-22)
(0.958944 -0.0628828 2.05522e-22)
(0.972646 -0.0417469 1.0003e-21)
(0.951298 -0.0219835 7.781e-24)
(0.950169 -0.0225359 0)
(0.943595 -0.0357231 0)
(0.946415 -0.0613743 -2.14153e-23)
(0.960755 -0.0819785 -4.79721e-23)
(0.974512 -0.0911878 -2.84637e-22)
(0.985952 -0.0904147 2.98395e-22)
(0.996446 -0.0882112 7.5507e-25)
(1.00465 -0.0850142 6.78181e-23)
(1.01204 -0.0815645 0)
(1.0208 -0.0793518 2.99218e-21)
(1.03024 -0.0761275 -2.99464e-21)
(1.04109 -0.0720213 1.45349e-21)
(1.05327 -0.0671414 -1.19338e-21)
(1.06578 -0.0616838 2.41843e-22)
(1.07915 -0.0554901 1.3369e-21)
(1.09061 -0.0473282 1.69052e-22)
(1.09717 -0.0374558 -1.36382e-21)
(1.10234 -0.0250471 1.24731e-23)
(1.10472 -0.0127783 8.36294e-22)
(1.10112 -0.00129793 -2.50255e-21)
(1.09376 0.0113347 1.56268e-21)
(1.08482 0.0232716 -1.93143e-22)
(1.07263 0.0322356 -1.78002e-22)
(1.05889 0.0390516 -2.39161e-21)
(1.0464 0.0449187 2.11974e-21)
(1.03567 0.0498367 -3.92822e-24)
(1.02631 0.0541958 1.85438e-22)
(1.01891 0.0585035 0)
(1.01134 0.0608423 1.30555e-22)
(1.00366 0.0662672 0)
(0.999464 0.0669163 2.95422e-22)
(0.995198 0.0695193 0)
(0.990824 0.0799652 0)
(0.985964 0.078667 3.75271e-21)
(0.974828 0.0880717 -3.90526e-21)
(0.955857 0.078793 -4.21307e-21)
(0.94914 0.0732435 4.00452e-21)
(0.934686 0.030503 -2.10172e-22)
(0.977772 -0.0440403 0)
(0.971304 -0.00735099 1.52761e-23)
(0.985047 -0.0038446 0)
(0.992325 0.0142122 0)
(1.00111 0.043767 1.76421e-21)
(1.00101 0.060146 -3.26761e-22)
(0.994166 0.069581 -3.16558e-21)
(0.9908 0.0727965 1.73825e-21)
(0.991583 0.0716335 0)
(0.996368 0.0681691 0)
(1.00095 0.0651627 0)
(1.00811 0.0593908 2.29553e-21)
(1.01733 0.0522801 -2.39474e-21)
(1.02899 0.0434088 -1.86551e-21)
(1.04322 0.0359393 1.91251e-21)
(1.05589 0.0297789 2.21921e-21)
(1.06944 0.0226599 -1.1437e-21)
(1.08218 0.0184091 -1.35782e-21)
(1.09104 0.0168007 8.28161e-22)
(1.09575 0.0166616 -8.18715e-22)
(1.09503 0.0157672 -2.68152e-23)
(1.09216 0.0124191 -1.09049e-22)
(1.08703 0.00913921 2.13728e-22)
(1.07825 0.0066293 0)
(1.06498 0.00151146 1.82607e-22)
(1.04989 -0.00610949 2.28719e-21)
(1.03491 -0.0146604 -1.72919e-21)
(1.02093 -0.0244394 -2.78757e-21)
(1.0091 -0.0339403 5.19263e-21)
(1.00083 -0.0417517 -2.19902e-21)
(0.993797 -0.0481762 -1.82605e-21)
(0.988622 -0.0526568 1.14484e-21)
(0.98618 -0.0573332 -2.00091e-22)
(0.981314 -0.0645393 -7.19902e-22)
(0.980629 -0.0711032 -6.03168e-22)
(0.98007 -0.0772414 1.13464e-21)
(0.985694 -0.0749221 0)
(0.9847 -0.0679941 -2.1424e-21)
(0.987344 -0.0269633 -6.99841e-22)
(0.971518 -0.0337187 2.80797e-21)
(0.985898 -0.0342691 1.00674e-21)
(0.975442 -0.00126013 1.43689e-23)
(0.977361 -0.00684371 0)
(0.967521 -0.0130732 0)
(0.960362 -0.0281437 8.73192e-22)
(0.962824 -0.0530954 -9.2132e-22)
(0.972349 -0.0714021 2.68811e-22)
(0.985496 -0.0769122 -3.50923e-22)
(0.997709 -0.078062 -3.95655e-23)
(1.00646 -0.0776145 -6.73682e-22)
(1.01439 -0.0766406 4.69134e-22)
(1.02335 -0.0751244 1.75584e-21)
(1.03257 -0.0716418 -1.93904e-21)
(1.04343 -0.0671164 0)
(1.0552 -0.0618469 -2.01072e-21)
(1.06716 -0.0561823 4.26032e-21)
(1.0798 -0.0500662 -8.98633e-22)
(1.09098 -0.0417766 1.76421e-22)
(1.09777 -0.0322244 -5.69699e-22)
(1.10201 -0.0206685 -8.11404e-22)
(1.10405 -0.00845271 -8.68238e-22)
(1.10119 0.00213901 -8.9409e-22)
(1.09385 0.0133695 1.56589e-21)
(1.08481 0.0239083 3.24955e-21)
(1.07305 0.0314216 -3.24233e-21)
(1.05976 0.0369534 -2.62475e-21)
(1.04777 0.0417027 2.62532e-21)
(1.03717 0.046511 2.49825e-22)
(1.028 0.0511037 0)
(1.02088 0.0559 3.46425e-21)
(1.01351 0.0581338 -2.96906e-21)
(1.00511 0.0612792 -2.47538e-21)
(0.999919 0.0625567 2.71532e-21)
(0.994373 0.0615153 2.43514e-21)
(0.987304 0.0686818 -2.02529e-21)
(0.980787 0.064712 -2.54485e-24)
(0.967532 0.0670655 0)
(0.957484 0.0490263 -3.27593e-21)
(0.960257 0.042238 5.0946e-22)
(0.955616 0.00626991 2.81073e-21)
(0.993302 -0.0274715 2.17874e-22)
(0.985067 0.0038655 -1.0116e-22)
(0.988597 -0.00112686 4.35425e-22)
(0.989315 0.000950134 -4.40485e-22)
(0.993364 0.0132168 -4.99933e-24)
(1.00162 0.0304709 4.76487e-23)
(1.00364 0.0423283 0)
(1.00134 0.0507811 -1.97162e-21)
(0.999878 0.0537507 2.21705e-21)
(1.0001 0.0529684 0)
(1.00395 0.0509583 -2.11819e-21)
(1.01157 0.0432276 2.31172e-21)
(1.0213 0.0344588 -5.37886e-24)
(1.03354 0.0244044 0)
(1.04739 0.0161776 -2.18515e-21)
(1.0607 0.0106009 1.91576e-21)
(1.07394 0.0045972 1.46797e-21)
(1.0867 0.0023539 1.77027e-22)
(1.09612 0.00330493 -8.59892e-22)
(1.10095 0.00889821 -9.52683e-22)
(1.10004 0.0123558 0)
(1.09716 0.0124588 -1.62395e-21)
(1.09254 0.0145426 1.631e-21)
(1.08335 0.017148 0)
(1.07063 0.0158559 4.03472e-22)
(1.05587 0.0105286 0)
(1.04105 0.00286886 1.5034e-21)
(1.02665 -0.00745906 -5.76875e-21)
(1.01429 -0.018614 3.83703e-21)
(1.00497 -0.0284878 -7.44102e-22)
(0.998196 -0.0363572 -1.2237e-21)
(0.992478 -0.0411693 3.01819e-21)
(0.991177 -0.044543 -1.43368e-21)
(0.988277 -0.051523 8.63159e-22)
(0.98788 -0.0572607 -2.37199e-21)
(0.987243 -0.0571627 1.67101e-21)
(0.992218 -0.048391 0)
(0.985995 -0.0388756 -2.47171e-21)
(0.985295 -0.0065094 -7.30663e-22)
(0.972976 -0.015201 3.14696e-21)
(0.99897 -0.0195518 0)
(0.991422 0.00984381 2.47507e-22)
(0.993832 0.0023909 0)
(0.985914 -0.00337141 -1.56565e-23)
(0.977208 -0.00996315 -4.89629e-23)
(0.972418 -0.0252304 1.44757e-22)
(0.974518 -0.0469862 -2.29844e-23)
(0.985088 -0.0584288 -1.36894e-22)
(0.997098 -0.063882 0)
(1.00686 -0.066815 0)
(1.01624 -0.0690941 -1.56363e-21)
(1.02561 -0.0678167 1.61571e-21)
(1.0346 -0.064186 4.99938e-22)
(1.04574 -0.0596245 2.0416e-22)
(1.05708 -0.054395 -2.02104e-21)
(1.06891 -0.0488501 1.73187e-21)
(1.08101 -0.0430547 1.44491e-21)
(1.09265 -0.035089 1.89749e-22)
(1.09999 -0.0261423 -7.4901e-22)
(1.10396 -0.0152306 -8.9354e-22)
(1.10552 -0.00360915 -6.16253e-23)
(1.1027 0.00624914 -2.06165e-21)
(1.09566 0.0158209 2.1757e-21)
(1.0862 0.0248449 2.30851e-22)
(1.07458 0.0305604 -8.38875e-22)
(1.06147 0.0341342 0)
(1.04922 0.0373533 2.82955e-21)
(1.03837 0.0413609 -1.94447e-21)
(1.02926 0.0455674 -4.56533e-22)
(1.02219 0.0504945 7.95636e-22)
(1.0153 0.0532774 -3.33356e-22)
(1.0068 0.0543914 -3.33749e-21)
(1.0005 0.0557534 3.53595e-21)
(0.99174 0.0509379 -4.43967e-22)
(0.984208 0.0515597 -1.90888e-22)
(0.975334 0.0441584 4.19648e-21)
(0.971313 0.0416038 -3.7656e-21)
(0.96724 0.0218428 -3.13827e-21)
(0.971673 0.0189668 3.10975e-21)
(0.967851 -0.00464663 0)
(1.00333 -0.0136297 0)
(0.996284 0.0121661 0)
(0.99752 0.00307146 1.54988e-22)
(0.99137 -0.00367178 5.26173e-22)
(0.991431 -0.0025762 -5.70657e-22)
(0.994698 0.00361823 0)
(1.00194 0.0159344 -1.87377e-21)
(1.00676 0.0257247 -3.88021e-22)
(1.00603 0.0329635 2.10312e-21)
(1.00584 0.034541 0)
(1.00765 0.0320306 2.44289e-22)
(1.01483 0.0232086 -2.96295e-22)
(1.02552 0.0130811 -2.09336e-21)
(1.03845 0.00295893 1.54542e-21)
(1.05207 -0.00529268 0)
(1.06572 -0.00982507 -2.77305e-21)
(1.07882 -0.0136563 4.72834e-21)
(1.09174 -0.0134271 -3.59043e-21)
(1.10121 -0.0100615 1.78781e-21)
(1.10604 0.000588033 -1.51033e-24)
(1.10583 0.00853953 1.16053e-21)
(1.10276 0.0123029 -1.03118e-21)
(1.0972 0.0190524 2.53418e-22)
(1.08777 0.0260433 -2.37903e-22)
(1.07564 0.0286785 4.36453e-22)
(1.06145 0.0268062 0)
(1.04701 0.0210477 0)
(1.03269 0.011595 -5.75998e-22)
(1.0199 -0.00031304 3.14112e-21)
(1.00975 -0.0114264 -3.54369e-21)
(1.00239 -0.0218088 0)
(0.996257 -0.0274056 1.79727e-21)
(0.996251 -0.0293075 -1.73936e-21)
(0.994024 -0.0338802 1.36585e-21)
(0.993546 -0.0352803 -1.11146e-21)
(0.990354 -0.0333399 1.73684e-21)
(0.990292 -0.0210301 -2.12291e-21)
(0.982125 -0.0144371 0)
(0.981576 0.00385805 0)
(0.973383 -0.00926152 -3.63534e-22)
(1.0071 -0.00910423 -1.33934e-21)
(1.00076 0.0139238 1.11545e-21)
(1.00203 0.00495925 -4.88894e-23)
(0.994073 -0.00199272 8.07054e-23)
(0.989886 -0.0045422 1.11268e-21)
(0.985941 -0.0124282 -1.65353e-21)
(0.982393 -0.024039 5.48567e-22)
(0.987479 -0.0389918 -5.29566e-22)
(0.996973 -0.0490947 9.04617e-22)
(1.00727 -0.0561365 1.36954e-21)
(1.01705 -0.0590974 -3.0873e-21)
(1.027 -0.0585986 4.25539e-21)
(1.03617 -0.0558008 -2.2851e-21)
(1.04756 -0.0518597 0)
(1.0591 -0.0474185 0)
(1.07129 -0.042525 3.42668e-21)
(1.08348 -0.0374896 -1.92316e-21)
(1.09554 -0.0301974 -1.63245e-21)
(1.10375 -0.0218101 -1.12015e-21)
(1.10801 -0.0105993 1.06287e-21)
(1.1091 0.000654844 -6.66885e-23)
(1.10605 0.0101293 -2.12965e-21)
(1.10001 0.0201591 1.86753e-21)
(1.09023 0.028642 3.86905e-21)
(1.07769 0.0326173 -3.85338e-21)
(1.06397 0.0340308 0)
(1.05094 0.0351431 0)
(1.03953 0.0372425 -6.2557e-22)
(1.03018 0.0400341 4.33753e-21)
(1.02272 0.0441373 -4.3162e-21)
(1.01651 0.0478106 -4.0526e-21)
(1.0083 0.0469977 4.35195e-23)
(0.999566 0.0473703 3.24304e-21)
(0.989787 0.0386528 2.40592e-21)
(0.985121 0.0345028 -6.50114e-21)
(0.978511 0.0235237 3.66809e-21)
(0.977806 0.0192853 3.8477e-22)
(0.975919 0.00580876 -2.86768e-21)
(0.978849 0.00882747 2.4754e-21)
(0.97379 -0.00663544 1.07213e-23)
(1.0102 -0.00593358 -7.21946e-22)
(1.00465 0.0150588 1.13949e-21)
(1.00593 0.00607613 -9.02649e-22)
(0.996531 -0.00210318 1.35158e-21)
(0.993258 -0.00793709 -1.28578e-21)
(0.99462 -0.0086803 0)
(0.996656 -0.00478911 0)
(1.00424 0.00263298 -3.60863e-22)
(1.00797 0.0112031 -1.82687e-22)
(1.01019 0.0132026 2.09959e-21)
(1.0126 0.0101782 -2.55562e-21)
(1.02034 0.000972238 3.21171e-21)
(1.03064 -0.00942833 -5.10892e-21)
(1.04377 -0.0185451 1.38577e-21)
(1.05731 -0.0255846 -2.57752e-21)
(1.07106 -0.0285015 5.26482e-21)
(1.08417 -0.0290544 -8.86352e-22)
(1.09721 -0.0257105 4.3981e-22)
(1.10641 -0.0200356 -1.03226e-21)
(1.11116 -0.00643216 -1.0639e-21)
(1.11164 0.00537283 0)
(1.10823 0.0125844 -1.95619e-21)
(1.10262 0.0227831 2.24033e-21)
(1.09265 0.0316997 0)
(1.07993 0.0365369 0)
(1.06637 0.0377175 3.25685e-21)
(1.05233 0.0358084 -6.03313e-21)
(1.03823 0.02918 4.06987e-21)
(1.02602 0.0186081 -5.55306e-22)
(1.0148 0.00706772 0)
(1.00686 -0.00370324 2.75528e-21)
(1.00074 -0.0124589 -2.33295e-21)
(0.999859 -0.0127594 6.03625e-22)
(0.997522 -0.014038 0)
(0.996782 -0.0121476 0)
(0.991061 -0.010803 3.30109e-21)
(0.985733 -0.0017158 -3.27723e-21)
(0.980661 -0.00197447 -2.52673e-21)
(0.981395 0.00565759 3.53644e-21)
(0.976021 -0.00724835 3.72205e-22)
(1.01266 -0.0037737 -4.99251e-22)
(1.00793 0.0156176 5.92451e-22)
(1.00923 0.0068205 0)
(1.00009 -0.00217259 -2.38067e-22)
(0.9957 -0.00793699 3.66445e-22)
(0.993948 -0.0100576 -1.22805e-21)
(0.992827 -0.015008 1.27634e-21)
(0.993753 -0.0239898 4.56558e-23)
(1.00031 -0.0371969 1.26759e-21)
(1.00898 -0.0454394 -2.40581e-21)
(1.01822 -0.0491956 1.0629e-21)
(1.02847 -0.0501635 -3.1037e-21)
(1.03786 -0.049027 1.01069e-21)
(1.04957 -0.0466479 2.27965e-21)
(1.06191 -0.0441831 0)
(1.07464 -0.0407485 0)
(1.0874 -0.0368552 0)
(1.10021 -0.0303714 2.06905e-21)
(1.10937 -0.0226194 -1.5275e-21)
(1.11407 -0.00904849 0)
(1.11472 0.00341936 -1.19511e-21)
(1.11143 0.0126372 -1.16489e-21)
(1.10572 0.0248966 -2.21553e-22)
(1.09566 0.0351993 2.28393e-21)
(1.08227 0.0398452 0)
(1.06828 0.040857 -3.90573e-21)
(1.05441 0.0396852 4.43328e-22)
(1.04118 0.0374676 2.98948e-21)
(1.03135 0.0373234 -2.95842e-23)
(1.02275 0.0392117 0)
(1.0169 0.0420564 3.83584e-21)
(1.00919 0.0413653 -3.81147e-21)
(0.99967 0.0393647 -1.29749e-21)
(0.991064 0.0279594 1.82159e-21)
(0.989461 0.0220535 -5.89904e-21)
(0.984574 0.0103135 3.98825e-21)
(0.983453 0.00789339 0)
(0.980716 0.00190103 -3.33629e-21)
(0.982023 0.00653087 2.90935e-21)
(0.977506 -0.0061164 3.67505e-22)
(1.01454 -0.00265231 0)
(1.01083 0.0157158 1.12163e-22)
(1.01245 0.00735826 -8.6594e-22)
(1.00301 -0.00244776 1.02798e-21)
(0.99764 -0.00901531 -1.83722e-21)
(0.99577 -0.0129613 1.85641e-21)
(0.997603 -0.0147197 -2.89107e-22)
(1.00238 -0.013859 -1.47015e-21)
(1.00776 -0.00951011 2.28237e-21)
(1.0124 -0.00857904 -3.03482e-21)
(1.01791 -0.0127249 5.41145e-21)
(1.02637 -0.0210237 -2.57907e-21)
(1.03627 -0.0301836 -2.00944e-21)
(1.04937 -0.0367647 2.02045e-21)
(1.06314 -0.0409525 3.52366e-21)
(1.07679 -0.0412545 -6.24651e-21)
(1.08996 -0.0385046 5.33259e-21)
(1.10298 -0.0322766 -1.69117e-21)
(1.11247 -0.0245831 -2.84762e-22)
(1.11719 -0.0100348 7.79267e-23)
(1.1183 0.00385341 -1.26734e-21)
(1.11498 0.0138343 9.53564e-22)
(1.10894 0.0271284 -7.93318e-24)
(1.09892 0.0383037 5.14842e-21)
(1.08518 0.0436546 -4.53638e-21)
(1.07062 0.0452961 1.46572e-21)
(1.05643 0.0441761 8.60172e-22)
(1.04277 0.0414632 -7.21277e-22)
(1.03097 0.0347807 5.1476e-21)
(1.01973 0.0250301 -8.03642e-22)
(1.01133 0.014708 -3.67432e-21)
(1.00514 0.00423963 -2.51354e-21)
(1.00263 0.0048824 3.18987e-21)
(0.999842 0.00404366 2.074e-21)
(0.996044 0.00666568 -3.07876e-21)
(0.989345 0.00445793 0)
(0.985293 0.00585323 0)
(0.982283 0.00173326 -3.43494e-21)
(0.983246 0.00587031 2.62528e-21)
(0.979196 -0.00557708 -7.51535e-22)
(1.01576 -0.002123 -1.08634e-21)
(1.01328 0.0155167 3.48863e-23)
(1.01532 0.00756243 -7.09635e-23)
(1.00608 -0.00241854 -1.57987e-22)
(0.999811 -0.0103488 -2.51693e-21)
(0.997362 -0.0143432 1.12774e-21)
(0.998115 -0.0161951 1.55436e-21)
(1.00039 -0.0205257 0)
(1.00575 -0.0293301 -4.67302e-22)
(1.0127 -0.0372146 -1.59162e-21)
(1.02067 -0.0427116 2.78003e-21)
(1.03028 -0.045323 3.31971e-21)
(1.03994 -0.0468336 -3.81502e-21)
(1.05267 -0.0474961 0)
(1.06593 -0.0476676 -3.7322e-21)
(1.0799 -0.046294 3.05556e-21)
(1.09305 -0.0423478 2.07662e-21)
(1.10593 -0.0349744 -3.01194e-22)
(1.11595 -0.0265275 -3.60608e-21)
(1.12078 -0.0110002 1.18767e-21)
(1.12225 0.00370832 8.54832e-23)
(1.11904 0.0146434 0)
(1.11274 0.0295706 3.24481e-22)
(1.1026 0.0418083 -6.19551e-22)
(1.0883 0.0476739 5.85948e-22)
(1.073 0.0493804 -4.89516e-21)
(1.05843 0.0483148 6.3335e-21)
(1.04462 0.0455532 -3.34627e-21)
(1.03296 0.0409232 0)
(1.02356 0.0383444 0)
(1.01677 0.0389266 3.98305e-21)
(1.00948 0.0363977 -3.95583e-21)
(1.00106 0.0336653 0)
(0.996308 0.0225058 1.26924e-21)
(0.994473 0.0175606 4.18172e-21)
(0.988881 0.00914576 -4.31717e-22)
(0.986027 0.00806338 -3.69463e-21)
(0.982981 0.00304723 -2.78533e-21)
(0.983981 0.00631068 3.11479e-21)
(0.980497 -0.00446043 1.25141e-24)
(1.01637 -0.00227977 8.40681e-23)
(1.01528 0.0148448 -8.51639e-23)
(1.01775 0.00748065 7.30642e-23)
(1.00901 -0.00291799 0)
(1.00233 -0.0118087 2.46803e-21)
(0.999502 -0.0157677 -3.52614e-21)
(0.999265 -0.0191495 9.53528e-22)
(1.00271 -0.022557 0)
(1.00869 -0.0250015 -4.67395e-21)
(1.01492 -0.0279509 2.00933e-21)
(1.02166 -0.0329235 2.53948e-21)
(1.03097 -0.0395006 3.67575e-21)
(1.04115 -0.0461258 -5.44547e-21)
(1.05458 -0.0498786 1.62611e-21)
(1.06836 -0.0512321 -4.02572e-21)
(1.08322 -0.0503326 3.72902e-21)
(1.09617 -0.0455205 2.21807e-21)
(1.10932 -0.0378298 2.5971e-22)
(1.12008 -0.0284185 -1.47638e-21)
(1.12535 -0.0124865 -1.26553e-21)
(1.12644 0.0034082 -1.79922e-22)
(1.12315 0.0157674 -2.84092e-21)
(1.11652 0.0316536 3.19257e-21)
(1.10615 0.0452381 5.14015e-21)
(1.09173 0.0519435 -5.73023e-21)
(1.07633 0.054002 4.12907e-21)
(1.06074 0.053474 -3.13318e-21)
(1.04657 0.050154 0)
(1.03471 0.0458446 5.99748e-21)
(1.02393 0.0393853 -1.38102e-21)
(1.01565 0.0320018 3.60132e-22)
(1.0086 0.0215302 -3.72008e-21)
(1.00393 0.0205291 0)
(0.999833 0.0175925 1.85635e-21)
(0.995978 0.0174647 -1.91605e-21)
(0.990838 0.0114365 -5.25538e-22)
(0.987512 0.00976925 4.70027e-22)
(0.983973 0.00411272 0)
(0.984678 0.00666297 0)
(0.981553 -0.00334099 7.89519e-22)
(1.01626 -0.00273787 2.51772e-22)
(1.01653 0.0139587 -2.55317e-22)
(1.01943 0.00712555 0)
(1.01183 -0.00347549 0)
(1.00473 -0.0130271 0)
(1.00073 -0.0179781 0)
(1.00028 -0.021649 0)
(1.0041 -0.0254307 0)
(1.00985 -0.0310123 3.13607e-21)
(1.01594 -0.0366291 -3.93724e-21)
(1.02313 -0.0428031 -3.15447e-21)
(1.03271 -0.047901 -2.69636e-22)
(1.04354 -0.0528275 1.52317e-21)
(1.05666 -0.0552308 3.05935e-21)
(1.07157 -0.056569 4.29796e-21)
(1.08666 -0.0550211 1.35257e-22)
(1.09982 -0.0492738 -1.76197e-21)
(1.11312 -0.0408281 5.97777e-22)
(1.12382 -0.0305014 -5.22129e-22)
(1.13065 -0.0134689 -1.44808e-21)
(1.13071 0.00316612 -3.31232e-24)
(1.12704 0.0170682 -3.43383e-21)
(1.12079 0.0340068 6.36624e-21)
(1.10995 0.0486781 -2.20045e-21)
(1.09478 0.0562473 0)
(1.07919 0.058581 -1.19326e-21)
(1.06324 0.0585682 -1.01188e-21)
(1.04857 0.0550351 0)
(1.03634 0.0506816 4.89691e-21)
(1.02563 0.0446753 -4.96065e-21)
(1.01764 0.0410182 -1.08632e-21)
(1.01008 0.0352917 0)
(1.00408 0.0321562 0)
(0.999264 0.0237725 2.74177e-21)
(0.996496 0.0211108 -2.71026e-21)
(0.991677 0.0143292 -1.6924e-23)
(0.988543 0.0123668 1.22495e-23)
(0.984928 0.00605368 -3.03368e-21)
(0.985398 0.00759275 3.39267e-21)
(0.982582 -0.0018884 -4.06965e-22)
(1.01551 -0.00355378 0)
(1.01727 0.0125708 0)
(1.02062 0.00620923 0)
(1.01407 -0.00447921 0)
(1.00624 -0.0150844 0)
(1.00189 -0.020164 -1.74595e-21)
(1.00138 -0.0243861 1.42567e-21)
(1.00528 -0.0294816 1.88495e-21)
(1.01058 -0.0346056 -4.66696e-21)
(1.01702 -0.0401336 7.6103e-22)
(1.02449 -0.0464581 3.13778e-21)
(1.03409 -0.0520534 -9.37871e-22)
(1.04587 -0.0574613 -5.90717e-22)
(1.05896 -0.0600071 7.27176e-22)
(1.07478 -0.061993 -3.78725e-21)
(1.09039 -0.0599806 4.33094e-21)
(1.10416 -0.0528496 2.56087e-21)
(1.11752 -0.0437984 -2.56774e-21)
(1.12775 -0.0326513 8.04773e-22)
(1.13681 -0.0149047 -1.66018e-21)
(1.13609 0.0034441 -3.87948e-24)
(1.13089 0.0183803 4.0657e-22)
(1.12472 0.0362653 -7.93497e-22)
(1.11397 0.0521421 5.9179e-21)
(1.09878 0.0607307 -5.87154e-21)
(1.08248 0.0642189 2.51883e-21)
(1.06592 0.0641737 -4.11247e-21)
(1.05088 0.0602814 4.08839e-21)
(1.03829 0.0557926 -8.26356e-22)
(1.0273 0.0496604 0)
(1.01856 0.0447335 4.46107e-21)
(1.01075 0.0365968 -8.2774e-21)
(1.00527 0.0331836 3.82068e-21)
(0.999999 0.0264394 0)
(0.996927 0.0239475 0)
(0.992365 0.0171707 5.04903e-21)
(0.989461 0.0149842 -5.45609e-21)
(0.986029 0.00838232 3.65387e-21)
(0.986398 0.00907428 -3.55315e-21)
(0.983852 -5.91946e-05 -4.2434e-22)
(1.01439 -0.00483884 0)
(1.01782 0.0105604 0)
(1.02169 0.00485483 -1.43383e-21)
(1.01612 -0.00577008 1.71092e-21)
(1.00849 -0.016521 -2.59562e-21)
(1.00372 -0.0224669 3.31638e-21)
(1.00247 -0.0277686 2.05617e-21)
(1.00591 -0.0334115 7.28238e-22)
(1.01152 -0.0391839 -2.5237e-21)
(1.01827 -0.0453256 0)
(1.02609 -0.0514388 -8.064e-22)
(1.0359 -0.0575364 5.50049e-21)
(1.04828 -0.0631984 -3.91242e-21)
(1.06189 -0.0659223 -7.55713e-22)
(1.07821 -0.0677366 -9.62135e-22)
(1.0947 -0.0651444 2.50654e-23)
(1.10895 -0.0571501 2.10514e-21)
(1.12261 -0.046868 3.21572e-22)
(1.13231 -0.0350843 -1.02107e-21)
(1.14249 -0.0162615 -1.68547e-21)
(1.14237 0.00364923 1.09995e-22)
(1.13636 0.0199666 -3.53171e-21)
(1.13017 0.038537 3.52502e-21)
(1.11871 0.0558258 -8.11886e-22)
(1.10329 0.0648433 0)
(1.08632 0.0699535 -1.33122e-21)
(1.0689 0.0698676 4.4257e-21)
(1.05351 0.0662546 -1.19993e-20)
(1.04056 0.0616975 1.90139e-21)
(1.02911 0.0555388 1.12631e-20)
(1.02009 0.0498621 -1.03064e-20)
(1.01146 0.0422309 8.87116e-21)
(1.00608 0.0384597 -5.0638e-21)
(1.00046 0.0305495 0)
(0.997301 0.0275937 0)
(0.992811 0.0202995 0)
(0.990157 0.0177914 -1.59881e-23)
(0.986654 0.0108254 -4.31263e-21)
(0.986773 0.0108511 3.72952e-21)
(0.984328 0.00212166 8.77336e-22)
(1.01298 -0.00644168 6.62773e-22)
(1.01775 0.00815398 -6.71609e-22)
(1.02204 0.00322114 0)
(1.01779 -0.00716439 -2.43695e-22)
(1.01032 -0.0188013 0)
(1.00486 -0.0259723 -7.08984e-22)
(1.00309 -0.0315644 3.43926e-21)
(1.00633 -0.0381323 -2.36902e-21)
(1.01233 -0.0439937 1.55013e-21)
(1.01935 -0.050153 -1.81928e-21)
(1.02766 -0.0566784 -1.30353e-23)
(1.03794 -0.0633215 -5.93752e-21)
(1.05081 -0.0690112 4.89037e-21)
(1.06496 -0.071959 8.58014e-22)
(1.0822 -0.0731855 1.00148e-21)
(1.09914 -0.0706947 2.91557e-23)
(1.11407 -0.0615944 6.92028e-22)
(1.12803 -0.0503243 3.36081e-21)
(1.13739 -0.0376448 -5.19352e-21)
(1.14867 -0.0175443 1.82812e-21)
(1.14948 0.0041612 2.0696e-21)
(1.14238 0.0215977 -5.77417e-21)
(1.13636 0.0411402 1.41326e-22)
(1.12418 0.0596278 3.67155e-21)
(1.10795 0.0698534 -8.37065e-22)
(1.09072 0.0760287 -6.99755e-21)
(1.0725 0.0762964 5.4723e-21)
(1.05566 0.0720134 1.12509e-21)
(1.04224 0.0671202 9.61287e-22)
(1.03052 0.0607797 7.90914e-22)
(1.02128 0.0556945 1.40426e-21)
(1.01266 0.0471549 0)
(1.00687 0.0433261 1.0085e-21)
(1.00086 0.0346824 0)
(0.997598 0.0313975 -7.86262e-22)
(0.993008 0.0236864 0)
(0.990553 0.0209227 1.18204e-21)
(0.987111 0.0138493 -4.10658e-21)
(0.987018 0.0132805 6.64545e-22)
(0.984593 0.00476062 3.71379e-21)
(1.01124 -0.00841757 -1.09547e-21)
(1.01708 0.0051815 0)
(1.02173 0.001179 -1.44027e-22)
(1.01937 -0.00920635 2.4875e-21)
(1.01165 -0.0218799 -2.29552e-21)
(1.00626 -0.0288259 7.20058e-22)
(1.0042 -0.0356186 -3.94824e-21)
(1.00664 -0.04296 4.54245e-21)
(1.01266 -0.0495385 -5.8743e-22)
(1.02034 -0.0561929 -7.27292e-22)
(1.02938 -0.0631495 4.56068e-22)
(1.0402 -0.0697485 5.74914e-22)
(1.05349 -0.0752878 -3.29236e-21)
(1.06868 -0.0787517 2.42161e-21)
(1.08666 -0.079583 0)
(1.1037 -0.0769138 3.42214e-23)
(1.12032 -0.0669708 7.95053e-22)
(1.13424 -0.0538042 0)
(1.14323 -0.0399943 1.99024e-21)
(1.15572 -0.019093 -1.9923e-21)
(1.15861 0.00446109 -1.3005e-22)
(1.15035 0.0232075 0)
(1.14354 0.0439592 0)
(1.13101 0.0630677 0)
(1.11335 0.0754833 1.78521e-21)
(1.09578 0.0820413 1.55857e-21)
(1.077 0.0833018 -5.18573e-21)
(1.05868 0.0792612 3.97645e-21)
(1.04396 0.0741645 -2.04421e-21)
(1.03167 0.0670395 8.89565e-22)
(1.02256 0.0619895 4.09852e-21)
(1.01335 0.0535054 -1.15878e-20)
(1.00768 0.0492521 4.7302e-21)
(1.00121 0.0398907 -3.58026e-21)
(0.997865 0.0361698 1.05921e-20)
(0.993157 0.0276536 -6.1598e-21)
(0.990791 0.0243648 -6.22383e-22)
(0.987401 0.0168403 -4.90552e-21)
(0.987286 0.0158595 -2.84826e-22)
(0.98494 0.00775523 3.87939e-21)
(1.01049 -0.0103619 -1.26589e-22)
(1.01635 0.00175937 8.77752e-23)
(1.02119 -0.00131515 1.0986e-23)
(1.02099 -0.0120826 -2.50207e-22)
(1.01312 -0.0249817 0)
(1.00772 -0.0331089 8.18885e-22)
(1.00559 -0.0410167 -1.56125e-21)
(1.00769 -0.0486375 -2.72565e-21)
(1.01351 -0.0554329 2.25119e-21)
(1.02159 -0.0624812 -7.98255e-22)
(1.03113 -0.0696954 0)
(1.04265 -0.0764861 5.1052e-21)
(1.05668 -0.0824499 -1.02503e-20)
(1.07267 -0.0858121 2.605e-21)
(1.09118 -0.0863558 1.27005e-21)
(1.10934 -0.0828223 -7.05928e-21)
(1.12659 -0.0720536 5.53834e-21)
(1.14143 -0.0578484 0)
(1.15081 -0.0428896 0)
(1.16331 -0.0210296 0)
(1.16768 0.00496556 1.49665e-22)
(1.15874 0.0254011 0)
(1.15062 0.0472442 -4.38968e-21)
(1.13845 0.0674296 1.25497e-20)
(1.11936 0.0806351 -9.09146e-21)
(1.10107 0.0883509 -1.77841e-21)
(1.08263 0.0908598 0)
(1.06286 0.0872237 0)
(1.04632 0.0812123 -4.94204e-23)
(1.03235 0.0737349 -7.97671e-21)
(1.02311 0.0678745 -6.99699e-22)
(1.01411 0.0592776 5.90861e-21)
(1.00815 0.0547833 1.21193e-21)
(1.00115 0.0451091 4.89208e-21)
(0.997858 0.0410352 -3.80079e-21)
(0.99328 0.0319735 -7.85278e-22)
(0.990896 0.0283109 0)
(0.987439 0.0202614 5.87827e-22)
(0.987309 0.0187959 -4.19053e-21)
(0.985118 0.0111134 4.05825e-21)
(1.00967 -0.0132275 1.14191e-21)
(1.01571 -0.00221654 -9.12178e-23)
(1.02077 -0.00464792 1.43811e-22)
(1.02236 -0.0153425 -2.16669e-22)
(1.01572 -0.0289952 3.0128e-22)
(1.00957 -0.038139 -2.71266e-21)
(1.00689 -0.0463412 3.12273e-21)
(1.00857 -0.0539463 0)
(1.01427 -0.0619025 -6.63384e-22)
(1.02264 -0.0697463 -3.02109e-21)
(1.03305 -0.0771065 3.89513e-21)
(1.04547 -0.0840371 7.02072e-21)
(1.06005 -0.09017 -9.51619e-21)
(1.07671 -0.0937718 3.95747e-21)
(1.0963 -0.0939559 8.17934e-23)
(1.11566 -0.089461 0)
(1.13345 -0.0785296 4.96698e-21)
(1.14945 -0.0627789 -6.68011e-22)
(1.15908 -0.0456237 -4.43935e-21)
(1.17158 -0.022716 0)
(1.17717 0.00523113 -1.56823e-22)
(1.1691 0.0280117 -5.04481e-21)
(1.15829 0.0500222 6.30751e-21)
(1.14625 0.0721927 -1.2034e-21)
(1.12739 0.0869067 0)
(1.10637 0.0942437 3.81846e-21)
(1.08755 0.0983373 0)
(1.06867 0.0963019 0)
(1.0509 0.090147 2.438e-21)
(1.03512 0.0821591 0)
(1.02453 0.0760222 1.72336e-21)
(1.01458 0.0671433 -4.14191e-21)
(1.00907 0.0622164 2.97006e-21)
(1.00136 0.0518454 -1.08626e-21)
(0.997525 0.0474059 7.18789e-21)
(0.992908 0.0374188 -6.27035e-21)
(0.990826 0.0331183 0)
(0.987296 0.0241843 -6.41868e-22)
(0.987116 0.0219941 4.97517e-21)
(0.985031 0.0144969 -4.76879e-21)
(1.00889 -0.0170038 7.7244e-22)
(1.01535 -0.00703221 0)
(1.02091 -0.00915025 1.02471e-22)
(1.02396 -0.0198393 -1.60171e-21)
(1.01895 -0.0343204 1.75222e-21)
(1.01062 -0.0436922 0)
(1.00787 -0.0520628 -4.11587e-22)
(1.01064 -0.0610771 5.35403e-22)
(1.01531 -0.0693496 6.93632e-22)
(1.02365 -0.0772988 9.39943e-22)
(1.03515 -0.0851804 0)
(1.04784 -0.0925701 -6.22741e-21)
(1.06316 -0.098443 7.09416e-21)
(1.08064 -0.10197 2.49087e-21)
(1.10169 -0.1018 -1.48058e-21)