/*--------------------------------*- C++ -*----------------------------------*\
  =========                 |
  \\      /  F ield         | OpenFOAM: The Open Source CFD Toolbox
   \\    /   O peration     | Website:  https://openfoam.org
    \\  /    A nd           | Version:  10
     \\/     M anipulation  |
\*---------------------------------------------------------------------------*/
FoamFile
{
    format      ascii;
    class       surfaceScalarField;
    location    "0.400937";
    object      phi;
}
// * * * * * * * * * * * * * * * * * * * * * * * * * * * * * * * * * * * * * //

dimensions      [1 0 -1 0 0 0 0];

internalField   nonuniform List<scalar> 
32368
(
-0.000212728
0.000175523
-0.000158469
0.000137714
-0.000119195
9.54127e-05
-0.000118824
7.90579e-05
-0.000123445
7.24734e-05
-0.000133791
6.85442e-05
-0.000137692
6.32413e-05
-0.00013579
5.42227e-05
-0.000130375
4.46587e-05
-0.000119387
3.51897e-05
-0.000106651
2.68115e-05
-9.60072e-05
2.09754e-05
-8.68069e-05
1.75425e-05
-7.81957e-05
1.56861e-05
-7.03226e-05
1.51309e-05
-6.15319e-05
1.54763e-05
-5.08061e-05
1.52621e-05
-4.72554e-05
1.50222e-05
-4.62068e-05
2.0105e-05
-4.61865e-05
2.71434e-05
-4.90107e-05
3.72401e-05
-5.53744e-05
5.31776e-05
-6.59602e-05
7.82201e-05
-7.30876e-05
0.000112304
-7.18625e-05
0.000138124
-6.72995e-05
0.000153825
-5.95493e-05
0.000160298
-4.79667e-05
0.000149216
-3.38967e-05
0.000120189
-2.52322e-05
8.82454e-05
-2.07944e-05
7.69947e-05
-1.73694e-05
7.29839e-05
-1.3218e-05
7.01446e-05
-8.11399e-06
6.74101e-05
-2.36491e-06
6.50823e-05
4.24225e-06
6.33603e-05
1.04027e-05
6.48376e-05
1.81066e-05
6.93893e-05
2.83539e-05
7.51164e-05
3.93765e-05
8.15791e-05
5.00206e-05
8.79439e-05
5.9182e-05
9.53128e-05
6.80493e-05
0.000104709
7.41972e-05
0.000115672
7.72454e-05
0.000127769
7.57259e-05
0.000140377
6.71681e-05
0.000153837
4.90275e-05
0.000168191
2.54966e-05
0.000181659
5.47978e-06
0.000190858
-6.56081e-06
0.000193875
-1.24806e-05
0.000192402
-1.62868e-05
0.000189604
-1.93384e-05
0.00018522
-2.11881e-05
0.000177741
-2.15266e-05
0.000163178
-1.8804e-05
0.000134139
-1.754e-05
0.000110654
-1.69513e-05
0.000102984
-1.54373e-05
9.39079e-05
-1.31184e-05
8.3865e-05
-1.05686e-05
6.52865e-05
-6.10979e-06
3.96224e-05
2.94968e-07
1.69352e-06
3.42437e-06
-2.48133e-05
2.36479e-06
-3.59572e-05
-6.1713e-07
-3.87577e-05
-1.53136e-06
-3.08912e-05
-3.80203e-07
-1.40225e-05
6.10633e-07
2.42594e-06
1.36768e-06
1.13667e-05
2.10583e-06
1.96176e-05
2.60525e-06
2.40604e-05
3.34496e-06
1.95673e-05
2.65828e-06
9.03575e-06
6.00916e-06
-1.41304e-05
1.93394e-05
-5.784e-05
4.50913e-05
-0.000108363
8.04156e-05
-0.000147125
0.000118969
-0.000164189
0.000157464
-0.000162618
0.000194483
-0.000151471
0.000227369
-0.000134283
0.000257123
-0.000117185
0.000297089
-0.00010085
0.000329786
-8.63256e-05
0.000342244
-5.54694e-05
0.000311069
-1.03644e-05
0.000261059
3.7351e-05
0.00016298
7.64378e-05
1.09241e-05
0.000112429
-8.2645e-05
0.00013028
-0.000114524
0.0001101
-0.000142813
9.66927e-05
-0.000201438
9.80953e-05
-0.000217877
0.000104403
-0.00021633
8.93857e-05
-0.000180089
6.33545e-05
-0.000139832
3.08748e-05
-0.000111418
3.63868e-06
-9.35589e-05
-2.07963e-05
-7.89558e-05
-4.63751e-05
-6.32132e-05
-6.78037e-05
-4.95415e-05
-8.22224e-05
-3.59343e-05
-8.57975e-05
-2.55287e-05
-7.82732e-05
-1.81328e-05
-7.6296e-05
1.56508e-06
-9.26198e-05
3.01838e-05
-0.000100101
5.83635e-05
-0.000101848
7.82252e-05
-9.84712e-05
8.91102e-05
-9.53577e-05
-8.74885e-05
8.82891e-05
-0.000209046
0.0001957
-0.000155986
0.000154453
-0.000125416
0.000109482
-0.000128131
9.50858e-05
-0.000134432
8.82213e-05
-0.000146035
8.38429e-05
-0.000148665
7.68909e-05
-0.000146915
6.59241e-05
-0.000141628
5.48768e-05
-0.000131675
4.43232e-05
-0.000120323
3.54523e-05
-0.000109161
2.92146e-05
-9.70012e-05
2.49425e-05
-8.52043e-05
2.19399e-05
-7.61703e-05
2.0422e-05
-6.82751e-05
2.04305e-05
-5.79648e-05
2.03732e-05
-5.09738e-05
1.88092e-05
-5.00312e-05
2.17651e-05
-5.00683e-05
2.80099e-05
-5.24981e-05
3.66165e-05
-5.86102e-05
4.9893e-05
-6.93959e-05
7.0147e-05
-7.77204e-05
9.6798e-05
-7.81805e-05
0.000118367
-7.48685e-05
0.000132921
-6.56459e-05
0.000136379
-5.27053e-05
0.000119983
-3.88008e-05
9.66261e-05
-3.13568e-05
8.20743e-05
-2.78055e-05
7.71815e-05
-2.42421e-05
7.38612e-05
-2.00973e-05
7.0879e-05
-1.50394e-05
6.86044e-05
-1.0548e-05
6.96131e-05
-3.48951e-06
7.46129e-05
6.2312e-06
7.87691e-05
1.78725e-05
8.1309e-05
2.95441e-05
8.48996e-05
4.10457e-05
9.05057e-05
5.16211e-05
9.77703e-05
6.19027e-05
0.000107166
7.11464e-05
0.000116504
7.79417e-05
0.000126491
8.03172e-05
0.000137704
7.78573e-05
0.000149102
6.77737e-05
0.000161326
4.81984e-05
0.000175172
2.37786e-05
0.000188812
4.34543e-06
0.000198637
-7.01287e-06
0.000202485
-1.27655e-05
0.00020178
-1.68124e-05
0.000199048
-2.00629e-05
0.000194171
-2.20176e-05
0.000185437
-2.11708e-05
0.000166758
-1.76542e-05
0.000132177
-1.68892e-05
0.000112038
-1.55907e-05
0.000104661
-1.34719e-05
9.53016e-05
-1.03372e-05
8.52706e-05
-6.66356e-06
6.58512e-05
-6.48669e-07
4.15819e-05
2.50514e-06
8.2356e-06
3.76181e-06
-1.46423e-05
1.51482e-06
-2.49984e-05
-2.13109e-06
-2.84492e-05
-3.54937e-06
-2.39133e-05
-1.66341e-06
-1.02985e-05
1.00952e-06
5.69575e-06
2.69434e-06
1.43988e-05
3.66985e-06
2.17696e-05
4.57873e-06
2.54607e-05
5.07018e-06
2.17231e-05
4.48007e-06
1.29054e-05
9.85632e-06
-9.60336e-06
2.63511e-05
-5.40568e-05
5.50788e-05
-0.00010574
9.19443e-05
-0.000144092
0.00013016
-0.000159175
0.000166637
-0.00015528
0.000201458
-0.000141476
0.000229367
-0.000120015
0.00025454
-9.83494e-05
0.000284307
-8.01143e-05
0.000322823
-6.69021e-05
0.000342923
-4.50433e-05
0.000317817
-1.3123e-05
0.00026183
3.31769e-05
0.000184512
7.04965e-05
5.31338e-05
0.000105436
-5.53307e-05
0.000123992
-9.86071e-05
0.000106097
-0.000125558
8.84194e-05
-0.000177052
8.85073e-05
-0.000192733
0.00010141
-0.000189853
8.9458e-05
-0.000161026
6.66364e-05
-0.000128424
3.25875e-05
-0.000103764
1.90763e-07
-8.59421e-05
-3.05316e-05
-6.8e-05
-6.11865e-05
-4.85138e-05
-8.24734e-05
-3.66756e-05
-9.2158e-05
-2.59643e-05
-9.58604e-05
-1.6518e-05
-8.89803e-05
-6.63014e-06
-8.89359e-05
8.85349e-06
-0.000100144
3.24611e-05
-0.000107688
6.1075e-05
-0.000109756
8.34151e-05
-0.00010796
9.63113e-05
-0.000107839
-0.000106684
9.3877e-05
-0.000204835
0.000213877
-0.000154088
0.000172428
-0.000132579
0.000125276
-0.000136308
0.00011274
-0.000142935
0.000105161
-0.000152868
9.88052e-05
-0.000154427
8.95801e-05
-0.000152948
7.69332e-05
-0.000148213
6.45368e-05
-0.000140595
5.31919e-05
-0.000132143
4.43563e-05
-0.000122197
3.82325e-05
-0.000109222
3.38511e-05
-9.5391e-05
3.04041e-05
-8.3697e-05
2.81399e-05
-7.42866e-05
2.70516e-05
-6.52296e-05
2.65871e-05
-5.60447e-05
2.55733e-05
-5.36517e-05
2.4897e-05
-5.40181e-05
3.03311e-05
-5.60927e-05
3.76356e-05
-6.13419e-05
4.82796e-05
-6.98424e-05
6.38842e-05
-7.55556e-05
8.15274e-05
-7.64838e-05
9.62132e-05
-7.36445e-05
0.000107088
-6.48221e-05
0.00010745
-5.18086e-05
9.65029e-05
-4.23163e-05
8.65132e-05
-3.84833e-05
8.1752e-05
-3.52226e-05
7.85039e-05
-3.19472e-05
7.58605e-05
-2.91156e-05
7.56837e-05
-2.605e-05
8.03786e-05
-1.93833e-05
8.53612e-05
-1.02871e-05
8.64771e-05
9.08157e-07
8.81618e-05
1.33907e-05
9.24842e-05
2.67497e-05
9.75529e-05
3.87168e-05
0.000108531
5.30065e-05
0.000125608
6.71378e-05
0.000139596
7.67912e-05
0.00014892
8.30924e-05
0.000155091
8.1682e-05
0.00015906
7.65729e-05
0.00016308
6.45944e-05
0.000170078
4.353e-05
0.000182171
1.90562e-05
0.000193644
1.0329e-06
0.000203118
-8.65616e-06
0.000208185
-1.35535e-05
0.000208838
-1.72621e-05
0.000206872
-2.04202e-05
0.000202083
-2.21614e-05
0.000192624
-2.05712e-05
0.000171382
-1.68792e-05
0.000133851
-1.60453e-05
0.000114568
-1.4443e-05
0.0001063
-1.18536e-05
9.67918e-05
-8.46114e-06
8.55594e-05
-4.1802e-06
6.74122e-05
1.18132e-06
4.3776e-05
2.61014e-06
1.42908e-05
2.28852e-06
-6.23827e-06
-1.06562e-07
-1.73354e-05
-2.49543e-06
-2.21535e-05
-2.44635e-06
-1.90518e-05
2.70327e-07
-7.04252e-06
3.2392e-06
1.00617e-05
4.99005e-06
1.9162e-05
5.77893e-06
2.51046e-05
6.40862e-06
2.72716e-05
6.42816e-06
2.4268e-05
5.76324e-06
1.67669e-05
1.3508e-05
-6.70585e-06
3.49955e-05
-5.3994e-05
6.76592e-05
-0.000109007
0.000104588
-0.00014644
0.000141499
-0.000157922
0.000177897
-0.000152897
0.000212673
-0.000138165
0.000232431
-0.00011719
0.000250545
-8.45061e-05
0.000268547
-6.16626e-05
0.000306785
-4.24156e-05
0.000329973
-3.45494e-05
0.000327794
-9.60957e-06
0.00026437
3.02983e-05
0.000195428
6.86678e-05
9.35899e-05
0.00010381
-2.51068e-05
0.000119917
-7.99825e-05
0.000102518
-0.000107912
8.08553e-05
-0.000154308
7.76706e-05
-0.000169004
9.12506e-05
-0.000163033
8.32394e-05
-0.00013877
6.28851e-05
-0.000110352
2.94897e-05
-8.84791e-05
-4.03674e-06
-7.16832e-05
-3.8362e-05
-5.45689e-05
-7.24796e-05
-3.40067e-05
-9.4743e-05
-2.41217e-05
-9.92394e-05
-1.58956e-05
-0.000102491
-7.77327e-06
-9.74876e-05
2.57994e-06
-0.000104437
1.7054e-05
-0.000114118
3.70862e-05
-0.000120545
6.09532e-05
-0.00012087
8.17822e-05
-0.000116807
9.37056e-05
-0.000117046
-0.000117924
8.62624e-05
-0.00019636
0.000224684
-0.00015432
0.000190369
-0.00013768
0.000142331
-0.000141675
0.000129775
-0.000147467
0.000121568
-0.000154595
0.000112589
-0.000155595
0.000101278
-0.00015435
8.73732e-05
-0.000150148
7.37095e-05
-0.000144737
6.15964e-05
-0.000139195
5.25455e-05
-0.000131556
4.67139e-05
-0.000120294
4.29477e-05
-0.000106884
4.03972e-05
-9.34846e-05
3.83487e-05
-8.17636e-05
3.63518e-05
-7.21585e-05
3.4745e-05
-6.28773e-05
3.35258e-05
-5.70111e-05
3.13228e-05
-5.76859e-05
3.40497e-05
-5.95717e-05
4.06401e-05
-6.36703e-05
4.9117e-05
-6.95554e-05
6.08124e-05
-7.26309e-05
7.32445e-05
-7.28719e-05
8.42537e-05
-6.95712e-05
9.18138e-05
-6.14512e-05
9.19015e-05
-5.3078e-05
8.77437e-05
-4.88125e-05
8.55923e-05
-4.58769e-05
8.34587e-05
-4.31902e-05
8.18183e-05
-4.34775e-05
8.50199e-05
-4.20227e-05
9.34756e-05
-3.7291e-05
9.77738e-05
-2.90905e-05
9.71603e-05
-1.90704e-05
9.99285e-05
-1.09727e-05
0.000109073
2.63185e-06
0.000129599
2.18862e-05
0.000153222
4.91543e-05
0.000173554
7.29068e-05
0.00018727
9.12314e-05
0.000195765
0.000101677
0.000197827
0.000102908
0.000202432
9.64419e-05
0.000206714
8.35735e-05
0.00020573
6.3584e-05
0.000202437
3.62734e-05
0.000197276
1.13679e-05
0.000201453
-4.51662e-06
0.000207968
-1.17053e-05
0.000212203
-1.51441e-05
0.000213992
-1.80997e-05
0.000213089
-2.0849e-05
0.000208675
-2.21404e-05
0.000199008
-2.00981e-05
0.000176696
-1.6258e-05
0.00013764
-1.52753e-05
0.000117334
-1.36415e-05
0.000107621
-1.10344e-05
9.79689e-05
-7.58864e-06
8.53125e-05
-2.87421e-06
6.91033e-05
4.48798e-07
4.60384e-05
4.47068e-08
1.99185e-05
-1.5556e-06
-2.95099e-07
-2.7767e-06
-1.3664e-05
-2.61274e-06
-2.01287e-05
-1.73976e-08
-1.76086e-05
5.06187e-06
-5.336e-06
7.27368e-06
1.40359e-05
7.75576e-06
2.56721e-05
7.94013e-06
3.09241e-05
7.8972e-06
3.01114e-05
7.51883e-06
2.71184e-05
7.00284e-06
2.03977e-05
1.76853e-05
-4.29388e-06
4.36556e-05
-5.25848e-05
7.99885e-05
-0.000107859
0.00011776
-0.00014653
0.000152493
-0.000158832
0.000188245
-0.000154736
0.000221792
-0.000141118
0.000240603
-0.000118052
0.000244064
-8.04526e-05
0.00025873
-5.03394e-05
0.000279683
-2.98285e-05
0.000319855
-1.45495e-05
0.000322358
1.68863e-06
0.000270217
2.95938e-05
0.000201217
6.99322e-05
0.000121985
0.000106656
4.9298e-06
0.000122351
-6.17214e-05
0.000101393
-9.07409e-05
7.40273e-05
-0.000128308
6.7235e-05
-0.000146411
7.75216e-05
-0.000138888
7.27621e-05
-0.000116301
5.40814e-05
-9.0173e-05
2.39545e-05
-6.96201e-05
-8.16759e-06
-5.51561e-05
-4.28054e-05
-4.05278e-05
-7.89867e-05
-2.12843e-05
-0.000102158
-1.33806e-05
-0.000101857
-7.02198e-06
-0.000105045
4.75759e-07
-0.000102131
1.17723e-05
-0.000117363
2.498e-05
-0.000131607
4.17173e-05
-0.000135898
6.04829e-05
-0.000133628
7.74315e-05
-0.0001259
8.7765e-05
-0.00012437
-0.000124494
7.73752e-05
-0.000176421
0.000218656
-0.000154632
0.000209986
-0.000138577
0.00016024
-0.000142676
0.000143548
-0.000147671
0.000135627
-0.000152578
0.000124873
-0.000153744
0.000112052
-0.000152575
9.68578e-05
-0.000148955
8.17839e-05
-0.000145151
6.89999e-05
-0.000141178
5.97787e-05
-0.000135585
5.39997e-05
-0.000127625
5.12615e-05
-0.000117215
5.06344e-05
-0.000104479
5.02756e-05
-9.11272e-05
4.84746e-05
-7.96018e-05
4.57715e-05
-6.98971e-05
4.34562e-05
-6.13961e-05
4.11456e-05
-6.03973e-05
3.98108e-05
-6.24584e-05
4.50669e-05
-6.53261e-05
5.25237e-05
-6.89674e-05
6.14959e-05
-7.07628e-05
7.1092e-05
-7.06559e-05
7.97358e-05
-6.73571e-05
8.54736e-05
-6.17751e-05
8.70408e-05
-5.80803e-05
8.76772e-05
-5.56343e-05
8.7904e-05
-5.36625e-05
8.8259e-05
-5.62565e-05
9.55253e-05
-5.73667e-05
0.000107295
-5.47734e-05
0.00011148
-4.81301e-05
0.000110147
-4.47252e-05
0.000118777
-4.35506e-05
0.000146195
-3.24697e-05
0.000179612
-1.10453e-05
0.000205371
2.41683e-05
0.000218009
5.89648e-05
0.000218393
8.59674e-05
0.000216942
0.000105117
0.000216582
0.000114993
0.000217697
0.000116103
0.000221964
0.000108434
0.000230223
9.36192e-05
0.000234651
6.74001e-05
0.000235483
3.32487e-05
0.000234741
5.50922e-06
0.000228474
-1.04755e-05
0.000219235
-1.54424e-05
0.000217621
-1.7553e-05
0.000218933
-1.96498e-05
0.000218256
-2.18171e-05
0.000214193
-2.2482e-05
0.000204437
-1.9986e-05
0.000181766
-1.61222e-05
0.000141646
-1.51405e-05
0.000120108
-1.35037e-05
0.000109473
-1.10609e-05
9.88461e-05
-7.92888e-06
8.5511e-05
-4.21381e-06
7.17594e-05
-4.42997e-06
4.91878e-05
-5.49128e-06
2.29396e-05
-5.41136e-06
1.00209e-06
-4.32707e-06
-1.50187e-05
-2.19015e-06
-2.19407e-05
2.51665e-06
-1.91935e-05
1.09665e-05
-6.03062e-06
1.24298e-05
1.73826e-05
1.12943e-05
3.33031e-05
9.85999e-06
3.82985e-05
8.90603e-06
3.46012e-05
8.15853e-06
3.02626e-05
8.0297e-06
2.35175e-05
2.11852e-05
-1.44017e-06
4.9295e-05
-4.93851e-05
8.69864e-05
-0.000105573
0.000125594
-0.000146213
0.000160162
-0.000162048
0.000195756
-0.000160444
0.00022849
-0.000148911
0.000249231
-0.000124816
0.00023973
-8.65661e-05
0.00024435
-4.94783e-05
0.000252615
-2.46589e-05
0.000297064
-7.734e-07
0.000307355
1.53648e-05
0.000277591
3.83488e-05
0.000205003
7.53118e-05
0.000136974
0.000112399
3.2619e-05
0.000130887
-4.4695e-05
0.000104531
-7.93823e-05
7.09494e-05
-0.000106612
6.00696e-05
-0.000123654
6.31697e-05
-0.00011395
5.94128e-05
-9.60793e-05
4.22841e-05
-7.31585e-05
1.75595e-05
-5.46415e-05
-1.1229e-05
-4.12631e-05
-4.41629e-05
-2.82614e-05
-8.12499e-05
-1.1334e-05
-0.000104186
-5.16988e-06
-0.000101649
-3.00286e-07
-0.000104707
6.18829e-06
-0.000103618
1.81693e-05
-0.000123664
3.31645e-05
-0.000142759
4.74126e-05
-0.000148951
6.09144e-05
-0.000144383
7.39036e-05
-0.000133872
8.28411e-05
-0.000129948
-0.000127845
7.40215e-05
-0.000129494
0.000203799
-0.000147179
0.000220007
-0.000134247
0.00018085
-0.000138808
0.000153941
-0.000143937
0.000145827
-0.000147777
0.000135113
-0.000148698
0.000120887
-0.000147121
0.00010466
-0.000144846
8.88211e-05
-0.000142697
7.59327e-05
-0.000139604
6.6211e-05
-0.000135312
6.04064e-05
-0.000130434
5.85354e-05
-0.000124189
6.01938e-05
-0.000114502
6.24712e-05
-0.000101459
6.25662e-05
-8.80932e-05
5.97148e-05
-7.67893e-05
5.58337e-05
-6.73968e-05
5.24977e-05
-6.28255e-05
4.94723e-05
-6.40429e-05
5.16058e-05
-6.64665e-05
5.76172e-05
-6.87421e-05
6.53526e-05
-7.01512e-05
7.34995e-05
-6.98367e-05
8.06682e-05
-6.74924e-05
8.57268e-05
-6.47835e-05
8.88604e-05
-6.32538e-05
9.13717e-05
-6.29877e-05
9.5039e-05
-6.67773e-05
0.000106045
-7.15523e-05
0.000120689
-7.07885e-05
0.000126467
-6.54809e-05
0.000125568
-6.96874e-05
0.000139357
-7.71778e-05
0.000182554
-7.64783e-05
0.000228465
-5.63255e-05
0.000257037
-2.2833e-05
0.000262421
1.4439e-05
0.000251852
4.96243e-05
0.000234461
7.931e-05
0.000225469
9.88223e-05
0.000221494
0.000108416
0.000215973
0.000108625
0.000217951
0.000101299
0.000228778
8.70811e-05
0.000234616
6.18582e-05
0.000240022
2.67967e-05
0.000250768
-6.14878e-07
0.000253932
-1.43012e-05
0.000246349
-1.85148e-05
0.000234308
-2.07075e-05
0.00022652
-2.2138e-05
0.000223267
-2.36409e-05
0.000218854
-2.38562e-05
0.000208907
-2.15798e-05
0.000186948
-1.68841e-05
0.000148138
-1.58486e-05
0.000124974
-1.41943e-05
0.00011234
-1.20664e-05
9.94166e-05
-1.00057e-05
8.69789e-05
-8.19286e-06
7.36185e-05
-8.77439e-06
4.84644e-05
-9.27337e-06
2.23619e-05
-7.55908e-06
-2.32249e-06
-5.26841e-06
-2.01644e-05
-2.10432e-06
-2.66085e-05
3.38419e-06
-2.30197e-05
1.3421e-05
-8.7745e-06
1.5654e-05
1.85539e-05
1.38229e-05
3.9537e-05
1.12381e-05
4.54917e-05
9.26967e-06
3.96418e-05
8.4003e-06
3.33935e-05
8.85333e-06
2.61444e-05
2.38286e-05
1.29726e-06
5.33177e-05
-4.69613e-05
9.21274e-05
-0.000104898
0.000130831
-0.000148302
0.00016506
-0.000167348
0.0001993
-0.000168846
0.000230469
-0.000160069
0.000251432
-0.000137728
0.000237359
-9.92946e-05
0.000229298
-5.64879e-05
0.000235219
-2.54042e-05
0.000253801
8.86593e-07
0.000294139
2.69675e-05
0.000275002
5.17941e-05
0.000207291
8.42836e-05
0.000144411
0.000120684
5.7461e-05
0.000142576
-2.80368e-05
0.000112741
-6.92261e-05
7.13324e-05
-9.11292e-05
5.67639e-05
-0.00010444
5.36777e-05
-9.45977e-05
4.83881e-05
-7.85171e-05
3.33189e-05
-6.01143e-05
1.20653e-05
-4.40227e-05
-1.33833e-05
-3.11272e-05
-4.4815e-05
-1.75053e-05
-8.24386e-05
-4.25991e-06
-9.93017e-05
7.7267e-07
-0.000100514
4.82392e-06
-0.00010308
1.0954e-05
-0.000103932
2.31406e-05
-0.000125815
3.7575e-05
-0.000146563
5.07404e-05
-0.000154486
6.18257e-05
-0.000149263
7.2731e-05
-0.000138226
8.1626e-05
-0.000132702
-0.000128357
7.65331e-05
-5.77782e-05
0.000216711
-0.000109962
0.000211914
-0.000122972
0.000198894
-0.000130489
0.000162211
-0.000136721
0.000151553
-0.000140365
0.000141455
-0.000141492
0.000127755
-0.000140885
0.000111761
-0.000140153
9.60673e-05
-0.000138656
8.23289e-05
-0.000135908
7.18402e-05
-0.000132349
6.55894e-05
-0.00012954
6.50157e-05
-0.000127363
6.84356e-05
-0.000121875
7.36498e-05
-0.000111273
7.70619e-05
-9.72258e-05
7.57484e-05
-8.39114e-05
7.09446e-05
-7.34348e-05
6.59888e-05
-6.62545e-05
6.21639e-05
-6.50799e-05
6.09327e-05
-6.66023e-05
6.46544e-05
-6.87193e-05
7.10562e-05
-7.00498e-05
7.85138e-05
-6.97985e-05
8.48007e-05
-6.84477e-05
8.98162e-05
-6.78422e-05
9.41431e-05
-6.95319e-05
0.000101142
-7.40431e-05
0.0001146
-8.13455e-05
0.000131086
-8.314e-05
0.000141251
-8.0566e-05
0.000143051
-8.88174e-05
0.000157305
-0.000106784
0.000212194
-0.000115543
0.000273634
-0.000106243
0.000314614
-8.23188e-05
0.000325442
-5.05452e-05
0.000314245
-1.52501e-05
0.000289393
2.06016e-05
0.000262789
6.05005e-05
0.00022991
8.5658e-05
0.000204162
9.14028e-05
0.000194383
8.72026e-05
0.000189005
8.16497e-05
0.000203347
6.90864e-05
0.000216118
4.36631e-05
0.000230887
1.14076e-05
0.0002483
-1.27643e-05
0.000260543
-2.37031e-05
0.000264628
-2.50414e-05
0.000254477
-2.47807e-05
0.000241085
-2.58622e-05
0.000230885
-2.712e-05
0.000223611
-2.75307e-05
0.000213837
-2.39792e-05
0.000192344
-1.93191e-05
0.000152405
-1.80198e-05
0.000128258
-1.60239e-05
0.000113674
-1.3655e-05
9.93691e-05
-1.16547e-05
8.97777e-05
-9.76244e-06
7.14134e-05
-9.57648e-06
4.33825e-05
-8.34072e-06
1.78595e-05
-5.83253e-06
-8.16302e-06
-4.26846e-06
-2.50055e-05
-2.06084e-06
-2.99472e-05
2.61913e-06
-2.55914e-05
1.18374e-05
-1.07338e-05
1.48725e-05
1.7599e-05
1.36736e-05
4.28666e-05
1.12164e-05
4.98797e-05
8.96168e-06
4.32961e-05
8.32972e-06
3.55477e-05
9.66327e-06
2.7731e-05
2.58395e-05
2.98099e-06
5.59908e-05
-4.46851e-05
9.57292e-05
-0.000103786
0.000134783
-0.000151451
0.000167707
-0.0001755
0.000199101
-0.000179987
0.000226656
-0.000174712
0.000243333
-0.000155676
0.000227721
-0.000117435
0.000215183
-7.17831e-05
0.000218512
-3.6735e-05
0.000221803
-8.09512e-06
0.000267869
2.72138e-05
0.000262997
6.21569e-05
0.000206184
9.31323e-05
0.000147741
0.000131412
7.71363e-05
0.000156974
-1.13446e-05
0.000124986
-5.8802e-05
7.51275e-05
-7.96786e-05
5.6382e-05
-8.90525e-05
4.83458e-05
-8.0816e-05
4.10636e-05
-6.69395e-05
2.71563e-05
-5.15436e-05
8.16038e-06
-3.66895e-05
-1.53896e-05
-2.34712e-05
-4.55232e-05
-8.0238e-06
-8.47782e-05
8.95606e-07
-9.6366e-05
5.10137e-06
-9.78773e-05
8.61191e-06
-0.000100365
1.47606e-05
-0.000103042
2.6697e-05
-0.00012532
4.06608e-05
-0.000145221
5.32947e-05
-0.000153773
6.30063e-05
-0.000147866
7.31514e-05
-0.000137115
8.22852e-05
-0.000130998
-0.000124671
7.96113e-05
-1.85971e-05
0.000258081
-3.29451e-05
0.000219616
-8.8692e-05
0.00019992
-0.000112103
0.000172017
-0.000123865
0.00015371
-0.000129694
0.000143813
-0.000133245
0.000132812
-0.000134627
0.000117904
-0.00013516
0.000102016
-0.000134323
8.7435e-05
-0.00013095
7.5686e-05
-0.000127232
6.87921e-05
-0.000126576
6.93141e-05
-0.000127235
7.5287e-05
-0.000125796
8.2765e-05
-0.000119103
9.02508e-05
-0.000106238
9.22514e-05
-9.1594e-05
8.82995e-05
-7.92365e-05
8.19964e-05
-7.06148e-05
7.65143e-05
-6.69442e-05
7.36732e-05
-6.60617e-05
7.57904e-05
-6.74978e-05
7.8877e-05
-6.89165e-05
8.50165e-05
-6.91257e-05
9.09428e-05
-6.95662e-05
9.75274e-05
-7.25419e-05
0.000107565
-7.78074e-05
0.000121937
-8.57394e-05
0.000138795
-9.13589e-05
0.000153486
-9.2514e-05
0.000160121
-9.83505e-05
0.000170397
-0.000125345
0.000225582
-0.000147821
0.000307197
-0.000149823
0.000369554
-0.000139589
0.000400497
-0.000120515
0.000399457
-9.66255e-05
0.000374445
-6.36273e-05
0.000331175
-2.1965e-05
0.00027144
1.51176e-05
0.000212257
4.02818e-05
0.000165668
4.85385e-05
0.000140496
4.73724e-05
0.000128754
4.31482e-05
0.000139034
3.32569e-05
0.000157992
1.40262e-05
0.000188519
-1.10513e-05
0.000229323
-3.09003e-05
0.000260025
-3.73204e-05
0.000267473
-3.56403e-05
0.000264339
-3.38771e-05
0.000253831
-3.34201e-05
0.000242928
-3.3778e-05
0.000233589
-3.2759e-05
0.000220734
-2.86888e-05
0.000195333
-2.31925e-05
0.000153693
-2.13991e-05
0.000129376
-1.85506e-05
0.000113229
-1.66096e-05
0.000100127
-1.3419e-05
9.02613e-05
-1.01518e-05
6.51326e-05
-7.23209e-06
3.63863e-05
-4.55248e-06
1.14213e-05
-3.0877e-06
-1.31253e-05
-3.72262e-06
-2.7531e-05
-3.10139e-06
-3.12319e-05
4.00159e-07
-2.6262e-05
6.712e-06
-1.05267e-05
1.11484e-05
1.46751e-05
1.14184e-05
4.34244e-05
9.64646e-06
5.20126e-05
7.8381e-06
4.49357e-05
7.94787e-06
3.63469e-05
1.04554e-05
2.77103e-05
2.65703e-05
3.06987e-06
5.55524e-05
-4.17962e-05
9.57008e-05
-0.000101197
0.00013612
-0.000155008
0.000168326
-0.000186411
0.000195921
-0.000195713
0.00021857
-0.000194733
0.000228453
-0.00017933
0.000211772
-0.000141261
0.000199931
-9.52546e-05
0.00020093
-5.71669e-05
0.000203249
-2.44241e-05
0.000239616
1.65905e-05
0.000241611
5.92191e-05
0.000200005
9.71099e-05
0.000147971
0.000141125
9.20397e-05
0.000173157
5.9665e-06
0.000139569
-4.80243e-05
8.23892e-05
-6.96233e-05
5.84966e-05
-7.69493e-05
4.63615e-05
-7.13642e-05
3.67649e-05
-5.91515e-05
2.34217e-05
-4.53662e-05
5.69365e-06
-3.12249e-05
-1.6961e-05
-1.74835e-05
-4.62032e-05
-1.79468e-06
-8.68201e-05
5.84886e-06
-9.49879e-05
8.8742e-06
-9.33367e-05
1.17044e-05
-9.60638e-05
1.82243e-05
-0.00010181
2.97279e-05
-0.000122863
4.33858e-05
-0.000140109
5.54864e-05
-0.000147413
6.43191e-05
-0.000140906
7.40182e-05
-0.00013077
8.25069e-05
-0.000124754
-0.000116725
7.96116e-05
-8.44501e-06
0.00027828
2.80226e-05
0.000273193
-1.03326e-05
0.00021563
-7.17931e-05
0.000177143
-0.000101626
0.000144261
-0.000115941
0.000139532
-0.000123687
0.000133188
-0.000128593
0.000121354
-0.000131735
0.000106907
-0.000131957
9.22846e-05
-0.000123927
7.70464e-05
-0.000120007
6.6484e-05
-0.000120586
6.7538e-05
-0.000125521
7.71806e-05
-0.000126197
9.00535e-05
-0.000123736
0.000100675
-0.000113829
0.000107493
-9.93677e-05
0.000106547
-8.53491e-05
0.000100246
-7.48505e-05
9.30345e-05
-6.96979e-05
8.85316e-05
-6.72757e-05
9.03442e-05
-6.65819e-05
9.24358e-05
-6.79312e-05
9.78663e-05
-6.95362e-05
0.000104813
-7.28866e-05
0.000114496
-7.85572e-05
0.000128979
-8.55735e-05
0.000145041
-9.25143e-05
0.000161443
-9.67978e-05
0.000173552
-0.000102642
0.000183575
-0.000127265
0.000220416
-0.000164207
0.000315525
-0.000178706
0.000403695
-0.000173125
0.000457668
-0.000163827
0.000474841
-0.000153692
0.000462338
-0.000142414
0.000413799
-0.000111994
0.000334691
-7.1395e-05
0.000238533
-4.01146e-05
0.000160524
-2.43528e-05
0.000107415
-1.34334e-05
7.48674e-05
-7.49318e-06
6.67464e-05
-6.56676e-06
7.6644e-05
-1.05347e-05
9.11189e-05
-2.36921e-05
0.000119571
-4.27218e-05
0.000174601
-5.53254e-05
0.000232875
-5.45146e-05
0.000258384
-5.08076e-05
0.000262254
-4.77402e-05
0.000256842
-4.60873e-05
0.000248467
-4.50019e-05
0.000238373
-4.21898e-05
0.000222327
-3.58719e-05
0.000193244
-2.89801e-05
0.000150165
-2.59841e-05
0.00012838
-2.26304e-05
0.000112217
-1.95881e-05
0.000103255
-1.44429e-05
8.49048e-05
-9.79423e-06
5.55526e-05
-4.91193e-06
2.80875e-05
-2.22413e-06
5.55674e-06
-3.16259e-06
-1.49468e-05
-6.93761e-06
-2.64771e-05
-7.97912e-06
-3.02288e-05
-5.35791e-06
-2.54403e-05
-6.87108e-07
-9.64367e-06
5.27101e-06
1.17465e-05
8.29971e-06
3.94825e-05
7.38367e-06
5.18236e-05
6.41044e-06
4.48445e-05
7.34009e-06
3.577e-05
1.07736e-05
2.61952e-05
2.55548e-05
1.20527e-06
5.33778e-05
-4.08664e-05
9.35922e-05
-0.000102955
0.000134274
-0.000163253
0.00016517
-0.000200219
0.000189602
-0.000214216
0.000208003
-0.000218165
0.000211666
-0.000207969
0.000194736
-0.000171182
0.000184782
-0.000126945
0.000184222
-8.6957e-05
0.000188419
-5.10454e-05
0.000209319
-8.4151e-06
0.000221199
4.28617e-05
0.000191195
9.40774e-05
0.00014954
0.000149763
0.000103366
0.00019076
2.35661e-05
0.000154623
-3.71789e-05
9.27099e-05
-6.13816e-05
6.30091e-05
-6.75505e-05
4.72656e-05
-6.36784e-05
3.50438e-05
-5.34783e-05
2.18364e-05
-4.03906e-05
4.55198e-06
-2.63496e-05
-1.79934e-05
-1.18987e-05
-4.69396e-05
5.13426e-06
-8.80785e-05
9.18672e-06
-9.00238e-05
1.19346e-05
-8.81289e-05
1.45199e-05
-9.07759e-05
2.17349e-05
-0.000100468
3.25417e-05
-0.000118942
4.5386e-05
-0.000131953
5.66963e-05
-0.000136768
6.53194e-05
-0.000130296
7.42963e-05
-0.000120883
8.12139e-05
-0.00011498
-0.000104334
7.52546e-05
-1.46768e-05
0.000251885
3.89792e-05
0.000308651
7.02537e-05
0.000273502
1.68971e-05
0.000194253
-5.57231e-05
0.000142037
-9.33396e-05
0.000121054
-0.000111133
0.000123793
-0.000124255
0.000120989
-0.000130372
0.000109196
-0.000129216
9.16736e-05
-0.000115533
7.01954e-05
-0.000110956
5.66681e-05
-0.000111135
5.90772e-05
-0.000120302
7.39621e-05
-0.000123775
9.41913e-05
-0.000124745
0.000108317
-0.000118942
0.000120019
-0.000106322
0.000123937
-9.14713e-05
0.000119615
-7.8928e-05
0.000111383
-7.20709e-05
0.000104698
-6.96432e-05
0.000106199
-6.87712e-05
0.000110154
-7.0147e-05
0.000116207
-7.23276e-05
0.000123734
-7.64113e-05
0.000134271
-8.25944e-05
0.000150872
-8.89474e-05
0.000166879
-9.48338e-05
0.000181466
-0.00010094
0.000193257
-0.000115101
0.000213629
-0.000156246
0.000290245
-0.000188465
0.000404834
-0.000188427
0.000483539
-0.000174427
0.00051994
-0.000162556
0.00052253
-0.000168161
0.000494485
-0.000173183
0.000413417
-0.000160284
0.000281355
-0.000135353
0.000171437
-0.000110956
0.000104932
-8.45962e-05
6.22043e-05
-5.96716e-05
3.94108e-05
-4.88995e-05
3.64811e-05
-4.4309e-05
4.5645e-05
-4.32203e-05
5.75887e-05
-4.91379e-05
7.94783e-05
-6.54688e-05
0.00012243
-7.95826e-05
0.000186066
-7.83645e-05
0.000231668
-7.15777e-05
0.000249475
-6.65312e-05
0.000250619
-6.35488e-05
0.000245617
-6.05262e-05
0.000236665
-5.49666e-05
0.000218236
-4.31921e-05
0.000180739
-3.64487e-05
0.000142823
-3.16614e-05
0.00012534
-2.8777e-05
0.000112909
-2.34259e-05
0.000101442
-1.64719e-05
7.59968e-05
-1.06737e-05
4.57975e-05
-6.22933e-06
2.09963e-05
-5.11393e-06
1.42611e-06
-9.8029e-06
-1.36082e-05
-1.5413e-05
-2.33474e-05
-1.65913e-05
-2.78066e-05
-1.35908e-05
-2.35235e-05
-7.49096e-06
-8.50719e-06
-8.80799e-07
8.75769e-06
4.52057e-06
3.22948e-05
5.09592e-06
4.86791e-05
5.02632e-06
4.31195e-05
6.7257e-06
3.39534e-05
1.07753e-05
2.35165e-05
2.46385e-05
-2.09027e-06
5.27826e-05
-4.3659e-05
9.28835e-05
-0.000109157
0.000131045
-0.000175128
0.000158551
-0.000217794
0.000179133
-0.000236874
0.000192936
-0.000246789
0.00019098
-0.000243047
0.000174556
-0.000206873
0.000167856
-0.000165459
0.000167239
-0.000124724
0.000171946
-8.66793e-05
0.000179595
-4.29141e-05
0.000198904
2.09693e-05
0.000182916
9.08341e-05
0.000153388
0.00016033
0.000112995
0.000209723
3.42667e-05
0.000170737
-2.61616e-05
0.000104999
-5.35309e-05
6.96037e-05
-6.06952e-05
5.01278e-05
-5.75133e-05
3.58716e-05
-4.83713e-05
2.20073e-05
-3.56777e-05
4.72538e-06
-2.16688e-05
-1.81243e-05
-6.18113e-06
-4.81384e-05
9.84448e-06
-8.61568e-05
1.19267e-05
-8.12841e-05
1.44017e-05
-8.21233e-05
1.71743e-05
-8.49321e-05
2.53016e-05
-9.90703e-05
3.57017e-05
-0.000114548
4.72919e-05
-0.000123628
5.78381e-05
-0.000125336
6.57952e-05
-0.000118073
7.34719e-05
-0.000109061
7.78407e-05
-0.000102615
-8.82015e-05
6.76275e-05
-2.81692e-05
0.000184103
3.24956e-05
0.000299767
8.33611e-05
0.000314981
9.83113e-05
0.00025807
3.24355e-05
0.000159751
-4.83581e-05
0.000101358
-9.29961e-05
0.000100098
-0.000118111
0.00010726
-0.000129797
0.00010018
-0.000128077
8.02357e-05
-0.000108267
5.26177e-05
-0.00010171
3.63206e-05
-0.000100711
4.18608e-05
-0.000110663
6.18794e-05
-0.000118535
9.24729e-05
-0.000121761
0.000113347
-0.000120655
0.000129112
-0.000111399
0.000138774
-9.71698e-05
0.000138543
-8.28607e-05
0.000130721
-7.39713e-05
0.00012135
-7.10492e-05
0.000122774
-7.04723e-05
0.000128508
-7.1849e-05
0.000135443
-7.36696e-05
0.000143348
-7.76748e-05
0.000154578
-8.30938e-05
0.000171734
-8.79757e-05
0.000186438
-9.30245e-05
0.000199135
-0.000101758
0.000213937
-0.00012765
0.000253461
-0.000175577
0.000364326
-0.000191354
0.000475023
-0.000172534
0.000534318
-0.000147077
0.000544064
-0.000135406
0.00053264
-0.000164518
0.000468281
-0.000192796
0.000312602
-0.000204848
0.000199082
-0.000187083
0.000127919
-0.000146255
7.80502e-05
-0.000111076
4.57143e-05
-8.87285e-05
2.80565e-05
-7.77272e-05
2.15257e-05
-7.16374e-05
2.69095e-05
-6.78046e-05
3.76398e-05
-7.16946e-05
5.6567e-05
-8.54622e-05
9.12437e-05
-0.000101517
0.000147221
-0.000104016
0.000197321
-9.80565e-05
0.000225095
-9.14323e-05
0.000235337
-8.6009e-05
0.000235068
-7.92112e-05
0.000225885
-6.55128e-05
0.000199269
-5.21392e-05
0.000158599
-4.50798e-05
0.00013641
-4.04768e-05
0.000123002
-3.46334e-05