/*--------------------------------*- C++ -*----------------------------------*\
  =========                 |
  \\      /  F ield         | OpenFOAM: The Open Source CFD Toolbox
   \\    /   O peration     | Website:  https://openfoam.org
    \\  /    A nd           | Version:  10
     \\/     M anipulation  |
\*---------------------------------------------------------------------------*/
FoamFile
{
    format      ascii;
    class       volVectorField;
    location    "0.400937";
    object      U;
}
// * * * * * * * * * * * * * * * * * * * * * * * * * * * * * * * * * * * * * //

dimensions      [0 1 -1 0 0 0 0];

internalField   nonuniform List<vector> 
16320
(
(-0.447802 0.312008 0)
(-0.459241 0.318947 0)
(-0.463254 0.31852 0)
(-0.485171 0.304426 0)
(-0.514665 0.283409 0)
(-0.531018 0.256698 0)
(-0.538124 0.223611 0)
(-0.5358 0.192032 0)
(-0.53307 0.159633 0)
(-0.527688 0.131125 0)
(-0.518574 0.107868 0)
(-0.508844 0.0913783 0)
(-0.499622 0.0826322 0)
(-0.49063 0.0811722 0)
(-0.483028 0.0863876 0)
(-0.476032 0.0967336 0)
(-0.465085 0.110255 0)
(-0.459659 0.137742 0)
(-0.453483 0.191364 0)
(-0.431104 0.255818 0)
(-0.398951 0.326842 0)
(-0.362327 0.397926 0)
(-0.332527 0.463048 0)
(-0.3058 0.513842 0)
(-0.27721 0.548665 0)
(-0.25092 0.574033 0)
(-0.23033 0.596527 0)
(-0.214565 0.621028 0)
(-0.200727 0.644274 0)
(-0.198396 0.659583 0)
(-0.193013 0.657906 0)
(-0.170761 0.644692 0)
(-0.137467 0.624229 0)
(-0.0948477 0.597487 0)
(-0.045406 0.568037 0)
(0.00840371 0.534707 0)
(0.0626719 0.508245 0)
(0.117185 0.494529 0)
(0.174164 0.49219 0)
(0.231557 0.501149 0)
(0.285309 0.51996 0)
(0.33052 0.547152 0)
(0.365894 0.576364 0)
(0.387713 0.607037 0)
(0.391906 0.633931 0)
(0.375822 0.654614 0)
(0.32954 0.666892 0)
(0.246629 0.667389 0)
(0.142356 0.654552 0)
(0.0491922 0.633977 0)
(-0.0102853 0.612005 0)
(-0.0373931 0.590244 0)
(-0.0486371 0.567999 0)
(-0.0561972 0.543947 0)
(-0.0628466 0.519947 0)
(-0.067742 0.503258 0)
(-0.0729309 0.510832 0)
(-0.0826899 0.544912 0)
(-0.0929911 0.545757 0)
(-0.0862179 0.494819 0)
(-0.0634051 0.3927 0)
(-0.0366128 0.254261 0)
(-0.0166669 0.105491 0)
(-0.00850323 -0.00239597 0)
(0.00433808 -0.0547857 0)
(0.00556834 -0.0783336 0)
(-0.0015685 -0.0889305 0)
(-0.00853638 -0.082837 0)
(-0.00854196 -0.0527705 0)
(0.00195002 0.0111581 0)
(0.00643371 0.0859032 0)
(0.0160265 0.162317 0)
(0.0219722 0.232537 0)
(0.0359363 0.208541 0)
(0.028773 0.0724036 0)
(0.0193549 -0.125831 0)
(0.0483314 -0.21713 0)
(0.0795691 -0.247269 0)
(0.115812 -0.252434 0)
(0.15267 -0.244601 0)
(0.191714 -0.229079 0)
(0.233044 -0.209275 0)
(0.272218 -0.18711 0)
(0.303894 -0.164188 0)
(0.332495 -0.14032 0)
(0.367144 -0.111985 0)
(0.410223 -0.0710687 0)
(0.442174 -0.0105268 0)
(0.442085 0.0598261 0)
(0.368179 0.126212 0)
(0.142289 0.198563 0)
(-0.118528 0.275117 0)
(-0.245713 0.292546 0)
(-0.324515 0.26687 0)
(-0.384067 0.220961 0)
(-0.394419 0.185126 0)
(-0.389105 0.150094 0)
(-0.390377 0.114169 0)
(-0.389489 0.0712677 0)
(-0.38765 0.0144431 0)
(-0.372239 -0.0638722 0)
(-0.338299 -0.15597 0)
(-0.287188 -0.247516 0)
(-0.225433 -0.309573 0)
(-0.160666 -0.314224 0)
(-0.0997569 -0.258218 0)
(-0.0574572 -0.190878 0)
(-0.0185005 -0.164903 0)
(0.0272466 -0.141375 0)
(0.0631966 -0.12651 0)
(0.087997 -0.115852 0)
(0.103955 -0.106958 0)
(0.109339 -0.09194 0)
(-0.428041 0.342777 0)
(-0.445914 0.355438 0)
(-0.45569 0.357589 0)
(-0.484477 0.342441 0)
(-0.514221 0.320683 0)
(-0.532215 0.290819 0)
(-0.540345 0.256519 0)
(-0.539654 0.220928 0)
(-0.538866 0.185884 0)
(-0.53392 0.155626 0)
(-0.524978 0.131518 0)
(-0.515339 0.114801 0)
(-0.506443 0.10603 0)
(-0.498663 0.104624 0)
(-0.492826 0.110319 0)
(-0.488195 0.122232 0)
(-0.4817 0.136988 0)
(-0.477544 0.153374 0)
(-0.477499 0.198597 0)
(-0.467213 0.256926 0)
(-0.44261 0.322402 0)
(-0.41076 0.390151 0)
(-0.382896 0.454534 0)
(-0.358815 0.510519 0)
(-0.33307 0.554661 0)
(-0.309699 0.588576 0)
(-0.292388 0.617835 0)
(-0.284333 0.646323 0)
(-0.28131 0.672845 0)
(-0.278324 0.685696 0)
(-0.261216 0.676981 0)
(-0.233102 0.653914 0)
(-0.196554 0.621598 0)
(-0.151122 0.581348 0)
(-0.102901 0.540601 0)
(-0.0518625 0.510814 0)
(0.0111448 0.490237 0)
(0.0782269 0.47732 0)
(0.141631 0.477189 0)
(0.202864 0.488193 0)
(0.260312 0.506209 0)
(0.310717 0.532085 0)
(0.351833 0.566237 0)
(0.37882 0.601952 0)
(0.386589 0.637379 0)
(0.371095 0.66257 0)
(0.323193 0.675632 0)
(0.237109 0.675555 0)
(0.131416 0.66302 0)
(0.0416644 0.64395 0)
(-0.0129285 0.62467 0)
(-0.0373152 0.606194 0)
(-0.0485884 0.587194 0)
(-0.0573621 0.566191 0)
(-0.0654285 0.545111 0)
(-0.0714952 0.532578 0)
(-0.0759018 0.546691 0)
(-0.0841623 0.576525 0)
(-0.0904834 0.564877 0)
(-0.0763196 0.504375 0)
(-0.052023 0.397251 0)
(-0.0231566 0.256672 0)
(-0.00654784 0.107545 0)
(0.000752332 0.00895964 0)
(0.00729971 -0.0387517 0)
(0.00473379 -0.0600755 0)
(-0.00349644 -0.0694333 0)
(-0.0133715 -0.0630563 0)
(-0.0150365 -0.0352238 0)
(-0.00377183 0.0231745 0)
(0.0175731 0.104802 0)
(0.0286542 0.186029 0)
(0.038448 0.257313 0)
(0.0583419 0.234963 0)
(0.0461465 0.119034 0)
(0.0420434 -0.0888699 0)
(0.0718615 -0.196508 0)
(0.10128 -0.233844 0)
(0.135439 -0.242384 0)
(0.170664 -0.235556 0)
(0.208985 -0.218784 0)
(0.251194 -0.196395 0)
(0.291326 -0.171545 0)
(0.323938 -0.14745 0)
(0.348979 -0.123109 0)
(0.376309 -0.0984193 0)
(0.413776 -0.0650461 0)
(0.446188 -0.0167531 0)
(0.446179 0.05046 0)
(0.383571 0.114699 0)
(0.209606 0.174876 0)
(-0.0448976 0.245303 0)
(-0.196114 0.274197 0)
(-0.290824 0.254901 0)
(-0.350665 0.218451 0)
(-0.358735 0.192529 0)
(-0.347996 0.161353 0)
(-0.341376 0.125133 0)
(-0.332399 0.0745232 0)
(-0.321515 0.00470049 0)
(-0.301455 -0.0870244 0)
(-0.271324 -0.191097 0)
(-0.229068 -0.296528 0)
(-0.17554 -0.37006 0)
(-0.123553 -0.377063 0)
(-0.0747549 -0.317088 0)
(-0.033974 -0.25045 0)
(0.00456154 -0.203386 0)
(0.040242 -0.166043 0)
(0.0723994 -0.146064 0)
(0.0986472 -0.13497 0)
(0.116665 -0.130132 0)
(0.124731 -0.12401 0)
(-0.393753 0.360541 0)
(-0.42541 0.385772 0)
(-0.445025 0.391486 0)
(-0.479713 0.379981 0)
(-0.509267 0.358606 0)
(-0.528691 0.326915 0)
(-0.538819 0.29085 0)
(-0.540966 0.251633 0)
(-0.541816 0.213867 0)
(-0.537074 0.181431 0)
(-0.528013 0.156108 0)
(-0.517792 0.139034 0)
(-0.508129 0.130731 0)
(-0.500328 0.130273 0)
(-0.49566 0.137147 0)
(-0.493988 0.150289 0)
(-0.49344 0.167324 0)
(-0.490119 0.184057 0)
(-0.493651 0.215116 0)
(-0.497506 0.269119 0)
(-0.485644 0.328372 0)
(-0.464846 0.391024 0)
(-0.444873 0.451672 0)
(-0.426016 0.508231 0)
(-0.405369 0.559239 0)
(-0.388049 0.601116 0)
(-0.379012 0.637843 0)
(-0.376052 0.671807 0)
(-0.366684 0.703298 0)
(-0.351625 0.711321 0)
(-0.328669 0.691591 0)
(-0.296826 0.656644 0)
(-0.258296 0.609454 0)
(-0.21064 0.565762 0)
(-0.151156 0.52805 0)
(-0.088412 0.499038 0)
(-0.0282924 0.476645 0)
(0.0406071 0.449411 0)
(0.107115 0.429402 0)
(0.166524 0.433058 0)
(0.22094 0.454624 0)
(0.273439 0.487315 0)
(0.322422 0.530572 0)
(0.359563 0.577228 0)
(0.372995 0.619354 0)
(0.355997 0.652275 0)
(0.304908 0.673255 0)
(0.215986 0.678514 0)
(0.11081 0.667323 0)
(0.0265264 0.651343 0)
(-0.0206046 0.636548 0)
(-0.0398874 0.62285 0)
(-0.0495674 0.607747 0)
(-0.0580911 0.589757 0)
(-0.0666249 0.571262 0)
(-0.0729622 0.562307 0)
(-0.0767446 0.579287 0)
(-0.083115 0.601031 0)
(-0.0859111 0.578459 0)
(-0.0681461 0.509299 0)
(-0.043618 0.397267 0)
(-0.0140556 0.255171 0)
(-0.00226219 0.108156 0)
(0.0040026 0.0214429 0)
(0.00478148 -0.0215915 0)
(0.000489878 -0.0422553 0)
(-0.00532042 -0.05206 0)
(-0.0122976 -0.0470185 0)
(-0.00827707 -0.0208398 0)
(0.00651231 0.0372357 0)
(0.0285954 0.116984 0)
(0.0433758 0.203684 0)
(0.0570147 0.27512 0)
(0.0782883 0.263621 0)
(0.0577999 0.165916 0)
(0.0596171 -0.0565073 0)
(0.0934525 -0.179523 0)
(0.121535 -0.224063 0)
(0.152658 -0.235857 0)
(0.186515 -0.230199 0)
(0.225632 -0.213423 0)
(0.269026 -0.189244 0)
(0.310169 -0.162987 0)
(0.345474 -0.133379 0)
(0.371164 -0.106169 0)
(0.393661 -0.0796602 0)
(0.42115 -0.055221 0)
(0.449824 -0.0174049 0)
(0.447653 0.0428006 0)
(0.388039 0.107652 0)
(0.251095 0.163388 0)
(0.026396 0.215645 0)
(-0.136505 0.247776 0)
(-0.251399 0.233449 0)
(-0.316562 0.206511 0)
(-0.323579 0.190474 0)
(-0.305803 0.163039 0)
(-0.289781 0.126054 0)
(-0.27299 0.0709956 0)
(-0.25389 -0.00436969 0)
(-0.233279 -0.103099 0)
(-0.209581 -0.217556 0)
(-0.17298 -0.340598 0)
(-0.123306 -0.42659 0)
(-0.0837726 -0.435906 0)
(-0.046158 -0.373699 0)
(-0.00603445 -0.305243 0)
(0.0277217 -0.246048 0)
(0.0547932 -0.200898 0)
(0.079358 -0.169965 0)
(0.101793 -0.153954 0)
(0.118961 -0.15007 0)
(0.127332 -0.150005 0)
(-0.330983 0.352723 0)
(-0.390272 0.401269 0)
(-0.425976 0.417691 0)
(-0.467743 0.415551 0)
(-0.499642 0.39656 0)
(-0.52075 0.364235 0)
(-0.533481 0.326578 0)
(-0.538816 0.284402 0)
(-0.540957 0.243826 0)
(-0.536546 0.208526 0)
(-0.527518 0.180885 0)
(-0.516644 0.162963 0)
(-0.505898 0.15536 0)
(-0.497304 0.156924 0)
(-0.492538 0.166163 0)
(-0.492385 0.181367 0)
(-0.496165 0.20094 0)
(-0.499095 0.222157 0)
(-0.503841 0.24484 0)
(-0.516407 0.292673 0)
(-0.52194 0.348189 0)
(-0.515738 0.406305 0)
(-0.50894 0.464798 0)
(-0.499516 0.522418 0)
(-0.485833 0.577841 0)
(-0.473983 0.626316 0)
(-0.466699 0.671311 0)
(-0.457557 0.714594 0)
(-0.440875 0.740137 0)
(-0.419853 0.730386 0)
(-0.390596 0.697916 0)
(-0.35468 0.649681 0)
(-0.30557 0.603964 0)
(-0.24566 0.561971 0)
(-0.185907 0.520843 0)
(-0.124122 0.473177 0)
(-0.0681716 0.429594 0)
(-0.0196494 0.404471 0)
(0.0420762 0.391186 0)
(0.110262 0.402226 0)
(0.17187 0.428083 0)
(0.228913 0.465309 0)
(0.283375 0.512825 0)
(0.32344 0.56323 0)
(0.341191 0.606146 0)
(0.332863 0.640665 0)
(0.285604 0.663699 0)
(0.190375 0.669735 0)
(0.0815632 0.662545 0)
(0.00374325 0.653813 0)
(-0.0337759 0.645601 0)
(-0.0461846 0.638305 0)
(-0.0526907 0.627943 0)
(-0.0596978 0.612956 0)
(-0.0676746 0.596498 0)
(-0.0736175 0.589813 0)
(-0.0762475 0.606688 0)
(-0.0805425 0.620512 0)
(-0.0813682 0.58786 0)
(-0.0634446 0.511294 0)
(-0.0383488 0.394391 0)
(-0.00993771 0.250928 0)
(-0.00274624 0.112009 0)
(-5.70553e-05 0.0350666 0)
(-0.00527366 -0.00579242 0)
(-0.00675468 -0.0299014 0)
(-0.00726484 -0.0426874 0)
(-0.00879131 -0.0389399 0)
(0.0035853 -0.0131131 0)
(0.0228459 0.0473813 0)
(0.0397934 0.129535 0)
(0.0527137 0.217528 0)
(0.0719299 0.291957 0)
(0.0940508 0.294399 0)
(0.0658192 0.211176 0)
(0.0742019 -0.0339199 0)
(0.10928 -0.166415 0)
(0.137124 -0.216613 0)
(0.167356 -0.231905 0)
(0.20004 -0.228128 0)
(0.239223 -0.212926 0)
(0.282024 -0.189255 0)
(0.326342 -0.161517 0)
(0.366342 -0.125809 0)
(0.396655 -0.0916367 0)
(0.413386 -0.0603418 0)
(0.428925 -0.0383529 0)
(0.452888 -0.00896403 0)
(0.448873 0.0384712 0)
(0.387969 0.104585 0)
(0.27149 0.161739 0)
(0.0822821 0.199977 0)
(-0.0774852 0.22479 0)
(-0.208701 0.207593 0)
(-0.280985 0.185935 0)
(-0.292363 0.177368 0)
(-0.272815 0.154666 0)
(-0.249196 0.118534 0)
(-0.226885 0.0620349 0)
(-0.201583 -0.0142512 0)
(-0.177221 -0.112917 0)
(-0.158498 -0.235163 0)
(-0.124176 -0.377868 0)
(-0.0748106 -0.475413 0)
(-0.0464648 -0.484891 0)
(-0.0176145 -0.422931 0)
(0.0232169 -0.353229 0)
(0.0499457 -0.289591 0)
(0.0680591 -0.235661 0)
(0.0852143 -0.196563 0)
(0.101536 -0.173526 0)
(0.116015 -0.167113 0)
(0.122353 -0.169347 0)
(-0.230089 0.305158 0)
(-0.327998 0.390716 0)
(-0.388471 0.429335 0)
(-0.443825 0.442931 0)
(-0.48346 0.431442 0)
(-0.507543 0.401183 0)
(-0.523144 0.362622 0)
(-0.531567 0.317904 0)
(-0.534695 0.274242 0)
(-0.530835 0.23542 0)
(-0.5221 0.205065 0)
(-0.510753 0.185922 0)
(-0.499439 0.179273 0)
(-0.490583 0.183591 0)
(-0.485661 0.196055 0)
(-0.485773 0.214112 0)
(-0.491428 0.236595 0)
(-0.500176 0.262384 0)
(-0.506899 0.288634 0)
(-0.523336 0.325941 0)
(-0.543872 0.380114 0)
(-0.552158 0.437046 0)
(-0.55645 0.495826 0)
(-0.556307 0.557349 0)
(-0.550896 0.616902 0)
(-0.544236 0.670625 0)
(-0.534677 0.719891 0)
(-0.520882 0.756489 0)
(-0.501855 0.762796 0)
(-0.473751 0.738455 0)
(-0.436239 0.696914 0)
(-0.385379 0.649539 0)
(-0.32837 0.604484 0)
(-0.272899 0.554411 0)
(-0.218175 0.494616 0)
(-0.163506 0.444285 0)
(-0.105473 0.410305 0)
(-0.0500163 0.395082 0)
(0.0118539 0.395029 0)
(0.0815906 0.408085 0)
(0.14353 0.429311 0)
(0.203019 0.467034 0)
(0.258984 0.516706 0)
(0.297235 0.566931 0)
(0.310257 0.609614 0)
(0.297837 0.640576 0)
(0.250587 0.657339 0)
(0.16245 0.659116 0)
(0.0606152 0.653475 0)
(-0.0155518 0.649175 0)
(-0.0484559 0.650704 0)
(-0.0549862 0.651934 0)
(-0.0582934 0.646406 0)
(-0.0633511 0.63419 0)
(-0.0699973 0.61918 0)
(-0.0749228 0.613305 0)
(-0.0762452 0.62712 0)
(-0.0797102 0.634423 0)
(-0.0799666 0.593425 0)
(-0.0626234 0.5103 0)
(-0.036624 0.388326 0)
(-0.0139612 0.243712 0)
(-0.0143192 0.119114 0)
(-0.0146822 0.0473244 0)
(-0.0153062 0.00362152 0)
(-0.0106962 -0.0271726 0)
(-0.00743381 -0.0427246 0)
(-0.0046198 -0.0396596 0)
(0.0137797 -0.0137967 0)
(0.0377252 0.0510935 0)
(0.0497017 0.138082 0)
(0.0604141 0.229424 0)
(0.0778714 0.310093 0)
(0.102089 0.326164 0)
(0.0695855 0.250539 0)
(0.085294 -0.0166556 0)
(0.12131 -0.15448 0)
(0.148551 -0.210367 0)
(0.178028 -0.230082 0)
(0.210003 -0.229938 0)
(0.248441 -0.217752 0)
(0.290551 -0.196553 0)
(0.336779 -0.167092 0)
(0.380021 -0.129025 0)
(0.416729 -0.0867208 0)
(0.435846 -0.0472349 0)
(0.442863 -0.0118042 0)
(0.454518 0.0106874 0)
(0.447731 0.0452485 0)
(0.388182 0.105668 0)
(0.279023 0.165616 0)
(0.118728 0.199581 0)
(-0.0241866 0.212568 0)
(-0.168283 0.189313 0)
(-0.24946 0.167317 0)
(-0.267643 0.157019 0)
(-0.248706 0.13894 0)
(-0.219913 0.103795 0)
(-0.19447 0.0495266 0)
(-0.165313 -0.0243058 0)
(-0.136496 -0.118962 0)
(-0.118704 -0.245507 0)
(-0.0826806 -0.408644 0)
(-0.0341726 -0.513041 0)
(-0.013777 -0.520259 0)
(0.0113092 -0.460399 0)
(0.0449194 -0.38754 0)
(0.0671505 -0.323912 0)
(0.0809912 -0.266739 0)
(0.0911929 -0.222309 0)
(0.101799 -0.193188 0)
(0.113494 -0.182428 0)
(0.119416 -0.1835 0)
(-0.118472 0.236151 0)
(-0.224968 0.340205 0)
(-0.320375 0.414261 0)
(-0.399838 0.453447 0)
(-0.455608 0.457872 0)
(-0.48701 0.43416 0)
(-0.506815 0.396165 0)
(-0.517735 0.349522 0)
(-0.521214 0.302592 0)
(-0.517862 0.260482 0)
(-0.509526 0.227329 0)
(-0.498338 0.207361 0)
(-0.48767 0.201913 0)
(-0.480134 0.209493 0)
(-0.476183 0.22549 0)
(-0.476214 0.247128 0)
(-0.48147 0.273005 0)
(-0.492053 0.303192 0)
(-0.504289 0.336225 0)
(-0.521805 0.370366 0)
(-0.546988 0.421385 0)
(-0.567472 0.478214 0)
(-0.580472 0.538287 0)
(-0.587623 0.600989 0)
(-0.589304 0.661001 0)
(-0.585671 0.715667 0)
(-0.576538 0.760504 0)
(-0.562448 0.78203 0)
(-0.539527 0.774391 0)
(-0.501214 0.747685 0)
(-0.450348 0.704375 0)
(-0.397045 0.65576 0)
(-0.343215 0.598971 0)
(-0.289934 0.53466 0)
(-0.231629 0.477309 0)
(-0.173483 0.439834 0)
(-0.120142 0.415457 0)
(-0.0681305 0.396328 0)
(-0.0101415 0.387116 0)
(0.0543283 0.385685 0)
(0.11411 0.396992 0)
(0.176797 0.438275 0)
(0.231328 0.499699 0)
(0.269392 0.561951 0)
(0.278921 0.607888 0)
(0.258621 0.635143 0)
(0.206399 0.64694 0)
(0.123303 0.649363 0)
(0.0336744 0.648314 0)
(-0.0300989 0.648598 0)
(-0.056269 0.655904 0)
(-0.0632173 0.662727 0)
(-0.0664427 0.662069 0)
(-0.0697977 0.652285 0)
(-0.0751695 0.638005 0)
(-0.0803396 0.631771 0)
(-0.0806168 0.644617 0)
(-0.0820255 0.646777 0)
(-0.082433 0.597895 0)
(-0.0652821 0.5071 0)
(-0.0396851 0.379652 0)
(-0.0265632 0.236564 0)
(-0.0261244 0.126285 0)
(-0.0208619 0.0520076 0)
(-0.0179651 0.000223055 0)
(-0.0120517 -0.034619 0)
(-0.00751856 -0.0491746 0)
(-0.00283601 -0.0451233 0)
(0.0164452 -0.018566 0)
(0.0441135 0.0520242 0)
(0.0544863 0.144704 0)
(0.0628073 0.238987 0)
(0.0754848 0.326438 0)
(0.100834 0.35539 0)
(0.0716083 0.28009 0)
(0.0949705 0.00120899 0)
(0.131255 -0.145857 0)
(0.15857 -0.20947 0)
(0.187099 -0.233384 0)
(0.217419 -0.236572 0)
(0.253707 -0.227686 0)
(0.29398 -0.20989 0)
(0.338649 -0.182 0)
(0.381205 -0.14441 0)
(0.422593 -0.0976105 0)
(0.456872 -0.0470519 0)
(0.458968 0.00499126 0)
(0.452603 0.0350197 0)
(0.442399 0.0649832 0)
(0.384123 0.114103 0)
(0.278728 0.173046 0)
(0.140144 0.20818 0)
(0.0206316 0.2112 0)
(-0.128239 0.180832 0)
(-0.222103 0.156983 0)
(-0.247371 0.140685 0)
(-0.231569 0.123497 0)
(-0.200799 0.0880103 0)
(-0.171352 0.0369808 0)
(-0.139996 -0.0317508 0)
(-0.109072 -0.122616 0)
(-0.0883161 -0.250904 0)
(-0.0470813 -0.432339 0)
(-0.0028768 -0.537121 0)
(0.0148743 -0.541943 0)
(0.0348288 -0.485637 0)
(0.062142 -0.412006 0)
(0.0792569 -0.345297 0)
(0.0899673 -0.288354 0)
(0.0969001 -0.242731 0)
(0.10473 -0.210508 0)
(0.115325 -0.195825 0)
(0.123221 -0.19375 0)
(-0.0431399 0.197416 0)
(-0.101149 0.262579 0)
(-0.210292 0.360403 0)
(-0.322581 0.432374 0)
(-0.408192 0.465254 0)
(-0.455585 0.456935 0)
(-0.482689 0.423272 0)
(-0.496536 0.377092 0)
(-0.500297 0.32774 0)
(-0.497501 0.282135 0)
(-0.489835 0.246281 0)
(-0.479848 0.226436 0)
(-0.47135 0.223159 0)
(-0.466572 0.233738 0)
(-0.464621 0.253249 0)
(-0.464851 0.27872 0)
(-0.469104 0.308242 0)
(-0.478797 0.342412 0)
(-0.493327 0.381011 0)
(-0.511174 0.421824 0)
(-0.536662 0.46932 0)
(-0.562414 0.523772 0)
(-0.581715 0.585065 0)
(-0.59462 0.646288 0)
(-0.600323 0.703792 0)
(-0.59898 0.75396 0)
(-0.591587 0.788781 0)
(-0.576312 0.800002 0)
(-0.542282 0.792 0)
(-0.497062 0.763274 0)
(-0.451302 0.716479 0)
(-0.401576 0.658108 0)
(-0.345106 0.591333 0)
(-0.283303 0.523437 0)
(-0.225937 0.475817 0)
(-0.175877 0.441353 0)
(-0.133326 0.412299 0)
(-0.0931093 0.383687 0)
(-0.0490133 0.35874 0)
(-0.000225919 0.340202 0)
(0.0572454 0.341483 0)
(0.125572 0.382852 0)
(0.183429 0.459224 0)
(0.224967 0.54405 0)
(0.232287 0.600408 0)
(0.205155 0.622715 0)
(0.149017 0.627111 0)
(0.071786 0.6307 0)
(-0.00467518 0.640657 0)
(-0.0540583 0.653291 0)
(-0.0714565 0.664548 0)
(-0.074813 0.672867 0)
(-0.0769806 0.673758 0)
(-0.0804129 0.664687 0)
(-0.0859124 0.651062 0)
(-0.0900098 0.64742 0)
(-0.0891795 0.662017 0)
(-0.0917551 0.658082 0)
(-0.0916648 0.599768 0)
(-0.0708046 0.500456 0)
(-0.0453229 0.368953 0)
(-0.0351235 0.233491 0)
(-0.0258721 0.128514 0)
(-0.0170252 0.0482488 0)
(-0.0128888 -0.0106494 0)
(-0.00848011 -0.0446644 0)
(-0.00570434 -0.0563473 0)
(-0.00315521 -0.0506799 0)
(0.0129688 -0.0238933 0)
(0.0389504 0.0504364 0)
(0.0523126 0.153732 0)
(0.0595254 0.24939 0)
(0.0682258 0.339736 0)
(0.0933563 0.377507 0)
(0.0730785 0.295986 0)
(0.104498 0.013811 0)
(0.139855 -0.143068 0)
(0.167983 -0.213869 0)
(0.195706 -0.241786 0)
(0.223308 -0.248247 0)
(0.255652 -0.242639 0)
(0.291892 -0.228673 0)
(0.331771 -0.204708 0)
(0.369689 -0.169975 0)
(0.408972 -0.122163 0)
(0.450178 -0.0641635 0)
(0.456218 -0.00468106 0)
(0.441217 0.0494527 0)
(0.425529 0.0853438 0)
(0.36999 0.125135 0)
(0.271947 0.182807 0)
(0.151404 0.221538 0)
(0.0572085 0.219176 0)
(-0.0892154 0.180205 0)
(-0.193895 0.153275 0)
(-0.227054 0.132024 0)
(-0.216547 0.111352 0)
(-0.187008 0.0758285 0)
(-0.154738 0.026377 0)
(-0.121804 -0.0382106 0)
(-0.0902162 -0.125521 0)
(-0.0599348 -0.255613 0)
(-0.012136 -0.455054 0)
(0.0183765 -0.546141 0)
(0.0379376 -0.551095 0)
(0.0537682 -0.496697 0)
(0.0753501 -0.423561 0)
(0.0884968 -0.356852 0)
(0.0977571 -0.300677 0)
(0.103192 -0.255636 0)
(0.110473 -0.222779 0)
(0.121352 -0.205837 0)
(0.131481 -0.200732 0)
(-0.0191268 0.205884 0)
(-0.00756085 0.20588 0)
(-0.0762507 0.274687 0)
(-0.199015 0.363429 0)
(-0.325674 0.43877 0)
(-0.404227 0.457863 0)
(-0.447041 0.43813 0)
(-0.466878 0.396124 0)
(-0.473474 0.345363 0)
(-0.472403 0.296759 0)
(-0.465533 0.25902 0)
(-0.456933 0.241424 0)
(-0.452188 0.241446 0)
(-0.450992 0.255524 0)
(-0.450685 0.277402 0)
(-0.451573 0.307221 0)
(-0.455331 0.34066 0)
(-0.463083 0.378881 0)
(-0.475802 0.422274 0)
(-0.493739 0.470102 0)
(-0.518489 0.520473 0)
(-0.541038 0.57369 0)
(-0.56212 0.631201 0)
(-0.580224 0.689613 0)
(-0.588823 0.742811 0)
(-0.58927 0.787023 0)
(-0.580993 0.816112 0)
(-0.556599 0.826039 0)
(-0.52103 0.815529 0)
(-0.484226 0.779696 0)
(-0.442478 0.726074 0)
(-0.387911 0.658436 0)
(-0.326172 0.586521 0)
(-0.266512 0.521255 0)
(-0.215141 0.47679 0)
(-0.175018 0.441866 0)
(-0.14648 0.407333 0)
(-0.12236 0.371814 0)
(-0.0946368 0.337538 0)
(-0.0599505 0.314147 0)
(-0.0105851 0.313339 0)
(0.0509319 0.340225 0)
(0.0958102 0.408615 0)
(0.135111 0.505988 0)
(0.144102 0.571431 0)
(0.114243 0.594092 0)
(0.0658303 0.603971 0)
(0.00499421 0.617779 0)
(-0.0547218 0.6371 0)
(-0.0889812 0.657665 0)
(-0.0980261 0.674951 0)
(-0.0976418 0.684556 0)
(-0.0977184 0.684384 0)
(-0.0993076 0.67465 0)
(-0.102777 0.662485 0)
(-0.106258 0.662926 0)
(-0.107269 0.677242 0)
(-0.11022 0.663403 0)
(-0.10576 0.59426 0)
(-0.0783209 0.485907 0)
(-0.0543827 0.353002 0)
(-0.0396804 0.226868 0)
(-0.0213386 0.12287 0)
(-0.00748893 0.0381873 0)
(-0.00623413 -0.0219538 0)
(-0.00612265 -0.0514744 0)
(-0.00614131 -0.0597439 0)
(-0.00702583 -0.0529503 0)
(0.00490752 -0.0257356 0)
(0.0246373 0.0454693 0)
(0.0443397 0.164524 0)
(0.0501806 0.260227 0)
(0.0570843 0.349149 0)
(0.0817464 0.388945 0)
(0.0763659 0.29661 0)
(0.114607 0.0192209 0)
(0.147238 -0.145103 0)
(0.175875 -0.22093 0)
(0.202054 -0.252947 0)
(0.226443 -0.264129 0)
(0.254026 -0.263317 0)
(0.284718 -0.254314 0)
(0.317553 -0.235808 0)
(0.348525 -0.206336 0)
(0.383559 -0.160583 0)
(0.424332 -0.0984138 0)
(0.436638 -0.0310288 0)
(0.420338 0.0457602 0)
(0.395632 0.093743 0)
(0.343671 0.132384 0)
(0.258412 0.192095 0)
(0.155013 0.237522 0)
(0.0856395 0.233144 0)
(-0.0533758 0.186571 0)
(-0.16375 0.154434 0)
(-0.204414 0.128233 0)
(-0.200031 0.102408 0)
(-0.173749 0.0663377 0)
(-0.140725 0.0180055 0)
(-0.107203 -0.0444146 0)
(-0.077711 -0.128608 0)
(-0.0349684 -0.263828 0)
(0.0200958 -0.472953 0)
(0.039016 -0.544153 0)
(0.0569843 -0.548074 0)
(0.0700995 -0.493371 0)
(0.0866444 -0.422644 0)
(0.0968647 -0.357484 0)
(0.105342 -0.303747 0)
(0.110301 -0.260541 0)
(0.118101 -0.228641 0)
(0.129653 -0.211435 0)
(0.140684 -0.204198 0)
(-0.0275807 0.236481 0)
(0.0239912 0.205933 0)
(0.0293198 0.210979 0)
(-0.0510941 0.270159 0)
(-0.18892 0.352902 0)
(-0.318611 0.419472 0)
(-0.39203 0.428246 0)
(-0.428392 0.398827 0)
(-0.442037 0.350773 0)
(-0.444356 0.302161 0)
(-0.437355 0.263651 0)
(-0.430001 0.245906 0)
(-0.429975 0.248921 0)
(-0.433457 0.269307 0)
(-0.43421 0.296291 0)
(-0.435136 0.330327 0)
(-0.439932 0.368686 0)
(-0.446216 0.411254 0)
(-0.456084 0.459009 0)
(-0.470842 0.511954 0)
(-0.49275 0.569349 0)
(-0.513242 0.626782 0)
(-0.530882 0.680541 0)
(-0.548712 0.735422 0)
(-0.558083 0.784329 0)
(-0.556474 0.824309 0)
(-0.543973 0.850759 0)
(-0.522183 0.857798 0)
(-0.494857 0.83953 0)
(-0.463568 0.798355 0)
(-0.420938 0.737902 0)
(-0.358861 0.663076 0)
(-0.297795 0.582638 0)
(-0.244114 0.521634 0)
(-0.196017 0.478729 0)
(-0.165107 0.442896 0)
(-0.150383 0.406458 0)
(-0.143081 0.367211 0)
(-0.133267 0.328281 0)
(-0.113107 0.302592 0)
(-0.0900341 0.290448 0)
(-0.0704682 0.2952 0)
(-0.0607277 0.3346 0)
(-0.0444748 0.418796 0)
(-0.0230467 0.486494 0)
(-0.0300774 0.518419 0)
(-0.0554807 0.5549 0)
(-0.0965523 0.603043 0)
(-0.13231 0.639918 0)
(-0.142914 0.664325 0)
(-0.138886 0.68277 0)
(-0.133627 0.692689 0)
(-0.130828 0.692055 0)
(-0.130714 0.682517 0)
(-0.133068 0.673574 0)
(-0.135925 0.677407 0)
(-0.137274 0.690099 0)
(-0.137524 0.66004 0)
(-0.123299 0.579095 0)
(-0.0893689 0.462981 0)
(-0.0629295 0.333078 0)
(-0.0423465 0.212813 0)
(-0.0171785 0.109509 0)
(-8.3841e-05 0.0245991 0)
(-0.00540277 -0.0308296 0)
(-0.0112173 -0.0536756 0)
(-0.0145502 -0.0601154 0)
(-0.0186287 -0.0529058 0)
(-0.0105451 -0.0248224 0)
(0.00288833 0.0392439 0)
(0.0316419 0.166839 0)
(0.0376696 0.267311 0)
(0.0435159 0.35257 0)
(0.0678394 0.38768 0)
(0.0800305 0.282898 0)
(0.123888 0.0160144 0)
(0.154551 -0.152088 0)
(0.180831 -0.230163 0)
(0.20294 -0.265451 0)
(0.22311 -0.28117 0)
(0.246113 -0.286072 0)
(0.271768 -0.283236 0)
(0.297792 -0.272661 0)
(0.32157 -0.252385 0)
(0.351384 -0.213253 0)
(0.387999 -0.153198 0)
(0.404958 -0.0793208 0)
(0.386397 0.0127658 0)
(0.35457 0.0798931 0)
(0.31119 0.129105 0)
(0.242048 0.19838 0)
(0.156225 0.254201 0)
(0.108127 0.248507 0)
(-0.0215554 0.19873 0)
(-0.133715 0.160051 0)
(-0.180679 0.128736 0)
(-0.181528 0.0973223 0)
(-0.159081 0.060217 0)
(-0.127096 0.0129689 0)
(-0.0936054 -0.0486094 0)
(-0.0675992 -0.131461 0)
(-0.0123218 -0.278934 0)
(0.0425263 -0.472517 0)
(0.0604136 -0.53557 0)
(0.073332 -0.534432 0)
(0.0845415 -0.478433 0)
(0.0970849 -0.411532 0)
(0.104981 -0.349223 0)
(0.112588 -0.298635 0)
(0.118049 -0.257877 0)
(0.126162 -0.22791 0)
(0.137696 -0.211665 0)
(0.147376 -0.202504 0)
(-0.03779 0.264314 0)
(0.0184587 0.239169 0)
(0.0693026 0.20658 0)
(0.0619699 0.200598 0)
(-0.0228779 0.237942 0)
(-0.175718 0.316843 0)
(-0.304877 0.373077 0)
(-0.373959 0.372989 0)
(-0.404075 0.337146 0)
(-0.413399 0.290626 0)
(-0.408483 0.249454 0)
(-0.40154 0.227697 0)
(-0.402476 0.235073 0)
(-0.407767 0.267478 0)
(-0.411626 0.306815 0)
(-0.41444 0.346055 0)
(-0.421154 0.390637 0)
(-0.427959 0.438324 0)
(-0.435566 0.490291 0)
(-0.446022 0.547708 0)
(-0.462421 0.610928 0)
(-0.480136 0.674729 0)
(-0.493559 0.73113 0)
(-0.507332 0.783874 0)
(-0.515283 0.82894 0)
(-0.512102 0.865143 0)
(-0.500989 0.886969 0)
(-0.484568 0.888406 0)
(-0.462945 0.866631 0)
(-0.433016 0.820408 0)
(-0.384465 0.751637 0)
(-0.325762 0.669063 0)
(-0.268599 0.581557 0)
(-0.214137 0.523446 0)
(-0.16735 0.479142 0)
(-0.142413 0.441546 0)
(-0.14167 0.405475 0)
(-0.156286 0.361716 0)
(-0.173072 0.315293 0)
(-0.192271 0.275452 0)
(-0.219877 0.246652 0)
(-0.254781 0.239891 0)
(-0.297802 0.248743 0)
(-0.313081 0.294509 0)
(-0.280096 0.35825 0)
(-0.244659 0.407941 0)
(-0.219557 0.473919 0)
(-0.218767 0.561256 0)
(-0.227562 0.627752 0)
(-0.218524 0.662072 0)
(-0.200309 0.68147 0)
(-0.187064 0.691505 0)
(-0.180545 0.691439 0)
(-0.178461 0.685162 0)
(-0.178749 0.682329 0)
(-0.177797 0.690417 0)
(-0.177713 0.692649 0)
(-0.171537 0.643341 0)
(-0.142953 0.550157 0)
(-0.106199 0.432273 0)
(-0.0753926 0.308425 0)
(-0.0495489 0.191559 0)
(-0.0198278 0.089068 0)
(-0.00815239 0.00907291 0)
(-0.0191033 -0.0343373 0)
(-0.0284495 -0.0497332 0)
(-0.0317784 -0.0569691 0)
(-0.0367218 -0.0503283 0)
(-0.0326181 -0.0220979 0)
(-0.020824 0.0341848 0)
(0.0130593 0.154581 0)
(0.0254395 0.268154 0)
(0.0304719 0.348126 0)
(0.0550837 0.373206 0)
(0.0833771 0.257053 0)
(0.129262 -0.00131797 0)
(0.156469 -0.164579 0)
(0.178671 -0.240363 0)
(0.197031 -0.277926 0)
(0.213266 -0.298146 0)
(0.231388 -0.308588 0)
(0.251557 -0.312563 0)
(0.270272 -0.312539 0)
(0.286714 -0.306125 0)
(0.3116 -0.276914 0)
(0.342112 -0.22148 0)
(0.357664 -0.145562 0)
(0.333154 -0.0488495 0)
(0.30375 0.0492279 0)
(0.279015 0.119837 0)
(0.227895 0.204612 0)
(0.159018 0.271432 0)
(0.126066 0.264005 0)
(0.00641607 0.214143 0)
(-0.105218 0.169377 0)
(-0.157644 0.132682 0)
(-0.162746 0.0969796 0)
(-0.143197 0.0586035 0)
(-0.113124 0.0118067 0)
(-0.0796756 -0.05 0)
(-0.0558136 -0.134089 0)
(0.00940347 -0.29978 0)
(0.0561643 -0.464171 0)
(0.0802072 -0.521535 0)
(0.0880358 -0.513094 0)
(0.0971884 -0.454522 0)
(0.107109 -0.392424 0)
(0.113255 -0.334602 0)
(0.11999 -0.287213 0)
(0.125726 -0.249208 0)
(0.133521 -0.221453 0)
(0.144068 -0.206064 0)
(0.149918 -0.19395 0)
(-0.0543595 0.284385 0)
(0.00782927 0.276477 0)
(0.064213 0.237193 0)
(0.101636 0.19642 0)
(0.0903098 0.170524 0)
(-0.0063665 0.18149 0)
(-0.169641 0.256136 0)
(-0.292364 0.299154 0)
(-0.354834 0.286775 0)
(-0.378634 0.246058 0)
(-0.376353 0.200675 0)
(-0.366869 0.171952 0)
(-0.362973 0.188416 0)
(-0.366943 0.23931 0)
(-0.378595 0.300531 0)
(-0.387218 0.352594 0)
(-0.397222 0.40446 0)
(-0.406954 0.458505 0)
(-0.414359 0.515337 0)
(-0.421243 0.576565 0)
(-0.431803 0.644233 0)
(-0.444787 0.714637 0)
(-0.453886 0.774821 0)
(-0.464291 0.826431 0)
(-0.470311 0.869269 0)
(-0.46618 0.902422 0)
(-0.456591 0.92081 0)
(-0.443273 0.920515 0)
(-0.424862 0.896869 0)
(-0.394553 0.845477 0)
(-0.341525 0.766912 0)
(-0.290516 0.672057 0)
(-0.237182 0.583597 0)
(-0.178046 0.522729 0)
(-0.129274 0.47372 0)
(-0.106074 0.433671 0)
(-0.123704 0.396763 0)
(-0.177994 0.341694 0)
(-0.24718 0.285027 0)
(-0.318404 0.243846 0)
(-0.391623 0.223742 0)
(-0.480688 0.211618 0)
(-0.555868 0.18894 0)
(-0.567541 0.19185 0)
(-0.525401 0.244789 0)
(-0.463323 0.310734 0)
(-0.401483 0.396718 0)
(-0.356064 0.497019 0)
(-0.331446 0.584331 0)
(-0.307724 0.636974 0)
(-0.280536 0.664299 0)
(-0.260878 0.678753 0)
(-0.249413 0.683786 0)
(-0.243227 0.685084 0)
(-0.23845 0.690423 0)
(-0.233033 0.695201 0)
(-0.228431 0.675789 0)
(-0.206829 0.610626 0)
(-0.165709 0.512183 0)
(-0.124111 0.397744 0)
(-0.0934373 0.280763 0)
(-0.0669685 0.168054 0)
(-0.0447669 0.0692824 0)
(-0.0437204 0.00015219 0)
(-0.0532251 -0.0293773 0)
(-0.0590156 -0.0429023 0)
(-0.0561422 -0.0520877 0)
(-0.0577547 -0.0462649 0)
(-0.0548175 -0.0201495 0)
(-0.0426558 0.0281107 0)
(-0.00993082 0.136938 0)
(0.0151618 0.260102 0)
(0.0194229 0.335513 0)
(0.0451506 0.347564 0)
(0.0853677 0.222814 0)
(0.125895 -0.0311334 0)
(0.149068 -0.17954 0)
(0.167865 -0.250154 0)
(0.182868 -0.290997 0)
(0.195875 -0.317442 0)
(0.209226 -0.334594 0)
(0.223217 -0.345914 0)
(0.234397 -0.357276 0)
(0.243352 -0.366791 0)
(0.263737 -0.346968 0)
(0.285525 -0.29455 0)
(0.291694 -0.218483 0)
(0.262587 -0.116342 0)
(0.246969 0.0195475 0)
(0.249115 0.11686 0)
(0.21438 0.216709 0)
(0.164398 0.290802 0)
(0.138121 0.28046 0)
(0.0271284 0.232318 0)
(-0.0803145 0.18258 0)
(-0.136058 0.14009 0)
(-0.144077 0.100757 0)
(-0.126657 0.0606968 0)
(-0.0983375 0.01386 0)
(-0.0655756 -0.0484378 0)
(-0.0389632 -0.13692 0)
(0.0329659 -0.322019 0)
(0.066115 -0.454159 0)
(0.0954224 -0.502831 0)
(0.100661 -0.485265 0)
(0.108072 -0.424168 0)
(0.115469 -0.36657 0)
(0.121297 -0.314406 0)
(0.127424 -0.270842 0)
(0.132681 -0.235618 0)
(0.139499 -0.209891 0)
(0.148031 -0.194587 0)
(0.148196 -0.177567 0)
(-0.072029 0.290821 0)
(-0.0103267 0.309285 0)
(0.0473191 0.276227 0)
(0.0953655 0.228613 0)
(0.122667 0.169961 0)
(0.102704 0.116132 0)
(-0.0135171 0.111578 0)
(-0.171121 0.162549 0)
(-0.281673 0.183572 0)
(-0.330098 0.15951 0)
(-0.333559 0.109974 0)
(-0.318795 0.0716811 0)
(-0.305692 0.101955 0)
(-0.304591 0.176176 0)
(-0.325573 0.26924 0)
(-0.347391 0.344029 0)
(-0.366221 0.408643 0)
(-0.380991 0.470752 0)
(-0.391119 0.533054 0)
(-0.397087 0.598512 0)
(-0.401666 0.669962 0)