/*--------------------------------*- C++ -*----------------------------------*\
  =========                 |
  \\      /  F ield         | OpenFOAM: The Open Source CFD Toolbox
   \\    /   O peration     | Website:  https://openfoam.org
    \\  /    A nd           | Version:  10
     \\/     M anipulation  |
\*---------------------------------------------------------------------------*/
FoamFile
{
    format      ascii;
    class       surfaceScalarField;
    location    "0.500916";
    object      phi;
}
// * * * * * * * * * * * * * * * * * * * * * * * * * * * * * * * * * * * * * //

dimensions      [1 0 -1 0 0 0 0];

internalField   nonuniform List<scalar> 
31108
(
0.000424464
-4.90225e-05
0.000418445
-4.80395e-05
0.000412743
-4.70582e-05
0.000407384
-4.60358e-05
0.000402383
-4.49491e-05
0.000397759
-4.37836e-05
0.000393505
-4.2529e-05
0.000389621
-4.11842e-05
0.000386086
-3.97513e-05
0.000382887
-3.82382e-05
0.00038001
-3.66564e-05
0.000377421
-3.5018e-05
0.000375097
-3.33362e-05
0.000373001
-3.16247e-05
0.000371119
-2.98935e-05
0.000369409
-2.81548e-05
0.000367866
-2.64119e-05
0.00036645
-2.46742e-05
0.000365146
-2.29388e-05
0.000363954
-2.1211e-05
0.000362812
-1.94856e-05
0.00036175
-1.7761e-05
0.000360737
-1.60334e-05
0.00035975
-1.42958e-05
0.000358786
-1.25435e-05
0.00035784
-1.07697e-05
0.000356904
-8.9691e-06
0.000355969
-7.14082e-06
0.000355022
-5.28646e-06
0.000354067
-3.40555e-06
0.000353099
-1.4885e-06
0.000352113
4.5978e-07
0.000351124
2.41612e-06
0.000350116
4.36984e-06
0.000349098
6.31116e-06
0.000348075
8.22162e-06
0.000347052
1.00808e-05
0.000346034
1.18659e-05
0.000345032
1.35536e-05
0.000344055
1.51197e-05
0.00034311
1.654e-05
0.000342205
1.77917e-05
0.000341345
1.88531e-05
0.000340534
1.97053e-05
0.000339773
2.03337e-05
0.000339065
2.07268e-05
0.000338406
2.08786e-05
0.000337787
2.07873e-05
0.000337199
2.04585e-05
0.000336621
1.99034e-05
1.914e-05
0.000336041
0.00042619
-4.74739e-05
0.000420181
-4.67917e-05
0.000414501
-4.60685e-05
0.000409179
-4.52646e-05
0.000404223
-4.43583e-05
0.000399641
-4.33354e-05
0.000395432
-4.21893e-05
0.000391584
-4.09214e-05
0.000388083
-3.95385e-05
0.000384914
-3.8053e-05
0.00038205
-3.64812e-05
0.000379467
-3.48389e-05
0.000377139
-3.31449e-05
0.00037504
-3.14151e-05
0.00037314
-2.96668e-05
0.000371418
-2.7909e-05
0.000369854
-2.61557e-05
0.000368424
-2.44094e-05
0.000367108
-2.26768e-05
0.000365888
-2.09576e-05
0.000364749
-1.92512e-05
0.000363678
-1.75552e-05
0.000362658
-1.58642e-05
0.000361674
-1.41725e-05
0.000360721
-1.2475e-05
0.000359789
-1.07644e-05
0.00035887
-9.03295e-06
0.000357953
-7.28278e-06
0.000357023
-5.51214e-06
0.000356077
-3.72043e-06
0.000355111
-1.89675e-06
0.000354132
-4.66549e-08
0.000353128
1.79734e-06
0.000352095
3.63895e-06
0.000351038
5.46171e-06
0.000349961
7.24759e-06
0.000348865
8.97605e-06
0.000347756
1.06249e-05
0.000346642
1.21706e-05
0.000345533
1.35895e-05
0.000344436
1.48584e-05
0.000343362
1.59553e-05
0.000342316
1.68609e-05
0.000341307
1.75574e-05
0.00034034
1.80323e-05
0.000339418
1.82762e-05
0.000338543
1.82875e-05
0.00033771
1.80674e-05
0.000336919
1.76243e-05
0.000336155
1.6973e-05
1.61347e-05
0.000335408
0.00042772
-4.59466e-05
0.000421747
-4.55436e-05
0.000416111
-4.5057e-05
0.000410833
-4.44508e-05
0.00040593
-4.37056e-05
0.000401405
-4.2809e-05
0.00039725
-4.17568e-05
0.000393455
-4.05535e-05
0.000389996
-3.92103e-05
0.000386856
-3.77427e-05
0.000384012
-3.61728e-05
0.000381441
-3.4518e-05
0.000379108
-3.28067e-05
0.000376998
-3.10549e-05
0.000375078
-2.92846e-05
0.000373329
-2.75072e-05
0.000371738
-2.57379e-05
0.000370276
-2.3985e-05
0.000368937
-2.22521e-05
0.000367694
-2.05426e-05
0.000366537
-1.88548e-05
0.000365451
-1.71861e-05
0.000364418
-1.55315e-05
0.00036343
-1.38857e-05
0.000362476
-1.22418e-05
0.000361547
-1.05925e-05
0.000360638
-8.93112e-06
0.00035973
-7.25516e-06
0.00035881
-5.56581e-06
0.00035787
-3.85743e-06
0.000356904
-2.11964e-06
0.000355925
-3.66947e-07
0.000354903
1.37854e-06
0.000353844
3.11614e-06
0.000352746
4.83059e-06
0.000351609
6.50308e-06
0.000350438
8.11315e-06
0.000349236
9.6381e-06
0.000348009
1.10546e-05
0.000346767
1.23389e-05
0.00034552
1.34682e-05
0.000344285
1.44209e-05
0.000343062
1.51785e-05
0.000341859
1.57255e-05
0.00034069
1.60506e-05
0.000339562
1.61477e-05
0.000338485
1.60153e-05
0.000337459
1.56597e-05
0.000336482
1.50912e-05
0.000335552
1.4328e-05
1.33941e-05
0.000334668
0.000429071
-4.43842e-05
0.000423134
-4.42324e-05
0.000417555
-4.39613e-05
0.000412348
-4.35319e-05
0.000407521
-4.29296e-05
0.000403072
-4.21433e-05
0.000398992
-4.11708e-05
0.00039526
-4.00214e-05
0.000391857
-3.87047e-05
0.000388756
-3.72497e-05
0.000385939
-3.56689e-05
0.000383372
-3.40059e-05
0.000381037
-3.22656e-05
0.000378908
-3.04951e-05
0.000376961
-2.86954e-05
0.000375182
-2.69022e-05
0.00037355
-2.5118e-05
0.000372048
-2.33606e-05
0.000370666
-2.16304e-05
0.000369388
-1.99328e-05
0.000368198
-1.82671e-05
0.00036708
-1.66296e-05
0.000366024
-1.50159e-05
0.000365022
-1.34196e-05
0.000364062
-1.18333e-05
0.000363131
-1.02483e-05
0.000362223
-8.65815e-06
0.00036132
-7.05898e-06
0.000360401
-5.44879e-06
0.000359463
-3.82179e-06
0.000358496
-2.16653e-06
0.000357509
-5.06989e-07
0.000356473
1.14655e-06
0.000355385
2.78862e-06
0.000354242
4.40438e-06
0.000353044
5.97464e-06
0.000351795
7.47787e-06
0.000350496
8.89132e-06
0.000349156
1.01908e-05
0.000347782
1.13526e-05
0.000346384
1.23534e-05
0.000344976
1.31722e-05
0.000343572
1.37903e-05
0.000342182
1.41935e-05
0.00034082
1.43721e-05
0.000339498
1.43214e-05
0.000338225
1.40427e-05
0.000337014
1.35432e-05
0.000335868
1.28374e-05
0.000334792
1.19455e-05
1.08946e-05
0.000333781
0.000430225
-4.27513e-05
0.000424351
-4.2805e-05
0.000418854
-4.27352e-05
0.000413737
-4.24529e-05
0.000409007
-4.1974e-05
0.000404647
-4.12822e-05
0.00040066
-4.03758e-05
0.000397
-3.92671e-05
0.000393668
-3.79705e-05
0.000390607
-3.6516e-05
0.000387818
-3.49277e-05
0.000385264
-3.32425e-05
0.000382911
-3.1477e-05
0.000380778
-2.96829e-05
0.000378778
-2.78585e-05
0.000376966
-2.60535e-05
0.000375292
-2.42564e-05
0.000373738
-2.25021e-05
0.000372301
-2.07781e-05
0.000370976
-1.91002e-05
0.000369738
-1.74634e-05
0.000368576
-1.58653e-05
0.000367486
-1.43008e-05
0.000366458
-1.27624e-05
0.000365478
-1.12416e-05
0.000364536
-9.72808e-06
0.000363624
-8.21463e-06
0.000362717
-6.69611e-06
0.0003618
-5.16899e-06
0.000360858
-3.61907e-06
0.000359898
-2.04916e-06
0.000358895
-4.80077e-07
0.000357838
1.08735e-06
0.000356718
2.64254e-06
0.00035553
4.16892e-06
0.000354271
5.64765e-06
0.00035294
7.05628e-06
0.000351542
8.37085e-06
0.000350085
9.56624e-06
0.000348572
1.06177e-05
0.00034702
1.15016e-05
0.000345444
1.2196e-05
0.000343852
1.26828e-05
0.000342273
1.2948e-05
0.000340718
1.29827e-05
0.000339202
1.27832e-05
0.000337743
1.23532e-05
0.000336355
1.17015e-05
0.00033505
1.08447e-05
0.000333836
9.80618e-06
8.61583e-06
0.000332718
0.000431206
-4.10052e-05
0.000425405
-4.12171e-05
0.000420037
-4.13216e-05
0.000415025
-4.11625e-05
0.000410402
-4.07896e-05
0.000406153
-4.01725e-05
0.000402244
-3.93234e-05
0.000398692
-3.82345e-05
0.000395412
-3.6964e-05
0.000392404
-3.54822e-05
0.00038965
-3.39135e-05
0.000387092
-3.21592e-05
0.000384749
-3.0425e-05
0.000382546
-2.85531e-05
0.00038055
-2.67569e-05
0.000378669
-2.49127e-05
0.000376943
-2.3124e-05
0.000375331
-2.13779e-05
0.000373828
-1.96691e-05
0.000372433
-1.80194e-05
0.000371134
-1.64229e-05
0.000369924
-1.48769e-05
0.000368793
-1.33747e-05
0.000367732
-1.19073e-05
0.000366728
-1.04637e-05
0.00036577
-9.03257e-06
0.00036485
-7.60542e-06
0.00036394
-6.17582e-06
0.000363017
-4.7325e-06
0.000362076
-3.2661e-06
0.000361111
-1.78289e-06
0.000360098
-3.00044e-07
0.000359018
1.18824e-06
0.000357863
2.66225e-06
0.000356626
4.10985e-06
0.000355299
5.5086e-06
0.000353887
6.83503e-06
0.000352388
8.06409e-06
0.000350804
9.16906e-06
0.000349152
1.01237e-05
0.000347439
1.09029e-05
0.000345682
1.14837e-05
0.000343907
1.18478e-05
0.000342133
1.19803e-05
0.000340378
1.18731e-05
0.00033867
1.15234e-05
0.000337026
1.09358e-05
0.000335462
1.01216e-05
0.000334
9.09939e-06
0.000332654
7.89513e-06
6.54175e-06
0.000331439
0.000431873
-3.88242e-05
0.00042626
-3.94033e-05
0.000420993
-3.97045e-05
0.000416165
-3.96375e-05
0.000411659
-3.93365e-05
0.000407567
-3.8791e-05
0.000403781
-3.79609e-05
0.000400332
-3.69279e-05
0.000397092
-3.55905e-05
0.000394149
-3.41852e-05
0.000391471
-3.24858e-05
0.000388951
-3.08229e-05
0.000386629
-2.89805e-05
0.000384325
-2.71718e-05
0.000382321
-2.53034e-05
0.000380334
-2.34627e-05
0.000378557
-2.17064e-05
0.000376832
-1.9936e-05
0.000375233
-1.82715e-05
0.000373749
-1.66651e-05
0.000372379
-1.5128e-05
0.000371106
-1.36525e-05
0.000369928
-1.22308e-05
0.000368832
-1.08517e-05
0.000367802
-9.50138e-06
0.000366831
-8.16767e-06
0.0003659
-6.83979e-06
0.000364981
-5.50678e-06
0.00036406
-4.15448e-06
0.000363118
-2.77724e-06
0.000362154
-1.38657e-06
0.000361128
1.76648e-08
0.00036003
1.4284e-06
0.000358845
2.83176e-06
0.000357559
4.21035e-06
0.000356162
5.54193e-06
0.000354659
6.80173e-06
0.000353047
7.96023e-06
0.000351332
8.99061e-06
0.00034953
9.86347e-06
0.00034765
1.05515e-05
0.000345713
1.1031e-05
0.000343743
1.1281e-05
0.000341764
1.1287e-05
0.000339806
1.10398e-05
0.000337894
1.05375e-05
0.000336059
9.78569e-06
0.000334319
8.7974e-06
0.000332702
7.5934e-06
0.000331234
6.2023e-06
4.65931e-06
0.000329929
0.000432822
-3.67284e-05
0.000427246
-3.74991e-05
0.000421862
-3.76548e-05
0.000417153
-3.78098e-05
0.000412842
-3.75758e-05
0.000408869
-3.71031e-05
0.000405225
-3.62962e-05
0.000401904
-3.52235e-05
0.000398777
-3.39664e-05
0.000396037
-3.24432e-05
0.000393204
-3.08442e-05
0.000390744
-2.90545e-05
0.000388291
-2.72406e-05
0.000386066
-2.5367e-05
0.000383916
-2.3507e-05
0.000381939
-2.16826e-05
0.000379978
-1.98885e-05
0.000378236
-1.8187e-05
0.000376554
-1.65653e-05
0.000374973
-1.50253e-05
0.000373502
-1.35667e-05
0.000372146
-1.21823e-05
0.000370912
-1.08631e-05
0.000369775
-9.59399e-06
0.000368715
-8.35811e-06
0.000367724
-7.14073e-06
0.000366779
-5.9278e-06
0.000365854
-4.70564e-06
0.000364933
-3.45537e-06
0.000363994
-2.17862e-06
0.000363036
-8.71778e-07
0.000362004
4.51106e-07
0.000360892
1.7905e-06
0.000359676
3.13166e-06
0.000358339
4.45332e-06
0.000356875
5.73368e-06
0.000355284
6.94232e-06
0.00035356
8.04947e-06
0.000351709
9.02324e-06
0.000349742
9.83195e-06
0.000347685
1.04454e-05
0.000345556
1.08371e-05
0.000343376
1.09841e-05
0.000341182
1.087e-05
0.000339006
1.04855e-05
0.000336886
9.82805e-06
0.000334846
8.90432e-06
0.000332924
7.72852e-06
0.000331155
6.32411e-06
0.000329553
4.72169e-06
2.96017e-06
0.000328158
0.000432984
-3.42874e-05
0.000427583
-3.50954e-05
0.00042269
-3.55453e-05
0.000418187
-3.5726e-05
0.00041405
-3.55627e-05
0.000410258
-3.51266e-05
0.000406744
-3.43078e-05
0.000403536
-3.32336e-05
0.00040049
-3.1924e-05
0.000397682
-3.03976e-05
0.000394984
-2.87169e-05
0.000392452
-2.6932e-05
0.000390025
-2.50664e-05
0.000387706
-2.31893e-05
0.000385491
-2.13137e-05
0.000383375
-1.94969e-05
0.000381377
-1.77494e-05
0.000379478
-1.60925e-05
0.000377694
-1.45343e-05
0.000376028
-1.30795e-05
0.000374485
-1.17247e-05
0.000373057
-1.04586e-05
0.000371745
-9.26887e-06
0.000370545
-8.13601e-06
0.000369446
-7.04035e-06
0.00036843
-5.96213e-06
0.000367474
-4.88465e-06
0.00036655
-3.78839e-06
0.000365644
-2.65591e-06
0.000364724
-1.48763e-06
0.000363778
-2.70029e-07
0.000362751
9.74526e-07
0.000361631
2.24952e-06
0.000360389
3.53905e-06
0.000359011
4.81973e-06
0.000357482
6.06571e-06
0.000355793
7.24425e-06
0.000353951
8.32178e-06
0.000351956
9.262e-06
0.000349824
1.00277e-05
0.000347577
1.05862e-05
0.000345238
1.09066e-05
0.000342834
1.09637e-05
0.000340412
1.07382e-05
0.000338002
1.02194e-05
0.000335647
9.40432e-06
0.000333396
8.29979e-06
0.000331283
6.92197e-06
0.000329344
5.29576e-06
0.000327611
3.45548e-06
1.44073e-06
0.000326128
0.0004335
-3.17038e-05
0.00042816
-3.2532e-05
0.000423485
-3.31404e-05
0.000419095
-3.3348e-05
0.000415223
-3.32745e-05
0.000411434
-3.27364e-05
0.000408079
-3.19681e-05
0.000404999
-3.08866e-05
0.000402101
-2.95302e-05
0.000399359
-2.79696e-05
0.000396714
-2.62307e-05
0.00039415
-2.43972e-05
0.000391699
-2.24963e-05
0.000389315
-2.06005e-05
0.000386999
-1.87096e-05
0.000384776
-1.69109e-05
0.000382656
-1.52223e-05
0.000380629
-1.36236e-05
0.000378718
-1.21558e-05
0.000376929
-1.08133e-05
0.000375267
-9.59012e-06
0.000373741
-8.47388e-06
0.000372365
-7.44689e-06
0.000371116
-6.48262e-06
0.000369979
-5.55752e-06
0.000368945
-4.64721e-06
0.000367988
-3.73189e-06
0.000367078
-2.78072e-06
0.000366203
-1.7857e-06
0.000365317
-7.24324e-07
0.000364391
3.88304e-07
0.000363382
1.55874e-06
0.000362262
2.77763e-06
0.000361016
4.02911e-06
0.000359602
5.2865e-06
0.000358007
6.5206e-06
0.000356231
7.69464e-06
0.000354268
8.76922e-06
0.000352121
9.70192e-06
0.000349808
1.04521e-05
0.000347351
1.09794e-05
0.000344782
1.12495e-05
0.000342141
1.12329e-05
0.000339462
1.0907e-05
0.000336801
1.02581e-05
0.000334199
9.28363e-06
0.000331709
7.98904e-06
0.000329387
6.39209e-06
0.000327268
4.51981e-06
0.000325397
2.40835e-06
1.09632e-07
0.000323809
0.000433553
-2.85633e-05
0.000428503
-2.96911e-05
0.000423919
-3.03801e-05
0.000419794
-3.07067e-05
0.000416045
-3.06391e-05
0.000412651
-3.01541e-05
0.000409517
-2.9349e-05
0.000406578
-2.8206e-05
0.000403765
-2.67891e-05
0.000401062
-2.51491e-05
0.000398408
-2.33498e-05
0.000395829
-2.14465e-05
0.000393334
-1.94974e-05
0.000390906
-1.75646e-05
0.000388532
-1.57007e-05
0.000386176
-1.39315e-05
0.000383846
-1.22523e-05
0.000381656
-1.07553e-05
0.000379597
-9.40291e-06
0.000377665
-8.20626e-06
0.000375869
-7.15108e-06
0.000374243
-6.22384e-06
0.000372776
-5.39673e-06
0.00037146
-4.63894e-06
0.000370293
-3.92154e-06
0.000369254
-3.21549e-06
0.000368309
-2.48709e-06
0.000367437
-1.7148e-06
0.000366602
-8.64133e-07
0.000365768
6.13565e-08
0.000364887
1.07324e-06
0.00036392
2.17061e-06
0.000362827
3.34363e-06
0.000361577
4.57234e-06
0.000360145
5.82855e-06
0.000358502
7.07811e-06
0.000356638
8.27776e-06
0.000354548
9.38255e-06
0.000352242
1.0342e-05
0.000349744
1.11086e-05
0.000347063
1.16356e-05
0.000344241
1.18819e-05
0.000341338
1.18122e-05
0.000338379
1.14001e-05
0.000335437
1.06282e-05
0.000332565
9.49238e-06
0.00032981
7.99753e-06
0.000327246
6.16285e-06
0.000324923
4.01624e-06
0.000322896
1.60199e-06
-1.02789e-06
0.000321194
0.000433525
-2.53471e-05
0.000428659
-2.65985e-05
0.000424354
-2.74131e-05
0.000420516
-2.78494e-05
0.000416996
-2.77701e-05
0.000413831
-2.72865e-05
0.00041088
-2.64204e-05
0.000408094
-2.52106e-05
0.000405395
-2.36978e-05
0.000402777
-2.19661e-05
0.000400188
-2.00604e-05
0.000397574
-1.80771e-05
0.000394993
-1.60639e-05
0.000392404
-1.40928e-05
0.000389822
-1.22088e-05
0.000387299
-1.04631e-05
0.000384855
-8.86947e-06
0.000382494
-7.47499e-06
0.00038026
-6.26591e-06
0.000378168
-5.24466e-06
0.00037624
-4.39743e-06
0.000374502
-3.70104e-06
0.000372957
-3.11746e-06
0.000371595
-2.61258e-06
0.000370394
-2.1475e-06
0.000369352
-1.68453e-06
0.000368442
-1.18619e-06
0.000367618
-6.13202e-07
0.000366852
5.66544e-08
0.00036609
8.42573e-07
0.00036528
1.74552e-06
0.000364382
2.76922e-06
0.000363342
3.911e-06
0.000362121
5.13177e-06
0.000360679
6.41692e-06
0.000359
7.71584e-06
0.000357057
8.97885e-06
0.000354846
1.01532e-05
0.000352378
1.11817e-05
0.00034967
1.20054e-05
0.000346751
1.25702e-05
0.000343661
1.28258e-05
0.000340454
1.27298e-05
0.000337188
1.22499e-05
0.000333926
1.13649e-05
0.000330736
1.00672e-05
0.00032769
8.36232e-06
0.000324854
6.26987e-06
0.000322292
3.81536e-06
0.000320074
1.05885e-06
-1.95018e-06
0.000318252
0.000433428
-2.19953e-05
0.000428787
-2.34425e-05
0.000424822
-2.43758e-05
0.000421103
-2.47186e-05
0.000417869
-2.46908e-05
0.000414928
-2.41849e-05
0.000412223
-2.32434e-05
0.000409609
-2.19308e-05
0.000407058
-2.02912e-05
0.000404533
-1.84173e-05
0.000401937
-1.63919e-05
0.000399306
-1.42815e-05
0.000396609
-1.2179e-05
0.000393898
-1.01458e-05
0.000391154
-8.24535e-06
0.000388432
-6.52461e-06
0.000385766
-5.01627e-06
0.000383196
-3.74353e-06
0.000380746
-2.70815e-06
0.000378451
-1.90281e-06
0.000376368
-1.31142e-06
0.00037451
-8.93686e-07
0.000372867
-6.09262e-07
0.000371434
-4.09887e-07
0.000370218
-2.51797e-07
0.000369195
-8.252e-08
0.000368336
1.46066e-07
0.000367598
4.77788e-07
0.000366946
9.38679e-07
0.000366304
1.57358e-06
0.000365598
2.35004e-06
0.000364791
3.31315e-06
0.000363798
4.42852e-06
0.000362644
5.67776e-06
0.000361242
7.01956e-06
0.000359551
8.40628e-06
0.000357544
9.77853e-06
0.000355215
1.10735e-05
0.000352576
1.22221e-05
0.000349648
1.31546e-05
0.000346462
1.38045e-05
0.000343073
1.41109e-05
0.000339533
1.40226e-05
0.000335915
1.34989e-05
0.000332291
1.25143e-05
0.000328739
1.10567e-05
0.000325345
9.13069e-06
0.000322195
6.75626e-06
0.000319354
3.96672e-06
0.000316912
8.1761e-07
-2.62719e-06
0.000314934
0.000432643
-1.82846e-05
0.000428404
-2.00212e-05
0.000424706
-2.10747e-05
0.000421546
-2.15596e-05
0.000418705
-2.15148e-05
0.00041611
-2.09506e-05
0.000413643
-1.98881e-05
0.000411262
-1.84163e-05
0.000408843
-1.66016e-05
0.000406365
-1.45382e-05
0.000403778
-1.23236e-05
0.000401088
-1.00548e-05
0.000398258
-7.82287e-06
0.000395362
-5.70287e-06
0.000392415
-3.76744e-06
0.000389436
-2.07238e-06
0.000386525
-6.51943e-07
0.00038369
4.7166e-07
0.000380989
1.30058e-06
0.000378493
1.84322e-06
0.000376218
2.12723e-06
0.000374197
2.20759e-06
0.000372447
2.13279e-06
0.000370969
1.95772e-06
0.000369753
1.74575e-06
0.000368773
1.5639e-06
0.000367992
1.47042e-06
0.000367364
1.51822e-06
0.000366847
1.73993e-06
0.000366348
2.18148e-06
0.000365821
2.84976e-06
0.000365146
3.74169e-06
0.000364299
4.84939e-06
0.000363253
6.15413e-06
0.000361904
7.59317e-06
0.000360205
9.11855e-06
0.000358138
1.06578e-05
0.000355698
1.21358e-05
0.000352883
1.34681e-05
0.00034972
1.4572e-05
0.000346245
1.53659e-05
0.000342511
1.57757e-05
0.000338597
1.57375e-05
0.000334575
1.52018e-05
0.000330538
1.4135e-05
0.000326573
1.25228e-05
0.000322779
1.03653e-05
0.000319251
7.68603e-06
0.000316085
4.51974e-06
0.000313371
9.2478e-07
-3.01523e-06
0.000311188
0.000431832
-1.46007e-05
0.00042806
-1.66047e-05
0.000424794
-1.78129e-05
0.000422021
-1.83642e-05
0.000419555
-1.83062e-05
0.000417309
-1.76338e-05
0.00041514
-1.64207e-05
0.000412977
-1.47178e-05
0.000410744
-1.2676e-05
0.000408323
-1.03318e-05
0.000405745
-7.88578e-06
0.000402937
-5.39133e-06
0.000399968
-2.98028e-06
0.000396843
-7.31366e-07
0.000393612
1.25996e-06
0.000390356
2.93878e-06
0.000387117
4.26378e-06
0.000383957
5.21822e-06
0.000380977
5.80027e-06
0.000378222
6.02806e-06
0.000375722
5.94627e-06
0.000373534
5.618e-06
0.000371657
5.10796e-06
0.000370122
4.48746e-06
0.000368926
3.81458e-06
0.000368014
3.22719e-06
0.000367356
2.73971e-06
0.000366897
2.44468e-06
0.000366571
2.40505e-06
0.000366273
2.62725e-06
0.000365954
3.15771e-06
0.000365508
3.98875e-06
0.000364873
5.11926e-06
0.000363933
6.50267e-06
0.000362659
8.09197e-06
0.000361001
9.82023e-06
0.000358917
1.15923e-05
0.000356373
1.33309e-05
0.000353372
1.49237e-05
0.000349947
1.62788e-05
0.000346146
1.72905e-05
0.000342029
1.78683e-05
0.000337675
1.79345e-05
0.000333181
1.74261e-05
0.000328657
1.63019e-05
0.000324204
1.45433e-05
0.000319937
1.21427e-05
0.00031597
9.13499e-06
0.000312424
5.5457e-06
0.000309385
1.44243e-06
-3.05852e-06
0.000306945
0.000430665
-1.1022e-05
0.000427366
-1.32667e-05
0.000424737
-1.46483e-05
0.000422382
-1.53058e-05
0.000420413
-1.51672e-05
0.000418574
-1.43697e-05
0.000416816
-1.28773e-05
0.00041496
-1.09421e-05
0.000412977
-8.50098e-06
0.000410501
-5.87602e-06
0.000407805
-3.0767e-06
0.000404867
-2.68896e-07
0.000401694
2.38105e-06
0.000398304
4.80226e-06
0.000394777
6.88313e-06
0.000391163
8.55878e-06
0.00038755
9.78654e-06
0.000384024
1.0546e-05
0.000380683
1.08424e-05
0.000377599
1.07009e-05
0.000374836
1.01831e-05
0.000372443
9.36224e-06
0.000370449
8.3275e-06
0.000368873
7.15999e-06
0.000367685
5.96839e-06
0.000366876
4.86095e-06
0.000366381
3.90975e-06
0.000366144
3.22097e-06
0.000366065
2.84139e-06
0.000366055
2.82611e-06
0.000366022
3.20204e-06
0.000365856
3.98205e-06
0.000365461
5.14982e-06
0.000364758
6.66343e-06
0.000363643
8.45889e-06
0.000362046
1.04567e-05
0.000359939
1.25592e-05
0.000357278
1.46438e-05
0.000354101
1.66031e-05
0.000350395
1.83016e-05
0.000346221
1.96219e-05
0.000341669
2.04498e-05
0.000336818
2.0686e-05
0.00033178
2.02553e-05
0.000326681
1.91036e-05
0.00032165
1.72049e-05
0.000316821
1.45629e-05
0.000312319
1.11886e-05
0.000308292
7.14321e-06
0.000304834
2.47632e-06
-2.69867e-06
0.000302109
0.000429049
-7.64247e-06
0.000426228
-1.00971e-05
0.000424151
-1.18222e-05
0.00042267
-1.24456e-05
0.000421277
-1.23044e-05
0.000420053
-1.12275e-05
0.000418616
-9.48816e-06
0.000417096
-7.07627e-06
0.000415174
-4.28086e-06
0.000412892
-1.13959e-06
0.00041019
2.09914e-06
0.000407204
5.29216e-06
0.000403791
8.30246e-06
0.000400005
1.09596e-05
0.000395967
1.31803e-05
0.000391836
1.48777e-05
0.000387747
1.60041e-05
0.000383762
1.65413e-05
0.000379998
1.65013e-05
0.000376552
1.59234e-05
0.000373472
1.48856e-05
0.000370845
1.34734e-05
0.000368719
1.1801e-05
0.000367094
9.98545e-06
0.000365965
8.15156e-06
0.000365293
6.42927e-06
0.000365033
4.92311e-06
0.00036506
3.75339e-06
0.000365323
2.98417e-06
0.000365675
2.6825e-06
0.000366024
2.89488e-06
0.00036623
3.62268e-06
0.000366179
4.85744e-06
0.000365749
6.55004e-06
0.00036484
8.62843e-06
0.000363371
1.09884e-05
0.000361287
1.35172e-05
0.000358552
1.60677e-05
0.000355162
1.85068e-05
0.000351141
2.06725e-05
0.000346549
2.2416e-05
0.000341479
2.35909e-05
0.000336038
2.40807e-05
0.000330356
2.37879e-05
0.000324585
2.26529e-05
0.000318872
2.06321e-05
0.00031338
1.77368e-05
0.000308256
1.39699e-05
0.000303652
9.39894e-06
0.000299712
4.09971e-06
-1.83848e-06
0.000296572
0.000426694
-4.57211e-06
0.000424816
-7.55901e-06
0.000423841
-9.41809e-06
0.000422942
-1.01979e-05
0.000422195
-9.81111e-06
0.000421531
-8.46276e-06
0.000420699
-6.24652e-06
0.000419503
-3.33381e-06
0.000417841
8.58257e-08
0.000415646
3.80772e-06
0.000412879
7.64427e-06
0.000409589
1.13672e-05
0.000405792
1.48129e-05
0.000401598
1.78041e-05
0.000397119
2.02224e-05
0.000392477
2.19752e-05
0.000387798
2.30072e-05
0.000383247
2.32973e-05
0.000378955
2.28708e-05
0.000375023
2.1775e-05
0.000371565
2.01109e-05
0.000368671
1.79903e-05
0.000366383
1.55539e-05
0.000364724
1.2956e-05
0.000363676
1.03333e-05
0.000363189
7.87784e-06
0.000363204
5.72547e-06
0.000363601
3.95539e-06
0.000364297
2.72758e-06
0.000365121
2.0936e-06
0.000365954
2.11158e-06
0.000366647
2.79797e-06
0.000367034
4.13397e-06
0.000366986
6.06531e-06
0.000366366
8.51325e-06
0.000365084
1.13436e-05
0.00036305
1.44197e-05
0.000360257
1.75879e-05
0.000356651
2.06598e-05
0.000352265
2.3432e-05
0.000347194
2.57324e-05
0.00034153
2.7378e-05
0.0003354
2.82244e-05
0.000328969
2.81475e-05
0.000322411
2.70701e-05
0.000315883
2.4963e-05
0.000309577
2.18071e-05
0.000303692
1.76088e-05
0.000298405
1.2459e-05
0.000293854
6.42776e-06
-3.67704e-07
0.000290207
0.000423212
-2.40855e-06
0.000422727
-5.82655e-06
0.000422648
-7.88752e-06
0.000422994
-8.59511e-06
0.000423283
-8.03508e-06
0.000423449
-6.21173e-06
0.000423188
-3.40227e-06
0.00042244
2.29553e-07
0.000421028
4.42561e-06
0.000418917
8.95335e-06
0.000416032
1.35563e-05
0.000412406
1.79853e-05
0.00040817
2.20089e-05
0.000403417
2.54389e-05
0.000398303
2.81274e-05
0.000392986
2.99757e-05
0.000387596
3.09194e-05
0.00038235
3.0935e-05
0.000377411
3.00585e-05
0.000372914
2.83539e-05
0.000369009
2.59382e-05
0.000365776
2.29644e-05
0.000363292
1.96068e-05
0.000361588
1.60568e-05
0.000360676
1.25051e-05
0.000360438
9.16093e-06
0.000360809
6.18374e-06
0.000361706
3.74356e-06
0.000362931
1.95213e-06
0.000364371
9.24032e-07
0.00036583
7.20811e-07
0.00036713
1.3669e-06
0.000368087
2.84318e-06
0.000368535
5.08774e-06
0.000368304
8.01741e-06
0.000367278
1.14403e-05
0.000365365
1.5231e-05
0.0003625
1.91829e-05
0.000358688
2.30568e-05
0.00035391
2.66226e-05
0.000348258
2.96579e-05
0.000341878
3.19227e-05
0.00033496
3.32321e-05
0.000327654
3.34703e-05
0.000320152
3.25252e-05
0.000312675
3.03397e-05
0.000305442
2.6903e-05
0.000298621
2.22798e-05
0.000292448
1.64798e-05
0.000287142
9.61342e-06
1.83587e-06
0.000282889
0.000418724
-1.5445e-06
0.000419731
-5.39185e-06
0.000420999
-7.62831e-06
0.000422717
-8.18338e-06
0.000424388
-7.19779e-06
0.000425576
-4.76943e-06
0.000426171
-1.13601e-06
0.000425965
3.44786e-06
0.000424858
8.69672e-06
0.000422784
1.42478e-05
0.000419786
1.98512e-05
0.000415881
2.51844e-05
0.000411085
2.99696e-05
0.00040557
3.39745e-05
0.000399586
3.7037e-05
0.000393369
3.90389e-05
0.000387097
3.99033e-05
0.000381006
3.961e-05
0.000375287
3.82052e-05
0.000370101
3.5776e-05
0.000365637
3.24643e-05
0.000362015
2.84607e-05
0.000359322
2.39909e-05
0.000357589
1.92812e-05
0.000356819
1.46208e-05
0.00035689
1.02002e-05
0.000357761
6.24823e-06
0.000359251
2.96227e-06
0.000361186
5.09031e-07
0.000363386
-9.87619e-07
0.000365628
-1.44813e-06
0.000367701
-8.36733e-07
0.000369391
8.28735e-07
0.000370466
3.47832e-06
0.000370768
6.98857e-06
0.000370114
1.11983e-05
0.000368356
1.58786e-05
0.000365475
2.0818e-05
0.000361395
2.57164e-05
0.000356167
3.03047e-05
0.00034988
3.42634e-05
0.000342695
3.73324e-05
0.000334797
3.92727e-05
0.000326408
3.99423e-05
0.000317759
3.91931e-05
0.000309107
3.69701e-05
0.000300702
3.32643e-05
0.000292829
2.81151e-05
0.000285674
2.16149e-05
0.000279452
1.38458e-05
4.92381e-06
0.00027442
0.000412175
-2.7095e-06
0.000415226
-6.89835e-06
0.000418776
-9.08949e-06
0.000422233
-9.40988e-06
0.000425521
-7.77494e-06
0.000427988
-4.48723e-06
0.000429674
3.02837e-07
0.000430322
6.1569e-06
0.000429571
1.27339e-05
0.000427484
1.96714e-05
0.000424154
2.6579e-05
0.000419666
3.30748e-05
0.000414164
3.88134e-05
0.000407844
4.35608e-05
0.000400922
4.71148e-05
0.00039365
4.93416e-05
0.000386272
5.0148e-05
0.000379092
4.95116e-05
0.000372384
4.74904e-05
0.00036638
4.41929e-05
0.000361264
3.98034e-05
0.000357199
3.45544e-05
0.000354276
2.87357e-05
0.000352553
2.2647e-05
0.000351943
1.66126e-05
0.000352436
1.09045e-05
0.000353897
5.75321e-06
0.000356148
1.47083e-06
0.000358955
-1.77911e-06
0.000362101
-3.83471e-06
0.00036534
-4.59799e-06
0.000368402
-4.01444e-06
0.000370994
-2.09789e-06
0.000372869
1.06174e-06
0.000373811
5.32701e-06
0.000373599
1.04881e-05
0.000372084
1.63003e-05
0.00036919
2.2462e-05
0.000364859
2.86338e-05
0.000359082
3.45161e-05
0.000352091
3.96441e-05
0.000343922
4.37518e-05
0.000334854
4.65362e-05
0.000325179
4.77635e-05
0.000315193
4.72979e-05
0.000305186
4.5079e-05
0.000295429
4.11027e-05
0.000286221
3.54117e-05
0.000277848
2.80863e-05
0.000270536
1.92797e-05
9.1097e-06
0.000264538
0.000403454
-6.6547e-06
0.000409324
-1.0972e-05
0.000415338
-1.30746e-05
0.000421218
-1.28036e-05
0.000426469
-1.03038e-05
0.000430774
-5.72308e-06
0.000433703
6.14168e-07
0.000435127
8.12959e-06
0.000434903
1.64954e-05
0.000432995
2.51954e-05
0.000429314
3.37921e-05
0.000424121
4.17675e-05
0.000417669
4.87134e-05
0.00041023
5.43873e-05
0.000402065
5.85751e-05
0.000393504
6.1107e-05
0.000384828
6.18797e-05
0.000376382
6.08509e-05
0.000368502
5.80988e-05
0.00036147
5.37643e-05
0.000355547
4.80701e-05
0.00035092
4.13163e-05
0.000347718
3.38586e-05
0.000345991
2.60888e-05
0.000345712
1.84101e-05
0.000346741
1.11205e-05
0.000349007
4.57588e-06
0.000352203
-9.1862e-07
0.000356123
-5.12863e-06
0.000360459
-7.84577e-06
0.000364937
-8.96547e-06
0.000369183
-8.38385e-06
0.000372853
-6.11811e-06
0.000375684
-2.30907e-06
0.000377354
2.91114e-06
0.00037762
9.2771e-06
0.000376368
1.64623e-05
0.000373417
2.41361e-05
0.000368697
3.19207e-05
0.000362346
3.93223e-05
0.000354437
4.59414e-05
0.000345113
5.1393e-05
0.0003347
5.52086e-05
0.000323511
5.7159e-05
0.000311932
5.70749e-05
0.000300318
5.49066e-05
0.000288968
5.06609e-05
0.000278223
4.43796e-05
0.000268393
3.61553e-05
0.000259805
2.61124e-05
1.4493e-05
0.000252706
0.000391908
-1.41024e-05
0.000401203
-1.84229e-05
0.000410548
-2.01195e-05
0.000419292
-1.89533e-05
0.00042706
-1.51741e-05
0.00043335
-8.86447e-06
0.000437829
-5.69729e-07
0.000440249
9.19286e-06
0.000440538
1.98406e-05
0.000438741
3.08254e-05
0.000434509
4.16096e-05
0.000428333
5.14536e-05
0.000420689
5.9911e-05
0.000411844
6.67209e-05
0.000402129
7.16744e-05
0.000391984
7.45747e-05
0.000381771
7.52937e-05
0.000371863
7.38137e-05
0.000362663
7.01823e-05
0.000354544
6.4601e-05
0.000347787
5.73358e-05
0.000342636
4.87539e-05
0.000339269
3.93031e-05
0.000337685
2.95581e-05
0.000337844
1.9853e-05
0.000339613
1.06842e-05
0.000342877
2.46508e-06
0.000347263
-4.47102e-06
0.000352534
-9.79751e-06
0.00035828
-1.32688e-05
0.000364218
-1.47715e-05
0.000369797
-1.40831e-05
0.000374598
-1.12786e-05
0.000378324
-6.61387e-06
0.000380612
-1.65521e-07
0.000381171
7.72321e-06
0.000379942
1.65633e-05
0.000376747
2.60514e-05
0.00037156
3.56898e-05
0.000364347
4.49856e-05
0.00035521
5.34805e-05
0.000344475
6.04965e-05
0.000332436
6.55372e-05
0.000319542
6.83332e-05
0.000306191
6.87199e-05
0.000292749
6.66222e-05
0.000279582
6.20878e-05
0.000267129
5.51484e-05
0.000255741
4.59098e-05
0.000245756
3.45053e-05
2.12006e-05
0.000237518
0.000377843
-2.55935e-05
0.000390958
-2.95137e-05
0.000403579
-3.0467e-05
0.000415081
-2.78314e-05
0.000425163
-2.23462e-05
0.000433311
-1.38805e-05
0.000439316
-3.17488e-06
0.000442779
9.13954e-06
0.000443557
2.26939e-05
0.000441665
3.63941e-05
0.000436965
5.01237e-05
0.000429957
6.21929e-05
0.000421063
7.2453e-05
0.000410689
8.06691e-05
0.000399276
8.65894e-05
0.00038734
8.98979e-05
0.000375416
9.05404e-05
0.000363985
8.84665e-05
0.000353475
8.37735e-05
0.000344292
7.66645e-05
0.00033682
6.74858e-05
0.000331284
5.67134e-05
0.000327908
4.49129e-05
0.000326657
3.27315e-05
0.000327552
2.06887e-05
0.000330388
9.30185e-06
0.000334963
-8.98973e-07
0.000340887
-9.47903e-06
0.000347821
-1.60632e-05
0.000355135
-2.02726e-05
0.000362572
-2.20377e-05
0.000369214
-2.09711e-05
0.000374729
-1.71004e-05
0.000378882
-1.14306e-05
0.000381299
-3.32051e-06
0.000381652
6.40621e-06
0.000380017