/*--------------------------------*- C++ -*----------------------------------*\
  =========                 |
  \\      /  F ield         | OpenFOAM: The Open Source CFD Toolbox
   \\    /   O peration     | Website:  https://openfoam.org
    \\  /    A nd           | Version:  10
     \\/     M anipulation  |
\*---------------------------------------------------------------------------*/
FoamFile
{
    format      ascii;
    class       volVectorField;
    location    "0.500916";
    object      U;
}
// * * * * * * * * * * * * * * * * * * * * * * * * * * * * * * * * * * * * * //

dimensions      [0 1 -1 0 0 0 0];

internalField   nonuniform List<vector> 
15708
(
(0.554852 -0.0646367 0)
(0.543397 -0.0627557 0)
(0.532453 -0.0609351 0)
(0.522194 -0.0591181 0)
(0.512649 -0.0572834 0)
(0.503821 -0.0554093 0)
(0.495706 -0.0534838 0)
(0.488295 -0.0515017 0)
(0.481561 -0.0494632 0)
(0.475469 -0.0473731 0)
(0.469976 -0.0452397 0)
(0.465034 -0.0430737 0)
(0.460594 -0.0408865 0)
(0.456607 -0.0386892 0)
(0.453024 -0.0364917 0)
(0.449801 -0.0343015 0)
(0.446891 -0.0321231 0)
(0.444259 -0.0299594 0)
(0.441865 -0.0278105 0)
(0.439679 -0.0256744 0)
(0.437672 -0.0235487 0)
(0.435818 -0.021427 0)
(0.434097 -0.0193032 0)
(0.432489 -0.0171705 0)
(0.430977 -0.0150215 0)
(0.429544 -0.0128472 0)
(0.428183 -0.0106408 0)
(0.426887 -0.00840036 0)
(0.425644 -0.00612716 0)
(0.424447 -0.00382018 0)
(0.423316 -0.00147568 0)
(0.422255 0.000923306 0)
(0.421228 0.00333543 0)
(0.420226 0.00574836 0)
(0.419269 0.00815308 0)
(0.418363 0.010529 0)
(0.417511 0.0128523 0)
(0.416719 0.0150968 0)
(0.415992 0.0172345 0)
(0.415337 0.019236 0)
(0.414759 0.0210718 0)
(0.414266 0.0227127 0)
(0.413859 0.0241314 0)
(0.413541 0.0253027 0)
(0.41331 0.0262049 0)
(0.413162 0.0268211 0)
(0.413085 0.0271395 0)
(0.413066 0.0271544 0)
(0.413085 0.0268676 0)
(0.413116 0.0262888 0)
(0.41313 0.0254363 0)
(0.556468 -0.0625106 0)
(0.545007 -0.0610398 0)
(0.534081 -0.0595744 0)
(0.523862 -0.0580614 0)
(0.514377 -0.0564767 0)
(0.505621 -0.0548023 0)
(0.497583 -0.05303 0)
(0.490246 -0.0511595 0)
(0.48358 -0.0491972 0)
(0.477547 -0.0471537 0)
(0.472101 -0.0450439 0)
(0.467193 -0.0428843 0)
(0.462776 -0.0406914 0)
(0.4588 -0.0384822 0)
(0.45522 -0.0362702 0)
(0.451991 -0.0340656 0)
(0.449075 -0.0318779 0)
(0.446432 -0.029711 0)
(0.444031 -0.0275684 0)
(0.44184 -0.0254486 0)
(0.439833 -0.0233492 0)
(0.437986 -0.0212649 0)
(0.436278 -0.0191893 0)
(0.434689 -0.0171149 0)
(0.433202 -0.0150344 0)
(0.431802 -0.0129385 0)
(0.430477 -0.0108193 0)
(0.429215 -0.00867338 0)
(0.428002 -0.00650348 0)
(0.426841 -0.00430732 0)
(0.425749 -0.00207233 0)
(0.424709 0.000198932 0)
(0.42368 0.00247296 0)
(0.422667 0.00474418 0)
(0.421683 0.00699988 0)
(0.420727 0.00921897 0)
(0.419802 0.0113775 0)
(0.418911 0.0134494 0)
(0.418058 0.0154069 0)
(0.41725 0.0172213 0)
(0.416494 0.0188639 0)
(0.415794 0.0203076 0)
(0.415158 0.0215269 0)
(0.414589 0.0224992 0)
(0.414089 0.023206 0)
(0.41366 0.023634 0)
(0.413296 0.0237753 0)
(0.41299 0.0236289 0)
(0.412729 0.0232011 0)
(0.412496 0.0225063 0)
(0.412272 0.021567 0)
(0.557654 -0.0604389 0)
(0.546236 -0.0593612 0)
(0.535388 -0.0582266 0)
(0.525265 -0.0569921 0)
(0.515891 -0.0556357 0)
(0.507253 -0.0541422 0)
(0.499333 -0.0525071 0)
(0.492107 -0.0507344 0)
(0.485541 -0.0488358 0)
(0.479592 -0.0468281 0)
(0.474213 -0.0447325 0)
(0.469354 -0.0425694 0)
(0.464968 -0.0403634 0)
(0.461006 -0.0381328 0)
(0.457427 -0.0358979 0)
(0.454189 -0.0336741 0)
(0.451256 -0.0314717 0)
(0.448594 -0.0292992 0)
(0.446174 -0.0271597 0)
(0.443966 -0.0250533 0)
(0.441946 -0.0229776 0)
(0.440091 -0.0209281 0)
(0.438381 -0.018898 0)
(0.436797 -0.0168794 0)
(0.435323 -0.0148635 0)
(0.433943 -0.0128413 0)
(0.432643 -0.0108049 0)
(0.431404 -0.00874913 0)
(0.430215 -0.00667755 0)
(0.429082 -0.00458307 0)
(0.428021 -0.00245345 0)
(0.426993 -0.000299019 0)
(0.425956 0.00185174 0)
(0.424926 0.00399541 0)
(0.423907 0.00611593 0)
(0.422895 0.00819272 0)
(0.42189 0.0102018 0)
(0.420894 0.0121167 0)
(0.419911 0.0139098 0)
(0.418946 0.0155527 0)
(0.418006 0.0170174 0)
(0.417099 0.0182776 0)
(0.416232 0.0193089 0)
(0.415415 0.0200911 0)
(0.414654 0.0206086 0)
(0.413952 0.0208508 0)
(0.413313 0.0208136 0)
(0.412735 0.0204995 0)
(0.412213 0.019919 0)
(0.411739 0.0190904 0)
(0.411301 0.0180402 0)
(0.55844 -0.0583477 0)
(0.547114 -0.0576321 0)
(0.536394 -0.0568032 0)
(0.526418 -0.0558228 0)
(0.517204 -0.0546734 0)
(0.508731 -0.0533434 0)
(0.500971 -0.0518305 0)
(0.493893 -0.0501438 0)
(0.487458 -0.0482988 0)
(0.481617 -0.046318 0)
(0.476323 -0.0442266 0)
(0.471524 -0.0420542 0)
(0.467174 -0.0398277 0)
(0.463229 -0.0375763 0)
(0.459648 -0.0353186 0)
(0.456396 -0.0330776 0)
(0.45344 -0.0308621 0)
(0.450749 -0.0286854 0)
(0.448296 -0.026549 0)
(0.446057 -0.024456 0)
(0.444009 -0.0224045 0)
(0.442131 -0.02039 0)
(0.440405 -0.0184056 0)
(0.438814 -0.016443 0)
(0.437341 -0.0144928 0)
(0.43597 -0.0125447 0)
(0.434684 -0.0105901 0)
(0.433458 -0.00862429 0)
(0.432283 -0.00664768 0)
(0.431176 -0.00465093 0)
(0.430136 -0.00262004 0)
(0.429109 -0.000577847 0)
(0.428059 0.00145767 0)
(0.427005 0.00348379 0)
(0.425945 0.00548149 0)
(0.424871 0.0074296 0)
(0.423779 0.0093039 0)
(0.422672 0.0110775 0)
(0.42155 0.012722 0)
(0.420422 0.0142088 0)
(0.419293 0.0155102 0)
(0.418174 0.0165997 0)
(0.417076 0.0174543 0)
(0.41601 0.0180552 0)
(0.414988 0.0183885 0)
(0.414019 0.0184461 0)
(0.413112 0.0182273 0)
(0.412273 0.0177379 0)
(0.411505 0.0169914 0)
(0.410808 0.0160101 0)
(0.410178 0.0148242 0)
(0.558842 -0.0561848 0)
(0.547663 -0.0557945 0)
(0.537123 -0.0552502 0)
(0.527348 -0.0544947 0)
(0.518341 -0.0535285 0)
(0.510075 -0.0523409 0)
(0.502513 -0.0509338 0)
(0.495617 -0.0493185 0)
(0.489338 -0.0475138 0)
(0.483629 -0.0455502 0)
(0.478432 -0.0434585 0)
(0.473706 -0.0412678 0)
(0.469396 -0.0390214 0)
(0.465471 -0.0367452 0)
(0.461888 -0.0344678 0)
(0.458617 -0.0322107 0)
(0.455629 -0.029986 0)
(0.452898 -0.0278104 0)
(0.450401 -0.0256829 0)
(0.448116 -0.0236102 0)
(0.446025 -0.0215901 0)
(0.44411 -0.0196181 0)
(0.442353 -0.017687 0)
(0.44074 -0.0157879 0)
(0.439255 -0.0139101 0)
(0.437881 -0.012042 0)
(0.436598 -0.0101742 0)
(0.435378 -0.00830122 0)
(0.434214 -0.00641864 0)
(0.433126 -0.00451394 0)
(0.432099 -0.00258107 0)
(0.431063 -0.00064647 0)
(0.429998 0.00128346 0)
(0.428916 0.0032018 0)
(0.427808 0.00508912 0)
(0.426665 0.006922 0)
(0.42548 0.00867534 0)
(0.424253 0.0103219 0)
(0.422985 0.0118325 0)
(0.421684 0.0131778 0)
(0.420359 0.0143294 0)
(0.419021 0.0152606 0)
(0.417685 0.0159488 0)
(0.416365 0.0163757 0)
(0.415079 0.0165287 0)
(0.413843 0.0164021 0)
(0.412672 0.0159968 0)
(0.411578 0.0153223 0)
(0.410574 0.0143953 0)
(0.409666 0.013241 0)
(0.408859 0.0118935 0)
(0.558916 -0.0538916 0)
(0.547925 -0.0537186 0)
(0.537608 -0.0534374 0)
(0.52809 -0.0529034 0)
(0.51933 -0.0521151 0)
(0.511307 -0.0510578 0)
(0.503974 -0.0497424 0)
(0.497287 -0.0481856 0)
(0.491192 -0.0464159 0)
(0.485629 -0.0444637 0)
(0.480557 -0.0423722 0)
(0.475912 -0.0401781 0)
(0.47165 -0.0379042 0)
(0.467739 -0.0356114 0)
(0.464145 -0.033295 0)
(0.460845 -0.0310368 0)
(0.457812 -0.0287828 0)
(0.455028 -0.0266308 0)
(0.452475 -0.0245141 0)
(0.45013 -0.0224736 0)
(0.447981 -0.0204981 0)
(0.446014 -0.0185824 0)
(0.444215 -0.0167184 0)
(0.442568 -0.0148958 0)
(0.441061 -0.0131021 0)
(0.439675 -0.0113246 0)
(0.438387 -0.00955265 0)
(0.437167 -0.00777985 0)
(0.436013 -0.00599563 0)
(0.434941 -0.00418533 0)
(0.433917 -0.00235433 0)
(0.43287 -0.000523543 0)
(0.431787 0.00130807 0)
(0.430674 0.00312697 0)
(0.429513 0.00491426 0)
(0.428292 0.00664654 0)
(0.427006 0.00829573 0)
(0.425651 0.00983188 0)
(0.424228 0.0112249 0)
(0.422746 0.0124444 0)
(0.421213 0.0134606 0)
(0.419645 0.0142462 0)
(0.41806 0.014778 0)
(0.416478 0.0150381 0)
(0.414921 0.0150143 0)
(0.413412 0.0147024 0)
(0.411974 0.0141053 0)
(0.410627 0.0132344 0)
(0.40939 0.0121102 0)
(0.408279 0.0107611 0)
(0.407306 0.00922428 0)
(0.558647 -0.0513681 0)
(0.547997 -0.0514736 0)
(0.53783 -0.0514932 0)
(0.528603 -0.0510255 0)
(0.520142 -0.0503644 0)
(0.512414 -0.049427 0)
(0.505358 -0.048189 0)
(0.498911 -0.046702 0)
(0.493031 -0.0449302 0)
(0.487632 -0.0430169 0)
(0.482685 -0.0408992 0)
(0.478134 -0.0386793 0)
(0.473931 -0.0364074 0)
(0.47004 -0.0340782 0)
(0.466429 -0.0317838 0)
(0.463095 -0.0294746 0)
(0.460001 -0.0272801 0)
(0.45713 -0.0250959 0)
(0.454518 -0.0230217 0)
(0.452085 -0.0210282 0)
(0.449863 -0.0191129 0)
(0.447831 -0.017271 0)
(0.445976 -0.0154927 0)
(0.444286 -0.0137651 0)
(0.442749 -0.0120731 0)
(0.441345 -0.0104018 0)
(0.440047 -0.0087391 0)
(0.438827 -0.00707508 0)
(0.437684 -0.00539267 0)
(0.436625 -0.00368291 0)
(0.435599 -0.00195712 0)
(0.434542 -0.000222698 0)
(0.433443 0.00151708 0)
(0.432295 0.00324709 0)
(0.431079 0.00494627 0)
(0.429778 0.00659011 0)
(0.428383 0.00815022 0)
(0.42689 0.00959388 0)
(0.425302 0.0108876 0)
(0.423625 0.0119983 0)
(0.421872 0.0128947 0)
(0.42006 0.0135482 0)
(0.418212 0.0139342 0)
(0.416354 0.0140342 0)
(0.414514 0.0138365 0)
(0.412722 0.0133372 0)
(0.411009 0.0125408 0)
(0.409403 0.0114613 0)
(0.407931 0.0101214 0)
(0.406619 0.00855318 0)
(0.405486 0.00679751 0)
(0.558197 -0.0484003 0)
(0.547672 -0.0489401 0)
(0.53793 -0.0490645 0)
(0.529135 -0.0488606 0)
(0.520882 -0.0483205 0)
(0.513463 -0.047473 0)
(0.50669 -0.046292 0)
(0.500544 -0.0448193 0)
(0.494862 -0.0430844 0)
(0.489649 -0.0411322 0)
(0.484867 -0.0390117 0)
(0.48038 -0.0367682 0)
(0.476216 -0.0344778 0)
(0.472332 -0.0321381 0)
(0.468708 -0.0298377 0)
(0.46531 -0.0275414 0)
(0.462147 -0.0253624 0)
(0.459238 -0.0232137 0)
(0.456488 -0.0211932 0)
(0.453977 -0.0192613 0)
(0.451668 -0.0174252 0)
(0.449555 -0.0156772 0)
(0.447631 -0.0140051 0)
(0.445888 -0.0123932 0)
(0.444312 -0.010823 0)
(0.442884 -0.00927727 0)
(0.441575 -0.00774057 0)
(0.440358 -0.00619817 0)
(0.43923 -0.0046291 0)
(0.43818 -0.00303003 0)
(0.437156 -0.00140672 0)
(0.436098 0.000234009 0)
(0.434983 0.00188825 0)
(0.433802 0.00353936 0)
(0.432529 0.00516458 0)
(0.431145 0.00673711 0)
(0.429637 0.0082252 0)
(0.428 0.00959511 0)
(0.426235 0.0108098 0)
(0.424351 0.011832 0)
(0.422362 0.0126271 0)
(0.420289 0.013164 0)
(0.418161 0.0134165 0)
(0.416009 0.0133644 0)
(0.413869 0.0129954 0)
(0.411778 0.0123059 0)
(0.409775 0.0113018 0)
(0.407899 0.00999885 0)
(0.406185 0.00842253 0)
(0.404668 0.00660806 0)
(0.403377 0.0045999 0)
(0.557545 -0.045407 0)
(0.547233 -0.0462501 0)
(0.537853 -0.0463349 0)
(0.529331 -0.0464187 0)
(0.521546 -0.0458993 0)
(0.514477 -0.045162 0)
(0.508044 -0.0439609 0)
(0.502148 -0.0424828 0)
(0.496731 -0.0407801 0)
(0.491711 -0.0387929 0)
(0.487039 -0.0366717 0)
(0.482649 -0.0344285 0)
(0.478531 -0.0320916 0)
(0.474649 -0.0297612 0)
(0.470987 -0.0274162 0)
(0.467527 -0.0251739 0)
(0.464278 -0.0229691 0)
(0.461242 -0.0209183 0)
(0.458406 -0.0189586 0)
(0.455782 -0.0171184 0)
(0.453366 -0.015394 0)
(0.451157 -0.013773 0)
(0.449154 -0.0122402 0)
(0.447348 -0.0107755 0)
(0.44573 -0.00935648 0)
(0.444276 -0.00796206 0)
(0.442957 -0.00657295 0)
(0.441749 -0.00516917 0)
(0.44064 -0.00372919 0)
(0.43961 -0.00225292 0)
(0.438599 -0.000730778 0)
(0.437544 0.000816206 0)
(0.436425 0.00239117 0)
(0.435218 0.00397524 0)
(0.433893 0.0055436 0)
(0.432427 0.0070655 0)
(0.430805 0.00850634 0)
(0.429017 0.00982667 0)
(0.427066 0.0109858 0)
(0.42496 0.0119427 0)
(0.422718 0.012658 0)
(0.420365 0.0130968 0)
(0.417935 0.0132298 0)
(0.415466 0.0130346 0)
(0.413002 0.0124977 0)
(0.41059 0.0116153 0)
(0.408278 0.0103938 0)
(0.406114 0.00885067 0)
(0.404144 0.00701403 0)
(0.402411 0.00492273 0)
(0.400957 0.00262798 0)
(0.556407 -0.0421218 0)
(0.546602 -0.0429568 0)
(0.537654 -0.0433649 0)
(0.529505 -0.0434529 0)
(0.52213 -0.0430973 0)
(0.515415 -0.0423643 0)
(0.50939 -0.0412528 0)
(0.503739 -0.0397946 0)
(0.49857 -0.038045 0)
(0.493757 -0.0360536 0)
(0.489232 -0.033885 0)
(0.484945 -0.0315938 0)
(0.480868 -0.0292397 0)
(0.476981 -0.026878 0)
(0.473266 -0.0245483 0)
(0.469718 -0.0222947 0)
(0.466357 -0.0201818 0)
(0.463192 -0.0181616 0)
(0.460221 -0.0163006 0)
(0.457463 -0.0145858 0)
(0.454923 -0.0130066 0)
(0.452604 -0.0115484 0)
(0.450509 -0.0101923 0)
(0.448637 -0.00891111 0)
(0.446974 -0.00767785 0)
(0.445498 -0.00646634 0)
(0.444177 -0.00525414 0)
(0.442989 -0.00401125 0)
(0.44191 -0.0027209 0)
(0.440916 -0.00137196 0)
(0.439936 3.60319e-05 0)
(0.4389 0.00149385 0)
(0.437792 0.00299951 0)
(0.436571 0.00453134 0)
(0.435204 0.00606218 0)
(0.433663 0.00755781 0)
(0.431926 0.00897783 0)
(0.429984 0.0102779 0)
(0.427837 0.0114109 0)
(0.425496 0.0123304 0)
(0.422982 0.0129918 0)
(0.420327 0.013355 0)
(0.417568 0.0133861 0)
(0.414755 0.0130594 0)
(0.411939 0.0123592 0)
(0.409176 0.0112809 0)
(0.406527 0.00983107 0)
(0.404049 0.00802853 0)
(0.401801 0.00590417 0)
(0.399838 0.00350187 0)
(0.398205 0.000872699 0)
(0.555233 -0.0383959 0)
(0.545916 -0.0393748 0)
(0.537254 -0.0400535 0)
(0.52955 -0.0401933 0)
(0.522608 -0.0400063 0)
(0.516329 -0.0392294 0)
(0.510627 -0.0381689 0)
(0.505371 -0.0366812 0)
(0.500478 -0.0348784 0)
(0.495873 -0.0328236 0)
(0.491486 -0.0305868 0)
(0.487275 -0.0282382 0)
(0.483218 -0.0258397 0)
(0.479312 -0.023456 0)
(0.475535 -0.0211367 0)
(0.471854 -0.0189289 0)
(0.468363 -0.0168598 0)
(0.465065 -0.0149559 0)
(0.461913 -0.0132244 0)
(0.458994 -0.0116649 0)
(0.456307 -0.0102662 0)
(0.453861 -0.00901063 0)
(0.451665 -0.00787142 0)
(0.449721 -0.00681435 0)
(0.448015 -0.00580665 0)
(0.446521 -0.00481569 0)
(0.445213 -0.00381035 0)
(0.444061 -0.00275865 0)
(0.443035 -0.0016353 0)
(0.442097 -0.000429147 0)
(0.441167 0.000857971 0)
(0.44018 0.00222914 0)
(0.439104 0.00367512 0)
(0.437891 0.00517212 0)
(0.436499 0.00669069 0)
(0.434893 0.00818974 0)
(0.433048 0.00962259 0)
(0.43095 0.0109377 0)
(0.4286 0.0120816 0)
(0.426009 0.0129996 0)
(0.423204 0.0136399 0)
(0.420219 0.0139559 0)
(0.417102 0.0139074 0)
(0.413909 0.0134641 0)
(0.410704 0.0126075 0)
(0.407554 0.0113306 0)
(0.404531 0.00964046 0)
(0.401706 0.00755694 0)
(0.399151 0.00511334 0)
(0.396928 0.00235733 0)
(0.395095 -0.000653538 0)
(0.553791 -0.0341817 0)
(0.544877 -0.0356387 0)
(0.536718 -0.036373 0)
(0.529499 -0.0367473 0)
(0.523064 -0.0364992 0)
(0.517246 -0.0357885 0)
(0.51195 -0.0346531 0)
(0.507043 -0.0331168 0)
(0.502435 -0.0312494 0)
(0.498045 -0.0291202 0)
(0.493805 -0.0267983 0)
(0.48967 -0.0243757 0)
(0.485621 -0.0219169 0)
(0.481648 -0.0195008 0)
(0.477754 -0.0171886 0)
(0.473947 -0.0150295 0)
(0.470273 -0.0130153 0)
(0.466761 -0.0112502 0)
(0.463435 -0.00967877 0)
(0.460332 -0.00831397 0)
(0.457476 -0.00714207 0)
(0.454884 -0.00613867 0)
(0.452576 -0.00526667 0)
(0.450556 -0.00448415 0)
(0.44881 -0.00375061 0)
(0.447313 -0.00302648 0)
(0.446034 -0.00226962 0)
(0.444943 -0.0014428 0)
(0.443996 -0.000512989 0)
(0.443143 0.000530332 0)
(0.442302 0.00169459 0)
(0.441398 0.0029819 0)
(0.440387 0.00438176 0)
(0.439211 0.00586196 0)
(0.437818 0.00739724 0)
(0.436164 0.00893528 0)
(0.43422 0.010422 0)
(0.431969 0.0117971 0)
(0.42941 0.0129974 0)
(0.426555 0.0139586 0)
(0.423434 0.014619 0)
(0.420089 0.0149226 0)
(0.416576 0.0148225 0)
(0.412962 0.0142822 0)
(0.409322 0.0132786 0)
(0.405738 0.0118021 0)
(0.402296 0.00985919 0)
(0.399078 0.00747126 0)
(0.396173 0.00467543 0)
(0.393658 0.00152095 0)
(0.3916 -0.00192661 0)
(0.552157 -0.0300081 0)
(0.543625 -0.0315644 0)
(0.536035 -0.0325093 0)
(0.529358 -0.0329024 0)
(0.523538 -0.032741 0)
(0.518166 -0.0320405 0)
(0.513302 -0.03085 0)
(0.508778 -0.0292241 0)
(0.504473 -0.0272366 0)
(0.500314 -0.0249754 0)
(0.496215 -0.0225303 0)
(0.492134 -0.0199941 0)
(0.488064 -0.0174549 0)
(0.484001 -0.0149897 0)
(0.479961 -0.0126674 0)
(0.475973 -0.0105411 0)
(0.472082 -0.00864056 0)
(0.468334 -0.00700149 0)
(0.464771 -0.00562369 0)
(0.461441 -0.00449921 0)
(0.458381 -0.00360949 0)
(0.455621 -0.00291681 0)
(0.45319 -0.00237329 0)
(0.451092 -0.00192687 0)
(0.449311 -0.0015294 0)
(0.447824 -0.00112732 0)
(0.446601 -0.000669133 0)
(0.445604 -0.000105638 0)
(0.444774 0.000592541 0)
(0.444049 0.00146289 0)
(0.443341 0.00248694 0)
(0.442567 0.0036947 0)
(0.44166 0.00506446 0)
(0.440559 0.00655883 0)
(0.439201 0.00814581 0)
(0.437526 0.00976731 0)
(0.4355 0.0113586 0)
(0.433102 0.0128487 0)
(0.430328 0.0141616 0)
(0.427192 0.0152207 0)
(0.423729 0.0159517 0)
(0.419987 0.0162881 0)
(0.416033 0.0161724 0)
(0.411947 0.0155607 0)
(0.407817 0.0144233 0)
(0.403741 0.0127481 0)
(0.39982 0.0105394 0)
(0.396156 0.00782027 0)
(0.392846 0.00463067 0)
(0.389986 0.00102534 0)
(0.387661 -0.00292183 0)
(0.550132 -0.0254917 0)
(0.542283 -0.0273172 0)
(0.53523 -0.0285067 0)
(0.529167 -0.0289031 0)
(0.523866 -0.0288083 0)
(0.519109 -0.0280731 0)
(0.514752 -0.0267798 0)
(0.510649 -0.0250093 0)
(0.506674 -0.022849 0)
(0.502737 -0.0203983 0)
(0.498765 -0.0177807 0)
(0.494719 -0.0150868 0)
(0.490592 -0.0124214 0)
(0.486396 -0.00987311 0)
(0.482158 -0.00752444 0)
(0.477924 -0.00543477 0)
(0.473755 -0.00364488 0)
(0.469714 -0.0021788 0)
(0.465864 -0.0010354 0)
(0.462262 -0.000202834 0)
(0.458962 0.000343995 0)
(0.456011 0.00066245 0)
(0.453442 0.000809216 0)
(0.451261 0.000846126 0)
(0.449455 0.000835571 0)
(0.448003 0.000848386 0)
(0.446869 0.000951683 0)
(0.446002 0.00120105 0)
(0.445346 0.00163078 0)
(0.4448 0.00229676 0)
(0.444277 0.00318095 0)
(0.443699 0.00431369 0)
(0.442955 0.00566226 0)
(0.44198 0.00720995 0)
(0.440698 0.00889369 0)
(0.439035 0.0106539 0)
(0.436949 0.0124116 0)
(0.434413 0.0140834 0)
(0.43142 0.0155778 0)
(0.427986 0.0168033 0)
(0.424148 0.0176697 0)
(0.419966 0.0180951 0)
(0.415517 0.0180097 0)
(0.410895 0.017359 0)
(0.406206 0.0161067 0)
(0.401565 0.0142355 0)
(0.397091 0.0117479 0)
(0.392905 0.00866815 0)
(0.389124 0.00503788 0)
(0.385863 0.000921275 0)
(0.383219 -0.00359519 0)
(0.54792 -0.0207121 0)
(0.540506 -0.0230365 0)
(0.534281 -0.0243282 0)
(0.528929 -0.0249218 0)
(0.524287 -0.0247536 0)
(0.520149 -0.0239453 0)
(0.516342 -0.0224896 0)
(0.512691 -0.0205139 0)
(0.50907 -0.0181101 0)
(0.505363 -0.0154034 0)
(0.501503 -0.012524 0)
(0.497464 -0.00960805 0)
(0.493243 -0.00677263 0)
(0.488859 -0.00411903 0)
(0.484357 -0.00173572 0)
(0.479806 0.000315486 0)
(0.475286 0.00198828 0)
(0.470878 0.00325824 0)
(0.46667 0.00412543 0)
(0.462733 0.00460907 0)
(0.459148 0.0047525 0)
(0.455977 0.00461901 0)
(0.453252 0.00428535 0)
(0.450984 0.00382712 0)
(0.449166 0.00333082 0)
(0.447779 0.00287374 0)
(0.446778 0.00254423 0)
(0.446093 0.00241638 0)
(0.445664 0.00254613 0)
(0.445381 0.00296446 0)
(0.445124 0.00370454 0)
(0.444798 0.00476065 0)
(0.444293 0.0061181 0)
(0.443518 0.00775035 0)
(0.442365 0.00958492 0)
(0.440756 0.0115492 0)
(0.438639 0.0135501 0)
(0.435979 0.0154893 0)
(0.432765 0.0172507 0)
(0.429012 0.0187285 0)
(0.424762 0.0198106 0)
(0.420084 0.0203959 0)
(0.415072 0.020399 0)
(0.409837 0.0197524 0)
(0.404503 0.0184103 0)
(0.399207 0.0163514 0)
(0.39409 0.0135708 0)
(0.389293 0.0101028 0)
(0.384952 0.00598494 0)
(0.381213 0.00129239 0)
(0.37818 -0.00387695 0)
(0.545085 -0.0160908 0)
(0.538479 -0.0186933 0)
(0.533161 -0.0202063 0)
(0.528594 -0.0209154 0)
(0.524747 -0.0207671 0)
(0.521307 -0.0198256 0)
(0.518146 -0.0181339 0)
(0.515001 -0.015875 0)
(0.511764 -0.0131136 0)
(0.5083 -0.0100544 0)
(0.504531 -0.00685441 0)
(0.500435 -0.00361571 0)
(0.496049 -0.000540278 0)
(0.491405 0.00231381 0)
(0.486557 0.00480027 0)
(0.481602 0.00684261 0)
(0.476641 0.00839315 0)
(0.471785 0.00943033 0)
(0.46714 0.00996109 0)
(0.462803 0.0100155 0)
(0.458875 0.00965973 0)
(0.455437 0.00897722 0)
(0.452533 0.008061 0)
(0.450178 0.00700308 0)
(0.448361 0.00591274 0)
(0.447062 0.00489666 0)
(0.446243 0.00405164 0)
(0.445823 0.00347796 0)
(0.4457 0.00324646 0)
(0.445752 0.00339072 0)
(0.445857 0.00395561 0)
(0.445887 0.00494355 0)
(0.445712 0.00634458 0)
(0.445206 0.00810357 0)
(0.444256 0.0101527 0)
(0.442764 0.0124046 0)
(0.440659 0.0147484 0)
(0.437894 0.0170568 0)
(0.434454 0.019196 0)
(0.430358 0.0210302 0)
(0.425649 0.0224266 0)
(0.42041 0.0232595 0)
(0.414752 0.0234226 0)
(0.408807 0.0228334 0)
(0.402725 0.0214334 0)
(0.396661 0.0191953 0)
(0.390789 0.0161144 0)
(0.385272 0.0122197 0)
(0.380263 0.00755911 0)
(0.37595 0.00221662 0)
(0.372433 -0.00371027 0)
(0.541702 -0.0115965 0)
(0.536077 -0.0144934 0)
(0.531743 -0.0163893 0)
(0.528136 -0.0171515 0)
(0.525206 -0.0169507 0)
(0.522667 -0.015769 0)
(0.520209 -0.0137867 0)
(0.517654 -0.0111085 0)
(0.514842 -0.00790764 0)
(0.511581 -0.00438335 0)
(0.507911 -0.000710011 0)
(0.503759 0.00296042 0)
(0.49914 0.00641798 0)
(0.494147 0.00950521 0)
(0.488828 0.0121093 0)
(0.483343 0.0141462 0)
(0.477818 0.0155632 0)
(0.472395 0.0163412 0)
(0.467204 0.0164944 0)
(0.462371 0.0160586 0)
(0.458033 0.0151188 0)
(0.454285 0.0137777 0)
(0.451168 0.0121537 0)
(0.44871 0.0103682 0)
(0.44692 0.00856071 0)
(0.445765 0.0068698 0)
(0.445194 0.00540954 0)
(0.445109 0.00430779 0)
(0.445387 0.00363495 0)
(0.445891 0.00346462 0)
(0.446471 0.00383886 0)
(0.446976 0.00476754 0)
(0.447241 0.00623383 0)
(0.447114 0.00818343 0)
(0.446458 0.0105343 0)
(0.445153 0.0131733 0)
(0.443106 0.015974 0)
(0.440261 0.0187737 0)
(0.436595 0.0214247 0)
(0.432124 0.0237496 0)
(0.426901 0.0255851 0)
(0.421019 0.0267734 0)
(0.414614 0.0271862 0)
(0.407841 0.02672 0)
(0.40088 0.0253054 0)
(0.393918 0.0229002 0)
(0.387153 0.0195121 0)
(0.380777 0.0151494 0)
(0.374981 0.00988514 0)
(0.369964 0.00380415 0)
(0.365871 -0.00299489 0)
(0.537479 -0.00747122 0)
(0.533056 -0.0108202 0)
(0.529943 -0.0130383 0)
(0.52762 -0.013893 0)
(0.525826 -0.0135367 0)
(0.524255 -0.0120516 0)
(0.522651 -0.00962046 0)
(0.520763 -0.00636392 0)
(0.518395 -0.00256911 0)
(0.515429 0.00162277 0)
(0.5118 0.0059652 0)
(0.507482 0.0101591 0)
(0.502533 0.0140749 0)
(0.497053 0.0174842 0)
(0.49116 0.0202817 0)
(0.485017 0.0223584 0)
(0.478793 0.0236506 0)
(0.472665 0.0241391 0)
(0.466797 0.0238438 0)
(0.461361 0.0228215 0)
(0.45652 0.0211872 0)
(0.452386 0.0190548 0)
(0.449021 0.0165783 0)
(0.446465 0.0139232 0)
(0.444725 0.0112493 0)
(0.443757 0.00874065 0)
(0.443513 0.00655 0)
(0.443868 0.00479521 0)
(0.444666 0.00360943 0)
(0.445759 0.00306455 0)
(0.446958 0.00322458 0)
(0.448078 0.0040983 0)
(0.448925 0.00566992 0)
(0.44931 0.00787809 0)
(0.449058 0.0106286 0)
(0.448029 0.0137772 0)
(0.446105 0.0171704 0)
(0.443213 0.0206255 0)
(0.439326 0.0239488 0)
(0.434447 0.0269206 0)
(0.428635 0.0293443 0)
(0.422009 0.0310215 0)
(0.41473 0.0317959 0)
(0.406987 0.0315373 0)
(0.39899 0.0301596 0)
(0.390968 0.02762 0)
(0.383145 0.0239132 0)
(0.375747 0.0190446 0)
(0.369009 0.0131054 0)
(0.363125 0.00618457 0)
(0.358327 -0.00159645 0)
(0.531914 -0.00407249 0)
(0.52917 -0.0080403 0)
(0.527603 -0.0104826 0)
(0.526848 -0.0113695 0)
(0.526476 -0.0108157 0)
(0.52617 -0.00887208 0)
(0.525598 -0.00579701 0)
(0.524485 -0.00180541 0)
(0.522661 0.00285923 0)
(0.519964 0.00789395 0)
(0.516334 0.0130265 0)
(0.51178 0.0179809 0)
(0.506386 0.0225082 0)
(0.500281 0.0263979 0)
(0.493636 0.0294803 0)
(0.486652 0.0316399 0)
(0.479543 0.0328088 0)
(0.472533 0.0329691 0)
(0.465826 0.0321519 0)
(0.459646 0.0304382 0)
(0.454184 0.0279575 0)
(0.449579 0.0248725 0)
(0.445924 0.0213704 0)
(0.443251 0.0176614 0)
(0.441591 0.0139403 0)
(0.440905 0.0104471 0)
(0.441072 0.00736248 0)
(0.44198 0.00483509 0)
(0.44346 0.00302902 0)
(0.445302 0.0020445 0)
(0.447297 0.0019535 0)
(0.449213 0.002781 0)
(0.450815 0.00450205 0)
(0.451874 0.0070506 0)
(0.452168 0.0103086 0)
(0.451522 0.0141218 0)
(0.449805 0.018292 0)
(0.446919 0.0226053 0)
(0.442803 0.0268014 0)
(0.437469 0.0306243 0)
(0.43099 0.0338253 0)
(0.423499 0.0361564 0)
(0.415194 0.0374249 0)
(0.406302 0.03747 0)
(0.397087 0.0361915 0)
(0.387813 0.0335382 0)
(0.378723 0.0294929 0)
(0.370105 0.0240952 0)
(0.362233 0.0174049 0)
(0.355322 0.009525 0)
(0.349659 0.000620349 0)
(0.524432 -0.0019287 0)
(0.523928 -0.00651245 0)
(0.524521 -0.00917461 0)
(0.525741 -0.0100031 0)
(0.5272 -0.00906095 0)
(0.528467 -0.00647289 0)
(0.529137 -0.00253314 0)
(0.528991 0.00248111 0)
(0.527776 0.00825279 0)
(0.525362 0.0143984 0)
(0.521704 0.0206146 0)
(0.516817 0.0265422 0)
(0.510829 0.0318807 0)
(0.503921 0.0363764 0)
(0.49631 0.0398396 0)
(0.488259 0.0421351 0)
(0.480039 0.0431864 0)
(0.471927 0.0429781 0)
(0.464182 0.0415542 0)
(0.457076 0.0390222 0)
(0.450853 0.0355308 0)
(0.445681 0.0312959 0)
(0.441676 0.026555 0)
(0.438888 0.0215579 0)
(0.437349 0.0165964 0)
(0.437001 0.01191 0)
(0.437708 0.00772902 0)
(0.439326 0.00427932 0)
(0.441655 0.00172782 0)
(0.444455 0.000218278 0)
(0.447462 -0.000162287 0)
(0.450394 0.000623238 0)
(0.452962 0.00255098 0)
(0.454885 0.00553816 0)
(0.455905 0.00944902 0)
(0.455798 0.0141006 0)
(0.454393 0.0192537 0)
(0.451556 0.0246473 0)
(0.447216 0.0299565 0)
(0.441385 0.0348801 0)
(0.434128 0.0390822 0)
(0.425618 0.0422746 0)
(0.4161 0.0441879 0)
(0.40585 0.0446751 0)
(0.395182 0.0435851 0)
(0.384406 0.0408514 0)
(0.373834 0.0364628 0)
(0.363771 0.0304785 0)
(0.354514 0.0229615 0)
(0.346367 0.0140232 0)
(0.339622 0.00382066 0)
(0.514364 -0.00188436 0)
(0.516811 -0.00693425 0)
(0.520261 -0.00971075 0)
(0.524089 -0.0103072 0)
(0.527888 -0.00874222 0)
(0.531143 -0.00526564 0)
(0.533407 -0.000137156 0)
(0.534442 0.00624858 0)
(0.53396 0.0134685 0)
(0.531848 0.0210869 0)
(0.528091 0.0287048 0)
(0.522722 0.0358805 0)
(0.515936 0.0422553 0)
(0.507981 0.0475389 0)
(0.499154 0.0515207 0)
(0.489772 0.0540367 0)
(0.480171 0.054995 0)
(0.470695 0.0543779 0)
(0.461672 0.0522475 0)
(0.453426 0.0487361 0)
(0.446262 0.0440381 0)
(0.440405 0.0384148 0)
(0.435979 0.0321756 0)
(0.433075 0.0256362 0)
(0.431715 0.0191635 0)
(0.431801 0.0130352 0)
(0.433196 0.0075297 0)
(0.43572 0.00295323 0)
(0.439129 -0.000491454 0)
(0.443136 -0.00263068 0)
(0.447419 -0.00335497 0)
(0.451634 -0.00260749 0)
(0.455425 -0.000406794 0)
(0.458447 0.00315053 0)
(0.460383 0.00790005 0)
(0.460959 0.0136168 0)
(0.459973 0.0200161 0)
(0.457251 0.0267742 0)
(0.452694 0.0335009 0)
(0.4463 0.0398431 0)
(0.438148 0.0453237 0)
(0.428432 0.0496043 0)
(0.417482 0.052397 0)
(0.405632 0.053458 0)
(0.393223 0.052636 0)
(0.380659 0.0498577 0)
(0.368306 0.045121 0)
(0.356526 0.0384739 0)
(0.345645 0.0300149 0)
(0.335989 0.0198912 0)
(0.327888 0.00824323 0)
(0.501032 -0.00479615 0)
(0.507392 -0.0101421 0)
(0.51447 -0.0128771 0)
(0.521625 -0.0129637 0)
(0.528375 -0.0104825 0)
(0.534148 -0.0056964 0)
(0.538434 0.00104783 0)
(0.540894 0.00925232 0)
(0.541274 0.0183927 0)
(0.539491 0.0279489 0)
(0.53553 0.0374078 0)
(0.529477 0.0462318 0)
(0.521634 0.0539385 0)
(0.512355 0.0602267 0)
(0.501997 0.0648632 0)
(0.490953 0.0676673 0)
(0.479639 0.0685345 0)
(0.468486 0.0674443 0)
(0.4579 0.0644764 0)
(0.448278 0.0597959 0)
(0.439993 0.0536399 0)
(0.433328 0.0463375 0)
(0.428445 0.0382737 0)
(0.425454 0.029865 0)
(0.424358 0.0215482 0)
(0.425002 0.0136665 0)
(0.427273 0.00657291 0)
(0.430955 0.000645138 0)
(0.435713 -0.0038809 0)
(0.441226 -0.006773 0)
(0.447097 -0.00791012 0)
(0.452902 -0.00718946 0)
(0.458188 -0.00463455 0)
(0.462531 -0.000370147 0)
(0.465543 0.00542338 0)
(0.466903 0.0124656 0)
(0.466367 0.0204027 0)
(0.463729 0.0288449 0)
(0.458907 0.0373546 0)
(0.451828 0.0454351 0)
(0.442567 0.0525389 0)
(0.43146 0.0582834 0)
(0.418816 0.062221 0)
(0.405029 0.0640504 0)
(0.390576 0.0636193 0)
(0.375911 0.0608519 0)
(0.361472 0.055766 0)
(0.347665 0.0484157 0)
(0.334887 0.0388984 0)
(0.323487 0.0273906 0)
(0.313828 0.0140943 0)
(0.484054 -0.011678 0)
(0.495138 -0.0171247 0)
(0.50664 -0.0195682 0)
(0.517831 -0.0187785 0)
(0.528119 -0.0149357 0)
(0.536892 -0.00828333 0)
(0.543598 0.00064279 0)
(0.547796 0.0112257 0)
(0.549212 0.0228407 0)
(0.547777 0.034851 0)
(0.543485 0.0466361 0)
(0.536449 0.0574799 0)
(0.527153 0.0668944 0)
(0.516139 0.0745101 0)
(0.503859 0.0800459 0)
(0.490783 0.0832794 0)
(0.477418 0.0840841 0)
(0.46429 0.0824498 0)
(0.451899 0.0784716 0)
(0.440706 0.0723749 0)
(0.431168 0.0644584 0)
(0.42364 0.0551184 0)
(0.418325 0.0448398 0)
(0.415357 0.0341975 0)
(0.414682 0.0236376 0)
(0.416116 0.0136359 0)
(0.419536 0.00465778 0)
(0.424664 -0.00290936 0)
(0.43113 -0.00872561 0)
(0.438498 -0.0125185 0)
(0.446281 -0.0141468 0)
(0.45394 -0.0134059 0)
(0.460861 -0.0103491 0)
(0.466552 -0.00517602 0)
(0.470579 0.00196641 0)
(0.47256 0.0106952 0)
(0.472251 0.0205235 0)
(0.469466 0.0310355 0)
(0.464062 0.0417003 0)
(0.455968 0.0518742 0)
(0.445388 0.0610801 0)
(0.43256 0.068589 0)
(0.41785 0.0738499 0)
(0.401838 0.0766727 0)
(0.38505 0.0767664 0)
(0.36804 0.0740912 0)
(0.351294 0.0686717 0)
(0.335252 0.0605577 0)
(0.320366 0.0498652 0)
(0.307069 0.0367791 0)
(0.295737 0.0215875 0)
(0.463487 -0.023327 0)
(0.479791 -0.0286392 0)
(0.495978 -0.0304466 0)
(0.511244 -0.0283755 0)
(0.524943 -0.0227591 0)
(0.536536 -0.0135987 0)
(0.545578 -0.00176233 0)
(0.55155 0.0120358 0)
(0.554052 0.027093 0)
(0.553003 0.0424113 0)
(0.548303 0.0573466 0)
(0.540196 0.0705963 0)
(0.52939 0.0818787 0)
(0.516508 0.0909164 0)
(0.502111 0.097429 0)
(0.486784 0.101119 0)
(0.471173 0.101852 0)
(0.455924 0.0995856 0)
(0.441647 0.0944123 0)
(0.428904 0.0866119 0)
(0.418191 0.0765574 0)
(0.409942 0.0647519 0)
(0.404461 0.0518074 0)
(0.401799 0.0384589 0)
(0.401848 0.0252135 0)
(0.404461 0.0126868 0)
(0.409418 0.00144333 0)
(0.416407 -0.0080591 0)
(0.424969 -0.0153958 0)
(0.434472 -0.0201975 0)
(0.444318 -0.0223459 0)
(0.453771 -0.0214155 0)
(0.461951 -0.0175015 0)
(0.468416 -0.0111876 0)
(0.472808 -0.00228119 0)
(0.474648 0.0085815 0)
(0.473785 0.0207723 0)
(0.470123 0.0337603 0)
(0.463493 0.0470333 0)
(0.453973 0.0598309 0)
(0.441558 0.0714132 0)
(0.426467 0.081178 0)
(0.40949 0.0880694 0)
(0.391144 0.091695 0)
(0.371973 0.0923381 0)
(0.35268 0.0897276 0)
(0.333731 0.0839492 0)
(0.315581 0.0750145 0)
(0.298737 0.0630194 0)
(0.283716 0.0481594 0)
(0.270935 0.0307606 0)
(0.439045 -0.0404174 0)
(0.459622 -0.0448414 0)
(0.479026 -0.0454006 0)
(0.496532 -0.0409857 0)
(0.511857 -0.0333226 0)
(0.524811 -0.0217255 0)
(0.534997 -0.00686286 0)
(0.542405 0.00998777 0)
(0.545903 0.028626 0)
(0.545392 0.0478038 0)
(0.540421 0.0676051 0)
(0.531334 0.0843454 0)
(0.519549 0.0984448 0)
(0.50559 0.109486 0)
(0.489886 0.117243 0)
(0.473073 0.121397 0)
(0.455919 0.121925 0)
(0.439151 0.1188 0)
(0.423542 0.112136 0)
(0.409767 0.102239 0)