/*--------------------------------*- C++ -*----------------------------------*\
  =========                 |
  \\      /  F ield         | OpenFOAM: The Open Source CFD Toolbox
   \\    /   O peration     | Website:  https://openfoam.org
    \\  /    A nd           | Version:  10
     \\/     M anipulation  |
\*---------------------------------------------------------------------------*/
FoamFile
{
    format      ascii;
    class       volScalarField;
    location    "0.998694";
    object      p;
}
// * * * * * * * * * * * * * * * * * * * * * * * * * * * * * * * * * * * * * //

dimensions      [1 -1 -2 0 0 0 0];

internalField   nonuniform List<scalar> 
16320
(
0.472384
0.470319
0.468372
0.466615
0.465203
0.464251
0.463779
0.463883
0.464398
0.465521
0.467507
0.47066
0.475261
0.482
0.491889
0.506583
0.528297
0.558688
0.59664
0.636546
0.67055
0.693532
0.705155
0.708038
0.706017
0.701052
0.693446
0.684653
0.675001
0.664762
0.654686
0.644852
0.635985
0.474361
0.472095
0.469901
0.467882
0.466277
0.465017
0.464224
0.464127
0.464453
0.465343
0.467095
0.470033
0.474536
0.481173
0.49089
0.505439
0.526811
0.556419
0.593073
0.631233
0.663485
0.685134
0.695892
0.698224
0.696112
0.691114
0.683701
0.675258
0.66584
0.656206
0.646863
0.637787
0.629952
0.476411
0.473863
0.471355
0.468991
0.466824
0.465086
0.463992
0.463641
0.463976
0.464585
0.466282
0.469196
0.473758
0.480561
0.490534
0.505299
0.526336
0.555438
0.590822
0.627103
0.657408
0.677632
0.687638
0.689275
0.687264
0.682382
0.675234
0.667159
0.658098
0.649055
0.64034
0.632288
0.625373
0.477484
0.474541
0.471821
0.469329
0.467078
0.465227
0.463892
0.463292
0.463434
0.464083
0.465564
0.468527
0.473246
0.480262
0.490616
0.505544
0.526878
0.555515
0.589665
0.62384
0.652044
0.670845
0.679865
0.681249
0.679368
0.674663
0.668002
0.660255
0.651707
0.643356
0.635316
0.628342
0.622361
0.478832
0.475644
0.472553
0.469612
0.467065
0.464896
0.463262
0.462491
0.462524
0.463112
0.464615
0.467748
0.47279
0.48023
0.491098
0.506598
0.528233
0.556471
0.589241
0.621324
0.647257
0.664437
0.672828
0.673939
0.672234
0.667918
0.661812
0.654386
0.646576
0.638984
0.631901
0.625878
0.620853
0.480025
0.476398
0.472818
0.46945
0.466447
0.463948
0.46208
0.461228
0.461246
0.461872
0.463499
0.467012
0.472557
0.480576
0.492099
0.508312
0.530289
0.558136
0.589375
0.619152
0.64302
0.658463
0.666153
0.667267
0.665809
0.661945
0.656409
0.649627
0.642659
0.635837
0.629889
0.624798
0.620708
0.480875
0.476787
0.472781
0.468951
0.46556
0.462711
0.460668
0.459634
0.459711
0.460519
0.462294
0.466476
0.472669
0.481427
0.493713
0.51072
0.532971
0.56024
0.589736
0.6173
0.638819
0.652835
0.659581
0.661435
0.6602
0.656937
0.651782
0.645836
0.639783
0.634013
0.629055
0.624912
0.621681
0.481611
0.477035
0.472566
0.468377
0.464526
0.461315
0.459015
0.457892
0.458088
0.458976
0.461374
0.466386
0.473223
0.482881
0.495981
0.513606
0.536103
0.562566
0.590436
0.615553
0.634909
0.64768
0.653898
0.656076
0.655183
0.652406
0.647993
0.64298
0.637847
0.63321
0.62922
0.625995
0.623698
0.482191
0.47731
0.472119
0.467143
0.46279
0.459312
0.456967
0.455929
0.456199
0.457565
0.460819
0.466549
0.474157
0.485082
0.499014
0.51714
0.539493
0.564885
0.590723
0.613672
0.631312
0.643026
0.648924
0.651269
0.65083
0.648525
0.644989
0.640936
0.636872
0.633252
0.630226
0.62793
0.626376
0.482821
0.477153
0.471515
0.466196
0.461519
0.457715
0.4552
0.45412
0.454576
0.456429
0.46055
0.467269
0.476231
0.487496
0.502267
0.521055
0.542738
0.566922
0.590927
0.611869
0.627977
0.638623
0.644563
0.647048
0.647059
0.645406
0.642775
0.639686
0.636706
0.63404
0.631942
0.630471
0.629583
0.483566
0.477423
0.471353
0.465444
0.460294
0.456153
0.453586
0.452691
0.453444
0.455745
0.461033
0.468774
0.478546
0.490849
0.5059
0.524847
0.545872
0.56871
0.590964
0.610133
0.624969
0.634845
0.640779
0.643426
0.643974
0.643076
0.641356
0.639274
0.637234
0.635498
0.634193
0.633403
0.633149
0.484655
0.478104
0.471573
0.465187
0.459411
0.455189
0.452619
0.452036
0.453266
0.456025
0.462545
0.471001
0.481612
0.4946
0.509949
0.528483
0.548836
0.57041
0.591017
0.60864
0.622352
0.631708
0.637611
0.64036
0.641681
0.64162
0.640779
0.639614
0.638442
0.637501
0.636866
0.636624
0.636796
0.486291
0.479356
0.472225
0.465529
0.4603
0.456133
0.453643
0.453047
0.454539
0.458409
0.465288
0.474389
0.485498
0.498856
0.514218
0.532343
0.551904
0.57221
0.591279
0.607529
0.620121
0.628928
0.635029
0.638521
0.640399
0.64107
0.641042
0.640658
0.640256
0.639955
0.639849
0.640023
0.640572
0.488712
0.481686
0.474302
0.467605
0.462087
0.457995
0.455805
0.455826
0.457689
0.462303
0.469537
0.478875
0.49031
0.503672
0.518898
0.536521
0.555327
0.574381
0.591995
0.606958
0.618474
0.627218
0.633439
0.637535
0.640019
0.641383
0.642041
0.642373
0.642583
0.642898
0.643303
0.643903
0.644903
0.492114
0.484932
0.477512
0.470873
0.465471
0.461771
0.460266
0.460747
0.463025
0.467949
0.475244
0.484622
0.496101
0.509294
0.524335
0.541319
0.559412
0.577111
0.59328
0.606793
0.617807
0.626448
0.63293
0.637475
0.640499
0.642482
0.643853
0.64482
0.645582
0.646243
0.646951
0.647821
0.648965
0.496515
0.489147
0.482039
0.47572
0.470697
0.467451
0.466202
0.466951
0.469769
0.474894
0.482195
0.491556
0.502835
0.515841
0.530791
0.547285
0.564272
0.580517
0.595098
0.60754
0.618073
0.626662
0.633334
0.63824
0.641755
0.644306
0.646189
0.647612
0.648768
0.649765
0.650668
0.651646
0.6528
0.501688
0.494676
0.487953
0.482042
0.477443
0.474476
0.473604
0.47471
0.477909
0.483249
0.490446
0.499611
0.510757
0.523838
0.538649
0.554312
0.569903
0.584523
0.597598
0.609213
0.619273
0.627786
0.63453
0.639738
0.643642
0.646595
0.64884
0.650585
0.651982
0.653116
0.654095
0.654997
0.655967
0.507934
0.50145
0.495187
0.489841
0.485754
0.483286
0.482636
0.483978
0.4873
0.492657
0.499837
0.509126
0.520471
0.533469
0.547531
0.561966
0.575986
0.588931
0.60092
0.611764
0.621501
0.629725
0.636432
0.641733
0.645853
0.649042
0.6515
0.6534
0.654869
0.655953
0.656701
0.657331
0.658042
0.514804
0.509159
0.503658
0.499003
0.495451
0.493217
0.492823
0.494417
0.497838
0.50338
0.510929
0.520411
0.531549
0.543862
0.556867
0.569857
0.582169
0.593938
0.604934
0.615183
0.624324
0.632169
0.638656
0.643894
0.648044
0.651292
0.653751
0.655556
0.656891
0.657824
0.658429
0.65879
0.659166
0.522273
0.517697
0.513089
0.50919
0.506311
0.504799
0.504793
0.506674
0.510361
0.515957
0.523403
0.532552
0.54305
0.554435
0.566118
0.577514
0.588681
0.599385
0.609489
0.619021
0.627474
0.63476
0.640877
0.645879
0.649804
0.65285
0.655152
0.656878
0.658084
0.658814
0.659178
0.659237
0.659038
0.530062
0.526549
0.522918
0.519832
0.517647
0.516815
0.517331
0.519558
0.523431
0.528871
0.53607
0.54473
0.554345
0.564549
0.574851
0.58519
0.595313
0.605087
0.614471
0.623061
0.630734
0.637349
0.642841
0.647319
0.650847
0.653646
0.655806
0.65734
0.658332
0.65869
0.658715
0.658532
0.658275
0.537957
0.535191
0.532647
0.530411
0.529021
0.52872
0.529674
0.53215
0.536093
0.541469
0.548321
0.556295
0.564781
0.573886
0.583283
0.592728
0.602013
0.611034
0.619429
0.627111
0.633805
0.639506
0.644178
0.648097
0.651287
0.653749
0.655628
0.656781
0.657521
0.657866
0.657589
0.65705
0.6563
0.545403
0.543442
0.541841
0.540431
0.539791
0.540048
0.541408
0.544099
0.548071
0.553187
0.559353
0.566455
0.5743
0.582704
0.591385
0.600082
0.608698
0.616789
0.624189
0.630783
0.636336
0.641145
0.645179
0.648539
0.651165
0.653013
0.65467
0.655587
0.656005
0.65594
0.655376
0.654488
0.653284
0.552332
0.550951
0.549891
0.549373
0.549316
0.550043
0.55169
0.55441
0.558239
0.563172
0.568953
0.575688
0.583105
0.591001
0.599108
0.607159
0.614932
0.62215
0.628387
0.633928
0.638673
0.642651
0.645947
0.648545
0.650917
0.651639
0.652915
0.65345
0.65349
0.652998
0.651922
0.650416
0.648534
0.558735
0.557779
0.557246
0.557183
0.557614
0.558697
0.560624
0.563479
0.567291
0.572018
0.577715
0.584185
0.591248
0.59869
0.606262
0.613685
0.620445
0.626756
0.632265
0.636979
0.64092
0.644006
0.646774
0.647633
0.649314
0.650013
0.650482
0.650466
0.649804
0.648524
0.64677
0.644497
0.641746
0.564619
0.564047
0.563879
0.564153
0.565005
0.566464
0.568623
0.571614
0.575482
0.580219
0.585699
0.591891
0.598589
0.605562
0.612544
0.619245
0.62546
0.631077
0.635926
0.63991
0.643277
0.644672
0.646435
0.647125
0.647626
0.647593
0.647055
0.646091
0.64423
0.642461
0.639648
0.636344
0.633074
0.569958
0.569766
0.56992
0.570475
0.571593
0.573307
0.5757
0.578826
0.582714
0.587366
0.59269
0.598597
0.604939
0.611496
0.618031
0.62428
0.630037
0.635158
0.639581
0.642252
0.644512
0.645647
0.646172
0.646052
0.645374
0.644091
0.641912
0.640833
0.6378
0.634351
0.631149
0.62805
0.624453
0.574718
0.574932
0.575428
0.576272
0.577619
0.579514
0.582026
0.58519
0.589068
0.593599
0.598758
0.60445
0.610518
0.616766
0.622977
0.628904
0.634209
0.638838
0.642238
0.644655
0.645907
0.646244
0.645764
0.644291
0.641838
0.640354
0.636884
0.633345
0.629997
0.626686
0.623168
0.619416
0.615841
0.578921
0.579547
0.580407
0.581563
0.583156
0.585204
0.587806
0.590995
0.594809
0.599223
0.604207
0.609677
0.615493
0.621467
0.62738
0.633077
0.637705
0.641856
0.644881
0.646594
0.647182
0.646704
0.644967
0.641584
0.639177
0.635068
0.630717
0.626763
0.622863
0.619113
0.615323
0.612134
0.608625
0.58262
0.583668
0.584872
0.58637
0.588189
0.590389
0.593059
0.596247
0.599983
0.604265
0.60906
0.614297
0.619858
0.625599
0.630945
0.636255
0.640877
0.644617
0.647176
0.64831
0.648275
0.646313
0.644558
0.639759
0.635055
0.630093
0.625095
0.620273
0.616203
0.612485
0.608291
0.605194
0.601625
0.585826
0.587274
0.588859
0.590691
0.592713
0.595055
0.597772
0.60093
0.604561
0.608673
0.613237
0.618203
0.623471
0.628744
0.633942
0.639024
0.643443
0.646966
0.649061
0.649699
0.648387
0.647263
0.64278
0.637254
0.631478
0.625505
0.61972
0.614637
0.610543
0.605756
0.601939
0.598885
0.59538
0.588618
0.590451
0.592357
0.594423
0.596653
0.599109
0.601857
0.604952
0.608436
0.612345
0.616667
0.621345
0.62623
0.631323
0.636345
0.641174
0.645468
0.648774
0.650278
0.650166
0.649989
0.646594
0.641302
0.634969
0.628201
0.6214
0.615125
0.609503
0.604944
0.600608
0.596363
0.593371
0.590181
0.591028
0.593222
0.595419
0.597689
0.600057
0.602576
0.60531
0.608317
0.611649
0.61535
0.619404
0.623766
0.628412
0.633198
0.638016
0.642655
0.646784
0.649682
0.650869
0.651179
0.649551
0.645716
0.639839
0.632582
0.625347
0.61797
0.611146
0.60518
0.600267
0.596504
0.591787
0.588908
0.586341
0.59306
0.595579
0.598042
0.600477
0.602941
0.605482
0.608171
0.61109
0.614231
0.617687
0.621439
0.625459
0.629814
0.634317
0.638872
0.643264
0.647136
0.649746
0.650686
0.65119
0.648798
0.644584
0.63817
0.630479
0.622671
0.615159
0.607841
0.601715
0.596606
0.592581
0.589309
0.585767
0.583846
0.594672
0.597519
0.600175
0.602738
0.605275
0.607832
0.61046
0.613246
0.616152
0.619309
0.622756
0.626345
0.630398
0.634549
0.638801
0.64293
0.64656
0.648963
0.649948
0.649937
0.647516
0.642936
0.635848
0.628517
0.620144
0.612396
0.605308
0.599288
0.594255
0.590314
0.587791
0.584236
0.582163
0.596077
0.599115
0.601882
0.604552
0.60712
0.609637
0.612173
0.614712
0.617347
0.620171
0.623235
0.62641
0.630089
0.633872
0.637796
0.64162
0.645019
0.647105
0.647996
0.648053
0.644972
0.640816
0.634012
0.626528
0.618612
0.611003
0.604149
0.5981
0.59311
0.589215
0.586556
0.584682
0.582035
0.597421
0.600454
0.603247
0.605928
0.608469
0.610894
0.613191
0.615463
0.617765
0.6202
0.622847
0.625562
0.62884
0.632171
0.635736
0.639273
0.642376
0.644117
0.644274
0.645186
0.642005
0.637489
0.631568
0.6246
0.617234
0.610143
0.603835
0.598247
0.593479
0.589457
0.58657
0.585059
0.583293
0.59842
0.601423
0.6042
0.606755
0.609298
0.611444
0.613492
0.61544
0.617384
0.619419
0.62142
0.623919
0.626574
0.629625
0.632856
0.635827
0.637736
0.640656
0.640739
0.640266
0.638229
0.634731
0.629169
0.623297
0.616672
0.610126
0.604344
0.598951
0.594633
0.590933
0.587769
0.585925
0.585463
0.599087
0.60202
0.604688
0.60709
0.609442
0.611337
0.61309
0.61469
0.616248
0.617566
0.619384
0.621312
0.623655
0.626269
0.628835
0.630776
0.633909
0.635509
0.635692
0.635841
0.634734
0.631164
0.627048
0.621773
0.616131
0.610562
0.605241
0.600065
0.596518
0.592934
0.590106
0.588046
0.586944
0.599473
0.602337
0.604799
0.607003
0.608982
0.610637
0.611992
0.613295
0.614046
0.615239
0.616563
0.618185
0.620007
0.621401
0.623904
0.626659
0.629006
0.63017
0.631249
0.631363
0.630706
0.628443
0.625082
0.620654
0.615832
0.61093
0.606338
0.602092
0.598325
0.594827
0.592949
0.591108
0.589903
0.599611
0.602403
0.604643
0.606505
0.608086
0.609337
0.610395
0.610994
0.611537
0.612347
0.613309
0.614428
0.615331
0.616328
0.619353
0.621797
0.62343
0.625496
0.62656
0.627329
0.627143
0.625577
0.62329
0.619526
0.615568
0.611319
0.607352
0.603709
0.600459
0.597452
0.595375
0.594717
0.593525
0.599875
0.602401
0.604298
0.605743
0.606873
0.607768
0.60828
0.608269
0.608669
0.609032
0.609518
0.609732
0.609848
0.612624
0.614563
0.616121
0.618521
0.620825
0.622431
0.623502
0.623772
0.623193
0.621252
0.618634
0.615626
0.611735
0.608557
0.605438
0.60275
0.600517
0.598691
0.597505
0.597601
0.600471
0.602546
0.603929
0.604886
0.605609
0.606068
0.605605
0.605548
0.605493
0.605427
0.605106
0.604231
0.606744
0.60791
0.60897
0.611315
0.614208
0.615964
0.618421
0.62016
0.620897
0.620823
0.61975
0.618064
0.615267
0.612481
0.609737
0.607203
0.605036
0.603385
0.602307
0.601623
0.60117
0.601514
0.602961
0.603761
0.604149
0.604278
0.604193
0.603247
0.602829
0.602264
0.601664
0.600901
0.600281
0.601902
0.602839
0.604237
0.60699
0.609187
0.612186
0.614956
0.617168
0.61844
0.618855
0.618512
0.617286
0.615404
0.613306
0.6112
0.609077
0.607538
0.606411
0.605877
0.605793
0.606241
0.603139
0.603817
0.603969
0.603781
0.603386
0.602373
0.601168
0.600249
0.599106
0.597739
0.596245
0.597451
0.597625
0.597963
0.600008
0.603015
0.605254
0.608654
0.611841
0.614465
0.616385
0.617276
0.617442
0.616871
0.615683
0.614256
0.61266
0.611194
0.61019
0.609664
0.609537
0.609935
0.610978
0.605308
0.60525
0.604739
0.603969
0.602992
0.60102
0.599684
0.598102
0.596459
0.594477
0.592801
0.593556
0.593674
0.594117
0.596274
0.599116
0.602234
0.605797
0.609213
0.612203
0.614619
0.616116
0.616722
0.616737
0.616216
0.615473
0.614239
0.613664
0.613129
0.612997
0.613439
0.614348
0.615858
0.608284
0.607503
0.606283
0.604804
0.60322
0.600631
0.598756
0.596601
0.594413
0.591704
0.590442
0.590251
0.590092
0.591168
0.593722
0.59573
0.599531
0.603475
0.607207
0.610561
0.613307
0.615283
0.616483
0.61698
0.617057
0.616822
0.616458
0.616296
0.616315
0.616705
0.617628
0.619071
0.621014
0.612091
0.610629
0.608705
0.6065
0.604158
0.601104
0.59867
0.595971
0.593166
0.589879
0.588928
0.587807
0.58752
0.588857
0.591346
0.593877
0.597677
0.601822
0.605852
0.60961
0.612729
0.615105
0.616775
0.617863
0.618495
0.618819
0.619034
0.61936
0.619907
0.620821
0.622225
0.624145
0.626637
0.616707
0.614656
0.612109
0.609224
0.60616
0.602528
0.599467
0.596324
0.593029
0.589381
0.588188
0.586675
0.586242
0.587763
0.58959
0.592792
0.596702
0.601066
0.605303
0.609416
0.612937
0.615777
0.617945
0.619533
0.620682
0.621562
0.622312
0.623135
0.624158
0.625525
0.627369
0.629753
0.632699
0.622091
0.619527
0.61643
0.612969
0.609264
0.605126
0.601384
0.597654
0.593975
0.590016
0.588812
0.586916
0.586314
0.587653
0.589319
0.592658
0.59663
0.601317
0.605763
0.610145
0.614062
0.61737
0.620074
0.622207
0.623857
0.625207
0.62647
0.627768
0.629249
0.631075
0.633346
0.636119
0.639431
0.628036
0.624984
0.621421
0.617518
0.613342
0.608776
0.604534
0.600292
0.596128
0.592039
0.590179
0.58814
0.587449
0.588532
0.590326
0.593613
0.597788
0.60244
0.607266
0.612017
0.616351
0.620146
0.623366
0.626014
0.628173
0.630003
0.63173
0.633445
0.635326
0.637548
0.640189
0.643312
0.646946
0.634318
0.630938
0.626986
0.622671
0.618173
0.613234
0.60867
0.604129
0.599794
0.595522
0.593113
0.59077
0.589954
0.590703
0.592585
0.595684
0.600242
0.604911
0.610096
0.615211
0.619996
0.624291
0.628012
0.631114
0.633747
0.636034
0.638239
0.640271
0.642558
0.645171
0.648146
0.651574
0.655455
0.641079
0.637264
0.632923
0.628277
0.623459
0.618373
0.613496
0.608822
0.604428
0.600426
0.597131
0.594948
0.594112
0.594541
0.596349
0.599438
0.603974
0.608922
0.61441
0.61992
0.625159
0.629966
0.634174
0.637338
0.640399
0.643065
0.645586
0.64809
0.650788
0.653849
0.65718
0.660983
0.665086
0.648279
0.643918
0.639221
0.634124
0.629019
0.623872
0.618803
0.614052
0.60965
0.605786
0.602596
0.600388
0.599585
0.599943
0.601614
0.605153
0.609478
0.614623
0.620368
0.626212
0.631817
0.636889
0.641037
0.644185
0.647302
0.650179
0.653016
0.655917
0.659281
0.663058
0.667085
0.671304
0.675672
0.655931
0.650975
0.645767
0.640324
0.63475
0.629474
0.624298
0.619552
0.615256
0.61159
0.608677
0.606796
0.606223
0.606768
0.608583
0.61243
0.616829
0.622167
0.628037
0.633991
0.639589
0.644363
0.64756
0.650683
0.653726
0.656735
0.659801
0.66309
0.666831
0.671164
0.675994
0.681176
0.686649
0.664135
0.658448
0.652707
0.646729
0.640782
0.635181
0.629781
0.625128
0.621082
0.617707
0.615175
0.613849
0.613748
0.614821
0.617118
0.621404
0.625958
0.631395
0.637148
0.642806
0.648043
0.65072
0.654042
0.65678
0.65976
0.662742
0.665994
0.669914
0.674355
0.679662
0.685474
0.69132
0.697159
0.672686
0.666481
0.660064
0.653535
0.647028
0.640982
0.635613
0.630662
0.626894
0.623873
0.621972
0.621306
0.621912
0.623772
0.626796
0.631548
0.636436
0.641816
0.647076
0.651883
0.655988
0.657521
0.659959
0.662467
0.66526
0.668399
0.672335
0.677258
0.682716
0.688716
0.695328
0.702216
0.708839
0.681093
0.674683
0.668109
0.660815
0.653635
0.647118
0.641405
0.636715
0.632675
0.630125
0.628847
0.628918
0.630483
0.633293
0.637199
0.642494
0.647618
0.652674
0.65702
0.660428
0.662972
0.663845
0.665393
0.667452
0.67009
0.673514
0.678245
0.684177
0.690993
0.69829
0.706522
0.714462
0.721526
0.689309
0.683068
0.675627
0.668437
0.660646
0.653584
0.647489
0.642551
0.638905
0.636718
0.635951
0.636706
0.639158
0.643068
0.647863
0.653568
0.658688
0.663066
0.666111
0.667806
0.668684
0.668804
0.669634
0.671204
0.673733
0.677483
0.682806
0.689674
0.697693
0.706188
0.715968
0.725302
0.733845
0.698294
0.690558
0.683319
0.675338
0.667561
0.660533
0.653963
0.648793
0.645174
0.643308
0.643216
0.644981
0.648207
0.652708
0.658164
0.663994
0.66876
0.672067
0.673467
0.67337
0.672637
0.67196
0.67218
0.673386
0.67586
0.679923
0.685745
0.693392
0.702384
0.712149
0.723205
0.734205
0.744572
0.70778
0.699626
0.691009
0.682354
0.674218
0.66672
0.660463
0.655395
0.651823
0.650231
0.650616
0.652921
0.656843
0.662034
0.667677
0.673065
0.676982
0.678779
0.67847
0.67664
0.674727
0.673214
0.6729
0.673874
0.676378
0.680686
0.687007
0.695319
0.705159
0.716111
0.72806
0.740332
0.753037
0.716482
0.708288
0.699097
0.689534
0.680384
0.672827
0.666541
0.661684
0.658811
0.657337
0.657995
0.660693
0.664992
0.670233
0.675588
0.680066
0.682614
0.68279
0.680773
0.677582
0.674384
0.672451
0.671838
0.672773
0.675439
0.680063
0.686856
0.695716
0.706179
0.717866
0.730502
0.743776
0.758697
0.724242
0.715579
0.706453
0.696622
0.686973
0.678618
0.672116
0.667437
0.664479
0.663712
0.665061
0.667859
0.67215
0.676898
0.681396
0.684471
0.685396
0.683943
0.680458
0.676089
0.672406
0.670046
0.669322
0.670348
0.673289
0.678212
0.685372
0.69465
0.705588
0.717797
0.730799
0.744794
0.761722
0.731386
0.721982
0.711999
0.702343
0.69312
0.68433
0.677242
0.672328
0.669859
0.669348
0.670511
0.673498
0.677557
0.681466
0.684601
0.685996
0.685247
0.682402
0.677937
0.672993
0.668894
0.666357
0.665674
0.666878
0.670092
0.675398
0.682817
0.692271
0.703438
0.715994
0.729538
0.744365
0.761608
0.737744
0.727599
0.71708
0.707105
0.698072
0.689242
0.681891
0.676815
0.674068
0.673511
0.674898
0.677519
0.680425
0.683249
0.685045
0.684781
0.68269
0.67883
0.673687
0.668658
0.664397
0.661962
0.661457
0.662836
0.66628
0.671846
0.679392
0.688855
0.699953
0.712465
0.725974
0.741459
0.759886
0.742812
0.732177
0.721114
0.710472
0.700813
0.692348
0.685238
0.679988
0.677078
0.676479
0.677316
0.679558
0.681644
0.682976
0.682807
0.681328
0.678184
0.673552
0.668177
0.663337
0.659761
0.657531
0.657252
0.658766
0.662333
0.667967
0.675442
0.684687
0.695476
0.70765
0.720904
0.736799
0.755373
0.746625
0.734965
0.723266
0.712103
0.702062
0.693526
0.68658
0.681524
0.678568
0.677582
0.678155
0.679475
0.680558
0.680904
0.67985
0.677356
0.673483
0.66856
0.663301
0.658555
0.655206
0.653575
0.653547
0.655129
0.658684
0.664184
0.671384
0.680152
0.690406
0.70207
0.714971
0.730373
0.748306
0.748677
0.736004
0.723707
0.712
0.701689
0.693045
0.68618
0.681167
0.678097
0.67694
0.677016
0.677775
0.6782
0.677327
0.675475
0.672474
0.668372
0.663607
0.658854
0.654749
0.651844
0.650431
0.650665
0.652299
0.655725
0.660919
0.667654
0.675743
0.68527
0.69623
0.708593
0.72283
0.739671
0.748931
0.735226
0.72204
0.710203
0.699662
0.690971
0.684197
0.679298
0.676172
0.674622
0.674367
0.674395
0.674132
0.673126
0.67086
0.667246
0.66322
0.65903
0.655043
0.65169
0.649407
0.648433
0.648882
0.65054
0.653777
0.65855
0.664665
0.671961
0.680647
0.690737
0.702309
0.715162
0.730833
0.749033
0.733827
0.719606
0.706926
0.696241
0.687536
0.680791
0.675903
0.672712
0.670924
0.670051
0.669731
0.668991
0.667568
0.66539
0.662628
0.658781
0.65525
0.652092
0.64955
0.648008
0.647616
0.648258
0.649994
0.65305
0.657357
0.662785
0.669219
0.677082
0.686136
0.696821
0.70831
0.722579
0.748414
0.731816
0.716483
0.703028
0.691865
0.683067
0.676461
0.671589
0.668341
0.666407
0.665258
0.664375
0.663551
0.662187
0.660291
0.65799
0.655736
0.653133
0.65047
0.648696
0.647866
0.647938
0.648803
0.650694
0.653622
0.657527
0.662254
0.667965
0.675047
0.683102
0.692723
0.702994
0.715803
0.748901
0.730264
0.713542
0.69909
0.687302
0.678255
0.671618
0.66687
0.663634
0.661607
0.660358
0.659434
0.658443
0.657429
0.656068
0.654526
0.652869
0.651313
0.650242
0.649455
0.649176
0.649607
0.650754
0.652788
0.655653
0.659243
0.663637
0.668641
0.674746
0.682014
0.690623
0.699838
0.711247
0.749412
0.729507
0.711342
0.695797
0.68322
0.673732
0.666968
0.662308
0.659145
0.657122
0.655908
0.655119
0.65444
0.653676
0.653037
0.652374
0.651761
0.651251
0.650963
0.651146
0.651754
0.652899
0.65463
0.656864
0.659566
0.6629
0.666859
0.671375
0.676854
0.683207
0.690752
0.698916
0.709651
0.751292
0.729453
0.710067
0.693444
0.680114
0.670031
0.66307
0.658468
0.65542
0.653473
0.652407
0.651839
0.651572
0.651448
0.651428
0.651689
0.65208
0.652522
0.653368
0.654621
0.656175
0.658011
0.660162
0.662665
0.665496
0.668697
0.672387
0.67656
0.681375
0.68693
0.693471
0.701106
0.710402
0.754003
0.730929
0.710121
0.692411
0.678206
0.667558
0.660254
0.65565
0.652727
0.650948
0.650068
0.649851
0.650025
0.650553
0.651349
0.652302
0.653594
0.655313
0.657316
0.659568
0.662026
0.664633
0.667402
0.670336
0.673405
0.676656
0.680235
0.684118
0.688425
0.693283
0.698954
0.705683
0.713504
0.758524
0.733777
0.711495
0.692607
0.677581
0.666347
0.658786
0.654108
0.651322
0.649747
0.649063
0.649172
0.64985
0.650927
0.652376
0.654248
0.656565
0.659315
0.662336
0.665565
0.668965
0.672436
0.67596
0.679472
0.682956
0.686451
0.690055
0.693728
0.69761
0.701873
0.706742
0.71234
0.718712
0.763864
0.737709
0.714192
0.694251
0.678424
0.666732
0.658976
0.653992
0.651255
0.649855
0.649349
0.649732
0.65081
0.652484
0.654731
0.657462
0.660646
0.66419
0.668118
0.6723
0.676629
0.681012
0.68535
0.689559
0.693606
0.697525
0.701306
0.704888
0.70849
0.712232
0.716226
0.720632
0.725661
0.770471
0.742739
0.718245
0.6976
0.681147
0.668747
0.660127
0.655214
0.652582
0.651263
0.650884
0.651551
0.653096
0.655374
0.658224
0.661575
0.665406
0.66969
0.674376
0.679419
0.68464
0.689891
0.695035
0.699973
0.704662
0.709094
0.713136
0.716769
0.720142
0.723366
0.726429
0.729518
0.733076
0.776629
0.748159
0.723177
0.702133
0.685351
0.672549
0.663515
0.658063
0.655331
0.654103
0.653847
0.654694
0.656528
0.659182
0.662476
0.66635
0.670711
0.675532
0.680816
0.686524
0.692502
0.69856
0.704456
0.710093
0.715433
0.72037
0.724668
0.728448
0.731698
0.734589
0.736928
0.738773
0.741038
0.782842
0.754331
0.728931
0.707965
0.691227
0.678327
0.668954
0.662954
0.659796
0.658505
0.658206
0.659021
0.660909
0.663722
0.667256
0.671452
0.67623
0.68154
0.68733
0.693482
0.699932
0.706547
0.713038
0.719317
0.72526
0.730646
0.73521
0.739178
0.742376
0.745315
0.746979
0.747474
0.747637
0.788499
0.760676
0.735662
0.714683
0.698391
0.685574
0.676133
0.66959
0.666004
0.664386
0.663907
0.664501
0.666166
0.668928
0.672465
0.676762
0.681727
0.687327
0.693493
0.700048
0.706863
0.713685
0.720319
0.726986
0.733559
0.738986
0.743774
0.748083
0.750779
0.751734
0.752268
0.752836
0.75272
0.793722
0.766764
0.742677
0.722661
0.706473
0.693888
0.684668
0.677871
0.673806
0.67161
0.670856
0.671043
0.67232
0.674746
0.678042
0.682174
0.687058
0.692652
0.698895
0.705651
0.712661
0.719667
0.726325
0.732688
0.739448
0.745163
0.749737
0.753044
0.755995
0.757348
0.757295
0.756487
0.755087
0.796724
0.772429
0.7497
0.730461
0.715332
0.70336
0.694074
0.687237
0.68258
0.679981
0.678738
0.678418
0.679157
0.681028
0.683881
0.68764
0.692242
0.697623
0.703687
0.71032
0.717348
0.724442
0.731146
0.737376
0.74295
0.747178
0.751125
0.755542
0.758983
0.761604
0.762109
0.760888
0.758325
0.798107
0.775173
0.754888
0.738431
0.724734
0.713158
0.704037
0.697414
0.692492
0.689034
0.687423
0.686564
0.686701
0.687933
0.690199
0.693432
0.697585
0.70255
0.708146
0.714194
0.720789
0.727462
0.733684
0.739661
0.744396
0.749281
0.753198
0.75748
0.760945
0.76313
0.763629
0.762464
0.759474
0.798197
0.777696
0.759601
0.743937
0.731113
0.720932
0.713377
0.707155
0.703433
0.699384
0.696712
0.695459
0.695059
0.695595
0.697149
0.699504
0.702741
0.706868
0.711577
0.716818
0.72255
0.728622
0.734442
0.740204
0.745325
0.749862
0.753782
0.757629
0.761306
0.763777
0.764485
0.763411
0.760213
0.796795
0.778254
0.761716
0.747916
0.737023
0.727896
0.721181
0.715845
0.711824
0.708499
0.705628
0.703982
0.703075
0.702894
0.703694
0.705319
0.707696
0.710756
0.714523
0.719101
0.724078
0.729437
0.734772
0.740423
0.745546
0.750188
0.754235
0.757873
0.761413
0.764028
0.764873
0.763679
0.760378
0.793422
0.777245
0.762741
0.750712
0.741032
0.733377
0.727243
0.722576
0.718674
0.715752
0.713401
0.711544
0.710287
0.709732
0.709731
0.710639
0.712466
0.715078
0.718273
0.721982
0.726352
0.731188
0.736153
0.741262
0.746222
0.750865
0.754987
0.758642
0.761963
0.764598
0.765541
0.764471
0.761345
0.788598
0.774735
0.762342
0.751921
0.743668
0.737285
0.731841
0.727837
0.724523
0.72171
0.719466
0.717773
0.716602
0.716043
0.71593
0.716426
0.717603
0.71956
0.722261
0.725615
0.729483
0.733732
0.738289
0.743075
0.747871
0.752488
0.756675
0.76045
0.763642
0.766238
0.767264
0.766442
0.762983
0.782208
0.770832
0.760436
0.751695
0.744734
0.739416
0.734743
0.731414
0.728761
0.726434
0.724564
0.723093
0.722015
0.721462
0.721315
0.721729
0.722774
0.724496
0.726872
0.729874
0.733328
0.737268
0.741569
0.746128
0.750803
0.755401
0.759673
0.763599
0.766796
0.769371
0.770334
0.76916
0.765886
0.775213
0.765533
0.757294
0.750116
0.744303
0.739985
0.736022
0.733392
0.731385
0.729621
0.728244
0.727143
0.72636
0.726002
0.725999
0.726523
0.727612
0.729354
0.731648
0.734469
0.737732
0.74158
0.745813
0.750295
0.754933
0.759567
0.763971
0.768076
0.771402
0.774028
0.775011
0.77395
0.770303
0.767463
0.759794
0.752893
0.747456
0.742687
0.738992
0.736305
0.733943
0.732576
0.73145
0.73047
0.729735
0.729329
0.72925
0.72956
0.730352
0.731715
0.733619
0.736056
0.739019
0.742384
0.746271
0.750548
0.755093
0.759815
0.76456
0.7692
0.773599
0.777221
0.780083
0.781198
0.779969
0.775867
0.759391
0.752987
0.747539
0.743068
0.739581
0.73712
0.735178
0.733708
0.732761
0.731898
0.731325
0.73102
0.730972
0.731268
0.731972
0.733142
0.734843
0.737076
0.739834
0.743073
0.746852
0.750826
0.755219
0.759916
0.764865
0.769825
0.774858
0.779677
0.783805
0.78719
0.788718
0.787101
0.782137
0.750992
0.746433
0.742441
0.738885
0.736355
0.734606
0.733185
0.732213
0.731627
0.731193
0.730997
0.731053
0.731418
0.732148
0.733288
0.734884
0.736991
0.739611
0.742746
0.74638
0.750379
0.754743
0.759367
0.764268
0.769561
0.774884
0.780198
0.785385
0.790186
0.794463
0.796812
0.795062
0.790006
0.742316
0.738997
0.736179
0.734475
0.732522
0.731269
0.730449
0.729967
0.729675
0.729611
0.729796
0.730216
0.730952
0.732069
0.733629
0.735668
0.738206
0.741248
0.744792
0.748807
0.753151
0.757784
0.762692
0.767884
0.773378
0.779033
0.784855
0.790818
0.796528
0.802039
0.805473
0.804512
0.801256
0.734082
0.731787
0.729967
0.728709
0.72841
0.727616
0.727133
0.726986
0.72708
0.727375
0.727886
0.728643
0.729726
0.73121
0.733151
0.735589
0.738536
0.741983
0.745905
0.750255
0.754933
0.759846
0.764997
0.770403
0.77608
0.782026
0.788257
0.79482
0.80147
0.808598
0.81365
0.814712
0.815876
0.72631
0.725055
0.724018
0.723323
0.722991
0.723298
0.723436
0.723667
0.724007
0.724542
0.725307
0.726349
0.727728
0.729524
0.731804
0.734599
0.737907
0.741702
0.745939
0.750561
0.755503
0.760665
0.766007
0.771569
0.777397
0.783535
0.790034
0.796969
0.804221
0.812444
0.818587
0.825396
0.831114
0.719188
0.718675
0.718216
0.718032
0.718069
0.71836
0.718978
0.719652
0.720416
0.721254
0.722223
0.723435
0.725014
0.727027
0.72954
0.732595
0.736174
0.740237
0.744722
0.749552
0.754653
0.759946
0.765406
0.771046
0.77695
0.783187
0.789829
0.796953
0.804477
0.813034
0.819998
0.830921
0.841752
0.628081
0.621488
0.616512
0.612622
0.610166
0.609086
0.609296
0.610601
0.623095
0.617591
0.613667
0.61079
0.609391
0.609241
0.610116
0.612364
0.619543
0.615087
0.612118
0.610252
0.609652
0.610171
0.611989
0.615027
0.617513
0.613985
0.611887
0.610814
0.6109
0.612239
0.614848
0.618086
0.616961
0.614274
0.612836
0.612543
0.61343
0.615495
0.618353
0.622056
0.617658
0.615796
0.615093
0.61556
0.617014
0.619379
0.62263
0.626373
0.619522
0.618449
0.618393
0.619343
0.621262
0.623948
0.627237
0.630886
0.622355
0.62187
0.622387
0.623768
0.625952
0.628755
0.632016
0.635578
0.625666
0.625857
0.626793
0.628488
0.630828
0.633676
0.636908
0.64038
0.629491
0.630113
0.631398
0.633315
0.635762
0.638616
0.641699
0.645065
0.633495
0.634501
0.636037
0.638023
0.640511
0.643302
0.646421
0.650033
0.637547
0.638817
0.640485
0.642597
0.645177
0.648315
0.651672
0.655085