/*--------------------------------*- C++ -*----------------------------------*\
  =========                 |
  \\      /  F ield         | OpenFOAM: The Open Source CFD Toolbox
   \\    /   O peration     | Website:  https://openfoam.org
    \\  /    A nd           | Version:  10
     \\/     M anipulation  |
\*---------------------------------------------------------------------------*/
FoamFile
{
    format      ascii;
    class       surfaceScalarField;
    location    "0.998694";
    object      phi;
}
// * * * * * * * * * * * * * * * * * * * * * * * * * * * * * * * * * * * * * //

dimensions      [1 0 -1 0 0 0 0];

internalField   nonuniform List<scalar> 
32368
(
0.000236848
-0.000101846
0.000244853
-9.90738e-05
0.000251936
-9.5702e-05
0.000257901
-9.18678e-05
0.000262808
-8.78155e-05
0.000266875
-8.35929e-05
0.000270108
-7.93097e-05
0.000272614
-7.51148e-05
0.00027445
-7.10452e-05
0.000275807
-6.7226e-05
0.000276347
-6.37241e-05
0.000276013
-6.04216e-05
0.000274624
-5.75431e-05
0.000271963
-5.51295e-05
0.000267467
-5.31654e-05
0.000260291
-5.17073e-05
0.000249409
-5.07761e-05
0.000234446
-5.03247e-05
0.000216085
-4.97829e-05
0.000197156
-4.87098e-05
0.000180601
-4.67762e-05
0.000167284
-4.4516e-05
0.000156646
-4.21385e-05
0.000147441
-3.97165e-05
0.00014022
-3.72366e-05
0.000136412
-3.56128e-05
0.000134701
-3.34246e-05
0.000135902
-2.98427e-05
0.000137522
-2.36841e-05
0.00013818
-1.40616e-05
0.000138456
-1.12556e-06
0.000138084
1.43108e-05
3.11188e-05
0.000138892
0.000232832
-0.00010144
0.000239372
-9.77943e-05
0.000244919
-9.35719e-05
0.000249759
-8.91044e-05
0.000253853
-8.44797e-05
0.000257299
-7.96739e-05
0.000260338
-7.50567e-05
0.000262719
-7.06066e-05
0.000264884
-6.63688e-05
0.000266562
-6.23319e-05
0.000267443
-5.85905e-05
0.000267429
-5.51696e-05
0.000266467
-5.22443e-05
0.000264342
-4.98322e-05
0.000260393
-4.79809e-05
0.000253849
-4.68093e-05
0.000243637
-4.60381e-05
0.000229133
-4.56011e-05
0.000211089
-4.52822e-05
0.000192225
-4.39477e-05
0.000175802
-4.16829e-05
0.000162559
-3.90221e-05
0.00015158
-3.64056e-05
0.000141456
-3.34276e-05
0.000133725
-3.12047e-05
0.000129297
-2.99521e-05
0.000127026
-2.82659e-05
0.000127437
-2.51112e-05
0.000127265
-1.90842e-05
0.000126252
-9.58859e-06
0.000124363
3.52635e-06
0.000122182
1.84525e-05
3.4722e-05
0.000121947
0.000222535
-9.8538e-05
0.000227618
-9.45737e-05
0.000232387
-9.04564e-05
0.000237133
-8.62372e-05
0.000241652
-8.18371e-05
0.000245723
-7.72158e-05
0.000249415
-7.23912e-05
0.000252265
-6.75887e-05
0.00025464
-6.28327e-05
0.000256351
-5.83697e-05
0.00025718
-5.40467e-05
0.000257215
-5.02376e-05
0.00025638
-4.69639e-05
0.000254352
-4.42938e-05
0.000250413
-4.23163e-05
0.000244132
-4.09426e-05
0.000233861
-4.03526e-05
0.000219862
-4.00767e-05
0.000202257
-3.9575e-05
0.000183979
-3.78532e-05
0.000168162
-3.52896e-05
0.000155195
-3.21151e-05
0.000144364
-2.89194e-05
0.000133367
-2.57385e-05
0.000125284
-2.3779e-05
0.000120147
-2.28408e-05
0.000117583
-2.16976e-05
0.000116785
-1.87001e-05
0.000114708
-1.27335e-05
0.000111886
-3.15988e-06
0.000107536
9.60468e-06
0.000104623
2.37873e-05
3.89891e-05
0.000103915
0.000210879
-9.83428e-05
0.00021789
-9.53539e-05
0.000224711
-9.17041e-05
0.000231095
-8.73036e-05
0.000236707
-8.23867e-05
0.000241412
-7.69891e-05
0.000245149
-7.13125e-05
0.000248109
-6.56901e-05
0.0002502
-6.01903e-05
0.000251267
-5.48506e-05
0.000251743
-4.993e-05
0.000251167
-4.55909e-05
0.000249539
-4.19128e-05
0.000246571
-3.89613e-05
0.000241719
-3.6751e-05
0.000234226
-3.53063e-05
0.000223285
-3.44454e-05
0.000208672
-3.39691e-05
0.000191381
-3.30396e-05
0.000173795
-3.10574e-05
0.000158156
-2.77317e-05
0.000145263
-2.39505e-05
0.000134095
-2.00855e-05
0.000122531
-1.67407e-05
0.000114294
-1.51295e-05
0.000108659
-1.45768e-05
0.000106037
-1.37796e-05
0.000103581
-1.09291e-05
9.99445e-05
-4.95478e-06
9.50474e-05
4.89776e-06
8.94615e-05
1.67551e-05
8.63942e-05
2.97466e-05
4.34854e-05
8.56348e-05
0.000206336
-0.000101688
0.000214424
-9.85915e-05
0.000221847
-9.43984e-05
0.00022843
-8.92769e-05
0.000234105
-8.34693e-05
0.000238597
-7.70621e-05
0.000242059
-7.03653e-05
0.000244718
-6.37707e-05
0.000246107
-5.73306e-05
0.000246743
-5.11297e-05
0.000246653
-4.54698e-05
0.000245461
-4.06142e-05
0.000243135
-3.65303e-05
0.000239426
-3.32827e-05
0.00023372
-3.08456e-05
0.000225333
-2.91903e-05
0.000213256
-2.81252e-05
0.000197814
-2.72309e-05
0.000180236
-2.57336e-05
0.000162331
-2.29519e-05
0.000146196
-1.9054e-05
0.000132832
-1.42813e-05
0.000120724
-9.82427e-06
0.000108743
-6.76754e-06
0.000100442
-5.5749e-06
9.48676e-05
-5.49359e-06
9.17875e-05
-4.90895e-06
8.77471e-05
-2.0933e-06
8.26434e-05
4.2353e-06
7.59608e-05
1.36915e-05
7.09365e-05
2.41845e-05
6.84179e-05
3.5682e-05
4.78287e-05
6.80033e-05
0.00020291
-0.000105994
0.000211189
-0.000102349
0.00021857
-9.74127e-05
0.000225045
-9.14344e-05
0.000230414
-8.45743e-05
0.000234569
-7.70187e-05
0.000237648
-6.92047e-05
0.000239752
-6.14174e-05
0.000240541
-5.3931e-05
0.000240621
-4.68615e-05
0.000239926
-4.03785e-05
0.000238158
-3.50792e-05
0.000235159
-3.06381e-05
0.000230722
-2.71153e-05
0.00022415
-2.44577e-05
0.000214789
-2.25615e-05
0.000201578
-2.11493e-05
0.000185311
-1.96469e-05
0.000167025
-1.73175e-05
0.000148696
-1.36693e-05
0.00013212
-8.73236e-06
0.000117651
-3.42257e-06
0.000104184
1.44529e-06
9.25501e-05
3.77362e-06
8.45278e-05
4.47302e-06
7.93052e-05
4.07338e-06
7.52466e-05
4.65517e-06
6.98816e-05
7.72927e-06
6.34253e-05
1.41183e-05
5.72078e-05
2.19581e-05
5.33316e-05
3.11543e-05
5.1599e-05
4.109e-05
5.16107e-05
5.17252e-05
0.000198275
-0.000110541
0.000206374
-0.000106201
0.000213475
-0.000100367
0.00021949
-9.32467e-05
0.000224175
-8.50545e-05
0.00022764
-7.61775e-05
0.000229997
-6.71505e-05
0.000231249
-5.8202e-05
0.000231397
-4.96656e-05
0.000230708
-4.15891e-05
0.00022961
-3.45436e-05
0.000227418
-2.881e-05
0.00022399
-2.40488e-05
0.000219093
-2.03122e-05
0.000211909
-1.74599e-05
0.000201643
-1.52037e-05
0.000187387
-1.32723e-05
0.00017023
-1.09006e-05
0.000151185
-7.5648e-06
0.000132118
-2.71857e-06
0.000114633
2.98006e-06
9.93648e-05
8.61568e-06
8.49765e-05
1.29871e-05
7.44418e-05
1.45327e-05
6.72192e-05
1.42969e-05
6.26081e-05
1.36749e-05
5.76256e-05
1.42687e-05
5.18638e-05
1.75954e-05
4.55024e-05
2.3203e-05
4.04615e-05
2.98657e-05
3.74814e-05
3.75113e-05
3.64195e-05
4.57956e-05
5.47657e-05
3.69117e-05
0.00019161
-0.00011492
0.000198991
-0.000109462
0.000204966
-0.000102256
0.000209604
-9.36985e-05
0.000213028
-8.44192e-05
0.000215591
-7.46486e-05
0.000217189
-6.46801e-05
0.000217638
-5.46901e-05
0.000217188
-4.5018e-05
0.00021551
-3.60702e-05
0.000214007
-2.84613e-05
0.000211623
-2.2006e-05
0.000208089
-1.68889e-05
0.00020317
-1.29203e-05
0.000195751
-9.64369e-06
0.000184409
-6.71016e-06
0.000168908
-3.70446e-06
0.000150386
-1.93167e-07
0.000130195
4.3131e-06
0.00011027
9.72523e-06
9.24975e-05
1.53949e-05
7.73259e-05
2.06012e-05
6.43377e-05
2.32929e-05
5.56097e-05
2.40065e-05
5.00233e-05
2.30961e-05
4.56135e-05
2.26447e-05
4.04137e-05
2.35661e-05
3.47181e-05
2.69297e-05
2.92072e-05
3.13893e-05
2.53379e-05
3.69053e-05
2.32063e-05
4.2969e-05
2.26656e-05
4.95608e-05
5.643e-05
2.37207e-05
0.000181333
-0.000117946
0.000187018
-0.000111217
0.00019219
-0.000103578
0.000196962
-9.51546e-05
0.000201054
-8.55694e-05
0.000204012
-7.50805e-05
0.000205457
-6.39702e-05
0.000205347
-5.26701e-05
0.000203802
-4.17648e-05
0.000200908
-3.15987e-05
0.000196976
-2.28345e-05
0.00019237
-1.57949e-05
0.00018722
-9.90682e-06
0.000181966
-4.77674e-06
0.00017421
-6.2971e-07
0.000162255
3.01537e-06
0.000146539
6.85272e-06
0.000128482
1.11365e-05
0.000109091
1.62141e-05
9.01113e-05
2.18619e-05
7.31769e-05
2.74208e-05
5.82181e-05
3.20215e-05
4.63521e-05
3.32577e-05
3.84189e-05
3.30233e-05
3.33213e-05
3.17779e-05
2.86383e-05
3.10673e-05
2.37533e-05
3.20877e-05
1.88046e-05
3.49106e-05
1.46229e-05
3.85515e-05
1.18156e-05
4.27739e-05
1.05397e-05
4.7018e-05
1.07957e-05
5.13555e-05
5.61859e-05
1.23694e-05
0.000167657
-0.000120242
0.000174004
-0.000114325
0.00017992
-0.000106724
0.000184985
-9.77267e-05
0.000189161
-8.75078e-05
0.00019192
-7.63069e-05
0.000193076
-6.39916e-05
0.000192517
-5.13755e-05
0.000190348
-3.91014e-05
0.000186344
-2.75024e-05
0.000181003
-1.77902e-05
0.00017453
-9.54175e-06
0.000166745
-2.55127e-06
0.000157288
3.39727e-06
0.000148653
8.66783e-06
0.000138009
1.27577e-05
0.000123634
1.73146e-05
0.00010657
2.24323e-05
8.79465e-05
2.80152e-05
6.97598e-05
3.36268e-05
5.37206e-05
3.87956e-05
3.97681e-05
4.17714e-05
2.96601e-05
4.22053e-05
2.30062e-05
4.11877e-05
1.81226e-05
3.98435e-05
1.34745e-05
3.88662e-05
9.05014e-06
3.97164e-05
4.95999e-06
4.17153e-05
2.08395e-06
4.43013e-05
5.85503e-07
4.69808e-05
4.41351e-07
4.95744e-05
1.63407e-06
5.24392e-05
5.56354e-05
4.19136e-06
0.000154449
-0.000123865
0.000160762
-0.000117872
0.000166659
-0.000110243
0.000172103
-0.000101251
0.000177428
-9.15323e-05
0.000180437
-7.99647e-05
0.000181119
-6.60872e-05
0.000179548
-5.1994e-05
0.000175735
-3.7785e-05
0.000169606
-2.41435e-05
0.000162174
-1.28555e-05
0.00015366
-3.10659e-06
0.000144178
5.17072e-06
0.000133455
1.16685e-05
0.000122453
1.72107e-05
0.000112242
2.21667e-05
9.91485e-05
2.75374e-05
8.31977e-05
3.33199e-05
6.56509e-05
3.91111e-05
4.87768e-05
4.43836e-05
3.39883e-05
4.87721e-05
2.21329e-05
4.98828e-05
1.40054e-05
4.96507e-05
8.40231e-06
4.85722e-05
3.87042e-06
4.68013e-05
-2.94365e-07
4.57072e-05
-3.88812e-06
4.60661e-05
-6.49773e-06
4.71259e-05
-7.7833e-06
4.85028e-05
-7.76403e-06
4.99032e-05
-6.539e-06
5.12765e-05
-4.10934e-06
5.28582e-05
5.47121e-05
-4.67504e-07
0.00013974
-0.000127348
0.000145891
-0.000121546
0.000152802
-0.000115193
0.000161603
-0.000108834
0.000169185
-9.98268e-05
0.000172177
-8.62064e-05
0.000171986
-7.03056e-05
0.000168312
-5.3803e-05
0.000161005
-3.67777e-05
0.000150837
-2.14526e-05
0.000139906
-7.64952e-06
0.000129254
3.6092e-06
0.000118865
1.25105e-05
0.000107775
1.95102e-05
9.61725e-05
2.51955e-05
8.64778e-05
3.0996e-05
7.41344e-05
3.71669e-05
5.90832e-05
4.34308e-05
4.28558e-05
4.88652e-05
2.77184e-05
5.34902e-05
1.48497e-05
5.61559e-05
5.36459e-06
5.63946e-05
-1.28123e-06
5.57415e-05
-5.63693e-06
5.39971e-05
-9.25359e-06
5.21957e-05
-1.24148e-05
5.12227e-05
-1.46666e-05
5.09181e-05
-1.54835e-05
5.09234e-05
-1.50322e-05
5.12169e-05
-1.332e-05
5.14023e-05
-1.05049e-05
5.16079e-05
-6.59096e-06
5.19432e-05
5.2449e-05
-1.34303e-06
0.000123646
-0.000130509
0.000131583
-0.000127022
0.000142983
-0.000124928
0.000152164
-0.000118145
0.000155934
-0.000104186
0.000155784
-8.73818e-05
0.000153133
-6.94927e-05
0.000147297
-5.13436e-05
0.000137974
-3.31202e-05
0.000125441
-1.62826e-05
0.000112803
-1.75339e-06
0.000101433
1.00783e-05
9.10327e-05
1.92511e-05
8.03961e-05
2.6461e-05
6.98987e-05
3.24399e-05
6.07776e-05
3.92716e-05
4.90108e-05
4.60269e-05
3.48234e-05
5.20186e-05
2.02604e-05
5.67412e-05
7.23357e-06
6.03978e-05
-3.0928e-06
6.11193e-05
-1.02188e-05
6.0756e-05
-1.47252e-05
5.95113e-05
-1.83271e-05
5.78908e-05
-2.10288e-05
5.62052e-05
-2.27606e-05
5.50748e-05
-2.29646e-05
5.38553e-05
-2.1835e-05
5.2846e-05
-1.94343e-05
5.19826e-05
-1.58423e-05
5.11988e-05
-1.12143e-05
5.07555e-05
-5.43331e-06
5.05382e-05
5.04113e-05
1.76977e-06
0.0001072
-0.000134303
0.000118777
-0.000135464
0.000128375
-0.000132766
0.00013153
-0.000120513
0.000131187
-0.000103885
0.000128371
-8.54406e-05
0.000123388
-6.58948e-05
0.00011536
-4.62052e-05
0.000104351
-2.7388e-05
9.22713e-05
-1.04799e-05
8.10039e-05
4.09098e-06
7.11408e-05
1.57449e-05
6.20226e-05
2.49481e-05
5.26438e-05
3.21186e-05
4.40666e-05
3.87698e-05
3.54577e-05
4.66316e-05
2.39791e-05
5.32944e-05
1.10227e-05
5.84431e-05
-1.32506e-06
6.217e-05
-1.15582e-05
6.39169e-05
-1.91004e-05
6.38485e-05
-2.40154e-05
6.26685e-05
-2.76197e-05
6.15659e-05
-2.98869e-05
5.97454e-05
-3.10338e-05
5.81337e-05
-3.0691e-05
5.66637e-05
-2.87554e-05
5.45645e-05
-2.56277e-05
5.29058e-05
-2.13325e-05
5.17781e-05
-1.56949e-05
5.08499e-05
-8.82071e-06
4.98914e-05
-3.66354e-07
4.86428e-05
4.72312e-05
9.45742e-06
9.11669e-05
-0.000139696
0.000100737
-0.000142087
0.000104363
-0.000134626
0.000104079
-0.000119596
0.00010113
-0.000101347
9.4761e-05
-8.01944e-05
8.59995e-05
-5.78662e-05
7.64046e-05
-3.78952e-05
6.66614e-05
-2.02091e-05
5.71808e-05
-4.58246e-06
4.87415e-05
9.03255e-06
4.11688e-05
2.01799e-05
3.3659e-05
2.90507e-05
2.62169e-05
3.65842e-05
1.92616e-05
4.50143e-05
1.02703e-05
5.25266e-05
-5.84897e-07
5.82537e-05
-1.15503e-05
6.22495e-05
-2.08137e-05
6.45884e-05
-2.79774e-05
6.4487e-05
-3.31171e-05
6.39257e-05
-3.6901e-05
6.32347e-05
-3.92104e-05
6.15684e-05
-3.99347e-05
5.94236e-05
-3.92647e-05
5.76584e-05
-3.68731e-05
5.57821e-05
-3.28183e-05
5.35422e-05
-2.76777e-05
5.15392e-05
-2.11276e-05
4.95468e-05
-1.33959e-05
4.7451e-05
-4.16731e-06
4.51692e-05
6.37714e-06
4.25374e-05
3.98663e-05
1.7898e-05
7.16455e-05
-0.000143511
7.59761e-05
-0.000143741
7.61469e-05
-0.000133309
7.35522e-05
-0.000116645
6.73094e-05
-9.60965e-05
5.71744e-05
-7.20117e-05
4.77748e-05
-4.95714e-05
3.98057e-05
-3.09705e-05
3.22827e-05
-1.45574e-05
2.55247e-05
-1.94607e-07
1.94244e-05
1.24285e-05
1.34602e-05
2.30421e-05
7.4635e-06
3.21168e-05
1.52294e-06
4.14399e-05
-5.95449e-06
4.96149e-05
-1.46549e-05
5.59861e-05
-2.36116e-05
6.03435e-05
-3.13552e-05
6.29063e-05
-3.73701e-05
6.32269e-05
-4.21891e-05
6.27756e-05
-4.59822e-05
6.22338e-05
-4.86441e-05
6.14311e-05
-4.92566e-05
5.91895e-05
-4.83805e-05
5.68957e-05
-4.58775e-05
5.46639e-05
-4.15755e-05
5.21514e-05
-3.57027e-05
4.94505e-05
-2.84843e-05
4.66078e-05
-1.99886e-05
4.36133e-05
-1.01998e-05
4.0398e-05
7.81284e-07
3.69862e-05
1.23167e-05
3.37212e-05
3.09463e-05
2.35975e-05
4.79332e-05
-0.000143743
4.8593e-05
-0.000142052
4.63171e-05
-0.000129832
4.16902e-05
-0.000112204
3.37563e-05
-9.01046e-05
2.43413e-05
-6.54512e-05
1.64322e-05
-4.42195e-05
9.49963e-06
-2.63596e-05
3.47422e-06
-1.08725e-05
-1.74864e-06
2.49782e-06
-6.72076e-06
1.44901e-05
-1.18511e-05
2.53144e-05
-1.70901e-05
3.56398e-05
-2.37069e-05
4.445e-05
-3.05582e-05
5.15445e-05
-3.74024e-05
5.64499e-05
-4.31475e-05
5.93228e-05
-4.75226e-05
5.98963e-05
-5.13856e-05
5.95122e-05
-5.48424e-05
5.92609e-05
-5.78307e-05
5.89719e-05
-5.86502e-05
5.71547e-05
-5.76677e-05
5.46072e-05
-5.51695e-05
5.20172e-05
-5.09177e-05
4.91995e-05
-4.49135e-05
4.60215e-05
-3.74338e-05
4.26318e-05
-2.86613e-05
3.89992e-05
-1.8652e-05
3.51546e-05
-7.79764e-06
3.13347e-05
3.27051e-06
2.76739e-05
1.34549e-05
2.44793e-05
2.16756e-05
2.25307e-05
2.26854e-05
-0.000140473
2.04074e-05
-0.000137702
1.6134e-05
-0.000124798
1.04011e-05
-0.000106874
3.06987e-06
-8.57293e-05
-3.98657e-06
-6.2443e-05
-1.05464e-05
-4.10413e-05
-1.62747e-05
-2.38475e-05
-2.12077e-05
-9.09274e-06
-2.60825e-05
4.02425e-06
-3.11461e-05
1.63383e-05
-3.66439e-05
2.75343e-05
-4.2397e-05
3.71149e-05
-4.76414e-05
4.48428e-05
-5.2506e-05
5.05459e-05
-5.6172e-05
5.39159e-05
-5.86318e-05
5.49237e-05
-6.10888e-05
5.47288e-05
-6.36229e-05
5.43107e-05
-6.65919e-05
5.42744e-05
-6.78703e-05
5.31072e-05
-6.70577e-05
5.06524e-05
-6.4612e-05
4.788e-05
-6.06399e-05
4.48377e-05
-5.49132e-05
4.14863e-05
-4.75648e-05
3.77375e-05
-3.89503e-05
3.38301e-05
-2.93711e-05
2.97585e-05
-1.92633e-05
2.55697e-05
-9.76759e-06
2.18789e-05
-1.15528e-06
1.8645e-05
7.24977e-06
1.59708e-05
1.37166e-05
1.59895e-05
-3.28526e-06
-0.000133231
-7.70516e-06
-0.000131527
-1.30415e-05
-0.000118756
-1.89795e-05
-0.000101294
-2.5095e-05
-8.16225e-05
-3.13641e-05
-6.12246e-05
-3.60813e-05
-4.1541e-05
-4.09023e-05
-2.43451e-05
-4.61125e-05
-8.98106e-06
-5.1546e-05
4.5562e-06
-5.67729e-05
1.68064e-05
-6.12977e-05
2.74369e-05
-6.50354e-05
3.6089e-05
-6.81888e-05
4.26871e-05
-6.98701e-05
4.67424e-05
-7.03406e-05
4.85892e-05
-7.12933e-05
4.89305e-05
-7.28113e-05
4.85655e-05
-7.51236e-05
4.80881e-05
-7.67637e-05
4.71723e-05
-7.61492e-05
4.50326e-05
-7.39359e-05
4.23015e-05
-7.04259e-05
3.90118e-05
-6.52899e-05
3.55222e-05
-5.8623e-05
3.19619e-05
-5.06638e-05
2.79935e-05
-4.18903e-05
2.39427e-05
-3.32084e-05
2.01729e-05
-2.49025e-05
1.68159e-05
-1.68862e-05
1.38278e-05
-8.39434e-06
1.08915e-05
5.14029e-07
8.32378e-06
5.89318e-06
9.94765e-06
-2.64734e-05
-0.0001232
-3.31812e-05
-0.000122643
-3.95046e-05
-0.000111625
-4.57027e-05
-9.55971e-05
-5.13919e-05
-7.73815e-05
-5.67911e-05
-5.87708e-05
-6.1689e-05
-4.06144e-05
-6.65463e-05
-2.40377e-05
-7.14218e-05
-9.00378e-06
-7.5711e-05
4.24315e-06
-7.9191e-05
1.57959e-05
-8.19303e-05
2.55468e-05
-8.35301e-05
3.3149e-05
-8.33745e-05
3.80101e-05
-8.20892e-05
4.08878e-05
-8.18927e-05
4.21931e-05
-8.23721e-05
4.23066e-05
-8.33767e-05
4.16423e-05
-8.487e-05
4.03825e-05
-8.45326e-05
3.84637e-05
-8.27173e-05
3.57963e-05
-7.96417e-05
3.26282e-05
-7.51652e-05
2.92602e-05
-6.9249e-05
2.557e-05
-6.2278e-05
2.21529e-05
-5.47794e-05
1.88853e-05
-4.76075e-05
1.56546e-05
-4.06501e-05
1.24483e-05
-3.33087e-05
9.2996e-06
-2.51391e-05
6.10941e-06
-1.60483e-05
2.89485e-06
-7.06647e-06
7.92878e-07
-8.00874e-07
1.3321e-06
-4.64315e-05
-0.000112081
-5.52107e-05
-0.000111704
-6.25666e-05
-0.000103212
-6.90493e-05
-8.92299e-05
-7.49012e-05
-7.2927e-05
-8.00054e-05
-5.57806e-05
-8.4539e-05
-3.88589e-05
-8.87054e-05
-2.32729e-05
-9.24356e-05
-9.16843e-06
-9.53465e-05
3.11173e-06
-9.72047e-05
1.36295e-05
-9.75504e-05
2.20603e-05
-9.57455e-05
2.81091e-05
-9.33405e-05
3.21238e-05
-9.24215e-05
3.45843e-05
-9.19991e-05
3.54158e-05
-9.19855e-05
3.50337e-05
-9.27474e-05
3.37681e-05
-9.2408e-05
3.1853e-05
-9.07579e-05
2.93162e-05
-8.8039e-05
2.63867e-05
-8.38099e-05
2.30936e-05
-7.82994e-05
2.01843e-05
-7.22712e-05
1.73933e-05
-6.71722e-05
1.44575e-05
-6.21104e-05
1.14505e-05
-5.63571e-05
8.23245e-06
-4.98009e-05
4.85732e-06
-4.20611e-05
1.74657e-06
-3.39163e-05
-8.22735e-07
-2.55501e-05
-2.93761e-06
-1.76293e-05
-4.23807e-06
-5.10787e-06
-1.07836e-05
-6.13267e-05
-0.000101707
-7.22197e-05
-9.86704e-05
-8.08364e-05
-9.31841e-05
-8.79573e-05
-8.17194e-05
-9.40702e-05
-6.75808e-05
-9.91348e-05
-5.23894e-05
-0.000103244
-3.7121e-05
-0.000106455
-2.28444e-05
-0.000108892
-9.85889e-06
-0.000109738
1.13955e-06
-0.00010867
1.03308e-05
-0.000105842
1.75845e-05
-0.000103619
2.27478e-05
-0.00010241
2.63287e-05
-0.000101442
2.80466e-05
-0.000100698
2.83353e-05
-0.000100568
2.73545e-05
-9.97587e-05
2.56544e-05
-9.81095e-05
2.32859e-05
-9.50959e-05
2.04354e-05
-9.07006e-05
1.78414e-05
-8.58935e-05
1.54359e-05
-8.25655e-05
1.29272e-05
-7.94516e-05
1.03134e-05
-7.57744e-05
7.44793e-06
-7.14474e-05
4.48427e-06
-6.58696e-05
1.51993e-06
-5.88488e-05
-1.17636e-06
-5.05884e-05
-3.37354e-06
-4.24589e-05
-5.28434e-06
-3.61658e-05
-7.00467e-06
-3.0783e-05
-8.56406e-06
-9.911e-06
-2.51361e-05
-7.24057e-05
-9.39512e-05
-8.23786e-05
-8.74898e-05
-9.26758e-05
-8.14252e-05
-0.000100616
-7.27788e-05
-0.000107035
-6.08651e-05
-0.000111928
-4.76804e-05
-0.000115385
-3.4439e-05
-0.000117126
-2.1791e-05
-0.000117
-1.04561e-05
-0.000115573
-8.36538e-07
-0.000113741
7.13232e-06
-0.000112533
1.33045e-05
-0.000111555
1.77525e-05
-0.000110395
2.0414e-05
-0.000109213
2.15078e-05
-0.000108291
2.11943e-05
-0.000106801
1.99636e-05
-0.00010454
1.7729e-05
-0.000100864
1.54524e-05
-9.66006e-05
1.33388e-05
-9.42124e-05
1.11255e-05
-9.25618e-05
8.92212e-06
-9.08363e-05
6.55214e-06
-8.86788e-05
4.15852e-06
-8.52681e-05
1.44445e-06
-8.02143e-05
-4.00018e-07
-7.26099e-05
-2.54393e-06
-6.52418e-05
-4.75718e-06
-6.1117e-05
-7.39341e-06
-5.69242e-05
-1.00187e-05
-5.23849e-05
-1.27305e-05
-4.76264e-05
-1.52539e-05
-1.72776e-05
-4.26312e-05
-8.24951e-05
-8.76948e-05
-8.94499e-05
-8.04268e-05
-9.80606e-05
-7.27466e-05
-0.000105797
-6.44405e-05
-0.000111667
-5.44496e-05
-0.000115945
-4.30583e-05
-0.00011867
-3.1755e-05
-0.000119859
-2.09754e-05
-0.000120557
-1.12372e-05
-0.000120485
-2.87384e-06
-0.000120216
3.94203e-06
-0.000119598
9.18442e-06
-0.000118545
1.27317e-05
-0.000117141
1.46881e-05
-0.000115581
1.52431e-05
-0.000113526
1.45816e-05
-0.000110345
1.30934e-05
-0.000106088
1.13856e-05
-0.000103709
9.44142e-06
-0.000102663
7.649e-06
-0.000102103
5.7071e-06
-0.000101451
3.70997e-06
-9.99169e-05
1.53593e-06
-9.69467e-05
4.51206e-07
-9.00908e-05
-1.17145e-06
-8.50613e-05
-3.51573e-06
-8.32422e-05
-6.29107e-06
-8.1279e-05
-9.49935e-06
-8.0097e-05
-1.34395e-05
-7.89924e-05
-1.76312e-05
-7.71182e-05
-2.19113e-05
-7.3543e-05
-2.54028e-05
-2.75248e-05
-6.84691e-05
-9.1708e-05
-8.20421e-05
-9.71765e-05
-7.51059e-05
-0.000103394
-6.71494e-05
-0.000109903
-5.86138e-05
-0.000115566
-4.95931e-05
-0.000119815
-3.98889e-05
-0.000122986
-3.00301e-05
-0.000125047
-2.06844e-05
-0.000126146
-1.22394e-05
-0.000126501
-4.91676e-06
-0.000126254
8.97257e-07
-0.000125382
5.28561e-06
-0.000123977
8.14317e-06
-0.000122092
9.54693e-06
-0.000119419
9.73356e-06
-0.000115584
9.12282e-06
-0.000112741
7.93183e-06
-0.00011148
6.63535e-06
-0.0001112
5.1759e-06
-0.000111307
3.64829e-06
-0.000110906
1.98032e-06
-0.00010897
9.91446e-07
-0.000103425
-3.71797e-08
-0.000100508
-2.12274e-06
-0.000100609
-4.36319e-06
-0.000101937
-7.3965e-06
-0.000105366
-1.15771e-05
-0.000109123
-1.66773e-05
-0.000111155
-2.21013e-05
-0.000110934
-2.75739e-05
-0.000107852
-3.22802e-05
-0.000102104
-3.50447e-05
-3.61839e-05
-9.46742e-05
-9.96064e-05
-7.66787e-05
-0.000104456
-7.04563e-05
-0.000109256
-6.30651e-05
-0.000114186
-5.47971e-05
-0.000119059
-4.6114e-05
-0.000123316
-3.72989e-05
-0.000126612
-2.86652e-05
-0.000128836
-2.04755e-05
-0.000130139
-1.30606e-05
-0.000130531
-6.71313e-06
-0.000130145
-1.66479e-06
-0.000128933
2.03613e-06
-0.000126926
4.4041e-06
-0.000124311
5.57253e-06
-0.000121762
5.79323e-06
-0.000120213
5.38403e-06
-0.000119622
4.59505e-06
-0.000119557
3.59664e-06
-0.000119392
2.45968e-06
-0.000118043
1.51886e-06
-0.000114188
9.93547e-07
-0.000112411
-6.17063e-07
-0.000114002
-2.19018e-06
-0.000117543
-4.50526e-06
-0.000124005
-7.94096e-06
-0.000131839
-1.2625e-05
-0.000138515
-1.81759e-05
-0.000142228
-2.52357e-05
-0.000143608
-3.16978e-05
-0.000141614
-3.65255e-05
-0.000134546
-3.98948e-05
-0.000125663
-4.19146e-05
-4.23316e-05
-0.000115747
-0.000106271
-7.09322e-05
-0.000110699
-6.59242e-05
-0.000114873
-5.94307e-05
-0.000118847
-5.18476e-05
-0.000122497
-4.37366e-05
-0.000125772
-3.55154e-05
-0.000128588
-2.75669e-05
-0.000130567
-2.00994e-05
-0.000131721
-1.34771e-05
-0.000132138
-7.86624e-06
-0.00013186
-3.43072e-06
-0.000130971
-1.61059e-07
-0.000129807
1.97621e-06
-0.000128698
3.12224e-06
-0.000127991
3.48986e-06
-0.000127713
3.33165e-06
-0.000127445
2.88319e-06
-0.000126315
2.12128e-06
-0.000123757
1.84984e-06
-0.000121938
1.04934e-06
-0.000124128
-1.482e-07
-0.00012816
-1.48714e-06
-0.000135577
-3.69679e-06
-0.000145969
-7.14735e-06
-0.000156295
-1.18893e-05
-0.000164714
-1.84758e-05
-0.00017306
-2.62507e-05
-0.000175671
-3.23903e-05
-0.000170813
-3.77557e-05
-0.000163578
-4.22324e-05
-0.000153284
-4.46114e-05
-0.000140122
-4.50024e-05
-4.38709e-05
-0.000125589
-0.000111014
-6.44184e-05
-0.000115688
-6.0789e-05
-0.000119643
-5.54477e-05
-0.000123172
-4.88213e-05
-0.00012633
-4.15107e-05
-0.000129154
-3.39471e-05
-0.000131489
-2.6568e-05
-0.000133287
-1.96871e-05
-0.000134514
-1.35571e-05
-0.000135236
-8.37564e-06
-0.000135578
-4.24133e-06
-0.00013562
-1.1522e-06
-0.000135541
9.54296e-07
-0.000135436
2.20731e-06
-0.00013523
2.78637e-06
-0.000134379
2.79701e-06
-0.000132606
2.94266e-06
-0.000130538
2.77142e-06
-0.000132273
1.93236e-06
-0.000135765
1.23534e-06
-0.000142174
3.22371e-08
-0.00015248
-1.87827e-06
-0.000165037
-5.06342e-06
-0.000177823
-9.53676e-06
-0.000191476
-1.74396e-05
-0.000201696
-2.44206e-05
-0.000201349
-3.0399e-05
-0.000196865
-3.67144e-05
-0.000187535
-4.15941e-05
-0.000172728
-4.43846e-05
-0.000155723
-4.55645e-05
-0.000141629
-4.66537e-05
-4.76448e-05
-0.000131975
-0.000113044
-5.70338e-05
-0.00011839
-5.47854e-05
-0.000122747
-5.06524e-05
-0.000126487
-4.51151e-05
-0.000129716
-3.86673e-05
-0.000132501
-3.17978e-05
-0.000134862
-2.49741e-05
-0.000136849
-1.85377e-05
-0.000138433
-1.27591e-05
-0.000139686
-7.82944e-06
-0.000140658
-3.82929e-06
-0.000141334
-7.58416e-07
-0.000141702
1.43611e-06
-0.000141546
2.85556e-06
-0.000140515
3.80105e-06
-0.000138785
4.42035e-06
-0.000139692
4.21462e-06
-0.000142582
4.02803e-06
-0.000147444
3.5816e-06
-0.000155749
2.62715e-06
-0.000167653
8.8595e-07
-0.000181748
-1.71912e-06
-0.000198269
-6.84155e-06
-0.000216666
-1.41188e-05
-0.000223283
-1.98891e-05
-0.000223172
-2.66334e-05
-0.000218431
-3.3589e-05
-0.00020696
-3.91659e-05
-0.000190796
-4.33614e-05
-0.000175252
-4.65801e-05
-0.000163953
-4.88956e-05
-0.000156039
-5.1655e-05
-5.32549e-05
-0.000149437
-0.000112119
-4.92801e-05
-0.000118323
-4.79511e-05
-0.000123576
-4.48814e-05
-0.000127951
-4.04644e-05
-0.000131612
-3.48606e-05
-0.000134807
-2.86861e-05
-0.00013759
-2.23677e-05
-0.000140007
-1.63028e-05
-0.000142104
-1.07688e-05
-0.000143826
-5.97756e-06
-0.000145172
-1.98126e-06
-0.000146013
1.17819e-06
-0.000146138
3.53851e-06
-0.000145714
5.33883e-06
-0.000146422
6.4219e-06
-0.000148897
6.9251e-06
-0.000152788
7.10121e-06
-0.000158815
6.91405e-06
-0.000168379
6.20915e-06
-0.000180674
4.67635e-06
-0.000196145
2.45972e-06
-0.00021688
-2.77865e-06
-0.000234284
-8.62029e-06
-0.000240554
-1.46504e-05
-0.000240828
-2.14552e-05
-0.000237029
-2.89241e-05
-0.000227208
-3.55787e-05
-0.000213836
-4.13281e-05
-0.000199875
-4.6382e-05
-0.000186886
-4.97976e-05
-0.000179401
-5.3434e-05
-0.000174287
-5.68528e-05
-5.85665e-05
-0.000170522
-0.000109683
-4.12848e-05
-0.000115871
-4.07538e-05
-0.000121768
-3.8463e-05
-0.000127016
-3.46939e-05
-0.000131511
-2.98444e-05
-0.000135434
-2.43025e-05
-0.000138867
-1.84617e-05
-0.00014182
-1.26984e-05
-0.000144356
-7.32042e-06
-0.000146443
-2.55246e-06
-0.00014812
1.48822e-06
-0.000149637
4.76918e-06
-0.000151315
7.41371e-06
-0.000154015
9.24973e-06
-0.00015774
1.04626e-05
-0.000162478
1.1207e-05
-0.000169512
1.13012e-05
-0.000179296
1.07658e-05
-0.000191369
9.50769e-06
-0.000207669
7.29976e-06
-0.000229908
2.80957e-06
-0.000246138
-2.29646e-06
-0.00025242
-8.49412e-06
-0.000253666
-1.53968e-05
-0.000251622
-2.31496e-05
-0.000245168
-3.0644e-05
-0.000235506
-3.76362e-05
-0.000224228
-4.40633e-05
-0.000211246
-4.92289e-05
-0.000200751
-5.35047e-05
-0.000196082
-5.74195e-05
-0.000192759
-6.05914e-05
-6.23408e-05
-0.000191423
-0.000107043
-3.28689e-05
-0.000113339
-3.30978e-05
-0.000119177
-3.15848e-05
-0.000124585
-2.8455e-05
-0.000129618
-2.4082e-05
-0.000134243
-1.88783e-05
-0.000138526
-1.3313e-05
-0.000142414
-7.72595e-06
-0.000146041
-2.40052e-06
-0.000149539
2.40772e-06
-0.000152978
6.56385e-06
-0.000156552
1.00888e-05
-0.000160712
1.2775e-05
-0.000165498
1.48143e-05
-0.000171353
1.60998e-05
-0.000178944
1.65935e-05
-0.000187984
1.63173e-05
-0.000199328
1.51694e-05
-0.000214998
1.29625e-05
-0.000235399
9.3835e-06
-0.000251123
4.1288e-06
-0.000257019
-1.64491e-06
-0.000258815
-8.5528e-06
-0.000258488
-1.63075e-05
-0.000255711
-2.43673e-05
-0.000251166
-3.23184e-05
-0.000244854
-3.99422e-05
-0.000235958
-4.67404e-05
-0.00022475
-5.22785e-05
-0.00021432
-5.66065e-05
-0.000210029
-6.01267e-05
-0.000207712
-6.25763e-05
-6.39401e-05
-0.000207605
-0.000105034
-2.41283e-05
-0.000111508
-2.48953e-05
-0.000117652
-2.40485e-05
-0.00012352
-2.1466e-05
-0.000129152
-1.74659e-05
-0.000134598
-1.24918e-05
-0.000139919
-6.99072e-06
-0.000145162
-1.34549e-06
-0.000150351
4.06375e-06
-0.000155459
8.98505e-06
-0.000160548
1.32965e-05
-0.00016605
1.68813e-05
-0.000171927
1.96808e-05
-0.000178548
2.15859e-05
-0.000185594
2.26032e-05
-0.000193498
2.25709e-05
-0.00020359
2.15626e-05
-0.000216762
1.95102e-05
-0.000233034
1.62275e-05
-0.00024733
1.11584e-05
-0.000253631
5.60619e-06
-0.000256005
-1.53789e-06
-0.000257315
-9.43527e-06
-0.000258665
-1.77518e-05
-0.000258811
-2.64447e-05
-0.00025752
-3.46266e-05
-0.000254469
-4.22097e-05
-0.000248384
-4.9057e-05
-0.000239145
-5.44682e-05
-0.000227679
-5.82925e-05
-0.000220962
-6.14854e-05
-0.000219266
-6.29086e-05
-6.35096e-05
-0.000219475
-0.000104578
-1.54488e-05
-0.000111012
-1.63535e-05
-0.000117496
-1.58212e-05
-0.000123977
-1.3561e-05
-0.00013047
-9.71891e-06
-0.000136992
-4.75681e-06
-0.00014358
8.35412e-07
-0.000150106
6.52873e-06
-0.000156627
1.1981e-05
-0.000163157
1.69933e-05
-0.000169704
2.13362e-05
-0.00017631
2.49171e-05
-0.000182709
2.74903e-05
-0.000189225
2.89622e-05
-0.000196353
2.93511e-05
-0.000204616
2.86169e-05
-0.000214706
2.6729e-05
-0.000226713
2.36237e-05
-0.000238837
1.90115e-05
-0.000246802
1.31908e-05
-0.000250865
5.83618e-06
-0.000253913
-2.4994e-06
-0.000258333
-1.14303e-05
-0.000262726
-2.09971e-05
-0.000263789
-2.97962e-05
-0.000262697
-3.80738e-05
-0.000260418
-4.53219e-05
-0.000255515
-5.14115e-05
-0.000247641
-5.59562e-05
-0.000237826
-5.92127e-05
-0.000228608
-6.09957e-05
-0.00022632
-6.17234e-05
-6.12275e-05
-0.000226917
-0.000106021
-6.79259e-06
-0.000112285
-7.54134e-06
-0.000119185
-6.97826e-06
-0.000126373
-4.70934e-06
-0.000133853
-7.67962e-07
-0.000141481
4.24229e-06
-0.000149276
9.83261e-06
-0.000156934
1.56369e-05
-0.00016439
2.11595e-05
-0.000171608
2.61039e-05
-0.000178333
3.02567e-05
-0.00018491
3.3481e-05
-0.000191281
3.5586e-05
-0.000197696
3.64479e-05
-0.000204801
3.60829e-05
-0.000213168
3.45331e-05
-0.000223158
3.17117e-05
-0.000234586
2.75666e-05
-0.000245082
2.16653e-05
-0.000252624
1.41823e-05
-0.000258018
5.42239e-06
-0.000264451
-4.98019e-06
-0.00027284
-1.63474e-05
-0.000277716
-2.70099e-05
-0.000277904
-3.64323e-05
-0.000275699
-4.43789e-05
-0.00027143
-5.09381e-05
-0.000263979
-5.52157e-05
-0.000255548
-5.78786e-05
-0.00024652
-5.93893e-05
-0.000235702
-5.97167e-05
-0.00022939
-5.96767e-05
-5.81735e-05
-0.000229471
-0.000109442
1.90535e-06
-0.000115717
1.54585e-06
-0.000123117
2.45701e-06
-0.000131042
4.9891e-06
-0.000139358
9.09169e-06
-0.000147992
1.4142e-05
-0.000156252
1.99474e-05
-0.00016425
2.56925e-05
-0.000171771
3.10461e-05
-0.000178628
3.57062e-05
-0.000184942
3.94391e-05
-0.000191358
4.21396e-05
-0.00019749
4.3564e-05
-0.000203594
4.36237e-05
-0.000210637
4.24212e-05
-0.000219521
4.00034e-05
-0.000230488
3.63398e-05
-0.000242897
3.12601e-05
-0.000256509
2.46721e-05
-0.00027102
1.55659e-05
-0.000286091
3.8195e-06