/*--------------------------------*- C++ -*----------------------------------*\
  =========                 |
  \\      /  F ield         | OpenFOAM: The Open Source CFD Toolbox
   \\    /   O peration     | Website:  https://openfoam.org
    \\  /    A nd           | Version:  10
     \\/     M anipulation  |
\*---------------------------------------------------------------------------*/
FoamFile
{
    format      ascii;
    class       volScalarField;
    location    "0.998694";
    object      rho;
}
// * * * * * * * * * * * * * * * * * * * * * * * * * * * * * * * * * * * * * //

dimensions      [1 -3 0 0 0 0 0];

internalField   nonuniform List<scalar> 
16320
(
0.577749
0.572963
0.568205
0.56289
0.557552
0.552496
0.548428
0.545181
0.542986
0.541609
0.542372
0.54373
0.547002
0.552218
0.560389
0.572326
0.590097
0.614537
0.645404
0.676475
0.70253
0.718533
0.720107
0.710325
0.689188
0.678301
0.671826
0.669953
0.674728
0.671636
0.661623
0.648212
0.636705
0.563788
0.555695
0.546873
0.538701
0.531991
0.52564
0.521399
0.519044
0.517512
0.518359
0.520295
0.523504
0.52852
0.535866
0.54609
0.560436
0.580018
0.606727
0.638146
0.668823
0.694783
0.712295
0.715972
0.70562
0.683892
0.67608
0.670882
0.672751
0.677847
0.672047
0.660659
0.64316
0.631377
0.535803
0.523932
0.513182
0.505151
0.499454
0.495561
0.493561
0.493455
0.493907
0.49595
0.498677
0.503153
0.509629
0.518653
0.53041
0.546262
0.5676
0.594255
0.628953
0.658361
0.685916
0.705427
0.711632
0.700959
0.681074
0.674609
0.671318
0.67762
0.679948
0.671123
0.656395
0.636296
0.626203
0.502311
0.495861
0.491354
0.488234
0.486105
0.484574
0.483608
0.483823
0.485509
0.487186
0.490196
0.495035
0.50155
0.510379
0.522159
0.537741
0.558609
0.585999
0.618413
0.650412
0.678899
0.69861
0.705792
0.694538
0.678232
0.673533
0.67373
0.683094
0.68032
0.669083
0.648604
0.629896
0.621557
0.492542
0.489604
0.486878
0.484394
0.482743
0.48105
0.479874
0.48026
0.481665
0.483127
0.486389
0.491575
0.498299
0.50757
0.51983
0.53594
0.556912
0.583591
0.61487
0.647578
0.673467
0.693404
0.700166
0.686524
0.675366
0.672951
0.6791
0.686429
0.679365
0.663519
0.639563
0.624983
0.618593
0.491839
0.48922
0.486182
0.483207
0.480821
0.47849
0.476899
0.477118
0.477875
0.479434
0.482828
0.488615
0.496008
0.505947
0.519203
0.536068
0.5576
0.583773
0.614587
0.645151
0.67191
0.689116
0.693508
0.677448
0.674003
0.67523
0.686909
0.688957
0.678135
0.654597
0.63417
0.622568
0.617163
0.492891
0.489457
0.485317
0.481165
0.47698
0.47308
0.470428
0.469313
0.46969
0.470824
0.474561
0.481532
0.490266
0.501898
0.517064
0.535826
0.558181
0.584668
0.615273
0.645168
0.670037
0.685461
0.684981
0.671925
0.6721
0.680771
0.6923
0.68897
0.673758
0.648799
0.631514
0.621072
0.615667
0.493476
0.487643
0.481172
0.473274
0.465882
0.459656
0.456127
0.453872
0.45373
0.454481
0.458319
0.466347
0.477148
0.491757
0.510332
0.532815
0.556602
0.585074
0.616599
0.645544
0.668604
0.681242
0.674367
0.668433
0.672905
0.688299
0.695814
0.688181
0.667379
0.644894
0.628793
0.618151
0.61108
0.490589
0.478983
0.46793
0.46036
0.454975
0.451312
0.448509
0.446381
0.445108
0.444863
0.445615
0.450944
0.458306
0.474571
0.498028
0.525071
0.552628
0.584661
0.618309
0.646475
0.667644
0.676107
0.665628
0.667756
0.678716
0.695172
0.697502
0.684711
0.661254
0.640398
0.622943
0.607675
0.594643
0.477567
0.468578
0.461812
0.456806
0.452606
0.450004
0.447317
0.445167
0.443958
0.442213
0.442102
0.444281
0.450898
0.461755
0.481281
0.514288
0.548528
0.586116
0.621393
0.648457
0.666673
0.668295
0.660859
0.668102
0.68821
0.700291
0.69784
0.678833
0.654599
0.630727
0.609158
0.592152
0.57926
0.472776
0.466731
0.46118
0.458156
0.458794
0.461297
0.458988
0.456709
0.45336
0.447583
0.443027
0.442537
0.447041
0.457147
0.473478
0.503449
0.545064
0.589276
0.625453
0.650525
0.664346
0.658534
0.65924
0.674528
0.697453
0.704759
0.695321
0.670351
0.645039
0.621512
0.6015
0.586293
0.575526
0.472617
0.466993
0.46688
0.472422
0.490273
0.49795
0.495352
0.492414
0.482757
0.466249
0.450887
0.44402
0.446005
0.455334
0.471082
0.50179
0.550325
0.597051
0.631004
0.652366
0.65867
0.651893
0.660405
0.687781
0.705667
0.708125
0.691351
0.664477
0.640163
0.619239
0.602009
0.588837
0.579751
0.473944
0.475605
0.491058
0.524083
0.534237
0.531192
0.525226
0.515193
0.500478
0.477022
0.455793
0.444866
0.445288
0.455212
0.473529
0.511272
0.563149
0.609262
0.637217
0.651896
0.647425
0.649391
0.668666
0.701529
0.71235
0.710131
0.688199
0.662697
0.641466
0.623388
0.609805
0.601393
0.598444
0.481115
0.500488
0.54406
0.555415
0.550822
0.542304
0.530754
0.517394
0.494407
0.468112
0.449273
0.441896
0.445966
0.458637
0.482439
0.531199
0.585469
0.622103
0.641811
0.645395
0.640069
0.65169
0.686823
0.7111
0.717809
0.712647
0.689298
0.667169
0.652297
0.644803
0.643104
0.645903
0.651951
0.498095
0.547356
0.570092
0.567994
0.558458
0.542604
0.515997
0.485685
0.462713
0.44644
0.438398
0.440209
0.449971
0.467362
0.506832
0.564837
0.608664
0.631773
0.639926
0.63239
0.640001
0.664693
0.703386
0.718019
0.72266
0.716108
0.697606
0.686972
0.684149
0.684541
0.686144
0.690085
0.695482
0.531305
0.572909
0.583808
0.57613
0.560972
0.521654
0.470201
0.446462
0.436261
0.433536
0.437084
0.445589
0.460856
0.495619
0.5537
0.59947
0.623827
0.633725
0.626969
0.628311
0.646646
0.690087
0.714088
0.723156
0.725635
0.720393
0.711951
0.708275
0.707747
0.70872
0.71001
0.710468
0.709009
0.553018
0.589208
0.593089
0.584201
0.557959
0.501734
0.459733
0.440387
0.435751
0.43881
0.446614
0.463207
0.500205
0.556067
0.596368
0.618628
0.628186
0.621771
0.618182
0.632639
0.669649
0.70495
0.71899
0.725418
0.726817
0.722474
0.718681
0.717151
0.716473
0.715235
0.712314
0.703526
0.689513
0.567306
0.600448
0.602133
0.592676
0.563774
0.50523
0.46706
0.45333
0.452343
0.461197
0.483075
0.524422
0.569083
0.598383
0.616548
0.624298
0.617077
0.609849
0.619876
0.647227
0.690191
0.710151
0.720313
0.725065
0.72534
0.722008
0.719105
0.716274
0.710138
0.695704
0.673369
0.653477
0.644817
0.576357
0.609946
0.61016
0.602766
0.588642
0.557917
0.525868
0.512784
0.513133
0.533395
0.561976
0.586429
0.604709
0.6167
0.621893
0.611921
0.601741
0.609274
0.629444
0.670657
0.695012
0.708528
0.714349
0.716638
0.716002
0.71062
0.700481
0.680778
0.654555
0.638619
0.634422
0.634631
0.638809
0.56718
0.610782
0.617874
0.614329
0.606585
0.59521
0.58345
0.579379
0.581937
0.592566
0.602218
0.612374
0.61808
0.619582
0.604615
0.59576
0.602505
0.617255
0.646604
0.674985
0.689882
0.697623
0.699334
0.695271
0.683976
0.660448
0.637307
0.627656
0.626247
0.629738
0.634604
0.635684
0.629647
0.55114
0.60534
0.621756
0.623256
0.620984
0.616268
0.61229
0.611121
0.612583
0.615428
0.61824
0.620879
0.615089
0.595815
0.591217
0.597804
0.608996
0.630893
0.656987
0.671463
0.679334
0.677886
0.66608
0.641191
0.624097
0.620071
0.620845
0.626326
0.630295
0.628541
0.611208
0.579378
0.54957
0.529657
0.583902
0.613692
0.624034
0.626672
0.627301
0.62616
0.624623
0.624133
0.622428
0.616785
0.603882
0.587929
0.587413
0.594043
0.60392
0.621274
0.641887
0.654272
0.659915
0.651397
0.629234
0.615439
0.613628
0.615727
0.621066
0.624449
0.618871
0.592563
0.555966
0.528192
0.517595
0.515672
0.520348
0.542
0.587839
0.607758
0.616714
0.620617
0.622603
0.61851
0.611729
0.600623
0.587228
0.582097
0.584918
0.591771
0.600769
0.614731
0.62901
0.638593
0.637892
0.620712
0.607995
0.606992
0.609671
0.614089
0.6169
0.610213
0.58237
0.540058
0.522484
0.520142
0.524846
0.537437
0.5559
0.520513
0.526754
0.54573
0.571918
0.582516
0.587186
0.589359
0.584834
0.580478
0.579927
0.579106
0.583628
0.590365
0.598402
0.608608
0.617914
0.623346
0.614058
0.601651
0.600772
0.603364
0.606674
0.608527
0.601899
0.574441
0.533128
0.522199
0.523733
0.538432
0.566513
0.603075
0.638736
0.666146
0.524999
0.525378
0.531562
0.544895
0.559309
0.566543
0.570993
0.574663
0.576295
0.578988
0.582695
0.588361
0.594613
0.601309
0.606694
0.60492
0.595384
0.594588
0.596846
0.599758
0.60062
0.593343
0.567487
0.531333
0.523573
0.528149
0.551675
0.592394
0.637026
0.674316
0.705348
0.723906
0.732992
0.531121
0.529484
0.530615
0.534807
0.543444
0.553225
0.560801
0.566713
0.57169
0.576744
0.581636
0.58595
0.58937
0.589984
0.588182
0.58771
0.590605
0.593805
0.595103
0.589675
0.57037
0.540407
0.533277
0.536866
0.558755
0.599113
0.644966
0.684062
0.714863
0.740972
0.750433
0.748571
0.743087
0.540438
0.536216
0.535205
0.536112
0.53949
0.543943
0.549932
0.555812
0.560795
0.565662
0.570483
0.574064
0.57739
0.580361
0.583646
0.587496
0.589919
0.587484
0.575336
0.551758
0.54431
0.545599
0.559663
0.592936
0.636764
0.674637
0.711591
0.751115
0.760776
0.757273
0.745482
0.722643
0.689967
0.546639
0.544787
0.543204
0.542141
0.543021
0.545425
0.549313
0.553206
0.557742
0.562279
0.567195
0.572003
0.576688
0.580925
0.583899
0.583951
0.577254
0.560578
0.551692
0.552236
0.558771
0.580635
0.617963
0.657413
0.69788
0.749822
0.768146
0.766091
0.752978
0.720875
0.673949
0.630745
0.606688
0.548817
0.549792
0.549655
0.549092
0.549932
0.551435
0.553824
0.55714
0.561081
0.565348
0.569962
0.574208
0.577472
0.578763
0.575761
0.56557
0.556329
0.556934
0.56027
0.572061
0.598843
0.635303
0.674713
0.731333
0.770519
0.774675
0.767273
0.742972
0.69845
0.650153
0.614505
0.597678
0.590628
0.545445
0.549455
0.552023
0.553847
0.555261
0.556634
0.558928
0.56154
0.564824
0.568098
0.570795
0.572317
0.571077
0.565734
0.558991
0.559099
0.562404
0.568561
0.585083
0.613286
0.647082
0.693524
0.756443
0.779051
0.77863
0.768953
0.743807
0.704213
0.663876
0.626505
0.603962
0.597084
0.596093
0.545024
0.545661
0.548021
0.552913
0.555875
0.558383
0.560821
0.562699
0.564301
0.565153
0.564405
0.562608
0.56046
0.560003
0.562936
0.567512
0.576635
0.595778
0.621439
0.653347
0.70664
0.76418
0.78191
0.779807
0.77048
0.750564
0.720522
0.688569
0.654294
0.621602
0.608004
0.604244
0.606645
0.546778
0.546297
0.546841
0.548518
0.551057
0.553628
0.556139
0.557943
0.558909
0.559647
0.560408
0.561068
0.563026
0.56696
0.572825
0.584541
0.602273
0.622783
0.654363
0.703662
0.755267
0.772991
0.771117
0.762438
0.748324
0.730289
0.710932
0.687739
0.65922
0.628118
0.612487
0.607929
0.609187
0.550188
0.548848
0.548611
0.549667
0.551342
0.553424
0.555578
0.557657
0.559607
0.561746
0.563593
0.566697
0.571122
0.578283
0.588497
0.599896
0.61751
0.64396
0.681344
0.724517
0.74358
0.745762
0.740339
0.734314
0.728873
0.720753
0.711508
0.696744
0.674425
0.644795
0.618182
0.609745
0.608454
0.554656
0.551725
0.551567
0.552409
0.554176
0.556351
0.558755
0.561274
0.563828
0.566911
0.570552
0.575181
0.580083
0.585582
0.594099
0.606762
0.625393
0.651396
0.68204
0.70671
0.71637
0.716982
0.72132
0.72772
0.729115
0.724046
0.715627
0.703557
0.68276
0.656066
0.625743
0.609397
0.605883
0.560881
0.555381
0.555034
0.556284
0.558295
0.560752
0.564177
0.568145
0.571297
0.57431
0.577086
0.579458
0.583128
0.588154
0.596307
0.609848
0.629571
0.655858
0.684898
0.70853
0.722141
0.734098
0.753773
0.771197
0.771814
0.764977
0.754058
0.732381
0.703781
0.676069
0.643155
0.612248
0.601805
0.567603
0.559885
0.559991
0.562016
0.56469
0.569135
0.573053
0.575593
0.577526
0.578191
0.57814
0.579644
0.582823
0.587642
0.596293
0.612051
0.636816
0.668845
0.705501
0.746216
0.792279
0.833631
0.847284
0.845057
0.837017
0.827132
0.81425
0.792962
0.760936
0.718223
0.674144
0.631292
0.603072
0.574192
0.565273
0.565759
0.568285
0.57274
0.576604
0.578866
0.579933
0.579153
0.577633
0.576596
0.576719
0.579386
0.584831
0.597756
0.621959
0.660626
0.71653
0.794412
0.859346
0.869788
0.871283
0.862087
0.853347
0.843618
0.835926
0.828186
0.819816
0.80681
0.783791
0.739206
0.674582
0.61927
0.580787
0.570241
0.570532
0.573265
0.577946
0.580601
0.581756
0.580436
0.577391
0.573813
0.570138
0.570843
0.57492
0.586618
0.610311
0.655473
0.734355
0.812588
0.835724
0.842366
0.835505
0.81693
0.796303
0.785933
0.782874
0.794084
0.813259
0.818927
0.816286
0.809072
0.789215
0.750441
0.68484
0.585054
0.574173
0.574278
0.576903
0.580599
0.582449
0.581775
0.577897
0.571574
0.564635
0.563994
0.566848
0.576938
0.600353
0.649379
0.737144
0.793741
0.810799
0.812444
0.798166
0.762287
0.739027
0.731219
0.72799
0.731065
0.737504
0.750003
0.775522
0.802679
0.809403
0.806876
0.793321
0.757571
0.585688
0.577194
0.577452
0.579548
0.581821
0.582272
0.578953
0.571106
0.560704
0.558463
0.560039
0.568227
0.589828
0.638428
0.724565
0.774819
0.789719
0.790923
0.772225
0.735314
0.718939
0.71434
0.712799
0.71506
0.716429
0.716465
0.71745
0.724026
0.744369
0.783574
0.804707
0.806461
0.797876
0.585752
0.579393
0.579591
0.580853
0.581622
0.579661
0.572493
0.559239
0.554087
0.554379
0.560211
0.578334
0.622097
0.703044
0.756125
0.772239
0.774348
0.757716
0.720862
0.705605
0.703119
0.703412
0.707221
0.704043
0.697574
0.691809
0.688921
0.692572
0.704428
0.727167
0.767718
0.801253
0.808026
0.58548
0.58085
0.580515
0.580867
0.579672
0.574388
0.561377
0.551441
0.550125
0.553175
0.566571
0.60253
0.673779
0.736373
0.757119
0.760603
0.749396
0.714754
0.695795
0.693128
0.693639
0.69541
0.691709
0.679607
0.659433
0.647236
0.643294
0.645381
0.655851
0.675933
0.70844
0.75492
0.795675
0.585312
0.581185
0.580307
0.579576
0.576097
0.566055
0.551899
0.547635
0.547998
0.555981
0.582383
0.639696
0.71271
0.742637
0.748595
0.74396
0.716347
0.689413
0.684289
0.685236
0.686423
0.684686
0.674322
0.655674
0.636591
0.626177
0.621746
0.618809
0.619923
0.62753
0.645952
0.679476
0.731235
0.58508
0.58114
0.579612
0.577524
0.570919
0.557664
0.547376
0.545461
0.548215
0.564795
0.605983
0.678828
0.7255
0.737619
0.738323
0.72189
0.688694
0.677459
0.677334
0.679154
0.679511
0.673265
0.658761
0.64207
0.630549
0.623264
0.615034
0.610281
0.608738
0.610451
0.617204
0.630938
0.655965
0.584877
0.580941
0.579059
0.575048
0.566061
0.552003
0.545596
0.544576
0.552107
0.578553
0.634248
0.700706
0.725895
0.730074
0.724563
0.698275
0.673469
0.670122
0.671779
0.673849
0.672383
0.663327
0.649913
0.63833
0.630937
0.623659
0.613282
0.60745
0.605952
0.605494
0.607467
0.612395
0.621943
0.585603
0.581852
0.579055
0.573568
0.562466
0.549523
0.545304
0.546067
0.55929
0.593972
0.6577
0.707163
0.720482
0.721541
0.708681
0.67754
0.665096
0.66546
0.668599
0.670566
0.667865
0.65879
0.648254
0.641228
0.635377
0.624867
0.614102
0.608979
0.607087
0.606306
0.606728
0.608291
0.611338
0.587723
0.583915
0.580107
0.573492
0.561097
0.550049
0.546835
0.549756
0.567022
0.606731
0.670216
0.705264
0.712901
0.710599
0.690464
0.664088
0.660051
0.663125
0.667045
0.669485
0.666915
0.660663
0.655596
0.651801
0.643853
0.632033
0.622892
0.616908
0.612596
0.610411
0.610065
0.610837
0.612108
0.591219
0.587099
0.582401
0.574869
0.5619
0.552469
0.549678
0.553614
0.572685
0.614296
0.672744
0.698919
0.703118
0.69708
0.672607
0.656871
0.657552
0.662135
0.667465
0.670304
0.668577
0.665185
0.662742
0.659
0.65148
0.643074
0.636254
0.629394
0.62294
0.619077
0.618024
0.618768
0.61999
0.596644
0.592213
0.5865
0.57777
0.564638
0.55631
0.55319
0.557061
0.57589
0.616296
0.669411
0.688499
0.690062
0.680741
0.65867
0.65259
0.655827
0.662442
0.667877
0.669988
0.668125
0.665941
0.664681
0.661331
0.655354
0.649753
0.645178
0.640148
0.635449
0.632095
0.629044
0.627862
0.628916
0.604294
0.600862
0.593678
0.583128
0.569343
0.561009
0.557457
0.560569
0.577471
0.615278
0.659934
0.672416
0.672499
0.66323
0.649713
0.649711
0.655026
0.66347
0.668433
0.669519
0.667585
0.666113
0.664968
0.661662
0.656611
0.653107
0.650336
0.646631
0.643479
0.641633
0.639616
0.638696
0.639077
0.616016
0.609269
0.603011
0.592221
0.577076
0.567602
0.563206
0.564647
0.578442
0.610966
0.646444
0.65534
0.655063
0.648682
0.643975
0.646934
0.656849
0.664601
0.669038
0.668982
0.666682
0.665111
0.6632
0.659284
0.655171
0.653681
0.652061
0.649624
0.648611
0.648258
0.646873
0.646756
0.647757
0.635526
0.621233
0.612168
0.602515
0.589142
0.577052
0.571206
0.569718
0.578623
0.602303
0.631919
0.640806
0.641123
0.638909
0.639436
0.64643
0.659642
0.666367
0.669734
0.668086
0.664508
0.661158
0.656898
0.651434
0.648013
0.646485
0.647174
0.647051
0.648619
0.650293
0.650972
0.652508
0.654027
0.66925
0.643679
0.625194
0.612805
0.600938
0.588317
0.580686
0.576524
0.579039
0.592006
0.613505
0.626793
0.630985
0.632995
0.637438
0.651001
0.662813
0.668755
0.670221
0.665866
0.658758
0.649927
0.639209
0.628866
0.624882
0.625957
0.626998
0.629859
0.636048
0.641383
0.645786
0.651803
0.656178
0.704141
0.679297
0.650791
0.627975
0.612219
0.598437
0.589188
0.583891
0.582044
0.587357
0.599846
0.613527
0.622795
0.629413
0.63943
0.656901
0.666741
0.671748
0.670335
0.660834
0.6441
0.619396
0.588073
0.571102
0.568614
0.568429
0.570922
0.579366
0.594553
0.607064
0.620857
0.636782
0.646538
0.72635
0.71258
0.688308
0.65792
0.630738
0.610896
0.597799
0.5909
0.587092
0.587553
0.594112
0.605246
0.617002
0.628619
0.644452
0.663176
0.671653
0.675127
0.668566
0.647678
0.611461
0.566235
0.539866
0.5307
0.530953
0.532592
0.538115
0.549469
0.561109
0.570306
0.582649
0.595511
0.609852
0.73503
0.730047
0.71822
0.695745
0.665626
0.63434
0.611043
0.599435
0.5938
0.591779
0.594099
0.602222
0.614626
0.629781
0.650146
0.669641
0.677519
0.678291
0.663972
0.629909
0.579098
0.529107
0.512443
0.508861
0.510208
0.514423
0.526225
0.544076
0.559861
0.571402
0.583038
0.590499
0.597912
0.716578
0.73363
0.730445
0.720539
0.701378
0.672848
0.640028
0.614462
0.603344
0.598952
0.599281
0.604506
0.615509
0.632401
0.656626
0.676489
0.683907
0.681795
0.660992
0.616241
0.553895
0.509147
0.497339
0.496358
0.498763
0.507982
0.528651
0.558166
0.59034
0.615815
0.628034
0.632361
0.624154
0.66442
0.693636
0.72594
0.727756
0.719591
0.704173
0.679549
0.649201
0.622647
0.611302
0.608534
0.611864
0.6212
0.637385
0.66376
0.684191
0.691186
0.686761
0.660516
0.607397
0.537957
0.4969
0.48649
0.485514
0.487707
0.496595
0.517221
0.548258
0.588048
0.649448
0.697062
0.71736
0.724625
0.668926
0.657993
0.66947
0.708259
0.721151
0.715656
0.70398
0.684987
0.66079
0.638763
0.627619
0.625665
0.631433
0.64631
0.671801
0.691686
0.698093
0.691975
0.662816
0.60482
0.530392
0.489795
0.478193
0.475955
0.477231
0.482817
0.497977
0.523471
0.562481
0.637874
0.716458
0.755988
0.774647
0.715696
0.675618
0.65484
0.652836
0.679901
0.708771
0.70971
0.701429
0.688448
0.672025
0.658351
0.652069
0.652077
0.659736
0.681553
0.698961
0.704833
0.697891
0.667624
0.606105
0.530701
0.486828
0.472167
0.46777
0.468018
0.471062
0.480631
0.498006
0.534844
0.625236
0.725407
0.783259
0.810886
0.726987
0.722848
0.691441
0.655555
0.644483
0.654435
0.687334
0.701297
0.69781
0.690019
0.681408
0.675763
0.674649
0.678277
0.689979
0.704071
0.709189
0.702254
0.672099
0.608529
0.536918
0.48946
0.469386
0.462081
0.460645
0.462722
0.468592
0.480237
0.512304
0.608371
0.710144
0.805161
0.863982
0.693528
0.717828
0.722985
0.702837
0.66103
0.641395
0.638475
0.660614
0.68846
0.69431
0.691372
0.688979
0.688886
0.691086
0.697367
0.707374
0.711931
0.704986
0.674412
0.611932
0.545664
0.497451
0.47118
0.460317
0.457132
0.458683
0.463219
0.47191
0.497914
0.579571
0.677193
0.82001
0.968276
0.686198
0.678841
0.698615
0.721247
0.708833
0.670519
0.642239
0.632861
0.64007
0.667075
0.687815
0.693662
0.696366
0.698957
0.703132
0.709938
0.712503
0.705188
0.673901
0.616355
0.556083
0.509149
0.477767
0.46211
0.456872
0.457278
0.461467
0.468836
0.490053
0.549196
0.639469
0.821534
1.03153
0.699443
0.68031
0.666822
0.671658
0.712187
0.707152
0.680308
0.64542
0.63222
0.630521
0.646042
0.673304
0.691328
0.699391
0.703836
0.707384
0.708135
0.699943
0.669061
0.616733
0.563418
0.51921
0.486811
0.467625
0.459373
0.457921
0.461283
0.467953
0.485566
0.523609
0.60967
0.804016
1.03211
0.7097
0.692898
0.670959
0.657491
0.660062
0.697467
0.701753
0.686584
0.654981
0.634405
0.627696
0.630559
0.648845
0.673471
0.688292
0.694026
0.693062
0.683773
0.655962
0.610653
0.564056
0.524425
0.494002
0.474355
0.463805
0.460024
0.462283
0.468742
0.482612
0.511891
0.58289
0.777968
1.00943
0.708497
0.695816
0.678593
0.6619
0.649378
0.653465
0.687255
0.695352
0.688319
0.665206
0.63715
0.626925
0.621833
0.624234
0.63628
0.650684
0.652601
0.644857
0.62668
0.594467
0.557409
0.523353
0.4978
0.480098
0.468508
0.463227
0.46462
0.470871
0.482105
0.505629
0.563931
0.741019
0.968885
0.694407
0.681587
0.672989
0.661953
0.650488
0.643829
0.647706
0.675929
0.689694
0.687433
0.673289
0.642881
0.623503
0.613944
0.606197
0.602871
0.599346
0.594023
0.584414
0.566854
0.543085
0.51816
0.49828
0.48393
0.472323
0.467142
0.468556
0.47464
0.484909
0.504858
0.552557
0.700704
0.919639
0.666335
0.650891
0.648498
0.647209
0.64373
0.639197
0.637005
0.642446
0.667731
0.68504
0.685909
0.677974
0.650486
0.619755
0.6032
0.591967
0.57951
0.567602
0.555681
0.54169
0.525662
0.510051
0.496868
0.485666
0.475388
0.471495
0.473554
0.479497
0.48964
0.508101
0.547476
0.666625
0.870715
0.645777
0.627197
0.617454
0.617629
0.620961
0.625647
0.628646
0.631133
0.638199
0.661661
0.680422
0.6833
0.677222
0.65605
0.61973
0.594412
0.57681
0.562318
0.548752
0.535448
0.521934
0.5086
0.497834
0.487608
0.479337
0.476925
0.479627
0.485526
0.496452
0.514244
0.547128
0.641499
0.81943
0.642484
0.621517
0.604255
0.593647
0.591926
0.600777
0.612665
0.620583
0.626287
0.634125
0.656103
0.675226
0.679212
0.67468
0.659978
0.628049
0.591359
0.567418
0.550238
0.535943
0.522669
0.510643
0.50149
0.491298
0.484847
0.48441
0.488062
0.494486
0.508881
0.525634
0.55374
0.625765
0.771544
0.648323
0.620984
0.598304
0.580383
0.570366
0.569499
0.584023
0.602798
0.614536
0.621686
0.630156
0.651474
0.670173
0.674777
0.671733
0.661172
0.640067
0.604426
0.571427
0.548403
0.531535
0.519106
0.509468
0.499356
0.494878
0.496761
0.501216
0.510465
0.528741
0.544383
0.568311
0.623458
0.737386
0.664616
0.622481
0.59346
0.572592
0.554831
0.549495
0.553298
0.571187
0.596826
0.610555
0.617904
0.626932
0.648304
0.666393
0.67066
0.67075
0.664227
0.650022
0.626857
0.595188
0.566683
0.547208
0.530565
0.518871
0.518822
0.522582
0.529231
0.541256
0.558093
0.572148
0.591314
0.630964
0.716003
0.667986
0.617761
0.584807
0.561776
0.545243
0.534953
0.534582
0.54338
0.56549
0.595746
0.608664
0.615917
0.625175
0.646485
0.664222
0.669553
0.672034
0.668564
0.660612
0.645792
0.622951
0.604536
0.58615
0.569718
0.5625
0.56511
0.569788
0.578046
0.592531
0.605936
0.621387
0.649211
0.709128
0.655121
0.605037
0.576143
0.554057
0.536847
0.527338
0.523666
0.527892
0.540752
0.571282
0.598731
0.609982
0.618189
0.628574
0.64883
0.665716
0.672462
0.676271
0.675642
0.67224
0.664364
0.649969
0.638527
0.624168
0.613466
0.613597
0.618009
0.624602
0.636969
0.650691
0.662992
0.68108
0.716412
0.644786
0.602694
0.575198
0.552491
0.534222
0.523909
0.519076
0.519884
0.527145
0.546144
0.57941
0.600875
0.61182
0.620821
0.633854
0.653643
0.670631
0.678786
0.683536
0.685398
0.685562
0.682375
0.677241
0.665425
0.656632
0.6573
0.66163
0.667663
0.677983
0.689775
0.700403
0.712559
0.732356
0.648524
0.614504
0.590107
0.567287
0.54472
0.528435
0.520573
0.519689
0.526765
0.544603
0.575892
0.597679
0.609765
0.617989
0.626909
0.640824
0.661521
0.679223
0.688154
0.69342
0.697538
0.700077
0.700941
0.697231
0.691552
0.693204
0.69758
0.703246
0.712385
0.722922
0.731578
0.739724
0.751231
0.678766
0.652403
0.630439
0.609804
0.585288
0.555722
0.537249
0.530941
0.534807
0.552253
0.580403
0.599855
0.611158
0.619102
0.626341
0.63648
0.650651
0.671961
0.690292
0.699627
0.706015
0.711222
0.715336
0.717577
0.718321
0.722379
0.726926
0.732707
0.739941
0.746619
0.751637
0.756629
0.763467
0.712698
0.680755
0.657547
0.64157
0.627762
0.611348
0.58763
0.573528
0.56922
0.577346
0.59515
0.606696
0.61516
0.62225
0.629133
0.63694
0.648507
0.664391
0.686427
0.703638
0.713441
0.72053
0.725924
0.730659
0.735424
0.740443
0.745637
0.751608
0.756027
0.760569
0.76342
0.765396
0.765896
0.730459
0.695602
0.671076
0.653487
0.643144
0.633126
0.623754
0.612587
0.60835
0.607809
0.613254
0.618091
0.622916
0.627779
0.633352
0.639752
0.648875
0.661934
0.678451
0.700353
0.71614
0.727272
0.734847
0.740943
0.747059
0.753361
0.758763
0.762965
0.765294
0.764968
0.761986
0.755597
0.750866
0.742107
0.711217
0.682547
0.661995
0.649852
0.643108
0.637213
0.632051
0.628358
0.626919
0.627573
0.628911
0.631014
0.634133
0.638383
0.644308
0.652005
0.662651
0.678009
0.697415
0.717237
0.730273
0.740043
0.747634
0.754656
0.7594
0.761653
0.760644
0.753789
0.744016
0.72767
0.714065
0.702629
0.747833
0.722639
0.698833
0.673833
0.657078
0.646602
0.642528
0.639592
0.637025
0.635624
0.63513
0.635752
0.636808
0.639454
0.643502
0.649267
0.656873
0.666975
0.680215
0.695167
0.711727
0.723599
0.731642
0.736398
0.739902
0.741239
0.738639
0.7291
0.711232
0.698364
0.692005
0.689351
0.686406
0.733549
0.724976
0.709346
0.692094
0.672961
0.655927
0.646053
0.641044
0.640675
0.640475
0.640238
0.640719
0.641664
0.644025
0.647623
0.652806
0.659374
0.667325
0.67665
0.687799
0.700133
0.712762
0.726823
0.736051
0.741806
0.724961
0.70544
0.689354
0.687545
0.691133
0.697935
0.70491
0.707216
0.679571
0.685559
0.698635
0.697717
0.692676
0.682199
0.669538
0.654542
0.647992
0.644816
0.6449
0.645095
0.646471
0.649254
0.653247
0.658425
0.665771
0.675532
0.68386
0.69395
0.702816
0.710341
0.712908
0.702709
0.649377
0.629771
0.659485
0.69287
0.721542
0.742324
0.746581
0.743174
0.735776
0.662734
0.647543
0.63878
0.645363
0.668956
0.685456
0.696295
0.69815
0.691939
0.675335
0.668616
0.664921
0.664157
0.663824
0.665707
0.668793
0.672533
0.677211
0.679451
0.673222
0.651537
0.627598
0.611555
0.613379
0.661548
0.725393
0.755402
0.76569
0.765966
0.761788
0.755264
0.746909
0.736164
0.67198
0.650037
0.631628
0.617288
0.606336
0.599911
0.603694
0.625101
0.649105
0.661534
0.661485
0.662651
0.66225
0.659356
0.655669
0.650015
0.637415
0.627109
0.617285
0.616058
0.620493
0.645684
0.680146
0.744978
0.765493
0.77257
0.772475
0.770827
0.767225
0.759173
0.748673
0.736912
0.728743
0.718325
0.703893
0.681308
0.652554
0.625529
0.601784
0.588816
0.582288
0.579859
0.586198
0.599891
0.605181
0.608297
0.608593
0.608168
0.607963
0.609437
0.613467
0.622593
0.641975
0.683358
0.736125
0.762272
0.772896
0.777169
0.776241
0.773046
0.767428
0.759709
0.745764
0.730358
0.723508
0.706207
0.731676
0.72754
0.715999
0.703119
0.684122
0.664166
0.647441
0.631461
0.615536
0.608131
0.605338
0.605333
0.60793
0.612001
0.617741
0.626527
0.640728
0.664867
0.696406
0.733307
0.75531
0.76843
0.775587
0.778449
0.777021
0.774084
0.768029
0.757822
0.745486
0.726616
0.711333
0.703509
0.703938
0.721738
0.7276
0.720092
0.710533
0.695913
0.676377
0.661617
0.654941
0.651123
0.648834
0.646896
0.646935
0.652055
0.662272
0.67848
0.699188
0.72014
0.736767
0.751293
0.76125
0.768306
0.773453
0.775722
0.774654
0.772041
0.766783
0.757806
0.744947
0.728399
0.708175
0.694023
0.694056
0.694732
0.677032
0.712637
0.717678
0.711606
0.700613
0.68107
0.665199
0.65938
0.656908
0.657023
0.659845
0.666669
0.676882
0.690488
0.706406
0.722692
0.737436
0.749116
0.756395
0.762028
0.766131
0.768557
0.768071
0.765946
0.761108
0.753716
0.742425
0.728545
0.71196
0.692037
0.68141
0.685886
0.692224
0.626208
0.654535
0.694956
0.702297
0.697933
0.682256
0.656747
0.646895
0.644714
0.646564
0.652434
0.660904
0.671893
0.684964
0.699476
0.714634
0.728684
0.739314
0.745949
0.749646
0.752535
0.753457
0.751722
0.747989
0.741668
0.733232
0.722131
0.70882
0.692383
0.674424
0.667935
0.684761
0.691506
0.593258
0.599562
0.615188
0.66076
0.679653
0.678307
0.662791
0.633317
0.622706
0.621036
0.623929
0.631637
0.643118
0.655277
0.665216
0.675245
0.688039
0.695352
0.704691
0.711189
0.71488
0.716494
0.715726
0.712605
0.707242
0.700278
0.691417
0.68155
0.670467
0.659931
0.659359
0.68962
0.691394
0.586435
0.578736
0.578185
0.582879
0.600897
0.637419
0.648718
0.644024
0.625583
0.605595
0.598679
0.598126
0.600169
0.604084
0.609597
0.61725
0.62529
0.633471
0.63964
0.646583
0.65223
0.655482
0.65723
0.657909
0.657152
0.655281
0.653403
0.652
0.65078
0.649347
0.65507
0.694773
0.689303
0.626161
0.592035
0.573629
0.566385
0.565726
0.570043
0.58101
0.600734
0.609244
0.603742
0.596857
0.588078
0.58213
0.578203
0.575516
0.574902
0.575865
0.57836
0.58261
0.587185
0.590325
0.592448
0.594598
0.598633
0.602966
0.608617
0.615983
0.626349
0.63724
0.644412
0.656567
0.701387
0.682851
0.667925
0.648192
0.617461
0.585849
0.567581
0.560264
0.558071
0.559037
0.562283
0.568421
0.571849
0.569908
0.568958
0.568008
0.566448
0.563861
0.560144
0.557891
0.557297
0.557095
0.55736
0.55872
0.561851
0.567079
0.575261
0.586189
0.600188
0.617221
0.633979
0.645473
0.660919
0.705872
0.664797
0.682604
0.670049
0.657626
0.641485
0.614067
0.584312
0.565986
0.557485
0.552802
0.550648
0.549779
0.549084
0.548245
0.54804
0.548538
0.549139
0.54967
0.549721
0.548914
0.547602
0.547934
0.549998
0.553918
0.559487
0.568347
0.580964
0.597092
0.616367
0.635762
0.649782
0.66739
0.706513
0.653173
0.723664
0.688107
0.670109
0.661255
0.652571
0.638908
0.612692
0.585133
0.56631
0.555352
0.549266
0.545415
0.542533
0.540688
0.539716
0.538927
0.53835
0.538641
0.539764
0.541678
0.544088
0.547435
0.551913
0.558129
0.567532
0.580841
0.597798
0.617766
0.637847
0.653009
0.671097
0.709798
0.659439
0.750493
0.736841
0.701941
0.674738
0.663052
0.657321
0.65054
0.636829
0.612403
0.587409
0.567379
0.554619
0.546584
0.541579
0.538545
0.536753
0.535527
0.535536
0.536851
0.539211
0.542669
0.547141
0.553889
0.563288
0.575575
0.591442
0.610439
0.630492
0.649062
0.662723
0.672415
0.711534
0.691618
0.629155
0.625685
0.6295
0.638283
0.649981
0.659463
0.662809
0.663284
0.624763
0.622458
0.628069
0.638006
0.64871
0.655154
0.656749
0.656516
0.620753
0.61961
0.626544
0.637315
0.646017
0.649219
0.650367
0.646748
0.617252
0.617148
0.625099
0.634785
0.639687
0.641486
0.640865
0.628748
0.615473
0.616476
0.62312
0.62859
0.630929
0.63086
0.622102
0.602834
0.614693
0.615793
0.619075
0.620054
0.618504
0.610455
0.595573
0.581092
0.612897
0.611578
0.608711
0.603756
0.5961
0.584831
0.573868
0.566186
0.60454
0.596162
0.587785
0.580807
0.572811
0.56554
0.56078
0.559129
0.58359
0.574993
0.568313
0.563152
0.559082
0.557094
0.557498
0.560016
0.570015
0.563753
0.559707
0.557662
0.557417
0.558904
0.5618
0.566713
0.568287
0.56405
0.562066
0.561982
0.563907
0.568473
0.577655
0.595256
0.574379
0.572679
0.574364
0.579983
0.591181
0.609638
0.63361
0.658096
0.601402
0.609864
0.622532
0.639173
0.657504