/*--------------------------------*- C++ -*----------------------------------*\
  =========                 |
  \\      /  F ield         | OpenFOAM: The Open Source CFD Toolbox
   \\    /   O peration     | Website:  https://openfoam.org
    \\  /    A nd           | Version:  10
     \\/     M anipulation  |
\*---------------------------------------------------------------------------*/
FoamFile
{
    format      ascii;
    class       volVectorField;
    location    "0.998694";
    object      U;
}
// * * * * * * * * * * * * * * * * * * * * * * * * * * * * * * * * * * * * * //

dimensions      [0 1 -1 0 0 0 0];

internalField   nonuniform List<vector> 
16320
(
(0.515221 -0.22471 0)
(0.538284 -0.221294 0)
(0.55999 -0.216683 0)
(0.580061 -0.211003 0)
(0.598106 -0.20442 0)
(0.613855 -0.197089 0)
(0.627065 -0.189115 0)
(0.637638 -0.180863 0)
(0.645537 -0.172516 0)
(0.650508 -0.164141 0)
(0.652227 -0.155954 0)
(0.650442 -0.147996 0)
(0.644614 -0.140455 0)
(0.633724 -0.13347 0)
(0.616322 -0.126971 0)
(0.590224 -0.120926 0)
(0.553074 -0.115036 0)
(0.504325 -0.10901 0)
(0.447726 -0.102675 0)
(0.391237 -0.0957906 0)
(0.343458 -0.0890051 0)
(0.308713 -0.0832884 0)
(0.286151 -0.0791442 0)
(0.27219 -0.0762285 0)
(0.263145 -0.0739526 0)
(0.25781 -0.0715944 0)
(0.255641 -0.0676981 0)
(0.256041 -0.0605088 0)
(0.258562 -0.0482592 0)
(0.262122 -0.030233 0)
(0.266913 -0.00588964 0)
(0.27178 0.0246133 0)
(0.277172 0.0591714 0)
(0.520177 -0.231891 0)
(0.54422 -0.227845 0)
(0.566888 -0.22237 0)
(0.587713 -0.215639 0)
(0.606293 -0.207808 0)
(0.622361 -0.199035 0)
(0.635515 -0.18961 0)
(0.645609 -0.179818 0)
(0.652778 -0.170113 0)
(0.656828 -0.160342 0)
(0.657431 -0.150968 0)
(0.654283 -0.141947 0)
(0.64682 -0.133628 0)
(0.634232 -0.126091 0)
(0.615095 -0.119334 0)
(0.587403 -0.113383 0)
(0.549051 -0.107753 0)
(0.499467 -0.102171 0)
(0.442566 -0.0961305 0)
(0.386133 -0.0894592 0)
(0.338114 -0.082156 0)
(0.302854 -0.0756878 0)
(0.279485 -0.0708104 0)
(0.2641 -0.0669847 0)
(0.253216 -0.0645857 0)
(0.24589 -0.0626136 0)
(0.24161 -0.0593472 0)
(0.239868 -0.0527629 0)
(0.239925 -0.0410563 0)
(0.240735 -0.0233532 0)
(0.242425 0.00121605 0)
(0.243701 0.0316153 0)
(0.245974 0.0660151 0)
(0.524614 -0.239019 0)
(0.549771 -0.233967 0)
(0.573259 -0.227496 0)
(0.594659 -0.219678 0)
(0.613554 -0.210545 0)
(0.629521 -0.200353 0)
(0.642226 -0.189355 0)
(0.65144 -0.177837 0)
(0.657598 -0.166305 0)
(0.660449 -0.154972 0)
(0.659524 -0.143992 0)
(0.654678 -0.133718 0)
(0.645229 -0.12443 0)
(0.630522 -0.116207 0)
(0.60915 -0.109169 0)
(0.579447 -0.103138 0)
(0.539402 -0.0978862 0)
(0.48863 -0.0928191 0)
(0.431293 -0.0870514 0)
(0.375083 -0.0801243 0)
(0.327557 -0.0723601 0)
(0.292147 -0.0651456 0)
(0.268551 -0.0593454 0)
(0.251855 -0.0546802 0)
(0.238855 -0.0521677 0)
(0.229617 -0.0505278 0)
(0.223401 -0.0479412 0)
(0.219695 -0.0417852 0)
(0.217403 -0.0305645 0)
(0.215788 -0.013017 0)
(0.2132 0.0119728 0)
(0.211327 0.0418405 0)
(0.211608 0.0750073 0)
(0.528049 -0.247219 0)
(0.5532 -0.241888 0)
(0.576525 -0.234674 0)
(0.597733 -0.225573 0)
(0.616371 -0.214862 0)
(0.632041 -0.202782 0)
(0.644346 -0.189629 0)
(0.65294 -0.175946 0)
(0.658017 -0.162095 0)
(0.659693 -0.148762 0)
(0.657442 -0.135867 0)
(0.65076 -0.124075 0)
(0.639298 -0.113627 0)
(0.622338 -0.104619 0)
(0.598645 -0.0971284 0)
(0.566491 -0.0909579 0)
(0.524223 -0.0859038 0)
(0.472131 -0.0811358 0)
(0.414644 -0.0755462 0)
(0.359024 -0.0682112 0)
(0.311933 -0.0600057 0)
(0.27669 -0.051941 0)
(0.252765 -0.045102 0)
(0.234502 -0.0398406 0)
(0.219418 -0.0371374 0)
(0.208336 -0.0358473 0)
(0.200616 -0.0338203 0)
(0.195302 -0.0280924 0)
(0.190972 -0.017241 0)
(0.18669 0.000699159 0)
(0.180589 0.0254004 0)
(0.176453 0.05422 0)
(0.175633 0.0850261 0)
(0.524944 -0.258365 0)
(0.550237 -0.252542 0)
(0.573835 -0.244043 0)
(0.595222 -0.233055 0)
(0.613915 -0.21992 0)
(0.62953 -0.205114 0)
(0.641439 -0.189181 0)
(0.649328 -0.172829 0)
(0.653442 -0.156564 0)
(0.653871 -0.140827 0)
(0.650074 -0.126016 0)
(0.641487 -0.11273 0)
(0.627875 -0.10123 0)
(0.608665 -0.0915503 0)
(0.582649 -0.0836448 0)
(0.548315 -0.0774236 0)
(0.504212 -0.0723151 0)
(0.451057 -0.0675155 0)
(0.393536 -0.0615792 0)
(0.338561 -0.053886 0)
(0.291748 -0.0449284 0)
(0.256382 -0.0358555 0)
(0.231534 -0.0280249 0)
(0.211304 -0.0225265 0)
(0.19418 -0.0198616 0)
(0.181763 -0.0190866 0)
(0.173077 -0.0175474 0)
(0.166593 -0.0123807 0)
(0.160664 -0.00136802 0)
(0.152441 0.0175485 0)
(0.144972 0.0408984 0)
(0.140698 0.0673054 0)
(0.139773 0.0949145 0)
(0.516465 -0.270136 0)
(0.542103 -0.2628 0)
(0.566097 -0.252499 0)
(0.587931 -0.239465 0)
(0.606958 -0.223915 0)
(0.62258 -0.206427 0)
(0.634131 -0.187726 0)
(0.641275 -0.168485 0)
(0.644373 -0.149577 0)
(0.643527 -0.131447 0)
(0.637935 -0.11443 0)
(0.627085 -0.0997355 0)
(0.611066 -0.0872143 0)
(0.589393 -0.0768843 0)
(0.560877 -0.0686008 0)
(0.524204 -0.0621709 0)
(0.478239 -0.0569304 0)
(0.424192 -0.0517729 0)
(0.366918 -0.0452361 0)
(0.312511 -0.0367887 0)
(0.266394 -0.0270017 0)
(0.230954 -0.0171217 0)
(0.204476 -0.0082932 0)
(0.182167 -0.00319113 0)
(0.163955 -0.00113979 0)
(0.151103 -0.00128278 0)
(0.141984 -0.000158354 0)
(0.134549 0.00498866 0)
(0.125912 0.0172317 0)
(0.116598 0.0350325 0)
(0.109541 0.0563526 0)
(0.106224 0.0795423 0)
(0.10593 0.10384 0)
(0.503373 -0.281194 0)
(0.529508 -0.272827 0)
(0.554041 -0.261098 0)
(0.576443 -0.246202 0)
(0.595968 -0.228369 0)
(0.611798 -0.208172 0)
(0.623203 -0.186478 0)
(0.629714 -0.16415 0)
(0.631686 -0.142234 0)
(0.629574 -0.121337 0)
(0.621855 -0.102124 0)
(0.608216 -0.0859088 0)
(0.589481 -0.0722175 0)
(0.564972 -0.0611881 0)
(0.533627 -0.0524642 0)
(0.494345 -0.0456736 0)
(0.446369 -0.0401566 0)
(0.391342 -0.0343121 0)
(0.334048 -0.0269288 0)
(0.280202 -0.0174589 0)
(0.23447 -0.00667133 0)
(0.199138 0.00387961 0)
(0.171041 0.013003 0)
(0.147709 0.0174769 0)
(0.130325 0.0182812 0)
(0.118531 0.0170809 0)
(0.109841 0.0177538 0)
(0.101609 0.0234749 0)
(0.0922749 0.0354699 0)
(0.0832918 0.0514344 0)
(0.0773359 0.0700856 0)
(0.0747872 0.0901599 0)
(0.0750774 0.111383 0)
(0.486211 -0.292619 0)
(0.512937 -0.283811 0)
(0.538067 -0.270592 0)
(0.561032 -0.253356 0)
(0.581002 -0.232693 0)
(0.596928 -0.20936 0)
(0.60802 -0.184294 0)
(0.613791 -0.158591 0)
(0.614788 -0.133283 0)
(0.611206 -0.109402 0)
(0.601062 -0.0884214 0)
(0.584602 -0.0705062 0)
(0.562861 -0.0559015 0)
(0.535042 -0.0442952 0)
(0.500369 -0.0351775 0)
(0.45754 -0.0275323 0)
(0.406281 -0.0205752 0)
(0.348943 -0.0128036 0)
(0.29066 -0.00350709 0)
(0.237045 0.00725858 0)
(0.192535 0.0182035 0)
(0.159023 0.0280026 0)
(0.131899 0.0349193 0)
(0.11055 0.0374287 0)
(0.0962253 0.0360903 0)
(0.0864863 0.0342213 0)
(0.0784134 0.0349893 0)
(0.0699069 0.0414106 0)
(0.0606782 0.0524966 0)
(0.0529207 0.066454 0)
(0.0481595 0.0822137 0)
(0.0462788 0.0994055 0)
(0.0474339 0.117668 0)
(0.465083 -0.304997 0)
(0.492112 -0.295088 0)
(0.518007 -0.28045 0)
(0.540923 -0.261211 0)
(0.5602 -0.238045 0)
(0.575179 -0.211592 0)
(0.585291 -0.183055 0)
(0.590145 -0.15355 0)
(0.590099 -0.12447 0)
(0.584736 -0.0972616 0)
(0.572551 -0.0737657 0)
(0.553625 -0.0539836 0)
(0.52852 -0.0380362 0)
(0.496827 -0.0247175 0)
(0.457729 -0.0142629 0)
(0.410712 -0.00513613 0)
(0.356979 0.00356249 0)
(0.300158 0.0122484 0)
(0.245165 0.0215712 0)
(0.195819 0.0315124 0)
(0.155506 0.0411427 0)
(0.123916 0.0497782 0)
(0.0971012 0.0545663 0)
(0.0767296 0.0552658 0)
(0.0641078 0.0525467 0)
(0.055373 0.0501619 0)
(0.0476537 0.0514229 0)
(0.0396297 0.0578856 0)
(0.0317148 0.067612 0)
(0.0255089 0.079834 0)
(0.0220331 0.0929887 0)
(0.0214498 0.106966 0)
(0.0238788 0.121927 0)
(0.439962 -0.317967 0)
(0.46623 -0.307027 0)
(0.490425 -0.291223 0)
(0.511625 -0.270005 0)
(0.529342 -0.244184 0)
(0.542924 -0.214417 0)
(0.551798 -0.182342 0)
(0.555585 -0.149139 0)
(0.55452 -0.116394 0)
(0.547873 -0.0857679 0)
(0.533724 -0.0593073 0)
(0.512505 -0.0370549 0)
(0.484485 -0.018278 0)
(0.447493 -0.00238457 0)
(0.403715 0.0101669 0)
(0.35635 0.0193584 0)
(0.304431 0.0281237 0)
(0.250643 0.0368072 0)
(0.19954 0.0458598 0)
(0.154319 0.0551364 0)
(0.118056 0.0638223 0)
(0.0882446 0.0708987 0)
(0.0634012 0.0736016 0)
(0.046238 0.0719395 0)
(0.0358659 0.0675493 0)
(0.0276894 0.0645954 0)
(0.020423 0.066013 0)
(0.0127345 0.0722247 0)
(0.00606651 0.0812248 0)
(0.00177972 0.091398 0)
(8.76908e-05 0.101713 0)
(0.00130319 0.11241 0)
(0.00553727 0.123744 0)
(0.408269 -0.330215 0)
(0.432359 -0.31885 0)
(0.454151 -0.301145 0)
(0.47285 -0.277211 0)
(0.487728 -0.247781 0)
(0.498582 -0.214954 0)
(0.505106 -0.179747 0)
(0.507272 -0.143326 0)
(0.505187 -0.107546 0)
(0.497074 -0.0735079 0)
(0.480972 -0.0444288 0)
(0.457252 -0.0186206 0)
(0.425807 0.00331062 0)
(0.387608 0.0205182 0)
(0.34281 0.0343169 0)
(0.295436 0.0441135 0)
(0.246782 0.0527661 0)
(0.197524 0.0610347 0)
(0.15149 0.0692986 0)
(0.111522 0.0773351 0)
(0.0795553 0.0847965 0)
(0.0522474 0.0894905 0)
(0.0311062 0.0900066 0)
(0.0181983 0.0861574 0)
(0.0100267 0.0803881 0)
(0.00260626 0.0773013 0)
(-0.00437733 0.0791987 0)
(-0.0108 0.0850215 0)
(-0.0150868 0.0924428 0)
(-0.0170162 0.10021 0)
(-0.0163919 0.107785 0)
(-0.012837 0.115382 0)
(-0.00634455 0.122975 0)
(0.369952 -0.340846 0)
(0.390576 -0.327913 0)
(0.408726 -0.307397 0)
(0.423505 -0.280587 0)
(0.434498 -0.249441 0)
(0.441664 -0.215029 0)
(0.445526 -0.177783 0)
(0.445522 -0.13901 0)
(0.442176 -0.100054 0)
(0.432162 -0.0633761 0)
(0.413295 -0.029679 0)
(0.387146 0.000454812 0)
(0.355128 0.0251466 0)
(0.317534 0.0438339 0)
(0.273698 0.0577997 0)
(0.228879 0.0681181 0)
(0.185426 0.0760088 0)
(0.142409 0.0831465 0)
(0.102586 0.0901037 0)
(0.0687946 0.0967608 0)
(0.0406943 0.102664 0)
(0.0170817 0.105015 0)
(0.00119799 0.103116 0)
(-0.0073996 0.096484 0)
(-0.0145303 0.0905583 0)
(-0.0203292 0.0882446 0)
(-0.0257169 0.0902788 0)
(-0.0298256 0.095031 0)
(-0.0314273 0.100392 0)
(-0.0304453 0.105449 0)
(-0.0266394 0.109974 0)
(-0.0197973 0.113996 0)
(-0.010267 0.117511 0)
(0.325169 -0.348413 0)
(0.341288 -0.333065 0)
(0.354754 -0.309805 0)
(0.364676 -0.281019 0)
(0.371798 -0.248561 0)
(0.376588 -0.21233 0)
(0.377933 -0.173252 0)
(0.375901 -0.132869 0)
(0.369898 -0.0914861 0)
(0.356827 -0.052199 0)
(0.335013 -0.0141566 0)
(0.306897 0.0193448 0)
(0.275418 0.045785 0)
(0.239467 0.0652091 0)
(0.199064 0.0787939 0)
(0.160195 0.0888975 0)
(0.123733 0.0956193 0)
(0.0878889 0.101489 0)
(0.0547471 0.10712 0)
(0.0270523 0.112734 0)
(0.00274652 0.116591 0)
(-0.015532 0.116453 0)
(-0.0259894 0.111108 0)
(-0.0313637 0.103104 0)
(-0.0364331 0.0981993 0)
(-0.0400161 0.0966167 0)
(-0.0431247 0.0982409 0)
(-0.0442261 0.101118 0)
(-0.0423465 0.103707 0)
(-0.037439 0.105422 0)
(-0.0295799 0.106487 0)
(-0.0188641 0.106939 0)
(-0.00477014 0.106904 0)
(0.274166 -0.351807 0)
(0.285464 -0.333165 0)
(0.294996 -0.307747 0)
(0.301825 -0.278241 0)
(0.306188 -0.243825 0)
(0.307403 -0.205911 0)
(0.304832 -0.165681 0)
(0.299195 -0.12359 0)
(0.289322 -0.0804428 0)
(0.271699 -0.0376677 0)
(0.246459 0.00307874 0)
(0.219183 0.0378206 0)
(0.190064 0.0643803 0)
(0.157829 0.0830654 0)
(0.124085 0.0955073 0)
(0.0937991 0.104703 0)
(0.0648708 0.110194 0)
(0.0358156 0.115005 0)
(0.00972103 0.119815 0)
(-0.0134174 0.124519 0)
(-0.0325507 0.125771 0)
(-0.0444695 0.122013 0)
(-0.0496121 0.113941 0)
(-0.0528665 0.106796 0)
(-0.0553529 0.102859 0)
(-0.0561091 0.101385 0)
(-0.0560717 0.101638 0)
(-0.0533203 0.101979 0)
(-0.0470994 0.101676 0)
(-0.0376086 0.100655 0)
(-0.0252966 0.0992271 0)
(-0.0100249 0.0972388 0)
(0.00888275 0.0948572 0)
(0.21921 -0.35024 0)
(0.226813 -0.328435 0)
(0.232642 -0.302511 0)
(0.235829 -0.271913 0)
(0.236214 -0.236614 0)
(0.233204 -0.198299 0)
(0.226439 -0.157294 0)
(0.216347 -0.113322 0)
(0.201255 -0.0673098 0)
(0.179115 -0.0219556 0)
(0.15395 0.0198122 0)
(0.130061 0.0536382 0)
(0.105348 0.0785391 0)
(0.0788987 0.0951714 0)
(0.0548932 0.106781 0)
(0.0332345 0.114295 0)
(0.0104103 0.119143 0)
(-0.0124831 0.12377 0)
(-0.0324925 0.128466 0)
(-0.0504881 0.130795 0)
(-0.0630073 0.12875 0)
(-0.0689469 0.121734 0)
(-0.070316 0.113196 0)
(-0.0715056 0.107217 0)
(-0.0711434 0.103706 0)
(-0.0689473 0.10169 0)
(-0.0648703 0.100129 0)
(-0.0573349 0.0981217 0)
(-0.0465353 0.0955769 0)
(-0.0330344 0.0925812 0)
(-0.0172998 0.0892392 0)
(0.00194546 0.0851385 0)
(0.0223713 0.0809231 0)
(0.162606 -0.343739 0)
(0.166666 -0.321247 0)
(0.168109 -0.294947 0)
(0.166955 -0.26321 0)
(0.16318 -0.226801 0)
(0.15569 -0.188286 0)
(0.143422 -0.145989 0)
(0.12743 -0.0984494 0)
(0.107697 -0.0501718 0)
(0.0855114 -0.00503595 0)
(0.0656391 0.0338115 0)
(0.0467158 0.0641308 0)
(0.0272304 0.0857071 0)
(0.0098499 0.101251 0)
(-0.00504723 0.111793 0)
(-0.0215945 0.118284 0)
(-0.0392543 0.123464 0)
(-0.0553503 0.128417 0)
(-0.0705636 0.13152 0)
(-0.082178 0.130632 0)
(-0.0884355 0.125282 0)
(-0.0890035 0.116979 0)
(-0.0885149 0.109367 0)
(-0.0872698 0.10412 0)
(-0.0839808 0.100347 0)
(-0.0785153 0.0972446 0)
(-0.0702963 0.093989 0)
(-0.0587921 0.0900331 0)
(-0.0445772 0.0854691 0)
(-0.0280372 0.0805554 0)
(-0.00910118 0.0752742 0)
(0.0117917 0.0699365 0)
(0.0318622 0.0654374 0)
(0.10573 -0.33408 0)
(0.105814 -0.311587 0)
(0.103033 -0.284598 0)
(0.0974185 -0.251158 0)
(0.0892362 -0.21339 0)
(0.0763383 -0.174414 0)
(0.0584867 -0.129762 0)
(0.0386923 -0.0814354 0)
(0.0195353 -0.0350554 0)
(0.00252156 0.00616995 0)
(-0.0122079 0.0404002 0)
(-0.0263449 0.067094 0)
(-0.0373862 0.0875225 0)
(-0.046899 0.102006 0)
(-0.0579711 0.111354 0)
(-0.0701832 0.118257 0)
(-0.0819268 0.124119 0)
(-0.0933436 0.12774 0)
(-0.102946 0.127811 0)
(-0.108123 0.123998 0)
(-0.108521 0.116796 0)
(-0.10653 0.108953 0)
(-0.104155 0.102406 0)
(-0.100282 0.0973463 0)
(-0.0941595 0.092841 0)
(-0.0855937 0.0883515 0)
(-0.07398 0.0833788 0)
(-0.0595103 0.0777527 0)
(-0.0428082 0.071797 0)
(-0.0243317 0.066 0)
(-0.00431023 0.060215 0)
(0.0145809 0.0556383 0)
(0.0323321 0.0515819 0)
(0.0499001 -0.321499 0)
(0.0459593 -0.298799 0)
(0.0391303 -0.271068 0)
(0.0294454 -0.236241 0)
(0.0171451 -0.197132 0)
(-0.000261647 -0.156956 0)
(-0.0197037 -0.111358 0)
(-0.0375117 -0.0674089 0)
(-0.0528326 -0.0266585 0)
(-0.0655683 0.0097203 0)
(-0.075353 0.0409898 0)
(-0.082575 0.0662703 0)
(-0.0889159 0.084927 0)
(-0.0960325 0.0979113 0)
(-0.103774 0.107819 0)
(-0.111374 0.115449 0)
(-0.118908 0.120121 0)
(-0.125595 0.120972 0)
(-0.129036 0.118116 0)
(-0.128847 0.112337 0)
(-0.125549 0.105166 0)
(-0.122026 0.0983656 0)
(-0.117519 0.0925282 0)
(-0.111175 0.0870812 0)
(-0.102567 0.0815954 0)
(-0.0913803 0.0758435 0)
(-0.0774682 0.0698279 0)
(-0.0614782 0.063685 0)
(-0.0444272 0.0574464 0)
(-0.0276923 0.0518108 0)
(-0.0111389 0.0467304 0)
(0.00590151 0.0416155 0)
(0.023035 0.0363447 0)
(-0.00347669 -0.306385 0)
(-0.0118702 -0.283255 0)
(-0.0217001 -0.254747 0)
(-0.0339349 -0.219322 0)
(-0.047873 -0.179561 0)
(-0.0645983 -0.138884 0)
(-0.0811904 -0.0981048 0)
(-0.0954511 -0.0585516 0)
(-0.107798 -0.0212455 0)
(-0.116843 0.0123586 0)
(-0.123337 0.0402923 0)
(-0.128731 0.0622694 0)
(-0.133506 0.0791888 0)
(-0.138097 0.0924275 0)
(-0.142277 0.102501 0)
(-0.14642 0.108725 0)
(-0.150063 0.110761 0)
(-0.151347 0.108941 0)
(-0.149837 0.10421 0)
(-0.145661 0.0979778 0)
(-0.141066 0.0915002 0)
(-0.135967 0.0853276 0)
(-0.129815 0.0793769 0)
(-0.121652 0.0734199 0)
(-0.111234 0.0675993 0)
(-0.0988759 0.0616592 0)
(-0.0852125 0.0555771 0)
(-0.0716068 0.0495038 0)
(-0.0576709 0.0434462 0)
(-0.0424933 0.0372921 0)
(-0.0258559 0.0308975 0)
(-0.00849501 0.0252535 0)
(0.0110248 0.0202831 0)
(-0.0533867 -0.290394 0)
(-0.0646868 -0.266355 0)
(-0.0758077 -0.238046 0)
(-0.0890598 -0.204121 0)
(-0.103243 -0.166365 0)
(-0.117647 -0.127637 0)
(-0.130419 -0.0887938 0)
(-0.141539 -0.0520054 0)
(-0.151425 -0.0184809 0)
(-0.158898 0.0111408 0)
(-0.164391 0.0359182 0)
(-0.168388 0.05656 0)
(-0.171188 0.0732023 0)
(-0.172984 0.0857443 0)
(-0.174583 0.0937303 0)
(-0.175395 0.0975597 0)
(-0.174334 0.0973031 0)
(-0.171209 0.0935944 0)
(-0.166556 0.0878959 0)
(-0.160994 0.0818714 0)
(-0.155414 0.0757737 0)
(-0.149313 0.0697628 0)
(-0.142042 0.063892 0)
(-0.133313 0.0582863 0)
(-0.12381 0.0529145 0)
(-0.114059 0.0472003 0)
(-0.103052 0.0409072 0)
(-0.0901576 0.0341101 0)
(-0.0756065 0.0272483 0)
(-0.0592107 0.020585 0)
(-0.0413173 0.0138071 0)
(-0.0234275 0.00743992 0)
(-0.00593286 0.00308987 0)
(-0.0977327 -0.274079 0)
(-0.110427 -0.248872 0)
(-0.122509 -0.221286 0)
(-0.135738 -0.189288 0)
(-0.149622 -0.15425 0)
(-0.16248 -0.118246 0)
(-0.172817 -0.0825772 0)
(-0.181594 -0.0490652 0)
(-0.189349 -0.0185721 0)
(-0.195288 0.00843877 0)
(-0.199202 0.0316682 0)
(-0.20112 0.0509626 0)
(-0.201874 0.0658234 0)
(-0.201937 0.0756419 0)
(-0.200414 0.0816578 0)
(-0.197291 0.0833295 0)
(-0.192669 0.0811441 0)
(-0.187 0.076361 0)
(-0.18074 0.0706798 0)
(-0.174686 0.0649494 0)
(-0.16882 0.0594443 0)
(-0.162713 0.0541284 0)
(-0.156503 0.049113 0)
(-0.150227 0.04377 0)
(-0.142861 0.0379534 0)
(-0.133559 0.0316565 0)
(-0.12197 0.0247749 0)
(-0.108346 0.0175032 0)
(-0.0930618 0.0100984 0)
(-0.0778441 0.00333459 0)
(-0.0635406 -0.00138044 0)
(-0.0492816 -0.00369977 0)
(-0.0342878 -0.00486742 0)
(-0.136137 -0.256929 0)
(-0.149055 -0.232494 0)
(-0.161664 -0.205458 0)
(-0.174309 -0.175459 0)
(-0.187421 -0.143283 0)
(-0.198889 -0.110096 0)
(-0.207834 -0.0772871 0)
(-0.215183 -0.046646 0)
(-0.221158 -0.0187667 0)
(-0.225118 0.00595028 0)
(-0.227164 0.0266834 0)
(-0.227579 0.0430828 0)
(-0.22674 0.0551693 0)
(-0.224004 0.0635672 0)
(-0.219437 0.0674668 0)
(-0.213573 0.0672404 0)
(-0.206869 0.0639679 0)
(-0.199945 0.0592773 0)
(-0.193594 0.0542228 0)
(-0.187948 0.0493191 0)
(-0.183248 0.0446369 0)
(-0.179179 0.0396387 0)
(-0.17477 0.0345131 0)
(-0.169078 0.0289782 0)
(-0.161337 0.022504 0)
(-0.151659 0.0155959 0)
(-0.140785 0.008222 0)
(-0.12997 0.00179236 0)
(-0.119258 -0.00212309 0)
(-0.107969 -0.00542253 0)
(-0.0958587 -0.00876952 0)
(-0.0836367 -0.0125933 0)
(-0.0699319 -0.0165404 0)
(-0.168715 -0.239523 0)
(-0.181593 -0.217403 0)
(-0.193608 -0.191009 0)
(-0.205438 -0.163083 0)
(-0.217359 -0.133335 0)
(-0.227352 -0.102773 0)
(-0.235005 -0.0728648 0)
(-0.241193 -0.045303 0)
(-0.24559 -0.0205955 0)
(-0.248232 0.000899642 0)
(-0.249279 0.0189674 0)
(-0.248167 0.0335593 0)
(-0.244937 0.0440885 0)
(-0.239873 0.0503398 0)
(-0.233404 0.0523908 0)
(-0.226148 0.0512434 0)
(-0.218773 0.0480763 0)
(-0.212102 0.0439915 0)
(-0.206898 0.0397516 0)
(-0.203078 0.0349736 0)
(-0.20006 0.0301787 0)
(-0.196846 0.0253896 0)
(-0.192593 0.0199138 0)
(-0.187197 0.0140741 0)
(-0.180829 0.0075998 0)
(-0.174756 0.00272019 0)
(-0.168896 -0.00101431 0)
(-0.16201 -0.00523756 0)
(-0.154847 -0.0104841 0)
(-0.145713 -0.0167912 0)
(-0.133088 -0.0231159 0)
(-0.118502 -0.0285613 0)
(-0.102867 -0.0323972 0)
(-0.195522 -0.222691 0)
(-0.2082 -0.202857 0)
(-0.219922 -0.179057 0)
(-0.230699 -0.153271 0)
(-0.240774 -0.126335 0)
(-0.24937 -0.0986521 0)
(-0.256095 -0.0719222 0)
(-0.26145 -0.0470461 0)
(-0.264995 -0.0242675 0)
(-0.266315 -0.00435839 0)
(-0.265689 0.01188 0)
(-0.262892 0.0243487 0)
(-0.258057 0.0327423 0)
(-0.251749 0.0372237 0)
(-0.244528 0.0384593 0)
(-0.237169 0.0372137 0)
(-0.230574 0.0345249 0)
(-0.225412 0.0303847 0)
(-0.222005 0.025841 0)
(-0.219519 0.0216355 0)
(-0.217189 0.0169487 0)
(-0.21482 0.0121256 0)
(-0.212374 0.00702078 0)
(-0.210718 0.00354091 0)
(-0.208969 0.000256977 0)
(-0.207416 -0.00380492 0)
(-0.206052 -0.00904467 0)
(-0.200674 -0.0162171 0)
(-0.190922 -0.0244643 0)
(-0.178656 -0.0319226 0)
(-0.164826 -0.0385782 0)
(-0.15042 -0.0436166 0)
(-0.135669 -0.0466539 0)
(-0.217259 -0.206486 0)
(-0.229996 -0.188782 0)
(-0.24135 -0.167407 0)
(-0.251315 -0.143596 0)
(-0.259866 -0.11871 0)
(-0.267025 -0.0933887 0)
(-0.272777 -0.0689439 0)
(-0.276907 -0.0462141 0)
(-0.27919 -0.025946 0)
(-0.279415 -0.00862466 0)
(-0.277567 0.00529431 0)
(-0.273735 0.0157116 0)
(-0.268262 0.0224609 0)
(-0.261755 0.0259082 0)
(-0.255039 0.026566 0)
(-0.248895 0.0249808 0)
(-0.244179 0.0217982 0)
(-0.240741 0.0184203 0)
(-0.238521 0.0146404 0)
(-0.237467 0.0109471 0)
(-0.237407 0.00722257 0)
(-0.238578 0.00449032 0)
(-0.239736 0.0016417 0)
(-0.242174 -0.00190717 0)
(-0.245184 -0.00595419 0)
(-0.24411 -0.0128718 0)
(-0.239054 -0.0209485 0)
(-0.231188 -0.0292844 0)
(-0.221444 -0.0376205 0)
(-0.210729 -0.0455602 0)
(-0.198973 -0.0525993 0)
(-0.185939 -0.0571278 0)
(-0.171937 -0.0592551 0)
(-0.234209 -0.190728 0)
(-0.246891 -0.175533 0)
(-0.258128 -0.156544 0)
(-0.267709 -0.135024 0)
(-0.275373 -0.11214 0)
(-0.281308 -0.089048 0)
(-0.285924 -0.0668356 0)
(-0.289003 -0.046328 0)
(-0.290213 -0.0281677 0)
(-0.289464 -0.0128596 0)
(-0.286959 -0.000714509 0)
(-0.28301 0.00804786 0)
(-0.277967 0.013479 0)
(-0.27247 0.0159051 0)
(-0.267172 0.0160033 0)
(-0.262698 0.014699 0)
(-0.259452 0.0124955 0)
(-0.257643 0.0100034 0)
(-0.257385 0.0074429 0)
(-0.25876 0.00528992 0)
(-0.261017 0.00331809 0)
(-0.265056 0.000457857 0)
(-0.27062 -0.00252397 0)
(-0.274302 -0.00797881 0)
(-0.275014 -0.0144984 0)
(-0.273012 -0.0220518 0)
(-0.268973 -0.0306601 0)
(-0.26341 -0.0408425 0)
(-0.256564 -0.0504975 0)
(-0.247919 -0.0584058 0)
(-0.236357 -0.0646926 0)
(-0.222777 -0.0688985 0)
(-0.208389 -0.0708467 0)
(-0.246514 -0.174875 0)
(-0.25916 -0.162518 0)
(-0.270234 -0.146198 0)
(-0.279526 -0.127054 0)
(-0.286874 -0.106375 0)
(-0.292446 -0.0855392 0)
(-0.296476 -0.0654941 0)
(-0.298876 -0.046947 0)
(-0.299586 -0.0306544 0)
(-0.298651 -0.0170392 0)
(-0.296292 -0.00639556 0)
(-0.292875 0.00126086 0)
(-0.288821 0.00609813 0)
(-0.284667 0.00851586 0)
(-0.280968 0.00908425 0)
(-0.278264 0.00846827 0)
(-0.276932 0.00729759 0)
(-0.277117 0.00579425 0)
(-0.278757 0.00455138 0)
(-0.282215 0.00246532 0)
(-0.28799 0.000342993 0)
(-0.29433 -0.00308247 0)
(-0.299528 -0.00735687 0)
(-0.30322 -0.0128367 0)
(-0.304996 -0.0202012 0)
(-0.305079 -0.0301392 0)
(-0.304328 -0.0415188 0)
(-0.30052 -0.0518593 0)
(-0.292698 -0.0613495 0)
(-0.283635 -0.0692263 0)
(-0.273548 -0.0752174 0)
(-0.261348 -0.0791542 0)
(-0.247126 -0.0803618 0)
(-0.254174 -0.15871 0)
(-0.26691 -0.149029 0)
(-0.277924 -0.135436 0)
(-0.28713 -0.118872 0)
(-0.294475 -0.100497 0)
(-0.300076 -0.0816153 0)
(-0.304071 -0.0633047 0)
(-0.30654 -0.0463958 0)
(-0.307486 -0.0315428 0)
(-0.307033 -0.0191559 0)
(-0.305488 -0.0094592 0)
(-0.30321 -0.00238476 0)
(-0.300647 0.00229448 0)
(-0.298305 0.00494849 0)
(-0.296597 0.00605955 0)
(-0.295847 0.00615773 0)
(-0.29652 0.00603419 0)
(-0.298523 0.00488199 0)
(-0.302838 0.00347073 0)
(-0.309184 0.00175271 0)
(-0.316167 -0.0008036 0)
(-0.323172 -0.00396316 0)
(-0.329261 -0.00882575 0)
(-0.33424 -0.0162095 0)
(-0.338535 -0.0277145 0)
(-0.340453 -0.0387585 0)
(-0.338189 -0.0495431 0)
(-0.334163 -0.0593368 0)
(-0.32941 -0.0689531 0)
(-0.322244 -0.0778441 0)
(-0.312201 -0.0844901 0)
(-0.300213 -0.089283 0)
(-0.287943 -0.0921094 0)
(-0.257074 -0.142135 0)
(-0.270222 -0.134945 0)
(-0.281516 -0.123835 0)
(-0.290959 -0.109715 0)
(-0.298624 -0.0935736 0)
(-0.304669 -0.0766304 0)
(-0.309203 -0.0599551 0)
(-0.312299 -0.0444087 0)
(-0.3141 -0.0306206 0)
(-0.314801 -0.0190385 0)
(-0.3147 -0.00981417 0)
(-0.314151 -0.0028921 0)
(-0.313569 0.00192788 0)
(-0.313362 0.00495784 0)
(-0.31387 0.0067358 0)
(-0.315043 0.00736111 0)
(-0.318143 0.00719439 0)
(-0.32322 0.0068026 0)
(-0.329482 0.00552466 0)
(-0.336922 0.00388397 0)
(-0.344688 0.00101762 0)
(-0.352058 -0.00337889 0)
(-0.359167 -0.0113387 0)
(-0.366838 -0.0218747 0)
(-0.370468 -0.0326871 0)
(-0.370581 -0.0430471 0)
(-0.370939 -0.0539855 0)
(-0.369639 -0.0657663 0)
(-0.36569 -0.0770278 0)
(-0.359317 -0.0873521 0)
(-0.351295 -0.095857 0)
(-0.341968 -0.103851 0)
(-0.330945 -0.108934 0)
(-0.255497 -0.124877 0)
(-0.269298 -0.120145 0)
(-0.281227 -0.111338 0)
(-0.291295 -0.0993849 0)
(-0.299672 -0.0852096 0)
(-0.306612 -0.0700073 0)
(-0.312193 -0.0547246 0)
(-0.31652 -0.0402789 0)
(-0.319766 -0.027291 0)
(-0.322163 -0.0161941 0)
(-0.324011 -0.00718379 0)
(-0.325683 -0.00024148 0)
(-0.327542 0.0047819 0)
(-0.329747 0.00832586 0)
(-0.332763 0.0105941 0)
(-0.336909 0.0119077 0)
(-0.34225 0.0120745 0)
(-0.348667 0.0118378 0)
(-0.355856 0.0106183 0)
(-0.363539 0.00802627 0)
(-0.3712 0.00376348 0)
(-0.379869 -0.00414359 0)
(-0.388398 -0.0138164 0)
(-0.393853 -0.0241587 0)
(-0.397335 -0.0341287 0)
(-0.400325 -0.0465237 0)
(-0.402022 -0.0595705 0)
(-0.401696 -0.0726333 0)
(-0.399138 -0.0859957 0)
(-0.393256 -0.0982265 0)
(-0.386136 -0.108552 0)
(-0.378563 -0.116858 0)
(-0.368825 -0.120736 0)
(-0.250177 -0.106498 0)
(-0.26495 -0.104229 0)
(-0.277833 -0.097654 0)
(-0.288782 -0.0875494 0)
(-0.298172 -0.0750835 0)
(-0.306343 -0.0613198 0)
(-0.313387 -0.0471928 0)
(-0.319455 -0.0336232 0)
(-0.32471 -0.0212605 0)
(-0.329434 -0.0105222 0)
(-0.333951 -0.00155414 0)
(-0.338421 0.00567159 0)
(-0.34292 0.0113625 0)
(-0.347927 0.015591 0)
(-0.353716 0.0183269 0)
(-0.359973 0.0198514 0)
(-0.366544 0.020126 0)
(-0.373373 0.0191157 0)
(-0.380498 0.0165518 0)
(-0.387764 0.0119995 0)
(-0.396591 0.0046197 0)
(-0.405316 -0.00479289 0)
(-0.411593 -0.0142589 0)
(-0.416841 -0.024867 0)
(-0.421741 -0.0373737 0)
(-0.425596 -0.0509601 0)
(-0.427834 -0.0649476 0)
(-0.428445 -0.0793739 0)
(-0.426228 -0.0935575 0)
(-0.421257 -0.106519 0)
(-0.416479 -0.117539 0)
(-0.411052 -0.125548 0)
(-0.403495 -0.129047 0)
(-0.242788 -0.0867986 0)
(-0.25855 -0.0867042 0)
(-0.272492 -0.0822863 0)
(-0.284778 -0.0740919 0)
(-0.295625 -0.0632105 0)
(-0.305332 -0.050635 0)
(-0.314205 -0.037408 0)
(-0.322482 -0.0243826 0)
(-0.330327 -0.0122038 0)
(-0.337926 -0.00124432 0)
(-0.345307 0.00815856 0)
(-0.352589 0.0159734 0)
(-0.360044 0.0221075 0)
(-0.367659 0.026533 0)
(-0.375181 0.0293301 0)
(-0.38241 0.0304806 0)
(-0.389242 0.0297409 0)
(-0.395701 0.0270764 0)
(-0.402193 0.0223824 0)
(-0.409942 0.0154416 0)
(-0.417965 0.00598874 0)
(-0.424174 -0.00330537 0)
(-0.429615 -0.0140296 0)
(-0.435526 -0.026533 0)
(-0.440845 -0.0404511 0)
(-0.444876 -0.0549533 0)
(-0.44765 -0.0697578 0)
(-0.448947 -0.0845226 0)
(-0.448083 -0.0987133 0)
(-0.444727 -0.112491 0)
(-0.441679 -0.123609 0)
(-0.438971 -0.130711 0)
(-0.434287 -0.133772 0)
(-0.236147 -0.0659669 0)
(-0.252667 -0.0676519 0)
(-0.267536 -0.0650866 0)
(-0.281073 -0.0584512 0)
(-0.293542 -0.0486773 0)
(-0.305219 -0.0368807 0)
(-0.316381 -0.0241451 0)
(-0.327245 -0.0113025 0)
(-0.337982 0.00109259 0)
(-0.348423 0.0121922 0)
(-0.358566 0.0218255 0)
(-0.368555 0.0298742 0)
(-0.378223 0.0360259 0)
(-0.387364 0.0402462 0)
(-0.395808 0.0423263 0)
(-0.403334 0.0420836 0)
(-0.409777 0.0395493 0)
(-0.415593 0.0348207 0)
(-0.421708 0.027775 0)
(-0.428508 0.0184177 0)
(-0.434269 0.00861976 0)
(-0.438921 -0.00243666 0)
(-0.444259 -0.0151684 0)
(-0.450101 -0.0291087 0)
(-0.455262 -0.0440692 0)
(-0.459021 -0.0591029 0)
(-0.461748 -0.0739115 0)
(-0.46356 -0.0884095 0)
(-0.464206 -0.102132 0)
(-0.462793 -0.115105 0)
(-0.461217 -0.126613 0)
(-0.461027 -0.132887 0)
(-0.459355 -0.13503 0)
(-0.232938 -0.0451123 0)
(-0.249726 -0.0477505 0)
(-0.265176 -0.0464087 0)
(-0.279842 -0.0409097 0)
(-0.293985 -0.0319129 0)
(-0.30779 -0.02053 0)
(-0.321454 -0.00778202 0)
(-0.335015 0.00534395 0)
(-0.348207 0.0176592 0)
(-0.361015 0.0288578 0)
(-0.373299 0.0385342 0)
(-0.385071 0.0463999 0)
(-0.396122 0.0520616 0)
(-0.406095 0.055298 0)
(-0.41473 0.0560244 0)
(-0.421869 0.0540941 0)
(-0.427594 0.0495274 0)
(-0.432546 0.0424566 0)
(-0.437791 0.0331104 0)
(-0.442492 0.0221827 0)
(-0.446394 0.0105278 0)
(-0.450318 -0.00291781 0)
(-0.454575 -0.0173884 0)
(-0.459562 -0.0328647 0)
(-0.463578 -0.0482487 0)
(-0.46611 -0.0632938 0)
(-0.468569 -0.0775969 0)
(-0.470934 -0.0911447 0)
(-0.472879 -0.103605 0)
(-0.474222 -0.115029 0)
(-0.474434 -0.125727 0)
(-0.475614 -0.131855 0)
(-0.477168 -0.132802 0)
(-0.234213 -0.0250158 0)
(-0.250569 -0.0275373 0)
(-0.266624 -0.026562 0)
(-0.282462 -0.0214819 0)
(-0.298347 -0.0126386 0)
(-0.314278 -0.000940804 0)
(-0.329992 0.0118727 0)
(-0.345259 0.0247355 0)
(-0.360187 0.0369711 0)
(-0.374667 0.0479598 0)
(-0.388338 0.057225 0)
(-0.401182 0.0645022 0)
(-0.412878 0.0692638 0)
(-0.422921 0.0712755 0)
(-0.431191 0.0703758 0)
(-0.437572 0.0664434 0)
(-0.442223 0.0596004 0)
(-0.445893 0.050232 0)
(-0.449129 0.0385123 0)
(-0.451531 0.0253761 0)
(-0.453149 0.010782 0)
(-0.454558 -0.00557006 0)
(-0.456877 -0.0231315 0)
(-0.459833 -0.0398773 0)
(-0.462025 -0.0550893 0)
(-0.463763 -0.0691439 0)
(-0.465977 -0.0817513 0)
(-0.468877 -0.0928151 0)
(-0.4723 -0.102923 0)
(-0.476274 -0.1122 0)
(-0.479275 -0.120522 0)
(-0.482195 -0.12697 0)
(-0.486534 -0.12757 0)
(-0.240562 -0.00505505 0)
(-0.255809 -0.00663858 0)
(-0.27246 -0.00510196 0)
(-0.289295 0.000414424 0)
(-0.306376 0.00949969 0)
(-0.32346 0.0207472 0)
(-0.340222 0.0333158 0)
(-0.35669 0.0460227 0)
(-0.372825 0.0579459 0)
(-0.38822 0.0684935 0)
(-0.402443 0.0771822 0)
(-0.415498 0.0835709 0)
(-0.427046 0.0870491 0)
(-0.436439 0.0873901 0)
(-0.443583 0.0843757 0)
(-0.44837 0.0780145 0)
(-0.450847 0.0685747 0)
(-0.452034 0.056414 0)
(-0.452521 0.0415772 0)
(-0.451744 0.024939 0)
(-0.450978 0.00694056 0)
(-0.450988 -0.0115196 0)
(-0.450508 -0.0296351 0)
(-0.449923 -0.0462583 0)
(-0.450008 -0.0610319 0)
(-0.450817 -0.0735417 0)
(-0.452835 -0.0841372 0)
(-0.456498 -0.0928358 0)
(-0.461837 -0.100056 0)
(-0.468337 -0.106115 0)
(-0.474949 -0.11148 0)
(-0.480503 -0.116924 0)
(-0.486689 -0.119028 0)
(-0.250836 0.0143536 0)
(-0.264918 0.0143903 0)
(-0.281641 0.0169508 0)
(-0.298718 0.0229515 0)
(-0.316243 0.032087 0)
(-0.33377 0.0434805 0)
(-0.351107 0.0559924 0)
(-0.368207 0.0683455 0)
(-0.384693 0.0798096 0)
(-0.400187 0.0897291 0)
(-0.41422 0.0976198 0)
(-0.426885 0.102581 0)
(-0.43765 0.104306 0)
(-0.445757 0.102478 0)
(-0.451101 0.0969793 0)
(-0.45352 0.0880447 0)
(-0.453398 0.0755881 0)
(-0.452217 0.0594234 0)
(-0.450396 0.0415662 0)
(-0.447569 0.0232769 0)
(-0.443821 0.0037213 0)
(-0.439628 -0.0161394 0)
(-0.436107 -0.0346913 0)
(-0.434019 -0.0513898 0)
(-0.433011 -0.06511 0)
(-0.433342 -0.075589 0)
(-0.435458 -0.0836052 0)
(-0.439188 -0.0897889 0)
(-0.444618 -0.09435 0)
(-0.452103 -0.0976007 0)
(-0.461404 -0.100107 0)
(-0.470782 -0.102729 0)
(-0.478887 -0.105249 0)
(-0.2632 0.0327165 0)
(-0.276154 0.0346769 0)
(-0.292514 0.0387304 0)
(-0.309466 0.0457398 0)