/*--------------------------------*- C++ -*----------------------------------*\
  =========                 |
  \\      /  F ield         | OpenFOAM: The Open Source CFD Toolbox
   \\    /   O peration     | Website:  https://openfoam.org
    \\  /    A nd           | Version:  11
     \\/     M anipulation  |
\*---------------------------------------------------------------------------*/
FoamFile
{
    format      ascii;
    class       volScalarField;
    location    "3.5";
    object      mag(U);
}
// * * * * * * * * * * * * * * * * * * * * * * * * * * * * * * * * * * * * * //

dimensions      [0 1 -1 0 0 0 0];

internalField   nonuniform List<scalar> 
9600
(
0.972417
0.972263
0.97074
0.963098
0.95418
0.950908
0.951936
0.946953
0.913529
0.858496
0.827126
0.818909
0.8218
0.835365
0.872402
0.90732
0.9424
0.977999
1.0117
1.0505
1.08582
1.11509
1.14653
1.16783
1.17035
1.16595
1.15565
1.13616
1.10732
1.07646
1.04801
1.02376
1.00454
0.990824
0.981403
0.975213
0.969867
0.966024
0.964137
0.959109
0.975347
0.974314
0.972539
0.970253
0.966362
0.962996
0.960336
0.955537
0.942504
0.924686
0.911039
0.906028
0.907263
0.916868
0.944187
0.973467
1.00089
1.02722
1.05468
1.08582
1.11586
1.14268
1.16996
1.19095
1.1965
1.19483
1.18679
1.16581
1.13935
1.10855
1.08084
1.05275
1.03126
1.01202
0.997804
0.986563
0.97792
0.973676
0.971677
0.966661
0.974671
0.97366
0.971935
0.970292
0.966186
0.960396
0.958945
0.958177
0.952637
0.939267
0.918377
0.908898
0.910627
0.925129
0.947728
0.971102
0.995706
1.02276
1.05154
1.08074
1.11367
1.14362
1.16758
1.19022
1.20204
1.20173
1.19531
1.17791
1.15027
1.12159
1.09409
1.06707
1.0479
1.03061
1.01833
1.01065
1.00545
0.999218
0.996499
0.991678
0.973916
0.972836
0.971065
0.968583
0.963903
0.960657
0.960064
0.958619
0.955631
0.951293
0.941531
0.93753
0.942267
0.958621
0.979626
0.999819
1.02123
1.04158
1.06351
1.08894
1.11665
1.14357
1.16716
1.18803
1.20086
1.20171
1.19472
1.17619
1.15227
1.12551
1.09785
1.07137
1.04879
1.02961
1.01324
1.00042
0.987149
0.980207
0.974931
0.973906
0.973068
0.9719
0.96977
0.967317
0.964361
0.961007
0.958478
0.959051
0.962724
0.965276
0.963523
0.956666
0.955113
0.962033
0.974479
0.991014
1.01271
1.03617
1.06246
1.0883
1.11564
1.14482
1.16881
1.18616
1.2008
1.20562
1.20096
1.18571
1.16036
1.13384
1.10537
1.0791
1.05697
1.03726
1.02414
1.0135
1.00789
1.00092
0.997944
0.992105
0.972069
0.970837
0.968672
0.966623
0.963665
0.960074
0.958681
0.961814
0.967111
0.969819
0.967234
0.962512
0.965644
0.977768
0.995227
1.0141
1.0339
1.05315
1.07407
1.09586
1.12067
1.1459
1.16922
1.18769
1.20218
1.20809
1.20321
1.18726
1.16506
1.13922
1.11183
1.08476
1.06168
1.04153
1.02539
1.01171
0.997451
0.988523
0.980966
0.97758
0.971214
0.969981
0.967919
0.965822
0.962752
0.959943
0.959825
0.964237
0.97071
0.973474
0.972776
0.972678
0.97744
0.985544
0.994699
1.00723
1.02531
1.04555
1.0703
1.09538
1.12077
1.1463
1.17161
1.18858
1.20049
1.20887
1.20854
1.19547
1.17308
1.14724
1.11937
1.09239
1.06815
1.04709
1.03237
1.01918
1.01182
1.00391
1.00049
0.992912
0.970356
0.969176
0.967189
0.96483
0.962048
0.960512
0.961289
0.966264
0.973304
0.9756
0.974761
0.976414
0.981363
0.990976
1.00515
1.02204
1.04088
1.05934
1.08089
1.10181
1.12551
1.14935
1.17201
1.19072
1.20537
1.21395
1.21205
1.19957
1.17883
1.15454
1.12723
1.09897
1.07461
1.05214
1.03506
1.02096
1.00727
0.997124
0.988107
0.98164
0.969668
0.968505
0.966428
0.963951
0.961789
0.961248
0.962622
0.968456
0.974718
0.976167
0.976107
0.978743
0.985377
0.995837
1.00866
1.02198
1.03902
1.05702
1.07913
1.10243
1.12551
1.14959
1.17357
1.19351
1.20413
1.21343
1.21619
1.20672
1.1874
1.16255
1.13561
1.10904
1.08315
1.05971
1.04278
1.02724
1.01738
1.00737
1.00357
0.995017
0.968732
0.967636
0.965481
0.963084
0.961872
0.962003
0.963821
0.969704
0.975476
0.977536
0.978423
0.980936
0.985585
0.994206
1.00937
1.02762
1.04758
1.06607
1.08789
1.10886
1.12989
1.15359
1.1749
1.1946
1.20981
1.22035
1.2222
1.21256
1.1955
1.17142
1.14392
1.11601
1.08953
1.06533
1.04599
1.02945
1.0159
1.00553
0.996491
0.986476
0.967931
0.966892
0.964613
0.962674
0.962241
0.962595
0.96479
0.970816
0.976064
0.978929
0.978392
0.980471
0.987127
0.996731
1.0118
1.02857
1.04812
1.0669
1.0886
1.11139
1.13192
1.15425
1.17648
1.19837
1.21123
1.22034
1.22504
1.22009
1.20352
1.18142
1.15392
1.12663
1.09993
1.07445
1.05518
1.03669
1.02519
1.01276
1.00697
0.997658
0.966946
0.965966
0.963694
0.96239
0.962334
0.962955
0.965862
0.971623
0.97658
0.978908
0.978841
0.981752
0.988632
0.995558
1.00833
1.02751
1.05077
1.07285
1.09507
1.11825
1.13843
1.16027
1.18106
1.19991
1.2154
1.22838
1.23333
1.22814
1.21393
1.19162
1.16428
1.13601
1.10813
1.08215
1.06044
1.04072
1.02619
1.01293
1.00491
0.992469
0.96624
0.965281
0.963162
0.962375
0.962426
0.963296
0.966531
0.972611
0.975797
0.978653
0.980156
0.981766
0.987064
0.994764
1.00852
1.02732
1.0498
1.07304
1.09543
1.12052
1.1423
1.16285
1.18285
1.20414
1.22095
1.23079
1.23673
1.23599
1.22231
1.20295
1.17615
1.14753
1.11989
1.09229
1.06993
1.04826
1.03454
1.02011
1.01214
1.00108
0.965348
0.964461
0.962473
0.962134
0.962267
0.96341
0.967358
0.972675
0.975418
0.978523
0.97994
0.981357
0.987578
0.995788
1.0062
1.02273
1.04531
1.07151
1.09761
1.12494
1.14792
1.17037
1.1919
1.20863
1.22579
1.23875
1.24602
1.24563
1.23454
1.21555
1.1896
1.15996
1.13033
1.1019
1.0785
1.05572
1.03936
1.02284
1.01282
1.00028
0.964712
0.963825
0.962094
0.961946
0.962097
0.963508
0.967517
0.972279
0.974533
0.977197
0.979077
0.982032
0.987557
0.994075
1.0032
1.02085
1.04241
1.07026
1.0961
1.12236
1.15013
1.17358
1.19429
1.21439
1.23282
1.24574
1.25221
1.25361
1.24457
1.22758
1.20282
1.1728
1.14274
1.11341
1.08828
1.06342
1.04678
1.03014
1.01962
1.00741
0.963733
0.962879
0.961394
0.961286
0.961379
0.962929
0.966605
0.970811
0.973393
0.975346
0.978895
0.981803
0.987227
0.995803
1.00513
1.01964
1.03931
1.06377
1.09155
1.12036
1.14852
1.17557
1.20024
1.22212
1.23999
1.25526
1.26417
1.26585
1.25846
1.24279
1.21885
1.18988
1.15902
1.12739
1.10019
1.0745
1.05489
1.0362
1.02354
1.00898
0.963036
0.962292
0.961038
0.960949
0.961112
0.962553
0.966026
0.970186
0.97286
0.974489
0.977673
0.981316
0.988085
0.996262
1.00583
1.01973
1.03631
1.06039
1.08828
1.11498
1.14389
1.1728
1.19824
1.22372
1.24501
1.26307
1.27367
1.27761
1.27156
1.25748
1.2342
1.20479
1.17287
1.14068
1.11231
1.08438
1.06273
1.04369
1.03019
1.0158
0.961994
0.961393
0.960093
0.959582
0.960421
0.961585
0.964047
0.968577
0.972274
0.972364
0.974148
0.979767
0.986831
0.994094
1.00483
1.01887
1.03671
1.05644
1.08018
1.10874
1.13658
1.16511
1.19413
1.22413
1.24794
1.2695
1.28511
1.29288
1.28929
1.27819
1.25648
1.22627
1.19356
1.15983
1.12768
1.09881
1.07447
1.05342
1.03714
1.02033
0.961597
0.960843
0.959644
0.958974
0.959796
0.962177
0.964587
0.96825
0.97242
0.971738
0.972932
0.9764
0.984733
0.993006
1.00324
1.01845
1.03565
1.05486
1.07695
1.10271
1.12898
1.15765
1.18467
1.21568
1.24354
1.27129
1.29155
1.30614
1.30597
1.29743
1.27729
1.24945
1.21442
1.17939
1.14541
1.11493
1.08759
1.06366
1.04683
1.02777
0.960634
0.959537
0.958376
0.957394
0.957799
0.960021
0.963627
0.965622
0.969145
0.970559
0.971268
0.97389
0.981343
0.991858
1.00359
1.01739
1.03443
1.05602
1.07618
1.09978
1.1235
1.14994
1.17415
1.20516
1.23438
1.26603
1.29155
1.31552
1.32385
1.32073
1.30244
1.2771
1.24075
1.20389
1.16741
1.13352
1.10425
1.07757
1.05841
1.03697
0.96
0.958895
0.95797
0.957296
0.957544
0.959029
0.963963
0.965815
0.968124
0.969223
0.97215
0.975003
0.980251
0.99051
1.00233
1.01883
1.03511
1.05568
1.07629
1.10045
1.1202
1.14637
1.16856
1.19709
1.22283
1.25651
1.28408
1.315
1.33274
1.34236
1.32931
1.30752
1.27149
1.23298
1.19193
1.15492
1.12372
1.0929
1.07222
1.04712
0.958268
0.957203
0.955829
0.954598
0.955869
0.955987
0.959258
0.961677
0.963705
0.964658
0.968026
0.974536
0.980259
0.989936
1.00151
1.01941
1.03528
1.05734
1.07622
1.10202
1.12106
1.14597
1.16503
1.19269
1.21601
1.24804
1.27518
1.30844
1.33209
1.35341
1.35443
1.34042
1.30808
1.26838
1.22541
1.18222
1.14632
1.11189
1.09025
1.06145
0.957486
0.956466
0.955048
0.953636
0.955386
0.955957
0.958194
0.959017
0.961696
0.964649
0.966982
0.974517
0.981371
0.994066
1.0034
1.02133
1.03667
1.06058
1.07752
1.10332
1.12166
1.14695
1.16494
1.19222
1.21397
1.24528
1.27015
1.30421
1.32839
1.35443
1.36558
1.36779
1.34588
1.31032
1.26524
1.21803
1.17739
1.13576
1.11076
1.07789
0.954442
0.954195
0.952049
0.949851
0.950846
0.951392
0.953249
0.954479
0.954831
0.959318
0.962693
0.97167
0.977474
0.993
1.00378
1.02488
1.0388
1.06359
1.08054
1.10577
1.12259
1.14807
1.1656
1.19227
1.21274
1.24523
1.27034
1.30582
1.33076
1.35891
1.37184
1.38169
1.37422
1.35154
1.31238
1.26348
1.21845
1.16852
1.13814
1.09938
0.952958
0.952308
0.951088
0.949286
0.948847
0.949652
0.950678
0.953632
0.954189
0.959198
0.961142
0.972544
0.978729
0.994963
1.00533
1.02779
1.0422
1.06788
1.08368
1.10992
1.12495
1.15011
1.16452
1.19151
1.21013
1.24331
1.26934
1.30895
1.33768
1.37225
1.38839
1.39865
1.39455
1.38129
1.35612
1.31251
1.26911
1.21328
1.17803
1.12794
0.948859
0.947342
0.945082
0.943839
0.94285
0.943452
0.942662
0.946941
0.947112
0.955312
0.95741
0.968989
0.975722
0.993663
1.00481
1.02761
1.04219
1.06902
1.08488
1.11202
1.12639
1.15125
1.16512
1.18927
1.20663
1.23788
1.26438
1.3058
1.34029
1.38177
1.41051
1.42993
1.42921
1.41333
1.39134
1.35356
1.32251
1.26554
1.23137
1.16897
0.946616
0.945515
0.942579
0.94136
0.939234
0.942313
0.940469
0.945666
0.945635
0.954474
0.958225
0.971927
0.979378
0.997009
1.00953
1.03252
1.04866
1.0728
1.09007
1.11269
1.12931
1.14969
1.165
1.18457
1.20317
1.22913
1.25763
1.29558
1.33674
1.38187
1.4223
1.45392
1.4736
1.46531
1.44945
1.40141
1.37
1.31025
1.28555
1.22662
0.938576
0.937945
0.933637
0.93353
0.929307
0.932667
0.930763
0.937528
0.938299
0.948038
0.952754
0.966633
0.977112
0.995492
1.01136
1.03149
1.05295
1.07355
1.09496
1.11356
1.13259
1.14778
1.16464
1.1785
1.198
1.21705
1.24878
1.27915
1.32923
1.37111
1.43036
1.46496
1.50757
1.51103
1.51969
1.47615
1.44885
1.37899
1.33872
1.27844
0.9344
0.935233
0.929516
0.930775
0.92706
0.93088
0.929942
0.935731
0.938603
0.947497
0.956226
0.967854
0.983131
0.996908
1.01834
1.03577
1.05999
1.07823
1.10208
1.11746
1.13772
1.14947
1.16579
1.17455
1.19273
1.2056
1.23505
1.25992
1.31381
1.35117
1.42956
1.46603
1.53853
1.54902
1.58231
1.55389
1.54438
1.47619
1.43807
1.35784
0.921382
0.923131
0.917076
0.917764
0.915707
0.918261
0.920962
0.924246
0.932998
0.93806
0.953139
0.961397
0.982256
0.995991
1.02009
1.03658
1.0627
1.07983
1.10399
1.11813
1.13734
1.14874
1.16182
1.17351
1.18248
1.19723
1.21589
1.24099
1.2866
1.32652
1.41216
1.45099
1.55674
1.57568
1.64812
1.62925
1.64714
1.58718
1.56142
1.47121
0.917496
0.917353
0.914876
0.912169
0.915738
0.913287
0.922261
0.923444
0.935874
0.941818
0.957315
0.969255
0.98898
1.00474
1.02837
1.04771
1.07126
1.09062
1.11139
1.12732
1.14249
1.15585
1.16306
1.17537
1.17851
1.19033
1.19739
1.22156
1.2493
1.29197
1.36636
1.42217
1.53295
1.58134
1.67294
1.67893
1.72832
1.69528
1.69211
1.62947
0.903825
0.899228
0.900627
0.894457
0.901016
0.900785
0.907794
0.914888
0.923185
0.93709
0.950078
0.967565
0.985919
1.00711
1.02885
1.05174
1.07372
1.09473
1.11369
1.13046
1.14423
1.15638
1.16439
1.17315
1.17601
1.18481
1.18627
1.20107
1.21471
1.25149
1.29228
1.36766
1.4433
1.52322
1.5749
1.62096
1.65673
1.70781
1.70844
1.73223
0.900177
0.895242
0.896984
0.895273
0.896001
0.902695
0.908652
0.918248
0.930595
0.944051
0.960218
0.979263
0.999257
1.02191
1.04456
1.06766
1.08947
1.11009
1.1273
1.14319
1.15522
1.16568
1.17256
1.18002
1.18209
1.18539
1.18363
1.18718
1.18302
1.20173
1.21531
1.25779
1.29843
1.31537
1.28563
1.31584
1.34763
1.44219
1.46041
1.5861
0.874366
0.877113
0.875831
0.878922
0.882912
0.889353
0.898979
0.911603
0.925317
0.942816
0.960827
0.983024
1.00474
1.02843
1.05301
1.07644
1.0972
1.1184
1.13419
1.14961
1.16177
1.17172
1.17976
1.18588
1.19078
1.19107
1.18667
1.17832
1.16565
1.14631
1.13277
1.11224
1.0945
0.949189
0.848882
0.925629
0.997734
1.05714
1.08338
1.13363
0.861279
0.865113
0.867723
0.870584
0.878742
0.889504
0.90298
0.919767
0.937248
0.959005
0.979364
1.00428
1.02767
1.05364
1.07767
1.10167
1.12289
1.14212
1.15829
1.17207
1.18347
1.19246
1.19979
1.20424
1.20368
1.2004
1.18967
1.1761
1.14712
1.1188
1.05825
0.98867
0.877651
0.566566
0.570352
0.689537
0.727388
0.803719
0.864467
0.88621
0.839885
0.843994
0.848734
0.857077
0.866658
0.881878
0.897873
0.920113
0.940817
0.966839
0.990839
1.01909
1.04379
1.07251
1.09627
1.12151
1.14208
1.16242
1.1781
1.18954
1.19842
1.20329
1.20706
1.20766
1.20593
1.20068
1.18532
1.16757
1.1256
1.08422
1.00011
0.906297
0.75969
0.380054
0.3415
0.348456
0.382658
0.548525
0.693186
0.781646
0.825936
0.844928
0.854063
0.875686
0.892126
0.918059
0.937964
0.965771
0.989955
1.01913
1.04637
1.07613
1.10338
1.13199
1.15455
1.17803
1.19186
1.20415
1.20659
1.20758
1.20606
1.20337
1.20573
1.20231
1.20189
1.18583
1.16879
1.13752
1.08017
1.02294
0.908561
0.801002
0.636695
0.31256
0.195165
0.087865
0.0512068
0.163779
0.301984
0.430806
0.791489
0.818372
0.82972
0.855767
0.874903
0.907316
0.937306
0.973407
1.0088
1.04326
1.07816
1.10867
1.13854
1.16331
1.18361
1.19937
1.20607
1.21129
1.20441
1.20315
1.18658
1.18528
1.18147
1.17709
1.16565
1.13276
1.09223
1.0043
0.92429
0.797542
0.665856
0.443602
0.176497
0.182102
0.198412
0.220544
0.196417
0.176998
0.177385
0.157643
0.84748
0.892351
0.932734
0.97408
1.01014
1.04579
1.08113
1.11138
1.14434
1.16591
1.19205
1.20385
1.22112
1.22358
1.23556
1.22756
1.22702
1.20677
1.19192
1.1619
1.13766
1.10796
1.07191
1.0466
0.982164
0.922772
0.792093
0.619436
0.356956
0.216299
0.138686
0.143926
0.159092
0.17557
0.199879
0.22973
0.261268
0.280096
0.278603
0.276844
0.958688
0.99396
1.02495
1.05879
1.0906
1.11885
1.14237
1.16048
1.17304
1.17777
1.18608
1.18123
1.18502
1.16659
1.1573
1.12206
1.10018
1.04649
1.00643
0.932694
0.868864
0.770711
0.683963
0.613067
0.308455
0.113065
0.13426
0.0948692
0.127612
0.137339
0.135588
0.121823
0.121247
0.115096
0.112464
0.130977
0.150055
0.17676
0.20738
0.239562
0.979176
0.978341
0.978266
0.978474
0.975946
0.973921
0.97763
0.983314
0.988067
0.992556
0.994867
0.997548
1.00076
1.00365
1.00512
1.00572
1.00642
1.00667
1.00687
1.00726
1.00769
1.00801
1.00827
1.00843
1.00854
1.00855
1.00842
1.00834
1.0082
1.00803
1.00789
1.00778
1.00768
1.00758
1.00737
1.00718
1.00689
1.00682
1.00661
1.01067
0.982319
0.97903
0.976911
0.977224
0.973745
0.972337
0.976035
0.982665
0.988015
0.992603
0.994906
0.99759
1.00084
1.00385
1.00534
1.00566
1.00619
1.00661
1.00701
1.00734
1.00772
1.00802
1.00829
1.00855
1.00867
1.00872
1.00857
1.00849
1.00839
1.00819
1.00807
1.00796
1.00788
1.00788
1.00766
1.00748
1.00722
1.00677
1.00586
1.00486
0.983631
0.978692
0.975192
0.975149
0.971479
0.970424
0.974443
0.982081
0.988328
0.993066
0.995326
0.998169
1.00154
1.00415
1.00545
1.00576
1.00621
1.00668
1.00711
1.00747
1.00795
1.00843
1.00867
1.00885
1.0089
1.00902
1.0089
1.00881
1.00875
1.00851
1.00839
1.00832
1.00824
1.00822
1.00795
1.00775
1.00765
1.00749
1.00783
1.01013
0.982879
0.978989
0.973871
0.972789
0.968955
0.968172
0.97238
0.981111
0.988496
0.993346
0.99558
0.998555
1.00202
1.00429
1.00528
1.0056
1.00615
1.00676
1.0073
1.00778
1.00832
1.00862
1.00876
1.009
1.00911
1.00919
1.00902
1.009
1.00905
1.00881
1.00865
1.00856
1.00845
1.00845
1.00824
1.00797
1.00773
1.00735
1.00661
1.00505
0.984859
0.978894
0.972058
0.969903
0.966086
0.965457
0.970082
0.980155
0.988954
0.99401
0.996235
0.999431
1.0028
1.00414
1.00502
1.00564
1.00641
1.00719
1.00769
1.00816
1.00879
1.00913
1.0092
1.00941
1.00952
1.00949
1.00928
1.00932
1.00934
1.00912
1.00897
1.00888
1.00871
1.00864
1.00848
1.00834
1.00826
1.00809
1.00832
1.00961
0.98408
0.978942
0.970556
0.966711
0.96271
0.961952
0.967208
0.978747
0.989254
0.994551
0.996723
1.00014
1.00323
1.004
1.00476
1.00537
1.00637
1.00729
1.00792
1.00841
1.00903
1.00925
1.00928
1.00962
1.00986
1.0098
1.00966
1.00972
1.00976
1.00956
1.00932
1.00917
1.00898
1.00883
1.00867
1.00843
1.00836
1.00802
1.00745
1.00615
0.986146
0.979133
0.968991
0.963348
0.958834
0.957952
0.963807
0.977251
0.989893
0.995577
0.997727
1.00116
1.00366
1.00386
1.00458
1.00556
1.00675
1.00788
1.00853
1.00883
1.00931
1.0095
1.00945
1.00989
1.01008
1.00998
1.01004
1.01014
1.01014
1.01007
1.00977
1.00959
1.00934
1.00918
1.00909
1.00888
1.00888
1.00872
1.00879
1.00944
0.985246
0.979078
0.967392
0.959503
0.954088
0.952716
0.959386
0.974788
0.990351
0.996656
0.998574
1.00176
1.00382
1.00389
1.00455
1.00566
1.00699
1.00807
1.00875
1.009
1.0095
1.00979
1.00966
1.00995
1.01012
1.01011
1.0104
1.0105
1.01049
1.0105
1.0102
1.01002
1.00974
1.00946
1.00925
1.009
1.00898
1.00867
1.00829
1.00731
0.988085
0.979359
0.966151
0.955684
0.949054
0.946757
0.953924
0.971759
0.991038
0.998583
1.0003
1.00274
1.00437
1.00415
1.00488
1.00631
1.00752
1.00835
1.00898
1.00926
1.00986
1.01024
1.01018
1.01041
1.01045
1.01037
1.01064
1.01074
1.01078
1.01083
1.01056
1.01042
1.01023
1.01003
1.00983
1.00949
1.00947
1.0093
1.00934
1.00955
0.986848
0.978609
0.964507
0.951447
0.942766
0.939495
0.946944
0.967129
0.990963
1.00052
1.00208
1.00344
1.00505
1.00475
1.00529
1.0068
1.0078
1.00835
1.00907
1.00953
1.01005
1.01057
1.01073
1.0109
1.01082
1.01086
1.0111
1.01114
1.0111
1.01111
1.01083
1.01066
1.01047
1.01024
1.01008
1.00968
1.0096
1.0093
1.00913
1.00847
0.990232
0.979127
0.96341
0.947138
0.936317
0.931338
0.938014
0.961065
0.99077
1.00364
1.00522
1.00514
1.00645
1.00587
1.00602
1.00728
1.00802
1.00864
1.00945
1.01001
1.01034
1.01085
1.01116
1.01142
1.01145
1.0115
1.0116
1.01147
1.01139
1.01139
1.01118
1.01111
1.01098
1.01079
1.01074
1.01031
1.01026
1.00991
1.00987
1.00986
0.989264
0.977812
0.961755
0.942498
0.929108
0.922076
0.926962
0.951978
0.989396
1.0059
1.00846
1.00693
1.00792
1.00723
1.00662
1.00748
1.0082
1.00887
1.00967
1.01033
1.01058
1.01118
1.0117
1.01171
1.01192
1.01214
1.01222
1.01206
1.01189
1.01182
1.0115
1.01136
1.01127
1.01099
1.01107
1.01063
1.01056
1.01005
1.00983
1.00944
0.993301
0.978917
0.960834
0.937855
0.921697
0.912234
0.913778
0.940755
0.988317
1.00862
1.01217
1.00989
1.00984
1.00876
1.00716
1.00786
1.00853
1.00947
1.01008
1.01082
1.01109
1.01158
1.01215
1.01214
1.01241
1.0127
1.01274
1.01256
1.01236
1.01233
1.01208
1.01195
1.01185
1.01152
1.01159
1.01116
1.01115
1.01061
1.01045
1.01033
0.992963
0.977627
0.959196
0.933194
0.914469
0.901971
0.898342
0.925918
0.985518
1.01054
1.01455
1.01268
1.01154
1.01006
1.00809
1.00844
1.00889
1.00968
1.01012
1.01098
1.01171
1.01226
1.01308
1.01294
1.0132
1.01334
1.01331
1.01319
1.01284
1.01273
1.0124
1.01226
1.0121
1.01176
1.01178
1.01139
1.01138
1.01079
1.01059
1.01035
0.997825
0.980118
0.959105
0.929072
0.907075
0.891918
0.881365
0.908165
0.981242
1.01217
1.01676
1.0158
1.01357
1.01129
1.00908
1.00927
1.00962
1.01012
1.0105
1.0114
1.01235
1.01283
1.01377
1.0136
1.01411
1.01397
1.01398
1.01385
1.0135
1.0134
1.0131
1.01299
1.01279
1.01256
1.01239
1.012
1.01191
1.01145
1.01141
1.01121
0.998375
0.97956
0.958444
0.925498
0.900833
0.88265
0.863851
0.886218
0.973024
1.01218
1.01777
1.01732
1.01463
1.01205
1.01009
1.01007
1.01019
1.01031
1.01089
1.01178
1.01299
1.0134
1.01454
1.01443
1.01517
1.01471
1.0147
1.01461
1.01426
1.01411
1.01379
1.01378
1.0135
1.01345
1.01315
1.01272
1.01232
1.01184
1.01163
1.01155
1.00431
0.983521
0.960766
0.924063
0.894515
0.874539
0.847608
0.861243
0.959923
1.01073
1.01811
1.01815
1.01533
1.01277
1.01127
1.01093
1.01085
1.01086
1.0118
1.01224
1.01364
1.01386
1.01505
1.01481
1.01579
1.01544
1.01552
1.01538
1.01513
1.01507
1.01475
1.01481
1.01426
1.01426
1.01374
1.01353
1.01297
1.01264
1.01227
1.01221
1.00626
0.984201
0.962635
0.924073
0.889527
0.868138
0.834269
0.833434
0.938877
1.00554
1.01653
1.01723
1.01519
1.0131
1.01162
1.01123
1.01136
1.01144
1.01268
1.01297
1.01463
1.01479
1.01582
1.01553
1.01629
1.01589
1.01619
1.01585
1.01575
1.01558
1.01526
1.01533
1.01475
1.01468
1.01397
1.01384
1.01317
1.0131
1.01264
1.01277
1.01429
0.990897
0.968089
0.92712
0.884995
0.862559
0.825071
0.806262
0.908327
0.996027
1.01378
1.01574
1.01386
1.01272
1.01138
1.0114
1.01169
1.01215
1.01362
1.01402
1.01556
1.01558
1.01658
1.01644
1.01705
1.01659
1.01705
1.01646
1.01651
1.01616
1.016
1.0159
1.0155
1.01544
1.01488
1.01475
1.01403
1.01396
1.01341
1.01346
1.0201
0.995376
0.972328
0.931458
0.88283
0.857766
0.820172
0.780616
0.868325
0.979125
1.00734
1.01185
1.01112
1.01138
1.01029
1.01113
1.01171
1.0127
1.01408
1.01483
1.01633
1.01657
1.01742
1.01751
1.01795
1.01747
1.01793
1.01735
1.01772
1.01728
1.01742
1.01716
1.01694
1.01671
1.01617
1.01588
1.01519
1.01486
1.0143
1.01429
1.03206
1.00764
0.981527
0.938872
0.883237
0.853189
0.818125
0.759308
0.820678
0.9532
0.997011
1.00586
1.00675
1.00907
1.00785
1.01006
1.01141
1.01299
1.01469
1.01553
1.01683
1.01741
1.0181
1.01845
1.01884
1.01867
1.01893
1.01854
1.01888
1.0186
1.01893
1.01854
1.01847
1.01798
1.01753
1.01685
1.01639
1.01574
1.01532
1.0152
1.04335
1.01806
0.989747
0.947104
0.888257
0.849797
0.816837
0.741981
0.767478
0.915037
0.980295
0.996101
0.99946
1.00521
1.004
1.00825
1.01083
1.0129
1.01539
1.01638
1.01779
1.01849
1.01902
1.0194
1.01962
1.01967
1.01978
1.01953
1.01967
1.01937
1.01959
1.01908
1.01913
1.01844
1.01836
1.01748
1.01737
1.01653
1.01643
1.01615
1.05988
1.03666
1.00604
0.960516
0.898049
0.848324
0.812157
0.728655
0.712681
0.863262
0.956079
0.981849
0.98833
0.998493
0.998671
1.00519
1.00935
1.01217
1.01563
1.01725
1.01889
1.01954
1.02025
1.02049
1.02069
1.02062
1.02047
1.02016
1.02021
1.01987
1.02009
1.01947
1.01983
1.01903
1.01928
1.01829
1.01842
1.01752
1.01754
1.0172
1.08096
1.05605
1.02263
0.975868
0.912917
0.849434
0.802838
0.714034
0.660013
0.794918
0.920801
0.960374
0.972144
0.987767
0.991358
0.999879
1.00659
1.01035
1.01498
1.01731
1.01967
1.0205
1.02178
1.02219
1.02255
1.02244
1.02227
1.02178
1.02187
1.02133
1.0217
1.02089
1.02127
1.02029
1.02053
1.01943
1.01958
1.01859
1.01865
1.01825
1.11121
1.08738
1.05418
1.00419
0.934677
0.852385
0.786292
0.691822
0.608257
0.716703
0.874043
0.930991
0.951087
0.973136
0.981651
0.992049
1.00161
1.00649
1.01259
1.016
1.01975
1.02087
1.02324
1.02373
1.02466
1.02453
1.02455
1.02427
1.02461
1.02375
1.02417
1.0229
1.02323
1.02195
1.02209
1.02088
1.02101
1.01993
1.01999
1.01954
1.14922
1.12165
1.09055
1.0409
0.960681
0.85444
0.758672
0.654537
0.548283
0.630932
0.815695
0.893282
0.924397
0.954461
0.96922
0.982257
0.99473
1.00149
1.00879
1.01338
1.01859
1.02029
1.02357
1.02418
1.02589
1.02592
1.02654
1.02632
1.02678
1.02585
1.02634
1.0249
1.02533
1.02385
1.02413
1.02281
1.02301
1.02174
1.02176
1.0212
1.1964
1.16512
1.14769
1.09309
0.986194
0.8481
0.714084
0.594502
0.476847
0.535631
0.743961
0.846213
0.890749
0.931541
0.953922
0.971322
0.986792
0.995728
1.00428
1.00978
1.01611
1.01823
1.02247
1.02344
1.02623
1.02639
1.02787
1.02786
1.02862
1.02798
1.02873
1.02745
1.02805
1.02661
1.02698
1.02555
1.0257
1.02419
1.02413
1.02348
1.25425
1.23801
1.24013
1.14286
0.990621
0.813449
0.64192
0.5018
0.385942
0.437232
0.659957
0.789094
0.848914
0.90315
0.934334
0.958015
0.977316
0.989185
0.999874
1.00671
1.01446
1.01726
1.02261
1.02379
1.02756
1.02751
1.02985
1.02995
1.03122
1.03091
1.03173
1.03072
1.03133
1.0299
1.03019
1.02864
1.02866
1.02703
1.02694
1.0262
1.33051
1.35531
1.30006
1.15566
0.952472
0.728856
0.525415
0.368005
0.270393
0.345723
0.576462
0.725687
0.800341
0.868418
0.909471
0.940919
0.964939
0.980651
0.994092
1.00346
1.01309
1.01735
1.02364
1.02525
1.02976
1.02956
1.03264
1.03255
1.03387
1.03389
1.0342
1.03363
1.03365
1.03258
1.03258
1.03132
1.03135
1.02991
1.02987
1.02925
1.45287
1.42991
1.31222
1.10975
0.837095
0.566866
0.343868
0.190412
0.162907
0.277702
0.510154
0.663765
0.751273
0.830517
0.879992
0.921519
0.94867
0.971015
0.986822
0.999489
1.01008
1.01603
1.02354
1.02563
1.03099
1.03052
1.03443
1.03378
1.03548
1.0357
1.03549
1.03584
1.03489
1.03491
1.03424
1.03362
1.0333
1.03199
1.03197
1.0314
1.59219
1.473
1.26675
0.96162
0.618296
0.310289
0.0860789
0.109086
0.213793
0.28904
0.473252
0.613369
0.711442
0.796337
0.851456
0.901296
0.930506
0.959967
0.976005
0.993267
1.00412
1.01224
1.02048
1.02343
1.02997
1.02981
1.03534
1.03418
1.03735
1.03738
1.0376
1.03876
1.03723
1.03843
1.03664
1.0371
1.03577
1.03518
1.0349
1.03467
1.65
1.40306
1.06142
0.647351
0.257662
0.0738531
0.253641
0.368157
0.408753
0.40045
0.494077
0.591427
0.692509
0.772944
0.831735
0.884448
0.916191
0.948831
0.965849
0.98588
0.996867
1.0082
1.01675
1.02223
1.0297
1.03098
1.03763
1.03653
1.04171
1.04068
1.04299
1.04346
1.04254
1.04376
1.04144
1.04265
1.04
1.04027
1.03883
1.0389
1.47729
1.16299
0.729426
0.377655
0.396381
0.567135
0.649728
0.669337
0.602009
0.507874
0.556731
0.621113
0.70381
0.768755
0.828741
0.874395
0.911186
0.941533
0.961354
0.98478
0.994576
1.01172
1.01839
1.0281
1.03455
1.03788
1.04441
1.04383
1.04983
1.04755
1.05233
1.05045
1.05243
1.05174
1.05121
1.05135
1.04899
1.04948
1.04769
1.04772
1.10256
0.871032
0.728389
0.828813
0.908163
0.933085
0.928597
0.85853
0.707121
0.651146
0.673389
0.683367
0.756027
0.787054
0.852663
0.881195
0.924953
0.949469
0.974018
0.997426
1.00812
1.02714
1.03081
1.04425
1.04668
1.05282
1.05623
1.05695
1.06146
1.05914
1.06376
1.0602
1.06364
1.06004
1.06143
1.05839
1.05882
1.05801
1.05791
1.05707
0.886184
0.968312
0.979802
1.06206
1.05596
1.06232
0.997949
0.882891
0.794431
0.77754
0.763315
0.77412
0.809579
0.83939
0.894337
0.91661
0.959906
0.976983
1.00443
1.01752
1.03291
1.04379
1.04993
1.06108
1.06158
1.07028
1.06965
1.07485
1.07545
1.07808
1.07904
1.07881
1.08077
1.07817
1.08069
1.07617
1.07832
1.07413
1.07427
1.07304
0.842811
0.894526
0.902846
0.937057
0.940212
0.932743
0.848666
0.809543
0.793335
0.785758
0.780505
0.807198
0.830159
0.873251
0.916813
0.943034
0.98083
0.997412
1.02211
1.03482
1.05461
1.05992
1.07301
1.07528
1.08183
1.08636
1.08821
1.09504
1.09376
1.10093
1.09871
1.10333
1.10219
1.10313
1.10448
1.10297
1.10383
1.09581
1.09655
1.08974
0.549135
0.585992
0.655111
0.678955
0.697468
0.698182
0.670605
0.693941
0.690803
0.692856
0.733518
0.766427
0.793004
0.836581
0.881847
0.920298
0.958255
0.997253
1.01813
1.04248
1.06016
1.07699
1.09204
1.10536
1.11655
1.12408
1.13019
1.13193
1.13457
1.13731
1.13921
1.14377
1.14626
1.14951
1.15155
1.14988
1.15147
1.15054
1.14999
1.14691
0.260917
0.256889
0.325259
0.350659
0.381884
0.407666
0.418098
0.419928
0.410557
0.415389
0.439751
0.484441
0.546326
0.618806
0.699702
0.778261
0.846699
0.914821
0.968403
1.01836
1.05164
1.08613
1.10486
1.12547
1.13565
1.14615
1.15336
1.16077
1.16504
1.17087
1.17121
1.17209
1.17122
1.16893
1.16938
1.1661
1.16842
1.16803
1.17547
1.18207
0.261278
0.286974
0.281607
0.27224
0.255887
0.231733
0.187701
0.159212
0.269958
0.348006
0.319152
0.262083
0.284652
0.340557
0.389514
0.454358
0.523355
0.604932
0.691624
0.781531
0.843563
0.899336
0.949252
0.996689
1.03159
1.074
1.10001
1.12999
1.15272
1.17723
1.19742
1.21798
1.23498
1.25055
1.26642
1.27851
1.29131
1.295
1.30287
1.29858
0.273163
0.314658
0.35659
0.39926
0.444381
0.488234
0.527616
0.559257
0.576896
0.577711
0.573132
0.557506
0.546493
0.516781
0.491853
0.447017
0.409345
0.334642
0.245913
0.104468
0.0896848
0.486749
0.534371
0.577217
0.62613
0.657938
0.711597
0.743927
0.805785
0.843372
0.907946
0.947086
1.00867
1.04448
1.09929
1.13227
1.18769
1.23022
1.29631
1.34873
1.01667
1.01612
1.01784
1.01813
1.01903
1.01908
1.01969
1.01949
1.01993
1.01996
1.01982
1.02019
1.0197
1.02017
1.01943
1.01972
1.01879
1.01852
1.01724
1.01596
1.01363
1.01058
1.00626
1.00073
0.993821
0.986022
0.979946
0.979308
0.985853
0.994499
1.00229
1.00701
1.00706
1.00707
1.0072
1.0072
1.00728
1.00742
1.00749
1.00746
0.999667
1.00033
0.999129
0.999528
0.998692
0.99925
0.998978
0.999156
0.999343
0.999111
0.999654
0.999258
0.99984
0.999673
1.00004
1.00022
1.00056
1.00118
1.00194
1.00336
1.0053
1.00817
1.01193
1.01651
1.02096
1.02519
1.02721
1.02747
1.02527
1.01796
1.0109
1.0091
1.00884
1.00888
1.00875
1.00868
1.00843
1.00805
1.00786
1.00785
1.01396
1.01448
1.01632
1.01691
1.01804
1.01801
1.01877
1.01877
1.01867
1.01905
1.01852
1.0189
1.01808
1.01843
1.01725
1.01741
1.01596
1.01541
1.01356
1.01199
1.00943
1.00676
1.00367
1.00087
0.99864
0.998029
0.999676
1.00323
1.00596
1.0069
1.00733
1.00772
1.00784
1.00801
1.00807
1.00797
1.00809
1.00827
1.00819
1.00819
1.00177
1.00245
1.00167
1.00187
1.00126
1.00154
1.00134
1.00155
1.00176
1.00169
1.00211
1.00218
1.00246
1.00318
1.00326
1.00429
1.00473
1.00621
1.00729
1.00937
1.01131
1.01381
1.01637
1.01895
1.02092
1.02214
1.02263
1.02222
1.02041
1.01753
1.01441
1.01279
1.01182
1.01078
1.00999
1.00964
1.00918
1.00865
1.00845
1.00843
1.01228
1.01329
1.01464
1.0154
1.01636
1.01654
1.01677
1.01715
1.01683
1.01718
1.01672
1.01676
1.01604
1.01605
1.01513
1.01484
1.01356
1.01269
1.0111
1.00961
1.00772
1.00602
1.00447
1.00356
1.00313
1.0034
1.00464
1.00667
1.0079
1.00838
1.00888
1.00917
1.0093
1.00937
1.00925
1.00924
1.00925
1.00909
1.00885
1.00879
1.00407
1.00447
1.00397
1.00412
1.00404
1.00406
1.00417
1.00425
1.0044
1.00466
1.00498
1.00543
1.00569
1.00632
1.0067
1.00756
1.00828
1.00955
1.01053
1.01202
1.01323
1.01453
1.01574
1.01691
1.01759
1.01794
1.01838
1.01842
1.01748
1.0154
1.014
1.01327
1.01277
1.01165
1.0107
1.01019
1.00967
1.00927
1.00914
1.0091
1.01115
1.01235
1.01331
1.01414
1.01456
1.01516
1.01509
1.01548
1.01533
1.01544
1.01509
1.01512
1.0146
1.01443
1.01367
1.01321
1.01215
1.01137
1.01012
1.00906
1.00782
1.0069
1.00616
1.00593
1.00583
1.00604
1.00717
1.00859
1.00909
1.00935
1.00995
1.01025
1.01038
1.01042
1.01042
1.01032
1.01002
1.00971
1.00955
1.00946
1.00604
1.00585
1.00587
1.00609
1.00626
1.00652
1.00678
1.00691
1.00723
1.00749
1.0077
1.00809
1.00844
1.00897
1.00939
1.01001
1.01067
1.01142
1.01214
1.01292
1.01357
1.01435
1.0152
1.01566
1.01577
1.0158
1.01596
1.01575
1.01491
1.01366
1.01292
1.01288
1.01237
1.01149
1.01092
1.01056
1.0102
1.00993
1.00979
1.00968
1.01055
1.01179
1.01226
1.013
1.01322
1.01382
1.01376
1.01418
1.01403
1.01428
1.01408
1.01407
1.01371
1.01355
1.01302
1.01261
1.01188
1.01129
1.01056
1.00997
1.00927
1.00882
1.00871
1.00877
1.00862
1.00883
1.00966
1.01016
1.01036
1.01049
1.011
1.01126
1.01136
1.01138
1.01123
1.01092
1.01057
1.01026