/*--------------------------------*- C++ -*----------------------------------*\
  =========                 |
  \\      /  F ield         | OpenFOAM: The Open Source CFD Toolbox
   \\    /   O peration     | Website:  https://openfoam.org
    \\  /    A nd           | Version:  11
     \\/     M anipulation  |
\*---------------------------------------------------------------------------*/
FoamFile
{
    format      ascii;
    class       volScalarField;
    location    "3.5";
    object      p;
}
// * * * * * * * * * * * * * * * * * * * * * * * * * * * * * * * * * * * * * //

dimensions      [0 2 -2 0 0 0 0];

internalField   nonuniform List<scalar> 
9600
(
0.0862135
0.0882304
0.0916135
0.0957822
0.100384
0.10522
0.110342
0.115184
0.120463
0.124831
0.126895
0.129522
0.133149
0.135078
0.134057
0.130045
0.1233
0.112825
0.0986109
0.0816779
0.0627444
0.0425038
0.0224729
0.00480768
-0.0105157
-0.0216592
-0.0264367
-0.0242023
-0.0192583
-0.0135828
-0.00767593
-0.00251965
0.00141504
0.00403853
0.00582896
0.00692042
0.00730955
0.00746968
0.00731179
0.00720586
0.0873324
0.0902306
0.0942966
0.098792
0.103528
0.108439
0.113168
0.118389
0.12301
0.126248
0.127905
0.130357
0.133903
0.135163
0.133262
0.128452
0.121229
0.110602
0.0966413
0.0802453
0.062012
0.0426578
0.0232418
0.00596721
-0.00857914
-0.0209135
-0.0268949
-0.026085
-0.0220611
-0.0167952
-0.0109155
-0.00536974
-0.000799144
0.00261475
0.00501799
0.00657111
0.00742895
0.00787438
0.00791092
0.00729029
0.0884437
0.0915983
0.0955918
0.0998106
0.104258
0.108852
0.113644
0.118601
0.122692
0.126067
0.128086
0.130739
0.134266
0.135348
0.133271
0.129159
0.122128
0.111682
0.0978116
0.0815481
0.0636031
0.0443293
0.0250021
0.00781775
-0.00701312
-0.0191151
-0.0261045
-0.0256215
-0.021483
-0.0161552
-0.0102976
-0.00491568
-0.000535687
0.00248271
0.0045817
0.00606535
0.0067756
0.0071495
0.00734872
0.00737892
0.0897363
0.0931655
0.0974044
0.101847
0.106517
0.111343
0.116077
0.120561
0.124647
0.127705
0.129188
0.131931
0.134616
0.13542
0.132698
0.127826
0.120145
0.109409
0.0956459
0.0796935
0.0621202
0.0435474
0.0247312
0.00736995
-0.0071703
-0.0200009
-0.027278
-0.0277515
-0.0244483
-0.0195252
-0.0136826
-0.00795052
-0.00295109
0.00102509
0.00381896
0.00583924
0.00713641
0.00769679
0.00787974
0.00755976
0.0911907
0.0948413
0.0992424
0.103681
0.108184
0.112751
0.117225
0.121473
0.125115
0.12788
0.129757
0.132229
0.135034
0.135449
0.132741
0.128161
0.120705
0.110173
0.096509
0.0806705
0.0635083
0.0452146
0.0266292
0.00976031
-0.00488932
-0.0164517
-0.0262076
-0.0278706
-0.0248937
-0.0199681
-0.0140886
-0.00826277
-0.00324492
0.000405667
0.00312212
0.00491029
0.00606632
0.00673362
0.00732518
0.00769452
0.0927793
0.0965849
0.101075
0.105505
0.109947
0.114384
0.118753
0.122901
0.126192
0.128853
0.13127
0.133796
0.135621
0.135567
0.132558
0.127428
0.119441
0.108623
0.0950195
0.0794229
0.0624987
0.0446597
0.0264682
0.00914365
-0.00614135
-0.0192955
-0.0271441
-0.029605
-0.0272803
-0.0227149
-0.0169061
-0.0108982
-0.0054781
-0.000958827
0.00224691
0.00479882
0.00661053
0.00730892
0.00769092
0.0076926
0.0944436
0.0983641
0.102929
0.107377
0.111736
0.11602
0.120354
0.124203
0.127248
0.12983
0.132271
0.134479
0.136118
0.135631
0.132541
0.127364
0.119465
0.108768
0.0952489
0.0797195
0.0631226
0.0456468
0.0277865
0.0110733
-0.00352528
-0.0167756
-0.0266162
-0.030286
-0.0287741
-0.0244216
-0.0185881
-0.012358
-0.00664607
-0.0020761
0.0012638
0.00346797
0.00505238
0.00634992
0.00699326
0.00769506
0.0961707
0.100199
0.104835
0.109279
0.113535
0.117696
0.121942
0.125478
0.128331
0.13095
0.133411
0.135582
0.136807
0.135908
0.132622
0.12714
0.118852
0.107896
0.0943984
0.079051
0.0626744
0.0455371
0.0280529
0.0110514
-0.00463146
-0.0181581
-0.0277713
-0.0318192
-0.030938
-0.0269532
-0.0211647
-0.0147604
-0.00878336
-0.00368874
0.000198358
0.00324398
0.00560009
0.00692249
0.00750661
0.00761459
0.0980137
0.102118
0.106793
0.111207
0.11535
0.119437
0.123487
0.126762
0.1295
0.132126
0.134725
0.136635
0.137399
0.136121
0.13262
0.126984
0.118586
0.107602
0.0941901
0.0789081
0.0627447
0.0459674
0.0287838
0.0121542
-0.0027292
-0.0162834
-0.0270029
-0.032817
-0.0330264
-0.0295331
-0.0238754
-0.0173302
-0.0108989
-0.00531748
-0.00111074
0.00169613
0.00364034
0.005324
0.00674715
0.00753773
0.099971
0.104103
0.108795
0.113152
0.11719
0.121206
0.125006
0.1281
0.130798
0.133388
0.136033
0.137667
0.138071
0.136526
0.132805
0.126903
0.118344
0.107239
0.0937564
0.0785969
0.0626385
0.0460943
0.029323
0.0128196
-0.00295461
-0.01733
-0.0295667
-0.0344798
-0.0354282
-0.0324564
-0.0269512
-0.0201836
-0.0133742
-0.00740966
-0.00263672
0.00110622
0.00401388
0.00592214
0.00706013
0.00749124
0.102
0.106144
0.110834
0.115123
0.119072
0.122981
0.126533
0.129507
0.132226
0.134802
0.137399
0.13876
0.138772
0.136886
0.132933
0.126813
0.118109
0.106898
0.0934161
0.0783199
0.0625352
0.0462885
0.0298102
0.0134529
-0.0019968
-0.0158138
-0.0270513
-0.0357566
-0.0378717
-0.0356651
-0.030415
-0.0235
-0.0163002
-0.00971589
-0.0043879
-0.000628822
0.00190173
0.00398553
0.00590518
0.00720943
0.104087
0.10825
0.112906
0.117136
0.120987
0.124763
0.128108
0.131019
0.133827
0.136342
0.138746
0.139835
0.139453
0.137328
0.133211
0.126823
0.117874
0.106477
0.0930242
0.0780284
0.0624464
0.0464844
0.0302646
0.0142292
-0.0014659
-0.0164786
-0.0288163
-0.0372929
-0.0405651
-0.0392179
-0.0343182
-0.0272233
-0.019539
-0.0124743
-0.00661766
-0.00197747
0.00162941
0.00413044
0.00592442
0.00745924
0.10625
0.110416
0.11502
0.119188
0.122932
0.126577
0.129784
0.132664
0.135528
0.138
0.140102
0.140989
0.140293
0.137848
0.133401
0.126719
0.117594
0.106101
0.0926639
0.0777259
0.0622632
0.0466093
0.030702
0.0147518
-0.000984763
-0.0157546
-0.0286829
-0.0386405
-0.0433379
-0.0430613
-0.0386192
-0.031442
-0.0234409
-0.0157366
-0.00909217
-0.00398151
-0.000478117
0.00208758
0.0041227
0.00551824
0.108489
0.112638
0.117206
0.121281
0.12494
0.128451
0.131584
0.134454
0.137262
0.139765
0.141612
0.14222
0.141107
0.138313
0.133639
0.126731
0.117395
0.105737
0.0921657
0.0772979
0.062057
0.046644
0.0309906
0.0154154
-0.000215369
-0.015634
-0.0295663
-0.0408322
-0.0463893
-0.0472106
-0.0434312
-0.0363807
-0.0278922
-0.0195117
-0.0122893
-0.00644064
-0.00181097
0.00165591
0.00415002
0.00572617
0.11082
0.114921
0.119487
0.123449
0.127026
0.130421
0.133512
0.136377
0.139094
0.141661
0.143176
0.143446
0.14198
0.138932
0.133945
0.126656
0.117043
0.105201
0.0916465
0.0769043
0.0617625
0.0466882
0.0314082
0.0159681
0.000259614
-0.0152629
-0.029576
-0.0412219
-0.0493308
-0.0516226
-0.0487586
-0.0418922
-0.0331209
-0.0241642
-0.0159922
-0.00917738
-0.00416384
-0.00060108
0.00214255
0.00410855
0.113282
0.117322
0.121824
0.12572
0.129213
0.132527
0.135579
0.138472
0.14113
0.143551
0.144788
0.144777
0.142986
0.139522
0.134179
0.126551
0.116695
0.104758
0.0910947
0.0763123
0.0613765
0.046674
0.0316201
0.0164105
0.00104983
-0.0146801
-0.0301038
-0.0431008
-0.0524218
-0.0563294
-0.0546178
-0.0483257
-0.0393848
-0.0295406
-0.0204697
-0.0129721
-0.00694926
-0.00226285
0.00120154
0.00362376
0.115876
0.119831
0.124227
0.1281
0.13155
0.134787
0.137844
0.140738
0.143345
0.145446
0.146519
0.146191
0.143965
0.140164
0.134478
0.126465
0.116295
0.104054
0.0902531
0.0756461
0.0608543
0.0465285
0.0320114
0.0171358
0.00173007
-0.0142198
-0.030187
-0.0444671
-0.0554338
-0.0612023
-0.06107
-0.0555153
-0.0464303
-0.0360584
-0.0261289
-0.0172964
-0.0102043
-0.00503946
-0.00116693
0.00149914
0.118584
0.122459
0.126725
0.130569
0.134041
0.137233
0.140335
0.143202
0.145631
0.147533
0.148315
0.147593
0.145056
0.140869
0.13475
0.126277
0.115692
0.103291
0.0894287
0.0748298
0.0601463
0.0463545
0.0322798
0.0176722
0.00251591
-0.0132909
-0.0300072
-0.0458
-0.0587736
-0.0665116
-0.0681643
-0.0636318
-0.0548854
-0.04398
-0.0327863
-0.0228338
-0.0148115
-0.00843103
-0.00353627
-0.000169465
0.121417
0.125195
0.129363
0.133214
0.136731
0.139957
0.142992
0.145779
0.148066
0.149723
0.150144
0.149111
0.146204
0.14155
0.134947
0.12601
0.115118
0.102458
0.0882974
0.0737819
0.0592891
0.0457987
0.032431
0.0185608
0.00364917
-0.0122942
-0.0296148
-0.0466483
-0.0616749
-0.0718699
-0.0757605
-0.0728917
-0.0646254
-0.0531113
-0.041069
-0.0299413
-0.0201926
-0.0125845
-0.00696039
-0.00312313
0.124372
0.127966
0.132123
0.13606
0.13964
0.142919
0.145887
0.148559
0.150664
0.152028
0.152129
0.150682
0.147348
0.142186
0.13513
0.125772
0.114353
0.101292
0.0869483
0.0725901
0.0582783
0.0451829
0.0326032
0.0193889
0.00480573
-0.0108864
-0.0286028
-0.0470749
-0.0642711
-0.0772868
-0.0840147
-0.0832635
-0.0758905
-0.0643767
-0.0513358
-0.0384888
-0.0273136
-0.0184377
-0.0115085
-0.00659933
0.127477
0.13098
0.135169
0.139205
0.142843
0.146078
0.148969
0.151561
0.153415
0.154488
0.154209
0.152252
0.148503
0.142854
0.135263
0.125343
0.113327
0.100088
0.0854699
0.0710153
0.0570928
0.0444347
0.0323816
0.0202017
0.00647442
-0.00893683
-0.0269735
-0.0467113
-0.0662322
-0.0824194
-0.0925316
-0.0946057
-0.0890604
-0.077761
-0.0635508
-0.0494273
-0.0366034
-0.025719
-0.0171905
-0.0113856
0.130768
0.134255
0.138529
0.142639
0.146327
0.149564
0.152372
0.154772
0.156421
0.157076
0.156334
0.153906
0.149708
0.143475
0.135172
0.124753
0.112232
0.0985807
0.0837061
0.0691865
0.0555005
0.0433664
0.0321583
0.0210994
0.00833954
-0.00649655
-0.0243996
-0.0451838
-0.0671955
-0.0869038
-0.101059
-0.107059
-0.104159
-0.0936697
-0.0790703
-0.0632524
-0.0481234
-0.0353389
-0.0252055
-0.0180158
0.134386
0.137887
0.142261
0.146418
0.150112
0.15334
0.156049
0.158195
0.15956
0.159732
0.158549
0.155597
0.15089
0.143997
0.134944
0.124021
0.110851
0.0965849
0.081613
0.0671343
0.0536643
0.0421263
0.0317352
0.0216884
0.0103283
-0.00347774
-0.020878
-0.0421994
-0.0663372
-0.0897474
-0.109185
-0.120109
-0.121139
-0.11273
-0.0980903
-0.08067
-0.0633384
-0.0481429
-0.0356204
-0.0266633
0.138347
0.141888
0.146412
0.150631
0.154288
0.157465
0.160026
0.161899
0.16288
0.162536
0.160845
0.157334
0.151936
0.144447
0.13463
0.122874
0.109133
0.0943367
0.0790578
0.0645922
0.051542
0.0404513
0.0310258
0.022188
0.0124604
1.55378e-06
-0.0164641
-0.0377026
-0.0634112
-0.0903937
-0.114771
-0.13217
-0.139274
-0.135164
-0.121585
-0.103097
-0.0832681
-0.0649659
-0.0496802
-0.0387859
0.142774
0.146359
0.15098
0.155295
0.158904
0.161899
0.164256
0.165822
0.166365
0.165482
0.163119
0.159058
0.152894
0.144639
0.133975
0.121399
0.107032
0.0916564
0.076178
0.0615342
0.0487997
0.0382858
0.030033
0.0225028
0.0146198
0.00390512
-0.0109996
-0.0317943
-0.0583036
-0.0886277
-0.117994
-0.141986
-0.156389
-0.158969
-0.149716
-0.132114
-0.110003
-0.0878642
-0.0689012
-0.0551046
0.147749
0.151403
0.156096
0.160435
0.164019
0.166813
0.168831
0.169959
0.169996
0.168609
0.165447
0.16059
0.153619
0.144533
0.132963
0.119376
0.104374
0.0883678
0.0727366
0.0580239
0.0456006
0.0355786
0.0284768
0.0223022
0.0167183
0.00811463
-0.00439936
-0.0241127
-0.0504223
-0.0836558
-0.118244
-0.149868
-0.172369
-0.183005
-0.180315
-0.16639
-0.144767
-0.120464
-0.0967483
-0.0782524
0.153325
0.15701
0.161786
0.166085
0.169551
0.172125
0.173739
0.174367
0.173762
0.17174
0.167793
0.161975
0.154027
0.143865
0.131511
0.116736
0.100967
0.0843065
0.0685659
0.0538139
0.0419278
0.0321254
0.0263285
0.0216059
0.0184216
0.0124967
0.00318064
-0.0142545
-0.0393037
-0.0744284
-0.113608
-0.153983
-0.186785
-0.208149
-0.214161
-0.206094
-0.186541
-0.161815
-0.135697
-0.113831
0.159686
0.163356
0.168201
0.172447
0.175642
0.177878
0.178997
0.178994
0.177665
0.174803
0.170022
0.162962
0.15404
0.142598
0.129295
0.113365
0.0967655
0.0792411
0.0635844
0.0486182
0.0373249
0.0280955
0.0233203
0.0203947
0.0194557
0.0168588
0.0111654
-0.0022292
-0.0243081
-0.0595415
-0.101946
-0.151667
-0.195606
-0.231415
-0.250761
-0.253418
-0.23905
-0.214751
-0.18615
-0.16119
0.166876
0.170498
0.175301
0.179448
0.182328
0.18403
0.184562
0.18383
0.181751
0.17763
0.171946
0.163538
0.153301
0.140531
0.126087
0.108934
0.0916111
0.0732872
0.0572903
0.042634
0.0313224
0.023251
0.0188548
0.0182081
0.0191701
0.0205769
0.0188778
0.0114088
-0.00606137
-0.0372895
-0.0809522
-0.138634
-0.19543
-0.248164
-0.286218
-0.305787
-0.304202
-0.285734
-0.256254
-0.226057
0.175186
0.178705
0.183297
0.187086
0.189626
0.190645
0.190472
0.18858
0.185614
0.180312
0.173139
0.163478
0.151616
0.137319
0.121362
0.103424
0.0848341
0.0664783
0.0494999
0.0356663
0.0239209
0.0170139
0.0128084
0.0138637
0.0171337
0.0225377
0.0251429
0.025083
0.0143398
-0.00825277
-0.0492412
-0.108513
-0.178355
-0.251371
-0.314688
-0.359619
-0.380816
-0.37778
-0.354961
-0.322514
0.184672
0.187862
0.192277
0.195545
0.197539
0.197757
0.196796
0.193747
0.188945
0.182452
0.17351
0.162299
0.148536
0.13297
0.114861
0.0962828
0.0763793
0.0581569
0.0406756
0.0270265
0.015568
0.00881726
0.00551934
0.00683517
0.0123309
0.0210756
0.0286876
0.0362728
0.0353775
0.0248039
-0.00656524
-0.0577115
-0.134457
-0.224689
-0.317864
-0.398526
-0.460198
-0.492043
-0.493116
-0.471424
0.19555
0.198184
0.202166
0.204821
0.205842
0.204978
0.202174
0.19809
0.191603
0.183251
0.172281
0.159439
0.143544
0.126232
0.106479
0.0867687
0.0662576
0.0476537
0.0305577
0.0166072
0.00610023
-0.000797985
-0.00353572
-0.00248914
0.00387179
0.0142976
0.027307
0.041877
0.0525181
0.0563068
0.0430554
0.00804572
-0.0573251
-0.149034
-0.260687
-0.373627
-0.48805
-0.579937
-0.642848
-0.659959
0.208041
0.209827
0.213083
0.215169
0.214978
0.212736
0.208149
0.201849
0.193034
0.182471
0.169411
0.153917
0.136231
0.116581
0.0956069
0.0744088
0.0537226
0.0346341
0.0183841
0.00452734
-0.00522728
-0.0118618
-0.0145222
-0.0138993
-0.00796749
0.0022601
0.0178312
0.0380887
0.0598083
0.0782793
0.0878466
0.0781112
0.0410491
-0.0305322
-0.127966
-0.243363
-0.380178
-0.515644
-0.651484
-0.760029
0.221946
0.222624
0.224275
0.224729
0.222777
0.21859
0.212104
0.203125
0.192024
0.178416
0.162871
0.14461
0.124818
0.103229
0.0808145
0.0585459
0.0379955
0.0189892
0.0035328
-0.00938558
-0.0185878
-0.0247225
-0.0276975
-0.0276991
-0.0233131
-0.0147664
0.000100173
0.0219692
0.0494067
0.0803494
0.110669
0.132
0.132228
0.101222
0.0389554
-0.0517154
-0.164346
-0.296032
-0.44036
-0.582348
0.238874
0.238301
0.238441
0.236654
0.232172
0.224683
0.214569
0.202073
0.187334
0.170448
0.151615
0.130904
0.108556
0.0852098
0.0617221
0.0389482
0.0183538
0.000370114
-0.0142492
-0.0253969
-0.0336902
-0.0393452
-0.0430777
-0.0443374
-0.0424176
-0.0365977
-0.0257819
-0.00712262
0.0188878
0.0522863
0.0921792
0.133614
0.168031
0.175713
0.148854
0.098139
0.0222452
-0.0720116
-0.184803
-0.309386
0.252744
0.248822
0.246222
0.241573
0.23382
0.223555
0.210112
0.193935
0.175398
0.154892
0.132578
0.109158
0.0847703
0.0600534
0.0359235
0.0134127
-0.00666608
-0.023187
-0.0359117
-0.0444889
-0.0512148
-0.0566149
-0.0616389
-0.0654062
-0.067157
-0.0659039
-0.0599973
-0.0474797
-0.0275103
-0.000996691
0.0337051
0.0744783
0.120189
0.152421
0.159565
0.142811
0.105503
0.0482194
-0.0322043
-0.121191
0.279704
0.271923
0.262628
0.250244
0.234197
0.215481
0.195037
0.172688
0.148785
0.123561
0.0974017
0.0707985
0.0442008
0.0185639
-0.00521458
-0.0260572
-0.0430689
-0.0556606
-0.0640576
-0.0688912
-0.0725701
-0.0773247
-0.0839196
-0.0908621
-0.0970704
-0.100624
-0.100403
-0.0957123
-0.0868818
-0.073504
-0.0524376
-0.0271676
0.00296829
0.0359862
0.0612348
0.0754519
0.0740351
0.0567479
0.0192854
-0.0275192
0.260861
0.24585
0.231742
0.216368
0.198688
0.177386
0.15303
0.126145
0.097907
0.0689471
0.039882
0.0113491
-0.0160261
-0.0414353
-0.0635741
-0.0806299
-0.0919378
-0.097003
-0.0975262
-0.0950751
-0.0932961
-0.0935784
-0.10104
-0.114344
-0.131049
-0.140969
-0.139131
-0.137098
-0.143705
-0.147986
-0.13901
-0.122012
-0.104699
-0.0856117
-0.0652062
-0.0499189
-0.0426433
-0.044828
-0.05752
-0.0757706
0.324606
0.295907
0.264927
0.234125
0.204107
0.172775
0.140587
0.107452
0.0745131
0.0425762
0.0128015
-0.0139282
-0.0373488
-0.0567842
-0.0719487
-0.0813618
-0.0843553
-0.0808136
-0.0725168
-0.0610547
-0.0510651
-0.0484309
-0.0599671
-0.0873413
-0.13524
-0.167052
-0.156199
-0.139353
-0.149016
-0.164681
-0.166881
-0.164262
-0.158995
-0.153337
-0.150317
-0.151978
-0.157334
-0.164901
-0.17719
-0.191957
0.0778491
0.0495647
0.016704
-0.0254693
-0.0691459
-0.112045
-0.152681
-0.191445
-0.224271
-0.249207
-0.268141
-0.284658
-0.296949
-0.301799
-0.297787
-0.286937
-0.269006
-0.244447
-0.214091
-0.18012
-0.14322
-0.109637
-0.0875267
-0.0951203
-0.138156
-0.153545
-0.156602
-0.162529
-0.166636
-0.168656
-0.167885
-0.164322
-0.160169
-0.156364
-0.152895
-0.150949
-0.151735
-0.15554
-0.163635
-0.176363
0.00640706
0.00818385
0.00725793
0.00831465
0.00820712
0.00821225
0.0074464
0.00650795
0.00531946
0.00355223
0.00197688
0.000431423
-0.00116125
-0.00247822
-0.00348232
-0.00416766
-0.00470232
-0.00502304
-0.00515888
-0.00514228
-0.00499904
-0.00476237
-0.00446592
-0.00411527
-0.00375585
-0.00337515
-0.00300559
-0.00263899
-0.00229667
-0.00198173
-0.00166557
-0.00140567
-0.00117992
-0.000994163
-0.000835983
-0.000636518
-0.000251348
-8.34982e-05
0.000843377
-0.000685138
0.00618693
0.0080944
0.0077351
0.00826868
0.00874755
0.00862056
0.00786684
0.00674921
0.00554083
0.00378557
0.00206469
0.000413298
-0.00124157
-0.00269631
-0.00364639
-0.00440773
-0.00496329
-0.00530762
-0.00546639
-0.00540001
-0.00519148
-0.0049512
-0.00467922
-0.00439843
-0.0040328
-0.00362914
-0.00323744
-0.00283414
-0.00246532
-0.00212269
-0.00181262
-0.00156405
-0.0013454
-0.00116456
-0.000963878
-0.000715925
-0.000451187
-0.000229892
-0.000269142
-0.00195475
0.00796178
0.00817065
0.00810697
0.00845054
0.00925471
0.00908212
0.008359
0.00712683
0.00580289
0.00400025
0.00213378
0.000392231
-0.00135488
-0.00289523
-0.00381566
-0.00466275
-0.00526035
-0.00563307
-0.00578638
-0.00567029
-0.00544783
-0.00525976
-0.00501959
-0.00470472
-0.00431048
-0.0039259
-0.00351015
-0.00309066
-0.00272559
-0.00236586
-0.00205062
-0.00179456
-0.00157151
-0.00136355
-0.00111388
-0.000853199
-0.000597214
-0.00019941
0.000363691
0.000848988
0.00661987
0.00827317
0.00844063
0.00878864
0.00971636
0.00958343
0.00891369
0.00761471
0.00613241
0.00421767
0.0021994
0.000442768
-0.00149014
-0.00300089
-0.00403156
-0.00498301
-0.00563017
-0.00599008
-0.00609697
-0.00601626
-0.00585193
-0.00568262
-0.00540588
-0.00503908
-0.00465458
-0.0042537
-0.00379029
-0.0033793
-0.00302121
-0.00264616
-0.0023202
-0.00203843
-0.0017898
-0.00154472
-0.00126412
-0.000995321
-0.000755035
-0.000570044
-0.000554828
-0.00122281
0.00853528
0.00844316
0.00879791
0.00924251
0.01022
0.0101613
0.00952966
0.00820023
0.00654
0.00445389
0.0022903
0.000528001
-0.0015917
-0.00308543
-0.00429805
-0.00530793
-0.00597137
-0.00631848
-0.00642922
-0.00642623
-0.00632129
-0.00612505
-0.00579912
-0.0054165
-0.00506015
-0.0046204
-0.00412384
-0.00373131
-0.00335762
-0.00296971
-0.00262141
-0.00229334
-0.00200351
-0.00171804
-0.00142123
-0.00114323
-0.000886643
-0.000572503
-6.67279e-05
0.000675769
0.00741302
0.00852237
0.00917893
0.00975436
0.0107693
0.0108185
0.0102075
0.00886346
0.00700408
0.00472468
0.00244048
0.000562452
-0.00155096
-0.00320246
-0.00455855
-0.00558321
-0.00626552
-0.00661656
-0.00681332
-0.00686398
-0.00674699
-0.00648673
-0.006132
-0.00578934
-0.00546963
-0.00500834
-0.00452924
-0.00416678
-0.00377743
-0.00337449
-0.00297856
-0.00259288
-0.00225171
-0.00192566
-0.00162051
-0.00132366
-0.00107603
-0.000911657
-0.000875432
-0.00109036
0.00854974
0.00862645
0.00957488
0.0103147
0.0113867
0.0115379
0.0109563
0.00961182
0.00751393
0.00505761
0.00270756
0.000598145
-0.00142022
-0.00333102
-0.00477987
-0.00581025
-0.00654066
-0.00700254
-0.00726651
-0.00729922
-0.00712201
-0.00681089
-0.00644064
-0.00612058
-0.00578858
-0.00533892
-0.00495296
-0.00463724
-0.00424115
-0.00382727
-0.00338537
-0.002954
-0.00256264
-0.00220439
-0.00187634
-0.0015572
-0.00128007
-0.000970305
-0.000474837
0.000145407
0.0082176
0.00877422
0.00997005
0.0109402
0.0120447
0.0123546
0.0117877
0.0104309
0.0080747
0.0054429
0.00308747
0.000676396
-0.00131185
-0.00340813
-0.00497573
-0.00605584
-0.006851
-0.00740441
-0.0076799
-0.00767952
-0.00750172
-0.00719835
-0.00682046
-0.00648293
-0.00609877
-0.00566766
-0.00537118
-0.00507961
-0.00469554
-0.00427989
-0.00380731
-0.00334523
-0.00291705
-0.00253799
-0.00217904
-0.00183326
-0.00152593
-0.00128672
-0.00117673
-0.00116284
0.00865189
0.00891433
0.0103585
0.0115602
0.0127343
0.0132441
0.0126913
0.0112552
0.00873096
0.00588964
0.00352061
0.000880162
-0.00126775
-0.0034369
-0.00512538
-0.00632492
-0.0071996
-0.0077543
-0.00801273
-0.00804439
-0.00794222
-0.00767922
-0.00735093
-0.00700293
-0.00652302
-0.00607804
-0.00581001
-0.00551553
-0.00513496
-0.00470686
-0.0042162
-0.00372726
-0.00328038
-0.00289006
-0.00250911
-0.00214093
-0.00179066
-0.0014356
-0.000966124
-0.000480228
0.00825326
0.0091022
0.0107562
0.0122022
0.0134977
0.0141861
0.0136539
0.0120358
0.00955791
0.00635253
0.00397366
0.00117141
-0.00124681
-0.00343385
-0.00523812
-0.00656391
-0.00750078
-0.00807771
-0.00838565
-0.00849273
-0.00841743
-0.00819239
-0.00795311
-0.00762772
-0.00709561
-0.00666174
-0.00636333
-0.00600032
-0.00556771
-0.00510987
-0.00460414
-0.0041033
-0.00365656
-0.00325365
-0.00286405
-0.00248072
-0.0021194
-0.0017916
-0.00153673
-0.00138134
0.00841529
0.00919189
0.0111023
0.0128406
0.0142668
0.0152036
0.0146776
0.0128029
0.0105952
0.00680239
0.00443418
0.00148815
-0.0011951
-0.00341237
-0.00529764
-0.00669255
-0.00775951
-0.00843642
-0.00884341
-0.00899804
-0.00890394
-0.00872416
-0.00856458
-0.00826712
-0.00776969
-0.00737779
-0.00701873
-0.00654337
-0.0060413
-0.00554939
-0.00503266
-0.00453369
-0.00408654
-0.00366501
-0.00327731
-0.00288683
-0.00251186
-0.00211597
-0.00159568
-0.00108269
0.00799256
0.00928223
0.0113671
0.0134536
0.0150708
0.0162829
0.0157121
0.0134333
0.0114885
0.00756572
0.00481695
0.00187539
-0.00100977
-0.00331975
-0.00524978
-0.0067771
-0.00802746
-0.0088441
-0.00935542
-0.00956153
-0.00946377
-0.00933719
-0.00918426
-0.0088703
-0.00846264
-0.00813952
-0.00772634
-0.00716964
-0.00662123
-0.00608496
-0.00553532
-0.00503335
-0.00458188
-0.0041369
-0.0037361
-0.00331642
-0.00291368
-0.00247958
-0.00203502
-0.00167763
0.00774137
0.00934019
0.011564
0.0140339
0.015901
0.01739
0.0167963
0.0141759
0.0120171
0.00830059
0.00525231
0.00240189
-0.000627058
-0.0031104
-0.00512245
-0.00695611
-0.00831737
-0.00926683
-0.00986051
-0.0101286
-0.0101123
-0.010078
-0.00992378
-0.00961613
-0.00924527
-0.00894952
-0.00846479
-0.0078646
-0.00727418
-0.00668167
-0.00610032
-0.00558378
-0.00509566
-0.00461363
-0.00418226
-0.00373018
-0.00330289
-0.0027992
-0.00225606
-0.00187493
0.00734506
0.00932619
0.0116501
0.0145257
0.0167149
0.0184952
0.0180191
0.0149964
0.0125461
0.00909924
0.00598247
0.00299299
-0.000121959
-0.00284824
-0.00507728
-0.00717848
-0.00860281
-0.00964991
-0.0103235
-0.0106925
-0.0108673
-0.0109759
-0.010885
-0.0105573
-0.0101684
-0.00983684
-0.00925904
-0.00863608
-0.0079945
-0.0073455
-0.00672632
-0.00617846
-0.00564523
-0.00513523
-0.00467181
-0.00418351
-0.0037146
-0.00317055
-0.00263959
-0.0023234
0.0066056
0.00913143
0.011614
0.0149286
0.0174706
0.0195988
0.019441
0.0158547
0.0131492
0.0101181
0.00692639
0.00367014
0.000307786
-0.00258114
-0.00499778
-0.0073051
-0.00888762
-0.0100382
-0.0108109
-0.0113352
-0.01171
-0.0119448
-0.0119189
-0.0115989
-0.0112437
-0.0108138
-0.0101524
-0.00950804
-0.00881571
-0.00813385
-0.0074979
-0.00693657
-0.00638288
-0.00586522
-0.00535391
-0.00479768
-0.00425019
-0.00367035
-0.00317392
-0.00288016
0.00590166
0.00864418
0.0113543
0.0151178
0.0180338
0.0206681
0.0211127
0.0169834
0.0136896
0.0112254
0.00815359
0.0046638
0.000983155
-0.0020859
-0.00493735
-0.00736834
-0.00915459
-0.0104596
-0.0114057
-0.0120939
-0.0126099
-0.0128813
-0.0129196
-0.0126853
-0.0123666
-0.0118395
-0.0111458
-0.0105068
-0.0097815
-0.00910676
-0.00847071
-0.00792228
-0.00735411
-0.00680582
-0.00620187
-0.00554999
-0.00489147
-0.00425215
-0.00375813
-0.00346921
0.00447799
0.00782605
0.0107519
0.0149807
0.0184115
0.0215903
0.0230438
0.018729
0.0143027
0.0124802
0.00973776
0.00611664
0.00212737
-0.00142155
-0.00480173
-0.0072669
-0.00938388
-0.0109446
-0.0121435
-0.0129711
-0.0136143
-0.0138814
-0.0139407
-0.0137249
-0.0134236
-0.012849
-0.0121878
-0.0115516
-0.0108075
-0.0101606
-0.00951315
-0.0089511
-0.0083086
-0.00768515
-0.00697277
-0.0062522
-0.00550744
-0.0048373
-0.00431987
-0.0040618
0.00314957
0.0066249
0.00969992
0.0143991
0.018524
0.0222744
0.0252043
0.0213884
0.0153502
0.0141597
0.0116911
0.00793394
0.00345401
-0.000551782
-0.00436071
-0.00711354
-0.00958378
-0.0114819
-0.0129906
-0.0140458
-0.0148137
-0.0150489
-0.0150442
-0.0147933
-0.0144828
-0.0138688
-0.0132487
-0.0125699
-0.0118242
-0.0111513
-0.0104574
-0.00983705
-0.00912516
-0.00844379
-0.00768427
-0.0069612
-0.00621452
-0.00554549
-0.00497864
-0.00473735
0.000809972
0.004811
0.00809294
0.0132044
0.0182574
0.0226835
0.0274795
0.0249118
0.0174016
0.0164963
0.0140681
0.0101531
0.00505315
0.000499224
-0.00382106
-0.00694043
-0.00971548
-0.0120576
-0.0138837
-0.015208
-0.0160491
-0.0163052
-0.0163008
-0.0160535
-0.015687
-0.0150323
-0.0144238
-0.0136494
-0.0129272
-0.0122241
-0.0115397
-0.0108923
-0.0101771
-0.00949585
-0.00874434
-0.00800241
-0.00723234
-0.00653104
-0.00588429
-0.00557131
-0.00214539
0.0021044
0.00552457
0.0110801
0.0173498
0.0226682
0.0294474
0.0293435
0.0207288
0.0197043
0.01706
0.0127879
0.00692508
0.00165674
-0.00318647
-0.00666085
-0.00986903
-0.0126568
-0.0147056
-0.0162725
-0.017187
-0.0175593
-0.0176441
-0.0174597
-0.0170549
-0.0164342
-0.0158003
-0.0150039
-0.0143762
-0.013693
-0.0130861
-0.012445
-0.011751
-0.0110255
-0.0102034
-0.0093577
-0.00849136
-0.00769542
-0.0069524
-0.00657959
-0.00652829
-0.00195635
0.00152865
0.00754374
0.0153274
0.0221089
0.0309364
0.0344124
0.0254844
0.0239966
0.0207988
0.015859
0.00914098
0.00302434
-0.00227349
-0.00632952
-0.0101244
-0.0132752
-0.0155968
-0.0173621
-0.0183372
-0.0188629
-0.0190218
-0.0188942
-0.018504
-0.0179834
-0.0173548
-0.0166356
-0.016027
-0.0153882
-0.0148133
-0.014113
-0.013366
-0.0125278
-0.011607
-0.0106538
-0.00972066
-0.00884957
-0.00807458
-0.00769254
-0.0120034
-0.00743877
-0.00438732
0.00195088
0.0115352
0.0206364
0.0315633
0.0396726
0.0322866
0.0294539
0.0254046
0.0194689
0.0119798
0.00485488
-0.00103136
-0.00603511
-0.0104711
-0.0140358
-0.0167019
-0.0186321
-0.0197342
-0.0203545
-0.0205313
-0.0204249
-0.0200234
-0.0195287
-0.0188861
-0.0181865
-0.017498
-0.0168341
-0.0161734
-0.0153959
-0.0146043
-0.0137267
-0.0128154
-0.0118669
-0.0109548
-0.010086
-0.00930881
-0.00888678
-0.0196263
-0.0150442
-0.0126535
-0.00611565
0.00519439
0.0175526
0.0311843
0.0436666
0.0413585
0.0364422
0.0313343
0.0240742
0.0158426
0.00754348
0.000662292
-0.00556073
-0.0106945
-0.0148439
-0.0179355
-0.0200662
-0.0213548
-0.022052
-0.0222816
-0.0222062
-0.0217851
-0.021226
-0.020497
-0.0197188
-0.0189433
-0.0182387
-0.017502
-0.0167228
-0.0159583
-0.0151216
-0.0142344
-0.0133047
-0.0124
-0.0115163
-0.0107013
-0.0102334
-0.0304889
-0.0260938
-0.0247555
-0.01792
-0.00490817
0.0116466
0.0291559
0.0466515
0.0497964
0.0452963
0.0390671
0.0301067
0.0208157
0.0111743
0.00292244
-0.00447408
-0.0105463
-0.0153523
-0.018883
-0.0213158
-0.0229677
-0.0238873
-0.024356
-0.0244529
-0.0240566
-0.0234592
-0.0226813
-0.0218536
-0.0210822
-0.0203636
-0.0195992
-0.0187992
-0.0179511
-0.0170366
-0.016049
-0.0150513
-0.0141006
-0.013172
-0.012278
-0.0117672
-0.0450793
-0.0424893
-0.0432961
-0.036311
-0.0210705
0.000776189
0.0241519
0.0470638
0.0567219
0.0552258
0.0480297
0.0371281
0.0262861
0.0152438
0.00559449
-0.00274344
-0.00976946
-0.0152269
-0.0192633
-0.0222037
-0.0243983
-0.0257057
-0.0266051
-0.0269155
-0.0266451
-0.0261308
-0.0254014
-0.0246853
-0.0239688
-0.0231848
-0.0223079
-0.0213459
-0.020349
-0.0192968
-0.0181916
-0.0171229
-0.0161019
-0.0151027
-0.0141377
-0.0135886
-0.064606
-0.0651951
-0.0703447
-0.0649799
-0.0471199
-0.018743
0.0137384
0.0434294
0.061246
0.0645108
0.0575215
0.0445277
0.0316951
0.0194004
0.00833661
-0.000957804
-0.00871223
-0.0148423
-0.0193934
-0.0228587
-0.0255299
-0.0272118
-0.0284604
-0.0289634
-0.0289725
-0.0287053
-0.0281788
-0.027624
-0.0268819
-0.0260643
-0.0251427
-0.0241109
-0.0230654
-0.0219595
-0.0208544
-0.0197733
-0.0186958
-0.0175773
-0.0164657
-0.015827
-0.0981078
-0.100852
-0.113255
-0.109962
-0.0889607
-0.0523562
-0.00672476
0.033551
0.0611414
0.0719628
0.066717
0.0522025
0.0372287
0.0232064
0.0107199
0.000347577
-0.00809492
-0.0148156
-0.0198186
-0.0236772
-0.0266877
-0.0286268
-0.0301928
-0.0310034
-0.031385
-0.0313792
-0.0310901
-0.0306901
-0.0300075
-0.0293231
-0.028483
-0.0275112
-0.0265199
-0.0254262
-0.0243223
-0.0231743
-0.0219712
-0.0206763
-0.0193807
-0.0186124
-0.146842
-0.158111
-0.185405
-0.185129
-0.159597
-0.107984
-0.0435976
0.0130289
0.0535838
0.0750541
0.0736563
0.0589354
0.0425801
0.0267438
0.0128278
0.00137792
-0.00796213
-0.0153842
-0.0209471
-0.0253268
-0.0287713
-0.0311382
-0.033116
-0.0342053
-0.0348807
-0.035024
-0.0349132
-0.034676
-0.0341225
-0.0335495
-0.0327016
-0.0317449
-0.0306989
-0.029478
-0.0282595
-0.0269474
-0.0256216
-0.0242257
-0.0228581
-0.022016
-0.208007
-0.23874
-0.291393
-0.304047
-0.265392
-0.190793
-0.101752
-0.0233347
0.0346712
0.0693082
0.075145
0.0620295
0.0461167
0.0294406
0.0147669
0.00224665
-0.00814653
-0.0163918
-0.0228016
-0.0279876
-0.0321647
-0.0350214
-0.0373238
-0.0385479
-0.0394246
-0.0396595
-0.0396009
-0.0393443
-0.0387491
-0.0381283
-0.0371077
-0.036067
-0.0348072
-0.0334533
-0.0321425
-0.0307457
-0.0294363
-0.0280103
-0.0266559
-0.0258012
-0.301557
-0.362403
-0.446566
-0.465112
-0.406513
-0.297737
-0.17981
-0.0775543
0.00063395
0.0511939
0.0667655
0.0579258
0.0449995
0.0291593
0.0148516
0.0017342
-0.00903632
-0.0181571
-0.0253248
-0.031116
-0.035771
-0.0388476
-0.0414064
-0.0426854
-0.0436291
-0.0438117
-0.0438488
-0.0435069
-0.0428949
-0.0422511
-0.0411331
-0.0401528
-0.0388191
-0.0375839
-0.0362593
-0.0349023
-0.0335389
-0.0320071
-0.0307901
-0.0300734
-0.483947
-0.570034
-0.673064
-0.681122
-0.585518
-0.424559
-0.271858
-0.144495
-0.0455563
0.0197913
0.0437738
0.0425777
0.0352252
0.0223103