/*--------------------------------*- C++ -*----------------------------------*\
  =========                 |
  \\      /  F ield         | OpenFOAM: The Open Source CFD Toolbox
   \\    /   O peration     | Website:  https://openfoam.org
    \\  /    A nd           | Version:  11
     \\/     M anipulation  |
\*---------------------------------------------------------------------------*/
FoamFile
{
    format      ascii;
    class       surfaceScalarField;
    location    "3.5";
    object      phi;
}
// * * * * * * * * * * * * * * * * * * * * * * * * * * * * * * * * * * * * * //

dimensions      [0 3 -1 0 0 0 0];

internalField   nonuniform List<scalar> 
18960
(
0.0478131
0.000527376
-0.0483405
0.0473182
0.000494907
0.0466838
0.000634477
0.0459924
0.000691397
0.0455039
0.000488411
0.0451873
0.000316624
0.0446603
0.000527039
0.0432352
0.00142508
0.04102
0.00221525
0.0391145
0.00190542
0.038266
0.000848559
0.0382001
6.59324e-05
0.0386806
-0.000480501
0.0399629
-0.00128238
0.0417456
-0.00178271
0.0433835
-0.00163785
0.0449687
-0.00158522
0.0464314
-0.0014627
0.047913
-0.00148159
0.0494612
-0.00154817
0.050798
-0.00133687
0.0520626
-0.00126455
0.0532081
-0.00114552
0.0537654
-0.000557256
0.0537208
4.45462e-05
0.0532913
0.000429481
0.0524968
0.000794573
0.051385
0.00111179
0.0500319
0.00135307
0.0487539
0.00127802
0.0476926
0.00106127
0.0469009
0.000791678
0.0464425
0.000458454
0.0462932
0.000149296
0.0464654
-0.000172187
0.0468722
-0.000406841
0.0471877
-0.000315468
0.0477585
-0.000570819
0.0482594
-0.000500869
-0.000739477
0.0489988
0.0481029
0.000810779
-0.0483863
0.0477925
0.000805334
0.0474798
0.000947098
0.0471895
0.000981737
0.0468896
0.000788292
0.0464741
0.000732127
0.0459171
0.00108409
0.04511
0.00223212
0.0441311
0.00319414
0.0432517
0.00278481
0.0427151
0.00138515
0.0426053
0.000175782
0.0428068
-0.000682008
0.0434525
-0.00192807
0.044434
-0.00276419
0.045537
-0.00274092
0.0467037
-0.00275186
0.0479995
-0.00275855
0.0494501
-0.0029321
0.0509702
-0.00306827
0.0523523
-0.00271899
0.0536725
-0.00258482
0.054892
-0.002365
0.0558032
-0.0014684
0.0561184
-0.000270728
0.0561458
0.000402159
0.0558429
0.00109741
0.0552216
0.00173308
0.0542982
0.00227646
0.0532745
0.00230181
0.0521955
0.00214023
0.0512543
0.00173288
0.0503591
0.00135364
0.0495335
0.000974897
0.0487831
0.000578199
0.0481279
0.000248421
0.0477889
2.34644e-05
0.0474222
-0.000204047
0.0471901
-0.000268813
-0.000877476
0.0473281
0.047966
0.00116354
-0.0483187
0.0475933
0.00117803
0.0471542
0.00138619
0.046652
0.00148388
0.0461116
0.00132871
0.0455715
0.00127221
0.0450405
0.0016151
0.0443201
0.00295252
0.043646
0.00386821
0.0429708
0.00346002
0.0424775
0.00187847
0.0424647
0.000188613
0.0430309
-0.00124827
0.0440242
-0.00292132
0.0451582
-0.00389825
0.0462342
-0.00381689
0.0473051
-0.00382272
0.0484265
-0.00387998
0.0495326
-0.00403817
0.0507759
-0.00431159
0.0520418
-0.00398494
0.0531122
-0.00365519
0.0540811
-0.00333393
0.0549201
-0.00230738
0.0553159
-0.000666563
0.0551852
0.000532899
0.0547288
0.00155382
0.0539632
0.00249871
0.0529003
0.00333936
0.051819
0.00338308
0.0507572
0.00320201
0.0498631
0.00262701
0.049303
0.00191374
0.0489254
0.0013525
0.0489576
0.000545958
0.0491226
8.34051e-05
0.0494205
-0.000274404
0.0497991
-0.000582669
0.0502667
-0.000736396
-0.000940306
0.0503295
0.0478933
0.00151127
-0.048241
0.0475436
0.00152771
0.0471301
0.00179964
0.0467149
0.00189915
0.0463479
0.00169567
0.045978
0.00164207
0.0454092
0.00218398
0.0447979
0.00356382
0.0444232
0.00424289
0.0441484
0.00373475
0.0440278
0.00199913
0.0442859
-6.9457e-05
0.044939
-0.00190138
0.0456837
-0.00366606
0.0463133
-0.0045278
0.0469924
-0.00449605
0.047801
-0.00463126
0.0487389
-0.00481797
0.0498012
-0.00510045
0.0510434
-0.00555374
0.0522884
-0.00522996
0.0535052
-0.00487203
0.0545591
-0.00438775
0.0556269
-0.00337523
0.056291
-0.00133067
0.0565033
0.000320573
0.0563918
0.00166536
0.0559856
0.00290494
0.0552898
0.00403517
0.0543669
0.00430599
0.0533735
0.00419532
0.0523576
0.00364298
0.0514082
0.00286313
0.050448
0.00231269
0.049499
0.00149498
0.0487801
0.000802291
0.0481297
0.000376008
0.0478193
-0.000272281
0.0476362
-0.000553325
-0.00126057
0.0479565
0.0478102
0.00187251
-0.0481714
0.0474249
0.00191299
0.046978
0.0022465
0.0465667
0.0023105
0.0461668
0.00209551
0.0456491
0.0021598
0.0450316
0.00280147
0.0446904
0.00390508
0.0446752
0.00425807
0.044799
0.00361094
0.0448094
0.00198874
0.0448938
-0.00015392
0.0452116
-0.00221909
0.0457091
-0.0041636
0.0463455
-0.00516423
0.0471546
-0.00530516
0.0480493
-0.00552591
0.0490099
-0.00577862
0.0499554
-0.0060459
0.0509481
-0.00654643
0.0520626
-0.0063445
0.0531201
-0.00592952
0.0539521
-0.00521974
0.0547135
-0.00413669
0.0553567
-0.00197382
0.0555744
0.000102836
0.0553857
0.00185411
0.0549677
0.0033229
0.054269
0.00473391
0.0533908
0.00518414
0.0524264
0.00515973
0.0515077
0.00456171
0.0507536
0.00361727
0.0502403
0.00282598
0.0500187
0.00171658
0.049985
0.000835938
0.0500987
0.000262352
0.050204
-0.000377627
0.0504292
-0.000778465
-0.00125342
0.050422
0.0477098
0.00226081
-0.0480981
0.0473004
0.00232238
0.0468706
0.00267629
0.0465088
0.00267229
0.0460865
0.00251779
0.0455729
0.00267339
0.0451075
0.00326686
0.0449394
0.00407322
0.0450058
0.00419163
0.0451386
0.00347813
0.0452716
0.00185574
0.0455954
-0.000477709
0.0461784
-0.00280206
0.0468046
-0.00478984
0.047354
-0.00571358
0.0479762
-0.0059274
0.0486382
-0.00618792
0.0494305
-0.00657085
0.0502955
-0.00691097
0.0512711
-0.00752196
0.0523281
-0.00740152
0.0533944
-0.00699585
0.0543517
-0.00617699
0.0553558
-0.00514085
0.0562758
-0.00289383
0.0567824
-0.000403696
0.056889
0.00174747
0.0566465
0.00356544
0.0561189
0.00526146
0.0553067
0.00599641
0.0543571
0.00610931
0.0533508
0.00556796
0.0524263
0.00454183
0.0515368
0.00371541
0.050538
0.00271546
0.0497415
0.00163238
0.0489728
0.00103103
0.0484741
0.000121148
0.0481603
-0.000464752
-0.00147218
0.0483791
0.0476085
0.00267609
-0.0480238
0.0471995
0.00273138
0.0468013
0.0030745
0.0464194
0.00305414
0.0459764
0.00296079
0.0454839
0.00316594
0.0451565
0.00359429
0.0451018
0.00412785
0.0452289
0.0040645
0.0454098
0.00329725
0.045694
0.00157161
0.0461342
-0.00091791
0.0465821
-0.00324997
0.0469471
-0.00515485
0.0473277
-0.0060942
0.0479006
-0.00650034
0.048603
-0.00689025
0.049434
-0.0074019
0.0503018
-0.00777873
0.0512111
-0.00843126
0.0521614
-0.00835181
0.0531617
-0.0079962
0.0540318
-0.00704705
0.0547087
-0.00581775
0.0553733
-0.00355847
0.0559231
-0.000953484
0.0560772
0.00159339
0.0559972
0.00364539
0.0556295
0.00562921
0.0550044
0.00662147
0.0541888
0.00692496
0.0532643
0.00649249
0.0523473
0.0054588
0.0516786
0.00438415
0.0512052
0.00318885
0.0509828
0.0018548
0.0510053
0.00100851
0.0508983
0.000228138
0.0508203
-0.000386774
-0.00130804
0.0506562
0.0475003
0.00309749
-0.0479217
0.0470844
0.00314723
0.0467039
0.00345498
0.0463192
0.00343888
0.0458637
0.00341625
0.045483
0.00354671
0.0452568
0.00382045
0.0452556
0.00412902
0.0454129
0.00390726
0.0456028
0.0031073
0.0459985
0.00117596
0.0465472
-0.00146664
0.0470817
-0.00378441
0.0475663
-0.00563951
0.0480392
-0.00656703
0.0485903
-0.00705147
0.0491799
-0.00747983
0.0499034
-0.00812541
0.0506601
-0.00853549
0.0514858
-0.00925692
0.0523954
-0.00926144
0.0533424
-0.00894315
0.0542445
-0.00794921
0.0551887
-0.00676192
0.0562174
-0.00458718
0.0569535
-0.00168961
0.057356
0.00119092
0.0573282
0.00367324
0.0570284
0.00592892
0.0564047
0.0072452
0.0555664
0.0077633
0.0546024
0.00745646
0.0536712
0.00639001
0.0528198
0.00523554
0.0518387
0.00416993
0.0508962
0.00279731
0.050051
0.00185368
0.0494632
0.000816014
0.0490021
7.42976e-05
-0.00128417
0.0489782
0.0474048
0.00351506
-0.0478223
0.0469884
0.00356358
0.0466148
0.00382861
0.0462232
0.0038305
0.0458116
0.00382781
0.0455065
0.00385179
0.0453734
0.00395358
0.0454325
0.00406991
0.045564
0.00377579
0.0458151
0.0028562
0.0462983
0.000692719
0.0468616
-0.00202994
0.0473339
-0.00425668
0.0477751
-0.00608073
0.0481735
-0.00696543
0.0486935
-0.00757143
0.0492672
-0.00805352
0.0499455
-0.0088038
0.0506875
-0.00927747
0.0514523
-0.0100217
0.0522783
-0.0100874
0.0531946
-0.00985939
0.0541066
-0.00886122
0.0548504
-0.00750572
0.0555031
-0.00523995
0.0562382
-0.00242469
0.0567026
0.000726532
0.0569377
0.00343812
0.0568886
0.00597806
0.0565371
0.00759667
0.0559211
0.00837931
0.0551086
0.00826896
0.0541021
0.00739646
0.0532559
0.00608178
0.0525969
0.00482891
0.0521566
0.00323765
0.0519412
0.00206907
0.0518217
0.00093554
0.0515293
0.000366637
-0.0010291
0.0512743
0.047292
0.00392862
-0.0477056
0.0468895
0.00396614
0.0465096
0.00420842
0.046116
0.0042241
0.045791
0.00415287
0.045577
0.00406572
0.0455012
0.00402941
0.0455549
0.00401626
0.0457083
0.00362231
0.0460486
0.00251594
0.0465747
0.000166592
0.047063
-0.00251826
0.0474887
-0.00468236
0.0479699
-0.00656194
0.0485014
-0.00749693
0.0491036
-0.00817362
0.049694
-0.00864385
0.0503378
-0.00944765
0.0510354
-0.00997503
0.0517147
-0.0107011
0.0524822
-0.0108548
0.0533046
-0.0106818
0.0541738
-0.00973042
0.0550853
-0.00841722
0.0561216
-0.00627633
0.057065
-0.00336803
0.0577419
4.95579e-05
0.0580626
0.00311748
0.0580413
0.00599938
0.0576618
0.00797613
0.0570356
0.0090055
0.0562267
0.00907792
0.0553157
0.00830743
0.0544448
0.00695265
0.0534736
0.00580008
0.0524015
0.0043098
0.0514187
0.00305182
0.050749
0.00160529
0.0501559
0.00095975
-0.000772356
0.0498991
0.0471865
0.00434678
-0.0476047
0.0467856
0.00436712
0.0464221
0.00457184
0.0460716
0.00457466
0.0458025
0.00442195
0.045643
0.00422525
0.0455916
0.00408076
0.0456866
0.0039213
0.0458989
0.00340997
0.0462952
0.00211969
0.0467812
-0.000319421
0.0472964
-0.00303349
0.0477354
-0.00512142
0.0481762
-0.00700268
0.048643
-0.00796372
0.0492271
-0.00875774
0.0498227
-0.00923949
0.0504719
-0.0100968
0.0511367
-0.0106398
0.0517915
-0.0113559
0.0524476
-0.0115109
0.0532435
-0.0114777
0.0541325
-0.0106194
0.0549767
-0.00926143
0.0557119
-0.00701152
0.0565128
-0.00416895
0.0572842
-0.000721801
0.0578235
0.00257818
0.0580856
0.0057372
0.0579823
0.00807952
0.0575602
0.00942758
0.0569254
0.00971269
0.0560063
0.00922656
0.0550469
0.007912
0.0542129
0.00663409
0.0536094
0.00491334
0.053136
0.00352518
0.0528682
0.00187308
0.0525001
0.00132784
-0.000485178
0.052213
0.0470689
0.00475417
-0.0474763
0.046693
0.00474301
0.0463256
0.00493927
0.0460396
0.00486065
0.0458428
0.00461881
0.0457265
0.00434148
0.0457178
0.00408949
0.0458493
0.00378985
0.0460771
0.0031821
0.0465209
0.00167594
0.0470233
-0.000821818
0.0475062
-0.00351643
0.0478593
-0.00547447
0.0482281
-0.00737148
0.0487265
-0.00846211
0.0494163
-0.0094476
0.0501137
-0.00993683
0.0507954
-0.0107785
0.0514724
-0.0113169
0.0521166
-0.0120001
0.0527503
-0.0121446
0.0534469
-0.0121744
0.0542148
-0.0113873
0.0550444
-0.010091
0.0560599
-0.00802702
0.0571609
-0.00526998
0.0581212
-0.00168215
0.0587845
0.00191492
0.0590993
0.00542238
0.0590757
0.00810311
0.0587236
0.00977971
0.0581399
0.0102964
0.0573085
0.010058
0.0564496
0.00877086
0.055483
0.00760069
0.0543884
0.00600797
0.0532235
0.00469006
0.0523734
0.00272323
0.0516027
0.00209851
-1.5849e-05
0.0511334
0.0469837
0.00515196
-0.0473814
0.0466094
0.00511721
0.0462865
0.0052622
0.0460588
0.00508838
0.0458842
0.00479341
0.0458202
0.00440547
0.0458592
0.00405046
0.0459797
0.00366939
0.0462315
0.00293033
0.0467651
0.00114225
0.0472639
-0.00132054
0.0476583
-0.00391088
0.0479854
-0.00580156
0.0483774
-0.00776344
0.048843
-0.00892775
0.0494938
-0.0100984
0.0501729
-0.0106159
0.0508821
-0.0114877
0.0515693
-0.0120041
0.0522269
-0.0126577
0.0528186
-0.0127363
0.0534362
-0.0127919
0.0542045
-0.0121556
0.0551134
-0.0109998
0.055961
-0.00887461
0.0568275
-0.00613652
0.057798
-0.00265262
0.0586547
0.0010582
0.0592333
0.00484382
0.0594534
0.00788292
0.0592657
0.00996742
0.0588485
0.0107136
0.0581205
0.010786
0.0571776
0.00971369
0.0562015
0.00857684
0.0554329
0.00677655
0.0547288
0.00539418
0.0542687
0.00318332
0.0538039
0.00256335
0.000423354
0.0533647
0.0468777
0.00552638
-0.0472522
0.046529
0.00546597
0.046266
0.00552521
0.0460772
0.00527717
0.0459584
0.00491219
0.0459325
0.00443141
0.0459856
0.00399734
0.0461307
0.00352428
0.0464525
0.00260848
0.0470172
0.000577564
0.0474749
-0.00177821
0.0478454
-0.00428142
0.0481515
-0.00610762
0.0484641
-0.00807606
0.0488407
-0.00930432
0.0494375
-0.0106952
0.0501671
-0.0113455
0.0509527
-0.0122733
0.0517392
-0.0127906
0.0524572
-0.0133758
0.0531202
-0.0133992
0.0537649
-0.0134366
0.0544437
-0.0128344
0.0551845
-0.0117406
0.0561367
-0.00982681
0.0572571
-0.00725694
0.0584179
-0.00381334
0.0594288
4.72773e-05
0.0601644
0.00410823
0.060557
0.00749031
0.060537
0.00998735
0.0601922
0.0110584
0.0595232
0.0114549
0.0587416
0.0104954
0.0578449
0.00947356
0.0568433
0.00777807
0.0555661
0.00667143
0.0544753
0.00427415
0.0534705
0.00356808
0.00110539
0.0527885
0.0468228
0.00588035
-0.0471768
0.0465064
0.00578236
0.0462928
0.00573879
0.0461166
0.00545337
0.0460326
0.00499622
0.0460449
0.00441912
0.0460991
0.00394315
0.0462674
0.00335599
0.0466436
0.00223224
0.0472223
-1.06724e-06
0.0476848
-0.00224075
0.0480226
-0.00461927
0.0482582
-0.00634322
0.0485297
-0.00834752
0.0488883
-0.00966295
0.0494498
-0.0112566
0.0501537
-0.0120494
0.0509585
-0.0130782
0.0516777
-0.0135097
0.0524313
-0.0141294
0.0531452
-0.0141131
0.0537863
-0.0140777
0.0544452
-0.0134933
0.0552927
-0.0125882
0.0562395
-0.0107736
0.0571965
-0.00821394
0.0582531
-0.00486989
0.0593832
-0.00108287
0.0603105
0.00318092
0.0609585
0.00684236
0.061129
0.00981685
0.0609311
0.0112563
0.0603973
0.0119887
0.0596483
0.0112444
0.058645
0.0104768
0.0577795
0.00864356
0.0569017
0.00754922
0.056215
0.00496094
0.0555834
0.00419964
0.00172396
0.0549648
0.0467305
0.00619653
-0.0470467
0.0464574
0.00605547
0.0462909
0.00590524
0.0461698
0.00557447
0.0461131
0.00505289
0.0461347
0.00439752
0.0461783
0.00389964
0.0464234
0.00311083
0.0468605
0.00179514
0.0474638
-0.000604311
0.0478984
-0.00267544
0.0482026
-0.00492346
0.0484733
-0.00661385
0.048754
-0.00862823
0.049042
-0.00995094
0.0494967
-0.0117113
0.0500666
-0.0126193
0.0507871
-0.0137987
0.0515507
-0.0142732
0.0523296
-0.0149084
0.0531272
-0.0149107
0.0539037
-0.0148542
0.0546773
-0.0142669
0.0555033
-0.0134141
0.0564201
-0.0116904
0.0575626
-0.00935645
0.0587919
-0.0060992
0.0600421
-0.00233308
0.061172
0.00205098
0.0620215
0.00599289
0.0624092
0.00942917
0.0624543
0.0112113
0.0620424
0.0124006
0.0613662
0.0119206
0.0604717
0.0113714
0.0596025
0.00951269
0.0584235
0.00872822
0.0572138
0.00617066
0.0559858
0.00542761
0.00259032
0.0551195
0.0467291
0.00648169
-0.0470142
0.0465041
0.00628037
0.0463324
0.00607694
0.0462442
0.00566268
0.0461938
0.00510335
0.0462351
0.00435621
0.0463324
0.00380234
0.0466707
0.00277248
0.0471607
0.0013052
0.0476979
-0.00114156
0.0481077
-0.00308526
0.0484178
-0.00523348
0.0486573
-0.00685336
0.0489307
-0.00890163
0.0492021
-0.0102223
0.049548
-0.0120573
0.0500192
-0.0130905
0.0506886
-0.0144681
0.0513764
-0.014961
0.052076
-0.015608
0.0528478
-0.0156826
0.0536573
-0.0156636
0.0544246
-0.0150342
0.0553618
-0.0143514
0.0564315
-0.0127601
0.0576396
-0.0105645
0.0588687
-0.00732833
0.0601936
-0.00365801
0.0614415
0.000803091
0.0624866
0.00494785
0.0630849
0.00883082
0.0632738
0.0110223
0.0630255
0.0126489
0.0625362
0.0124099
0.0616649
0.0122427
0.0607403
0.0104374
0.059719
0.00974951
0.0588409
0.00704871
0.0579683
0.00630028
0.00342254
0.057136
0.0466648
0.00672061
-0.0469037
0.0464746
0.00647058
0.0463513
0.00620022
0.0463094
0.00570458
0.0462873
0.00512547
0.0463182
0.00432528
0.0464902
0.00363032
0.0469359
0.00232681
0.0474218
0.000819287
0.0478784
-0.00159818
0.0482324
-0.00343918
0.0485415
-0.00554258
0.0487708
-0.00708275
0.0490345
-0.00916523
0.049296
-0.0104838
0.0496462
-0.0124075
0.0500338
-0.0134782
0.0504723
-0.0149065
0.0510585
-0.0155473
0.0517277
-0.0162772
0.0524055
-0.0163604
0.0532363
-0.0164944
0.0541894
-0.0159874
0.0552533
-0.0154153
0.0563839
-0.0138906
0.0577691
-0.0119497
0.0592516
-0.00881081
0.0607997
-0.00520618
0.0622695
-0.000666681
0.0636209
0.00359644
0.0644449
0.00800679
0.0648405
0.0106268
0.0647679
0.0127215
0.0643568
0.012821
0.0635743
0.0130251
0.0627441
0.0112676
0.0617328
0.0107608
0.0606065
0.00817499
0.0592486
0.00765816
0.00454594
0.0581252
0.046628
0.00697161
-0.046879
0.0464801
0.00661843
0.0464286
0.0062517
0.0464239
0.00570928
0.0464622
0.00508719
0.0465915
0.00419602
0.0468301
0.00339169
0.0473033
0.00185365
0.0477637
0.000358868
0.0481291
-0.00196358
0.04835
-0.00366011
0.0486588
-0.0058514
0.0488878
-0.00731169
0.0491292
-0.00940671
0.0494053
-0.0107599
0.0497348
-0.012737
0.0500836
-0.013827
0.0504393
-0.0152622
0.050862
-0.01597
0.0513872
-0.0168024
0.0519644
-0.0169377
0.0527134
-0.0172434
0.0535419
-0.0168158
0.0546026
-0.016476
0.0559095
-0.0151975
0.0575215
-0.0135618
0.0592278
-0.0105171
0.0610217
-0.00700006
0.0626611
-0.00230605
0.0642313
0.00202625
0.0653778
0.0068602
0.0660566
0.00994802
0.0661446
0.0126334
0.065924
0.0130416
0.0652835
0.0136655
0.0644919
0.0120592
0.0634507
0.0118021
0.0623769
0.00924878
0.06133
0.00870502
0.0057033
0.0601727
0.0466
0.00716183
-0.0467902
0.0465272
0.00669125
0.0464863
0.00629257
0.0465082
0.00568736
0.0465731
0.00502228
0.0467692
0.00399997
0.0470468
0.00311406
0.0475248
0.00137567
0.0479688
-8.51015e-05
0.0483146
-0.0023094
0.0485139
-0.00385945
0.0487569
-0.00609435
0.0489899
-0.00754477
0.049315
-0.00973179
0.0495612
-0.0110061
0.0498479
-0.0130237
0.0501649
-0.0141439
0.0504961
-0.0155934
0.0507821
-0.016256
0.0511597
-0.0171799
0.0515482
-0.0173262
0.0521031
-0.0177983
0.0527833
-0.0174961
0.0538508
-0.0175434
0.0551554
-0.0165021
0.0569032
-0.0153096
0.0588919
-0.0125057
0.0612089
-0.00931706
0.0632738
-0.00437094
0.0651746
0.000125437
0.066664
0.00537083
0.0676665
0.00894544
0.0679717
0.0123283
0.0679241
0.0130892
0.0674076
0.0141821
0.0666737
0.0127931
0.0657558
0.01272
0.0647599
0.0102447
0.063504
0.00996087
0.00703621
0.0621711
0.0467219
0.00732314
-0.0468832
0.0466589
0.00675419
0.0466669
0.00628461
0.0467509
0.00560338
0.0468832
0.00488995
0.0471625
0.00372062
0.0475305
0.00274611
0.047954
0.000952167
0.0482962
-0.000427322
0.0486358
-0.00264901
0.0488194
-0.00404299
0.049009
-0.00628402
0.0491958
-0.00773157
0.0494564
-0.00999234
0.0497645
-0.0113142
0.0500132
-0.0132724
0.0502718
-0.0144025
0.0505642
-0.0158859
0.050798
-0.0164898
0.0510563
-0.0174382
0.0512992
-0.017569
0.051747
-0.0182461
0.0522755
-0.0180246
0.0530636
-0.0183315
0.0541581
-0.0175966
0.0558577
-0.0170091
0.0579415
-0.0145896
0.0605869
-0.0119625
0.0632867
-0.0070707
0.0658165
-0.00240435
0.0677409
0.00344644
0.0691794
0.00750689
0.0698632
0.0116446
0.069963
0.0129894
0.0695718
0.0145733
0.0689308
0.0134341
0.0680808
0.0135699
0.0670397
0.0112859
0.0659091
0.0110915
0.00840455
0.0645407
0.0467641
0.00741006
-0.046851
0.0467451
0.00677317
0.0467632
0.00626645
0.0468832
0.00548338
0.0470261
0.00474713
0.0473104
0.00343624
0.0476737
0.00238287
0.0480892
0.000536628
0.0484187
-0.000756766
0.0487119
-0.00294224
0.0489702
-0.00430133
0.0492263
-0.00654007
0.0494386
-0.00794389
0.049664
-0.0102177
0.0499389
-0.0115891
0.0501942
-0.0135277
0.0504111
-0.0146195
0.0506469
-0.0161216
0.0508297
-0.0166727
0.0510685
-0.0176769
0.0512215
-0.017722
0.0514902
-0.0185148
0.051817
-0.0183514
0.0524645
-0.0189791
0.0533094
-0.0184415
0.05477
-0.0184698
0.0566921
-0.0165117
0.0593561
-0.0146264
0.0624589
-0.0101735
0.0658334
-0.00577886
0.0686744
0.000605376
0.0707946
0.00538675
0.0719461
0.010493
0.0724365
0.0124989
0.0722044
0.0148055
0.0715945
0.014044
0.0707138
0.0144506
0.0697821
0.0122175
0.0687789
0.0120947
0.00977082
0.0674127
0.0470042
0.00747528
-0.0470694
0.0470315
0.00674591
0.0471091
0.00618878
0.0472726
0.00531994
0.0475178
0.00450193
0.0478261
0.00312792
0.0481421
0.00206691
0.0484858
0.000192897
0.0487985
-0.00106952
0.0490603
-0.00320397
0.0493295
-0.00457052
0.049576
-0.00678661
0.0498502
-0.00821806
0.0500445
-0.010412
0.0502327
-0.0117772
0.0504561
-0.0137512
0.0506229
-0.0147862
0.0508106
-0.0163093
0.050891
-0.0167531
0.0510633
-0.0178492
0.0511471
-0.0178058
0.0513647
-0.0187325
0.0515833
-0.01857
0.0521097
-0.0195055
0.0527633
-0.0190951
0.0539635
-0.01967
0.0556147
-0.0181629
0.0580486
-0.0170603
0.061049
-0.0131739
0.0647301
-0.00946001
0.0684802
-0.0031447
0.071835
0.00203194
0.074006
0.00832202
0.0750835
0.0114215
0.0752411
0.0146478
0.0747601
0.014525
0.0739386
0.0152721
0.0728237
0.0133324
0.0718149
0.0131034
0.0111692
0.0704165
0.0470562
0.00746462
-0.0470456
0.0471097
0.00669242
0.0472064
0.00609213
0.0473972
0.00512914
0.0476267
0.0042724
0.0479394
0.00281524
0.0482812
0.00172507
0.0485671
-9.29532e-05
0.0488853
-0.00138776
0.0491486
-0.00346728
0.0494749
-0.00489676
0.0497337
-0.00704543
0.0500221
-0.0085065
0.0502872
-0.0106771
0.0505263
-0.0120163
0.0507602
-0.0139851
0.0508407
-0.0148668
0.0510019
-0.0164705
0.0510095
-0.0167607
0.0510759
-0.0179156
0.0510934
-0.0178233
0.0512573
-0.0188963
0.0513671
-0.0186799
0.0517574
-0.0198958
0.0522719
-0.0196095
0.0532922
-0.0206903
0.0547379
-0.0196086
0.0569734
-0.0192957
0.0597407
-0.0159412
0.0633341
-0.0130534
0.0672534
-0.00706396
0.0714561
-0.00217078
0.0750528
0.00472531
0.0775174
0.00895685
0.0786137
0.0135516
0.0785311
0.0146076
0.0778269
0.0159763
0.0765424
0.0146169
0.0754283
0.0142175
0.012568
0.0740296
0.0474626
0.0074427
-0.0474406
0.0475914
0.00656361
0.0477506
0.00593289
0.0479573
0.00492248
0.0482132
0.00401643
0.0485061
0.00252236
0.0488265
0.0014047
0.0490926
-0.000359027
0.0493952
-0.00169037
0.0496165
-0.00368855
0.049913
-0.0051933
0.0501818
-0.00731424
0.0504627
-0.00878736
0.0507096
-0.010924
0.0508666
-0.0121733
0.0510671
-0.0141856
0.0511456
-0.0149453
0.0512166
-0.0165415
0.0511659
-0.01671
0.0511703
-0.01792
0.0510788
-0.0177318
0.0510969
-0.0189144
0.0511027
-0.0186856
0.0513224
-0.0201155
0.0516875
-0.0199747
0.052545
-0.0215478
0.0538203
-0.0208839
0.0559524
-0.0214278
0.058709
-0.0186978
0.0622696
-0.016614
0.0661991
-0.0109934
0.0704813
-0.00645302
0.0746737
0.000532944
0.0783962
0.00523431
0.0811847
0.0107631
0.0824194
0.0133729
0.0825507
0.015845
0.0815149
0.0156527
0.0800236
0.0157089
0.0141966
0.0783949
0.0474673
0.00736323
-0.0473878
0.0476045
0.00642644
0.0477816
0.0057558
0.0480051
0.00469897
0.0482835
0.003738
0.0485454
0.00226048
0.048876
0.00107406
0.0491773
-0.000660321
0.049535
-0.00204808
0.0498295
-0.00398302
0.050129
-0.00549284
0.0504343
-0.00761951
0.0506858
-0.00903881
0.0509437
-0.0111819
0.0511022
-0.0123319
0.0512317
-0.0143151
0.0512829
-0.0149965
0.0512934
-0.0165521
0.0512532
-0.0166698
0.0511783
-0.0178451
0.0510429
-0.0175964
0.0509434
-0.0188149
0.0508243
-0.0185666
0.0508464
-0.0201376
0.0510249
-0.0201531
0.0515588
-0.0220818
0.052607
-0.021932
0.0544137
-0.0232345
0.0571573
-0.0214414
0.0607951
-0.0202518
0.0652232
-0.0154214
0.0698302
-0.0110601
0.0745054
-0.00414218
0.0785578
0.00118184
0.0821579
0.00716303
0.0848247
0.010706
0.0864939
0.0141758
0.086839
0.0153076
0.0861294
0.0164185
0.0161942
0.0841318
0.0481152
0.00727061
-0.0480226
0.0482724
0.00626919
0.0484948
0.00553345
0.0487156
0.00447822
0.0490033
0.00345024
0.0492477
0.0020161
0.0495421
0.00077962
0.0498472
-0.000965395
0.0501473
-0.0023482
0.0504799
-0.00431561
0.050765
-0.00577788
0.0510729
-0.00792746
0.0513035
-0.00926938
0.0515046
-0.0113831
0.0516263
-0.0124535
0.0516742
-0.014363
0.0516643
-0.0149867
0.0515358
-0.0164235
0.0513903
-0.0165243
0.0511702
-0.017625
0.050983
-0.0174092
0.0507136
-0.0185455
0.050549
-0.018402
0.0503038
-0.0198923
0.0503478
-0.0201972
0.0504466
-0.0221806
0.0512419
-0.0227273
0.0524465
-0.0244391
0.0549973
-0.0239922
0.0582935
-0.023548
0.0631063
-0.0202343
0.0684252
-0.016379
0.0741703
-0.00988731
0.0793905
-0.00403829
0.0837101
0.00284338
0.0868299
0.0075862
0.0893077
0.0116981
0.0905369
0.0140784
0.0916858
0.0152695
0.0171809
0.0906991
0.0480059
0.00709523
-0.0478306
0.0481916
0.00608351
0.0484405
0.00528452
0.0486842
0.00423459
0.0489821
0.00315237
0.0493025
0.00169568
0.0496276
0.000454496
0.049992
-0.00132984
0.050337
-0.00269311
0.0507074
-0.00468605
0.0510468
-0.00611733
0.0513341
-0.00821472
0.0516296
-0.00956486
0.0517954
-0.0115489
0.0519502
-0.0126083
0.0519016
-0.0143145
0.0519187
-0.0150037
0.0516568
-0.0161616
0.0515491
-0.0164166
0.0511366
-0.0172125
0.0509689
-0.0172415
0.0504369
-0.0180135
0.0502597
-0.0182248
0.0496925
-0.0193252
0.0496142
-0.0201189
0.0492656
-0.021832
0.0497685
-0.0232302
0.050279
-0.0249496
0.0523912
-0.0261045
0.0550398
-0.0261966
0.0598623
-0.0250568
0.0651945
-0.0217112
0.0721219
-0.0168147
0.0785519
-0.0104683
0.0851626
-0.00376735
0.0895825
0.00316636
0.0934466
0.00783398
0.0949164
0.0126086
0.0963707
0.0138153
0.0171016
0.09645
0.0489253
0.00691964
-0.0487497
0.0491208
0.00588797
0.049367
0.00503832
0.0496501
0.00395154
0.0499073
0.00289518
0.0502302
0.00137278
0.050522
0.000162619
0.0508677
-0.00167547
0.0512481
-0.00307358
0.0515329
-0.00497078
0.0519112
-0.00649565
0.0520659
-0.00836947
0.0524016
-0.00990054
0.0523695
-0.0115168
0.0525795
-0.0128182
0.0523172
-0.0140522
0.0523509
-0.0150374
0.0519005
-0.0157112
0.0518205
-0.0163367
0.0512037
-0.0165957
0.0510402
-0.017078
0.0503319
-0.0173052
0.0500347
-0.0179275
0.0492795
-0.0185699
0.0489543
-0.0197937
0.0482094
-0.0210871
0.0481873
-0.0232081
0.0480057
-0.024768
0.0493939
-0.0274927
0.051112
-0.0279146
0.0556082
-0.029553
0.0604138
-0.0265168
0.0681798
-0.0245807
0.075394
-0.0176825
0.0839519
-0.0123253
0.0909368
-0.00381849
0.0971631
0.00160763
0.100878
0.0088936
0.103214
0.0114795
0.0167528
0.103563
0.0486557
0.00668691
-0.048423
0.0489607
0.00558295
0.0492436
0.00475545
0.0496282
0.00356692
0.0499839
0.00253948
0.0503681
0.000988592
0.050793
-0.000262239
0.0511183
-0.00200081
0.0516441
-0.0035994
0.0518658
-0.0051924
0.0523968
-0.00702673
0.0524415
-0.00841418
0.0528635
-0.0103224
0.0527321
-0.0113854
0.0529441
-0.0130302
0.0525722
-0.0136804
0.0525568
-0.015022
0.0519972
-0.0151516
0.0518055
-0.016145
0.0511566
-0.0159468
0.0508268
-0.0167481
0.0501332
-0.0166117
0.0496814
-0.0174757
0.0489286
-0.0178171
0.048229
-0.0190942
0.047347
-0.020205
0.0466156
-0.0224767
0.0458498
-0.0240022
0.0460628
-0.0277057
0.046854
-0.0287059
0.0498367
-0.0325357
0.054184
-0.0308641
0.0614032
-0.0317999
0.0695747
-0.0258541
0.0794969
-0.0222474
0.088974
-0.0132956
0.0983077
-0.00772613
0.105517
0.00168393
0.110967
0.00602983
0.0152793
0.112441
0.0499333
0.00644641
-0.0496928
0.0502287
0.00528753
0.0505518
0.00443238
0.0508685
0.00325023
0.0512604
0.00214756
0.0515266
0.000722353
0.0521015
-0.000837125
0.052352
-0.00225135
0.0529467
-0.004194
0.0531176
-0.00536338
0.0535504
-0.00745949
0.0535981
-0.00846187
0.05382
-0.0105443
0.0536817
-0.0112471
0.0536581
-0.0130067
0.0533511
-0.0133733
0.0530171
-0.014688
0.052559
-0.0146934
0.0520412
-0.0156273
0.0514823
-0.0153878
0.05087
-0.0161358
0.0502609
-0.0160026
0.0495622
-0.016777
0.0488552
-0.0171101
0.0478351
-0.0180741
0.0467485
-0.0191184
0.0453262
-0.0210544
0.0441006
-0.0227766
0.0427236
-0.0263287
0.0425522
-0.0285345
0.0431324
-0.0331158
0.0462988
-0.0340305
0.0513989
-0.0369
0.0594108
-0.033866
0.0689977
-0.0318343
0.0802212
-0.0245191
0.0923552
-0.0198601
0.103868
-0.00982911
0.11509
-0.00519225
0.00856996
0.1218
0.0498688
0.00610409
-0.0495265
0.0502527
0.00490368
0.0507477
0.00393735
0.0511153
0.00288265
0.05172
0.00154282
0.0520459
0.000396432
0.0527098
-0.00150102
0.0530703
-0.00261185
0.0534834
-0.00460704
0.053866
-0.00574598
0.0540762
-0.0076697
0.0543546
-0.00874029
0.0542586
-0.0104483
0.0543207
-0.0113092
0.0539517
-0.0126377
0.0537894
-0.013211
0.0531758
-0.0140744
0.0528079
-0.0143255
0.0520312
-0.0148506
0.0515407
-0.0148973
0.0507283
-0.0153234
0.0501686
-0.0154429
0.0494012
-0.0160096
0.0486387
-0.0163476
0.0476379
-0.0170734
0.0464933
-0.0179738
0.0447179
-0.019279
0.0429979
-0.0210566
0.040445
-0.0237758
0.0387443
-0.0268338
0.0366317
-0.0310033
0.0369965
-0.0343953
0.0384764
-0.0383799
0.0432371
-0.0386267
0.049298
-0.0378952
0.0598008
-0.035022
0.0717337
-0.0317929
0.0863884
-0.0244839
0.101126
-0.0199299
-0.00705482
0.116751
0.0516915
0.00571455
-0.051302
0.0519638
0.00463137
0.0524118
0.00348938
0.052776
0.00251849
0.0532785
0.0010403
0.0539134
-0.000238471
0.054181
-0.00176865
0.0548125
-0.00324331
0.0550458
-0.00484039
0.0555674
-0.00626761
0.055577
-0.00767927
0.0558686
-0.00903191
0.0556049
-0.0101846
0.0555883
-0.0112927
0.055066
-0.0121153
0.0547619
-0.0129069
0.0539946
-0.0133071
0.0534769
-0.0138078
0.052585
-0.0139588
0.0519242
-0.0142364
0.0510619
-0.0144611
0.0504067
-0.0147877
0.0495923
-0.0151952
0.048817
-0.0155723
0.0478161
-0.0160725
0.0465728
-0.0167304
0.0448443
-0.0175505
0.0426533
-0.0188656
0.0395376
-0.0206601
0.0361839
-0.0234801
0.0318567
-0.0266761
0.0282223
-0.0307609
0.0246167
-0.0347743
0.0216735
-0.0356835
0.0199535
-0.0361752
0.0237562
-0.0388247
0.0317518
-0.0397885
0.0454335
-0.0381656
0.0608433
-0.0353396
-0.0278482
0.0816366
0.0522315
0.00508434
-0.0516012
0.0529085
0.00395431
0.0535017
0.00289618
0.0542707
0.0017495
0.0547159
0.000595096
0.0553443
-0.000866908
0.0557749
-0.00219917
0.0563554
-0.00382383
0.0565746
-0.00505965
0.0569082
-0.00660121
0.0569609
-0.00773197
0.0569586
-0.0090296
0.0567469
-0.00997284
0.056427
-0.0109729
0.0559116
-0.0115999
0.0552902
-0.0122855
0.0545427
-0.0125596
0.0537197
-0.0129849
0.0528668
-0.0131058
0.0520391
-0.0134087
0.0512684
-0.0136905
0.050528
-0.0140473
0.0498345
-0.0145017
0.0491364
-0.0148743
0.0483218
-0.0152578
0.0471669
-0.0155756
0.0455834
-0.015967
0.0433375
-0.0166197
0.0401177
-0.0174403
0.0356863
-0.0190487
0.0298731
-0.0208628
0.0227614
-0.0236492
0.0138181
-0.025831
0.00224023
-0.0241056
-0.0067208
-0.0272141
-0.0118291
-0.0337164
-0.0140614
-0.0375562
-0.0117534
-0.0404736
-0.00544641
-0.0416466
-0.0405627
0.00726808
0.0538784
0.00473138
-0.0535255
0.0544856
0.00334719
0.0550783
0.00230338
0.0557984
0.00102941
0.056577
-0.000183494
0.0572582
-0.00154811
0.057952
-0.00289291
0.0583972
-0.00426908
0.0588353
-0.00549775
0.0589911
-0.00675702
0.0590656
-0.00780646
0.0588861
-0.00885005
0.0585895
-0.00967625