/*--------------------------------*- C++ -*----------------------------------*\
  =========                 |
  \\      /  F ield         | OpenFOAM: The Open Source CFD Toolbox
   \\    /   O peration     | Website:  https://openfoam.org
    \\  /    A nd           | Version:  11
     \\/     M anipulation  |
\*---------------------------------------------------------------------------*/
FoamFile
{
    format      ascii;
    class       volVectorField;
    location    "3.5";
    object      U;
}
// * * * * * * * * * * * * * * * * * * * * * * * * * * * * * * * * * * * * * //

dimensions      [0 1 -1 0 0 0 0];

internalField   nonuniform List<vector> 
9600
(
(0.972415 0.00179068 7.49951e-21)
(0.972261 0.00219929 0)
(0.970731 0.00416536 0)
(0.96308 0.00590099 1.36719e-22)
(0.954161 0.00609934 0)
(0.950892 0.00555925 -1.50466e-22)
(0.951913 0.00657274 -5.1036e-21)
(0.946875 0.0121237 5.15949e-21)
(0.913376 0.0167015 -5.64537e-21)
(0.858379 0.0141686 5.69143e-21)
(0.827087 0.00801164 0)
(0.818901 0.00369062 -6.09201e-21)
(0.821799 0.00151531 6.16731e-21)
(0.835356 -0.00395801 -9.83871e-23)
(0.872301 -0.0132675 3.15392e-21)
(0.90707 -0.0213079 -3.12026e-21)
(0.94201 -0.0271058 0)
(0.977518 -0.0306803 -1.25262e-21)
(1.01123 -0.0309074 1.25373e-21)
(1.05007 -0.0299139 -3.75205e-24)
(1.08544 -0.0285509 2.891e-24)
(1.11478 -0.0262281 3.81378e-22)
(1.14631 -0.0227131 -3.84993e-22)
(1.16765 -0.0202238 0)
(1.1702 -0.0185265 0)
(1.16581 -0.0180616 -5.48463e-22)
(1.15549 -0.0189876 -2.96183e-23)
(1.13596 -0.0213554 6.10508e-22)
(1.10712 -0.0212926 -1.51005e-23)
(1.07624 -0.021989 1.10624e-23)
(1.0478 -0.0210468 0)
(1.02357 -0.0197509 -2.84413e-23)
(1.00438 -0.0181075 2.54689e-23)
(0.990717 -0.0145458 -2.25668e-22)
(0.981334 -0.0116296 2.24417e-22)
(0.97519 -0.00670844 9.53219e-24)
(0.969864 -0.00236157 0)
(0.966024 0.000719041 6.56983e-22)
(0.964132 0.00316586 -6.57527e-22)
(0.959064 0.00924319 9.83361e-24)
(0.975347 0.000310029 3.65112e-22)
(0.974314 -3.87976e-05 0)
(0.972539 -0.000377441 0)
(0.970252 -0.00130597 -4.24843e-22)
(0.966357 -0.00320319 -9.80028e-21)
(0.962987 -0.00415187 1.54819e-20)
(0.960331 -0.00309207 -5.18143e-21)
(0.955537 -0.000236852 -1.73666e-22)
(0.942502 0.00215299 -1.80973e-22)
(0.924685 0.00155694 0)
(0.911038 -0.00151311 -1.90685e-22)
(0.906019 -0.00407874 -6.45777e-21)
(0.907244 -0.00593505 9.32362e-21)
(0.916836 -0.00761979 -3.2072e-21)
(0.944181 -0.00327033 -5.02212e-23)
(0.973452 0.00543454 0)
(1.00082 0.0116359 -1.31142e-21)
(1.02709 0.0162316 1.4056e-21)
(1.05455 0.0165148 -5.36654e-22)
(1.08571 0.0152953 5.40657e-22)
(1.11574 0.0161885 3.14741e-22)
(1.14258 0.0151212 -3.05315e-22)
(1.16988 0.0132575 0)
(1.19084 0.0164028 3.15827e-23)
(1.19634 0.0198368 -3.11462e-23)
(1.19463 0.0221277 -7.88791e-24)
(1.18651 0.0257791 6.13064e-22)
(1.16542 0.0301372 -6.14408e-22)
(1.13891 0.0317287 4.79857e-23)
(1.10809 0.0318884 6.2443e-22)
(1.08044 0.0294969 -6.7329e-22)
(1.05242 0.0264122 1.4872e-22)
(1.03101 0.0226855 -1.45073e-22)
(1.01187 0.0173011 -3.72395e-24)
(0.997732 0.0120227 5.52819e-22)
(0.986547 0.00557238 -5.45543e-22)
(0.977917 0.00244577 0)
(0.973673 -0.00230605 7.20483e-22)
(0.971669 -0.00403016 -7.2307e-22)
(0.966581 -0.0124 -3.05188e-23)
(0.974671 0.000666493 7.74987e-21)
(0.97366 0.000965671 -2.64493e-22)
(0.971932 0.00229685 0)
(0.970285 0.00360549 2.90925e-22)
(0.966177 0.00410182 0)
(0.960384 0.0047309 -5.61218e-21)
(0.958921 0.00676675 -2.32407e-22)
(0.958089 0.0129661 5.74087e-21)
(0.952457 0.0185207 1.84883e-22)
(0.939118 0.0167457 0)
(0.918329 0.00935301 5.87392e-22)
(0.908894 0.00279952 -6.49312e-21)
(0.910625 -0.00204116 6.68758e-21)
(0.925076 -0.00992469 3.1119e-22)
(0.947516 -0.0200261 -2.05276e-22)
(0.970717 -0.0273252 9.93727e-23)
(0.995159 -0.032987 -1.44958e-21)
(1.02209 -0.0371166 1.50909e-22)
(1.05084 -0.0383822 1.33882e-21)
(1.08007 -0.038128 -7.82734e-24)
(1.11309 -0.0360252 6.10407e-24)
(1.14311 -0.0339875 4.22305e-22)
(1.16719 -0.0301718 -4.30383e-22)
(1.18994 -0.0257958 -1.00423e-23)
(1.20188 -0.019862 1.00306e-23)
(1.20163 -0.0156927 0)
(1.19524 -0.0127138 2.02406e-23)
(1.17786 -0.0107375 -8.04274e-23)
(1.15025 -0.00675917 -3.32906e-23)
(1.12157 -0.00624493 7.94533e-23)
(1.09408 -0.00514711 5.2468e-23)
(1.06705 -0.005676 -1.51209e-22)
(1.04789 -0.00539549 1.77862e-22)
(1.0306 -0.00382032 -4.268e-23)
(1.01833 -0.00227227 -1.42626e-23)
(1.01065 0.00100427 0)
(1.00545 0.00253985 -2.04186e-23)
(0.999204 0.00532337 6.76244e-22)
(0.996477 0.00660225 -6.70959e-22)
(0.991624 0.0103905 2.0837e-23)
(0.973916 0.000715261 5.23816e-22)
(0.972835 0.00109106 -2.80105e-22)
(0.971062 0.00240096 0)
(0.968579 0.00262421 0)
(0.963902 0.00147239 -9.88157e-21)
(0.960657 0.000949661 1.02268e-20)
(0.960061 0.00253568 5.39169e-21)
(0.95858 0.00862669 -5.42118e-21)
(0.955555 0.0120352 6.21435e-21)
(0.951236 0.0103843 -5.84591e-21)
(0.941525 0.00345696 -4.00722e-22)
(0.937519 -0.00464324 -2.08294e-22)
(0.942188 -0.0121728 -2.11215e-22)
(0.958439 -0.018701 -2.13277e-22)
(0.979466 -0.0176888 3.71428e-21)
(0.999766 -0.0103223 -5.81196e-23)
(1.02122 -0.00479941 -4.70327e-21)
(1.04158 -0.00106853 1.45964e-21)
(1.06351 -0.000633945 -3.84735e-23)
(1.08894 -0.00278996 1.59952e-23)
(1.11665 -0.00136014 -3.4267e-22)
(1.14357 0.000365374 7.70925e-22)
(1.16716 0.000344508 -4.54696e-22)
(1.18802 0.00555992 -1.36146e-23)
(1.20076 0.0155834 0)
(1.20151 0.0219747 0)
(1.19439 0.027972 6.91663e-22)
(1.1757 0.0340668 -7.36535e-22)
(1.15168 0.0369959 1.10159e-21)
(1.1249 0.0371362 -1.15263e-21)
(1.09729 0.0349446 -3.72414e-23)
(1.07091 0.0313501 1.98937e-23)
(1.04847 0.0260731 -9.52636e-24)
(1.0294 0.020858 -1.18434e-22)
(1.01315 0.0137933 5.87535e-22)
(1.00039 0.00714128 -1.09439e-21)
(0.987144 0.00329338 6.04502e-22)
(0.980206 -0.00153645 -4.30047e-23)
(0.974924 -0.00374314 6.7519e-23)
(0.973859 -0.00956849 -4.43357e-23)
(0.973068 0.000847509 8.08554e-21)
(0.971899 0.00132815 -1.02364e-23)
(0.969766 0.00291573 0)
(0.96731 0.00357343 0)
(0.964356 0.00322915 -6.64037e-22)
(0.961 0.00358512 1.05598e-21)
(0.958452 0.00707615 -5.61679e-21)
(0.958957 0.0134193 1.18388e-20)
(0.962589 0.0161501 -6.22654e-21)
(0.965173 0.0141011 -4.0323e-22)
(0.963496 0.00715671 0)
(0.956664 -0.00173104 -1.3752e-20)
(0.955069 -0.00914966 1.37845e-20)
(0.96188 -0.0171384 -3.90683e-21)
(0.974178 -0.0242053 3.26146e-21)
(0.990567 -0.0297698 -4.15461e-22)
(1.0121 -0.0351582 -1.69819e-21)
(1.03542 -0.0394465 1.57702e-22)
(1.06164 -0.0416455 1.34825e-21)
(1.08747 -0.0426161 -8.17601e-24)
(1.1149 -0.0406727 -3.5482e-22)
(1.14417 -0.0386866 8.23386e-22)
(1.16832 -0.0339699 -4.47462e-22)
(1.1858 -0.0293246 1.39546e-23)
(1.20061 -0.0216072 -8.97651e-24)
(1.20555 -0.0132212 -5.54123e-22)
(1.20094 -0.00618361 4.64763e-22)
(1.18571 -0.000166593 -2.99125e-24)
(1.16033 0.00821913 8.37154e-23)
(1.13378 0.011205 0)
(1.10529 0.0129915 4.92883e-23)
(1.07903 0.01186 0)
(1.05692 0.010023 3.72437e-23)
(1.03721 0.00971271 0)
(1.0241 0.00874249 0)
(1.01346 0.0091327 -5.43072e-22)
(1.00784 0.009788 5.80005e-22)
(1.00088 0.00940214 7.72871e-22)
(0.9979 0.00942021 -7.26414e-22)
(0.992051 0.0103771 4.52711e-23)
(0.972068 0.00103976 0)
(0.970836 0.00167041 -1.07855e-23)
(0.968665 0.00371291 0)
(0.966614 0.00423302 0)
(0.963658 0.00365557 -1.13741e-20)
(0.960062 0.00471098 4.77643e-21)
(0.958646 0.00819484 1.21652e-20)
(0.961727 0.0129212 -6.22461e-21)
(0.967008 0.014094 0)
(0.969757 0.0109539 0)
(0.967225 0.00413959 0)
(0.962492 -0.00623431 -6.22657e-21)
(0.965496 -0.0169204 6.68475e-21)
(0.977413 -0.0263414 4.01123e-21)
(0.994822 -0.0284045 -4.00555e-21)
(1.01381 -0.0244195 -3.07748e-21)
(1.03369 -0.0208272 1.97432e-21)
(1.05299 -0.018485 1.52511e-21)
(1.07392 -0.0179822 -5.83734e-22)
(1.09567 -0.0205867 5.83806e-22)
(1.1205 -0.0197543 1.31401e-23)
(1.14578 -0.0167006 3.77763e-23)
(1.16914 -0.013795 -4.53674e-23)
(1.18766 -0.00797659 0)
(1.20217 0.0058487 9.20775e-24)
(1.20794 0.0188332 6.1895e-22)
(1.20289 0.0277105 -4.38464e-22)
(1.18673 0.0355625 -1.40827e-21)
(1.16436 0.0404395 2.72697e-21)
(1.13845 0.0418814 -1.23246e-21)
(1.11109 0.0406467 -8.91094e-22)
(1.08412 0.0371487 6.45849e-22)
(1.06121 0.0315438 -2.81568e-23)
(1.04119 0.0267804 3.29343e-23)
(1.0252 0.0195317 3.2649e-22)
(1.01164 0.0121659 -3.30684e-22)
(0.997428 0.00670123 0)
(0.988521 0.00202746 7.48074e-22)
(0.980966 -0.000942826 6.45179e-23)
(0.977557 -0.00672438 -7.94601e-22)
(0.971213 0.00138505 1.0543e-20)
(0.969979 0.00216296 -1.13314e-23)
(0.967909 0.0043771 0)
(0.96581 0.00471781 0)
(0.962741 0.00462044 1.11019e-20)
(0.959923 0.00620541 -1.11536e-20)
(0.959781 0.00921807 6.41543e-21)
(0.964155 0.0125761 1.0059e-21)
(0.970622 0.013097 -6.70509e-21)
(0.973421 0.0101575 7.00605e-21)
(0.972772 0.00277848 -6.14989e-21)
(0.97265 -0.00744456 -7.77989e-21)
(0.977295 -0.0168213 8.2798e-21)
(0.985239 -0.0245074 0)
(0.994262 -0.0294856 4.00219e-21)
(1.00667 -0.0335002 -7.36888e-21)
(1.02461 -0.0378857 1.81923e-21)
(1.0447 -0.042197 1.66197e-22)
(1.06937 -0.0446406 7.19078e-22)
(1.09439 -0.046666 6.01086e-22)
(1.11986 -0.0450871 3.60225e-22)
(1.14548 -0.0433665 1.31237e-22)
(1.17101 -0.0375153 -4.57542e-22)
(1.18816 -0.0317291 -1.03601e-22)
(1.20026 -0.0237076 1.03506e-22)
(1.20879 -0.0140046 -5.93664e-22)
(1.20854 -0.00141879 5.921e-22)
(1.19544 0.00887617 1.05264e-22)
(1.17289 0.0210282 0)
(1.14691 0.0275441 1.24908e-21)
(1.11895 0.0307668 -1.03101e-21)
(1.09198 0.0299781 -4.28093e-22)
(1.06782 0.0264073 5.02697e-22)
(1.04684 0.0228631 4.0428e-23)
(1.03217 0.0201668 -2.61117e-23)
(1.01903 0.017613 -5.03219e-24)
(1.01166 0.0179965 0)
(1.00378 0.0160118 5.96441e-22)
(1.00039 0.0139218 -2.42875e-23)
(0.99284 0.0119838 -5.86935e-22)
(0.970354 0.00191553 8.54374e-21)
(0.969172 0.00276044 -6.61993e-22)
(0.967176 0.00494319 1.12239e-20)
(0.964815 0.00538672 -1.13188e-20)
(0.962031 0.00577141 7.50097e-22)
(0.960484 0.00726866 -7.82032e-22)
(0.961243 0.00937592 0)
(0.966189 0.0120171 5.17376e-21)
(0.973232 0.011817 -6.94683e-21)
(0.975562 0.00862457 0)
(0.974761 0.000701899 5.58077e-21)
(0.976349 -0.0112353 -6.53427e-21)
(0.981098 -0.0227924 2.23506e-24)
(0.990443 -0.0325053 0)
(1.0045 -0.0361896 3.64576e-21)
(1.02142 -0.0355636 -3.20972e-21)
(1.04031 -0.0344609 -1.59698e-21)
(1.05878 -0.0343093 1.72417e-22)
(1.08035 -0.0341977 8.99181e-22)
(1.10119 -0.0370127 6.46955e-22)
(1.12492 -0.0364276 0)
(1.14887 -0.0332551 4.38692e-22)
(1.17167 -0.0283425 -4.68869e-22)
(1.19052 -0.0216159 0)
(1.20535 -0.00687701 1.29336e-23)
(1.21389 0.0115721 0)
(1.2118 0.024834 6.435e-22)
(1.19904 0.0355958 -2.68795e-21)
(1.17802 0.0437177 1.96174e-21)
(1.15355 0.0477328 -3.71869e-22)
(1.12618 0.0485457 -8.31736e-22)
(1.098 0.0461642 1.73492e-21)
(1.07383 0.0408641 -7.06596e-22)
(1.05152 0.0362106 1.05283e-22)
(1.03464 0.0294676 9.8636e-23)
(1.02075 0.0207558 -2.0543e-22)
(1.00718 0.0132475 0)
(0.997094 0.00769915 7.99943e-22)
(0.988095 0.00487044 8.31557e-23)
(0.981638 -0.0021681 -8.67617e-22)
(0.969665 0.00245864 0)
(0.968499 0.00331876 1.33193e-21)
(0.966412 0.00549257 0)
(0.963932 0.00610445 1.5208e-21)
(0.961766 0.00669576 1.12434e-20)
(0.961216 0.00786742 -6.20501e-21)
(0.962577 0.00933907 -6.66562e-21)
(0.968394 0.0109173 8.76337e-22)
(0.974665 0.0101831 0)
(0.976143 0.0068499 0)
(0.976103 -0.00264478 8.6391e-21)
(0.978618 -0.0156211 -8.72862e-21)
(0.985039 -0.025802 -1.48055e-21)
(0.995295 -0.0328421 -4.90311e-22)
(1.00801 -0.0361127 3.7456e-21)
(1.02122 -0.0394517 -3.30242e-21)
(1.03813 -0.0428768 -1.63883e-21)
(1.05596 -0.0473432 1.76855e-22)
(1.07798 -0.0498243 8.36066e-22)
(1.10117 -0.0526687 6.2792e-22)
(1.12433 -0.0515353 2.84328e-23)
(1.14851 -0.0498841 5.83688e-22)
(1.17276 -0.0434853 -5.9334e-22)
(1.19297 -0.0357878 -2.26044e-23)
(1.20384 -0.0263931 -2.35713e-23)
(1.21333 -0.0158013 0)
(1.21619 0.000642711 9.60212e-22)
(1.20662 0.0153015 -6.15937e-22)
(1.18701 0.0303115 -2.27829e-22)
(1.16184 0.0406602 4.1958e-22)
(1.13467 0.0461684 -1.5886e-22)
(1.10806 0.0464943 -9.06029e-22)
(1.08231 0.0426722 9.41884e-22)
(1.05909 0.0363764 -7.53461e-23)
(1.04228 0.0321632 -3.15927e-24)
(1.02687 0.0275661 -3.10526e-22)
(1.01704 0.0264796 2.88896e-22)
(1.00709 0.0235612 6.48714e-22)
(1.00335 0.0211711 -6.42237e-22)
(0.994888 0.0160447 0)
(0.968728 0.00293884 0)
(0.967628 0.00392234 0)
(0.965462 0.0060572 1.37558e-20)
(0.96306 0.00684241 -2.67383e-20)
(0.961843 0.00752535 1.29013e-20)
(0.96197 0.00799299 0)
(0.963781 0.00882511 7.12504e-21)
(0.969654 0.00982889 1.6554e-22)
(0.975436 0.00888835 -6.531e-21)
(0.977526 0.00450136 0)
(0.978403 -0.00626021 -9.9759e-22)
(0.980755 -0.0188443 1.01571e-21)
(0.985149 -0.0293271 5.07194e-21)
(0.993445 -0.0388869 -3.56568e-21)
(1.00843 -0.0435758 0)
(1.02662 -0.0453129 3.65816e-21)
(1.04659 -0.0455462 -5.79209e-21)
(1.06502 -0.0472482 3.39064e-21)
(1.08683 -0.0479941 -1.50274e-21)
(1.1077 -0.0506723 -1.37409e-25)
(1.12876 -0.0505294 -4.65114e-22)
(1.15259 -0.0479803 4.0609e-22)
(1.17415 -0.0419613 -5.51853e-23)
(1.1941 -0.0345306 2.3296e-23)
(1.20964 -0.0203198 1.05817e-23)
(1.22035 0.000347554 0)
(1.22206 0.0184032 0)
(1.21209 0.0338384 -2.48015e-22)
(1.1946 0.0464954 1.98891e-21)
(1.17014 0.0546805 -2.20409e-21)
(1.14241 0.0588276 0)
(1.11445 0.058951 1.12691e-21)
(1.08816 0.0545244 -1.05002e-21)
(1.0642 0.0490736 3.31536e-22)
(1.04511 0.0428907 -2.84265e-22)
(1.0289 0.0335322 -2.67418e-22)
(1.01561 0.0241463 2.84333e-22)
(1.0054 0.0160166 0)
(0.996405 0.0130892 0)
(0.986466 0.00439291 9.82804e-23)
(0.967925 0.00352284 -2.43159e-22)
(0.966881 0.00456358 1.30235e-20)
(0.964591 0.00656476 -1.55476e-21)
(0.962644 0.0076229 -1.65955e-21)
(0.962209 0.0078051 -1.38166e-20)
(0.962563 0.0078342 2.08968e-20)
(0.964755 0.00823332 -7.228e-21)
(0.970778 0.0085872 7.70181e-21)
(0.976038 0.00716081 -9.74587e-21)
(0.978927 0.00177833 -9.14466e-21)
(0.97834 -0.0100431 1.751e-20)
(0.980189 -0.023525 -1.78015e-20)
(0.986536 -0.0341599 8.43956e-21)
(0.995827 -0.0424436 0)
(1.01079 -0.0452831 0)
(1.02744 -0.0481445 -4.74135e-21)
(1.0469 -0.0506036 2.95187e-21)
(1.06547 -0.0551816 1.73683e-21)
(1.08707 -0.0577628 7.52733e-22)
(1.10973 -0.0608045 -7.01372e-22)
(1.13031 -0.0602906 3.02253e-23)
(1.15274 -0.0589385 5.87243e-22)
(1.1753 -0.0527643 -5.29775e-22)
(1.19758 -0.0434875 -1.76634e-22)
(1.21082 -0.031464 1.761e-22)
(1.22019 -0.0191858 0)
(1.22504 -0.00131022 0)
(1.21996 0.0176453 -2.77241e-22)
(1.20296 0.0366699 2.218e-21)
(1.18035 0.0502438 -2.20733e-21)
(1.15243 0.0585617 -1.85434e-21)
(1.12501 0.0604529 2.57068e-22)
(1.09835 0.0589777 1.17503e-21)
(1.07321 0.0517018 4.13354e-22)
(1.05418 0.0458957 -7.02034e-22)
(1.03593 0.0396088 2.70792e-22)
(1.02454 0.0366338 -2.51987e-23)
(1.01226 0.0316908 5.59556e-22)
(1.00652 0.0299518 -4.71148e-22)
(0.997406 0.0224431 -2.03344e-25)
(0.966937 0.00416115 -1.19025e-20)
(0.965952 0.00514761 2.31284e-20)
(0.963667 0.00722392 5.16585e-22)
(0.962357 0.00797455 -2.72009e-20)
(0.962302 0.00779494 1.72847e-20)
(0.962926 0.00746457 0)
(0.965834 0.00735186 0)
(0.971597 0.0070461 2.00262e-21)
(0.976567 0.0050101 1.01761e-21)
(0.978907 -0.00160529 -6.37342e-21)
(0.97874 -0.0140645 8.52773e-21)
(0.981363 -0.0276338 -8.70796e-21)
(0.987935 -0.0371082 1.30891e-20)
(0.99448 -0.0463266 -3.27382e-21)
(1.007 -0.0517432 4.10902e-21)
(1.02599 -0.055919 -7.49935e-21)
(1.04922 -0.0569979 1.63757e-21)
(1.0712 -0.0595106 -1.45132e-23)
(1.09341 -0.0602254 1.00044e-21)
(1.11652 -0.0622498 6.82378e-22)
(1.13674 -0.0619633 0)
(1.15869 -0.060498 5.19169e-22)
(1.1798 -0.0544533 -6.10366e-22)
(1.199 -0.0467491 0)
(1.21494 -0.0333088 0)
(1.22831 -0.0131296 7.1418e-22)
(1.23329 0.0100984 -1.75209e-21)
(1.22778 0.0295786 1.61712e-21)
(1.21301 0.0471297 -3.26001e-22)
(1.19004 0.0613482 0)
(1.16217 0.0700484 2.1442e-21)
(1.13364 0.0732873 -1.88279e-21)
(1.10585 0.0709838 3.26541e-22)
(1.0802 0.0649016 0)
(1.05878 0.0592586 0)
(1.03953 0.0497508 4.03926e-23)
(1.02541 0.0400239 5.07724e-24)
(1.01255 0.0278983 5.39215e-22)
(1.00461 0.0247466 -7.35997e-22)
(0.99238 0.0133244 -1.03777e-22)
(0.966229 0.00469528 -1.24569e-20)
(0.965265 0.00559452 1.42858e-20)
(0.963131 0.00777184 0)
(0.962342 0.00801034 3.55179e-21)
(0.962396 0.00758999 -3.67753e-21)
(0.963272 0.00677622 9.74595e-21)
(0.966512 0.00613724 -9.93542e-21)
(0.972597 0.00523267 2.68793e-23)
(0.975794 0.00251193 -8.60809e-21)
(0.978638 -0.00548077 1.52961e-20)
(0.979987 -0.0181846 -6.63781e-21)
(0.981253 -0.0317253 1.01825e-20)
(0.986189 -0.0415557 -4.59699e-21)
(0.993422 -0.0516571 -5.63345e-21)
(1.00696 -0.0560785 0)
(1.02556 -0.0600515 0)
(1.048 -0.0614267 0)
(1.07104 -0.0654972 -1.63402e-21)
(1.09331 -0.0680923 1.2549e-21)
(1.11825 -0.0712147 0)
(1.14012 -0.0705829 4.48432e-22)
(1.16078 -0.0694248 1.88136e-22)
(1.1811 -0.0643171 -1.98061e-22)
(1.2029 -0.0546392 -3.72932e-22)
(1.22029 -0.0402026 0)
(1.23053 -0.0254945 -7.87663e-22)
(1.23671 -0.00676391 -3.71163e-22)
(1.23589 0.0158514 1.1012e-21)
(1.22168 0.0392195 -2.33658e-23)
(1.2016 0.0570181 0)
(1.1741 0.0694135 2.22521e-21)
(1.14517 0.073575 -2.20875e-21)
(1.11738 0.0749963 -7.38106e-22)
(1.09009 0.0692872 4.97379e-22)
(1.06808 0.0629679 -1.40489e-21)
(1.04684 0.0544907 7.98125e-22)
(1.03332 0.050247 0)
(1.01923 0.0423658 4.17623e-22)
(1.01132 0.0406245 -3.54489e-22)
(1.00058 0.0315276 -8.14542e-23)
(0.965334 0.00528837 0)
(0.964441 0.00616157 1.38488e-20)
(0.962439 0.00804312 5.31731e-22)
(0.962102 0.00788672 -1.84046e-20)
(0.962241 0.00713323 1.56695e-20)
(0.963393 0.00577391 -1.59243e-20)
(0.967347 0.00468861 2.08279e-21)
(0.972669 0.00331076 6.61259e-21)
(0.975418 -0.000198034 -1.10549e-20)
(0.978473 -0.00993411 1.14792e-20)
(0.979678 -0.0226699 -1.8618e-20)
(0.98069 -0.0361838 8.24572e-21)
(0.986521 -0.0456749 4.66296e-21)
(0.99427 -0.0549641 -4.68611e-21)
(1.00437 -0.0606928 -5.50906e-21)
(1.02051 -0.0673512 8.5276e-21)
(1.04298 -0.0697061 -6.02946e-21)
(1.06899 -0.0733807 1.67144e-21)
(1.09509 -0.0742829 1.96553e-22)
(1.12244 -0.0749637 -4.10263e-23)
(1.14556 -0.0735034 4.62743e-22)
(1.16814 -0.0722789 -3.63225e-22)
(1.19007 -0.0660925 7.49599e-25)
(1.20722 -0.058276 -3.24346e-22)
(1.22492 -0.0462751 2.57096e-22)
(1.23845 -0.0273972 1.9617e-22)
(1.24602 -0.00237929 2.47731e-22)
(1.24545 0.0212462 -3.31468e-22)
(1.23372 0.044935 3.47632e-21)
(1.21378 0.065541 -9.73225e-23)
(1.18694 0.0794409 -2.9696e-21)
(1.15672 0.0865955 -2.08966e-21)
(1.12687 0.0883727 2.48835e-21)
(1.0988 0.0825444 9.50489e-22)
(1.0757 0.0777329 -1.40235e-21)
(1.05349 0.0686113 0)
(1.03762 0.0601462 0)
(1.02188 0.0443196 3.65084e-22)
(1.01201 0.0405586 -2.89988e-22)
(0.999959 0.0252286 1.57215e-22)
(0.964696 0.0056385 -2.68461e-22)
(0.963804 0.00641899 1.22181e-20)
(0.962062 0.0078689 1.88821e-21)
(0.961917 0.00752771 1.92239e-21)
(0.962076 0.00631828 2.063e-20)
(0.963498 0.00447713 -1.02993e-20)
(0.967512 0.00298529 -1.09217e-20)
(0.972278 0.00118324 0)
(0.974527 -0.00340629 2.31458e-21)
(0.977083 -0.0149346 7.22449e-21)
(0.978697 -0.0272883 -1.21317e-20)
(0.981202 -0.0403712 -9.78942e-21)
(0.986334 -0.0491367 1.10764e-20)
(0.99226 -0.0600362 0)
(1.001 -0.0663721 5.70067e-21)
(1.01821 -0.0733414 -4.55566e-21)
(1.03967 -0.0755736 -1.94864e-21)
(1.0673 -0.0795223 6.85495e-22)
(1.09313 -0.0806323 2.47399e-21)
(1.11922 -0.0838506 -6.99793e-22)
(1.14718 -0.0823701 -3.38908e-23)
(1.17083 -0.0803601 0)
(1.19187 -0.0760621 -6.8403e-23)
(1.21249 -0.0679774 6.88004e-23)
(1.23171 -0.052376 -2.87117e-24)
(1.24524 -0.035341 -9.15193e-22)
(1.25212 -0.0153754 1.74803e-21)
(1.25358 0.00934418 -1.22091e-21)
(1.24403 0.036796 0)
(1.22613 0.0596709 0)
(1.20026 0.0785069 3.06719e-21)
(1.16958 0.0867979 -3.04362e-21)
(1.13908 0.0914463 0)
(1.10991 0.0882387 8.03963e-22)
(1.08505 0.0837551 1.58021e-21)
(1.06089 0.0732853 -7.66179e-22)
(1.04454 0.0685164 -8.56082e-22)
(1.02854 0.0573688 8.90377e-23)
(1.01814 0.0548584 -9.62395e-23)
(1.00646 0.0437195 -1.61242e-23)
(0.963713 0.00613176 -1.43766e-20)
(0.962855 0.00680399 1.47117e-20)
(0.961364 0.00754418 -1.94628e-21)
(0.961261 0.0069406 0)
(0.961364 0.00530182 -1.95506e-20)
(0.962925 0.00278699 2.67123e-20)
(0.966604 0.0011788 -6.84618e-21)
(0.97081 -0.0012397 0)
(0.973364 -0.00748849 2.22257e-20)
(0.975134 -0.0203295 -1.11113e-20)
(0.978366 -0.0321847 -1.01606e-20)
(0.980792 -0.0445458 -1.021e-20)
(0.985759 -0.0538194 1.40426e-20)
(0.993704 -0.0646241 -3.81461e-21)
(1.00266 -0.0704305 5.91155e-21)
(1.01654 -0.0794917 -5.29135e-21)
(1.03597 -0.0832995 -2.01037e-21)
(1.06007 -0.0886247 2.31655e-22)
(1.0878 -0.0904315 1.22888e-21)
(1.11663 -0.091361 7.20284e-22)
(1.14512 -0.0883139 6.99505e-23)
(1.17239 -0.0864456 7.13721e-22)
(1.19762 -0.0792517 -7.83881e-22)
(1.22008 -0.070597 -3.16976e-22)
(1.23857 -0.0593209 3.1918e-22)
(1.25455 -0.0421233 8.07066e-22)
(1.26405 -0.0172189 -5.32808e-22)
(1.26581 0.00967454 0)
(1.25788 0.0383216 4.33654e-21)
(1.24111 0.0646872 -4.40083e-22)
(1.21584 0.0856711 7.32302e-22)
(1.18586 0.0977105 -3.5723e-21)
(1.15421 0.105506 0)
(1.12277 0.101996 1.24732e-21)
(1.09581 0.0980653 -1.38077e-21)
(1.07087 0.0882491 -2.52953e-22)
(1.05156 0.0837378 1.41921e-22)
(1.03412 0.0656929 0)
(1.02171 0.0611865 0)
(1.00807 0.0427293 -1.01573e-22)
(0.963017 0.00599888 -1.51081e-20)
(0.96227 0.00645012 1.55023e-20)
(0.961013 0.00687706 0)
(0.960929 0.0061736 0)
(0.961103 0.00410538 0)
(0.962552 0.0011763 0)
(0.966026 -0.000374934 0)
(0.970174 -0.00477296 0)
(0.972784 -0.0121823 -1.55141e-20)
(0.974139 -0.0261069 1.83749e-20)
(0.976976 -0.0369223 1.06787e-20)
(0.980064 -0.0495524 -1.4433e-21)
(0.986359 -0.0583729 -5.47684e-21)
(0.993881 -0.0688334 -6.58439e-21)
(1.00294 -0.0762111 -6.13271e-21)
(1.01611 -0.085847 9.34871e-22)
(1.03236 -0.0904438 2.4966e-21)
(1.05597 -0.0966718 -5.70156e-25)
(1.08403 -0.0960557 6.26083e-22)
(1.1106 -0.098762 7.8528e-22)
(1.13971 -0.0977058 -3.64135e-25)
(1.16901 -0.094199 8.52281e-22)
(1.19492 -0.0891277 -1.2819e-21)
(1.22089 -0.0831048 3.80545e-22)
(1.24314 -0.0682723 0)
(1.26209 -0.0496998 -1.28518e-22)
(1.27338 -0.0271511 -2.80287e-22)
(1.27761 -0.00171084 0)
(1.27121 0.0296697 3.78938e-21)
(1.25616 0.0577039 -3.71838e-21)
(1.23135 0.0837872 -1.04731e-21)
(1.20075 0.0985242 0)
(1.16783 0.108618 0)
(1.13557 0.107812 2.19146e-21)
(1.10707 0.107853 -2.16979e-21)
(1.08005 0.0967827 -8.51506e-23)
(1.05877 0.091608 6.71617e-23)
(1.04079 0.0776888 -3.05746e-22)
(1.02747 0.0747442 4.14603e-22)
(1.01405 0.059553 4.17075e-23)
(0.961975 0.00603428 0)
(0.961373 0.00612877 0)
(0.960073 0.0061503 0)
(0.95957 0.00487417 0)
(0.960417 0.00271128 0)
(0.961585 -0.00053615 1.2518e-20)
(0.964042 -0.00299734 -1.01088e-20)
(0.968534 -0.00907595 -1.06248e-20)
(0.972119 -0.017381 2.43302e-20)
(0.971854 -0.0314928 -5.39539e-21)
(0.973215 -0.0426208 -1.26018e-20)
(0.978254 -0.0544269 2.81281e-21)
(0.984851 -0.0624779 1.39683e-21)
(0.991247 -0.0751834 -1.36239e-21)
(1.00154 -0.0812227 5.0627e-21)
(1.01473 -0.0917777 -5.69963e-21)
(1.03219 -0.0966496 -2.14053e-21)
(1.05137 -0.103368 2.14625e-21)
(1.07491 -0.106552 -3.67796e-22)
(1.10337 -0.109013 8.5334e-22)
(1.13163 -0.105979 -4.81028e-25)
(1.16042 -0.104449 -1.1401e-22)
(1.19015 -0.0974218 1.57537e-22)
(1.22093 -0.088387 -3.98353e-22)
(1.24566 -0.0753946 3.93536e-22)
(1.2681 -0.0595277 2.57377e-22)
(1.28464 -0.0348023 -1.46217e-21)
(1.29286 -0.00636785 1.45363e-21)
(1.28902 0.0263514 -5.73773e-22)
(1.27689 0.057679 0)
(1.25339 0.0880468 4.94431e-21)
(1.2217 0.105802 -9.30842e-21)
(1.18748 0.120299 4.36595e-21)
(1.15344 0.121583 0)
(1.12107 0.121911 0)
(1.09327 0.110211 3.04642e-21)
(1.06891 0.109174 -3.18768e-21)
(1.04944 0.0914275 9.01042e-22)
(1.03344 0.0875325 -8.24465e-22)
(1.01818 0.0662481 -2.78394e-23)
(0.961582 0.00543224 0)
(0.960829 0.00518186 0)
(0.959631 0.00493142 1.88613e-20)
(0.958968 0.00325781 -2.15423e-20)
(0.959795 0.00112314 2.04231e-20)
(0.962172 -0.00310159 -2.58861e-20)
(0.964564 -0.00660708 -1.36322e-20)
(0.96814 -0.0145981 -3.00162e-21)
(0.972154 -0.0227272 1.42134e-20)
(0.971016 -0.0374537 0)
(0.971787 -0.0471837 2.94859e-21)
(0.974583 -0.0595382 -1.46371e-20)
(0.982354 -0.0684064 1.03187e-20)
(0.989798 -0.0797603 1.41586e-21)
(0.999421 -0.0874331 1.3614e-21)
(1.0137 -0.0982829 1.27758e-24)
(1.03049 -0.103248 -1.62839e-21)
(1.04885 -0.112397 2.73346e-22)
(1.07093 -0.113745 8.93469e-22)
(1.09661 -0.115796 8.28267e-22)
(1.12308 -0.115256 -3.81478e-23)
(1.15215 -0.112755 7.98879e-22)
(1.17993 -0.105858 -7.97358e-22)
(1.21144 -0.101444 9.20788e-23)
(1.24036 -0.0889024 0)
(1.26926 -0.0717692 -1.28918e-22)
(1.29072 -0.046415 1.52863e-21)
(1.306 -0.0188663 -5.83461e-21)
(1.30587 0.0162723 -4.02401e-22)
(1.2965 0.0491856 1.03055e-20)
(1.27452 0.0840366 -1.15321e-20)
(1.2449 0.106496 1.10361e-20)
(1.20793 0.125432 -6.59342e-21)
(1.17236 0.128603 0)
(1.1377 0.132698 0)
(1.10806 0.123619 0)
(1.08083 0.121045 -1.14183e-22)
(1.05859 0.103729 -1.59983e-21)
(1.04186 0.101857 1.39132e-21)
(1.02446 0.0824338 1.13376e-22)
(0.96062 0.00511261 -1.81444e-20)
(0.959529 0.00393111 1.8588e-20)
(0.95837 0.00338526 0)
(0.957393 0.00125546 2.53935e-21)
(0.957798 -0.00123857 0)
(0.960003 -0.00581433 5.53734e-21)
(0.963576 -0.00991256 -2.31343e-20)
(0.965424 -0.0195688 1.7367e-20)
(0.968723 -0.0285984 -6.17682e-21)
(0.969642 -0.0421739 9.14549e-21)
(0.969895 -0.051629 2.07439e-23)
(0.971659 -0.0658835 1.53665e-20)
(0.978621 -0.0730386 -1.23588e-20)
(0.988063 -0.0866843 -1.48725e-21)
(0.999265 -0.0930531 -1.41707e-21)
(1.0119 -0.105561 1.76348e-24)
(1.02838 -0.111683 -6.07309e-22)
(1.0494 -0.11806 -1.99864e-21)
(1.0694 -0.120601 2.85096e-21)
(1.09262 -0.12528 -8.49369e-22)
(1.11676 -0.122907 -5.89272e-22)
(1.14332 -0.123222 1.37781e-21)
(1.16816 -0.118456 -2.7382e-22)
(1.19986 -0.112922 -5.5045e-22)
(1.23032 -0.0999867 2.97649e-23)
(1.26312 -0.0858252 -9.32097e-22)
(1.29012 -0.060859 8.23551e-22)
(1.31514 -0.0314374 4.8607e-22)
(1.32383 0.00784246 6.71342e-22)
(1.32005 0.0424888 7.61106e-22)
(1.29982 0.0824953 1.78593e-21)
(1.27235 0.110044 0)
(1.23355 0.133482 1.39338e-21)
(1.19579 0.139449 0)
(1.15795 0.148325 -1.11383e-21)
(1.12519 0.137171 0)
(1.09568 0.137288 1.05415e-21)
(1.07074 0.12111 -2.23671e-21)
(1.05167 0.119289 1.1363e-21)
(1.03234 0.0979238 1.37656e-21)
(0.959991 0.00406648 1.65553e-20)
(0.958892 0.00228469 0)
(0.957969 0.0013198 2.64253e-21)
(0.957295 -0.00126846 -2.48363e-20)
(0.957534 -0.00435034 2.24005e-20)
(0.958971 -0.0105885 -5.87837e-21)
(0.963842 -0.015279 2.74605e-20)
(0.965451 -0.0265271 -3.09889e-20)
(0.967504 -0.0346457 3.16782e-21)
(0.968004 -0.0485946 3.22622e-21)
(0.970466 -0.057193 -1.62752e-21)
(0.972418 -0.0709458 -1.62336e-21)
(0.977005 -0.0797034 6.29359e-21)
(0.986126 -0.093091 -4.78844e-21)
(0.997276 -0.100544 0)
(1.01255 -0.112941 2.80442e-24)
(1.0284 -0.117665 -6.22791e-22)
(1.04807 -0.126545 0)
(1.06848 -0.129413 -8.68584e-22)
(1.09243 -0.13262 8.69467e-22)
(1.11251 -0.130992 4.00648e-23)
(1.13874 -0.13201 0)
(1.16181 -0.12538 0)
(1.19077 -0.122892 0)
(1.21753 -0.113776 -7.18207e-23)
(1.2523 -0.102779 1.08381e-22)
(1.28168 -0.0783937 -1.60217e-21)
(1.31399 -0.0516236 1.08434e-21)
(1.33271 -0.00930855 -1.41413e-21)
(1.34201 0.0305274 8.9955e-22)
(1.32717 0.0753599 6.01833e-21)
(1.30312 0.10717 -1.75495e-20)
(1.26392 0.138582 7.56955e-21)
(1.22393 0.149106 -5.75761e-21)
(1.18117 0.159802 1.59409e-20)
(1.1449 0.151774 -8.98127e-21)
(1.11303 0.154613 -6.27132e-22)
(1.08429 0.136887 -3.91315e-21)
(1.06351 0.13638 8.2016e-22)
(1.04078 0.115068 2.2328e-21)
(0.958264 0.00288903 2.49647e-21)
(0.957203 0.000401757 -2.69302e-21)
(0.955829 -0.000748606 7.11738e-23)
(0.95459 -0.00386916 2.86808e-21)
(0.955843 -0.00707094 0)
(0.955881 -0.0142354 -6.36399e-21)
(0.959052 -0.0198765 1.2803e-20)
(0.961155 -0.031677 1.66441e-20)
(0.962893 -0.039558 -1.35108e-20)
(0.963119 -0.0544689 3.47601e-21)
(0.966039 -0.0619845 0)
(0.971497 -0.0769053 -1.18523e-20)
(0.976557 -0.0851135 2.2001e-20)
(0.984779 -0.100909 -5.02826e-21)
(0.995638 -0.108249 -1.54415e-21)
(1.01234 -0.119864 6.16682e-21)
(1.02752 -0.126515 -4.82092e-21)
(1.04867 -0.135145 0)
(1.06759 -0.136057 0)
(1.09296 -0.14101 0)
(1.11252 -0.138079 -3.9637e-23)
(1.13744 -0.139576 0)
(1.15717 -0.135111 6.16984e-22)
(1.18498 -0.135405 -1.29495e-21)
(1.20945 -0.126143 7.19624e-22)
(1.24231 -0.11945 -5.68797e-23)
(1.27142 -0.0977887 0)
(1.3063 -0.0747769 0)
(1.3317 -0.0322541 -5.13546e-25)
(1.35337 0.0103535 -9.26655e-21)
(1.35292 0.0639427 -3.19193e-21)
(1.33646 0.102913 8.75609e-21)
(1.30031 0.142361 2.41829e-21)
(1.25856 0.157557 9.51391e-21)
(1.21286 0.174934 -7.23161e-21)
(1.17004 0.169263 -1.48706e-21)
(1.13343 0.171438 0)
(1.10105 0.154887 6.13536e-22)
(1.07904 0.155965 -3.42244e-21)
(1.0525 0.137553 3.4787e-21)
(0.957486 0.000680583 -2.42801e-20)
(0.956463 -0.00257415 2.79716e-21)
(0.955039 -0.00423563 -2.92702e-21)
(0.953599 -0.00838391 3.14344e-21)
(0.955308 -0.0121755 -3.26608e-21)
(0.955731 -0.0207917 2.36322e-20)
(0.957817 -0.0268608 -2.73302e-20)
(0.958201 -0.0395617 0)
(0.960561 -0.0467067 3.65327e-21)
(0.962695 -0.0613751 1.0958e-20)
(0.96448 -0.0695231 -1.47407e-20)
(0.970833 -0.0846573 -1.61421e-20)
(0.976955 -0.0929971 1.96425e-20)
(0.98818 -0.108013 -7.0043e-21)
(0.996659 -0.116071 3.24923e-24)
(1.01311 -0.129339 0)
(1.02789 -0.134605 -3.17291e-21)
(1.05085 -0.143336 9.3377e-22)
(1.06786 -0.143985 2.16704e-21)
(1.09319 -0.149167 0)
(1.11215 -0.145756 4.15321e-23)
(1.13721 -0.149174 8.98291e-22)
(1.15602 -0.143884 -1.08644e-21)
(1.18335 -0.145184 1.3263e-22)
(1.20626 -0.136568 0)
(1.23797 -0.134688 8.01649e-23)
(1.26491 -0.115283 0)
(1.30055 -0.0976412 0)
(1.32712 -0.0580105 1.53856e-21)
(1.35431 -0.0183665 0)
(1.36496 0.0409944 2.40932e-21)
(1.36491 0.0887452 -8.35544e-21)
(1.33849 0.140819 5.35996e-21)
(1.3 0.164153 -2.28151e-21)
(1.25097 0.189479 1.55904e-20)
(1.20375 0.185981 -1.38253e-20)
(1.16146 0.19301 0)
(1.12207 0.175781 -1.18129e-21)
(1.09658 0.176939 5.99936e-21)
(1.06619 0.158369 -5.42508e-21)
(0.954441 -0.0012952 -2.02963e-20)
(0.954182 -0.00495485 0)
(0.952026 -0.00660392 -3.22411e-21)
(0.949779 -0.0116855 2.02191e-20)
(0.950713 -0.0159247 -2.39035e-20)
(0.951062 -0.0250474 0)
(0.952736 -0.0312596 3.73817e-21)
(0.95344 -0.0445213 -3.82896e-21)
(0.953394 -0.0523619 -3.8191e-21)
(0.956949 -0.0673735 -3.93227e-21)