/*--------------------------------*- C++ -*----------------------------------*\
  =========                 |
  \\      /  F ield         | OpenFOAM: The Open Source CFD Toolbox
   \\    /   O peration     | Website:  https://openfoam.org
    \\  /    A nd           | Version:  10
     \\/     M anipulation  |
\*---------------------------------------------------------------------------*/
FoamFile
{
    format      ascii;
    class       volScalarField;
    location    "0.199606";
    object      p;
}
// * * * * * * * * * * * * * * * * * * * * * * * * * * * * * * * * * * * * * //

dimensions      [1 -1 -2 0 0 0 0];

internalField   nonuniform List<scalar> 
16320
(
0.618375
0.5834
0.548394
0.506825
0.465523
0.429447
0.40237
0.386589
0.384124
0.392214
0.417704
0.462061
0.503892
0.523216
0.520575
0.510565
0.498519
0.484433
0.468881
0.452394
0.435123
0.418087
0.402894
0.391734
0.39162
0.395747
0.409731
0.443364
0.510728
0.574226
0.607323
0.627178
0.645676
0.574589
0.547731
0.514386
0.479495
0.440219
0.405575
0.379374
0.36369
0.360058
0.366452
0.388926
0.43514
0.48951
0.521053
0.523096
0.513845
0.501108
0.486521
0.469998
0.452094
0.433346
0.415491
0.399365
0.387658
0.388053
0.392729
0.4081
0.444535
0.514448
0.571341
0.602175
0.621031
0.639817
0.531804
0.514357
0.486814
0.454728
0.418474
0.385108
0.360035
0.344912
0.34052
0.345314
0.363926
0.406217
0.468288
0.514073
0.524086
0.516022
0.50391
0.488775
0.471889
0.453118
0.434144
0.414631
0.397175
0.385093
0.38569
0.391305
0.407811
0.449109
0.520404
0.568301
0.595408
0.614675
0.633453
0.504955
0.491041
0.466968
0.435944
0.401221
0.369159
0.345287
0.330909
0.326097
0.329499
0.344123
0.379517
0.439981
0.496465
0.520539
0.515827
0.505495
0.491016
0.474231
0.455376
0.434992
0.414381
0.396005
0.383875
0.384649
0.391097
0.409882
0.455729
0.527335
0.56953
0.594275
0.612616
0.631009
0.50084
0.485738
0.45995
0.426417
0.391301
0.359478
0.336261
0.322368
0.317186
0.319446
0.330548
0.358469
0.410123
0.466489
0.502236
0.508229
0.501214
0.490267
0.474336
0.455683
0.434216
0.412865
0.394229
0.382478
0.383874
0.391342
0.413637
0.464455
0.533949
0.574217
0.596675
0.614163
0.631675
0.518052
0.499451
0.469061
0.431573
0.393041
0.359379
0.335361
0.320886
0.31484
0.316144
0.324521
0.346411
0.387548
0.432692
0.466382
0.481244
0.480225
0.474457
0.462844
0.447359
0.427281
0.407046
0.38971
0.379861
0.381932
0.391703
0.418961
0.477857
0.545318
0.583117
0.603749
0.620052
0.636211
0.565695
0.542601
0.501795
0.456017
0.410207
0.372407
0.345351
0.3285
0.320459
0.320577
0.326851
0.344807
0.376586
0.407844
0.430423
0.443995
0.447251
0.444201
0.437525
0.426376
0.410601
0.39442
0.380959
0.375397
0.378653
0.391804
0.427424
0.498557
0.563368
0.598501
0.618127
0.633009
0.645819
0.636128
0.611997
0.564434
0.507758
0.452297
0.406145
0.371853
0.349028
0.336362
0.334073
0.338508
0.353539
0.37956
0.399205
0.410369
0.415455
0.415824
0.41334
0.40764
0.398727
0.388176
0.377534
0.369206
0.368895
0.374421
0.39416
0.44307
0.528406
0.590546
0.622091
0.638941
0.650607
0.658527
0.671816
0.659418
0.618409
0.560286
0.50294
0.453415
0.41273
0.383111
0.36461
0.358914
0.361944
0.374794
0.395303
0.404122
0.404983
0.402765
0.396908
0.388412
0.380493
0.373153
0.366235
0.360108
0.357604
0.360186
0.371286
0.403092
0.473119
0.569378
0.62491
0.648721
0.659377
0.664797
0.667292
0.673044
0.669382
0.644408
0.609669
0.568799
0.523906
0.48213
0.446971
0.420842
0.408048
0.407268
0.412692
0.421636
0.418207
0.411816
0.399858
0.385316
0.372089
0.361641
0.354203
0.348756
0.345948
0.347297
0.353717
0.374
0.422885
0.52317
0.617656
0.655883
0.667728
0.671114
0.670581
0.668442
0.653502
0.653469
0.639986
0.622448
0.603984
0.582092
0.553817
0.523574
0.496757
0.477946
0.469463
0.46299
0.452857
0.440238
0.420931
0.399812
0.379074
0.361965
0.349606
0.341522
0.336684
0.336386
0.339824
0.352495
0.385085
0.462024
0.587934
0.658091
0.672837
0.674024
0.67185
0.667721
0.662499
0.631201
0.634126
0.631977
0.623411
0.614065
0.604562
0.599067
0.589205
0.576932
0.560304
0.542431
0.517822
0.488286
0.460481
0.429505
0.399848
0.375198
0.355951
0.342352
0.333585
0.329117
0.330785
0.33786
0.357889
0.410855
0.525749
0.644924
0.680391
0.673278
0.670749
0.665142
0.658968
0.650826
0.624108
0.628148
0.630125
0.631818
0.633182
0.633973
0.63484
0.633039
0.629703
0.619547
0.600704
0.563825
0.51931
0.47602
0.435941
0.400991
0.373582
0.352833
0.338242
0.329035
0.325504
0.328953
0.340902
0.3734
0.457224
0.597219
0.678352
0.679834
0.668208
0.663244
0.654646
0.646758
0.635965
0.623263
0.630006
0.635587
0.642277
0.649943
0.660111
0.671918
0.682826
0.684723
0.675887
0.646766
0.594891
0.540833
0.488229
0.440218
0.402504
0.373198
0.351329
0.335947
0.326635
0.325351
0.3308
0.349705
0.404061
0.52527
0.651996
0.681276
0.674164
0.661021
0.652446
0.643465
0.634318
0.623362
0.63007
0.640123
0.649262
0.659343
0.672019
0.689618
0.709965
0.729295
0.73466
0.724556
0.688332
0.622804
0.556173
0.494083
0.443792
0.403635
0.373016
0.350523
0.334839
0.326248
0.327303
0.337038
0.368759
0.454099
0.594595
0.674393
0.67629
0.665547
0.652907
0.642419
0.633354
0.624621
0.614136
0.642262
0.655899
0.669147
0.683297
0.700708
0.72308
0.748713
0.772039
0.776889
0.765211
0.723283
0.644751
0.566966
0.49942
0.445631
0.403968
0.37259
0.349797
0.334159
0.327815
0.332022
0.350428
0.404032
0.523904
0.640526
0.67174
0.667747
0.656941
0.645721
0.634282
0.626373
0.618293
0.608749
0.658861
0.676805
0.694517
0.713649
0.735499
0.760654
0.787665
0.807944
0.809111
0.79505
0.747161
0.658678
0.573274
0.500897
0.444968
0.402204
0.370694
0.348137
0.333672
0.331748
0.340769
0.374494
0.460127
0.589297
0.655678
0.663761
0.657419
0.649123
0.640543
0.630579
0.624033
0.616665
0.607384
0.678614
0.7013
0.724392
0.749308
0.776152
0.803567
0.82793
0.839788
0.836049
0.814469
0.754815
0.662779
0.573868
0.498717
0.440889
0.39745
0.366401
0.345253
0.334856
0.338584
0.357936
0.416044
0.535079
0.625327
0.649723
0.650923
0.647064
0.64207
0.636875
0.630375
0.625453
0.619012
0.609833
0.696537
0.725019
0.755466
0.787858
0.820753
0.850471
0.870771
0.870511
0.859196
0.823544
0.749571
0.657862
0.569147
0.492012
0.432421
0.389714
0.360142
0.341732
0.338701
0.349243
0.388914
0.484289
0.594393
0.633591
0.63876
0.636201
0.63556
0.635492
0.633423
0.631694
0.629214
0.624132
0.615227
0.706782
0.739329
0.776124
0.816498
0.856919
0.890074
0.905263
0.898794
0.873728
0.820651
0.736982
0.643598
0.558682
0.479624
0.420064
0.379035
0.352536
0.341687
0.346304
0.370621
0.442346
0.562895
0.62075
0.626553
0.622961
0.620851
0.622306
0.626318
0.62935
0.632598
0.632633
0.628707
0.620746
0.710683
0.744876
0.783864
0.827697
0.872217
0.909282
0.921474
0.910362
0.876392
0.807081
0.714526
0.620784
0.540483
0.462986
0.404281
0.365982
0.34556
0.345914
0.361264
0.412528
0.524768
0.610258
0.621431
0.615721
0.607608
0.604325
0.606803
0.612827
0.621675
0.630514
0.633759
0.630984
0.622625
0.702759
0.736909
0.776735
0.823775
0.874201
0.915167
0.925328
0.910947
0.866527
0.782942
0.686262
0.591863
0.516389
0.442898
0.387599
0.354639
0.347926
0.357006
0.392858
0.487097
0.59627
0.624011
0.616577
0.603426
0.593049
0.587366
0.588942
0.596819
0.609852
0.623928
0.631156
0.629328
0.617358
0.681024
0.709711
0.743412
0.7842
0.830506
0.871744
0.885922
0.871755
0.831363
0.749772
0.650489
0.557895
0.487078
0.419566
0.371733
0.354048
0.357077
0.382438
0.456316
0.573717
0.62427
0.621773
0.607706
0.591009
0.577847
0.570362
0.57041
0.578296
0.5939
0.612248
0.623097
0.619838
0.602444
0.653715
0.673861
0.696865
0.724974
0.757097
0.789049
0.805151
0.796695
0.769734
0.704537
0.607664
0.520813
0.455274
0.395942
0.366415
0.362102
0.380155
0.438488
0.549025
0.619851
0.628753
0.616914
0.597573
0.57871
0.562814
0.553604
0.551614
0.55822
0.573861
0.593942
0.604431
0.598207
0.573435
0.627938
0.640471
0.654792
0.672156
0.689267
0.704569
0.716785
0.712493
0.69924
0.653667
0.562757
0.487619
0.424854
0.387021
0.374976
0.387098
0.435578
0.535013
0.610323
0.632022
0.62588
0.60833
0.587434
0.566572
0.548588
0.537302
0.532827
0.536776
0.549039
0.564967
0.569405
0.558052
0.532368
0.606535
0.614132
0.623582
0.634613
0.643883
0.653802
0.657489
0.653628
0.643485
0.60783
0.524455
0.460914
0.415613
0.396541
0.404504
0.448057
0.535823
0.603952
0.631743
0.631577
0.619051
0.598978
0.575937
0.554537
0.535176
0.522042
0.514608
0.514696
0.520256
0.526385
0.52307
0.509699
0.49382
0.590074
0.595164
0.601822
0.609554
0.620755
0.631565
0.630356
0.6279
0.615214
0.573196
0.506512
0.455979
0.428812
0.434381
0.475618
0.551068
0.608938
0.634793
0.639236
0.629776
0.611405
0.588203
0.564784
0.542475
0.521901
0.506951
0.497142
0.492547
0.489574
0.4848
0.475629
0.46806
0.465297
0.57783
0.581701
0.586659
0.596019
0.611764
0.624559
0.622062
0.620789
0.610593
0.563469
0.510344
0.4766
0.479327
0.522799
0.585948
0.626471
0.645184
0.649972
0.642844
0.626424
0.60354
0.578347
0.553089
0.529363
0.507723
0.491292
0.479034
0.469886
0.460305
0.449602
0.442284
0.441574
0.449864
0.568749
0.571478
0.577797
0.591372
0.610545
0.624654
0.624622
0.633046
0.626537
0.576014
0.541095
0.540171
0.581987
0.626185
0.654336
0.667551
0.669993
0.663026
0.647376
0.624265
0.596441
0.568058
0.540484
0.514826
0.491875
0.473858
0.4597
0.447176
0.434778
0.425016
0.422605
0.430085
0.446631
0.561727
0.565464
0.574924
0.591274
0.617451
0.639809
0.651483
0.676498
0.646795
0.611248
0.597689
0.623104
0.654869
0.683261
0.698569
0.702615
0.697783
0.682459
0.657957
0.62841
0.593979
0.559217
0.527689
0.498862
0.474498
0.454934
0.439532
0.425885
0.415512
0.41094
0.415214
0.429795
0.453778
0.559352
0.563268
0.575267
0.598305
0.632077
0.6656
0.700373
0.72226
0.674972
0.63928
0.631991
0.654665
0.692128
0.722582
0.736255
0.739952
0.732313
0.711115
0.679612
0.642362
0.601594
0.559564
0.519367
0.485372
0.457859
0.437133
0.421359
0.410816
0.405378
0.407196
0.41815
0.439441
0.468028
0.557773
0.564518
0.580914
0.613024
0.657925
0.699867
0.736345
0.743352
0.669177
0.63469
0.634609
0.670913
0.708612
0.748961
0.768755
0.775662
0.773008
0.754004
0.71968
0.675235
0.626446
0.576368
0.52815
0.485371
0.451548
0.427338
0.413008
0.405999
0.405486
0.412865
0.429799
0.457495
0.489678
0.558806
0.569181
0.595177
0.637684
0.694013
0.745357
0.767337
0.723821
0.648757
0.620127
0.633054
0.676524
0.716103
0.761838
0.791117
0.806389
0.812633
0.80677
0.782087
0.738657
0.682355
0.619567
0.559402
0.507519
0.466662
0.437648
0.421301
0.414568
0.416394
0.427352
0.449792
0.484682
0.513491
0.565487
0.579725
0.614515
0.668798
0.735885
0.777152
0.783847
0.689613
0.62945
0.608752
0.632985
0.676863
0.716874
0.762055
0.798421
0.824411
0.840644
0.848693
0.844008
0.819719
0.77078
0.707631
0.639015
0.575713
0.523139
0.484355
0.46047
0.446808
0.443127
0.45286
0.478532
0.517129
0.540882
0.573667
0.594235
0.636835
0.706398
0.777086
0.813198
0.777849
0.669407
0.619096
0.6047
0.635327
0.676559
0.715927
0.756166
0.792684
0.822039
0.844303
0.857824
0.863121
0.855914
0.830894
0.792038
0.741355
0.686126
0.633158
0.58611
0.547705
0.514413
0.495121
0.494666
0.517022
0.546042
0.565888
0.585096
0.611067
0.662078
0.744528
0.812039
0.83868
0.772022
0.662751
0.618801
0.60816
0.640083
0.677016
0.714961
0.74716
0.778398
0.804429
0.823322
0.833416
0.837061
0.832288
0.817672
0.795631
0.77097
0.74712
0.723682
0.696242
0.659986
0.618707
0.582044
0.561343
0.565249
0.573424
0.581787
0.597761
0.629189
0.686487
0.779773
0.842384
0.859867
0.778846
0.669996
0.627721
0.618443
0.647601
0.677292
0.71319
0.738965
0.762996
0.783303
0.797386
0.804548
0.806808
0.804195
0.795471
0.781848
0.767857
0.757703
0.753419
0.75066
0.743022
0.723112
0.689856
0.651406
0.61276
0.596696
0.61159
0.610639
0.64575
0.707775
0.808236
0.869944
0.883178
0.799163
0.688394
0.643804
0.63322
0.655982
0.6783
0.709253
0.731845
0.750683
0.766991
0.778498
0.78467
0.787037
0.785903
0.780574
0.770885
0.761276
0.757239
0.759946
0.768457
0.780359
0.788036
0.782822
0.737837
0.666574
0.628504
0.633511
0.623494
0.660569
0.725623
0.830429
0.895182
0.908975
0.830561
0.712299
0.663111
0.649985
0.658839
0.680591
0.704668
0.725157
0.740982
0.75424
0.76414
0.769519
0.769476
0.766436
0.765721
0.759915
0.754141
0.754706
0.760551
0.775271
0.800685
0.825757
0.85117
0.814311
0.714556
0.659421
0.635255
0.636329
0.674627
0.740445
0.846327
0.918977
0.938671
0.869758
0.741894
0.685413
0.665341
0.660369
0.680884
0.699521
0.717286
0.731354
0.742539
0.751306
0.755643
0.756615
0.753038
0.749044
0.740853
0.738116
0.740915
0.750641
0.773175
0.811724
0.857073
0.904096
0.878239
0.74298
0.661146
0.630396
0.649335
0.688259
0.753053
0.856183
0.938767
0.971562
0.91261
0.775999
0.707588
0.677108
0.664266
0.679468
0.692603
0.707738
0.720411
0.730197
0.738253
0.742976
0.744891
0.740192
0.734431
0.732191
0.731766
0.735465
0.747463
0.774641
0.824091
0.884646
0.953734
0.924445
0.757213
0.655359
0.622315
0.662898
0.702127
0.763536
0.860769
0.952915
0.994211
0.940535
0.822966
0.732016
0.688151
0.669364
0.676435
0.684787
0.697228
0.708134
0.717386
0.724509
0.73033
0.732577
0.727279
0.72838
0.725744
0.724913
0.72874
0.741625
0.772869
0.832232
0.90767
1.00503
0.943543
0.749221
0.640973
0.610227
0.676967
0.716688
0.774537
0.862562
0.9602
1.005
0.973717
0.873882
0.756941
0.699297
0.674016
0.672455
0.6762
0.685641
0.694472
0.702777
0.71039
0.716843
0.718179
0.720728
0.722461
0.724331
0.725815
0.730715
0.745006
0.778762
0.843145
0.930859
1.03892
0.948744
0.726115
0.621678
0.593945
0.691466
0.731863
0.78603
0.864921
0.962707
1.00894
1.00466
0.917755
0.78407
0.709977
0.677754
0.667967
0.667339
0.673434
0.680305
0.687428
0.695886
0.702123
0.709255
0.712338
0.719488
0.72891
0.736954
0.744874
0.759021
0.79181
0.855201
0.949082
1.058
0.936802
0.69722
0.601258
0.575972
0.706616
0.747317
0.797801
0.869269
0.960398
1.00999
1.02129
0.948212
0.817661
0.724126
0.679031
0.661612
0.659333
0.661285
0.666297
0.672356
0.681114
0.686663
0.696576
0.705654
0.718675
0.734495
0.753056
0.769341
0.784771
0.813739
0.86172
0.955365
1.07295
0.898915
0.664721
0.580164
0.559294
0.722177
0.762607
0.809578
0.873416
0.955604
1.00793
1.02625
0.960766
0.849428
0.738562
0.681301
0.657884
0.650422
0.648802
0.651743
0.658121
0.665676
0.671713
0.682986
0.695697
0.714699
0.737623
0.766276
0.797284
0.819632
0.839042
0.87162
0.970192
1.09191
0.846034
0.635008
0.562571
0.545125
0.737975
0.777579
0.821231
0.877863
0.951002
1.00168
1.01824
0.964178
0.871775
0.752689
0.683127
0.651757
0.6407
0.637064
0.637675
0.642566
0.648119
0.657765
0.666824
0.681638
0.70347
0.734264
0.772209
0.812316
0.847327
0.873687
0.889371
0.993117
1.10146
0.809147
0.618186
0.551615
0.535432
0.75311
0.791526
0.832389
0.883256
0.948315
0.993336
1.00425
0.957785
0.870093
0.763524
0.684339
0.645593
0.629635
0.623742
0.62314
0.626547
0.630595
0.639319
0.647143
0.661215
0.68248
0.716493
0.765082
0.818454
0.860816
0.890496
0.921772
1.01382
1.10584
0.810117
0.620854
0.551546
0.530084
0.766789
0.803308
0.840448
0.887213
0.945572
0.984553
0.98916
0.944468
0.856819
0.769885
0.684068
0.637994
0.617133
0.610471
0.608114
0.609394
0.61193
0.619242
0.624975
0.636961
0.655151
0.686381
0.73517
0.793928
0.849161
0.894152
0.942439
1.01865
1.09602
0.837788
0.640882
0.562175
0.536174
0.778275
0.81103
0.844041
0.888781
0.942473
0.975832
0.971384
0.917237
0.844849
0.763927
0.681472
0.630317
0.605691
0.596921
0.592448
0.591797
0.592707
0.598742
0.603021
0.613063
0.628069
0.654625
0.696663
0.752745
0.814063
0.870521
0.926939
0.993684
1.0597
0.916794
0.697699
0.596236
0.559742
0.786962
0.81475
0.845088
0.889066
0.939736
0.969794
0.954385
0.887648
0.822205
0.743115
0.678315
0.622445
0.594883
0.583527
0.577115
0.574714
0.574212
0.579042
0.582878
0.590837
0.602247
0.62383
0.659007
0.710122
0.771765
0.833668
0.894508
0.952739
1.01544
1.01267
0.830383
0.676601
0.610511
0.791973
0.815995
0.844866
0.888831
0.9374
0.964227
0.936836
0.862875
0.794066
0.728255
0.67193
0.616674
0.585796
0.570817
0.562898
0.559068
0.556956
0.559547
0.563778
0.569001
0.579433
0.596486
0.623144
0.668777
0.729696
0.794272
0.854046
0.911785
0.982286
1.04744
1.014
0.843012
0.722066
0.793984
0.815555
0.842785
0.888583
0.935303
0.958009
0.918914
0.83822
0.76748
0.714767
0.656041
0.613299
0.577129
0.558425
0.550223
0.545053
0.541377
0.541993
0.544137
0.547396
0.555613
0.570202
0.593803
0.63168
0.68907
0.756655
0.820967
0.885939
0.957378
1.05939
1.12425
1.06452
0.93401
0.794223
0.813251
0.841039
0.888859
0.933332
0.949283
0.897535
0.812994
0.741404
0.697813
0.651167
0.611533
0.573537
0.550408
0.538796
0.533277
0.527598
0.525743
0.524464
0.525676
0.531215
0.543747
0.56547
0.599175
0.651985
0.71985
0.79297
0.872233
0.947593
1.05701
1.17155
1.1978
1.12906
0.791708
0.811285
0.840648
0.89026
0.931897
0.936248
0.871228
0.784882
0.719042
0.681577
0.645991
0.607946
0.572232
0.545693
0.530507
0.524094
0.516526
0.510236
0.506118
0.504044
0.506552
0.516582
0.535996
0.566008
0.614355
0.684201
0.765298
0.85281
0.938811
1.05187
1.18457
1.23887
1.20882
0.789625
0.810057
0.843703
0.892777
0.929326
0.916529
0.839384
0.755282
0.698511
0.668047
0.641066
0.60797
0.574374
0.546496
0.528478
0.518154
0.508045
0.497764
0.488907
0.483384
0.481299
0.486703
0.503736
0.535119
0.580465
0.645429
0.732571
0.823525
0.926798
1.04623
1.18307
1.25113
1.23774
0.788419
0.812274
0.851505
0.896708
0.923313
0.888182
0.801833
0.724617
0.679105
0.655136
0.634659
0.608342
0.580507
0.549748
0.530192
0.516642
0.505277
0.492754
0.480392
0.470337
0.464642
0.467985
0.481561
0.508691
0.553509
0.615862
0.694313
0.788838
0.909099
1.0303
1.17551
1.27222
1.26692
0.790384
0.819414
0.863212
0.900959
0.910627
0.850802
0.76045
0.695257
0.660524
0.64112
0.628017
0.60784
0.589976
0.557371
0.535167
0.518583
0.505554
0.493566
0.482027
0.47185
0.464059
0.464082
0.473136
0.49756
0.5348
0.588214
0.659769
0.745051
0.868168
0.996422
1.15275
1.27838
1.30246
0.797796
0.833175
0.876515
0.904129
0.888613
0.806279
0.718365
0.666602
0.641005
0.626989
0.619662
0.606351
0.595797
0.568868
0.54499
0.525478
0.510842
0.499249
0.488661
0.480874
0.475767
0.475815
0.480422
0.49576
0.527379
0.568721
0.624992
0.699122
0.816866
0.951376
1.10951
1.27157
1.33785
0.809935
0.852725
0.889558
0.903532
0.856293
0.758617
0.680065
0.640176
0.622236
0.614148
0.60913
0.602591
0.594945
0.578862
0.558836
0.539839
0.522813
0.511736
0.504074
0.500602
0.49915
0.49849
0.499762
0.507323
0.525384
0.559969
0.60161
0.663593
0.75467
0.884991
1.04943
1.24354
1.36317
0.82729
0.873383
0.900703
0.892359
0.814719
0.712863
0.647751
0.617455
0.605141
0.600027
0.59693
0.59567
0.591155
0.587263
0.575142
0.561139
0.546177
0.534115
0.530177
0.526757
0.52457
0.52278
0.522768
0.525732
0.535496
0.56282
0.590525
0.637047
0.710284
0.821418
0.990884
1.1995
1.37686
0.850043
0.891693
0.906583
0.86898
0.768009
0.67372
0.621734
0.598711
0.589772
0.586556
0.585917
0.585686
0.583253
0.585507
0.583936
0.580864
0.573898
0.566522
0.562149
0.555552
0.550154
0.546154
0.543431
0.54493
0.551164
0.571388
0.587942
0.623683
0.677426
0.770813
0.921091
1.14106
1.36535
0.873428
0.904564
0.9039
0.832304
0.723172
0.643423
0.602878
0.585065
0.577974
0.575442
0.575399
0.574951
0.574964
0.580492
0.580665
0.58615
0.591582
0.590712
0.586811
0.581378
0.574141
0.566942
0.563445
0.565871
0.570468
0.584526
0.594929
0.618784
0.65943
0.731368
0.864318
1.07832
1.32571
0.889886
0.911181
0.883882
0.785977
0.685113
0.621832
0.590453
0.575981
0.569538
0.566595
0.565683
0.562892
0.566086
0.570345
0.575058
0.58186
0.589575
0.595639
0.595081
0.592171
0.586829
0.580609
0.578614
0.581394
0.586614
0.599538
0.60954
0.62027
0.650531
0.707063
0.819136
1.01608
1.26924
0.898141
0.908454
0.846295
0.738118
0.654711
0.607506
0.582847
0.570428
0.563949
0.559656
0.5565
0.554012
0.557181
0.558302
0.565292
0.573745
0.583699
0.591611
0.593079
0.591807
0.589411
0.588379
0.589177
0.593938
0.60347
0.615455
0.626096
0.628306
0.647594
0.691958
0.783547
0.956298
1.205
0.900746
0.884543
0.79496
0.695566
0.632407
0.597173
0.578005
0.567161
0.559819
0.553931
0.548666
0.545759
0.547318
0.547047
0.552606
0.559744
0.570186
0.57955
0.584984
0.587211
0.587892
0.590303
0.595664
0.60554
0.619433
0.62901
0.640132
0.638691
0.651214
0.684594
0.757872
0.906265
1.13845
0.892128
0.839355
0.739671
0.660846
0.6153
0.589936
0.574841
0.564763
0.5565
0.549029
0.542294
0.538476
0.537707
0.536687
0.540056
0.542916
0.551116
0.560522
0.569152
0.576608
0.583219
0.591335
0.602024
0.616942
0.632281
0.641459
0.650093
0.648872
0.657702
0.68227
0.74052
0.864989
1.07519
0.861079
0.779808
0.690674
0.634408
0.60292
0.584801
0.572629
0.56291
0.553641
0.544757
0.536902
0.531516
0.529298
0.528176
0.530566
0.532795
0.535792
0.545289
0.555392
0.5668
0.580514
0.594626
0.610885
0.628478
0.644085
0.652265
0.658121
0.659135
0.66502
0.683387
0.729747
0.832336
1.01708
0.807771
0.717539
0.651293
0.61343
0.593359
0.580796
0.570539
0.560865
0.550458
0.540341
0.531511
0.524895
0.521337
0.521316
0.523246
0.526165
0.530853
0.535581
0.548241
0.566118
0.584136
0.602765
0.623481
0.641186
0.653777
0.661029
0.665158
0.668714
0.670685
0.685207
0.722607
0.806638
0.967903
0.741556
0.663687
0.619702
0.596765
0.585036
0.576786
0.567265
0.557537
0.546247
0.535286
0.52583
0.519024
0.515232
0.516442
0.518421
0.523553
0.530827
0.538768
0.549732
0.566668
0.586539
0.607524
0.629275
0.649299
0.66256
0.670046
0.673948
0.676113
0.676513
0.688134
0.71807
0.78661
0.927749
0.676891
0.620625
0.594057
0.581914
0.57632
0.57106
0.562296
0.552059
0.540159
0.528734
0.519258
0.513111
0.510601
0.512128
0.515776
0.523754
0.532783
0.54511
0.559269
0.576398
0.596782
0.618719
0.639183
0.657194
0.670473
0.680222
0.685881
0.682636
0.686329
0.693926
0.715239
0.772499
0.893358
0.624784
0.586542
0.572324
0.567883
0.56642
0.563174
0.554941
0.543925
0.531618
0.520181
0.511466
0.506931
0.506163
0.508593
0.51483
0.524949
0.536966
0.551867
0.568666
0.587001
0.60635
0.62747
0.647261
0.666641
0.681609
0.692497
0.697315
0.695815
0.696443
0.698005
0.715442
0.762687
0.866034
0.584988
0.560507
0.553507
0.554486
0.555169
0.553087
0.5448
0.532832
0.520513
0.509572
0.502647
0.499642
0.499942
0.505555
0.514432
0.526817
0.541116
0.557819
0.575913
0.594982
0.614718
0.636079
0.657439
0.680261
0.697442
0.707207
0.70915
0.708227
0.702217
0.70548
0.718681
0.757651
0.848313
0.555194
0.541003
0.53827
0.541883
0.543254
0.540689
0.531371
0.51885
0.506956
0.4974
0.492402
0.490818
0.493105
0.501155
0.513251
0.528062
0.544442
0.562825
0.582214
0.602436
0.623002
0.64648
0.671653
0.694724
0.713104
0.724076
0.722782
0.716159
0.711505
0.711177
0.722406
0.757317
0.842836
0.535029
0.526499
0.526739
0.52996
0.531155
0.526094
0.515131
0.50259
0.491536
0.48402
0.480775
0.480753
0.485681
0.496231
0.510621
0.527899
0.546519
0.566724
0.587667
0.609213
0.631131
0.658332
0.683308
0.707581
0.72389
0.729972
0.730472
0.726316
0.719709
0.717354
0.727801
0.760834
0.841647
0.523112
0.517312
0.518005
0.519748
0.518059
0.509252
0.496445
0.484325
0.474819
0.469586
0.467625
0.469864
0.477572
0.490236
0.508639
0.527291
0.547906
0.569271
0.592006
0.614773
0.638511
0.664772
0.69183
0.713182
0.724899
0.733034
0.734659
0.732294
0.726663
0.724442
0.734683
0.766859
0.841784
0.517846
0.513078
0.512051
0.510708
0.503671
0.490477
0.476038
0.464659
0.457434
0.453994
0.453721
0.458583
0.469108
0.484714
0.50529
0.525886
0.547955
0.57108
0.59479
0.618198
0.641892
0.667984
0.692309
0.711579
0.723019
0.731996
0.734903
0.73357
0.729202
0.727561
0.73771
0.768317
0.837151
0.516309
0.511804
0.508443
0.501627
0.488425
0.470554
0.454806
0.444791
0.43967
0.437605
0.439887
0.447119
0.460481
0.478693
0.501045
0.523731
0.547541
0.571359
0.595627
0.619627
0.643237
0.663734
0.687521
0.703348
0.716253
0.726584
0.731686
0.730416
0.728342
0.727568
0.736677
0.764921
0.827261
0.517867
0.512994
0.506236
0.493183
0.47276
0.450243
0.434334
0.425798
0.422315
0.42209
0.427034
0.436673
0.452194
0.472791
0.497353
0.52027
0.545372
0.569974
0.594601
0.618107
0.639647
0.655616
0.677412
0.691674
0.70549
0.71653
0.72203
0.722763
0.723883
0.724843
0.734114
0.757152
0.810196
0.522828
0.516347
0.504658
0.484723
0.456933
0.430864
0.415979
0.409132
0.406727
0.409034
0.416372
0.42848
0.445568
0.467665
0.493311
0.516462
0.541397
0.566189
0.590532
0.612962
0.631654
0.647711
0.663357
0.676245
0.691268
0.701701
0.709278
0.714414
0.715956
0.718025
0.725894
0.746875
0.790226
0.529577
0.521179
0.503967
0.475729
0.441346
0.41422
0.40075
0.395572
0.394376
0.399277
0.40864
0.42316
0.441672
0.464428
0.48972
0.512201
0.536273
0.559509
0.582054
0.602234
0.618799
0.633119
0.646729
0.658679
0.672626
0.683567
0.692692
0.701413
0.706008
0.709637
0.716545
0.73134
0.764733
0.537616
0.526914
0.5037
0.466767
0.427228
0.401317
0.389437
0.3856
0.386488
0.394008
0.405604
0.421494
0.440915
0.46341
0.487034
0.508644
0.530409
0.551308
0.570961
0.587356
0.603787
0.617031
0.629101
0.638484
0.650426
0.660899
0.671101
0.683227
0.695279
0.696482
0.704448
0.712349
0.73302
0.547061
0.534002
0.503824
0.458154
0.415669
0.392028
0.382052
0.379254
0.382911
0.392497
0.40642
0.422905
0.442201
0.464003
0.484508
0.505093
0.524354
0.542738
0.559588
0.573455
0.587832
0.600269
0.609783
0.620113
0.62757
0.638365
0.650945
0.661577
0.673797
0.684749
0.684655
0.693058
0.70253
0.55837
0.542751
0.505711
0.451403
0.407823
0.386312
0.378217
0.376289
0.382234
0.393994
0.40955
0.426806
0.445602
0.465774
0.483771
0.502089
0.518986
0.534484
0.547735
0.561236
0.573044
0.583243
0.590309
0.59755
0.607706
0.617242
0.629013
0.640845
0.652547
0.661343
0.666628
0.667095
0.673753
0.572102
0.553761
0.509697
0.448761
0.404508
0.384055
0.377068
0.375767
0.383828
0.397819
0.414827
0.432749
0.450829
0.469112
0.484508
0.500625
0.514993
0.527663
0.537925
0.549533
0.558724
0.566895
0.575867
0.580216
0.590589
0.600042
0.610706
0.621181
0.631815
0.638854
0.643818
0.646251
0.644763
0.588613
0.566834
0.515218
0.4486
0.403822
0.383722
0.377532
0.377333
0.387289
0.403336
0.421654
0.440164
0.457133
0.473767
0.486891
0.50099
0.512574
0.522139
0.530808
0.539497
0.546345
0.550457
0.55869
0.56628
0.575471
0.584864
0.595135
0.604055
0.613024
0.620662
0.626985
0.630127
0.630253
0.607731
0.582446
0.523038
0.450731
0.405215
0.38561
0.379827
0.380917
0.392767
0.410216
0.429901
0.449269
0.464329
0.479809
0.491757
0.502915
0.512354
0.518632
0.525585
0.531573
0.536864
0.541044
0.545721
0.554482
0.562937
0.571807
0.581804
0.590353
0.602593
0.614758
0.623388
0.627932
0.627232
0.629802
0.601496
0.534447
0.456521
0.409651
0.38995
0.384288
0.386312
0.399617
0.418233
0.43894
0.458711
0.472504
0.48716
0.497989
0.507024
0.513355
0.51758
0.522357
0.526349
0.529587
0.534951
0.53863
0.546241
0.553558
0.563037
0.572362
0.585551
0.601009
0.615946
0.627038
0.6346
0.633831
0.65496
0.624069
0.549879
0.465734
0.416926
0.396575
0.390779
0.393252
0.407665
0.426882
0.447631
0.467648
0.480247
0.494176
0.503829
0.511344
0.515606
0.518306
0.521937
0.524532
0.528095
0.530369
0.536926
0.542656
0.549061
0.558676
0.569503
0.585813
0.605434
0.625312
0.640761
0.650271
0.647619
0.682385
0.650045
0.569175
0.478553
0.427064
0.405513
0.399384
0.401587
0.416248
0.435333
0.455703
0.474378
0.486175
0.49931
0.508166
0.514787
0.518774
0.520455
0.523113
0.525718
0.529696
0.533793
0.538372
0.5421
0.548729
0.557656
0.571579
0.592125
0.617458
0.642188
0.659613
0.663914
0.654336
0.710928
0.678852
0.592308
0.494868
0.439555
0.416405
0.40968
0.411253
0.424852
0.442733
0.46165
0.479513
0.490204
0.502943
0.510741
0.516929
0.521012
0.523194
0.526668
0.530735
0.533241
0.538813
0.541191
0.545109
0.550699
0.562007
0.580186
0.606676
0.6376
0.664418
0.675005
0.66856
0.648407
0.739303
0.709287
0.619134
0.514731
0.454327
0.428896
0.421029
0.420973
0.432933
0.449042
0.465763
0.481341
0.493165
0.504909
0.512435
0.518877
0.524238
0.52787
0.530481
0.536534
0.541222
0.544108
0.546653
0.549965
0.557826
0.572244
0.595689
0.628819
0.664266
0.68539
0.681463
0.662175
0.624145
0.766315
0.740026
0.649078
0.538222
0.471507
0.443098
0.433158
0.431384
0.440549
0.454637
0.469229
0.482946
0.494698
0.506136
0.514189
0.521534
0.528498
0.533694
0.536644
0.543175
0.548004
0.550472
0.552532
0.557896
0.568204
0.586779
0.617064
0.656937
0.692883
0.699116
0.681788
0.635782
0.583919
0.791301
0.769736
0.681225
0.565198
0.49138
0.458967
0.446275
0.442518
0.44829
0.459727
0.471934
0.484083
0.495084
0.507143
0.516368
0.525256
0.533516
0.540002
0.543385
0.547544
0.553622
0.555649
0.560173
0.567311
0.579995
0.604214
0.642587
0.688596
0.719273
0.710055
0.672511
0.598598
0.533269
0.814385
0.797367
0.714257
0.595272
0.514366
0.477031
0.460499
0.45457
0.456832
0.465332
0.475371
0.486191
0.496214
0.508392
0.518839
0.528887
0.538128
0.545149
0.548629
0.549092
0.557575
0.561207
0.566714
0.575671
0.591787
0.622353
0.668823
0.720616
0.742669
0.721662
0.661665
0.581125
0.489431
0.836204
0.822398
0.746617
0.628268
0.540362
0.496595
0.476234
0.46815
0.467085
0.472733
0.480574
0.488136
0.499452
0.509867
0.520552
0.531368
0.540727
0.547534
0.550988
0.550905
0.560953
0.564184
0.569562
0.57967
0.599377
0.635003
0.69037
0.749698
0.763876
0.732252
0.657946
0.579678
0.470169
0.856162
0.844962
0.777074
0.662567
0.568544
0.517873
0.493777
0.482603
0.478867
0.481653
0.487239
0.492704
0.502607
0.512145
0.521729
0.53148
0.540588
0.547322
0.552836
0.551839
0.559132
0.563904
0.5698
0.580541
0.601795
0.640634
0.701285
0.765672
0.779287
0.741225
0.673667
0.612964
0.49208
0.668847
0.695161
0.718862
0.735162
0.752474
0.766199
0.743261
0.633222
0.662033
0.686073
0.707228
0.722742
0.732012
0.759528
0.718187
0.582209
0.654526
0.676751
0.695984
0.704706
0.704435
0.739806
0.684726
0.549075
0.650079
0.669605
0.68413
0.685065
0.677458
0.691978
0.649298
0.536442
0.647904
0.663557
0.67244
0.668946
0.656868
0.643353
0.614946
0.53013
0.649245
0.661411
0.665484
0.660301
0.643299
0.616284
0.592709
0.520946
0.654038
0.66252
0.662649
0.655843
0.636243
0.606362
0.577446
0.520929
0.661701
0.66523
0.662574
0.653608
0.633532
0.603325
0.572565
0.533526
0.665969
0.664119
0.657833
0.649108
0.62946
0.602056
0.573037
0.537949
0.662795
0.657083
0.646538
0.638341
0.619762
0.598397
0.570743
0.536093
0.653304
0.645172
0.632098
0.623765
0.606041
0.58852
0.563422
0.527857
0.64052
0.631158
0.617582
0.608431
0.590216
0.573075
0.548148
0.511073
0.627199
0.616861
0.603453
0.593417
0.574651