/*--------------------------------*- C++ -*----------------------------------*\
  =========                 |
  \\      /  F ield         | OpenFOAM: The Open Source CFD Toolbox
   \\    /   O peration     | Website:  https://openfoam.org
    \\  /    A nd           | Version:  10
     \\/     M anipulation  |
\*---------------------------------------------------------------------------*/
FoamFile
{
    format      ascii;
    class       surfaceScalarField;
    location    "0.199606";
    object      phi;
}
// * * * * * * * * * * * * * * * * * * * * * * * * * * * * * * * * * * * * * //

dimensions      [1 0 -1 0 0 0 0];

internalField   nonuniform List<scalar> 
32368
(
0.000287785
8.4528e-05
0.000266637
9.47425e-05
0.000239123
9.3031e-05
0.000205634
8.39352e-05
0.000172485
7.47889e-05
0.000144116
6.69431e-05
0.000121773
6.1717e-05
0.000103863
5.94073e-05
8.73912e-05
6.03548e-05
7.01713e-05
6.45521e-05
4.88448e-05
7.36007e-05
2.5015e-05
8.65043e-05
1.23122e-05
9.34643e-05
1.90487e-05
8.9536e-05
3.91748e-05
7.55917e-05
6.30975e-05
5.91689e-05
8.86058e-05
4.32333e-05
0.000115208
2.80971e-05
0.000142592
1.4406e-05
0.000170715
3.43255e-06
0.000205563
-6.06647e-06
0.000241782
-1.28252e-05
0.000271724
-1.61697e-05
0.000293887
-1.73534e-05
0.000306105
-1.76516e-05
0.000312231
-1.72662e-05
0.000313011
-1.74945e-05
0.000304648
-1.95755e-05
0.000285525
-2.87927e-05
0.000256305
-3.02864e-05
0.000224716
-3.03321e-05
0.00020141
-3.73618e-05
-5.02291e-05
0.000174041
0.000276078
8.70499e-05
0.000250588
0.000100671
0.000222595
9.95209e-05
0.000193379
8.93955e-05
0.000163401
7.7475e-05
0.000137944
6.69132e-05
0.000118602
5.89884e-05
0.000104363
5.4268e-05
9.25514e-05
5.29103e-05
8.04872e-05
5.45533e-05
6.38796e-05
6.08096e-05
4.05872e-05
7.32519e-05
2.46465e-05
8.54997e-05
2.87224e-05
8.69299e-05
4.80492e-05
7.68094e-05
7.12712e-05
6.17422e-05
9.721e-05
4.65538e-05
0.000126463
3.16518e-05
0.0001609
1.86081e-05
0.000200641
8.5596e-06
0.000238898
1.62349e-06
0.000270249
-2.85747e-06
0.00029337
-3.97711e-06
0.000308051
-3.30096e-06
0.000313539
-1.67033e-06
0.000314525
5.00958e-07
0.000309735
2.77762e-06
0.000297766
1.72648e-06
0.000273209
-2.68484e-06
0.000239247
-4.62423e-07
0.000209631
-3.09107e-08
0.000187818
-6.02999e-06
-1.66389e-05
0.000162752
0.000249786
8.869e-05
0.000224598
0.000104279
0.000199605
0.000102927
0.000175748
9.17971e-05
0.000150245
7.76771e-05
0.000128067
6.46181e-05
0.000111737
5.46288e-05
0.000100808
4.79898e-05
9.29597e-05
4.46568e-05
8.5301e-05
4.39919e-05
7.37117e-05
4.72324e-05
5.41171e-05
5.67382e-05
3.50809e-05
7.12024e-05
3.54709e-05
8.05653e-05
5.47495e-05
7.72805e-05
8.24912e-05
6.47665e-05
0.000114358
5.13562e-05
0.000151852
3.77998e-05
0.000190857
2.61696e-05
0.000229477
1.79307e-05
0.000262976
1.31455e-05
0.000287556
1.10576e-05
0.000304483
1.13809e-05
0.000314322
1.33859e-05
0.000315485
1.65038e-05
0.000311053
2.04736e-05
0.000302654
2.42422e-05
0.000285407
2.60299e-05
0.000257258
2.7054e-05
0.000220416
2.94661e-05
0.000193954
2.80989e-05
0.000175731
2.07445e-05
1.16805e-05
0.000154753
0.000214172
8.75344e-05
0.000192459
0.000102115
0.000172722
0.000100128
0.000153797
8.82525e-05
0.000133314
7.30866e-05
0.000115756
5.92329e-05
0.000103318
4.81489e-05
9.58273e-05
4.02918e-05
9.15604e-05
3.54249e-05
8.79244e-05
3.28514e-05
8.11722e-05
3.31897e-05
6.6738e-05
3.84676e-05
4.87893e-05
5.07882e-05
4.69087e-05
6.41454e-05
6.79777e-05
7.03951e-05
0.000102984
6.46102e-05
0.000138791
5.44209e-05
0.000176832
4.4068e-05
0.000213428
3.54978e-05
0.00024818
2.93049e-05
0.000276503
2.64075e-05
0.000297304
2.61591e-05
0.000310172
2.80086e-05
0.000315929
3.13759e-05
0.000314186
3.57412e-05
0.000306294
4.14472e-05
0.000293854
4.69881e-05
0.00027333
5.06302e-05
0.00024212
5.65271e-05
0.000206775
5.56044e-05
0.000184979
5.09236e-05
0.000170398
4.14359e-05
3.4092e-05
0.000152811
0.000178017
7.71623e-05
0.000162084
8.83997e-05
0.000147301
8.65533e-05
0.00013207
7.55741e-05
0.000116151
6.24603e-05
0.000102985
4.90838e-05
9.45577e-05
3.79335e-05
9.04976e-05
2.98767e-05
8.94158e-05
2.44054e-05
8.87356e-05
2.07285e-05
8.60532e-05
1.90858e-05
7.89625e-05
2.04733e-05
6.86336e-05
2.63589e-05
6.87458e-05
3.68525e-05
8.94785e-05
4.6394e-05
0.00012537
4.99391e-05
0.000161418
4.67814e-05
0.000196941
4.37533e-05
0.000230837
4.01307e-05
0.000260932
3.79583e-05
0.000284682
3.80138e-05
0.000301672
4.03493e-05
0.000311847
4.42811e-05
0.000313983
4.90939e-05
0.000309986
5.55705e-05
0.00029931
6.32511e-05
0.000282846
7.07756e-05
0.000256103
7.57615e-05
0.00021993
8.21166e-05
0.000188822
7.76285e-05
0.000172946
6.82662e-05
0.000163707
5.51566e-05
4.79299e-05
0.000153405
0.000144274
5.11532e-05
0.000135237
5.98489e-05
0.000125359
5.90976e-05
0.000114117
5.12529e-05
0.000101871
4.15814e-05
9.27395e-05
3.05151e-05
8.82165e-05
2.13543e-05
8.72458e-05
1.51329e-05
8.87335e-05
1.08109e-05
9.05753e-05
7.48059e-06
9.18919e-05
5.03205e-06
9.10736e-05
3.34911e-06
8.97877e-05
2.42982e-06
9.52859e-05
5.90157e-06
0.000114884
1.30993e-05
0.000145222
2.03398e-05
0.000179959
2.47031e-05
0.000211682
2.86284e-05
0.000241446
3.262e-05
0.000266728
3.7651e-05
0.00028637
4.37942e-05
0.000299768
5.07944e-05
0.00030724
5.7929e-05
0.000306435
6.52632e-05
0.000300474
7.53168e-05
0.000286826
8.58933e-05
0.000266058
9.39229e-05
0.000230835
9.91097e-05
0.000192624
0.000102358
0.000167597
9.28075e-05
0.000158883
7.86549e-05
0.000156792
6.08957e-05
5.25327e-05
0.000155152
0.00011909
4.38165e-06
0.000116148
1.04055e-05
0.000110139
1.00627e-05
0.000102161
7.73972e-06
9.32863e-05
3.9112e-06
8.79511e-05
-1.22109e-06
8.70443e-05
-4.64231e-06
8.91128e-05
-5.91746e-06
9.28029e-05
-6.51587e-06
9.61982e-05
-7.97206e-06
9.95061e-05
-9.8406e-06
0.00010351
-1.29232e-05
0.00010875
-1.80341e-05
0.000121366
-1.99278e-05
0.000141377
-1.62963e-05
0.00016655
-9.23658e-06
0.000196285
-7.36636e-07
0.000223732
8.17803e-06
0.000247903
1.90569e-05
0.00026726
3.1971e-05
0.000282447
4.494e-05
0.000292724
5.70511e-05
0.000297729
6.8707e-05
0.00029422
8.01174e-05
0.000284977
9.41427e-05
0.000268326
0.000106768
0.000240208
0.00011524
0.000196779
0.0001182
0.000160794
0.000114602
0.000144014
9.95837e-05
0.000143802
7.95853e-05
0.000150525
5.74795e-05
4.80686e-05
0.000156748
9.4589e-05
-4.52786e-05
0.000100983
-5.00157e-05
0.000102484
-5.51431e-05
9.88097e-05
-5.52593e-05
9.64737e-05
-5.37531e-05
9.72056e-05
-5.13958e-05
9.95636e-05
-4.51848e-05
0.000102736
-3.75975e-05
0.000106084
-3.10352e-05
0.000109531
-2.80387e-05
0.00011343
-2.78802e-05
0.00011934
-3.1054e-05
0.000129307
-3.75176e-05
0.000145514
-4.02453e-05
0.000165987
-3.67964e-05
0.000188022
-2.89616e-05
0.000212342
-2.0097e-05
0.000232935
-6.81214e-06
0.000249678
9.7432e-06
0.000263061
2.70289e-05
0.000273698
4.45657e-05
0.000280666
6.15354e-05
0.000282718
7.74806e-05
0.000275324
9.4283e-05
0.000262076
0.000110966
0.000241314
0.000123246
0.000203201
0.000129884
0.000155387
0.000130698
0.000125946
0.0001183
0.000119502
9.84194e-05
0.000128492
7.18531e-05
0.000144372
4.76124e-05
3.89722e-05
0.000157983
6.33873e-05
-7.79684e-05
8.69315e-05
-0.000104357
0.000103234
-0.000130165
0.000115165
-0.000139263
0.000126378
-0.000136432
0.000132935
-0.00012711
0.000134824
-0.000109806
0.000136134
-9.03069e-05
0.000137411
-7.34363e-05
0.000138888
-6.20739e-05
0.00014044
-5.6807e-05
0.000145871
-5.56579e-05
0.000156896
-5.71895e-05
0.000172572
-5.39005e-05
0.000190293
-4.80325e-05
0.000209
-3.88103e-05
0.000225653
-2.56778e-05
0.000238545
-9.40392e-06
0.000248636
8.29852e-06
0.000256268
2.76814e-05
0.000262081
4.75566e-05
0.000265199
6.74151e-05
0.000262084
8.68395e-05
0.000253298
0.000107181
0.00023596
0.000125089
0.000204584
0.000135914
0.000153218
0.000138302
0.00010821
0.000134334
9.04044e-05
0.000116102
9.5116e-05
9.28328e-05
0.000115014
6.06517e-05
0.000138502
3.52994e-05
2.96913e-05
0.000157202
4.37055e-05
-0.000113353
8.89204e-05
-0.000163198
0.000125776
-0.000201985
0.000159269
-0.00021866
0.000184916
-0.000218317
0.000200313
-0.000204087
0.000204124
-0.000179327
0.000201707
-0.000152651
0.000195098
-0.000127618
0.000187851
-0.000106575
0.000178973
-9.25017e-05
0.000177156
-8.23143e-05
0.000185627
-7.21504e-05
0.000198061
-6.16331e-05
0.000210849
-4.99577e-05
0.000224063
-3.59573e-05
0.000235177
-1.95672e-05
0.000242975
-2.542e-06
0.00024752
1.5791e-05
0.00025041
3.52239e-05
0.000251706
5.5636e-05
0.000249437
7.65342e-05
0.000242592
9.8507e-05
0.000228935
0.000119529
0.000205007
0.000134618
0.00015782
0.000143713
9.65384e-05
0.000141344
6.23706e-05
0.00013395
5.85888e-05
0.000113592
7.48739e-05
8.52073e-05
0.000103741
4.86111e-05
0.000133331
2.35396e-05
2.30976e-05
0.000153598
6.36204e-05
-0.000141146
0.000125737
-0.000194076
0.000169033
-0.000224585
0.000206973
-0.000233357
0.000237066
-0.000229919
0.00025859
-0.000220861
0.000266532
-0.000210413
0.000263214
-0.000192599
0.000251032
-0.000173268
0.000235122
-0.000150375
0.000218658
-0.000127886
0.000209918
-0.00010535
0.000213614
-8.13441e-05
0.000219523
-6.11517e-05
0.000228044
-4.17009e-05
0.000236717
-2.32219e-05
0.000242879
-5.632e-06
0.000246261
1.16499e-05
0.000247279
2.97275e-05
0.000246667
4.85578e-05
0.000244147
6.87427e-05
0.00023631
8.99546e-05
0.000225211
0.000111939
0.000204479
0.000130404
0.000165053
0.000142369
0.000101675
0.000148293
4.20071e-05
0.000143333
2.50549e-05
0.000134896
3.40626e-05
0.000112789
5.97983e-05
7.74101e-05
9.52014e-05
3.65249e-05
0.000127526
1.34908e-05
2.04427e-05
0.000145231
0.000124906
-0.000170827
0.000168712
-0.000203581
0.000195431
-0.00021927
0.000218063
-0.000228209
0.000236336
-0.000228403
0.000251565
-0.000221195
0.000265312
-0.000211053
0.000272146
-0.000198193
0.000270997
-0.000185341
0.000261362
-0.000166694
0.000247853
-0.000142197
0.000238302
-0.000111267
0.000235446
-7.78382e-05
0.000237918
-4.83307e-05
0.000241787
-2.38148e-05
0.00024597
-3.10865e-06
0.000248284
1.4852e-05
0.000249396
3.13818e-05
0.000248004
4.85975e-05
0.000244515
6.65849e-05
0.00023767
8.59954e-05
0.000226315
0.000107231
0.000207572
0.000126836
0.000174304
0.000140265
0.00011764
0.000151541
4.11373e-05
0.000151709
-1.24808e-06
0.000149467
-3.79003e-06
0.000142289
1.66164e-05
0.000111188
4.82296e-05
6.86027e-05
8.66172e-05
2.3858e-05
0.000119686
5.6625e-06
2.05786e-05
0.000132279
0.000163442
-0.000178734
0.000189139
-0.000202076
0.000214028
-0.000223205
0.00023693
-0.000235739
0.000255359
-0.000240227
0.000268596
-0.000238922
0.000274908
-0.000233142
0.000269695
-0.000221997
0.000258952
-0.000202975
0.000245684
-0.000176539
0.000239148
-0.000141738
0.000238607
-0.000101461
0.000240238
-6.23439e-05
0.000244955
-2.77719e-05
0.000249277
1.9258e-07
0.00025111
2.25624e-05
0.00025128
3.90731e-05
0.000251424
5.4585e-05
0.000248412
7.10727e-05
0.000242674
8.8183e-05
0.000231686
0.000106754
0.000216352
0.000126253
0.000187582
0.000142026
0.000137671
0.000153198
6.55356e-05
0.000158768
-4.76799e-06
0.000159074
-2.71909e-05
0.00016156
-1.65249e-05
0.000148907
5.29899e-06
0.000111836
4.04628e-05
5.86908e-05
7.66118e-05
1.50985e-05
0.000104216
3.31872e-06
2.31273e-05
0.000113475
0.000171966
-0.000177598
0.000201364
-0.000205955
0.000227025
-0.000228161
0.000249738
-0.00024258
0.000268823
-0.000250614
0.000284158
-0.000254408
0.000291695
-0.000253312
0.000289676
-0.000244913
0.000278479
-0.000224638
0.000259372
-0.0001918
0.000236761
-0.00014694
0.000222164
-9.46661e-05
0.00022293
-4.68984e-05
0.00023145
-9.08584e-06
0.000240087
2.33256e-05
0.000246413
4.6494e-05
0.000249535
6.32472e-05
0.000251142
7.92101e-05
0.000247585
9.56908e-05
0.000240216
0.000112002
0.000225382
0.000129217
0.000203509
0.000146688
0.000161046
0.000158819
9.74246e-05
0.000165645
1.32801e-05
0.000167665
-3.8131e-05
0.000174078
-4.03704e-05
0.000175367
-2.32179e-05
0.00015249
1.59743e-06
0.00011215
3.55745e-05
5.1113e-05
6.66866e-05
1.2369e-05
8.75916e-05
7.6314e-06
2.93515e-05
9.6469e-05
0.000176704
-0.000185855
0.000207911
-0.000212174
0.000234887
-0.000233306
0.000258606
-0.000249115
0.000279816
-0.000260409
0.000297281
-0.000267696
0.000307771
-0.000269838
0.000309639
-0.000262304
0.000302159
-0.000239452
0.000284166
-0.000201604
0.00025497
-0.000148232
0.000228832
-8.66337e-05
0.000215383
-3.27015e-05
0.000217305
1.00614e-05
0.000228293
4.31146e-05
0.000238373
6.77969e-05
0.000245404
8.65358e-05
0.000248866
0.00010447
0.000245049
0.000121479
0.000236134
0.000136455
0.000217143
0.000154356
0.000185465
0.000168677
0.000130572
0.000176125
5.46923e-05
0.000176662
-2.10472e-05
0.000181871
-4.90311e-05
0.000193479
-4.3863e-05
0.000184919
-2.47423e-05
0.000155761
2.89598e-06
0.00011144
3.42954e-05
4.7609e-05
6.15048e-05
1.51237e-05
8.03319e-05
1.57573e-05
3.94593e-05
8.82168e-05
0.000177677
-0.000193727
0.000209405
-0.000218353
0.000238077
-0.00023928
0.000264278
-0.00025625
0.000287345
-0.000269486
0.000307187
-0.000278309
0.000320879
-0.000281109
0.000327364
-0.000270868
0.00032543
-0.000244005
0.000311766
-0.00020015
0.000278544
-0.000141137
0.00024394
-7.26562e-05
0.000217934
-1.48914e-05
0.000210217
2.90593e-05
0.000217355
6.30715e-05
0.000229155
8.92889e-05
0.000240128
0.000111027
0.000245368
0.000131172
0.00024098
0.000148209
0.000228883
0.000162542
0.00020655
0.000180261
0.00016295
0.000192075
9.60567e-05
0.000190906
1.3463e-05
0.000189109
-4.0177e-05
0.0002017
-5.03944e-05
0.000209083
-4.08705e-05
0.000193353
-2.14105e-05
0.000158746
8.84823e-06
0.000108087
3.82487e-05
4.81128e-05
6.18832e-05
2.32626e-05
7.97551e-05
2.81209e-05
5.35137e-05
8.68062e-05
0.000176424
-0.000201025
0.000208812
-0.000224686
0.000238841
-0.000244983
0.000266615
-0.000262758
0.000291564
-0.000277756
0.000313676
-0.000287641
0.000330751
-0.000289184
0.000340378
-0.00027423
0.000344128
-0.000241322
0.000335262
-0.000188749
0.000300621
-0.000119923
0.000259765
-4.90538e-05
0.000226864
9.05171e-06
0.000211932
5.22951e-05
0.00021491
8.63822e-05
0.00022553
0.000113199
0.000236864
0.000137242
0.000241275
0.000159111
0.000235617
0.00017521
0.000217994
0.000190337
0.000190054
0.000206368
0.000134549
0.000212964
5.80322e-05
0.000203812
-1.13491e-05
0.000207919
-4.27858e-05
0.000222349
-4.55753e-05
0.000220441
-3.40148e-05
0.000199283
-1.36685e-05
0.000160679
1.85714e-05
0.000102699
4.48567e-05
5.25795e-05
6.59956e-05
3.49941e-05
8.16434e-05
4.46522e-05
7.03378e-05
8.7848e-05
0.000174772
-0.000207739
0.000206551
-0.000230894
0.000236926
-0.000251166
0.000266213
-0.00027006
0.000293948
-0.000285987
0.000320076
-0.000296195
0.000342074
-0.000295001
0.000356698
-0.000273791
0.000363527
-0.000232596
0.000353415
-0.000169164
0.000314911
-8.69231e-05
0.000271516
-1.6752e-05
0.000233488
3.95283e-05
0.000214487
7.96158e-05
0.000213833
0.000111805
0.000222009
0.000138711
0.000232285
0.000164669
0.000234923
0.000187955
0.000226376
0.000201783
0.000204495
0.000219651
0.000165191
0.000233083
9.8953e-05
0.000230231
2.22141e-05
0.000219527
-2.32072e-05
0.000229594
-3.92452e-05
0.000238805
-3.66862e-05
0.000228225
-2.47293e-05
0.000202473
-8.6455e-07
0.000158533
2.82409e-05
0.000100148
5.18299e-05
5.96005e-05
7.0831e-05
4.87414e-05
8.37987e-05
6.28107e-05
8.75976e-05
8.82449e-05
0.000174192
-0.000217049
0.000205767
-0.000239878
0.000236009
-0.000260131
0.000265727
-0.00027961
0.000294931
-0.00029519
0.000324204
-0.000302858
0.000349678
-0.000297104
0.000369576
-0.000271293
0.000378604
-0.00021954
0.000358565
-0.000136488
0.000321906
-5.15126e-05
0.000277084
2.31584e-05
0.000238106
7.57527e-05
0.000215536
0.00011173
0.000210824
0.000141348
0.000216582
0.000166517
0.000225342
0.000193461
0.000225109
0.000216836
0.000210145
0.000231135
0.0001842
0.000249014
0.000132471
0.000259749
5.61108e-05
0.000243701
3.45571e-07
0.000241973
-2.5843e-05
0.000252976
-3.0627e-05
0.000248515
-2.63269e-05
0.000232772
-1.27407e-05
0.000202772
1.20059e-05
0.000152437
3.69191e-05
9.94531e-05
5.72031e-05
6.79395e-05
7.32865e-05
6.28364e-05
8.17992e-05
7.87674e-05
0.000100335
8.51551e-05
0.000173649
-0.000230345
0.000205081
-0.000253311
0.000234633
-0.000273089
0.000263108
-0.000290525
0.000291675
-0.000304028
0.000322485
-0.000308555
0.000351176
-0.000297732
0.000370436
-0.000262915
0.000374569
-0.000196908
0.000356801
-0.000105565
0.000315793
-1.24431e-05
0.000273414
6.41227e-05
0.000241975
0.000116308
0.000217966
0.000152913
0.000208286
0.000179154
0.000209984
0.000200588
0.000215058
0.000225423
0.000209818
0.000243171
0.000189943
0.000262994
0.000154053
0.000279109
8.7773e-05
0.000281039
2.15113e-05
0.000263932
-1.24705e-05
0.000266436
-2.28357e-05
0.000267482
-2.06973e-05
0.000254635
-1.46844e-05
0.000235727
1.35965e-06
0.000198124
2.28406e-05
0.000144542
4.26339e-05
0.000100402
5.83752e-05
7.59037e-05
6.99589e-05
7.36116e-05
7.31846e-05
8.61057e-05
0.000105735
7.72428e-05
0.000173613
-0.000245219
0.000204756
-0.000267014
0.000232624
-0.000285049
0.000258527
-0.000299221
0.000284322
-0.000311322
0.000312437
-0.000314375
0.000338927
-0.000296675
0.00035696
-0.000250887
0.000364902
-0.00017559
0.000343684
-7.33804e-05
0.000299938
2.95699e-05
0.000258885
0.0001036
0.000237333
0.000154475
0.000218045
0.00019302
0.000205696
0.000218313
0.000202354
0.000235522
0.000200228
0.000256148
0.000185631
0.000274147
0.000161877
0.000291595
0.000110788
0.00031071
3.90114e-05
0.000298844
-3.39739e-06
0.000288996
-1.82421e-05
0.000288907
-1.6915e-05
0.00027754
-1.09065e-05
0.000258478
-1.22e-06
0.000234746
1.48969e-05
0.00018867
3.15362e-05
0.000137342
4.42489e-05
0.000102342
5.3632e-05
8.27355e-05
5.78584e-05
7.89713e-05
5.98327e-05
8.90624e-05
0.000106091
6.21949e-05
0.000171982
-0.000265149
0.000202287
-0.000286331
0.00022871
-0.000303325
0.000251128
-0.000315395
0.000273029
-0.000322694
0.000295776
-0.000319109
0.000319335
-0.000294998
0.000335315
-0.000238884
0.000344044
-0.000155543
0.000322094
-4.52965e-05
0.000277712
6.68499e-05
0.000238498
0.000139031
0.000222456
0.000189729
0.00020794
0.000228254
0.000194497
0.000253771
0.000185435
0.000268013
0.00017563
0.000284034
0.000157691
0.000301265
0.000118938
0.000324663
5.23259e-05
0.000338025
2.93023e-06
0.000320327
-1.82419e-05
0.000312186
-1.93625e-05
0.000302517
-1.15587e-05
0.000284167
-1.84487e-06
0.000260848
1.16323e-05
0.000227975
2.58588e-05
0.000178498
3.82023e-05
0.000133376
4.28215e-05
0.00010445
4.42843e-05
8.76613e-05
4.24474e-05
8.19274e-05
4.20424e-05
8.80564e-05
9.81654e-05
3.96053e-05
0.000167277
-0.000286685
0.000195537
-0.000308544
0.00021954
-0.000326483
0.00023906
-0.000338388
0.00025501
-0.000343637
0.000269467
-0.000334617
0.000285629
-0.000303062
0.000299904
-0.000238455
0.000316329
-0.000146027
0.000295465
-2.05549e-05
0.000248584
0.000102489
0.000213091
0.000172291
0.000199102
0.00022273
0.000185846
0.000260838
0.000171791
0.000283605
0.000159192
0.000290659
0.000141877
0.000308946
0.000114748
0.000329349
5.77701e-05
0.000358138
2.25276e-06
0.000359082
-2.37858e-05
0.00034052
-2.72793e-05
0.00032877
-1.88778e-05
0.000311837
-6.91906e-06
0.000288627
7.02908e-06
0.000258806
2.21512e-05
0.000217597
3.50409e-05
0.000169098
4.25092e-05
0.000130546
4.08471e-05
0.000105238
3.46442e-05
8.94542e-05
2.58484e-05
8.1364e-05
1.87181e-05
8.40597e-05
8.65607e-05
1.1185e-05
0.000157768
-0.000307043
0.000183751
-0.000330678
0.000204895
-0.000350451
0.000221235
-0.000363339
0.000231654
-0.000367634
0.000237418
-0.00035321
0.000246292
-0.000316457
0.00025995
-0.000246443
0.000284081
-0.000146999
0.000260858
3.69122e-06
0.000212324
0.000134021
0.000183075
0.000203894
0.000168935
0.000258049
0.000153071
0.000289174
0.000137462
0.000299786
0.000118009
0.000312715
9.62163e-05
0.000329922
4.76188e-05
0.000364539
-1.0706e-05
0.000389796
-3.74924e-05
0.000372299
-4.03992e-05
0.000353941
-3.22975e-05
0.000339492
-1.84804e-05
0.000317293
-2.36854e-06
0.000288817
1.45746e-05
0.000251855
3.04677e-05
0.000206756
4.33924e-05
0.000161081
4.66725e-05
0.00012599
4.05522e-05
0.000102088
2.75301e-05
8.66422e-05
1.24963e-05
7.53107e-05
-1.82317e-06
7.02944e-05
6.49622e-05
-1.68484e-05
0.000145927
-0.000326004
0.000169246
-0.000351777
0.000187587
-0.000373238
0.000200691
-0.000386914
0.00020763
-0.000388158
0.000209512
-0.000366881
0.000214745
-0.000326577
0.000227412
-0.000253386
0.000248777
-0.000148589
0.0002198
2.78687e-05
0.000170909
0.000161924
0.000146492
0.000241709
0.000125502
0.000285806
0.000106095
0.000299285
8.80741e-05
0.000310983
6.53649e-05
0.00032952
1.90712e-05
0.000362931
-4.0178e-05
0.000400529
-6.40287e-05
0.000396733
-5.96069e-05
0.000372973
-5.10582e-05
0.000362722
-3.55039e-05
0.000343904
-1.67324e-05
0.000317997
1.32311e-06
0.000283727
2.07681e-05
0.000242203
3.77113e-05
0.000196164
4.96843e-05
0.000151981
5.0637e-05
0.000118077
4.20632e-05
9.25212e-05
2.41236e-05
7.3596e-05
3.0648e-06
5.69605e-05
-1.768e-05
4.62978e-05
3.83113e-05
-3.40099e-05
0.000132739
-0.000345325
0.000154154
-0.000373568
0.000170403
-0.000396694
0.000180182
-0.000410199
0.000183726
-0.000404322
0.000188939
-0.00037961
0.000193273
-0.000332074
0.000208614
-0.000258105
0.000217237
-0.000139249
0.000175769
5.46735e-05
0.000126069
0.000192384
9.15868e-05
0.000270184
6.37424e-05
0.000287197
4.5034e-05
0.000295892
1.88691e-05
0.000318632
-2.88108e-05
0.000353451
-8.24698e-05
0.000392574
-0.000100113
0.000402135
-8.59704e-05
0.000383563
-7.51237e-05
0.000376599
-5.74285e-05
0.000365217
-3.55207e-05
0.000343137
-1.44147e-05
0.00031234
5.98066e-06
0.00027449
2.6137e-05
0.000230878
4.32577e-05
0.000184518
5.29131e-05
0.00014118
5.20317e-05
0.00010625
4.0693e-05
7.74159e-05
1.9041e-05
5.31915e-05
-5.85527e-06
3.22733e-05
-2.49721e-05
1.96694e-05
1.27837e-05
-3.65384e-05
0.000119651
-0.000368144
0.000139483
-0.000398834
0.000153494
-0.000423074
0.000159872
-0.000433071
0.000162873
-0.000423085
0.000172159
-0.000394928
0.000178342
-0.000339193
0.000202248
-0.00026413
0.000189331
-0.000122162
0.000121747
8.25465e-05
5.85537e-05
0.000218698
9.13985e-06
0.000256493
-2.00576e-05
0.000264691
-5.0474e-05
0.000288241
-9.72518e-05
0.000325409
-0.000138661
0.000364607
-0.000144095
0.000384647
-0.000121424
0.000378114
-0.000102475
0.000378045
-8.33685e-05
0.000376584
-5.84915e-05
0.000360158
-3.41737e-05
0.000335428
-1.10015e-05
0.000301656
1.06189e-05
0.000262118
3.06037e-05
0.000217436
4.5314e-05
0.000171364
5.15408e-05
0.000128824
4.73141e-05
9.19817e-05
3.16587e-05
5.93482e-05
8.95404e-06
3.05981e-05
-1.32916e-05
1.04636e-05
-2.81704e-05
-1.72107e-06
-8.71106e-06
-3.4603e-05
0.000106514
-0.000396666
0.000124557
-0.000429273
0.000135693
-0.000452396
0.000138406
-0.000458636
0.000143739
-0.000447196
0.000155116
-0.000412251
0.00016634
-0.000349155
0.000189613
-0.0002708
0.000144765
-9.06879e-05
3.82626e-05
0.000109181
-4.88937e-05
0.000198054
-0.000107421
0.000216821
-0.000150838
0.000239633
-0.000191899
0.000270633
-0.000206328
0.000308866
-0.000193745
0.000339681
-0.000161981
0.000350922
-0.000135222
0.0003615
-0.000112543
0.000370439
-8.43185e-05
0.000366377
-5.64661e-05
0.000349359
-3.02814e-05
0.000321745
-6.62047e-06
0.000286609
1.49149e-05
0.000246025
3.26144e-05
0.000201545
4.36428e-05
0.000156554
4.43102e-05
0.000114444
3.40686e-05
7.67813e-05
1.49562e-05
4.22952e-05
-5.72702e-06
1.45146e-05
-2.19762e-05
-3.82107e-06
-3.22055e-05
-1.53908e-05
-2.33832e-05
-3.68035e-05
9.25471e-05
-0.000430595
0.000107609
-0.000464453
0.000114905
-0.000486503
0.000118316
-0.000490826
0.000123554
-0.000471862
0.000134335
-0.000427439
0.000147223
-0.000360304
0.000156389
-0.000274171
4.22825e-05
-4.596e-05
-9.73985e-05
0.000100608
-0.000205627
0.000150876
-0.000275165
0.000172469
-0.000299463
0.000198958
-0.000278679
0.000230395
-0.000245035
0.000267125
-0.000205537
0.000298384
-0.000172629
0.000324071
-0.000142946
0.000344456
-0.00011213
0.000353621
-8.0494e-05
0.000347997
-5.10053e-05
0.000331299
-2.45648e-05
0.000302136
-1.66608e-06
0.000266627
1.78757e-05
0.000226458
3.15471e-05
0.000183262
3.65731e-05
0.000140233
3.10377e-05
9.93173e-05
1.59206e-05
6.19037e-05
-3.05677e-06
2.91287e-05
-1.97424e-05
4.34955e-06
-3.0766e-05
-1.32074e-05
-3.69334e-05
-2.57755e-05
-3.37472e-05
-3.8483e-05
7.59814e-05
-0.000468454
8.73606e-05
-0.000503609
9.37508e-05
-0.000525184
9.55497e-05
-0.000523096
0.000100393
-0.000496219
0.00010912
-0.000441919
0.000119613
-0.000375998
4.4458e-05
-0.00024129
-0.000127923
-3.38842e-05
-0.000287066
6.44186e-05
-0.000385407
0.000101801
-0.000394888
0.000134084
-0.00034187
0.000158988
-0.000294157
0.000187827
-0.000251632
0.000226962
-0.000212532
0.000264234
-0.000176194
0.000296738
-0.000140733
0.000319448
-0.000104998
0.000327646
-7.12696e-05
0.000320176
-4.18309e-05
0.000301892
-1.69083e-05
0.000275691
2.79744e-06
0.000241865
1.88356e-05
0.000203664
2.69336e-05
0.000163298
2.53659e-05
0.000122042
1.43011e-05
8.32349e-05
-2.23562e-06
4.80576e-05
-1.77881e-05
1.91591e-05
-2.87814e-05
-2.95631e-06
-3.57587e-05
-1.99973e-05
-3.97298e-05
-3.37572e-05
-4.07902e-05
-3.92736e-05
5.62987e-05
-0.000506135
6.49395e-05
-0.000541727
6.8311e-05
-0.000561692
6.95136e-05
-0.000556869
7.6247e-05
-0.000521482
7.49765e-05
-0.000451044
3.76222e-05
-0.000370732
-0.000134884
-0.000190821
-0.000315995
-3.31684e-05
-0.000437542
4.1395e-05
-0.000460121
8.62109e-05
-0.000400329
0.000114108
-0.000338542
0.000130806
-0.000298527
0.000155521
-0.000256728
0.000190085
-0.000213479
0.000226398
-0.000171202
0.000257537
-0.000130129
0.000279089
-9.13257e-05
0.000286631
-5.72003e-05
0.000278566
-2.91295e-05
0.000260425
-7.53366e-06
0.000235739
7.74096e-06
0.000208508
1.7414e-05
0.000176117
1.89943e-05
0.000139116
1.14616e-05
0.000101494
-2.59027e-06
6.64151e-05
-1.73146e-05
3.64453e-05
-2.87305e-05
1.22483e-05
-3.61114e-05
-7.56961e-06
-4.09221e-05
-2.5029e-05
-4.25388e-05
-4.03708e-05
-4.58812e-05
-4.15479e-05
3.26007e-05
-0.000531729
3.86039e-05
-0.000570574
3.84795e-05
-0.000596085
4.11624e-05
-0.00059211
4.83075e-05
-0.000544946
3.20479e-05
-0.000453837
-0.000106192
-0.000319314
-0.000310288
-0.000150628
-0.000428648
-2.38459e-05
-0.000495829
4.56926e-05
-0.000456397
8.68158e-05
-0.000381922
0.000102995
-0.000335234
0.000110283
-0.000297308
0.000124468
-0.000254334
0.000147511
-0.000206618
0.000176867
-0.000158542
0.000202947
-0.000112546
0.00021935
-7.18867e-05
0.000225287
-3.87736e-05
0.000219639
-1.35517e-05
0.000204898
3.67569e-06
0.000185388
1.38258e-05
0.000161087
1.64251e-05
0.000133356
1.0667e-05
0.000105582
-1.01137e-06
7.58835e-05
-1.57423e-05
4.87189e-05
-2.78461e-05
2.60391e-05
-3.61205e-05
6.80975e-06
-4.1522e-05
-1.14148e-05
-4.58461e-05
-3.00891e-05
-4.7927e-05
-4.67173e-05
-4.84789e-05
-5.04509e-05
7.42606e-06
-0.000543735
8.50818e-06
-0.000591654
7.11894e-06
-0.000625999
1.03144e-05
-0.00062365
9.72852e-06
-0.000558649
-5.54075e-05
-0.00043061
-0.00024376
-0.000281382
-0.000410522
-0.000107732
-0.00048097
-2.32703e-06
-0.000501178
5.89705e-05
-0.000437111
8.97447e-05
-0.000362728
9.38441e-05
-0.000323387
8.91842e-05
-0.00028434
9.0645e-05
-0.000241774
0.000100464
-0.000194958
0.000118149
-0.000143124
0.000135833
-9.32507e-05
0.000143525
-4.9161e-05
0.000141569
-1.53529e-05
0.000134097
6.24104e-06
0.000123309
1.93654e-05
0.000108754
2.33954e-05
9.16784e-05
1.88889e-05
7.53776e-05
7.62922e-06
5.79888e-05
-7.434e-06
4.06193e-05
-2.21771e-05
2.60364e-05
-3.35476e-05
1.30804e-05
-3.9723e-05
-1.0163e-06
-4.47306e-05
-1.69332e-05
-5.08008e-05
-3.5689e-05
-5.50072e-05
-4.94004e-05
-4.64484e-05
-6.91146e-05
-2.01335e-05
-0.00055266
-2.26282e-05
-0.000605727
-2.58811e-05
-0.000648201
-2.06307e-05
-0.000646782
-3.75563e-05
-0.000560571
-0.000145653
-0.000403684
-0.000355317
-0.000236091
-0.000469103
-7.03998e-05
-0.000505748
2.1749e-05
-0.000490265
7.09767e-05
-0.000418821
8.94621e-05
-0.000342637
8.22069e-05
-0.000304677
6.55884e-05
-0.000265433
5.62892e-05
-0.000224306
5.51113e-05
-0.000180426
6.18815e-05
-0.000131012
6.8055e-05
-7.85202e-05
6.6874e-05
-3.09463e-05
5.5872e-05
6.30218e-06
3.9081e-05
3.39619e-05
2.13983e-05
4.53229e-05
6.15584e-06
4.40342e-05
-4.40061e-06
3.33221e-05
-1.13819e-05
1.56785e-05
-1.57931e-05
-4.35108e-06
-1.66559e-05
-2.1198e-05
-1.61183e-05
-3.21245e-05
-1.591e-05
-3.92103e-05
-1.75937e-05
-4.65927e-05
-2.62393e-05
-5.76313e-05
-3.88791e-05
-6.90287e-05
-3.96944e-05
-3.97749e-05
-0.000105985
-4.76498e-05
-0.000559427
-5.41916e-05
-0.000616706
-6.09001e-05
-0.000663323
-6.01668e-05
-0.000661177
-9.7129e-05
-0.000552052
-0.000224697
-0.000379053
-0.000422247
-0.000201215
-0.000501828
-4.00936e-05
-0.000517225
4.38768e-05
-0.000476582
7.99703e-05
-0.000400323
8.71046e-05
-0.000321646
6.8352e-05
-0.000284263
4.26317e-05
-0.000246973
2.64604e-05
-0.000209333
1.80292e-05
-0.000169417
1.72374e-05
-0.000123414
1.60575e-05
-7.25505e-05
6.68531e-06
-2.33183e-05
-7.70692e-06
2.241e-05
-3.12585e-05
5.83007e-05
-5.83013e-05
7.89173e-05
-8.02062e-05
8.3012e-05
-9.55322e-05
7.17239e-05
-0.000102362
5.00703e-05
-0.000101625
2.46879e-05
-9.17664e-05
2.0999e-06
-7.78517e-05
-1.6389e-05
-6.03857e-05
-3.13067e-05
-4.72637e-05
-4.80404e-05
-3.94881e-05
-6.91583e-05
-3.417e-05
-0.000101875
-1.94922e-05
-2.76976e-05
-0.000174518
-7.39664e-05
-0.000562734
-8.54923e-05
-0.000623619
-9.74295e-05
-0.000673615
-0.000101511
-0.000666306
-0.000152209
-0.000544972
-0.000293141
-0.000362379
-0.000463515
-0.000175476
-0.000520625
-1.41145e-05
-0.000520189
6.3303e-05
-0.000460952
8.78184e-05
-0.000378024
8.1989e-05
-0.0003022
5.53598e-05
-0.000266739
2.46707e-05
-0.000233052
4.78882e-06
-0.000199081
-6.69454e-06
-0.000162399
-1.1607e-05
-0.00011922
-1.77875e-05
-7.34572e-05
-3.08066e-05
-2.26866e-05
-4.96853e-05
2.88029e-05
-7.78409e-05
7.07432e-05
-0.000104382
0.000100174
-0.000121955
0.000115769
-0.000134355
0.000117028
-0.000143036
0.000104686
-0.000147284
8.27724e-05
-0.00014427
5.21717e-05
-0.000130245
2.01696e-05
-0.000108747
-1.30707e-05
-8.3619e-05
-5.2947e-05
-4.77991e-05
-9.51812e-05
-1.23987e-05
-0.000159383
-1.63801e-07
-2.2384e-05
-0.000296423
-9.94902e-05
-0.000562571
-0.000114844
-0.000625162
-0.000133069
-0.000677676
-0.000142609
-0.000664563
-0.000198109
-0.000542308
-0.000341935
-0.000350575
-0.000486131
-0.000154247
-0.000526074
1.07719e-05
-0.000513798
8.18756e-05
-0.000438694
9.42354e-05
-0.000350699
7.61381e-05
-0.000288151
4.71702e-05
-0.000255621
1.51784e-05
-0.000225488