/*--------------------------------*- C++ -*----------------------------------*\
  =========                 |
  \\      /  F ield         | OpenFOAM: The Open Source CFD Toolbox
   \\    /   O peration     | Website:  https://openfoam.org
    \\  /    A nd           | Version:  10
     \\/     M anipulation  |
\*---------------------------------------------------------------------------*/
FoamFile
{
    format      ascii;
    class       volScalarField;
    location    "0.199606";
    object      T;
}
// * * * * * * * * * * * * * * * * * * * * * * * * * * * * * * * * * * * * * //

dimensions      [0 0 0 1 0 0 0];

internalField   nonuniform List<scalar> 
16320
(
0.00337964
0.00336815
0.00331153
0.00322439
0.00313919
0.00306808
0.003008
0.00297015
0.00296575
0.00298626
0.00305258
0.0031596
0.00325012
0.003295
0.00330766
0.0032975
0.00329368
0.00327976
0.00325101
0.00319097
0.00304044
0.00278556
0.0025982
0.00247831
0.00239707
0.00238108
0.00239367
0.00246296
0.00256874
0.00271934
0.00304748
0.00324973
0.00335117
0.0030729
0.00321866
0.00322075
0.00316761
0.00308077
0.00300295
0.00294167
0.0029004
0.00289103
0.0029075
0.00296395
0.00307974
0.00321544
0.00328636
0.00329873
0.00328646
0.00326478
0.00321271
0.00310023
0.00287403
0.00263966
0.00246481
0.00237855
0.00230994
0.00230265
0.00231022
0.00234215
0.00244465
0.0025521
0.00276959
0.00310951
0.00327654
0.00336813
0.00283724
0.00310832
0.00315527
0.00311551
0.00302189
0.00294786
0.00289853
0.00286541
0.00285316
0.00286545
0.00290941
0.00300471
0.00313347
0.00323202
0.00324962
0.00320302
0.00310691
0.00293124
0.00274547
0.00255979
0.00241732
0.00232117
0.00227716
0.00224782
0.00225447
0.00227997
0.00232796
0.00245077
0.00256892
0.0028405
0.00316923
0.00330329
0.00338416
0.00269904
0.00304364
0.00311519
0.00308479
0.00300494
0.00292026
0.00285549
0.00281906
0.00280089
0.00280588
0.00283585
0.00291245
0.00304557
0.00311329
0.0030919
0.00298013
0.0028305
0.00267203
0.00254047
0.00241199
0.00231672
0.00225863
0.00222143
0.00222153
0.00223471
0.00226864
0.00233158
0.00246306
0.00259891
0.00291933
0.00321761
0.00331928
0.00339013
0.0026423
0.00300301
0.00308784
0.00306708
0.00298888
0.0028925
0.00282581
0.00279077
0.00277785
0.00278385
0.00280734
0.00286199
0.00290947
0.00292848
0.0028761
0.00276733
0.00263612
0.00252309
0.00241599
0.00232724
0.002263
0.00222485
0.00219662
0.00220192
0.00222498
0.00226138
0.00234144
0.00247399
0.00265945
0.00303104
0.0032753
0.003341
0.00339943
0.00273391
0.00305155
0.00311116
0.00307839
0.00298131
0.00289677
0.00284074
0.00281269
0.00280173
0.00280034
0.0027951
0.00279505
0.00276634
0.00274539
0.00269555
0.0026
0.00250662
0.0024133
0.00233215
0.00227396
0.00223302
0.00220435
0.00218903
0.0021971
0.00221942
0.00226331
0.00236077
0.0025113
0.0027704
0.00315286
0.0033323
0.00336446
0.00341186
0.00296002
0.00317723
0.00318848
0.00312848
0.00302348
0.00295806
0.0029152
0.00286235
0.00283547
0.00280532
0.00278322
0.002718
0.00265881
0.00258894
0.00251608
0.00245014
0.00237617
0.00229912
0.00224851
0.00221814
0.00219514
0.0021762
0.00217532
0.00218523
0.00221228
0.00226692
0.00239555
0.00260035
0.0029306
0.00328476
0.00338838
0.0033923
0.0034266
0.00330846
0.00338146
0.00335189
0.00326506
0.00316904
0.00306542
0.00298397
0.00289463
0.002839
0.00278516
0.00271428
0.00261583
0.00252529
0.00244474
0.00236513
0.00230513
0.00224987
0.0022077
0.00218073
0.00216522
0.00215693
0.00215416
0.00215925
0.00217529
0.00221464
0.00229267
0.00247441
0.00274883
0.00313218
0.00341379
0.00344055
0.00341505
0.00344556
0.00351961
0.00349713
0.00341975
0.0032997
0.00318313
0.00302474
0.00291257
0.00279576
0.0026686
0.00257854
0.00249765
0.00240667
0.00235642
0.00229732
0.00225303
0.0022167
0.00217343
0.00214518
0.00213283
0.00213103
0.0021313
0.00213476
0.00214637
0.0021741
0.00222843
0.00235543
0.002631
0.00296882
0.00335597
0.00351726
0.00348245
0.00341451
0.00345582
0.0033373
0.003235
0.00317643
0.00311161
0.00301951
0.00284728
0.00269463
0.00256916
0.00243963
0.00237978
0.00233952
0.00231965
0.00229309
0.00225601
0.00222368
0.00218911
0.00214236
0.00211694
0.00210108
0.00210116
0.00210509
0.00211671
0.00214102
0.00218401
0.00227658
0.00249293
0.0028607
0.00321899
0.00354936
0.00357009
0.00347925
0.00339805
0.00345701
0.00303688
0.00303354
0.00308919
0.00310543
0.00306795
0.0029822
0.00283952
0.00272315
0.00258745
0.00249631
0.002441
0.0023941
0.00233369
0.00228703
0.00223187
0.0021859
0.00213646
0.00210784
0.00208442
0.00208368
0.00208871
0.00210679
0.00214263
0.0022185
0.00238561
0.00271461
0.0031335
0.00344579
0.00365946
0.003595
0.00342435
0.00337211
0.0034673
0.00301476
0.00323982
0.00355605
0.00366761
0.00369007
0.00366703
0.00356735
0.0034234
0.00318152
0.00296684
0.0027704
0.00261558
0.00246858
0.00236508
0.00227916
0.0022033
0.00215377
0.00211163
0.00207831
0.0020754
0.00208316
0.00210734
0.00216302
0.00230114
0.00257741
0.00299062
0.00338812
0.00360905
0.00370104
0.003571
0.00334642
0.00333908
0.00350116
0.00329461
0.00366455
0.00380529
0.00385542
0.00387415
0.0038839
0.0038768
0.00386767
0.00381237
0.00369139
0.00348821
0.00314822
0.00280826
0.00255649
0.00238201
0.00224853
0.00218863
0.00212752
0.00208134
0.00207594
0.00208624
0.00211962
0.00221718
0.00244694
0.00282617
0.00326966
0.00357824
0.00368591
0.00369539
0.0035044
0.00327662
0.00331465
0.00362236
0.00371473
0.00383866
0.00388701
0.00390582
0.00392013
0.00393605
0.00395154
0.00398013
0.0039807
0.00395412
0.00387775
0.00371019
0.00337754
0.00294262
0.00261876
0.00237802
0.00225763
0.00215619
0.00209078
0.00208208
0.00209677
0.0021503
0.00231228
0.00264841
0.00309669
0.00350184
0.00367279
0.00371278
0.00366852
0.00340782
0.00323363
0.00331732
0.00373814
0.00387533
0.00390614
0.00391862
0.00392951
0.00393936
0.00395862
0.00399003
0.00402637
0.00404329
0.00403502
0.00399544
0.00388598
0.00370887
0.00333343
0.00287852
0.00253707
0.00233888
0.0021902
0.00210793
0.00209852
0.00212022
0.00220626
0.00244821
0.0028828
0.0033499
0.0036354
0.00371852
0.0037213
0.00360678
0.00332974
0.00322104
0.00330619
0.00372636
0.00391764
0.00393328
0.00394589
0.00395449
0.00397297
0.00400879
0.00404619
0.00409428
0.00409361
0.00407399
0.00403105
0.00394007
0.00381686
0.00358746
0.00312604
0.00272361
0.00242902
0.00222417
0.00212709
0.00212401
0.00215483
0.00228517
0.00263682
0.00313796
0.00352872
0.00369977
0.00373023
0.00371579
0.00354386
0.00330069
0.00322881
0.00328481
0.00364333
0.00394245
0.00396349
0.00398369
0.00400922
0.00404284
0.00409467
0.00414476
0.00418833
0.00418433
0.00415384
0.00407339
0.00395047
0.00382797
0.00362559
0.00318739
0.00277866
0.00244852
0.00223005
0.00214205
0.00214872
0.00220069
0.00240318
0.00287292
0.00335544
0.00364046
0.00372495
0.00372775
0.00369905
0.00351097
0.00330621
0.00325074
0.00329018
0.00355981
0.00397884
0.00401107
0.00405258
0.00409168
0.00413077
0.00417941
0.0042125
0.0042318
0.00422657
0.00419873
0.00411507
0.00394421
0.00379736
0.00359731
0.00317489
0.00277606
0.00244292
0.00222704
0.00216011
0.0021778
0.00227275
0.00258239
0.00312445
0.00351723
0.00368355
0.0037209
0.00371677
0.00365323
0.00349242
0.00332548
0.00328288
0.00332613
0.00358609
0.00400112
0.00403827
0.00409548
0.00414368
0.0042019
0.00425944
0.00429189
0.00429386
0.00427892
0.0042316
0.00412672
0.00393442
0.0037038
0.00349781
0.00311422
0.00274842
0.00242431
0.00221965
0.00218585
0.00221863
0.00237789
0.00282754
0.00335092
0.00360319
0.0036897
0.00370545
0.00369013
0.0036175
0.00347547
0.00333837
0.00333143
0.00341482
0.00369523
0.00400849
0.00404834
0.00411236
0.00418441
0.00426908
0.00434578
0.00436998
0.00436083
0.00431693
0.00423097
0.00411321
0.0039539
0.003572
0.00322887
0.00292276
0.00265165
0.00237703
0.00221811
0.00221414
0.00228094
0.00254093
0.00311233
0.00349503
0.00364045
0.00367773
0.00366986
0.00362505
0.00358804
0.00343356
0.0033585
0.00340052
0.00364723
0.00395535
0.00399287
0.00404033
0.00411786
0.00422263
0.00431515
0.00440584
0.00445227
0.00443445
0.00433394
0.00420921
0.00409332
0.00393184
0.00350102
0.00298498
0.0026831
0.00248151
0.00229507
0.00222293
0.00224849
0.00238378
0.00279079
0.00333066
0.00358448
0.00363477
0.00364605
0.00359831
0.00357735
0.00354859
0.0033761
0.00337421
0.00353987
0.00393069
0.00415175
0.00397567
0.00403992
0.00413162
0.00425984
0.0043792
0.00449355
0.00456055
0.00452508
0.00432904
0.0041168
0.00403506
0.00386916
0.00339746
0.00284013
0.00250036
0.00237149
0.00225137
0.00224451
0.00231377
0.00256166
0.00307886
0.00349415
0.00360687
0.00361745
0.0035874
0.00353258
0.00354656
0.00345038
0.00333504
0.00338924
0.003665
0.00404656
0.00420562
0.00394495
0.00402796
0.00413201
0.00426681
0.00440511
0.004539
0.00463055
0.00456937
0.00422526
0.00397733
0.00389743
0.00373233
0.00326312
0.00270663
0.00240293
0.00229377
0.00225739
0.00229017
0.00245563
0.00277221
0.00333423
0.00357832
0.00360184
0.00357916
0.00351716
0.0034984
0.00350326
0.00334288
0.00330609
0.00339451
0.00370311
0.00400435
0.00409111
0.00393349
0.00400961
0.00409829
0.0042295
0.00436683
0.00454103
0.00464832
0.00455382
0.00405225
0.00378564
0.00371579
0.00353526
0.00300778
0.00253704
0.00231784
0.00228583
0.0022926
0.00240125
0.00258776
0.00311619
0.00351405
0.00359541
0.00358256
0.00351665
0.00347539
0.00347821
0.00341624
0.00326155
0.00327494
0.00337393
0.00361287
0.00385153
0.00385671
0.0039067
0.00396492
0.00403805
0.00415158
0.00428935
0.00447281
0.00456101
0.00441476
0.00380895
0.00360329
0.00352426
0.00320951
0.00267954
0.00238747
0.00229749
0.00231203
0.00239577
0.00252218
0.00289717
0.00339866
0.00357707
0.00358934
0.00353142
0.00347718
0.00346246
0.00344134
0.00332776
0.00322506
0.00325064
0.00333646
0.00349663
0.00373023
0.00372873
0.00386274
0.00389536
0.00394616
0.00404509
0.00420969
0.00440791
0.00444279
0.00421549
0.00353627
0.00340386
0.00323111
0.00274864
0.0024285
0.00230831
0.00232585
0.00240954
0.00252565
0.00277274
0.0032766
0.00353284
0.00358129
0.0035532
0.00349235
0.0034665
0.00344705
0.00338689
0.00330161
0.0032345
0.00325916
0.00332993
0.00343918
0.00363973
0.00368141
0.00377109
0.00378086
0.00381913
0.00391718
0.00413291
0.00435324
0.00434949
0.00393416
0.00325349
0.00315838
0.00282912
0.00242445
0.00229444
0.00233393
0.0024246
0.00254506
0.00275513
0.00320591
0.0034911
0.00357724
0.00357238
0.00351498
0.00347683
0.00345227
0.00341855
0.00336471
0.00328023
0.00324903
0.00328982
0.00339428
0.00357362
0.0036923
0.00375232
0.00361637
0.00361824
0.00365605
0.003793
0.00407904
0.00432593
0.00425495
0.00358303
0.00302863
0.00288231
0.00246822
0.00229624
0.00232398
0.00245071
0.00261089
0.00284416
0.00322373
0.00348139
0.00357133
0.00358812
0.00355614
0.00349941
0.00346154
0.00343137
0.0033894
0.00333808
0.00327926
0.00328222
0.00337389
0.00356446
0.00379596
0.0039483
0.00403462
0.00340948
0.00341318
0.00347625
0.00368424
0.00403767
0.00431142
0.00412543
0.00324647
0.00282173
0.00257637
0.00235723
0.00232417
0.00246952
0.00272086
0.00304607
0.003335
0.0035198
0.00360266
0.00362858
0.00359806
0.00352971
0.00347918
0.00343459
0.00340738
0.00336246
0.00330073
0.00326728
0.00330193
0.00341064
0.00361691
0.00381223
0.00402401
0.00434718
0.00318084
0.0031994
0.0033084
0.00358935
0.00401862
0.00431464
0.00395395
0.00292495
0.00260393
0.00242904
0.00236739
0.00247318
0.0028421
0.00329167
0.00350483
0.0036259
0.00368105
0.0036952
0.0036585
0.00359471
0.00352221
0.00346222
0.00341991
0.00337765
0.00331977
0.00326278
0.00323583
0.00330733
0.00342785
0.00362465
0.0038067
0.00403786
0.00461739
0.00297288
0.00301412
0.00316986
0.00351648
0.00401781
0.00432132
0.003664
0.00263739
0.0024755
0.00244292
0.00245278
0.00281797
0.00334999
0.00362184
0.00372066
0.00375828
0.00376986
0.00373959
0.00368036
0.00360745
0.00353796
0.00346389
0.00338935
0.00332363
0.00325661
0.00321765
0.00322805
0.00333301
0.00350631
0.00367864
0.00383713
0.0041508
0.00523068
0.00283172
0.00289402
0.00306779
0.00345579
0.00403527
0.00429977
0.00321944
0.00245278
0.00241489
0.00241842
0.00259375
0.00311211
0.00358095
0.00374726
0.00380504
0.00382413
0.0038274
0.00378852
0.00372437
0.00364754
0.00356159
0.00346245
0.00337305
0.00329144
0.00323661
0.00321628
0.00326669
0.00340275
0.00356677
0.0037155
0.00385868
0.00421064
0.00549046
0.00279022
0.00282341
0.00300876
0.00342709
0.0040714
0.00416045
0.00286492
0.00235249
0.00233211
0.00238372
0.00268851
0.00323877
0.00365844
0.00379504
0.00385644
0.00387679
0.00387709
0.00384571
0.00379965
0.00372824
0.00362212
0.00350775
0.00341403
0.00333537
0.00328196
0.00327031
0.00335423
0.00346044
0.00359722
0.0037317
0.00388137
0.00429914
0.00561512
0.00277228
0.00281076
0.00298251
0.00342426
0.00407781
0.00386381
0.00262539
0.00226339
0.00225083
0.00236706
0.002717
0.00326477
0.00368933
0.00382762
0.00389698
0.0039218
0.00391465
0.00390141
0.0038839
0.00382554
0.00372949
0.00363503
0.00354832
0.00347178
0.00341309
0.00341677
0.00345506
0.00351119
0.00358613
0.00369239
0.00391389
0.00457064
0.00557707
0.00277309
0.00280391
0.00298345
0.00344799
0.00403916
0.00365105
0.00250536
0.00219383
0.00217594
0.00236455
0.00272727
0.00329387
0.003721
0.00385593
0.00391767
0.00393536
0.00392126
0.00392513
0.00390765
0.00386849
0.00382827
0.00379042
0.00374186
0.00368419
0.00363244
0.00361604
0.00359045
0.00357851
0.00360351
0.00372809
0.00406244
0.00494739
0.00521624
0.00277747
0.00280894
0.00298773
0.0034636
0.00394046
0.0034501
0.00240688
0.00214994
0.00213166
0.00237737
0.00278521
0.00338443
0.00375799
0.00386211
0.00389795
0.00390312
0.00387935
0.00388756
0.0038736
0.00386082
0.00386684
0.00385391
0.00381767
0.00378594
0.00377694
0.00377815
0.00376333
0.00376069
0.00379089
0.00395186
0.00452005
0.00506739
0.00413302
0.00279975
0.00282028
0.00298811
0.0034647
0.00383589
0.00332787
0.00236006
0.00214614
0.00213815
0.00243106
0.00295617
0.00352716
0.00377015
0.00383209
0.00384452
0.0038357
0.0038149
0.00384132
0.0038619
0.00389577
0.00392801
0.00393037
0.00390895
0.00389516
0.00391502
0.00396185
0.00400885
0.00408463
0.00420127
0.00450349
0.00502552
0.00465614
0.00326004
0.00281792
0.00283488
0.0029766
0.00343343
0.00373804
0.00328423
0.0023527
0.00216866
0.00217449
0.00253803
0.00317928
0.0036062
0.0037499
0.00378358
0.00378723
0.00378137
0.00379046
0.00387399
0.00398102
0.00412532
0.00420049
0.00421276
0.00421554
0.00423363
0.00428079
0.00439664
0.00454817
0.00469237
0.00489954
0.00538077
0.00530086
0.00371872
0.00296253
0.00284005
0.00284692
0.00296299
0.0033685
0.0036604
0.00328489
0.00237189
0.00220109
0.00222634
0.00266383
0.00333926
0.00363527
0.00372558
0.00375282
0.00376382
0.00378859
0.00388814
0.00412743
0.00432252
0.00435951
0.00434451
0.00431306
0.00430688
0.00433128
0.00439505
0.00454847
0.00480708
0.00504553
0.00542016
0.0060072
0.0047161
0.00318019
0.00290629
0.00286217
0.00286088
0.00294571
0.0032931
0.00360911
0.00336099
0.0024183
0.00222955
0.00227311
0.00278803
0.00343711
0.00365427
0.00373144
0.0037683
0.00380359
0.0038985
0.00413072
0.00436362
0.00443261
0.00434283
0.00417628
0.00400117
0.00392502
0.0039445
0.00402415
0.00424313
0.00464871
0.00506479
0.00592911
0.00616663
0.0038851
0.00298139
0.00290513
0.00289086
0.00288245
0.00293915
0.00322244
0.00356433
0.00347829
0.00250472
0.00224617
0.00228173
0.00278241
0.00346167
0.0036778
0.00375675
0.00380422
0.00385858
0.00398824
0.004258
0.00438825
0.00439645
0.00399383
0.00353014
0.00331659
0.00328994
0.00333557
0.00348104
0.00374092
0.00416577
0.00498449
0.00647889
0.00565933
0.00334623
0.00294081
0.00295722
0.00291524
0.0029003
0.00293802
0.00315293
0.00351382
0.00355073
0.00268305
0.00226992
0.0022761
0.00272826
0.00344049
0.0036819
0.00376903
0.00382021
0.00387861
0.00402791
0.00427055
0.00433933
0.0041437
0.00335888
0.00308825
0.00305944
0.00308017
0.00315346
0.00334084
0.0036156
0.00406763
0.00524494
0.00679965
0.00476585
0.00311894
0.00293606
0.00306898
0.00294743
0.00292434
0.00294981
0.003109
0.00343894
0.00354207
0.00297132
0.00230427
0.00225028
0.00258056
0.00335894
0.00366527
0.0037628
0.00381991
0.00388495
0.00405641
0.00421828
0.00419535
0.00360183
0.00299875
0.00296974
0.00300293
0.0030363
0.00311372
0.00331529
0.00369812
0.00431899
0.00591545
0.00667068
0.00397225
0.00303833
0.00295928
0.003189
0.00298133
0.00294974
0.00295636
0.00307822
0.00337729
0.00352432
0.00322343
0.00238371
0.00222999
0.00238981
0.00314667
0.00360751
0.00374099
0.00381665
0.00389211
0.00405766
0.00412482
0.00390578
0.00311279
0.00288036
0.00294757
0.0029978
0.00303389
0.00310298
0.00332139
0.0039767
0.0051922
0.00669812
0.00627651
0.00353571
0.00301745
0.00299041
0.00329936
0.00301193
0.00297382
0.00297624
0.00306406
0.00331327
0.00351752
0.00339786
0.00248711
0.0022147
0.00223961
0.00280241
0.00346907
0.00369578
0.00380567
0.0039045
0.00401195
0.00400241
0.00352702
0.00291392
0.00284833
0.00295433
0.00301617
0.00306292
0.0030916
0.00331286
0.00422452
0.00597308
0.00694902
0.00540862
0.00328978
0.00300385
0.00301554
0.00338506
0.00304622
0.00299616
0.00298911
0.00305454
0.00323331
0.00350926
0.00354588
0.00266514
0.00217992
0.00213327
0.00243886
0.00315724
0.00359586
0.00378617
0.00389657
0.00394152
0.00383843
0.0032082
0.00284229
0.00284784
0.00298568
0.00304653
0.00308078
0.00308055
0.00320353
0.00432734
0.00623807
0.00677476
0.00446698
0.00315342
0.00298313
0.00305214
0.00344855
0.00307472
0.00301949
0.00300806
0.00305201
0.00318096
0.00345071
0.00360758
0.00305696
0.00219249
0.00205401
0.00215682
0.00272472
0.00336305
0.0037216
0.0038397
0.00385614
0.00364379
0.00300143
0.00281467
0.00287396
0.00302669
0.00307745
0.00308621
0.00308221
0.00315509
0.00408654
0.005833
0.00602546
0.00385902
0.00308828
0.0029895
0.00310921
0.00351844
0.00309815
0.00303756
0.00302292
0.00305758
0.00315992
0.00336168
0.00361776
0.00349199
0.0023653
0.00200058
0.0019833
0.00234566
0.00299094
0.00358329
0.00377232
0.0037821
0.00346776
0.00290418
0.00280769
0.00291967
0.00308234
0.00312369
0.00308606
0.00308216
0.00314004
0.00351124
0.00481126
0.00515679
0.00358743
0.00309346
0.00301465
0.00319194
0.00354584
0.00311405
0.00304869
0.00303078
0.0030642
0.00314924
0.00329505
0.0035661
0.00368322
0.00286004
0.0020271
0.00190808
0.00205145
0.00257673
0.00331255
0.00367459
0.00369531
0.00334274
0.00286719
0.00281381
0.00300567
0.00318962
0.0032273
0.00309759
0.00306819
0.00307709
0.00321129
0.00414039
0.00452961
0.00342339
0.00312658
0.00308418
0.00329321
0.00354534
0.00312295
0.00305451
0.00303386
0.00306721
0.00314486
0.00326389
0.0034712
0.00372761
0.00342165
0.00221711
0.00188687
0.00188452
0.00223565
0.00293164
0.00356831
0.00363376
0.00327822
0.00286113
0.0028419
0.00317528
0.00340014
0.00342678
0.0031455
0.00306542
0.00304461
0.00307279
0.00343488
0.00391788
0.00330572
0.00318269
0.00321166
0.00341324
0.00355023
0.00312549
0.00305627
0.00303463
0.0030679
0.00314215
0.0032488
0.00339692
0.00367374
0.00369315
0.00266889
0.00191397
0.00181875
0.00198751
0.00255744
0.0033981
0.00355683
0.00325376
0.00287663
0.00290269
0.00341827
0.00367412
0.00370143
0.0033341
0.00309291
0.00303459
0.00302169
0.0031169
0.0034908
0.00326743
0.00318372
0.00337835
0.00356802
0.00364177
0.00311309
0.00305005
0.003031
0.00306782
0.00314121
0.00324549
0.00336187
0.00360333
0.00376583
0.00322743
0.0020603
0.00181357
0.00185242
0.00226121
0.0032024
0.00351187
0.0032687
0.00290798
0.00296377
0.00353756
0.00378221
0.00380862
0.00366335
0.00324177
0.00305369
0.00301385
0.00303209
0.00318997
0.00323785
0.00315251
0.00349757
0.00378704
0.00384636
0.00309571
0.00303962
0.00302428
0.00306667
0.00314072
0.00324725
0.00335009
0.00356154
0.00378178
0.00362801
0.00243465
0.00184334
0.00180592
0.00204403
0.00291675
0.00344545
0.00329945
0.00294329
0.00298705
0.00355868
0.00379955
0.00382575
0.0037656
0.00356978
0.00317151
0.00303261
0.00300527
0.0029286
0.00317608
0.00312896
0.00347151
0.00400567
0.00415539
0.00306975
0.00302407
0.00301666
0.00306565
0.00314011
0.00324683
0.00334283
0.00354082
0.00378972
0.00379014
0.00300994
0.00197135
0.0018086
0.00190637
0.00257774
0.00339519
0.00335633
0.00296859
0.00299561
0.00354107
0.00377066
0.0037825
0.00377362
0.00370266
0.00347028
0.00309553
0.0029749
0.00283934
0.0030379
0.00310625
0.00337639
0.00402762
0.00444992
0.00304244
0.0030065
0.003012
0.00306508
0.00313867
0.00323656
0.00332757
0.00352746
0.00380991
0.00387218
0.00346432
0.00226614
0.00184375
0.00183218
0.00226849
0.00329016
0.00344115
0.0030314
0.00297607
0.00343601
0.00363013
0.00358562
0.00362215
0.0037229
0.00365112
0.00335735
0.00309215
0.0030223
0.00289455
0.00307328
0.003283
0.00387832
0.00467592
0.00301792
0.00299109
0.00301079
0.00306759
0.00313968
0.00321896
0.00330181
0.00351188
0.00385369
0.00396514
0.00372434
0.00262766
0.00192301
0.00181134
0.00205657
0.00304148
0.00343899
0.0032365
0.0029475
0.00319111
0.00333259
0.00315604
0.00320184
0.003563
0.00367711
0.00361416
0.00334404
0.00308624
0.00292994
0.00298598
0.00318524
0.0036439
0.00458657
0.00299669
0.00298521
0.00301722
0.00307222
0.00313755
0.00319644
0.00327059
0.00347575
0.00387854
0.00410637
0.0039422
0.00298305
0.00201607
0.00181259
0.00192565
0.00255466
0.00337486
0.00334463
0.00304575
0.00299086
0.00307612
0.00288199
0.00274684
0.00308086
0.00354934
0.00365932
0.00361529
0.00322525
0.00316746
0.00300794
0.00310026
0.0033994
0.00424003
0.00298702
0.00298644
0.0030258
0.00307547
0.00312866
0.00316312
0.00323595
0.00343356
0.00382686
0.00422993
0.00425184
0.00344695
0.00212278
0.00182515
0.00184757
0.00217367
0.00315822
0.00333696
0.00325408
0.00303077
0.00301293
0.00287524
0.00262636
0.00261061
0.00311925
0.00358124
0.00368637
0.00356962
0.00328345
0.00316486
0.00309314
0.00322682
0.00379813
0.00298239
0.00300161
0.00303939
0.00307966
0.0031162
0.00312612
0.00319869
0.00339259
0.00372748
0.00425915
0.00445701
0.00405135
0.0023281
0.00186036
0.00182031
0.00195668
0.00258164
0.00323971
0.00327709
0.00317915
0.00309322
0.00296278
0.00267859
0.00250627
0.0026237
0.00326348
0.00364587
0.0037533
0.00357319
0.00339433
0.00314998
0.00318807
0.00343017
0.00299115
0.00301583
0.00305239
0.00308233
0.00309306
0.00308191
0.00316023
0.00335224
0.00363106
0.0040796
0.0045215
0.00445769
0.00281232
0.00194184
0.00182633
0.00186967
0.00213914
0.00291429
0.00323116
0.00321336
0.0031686
0.00307645
0.00281581
0.00250417
0.0024547
0.00278078
0.00343509
0.0037374
0.00381825
0.00365409
0.00337582
0.00321824
0.00328131
0.0030042
0.00303592
0.00306255
0.00307322
0.00305633
0.00303166
0.00311972
0.00331276
0.00354928
0.00383249
0.00449159
0.00469621
0.00367605
0.0021327
0.00186043
0.00186905
0.00196369
0.00231142
0.00302503
0.00316655
0.00315139
0.00308455
0.00288731
0.00252397
0.00238186
0.00250376
0.00310255
0.00361214
0.00383494
0.00387265
0.00372205
0.00332459
0.00329264
0.00302018
0.00305186
0.00306981
0.00305411
0.00300957
0.00298303
0.00307653
0.0032751
0.00349653
0.0037072
0.00426798
0.00478698
0.00424906
0.00261747
0.00197937
0.0018901
0.0019316
0.00207666
0.00248775
0.00296578
0.00304344
0.00300177
0.00284108
0.00246191
0.00227122
0.00232557
0.00276424
0.00342857
0.00373441
0.0039156
0.00390885
0.00357991
0.00335126
0.00304084
0.00306464
0.00307146
0.00302032
0.00296145
0.00294253
0.0030441
0.00323583
0.0034359
0.00359396
0.00410467
0.00470814
0.00450205
0.00350173
0.00234324
0.00197125
0.00194266
0.00199065
0.00214197
0.00249062
0.00271986
0.00270993
0.00260943
0.00231589
0.0021492
0.00216894
0.00248101
0.00319348
0.00360355
0.00385606
0.00397552
0.00388426
0.00346871
0.00305667
0.00307459
0.00305768
0.00298028
0.0029219
0.00292094
0.00302754
0.00321179
0.0033858
0.00349023
0.00383705
0.00463481
0.00469659
0.00415634
0.00282176
0.00217628
0.00197608
0.00196905
0.0020111
0.00214163
0.00233326
0.00233737
0.0022863
0.00212493
0.00204219
0.00206103
0.00229529
0.00294863
0.00347185
0.0037552
0.00396176
0.00399846
0.00364888
0.00306809
0.00307937
0.00302995
0.00294342
0.00289568
0.002913
0.00302206
0.00319787
0.00335334
0.0034415
0.00364466
0.00442066
0.00480135
0.00447267
0.00332077
0.00239834
0.00204281
0.00196958
0.00195093
0.00197853
0.00206589
0.00208148
0.00206105
0.00199308
0.00196407
0.00198458
0.00216196
0.00272948
0.00332611
0.00365515
0.0039045
0.00398928
0.00378824
0.00307613
0.00306704
0.00299171
0.00291458
0.00288565
0.00292241
0.00303534
0.00319168
0.00331653
0.00340743
0.00356651
0.0041463
0.00479709
0.0046025
0.00391405
0.00267858
0.0021587
0.00198776
0.00193163
0.00191123
0.00192602
0.00193515
0.00192851
0.00191175
0.00190996
0.00194097
0.00208579
0.00256314
0.00318627
0.00357116
0.00384054
0.00396855
0.00384467
0.00307912
0.00303628
0.00294914
0.00289586
0.00288905
0.0029471
0.0030685
0.00320409
0.00329421
0.00336269
0.00349876
0.00393532
0.00471993
0.00468627
0.00430569
0.00331646
0.00240618
0.00206704
0.00194874
0.00190777
0.0019
0.00189426
0.00189379
0.00189468
0.00190211
0.0019378
0.00206178
0.00245819
0.00307999
0.00349592
0.00378116
0.00393739
0.0038444
0.00306094
0.00298917
0.00291474
0.0028863
0.00290625
0.00298195
0.00311315
0.00322663
0.00328538
0.0033288
0.00343388
0.00367091
0.00441366
0.00472234
0.00453936
0.00401866
0.0030094
0.00233003
0.00205888
0.00195808
0.00193046
0.0019104
0.00190992
0.00191318
0.00192746
0.00197305
0.00208597
0.00241412
0.00302726
0.00344172
0.00372873
0.00391445
0.00386344
0.00301706
0.00293692
0.00288887
0.00288684
0.00293519
0.00302984
0.00316985
0.00324969
0.0032842
0.00331529
0.00341071
0.0036334
0.00420769
0.00471288
0.00465289
0.00442842
0.00386039
0.00307028
0.00245771
0.00219996
0.00210059
0.00203366
0.00200582
0.00201178
0.00203765
0.00208083
0.00216392
0.00241446
0.00300378
0.00341877
0.00367408
0.00387942
0.00389618
0.00295588
0.00289158
0.00287268
0.00290076
0.00296965
0.00308668
0.00322169
0.00327333
0.00329076
0.00330445
0.0033628
0.0035841
0.00415998
0.0046337
0.00470771
0.00462779
0.00439122
0.0039575
0.00341447
0.00293064
0.00267273
0.00248369
0.00233763
0.00224041
0.00219425
0.00219462
0.00224116
0.00248104
0.00309049
0.00345856
0.0036242
0.00382771
0.00392996
0.00289563
0.00284918
0.00286703
0.00292057
0.00300891
0.00314065
0.00326418
0.00330475
0.00330919
0.00330399
0.00332312
0.00345434
0.00403021
0.00461423
0.0047434
0.00472936
0.00465903
0.00449594
0.00421845
0.00394289
0.00358005
0.00315591
0.00271397
0.00240899
0.00228205
0.00228065
0.00236729
0.00276668
0.00336029
0.00355934
0.00360703
0.0037123
0.00392562
0.00284465
0.00282136
0.00286574
0.0029455
0.00305518
0.00319813
0.00330334
0.00333471
0.00333657
0.00331721
0.00330848
0.00335212
0.00373874
0.00458989
0.00476893
0.00481458
0.00480165
0.00476257
0.00467227
0.00453212
0.00423791
0.00355989
0.00285986
0.00248919
0.00239946
0.00243472
0.00268452
0.00329918
0.00358606
0.00359431
0.00350346
0.00353273
0.00380794
0.00279949
0.00280807
0.00287023
0.00297345
0.00310361
0.00324507
0.00332797
0.0033509
0.003353
0.00333921
0.00330944
0.00330592
0.00346227
0.00433869
0.00477258
0.00486741
0.0048975
0.00490155
0.00488215
0.00480958
0.00456105
0.00373494
0.00292422
0.00264531
0.00264743
0.00284174
0.00342507
0.00368195
0.00367754
0.00351325
0.00333046
0.0033597
0.00360591
0.00277014
0.00280362
0.0028828
0.00300063
0.00314711
0.00327151
0.00333638
0.00335406
0.0033561
0.00334849
0.00331735
0.00330216
0.00335035
0.00384088
0.0047407
0.00488362
0.00495116
0.00498599
0.0049927
0.00495214
0.00472841
0.00377218
0.00310554
0.00305768
0.00325026
0.00375333
0.00385485
0.00378588
0.0034938
0.00324554
0.00321017
0.00326356
0.00352829
0.00275783
0.00280714
0.00290321
0.00302877
0.00318334
0.00328054
0.00332186
0.00332993
0.00333908
0.00334265
0.0033215
0.0033084
0.00331889
0.00356197
0.00457835
0.00487359
0.00496564
0.00502102
0.00503757
0.00500486
0.00472841
0.00383787
0.00363818
0.00381435
0.0041029
0.00407419
0.00376381
0.00342453
0.00325401
0.00317873
0.00318824
0.00326779
0.00356423
0.00275943
0.00282384
0.00293367
0.00306506
0.00321107
0.00327931
0.00329597
0.00329494
0.0033017
0.00330093
0.0032938
0.00330242
0.00331894
0.00344293
0.00421896
0.0048223
0.00495959
0.00501996
0.0050393
0.00500131
0.00463361
0.00412699
0.00422986
0.00431886
0.00412162
0.00362317
0.00337823
0.00330448
0.00331368
0.00335663
0.00339704
0.00348975
0.00378748
0.00277462
0.00285497
0.00297892
0.00311765
0.00322899
0.00326915
0.00327146
0.00326204
0.00325776
0.00324334
0.00323767
0.0032745
0.00332345
0.00339666
0.00389319
0.00466351
0.00491874
0.00500092
0.005023
0.00496355
0.00455161
0.00447699
0.00446352
0.00411953
0.00352893
0.00341749
0.00345544
0.00355688
0.0036671
0.00376431
0.00392395
0.00409125
0.00435161
0.00279733
0.0028946
0.00303781
0.00317699
0.00324209
0.00325907
0.00324337
0.00322418
0.00320771
0.00318779
0.00318346
0.00323438
0.00332558
0.00338809
0.00374271
0.00446541
0.00480814
0.00493946
0.00496477
0.0048276
0.00459668
0.00456093
0.00420887
0.00350135
0.00346703
0.00368095
0.00400218
0.0039769
0.00384311
0.00385096
0.00402163
0.00437286
0.00466451
0.00282799
0.00293946
0.00310247
0.00321484
0.00324702
0.00324396
0.00321394
0.0031917
0.0031684
0.0031522
0.0031547
0.00321599
0.00332918
0.00340149
0.00375221
0.0044325
0.00472419
0.00481909
0.00482534
0.00472915
0.00465747
0.00438377
0.00355282
0.00351002
0.00389424
0.00431349
0.00428747
0.00417255
0.00388759
0.0037673
0.00383458
0.00420969
0.00464331
0.00285609
0.00298309
0.00315013
0.00323018
0.00324772
0.00321328
0.00318117
0.0031592
0.00313602
0.00312544
0.00314941
0.00322434
0.00334595
0.00344055
0.0038142
0.00443464
0.00465655
0.00472652
0.00473949
0.00470079
0.00454461
0.00374131
0.00355474
0.00400426
0.00451749
0.00444772
0.00427724
0.00419393
0.00404733
0.0037941
0.00367222
0.00375997
0.00425672
0.0028771
0.00302223
0.00317816
0.00323546
0.00322767
0.0031764
0.00314501
0.0031225
0.00310863
0.00311103
0.00315948
0.00325258
0.00338712
0.00352246
0.00396087
0.00446332
0.00462369
0.0046802
0.0046932
0.00462508
0.00409568
0.0036441
0.00403324
0.00461836
0.00448606
0.004039
0.00377096
0.00379071
0.00395859
0.00397889
0.00376467
0.0035466
0.00362808
0.00289965
0.00305573
0.00319041
0.00323406
0.00319126
0.0031409
0.00311177
0.00309401
0.00308673
0.00311942
0.00319689
0.0033142
0.00347451
0.00369141
0.00417115
0.00450542
0.00461362
0.00464897
0.00464522
0.00442447
0.00385399
0.00387673
0.0044372