/*--------------------------------*- C++ -*----------------------------------*\
  =========                 |
  \\      /  F ield         | OpenFOAM: The Open Source CFD Toolbox
   \\    /   O peration     | Website:  https://openfoam.org
    \\  /    A nd           | Version:  10
     \\/     M anipulation  |
\*---------------------------------------------------------------------------*/
FoamFile
{
    format      ascii;
    class       volVectorField;
    location    "0.199606";
    object      U;
}
// * * * * * * * * * * * * * * * * * * * * * * * * * * * * * * * * * * * * * //

dimensions      [0 1 -1 0 0 0 0];

internalField   nonuniform List<vector> 
16320
(
(0.597484 0.164699 0)
(0.594435 0.190876 0)
(0.566244 0.195005 0)
(0.522726 0.187827 0)
(0.468357 0.179843 0)
(0.412803 0.173816 0)
(0.361751 0.171246 0)
(0.315329 0.173178 0)
(0.273969 0.180214 0)
(0.231568 0.193167 0)
(0.17077 0.212191 0)
(0.0955 0.229561 0)
(0.03792 0.229113 0)
(0.0266633 0.208145 0)
(0.0585863 0.175874 0)
(0.113581 0.139876 0)
(0.176798 0.104214 0)
(0.245851 0.0694702 0)
(0.321479 0.0354386 0)
(0.400797 0.00503672 0)
(0.478459 -0.0190516 0)
(0.548354 -0.0362999 0)
(0.608844 -0.0466782 0)
(0.655257 -0.0517095 0)
(0.686551 -0.0547438 0)
(0.703828 -0.0555328 0)
(0.697594 -0.0564742 0)
(0.647704 -0.0608439 0)
(0.55933 -0.0740749 0)
(0.478166 -0.0798559 0)
(0.427622 -0.0873435 0)
(0.394055 -0.104026 0)
(0.362938 -0.131764 0)
(0.571457 0.164558 0)
(0.573058 0.208584 0)
(0.546879 0.219535 0)
(0.506374 0.209255 0)
(0.457964 0.194922 0)
(0.406754 0.181721 0)
(0.361265 0.171866 0)
(0.322782 0.166719 0)
(0.292064 0.167453 0)
(0.262984 0.174303 0)
(0.214887 0.189366 0)
(0.14135 0.209705 0)
(0.0744585 0.21782 0)
(0.0527007 0.203863 0)
(0.0790631 0.174524 0)
(0.130697 0.140884 0)
(0.192518 0.107188 0)
(0.264791 0.0725039 0)
(0.343559 0.039948 0)
(0.420747 0.0127736 0)
(0.491049 -0.00675498 0)
(0.555275 -0.0181291 0)
(0.613177 -0.022952 0)
(0.657475 -0.0237073 0)
(0.68635 -0.0225286 0)
(0.700314 -0.0200317 0)
(0.688481 -0.0177743 0)
(0.628654 -0.020519 0)
(0.537438 -0.0319055 0)
(0.458116 -0.0312742 0)
(0.407542 -0.0315948 0)
(0.374412 -0.0444523 0)
(0.344886 -0.0668626 0)
(0.529402 0.166704 0)
(0.527009 0.225324 0)
(0.505963 0.240442 0)
(0.472061 0.228316 0)
(0.43165 0.206569 0)
(0.388073 0.185351 0)
(0.35004 0.168012 0)
(0.320119 0.155934 0)
(0.299047 0.150092 0)
(0.2815 0.150242 0)
(0.247033 0.158878 0)
(0.180643 0.177535 0)
(0.107377 0.194987 0)
(0.0729663 0.193999 0)
(0.0922225 0.172403 0)
(0.146756 0.141506 0)
(0.215725 0.108955 0)
(0.290257 0.0767643 0)
(0.36427 0.0495218 0)
(0.434495 0.0286268 0)
(0.501153 0.01507 0)
(0.563717 0.00875459 0)
(0.61933 0.0080064 0)
(0.660861 0.0106701 0)
(0.686353 0.0158234 0)
(0.695946 0.022666 0)
(0.675541 0.0289989 0)
(0.603444 0.028683 0)
(0.510282 0.0232981 0)
(0.434577 0.0288228 0)
(0.385531 0.0302117 0)
(0.355843 0.0156502 0)
(0.331348 -0.00474641 0)
(0.465813 0.171192 0)
(0.460526 0.23486 0)
(0.447039 0.250263 0)
(0.423623 0.235932 0)
(0.393288 0.209067 0)
(0.358264 0.18133 0)
(0.3283 0.157495 0)
(0.307348 0.139369 0)
(0.295826 0.127437 0)
(0.28925 0.121074 0)
(0.269157 0.122445 0)
(0.216679 0.134986 0)
(0.145204 0.156076 0)
(0.102978 0.167956 0)
(0.117223 0.158918 0)
(0.174609 0.134524 0)
(0.244016 0.108022 0)
(0.313349 0.0831167 0)
(0.381104 0.063022 0)
(0.446623 0.0486192 0)
(0.510028 0.0409861 0)
(0.570177 0.0391105 0)
(0.623341 0.0420497 0)
(0.6618 0.0482102 0)
(0.683903 0.0559607 0)
(0.688469 0.065669 0)
(0.659257 0.0737166 0)
(0.577198 0.0748911 0)
(0.482329 0.0741398 0)
(0.412903 0.0784019 0)
(0.371029 0.0783643 0)
(0.347087 0.0636644 0)
(0.326909 0.0486291 0)
(0.381178 0.16879 0)
(0.383794 0.224078 0)
(0.380844 0.23602 0)
(0.367708 0.220405 0)
(0.345683 0.192775 0)
(0.319779 0.162437 0)
(0.300103 0.135117 0)
(0.290168 0.113563 0)
(0.289227 0.0978219 0)
(0.293104 0.0868138 0)
(0.285778 0.0818149 0)
(0.249165 0.0856832 0)
(0.193326 0.0989058 0)
(0.154697 0.11591 0)
(0.163403 0.122344 0)
(0.212391 0.113767 0)
(0.274366 0.0986189 0)
(0.336282 0.0842552 0)
(0.397771 0.0723172 0)
(0.458425 0.0648735 0)
(0.518502 0.063063 0)
(0.575672 0.066644 0)
(0.625588 0.0743501 0)
(0.659661 0.0849081 0)
(0.677102 0.0968106 0)
(0.675491 0.110265 0)
(0.635492 0.121245 0)
(0.543991 0.122687 0)
(0.445533 0.125342 0)
(0.380978 0.12835 0)
(0.348034 0.121813 0)
(0.332189 0.0993185 0)
(0.321817 0.0840762 0)
(0.295326 0.142184 0)
(0.310848 0.182012 0)
(0.316932 0.190245 0)
(0.311931 0.176388 0)
(0.29807 0.153403 0)
(0.282928 0.125198 0)
(0.276484 0.0985417 0)
(0.279044 0.0771662 0)
(0.28788 0.060844 0)
(0.299904 0.0478083 0)
(0.301946 0.0388493 0)
(0.278397 0.034359 0)
(0.241411 0.0356502 0)
(0.216361 0.046613 0)
(0.223107 0.0608563 0)
(0.259694 0.0684903 0)
(0.310233 0.0687503 0)
(0.363571 0.0681848 0)
(0.417013 0.0683518 0)
(0.471375 0.0716398 0)
(0.526662 0.0789802 0)
(0.579428 0.0905729 0)
(0.62428 0.105178 0)
(0.652295 0.121035 0)
(0.663097 0.139182 0)
(0.653164 0.15717 0)
(0.59927 0.169145 0)
(0.496897 0.168131 0)
(0.396447 0.171059 0)
(0.338752 0.170314 0)
(0.316697 0.152849 0)
(0.312067 0.120341 0)
(0.314707 0.10317 0)
(0.218166 0.0726781 0)
(0.249347 0.0953482 0)
(0.263151 0.100688 0)
(0.265032 0.0936974 0)
(0.260948 0.0793314 0)
(0.258819 0.0571923 0)
(0.266386 0.0364113 0)
(0.279953 0.0217523 0)
(0.296107 0.0113281 0)
(0.313485 0.00123893 0)
(0.319994 -0.00741733 0)
(0.30443 -0.0155998 0)
(0.280278 -0.0234607 0)
(0.271309 -0.0217702 0)
(0.284019 -0.00985909 0)
(0.313542 0.00572552 0)
(0.353776 0.0198431 0)
(0.397536 0.0330063 0)
(0.441762 0.0473117 0)
(0.488126 0.0650902 0)
(0.536353 0.0855027 0)
(0.581738 0.107845 0)
(0.617697 0.131488 0)
(0.637557 0.15438 0)
(0.640433 0.18058 0)
(0.617911 0.203627 0)
(0.545265 0.214423 0)
(0.432351 0.207917 0)
(0.333855 0.207138 0)
(0.286688 0.197424 0)
(0.278498 0.165278 0)
(0.288453 0.122276 0)
(0.305788 0.103548 0)
(0.155248 -0.0322203 0)
(0.195989 -0.0306851 0)
(0.220193 -0.037548 0)
(0.2347 -0.0436439 0)
(0.245658 -0.050814 0)
(0.264439 -0.0616202 0)
(0.287174 -0.0648049 0)
(0.308064 -0.0603926 0)
(0.324684 -0.0549265 0)
(0.339689 -0.0542269 0)
(0.344938 -0.0562455 0)
(0.328426 -0.0615865 0)
(0.310304 -0.0708202 0)
(0.311874 -0.0712549 0)
(0.331307 -0.0613346 0)
(0.360903 -0.0451371 0)
(0.395779 -0.0258337 0)
(0.432112 -0.0030513 0)
(0.469878 0.0240787 0)
(0.509398 0.0547636 0)
(0.547476 0.0876255 0)
(0.581056 0.12116 0)
(0.604299 0.154444 0)
(0.614224 0.187184 0)
(0.607364 0.220849 0)
(0.567796 0.246158 0)
(0.471024 0.251767 0)
(0.34802 0.238467 0)
(0.258354 0.229105 0)
(0.227813 0.205664 0)
(0.236987 0.156865 0)
(0.263254 0.106772 0)
(0.295446 0.0885073 0)
(0.0879678 -0.124619 0)
(0.139214 -0.15492 0)
(0.188003 -0.194501 0)
(0.230449 -0.217299 0)
(0.275524 -0.23136 0)
(0.318748 -0.228923 0)
(0.347925 -0.208216 0)
(0.363839 -0.175718 0)
(0.369666 -0.142915 0)
(0.373719 -0.120665 0)
(0.371685 -0.108827 0)
(0.351921 -0.104189 0)
(0.337109 -0.105788 0)
(0.346005 -0.100351 0)
(0.368509 -0.0891161 0)
(0.3974 -0.0725377 0)
(0.430656 -0.0498824 0)
(0.465656 -0.0211729 0)
(0.499187 0.013159 0)
(0.52931 0.0518968 0)
(0.554897 0.0936175 0)
(0.574422 0.136334 0)
(0.584989 0.178087 0)
(0.584195 0.220574 0)
(0.563272 0.258672 0)
(0.500173 0.281934 0)
(0.375618 0.274838 0)
(0.246233 0.254948 0)
(0.174591 0.235983 0)
(0.168203 0.197696 0)
(0.198297 0.134082 0)
(0.240937 0.081721 0)
(0.283817 0.0677945 0)
(0.0371745 -0.187164 0)
(0.110066 -0.25705 0)
(0.190491 -0.324581 0)
(0.262826 -0.364302 0)
(0.337598 -0.378249 0)
(0.388375 -0.359676 0)
(0.416713 -0.320345 0)
(0.427596 -0.271406 0)
(0.424175 -0.22226 0)
(0.416314 -0.184667 0)
(0.404882 -0.160082 0)
(0.379963 -0.144417 0)
(0.365301 -0.130699 0)
(0.375728 -0.115889 0)
(0.397974 -0.0991175 0)
(0.428097 -0.07781 0)
(0.462019 -0.0498522 0)
(0.494719 -0.0173223 0)
(0.522418 0.0215133 0)
(0.543232 0.0644887 0)
(0.557839 0.110463 0)
(0.56512 0.157939 0)
(0.564461 0.206397 0)
(0.551166 0.253971 0)
(0.51022 0.292528 0)
(0.41236 0.306751 0)
(0.260036 0.282181 0)
(0.137681 0.259699 0)
(0.0963515 0.233676 0)
(0.118387 0.180639 0)
(0.167855 0.106344 0)
(0.22314 0.0553609 0)
(0.272176 0.0500567 0)
(0.0508979 -0.230485 0)
(0.15754 -0.321571 0)
(0.258777 -0.395127 0)
(0.344607 -0.431011 0)
(0.413351 -0.433306 0)
(0.465281 -0.415156 0)
(0.496918 -0.383673 0)
(0.506293 -0.342668 0)
(0.49458 -0.296734 0)
(0.472617 -0.252557 0)
(0.447568 -0.214766 0)
(0.416643 -0.18183 0)
(0.398247 -0.147339 0)
(0.404941 -0.119246 0)
(0.426142 -0.0914922 0)
(0.456357 -0.0624668 0)
(0.489156 -0.0304107 0)
(0.518636 0.00662934 0)
(0.540645 0.0468295 0)
(0.554722 0.090479 0)
(0.560693 0.137985 0)
(0.55826 0.187686 0)
(0.545924 0.239729 0)
(0.515652 0.28811 0)
(0.444902 0.32107 0)
(0.302179 0.316222 0)
(0.134147 0.281138 0)
(0.0405373 0.262066 0)
(0.037276 0.230378 0)
(0.0832069 0.160706 0)
(0.146618 0.0780564 0)
(0.208816 0.0323662 0)
(0.260397 0.0397142 0)
(0.156432 -0.289557 0)
(0.272602 -0.383063 0)
(0.369471 -0.450952 0)
(0.444206 -0.482801 0)
(0.500708 -0.485325 0)
(0.54117 -0.468765 0)
(0.566228 -0.439079 0)
(0.571672 -0.40054 0)
(0.55394 -0.35468 0)
(0.524249 -0.305334 0)
(0.490982 -0.254123 0)
(0.457205 -0.20315 0)
(0.435471 -0.150622 0)
(0.436921 -0.106158 0)
(0.455633 -0.0672666 0)
(0.482858 -0.0304372 0)
(0.51339 0.00661369 0)
(0.53889 0.0444417 0)
(0.555957 0.084611 0)
(0.564462 0.12856 0)
(0.563085 0.17649 0)
(0.551678 0.227125 0)
(0.52728 0.278555 0)
(0.474026 0.323202 0)
(0.359467 0.341507 0)
(0.176713 0.314031 0)
(0.0166591 0.285352 0)
(-0.0287021 0.272934 0)
(0.00243206 0.225568 0)
(0.0592453 0.140662 0)
(0.131056 0.052015 0)
(0.192877 0.0153897 0)
(0.243965 0.037762 0)
(0.267522 -0.345325 0)
(0.369106 -0.428432 0)
(0.446853 -0.488238 0)
(0.505519 -0.519829 0)
(0.553365 -0.527772 0)
(0.590571 -0.518287 0)
(0.613191 -0.49506 0)
(0.613839 -0.463864 0)
(0.590702 -0.419198 0)
(0.556574 -0.362904 0)
(0.520776 -0.293525 0)
(0.487856 -0.216036 0)
(0.468252 -0.14211 0)
(0.467949 -0.0782491 0)
(0.483575 -0.0263193 0)
(0.507174 0.0181638 0)
(0.532969 0.0561356 0)
(0.554346 0.0933812 0)
(0.5673 0.133244 0)
(0.570864 0.177022 0)
(0.563403 0.223996 0)
(0.543587 0.274174 0)
(0.504263 0.32255 0)
(0.418405 0.356427 0)
(0.252232 0.350676 0)
(0.0530934 0.31423 0)
(-0.0687251 0.303288 0)
(-0.0653168 0.288655 0)
(-0.0187517 0.224066 0)
(0.0446491 0.118599 0)
(0.119915 0.0305074 0)
(0.167439 0.00472931 0)
(0.217245 0.0418304 0)
(0.333778 -0.378849 0)
(0.417924 -0.452919 0)
(0.482561 -0.505722 0)
(0.533404 -0.534871 0)
(0.575036 -0.545392 0)
(0.607244 -0.542845 0)
(0.626232 -0.528934 0)
(0.627807 -0.503941 0)
(0.609726 -0.460084 0)
(0.581263 -0.397465 0)
(0.549952 -0.317305 0)
(0.515249 -0.223721 0)
(0.492127 -0.128089 0)
(0.48965 -0.0430698 0)
(0.502502 0.0223564 0)
(0.522217 0.0714142 0)
(0.545136 0.111346 0)
(0.563656 0.149254 0)
(0.573572 0.189235 0)
(0.572695 0.232701 0)
(0.560059 0.278638 0)
(0.532046 0.326636 0)
(0.471428 0.36801 0)
(0.340235 0.382304 0)
(0.134978 0.353463 0)
(-0.0489271 0.330195 0)
(-0.108177 0.331744 0)
(-0.0799051 0.302152 0)
(-0.0288446 0.224615 0)
(0.0360964 0.102522 0)
(0.109176 0.0223189 0)
(0.141095 0.00666853 0)
(0.190333 0.0536646 0)
(0.359493 -0.40798 0)
(0.432502 -0.467763 0)
(0.491869 -0.511327 0)
(0.540654 -0.538062 0)
(0.580401 -0.550858 0)
(0.610848 -0.552473 0)
(0.629013 -0.542699 0)
(0.632643 -0.518384 0)
(0.619718 -0.473257 0)
(0.598701 -0.406075 0)
(0.577144 -0.317167 0)
(0.548287 -0.210167 0)
(0.523883 -0.100885 0)
(0.514175 -0.00167425 0)
(0.518119 0.0735749 0)
(0.53356 0.127806 0)
(0.552847 0.170148 0)
(0.568356 0.209172 0)
(0.575404 0.249668 0)
(0.570584 0.292757 0)
(0.552627 0.337656 0)
(0.51278 0.380743 0)
(0.420645 0.408279 0)
(0.240632 0.395937 0)
(0.0271787 0.36338 0)
(-0.105401 0.364716 0)
(-0.116421 0.360154 0)
(-0.0811007 0.313486 0)
(-0.0291695 0.224216 0)
(0.0407001 0.0913907 0)
(0.0979957 0.0226728 0)
(0.130676 0.0216912 0)
(0.178408 0.0751929 0)
(0.360197 -0.424452 0)
(0.427578 -0.473247 0)
(0.485291 -0.510914 0)
(0.534278 -0.536985 0)
(0.574923 -0.552516 0)
(0.607079 -0.557655 0)
(0.628541 -0.549862 0)
(0.637863 -0.523008 0)
(0.63113 -0.472464 0)
(0.617195 -0.397223 0)
(0.605461 -0.298125 0)
(0.58258 -0.181005 0)
(0.554544 -0.0620591 0)
(0.539904 0.0459626 0)
(0.536468 0.129476 0)
(0.545251 0.188046 0)
(0.558699 0.232627 0)
(0.570066 0.272751 0)
(0.573438 0.313577 0)
(0.563957 0.355621 0)
(0.538466 0.398122 0)
(0.479563 0.432007 0)
(0.344546 0.436398 0)
(0.134036 0.402157 0)
(-0.0503858 0.390721 0)
(-0.120401 0.403973 0)
(-0.109273 0.384721 0)
(-0.0721991 0.323432 0)
(-0.0163659 0.220945 0)
(0.0538832 0.0873346 0)
(0.10196 0.0349419 0)
(0.133453 0.0421346 0)
(0.176967 0.100641 0)
(0.352209 -0.431342 0)
(0.415397 -0.473708 0)
(0.471651 -0.507895 0)
(0.520997 -0.533795 0)
(0.563438 -0.551563 0)
(0.599237 -0.55943 0)
(0.627553 -0.552035 0)
(0.645178 -0.520681 0)
(0.646464 -0.462863 0)
(0.640875 -0.374492 0)
(0.635551 -0.260774 0)
(0.614577 -0.136348 0)
(0.582046 -0.00892585 0)
(0.558768 0.105091 0)
(0.546779 0.192707 0)
(0.549629 0.253325 0)
(0.558634 0.298942 0)
(0.566856 0.339733 0)
(0.566131 0.379821 0)
(0.550966 0.419638 0)
(0.51371 0.457014 0)
(0.424249 0.474396 0)
(0.244647 0.448329 0)
(0.0404281 0.418275 0)
(-0.0862085 0.431742 0)
(-0.111741 0.437929 0)
(-0.0926695 0.405327 0)
(-0.055793 0.331361 0)
(0.0056709 0.210273 0)
(0.0717565 0.0962796 0)
(0.112176 0.0565545 0)
(0.14031 0.0708151 0)
(0.179925 0.132128 0)
(0.342858 -0.435768 0)
(0.402328 -0.472946 0)
(0.456058 -0.503529 0)
(0.50404 -0.528082 0)
(0.547017 -0.546265 0)
(0.586631 -0.554774 0)
(0.62277 -0.545277 0)
(0.648927 -0.508838 0)
(0.661781 -0.442262 0)
(0.669786 -0.337109 0)
(0.667055 -0.208045 0)
(0.638859 -0.0750235 0)
(0.599896 0.0560343 0)
(0.569724 0.170626 0)
(0.551766 0.259203 0)
(0.549452 0.320918 0)
(0.554372 0.367956 0)
(0.558483 0.409494 0)
(0.551863 0.447175 0)
(0.528472 0.483837 0)
(0.471458 0.509617 0)
(0.338094 0.499591 0)
(0.137896 0.455748 0)
(-0.0235358 0.453023 0)
(-0.0890014 0.474301 0)
(-0.0922265 0.466548 0)
(-0.0708449 0.421353 0)
(-0.0322832 0.335117 0)
(0.029982 0.201229 0)
(0.0890259 0.108283 0)
(0.122517 0.0812226 0)
(0.1483 0.104915 0)
(0.184176 0.168951 0)
(0.335052 -0.442446 0)
(0.390709 -0.474498 0)
(0.44069 -0.500314 0)
(0.485667 -0.521092 0)
(0.527479 -0.5365 0)
(0.570099 -0.542402 0)
(0.612305 -0.528436 0)
(0.644813 -0.487181 0)
(0.671099 -0.408069 0)
(0.694986 -0.285737 0)
(0.693121 -0.142285 0)
(0.653493 0.00307016 0)
(0.603147 0.133633 0)
(0.569941 0.24493 0)
(0.549497 0.33037 0)
(0.543788 0.391761 0)
(0.544999 0.439924 0)
(0.542708 0.480337 0)
(0.528091 0.51489 0)
(0.490892 0.544937 0)
(0.400117 0.549519 0)
(0.22716 0.506177 0)
(0.0449696 0.479442 0)
(-0.0516776 0.501234 0)
(-0.074637 0.511088 0)
(-0.0674929 0.489079 0)
(-0.0469918 0.431489 0)
(-0.00244356 0.326453 0)
(0.0558804 0.202248 0)
(0.102069 0.125368 0)
(0.129432 0.109389 0)
(0.152305 0.141072 0)
(0.18384 0.206999 0)
(0.329648 -0.459147 0)
(0.382746 -0.487305 0)
(0.429354 -0.508154 0)
(0.470354 -0.523196 0)
(0.509226 -0.532408 0)
(0.552453 -0.532644 0)
(0.595001 -0.513135 0)
(0.629584 -0.463893 0)
(0.666787 -0.370172 0)
(0.701015 -0.228816 0)
(0.699132 -0.06747 0)
(0.651699 0.0918175 0)
(0.589833 0.223223 0)
(0.552158 0.327308 0)
(0.532623 0.406968 0)
(0.527545 0.467297 0)
(0.525352 0.514864 0)
(0.51567 0.550302 0)
(0.490241 0.580676 0)
(0.428668 0.595231 0)
(0.293506 0.566345 0)
(0.111162 0.517742 0)
(-0.0143654 0.526629 0)
(-0.0547551 0.548175 0)
(-0.0551949 0.54117 0)
(-0.0418939 0.505928 0)
(-0.0190203 0.429858 0)
(0.0282166 0.311782 0)
(0.0741543 0.201185 0)
(0.107363 0.140846 0)
(0.129362 0.135683 0)
(0.15024 0.176695 0)
(0.175974 0.242348 0)
(0.326401 -0.487371 0)
(0.378736 -0.513414 0)
(0.423811 -0.531128 0)
(0.461733 -0.541642 0)
(0.496356 -0.545594 0)
(0.535382 -0.540007 0)
(0.573548 -0.514338 0)
(0.603709 -0.449794 0)
(0.644648 -0.335233 0)
(0.687082 -0.172927 0)
(0.684925 0.0151188 0)
(0.63479 0.189266 0)
(0.568929 0.319293 0)
(0.528061 0.41152 0)
(0.507999 0.484212 0)
(0.500623 0.5432 0)
(0.491117 0.586248 0)
(0.472255 0.617534 0)
(0.429705 0.637417 0)
(0.328367 0.623499 0)
(0.166723 0.56984 0)
(0.0174777 0.555954 0)
(-0.0434858 0.581719 0)
(-0.0481955 0.586457 0)
(-0.0345463 0.562544 0)
(-0.0174413 0.514581 0)
(0.0128623 0.418358 0)
(0.0569804 0.298132 0)
(0.083854 0.202655 0)
(0.104714 0.156473 0)
(0.119432 0.159348 0)
(0.132642 0.20276 0)
(0.149947 0.262656 0)
(0.32533 -0.529401 0)
(0.37802 -0.555959 0)
(0.422501 -0.573145 0)
(0.457181 -0.581086 0)
(0.486483 -0.579538 0)
(0.519103 -0.565702 0)
(0.551604 -0.529914 0)
(0.574678 -0.443369 0)
(0.609948 -0.300491 0)
(0.653855 -0.113469 0)
(0.653517 0.100455 0)
(0.603288 0.287322 0)
(0.536149 0.413962 0)
(0.496421 0.494442 0)
(0.473868 0.560399 0)
(0.458736 0.613874 0)
(0.439858 0.651638 0)
(0.408166 0.676092 0)
(0.332338 0.673088 0)
(0.195921 0.627244 0)
(0.0444313 0.591225 0)
(-0.0417969 0.613521 0)
(-0.0529852 0.62963 0)
(-0.040313 0.61549 0)
(-0.0164532 0.575261 0)
(0.0064604 0.51211 0)
(0.0446933 0.405892 0)
(0.0772306 0.285299 0)
(0.0890983 0.207741 0)
(0.0960679 0.171687 0)
(0.0985371 0.174991 0)
(0.0988695 0.212828 0)
(0.102946 0.25907 0)
(0.323977 -0.587537 0)
(0.378588 -0.619533 0)
(0.424669 -0.641532 0)
(0.459716 -0.651818 0)
(0.485299 -0.647401 0)
(0.508406 -0.624336 0)
(0.531524 -0.572618 0)
(0.54124 -0.458146 0)
(0.55664 -0.279713 0)
(0.596971 -0.0615343 0)
(0.602333 0.182257 0)
(0.551789 0.378769 0)
(0.488255 0.500024 0)
(0.448777 0.573666 0)
(0.420961 0.631772 0)
(0.395808 0.676735 0)
(0.366646 0.707946 0)
(0.309195 0.712175 0)
(0.193887 0.675312 0)
(0.0567149 0.632615 0)
(-0.0493381 0.642489 0)
(-0.0688784 0.669683 0)
(-0.0577761 0.665805 0)
(-0.0331107 0.634291 0)
(-0.00156598 0.58111 0)
(0.0298591 0.503384 0)
(0.0718203 0.390821 0)
(0.0910173 0.279322 0)
(0.0930421 0.215112 0)
(0.0866994 0.182894 0)
(0.0727074 0.181177 0)
(0.0525126 0.205931 0)
(0.0372601 0.232249 0)
(0.316982 -0.654954 0)
(0.373379 -0.696702 0)
(0.421232 -0.728881 0)
(0.458186 -0.74865 0)
(0.483833 -0.750806 0)
(0.501185 -0.725443 0)
(0.514854 -0.655281 0)
(0.509914 -0.508806 0)
(0.503597 -0.28521 0)
(0.530841 -0.0212105 0)
(0.533462 0.25844 0)
(0.475644 0.459144 0)
(0.413752 0.573567 0)
(0.373392 0.639824 0)
(0.338528 0.688253 0)
(0.306132 0.725755 0)
(0.258396 0.738118 0)
(0.161781 0.708474 0)
(0.0372495 0.66742 0)
(-0.0629775 0.668066 0)
(-0.0944071 0.702771 0)
(-0.0861679 0.711467 0)
(-0.0606971 0.689381 0)
(-0.0268496 0.644648 0)
(0.012015 0.581205 0)
(0.0511466 0.490389 0)
(0.0921786 0.374684 0)
(0.10408 0.276519 0)
(0.0994219 0.219747 0)
(0.0806035 0.186511 0)
(0.049585 0.173926 0)
(0.0125852 0.185511 0)
(-0.0264015 0.190546 0)
(0.302428 -0.722193 0)
(0.35873 -0.773853 0)
(0.406154 -0.816331 0)
(0.443337 -0.847 0)
(0.470238 -0.859859 0)
(0.489239 -0.840315 0)
(0.498526 -0.753428 0)
(0.481239 -0.572788 0)
(0.45916 -0.299974 0)
(0.462145 0.0248006 0)
(0.443165 0.331299 0)
(0.366862 0.523531 0)
(0.307615 0.622337 0)
(0.261626 0.678555 0)
(0.224137 0.721279 0)
(0.181096 0.742897 0)
(0.098962 0.720612 0)
(-0.0161411 0.683116 0)
(-0.0939354 0.686772 0)
(-0.127879 0.724576 0)
(-0.124428 0.747729 0)
(-0.0991486 0.73715 0)
(-0.0617076 0.70215 0)
(-0.0196943 0.648163 0)
(0.0249711 0.574892 0)
(0.0698518 0.474189 0)
(0.107364 0.361138 0)
(0.116968 0.271812 0)
(0.108687 0.215216 0)
(0.0808734 0.177258 0)
(0.0340696 0.15287 0)
(-0.0197062 0.146356 0)
(-0.0712674 0.135312 0)
(0.280609 -0.782683 0)
(0.334933 -0.841706 0)
(0.379833 -0.891346 0)
(0.414378 -0.929603 0)
(0.439037 -0.951111 0)
(0.463616 -0.934869 0)
(0.474727 -0.830852 0)
(0.450681 -0.61326 0)
(0.422122 -0.295962 0)
(0.391979 0.0776615 0)
(0.325289 0.388815 0)
(0.226615 0.555274 0)
(0.163589 0.632121 0)
(0.115497 0.682361 0)
(0.0746889 0.711896 0)
(-0.000758715 0.700845 0)
(-0.0955213 0.674048 0)
(-0.152109 0.684941 0)
(-0.17188 0.728363 0)
(-0.171059 0.766019 0)
(-0.146186 0.771929 0)
(-0.105911 0.749032 0)
(-0.0587931 0.705244 0)
(-0.0116326 0.64377 0)
(0.0375038 0.561854 0)
(0.0852908 0.456253 0)
(0.118803 0.347881 0)
(0.12671 0.261505 0)
(0.11381 0.198911 0)
(0.0764939 0.150324 0)
(0.0173611 0.109286 0)
(-0.0420518 0.0867306 0)
(-0.088927 0.0709643 0)
(0.252664 -0.833762 0)
(0.303542 -0.8975 0)
(0.344445 -0.951847 0)
(0.373898 -0.995316 0)
(0.395951 -1.02087 0)
(0.426479 -0.996476 0)
(0.438596 -0.868238 0)
(0.410597 -0.606996 0)
(0.381462 -0.259881 0)
(0.305832 0.131785 0)
(0.168833 0.416913 0)
(0.0552984 0.541232 0)
(-0.0145502 0.597498 0)
(-0.068135 0.628146 0)
(-0.133051 0.629374 0)
(-0.19999 0.629834 0)
(-0.23326 0.656946 0)
(-0.23512 0.708055 0)
(-0.223829 0.759058 0)
(-0.19889 0.783912 0)
(-0.156591 0.778955 0)
(-0.105414 0.748464 0)
(-0.0530584 0.69789 0)
(-0.00221406 0.630696 0)
(0.0497093 0.542374 0)
(0.0960764 0.436423 0)
(0.12282 0.330218 0)
(0.125504 0.242788 0)
(0.104014 0.170896 0)
(0.0565689 0.108658 0)
(-0.00725996 0.0569807 0)
(-0.0626664 0.0233229 0)
(-0.097488 0.00427759 0)
(0.219506 -0.875118 0)
(0.265407 -0.942247 0)
(0.300852 -1.00103 0)
(0.325092 -1.04899 0)
(0.346957 -1.07429 0)
(0.381395 -1.03483 0)
(0.390638 -0.871981 0)
(0.356436 -0.564813 0)
(0.31588 -0.196107 0)
(0.166586 0.177125 0)
(-0.037459 0.402416 0)
(-0.14909 0.467593 0)
(-0.230035 0.491049 0)
(-0.293356 0.506379 0)
(-0.326752 0.537148 0)
(-0.328687 0.591346 0)
(-0.312342 0.658282 0)
(-0.288135 0.720893 0)
(-0.255726 0.765689 0)
(-0.211501 0.781618 0)
(-0.155822 0.77041 0)
(-0.0986561 0.734329 0)
(-0.0440494 0.679741 0)
(0.00852925 0.608661 0)
(0.0598178 0.516867 0)
(0.0996546 0.41148 0)
(0.116306 0.307835 0)
(0.107103 0.217988 0)
(0.0712218 0.137003 0)
(0.0145312 0.063383 0)
(-0.0440914 0.00845011 0)
(-0.0903083 -0.029107 0)
(-0.116898 -0.052556 0)
(0.181728 -0.908523 0)
(0.220947 -0.979399 0)
(0.250208 -1.04242 0)
(0.270525 -1.09375 0)
(0.293903 -1.11859 0)
(0.328118 -1.06256 0)
(0.326818 -0.855781 0)
(0.281004 -0.505063 0)
(0.194256 -0.121913 0)
(-0.0808018 0.202799 0)
(-0.269592 0.309408 0)
(-0.389047 0.332369 0)
(-0.452099 0.357566 0)
(-0.460065 0.406875 0)
(-0.435066 0.483697 0)
(-0.39834 0.569648 0)
(-0.359617 0.645482 0)
(-0.316563 0.706402 0)
(-0.265688 0.745861 0)
(-0.207405 0.758594 0)
(-0.145204 0.744122 0)
(-0.0864696 0.705853 0)
(-0.0320273 0.650074 0)
(0.0198521 0.577442 0)
(0.0653048 0.484985 0)
(0.0928057 0.381114 0)
(0.0948937 0.279501 0)
(0.0694941 0.188195 0)
(0.0200563 0.101884 0)
(-0.0355124 0.0272927 0)
(-0.0835817 -0.029196 0)
(-0.116833 -0.0712788 0)
(-0.136151 -0.101514 0)
(0.139783 -0.937327 0)
(0.171555 -1.01115 0)
(0.19561 -1.07652 0)
(0.211054 -1.13226 0)
(0.233503 -1.15765 0)
(0.262644 -1.07802 0)
(0.243661 -0.810825 0)
(0.168014 -0.423056 0)
(-0.0757525 -0.0339901 0)
(-0.348879 0.13403 0)
(-0.513579 0.186669 0)
(-0.583247 0.22348 0)
(-0.580047 0.278563 0)
(-0.540697 0.354115 0)
(-0.4871 0.443687 0)
(-0.432844 0.529078 0)
(-0.377546 0.602528 0)
(-0.317541 0.661526 0)
(-0.253841 0.699019 0)
(-0.18795 0.710718 0)
(-0.124561 0.696028 0)
(-0.0680505 0.659793 0)
(-0.0167667 0.60683 0)
(0.0290995 0.53548 0)
(0.0631642 0.445681 0)
(0.0751302 0.345312 0)
(0.0594399 0.246769 0)
(0.0199304 0.154905 0)
(-0.0308315 0.071212 0)
(-0.074397 0.000956809 0)
(-0.107684 -0.0554765 0)
(-0.131328 -0.102323 0)
(-0.144294 -0.13995 0)
(0.096068 -0.960664 0)
(0.121309 -1.03601 0)
(0.137948 -1.10362 0)
(0.146273 -1.16582 0)
(0.169223 -1.18874 0)
(0.190751 -1.06998 0)
(0.136277 -0.71146 0)
(-0.0533977 -0.287231 0)
(-0.357158 -0.0423382 0)
(-0.571806 0.0644494 0)
(-0.665956 0.124673 0)
(-0.671078 0.18546 0)
(-0.631575 0.246314 0)
(-0.569671 0.310823 0)
(-0.502906 0.386093 0)
(-0.436389 0.460149 0)
(-0.365903 0.52756 0)
(-0.29384 0.582496 0)
(-0.222931 0.618315 0)
(-0.155112 0.630356 0)
(-0.094236 0.618599 0)
(-0.0423291 0.588069 0)
(0.000979562 0.541494 0)
(0.0348614 0.477048 0)
(0.0529333 0.394752 0)
(0.0472365 0.301606 0)
(0.0156263 0.208445 0)
(-0.0299764 0.123753 0)
(-0.0723654 0.0488955 0)
(-0.105647 -0.0182545 0)
(-0.129076 -0.0754613 0)
(-0.1468 -0.127983 0)
(-0.158642 -0.175564 0)
(0.0521248 -0.977371 0)
(0.0697126 -1.05303 0)
(0.0773073 -1.12532 0)
(0.0785916 -1.19118 0)
(0.103268 -1.20414 0)
(0.118838 -1.02322 0)
(-0.023297 -0.554264 0)
(-0.308098 -0.197407 0)
(-0.546009 -0.0430297 0)
(-0.68689 0.052742 0)
(-0.720558 0.123773 0)
(-0.693958 0.17789 0)
(-0.639402 0.219128 0)
(-0.567722 0.256226 0)
(-0.491522 0.308063 0)
(-0.415783 0.3676 0)
(-0.334414 0.422518 0)
(-0.253004 0.46634 0)
(-0.177707 0.495765 0)
(-0.110994 0.507184 0)
(-0.0549882 0.501303 0)
(-0.0103883 0.480654 0)
(0.0225944 0.445124 0)
(0.0410699 0.393142 0)
(0.040566 0.324685 0)
(0.0168809 0.245182 0)
(-0.0242419 0.167439 0)
(-0.0670173 0.0981658 0)
(-0.101995 0.0312847 0)
(-0.125699 -0.0311607 0)
(-0.14318 -0.0906556 0)
(-0.158816 -0.148409 0)
(-0.177928 -0.19607 0)
(0.00736471 -0.987263 0)
(0.0169117 -1.06386 0)
(0.0153733 -1.13831 0)
(0.0125562 -1.20342 0)
(0.03743 -1.19271 0)
(0.0232824 -0.907597 0)
(-0.223181 -0.401192 0)
(-0.467285 -0.153783 0)
(-0.640677 -0.0181719 0)
(-0.724369 0.0725083 0)
(-0.725775 0.13465 0)
(-0.68336 0.169591 0)
(-0.623178 0.184548 0)
(-0.548009 0.194397 0)
(-0.464548 0.220468 0)
(-0.382658 0.260341 0)
(-0.296448 0.297652 0)
(-0.209394 0.322952 0)
(-0.129177 0.33684 0)
(-0.0605278 0.340324 0)
(-0.0072219 0.337194 0)
(0.0300264 0.32626 0)
(0.0507169 0.305196 0)
(0.0541787 0.271946 0)
(0.0371735 0.226462 0)
(0.00131397 0.171529 0)
(-0.0435177 0.117886 0)
(-0.0850562 0.0644287 0)
(-0.115563 0.010961 0)
(-0.13157 -0.0444656 0)
(-0.149169 -0.104636 0)
(-0.165964 -0.160184 0)
(-0.210463 -0.192154 0)
(-0.0389273 -0.989437 0)
(-0.0357619 -1.0668 0)
(-0.0442165 -1.13943 0)
(-0.048721 -1.19862 0)
(-0.0260976 -1.14325 0)
(-0.110044 -0.755602 0)
(-0.37349 -0.314751 0)
(-0.565401 -0.105364 0)
(-0.686942 0.0137443 0)
(-0.727914 0.0938403 0)
(-0.71004 0.140606 0)
(-0.658261 0.154387 0)
(-0.595205 0.143988 0)
(-0.52064 0.131387 0)
(-0.435412 0.134346 0)
(-0.350462 0.152291 0)
(-0.264181 0.169017 0)
(-0.177361 0.174301 0)
(-0.0938675 0.168564 0)
(-0.0193294 0.156205 0)
(0.039742 0.143054 0)
(0.0766004 0.128923 0)
(0.0928699 0.113875 0)
(0.0887718 0.0968496 0)
(0.0617062 0.076386 0)
(0.0161871 0.0522917 0)
(-0.0353098 0.0285274 0)
(-0.0771023 0.00378714 0)
(-0.105978 -0.0249916 0)
(-0.123311 -0.0644325 0)
(-0.150944 -0.115257 0)
(-0.18019 -0.150766 0)
(-0.279846 -0.163423 0)
(-0.0836693 -0.98703 0)
(-0.0862544 -1.06073 0)
(-0.101346 -1.12959 0)
(-0.105208 -1.17578 0)
(-0.100693 -1.06081 0)
(-0.230749 -0.63829 0)
(-0.466531 -0.255283 0)
(-0.623732 -0.0643323 0)
(-0.704143 0.0437662 0)
(-0.718053 0.11024 0)
(-0.688274 0.139765 0)
(-0.630937 0.134153 0)
(-0.565362 0.101581 0)
(-0.492633 0.0727712 0)
(-0.410889 0.0595643 0)
(-0.329299 0.0609017 0)
(-0.246643 0.0612142 0)
(-0.163061 0.0513891 0)
(-0.0806599 0.0270198 0)
(-0.000951213 -0.00768005 0)
(0.0701868 -0.0459095 0)
(0.121496 -0.0811212 0)
(0.152162 -0.105938 0)
(0.157013 -0.121235 0)
(0.133777 -0.128191 0)
(0.0880676 -0.125676 0)
(0.0331048 -0.108533 0)
(-0.0205863 -0.0898586 0)
(-0.0646441 -0.0829006 0)
(-0.102046 -0.0923447 0)
(-0.154838 -0.113444 0)
(-0.233611 -0.103735 0)
(-0.420727 -0.107105 0)
(-0.125406 -0.980048 0)
(-0.132755 -1.04839 0)
(-0.154312 -1.1102 0)
(-0.156516 -1.1364 0)
(-0.173637 -0.975069 0)
(-0.321364 -0.555978 0)
(-0.524537 -0.21162 0)
(-0.652791 -0.0289102 0)
(-0.705768 0.070456 0)
(-0.704255 0.122499 0)
(-0.668434 0.135696 0)
(-0.608578 0.112971 0)
(-0.540314 0.0629532 0)
(-0.469548 0.0249236 0)
(-0.394174 0.00303722 0)
(-0.31797 -0.00493328 0)
(-0.240902 -0.0139537 0)
(-0.163433 -0.0350482 0)
(-0.0844284 -0.0666893 0)
(0.00264686 -0.11089 0)
(0.0878198 -0.159341 0)
(0.152071 -0.197455 0)
(0.197921 -0.225071 0)
(0.220551 -0.244176 0)
(0.219353 -0.25516 0)
(0.195103 -0.252517 0)
(0.147503 -0.230769 0)
(0.0804607 -0.194 0)
(0.00977351 -0.15671 0)
(-0.0740892 -0.118985 0)
(-0.1807 -0.0747914 0)
(-0.362272 -0.0294797 0)
(-0.601717 -0.0631472 0)
(-0.16436 -0.968268 0)
(-0.174742 -1.03007 0)
(-0.200186 -1.08199 0)
(-0.20322 -1.08613 0)
(-0.233645 -0.905752 0)
(-0.37814 -0.503328 0)
(-0.552877 -0.179093 0)
(-0.659485 0.000338498 0)
(-0.698102 0.0931636 0)
(-0.690434 0.132446 0)
(-0.65328 0.131504 0)
(-0.593139 0.0955365 0)
(-0.522961 0.0357317 0)
(-0.453765 -0.00659463 0)
(-0.385411 -0.0292856 0)
(-0.314035 -0.040649 0)
(-0.241506 -0.0553115 0)
(-0.167507 -0.0822616 0)
(-0.0887656 -0.119054 0)
(0.00780457 -0.173801 0)
(0.108119 -0.223105 0)
(0.184597 -0.252008 0)
(0.243638 -0.270034 0)
(0.281873 -0.281237 0)
(0.298341 -0.287597 0)
(0.289911 -0.286203 0)
(0.256444 -0.275784 0)
(0.197566 -0.253817 0)
(0.112289 -0.209199 0)
(-0.0436309 -0.11439 0)
(-0.254405 -0.00113432 0)
(-0.525437 0.0232199 0)
(-0.71415 -0.0277099 0)
(-0.199872 -0.952528 0)
(-0.210994 -1.00624 0)
(-0.237352 -1.04683 0)
(-0.242784 -1.03349 0)
(-0.275796 -0.853584 0)
(-0.405951 -0.469045 0)
(-0.557339 -0.153516 0)
(-0.649132 0.0254889 0)
(-0.682761 0.113777 0)
(-0.674461 0.143559 0)
(-0.638219 0.132226 0)
(-0.580232 0.0862067 0)
(-0.512989 0.0242169 0)
(-0.445703 -0.0200695 0)
(-0.381824 -0.0430778 0)
(-0.314817 -0.0592532 0)
(-0.245816 -0.0835064 0)
(-0.171228 -0.121581 0)
(-0.0858921 -0.170029 0)
(0.0337007 -0.242324 0)
(0.143362 -0.289911 0)
(0.231337 -0.309921 0)
(0.301808 -0.315535 0)
(0.352759 -0.31195 0)
(0.382242 -0.301232 0)
(0.384969 -0.28679 0)
(0.358925 -0.273379 0)
(0.306474 -0.259784 0)
(0.208153 -0.217557 0)
(-0.0163648 -0.0651399 0)
(-0.343436 0.0723679 0)
(-0.645588 0.069614 0)
(-0.779713 0.0156024 0)
(-0.230809 -0.93346 0)
(-0.24044 -0.978545 0)
(-0.26566 -1.00813 0)
(-0.271813 -0.983909 0)
(-0.300398 -0.815341 0)
(-0.40958 -0.450622 0)
(-0.543656 -0.134061 0)
(-0.626123 0.0469997 0)
(-0.660178 0.134133 0)
(-0.653576 0.158451 0)
(-0.621569 0.140961 0)
(-0.569366 0.086703 0)
(-0.506734 0.0262617 0)
(-0.441812 -0.0181167 0)
(-0.379497 -0.0434736 0)
(-0.315417 -0.0674067 0)
(-0.246608 -0.104395 0)
(-0.16404 -0.157946 0)
(-0.0626643 -0.232046 0)
(0.0744345 -0.341074 0)
(0.170513 -0.379611 0)
(0.260299 -0.391704 0)
(0.336014 -0.387366 0)
(0.397186 -0.368897 0)
(0.439377 -0.337613 0)
(0.452948 -0.300929 0)
(0.43421 -0.266517 0)