/*--------------------------------*- C++ -*----------------------------------*\
  =========                 |
  \\      /  F ield         | OpenFOAM: The Open Source CFD Toolbox
   \\    /   O peration     | Website:  https://openfoam.org
    \\  /    A nd           | Version:  10
     \\/     M anipulation  |
\*---------------------------------------------------------------------------*/
FoamFile
{
    format      ascii;
    class       volScalarField;
    location    "0.350779";
    object      p;
}
// * * * * * * * * * * * * * * * * * * * * * * * * * * * * * * * * * * * * * //

dimensions      [1 -1 -2 0 0 0 0];

internalField   nonuniform List<scalar> 
15984
(
2.51557
2.50302
2.49235
2.48364
2.4769
2.472
2.46869
2.46665
2.46547
2.46474
2.46399
2.46287
2.46104
2.45819
2.45412
2.44877
2.44217
2.43445
2.42579
2.41643
2.40661
2.39661
2.38669
2.37716
2.36827
2.3603
2.35351
2.34813
2.3444
2.34252
2.34266
2.34454
2.3488
2.35546
2.36451
2.3759
2.38945
2.40493
2.42203
2.4404
2.45961
2.4792
2.4987
2.51762
2.53554
2.55209
2.56696
2.57995
2.59091
2.59982
2.60667
2.61155
2.6146
2.61597
2.51454
2.50118
2.4897
2.48016
2.47263
2.46701
2.46312
2.46065
2.45925
2.4585
2.45796
2.45726
2.45602
2.45392
2.45073
2.44631
2.44066
2.43387
2.4261
2.41755
2.40848
2.39915
2.38983
2.38081
2.37235
2.36472
2.35817
2.35294
2.34926
2.34732
2.34731
2.34895
2.35285
2.35898
2.36743
2.37811
2.39089
2.40556
2.42188
2.4395
2.45805
2.47711
2.49619
2.51486
2.53265
2.54919
2.56415
2.57729
2.58843
2.59751
2.60453
2.60953
2.61264
2.61402
2.51333
2.49924
2.48699
2.47668
2.46837
2.46202
2.45749
2.45454
2.45283
2.45197
2.45154
2.45113
2.45043
2.44903
2.44669
2.44323
2.43857
2.43278
2.42599
2.41838
2.4102
2.40168
2.3931
2.38473
2.37683
2.36967
2.3635
2.35855
2.35503
2.35313
2.35303
2.3545
2.35805
2.3637
2.37152
2.38144
2.39336
2.40711
2.42246
2.43916
2.45684
2.47512
2.49358
2.51177
2.52925
2.54562
2.56054
2.57374
2.58502
2.59428
2.60147
2.60664
2.60987
2.61132
2.51195
2.49722
2.48426
2.47322
2.46415
2.45706
2.45186
2.44835
2.44624
2.44518
2.44477
2.44458
2.44428
2.44351
2.442
2.43949
2.43585
2.43114
2.42542
2.41887
2.41169
2.40411
2.39639
2.38881
2.38162
2.37507
2.36941
2.36487
2.36162
2.35987
2.35976
2.36109
2.36436
2.36954
2.37674
2.38587
2.39686
2.40957
2.42384
2.43944
2.45607
2.47339
2.49101
2.50851
2.52548
2.54152
2.55628
2.56943
2.5808
2.59021
2.59759
2.60296
2.60637
2.60797
2.51041
2.49512
2.48153
2.46979
2.45999
2.45217
2.44627
2.44214
2.43955
2.4382
2.43769
2.43763
2.43764
2.4374
2.43664
2.43505
2.4325
2.4289
2.42434
2.41892
2.41284
2.40631
2.3996
2.39294
2.3866
2.38081
2.3758
2.37179
2.36894
2.36744
2.36741
2.36867
2.37166
2.37644
2.383
2.39133
2.40134
2.41296
2.42604
2.44042
2.45584
2.47202
2.48862
2.50525
2.52153
2.53707
2.55151
2.56453
2.5759
2.58541
2.59298
2.59856
2.60218
2.60397
2.50871
2.49296
2.47881
2.46642
2.45594
2.44739
2.44077
2.43597
2.43283
2.43107
2.43037
2.43033
2.43057
2.43078
2.43064
2.42994
2.42845
2.42601
2.42265
2.41844
2.41356
2.40822
2.40263
2.39705
2.39169
2.38679
2.38257
2.37921
2.37687
2.37572
2.37584
2.3771
2.3799
2.38427
2.39023
2.39775
2.40677
2.41725
2.42909
2.44215
2.45626
2.47117
2.48658
2.50218
2.5176
2.53248
2.54645
2.55921
2.57048
2.58004
2.58775
2.59356
2.59738
2.5994
2.50687
2.49074
2.4761
2.46313
2.45199
2.44274
2.4354
2.4299
2.42614
2.42389
2.42287
2.42275
2.42309
2.42366
2.42412
2.42418
2.42369
2.4224
2.42029
2.41738
2.41379
2.40974
2.40542
2.40103
2.3968
2.39293
2.38961
2.38702
2.38531
2.3846
2.38493
2.38629
2.38894
2.39296
2.39834
2.40505
2.41309
2.42242
2.43298
2.44469
2.45741
2.47094
2.48505
2.49947
2.51388
2.52794
2.54131
2.55367
2.56473
2.57425
2.58205
2.58801
2.59209
2.59433
2.50489
2.48847
2.47343
2.45996
2.4482
2.43828
2.43021
2.424
2.41956
2.41673
2.4153
2.41496
2.41529
2.4161
2.41706
2.41786
2.41823
2.41805
2.4172
2.41567
2.41348
2.41083
2.40787
2.40481
2.40183
2.39911
2.39682
2.39512
2.39412
2.39394
2.39457
2.3961
2.39869
2.40238
2.40719
2.41314
2.42022
2.42842
2.43772
2.44806
2.45935
2.47146
2.48419
2.49732
2.51059
2.52369
2.5363
2.54812
2.55885
2.56821
2.57601
2.58208
2.58634
2.58878
2.50278
2.48616
2.47081
2.4569
2.4446
2.43402
2.42526
2.41831
2.41315
2.40968
2.40773
2.40705
2.40728
2.40819
2.4095
2.41093
2.41217
2.41303
2.41339
2.41323
2.41253
2.41138
2.40991
2.40829
2.40668
2.40524
2.4041
2.40339
2.40321
2.40361
2.40464
2.40642
2.40899
2.4124
2.41669
2.42192
2.42809
2.43521
2.44328
2.45228
2.46215
2.47281
2.48412
2.49589
2.50792
2.51994
2.53167
2.54281
2.55305
2.56213
2.56981
2.57588
2.58024
2.58282
2.50055
2.48383
2.46826
2.454
2.44121
2.43004
2.42059
2.41291
2.407
2.40282
2.40026
2.39912
2.39914
2.39999
2.40152
2.40344
2.40545
2.40733
2.40891
2.4101
2.4109
2.41133
2.41145
2.41139
2.41127
2.41122
2.41133
2.41169
2.41241
2.41351
2.41505
2.4171
2.41969
2.42289
2.42673
2.43129
2.43662
2.44273
2.44963
2.45734
2.46583
2.47507
2.48495
2.49535
2.50606
2.51691
2.52764
2.53795
2.54757
2.55621
2.56361
2.56956
2.57389
2.57648
2.49822
2.4815
2.4658
2.45127
2.43808
2.42637
2.41627
2.40785
2.40118
2.39624
2.39298
2.39128
2.39096
2.39162
2.39319
2.39546
2.39813
2.40095
2.4037
2.40627
2.40859
2.41064
2.41242
2.41402
2.4155
2.41692
2.41839
2.41994
2.42164
2.42352
2.42562
2.42798
2.43066
2.43371
2.43719
2.44116
2.44572
2.4509
2.45672
2.46323
2.47042
2.47829
2.48677
2.49579
2.5052
2.5148
2.52441
2.53378
2.54262
2.55066
2.55761
2.56325
2.56737
2.56982
2.49581
2.4792
2.46347
2.44875
2.43523
2.42305
2.41234
2.40322
2.39576
2.39002
2.386
2.38363
2.38277
2.38316
2.38464
2.38707
2.39025
2.3939
2.39778
2.40171
2.40556
2.40925
2.41277
2.4161
2.41926
2.42228
2.42519
2.42801
2.43077
2.43349
2.43621
2.43896
2.44178
2.44476
2.44794
2.45142
2.4553
2.45965
2.4645
2.4699
2.47589
2.48248
2.48964
2.49732
2.50541
2.51378
2.52219
2.5305
2.53842
2.54568
2.552
2.55711
2.5608
2.56287
2.49337
2.47697
2.46129
2.44649
2.43272
2.42014
2.40887
2.39906
2.39082
2.38425
2.37938
2.37624
2.37474
2.37473
2.37587
2.37833
2.38188
2.38623
2.39115
2.39639
2.40176
2.40715
2.41244
2.41757
2.4225
2.42718
2.43162
2.43578
2.43967
2.4433
2.4467
2.44989
2.45293
2.4559
2.45888
2.46195
2.46525
2.46888
2.47288
2.47731
2.48222
2.48764
2.49358
2.49999
2.50682
2.51393
2.52117
2.52831
2.53516
2.54147
2.54695
2.5513
2.55429
2.55569
2.49095
2.47486
2.45934
2.44454
2.4306
2.41767
2.40591
2.39544
2.38643
2.37899
2.37323
2.3692
2.36692
2.36632
2.36707
2.36936
2.37304
2.37796
2.3838
2.39028
2.39717
2.40426
2.41136
2.41836
2.42512
2.43155
2.43758
2.44315
2.44824
2.45284
2.45697
2.46066
2.46398
2.46702
2.46988
2.47266
2.47549
2.4785
2.48178
2.48537
2.48934
2.49373
2.49857
2.50383
2.50946
2.51536
2.5214
2.52738
2.53306
2.53823
2.54264
2.54598
2.54798
2.54837
2.48858
2.4729
2.45764
2.44292
2.42891
2.41572
2.40351
2.39243
2.38264
2.37432
2.3676
2.3626
2.35939
2.35801
2.35825
2.36017
2.36381
2.36907
2.37575
2.3834
2.39176
2.40054
2.4095
2.41839
2.42705
2.43529
2.44298
2.45003
2.45637
2.46199
2.4669
2.47116
2.47483
2.47801
2.48083
2.48342
2.48589
2.4884
2.4911
2.49399
2.49717
2.50068
2.50456
2.50879
2.51333
2.5181
2.52297
2.52776
2.53224
2.53616
2.53928
2.54131
2.54198
2.54116
2.48629
2.47114
2.45625
2.44172
2.4277
2.41432
2.40172
2.39006
2.37952
2.37029
2.36255
2.3565
2.35221
2.34986
2.34943
2.3508
2.35422
2.35963
2.36694
2.37567
2.38546
2.39593
2.40675
2.41762
2.42822
2.43833
2.44774
2.45632
2.46397
2.47066
2.47641
2.48128
2.48535
2.48876
2.49163
2.49412
2.49635
2.49851
2.50073
2.50307
2.50561
2.5084
2.51146
2.51481
2.5184
2.52215
2.52592
2.52953
2.53276
2.53537
2.53706
2.53755
2.53673
2.53439
2.48415
2.46964
2.45521
2.44097
2.42704
2.41354
2.40061
2.38839
2.3771
2.36694
2.35814
2.35092
2.34544
2.34193
2.34055
2.34128
2.34422
2.34959
2.35736
2.36702
2.37819
2.39034
2.40306
2.41592
2.42855
2.44059
2.45179
2.46194
2.47094
2.47875
2.48539
2.49092
2.49547
2.49917
2.50217
2.50465
2.50676
2.50867
2.51054
2.51248
2.51453
2.51675
2.51917
2.52179
2.52457
2.52742
2.53019
2.53269
2.5347
2.53594
2.53613
2.53504
2.53267
2.52861
2.48223
2.46847
2.4546
2.44074
2.42698
2.41342
2.4002
2.38746
2.37543
2.36431
2.35437
2.34586
2.33906
2.33417
2.33164
2.33156
2.33377
2.33887
2.34686
2.35736
2.36981
2.38364
2.3983
2.41324
2.42795
2.44198
2.45502
2.46682
2.47722
2.48619
2.49376
2.50001
2.50508
2.50913
2.51235
2.51491
2.51699
2.51876
2.52043
2.52209
2.52379
2.52559
2.52752
2.52958
2.5317
2.53381
2.53571
2.53721
2.53806
2.53784
2.53664
2.53402
2.53008
2.52334
2.48061
2.46768
2.45448
2.44106
2.42755
2.41401
2.40054
2.38727
2.37456
2.36242
2.35126
2.34131
2.33299
2.32662
2.32267
2.32144
2.32281
2.32726
2.33528
2.3464
2.36017
2.37564
2.39231
2.40938
2.42627
2.44239
2.45735
2.47085
2.48272
2.49291
2.50145
2.50846
2.5141
2.51856
2.52206
2.52478
2.52693
2.52868
2.53024
2.53173
2.53322
2.53475
2.53634
2.53799
2.53963
2.54114
2.54233
2.54296
2.54268
2.54125
2.53868
2.53448
2.52804
2.51591
2.47937
2.46736
2.4549
2.44199
2.42881
2.41533
2.40165
2.38797
2.37442
2.36125
2.34876
2.33725
2.32722
2.31903
2.31343
2.31067
2.31112
2.3147
2.32225
2.33398
2.34883
2.36604
2.38479
2.40419
2.42338
2.44172
2.4587
2.47399
2.48738
2.49882
2.50838
2.51619
2.52245
2.52738
2.53121
2.53417
2.53647
2.53829
2.53983
2.54126
2.54266
2.54405
2.54544
2.54683
2.54814
2.54925
2.54989
2.54977
2.54859
2.54599
2.54194
2.535
2.52543
2.51983
2.47859
2.46754
2.45594
2.44355
2.43081
2.41738
2.40355
2.38939
2.37506
2.36082
2.34688
2.33366
2.32162
2.31142
2.30373
2.29913
2.2983
2.30075
2.30763
2.31956
2.33544
2.35451
2.37544
2.3973
2.41898
2.43973
2.45887
2.47608
2.4911
2.50387
2.51448
2.52313
2.53004
2.53548
2.5397
2.54295
2.54546
2.54744
2.54907
2.55053
2.55193
2.55329
2.55461
2.55588
2.55704
2.5579
2.55818
2.55755
2.55553
2.55203
2.54567
2.54024
2.5326
2.52169
2.47828
2.46835
2.45755
2.44582
2.43337
2.42021
2.40618
2.39157
2.37641
2.36117
2.34563
2.33063
2.3162
2.30383
2.29355
2.28657
2.28392
2.2855
2.29106
2.30222
2.31976
2.34042
2.36392
2.38851
2.41296
2.43628
2.45781
2.47705
2.49379
2.50796
2.51969
2.52922
2.53682
2.5428
2.54745
2.55104
2.55382
2.55601
2.55779
2.55937
2.56086
2.56228
2.56364
2.56493
2.56608
2.56688
2.56703
2.56612
2.56358
2.55894
2.55676
2.54947
2.54041
2.52738
2.47855
2.46971
2.45965
2.44873
2.43672
2.42358
2.40942
2.39455
2.37854
2.3622
2.34514
2.32838
2.31123
2.29663
2.28369
2.27336
2.26856
2.26863
2.27398
2.28112
2.29835
2.32411
2.35086
2.37803
2.40511
2.43117
2.45526
2.47675
2.49536
2.51103
2.52394
2.53438
2.5427
2.54926
2.55437
2.55835
2.56144
2.5639
2.5659
2.56765
2.56929
2.57084
2.57234
2.57377
2.57505
2.57599
2.57633
2.57585
2.57224
2.57122
2.56589
2.55888
2.54874
2.53456
2.47937
2.47154
2.46239
2.45206
2.4405
2.42756
2.41335
2.39809
2.38153
2.36397
2.34625
2.32692
2.30787
2.29084
2.27488
2.26204
2.25418
2.25273
2.25333
2.26846
2.27645
2.30096
2.33489
2.36697
2.39634
2.42469
2.45127
2.47518
2.49575
2.51301
2.52715
2.53855
2.54762
2.55478
2.56039
2.56478
2.56824
2.571
2.57327
2.57524
2.57707
2.57883
2.58054
2.5822
2.58373
2.58501
2.58609
2.58753
2.58132
2.58077
2.57584
2.56846
2.55765
2.54271
2.48066
2.47378
2.46546
2.45578
2.44466
2.43198
2.41768
2.40231
2.38507
2.3667
2.34932
2.32688
2.30543
2.28558
2.26736
2.25151
2.23878
2.23335
2.234
2.2418
2.2637
2.27949
2.31642
2.35321
2.38616
2.4169
2.44601
2.47233
2.49501
2.51389
2.5293
2.54168
2.55153
2.55931
2.56545
2.57029
2.57413
2.57724
2.57982
2.58205
2.58411
2.58611
2.58809
2.59007
2.59201
2.59374
2.59447
2.59186
2.59286
2.59044
2.58547
2.57751
2.56622
2.55112
2.48222
2.47623
2.46868
2.45966
2.44904
2.4367
2.4222
2.40745
2.38923
2.36773
2.35358
2.32768
2.30483
2.28261
2.26149
2.24236
2.22683
2.21674
2.21508
2.21997
2.24131
2.2606
2.29373
2.33869
2.37458
2.4082
2.43999
2.46869
2.49332
2.51377
2.53042
2.54377
2.5544
2.56283
2.56952
2.57484
2.5791
2.58259
2.5855
2.58802
2.59035
2.5926
2.59487
2.59727
2.5997
2.60142
2.60027
2.6038
2.60266
2.59957
2.59402
2.58569
2.57423
2.55927
2.48378
2.47855
2.47171
2.46337
2.45342
2.44172
2.42678
2.41258
2.39507
2.37308
2.35232
2.32823
2.30377
2.2793
2.25597
2.2348
2.21765
2.20377
2.19884
2.20265
2.21808
2.24404
2.2824
2.3226
2.36297
2.39985
2.43395
2.46464
2.49099
2.51286
2.53061
2.54488
2.55628
2.56536
2.57261
2.57843
2.58314
2.58703
2.59029
2.59314
2.59575
2.59825
2.6008
2.60343
2.60573
2.6068
2.61159
2.61233
2.61093
2.60744
2.60161
2.59319
2.58189
2.5674
2.48494
2.4804
2.47414
2.4663
2.45753
2.44644
2.43299
2.41615
2.397
2.37561
2.35277
2.32782
2.3019
2.27569
2.25026
2.22685
2.20718
2.19131
2.18397
2.18625
2.2002
2.22865
2.26932
2.3086
2.35387
2.39274
2.42845
2.4607
2.48838
2.51135
2.53006
2.54511
2.55722
2.56695
2.57476
2.5811
2.58629
2.59059
2.59423
2.59741
2.60034
2.60302
2.60571
2.60783
2.60889
2.61556
2.61876
2.61909
2.61775
2.61425
2.60849
2.60027
2.58936
2.57565
2.48529
2.48139
2.47594
2.46834
2.4597
2.45088
2.43632
2.41822
2.39825
2.37606
2.3519
2.3259
2.29855
2.27063
2.24313
2.21754
2.196
2.18022
2.17192
2.17198
2.1874
2.21526
2.25707
2.29958
2.3457
2.38669
2.42398
2.45729
2.48578
2.50948
2.52887
2.5446
2.55733
2.5677
2.57595
2.58287
2.58855
2.5933
2.59734
2.60084
2.60385
2.607
2.61002
2.6115
2.61846
2.62125
2.6233
2.62456
2.62362
2.62042
2.61496
2.60714
2.59686
2.58406
2.4849
2.48146
2.47665
2.46865
2.46896
2.45319
2.43457
2.41665
2.39669
2.37409
2.34899
2.32179
2.29306
2.26373
2.23496
2.20847
2.18605
2.16977
2.16112
2.16269
2.17754
2.20687
2.25114
2.29537
2.3414
2.38297
2.4211
2.4547
2.4834
2.5074
2.52719
2.54342
2.5567
2.56757
2.57647
2.58389
2.59008
2.59527
2.59973
2.60379
2.60799
2.61099
2.61167
2.61846
2.62354
2.62735
2.62949
2.63016
2.62922
2.62625
2.62117
2.6139
2.60437
2.59258
2.48271
2.48047
2.48266
2.47208
2.45969
2.44773
2.43249
2.41386
2.39292
2.36943
2.34347
2.31538
2.28576
2.25563
2.22657
2.20023
2.17805
2.16119
2.15172
2.15569
2.17322
2.20539
2.25142
2.29733
2.34211
2.38281
2.42015
2.45308
2.4814
2.5053
2.52524
2.5418
2.55553
2.56692
2.57639
2.58433
2.591
2.59659
2.6014
2.60567
2.60969
2.61186
2.61802
2.62363
2.62844
2.63236
2.63462
2.63526
2.63442
2.63176
2.62713
2.62047
2.61174
2.60096
2.48072
2.47612
2.47118
2.46509
2.45487
2.44224
2.42631
2.40746
2.38607
2.36211
2.33571
2.30728
2.27756
2.24783
2.2202
2.19621
2.17464
2.15891
2.15163
2.15688
2.17791
2.21305
2.25654
2.30277
2.34507
2.38432
2.42038
2.45233
2.47994
2.50346
2.52332
2.54003
2.55408
2.56589
2.57584
2.58424
2.59139
2.59736
2.60173
2.60544
2.61115
2.61664
2.62264
2.62824
2.63312
2.63698
2.63933
2.63999
2.63928
2.63695
2.63276
2.62669
2.61872
2.60887
2.47237
2.46839
2.46332
2.45671
2.44706
2.43383
2.41736
2.39827
2.37662
2.35253
2.32628
2.29844
2.26991
2.24236
2.21764
2.19732
2.17816
2.16462
2.16115
2.16994
2.19204
2.22664
2.26944
2.31101
2.35062
2.38776
2.4219
2.45244
2.47905
2.50195
2.52154
2.53824
2.55246
2.56455
2.57484
2.58359
2.59099
2.59743
2.60185
2.60742
2.61416
2.62059
2.62681
2.63251
2.63741
2.64127
2.6437
2.64447
2.64389
2.64178
2.63799
2.63242
2.62506
2.61595
2.46129
2.45812
2.45343
2.44637
2.43617
2.4225
2.40602
2.38687
2.36523
2.34149
2.31613
2.28992
2.2641
2.24088
2.21948
2.20263
2.18794
2.17944
2.17925
2.19019
2.214
2.24603
2.28315
2.32066
2.35749
2.39247
2.42458
2.45335
2.47873
2.50083
2.51997
2.53649
2.55071
2.5629
2.57314
2.58176
2.58968
2.59827
2.60293
2.6104
2.61728
2.62436
2.6308
2.63659
2.64152
2.64541
2.64789
2.6488
2.6483
2.64627
2.64275
2.63752
2.63058
2.62197
2.44894
2.44586
2.44102
2.43346
2.42266
2.40895
2.39256
2.37365
2.35255
2.32979
2.30613
2.28255
2.26067
2.24244
2.22503
2.21228
2.20248
2.1985
2.2015
2.21414
2.23609
2.26502
2.29771
2.33187
2.36584
2.39815
2.42801
2.45497
2.47896
2.5001
2.51865
2.53481
2.54886
2.56076
2.57055
2.57913
2.58996
2.59775
2.60565
2.61326
2.62106
2.62827
2.6349
2.64077
2.64569
2.64957
2.65207
2.65304
2.65262
2.65053
2.647
2.64191
2.63514
2.62672
2.43515
2.43183
2.42652
2.41835
2.40733
2.39377
2.37769
2.35937
2.33929
2.31817
2.29693
2.27675
2.25936
2.24569
2.23256
2.22373
2.21849
2.21822
2.22396
2.23725
2.25771
2.28372
2.31332
2.34423
2.37508
2.40464
2.4321
2.45714
2.47967
2.49981
2.51761
2.53335
2.54701
2.55853
2.5671
2.57992
2.5906
2.59933
2.6087
2.61709
2.62521
2.63266
2.63937
2.64522
2.65009
2.65391
2.65636
2.65727
2.65683
2.65463
2.65085
2.64556
2.63866
2.63009
2.41978
2.4161
2.41016
2.40162
2.39078
2.37759
2.36215
2.34483
2.32626
2.30731
2.289
2.27259
2.2595
2.24986
2.24124
2.23589
2.23427
2.23701
2.24495
2.25882
2.27811
2.30207
2.32879
2.35668
2.38459
2.41142
2.43656
2.45974
2.48089
2.49993
2.5171
2.53233
2.54569
2.55673
2.56602
2.58103
2.5926
2.60275
2.61282
2.62177
2.63012
2.63769
2.64436
2.65013
2.65489
2.65857
2.66084
2.66159
2.66096
2.65856
2.6544
2.64857
2.64113
2.63201
2.40302
2.39881
2.39244
2.38406
2.37362
2.36109
2.34665
2.33075
2.31413
2.29772
2.28257
2.26985
2.2606
2.25452
2.24974
2.24778
2.24912
2.25432
2.26396
2.27821
2.29689
2.31884
2.34318
2.36853
2.39369
2.41808
2.44123
2.4628
2.48255
2.50075
2.51724
2.53216
2.54473
2.55269
2.57069
2.5844
2.59633
2.60764
2.618
2.62735
2.63582
2.64334
2.64992
2.65552
2.66008
2.66354
2.6655
2.666
2.66501
2.66225
2.65764
2.65112
2.64276
2.63266
2.38533
2.38056
2.37418
2.36619
2.35644
2.34491
2.33184
2.31774
2.30339
2.28974
2.27775
2.26837
2.26232
2.25971
2.25796
2.25864
2.26249
2.26985
2.28083
2.29538
2.31331
2.33383
2.35611
2.37918
2.40215
2.42461
2.44603
2.46607
2.4848
2.5021
2.51802
2.53252
2.54447
2.55427
2.57392
2.58861
2.60157
2.61353
2.62418
2.6337
2.64213
2.64952
2.6559
2.66125
2.66554
2.66868
2.6702
2.67038
2.66894
2.66568
2.66047
2.65321
2.6438
2.63231
2.36707
2.36204
2.35595
2.34859
2.3398
2.32962
2.31829
2.30628
2.29443
2.28361
2.27458
2.26806
2.2652
2.26533
2.26479
2.2689
2.27444
2.28347
2.2955
2.31027
2.32761
2.3469
2.36737
2.38876
2.40994
2.43076
2.45074
2.46959
2.48747
2.50408
2.51956
2.53348
2.54202
2.56351
2.57914
2.59403
2.60786
2.62016
2.63095
2.64042
2.64871
2.65589
2.66198
2.66702
2.67098
2.67362
2.6747
2.67447
2.67252
2.6687
2.66282
2.65471
2.64422
2.63122
2.34903
2.34396
2.33833
2.33181
2.32426
2.31569
2.30635
2.29672
2.28749
2.27942
2.27307
2.26924
2.26831
2.27008
2.27231
2.27736
2.28516
2.29547
2.30816
2.32302
2.33983
2.35818
2.37747
2.39722
2.41702
2.43647
2.45528
2.47338
2.49054
2.50668
2.52181
2.53557
2.54751
2.56768
2.58431
2.60093
2.61473
2.62704
2.63773
2.64703
2.65506
2.66194
2.66763
2.67233
2.67582
2.67791
2.67856
2.67785
2.6754
2.67102
2.66447
2.65551
2.64388
2.62936
2.33176
2.32688
2.32183
2.31632
2.31018
2.30338
2.29613
2.28893
2.2823
2.27687
2.27314
2.27169
2.27322
2.27568
2.2777
2.28581
2.29477
2.30598
2.31919
2.33405
2.35045
2.36795
2.38608
2.40473
2.42334
2.44172
2.45968
2.47705
2.49374
2.50954
2.52349
2.53618
2.55863
2.57297
2.59211
2.60779
2.62149
2.63353
2.64389
2.65287
2.66051
2.66697
2.67225
2.67645
2.67941
2.68089
2.68113
2.67994
2.67702
2.67215
2.66504
2.65533
2.64264
2.62659
2.31595
2.31131
2.30694
2.30252
2.29788
2.29296
2.28789
2.28298
2.27877
2.27558
2.27408
2.27509
2.27811
2.27871
2.28556
2.29431
2.30375
2.31539
2.32872
2.34346
2.35949
2.37627
2.39363
2.41133
2.42912
2.44681
2.46403
2.48069
2.49658
2.51206
2.52411
2.54409
2.56619
2.58202
2.59973
2.61436
2.62746
2.63892
2.6488
2.65726
2.66439
2.67031
2.67505
2.67865
2.68093
2.68185
2.68163
2.67998
2.67668
2.67149
2.66401
2.65376
2.64021
2.62275
2.30208
2.29773
2.29406
2.29076
2.28759
2.28446
2.28141
2.27873
2.27687
2.27596
2.27637
2.2798
2.2804
2.2864
2.29335
2.30225
2.31206
2.3236
2.33701
2.35165
2.36736
2.38362
2.40034
2.41732
2.43432
2.45129
2.46769
2.48337
2.50182
2.51241
2.53124
2.55143
2.57501
2.59035
2.60623
2.61989
2.63205
2.6427
2.65186
2.65961
2.66605
2.67127
2.67532
2.6782
2.67975
2.68014
2.67942
2.67735
2.67375
2.66833
2.66065
2.65015
2.63607
2.61754
2.29061
2.28659
2.28361
2.28134
2.27953
2.27805
2.27701
2.27625
2.27622
2.27707
2.27897
2.28246
2.28718
2.29344
2.30158
2.31097
2.31977
2.33145
2.34441
2.35897
2.37438
2.39008
2.40588
2.42202
2.43836
2.45564
2.47294
2.49018
2.50678
2.51779
2.54293
2.56118
2.58038
2.59613
2.61081
2.6235
2.63469
2.64435
2.65259
2.6595
2.66511
2.66952
2.67271
2.6746
2.67529
2.675
2.6736
2.67106
2.66716
2.6617
2.65413
2.64376
2.62959
2.61043
2.28198
2.27826
2.27594
2.27456
2.27399
2.27404
2.27459
2.27554
2.27708
2.27942
2.28278
2.28767
2.29545
2.29544
2.30971
2.32052
2.32863
2.3391
2.35122
2.3653
2.38005
2.395
2.41006
2.42678
2.44493
2.46282
2.47939
2.494
2.51501
2.52727
2.55167
2.56839
2.58539
2.60015
2.61351
2.6251
2.63514
2.64379
2.65099
2.6568
2.66132
2.66454
2.66643
2.6671
2.66685
2.66558
2.66338
2.66034
2.65619
2.65097
2.64376
2.6339
2.6201
2.6008
2.27672
2.27325
2.27146
2.27084
2.27124
2.27246
2.27429
2.27665
2.27953
2.28302
2.28729
2.2925
2.29864
2.30501
2.31444
2.32808
2.3372
2.34606
2.35762
2.37068
2.38504
2.40103
2.41743
2.43397
2.45189
2.4697
2.48803
2.50394
2.52226
2.53879
2.55709
2.57365
2.58896
2.60252
2.61448
2.6248
2.63364
2.64096
2.64683
2.6513
2.65436
2.65597
2.65639
2.65575
2.65415
2.6517
2.64853
2.64483
2.64046
2.63545
2.62893
2.62012
2.60711
2.5882
2.27508
2.27177
2.27038
2.27022
2.27136
2.27349
2.27635
2.27981
2.28379
2.28829
2.29336
2.29901
2.30511
2.31199
2.32114
2.33159
2.34506
2.35492
2.36526
2.37871
2.39319
2.40789
2.42507
2.44246
2.46151
2.47686
2.49501
2.51389
2.52928
2.54659
2.56238
2.57752
2.59122
2.60335
2.61391
2.62284
2.63022
2.63605
2.64039
2.64315
2.64432
2.64428
2.64297
2.64057
2.63728
2.63327
2.62879
2.62418
2.61955
2.61478
2.60939
2.60198
2.59039
2.57236
2.27739
2.27411
2.27293
2.27311
2.27478
2.27754
2.28112
2.28532
2.29006
2.29528
2.30101
2.30724
2.31393
2.32122
2.32988
2.34036
2.35169
2.36208
2.37346
2.38723
2.40253
2.41752
2.43431
2.45208
2.46882
2.48598
2.5031
2.52039
2.53609
2.5518
2.56644
2.58001
2.59224
2.60292
2.61196
2.61944
2.62526
2.62946
2.63193
2.63274
2.63208
2.62996
2.6265
2.62191
2.61642
2.61033
2.60405
2.59817
2.59313
2.58882
2.58499
2.57982
2.57047
2.55385
2.28388
2.28054
2.27946
2.27985
2.28182
2.28492
2.28889
2.2935
2.29862
2.30422
2.31028
2.31681
2.32386
2.33158
2.34028
2.35019
2.36081
2.37155
2.38347
2.39673
2.41222
2.42819
2.44353
2.46053
2.47683
2.49353
2.50987
2.52598
2.54115
2.55564
2.56913
2.58141
2.59225
2.60153
2.60915
2.6151
2.61933
2.6216
2.62218
2.62106
2.61818
2.61366
2.60765
2.60034
2.59206
2.58328
2.57461
2.56688
2.561
2.55754
2.55592
2.55411
2.54846
2.53411
2.29457
2.29126
2.29021
2.29069
2.29274
2.29593
2.29996
2.30464
2.30983
2.31547
2.32152
2.32803
2.33507
2.34278
2.35124
2.36072
2.37063
2.38135
2.39375
2.40708
2.42158
2.43656
2.45198
2.46786
2.48383
2.49975
2.51535
2.53051
2.54489
2.5584
2.57081
2.58193
2.59156
2.59955
2.6058
2.61031
2.61272
2.61332
2.61201
2.60869
2.60339
2.59615
2.58708
2.57643
2.56458
2.55219
2.54003
2.52944
2.52235
2.5199
2.52153
2.52491
2.52509
2.51532
2.30943
2.30631
2.30525
2.30573
2.3077
2.31074
2.31457
2.31899
2.32388
2.32918
2.3349
2.34106
2.34773
2.35505
2.36303
2.37185
2.38138
2.39196
2.40375
2.41654
2.43023
2.44446
2.45924
2.47436
2.48963
2.50481
2.51968
2.53402
2.54761
2.56026
2.57175
2.58186
2.59043
2.59732
2.60239
2.60535
2.60631
2.60528
2.60202
2.59646
2.58854
2.57828
2.56571
2.55107
2.5348
2.5178
2.50114
2.48652
2.47818
2.47635
2.48239
2.49501
2.50362
2.50066
2.32828
2.3254
2.32451
2.32497
2.32675
2.32946
2.33284
2.3367
2.34097
2.3456
2.35061
2.35603
2.36198
2.36854
2.37573
2.38378
2.39267
2.40259
2.41356
2.42549
2.43824
2.45165
2.46561
2.47994
2.49444
2.50888
2.52303
2.53666
2.54955
2.56147
2.57218
2.58149
2.58921
2.59523
2.5992
2.60086
2.60062
2.59799
2.59287
2.58512
2.57452
2.56099
2.54449
2.52515
2.50337
2.48045
2.45736
2.4364
2.42427
2.4213
2.43162
2.45536
2.48059
2.4909
2.35057
2.34831
2.34763
2.34816
2.34973
2.35199
2.35472
2.3578
2.36116
2.36481
2.36878
2.37314
2.378
2.38347
2.38959
2.39661
2.40451
2.4134
2.42329
2.43414
2.44585
2.4583
2.47135
2.48483
2.49853
2.51224
2.52572
2.53872
2.55101
2.56233
2.57244
2.58114
2.58823
2.59358
2.59655
2.59739
2.59602
2.59204
2.58526
2.57543
2.56229
2.54543
2.52453
2.49957
2.47105
2.43999
2.40783
2.3779
2.35997
2.35604
2.37373
2.41168
2.45838
2.48834
2.61592
2.61477
2.61255
2.60946
2.60579
2.60177
2.59768
2.59367
2.59
2.5868
2.5842
2.5823
2.58118
2.58081
2.58109
2.58204
2.58354
2.58552
2.58782
2.59027
2.61392
2.61265
2.61024
2.60693
2.60297
2.59866
2.59423
2.5899
2.58587
2.58235
2.57942
2.57721
2.57577
2.5751
2.57514
2.57578
2.57701
2.5787
2.58071
2.58287
2.61125
2.60995
2.60744
2.60396
2.59978
2.59521
2.59049
2.58585
2.5815
2.57766
2.57439
2.57186
2.57008
2.56907
2.56882
2.56914
2.57002
2.57135
2.573
2.57482
2.60794
2.60669
2.60417
2.60057
2.59623
2.59144
2.58647
2.58154
2.57689
2.57269
2.5691
2.56622
2.56409
2.56273
2.5621
2.56209
2.56257
2.56349
2.56474
2.56616
2.60408
2.60293
2.60043
2.59678
2.59231
2.58734
2.58213
2.57693
2.57197
2.56744
2.5635
2.56026
2.55776
2.55602
2.55499
2.55459
2.55467
2.55515
2.55594
2.55692
2.59971
2.59866
2.59623
2.59257
2.58801
2.58286
2.57743
2.57196
2.56668
2.56182
2.55753
2.55392
2.55105
2.54891
2.54747
2.54663
2.54629
2.54633
2.54663
2.54714
2.59482
2.59391
2.59157
2.58791
2.58327
2.57795
2.57228
2.56654
2.56094
2.55573
2.55109
2.5471
2.54385
2.54132
2.53946
2.5382
2.53741
2.537
2.53685
2.53688
2.58946
2.58867
2.5864
2.58275
2.57799
2.57249
2.56656
2.56051
2.55459
2.54902
2.54401
2.53968
2.53605
2.53317
2.53091
2.52926
2.52803
2.5272
2.52659
2.52616
2.58362
2.58289
2.58068
2.57697
2.57204
2.56631
2.56009
2.5537
2.54742
2.54149
2.53614
2.53148
2.52754
2.52432
2.52174
2.51972
2.51813
2.51688
2.51588
2.51504
2.57731
2.57657
2.5743
2.57041
2.56524
2.55918
2.5526
2.54582
2.53915
2.53288
2.52722
2.52228
2.5181
2.51463
2.51181
2.50951
2.50763
2.50607
2.50474
2.50355
2.57051
2.56962
2.56712
2.56288
2.5573
2.5508
2.54375
2.53652
2.52945
2.52283
2.51691
2.5118
2.50749
2.50392
2.50098
2.49855
2.49651
2.49475
2.49318
2.49174
2.56319
2.56196
2.55893
2.55409
2.54789
2.54075
2.53308
2.52531
2.51782
2.51091
2.50484
2.49969
2.49545
2.49195
2.4891
2.48674
2.48471
2.4829
2.48122
2.47963
2.55537
2.5534
2.5495
2.54377
2.53663
2.52857
2.52005
2.51159
2.50365
2.49654
2.49048
2.48555
2.4816
2.47847
2.47599
2.47395
2.47217
2.47051
2.4689
2.4673
2.5471
2.54389
2.53868
2.5316
2.52308
2.51371
2.50402
2.49468
2.4863
2.47909
2.47329
2.46889
2.46557
2.46318
2.46144
2.46007
2.45883
2.45759
2.45624
2.45479
2.53849
2.53355
2.52676
2.51771
2.50733
2.49612
2.48471
2.47395
2.46495
2.45791
2.45276
2.44923
2.44703
2.44583
2.44531
2.44503
2.44471
2.44418
2.44332
2.4422
2.52973
2.52304
2.51472
2.50268
2.48959
2.47603
2.46213
2.44964
2.4395
2.43287
2.42856
2.42624
2.42559
2.42615
2.42748
2.42884
2.4299
2.43037
2.43025
2.42963
2.52196
2.51258
2.50143
2.48415
2.46685
2.45019
2.43345
2.42
2.40826
2.40326
2.40027
2.40005
2.40123
2.40435
2.40818
2.41175
2.41456
2.41641
2.41723
2.41721
2.51173
2.49793
2.48268
2.47064
2.45276
2.43233
2.41142
2.3905
2.37392
2.37041
2.36409
2.36956
2.37453
2.38113
2.38805
2.3943
2.39927
2.40273
2.40462
2.40528
2.50781
2.49556
2.4769
2.45576
2.43094
2.40376
2.37748
2.35408
2.33537
2.32795
2.32583
2.33506
2.34486
2.35762
2.36831
2.37746
2.38476
2.38991
2.39288
2.39408
2.50565
2.48859
2.4664
2.43864
2.40906
2.37947
2.35219
2.32445
2.30387
2.29278
2.29345
2.3018
2.31446
2.33438
2.35011
2.36253
2.37211
2.37874
2.38251
2.38402
2.50592
2.48522
2.46003
2.42994
2.39704
2.36338
2.33017
2.30252
2.28009
2.26633
2.26516
2.277
2.2966
2.31498
2.33614
2.35149
2.36268
2.37016
2.37415
2.37542
2.50956
2.4864
2.45761
2.42476
2.38971
2.35466
2.32217
2.29255
2.26839
2.25295
2.24898
2.26085
2.28459
2.30676
2.32895
2.3456
2.35739
2.36478
2.36818
2.36851
2.51539
2.49099
2.46136
2.42744
2.39124
2.35566
2.32294
2.29349
2.26942
2.25415
2.24912
2.26213
2.28516
2.3074
2.32842
2.34498
2.35639
2.36262
2.3645
2.36322
2.52299
2.49823
2.46852
2.43489
2.39891
2.36441
2.33266
2.30373
2.28056
2.26699
2.26562
2.27717
2.29447
2.31521
2.33403
2.34883
2.35843
2.36282
2.36255
2.35886
2.53184
2.50818
2.48048
2.4493
2.41638
2.38103
2.34711
2.31915
2.29887
2.28872
2.28617
2.29389
2.30915
2.32675
2.34284
2.35489
2.36236
2.36423
2.36137
2.35408
2.54051
2.51805
2.4921
2.46352
2.43297
2.40214
2.37315
2.34614
2.32254
2.30835
2.30554
2.31188
2.32447
2.33857
2.35119
2.36048
2.36464
2.36498
2.36087
2.34922
2.54963
2.52868
2.50473
2.47852
2.45095
2.42325
2.39692
2.37262
2.35173
2.33885
2.33392
2.33517
2.34176
2.35087
2.3599
2.36595
2.36772
2.36385
2.35342
2.34148
2.55909
2.53982
2.51808
2.49443
2.46967
2.44465
2.42057
2.39806
2.37906
2.36507
2.35746
2.35484
2.35573
2.35882
2.36183
2.36272
2.36009
2.35297
2.34159
2.32754
2.56879
2.55119
2.53157
2.51032
2.48801
2.46537
2.44324
2.4224
2.40399
2.38892
2.37798
2.37098
2.367
2.36457
2.3621
2.3581
2.3514
2.34101
2.32699
2.30967
2.57858
2.56255
2.54476
2.52556
2.50532
2.4846
2.46387
2.44404
2.42548
2.40904
2.39529
2.38431
2.37564
2.36826
2.36119
2.35294
2.34257
2.32942
2.31322
2.29392
2.58821
2.57364
2.55745
2.53992
2.52132
2.50191
2.48228
2.463
2.4436
2.42543
2.40891
2.39416
2.38105
2.36928
2.35823
2.3468
2.33395
2.31906
2.30199
2.2834
2.59721
2.58387
2.56901
2.55283
2.53549
2.51713
2.49801
2.47844
2.45834
2.43821
2.4189
2.40043
2.38348
2.36823
2.354
2.34011
2.32558
2.3096
2.29207
2.27272
2.60517
2.59279
2.57894
2.56375
2.54731
2.5296
2.51055
2.49062
2.46915
2.44655
2.42425
2.40291
2.3832
2.3652
2.34896
2.33365
2.31838
2.30291
2.28833
2.277
2.61175
2.6
2.58681
2.57222
2.55623
2.53867
2.51922
2.49777
2.47442
2.44979
2.42513
2.40132
2.37907
2.35926
2.34209
2.32683
2.31232
2.29889
2.28699
2.27755
2.61674
2.60522
2.59221
2.57766
2.56144
2.54328
2.52286
2.49996
2.47472
2.44783
2.42046
2.39476
2.37092
2.35021
2.33263
2.31775
2.30569
2.29559
2.28757
2.28542
2.61988
2.60807
2.59469
2.57967
2.56277
2.54363
2.52176
2.49694
2.46923
2.4396
2.41021
2.38178
2.35736
2.33636
2.31983
2.30748
2.2984
2.29131
2.28682
2.28642
2.62116
2.60864
2.5944
2.57831
2.56004
2.53914
2.51513
2.4878
2.4574
2.42513
2.39331
2.36332
2.33854
2.31885
2.30463
2.29547
2.29084
2.28887
2.2885
2.28899
2.62076
2.60698
2.59127
2.57344
2.55309
2.52969
2.50277
2.47221
2.43855
2.40359
2.36957
2.33967
2.31479
2.29741
2.28734
2.28281
2.28195
2.28529
2.29153
2.30189
2.61883
2.60326
2.58545
2.56515
2.5419
2.51515
2.48447
2.45007
2.41283
2.37463
2.33947
2.31018
2.28724
2.27455
2.2687
2.26759
2.27198
2.28132
2.2945
2.30931
2.6157
2.59774
2.57716
2.55359
2.52651
2.49542
2.46012
2.42118
2.38018
2.33993
2.30435
2.27621
2.25747
2.24946
2.24735
2.25073
2.26108
2.27638
2.29516
2.31549