/*--------------------------------*- C++ -*----------------------------------*\
  =========                 |
  \\      /  F ield         | OpenFOAM: The Open Source CFD Toolbox
   \\    /   O peration     | Website:  https://openfoam.org
    \\  /    A nd           | Version:  10
     \\/     M anipulation  |
\*---------------------------------------------------------------------------*/
FoamFile
{
    format      ascii;
    class       surfaceScalarField;
    location    "0.350779";
    object      phi;
}
// * * * * * * * * * * * * * * * * * * * * * * * * * * * * * * * * * * * * * //

dimensions      [1 0 -1 0 0 0 0];

internalField   nonuniform List<scalar> 
31672
(
0.000450038
-5.65328e-05
0.000447437
-5.68394e-05
0.000444229
-5.66389e-05
0.000440429
-5.59168e-05
0.000436126
-5.46803e-05
0.000431343
-5.29385e-05
0.000426208
-5.07172e-05
0.000420836
-4.80741e-05
0.000415325
-4.50681e-05
0.000409837
-4.17676e-05
0.000404435
-3.82621e-05
0.000399239
-3.46451e-05
0.000394328
-3.09732e-05
0.00038976
-2.73579e-05
0.000385548
-2.386e-05
0.000381759
-2.05755e-05
0.000378301
-1.75284e-05
0.000375171
-1.47551e-05
0.00037232
-1.23102e-05
0.000369687
-1.01811e-05
0.000367216
-8.40205e-06
0.000364846
-6.97036e-06
0.000362499
-5.90222e-06
0.000360142
-5.18565e-06
0.000357733
-4.81739e-06
0.000355192
-4.78171e-06
0.000352505
-5.08285e-06
0.000349621
-5.68193e-06
0.00034652
-6.553e-06
0.000343159
-7.67401e-06
0.000339582
-9.005e-06
0.000335825
-1.05178e-05
0.000331785
-1.21659e-05
0.000327476
-1.38799e-05
0.00032292
-1.56279e-05
0.000318185
-1.73559e-05
0.000313368
-1.90203e-05
0.000308545
-2.05954e-05
0.000303797
-2.20441e-05
0.000299307
-2.33487e-05
0.000295143
-2.45081e-05
0.000291457
-2.55062e-05
0.000288433
-2.63592e-05
0.000286132
-2.70556e-05
0.00028468
-2.75984e-05
0.000284157
-2.79766e-05
0.000284583
-2.81717e-05
0.000286023
-2.81546e-05
0.000288382
-2.78977e-05
0.000291672
-2.73463e-05
0.00029581
-2.64797e-05
0.000300656
-2.52282e-05
0.000306157
-2.35746e-05
-2.14736e-05
0.000312114
0.000449308
-5.13116e-05
0.000447103
-5.15553e-05
0.000444328
-5.13257e-05
0.000440957
-5.0622e-05
0.000437075
-4.94233e-05
0.00043271
-4.77323e-05
0.000427944
-4.55638e-05
0.00042291
-4.29514e-05
0.000417711
-3.9959e-05
0.000412429
-3.66437e-05
0.000407181
-3.30869e-05
0.000402076
-2.93709e-05
0.000397172
-2.55949e-05
0.000392551
-2.18193e-05
0.000388261
-1.8178e-05
0.000384295
-1.47085e-05
0.000380676
-1.15047e-05
0.000377346
-8.60797e-06
0.000374278
-6.04865e-06
0.000371373
-3.85294e-06
0.000368651
-2.06011e-06
0.000366013
-6.69516e-07
0.00036339
3.14654e-07
0.000360762
8.802e-07
0.000358043
1.03513e-06
0.000355245
7.92374e-07
0.000352275
1.51428e-07
0.000349132
-8.43894e-07
0.000345794
-2.1763e-06
0.000342212
-3.8051e-06
0.000338451
-5.68731e-06
0.000334519
-7.79525e-06
0.00033035
-1.00612e-05
0.000325974
-1.24288e-05
0.000321372
-1.48406e-05
0.000316663
-1.7233e-05
0.000311874
-1.95622e-05
0.000307128
-2.17613e-05
0.000302506
-2.38035e-05
0.000298098
-2.5657e-05
0.000294084
-2.72953e-05
0.000290556
-2.87156e-05
0.000287657
-2.99093e-05
0.000285521
-3.08785e-05
0.000284246
-3.16227e-05
0.000283901
-3.21362e-05
0.000284561
-3.24067e-05
0.000286239
-3.2418e-05
0.000288901
-3.21413e-05
0.000292519
-3.15434e-05
0.000297013
-3.05892e-05
0.000302274
-2.92305e-05
0.000308178
-2.74405e-05
-2.51798e-05
0.000314584
0.000448623
-4.61611e-05
0.000446792
-4.63696e-05
0.000444392
-4.61395e-05
0.000441439
-4.54805e-05
0.000437957
-4.43468e-05
0.000434021
-4.27333e-05
0.000429649
-4.06402e-05
0.000424962
-3.80888e-05
0.000420076
-3.51257e-05
0.000415035
-3.1811e-05
0.000409968
-2.82134e-05
0.000404977
-2.4424e-05
0.000400118
-2.05126e-05
0.000395468
-1.65976e-05
0.000391078
-1.27605e-05
0.000386968
-9.10876e-06
0.000383167
-5.70777e-06
0.000379608
-2.62486e-06
0.00037628
7.97517e-08
0.00037313
2.37609e-06
0.000370101
4.24162e-06
0.000367135
5.65742e-06
0.000364185
6.59019e-06
0.000361228
7.04872e-06
0.000358183
7.02767e-06
0.000355034
6.53947e-06
0.000351758
5.6001e-06
0.000348301
4.22951e-06
0.00034467
2.4672e-06
0.000340835
3.48776e-07
0.000336826
-2.07145e-06
0.000332717
-4.75522e-06
0.000328409
-7.634e-06
0.00032392
-1.06378e-05
0.000319298
-1.37198e-05
0.000314585
-1.6789e-05
0.00030988
-1.97792e-05
0.000305221
-2.264e-05
0.000300733
-2.53084e-05
0.000296518
-2.77468e-05
0.00029267
-2.99306e-05
0.000289342
-3.18308e-05
0.000286649
-3.34435e-05
0.000284723
-3.47654e-05
0.000283669
-3.57931e-05
0.000283572
-3.65246e-05
0.00028449
-3.69539e-05
0.000286452
-3.70677e-05
0.000289425
-3.68434e-05
0.000293406
-3.62567e-05
0.000298275
-3.52699e-05
0.000303958
-3.38402e-05
0.000310317
-3.1944e-05
-2.95418e-05
0.000317181
0.000447977
-4.10659e-05
0.00044648
-4.12582e-05
0.000444435
-4.10685e-05
0.000441883
-4.04765e-05
0.000438805
-3.94408e-05
0.000435267
-3.79311e-05
0.000431318
-3.59403e-05
0.000427002
-3.34778e-05
0.000422422
-3.05692e-05
0.000417666
-2.7273e-05
0.000412814
-2.36522e-05
0.000407962
-1.97931e-05
0.000403183
-1.57671e-05
0.000398506
-1.16901e-05
0.000394054
-7.66591e-06
0.000389812
-3.77766e-06
0.000385791
-1.59654e-07
0.000382004
3.13707e-06
0.000378413
6.04184e-06
0.000374918
8.51036e-06
0.000371564
1.04915e-05
0.000368258
1.1959e-05
0.000364929
1.2905e-05
0.000361579
1.32988e-05
0.000358146
1.31489e-05
0.000354618
1.24625e-05
0.000350942
1.12493e-05
0.000347127
9.54467e-06
0.000343156
7.37843e-06
0.000339009
4.79863e-06
0.000334751
1.86101e-06
0.0003304
-1.38513e-06
0.000325915
-4.86028e-06
0.000321334
-8.50297e-06
0.000316647
-1.22428e-05
0.00031196
-1.5984e-05
0.000307311
-1.96591e-05
0.000302788
-2.31873e-05
0.000298454
-2.65179e-05
0.000294429
-2.95886e-05
0.00029083
-3.23681e-05
0.000287744
-3.48184e-05
0.000285313
-3.69321e-05
0.000283663
-3.86904e-05
0.000282882
-4.00979e-05
0.000283066
-4.11388e-05
0.0002843
-4.18261e-05
0.000286574
-4.21277e-05
0.000289909
-4.20472e-05
0.000294274
-4.15462e-05
0.000299572
-4.05904e-05
0.000305702
-3.91467e-05
0.00031256
-3.71746e-05
-3.4646e-05
0.000319942
0.000447359
-3.60104e-05
0.000446152
-3.62154e-05
0.000444442
-3.60983e-05
0.000442255
-3.56029e-05
0.000439583
-3.46941e-05
0.000436448
-3.33193e-05
0.000432917
-3.14602e-05
0.000428992
-2.91139e-05
0.000424753
-2.62904e-05
0.000420312
-2.30357e-05
0.000415719
-1.94106e-05
0.000411021
-1.54928e-05
0.000406349
-1.13691e-05
0.000401718
-7.13079e-06
0.000397201
-2.88721e-06
0.000392815
1.21709e-06
0.000388621
5.10934e-06
0.00038457
8.66933e-06
0.000380665
1.18141e-05
0.000376873
1.44977e-05
0.00037311
1.66544e-05
0.000369389
1.82461e-05
0.000365662
1.924e-05
0.000361851
1.96307e-05
0.000357965
1.93961e-05
0.000353979
1.85497e-05
0.000349873
1.71082e-05
0.000345635
1.51001e-05
0.000341271
1.25626e-05
0.000336776
9.54908e-06
0.000332194
6.12445e-06
0.000327581
2.33118e-06
0.000322904
-1.72556e-06
0.000318166
-5.99606e-06
0.000313416
-1.03871e-05
0.000308731
-1.48035e-05
0.000304152
-1.91607e-05
0.000299759
-2.33834e-05
0.000295626
-2.74018e-05
0.000291834
-3.11498e-05
0.000288487
-3.45783e-05
0.000285692
-3.76514e-05
0.000283571
-4.0342e-05
0.000282234
-4.26346e-05
0.000281774
-4.45181e-05
0.000282312
-4.598e-05
0.000283886
-4.70259e-05
0.000286527
-4.76327e-05
0.00029029
-4.77919e-05
0.000295069
-4.74727e-05
0.000300835
-4.66266e-05
0.000307494
-4.52502e-05
0.000314868
-4.32342e-05
-4.06188e-05
0.00032283
0.000446735
-3.09718e-05
0.000445784
-3.12304e-05
0.000444397
-3.12117e-05
0.000442546
-3.08584e-05
0.000440278
-3.01018e-05
0.000437546
-2.88977e-05
0.000434416
-2.7203e-05
0.000430915
-2.50034e-05
0.000427075
-2.22992e-05
0.000422955
-1.91158e-05
0.000418628
-1.55052e-05
0.000414168
-1.1548e-05
0.000409629
-7.32066e-06
0.000405077
-2.93389e-06
0.000400552
1.50818e-06
0.00039603
5.89071e-06
0.000391663
1.00637e-05
0.000387342
1.39369e-05
0.000383122
1.73776e-05
0.00037894
2.03239e-05
0.000374786
2.27176e-05
0.000370597
2.44898e-05
0.00036636
2.5601e-05
0.000362072
2.60285e-05
0.000357664
2.57668e-05
0.000353161
2.48089e-05
0.000348552
2.31806e-05
0.000343836
2.09049e-05
0.000339023
1.80316e-05
0.000334113
1.46121e-05
0.000329173
1.07286e-05
0.00032426
6.41011e-06
0.000319338
1.78397e-06
0.000314442
-3.09685e-06
0.000309599
-8.13259e-06
0.000304897
-1.32143e-05
0.000300391
-1.82719e-05
0.000296123
-2.32025e-05
0.000292185
-2.79342e-05
0.000288637
-3.23982e-05
0.000285572
-3.65352e-05
0.000283108
-4.02977e-05
0.00028133
-4.36529e-05
0.000280353
-4.6572e-05
0.000280267
-4.90426e-05
0.000281179
-5.10386e-05
0.000283167
-5.25718e-05
0.000286235
-5.36018e-05
0.000290439
-5.41255e-05
0.000295706
-5.40917e-05
0.000302022
-5.34711e-05
0.000309263
-5.22129e-05
0.000317208
-5.027e-05
-4.75842e-05
0.000325867
0.000446079
-2.59417e-05
0.000445357
-2.62919e-05
0.000444246
-2.64093e-05
0.000442751
-2.62316e-05
0.000440841
-2.56718e-05
0.000438527
-2.46706e-05
0.000435813
-2.31765e-05
0.000432759
-2.11585e-05
0.000429328
-1.86049e-05
0.000425582
-1.55236e-05
0.000421612
-1.19618e-05
0.000417398
-7.97489e-06
0.000413051
-3.66642e-06
0.000408588
8.81175e-07
0.000404058
5.5454e-06
0.000399514
1.01764e-05
0.000394956
1.46879e-05
0.000390369
1.88871e-05
0.000385816
2.27112e-05
0.000381225
2.59812e-05
0.000376604
2.86689e-05
0.000371907
3.06837e-05
0.000367131
3.19711e-05
0.000362253
3.25022e-05
0.000357283
3.22661e-05
0.000352199
3.12488e-05
0.000347011
2.94745e-05
0.000341743
2.69762e-05
0.000336406
2.37999e-05
0.000331041
2.00086e-05
0.000325714
1.56898e-05
0.000320432
1.08769e-05
0.000315219
5.68691e-06
0.000310121
2.0679e-07
0.000305173
-5.46079e-06
0.000300434
-1.12202e-05
0.000295976
-1.69667e-05
0.000291849
-2.26266e-05
0.000288085
-2.80947e-05
0.000284786
-3.33117e-05
0.000282031
-3.8212e-05
0.0002799
-4.27354e-05
0.000278488
-4.68344e-05
0.000277903
-5.04855e-05
0.00027823
-5.36522e-05
0.000279588
-5.63172e-05
0.000282002
-5.84663e-05
0.000285569
-6.00585e-05
0.000290279
-6.10867e-05
0.000296121
-6.14755e-05
0.000303043
-6.12108e-05
0.000310916
-6.01933e-05
0.000319639
-5.83876e-05
-5.57041e-05
0.000328973
0.000445364
-2.0912e-05
0.000444839
-2.13905e-05
0.000443975
-2.16901e-05
0.000442799
-2.17262e-05
0.000441259
-2.1407e-05
0.000439355
-2.06489e-05
0.000437097
-1.93962e-05
0.000434487
-1.75979e-05
0.000431511
-1.5228e-05
0.000428209
-1.22855e-05
0.000424601
-8.79479e-06
0.000420717
-4.81393e-06
0.00041661
-4.24388e-07
0.000412311
4.27e-06
0.000407847
9.16425e-06
0.000403215
1.41026e-05
0.000398498
1.89406e-05
0.00039372
2.35392e-05
0.000388751
2.77517e-05
0.000383755
3.14504e-05
0.000378609
3.45026e-05
0.000373377
3.6816e-05
0.000367988
3.8358e-05
0.00036247
3.90635e-05
0.000356845
3.89007e-05
0.000351095
3.78795e-05
0.000345269
3.60107e-05
0.000339376
3.33327e-05
0.000333463
2.98874e-05
0.000327567
2.57674e-05
0.000321782
2.102e-05
0.000316098
1.57308e-05
0.000310552
1.00074e-05
0.000305217
3.94429e-06
0.00030014
-2.36869e-06
0.000295354
-8.79099e-06
0.000290909
-1.52367e-05
0.000286861
-2.16294e-05
0.000283282
-2.78698e-05
0.000280231
-3.38824e-05
0.000277764
-3.95908e-05
0.000275974
-4.49396e-05
0.000274953
-4.98761e-05
0.000274776
-5.43524e-05
0.000275559
-5.8335e-05
0.000277372
-6.18045e-05
0.000280295
-6.47091e-05
0.000284398
-6.70287e-05
0.000289681
-6.87073e-05
0.000296156
-6.96955e-05
0.000303777
-6.99217e-05
0.000312433
-6.92985e-05
0.00032196
-6.77378e-05
-6.51443e-05
0.000332189
0.000444569
-1.58654e-05
0.000444171
-1.6524e-05
0.000443568
-1.70523e-05
0.00044268
-1.73516e-05
0.000441499
-1.73169e-05
0.000440024
-1.68542e-05
0.000438233
-1.5883e-05
0.000436091
-1.43476e-05
0.000433619
-1.22019e-05
0.000430793
-9.43138e-06
0.000427606
-6.04538e-06
0.000424122
-2.08711e-06
0.000420309
2.35354e-06
0.000416225
7.21379e-06
0.000411845
1.23352e-05
0.000407212
1.76086e-05
0.000402364
2.28378e-05
0.000397289
2.78684e-05
0.000392008
3.25362e-05
0.000386571
3.66853e-05
0.000380887
4.01812e-05
0.000375015
4.29086e-05
0.000368959
4.47736e-05
0.000362751
4.57071e-05
0.000356364
4.57021e-05
0.000349877
4.47295e-05
0.000343335
4.28157e-05
0.000336759
3.99964e-05
0.000330175
3.63355e-05
0.000323709
3.18942e-05
0.000317376
2.67463e-05
0.000311237
2.10004e-05
0.000305348
1.47416e-05
0.00029976
8.10564e-06
0.000294478
1.18988e-06
0.000289583
-5.90324e-06
0.000285128
-1.30666e-05
0.00028115
-2.0215e-05
0.000277715
-2.72488e-05
0.00027488
-3.40899e-05
0.000272703
-4.06635e-05
0.000271255
-4.69045e-05
0.000270613
-5.27523e-05
0.000270869
-5.81574e-05
0.000272109
-6.30816e-05
0.00027442
-6.74808e-05
0.000277888
-7.13068e-05
0.000282562
-7.45137e-05
0.000288502
-7.70351e-05
0.000295709
-7.88001e-05
0.000304119
-7.97091e-05
0.000313656
-7.96463e-05
0.000324172
-7.84889e-05
-7.61075e-05
0.000335466
0.000443615
-1.07938e-05
0.000443362
-1.16879e-05
0.000442926
-1.25018e-05
0.000442358
-1.31184e-05
0.000441541
-1.34238e-05
0.000440482
-1.33057e-05
0.000439172
-1.26738e-05
0.000437545
-1.14436e-05
0.000435596
-9.56627e-06
0.000433294
-7.0042e-06
0.000430624
-3.75496e-06
0.000427571
1.54525e-07
0.000424124
4.64378e-06
0.000420319
9.6497e-06
0.000416127
1.50305e-05
0.000411557
2.06489e-05
0.000406574
2.63233e-05
0.0004013
3.18527e-05
0.00039567
3.70525e-05
0.000389688
4.17368e-05
0.000383447
4.57471e-05
0.0003769
4.89489e-05
0.000370101
5.12116e-05
0.000363094
5.24785e-05
0.000355909
5.26893e-05
0.000348593
5.1838e-05
0.000341224
4.99292e-05
0.000333863
4.70134e-05
0.000326592
4.31447e-05
0.000319462
3.84059e-05
0.000312544
3.28941e-05
0.000305902
2.6707e-05
0.000299578
1.99517e-05
0.000293639
1.2743e-05
0.000288137
5.20016e-06
0.000283108
-2.57191e-06
0.000278599
-1.04484e-05
0.000274669
-1.8379e-05
0.000271348
-2.62281e-05
0.000268702
-3.39344e-05
0.000266784
-4.14168e-05
0.000265648
-4.86102e-05
0.000265377
-5.54497e-05
0.000266055
-6.18872e-05
0.000267758
-6.78643e-05
0.000270582
-7.33366e-05
0.00027461
-7.82434e-05
0.000279934
-8.25244e-05
0.000286576
-8.6094e-05
0.000294575
-8.88446e-05
0.000303911
-9.06577e-05
0.000314481
-9.13736e-05
0.000326147
-9.08136e-05
-8.8807e-05
0.000338695
0.000442461
-5.68276e-06
0.00044232
-6.87867e-06
0.000442087
-8.04475e-06
0.000441749
-9.04678e-06
0.000441306
-9.75337e-06
0.000440675
-1.00424e-05
0.000439852
-9.80142e-06
0.000438799
-8.93853e-06
0.000437421
-7.37359e-06
0.000435714
-5.06116e-06
0.000433604
-1.98157e-06
0.000431061
1.85446e-06
0.000428079
6.40386e-06
0.000424645
1.154e-05
0.000420693
1.7191e-05
0.000416202
2.31984e-05
0.000411216
2.93618e-05
0.000405713
3.54595e-05
0.000399713
4.12744e-05
0.00039326
4.65889e-05
0.000386377
5.12128e-05
0.000379105
5.49782e-05
0.000371478
5.77422e-05
0.000363589
5.94089e-05
0.000355495
5.9917e-05
0.000347264
5.92337e-05
0.000339005
5.73889e-05
0.000330787
5.44148e-05
0.000322695
5.03839e-05
0.000314814
4.53788e-05
0.000307228
3.95114e-05
0.000300008
3.28886e-05
0.00029321
2.56301e-05
0.000286891
1.78527e-05
0.00028111
9.67941e-06
0.000275891
1.22519e-06
0.000271305
-7.40314e-06
0.000267371
-1.61147e-05
0.000264129
-2.48109e-05
0.000261631
-3.34133e-05
0.000259929
-4.18471e-05
0.000259081
-5.00491e-05
0.000259145
-5.79545e-05
0.000260207
-6.55122e-05
0.00026237
-7.26644e-05
0.000265708
-7.93461e-05
0.000270322
-8.55084e-05
0.000276294
-9.10527e-05
0.000283706
-9.58855e-05
0.000292591
-9.98741e-05
0.000302952
-0.000102848
0.000314699
-0.0001046
0.000327703
-0.000104887
-0.00010347
0.000341748
0.000441081
-5.20641e-07
0.000440981
-2.09688e-06
0.000440896
-3.69444e-06
0.00044084
-5.15933e-06
0.000440729
-6.34187e-06
0.000440563
-7.10717e-06
0.000440283
-7.3255e-06
0.000439807
-6.88556e-06
0.000439083
-5.69262e-06
0.000438012
-3.67693e-06
0.000436566
-7.9602e-07
0.000434654
2.94851e-06
0.000432184
7.51725e-06
0.000429202
1.2821e-05
0.000425591
1.87782e-05
0.000421306
2.52103e-05
0.000416296
3.19241e-05
0.000410627
3.86813e-05
0.000404283
4.51985e-05
0.000397295
5.12576e-05
0.000389746
5.66027e-05
0.000381666
6.10392e-05
0.000373151
6.44041e-05
0.000364283
6.65634e-05
0.00035517
6.74396e-05
0.000345915
6.70059e-05
0.000336639
6.52682e-05
0.000327455
6.22744e-05
0.000318461
5.81004e-05
0.000309754
5.28451e-05
0.000301432
4.6628e-05
0.000293575
3.95691e-05
0.000286244
3.17999e-05
0.000279499
2.34442e-05
0.000273384
1.46298e-05
0.000267944
5.47422e-06
0.000263221
-3.91332e-06
0.00025923
-1.34303e-05
0.000256018
-2.2996e-05
0.000253619
-3.25269e-05
0.000252086
-4.195e-05
0.00025147
-5.12112e-05
0.000251821
-6.02486e-05
0.000253239
-6.90117e-05
0.000255805
-7.74431e-05
0.000259642
-8.54857e-05
0.000264828
-9.30566e-05
0.000271465
-0.000100076
0.000279667
-0.000106406
0.000289504
-0.000111906
0.000300982
-0.00011633
0.00031404
-0.000119417
0.000328571
-0.000120852
-0.000120271
0.000344276
0.000439378
4.70134e-06
0.00043927
2.65383e-06
0.000439328
5.33342e-07
0.000439518
-1.48495e-06
0.000439776
-3.23286e-06
0.000440094
-4.55738e-06
0.000440353
-5.31223e-06
0.000440524
-5.36587e-06
0.000440491
-4.60347e-06
0.000440179
-2.93642e-06
0.000439446
-3.00903e-07
0.000438249
3.33196e-06
0.00043649
7.93902e-06
0.000433984
1.34205e-05
0.000430847
1.97174e-05
0.000426833
2.66173e-05
0.000421951
3.39716e-05
0.00041612
4.14687e-05
0.000409437
4.88268e-05
0.000401942
5.57559e-05
0.000393646
6.19508e-05
0.000384681
6.72e-05
0.000375161
7.12747e-05
0.000365212
7.40284e-05
0.000354964
7.53616e-05
0.00034457
7.52388e-05
0.000334166
7.36538e-05
0.000323902
7.06701e-05
0.000313896
6.63673e-05
0.000304276
6.08658e-05
0.000295142
5.42909e-05
0.000286577
4.67821e-05
0.000278659
3.84825e-05
0.000271425
2.95282e-05
0.000264934
2.00512e-05
0.000259221
1.01744e-05
0.000254301
1.31756e-08
0.00025021
-1.03366e-05
0.000246972
-2.0793e-05
0.000244613
-3.12736e-05
0.00024319
-4.17212e-05
0.00024274
-5.20834e-05
0.000243319
-6.23079e-05
0.000245024
-7.23501e-05
0.000247948
-8.21609e-05
0.000252202
-9.1688e-05
0.000257923
-0.000100847
0.000265218
-0.000109532
0.000274218
-0.000117617
0.00028501
-0.000124904
0.00029764
-0.000131085
0.000312069
-0.000135827
0.000328141
-0.000138694
-0.000139197
0.000345591
0.000437235
9.99872e-06
0.000437111
7.37041e-06
0.000437267
4.61783e-06
0.000437702
1.93423e-06
0.000438349
-4.74538e-07
0.000439135
-2.45817e-06
0.000440028
-3.84106e-06
0.000440881
-4.47125e-06
0.000441645
-4.21331e-06
0.000442142
-2.95144e-06
0.000442285
-6.00543e-07
0.000441949
2.88758e-06
0.000440918
7.50566e-06
0.00043921
1.32326e-05
0.00043658
1.98862e-05
0.000432938
2.73771e-05
0.000428152
3.54397e-05
0.000422247
4.38538e-05
0.00041529
5.21497e-05
0.000407186
6.01045e-05
0.000398133
6.73144e-05
0.000388239
7.35239e-05
0.000377594
7.84441e-05
0.000366447
8.19151e-05
0.000354938
8.38003e-05
0.000343259
8.40451e-05
0.000331604
8.26554e-05
0.000320133
7.97036e-05
0.000309014
7.52723e-05
0.000298385
6.95097e-05
0.000288342
6.25523e-05
0.000278998
5.45647e-05
0.000270411
4.57031e-05
0.000262641
3.61155e-05
0.00025572
2.59467e-05
0.000249674
1.53218e-05
0.000244523
4.35967e-06
0.000240278
-6.84573e-06
0.000236962
-1.82127e-05
0.000234582
-2.96597e-05
0.000233199
-4.11561e-05
0.000232837
-5.26488e-05
0.000233562
-6.41028e-05
0.000235466
-7.54829e-05
0.000238662
-8.67595e-05
0.000243264
-9.78845e-05
0.000249414
-0.000108777
0.00025729
-0.000119345
0.000267037
-0.000129413
0.000278717
-0.00013873
0.000292408
-0.000146981
0.000308033
-0.000153562
0.000325403
-0.000158076
-0.000159901
0.000344256
0.000434573
1.53902e-05
0.000434379
1.20468e-05
0.000434654
8.53167e-06
0.000435302
5.07007e-06
0.000436321
1.8644e-06
0.000437672
-8.88672e-07
0.000439175
-3.00675e-06
0.000440845
-4.3125e-06
0.000442449
-4.64411e-06
0.000443904
-3.86009e-06
0.00044505
-1.84556e-06
0.000445669
1.45798e-06
0.000445656
6.12705e-06
0.000444716
1.2085e-05
0.000442703
1.92115e-05
0.000439556
2.73646e-05
0.000435192
3.62815e-05
0.000429273
4.5693e-05
0.000421926
5.52124e-05
0.000413281
6.43589e-05
0.000403389
7.27918e-05
0.000392444
8.01213e-05
0.000380625
8.60687e-05
0.000368084
9.03873e-05
0.00035513
9.29002e-05
0.000342003
9.35834e-05
0.000328934
9.24184e-05
0.000316125
8.94985e-05
0.000303758
8.49198e-05
0.000291999
7.88594e-05
0.000280975
7.14724e-05
0.00027078
6.29587e-05
0.000261476
5.34809e-05
0.00025311
4.32157e-05
0.000245708
3.23087e-05
0.000239293
2.09011e-05
0.000233863
9.10744e-06
0.000229397
-2.96363e-06
0.000225948
-1.52556e-05
0.000223479
-2.77e-05
0.000222062
-4.02497e-05
0.000221702
-5.28882e-05
0.000222476
-6.55968e-05
0.000224479
-7.8356e-05
0.000227829
-9.11635e-05
0.000232652
-0.000103973
0.000239119
-0.000116731
0.000247426
-0.000129345
0.000257725
-0.000141607
0.000270107
-0.000153139
0.000284501
-0.00016357
0.000300762
-0.000171988
0.000318717
-0.000178254
-0.000181204
0.000337808
0.000431223
2.08826e-05
0.000430945
1.6673e-05
0.000431281
1.22494e-05
0.000432182
7.85677e-06
0.000433633
3.72206e-06
0.000435505
6.12608e-08
0.000437777
-2.919e-06
0.000440265
-5.01776e-06
0.000442875
-6.04595e-06
0.000445394
-5.82844e-06
0.000447641
-4.21952e-06
0.000449479
-1.11751e-06
0.000450525
3.57461e-06
0.000450705
9.80808e-06
0.000449565
1.74939e-05
0.000447123
2.64593e-05
0.000443022
3.64194e-05
0.000437163
4.70532e-05
0.000429601
5.79231e-05
0.000420371
6.85904e-05
0.000409602
7.8437e-05
0.000397447
8.71579e-05
0.000384223
9.42902e-05
0.000370164
9.95956e-05
0.000355603
0.000102864
0.000340831
0.000104039
0.000326156
0.000103119
0.000311837
0.00010021
0.000298095
9.54376e-05
0.000285102
8.90123e-05
0.000272994
8.11245e-05
0.00026187
7.20045e-05
0.000251787
6.18379e-05
0.000242777
5.08288e-05
0.000234858
3.91283e-05
0.000228033
2.68954e-05
0.00022227
1.42419e-05
0.000217564
1.27369e-06
0.000213915
-1.19544e-05
0.000211293
-2.53878e-05
0.000209758
-3.89918e-05
0.000209309
-5.27748e-05
0.000210022
-6.67429e-05
0.000211996
-8.08982e-05
0.000215347
-9.52698e-05
0.000220225
-0.000109823
0.00022683
-0.00012454
0.000235342
-0.00013929
0.000245833
-0.000153819
0.000258383
-0.000167538
0.00027277
-0.00018004
0.000288511
-0.000190002
0.000305413
-0.000197672
-0.000201673
0.000323096
0.000427035
2.64988e-05
0.000426664
2.12361e-05
0.000427048
1.573e-05
0.000428205
1.02399e-05
0.000430085
5.01398e-06
0.000432577
2.9218e-07
0.000435632
-3.70053e-06
0.000439122
-6.73217e-06
0.000442788
-8.58898e-06
0.000446566
-9.04931e-06
0.000450158
-7.90797e-06
0.000453351
-5.10761e-06
0.000455851
-3.78133e-07
0.000457166
6.17899e-06
0.000457147
1.45584e-05
0.000455383
2.44539e-05
0.000451924
3.57078e-05
0.000446253
4.78194e-05
0.000438525
6.03907e-05
0.000428611
7.281e-05
0.000416829
8.44302e-05
0.000403405
9.47915e-05
0.000388549
0.00010334
0.000372717
0.000109807
0.000356298
0.000113947
0.000339674
0.000115661
0.000323215
0.000114975
0.000307219
0.000112023
0.000291936
0.000106978
0.000277583
0.000100078
0.000264309
9.15791e-05
0.00025219
8.17397e-05
0.000241286
7.07858e-05
0.000231601
5.89446e-05
0.00022313
4.63841e-05
0.00021586
3.32732e-05
0.00020974
1.97264e-05
0.000204747
5.84753e-06
0.000200847
-8.32573e-06
0.000198015
-2.27291e-05
0.000196278
-3.73738e-05
0.000195638
-5.22782e-05
0.00019617
-6.74859e-05
0.000197964
-8.30229e-05
0.000201144
-9.89537e-05
0.000205873
-0.000115266
0.000212342
-0.000131954
0.000220677
-0.000148806
0.000230768
-0.000165436
0.000242606
-0.000180891
0.000255645
-0.000195099
0.00026894
-0.000205724
0.000283085
-0.000215047
-0.000220867
0.000298199
0.000421875
3.22419e-05
0.000421334
2.573e-05
0.000421768
1.89273e-05
0.000423202
1.21564e-05
0.000425552
5.65371e-06
0.000428729
-3.04963e-07
0.00043268
-5.48882e-06
0.000437173
-9.60806e-06
0.000442162
-1.24806e-05
0.00044737
-1.37539e-05
0.000452458
-1.327e-05
0.000457329
-1.06784e-05
0.000461207
-6.03862e-06
0.000464091
9.74754e-07
0.000465376
1.01304e-05
0.000464719
2.1228e-05
0.000462042
3.39612e-05
0.000456792
4.79465e-05
0.000448832
6.25292e-05
0.00043826
7.71814e-05
0.000425349
9.08506e-05
0.000410364
0.000103266
0.000393743
0.000113479
0.000375924
0.000121331
0.000357378
0.000126462
0.000338591
0.000128755
0.000320053
0.000128278
0.000302152
0.000125187
0.000285166
0.000119728
0.000269325
0.000112198
0.000254782
0.000102924
0.000241611
9.22114e-05
0.000229843
8.03373e-05
0.000219468
6.75476e-05
0.000210444
5.40444e-05
0.000202726
3.99914e-05
0.000196249
2.55192e-05
0.000190941
1.07076e-05
0.000186749
-4.38488e-06
0.000183647
-1.97428e-05
0.000181637
-3.53875e-05
0.000180704
-5.13713e-05
0.000180931
-6.77639e-05
0.000182381
-8.46315e-05
0.000185193
-0.000102069
0.000189509
-0.000120087
0.00019545
-0.000138616
0.000202993
-0.000157307
0.000211924
-0.000175459
0.000221538
-0.000192089
0.000231278
-0.000207023
0.000240956
-0.000218433
0.000253059
-0.000234013
-0.000254694
0.000274766
0.000415495
3.81078e-05
0.000414755
3.01275e-05
0.00041527
2.17934e-05
0.00041699
1.35378e-05
0.000419835
5.54137e-06
0.000423785
-1.8438e-06
0.000428628
-8.42621e-06
0.000434376
-1.38767e-05
0.000440703
-1.78787e-05
0.000447461
-2.01208e-05
0.000454453
-2.04057e-05
0.000460772
-1.82851e-05
0.000466799
-1.35641e-05
0.000471396
-6.15445e-06
0.000474349
3.9272e-06
0.000475058
1.6498e-05
0.000473295
3.0994e-05
0.000468346
4.71849e-05
0.0004605
6.43859e-05
0.000449179
8.14906e-05
0.000435103
9.79979e-05
0.000418468
0.000112683
0.00039967
0.000125073
0.000379528
0.000134468
0.000358596
0.00014071
0.000337426
0.000143658
0.000316578
0.000143313
0.000296538
0.000139931
0.000277671
0.000133856
0.000260221
0.000125483
0.000244337
0.000115219
0.000230072
0.000103438
0.000217427
9.04719e-05
0.000206356
7.66011e-05
0.000196779
6.20518e-05
0.000188615
4.69912e-05
0.000181769
3.15547e-05
0.00017614
1.58162e-05
0.000171637
-1.77122e-07
0.000168223
-1.64539e-05
0.00016587
-3.30401e-05
0.000164558
-5.00186e-05
0.000164347
-6.75114e-05
0.000165279
-8.56157e-05
0.000167494
-0.00010444
0.000171057
-0.000123984
0.000175917
-0.000144012
0.000181908
-0.000163912
0.000188233
-0.000182889
0.000194058
-0.000199422
0.000199322
-0.000215688
0.000207675
-0.000234359
0.000232717
-0.000277264
-0.000347031
0.000266491
0.000407702
4.40857e-05
0.000406705
3.4407e-05
0.000407323
2.426e-05
0.000409331
1.43257e-05
0.000412765
4.56643e-06
0.000417489
-4.45318e-06
0.000423377
-1.26597e-05
0.000430422
-1.95765e-05
0.000438228
-2.49499e-05
0.00044667
-2.83746e-05
0.00045541
-2.95298e-05
0.000463971
-2.78208e-05
0.000471714
-2.32538e-05
0.000478186
-1.53178e-05
0.000482707
-4.24328e-06
0.000484876
9.99224e-06
0.000484167
2.669e-05
0.000480245
4.5484e-05
0.00047224
6.57079e-05
0.000460578
8.59377e-05
0.000445228
0.000105769
0.000426809
0.000123317
0.00040601
0.000138213
0.000383361
0.000149565
0.000359687
0.000157103
0.000335771
0.000160691
0.000312315
0.000160401
0.000289912
0.000156541
0.000269001
0.00014958
0.000249857
0.000140054
0.000232605
0.000128506
0.00021726
0.000115403
0.000203778
0.000101137
0.000192069
8.60278e-05
0.000181998
7.03199e-05
0.000173443
5.41861e-05
0.000166271
3.77615e-05
0.000160329
2.10965e-05
0.000155543
4.23509e-06
0.000151804
-1.29119e-05
0.000149063
-3.03357e-05
0.000147286
-4.82024e-05
0.000146517
-6.66677e-05
0.000146757
-8.58568e-05
0.000148092
-0.000105845
0.000150432
-0.000126532
0.000153548
-0.000147414
0.000156803
-0.000167776
0.000159075
-0.000186214
0.000160117
-0.000203216
0.000162957
-0.00022778
0.000184494
-0.000284645
0.000205023
-0.00036131
-0.000411862
0.000227512
0.000398094
5.02125e-05
0.000396872
3.84123e-05
0.000397782
2.63105e-05
0.000400003
1.43577e-05
0.000404122
2.73179e-06
0.000409708
-8.2798e-06
0.000416628
-1.82389e-05
0.000424936
-2.68971e-05
0.000434099
-3.36868e-05
0.000444231
-3.84489e-05
0.000454222
-4.03261e-05
0.000464429
-3.92488e-05
0.000473957
-3.46801e-05
0.000482162
-2.62616e-05
0.00048856
-1.42751e-05
0.000492192
1.72871e-06
0.000492853
2.07894e-05
0.00049012
4.23132e-05
0.000482242
6.62064e-05
0.00047025
9.07136e-05
0.000454092
0.000113654
0.000433944
0.000135169
0.000410928
0.000152915
0.000385853
0.000166541
0.000359561
0.000175641
0.000332943
0.000180011
0.000306809
0.000179749
0.000281948
0.000175169
0.000258911
0.000166999
0.000238019
0.000155974
0.000219403
0.000142794
0.000203036
0.000128063
0.000188804
0.00011225
0.000176546
9.5721e-05
0.000166078
7.87304e-05
0.000157212
6.14593e-05
0.000149775
4.4018e-05
0.000143592
2.64551e-05
0.000138526
8.76487e-06
0.000134446
-9.13197e-06
0.000131294
-2.73035e-05
0.000129008
-4.59333e-05
0.000127569
-6.51917e-05
0.000126943
-8.52154e-05
0.000127043
-0.000105966
0.000127562
-0.000127132
0.000128006
-0.000148126
0.000127186
-0.000167561
0.000124033
-0.000185299
0.000122175
-0.000211233
0.000133015
-0.000274134
0.000133688
-0.00035281
0.000132028
-0.00039594
-0.000424881
0.000128803
0.000386476
5.63734e-05
0.000385062
4.22081e-05
0.000386083
2.79222e-05
0.000388803
1.3576e-05
0.000393477
-1.8652e-07
0.000399955
-1.33121e-05
0.000407879
-2.51704e-05
0.000417319
-3.57104e-05
0.000427409
-4.38335e-05
0.000438475
-4.96246e-05
0.000449346
-5.20981e-05
0.000460049
-5.13731e-05
0.000469541
-4.64313e-05
0.000478787
-3.80101e-05
0.000486367
-2.54046e-05
0.00049215
-8.008e-06
0.000495097
1.3024e-05
0.000493457
3.80127e-05
0.000487301
6.54904e-05
0.000474578
9.48469e-05
0.000457333
0.000122779
0.000436214
0.000147719
0.000411745
0.000168776
0.000384711
0.000184917
0.000356155
0.000195959
0.000327099
0.000201343
0.000298561
0.00020109
0.000271438
0.000195688
0.000246476
0.000185987
0.000224055
0.000173081
0.000204277
0.000157907
0.000187073
0.000141228
0.000172265
0.000123619
0.000159626
0.000105494
0.000148909
8.71113e-05
0.000139871
6.86475e-05
0.000132285
5.01888e-05
0.000125944
3.17606e-05
0.000120673
1.3318e-05
0.000116296
-5.21236e-06
0.000112755
-2.40123e-05
0.000109932
-4.32264e-05
0.000107732
-6.30374e-05
0.000106009
-8.34904e-05
0.000104361
-0.000104353
0.000102355
-0.000125199
9.89367e-05
-0.000145041
9.2445e-05
-0.000162696
8.49882e-05
-0.00018647
8.17312e-05
-0.000247734
6.55414e-05
-0.000320401
4.48367e-05
-0.000358475
2.79488e-05
-0.000388648
-0.000418957
1.65943e-05
0.000372472
6.23838e-05
0.000371184
4.56649e-05
0.000372078
2.87598e-05
0.000375291
1.20751e-05
0.000380588
-4.10238e-06
0.000387799
-1.95363e-05
0.000396333
-3.32991e-05
0.000406335
-4.53094e-05
0.000416444
-5.4331e-05
0.000426985
-6.04889e-05
0.000436615
-6.3098e-05
0.000446091
-6.1586e-05
0.00045492
-5.65664e-05
0.000464133
-4.89652e-05
0.000474658
-3.57802e-05
0.00048715