/*--------------------------------*- C++ -*----------------------------------*\
  =========                 |
  \\      /  F ield         | OpenFOAM: The Open Source CFD Toolbox
   \\    /   O peration     | Website:  https://openfoam.org
    \\  /    A nd           | Version:  10
     \\/     M anipulation  |
\*---------------------------------------------------------------------------*/
FoamFile
{
    format      ascii;
    class       volScalarField;
    location    "0.350779";
    object      rho;
}
// * * * * * * * * * * * * * * * * * * * * * * * * * * * * * * * * * * * * * //

dimensions      [1 -3 0 0 0 0 0];

internalField   nonuniform List<scalar> 
15984
(
1.004
1.00036
0.997425
0.99487
0.992967
0.991576
0.990509
0.989948
0.989545
0.989332
0.989158
0.988813
0.988376
0.987542
0.986381
0.984836
0.983043
0.980713
0.978325
0.975548
0.972803
0.969871
0.967126
0.964205
0.961795
0.95941
0.957543
0.955941
0.954924
0.954402
0.954416
0.955024
0.956277
0.95823
0.960854
0.964172
0.968032
0.972571
0.977456
0.982653
0.988357
0.993707
0.999396
1.00478
1.00984
1.01454
1.01878
1.02233
1.02566
1.02783
1.03014
1.03124
1.03229
1.03259
1.00371
0.999827
0.996686
0.993904
0.991734
0.990119
0.988911
0.988131
0.987756
0.987559
0.987387
0.987223
0.986863
0.986249
0.98541
0.984099
0.982455
0.980572
0.978257
0.975928
0.973105
0.970673
0.967784
0.965358
0.962808
0.960663
0.958824
0.957254
0.956301
0.955714
0.955737
0.956262
0.957384
0.959171
0.961703
0.964674
0.968547
0.972577
0.977501
0.982381
0.987789
0.993215
0.998689
1.00395
1.00909
1.01373
1.01797
1.02169
1.02487
1.0274
1.02945
1.03084
1.03174
1.03207
1.00322
0.999329
0.995833
0.992909
0.990454
0.988596
0.987312
0.986301
0.98589
0.985655
0.985512
0.985421
0.985248
0.984836
0.984152
0.983204
0.981772
0.980203
0.9782
0.97607
0.973656
0.971265
0.968742
0.966344
0.964146
0.962008
0.9603
0.958916
0.957869
0.95743
0.957323
0.957818
0.958905
0.960547
0.962795
0.965754
0.969117
0.973233
0.977468
0.982485
0.987391
0.992765
0.997906
1.0032
1.00806
1.01283
1.01695
1.02079
1.0239
1.02656
1.02865
1.03
1.03103
1.03131
1.00275
0.998753
0.994989
0.991915
0.989229
0.987165
0.985615
0.984627
0.983924
0.983699
0.983547
0.983513
0.983457
0.983208
0.982799
0.98205
0.981033
0.979614
0.977994
0.976174
0.973929
0.97197
0.969613
0.967512
0.965396
0.963579
0.961988
0.960645
0.959814
0.959282
0.959286
0.959716
0.960684
0.962198
0.964376
0.966942
0.970252
0.973819
0.978056
0.982371
0.987331
0.99219
0.997306
1.00221
1.00719
1.01158
1.0159
1.01956
1.02279
1.02543
1.0276
1.029
1.03001
1.0305
1.00237
0.998082
0.994244
0.990853
0.98807
0.985722
0.984018
0.98285
0.982015
0.981634
0.981561
0.981508
0.981503
0.981455
0.981193
0.980791
0.979949
0.97897
0.977644
0.976069
0.97438
0.97237
0.970592
0.968633
0.966828
0.965164
0.963774
0.96265
0.961864
0.961488
0.961477
0.961874
0.962786
0.964214
0.966095
0.968555
0.971479
0.974811
0.978635
0.982775
0.987227
0.991874
0.996606
1.00141
1.00602
1.0104
1.01461
1.01816
1.02146
1.02423
1.0262
1.02789
1.02883
1.02937
1.00194
0.997396
0.993499
0.989874
0.9869
0.984413
0.982394
0.981061
0.980093
0.979623
0.97937
0.979383
0.97943
0.979518
0.979465
0.979225
0.978784
0.978102
0.977055
0.97593
0.974436
0.973002
0.971299
0.969778
0.968256
0.966823
0.965684
0.964743
0.964142
0.963854
0.963875
0.964298
0.965143
0.96644
0.968225
0.970358
0.973069
0.976068
0.979497
0.983325
0.987352
0.991637
0.996133
1.00051
1.00502
1.00909
1.0132
1.01677
1.01994
1.02273
1.02471
1.02664
1.02734
1.02813
1.00129
0.99686
0.992623
0.988998
0.985756
0.983069
0.980868
0.979235
0.978243
0.977443
0.977228
0.977206
0.977259
0.977413
0.97755
0.977533
0.977416
0.97698
0.976413
0.975529
0.974505
0.973349
0.972087
0.970839
0.969624
0.968615
0.967644
0.966975
0.966503
0.966348
0.966513
0.966912
0.967762
0.968932
0.970507
0.97252
0.974761
0.977613
0.980632
0.984031
0.987727
0.991658
0.99567
0.999833
1.00394
1.0079
1.01181
1.01514
1.0185
1.02095
1.02339
1.02485
1.0261
1.02671
1.00071
0.996196
0.991872
0.988034
0.984673
0.981753
0.979373
0.977557
0.976282
0.975413
0.975063
0.974923
0.975039
0.975219
0.975522
0.975765
0.975729
0.975784
0.975449
0.974996
0.974355
0.973563
0.972808
0.971831
0.971073
0.970311
0.969678
0.969273
0.968982
0.969022
0.96924
0.969704
0.970542
0.971621
0.97305
0.974832
0.976889
0.979311
0.981992
0.985056
0.988304
0.991816
0.995467
0.999274
1.00297
1.00681
1.01032
1.01373
1.01676
1.01936
1.02158
1.0233
1.02448
1.02507
1.00022
0.995463
0.991107
0.987223
0.983583
0.980556
0.97797
0.975973
0.974388
0.973489
0.972831
0.972675
0.97276
0.972916
0.973385
0.973685
0.974021
0.97427
0.97427
0.974261
0.974031
0.973709
0.973268
0.972834
0.972428
0.971946
0.97171
0.971608
0.971593
0.971739
0.972114
0.972663
0.973442
0.974486
0.975811
0.977325
0.979191
0.981272
0.983611
0.986244
0.989135
0.992215
0.995486
0.998831
1.00232
1.00572
1.00908
1.01225
1.01507
1.01771
1.01986
1.02153
1.02273
1.02342
0.999494
0.994856
0.990383
0.986283
0.98277
0.979338
0.976729
0.974393
0.972709
0.971442
0.97074
0.970392
0.970382
0.970623
0.970991
0.971556
0.972128
0.972449
0.973163
0.973243
0.973536
0.973658
0.973646
0.973661
0.973645
0.97367
0.973746
0.973909
0.974168
0.974536
0.975034
0.975709
0.97652
0.977484
0.978666
0.980013
0.981596
0.983444
0.985454
0.987705
0.990195
0.992902
0.99571
0.998742
1.00176
1.00492
1.00789
1.01086
1.01361
1.01597
1.0181
1.01975
1.02093
1.02162
0.998784
0.994147
0.989754
0.985569
0.981766
0.978426
0.975363
0.973005
0.971037
0.969568
0.968679
0.968093
0.968041
0.968199
0.96866
0.969257
0.969913
0.970778
0.971447
0.972176
0.972798
0.973408
0.973885
0.974308
0.974807
0.975199
0.975689
0.976214
0.976773
0.977381
0.978052
0.978795
0.979653
0.980566
0.981639
0.982847
0.984187
0.985776
0.987507
0.989394
0.991517
0.993806
0.996281
0.998836
1.00155
1.00426
1.00704
1.00964
1.01215
1.01441
1.01635
1.01797
1.019
1.01972
0.998068
0.993583
0.989013
0.9849
0.980986
0.977418
0.974347
0.971692
0.969514
0.96788
0.96662
0.966058
0.965672
0.965811
0.966157
0.966819
0.967737
0.968598
0.969821
0.970756
0.971897
0.972897
0.973916
0.974863
0.975798
0.976677
0.977563
0.978431
0.979339
0.980169
0.981043
0.981884
0.982811
0.983702
0.984726
0.985744
0.986955
0.988285
0.989738
0.991345
0.993077
0.99504
0.997081
0.999297
1.0016
1.00397
1.00637
1.00871
1.0109
1.01296
1.01475
1.01613
1.01713
1.01774
0.997434
0.992996
0.988347
0.984356
0.980209
0.976716
0.973366
0.970532
0.968131
0.966202
0.964834
0.963787
0.963492
0.963368
0.963635
0.9644
0.965272
0.966611
0.967728
0.969341
0.970759
0.972255
0.973678
0.975206
0.97657
0.978008
0.979302
0.980593
0.981775
0.982899
0.98397
0.984973
0.98594
0.986911
0.987785
0.988798
0.98977
0.990927
0.992126
0.993465
0.994869
0.99651
0.998194
1.00004
1.00197
1.004
1.00602
1.00804
1.00989
1.01179
1.01315
1.01442
1.01516
1.01547
0.996834
0.992305
0.987925
0.983662
0.979736
0.975972
0.972549
0.969588
0.966824
0.964867
0.962917
0.962008
0.961177
0.961072
0.961323
0.961787
0.962798
0.963912
0.965656
0.967514
0.969163
0.971382
0.973227
0.975258
0.977231
0.979134
0.980912
0.98263
0.984134
0.985609
0.986881
0.988007
0.989096
0.990012
0.990978
0.991802
0.992749
0.993643
0.994692
0.995751
0.996902
0.998228
0.999605
1.00108
1.00267
1.00438
1.00603
1.00769
1.00923
1.01068
1.01182
1.01264
1.01303
1.01305
0.996186
0.991808
0.987422
0.983385
0.979154
0.975509
0.971948
0.96862
0.966022
0.963284
0.961649
0.959944
0.95927
0.958722
0.958713
0.959096
0.959855
0.961812
0.963148
0.965298
0.967604
0.970024
0.972699
0.975235
0.977636
0.980076
0.982301
0.984498
0.98636
0.988125
0.989597
0.990987
0.992131
0.993179
0.994063
0.994893
0.995724
0.996436
0.997336
0.998178
0.999146
1.00017
1.00128
1.00243
1.00374
1.00509
1.00639
1.00768
1.00889
1.00989
1.01062
1.01074
1.01079
1.01083
0.995571
0.991242
0.987122
0.982928
0.978948
0.975133
0.97137
0.968197
0.964886
0.962507
0.959889
0.958483
0.956993
0.956479
0.956291
0.956587
0.957391
0.958523
0.960667
0.962848
0.965798
0.968581
0.971724
0.974834
0.977861
0.980845
0.983528
0.986148
0.988404
0.990529
0.992247
0.993833
0.995089
0.996227
0.997096
0.997961
0.99871
0.999354
1.00009
1.00074
1.00152
1.00232
1.00321
1.00408
1.00515
1.0061
1.0071
1.00802
1.0089
1.00914
1.0095
1.00881
1.00925
1.00982
0.994809
0.990855
0.986859
0.98271
0.978817
0.974881
0.97114
0.967662
0.964511
0.961255
0.95908
0.956683
0.955479
0.95429
0.953701
0.953794
0.954119
0.955797
0.9575
0.960598
0.963177
0.966975
0.970433
0.974079
0.977662
0.981177
0.984464
0.987584
0.990281
0.992686
0.994735
0.996547
0.99794
0.999237
1.00011
1.00099
1.00166
1.00227
1.00288
1.0034
1.00403
1.00462
1.00534
1.00599
1.0068
1.00743
1.00814
1.00866
1.00914
1.00824
1.0085
1.00787
1.01092
1.01622
0.994269
0.99056
0.986599
0.982701
0.978785
0.974923
0.971087
0.967582
0.963841
0.961008
0.957856
0.955827
0.953507
0.951916
0.950893
0.950742
0.951301
0.952641
0.954726
0.957488
0.960893
0.9647
0.968856
0.973192
0.977429
0.981433
0.985195
0.98872
0.991906
0.99464
0.997004
0.998992
1.00061
1.00194
1.003
1.00385
1.00459
1.00514
1.00566
1.0061
1.00662
1.00705
1.00763
1.00812
1.00869
1.00908
1.00944
1.00949
1.00903
1.00796
1.00932
1.00979
1.0307
1.05191
0.99388
0.990267
0.986556
0.982828
0.97901
0.975045
0.971454
0.967145
0.964403
0.959603
0.957905
0.953837
0.952008
0.949509
0.948474
0.947907
0.948144
0.949537
0.950648
0.955014
0.957266
0.962781
0.96677
0.971597
0.976575
0.981375
0.985803
0.989834
0.993457
0.996588
0.999278
1.0015
1.0033
1.00475
1.00588
1.00672
1.00746
1.00797
1.00845
1.0088
1.00922
1.00957
1.01004
1.01034
1.01072
1.01095
1.01088
1.01011
1.00906
1.00899
1.01817
1.0324
1.11555
1.29325
0.993549
0.990268
0.986438
0.983309
0.97916
0.975809
0.971441
0.968074
0.963732
0.960286
0.956314
0.95365
0.950147
0.947758
0.94544
0.944142
0.944231
0.944828
0.94717
0.949701
0.954318
0.958565
0.96437
0.970016
0.97553
0.980843
0.98584
0.990372
0.994424
0.997972
1.00104
1.00357
1.00559
1.00719
1.00847
1.00935
1.01016
1.01065
1.01114
1.01145
1.01184
1.01211
1.01251
1.01267
1.01288
1.01284
1.01198
1.01061
1.01144
1.01607
1.05572
1.14976
1.45689
1.76884
0.992582
0.990596
0.986219
0.984567
0.979079
0.977322
0.971612
0.969302
0.963232
0.960915
0.955532
0.951699
0.948715
0.945373
0.943449
0.941482
0.940889
0.94097
0.943982
0.944284
0.950581
0.954687
0.960534
0.966964
0.973563
0.979912
0.985744
0.990938
0.9955
0.999402
1.00272
1.00551
1.00776
1.00955
1.01092
1.01194
1.0127
1.01329
1.01372
1.014
1.01436
1.01462
1.01492
1.01499
1.015
1.0144
1.01263
1.01319
1.01937
1.05695
1.19662
1.60643
1.84688
1.94735
0.992554
0.99073
0.986224
0.985252
0.979889
0.978203
0.972384
0.970032
0.963653
0.961055
0.95471
0.952926
0.946124
0.944644
0.942284
0.941311
0.942257
0.94283
0.941395
0.947581
0.946218
0.950694
0.957316
0.964007
0.97095
0.978076
0.984871
0.990864
0.996028
1.00051
1.00426
1.00734
1.00977
1.0117
1.01316
1.01428
1.01509
1.01571
1.01612
1.01645
1.01676
1.01709
1.01714
1.01727
1.01675
1.01488
1.01536
1.01995
1.05579
1.21966
1.66334
1.92414
1.99725
1.99804
0.99279
0.991234
0.987298
0.985685
0.980806
0.979088
0.973153
0.970805
0.964118
0.962173
0.954917
0.955751
0.94742
0.955644
0.95328
0.970296
0.984069
0.979316
0.989524
0.965027
0.967094
0.964052
0.957744
0.960572
0.967921
0.975866
0.983424
0.99037
0.996276
1.00125
1.00543
1.00882
1.01148
1.0136
1.01516
1.01636
1.0172
1.01789
1.01834
1.01867
1.01902
1.01924
1.01935
1.01896
1.01724
1.01745
1.02035
1.04874
1.20565
1.6893
1.96287
2.01785
2.01787
2.00548
0.993204
0.991346
0.988624
0.986217
0.98285
0.979817
0.974876
0.971797
0.965825
0.965804
0.960776
0.965305
0.982909
1.02768
1.0719
1.16228
1.24291
1.24859
1.20561
1.24502
1.05214
0.993328
0.984428
0.973421
0.969385
0.973919
0.981657
0.989304
0.995971
1.0016
1.00624
1.00998
1.0129
1.01518
1.01685
1.01813
1.01909
1.01977
1.02029
1.02072
1.021
1.02121
1.02101
1.01946
1.01931
1.02126
1.04035
1.16764
1.66602
1.97904
2.03274
2.03382
2.02611
2.01143
0.993444
0.99189
0.989479
0.987358
0.984042
0.981023
0.976142
0.975992
0.969317
0.981829
0.993901
1.06808
1.21424
1.39871
1.54337
1.64166
1.6986
1.68679
1.6723
1.55181
1.59843
1.30459
1.04512
0.980167
0.970711
0.974195
0.98064
0.988287
0.995535
1.00175
1.00684
1.01091
1.01408
1.01652
1.01826
1.01968
1.02072
1.02146
1.02209
1.02242
1.02274
1.02274
1.02127
1.021
1.02248
1.03457
1.12644
1.57955
1.97279
2.04188
2.04583
2.04116
2.03265
2.02139
0.993874
0.9927
0.990535
0.988556
0.985136
0.983354
0.978115
0.990932
0.989431
1.08401
1.28857
1.52962
1.69355
1.77791
1.81108
1.81303
1.80129
1.78839
1.77885
1.72447
1.73916
1.56478
1.35646
1.09941
0.998625
0.974135
0.978356
0.986786
0.994811
1.00166
1.00722
1.01162
1.01501
1.01757
1.01944
1.02089
1.02204
1.02282
1.02344
1.02389
1.02402
1.02273
1.02239
1.02358
1.03246
1.09484
1.44885
1.93794
2.04685
2.05422
2.05148
2.04535
2.03913
2.02924
0.994277
0.993515
0.991458
0.989484
0.986472
0.991428
0.988701
1.07051
1.24324
1.547
1.74949
1.83823
1.86053
1.85319
1.83396
1.81371
1.78413
1.73378
1.72249
1.70823
1.71926
1.65291
1.5716
1.21004
1.03578
0.985376
0.979297
0.985757
0.993998
1.00137
1.00734
1.01204
1.01561
1.01825
1.0202
1.0218
1.02301
1.02393
1.02459
1.02481
1.02413
1.02312
1.02445
1.03255
1.07634
1.33148
1.87111
2.04522
2.06029
2.0594
2.05516
2.05021
2.04335
2.0345
0.99509
0.993841
0.992591
0.990051
0.999156
1.01344
1.14838
1.48981
1.75654
1.87157
1.89725
1.89041
1.86968
1.84355
1.81487
1.76538
1.70029
1.56459
1.54507
1.5789
1.65375
1.65265
1.58889
1.32211
1.08461
0.999376
0.981089
0.985089
0.993273
1.00097
1.00729
1.01218
1.01587
1.01857
1.02072
1.02245
1.02377
1.02473
1.02522
1.02485
1.02348
1.025
1.03394
1.07316
1.25824
1.79543
2.03981
2.06425
2.06546
2.06314
2.05934
2.05403
2.04698
2.03877
0.995041
0.994223
0.994323
0.999331
1.04499
1.29454
1.6842
1.88023
1.92693
1.9223
1.90536
1.88239
1.85321
1.81417
1.75261
1.67643
1.53007
1.3353
1.31398
1.36258
1.53316
1.5967
1.55279
1.30252
1.07152
0.994055
0.978831
0.984006
0.99263
1.00064
1.00711
1.0121
1.01581
1.01866
1.02089
1.02278
1.02419
1.02504
1.0248
1.02374
1.02511
1.03534
1.09192
1.36452
1.87095
2.04095
2.06536
2.06919
2.06899
2.06654
2.06314
2.05864
2.05231
2.04435
0.995627
0.996213
1.00437
1.08013
1.50625
1.87273
1.94998
1.94837
1.93572
1.91788
1.89538
1.866
1.8245
1.76017
1.65751
1.51886
1.28184
1.11108
1.10998
1.19438
1.42819
1.54109
1.51933
1.27823
1.06721
0.986426
0.976147
0.982971
0.992169
1.00028
1.00677
1.01169
1.01544
1.01843
1.02092
1.02288
1.02417
1.02419
1.02366
1.02576
1.04247
1.12842
1.43877
1.87579
2.03021
2.06608
2.07243
2.07337
2.07269
2.07032
2.067
2.06289
2.05699
2.04959
0.9985
1.01887
1.31955
1.82791
1.9432
1.9644
1.9572
1.94576
1.92921
1.90814
1.88064
1.84011
1.77477
1.66787
1.50496
1.28164
1.05013
0.994886
1.02407
1.21434
1.42567
1.48759
1.39171
1.15152
1.00613
0.974402
0.973563
0.982543
0.992026
1.00004
1.00629
1.01106
1.0149
1.01815
1.02072
1.02255
1.02291
1.02307
1.02706
1.05593
1.17579
1.54688
1.8862
2.02316
2.06327
2.0729
2.07542
2.07582
2.07488
2.07299
2.0704
2.06662
2.06098
2.05457
1.47395
1.62417
1.87566
1.96996
1.97055
1.96257
1.95336
1.93881
1.91945
1.89439
1.85758
1.79772
1.69826
1.53697
1.30746
1.05626
0.968934
0.969835
1.09559
1.27681
1.39228
1.37972
1.21779
1.03089
0.974479
0.966481
0.972569
0.982654
0.992228
0.999766
1.0057
1.01038
1.01436
1.01767
1.02006
1.02088
1.02262
1.03199
1.08658
1.28812
1.68012
1.90758
2.02256
2.06031
2.07218
2.07642
2.07838
2.07801
2.07735
2.07556
2.07292
2.06956
2.06492
2.05963
1.88577
1.93714
1.96946
1.97227
1.96636
1.95835
1.9458
1.92879
1.90685
1.87601
1.82588
1.74267
1.60304
1.38766
1.11667
0.967912
0.950154
1.00526
1.13923
1.22881
1.26607
1.16877
1.03797
0.973675
0.959817
0.96353
0.973251
0.983676
0.992338
0.999354
1.00501
1.00969
1.01372
1.01654
1.01889
1.02281
1.04285
1.13578
1.44466
1.77797
1.93853
2.02686
2.05724
2.07071
2.0761
2.07943
2.08039
2.08032
2.07981
2.07823
2.07581
2.0725
2.06781
2.06256
1.96478
1.97097
1.97014
1.96721
1.95959
1.95001
1.93577
1.91685
1.89058
1.85016
1.78337
1.67246
1.49483
1.24206
1.00455
0.944876
0.949474
1.00842
1.068
1.09124
1.08268
1.01373
0.962399
0.953122
0.954741
0.964765
0.974757
0.984546
0.992397
0.998919
1.00434
1.00895
1.01252
1.01629
1.02251
1.05254
1.17949
1.56493
1.84502
1.9649
2.03175
2.05523
2.06855
2.07485
2.0791
2.08149
2.08245
2.08275
2.08227
2.08089
2.0786
2.07562
2.07165
2.06626
1.96747
1.96602
1.96447
1.95903
1.95108
1.93954
1.92374
1.90187
1.86899
1.8165
1.73116
1.59536
1.3931
1.13373
0.966012
0.934601
0.937537
0.969047
0.987048
0.99588
0.980226
0.947031
0.944644
0.946973
0.958095
0.966436
0.976863
0.985245
0.992457
0.998511
1.0036
1.00803
1.01272
1.02113
1.05663
1.20389
1.61811
1.88131
1.98572
2.03417
2.05407
2.06634
2.07311
2.07811
2.0814
2.08348
2.08455
2.08499
2.08462
2.08326
2.08085
2.07776
2.07395
2.06883
1.96045
1.95919
1.95544
1.94986
1.94042
1.9277
1.90952
1.88274
1.84112
1.77512
1.67253
1.51945
1.3102
1.06941
0.948262
0.927489
0.928294
0.939513
0.945711
0.948835
0.937502
0.937022
0.94046
0.952746
0.958678
0.970037
0.978268
0.985992
0.992497
0.998007
1.00306
1.0085
1.01801
1.05272
1.19312
1.61207
1.88492
1.99779
2.03196
2.05388
2.06302
2.0711
2.07668
2.08089
2.08368
2.08557
2.08684
2.08731
2.08697
2.08557
2.08319
2.07984
2.07574
2.07056
1.95236
1.95035
1.94601
1.9388
1.92875
1.91423
1.89262
1.85916
1.80699
1.72731
1.61101
1.44985
1.24695
1.03302
0.942442
0.92376
0.923076
0.926787
0.930708
0.932008
0.933247
0.936879
0.947956
0.952955
0.963922
0.972392
0.979669
0.986533
0.992236
0.99779
1.00377
1.01312
1.04242
1.15693
1.51533
1.85362
1.98953
2.03283
2.04926
2.06116
2.06855
2.07503
2.08002
2.08348
2.08619
2.08804
2.0893
2.08968
2.08921
2.08776
2.08522
2.08167
2.07743
2.07157
1.94322
1.94025
1.93501
1.92725
1.91616
1.89916
1.87271
1.83114
1.76764
1.67577
1.55089
1.39159
1.20496
1.01784
0.937469
0.923432
0.922122
0.924365
0.927944
0.931977
0.934676
0.943937
0.948825
0.959157
0.966711
0.974183
0.98057
0.98711
0.992552
0.998939
1.00746
1.02915
1.10545
1.34372
1.74774
1.95949
2.02519
2.0456
2.05775
2.06591
2.07298
2.07886
2.08305
2.08632
2.08891
2.09077
2.09186
2.09208
2.09145
2.08967
2.08701
2.08313
2.07786
2.07224
1.93322
1.9295
1.92359
1.9155
1.9028
1.88249
1.84975
1.79858
1.7228
1.61867
1.48682
1.33237
1.16488
1.00402
0.942366
0.92441
0.925344
0.926314
0.930981
0.934429
0.942101
0.946347
0.956053
0.960988
0.970169
0.974883
0.982459
0.987195
0.993675
1.00078
1.01403
1.05631
1.19223
1.54436
1.87373
2.00477
2.0387
2.05382
2.06312
2.07089
2.07729
2.08264
2.08648
2.08939
2.09187
2.09368
2.09443
2.0946
2.09354
2.09157
2.08856
2.08415
2.07839
2.07177
1.92271
1.9184
1.91263
1.90391
1.88955
1.86557
1.82642
1.76573
1.67843
1.56357
1.42719
1.27984
1.13374
1.00517
0.932964
0.932721
0.927271
0.931283
0.934457
0.940732
0.945157
0.952876
0.957159
0.965651
0.970907
0.977552
0.982793
0.988781
0.995815
1.00667
1.03236
1.10907
1.32411
1.71925
1.9566
2.0256
2.04814
2.05989
2.06857
2.07548
2.08116
2.08627
2.08952
2.09255
2.09501
2.09634
2.09715
2.09689
2.09562
2.09341
2.08994
2.08515
2.07844
2.07123
1.9122
1.90797
1.90224
1.89314
1.87762
1.85114
1.80639
1.7358
1.63539
1.50907
1.36809
1.22642
1.09534
0.984874
0.947572
0.930072
0.932788
0.933411
0.93876
0.942599
0.949883
0.954227
0.962234
0.966559
0.973339
0.978072
0.984404
0.991108
0.9997
1.01551
1.06355
1.19871
1.53576
1.90024
1.98324
2.04339
2.0549
2.06561
2.07354
2.07972
2.08535
2.08969
2.09241
2.09617
2.09752
2.09915
2.09922
2.09867
2.09734
2.09476
2.09052
2.08555
2.07798
2.07004
1.90243
1.89842
1.89301
1.88394
1.86804
1.84034
1.79386
1.71947
1.61117
1.47321
1.32121
1.18025
1.06792
0.986001
0.933041
0.940829
0.933902
0.938229
0.94133
0.947657
0.95139
0.95878
0.962266
0.969369
0.97426
0.980492
0.987321
0.995588
1.01099
1.05131
1.14259
1.41362
1.83059
1.93498
2.03067
2.04756
2.06146
2.07089
2.07731
2.08291
2.08892
2.09197
2.09606
2.09771
2.10006
2.10063
2.10074
2.09985
2.09837
2.09505
2.09112
2.08509
2.07721
2.06826
1.89364
1.89001
1.88541
1.87729
1.86258
1.83588
1.78904
1.71307
1.60263
1.46048
1.30182
1.14996
1.02777
0.96831
0.940402
0.939556
0.940247
0.939408
0.94497
0.947876
0.954621
0.958755
0.965719
0.971574
0.978075
0.985872
0.997509
1.01755
1.05672
1.13523
1.41739
1.71198
1.95636
1.99286
2.04186
2.05503
2.06658
2.07423
2.0804
2.08632
2.09071
2.09388
2.09748
2.09931
2.1008
2.10129
2.10102
2.10012
2.09827
2.09469
2.09068
2.0836
2.07606
2.06465
1.88608
1.88281
1.87953
1.87364
1.86296
1.84283
1.80494
1.73756
1.63006
1.48135
1.30857
1.14379
1.02588
0.945345
0.950695
0.943198
0.94443
0.944622
0.946448
0.952202
0.956894
0.963523
0.969996
0.977528
0.988626
1.00471
1.03127
1.07793
1.17594
1.53401
1.69331
1.88809
2.01018
2.02076
2.0495
2.06051
2.07036
2.07631
2.08297
2.08734
2.09182
2.09485
2.09745
2.09921
2.10019
2.10033
2.09979
2.09876
2.0965
2.09309
2.08862
2.08156
2.07325
2.06138
1.87947
1.87669
1.87416
1.86979
1.86197
1.84725
1.8194
1.76864
1.68315
1.55359
1.38444
1.20062
1.04156
0.968256
0.950675
0.957981
0.944716
0.949028
0.950807
0.956502
0.962579
0.970215
0.981183
0.997355
1.02537
1.07515
1.17776
1.39218
1.66861
1.68486
1.92003
1.97517
2.02543
2.0385
2.05461
2.06467
2.07208
2.07786
2.08348
2.08797
2.09104
2.09409
2.09595
2.09719
2.09762
2.0973
2.09645
2.09527
2.09256
2.08956
2.08458
2.07788
2.06888
2.05704
1.87467
1.87204
1.87038
1.86765
1.86324
1.85487
1.8383
1.80629
1.74823
1.65208
1.51219
1.33808
1.15712
1.02578
0.96069
0.959409
0.961798
0.959808
0.960482
0.968063
0.979446
0.998509
1.03038
1.09126
1.20827
1.40188
1.57098
1.69935
1.85597
1.86845
1.98712
2.01002
2.03529
2.04733
2.05875
2.06651
2.07232
2.07791
2.08299
2.08644
2.08928
2.09137
2.09245
2.09292
2.09281
2.0919
2.09085
2.08916
2.08637
2.08339
2.07824
2.07197
2.06284
2.05038
1.87135
1.86913
1.86788
1.86635
1.86408
1.8601
1.85193
1.8358
1.80509
1.7497
1.65916
1.52861
1.36781
1.20277
1.07052
1.00438
0.996086
0.999916
1.00228
1.02217
1.05817
1.13611
1.27786
1.44633
1.58964
1.70708
1.80646
1.89919
1.91656
1.98566
2.00585
2.02868
2.04109
2.05221
2.06047
2.06602
2.07249
2.0766
2.08109
2.08343
2.0856
2.08658
2.08683
2.08634
2.08555
2.08391
2.08233
2.0802
2.07736
2.07404
2.06936
2.06359
2.05395
2.04263
1.87035
1.86816
1.86743
1.86641
1.86545
1.86404
1.86081
1.85406
1.84087
1.81614
1.77353
1.70589
1.6103
1.49258
1.37206
1.2738
1.21626
1.21155
1.22694
1.27068
1.38488
1.5373
1.65253
1.73916
1.8151
1.89219
1.90577
1.96225
1.97505
2.0079
2.0212
2.03529
2.04601
2.05369
2.06037
2.06596
2.0708
2.07417
2.07756
2.07907
2.07984
2.07994
2.07915
2.07772
2.07602
2.07354
2.07118
2.06827
2.06519
2.06162
2.05738
2.05201
2.04315
2.03102
1.87154
1.86945
1.8689
1.8682
1.86827
1.86819
1.86752
1.86563
1.86134
1.85257
1.83675
1.81011
1.77002
1.71717
1.65868
1.60486
1.5829
1.57996
1.59074
1.63095
1.71889
1.80246
1.84072
1.89426
1.90695
1.94767
1.961
1.98916
2.00225
2.01834
2.03011
2.03962
2.04774
2.0542
2.06017
2.06464
2.0681
2.07138
2.07279
2.07335
2.07319
2.07208
2.06989
2.0674
2.06394
2.0606
2.05678
2.05273
2.0491
2.04537
2.04195
2.03737
2.02837
2.01452
1.87519
1.8732
1.87259
1.87221
1.87261
1.87356
1.87416
1.8745
1.87407
1.87246
1.86873
1.86157
1.85015
1.83461
1.81772
1.80238
1.79803
1.80179
1.81293
1.8362
1.8727
1.90734
1.91647
1.94128
1.95429
1.97445
1.98805
2.00248
2.01438
2.02514
2.03378
2.04184
2.04832
2.05413
2.05861
2.0623
2.06535
2.06699
2.06727
2.06662
2.06519
2.06243
2.05876
2.05454
2.0495
2.0447
2.03898
2.03394
2.02968
2.02637
2.02317
2.01787
2.01105
1.9974
1.88131
1.87939
1.87872
1.87856
1.87908
1.88042
1.88162
1.8831
1.8843
1.88522
1.88583
1.88571
1.88475
1.88317
1.88201
1.88154
1.88514
1.89014
1.90032
1.91201
1.92695
1.93912
1.95153
1.96381
1.97645
1.98909
1.99968
2.01081
2.01975
2.02873
2.0359
2.04282
2.04837
2.05317
2.05692
2.05989
2.0617
2.06209
2.06158
2.0599
2.05677
2.0528
2.0475
2.04159
2.03392
2.02585
2.01725
2.01037
2.00515
2.00207
2.00063
1.9985
1.99348
1.98183
1.88997
1.88803
1.88727
1.88736
1.88783
1.88935
1.89062
1.89241
1.89422
1.89624
1.89814
1.89989
1.90186
1.90427
1.90742
1.91147
1.91563
1.92157
1.92924
1.9381
1.94745
1.95674
1.96645
1.97636
1.9869
1.99699
2.00611
2.01514
2.02297
2.03047
2.03706
2.04329
2.04811
2.05214
2.05558
2.05761
2.05852
2.05807
2.05646
2.05364
2.04905
2.04272
2.03477
2.02569
2.01481
2.00482
1.99358
1.98334
1.97692
1.97263
1.97437
1.97791
1.97717
1.96532
1.90079
1.89904
1.89851
1.89837
1.89907
1.90031
1.90156
1.90326
1.90514
1.90716
1.90924
1.91162
1.91425
1.91741
1.9213
1.92612
1.93092
1.93663
1.94353
1.95112
1.95884
1.96694
1.97543
1.98412
1.99314
2.0017
2.0098
2.0176
2.02499
2.03187
2.03819
2.04378
2.04813
2.05163
2.05438
2.05535
2.0554
2.05365
2.05085
2.04613
2.0393
2.03103
2.02064
2.00971
1.9953
1.98112
1.96486
1.94979
1.9389
1.93517
1.93932
1.95187
1.96368
1.95884
1.91367
1.91224
1.91177
1.91189
1.91241
1.91343
1.91448
1.9159
1.9174
1.91897
1.92072
1.92276
1.92531
1.92829
1.93217
1.93663
1.94099
1.94627
1.95251
1.95916
1.96601
1.97342
1.98106
1.98885
1.99688
2.00471
2.01223
2.01966
2.02672
2.03332
2.0393
2.04426
2.04822
2.05144
2.0533
2.0537
2.05298
2.05065
2.04693
2.04139
2.03427
2.02488
2.01223
1.99595
1.97565
1.95198
1.92641
1.90078
1.88143
1.8731
1.87861
1.90298
1.93594
1.95785
1.03261
1.03228
1.03161
1.03085
1.02954
1.02877
1.0271
1.02647
1.02504
1.02422
1.02359
1.02293
1.02272
1.02246
1.0226
1.02287
1.02314
1.0238
1.02457
1.02521
1.03209
1.03172
1.03105
1.03
1.02907
1.02759
1.02649
1.02522
1.0239
1.02312
1.02212
1.02145
1.02113
1.0209
1.02085
1.02105
1.0214
1.02189
1.02241
1.02312
1.03139
1.03097
1.03027
1.02917
1.0281
1.02675
1.0253
1.02408
1.02265
1.02176
1.02062
1.01998
1.01947
1.01911
1.0191
1.01915
1.01937
1.0198
1.02027
1.02072
1.03039
1.03009
1.02931
1.02833
1.02696
1.0257
1.02411
1.0229
1.02133
1.02028
1.0192
1.01825
1.01778
1.0173
1.01713
1.01713
1.01725
1.01754
1.01793
1.01829
1.02936
1.02905
1.02829
1.02724
1.02591
1.02449
1.02299
1.02142
1.02007
1.01866
1.01751
1.01663
1.01581
1.01543
1.01508
1.01499
1.01503
1.01515
1.01544
1.01563
1.02817
1.02789
1.02713
1.0261
1.02467
1.02328
1.02153
1.02002
1.01854
1.01696
1.01592
1.01467
1.01392
1.0133
1.01285
1.01262
1.01257
1.01258
1.0127
1.01291
1.02673
1.02653
1.02578
1.02478
1.02327
1.0219
1.02009
1.01853
1.01669
1.01546
1.01362
1.01283
1.01181
1.011
1.01055
1.01015
1.01003
1.00988
1.00989
1.00992
1.02531
1.02503
1.02431
1.02334
1.02185
1.02023
1.01848
1.01668
1.01493
1.01328
1.01178
1.01056
1.00939
1.00878
1.00794
1.00767
1.00715
1.00709
1.0069
1.00684
1.02369
1.02341
1.02276
1.02157
1.02022
1.01836
1.01662
1.01471
1.01282
1.01105
1.00945
1.00808
1.00688
1.00608
1.0053
1.00479
1.0043
1.00404
1.00378
1.00361
1.02185
1.02158
1.02089
1.01976
1.01811
1.0164
1.01442
1.01229
1.01045
1.00837
1.00682
1.00532
1.00415
1.00308
1.00227
1.00171
1.00122
1.00085
1.00052
1.00028
1.01991
1.01957
1.01885
1.01758
1.0158
1.01383
1.01175
1.00957
1.00734
1.00556
1.00356
1.00214
1.00094
0.999942
0.999136
0.998491
0.997966
0.997519
0.997143
0.996801
1.01762
1.01737
1.01638
1.01479
1.01298
1.01081
1.00849
1.0061
1.00388
1.00169
1.00003
0.998586
0.997367
0.996394
0.995569
0.994934
0.994405
0.993985
0.993588
0.993262
1.01536
1.01459
1.01331
1.01149
1.00939
1.00692
1.00438
1.00183
0.999308
0.997314
0.995677
0.99412
0.993015
0.992131
0.991516
0.990981
0.990593
0.990268
0.9899
0.989651
1.01246
1.01135
1.00989
1.00753
1.00573
1.00334
1.00048
0.997174
0.994263
0.991896
0.990143
0.988579
0.987739
0.987242
0.986911
0.986691
0.986485
0.986327
0.98613
0.985856
1.00974
1.00959
1.00892
1.00909
1.00928
1.01007
1.00565
1.00071
0.994929
0.989518
0.985704
0.983089
0.981898
0.981412
0.981587
0.981843
0.982089
0.982165
0.982192
0.982053
1.00847
1.01629
1.02705
1.03812
1.05281
1.06413
1.05627
1.05111
1.02756
1.00726
0.992277
0.982938
0.977888
0.97613
0.975905
0.976446
0.977112
0.977653
0.978042
0.978136
1.02728
1.06797
1.13159
1.18307
1.25135
1.288
1.27178
1.26275
1.18525
1.11353
1.04724
1.00676
0.985094
0.97533
0.971934
0.971402
0.972254
0.973089
0.973922
0.974311
1.15858
1.30942
1.47349
1.58732
1.65025
1.64758
1.6351
1.56249
1.52715
1.40128
1.25322
1.10929
1.02657
0.988798
0.973827
0.969065
0.968121
0.96869
0.969425
0.970288
1.56194
1.74033
1.81689
1.83347
1.80653
1.75561
1.71666
1.63465
1.61541
1.56536
1.52782
1.33272
1.15031
1.04099
0.989933
0.970866
0.9656
0.964877
0.96566
0.966061
1.87316
1.91759
1.90259
1.86264
1.80102
1.71018
1.61247
1.55307
1.54478
1.54396
1.55234
1.47548
1.32976
1.13996
1.03703
0.989166
0.97021
0.964012
0.962641
0.963018
1.97068
1.94552
1.89877
1.80886
1.6606
1.50069
1.32918
1.3123
1.33809
1.44059
1.48461
1.48677
1.41466
1.23595
1.09075
1.01514
0.980198
0.966454
0.961807
0.960667
1.97735
1.93489
1.85071
1.71896
1.54276
1.36083
1.23357
1.17978
1.18535
1.29235
1.40558
1.43017
1.39432
1.25054
1.11414
1.03662
0.994989
0.974098
0.964297
0.959917
1.97862
1.92764
1.83923
1.70266
1.5224
1.34055
1.21788
1.15955
1.13249
1.19461
1.30763
1.34676
1.31334
1.19668
1.09248
1.03023
0.995665
0.97695
0.966456
0.960263
1.98547
1.94101
1.87006
1.75921
1.6065
1.41822
1.26911
1.16747
1.12202
1.10425
1.13165
1.16665
1.14253
1.08895
1.04499
1.01281
0.990946
0.976612
0.967764
0.961419
2.00537
1.98114
1.94431
1.89915
1.81538
1.69916
1.5055
1.3156
1.17567
1.10587
1.06106
1.02999
1.01687
1.00386
0.99468
0.986837
0.98017
0.973757
0.967671
0.961565
2.01601
1.99933
1.97853
1.94806
1.91751
1.85892
1.79562
1.68966
1.56463
1.41789
1.30145
1.21773
1.1576
1.11683
1.08256
1.06109
1.03995
1.02094
0.998858
0.982148
2.02341
2.00959
1.9918
1.9745
1.95222
1.93066
1.90065
1.87542
1.83362
1.79568
1.75435
1.71516
1.6825
1.65631
1.63247
1.61334
1.58703
1.55794
1.51323
1.42504
2.02918
2.01695
2.0056
1.98707
1.97377
1.95391
1.93942
1.92153
1.90694
1.89265
1.88269
1.87238
1.8644
1.85543
1.84327
1.82759
1.80509
1.77713
1.74201
1.70215
2.0358
2.02534
2.01383
2.00189
1.98661
1.9743
1.95703
1.94486
1.93018
1.91816
1.90704
1.89523
1.88379
1.86942
1.85043
1.82615
1.79317
1.75205
1.70281
1.64759
2.04054
2.0312
2.02042
2.00936
1.99739
1.98508
1.97238
1.95643
1.94397
1.93025
1.91592
1.89825
1.87903
1.85371
1.82041
1.77795
1.72312
1.65579
1.57977
1.499
2.04682
2.03884
2.02903
2.01844
2.00717
1.99494
1.98228
1.96963
1.95354
1.93883
1.92163
1.90024
1.87156
1.83645
1.78704
1.72316
1.64188
1.54795
1.44585
1.34548
2.05242
2.04458
2.036
2.02658
2.01659
2.0056
1.99396
1.97953
1.9643
1.94747
1.92789
1.90412
1.87013
1.82971