/*--------------------------------*- C++ -*----------------------------------*\
  =========                 |
  \\      /  F ield         | OpenFOAM: The Open Source CFD Toolbox
   \\    /   O peration     | Website:  https://openfoam.org
    \\  /    A nd           | Version:  10
     \\/     M anipulation  |
\*---------------------------------------------------------------------------*/
FoamFile
{
    format      ascii;
    class       volScalarField;
    location    "0.350779";
    object      T;
}
// * * * * * * * * * * * * * * * * * * * * * * * * * * * * * * * * * * * * * //

dimensions      [0 0 0 1 0 0 0];

internalField   nonuniform List<scalar> 
15984
(
0.00873007
0.00871812
0.00870648
0.00869835
0.00869137
0.00868633
0.00868404
0.00868178
0.00868116
0.00868045
0.00867935
0.00867844
0.0086758
0.00867308
0.00866892
0.0086636
0.008656
0.00864913
0.00863942
0.00863056
0.00861975
0.00860987
0.00859859
0.00859018
0.00857952
0.00857189
0.00856389
0.00855864
0.00855414
0.00855196
0.00855234
0.00855376
0.00855809
0.00856484
0.00857429
0.00858594
0.00860047
0.00861578
0.00863368
0.00865315
0.00867094
0.00869296
0.00871143
0.00873041
0.00874842
0.00876478
0.00877914
0.00879295
0.0088016
0.00881321
0.00881666
0.00882378
0.00882501
0.00882716
0.00872899
0.00871634
0.00870366
0.00869461
0.00868717
0.00868157
0.00867844
0.00867661
0.00867497
0.00867403
0.00867363
0.00867261
0.00867138
0.00866937
0.00866548
0.00866136
0.00865585
0.00864832
0.0086411
0.00863122
0.00862379
0.0086119
0.00860406
0.0085931
0.00858524
0.00857674
0.00856938
0.00856441
0.00855953
0.00855774
0.0085575
0.00855875
0.0085629
0.00856924
0.00857729
0.00858946
0.00860107
0.00861799
0.00863274
0.00865235
0.00867043
0.00868991
0.00870888
0.00872799
0.00874499
0.00876184
0.00877656
0.00878935
0.00879997
0.00880907
0.00881534
0.00882029
0.00882309
0.00882492
0.00872903
0.00871391
0.00870166
0.00869109
0.0086834
0.00867735
0.00867264
0.00867109
0.00866867
0.0086677
0.00866743
0.00866681
0.00866582
0.00866452
0.00866225
0.00865835
0.00865445
0.00864771
0.00864122
0.00863293
0.00862503
0.00861572
0.00860729
0.00859846
0.00858952
0.00858269
0.00857555
0.00856994
0.0085665
0.00856353
0.00856413
0.00856503
0.00856824
0.00857409
0.00858237
0.00859188
0.00860491
0.00861772
0.00863511
0.00865023
0.00866964
0.00868688
0.00870659
0.00872378
0.00874216
0.00875731
0.00877299
0.00878497
0.00879666
0.00880533
0.00881181
0.00881775
0.00881987
0.00882238
0.00872832
0.00871188
0.00869946
0.00868763
0.00867927
0.00867242
0.00866766
0.00866393
0.00866267
0.00866091
0.00866077
0.00866039
0.00865982
0.00865932
0.00865753
0.00865524
0.00865131
0.00864706
0.00864103
0.00863375
0.00862796
0.00861817
0.0086114
0.00860279
0.00859568
0.00858822
0.00858194
0.00857744
0.00857309
0.00857147
0.00857105
0.00857205
0.00857523
0.00858054
0.00858714
0.00859727
0.00860739
0.00862135
0.00863484
0.00865222
0.00866746
0.00868583
0.00870283
0.00872113
0.00873667
0.00875403
0.00876742
0.00878092
0.00879184
0.0088012
0.00880764
0.00881381
0.00881673
0.00881796
0.00872627
0.00871043
0.0086964
0.00868489
0.00867482
0.00866783
0.00866194
0.0086576
0.00865578
0.00865432
0.00865315
0.00865344
0.0086535
0.00865309
0.0086527
0.00865058
0.00864894
0.00864479
0.00864026
0.00863485
0.00862806
0.00862253
0.00861422
0.0086077
0.0086009
0.00859484
0.00858913
0.00858461
0.00858133
0.00857923
0.00857923
0.00858024
0.00858297
0.00858751
0.00859446
0.00860258
0.00861262
0.00862468
0.00863758
0.00865215
0.00866758
0.0086838
0.0087006
0.00871677
0.00873319
0.0087489
0.00876218
0.00877618
0.00878663
0.00879525
0.00880402
0.00880844
0.0088127
0.00881417
0.00872417
0.00870886
0.00869339
0.00868161
0.00867079
0.00866242
0.00865674
0.00865148
0.00864885
0.00864674
0.00864647
0.00864623
0.00864665
0.00864663
0.00864661
0.00864624
0.00864482
0.00864218
0.00863943
0.00863437
0.00863017
0.00862374
0.00861883
0.00861228
0.00860655
0.00860166
0.00859656
0.00859279
0.00858972
0.00858811
0.00858837
0.00858916
0.00859174
0.00859598
0.00860157
0.00860966
0.00861798
0.00862889
0.00864081
0.00865347
0.00866795
0.00868287
0.00869759
0.00871387
0.00872825
0.00874435
0.00875701
0.00876994
0.00878122
0.00878982
0.00879909
0.00880219
0.00880914
0.00880927
0.00872345
0.00870578
0.00869157
0.00867773
0.00866689
0.0086578
0.00865113
0.00864601
0.00864137
0.00864043
0.0086387
0.00863846
0.0086392
0.00863987
0.00864031
0.00864067
0.00863997
0.00863919
0.00863668
0.00863415
0.00863037
0.00862613
0.00862183
0.00861716
0.00861276
0.0086078
0.0086045
0.00860112
0.00859914
0.00859796
0.00859771
0.00859905
0.00860105
0.00860512
0.00861044
0.00861668
0.00862559
0.00863368
0.00864463
0.00865624
0.0086687
0.0086819
0.00869629
0.00871034
0.00872474
0.00873902
0.00875128
0.00876504
0.00877395
0.00878538
0.00879097
0.00879869
0.00880181
0.00880424
0.00872161
0.00870364
0.00868877
0.008675
0.008663
0.00865355
0.00864589
0.0086398
0.00863524
0.00863285
0.00863083
0.00863084
0.00863101
0.0086323
0.00863306
0.00863376
0.0086354
0.00863427
0.00863419
0.00863273
0.00863059
0.00862812
0.00862422
0.00862191
0.00861794
0.00861496
0.00861237
0.00860984
0.00860884
0.00860784
0.00860814
0.00860954
0.00861141
0.00861508
0.00861964
0.00862515
0.00863224
0.00864007
0.00864948
0.00865914
0.00867049
0.00868232
0.00869505
0.0087077
0.00872171
0.00873377
0.00874695
0.00875814
0.00876879
0.00877848
0.00878599
0.00879185
0.0087962
0.00879944
0.00871847
0.00870197
0.00868626
0.00867134
0.00865986
0.00864901
0.00864065
0.00863352
0.00862912
0.00862467
0.00862351
0.00862246
0.00862252
0.0086244
0.00862495
0.0086274
0.00862887
0.00862974
0.00863101
0.00863052
0.00863008
0.00862882
0.00862744
0.00862549
0.00862333
0.00862244
0.00862045
0.00861879
0.00861828
0.00861842
0.0086188
0.00862032
0.00862262
0.00862558
0.00862919
0.00863445
0.00863996
0.00864692
0.00865494
0.00866361
0.00867307
0.00868357
0.00869463
0.00870659
0.00871808
0.00873027
0.00874173
0.0087527
0.00876347
0.00877186
0.00877961
0.00878598
0.00879048
0.00879333
0.00871704
0.00869913
0.00868364
0.00866935
0.00865501
0.00864561
0.00863496
0.00862821
0.00862199
0.00861824
0.00861526
0.00861429
0.00861444
0.00861535
0.00861757
0.00861944
0.0086216
0.00862547
0.00862482
0.00862834
0.00862863
0.00862906
0.00862959
0.00862927
0.00862899
0.00862856
0.0086283
0.00862815
0.00862841
0.00862907
0.0086302
0.00863153
0.00863361
0.00863649
0.00863974
0.00864409
0.00864908
0.00865446
0.00866121
0.00866866
0.00867675
0.00868549
0.00869559
0.00870546
0.00871651
0.00872672
0.00873808
0.00874793
0.00875732
0.00876655
0.00877357
0.0087797
0.00878432
0.0087872
0.0087151
0.00869718
0.0086805
0.00866599
0.00865274
0.00864059
0.00863162
0.00862241
0.00861594
0.00861126
0.00860744
0.00860652
0.00860582
0.00860678
0.00860836
0.0086112
0.00861498
0.00861741
0.00862136
0.00862411
0.0086269
0.00862881
0.00863097
0.00863293
0.00863379
0.00863542
0.00863631
0.00863723
0.00863832
0.00863966
0.00864121
0.00864307
0.00864503
0.00864781
0.00865069
0.00865416
0.00865852
0.00866286
0.00866823
0.0086746
0.00868129
0.00868888
0.00869698
0.00870617
0.0087153
0.00872511
0.00873432
0.00874408
0.00875283
0.00876097
0.0087681
0.00877342
0.00877864
0.00878081
0.00871294
0.00869404
0.00867877
0.00866297
0.00864952
0.00863767
0.00862659
0.00861744
0.00860999
0.00860388
0.00860061
0.00859706
0.00859739
0.00859757
0.00859981
0.00860267
0.00860597
0.00861147
0.00861455
0.00862034
0.00862401
0.00862838
0.00863192
0.00863545
0.00863847
0.00864146
0.00864399
0.00864637
0.00864817
0.00865053
0.00865247
0.00865481
0.00865668
0.00865936
0.00866163
0.00866497
0.00866804
0.00867171
0.00867605
0.00868098
0.00868686
0.0086928
0.00870002
0.0087075
0.00871567
0.00872407
0.0087324
0.0087408
0.00874919
0.0087564
0.00876266
0.00876828
0.00877232
0.00877413
0.00870997
0.00869134
0.00867696
0.00865975
0.00864745
0.00863348
0.00862286
0.00861282
0.00860453
0.008598
0.00859263
0.00859061
0.00858781
0.00858887
0.00859063
0.00859269
0.00859772
0.00860151
0.00860929
0.00861379
0.00862049
0.00862654
0.00863286
0.00863768
0.00864318
0.00864717
0.00865152
0.00865492
0.00865831
0.00866129
0.00866388
0.00866634
0.0086686
0.00867055
0.00867338
0.00867534
0.00867844
0.00868105
0.0086846
0.00868843
0.00869337
0.00869802
0.00870405
0.00871035
0.00871731
0.00872434
0.00873187
0.00873906
0.00874674
0.00875207
0.00875911
0.00876307
0.00876702
0.00876909
0.00870676
0.00868998
0.00867377
0.00865893
0.00864406
0.00863126
0.00861948
0.00860821
0.00860033
0.00859092
0.00858747
0.00858099
0.00858012
0.00857889
0.00857938
0.00858352
0.00858783
0.00859569
0.00860125
0.00860808
0.00861819
0.00862392
0.00863301
0.00864003
0.00864668
0.00865276
0.00865849
0.00866312
0.0086679
0.00867119
0.00867458
0.00867771
0.00867987
0.00868254
0.00868412
0.00868667
0.00868831
0.00869104
0.00869336
0.00869669
0.00870052
0.00870431
0.00870916
0.00871459
0.00872037
0.00872601
0.00873259
0.00873892
0.0087452
0.00875049
0.00875578
0.0087602
0.00876373
0.00876489
0.00870411
0.00868746
0.0086722
0.00865565
0.00864318
0.00862838
0.00861621
0.00860596
0.00859381
0.00858814
0.0085784
0.00857546
0.00856986
0.00856974
0.00857067
0.00857423
0.00858065
0.00858226
0.00859451
0.00860298
0.00861259
0.00862262
0.00863102
0.00864035
0.00864998
0.00865775
0.00866542
0.00867102
0.00867706
0.00868138
0.00868576
0.00868853
0.0086914
0.00869341
0.00869557
0.00869735
0.00869875
0.00870131
0.00870288
0.00870564
0.0087083
0.00871166
0.00871545
0.00872016
0.00872452
0.00872937
0.00873493
0.00874027
0.0087453
0.00875018
0.00875462
0.00876059
0.00876244
0.00875928
0.00870147
0.00868622
0.00866991
0.00865543
0.00864072
0.00862672
0.00861494
0.0086012
0.00859265
0.00858046
0.00857578
0.00856639
0.00856408
0.00856013
0.00856026
0.0085626
0.00856785
0.00857739
0.00858476
0.00859691
0.00860595
0.0086189
0.00862985
0.00864113
0.00865217
0.00866177
0.00867148
0.00867874
0.0086859
0.0086908
0.00869594
0.00869913
0.00870243
0.0087044
0.00870685
0.00870798
0.00870925
0.00871116
0.00871244
0.00871493
0.008717
0.00871976
0.00872269
0.00872671
0.00872983
0.00873464
0.00873899
0.0087435
0.00874705
0.00875395
0.00875662
0.00876434
0.00875772
0.00874463
0.00870065
0.00868435
0.00866857
0.0086547
0.00863953
0.00862615
0.00861297
0.00859995
0.00858726
0.00857951
0.00856699
0.00856217
0.00855297
0.0085508
0.00855106
0.00855291
0.00856073
0.00856525
0.0085783
0.00858569
0.00860309
0.00861309
0.00862805
0.00864178
0.00865511
0.00866687
0.00867754
0.00868596
0.00869398
0.00870032
0.00870564
0.00870917
0.00871288
0.00871447
0.00871736
0.00871829
0.00871983
0.0087211
0.00872235
0.00872455
0.00872622
0.00872878
0.0087309
0.00873431
0.00873687
0.00874128
0.00874474
0.00874888
0.00875165
0.00876372
0.00876213
0.00876381
0.00872923
0.00866977
0.00869865
0.00868282
0.00866869
0.00865394
0.00863957
0.00862536
0.00861198
0.00859732
0.00858719
0.0085722
0.00856425
0.00855139
0.00854736
0.00854376
0.00854366
0.00854474
0.00854778
0.00855441
0.00856489
0.00857841
0.00859316
0.0086092
0.00862498
0.00864004
0.00865503
0.00866954
0.00868255
0.00869315
0.00870178
0.00870929
0.00871508
0.00871954
0.00872311
0.00872562
0.00872754
0.00872907
0.00872985
0.00873123
0.00873243
0.00873442
0.00873576
0.00873824
0.00873988
0.00874277
0.00874523
0.00874905
0.00875252
0.00875721
0.00876419
0.00877271
0.00875678
0.00874362
0.00855299
0.00835817
0.00869639
0.00868262
0.00866865
0.00865397
0.00863964
0.00862636
0.00860994
0.00860052
0.00857906
0.00857788
0.00855248
0.0085526
0.0085386
0.00853767
0.0085325
0.00853308
0.008536
0.00853977
0.0085592
0.00856063
0.00859064
0.00859739
0.00862201
0.0086404
0.00865662
0.0086715
0.00868542
0.00869758
0.00870749
0.00871574
0.00872206
0.00872708
0.00873099
0.00873396
0.00873617
0.00873835
0.00873932
0.00874095
0.00874224
0.00874431
0.00874582
0.00874812
0.00874952
0.00875257
0.00875495
0.00875818
0.00876287
0.00877174
0.00877986
0.00877557
0.00868764
0.00855372
0.00789601
0.00677839
0.00869493
0.00868147
0.00867116
0.00865303
0.0086428
0.00862433
0.00861406
0.00859477
0.00858449
0.00856753
0.0085576
0.00853945
0.00853415
0.00852556
0.0085258
0.00852737
0.00852822
0.00853601
0.0085427
0.00856295
0.00857577
0.0086003
0.00861628
0.00863583
0.00865555
0.00867382
0.00868987
0.00870388
0.00871534
0.0087243
0.00873084
0.00873593
0.0087401
0.00874328
0.00874537
0.00874792
0.00874886
0.0087509
0.00875198
0.00875422
0.0087557
0.00875814
0.00875945
0.00876284
0.00876556
0.00876969
0.00877941
0.00879088
0.00877958
0.00873064
0.00838936
0.00768221
0.00603979
0.00496359
0.00870067
0.00867924
0.00867677
0.00864747
0.00865062
0.00861828
0.00861934
0.00858898
0.00859125
0.00856036
0.00855774
0.00854381
0.00852648
0.00851901
0.00850798
0.00850875
0.00851103
0.00851938
0.00851758
0.0085589
0.00856038
0.00859316
0.00861679
0.00863824
0.00865731
0.00867498
0.00869132
0.00870626
0.00871893
0.00872941
0.00873738
0.00874312
0.00874752
0.00875075
0.00875346
0.00875583
0.00875788
0.0087596
0.00876149
0.00876412
0.00876576
0.0087682
0.00877012
0.00877392
0.00877778
0.00878593
0.00880228
0.00879523
0.00873503
0.00841293
0.0074124
0.00550968
0.00477794
0.00451192
0.00869982
0.0086809
0.00868241
0.0086495
0.00865256
0.00862062
0.00862193
0.00859034
0.0085924
0.00856037
0.00856057
0.00852172
0.00852987
0.00849759
0.00848088
0.00846379
0.0084455
0.0084462
0.00847964
0.00846532
0.00854211
0.00857762
0.00860382
0.00863299
0.00865899
0.00867899
0.00869529
0.00871034
0.00872372
0.00873404
0.00874211
0.00874833
0.00875346
0.00875743
0.00876078
0.00876345
0.00876596
0.00876814
0.00877073
0.00877324
0.00877569
0.0087777
0.00878193
0.0087852
0.00879366
0.0088126
0.00880895
0.00876619
0.00846026
0.00731033
0.00535577
0.00461665
0.00443186
0.00440738
0.0086987
0.00868129
0.00868039
0.008656
0.00865638
0.00862481
0.0086267
0.00859421
0.00859594
0.00855415
0.0085569
0.00848833
0.00849991
0.00837355
0.008347
0.00816352
0.00803227
0.0080715
0.00800709
0.00823612
0.0082806
0.00839982
0.00855245
0.00862583
0.00865784
0.00868039
0.00869903
0.00871361
0.00872705
0.00873819
0.00874664
0.00875327
0.00875895
0.00876319
0.00876728
0.00877052
0.00877388
0.00877637
0.00877934
0.00878242
0.00878508
0.00878849
0.00879262
0.00880086
0.00882014
0.00882158
0.00879762
0.00855787
0.00743367
0.00530331
0.00455471
0.00441849
0.00440096
0.00440351
0.00869794
0.00868671
0.00867839
0.00866308
0.00865178
0.00863253
0.00862551
0.00859813
0.00859155
0.0085284
0.00850875
0.00839906
0.0081811
0.00776691
0.00739462
0.00678118
0.00631923
0.00628643
0.00651228
0.00634848
0.00753877
0.00807105
0.00826413
0.0084724
0.00861324
0.00867454
0.00870053
0.00871749
0.00873109
0.00874206
0.00875072
0.00875767
0.00876358
0.00876851
0.00877326
0.00877726
0.00878082
0.00878443
0.00878775
0.00879075
0.00879456
0.00879876
0.00880629
0.00882535
0.0088319
0.00881939
0.00866122
0.00772131
0.00539853
0.00454371
0.00441521
0.00440021
0.00439838
0.0044046
0.00870036
0.00868984
0.0086817
0.0086662
0.00865605
0.00863762
0.00862976
0.00857624
0.00857332
0.00839889
0.00823592
0.00759073
0.00661545
0.00569356
0.00511874
0.00477865
0.00459232
0.00461328
0.0046546
0.00503351
0.00493445
0.00608804
0.00772261
0.00836516
0.00856491
0.00864423
0.00869087
0.0087164
0.00873233
0.00874383
0.00875294
0.00876036
0.00876678
0.00877248
0.00877841
0.00878281
0.00878697
0.00879116
0.00879458
0.00879931
0.00880362
0.00881042
0.00882985
0.00883888
0.00883272
0.00873534
0.0080252
0.00571731
0.00457944
0.00442036
0.00440335
0.00439984
0.00439891
0.00439739
0.00870208
0.00869134
0.00868377
0.00866938
0.00866192
0.00863386
0.00862848
0.00846499
0.0084137
0.00761052
0.00636408
0.00530219
0.00474193
0.0044734
0.0043508
0.00430937
0.00430742
0.00431883
0.00433875
0.00448546
0.00449033
0.00503368
0.00589182
0.00741186
0.00828511
0.00861365
0.00868972
0.00871679
0.00873276
0.00874415
0.00875346
0.00876145
0.00876868
0.00877549
0.00878222
0.00878792
0.00879257
0.00879775
0.00880229
0.00880704
0.00881381
0.00883262
0.00884328
0.00884115
0.0087733
0.00827895
0.0062533
0.00468145
0.00443043
0.0044093
0.00440576
0.00440475
0.00439863
0.00439437
0.00870401
0.00869235
0.00868634
0.00867431
0.00866564
0.0085812
0.00855223
0.00785242
0.0067124
0.00534486
0.00468487
0.00441306
0.00431436
0.00428545
0.00428606
0.00429324
0.00433092
0.00442881
0.00444786
0.00449275
0.0044952
0.00473037
0.00506013
0.0066879
0.00794888
0.00848587
0.00865985
0.00871158
0.00873172
0.00874353
0.00875312
0.00876158
0.00876994
0.00877824
0.00878625
0.00879232
0.00879795
0.00880328
0.00880875
0.00881651
0.00883122
0.00884848
0.00884566
0.00878516
0.00843521
0.00682163
0.00486317
0.00445043
0.00441552
0.00441152
0.00441073
0.00440707
0.00440259
0.00439693
0.00870097
0.00869599
0.00868495
0.00867966
0.00856998
0.00841106
0.00738191
0.00565079
0.00475469
0.00442264
0.00432085
0.00429049
0.00428977
0.00430101
0.00432017
0.00439507
0.00452303
0.00487998
0.00492507
0.00482456
0.00463561
0.00469868
0.00497641
0.00608409
0.00756173
0.00834219
0.00862452
0.00870357
0.00872893
0.00874177
0.00875169
0.00876122
0.0087709
0.00878093
0.00878911
0.00879583
0.00880215
0.00880854
0.00881671
0.00883066
0.00885253
0.00884847
0.00878098
0.008467
0.0072245
0.00507587
0.00447321
0.00442082
0.00441597
0.00441501
0.00441342
0.00441088
0.00440749
0.00440182
0.00870262
0.0086961
0.00867615
0.00860617
0.00820133
0.00659661
0.00504026
0.00448123
0.00433654
0.00430676
0.00430086
0.00430521
0.00432158
0.00436096
0.00445947
0.00460891
0.00500074
0.00568898
0.00575928
0.00555404
0.00497115
0.00483411
0.00506461
0.00615146
0.00762754
0.00836566
0.00862849
0.00870105
0.00872547
0.0087382
0.00874909
0.00876014
0.00877183
0.00878269
0.00879173
0.00879898
0.00880625
0.00881508
0.00883084
0.00885193
0.00885034
0.00877344
0.00832851
0.00666844
0.00487636
0.00447497
0.00442554
0.00441947
0.00441832
0.00441814
0.0044162
0.00441265
0.00440879
0.00440415
0.00869615
0.00867898
0.00859185
0.00796338
0.00571123
0.00456425
0.00435018
0.00432171
0.00431403
0.00431311
0.00431816
0.00433536
0.0043791
0.00448109
0.00469816
0.00506626
0.0059421
0.00680429
0.00678386
0.0063091
0.00531243
0.00498957
0.00516254
0.00625686
0.00764433
0.0084172
0.00864196
0.00870105
0.00872116
0.00873403
0.00874623
0.00875962
0.00877284
0.00878423
0.00879322
0.0088016
0.00881163
0.00882911
0.00884887
0.00884451
0.0087168
0.00806209
0.00632472
0.0048638
0.00450255
0.00443082
0.00442085
0.00441998
0.00441984
0.0044199
0.00441845
0.00441496
0.00441148
0.00440736
0.00866347
0.00848262
0.0065555
0.00471219
0.00441038
0.00434156
0.00433042
0.00432252
0.00432178
0.0043266
0.00434179
0.00438424
0.00448748
0.00471215
0.00515495
0.00598159
0.0072267
0.00756892
0.00732102
0.00618527
0.00531129
0.00516556
0.00563665
0.00695125
0.00811088
0.00852052
0.00866149
0.00869908
0.00871542
0.00872885
0.00874365
0.00875944
0.00877347
0.00878447
0.00879465
0.00880601
0.00882562
0.0088433
0.00882517
0.00859803
0.00773345
0.00588311
0.00483615
0.00451841
0.00443871
0.00442467
0.0044231
0.00442331
0.00442392
0.00442348
0.00442121
0.00441808
0.00441539
0.0044109
0.00586421
0.00531195
0.00459054
0.00436002
0.00434065
0.00433588
0.00432791
0.00432652
0.00433131
0.00434456
0.00438112
0.00447191
0.00467283
0.00509582
0.00591669
0.00724465
0.00782002
0.00775622
0.00684279
0.00588591
0.00545038
0.00558875
0.00645634
0.00778308
0.00838488
0.00859577
0.00867115
0.00869547
0.00870849
0.00872481
0.00874217
0.00875929
0.00877319
0.00878507
0.00879849
0.00882005
0.00882942
0.00876945
0.00834284
0.00704755
0.00541509
0.00477941
0.00451804
0.00444474
0.00442748
0.00442493
0.00442468
0.00442658
0.0044268
0.00442671
0.00442531
0.00442226
0.00441876
0.00441343
0.00456813
0.00443983
0.00435801
0.00434012
0.00433605
0.00433027
0.00432869
0.00433238
0.00434269
0.00436931
0.0044392
0.00459549
0.00493376
0.00563034
0.00691959
0.00790992
0.00798748
0.0075027
0.00660982
0.00615288
0.00603258
0.00663796
0.00761812
0.00826994
0.00853311
0.00863453
0.00867053
0.00868682
0.0087044
0.00872315
0.008742
0.00875906
0.00877313
0.00879024
0.00880515
0.00880118
0.00865684
0.00796825
0.00627522
0.00510975
0.00469864
0.00450493
0.00444895
0.00442961
0.00442632
0.0044257
0.00442773
0.00442918
0.00442929
0.00442912
0.00442791
0.00442561
0.00442325
0.00441912
0.00436478
0.00434546
0.004339
0.00433298
0.0043317
0.00432855
0.00433072
0.00433865
0.00435905
0.00440956
0.00452519
0.00477066
0.00527737
0.00628622
0.00769831
0.00812232
0.0080291
0.00753038
0.0071097
0.00699316
0.0071251
0.00771986
0.00826596
0.00848354
0.00860357
0.00864052
0.0086667
0.00868235
0.00870277
0.00872304
0.00874232
0.0087595
0.00877749
0.00878678
0.0087682
0.00854657
0.00765006
0.00578498
0.00491559
0.00462894
0.00448844
0.00444914
0.00443134
0.00442763
0.00442683
0.00442824
0.00443037
0.00443126
0.00443142
0.00443097
0.00442995
0.00442754
0.00442434
0.00442137
0.00433695
0.00433469
0.00432952
0.0043281
0.00432643
0.00432757
0.00433341
0.0043486
0.00438577
0.00446884
0.00464154
0.00498512
0.00565418
0.00689165
0.0080254
0.00824759
0.00818537
0.0079049
0.00777132
0.00774663
0.00794835
0.00833339
0.00847504
0.00857985
0.0086038
0.00864604
0.00866025
0.00868193
0.00870305
0.00872405
0.00874422
0.00876165
0.00876942
0.00873774
0.00847647
0.00746447
0.00557697
0.00481117
0.00457206
0.00447619
0.00444606
0.00443182
0.00442849
0.00442768
0.00442892
0.00443098
0.00443288
0.00443356
0.00443365
0.00443307
0.00443228
0.00443033
0.00442709
0.00442389
0.00432797
0.00432484
0.00432368
0.00432145
0.00432269
0.00432669
0.00433856
0.00436638
0.00442707
0.00455021
0.00478505
0.00522085
0.00600844
0.00731678
0.0082033
0.00835387
0.00832696
0.00822652
0.00819374
0.00821558
0.00839094
0.00849193
0.00857056
0.00857309
0.00863216
0.00863726
0.00866238
0.008683
0.0087052
0.00872744
0.00874532
0.00875251
0.00871754
0.0084682
0.00749677
0.00557616
0.00478873
0.00453341
0.00447326
0.00443974
0.00443379
0.00442902
0.00442839
0.0044292
0.00443143
0.00443381
0.00443519
0.00443571
0.00443569
0.00443499
0.00443375
0.00443203
0.00442919
0.00442586
0.00431848
0.00431633
0.00431535
0.00431604
0.00431895
0.00432769
0.00434868
0.0043945
0.00448556
0.00465426
0.00495066
0.00546148
0.0063136
0.00758858
0.00828606
0.00843343
0.00843358
0.0084101
0.00840442
0.00844452
0.00850535
0.00856147
0.00855964
0.00861673
0.00861958
0.00864064
0.00866584
0.00868743
0.00871178
0.00872978
0.00873739
0.00870911
0.00850899
0.00770001
0.0059002
0.00485161
0.00454046
0.00446115
0.0044425
0.00443197
0.0044302
0.00442907
0.00442964
0.00443192
0.00443411
0.00443633
0.00443743
0.00443787
0.00443782
0.0044369
0.00443536
0.00443315
0.00442973
0.00442691
0.00430874
0.00430775
0.00430795
0.00431016
0.00431612
0.00433175
0.00436608
0.00443494
0.0045615
0.00477744
0.00512811
0.0056833
0.00653678
0.0077177
0.0083616
0.00848129
0.00849843
0.0084974
0.00850083
0.0085173
0.00856236
0.00855938
0.00860466
0.00860405
0.00862749
0.00864856
0.00867449
0.00869316
0.00871484
0.00872258
0.0087058
0.00857287
0.00802078
0.00661916
0.00512492
0.00459548
0.0044669
0.00444162
0.00443294
0.00443119
0.0044303
0.00443038
0.00443248
0.00443489
0.00443698
0.00443882
0.00443975
0.00444013
0.00443982
0.004439
0.00443697
0.00443432
0.00443155
0.00442659
0.00429915
0.00429881
0.00430045
0.0043041
0.00431496
0.00434016
0.00439238
0.00449004
0.00465852
0.00492882
0.00533779
0.00593203
0.00676686
0.00784199
0.00834852
0.00851327
0.00851918
0.00853793
0.00853624
0.008559
0.00855558
0.00859276
0.00858672
0.00862629
0.00862715
0.0086657
0.00867485
0.00870396
0.00871287
0.00871127
0.0086521
0.00835364
0.00743618
0.00576279
0.00478632
0.004499
0.00444627
0.00443383
0.00443183
0.00443123
0.0044317
0.00443269
0.00443518
0.00443794
0.00443982
0.0044412
0.00444213
0.00444207
0.00444193
0.00444067
0.00443839
0.00443565
0.00443216
0.00442699
0.00428953
0.00429006
0.00429189
0.00429809
0.00431454
0.00435098
0.00442263
0.00455095
0.00476306
0.00508884
0.0055531
0.00617465
0.00696156
0.00785246
0.00845817
0.00847573
0.00854638
0.00854335
0.00855918
0.00855679
0.00858065
0.00858168
0.00861779
0.00861918
0.00864852
0.00866396
0.0086886
0.00870241
0.00870349
0.00866712
0.00850371
0.00795928
0.00668914
0.0051953
0.0045929
0.00446205
0.00443649
0.00443198
0.00443156
0.0044327
0.00443449
0.00443561
0.00443887
0.00444083
0.00444221
0.00444378
0.00444384
0.00444403
0.00444347
0.0044418
0.00443937
0.00443602
0.00443276
0.00442632
0.00428025
0.00428048
0.00428306
0.00429166
0.0043131
0.00435868
0.00444864
0.00461022
0.00487361
0.00526293
0.00578913
0.00644696
0.00721554
0.00803109
0.00835544
0.00853159
0.00853586
0.00856864
0.00856694
0.00858698
0.00858277
0.00861071
0.00860893
0.00864157
0.00865226
0.00867969
0.00869043
0.00869529
0.00868037
0.00860065
0.00826166
0.00737015
0.00577972
0.0047081
0.00454028
0.00443497
0.00443352
0.00443131
0.00443233
0.00443474
0.00443617
0.00443845
0.00444213
0.00444198
0.00444492
0.00444495
0.00444587
0.00444587
0.00444462
0.00444279
0.0044409
0.0044365
0.00443317
0.00442573
0.0042706
0.00427065
0.00427358
0.00428396
0.00430897
0.00436097
0.00445987
0.00463822
0.00493565
0.00538501
0.0059947
0.00670642
0.00741683
0.00804172
0.00850569
0.00846532
0.00856153
0.00856369
0.00858436
0.00858171
0.00860808
0.00860532
0.00863982
0.00864354
0.00866669
0.00867692
0.00868031
0.00866899
0.00859449
0.00831718
0.00769528
0.00625116
0.00487001
0.0046331
0.00444762
0.00443762
0.00443086
0.00443093
0.00443462
0.00443772
0.00443768
0.00444198
0.00444209
0.00444558
0.0044455
0.00444676
0.00444693
0.00444682
0.00444513
0.00444406
0.00444057
0.00443718
0.00443274
0.00442487
0.00426135
0.00426097
0.00426327
0.00427352
0.0042986
0.00435177
0.00445584
0.00464345
0.00495429
0.00542889
0.00608653
0.00689332
0.00772312
0.00819953
0.00846825
0.00850833
0.00853705
0.00858785
0.00858644
0.00861431
0.00861196
0.00863578
0.00863615
0.00864757
0.00865349
0.00864755
0.00860683
0.0084944
0.00823194
0.00771008
0.00620489
0.00517784
0.0045704
0.00451437
0.00443624
0.00443262
0.00442995
0.00443284
0.00443625
0.00443778
0.00444036
0.00444349
0.00444374
0.00444585
0.00444646
0.00444696
0.00444715
0.00444633
0.00444478
0.00444373
0.0044398
0.00443773
0.00443111
0.00442613
0.0042528
0.00425213
0.00425276
0.00425998
0.00427846
0.0043193
0.00440408
0.00456949
0.00486686
0.00535328
0.00606123
0.0069449
0.0077451
0.00842706
0.00840512
0.00850479
0.00852987
0.00857072
0.00860355
0.00860512
0.00862014
0.00861965
0.00862216
0.00861626
0.00857946
0.00850097
0.00833744
0.00802723
0.00741283
0.00570658
0.00520849
0.00470843
0.00446333
0.0044664
0.00443076
0.00443017
0.00442957
0.00443475
0.00443589
0.00443955
0.00444076
0.00444302
0.00444424
0.0044453
0.0044458
0.00444616
0.0044461
0.00444484
0.00444365
0.00444186
0.00443857
0.00443603
0.00443015
0.00442435
0.0042465
0.00424532
0.00424552
0.00425119
0.00426566
0.00429686
0.00436064
0.00448429
0.004712
0.00510688
0.0057356
0.00662384
0.00765118
0.00825301
0.00843545
0.00840526
0.00855574
0.00855973
0.00859123
0.00859311
0.00859464
0.00858337
0.00854356
0.0084614
0.00828577
0.00795813
0.00731595
0.0062323
0.00523449
0.00520678
0.00461465
0.00451803
0.00443893
0.00443742
0.00442752
0.00442734
0.00443033
0.00443421
0.00443604
0.00443802
0.00444085
0.00444173
0.00444308
0.00444361
0.00444384
0.00444403
0.0044435
0.00444179
0.00444104
0.00443831
0.00443627
0.00443319
0.00442861
0.00442165
0.00424133
0.00424034
0.0042398
0.00424341
0.0042524
0.00427166
0.00431124
0.00438945
0.0045383
0.00480736
0.00525983
0.00595699
0.00691202
0.00779693
0.00837698
0.00842743
0.00843588
0.00849139
0.0085294
0.00851329
0.00846679
0.00835734
0.00814977
0.00774843
0.00705047
0.00612119
0.00549905
0.0051136
0.00472154
0.00471287
0.00447418
0.0044522
0.00442603
0.0044251
0.00442319
0.00442611
0.00443059
0.00443317
0.00443439
0.00443677
0.00443827
0.00443919
0.00444006
0.00444017
0.00443998
0.00443981
0.00443837
0.00443691
0.00443589
0.00443351
0.00443241
0.00442925
0.00442553
0.00441964
0.00423906
0.00423762
0.0042371
0.00423943
0.00424533
0.00425671
0.00427893
0.00432099
0.00440006
0.0045463
0.00480336
0.0052255
0.00585543
0.00667737
0.00753294
0.00807635
0.00817549
0.00817504
0.00819594
0.00808094
0.00785331
0.00736361
0.00659151
0.00586353
0.00537424
0.00504085
0.00479889
0.00459377
0.00458543
0.00445487
0.00444181
0.00442027
0.00441954
0.00441862
0.00442113
0.00442666
0.00442769
0.0044312
0.00443149
0.00443397
0.00443448
0.0044351
0.00443524
0.00443523
0.00443423
0.00443361
0.00443169
0.00443003
0.00442875
0.00442742
0.00442647
0.00442395
0.00442265
0.00441491
0.00423827
0.00423704
0.00423613
0.00423812
0.00424245
0.00424963
0.00426238
0.00428439
0.00432263
0.00439011
0.00450556
0.00469574
0.00498769
0.00539711
0.00589446
0.00637773
0.00671802
0.00677253
0.00671689
0.00652258
0.00602115
0.00545748
0.00511315
0.0048933
0.00472515
0.00456091
0.00456159
0.0044638
0.00446204
0.00441906
0.0044172
0.00441255
0.00441276
0.00441683
0.00442037
0.00442349
0.00442556
0.00442817
0.00442822
0.00442962
0.00442993
0.00442966
0.00442915
0.00442817
0.00442627
0.00442483
0.00442234
0.00442079
0.00441958
0.00441918
0.00441914
0.00441812
0.00441752
0.00441298
0.00423986
0.0042385
0.00423754
0.00423945
0.00424243
0.00424777
0.00425595
0.0042681
0.00428681
0.00431693
0.00436498
0.00444121
0.00455498
0.00470996
0.00489422
0.00508114
0.00517654
0.00520911
0.00519872
0.00509997
0.00487005
0.00467325
0.00460789
0.00451034
0.00451092
0.00444731
0.00444748
0.00441481
0.00441326
0.0044052
0.00440479
0.00440744
0.00441077
0.00441501
0.00441751
0.00442055
0.00442298
0.00442306
0.00442418
0.00442434
0.00442358
0.00442238
0.00442124
0.00441883
0.00441696
0.00441383
0.0044114
0.00441012
0.00440936
0.00441006
0.00441092
0.00441197
0.0044155
0.0044171
0.00424366
0.00424196
0.00424135
0.00424293
0.00424568
0.00424931
0.00425532
0.00426311
0.00427363
0.0042877
0.00430757
0.00433635
0.0043764
0.00442813
0.00448596
0.00454329
0.00457486
0.00458609
0.00458081
0.00454794
0.0044881
0.00443578
0.00444252
0.00441626
0.00441591
0.0044003
0.00439885
0.00439517
0.00439544
0.00439702
0.00440146
0.00440502
0.00440954
0.00441282
0.0044161
0.00441826
0.00441886
0.00441918
0.00441956
0.00441905
0.00441726
0.00441555
0.00441323
0.00440989
0.00440668