/*--------------------------------*- C++ -*----------------------------------*\
  =========                 |
  \\      /  F ield         | OpenFOAM: The Open Source CFD Toolbox
   \\    /   O peration     | Website:  https://openfoam.org
    \\  /    A nd           | Version:  10
     \\/     M anipulation  |
\*---------------------------------------------------------------------------*/
FoamFile
{
    format      ascii;
    class       volVectorField;
    location    "0.350779";
    object      U;
}
// * * * * * * * * * * * * * * * * * * * * * * * * * * * * * * * * * * * * * //

dimensions      [0 1 -1 0 0 0 0];

internalField   nonuniform List<vector> 
15984
(
(0.575104 -0.0754223 0)
(0.574242 -0.0761433 0)
(0.572266 -0.0761365 0)
(0.569218 -0.075405 0)
(0.565118 -0.0739431 0)
(0.560072 -0.0717774 0)
(0.554233 -0.0689629 0)
(0.547784 -0.0655759 0)
(0.540935 -0.0617101 0)
(0.533918 -0.0574779 0)
(0.526962 -0.0529932 0)
(0.520239 -0.0483719 0)
(0.513913 -0.0437236 0)
(0.508141 -0.0391528 0)
(0.503007 -0.0347655 0)
(0.498552 -0.030634 0)
(0.494757 -0.0268102 0)
(0.491572 -0.0233216 0)
(0.488899 -0.020221 0)
(0.48664 -0.0175019 0)
(0.484692 -0.0152052 0)
(0.482933 -0.0133233 0)
(0.481243 -0.0118773 0)
(0.47951 -0.010847 0)
(0.477619 -0.010228 0)
(0.475467 -0.0100108 0)
(0.472952 -0.0101764 0)
(0.469996 -0.010708 0)
(0.466517 -0.0115749 0)
(0.46246 -0.0127355 0)
(0.457895 -0.0141557 0)
(0.452725 -0.0157614 0)
(0.446867 -0.0175364 0)
(0.44039 -0.019358 0)
(0.433278 -0.0211975 0)
(0.425627 -0.0229822 0)
(0.417583 -0.0246675 0)
(0.409303 -0.0262314 0)
(0.400968 -0.0276255 0)
(0.392783 -0.0288526 0)
(0.384965 -0.0299045 0)
(0.377733 -0.0307889 0)
(0.37132 -0.0315164 0)
(0.365907 -0.0320945 0)
(0.36167 -0.0325237 0)
(0.358731 -0.0327931 0)
(0.357175 -0.0328786 0)
(0.357042 -0.0327452 0)
(0.358327 -0.0323485 0)
(0.360964 -0.0316354 0)
(0.364892 -0.0305517 0)
(0.369975 -0.0290385 0)
(0.376088 -0.0270456 0)
(0.383048 -0.0245283 0)
(0.574085 -0.068751 0)
(0.573846 -0.0693608 0)
(0.572528 -0.0692979 0)
(0.570169 -0.068564 0)
(0.56676 -0.067136 0)
(0.562379 -0.0650209 0)
(0.557151 -0.0622536 0)
(0.551235 -0.0588951 0)
(0.544823 -0.0550282 0)
(0.538129 -0.0507501 0)
(0.531368 -0.0461785 0)
(0.524736 -0.0414313 0)
(0.518392 -0.0366161 0)
(0.512487 -0.0318409 0)
(0.507122 -0.0272364 0)
(0.502374 -0.0228806 0)
(0.498248 -0.0188509 0)
(0.494675 -0.0151919 0)
(0.491599 -0.0119647 0)
(0.48892 -0.00917608 0)
(0.486538 -0.00687171 0)
(0.484334 -0.00503503 0)
(0.482202 -0.00368789 0)
(0.480023 -0.00284092 0)
(0.477691 -0.00250801 0)
(0.475112 -0.00267473 0)
(0.472197 -0.00331402 0)
(0.468862 -0.0043977 0)
(0.465041 -0.0058893 0)
(0.460679 -0.00774074 0)
(0.455858 -0.00990222 0)
(0.450487 -0.0123232 0)
(0.444502 -0.0149272 0)
(0.437975 -0.0176263 0)
(0.430877 -0.0203489 0)
(0.423311 -0.0230204 0)
(0.415405 -0.0255718 0)
(0.407306 -0.0279428 0)
(0.399195 -0.0300906 0)
(0.391242 -0.0319906 0)
(0.383667 -0.0336225 0)
(0.376675 -0.034986 0)
(0.370489 -0.0360935 0)
(0.365299 -0.0369481 0)
(0.361282 -0.0375613 0)
(0.358571 -0.0379303 0)
(0.357266 -0.0380449 0)
(0.357413 -0.0378811 0)
(0.359012 -0.037408 0)
(0.362017 -0.0365821 0)
(0.366355 -0.035356 0)
(0.371906 -0.033676 0)
(0.378525 -0.0314955 0)
(0.386024 -0.0287739 0)
(0.573206 -0.0621675 0)
(0.573524 -0.0626916 0)
(0.572814 -0.0626081 0)
(0.5711 -0.0619064 0)
(0.568358 -0.0605463 0)
(0.564635 -0.0585144 0)
(0.560029 -0.0558253 0)
(0.554673 -0.052523 0)
(0.548733 -0.048678 0)
(0.542405 -0.0443801 0)
(0.535899 -0.0397381 0)
(0.529397 -0.0348652 0)
(0.523076 -0.0298788 0)
(0.517072 -0.0248947 0)
(0.511501 -0.0200444 0)
(0.50646 -0.0154343 0)
(0.501966 -0.0111552 0)
(0.497981 -0.00728526 0)
(0.494455 -0.00386841 0)
(0.491307 -0.000929663 0)
(0.488427 0.00149079 0)
(0.485708 0.0033413 0)
(0.483043 0.00459979 0)
(0.480331 0.0052694 0)
(0.477475 0.00535636 0)
(0.474388 0.00486801 0)
(0.470979 0.00381894 0)
(0.46718 0.00223517 0)
(0.462937 0.000159087 0)
(0.458205 -0.00235601 0)
(0.453063 -0.00524054 0)
(0.447439 -0.00844372 0)
(0.441289 -0.0118709 0)
(0.434683 -0.0154376 0)
(0.427595 -0.0190503 0)
(0.420116 -0.0226167 0)
(0.412383 -0.0260499 0)
(0.404526 -0.0292702 0)
(0.396689 -0.0322215 0)
(0.389062 -0.0348559 0)
(0.381818 -0.0371498 0)
(0.375167 -0.039086 0)
(0.369307 -0.0406678 0)
(0.36444 -0.0419041 0)
(0.360732 -0.0428029 0)
(0.358335 -0.0433726 0)
(0.357344 -0.0436102 0)
(0.357829 -0.0435033 0)
(0.359789 -0.0430306 0)
(0.363198 -0.0421576 0)
(0.367981 -0.0408411 0)
(0.374023 -0.039034 0)
(0.381176 -0.0366924 0)
(0.38924 -0.0337759 0)
(0.572431 -0.0556627 0)
(0.573243 -0.056136 0)
(0.57309 -0.0560673 0)
(0.57198 -0.0554278 0)
(0.56988 -0.0541647 0)
(0.566811 -0.052247 0)
(0.56284 -0.0496691 0)
(0.558072 -0.0464571 0)
(0.552648 -0.0426643 0)
(0.546739 -0.0383703 0)
(0.540538 -0.0336754 0)
(0.534233 -0.0286989 0)
(0.52798 -0.023533 0)
(0.521921 -0.0183383 0)
(0.51617 -0.0132287 0)
(0.510842 -0.00832677 0)
(0.505977 -0.00377194 0)
(0.501563 0.00039499 0)
(0.497554 0.00408054 0)
(0.493862 0.00720091 0)
(0.490417 0.00972517 0)
(0.487103 0.0116231 0)
(0.483832 0.0128772 0)
(0.480512 0.0134583 0)
(0.477042 0.0133675 0)
(0.473342 0.0126049 0)
(0.469343 0.0111863 0)
(0.46499 0.00914503 0)
(0.460237 0.00652848 0)
(0.455057 0.00339402 0)
(0.449532 -0.000189344 0)
(0.443606 -0.00415142 0)
(0.437247 -0.00838618 0)
(0.430527 -0.012802 0)
(0.423427 -0.0172982 0)
(0.416046 -0.0217617 0)
(0.408499 -0.0260878 0)
(0.400909 -0.0301905 0)
(0.393415 -0.0339867 0)
(0.38616 -0.0374207 0)
(0.379332 -0.0404499 0)
(0.373102 -0.0430479 0)
(0.367668 -0.0452087 0)
(0.363211 -0.0469353 0)
(0.359908 -0.0482373 0)
(0.357896 -0.049122 0)
(0.357304 -0.0495952 0)
(0.358185 -0.0496482 0)
(0.360567 -0.0492722 0)
(0.364429 -0.0484359 0)
(0.369705 -0.0470998 0)
(0.37628 -0.0452207 0)
(0.384008 -0.0427525 0)
(0.392696 -0.0396567 0)
(0.571724 -0.0492035 0)
(0.572971 -0.0496591 0)
(0.573326 -0.0496428 0)
(0.572787 -0.049101 0)
(0.571302 -0.047972 0)
(0.56888 -0.0462052 0)
(0.565556 -0.0437777 0)
(0.561408 -0.0406932 0)
(0.556545 -0.0369874 0)
(0.551112 -0.032726 0)
(0.545277 -0.0280028 0)
(0.539234 -0.0229299 0)
(0.533116 -0.0176135 0)
(0.527043 -0.0121927 0)
(0.521171 -0.00680971 0)
(0.515576 -0.00159618 0)
(0.510344 0.00331513 0)
(0.505469 0.00779468 0)
(0.500923 0.0117468 0)
(0.496656 0.0151285 0)
(0.492574 0.0178611 0)
(0.488607 0.0198984 0)
(0.484645 0.0212067 0)
(0.480609 0.0217565 0)
(0.476425 0.0215334 0)
(0.472019 0.020543 0)
(0.467337 0.0188039 0)
(0.462337 0.0163494 0)
(0.45699 0.0132278 0)
(0.451283 0.00950487 0)
(0.445302 0.00526733 0)
(0.439011 0.000577433 0)
(0.432395 -0.00443861 0)
(0.42552 -0.00969046 0)
(0.418384 -0.0150573 0)
(0.411083 -0.0204141 0)
(0.403729 -0.0256455 0)
(0.396426 -0.0306482 0)
(0.389296 -0.0353346 0)
(0.382474 -0.0396264 0)
(0.376116 -0.0434694 0)
(0.370382 -0.0468241 0)
(0.365446 -0.0496751 0)
(0.361487 -0.0520134 0)
(0.358667 -0.0538441 0)
(0.357135 -0.0551746 0)
(0.357012 -0.0560102 0)
(0.358364 -0.0563528 0)
(0.361236 -0.05619 0)
(0.365616 -0.0554931 0)
(0.371443 -0.0542257 0)
(0.37862 -0.0523506 0)
(0.386987 -0.0497964 0)
(0.396358 -0.0465497 0)
(0.571062 -0.0427818 0)
(0.572683 -0.0432591 0)
(0.573493 -0.0433346 0)
(0.573485 -0.0429332 0)
(0.572592 -0.0419757 0)
(0.570808 -0.040398 0)
(0.568148 -0.0381573 0)
(0.564652 -0.0352383 0)
(0.560401 -0.0316566 0)
(0.555506 -0.0274625 0)
(0.550109 -0.0227343 0)
(0.544387 -0.0175851 0)
(0.538473 -0.0121278 0)
(0.532471 -0.00649001 0)
(0.526508 -0.000818809 0)
(0.520698 0.00473274 0)
(0.515102 0.00999725 0)
(0.509751 0.0148582 0)
(0.504654 0.0191793 0)
(0.499756 0.0228763 0)
(0.494983 0.0258893 0)
(0.490263 0.0281298 0)
(0.485521 0.029549 0)
(0.480684 0.0301269 0)
(0.475682 0.0298361 0)
(0.47047 0.0286763 0)
(0.465004 0.0266674 0)
(0.459261 0.0238454 0)
(0.453227 0.0202632 0)
(0.446915 0.0159927 0)
(0.440406 0.0111361 0)
(0.433686 0.00574499 0)
(0.426752 -2.16318e-05 0)
(0.419676 -0.00609365 0)
(0.412471 -0.0123097 0)
(0.405234 -0.0185524 0)
(0.39806 -0.0246927 0)
(0.39104 -0.0306167 0)
(0.38429 -0.0362281 0)
(0.377924 -0.041431 0)
(0.372074 -0.0461624 0)
(0.366886 -0.0503716 0)
(0.362517 -0.0540211 0)
(0.359126 -0.0570984 0)
(0.356871 -0.0595987 0)
(0.355892 -0.061523 0)
(0.356317 -0.0628733 0)
(0.35822 -0.0636524 0)
(0.361661 -0.0638397 0)
(0.366637 -0.0634098 0)
(0.373094 -0.0623236 0)
(0.380964 -0.060536 0)
(0.390056 -0.057982 0)
(0.400203 -0.0546167 0)
(0.57041 -0.036383 0)
(0.572337 -0.0369252 0)
(0.573555 -0.0371328 0)
(0.574042 -0.0369154 0)
(0.573722 -0.0361698 0)
(0.572571 -0.0348218 0)
(0.570583 -0.0328087 0)
(0.567771 -0.0300966 0)
(0.564179 -0.0266817 0)
(0.55989 -0.0225936 0)
(0.555005 -0.0178977 0)
(0.549684 -0.0126928 0)
(0.544049 -0.00709969 0)
(0.538181 -0.00125261 0)
(0.532215 0.00471527 0)
(0.526217 0.0106083 0)
(0.520299 0.016283 0)
(0.514488 0.0215697 0)
(0.508789 0.0263315 0)
(0.503226 0.0304249 0)
(0.4977 0.0337776 0)
(0.49215 0.0362906 0)
(0.486537 0.0379064 0)
(0.480796 0.0385728 0)
(0.474876 0.0382799 0)
(0.468748 0.0370073 0)
(0.462396 0.0347837 0)
(0.455808 0.0316441 0)
(0.448994 0.0276472 0)
(0.441992 0.0228733 0)
(0.434869 0.0174365 0)
(0.427652 0.0113816 0)
(0.420339 0.00488196 0)
(0.413009 -0.00198073 0)
(0.405703 -0.00903418 0)
(0.398487 -0.01615 0)
(0.391468 -0.0232109 0)
(0.384721 -0.0300754 0)
(0.378343 -0.0366411 0)
(0.372439 -0.0428072 0)
(0.367117 -0.0484975 0)
(0.362508 -0.0536502 0)
(0.358747 -0.0582162 0)
(0.355978 -0.062167 0)
(0.354349 -0.0654859 0)
(0.354001 -0.0681606 0)
(0.35505 -0.0701964 0)
(0.357588 -0.0715738 0)
(0.361688 -0.0722784 0)
(0.367348 -0.0722709 0)
(0.374548 -0.0715092 0)
(0.383192 -0.0699243 0)
(0.39314 -0.0674699 0)
(0.40419 -0.0640424 0)
(0.569728 -0.0299733 0)
(0.571902 -0.030629 0)
(0.573473 -0.0310161 0)
(0.574418 -0.0310292 0)
(0.574647 -0.0305516 0)
(0.57412 -0.0294823 0)
(0.572815 -0.027748 0)
(0.570716 -0.0252914 0)
(0.567836 -0.0220882 0)
(0.564218 -0.0181486 0)
(0.559935 -0.0135224 0)
(0.555104 -0.00828961 0)
(0.549823 -0.00257976 0)
(0.544191 0.00348616 0)
(0.538273 0.0097531 0)
(0.53217 0.0160189 0)
(0.52597 0.0221426 0)
(0.519711 0.0278971 0)
(0.513429 0.0331638 0)
(0.507132 0.0377432 0)
(0.500789 0.0415164 0)
(0.49434 0.0443843 0)
(0.487754 0.0462654 0)
(0.481009 0.0471072 0)
(0.474061 0.04687 0)
(0.466907 0.0455516 0)
(0.459558 0.0431708 0)
(0.452019 0.0397619 0)
(0.444327 0.035397 0)
(0.436547 0.0301689 0)
(0.428734 0.0241721 0)
(0.420932 0.0174947 0)
(0.413177 0.0102838 0)
(0.40553 0.00267523 0)
(0.398079 -0.0052156 0)
(0.390845 -0.0132059 0)
(0.383936 -0.0211728 0)
(0.377434 -0.0289939 0)
(0.371411 -0.0365445 0)
(0.365953 -0.0437265 0)
(0.361155 -0.0504478 0)
(0.357129 -0.0566341 0)
(0.353998 -0.0622295 0)
(0.351891 -0.0671861 0)
(0.350942 -0.0714752 0)
(0.351282 -0.0750786 0)
(0.353025 -0.0779785 0)
(0.356286 -0.0801507 0)
(0.361128 -0.0815631 0)
(0.367583 -0.0821682 0)
(0.375632 -0.0819044 0)
(0.385197 -0.0806892 0)
(0.396142 -0.0784356 0)
(0.408263 -0.0750459 0)
(0.568967 -0.0235502 0)
(0.571326 -0.0243743 0)
(0.573196 -0.0249993 0)
(0.574553 -0.0252995 0)
(0.575309 -0.0251443 0)
(0.575402 -0.0244128 0)
(0.574789 -0.0230072 0)
(0.573437 -0.0208574 0)
(0.571323 -0.0179138 0)
(0.568451 -0.0141677 0)
(0.564855 -0.00964602 0)
(0.560613 -0.00442092 0)
(0.555801 0.0013909 0)
(0.550489 0.00767497 0)
(0.544718 0.0142489 0)
(0.538574 0.0209497 0)
(0.532146 0.0275445 0)
(0.525482 0.0338494 0)
(0.518612 0.0396645 0)
(0.51156 0.0447944 0)
(0.504328 0.0490922 0)
(0.496888 0.0524039 0)
(0.489247 0.0546453 0)
(0.481381 0.0557361 0)
(0.473289 0.0556354 0)
(0.465 0.054337 0)
(0.456533 0.0518516 0)
(0.447933 0.0482313 0)
(0.43927 0.0435499 0)
(0.430605 0.0379034 0)
(0.422006 0.0313755 0)
(0.413552 0.0240986 0)
(0.405292 0.0162004 0)
(0.397272 0.00784525 0)
(0.389586 -0.000843525 0)
(0.382302 -0.0096975 0)
(0.375466 -0.0185725 0)
(0.369154 -0.0273583 0)
(0.363439 -0.0359297 0)
(0.358393 -0.0441739 0)
(0.354097 -0.0519914 0)
(0.350646 -0.0592994 0)
(0.348146 -0.066029 0)
(0.346713 -0.0721265 0)
(0.346468 -0.0775449 0)
(0.347538 -0.0822574 0)
(0.350044 -0.0862195 0)
(0.354097 -0.0893962 0)
(0.359779 -0.0917378 0)
(0.367138 -0.0931769 0)
(0.376169 -0.0936233 0)
(0.386813 -0.0929685 0)
(0.398941 -0.0910901 0)
(0.412347 -0.0878579 0)
(0.568072 -0.0170914 0)
(0.570547 -0.0181489 0)
(0.572663 -0.0190772 0)
(0.574395 -0.0197307 0)
(0.575646 -0.0199608 0)
(0.576357 -0.019631 0)
(0.576453 -0.0186194 0)
(0.57588 -0.0168313 0)
(0.574587 -0.0142024 0)
(0.57254 -0.0106972 0)
(0.569729 -0.00632399 0)
(0.566177 -0.00113415 0)
(0.561954 0.00475795 0)
(0.557075 0.0112592 0)
(0.551568 0.0181675 0)
(0.545481 0.0253216 0)
(0.538883 0.0324688 0)
(0.531844 0.0393869 0)
(0.524387 0.0458307 0)
(0.516576 0.0516087 0)
(0.508412 0.0565045 0)
(0.499903 0.0603645 0)
(0.49109 0.0630601 0)
(0.48199 0.0644898 0)
(0.472636 0.0646081 0)
(0.463075 0.0633984 0)
(0.453373 0.0608709 0)
(0.443606 0.0570883 0)
(0.433853 0.0521238 0)
(0.424193 0.0460759 0)
(0.414718 0.0390605 0)
(0.405522 0.0312122 0)
(0.396672 0.0226634 0)
(0.38823 0.0135779 0)
(0.380261 0.00411144 0)
(0.372859 -0.00560418 0)
(0.366032 -0.0154116 0)
(0.359851 -0.0251787 0)
(0.354389 -0.0347914 0)
(0.349706 -0.0441357 0)
(0.345867 -0.0531076 0)
(0.342955 -0.0616184 0)
(0.34106 -0.0695898 0)
(0.340292 -0.0769607 0)
(0.340758 -0.0836757 0)
(0.342582 -0.0896741 0)
(0.345891 -0.0949112 0)
(0.3508 -0.0993243 0)
(0.357406 -0.102843 0)
(0.365779 -0.105371 0)
(0.375937 -0.106787 0)
(0.387838 -0.106938 0)
(0.401364 -0.105655 0)
(0.416311 -0.102753 0)
(0.56698 -0.0105872 0)
(0.569498 -0.0119578 0)
(0.571801 -0.0132692 0)
(0.573867 -0.0143524 0)
(0.575596 -0.015044 0)
(0.576912 -0.0151867 0)
(0.577738 -0.01464 0)
(0.577982 -0.0132823 0)
(0.577569 -0.0110248 0)
(0.57643 -0.00781144 0)
(0.574508 -0.0036284 0)
(0.571775 0.00149608 0)
(0.568261 0.00747137 0)
(0.563955 0.0141682 0)
(0.558829 0.0214413 0)
(0.552917 0.0290904 0)
(0.546248 0.036861 0)
(0.538877 0.0444742 0)
(0.530865 0.051667 0)
(0.522262 0.0581889 0)
(0.513107 0.0637951 0)
(0.503459 0.0683059 0)
(0.493377 0.0715524 0)
(0.482918 0.0734224 0)
(0.472164 0.0738412 0)
(0.461202 0.0727908 0)
(0.450129 0.0702881 0)
(0.439056 0.0663859 0)
(0.428088 0.0611717 0)
(0.417335 0.0547561 0)
(0.406901 0.047276 0)
(0.396885 0.0388689 0)
(0.387367 0.0296852 0)
(0.378418 0.0198834 0)
(0.370099 0.00962305 0)
(0.362473 -0.000950186 0)
(0.355598 -0.0116921 0)
(0.349496 -0.0224563 0)
(0.344223 -0.0331348 0)
(0.339836 -0.0436165 0)
(0.336394 -0.0537966 0)
(0.333964 -0.0635821 0)
(0.332628 -0.0728902 0)
(0.332476 -0.0816558 0)
(0.333633 -0.089815 0)
(0.336213 -0.0972968 0)
(0.34034 -0.104026 0)
(0.346147 -0.109928 0)
(0.353748 -0.114899 0)
(0.363236 -0.118817 0)
(0.374663 -0.121511 0)
(0.388009 -0.122775 0)
(0.40317 -0.122372 0)
(0.419947 -0.120041 0)
(0.565591 -0.00402426 0)
(0.568082 -0.00579404 0)
(0.570522 -0.00757515 0)
(0.572879 -0.0091798 0)
(0.575062 -0.0104225 0)
(0.576985 -0.0111241 0)
(0.578554 -0.0111221 0)
(0.579664 -0.010273 0)
(0.580204 -0.00845732 0)
(0.580063 -0.00559529 0)
(0.579145 -0.00164511 0)
(0.577375 0.00338179 0)
(0.57471 0.00942626 0)
(0.571114 0.0163346 0)
(0.566549 0.0240074 0)
(0.560948 0.0322042 0)
(0.554307 0.0406688 0)
(0.546684 0.0490919 0)
(0.53813 0.0571432 0)
(0.528725 0.0645418 0)
(0.518542 0.0709965 0)
(0.507662 0.0762818 0)
(0.496191 0.0801981 0)
(0.484242 0.0826028 0)
(0.471942 0.0834145 0)
(0.459427 0.0825946 0)
(0.446837 0.0801652 0)
(0.434319 0.0761869 0)
(0.422014 0.0707596 0)
(0.410053 0.0640073 0)
(0.398557 0.056077 0)
(0.387633 0.0471214 0)
(0.377368 0.0373026 0)
(0.367836 0.0267829 0)
(0.359095 0.0157246 0)
(0.351181 0.00428456 0)
(0.344183 -0.00740559 0)
(0.338075 -0.0191941 0)
(0.33291 -0.0309679 0)
(0.32874 -0.0426197 0)
(0.325613 -0.0540529 0)
(0.323592 -0.0651748 0)
(0.322739 -0.0759086 0)
(0.323148 -0.0861826 0)
(0.324933 -0.0959235 0)
(0.328227 -0.105067 0)
(0.333163 -0.113521 0)
(0.339875 -0.121178 0)
(0.348507 -0.127907 0)
(0.359188 -0.133549 0)
(0.372006 -0.137884 0)
(0.386968 -0.140629 0)
(0.403989 -0.141467 0)
(0.422866 -0.140022 0)
(0.563805 0.00263956 0)
(0.566198 0.000343075 0)
(0.568716 -0.00203071 0)
(0.571326 -0.00426775 0)
(0.573945 -0.00616344 0)
(0.576476 -0.00752434 0)
(0.578818 -0.00816014 0)
(0.580844 -0.00790257 0)
(0.582414 -0.00660681 0)
(0.583383 -0.00416112 0)
(0.583604 -0.000494774 0)
(0.582945 0.00441207 0)
(0.581294 0.0105097 0)
(0.5786 0.0176672 0)
(0.574747 0.0257845 0)
(0.569614 0.0345882 0)
(0.563159 0.0438521 0)
(0.555365 0.0532013 0)
(0.546319 0.0622622 0)
(0.536109 0.0706899 0)
(0.52483 0.0781505 0)
(0.512629 0.0843576 0)
(0.499646 0.0890755 0)
(0.486058 0.0921355 0)
(0.47205 0.09343 0)
(0.457812 0.0929145 0)
(0.443542 0.0906123 0)
(0.429429 0.0865941 0)
(0.415646 0.0809709 0)
(0.402352 0.0738848 0)
(0.389683 0.0654978 0)
(0.377754 0.0559813 0)
(0.366659 0.0455107 0)
(0.356465 0.0342584 0)
(0.347224 0.0223894 0)
(0.338968 0.010062 0)
(0.331747 -0.00258476 0)
(0.325563 -0.0154061 0)
(0.320431 -0.0282926 0)
(0.31639 -0.0411417 0)
(0.313486 -0.0538671 0)
(0.311772 -0.0663801 0)
(0.311307 -0.0786137 0)
(0.312183 -0.0904955 0)
(0.314515 -0.101958 0)
(0.318435 -0.112927 0)
(0.324109 -0.123319 0)
(0.331701 -0.133009 0)
(0.341363 -0.141833 0)
(0.353265 -0.149566 0)
(0.367539 -0.155943 0)
(0.384212 -0.160594 0)
(0.403194 -0.163084 0)
(0.42427 -0.162898 0)
(0.561511 0.00938937 0)
(0.563725 0.00645763 0)
(0.566257 0.00336884 0)
(0.56909 0.000367325 0)
(0.572127 -0.00231758 0)
(0.575274 -0.00445736 0)
(0.578419 -0.00584526 0)
(0.581419 -0.00628294 0)
(0.58411 -0.00559607 0)
(0.586307 -0.0036424 0)
(0.587826 -0.000316271 0)
(0.588463 0.00442968 0)
(0.588028 0.0105763 0)
(0.58643 0.0180368 0)
(0.583493 0.0266406 0)
(0.579025 0.0361686 0)
(0.572915 0.0463427 0)
(0.565074 0.0567874 0)
(0.555586 0.0670131 0)
(0.544567 0.0766766 0)
(0.532148 0.0853282 0)
(0.518506 0.0926377 0)
(0.503868 0.0983151 0)
(0.48847 0.10216 0)
(0.472564 0.104035 0)
(0.456417 0.103896 0)
(0.440284 0.101766 0)
(0.424404 0.0977265 0)
(0.408989 0.0919081 0)
(0.394225 0.0844742 0)
(0.380266 0.075609 0)
(0.367233 0.0655037 0)
(0.355217 0.05435 0)
(0.34428 0.0423308 0)
(0.334464 0.0296216 0)
(0.325791 0.0163809 0)
(0.318257 0.00276483 0)
(0.311945 -0.0111208 0)
(0.306762 -0.0251402 0)
(0.302759 -0.0392035 0)
(0.299976 -0.0532468 0)
(0.298459 -0.0671882 0)
(0.298264 -0.0809732 0)
(0.299485 -0.094543 0)
(0.302239 -0.107841 0)
(0.306674 -0.120799 0)
(0.312967 -0.133324 0)
(0.321317 -0.145303 0)
(0.331944 -0.156555 0)
(0.345025 -0.166778 0)
(0.360694 -0.175628 0)
(0.378968 -0.18258 0)
(0.39971 -0.187115 0)
(0.422658 -0.188551 0)
(0.558549 0.0162466 0)
(0.560504 0.012514 0)
(0.563001 0.00855565 0)
(0.566012 0.00464763 0)
(0.569461 0.00103592 0)
(0.57324 -0.00202754 0)
(0.577233 -0.00429885 0)
(0.581283 -0.0055529 0)
(0.585197 -0.00558307 0)
(0.588769 -0.00420728 0)
(0.591752 -0.00128744 0)
(0.593887 0.00325445 0)
(0.594927 0.00945478 0)
(0.594674 0.0172502 0)
(0.592867 0.0264258 0)
(0.589285 0.0368199 0)
(0.583728 0.048046 0)
(0.57597 0.0597717 0)
(0.566131 0.0714433 0)
(0.554329 0.0825513 0)
(0.540678 0.0926267 0)
(0.525484 0.101249 0)
(0.509016 0.108074 0)
(0.491602 0.112846 0)
(0.473578 0.115413 0)
(0.455297 0.11572 0)
(0.437085 0.113793 0)
(0.419241 0.109733 0)
(0.402021 0.103696 0)
(0.385641 0.095876 0)
(0.370269 0.0864838 0)
(0.356029 0.075737 0)
(0.343007 0.0638462 0)
(0.331252 0.0510123 0)
(0.320792 0.0374193 0)
(0.311631 0.0232338 0)
(0.303753 0.0086032 0)
(0.297196 -0.00636178 0)
(0.291884 -0.0215202 0)
(0.287823 -0.0368119 0)
(0.285048 -0.0521806 0)
(0.28361 -0.0675707 0)
(0.283552 -0.0829421 0)
(0.28497 -0.0982578 0)
(0.287989 -0.11348 0)
(0.292776 -0.128558 0)
(0.299525 -0.143408 0)
(0.308456 -0.157917 0)
(0.319848 -0.171874 0)
(0.333887 -0.184933 0)
(0.350679 -0.196618 0)
(0.370045 -0.206138 0)
(0.391682 -0.213002 0)
(0.415399 -0.216161 0)
(0.554745 0.0232434 0)
(0.556363 0.0185255 0)
(0.558763 0.0135133 0)
(0.561933 0.00851096 0)
(0.565783 0.00380168 0)
(0.570221 -0.000344546 0)
(0.575114 -0.00365512 0)
(0.580297 -0.00587096 0)
(0.585567 -0.00674764 0)
(0.590671 -0.0060624 0)
(0.595321 -0.00362902 0)
(0.599215 0.000664486 0)
(0.602009 0.00691957 0)
(0.60336 0.0150783 0)
(0.602999 0.0249725 0)
(0.60056 0.0363768 0)
(0.595766 0.048909 0)
(0.588353 0.0621368 0)
(0.578227 0.0755136 0)
(0.565594 0.0883884 0)
(0.550677 0.100158 0)
(0.53377 0.110374 0)
(0.51526 0.118557 0)
(0.495578 0.12443 0)
(0.475175 0.127804 0)
(0.454494 0.128614 0)
(0.433952 0.126902 0)
(0.413917 0.122796 0)
(0.394699 0.116488 0)
(0.376542 0.108209 0)
(0.359627 0.0982056 0)
(0.344078 0.0867303 0)
(0.329968 0.0740216 0)
(0.317331 0.0603006 0)
(0.306168 0.0457641 0)
(0.296463 0.0305865 0)
(0.288175 0.0149144 0)
(0.281281 -0.00113194 0)
(0.275796 -0.0174537 0)
(0.271587 -0.0339823 0)
(0.268714 -0.0506717 0)
(0.267222 -0.067508 0)
(0.267151 -0.0844736 0)
(0.268596 -0.101561 0)
(0.27169 -0.118763 0)
(0.276617 -0.136054 0)
(0.283583 -0.153374 0)
(0.292835 -0.170605 0)
(0.30466 -0.187473 0)
(0.319153 -0.203538 0)
(0.336341 -0.218149 0)
(0.355507 -0.230122 0)
(0.376212 -0.239161 0)
(0.39841 -0.243389 0)
(0.549881 0.0303932 0)
(0.551085 0.0244657 0)
(0.553342 0.0181912 0)
(0.556642 0.0118955 0)
(0.560903 0.00588392 0)
(0.566029 0.000463774 0)
(0.571887 -0.00407115 0)
(0.578305 -0.00742151 0)
(0.585067 -0.00930683 0)
(0.591901 -0.00944575 0)
(0.598451 -0.00760041 0)
(0.604381 -0.00362874 0)
(0.60926 0.00267416 0)
(0.612619 0.0112632 0)
(0.61403 0.022018 0)
(0.613055 0.0346139 0)
(0.60929 0.0487509 0)
(0.602353 0.063802 0)
(0.592145 0.0792238 0)
(0.578728 0.094257 0)
(0.562407 0.108118 0)
(0.543616 0.120231 0)
(0.52279 0.130041 0)
(0.500542 0.137208 0)
(0.477424 0.141502 0)
(0.454021 0.142867 0)
(0.430853 0.141361 0)
(0.408371 0.137149 0)
(0.386936 0.130471 0)
(0.366826 0.121611 0)
(0.348236 0.110868 0)
(0.331282 0.0985409 0)
(0.316016 0.0849012 0)
(0.302444 0.0701969 0)
(0.290538 0.0546393 0)
(0.28025 0.0384128 0)
(0.271516 0.021664 0)
(0.264241 0.00452235 0)
(0.258498 -0.0129695 0)
(0.254061 -0.0307131 0)
(0.250989 -0.0487074 0)
(0.24931 -0.0669659 0)
(0.249069 -0.0855057 0)
(0.250353 -0.104354 0)
(0.253304 -0.123548 0)
(0.25811 -0.143093 0)
(0.26498 -0.162956 0)
(0.274165 -0.182976 0)
(0.285871 -0.202778 0)
(0.299904 -0.221631 0)
(0.316086 -0.238847 0)
(0.33269 -0.25246 0)
(0.349502 -0.262312 0)
(0.365822 -0.266128 0)
(0.543711 0.0377218 0)
(0.544432 0.0303349 0)
(0.546511 0.0225444 0)
(0.549919 0.0147209 0)
(0.5546 0.00717824 0)
(0.560453 0.00026103 0)
(0.567347 -0.00571625 0)
(0.575114 -0.0104039 0)
(0.583534 -0.01351 0)
(0.592312 -0.0146498 0)
(0.601018 -0.0135273 0)
(0.609297 -0.00993117 0)
(0.616672 -0.00362121 0)
(0.622403 0.00545871 0)
(0.625986 0.017226 0)
(0.626865 0.0312888 0)
(0.624476 0.0473204 0)
(0.618322 0.0646633 0)
(0.60817 0.0826201 0)
(0.593981 0.100285 0)
(0.576161 0.116653 0)
(0.555222 0.131118 0)
(0.531785 0.142844 0)
(0.506594 0.15156 0)
(0.480386 0.156905 0)
(0.453888 0.158856 0)
(0.427739 0.157506 0)
(0.402496 0.15307 0)
(0.378595 0.145861 0)
(0.356347 0.136239 0)
(0.335949 0.124574 0)
(0.317502 0.111221 0)
(0.301027 0.0964971 0)
(0.286492 0.0806809 0)
(0.273826 0.064005 0)
(0.26294 0.0466605 0)
(0.253739 0.0287969 0)
(0.246087 0.0105244 0)
(0.239998 -0.00810698 0)
(0.235276 -0.0270329 0)
(0.231907 -0.0462881 0)
(0.229917 -0.065916 0)
(0.22935 -0.0859709 0)
(0.23028 -0.106527 0)
(0.232844 -0.12767 0)
(0.237222 -0.149435 0)
(0.243599 -0.171786 0)
(0.252155 -0.194457 0)
(0.262917 -0.216831 0)
(0.274861 -0.237772 0)
(0.287625 -0.256272 0)
(0.298418 -0.269884 0)
(0.307213 -0.277179 0)
(0.314672 -0.2794 0)
(0.535947 0.0452075 0)
(0.536119 0.0360878 0)
(0.537987 0.0265006 0)
(0.541508 0.0168907 0)
(0.54663 0.00755771 0)
(0.553253 -0.00110673 0)
(0.56127 -0.00877545 0)
(0.570492 -0.0150804 0)
(0.580715 -0.0196135 0)
(0.591681 -0.0219862 0)
(0.60283 -0.0218297 0)
(0.613766 -0.0187035 0)
(0.62389 -0.012408 0)
(0.632516 -0.0027157 0)
(0.638692 0.0102612 0)
(0.641799 0.0261742 0)
(0.641194 0.0444281 0)
(0.636139 0.0645756 0)
(0.626273 0.0856851 0)
(0.611349 0.106481 0)
(0.591959 0.126106 0)
(0.568674 0.143322 0)
(0.542255 0.157473 0)
(0.513751 0.167931 0)
(0.483968 0.174467 0)
(0.453938 0.177019 0)
(0.424418 0.175725 0)
(0.396083 0.170885 0)
(0.369454 0.162911 0)
(0.344882 0.152271 0)
(0.322563 0.139431 0)
(0.302564 0.124822 0)
(0.284859 0.108816 0)
(0.269363 0.0917301 0)
(0.255954 0.0738163 0)
(0.244489 0.0552739 0)
(0.234824 0.0362509 0)
(0.226795 0.0168449 0)
(0.220317 -0.00289523 0)
(0.215292 -0.0229637 0)
(0.211545 -0.0434108 0)
(0.209132 -0.0643186 0)
(0.208092 -0.0857918 0)
(0.20847 -0.107959 0)
(0.210389 -0.130936 0)
(0.21398 -0.154774 0)
(0.219351 -0.179355 0)
(0.22649 -0.204184 0)
(0.234888 -0.228247 0)
(0.242447 -0.249822 0)
(0.248186 -0.266497 0)
(0.249732 -0.277398 0)
(0.246686 -0.280048 0)
(0.239899 -0.286756 0)
(0.526275 0.0528543 0)
(0.525855 0.0417115 0)
(0.527497 0.0299671 0)
(0.53113 0.0183187 0)
(0.536721 0.00687722 0)
(0.544153 -0.0037535 0)
(0.553337 -0.0134457 0)
(0.564132 -0.0215806 0)
(0.576328 -0.0278504 0)
(0.589531 -0.0316797 0)
(0.603306 -0.0327648 0)
(0.617089 -0.0302636 0)
(0.630225 -0.0240889 0)
(0.641806 -0.0137568 0)
(0.650918 0.000583104 0)
(0.656584 0.018723 0)
(0.658108 0.039759 0)
(0.65471 0.0632628 0)
(0.645338 0.0882025 0)
(0.630007 0.11289 0)
(0.609098 0.136566 0)
(0.583261 0.157141 0)
(0.553664 0.174253 0)
(0.521404 0.186808 0)
(0.487755 0.194694 0)
(0.453782 0.197834 0)
(0.420488 0.196452 0)
(0.388722 0.190945 0)
(0.359114 0.181876 0)
(0.33206 0.169866 0)
(0.307743 0.155514 0)
(0.286181 0.13935 0)
(0.26728 0.121816 0)
(0.250884 0.103268 0)
(0.236799 0.0839798 0)
(0.224817 0.0641548 0)
(0.214743 0.0439359 0)
(0.20637 0.0234002 0)
(0.199482 0.00259273 0)
(0.194189 -0.0185738 0)
(0.190007 -0.0400999 0)
(0.187083 -0.0621535 0)
(0.185437 -0.0849006 0)
(0.185076 -0.108516 0)
(0.186071 -0.133113 0)
(0.188457 -0.158698 0)
(0.192161 -0.184954 0)
(0.196673 -0.210994 0)
(0.200567 -0.235043 0)
(0.201004 -0.254358 0)
(0.19531 -0.265362 0)
(0.184137 -0.271132 0)
(0.167824 -0.278407 0)
(0.158411 -0.286141 0)
(0.51432 0.0607132 0)
(0.513268 0.0470912 0)
(0.514685 0.03294 0)
(0.518467 0.0188778 0)
(0.524583 0.00507899 0)
(0.532841 -0.00792935 0)
(0.543252 -0.0198772 0)
(0.555657 -0.0301503 0)
(0.569765 -0.0383966 0)
(0.585103 -0.0439557 0)
(0.60127 -0.0462606 0)
(0.617591 -0.0446076 0)
(0.633159 -0.0386305 0)
(0.647307 -0.0277023 0)
(0.659072 -0.0120442 0)
(0.667386 0.00865798 0)
(0.671318 0.033086 0)
(0.66998 0.0604778 0)
(0.661789 0.0900828 0)
(0.646674 0.120029 0)
(0.624677 0.14782 0)
(0.596611 0.173092 0)
(0.563991 0.193508 0)
(0.528014 0.208588 0)
(0.490349 0.218037 0)
(0.452289 0.221791 0)
(0.415052 0.220121 0)
(0.379679 0.213609 0)
(0.346973 0.203017 0)
(0.31739 0.189181 0)
(0.291095 0.172885 0)
(0.268045 0.154793 0)
(0.24806 0.135431 0)
(0.230891 0.115198 0)
(0.216258 0.0943844 0)
(0.203881 0.0731887 0)
(0.193491 0.0517397 0)
(0.184843 0.0300916 0)
(0.17766 0.00825287 0)
(0.17201 -0.0138914 0)
(0.167399 -0.0363646 0)
(0.163927 -0.0594147 0)
(0.161577 -0.0832475 0)
(0.160312 -0.108057 0)
(0.160085 -0.133903 0)
(0.160736 -0.16065 0)
(0.161776 -0.187641 0)
(0.162001 -0.213271 0)
(0.158476 -0.234423 0)
(0.14813 -0.24685 0)
(0.127807 -0.252436 0)
(0.105555 -0.257803 0)
(0.0912642 -0.268932 0)
(0.0850687 -0.278375 0)
(0.499634 0.0687086 0)
(0.497991 0.0521679 0)
(0.499264 0.035381 0)
(0.50321 0.0184447 0)
(0.50981 0.00201958 0)
(0.51895 -0.0137097 0)
(0.530591 -0.0281224 0)
(0.544447 -0.0408854 0)
(0.560049 -0.0511543 0)
(0.576882 -0.0584867 0)
(0.594301 -0.0619291 0)
(0.611515 -0.0611186 0)
(0.627993 -0.0553214 0)
(0.642804 -0.0438763 0)
(0.655498 -0.0273727 0)
(0.665698 -0.00437242 0)
(0.671887 0.0228727 0)
(0.673274 0.0546692 0)
(0.667764 0.0894311 0)
(0.653445 0.125825 0)
(0.631796 0.16052 0)
(0.603173 0.189952 0)
(0.568184 0.214396 0)
(0.529587 0.232848 0)
(0.488742 0.244407 0)
(0.447092 0.24892 0)
(0.406214 0.246826 0)
(0.367477 0.238951 0)
(0.331877 0.226356 0)
(0.299987 0.210176 0)
(0.271961 0.191448 0)
(0.24768 0.171011 0)
(0.226865 0.149496 0)
(0.209161 0.127343 0)
(0.194194 0.104848 0)
(0.181604 0.0821977 0)
(0.171058 0.0594981 0)
(0.162259 0.0367755 0)
(0.15489 0.0139878 0)
(0.148915 -0.00899189 0)
(0.143943 -0.0322743 0)
(0.139924 -0.0561325 0)
(0.136807 -0.0807934 0)
(0.134473 -0.106403 0)
(0.132637 -0.132907 0)
(0.130773 -0.159887 0)
(0.127782 -0.186149 0)
(0.121323 -0.208752 0)
(0.107002 -0.222093 0)
(0.0810651 -0.226105 0)
(0.0532251 -0.230565 0)
(0.0348009 -0.239583 0)
(0.0219025 -0.252644 0)
(0.0133711 -0.270486 0)
(0.481635 0.0766187 0)
(0.479584 0.0568912 0)
(0.480755 0.0369926 0)
(0.48491 0.0169622 0)
(0.492088 -0.0024161 0)
(0.502083 -0.0210947 0)
(0.514627 -0.0381268 0)
(0.529308 -0.0533053 0)
(0.545315 -0.0653426 0)
(0.561696 -0.0739413 0)
(0.57777 -0.078261 0)
(0.592627 -0.0771215 0)
(0.606139 -0.0710444 0)
(0.617291 -0.0597788 0)
(0.626999 -0.0422323 0)
(0.634769 -0.0188932 0)
(0.641966 0.0100436 0)
(0.64683 0.0437621 0)
(0.646136 0.0840446 0)
(0.637691 0.12506 0)
(0.618013 0.165013 0)
(0.590362 0.20707 0)
(0.557921 0.237418 0)
(0.519767 0.258587 0)
(0.477757 0.27263 0)
(0.434142 0.278497 0)
(0.390933 0.27618 0)
(0.349838 0.266682 0)
(0.312173 0.251621 0)
(0.278665 0.232567 0)
(0.249503 0.210904 0)
(0.224512 0.187705 0)
(0.203314 0.163719 0)
(0.185455 0.139424 0)
(0.170473 0.115118 0)
(0.157938 0.0909632 0)
(0.147455 0.0670242 0)
(0.138681 0.0432853 0)
(0.131277 0.0196541 0)
(0.125071 -0.00401666 0)
(0.119883 -0.0279406 0)
(0.115358 -0.0523573 0)
(0.111455 -0.0774733 0)
(0.107843 -0.103301 0)
(0.103831 -0.129535 0)
(0.0983239 -0.15535 0)
(0.0893157 -0.178594 0)
(0.0735335 -0.193441 0)
(0.0437864 -0.194445 0)
(0.0113064 -0.196917 0)
(-0.0131093 -0.205174 0)
(-0.0307518 -0.219499 0)
(-0.0459239 -0.240302 0)
(-0.0571522 -0.263948 0)
(0.459551 0.0842585 0)
(0.457408 0.0610468 0)
(0.458677 0.037654 0)
(0.463261 0.0143982 0)
(0.470895 -0.00823877 0)
(0.481473 -0.0299051 0)
(0.494219 -0.0493247 0)
(0.508153 -0.0662743 0)
(0.522064 -0.0789281 0)
(0.534037 -0.0869412 0)
(0.544556 -0.0913178 0)
(0.551858 -0.0866884 0)
(0.55494 -0.0780446 0)
(0.555931 -0.0652631 0)