/*--------------------------------*- C++ -*----------------------------------*\
  =========                 |
  \\      /  F ield         | OpenFOAM: The Open Source CFD Toolbox
   \\    /   O peration     | Website:  https://openfoam.org
    \\  /    A nd           | Version:  10
     \\/     M anipulation  |
\*---------------------------------------------------------------------------*/
FoamFile
{
    format      ascii;
    class       volScalarField;
    location    "0.250933";
    object      p;
}
// * * * * * * * * * * * * * * * * * * * * * * * * * * * * * * * * * * * * * //

dimensions      [1 -1 -2 0 0 0 0];

internalField   nonuniform List<scalar> 
16320
(
0.578456
0.641148
0.712661
0.7828
0.840578
0.883769
0.912073
0.925796
0.923173
0.907666
0.872613
0.820044
0.751623
0.671884
0.589763
0.516148
0.457086
0.413428
0.381244
0.358895
0.344188
0.336558
0.335486
0.339434
0.352803
0.380956
0.424944
0.465161
0.495644
0.52004
0.543104
0.564216
0.582075
0.5592
0.615343
0.694741
0.781032
0.859785
0.924127
0.969162
0.992272
0.992499
0.976811
0.936748
0.875497
0.799602
0.713309
0.624093
0.542486
0.475251
0.423781
0.385844
0.359046
0.341472
0.332087
0.331011
0.334452
0.346955
0.376619
0.427916
0.472386
0.503217
0.526012
0.546566
0.563423
0.578436
0.549071
0.596056
0.674001
0.774408
0.872847
0.960834
1.0264
1.06471
1.07429
1.06093
1.0218
0.955092
0.87218
0.777012
0.676921
0.582202
0.501624
0.438646
0.392326
0.360373
0.3398
0.328364
0.32567
0.32945
0.344284
0.379711
0.438141
0.483788
0.511323
0.530446
0.547443
0.559821
0.572088
0.545021
0.588046
0.659694
0.752918
0.86106
0.963662
1.04797
1.10078
1.12126
1.11391
1.08246
1.01916
0.936665
0.839732
0.734215
0.629988
0.53625
0.460673
0.404214
0.364401
0.338444
0.324664
0.322889
0.328378
0.348294
0.394674
0.456984
0.49714
0.51785
0.531251
0.543803
0.553011
0.562951
0.54374
0.582834
0.644399
0.726849
0.827941
0.933955
1.02426
1.08508
1.11268
1.11152
1.08928
1.03595
0.958003
0.867891
0.769173
0.667538
0.571504
0.487439
0.420584
0.372176
0.341276
0.325964
0.325842
0.334525
0.363259
0.423546
0.47947
0.508052
0.52024
0.527899
0.535837
0.543676
0.550882
0.542211
0.576772
0.629268
0.699616
0.785869
0.880314
0.96805
1.03266
1.06594
1.07008
1.05271
1.00756
0.93541
0.85485
0.768481
0.678866
0.590581
0.50902
0.439349
0.385864
0.350566
0.334971
0.336985
0.352338
0.394503
0.460896
0.498833
0.512453
0.517063
0.521384
0.525704
0.531482
0.536482
0.543352
0.573952
0.617014
0.674479
0.741578
0.816419
0.890582
0.951398
0.988523
0.997764
0.987746
0.956393
0.895631
0.823984
0.748868
0.673024
0.597154
0.523991
0.457943
0.404024
0.367639
0.354966
0.360665
0.38566
0.442098
0.492259
0.508394
0.510596
0.510607
0.512413
0.514226
0.518037
0.521101
0.538573
0.564968
0.599801
0.646498
0.695829
0.748553
0.802212
0.850944
0.886804
0.902232
0.898299
0.881533
0.84182
0.783534
0.722637
0.660574
0.597611
0.535193
0.476299
0.426123
0.393174
0.388188
0.399351
0.436373
0.491229
0.510233
0.509517
0.505493
0.502926
0.501759
0.502767
0.504592
0.505946
0.53034
0.55385
0.583644
0.617048
0.649868
0.682744
0.714962
0.745181
0.770401
0.785101
0.786579
0.77885
0.757515
0.720782
0.68011
0.637209
0.591729
0.543059
0.495014
0.453167
0.430118
0.434122
0.455082
0.500281
0.522672
0.517337
0.507245
0.498808
0.494025
0.491714
0.491761
0.491944
0.491772
0.523139
0.542899
0.567372
0.591923
0.612949
0.630289
0.645642
0.659277
0.670225
0.676581
0.677517
0.675103
0.667348
0.650527
0.627527
0.601962
0.573745
0.54186
0.508842
0.483207
0.478148
0.490904
0.525347
0.552028
0.539674
0.519669
0.502229
0.491608
0.485704
0.483082
0.481761
0.480522
0.47943
0.518373
0.535408
0.552488
0.568318
0.58324
0.595222
0.602849
0.606977
0.607503
0.605754
0.60118
0.595031
0.586143
0.575546
0.566212
0.554321
0.540323
0.525417
0.512747
0.512786
0.525764
0.558113
0.595604
0.581461
0.549244
0.516809
0.495995
0.485286
0.478982
0.475459
0.47306
0.470839
0.468558
0.515127
0.527052
0.541072
0.553229
0.562262
0.56713
0.568427
0.566597
0.56125
0.552688
0.543264
0.533997
0.525876
0.518536
0.511638
0.505064
0.501008
0.500259
0.506949
0.527212
0.568672
0.628438
0.640143
0.603132
0.548373
0.511582
0.491609
0.480367
0.473458
0.468993
0.465365
0.463012
0.459688
0.512805
0.524022
0.534297
0.541682
0.545924
0.546895
0.544867
0.539235
0.529873
0.518349
0.506216
0.494655
0.48441
0.476502
0.470408
0.465851
0.466588
0.475293
0.494367
0.535759
0.611607
0.683859
0.665928
0.608073
0.545071
0.507997
0.488295
0.476516
0.468999
0.463862
0.460204
0.45642
0.452682
0.512812
0.522849
0.530501
0.534754
0.535063
0.532914
0.527796
0.519198
0.508011
0.495168
0.481804
0.469017
0.457619
0.448213
0.441762
0.439377
0.442935
0.455473
0.485955
0.550187
0.65166
0.711091
0.678971
0.602852
0.540215
0.505768
0.485915
0.473541
0.465448
0.459731
0.45557
0.451458
0.447293
0.514361
0.522854
0.529256
0.531756
0.530254
0.525672
0.517112
0.505991
0.49333
0.479649
0.465703
0.452261
0.440049
0.429964
0.422917
0.422789
0.428781
0.446303
0.48614
0.574199
0.684985
0.718965
0.679961
0.595592
0.5363
0.504235
0.484175
0.471468
0.463363
0.457729
0.452819
0.448785
0.444776
0.518351
0.526044
0.530528
0.531237
0.528801
0.522491
0.511444
0.497952
0.483654
0.46907
0.454616
0.440766
0.428103
0.417607
0.411233
0.413259
0.423223
0.447302
0.498747
0.604152
0.706556
0.715675
0.672453
0.588279
0.53465
0.503017
0.482835
0.470299
0.462371
0.457212
0.452724
0.449218
0.446176
0.526121
0.533201
0.536309
0.535052
0.530566
0.521524
0.508674
0.493343
0.477451
0.461663
0.446563
0.432302
0.419501
0.40898
0.405996
0.409842
0.424194
0.455971
0.521206
0.63798
0.715618
0.709918
0.660191
0.580312
0.532543
0.501855
0.482227
0.47057
0.463577
0.45893
0.455539
0.453502
0.452796
0.538577
0.545548
0.547537
0.544755
0.537432
0.524417
0.507831
0.49069
0.473088
0.456012
0.440191
0.425865
0.413132
0.404818
0.40539
0.411616
0.431274
0.474028
0.553522
0.666012
0.716459
0.702278
0.645151
0.572649
0.529876
0.500834
0.48264
0.472145
0.466685
0.463715
0.463193
0.465195
0.470224
0.556966
0.563521
0.563782
0.558058
0.546256
0.52963
0.509551
0.488816
0.468863
0.450533
0.434064
0.420642
0.409296
0.404761
0.408036
0.418942
0.446233
0.50287
0.590236
0.683483
0.711315
0.690424
0.628525
0.565644
0.526946
0.500242
0.484085
0.475977
0.4734
0.474452
0.479918
0.490878
0.507718
0.579807
0.584715
0.583415
0.576079
0.560527
0.5378
0.511807
0.487196
0.464223
0.444748
0.428734
0.415304
0.407806
0.408512
0.414724
0.431341
0.469446
0.540317
0.62266
0.69
0.700859
0.675103
0.611298
0.559104
0.524199
0.500771
0.487595
0.483678
0.486437
0.495252
0.512806
0.536594
0.568387
0.60716
0.612498
0.609242
0.597359
0.574232
0.543621
0.512268
0.483698
0.458095
0.436035
0.421079
0.4119
0.409116
0.413093
0.425009
0.451483
0.501603
0.57548
0.642203
0.686584
0.68534
0.656863
0.594567
0.552523
0.522183
0.502969
0.495061
0.498028
0.509765
0.53261
0.564407
0.602003
0.639129
0.63551
0.635203
0.625558
0.607869
0.579678
0.545282
0.511047
0.478785
0.450959
0.430316
0.414904
0.409126
0.411291
0.419903
0.439151
0.478502
0.535227
0.598231
0.649087
0.676183
0.668479
0.635227
0.581385
0.547211
0.52289
0.509132
0.509438
0.523437
0.55051
0.590179
0.632275
0.669277
0.695895
0.649652
0.645213
0.63196
0.611383
0.580828
0.543538
0.505097
0.47051
0.441614
0.420311
0.408298
0.407442
0.412455
0.4275
0.457764
0.504476
0.555379
0.606321
0.643653
0.65893
0.649509
0.614265
0.572505
0.545836
0.527486
0.523231
0.536796
0.567805
0.613927
0.661955
0.70119
0.725176
0.741625
0.653002
0.646396
0.633087
0.609804
0.573069
0.531891
0.492573
0.45791
0.43031
0.410464
0.401753
0.403836
0.413791
0.436944
0.474801
0.517764
0.560076
0.602819
0.632285
0.639951
0.631482
0.59745
0.570769
0.550459
0.541635
0.553006
0.587617
0.640644
0.699486
0.743255
0.769349
0.779315
0.782759
0.651868
0.640941
0.618164
0.587825
0.550922
0.512337
0.475019
0.441927
0.415969
0.398633
0.394248
0.398968
0.414594
0.444355
0.481929
0.51775
0.558932
0.594622
0.617935
0.623667
0.617013
0.5955
0.577317
0.567132
0.576153
0.614073
0.677448
0.749976
0.802276
0.832638
0.842313
0.839594
0.832082
0.637657
0.619118
0.58835
0.553894
0.521226
0.485748
0.450995
0.418867
0.395509
0.38445
0.385362
0.395053
0.416854
0.447406
0.482077
0.517138
0.55749
0.59064
0.612519
0.623035
0.6185
0.606786
0.601283
0.611122
0.65233
0.729122
0.8155
0.881112
0.919114
0.93226
0.928729
0.91482
0.895505
0.617814
0.593666
0.560938
0.527695
0.495404
0.462688
0.430269
0.403613
0.385277
0.378139
0.381725
0.395309
0.4219
0.452277
0.486543
0.524446
0.563959
0.598298
0.622802
0.637558
0.639122
0.64517
0.662406
0.709376
0.796084
0.895018
0.974125
1.01721
1.03343
1.03536
1.02127
0.997615
0.965647
0.604456
0.580425
0.549071
0.516929
0.483475
0.452008
0.424348
0.39836
0.383607
0.379818
0.388452
0.408508
0.435308
0.468516
0.505776
0.546853
0.586983
0.623315
0.654081
0.676606
0.699524
0.732369
0.788265
0.87507
0.972618
1.05061
1.09715
1.11638
1.12084
1.11002
1.09056
1.05993
1.01797
0.599202
0.575381
0.546154
0.514344
0.478923
0.453244
0.42465
0.406904
0.400177
0.40203
0.414848
0.438425
0.468462
0.504993
0.547381
0.592697
0.636011
0.679119
0.718934
0.762
0.810444
0.868621
0.940877
1.01952
1.08683
1.13417
1.16171
1.17356
1.17409
1.16343
1.14304
1.116
1.07552
0.599149
0.574945
0.550374
0.520202
0.494157
0.469081
0.449117
0.440068
0.437624
0.444379
0.463422
0.486813
0.518947
0.558645
0.604576
0.653432
0.701039
0.748891
0.799386
0.846659
0.895149
0.947779
1.00475
1.06341
1.11769
1.15904
1.18903
1.20331
1.20779
1.20099
1.1851
1.16247
1.12245
0.602818
0.583554
0.564902
0.538833
0.525534
0.50453
0.493784
0.490113
0.490712
0.501705
0.519925
0.545282
0.576372
0.612577
0.653205
0.696816
0.743051
0.786364
0.825848
0.862643
0.900856
0.943379
0.993134
1.05038
1.10902
1.16674
1.20525
1.22224
1.22648
1.21902
1.20717
1.18965
1.14929
0.610917
0.599496
0.584842
0.572652
0.567406
0.555723
0.550596
0.548864
0.552882
0.563067
0.578121
0.599328
0.62503
0.654443
0.686652
0.719931
0.752736
0.784585
0.815522
0.845579
0.877783
0.916914
0.968204
1.03377
1.10813
1.17473
1.21627
1.23108
1.23252
1.22419
1.2155
1.1972
1.15512
0.622133
0.619673
0.612785
0.614937
0.614083
0.611628
0.610588
0.610306
0.611327
0.617005
0.625948
0.639195
0.656262
0.675936
0.697559
0.721132
0.746185
0.769709
0.793262
0.819739
0.852858
0.89758
0.960009
1.03837
1.11883
1.1845
1.22155
1.23264
1.2265
1.21543
1.2066
1.18183
1.12238
0.635287
0.641341
0.642619
0.657225
0.665503
0.670138
0.670695
0.669191
0.664992
0.66384
0.663242
0.665983
0.672306
0.682495
0.696135
0.711924
0.729692
0.750994
0.775773
0.80638
0.846345
0.900068
0.971787
1.05735
1.13514
1.1915
1.21822
1.22024
1.20994
1.19434
1.1773
1.13961
1.06497
0.647212
0.660976
0.67053
0.697422
0.71422
0.723537
0.725679
0.72285
0.712953
0.704665
0.691044
0.681153
0.678495
0.680366
0.685534
0.696231
0.71373
0.73801
0.768574
0.806283
0.85364
0.915902
0.995828
1.07932
1.14956
1.19125
1.20384
1.19695
1.18194
1.16169
1.13308
1.07689
1.00511
0.657381
0.67656
0.693924
0.728872
0.753979
0.766425
0.769699
0.767865
0.754405
0.738412
0.711807
0.687181
0.674814
0.670685
0.670917
0.681949
0.702703
0.732286
0.769559
0.814835
0.87192
0.941751
1.01926
1.09684
1.15307
1.17979
1.17967
1.16518
1.14439
1.11951
1.08001
1.01893
0.954022
0.665111
0.686324
0.709537
0.7438
0.776827
0.793385
0.798727
0.799975
0.787312
0.763233
0.72357
0.685693
0.66619
0.659051
0.65852
0.671599
0.696527
0.73116
0.774441
0.82794
0.887988
0.958376
1.03388
1.10154
1.14467
1.15736
1.14772
1.1286
1.10466
1.07496
1.02408
0.972199
0.91966
0.670115
0.690069
0.716434
0.746731
0.784533
0.802625
0.810351
0.813705
0.806584
0.777459
0.729409
0.682547
0.657362
0.6485
0.64852
0.663637
0.691562
0.73004
0.777059
0.83144
0.894236
0.963974
1.03439
1.08885
1.11675
1.1178
1.10175
1.08189
1.05751
1.02997
0.978063
0.938706
0.899543
0.672685
0.69067
0.71826
0.742612
0.780294
0.796165
0.80552
0.81052
0.807671
0.781278
0.73222
0.678884
0.649366
0.639136
0.638942
0.654833
0.682743
0.722025
0.769258
0.822042
0.88934
0.961603
1.024
1.06178
1.07117
1.06124
1.04674
1.03159
1.01099
0.988543
0.948637
0.920975
0.890224
0.673326
0.689264
0.71526
0.73623
0.766474
0.778649
0.787388
0.793357
0.793991
0.774497
0.731422
0.676446
0.641891
0.628649
0.627335
0.640152
0.667434
0.703328
0.745326
0.80396
0.860438
0.917712
0.965876
0.991686
0.994949
0.991158
0.990479
0.985908
0.972805
0.956541
0.935312
0.916484
0.889672
0.673001
0.688957
0.70986
0.729194
0.749048
0.757796
0.763345
0.766857
0.767501
0.757252
0.725088
0.674927
0.634498
0.615906
0.611056
0.621884
0.643214
0.670964
0.714481
0.758081
0.808845
0.85851
0.896888
0.91753
0.926578
0.935938
0.945035
0.950958
0.951045
0.942
0.939541
0.930484
0.901601
0.671677
0.689783
0.705159
0.72228
0.733091
0.74159
0.739177
0.738227
0.738094
0.733586
0.71239
0.671337
0.626689
0.60182
0.594392
0.598568
0.611434
0.640799
0.6721
0.717743
0.767215
0.812602
0.845952
0.866019
0.881317
0.899332
0.915128
0.93268
0.952283
0.957241
0.967257
0.96838
0.932833
0.670946
0.690124
0.702604
0.71633
0.72347
0.72732
0.719924
0.713184
0.711782
0.709723
0.696427
0.664586
0.620811
0.590087
0.578515
0.576758
0.586088
0.613251
0.649528
0.69709
0.745476
0.789381
0.823286
0.843832
0.856887
0.885973
0.911873
0.94027
0.972081
1.00146
1.0225
1.03425
0.990922
0.669222
0.689708
0.703022
0.713668
0.718522
0.717256
0.710028
0.697914
0.690276
0.687945
0.681101
0.657194
0.618096
0.583902
0.566599
0.561016
0.576642
0.601525
0.641886
0.68866
0.735722
0.780383
0.817741
0.839325
0.849412
0.889262
0.918823
0.972693
1.014
1.06669
1.10285
1.12192
1.07697
0.666188
0.688583
0.704088
0.712162
0.716095
0.715451
0.707599
0.691885
0.67749
0.668896
0.668252
0.651252
0.618775
0.583684
0.563204
0.556377
0.57357
0.599104
0.64081
0.686105
0.732352
0.778165
0.817965
0.842644
0.860908
0.900736
0.94112
1.00912
1.06667
1.13192
1.18063
1.2076
1.17512
0.661118
0.686649
0.703981
0.711965
0.715474
0.715941
0.706082
0.688888
0.669368
0.660941
0.657225
0.64643
0.622058
0.588987
0.56646
0.559761
0.575434
0.604446
0.642805
0.688731
0.732903
0.7827
0.827697
0.849291
0.879184
0.914235
0.975816
1.03129
1.10154
1.1658
1.21761
1.24659
1.23001
0.65366
0.682468
0.702752
0.711809
0.71439
0.714188
0.705636
0.68843
0.668614
0.658163
0.652604
0.643123
0.626553
0.597585
0.574443
0.570001
0.58217
0.615203
0.646393
0.691781
0.735496
0.786745
0.835582
0.858761
0.893386
0.926972
0.991715
1.03666
1.10849
1.16156
1.21635
1.24318
1.23048
0.64389
0.674637
0.698457
0.709716
0.713048
0.712104
0.704494
0.689218
0.67136
0.658492
0.651988
0.64323
0.629824
0.607456
0.585047
0.581595
0.592013
0.625727
0.650888
0.693656
0.739035
0.785412
0.840075
0.869407
0.89984
0.935537
0.990818
1.02611
1.08964
1.13427
1.18359
1.20679
1.195
0.632946
0.663879
0.68983
0.704941
0.709792
0.709703
0.703249
0.691997
0.675811
0.661595
0.654017
0.64479
0.633075
0.617246
0.595982
0.592996
0.602678
0.634213
0.657845
0.69535
0.739603
0.784517
0.838177
0.873782
0.899891
0.937565
0.979179
1.00623
1.05745
1.09635
1.13607
1.1543
1.13904
0.622138
0.651285
0.677177
0.696012
0.703545
0.704726
0.700379
0.691492
0.676782
0.665957
0.656777
0.649153
0.636755
0.623453
0.605632
0.602859
0.612399
0.640464
0.664554
0.697975
0.737203
0.78437
0.830692
0.874594
0.897689
0.934494
0.960413
0.982448
1.02102
1.05557
1.084
1.09591
1.08197
0.612792
0.638305
0.662114
0.681843
0.693022
0.696294
0.694858
0.687047
0.676453
0.669921
0.658714
0.652811
0.63811
0.626733
0.612606
0.610041
0.619739
0.645266
0.668234
0.703944
0.733604
0.783874
0.825368
0.870086
0.898713
0.926166
0.94207
0.959666
0.9866
1.01294
1.03153
1.03934
1.02459
0.605413
0.626182
0.646311
0.664241
0.677584
0.683676
0.684648
0.67912
0.674295
0.670578
0.659152
0.653155
0.639901
0.625846
0.616559
0.61271
0.623053
0.648241
0.668963
0.706701
0.73661
0.781644
0.8266
0.866427
0.899889
0.916246
0.928846
0.939741
0.956268
0.973222
0.983334
0.987345
0.970909
0.599851
0.6157
0.63119
0.645903
0.658528
0.667263
0.670876
0.669564
0.67004
0.667264
0.658061
0.650865
0.639944
0.621426
0.614197
0.61005
0.621619
0.646485
0.663967
0.705262
0.741049
0.782649
0.829189
0.871686
0.901295
0.916413
0.924023
0.926542
0.932633
0.937681
0.940869
0.939687
0.921694
0.595288
0.606752
0.617586
0.62832
0.638823
0.648145
0.654832
0.657839
0.661638
0.659739
0.655621
0.64683
0.636013
0.613399
0.605432
0.599909
0.611826
0.63711
0.651834
0.696732
0.739623
0.787838
0.833456
0.881603
0.912116
0.924609
0.927605
0.923239
0.915659
0.909319
0.905602
0.896627
0.878604
0.59117
0.598967
0.605697
0.612461
0.620142
0.628768
0.637438
0.644162
0.650325
0.650728
0.648135
0.639711
0.628873
0.604092
0.586367
0.58105
0.590997
0.615756
0.63159
0.677897
0.731533
0.785313
0.842291
0.892511
0.928576
0.940603
0.941715
0.931835
0.912947
0.892834
0.878143
0.863191
0.843259
0.586683
0.591622
0.595153
0.598651
0.603566
0.610664
0.619851
0.629109
0.637269
0.639116
0.635742
0.630362
0.617801
0.592056
0.564603
0.556585
0.560742
0.581616
0.600499
0.647053
0.710034
0.776402
0.836338
0.89809
0.94554
0.965499
0.967345
0.952656
0.921319
0.888615
0.860132
0.836794
0.81401
0.581174
0.583929
0.585323
0.586714
0.589705
0.595229
0.60404
0.61418
0.623254
0.626022
0.623128
0.618154
0.603146
0.577314
0.545838
0.529135
0.526938
0.540539
0.564405
0.605158
0.670047
0.748275
0.820693
0.884503
0.944391
0.975868
0.988851
0.977468
0.940092
0.895535
0.853274
0.818347
0.793537
0.574093
0.575287
0.575661
0.576309
0.578665
0.583343
0.591297
0.600878
0.609489
0.612346
0.609016
0.601812
0.586315
0.55981
0.528723
0.50226
0.495609
0.501074
0.522458
0.562088
0.622287
0.703315
0.788933
0.863698
0.923377
0.968782
0.988243
0.992474
0.959308
0.908604
0.856844
0.810423
0.780348
0.56535
0.565619
0.565966
0.567165
0.570158
0.574914
0.582024
0.59027
0.596841
0.598313
0.593155
0.581834
0.570844
0.542462
0.511105
0.482612
0.470727
0.469263
0.481765
0.517567
0.574887
0.65282
0.744086
0.829086
0.896983
0.945169
0.975918
0.984447
0.972401
0.924271
0.864897
0.814764
0.778474
0.555467
0.555295
0.556511
0.559366
0.563934
0.569671
0.576245
0.583123
0.58631
0.58441
0.575626
0.560805
0.552935
0.525078
0.49311
0.467481
0.45018
0.44513
0.450234
0.472858
0.525386
0.604078
0.691437
0.788829
0.866747
0.916651
0.951289
0.966937
0.965774
0.934275
0.879208
0.827262
0.783671
0.54556
0.545356
0.547976
0.552941
0.559505
0.566645
0.573377
0.578569
0.578174
0.570943
0.557312
0.539505
0.530833
0.505619
0.4753
0.452339
0.433686
0.424253
0.424797
0.437147
0.474174
0.547368
0.64267
0.739809
0.838321
0.890455
0.923488
0.944859
0.95035
0.931302
0.894171
0.842315
0.796871
0.538576
0.538206
0.541617
0.548128
0.556537
0.564932
0.57207
0.575535
0.571188
0.557133
0.537636
0.517468
0.505575
0.484927
0.458054
0.437334
0.420276
0.407868
0.404554
0.410494
0.432479
0.48697
0.581732
0.686069
0.804002
0.876338
0.910538
0.927703
0.934397
0.925246
0.899523
0.853945
0.814207
0.535809
0.535197
0.538796
0.545853
0.554836
0.563817
0.571173
0.572346
0.563528
0.542773
0.517096
0.495173
0.478279
0.465002
0.441572
0.42251
0.408521
0.396598
0.390533
0.392746
0.404459
0.437729
0.509922
0.621433
0.750191
0.868408
0.904257
0.92081
0.926125
0.919272
0.899751
0.87095
0.832066
0.535566
0.53474
0.538246
0.545288
0.554135
0.562989
0.569185
0.566759
0.552531
0.525805
0.495177
0.472651
0.454536
0.445806
0.426389
0.410782
0.398502
0.388876
0.38224
0.382311
0.388465
0.407133
0.452134
0.543571
0.682494
0.840693
0.91474
0.922504
0.923912
0.917366
0.896558
0.885388
0.846614
0.539522
0.537978
0.540559
0.54661
0.554454
0.562296
0.564951
0.55715
0.536002
0.5051
0.473818
0.451965
0.435702
0.426697
0.412587
0.40225
0.392201
0.384657
0.380116
0.379529
0.383213
0.393736
0.419287
0.476342
0.589575
0.767469
0.924187
0.95206
0.934999
0.923681
0.904864
0.891133
0.859368
0.549308
0.546719
0.54734
0.550888
0.55626
0.560848
0.558233
0.543362
0.515159
0.481747
0.452897
0.43384
0.420891
0.414013
0.403538
0.394191
0.389143
0.38501
0.38142
0.381302
0.38437
0.392265
0.40847
0.443263
0.518781
0.670105
0.88097
0.985713
0.956827
0.934603
0.912198
0.894015
0.871411
0.565236
0.560839
0.558619
0.558397
0.559951
0.55857
0.548441
0.525144
0.492068
0.458997
0.434097
0.418122
0.410829
0.404946
0.400506
0.394382
0.389834
0.387601
0.386505
0.38839
0.392937
0.399818
0.411242
0.434706
0.485227
0.596879
0.804065
0.984445
1.0035
0.950796
0.916561
0.899912
0.883056
0.586538
0.58025
0.574447
0.569934
0.565007
0.555286
0.53542
0.50415
0.468585
0.438743
0.418839
0.407592
0.403751
0.399319
0.398554
0.395739
0.393661
0.393783
0.396759
0.402431
0.409389
0.417063
0.425715
0.441545
0.477806
0.560119
0.734275
0.951165
1.0388
0.969779
0.927116
0.908626
0.892433
0.61225
0.604478
0.595246
0.584686
0.571273
0.550744
0.520086
0.482267
0.447314
0.422257
0.407648
0.40042
0.398297
0.396363
0.39851
0.399586
0.401893
0.405607
0.411737
0.419422
0.42791
0.436541
0.445523
0.458663
0.486218
0.550811
0.692598
0.913711
1.03552
0.996662
0.941814
0.917016
0.897838
0.641412
0.633386
0.620442
0.602241
0.577527
0.54422
0.503161
0.461674
0.429827
0.410052
0.399707
0.395261
0.393757
0.39578
0.39943
0.404046
0.410187
0.418627
0.426985
0.436245
0.445902
0.455281
0.465095
0.477621
0.501732
0.555246
0.673447
0.876365
1.01819
1.00686
0.957138
0.922511
0.900121
0.67298
0.666163
0.649126
0.621391
0.583137
0.536034
0.486232
0.444508
0.41692
0.401845
0.394727
0.392148
0.391558
0.395766
0.401084
0.407891
0.416181
0.425395
0.43646
0.450013
0.461444
0.472204
0.483599
0.496561
0.517081
0.563339
0.665404
0.847717
0.994276
1.00323
0.963296
0.92401
0.898199
0.7057
0.700869
0.680382
0.640853
0.586881
0.526306
0.470927
0.431276
0.408221
0.396721
0.391752
0.390403
0.390677
0.395775
0.402459
0.410305
0.419678
0.429955
0.440953
0.450989
0.462655
0.474692
0.487471
0.502324
0.527802
0.572853
0.665738
0.830246
0.965945
0.987927
0.957242
0.92015
0.891437
0.738097
0.735376
0.711686
0.65818
0.588385
0.516673
0.458945
0.422791
0.403283
0.393892
0.390092
0.389415
0.390269
0.395505
0.402884
0.411452
0.420626
0.43075
0.441968
0.453143
0.464994
0.477618
0.490936
0.507884
0.532667
0.580194
0.673349
0.820817
0.931856
0.960986
0.939685
0.907805
0.878238
0.768401
0.767657
0.740114
0.672322
0.586935
0.508876
0.451633
0.418787
0.401218
0.392663
0.389245
0.38861
0.390197
0.394687
0.402193
0.410827
0.419985
0.429951
0.440654
0.451729
0.463346
0.475504
0.489931
0.508156
0.537326
0.589223
0.680882
0.79952
0.891945
0.927877
0.912303
0.885774
0.857618
0.794956
0.7953
0.761558
0.680337
0.585451
0.503669
0.448722
0.417906
0.401145
0.392513
0.388699
0.387864
0.38945
0.392496
0.399961
0.408507
0.41749
0.427049
0.436977
0.447494
0.458464
0.469919
0.486695
0.508202
0.541489
0.593954
0.674118
0.770038
0.850125
0.884843
0.875071
0.855068
0.832133
0.816891
0.81634
0.773863
0.682664
0.583585
0.501588
0.449239
0.419775
0.402734
0.392788
0.387878
0.386473
0.387806
0.389239
0.395968
0.40374
0.412317
0.421415
0.431048
0.441301
0.452167
0.464999
0.482446
0.50496
0.540465
0.592087
0.662509
0.745493
0.809343
0.83871
0.837403
0.824069
0.807793
0.833163
0.829291
0.77777
0.679875
0.581135
0.502568
0.453299
0.424034
0.405377
0.393047
0.386208
0.383861
0.384504
0.384709
0.390757
0.397718
0.4057
0.41448
0.423906
0.434149
0.445497
0.458878
0.47556
0.49916
0.536421
0.591312
0.658583
0.726866
0.777161
0.804288
0.809013
0.801504
0.791283
0.844024
0.835544
0.77304
0.673644
0.578615
0.506743
0.460411
0.430215
0.408696
0.39294
0.383646
0.379812
0.379102
0.380167
0.384814
0.390912
0.39841
0.406847
0.416127
0.426327
0.437502
0.451696
0.46939
0.494748
0.535431
0.590683
0.650454
0.710505
0.757682
0.785335
0.793932
0.793022
0.787732
0.849374
0.83313
0.760121
0.664665
0.577835
0.514088
0.470262
0.437951
0.412152
0.39211
0.380165
0.374812
0.373204
0.374858
0.378305
0.383804
0.390941
0.399107
0.408261
0.418252
0.42957
0.443684
0.462875
0.490853
0.532112
0.582487
0.641196
0.70086
0.749503
0.779954
0.792885
0.796594
0.794834
0.849445
0.820979
0.742433
0.653566
0.580377
0.524873
0.482964
0.447033
0.415363
0.390258
0.375773
0.369183
0.367103
0.36853
0.371634
0.376795
0.383544
0.3914
0.400126
0.410003
0.421508
0.436529
0.456981
0.486049
0.52336
0.572599
0.63311
0.696988
0.749633
0.784811
0.802666
0.809995
0.812152
0.842309
0.799624
0.721124
0.645739
0.58531
0.539265
0.49866
0.457533
0.41818
0.387902
0.371127
0.363495
0.361061
0.362025
0.365084
0.370101
0.376442
0.384011
0.392619
0.4024
0.414449
0.430415
0.451751
0.47869
0.514507
0.564446
0.627032
0.696142
0.756239
0.796343
0.818866
0.831039
0.837041
0.82502
0.770633
0.699947
0.639799
0.594437
0.557035
0.516971
0.469163
0.420549
0.385366
0.366751
0.358688
0.356125
0.355268
0.359028
0.364119
0.370217
0.377633
0.38617
0.396025
0.409567
0.425939
0.446842
0.473088
0.508992
0.557604
0.619471
0.690841
0.759978
0.809465
0.836982
0.853126
0.862171
0.796798
0.739439
0.681813
0.637556
0.606553
0.577092
0.536919
0.481135
0.422606
0.383273
0.363179
0.354528
0.351539
0.350274
0.353809
0.358971
0.365081
0.372482
0.380846
0.392457
0.40625
0.423784
0.444613
0.471607
0.505924
0.550467
0.606777
0.676862
0.75353
0.81635
0.852735
0.871271
0.881725
0.761797
0.709922
0.667625
0.638967
0.620156
0.597823
0.557013
0.492465
0.42495
0.381952
0.360291
0.35097
0.347675
0.346727
0.349826
0.354829
0.361049
0.368502
0.377904
0.390509
0.40516
0.423597
0.445481
0.472024
0.503043
0.539505
0.588202
0.653013
0.733621
0.810918
0.860964
0.885251
0.897646
0.727198
0.686655
0.659871
0.643262
0.633648
0.617546
0.576541
0.503167
0.428028
0.381598
0.358465
0.34861
0.344567
0.343971
0.346894
0.351724
0.358084
0.365662
0.376929
0.390002
0.406006
0.425123
0.447495
0.472044
0.497485
0.527605
0.566221
0.619146
0.695794
0.784853
0.855146
0.892381
0.907275
0.699386
0.672705
0.657089
0.64908
0.646254
0.635245
0.594755
0.514641
0.431584
0.381958
0.357471
0.346928
0.342795
0.34203
0.344686
0.349491
0.356092
0.364402
0.376651
0.390632
0.407908
0.427943
0.449668
0.471571
0.492422
0.516053
0.543169
0.580752
0.642032
0.730557
0.823269
0.884603
0.910454
0.681698
0.665801
0.657752
0.655697
0.657657
0.651196
0.611913
0.52618
0.436502
0.383339
0.357446
0.346035
0.341743
0.340685
0.343081
0.347906
0.3543
0.364608
0.376779
0.391862
0.410171
0.430236
0.45096
0.470007
0.488599
0.50594
0.523071
0.546694
0.584562
0.651361
0.747749
0.842819
0.897
0.672297
0.663643
0.66098
0.66312
0.66821
0.66566
0.628696
0.539208
0.443261
0.38595
0.358245
0.34602
0.341088
0.339816
0.342041
0.34685
0.353528
0.364579
0.377218
0.393374
0.412214
0.432139
0.453136
0.469684
0.485735
0.497442
0.50848
0.520965
0.540285
0.577331
0.645203
0.74996
0.848848
0.668477
0.664929
0.666599
0.671418
0.67861
0.67909
0.64572
0.554547
0.451719
0.390392
0.360012
0.346363
0.340894
0.339426
0.341337
0.345961
0.353665
0.364561
0.3778
0.394759
0.414592
0.435567
0.454056
0.469375
0.481441
0.48965
0.496082
0.502358
0.510947
0.527645
0.561724
0.631744
0.746487
0.668122
0.669513
0.674011
0.680407
0.688972
0.691887
0.663053
0.57194
0.462913
0.396414
0.362782
0.347339
0.341131
0.339477
0.340945
0.34537
0.353867
0.364726
0.378604
0.396453
0.416693
0.438753
0.454275
0.467989
0.476773
0.482551
0.485722
0.487966
0.490486
0.496767
0.511788
0.549164
0.632942
0.671384
0.67624
0.682579
0.689804
0.699375
0.704081
0.680328
0.591338
0.476772
0.403924
0.366468
0.349007
0.341717
0.339704
0.341017
0.34531
0.354062
0.365053
0.379511
0.39827
0.419386
0.438315
0.452931
0.465084
0.472969
0.475894
0.476591
0.475993
0.474355
0.474992
0.483038
0.513107
0.589091
0.676891
0.684029
0.691675
0.699445
0.709049
0.715692
0.697152
0.612644
0.493037
0.412969
0.371135
0.351313
0.342921
0.340431
0.341197
0.345307
0.354264
0.365499
0.38083
0.400127
0.420799
0.437557
0.451119
0.463077
0.468603
0.469653
0.468799
0.465827
0.461039
0.45999
0.470309
0.505856
0.591053
0.683548
0.692167
0.700758
0.708916
0.717823
0.726095
0.712962
0.635504
0.513709
0.423654
0.376733
0.354155
0.344515
0.341567
0.341703
0.345447
0.354619
0.365986
0.382128
0.401412
0.41997
0.436073
0.450977
0.460425
0.464125
0.464137
0.462447
0.458678
0.45427
0.454185
0.468669
0.520339
0.631531
0.690632
0.7002
0.709397
0.71763
0.725907
0.734768
0.727126
0.659413
0.536887
0.436672
0.383586
0.357491
0.346223
0.34251
0.341929
0.345476
0.354351
0.365967
0.381693
0.399105
0.417161
0.436566
0.450633
0.457766
0.460104
0.459678
0.458206
0.455527
0.45203
0.453487
0.477009
0.556526
0.692924
0.697793
0.70792
0.717345
0.725409
0.73277
0.740929
0.739106
0.682299
0.563538
0.453404
0.391942
0.361354
0.34797
0.343225
0.342225
0.345601
0.353407
0.364505
0.378915
0.396112
0.41706
0.436474
0.449699
0.455825
0.456554
0.456454
0.456457
0.454812
0.45218
0.456673
0.49405
0.614015
0.769003
0.704671
0.715033
0.724347
0.731956
0.737804
0.743858
0.747384
0.702268
0.592618
0.475241
0.402797
0.36587
0.349418
0.343356
0.34199
0.344697
0.351383
0.361349
0.374877
0.392172
0.415644
0.4344
0.447848
0.453715
0.454767
0.45514
0.456303
0.456548
0.456546
0.463182
0.506274
0.643506
0.817785
0.71126
0.721537
0.730407
0.737113
0.741255
0.746843
0.748032
0.715167
0.622226
0.503872
0.417447
0.371617
0.350888
0.34296
0.34085
0.342299
0.347453
0.35632
0.368989
0.38922
0.412102
0.431442
0.445413
0.45201
0.454177
0.45493
0.457935
0.460997
0.463527
0.469931
0.506506
0.646859
0.833249
0.59547
0.605878
0.615716
0.617079
0.610193
0.597123
0.588331
0.583481
0.589785
0.598881
0.60661
0.610382
0.598989
0.585448
0.575027
0.569163
0.581536
0.589565
0.596188
0.597732
0.586598
0.572823
0.560964
0.550451
0.57085
0.577282
0.581722
0.58048
0.571059
0.556714
0.54464
0.537164
0.556781
0.561381
0.56378
0.561438
0.552576
0.537793
0.526778
0.518128
0.540471
0.54332
0.543984
0.540902
0.530867
0.517634
0.505876
0.499071
0.52334
0.524564
0.523943
0.520029
0.510437
0.498277
0.486052
0.48093
0.506622
0.506425
0.504801
0.500031
0.490968
0.479601
0.470085
0.463915
0.491202
0.489809
0.48711
0.481883
0.473806
0.464373
0.457077
0.452073
0.47751
0.474941
0.471637
0.466498
0.459215
0.452283
0.446493
0.443339
0.465634
0.462157
0.458622
0.453694
0.447898
0.443418
0.438923
0.438072
0.455969
0.451827
0.448269
0.444191
0.439945
0.4374
0.435749
0.436927
0.448446
0.444043
0.441049
0.438512
0.436339
0.436013
0.437089
0.440758
0.44338
0.439596
0.438322
0.437742
0.437914
0.439468
0.443572
0.453009
0.441487
0.440573
0.440693
0.441756
0.444481
0.450568
0.461918
0.484086
0.444687
0.446036
0.449005