/*--------------------------------*- C++ -*----------------------------------*\
  =========                 |
  \\      /  F ield         | OpenFOAM: The Open Source CFD Toolbox
   \\    /   O peration     | Website:  https://openfoam.org
    \\  /    A nd           | Version:  10
     \\/     M anipulation  |
\*---------------------------------------------------------------------------*/
FoamFile
{
    format      ascii;
    class       volScalarField;
    location    "0.250933";
    object      rho;
}
// * * * * * * * * * * * * * * * * * * * * * * * * * * * * * * * * * * * * * //

dimensions      [1 -3 0 0 0 0 0];

internalField   nonuniform List<scalar> 
16320
(
0.736225
0.670977
0.684136
0.720356
0.755788
0.785296
0.810523
0.82507
0.82843
0.826676
0.8208
0.803404
0.76789
0.716271
0.651888
0.587444
0.528603
0.483286
0.448452
0.42268
0.404803
0.395197
0.394309
0.404709
0.436885
0.49455
0.563783
0.629742
0.677255
0.710947
0.733469
0.714944
0.679627
0.824889
0.815879
0.746293
0.745003
0.781677
0.819682
0.850383
0.870768
0.873669
0.866217
0.842217
0.810714
0.764609
0.706498
0.640221
0.576172
0.520363
0.47645
0.442806
0.418533
0.402831
0.402041
0.420519
0.449087
0.49207
0.536708
0.609132
0.666413
0.702353
0.728615
0.739072
0.698398
0.665147
0.805653
0.85216
0.861948
0.821276
0.830033
0.860542
0.89478
0.920315
0.930831
0.924446
0.897288
0.853404
0.799627
0.73594
0.665082
0.596711
0.53552
0.487714
0.452288
0.433642
0.429866
0.444007
0.466084
0.495349
0.52242
0.570677
0.646555
0.690434
0.718762
0.736996
0.733188
0.675685
0.647457
0.774069
0.827815
0.869335
0.846457
0.848998
0.880523
0.917753
0.948048
0.965404
0.962004
0.94155
0.899993
0.845872
0.780383
0.707319
0.63668
0.571404
0.525154
0.496146
0.480055
0.476975
0.481434
0.500213
0.519898
0.547455
0.605004
0.68062
0.709582
0.728616
0.736671
0.720143
0.657167
0.633687
0.771229
0.812231
0.827885
0.804838
0.821058
0.864034
0.906874
0.941077
0.962806
0.964693
0.951788
0.916351
0.865716
0.810975
0.753127
0.69403
0.639618
0.593349
0.555892
0.527635
0.513992
0.511944
0.526549
0.540233
0.577305
0.647895
0.708948
0.723506
0.734831
0.731104
0.695567
0.633736
0.615571
0.762854
0.751547
0.721178
0.730038
0.766683
0.816899
0.867611
0.907899
0.927804
0.93409
0.925511
0.89647
0.852935
0.820117
0.781839
0.739962
0.694112
0.646729
0.602196
0.567143
0.543336
0.540345
0.548695
0.568758
0.619335
0.693
0.725931
0.730111
0.730072
0.716373
0.661957
0.608587
0.595295
0.66073
0.635133
0.648239
0.680568
0.723029
0.774899
0.825167
0.867266
0.897744
0.912354
0.914605
0.901811
0.872022
0.840756
0.809523
0.775187
0.732835
0.686378
0.641323
0.604919
0.577974
0.574426
0.582724
0.613499
0.676591
0.727859
0.733193
0.73101
0.719277
0.687802
0.62014
0.582693
0.574743
0.58594
0.604437
0.633257
0.672704
0.709313
0.745482
0.783881
0.821557
0.856925
0.878953
0.895306
0.908392
0.906728
0.886644
0.861016
0.826769
0.783872
0.735913
0.688122
0.645464
0.620971
0.619494
0.632675
0.675524
0.730209
0.744914
0.734132
0.720807
0.698074
0.641709
0.582138
0.560195
0.557062
0.594611
0.626929
0.646962
0.661233
0.672835
0.68448
0.698831
0.717552
0.738357
0.756532
0.773885
0.798527
0.819242
0.828574
0.833095
0.824641
0.801895
0.767641
0.728579
0.689893
0.67063
0.675043
0.697214
0.743668
0.75891
0.750382
0.728183
0.699855
0.658417
0.58825
0.550417
0.54263
0.542136
0.621573
0.629593
0.62493
0.605167
0.593508
0.588897
0.591556
0.598846
0.606918
0.61368
0.620277
0.635154
0.66095
0.693673
0.731218
0.75562
0.766074
0.761017
0.741267
0.725466
0.723129
0.737098
0.773421
0.796294
0.774087
0.745836
0.707975
0.663694
0.600113
0.547599
0.529703
0.52936
0.532691
0.606576
0.58278
0.545931
0.534807
0.538246
0.542524
0.545261
0.547222
0.547179
0.545973
0.543691
0.542663
0.542031
0.548462
0.576021
0.621862
0.670541
0.705644
0.722779
0.747496
0.766206
0.805656
0.845547
0.823107
0.780338
0.727873
0.666071
0.614742
0.551839
0.521023
0.515622
0.521679
0.527375
0.537954
0.511497
0.509691
0.513957
0.518059
0.520503
0.522448
0.522022
0.518528
0.513131
0.505784
0.499904
0.494106
0.489672
0.491038
0.507522
0.556197
0.614844
0.66982
0.735816
0.79481
0.871822
0.886918
0.841459
0.764478
0.688579
0.617749
0.568322
0.51729
0.504306
0.506877
0.523286
0.525093
0.492203
0.494839
0.500498
0.504157
0.508568
0.510477
0.509515
0.505664
0.498941
0.490715
0.481863
0.474324
0.46784
0.460669
0.455171
0.452928
0.469693
0.522668
0.59686
0.703245
0.813722
0.917557
0.907459
0.834936
0.730973
0.640159
0.574822
0.532277
0.498611
0.494408
0.509816
0.526853
0.523706
0.485337
0.49239
0.497913
0.501325
0.5023
0.500868
0.496895
0.490142
0.481324
0.472064
0.462766
0.454103
0.447426
0.440902
0.434594
0.430842
0.43524
0.460076
0.527319
0.664011
0.820091
0.93069
0.914656
0.806814
0.686026
0.596757
0.542309
0.509861
0.489484
0.490485
0.519695
0.52854
0.52091
0.486297
0.49364
0.498959
0.500263
0.499013
0.495176
0.48781
0.478499
0.468383
0.458099
0.448849
0.439459
0.431818
0.426379
0.420313
0.418558
0.420208
0.437839
0.492347
0.641831
0.825249
0.92945
0.902679
0.770046
0.640465
0.56404
0.520788
0.496863
0.48575
0.495837
0.527811
0.529211
0.518739
0.490243
0.497223
0.500753
0.500259
0.497913
0.492307
0.482024
0.470009
0.458274
0.447115
0.438542
0.428779
0.420468
0.41498
0.409958
0.41071
0.414406
0.43005
0.483218
0.627992
0.820177
0.917039
0.876132
0.730206
0.605709
0.54155
0.507526
0.490193
0.485179
0.508167
0.53031
0.529331
0.519428
0.496719
0.503308
0.505849
0.503546
0.498028
0.489779
0.477887
0.464256
0.451762
0.438679
0.429621
0.420088
0.411249
0.405909
0.403991
0.406605
0.41424
0.432353
0.495576
0.644883
0.825277
0.90692
0.842813
0.69119
0.580152
0.526619
0.499782
0.487113
0.488804
0.514899
0.531643
0.53115
0.524419
0.506666
0.513121
0.514686
0.509547
0.500207
0.488193
0.472393
0.45661
0.441489
0.427379
0.417
0.410118
0.402669
0.399526
0.401186
0.405717
0.41758
0.443839
0.52083
0.672238
0.835193
0.896489
0.809108
0.653335
0.560022
0.516816
0.496004
0.486439
0.494077
0.51963
0.534503
0.536899
0.536038
0.521299
0.524762
0.524113
0.516003
0.502852
0.486772
0.466185
0.446427
0.428592
0.413873
0.40218
0.398072
0.395577
0.396088
0.400071
0.409061
0.426651
0.464925
0.553154
0.699272
0.844682
0.878694
0.771285
0.621946
0.545061
0.510734
0.494542
0.48899
0.500993
0.527889
0.543307
0.552105
0.558939
0.536888
0.54025
0.539097
0.530513
0.51515
0.49271
0.462825
0.43739
0.416508
0.400834
0.386885
0.387208
0.392559
0.394617
0.400858
0.414979
0.442316
0.497906
0.58806
0.724959
0.851687
0.850823
0.730422
0.5957
0.534487
0.507508
0.495548
0.496392
0.51404
0.545062
0.563958
0.579123
0.581684
0.560269
0.565666
0.564945
0.553751
0.531876
0.498555
0.457964
0.426985
0.404659
0.384959
0.377633
0.380345
0.391216
0.396938
0.406003
0.426883
0.466907
0.537478
0.619337
0.750656
0.849716
0.819875
0.687557
0.574272
0.527274
0.506819
0.500995
0.509384
0.538097
0.574827
0.597431
0.599448
0.569777
0.590685
0.596115
0.592972
0.576571
0.546434
0.498621
0.450907
0.420658
0.396092
0.380312
0.370256
0.380318
0.394625
0.4033
0.417547
0.445384
0.498667
0.566475
0.662924
0.780966
0.840959
0.784842
0.645893
0.558177
0.523807
0.510152
0.514013
0.531323
0.578398
0.618178
0.631696
0.594415
0.568138
0.624228
0.632548
0.628036
0.602243
0.553052
0.488324
0.44501
0.413314
0.389357
0.372872
0.370838
0.389977
0.403078
0.416109
0.435212
0.46956
0.521692
0.601096
0.704131
0.80171
0.821894
0.743284
0.610451
0.54888
0.524374
0.521482
0.536914
0.56929
0.63365
0.666943
0.649097
0.605052
0.592235
0.673091
0.681675
0.662576
0.610505
0.541833
0.473964
0.433535
0.404545
0.385285
0.377296
0.390678
0.407737
0.417479
0.434717
0.454984
0.491729
0.543511
0.637852
0.735336
0.80997
0.796229
0.693534
0.587736
0.546143
0.533429
0.545641
0.576198
0.634569
0.700074
0.714713
0.674794
0.639732
0.631446
0.72205
0.707638
0.657295
0.585517
0.511694
0.455692
0.425748
0.406421
0.399641
0.414736
0.42834
0.431032
0.439424
0.449422
0.47219
0.508144
0.577853
0.670817
0.767804
0.797945
0.763762
0.651633
0.577662
0.554362
0.559151
0.592272
0.643257
0.723653
0.770157
0.764088
0.71368
0.684985
0.679143
0.735174
0.694215
0.625003
0.547093
0.482402
0.44721
0.434342
0.440661
0.464259
0.467696
0.461185
0.456691
0.453681
0.465325
0.493898
0.542994
0.63069
0.728047
0.784538
0.791329
0.72725
0.623237
0.585987
0.583118
0.614817
0.672406
0.743557
0.818281
0.834695
0.807375
0.751226
0.713584
0.693557
0.718238
0.665285
0.590489
0.521035
0.473049
0.471863
0.500386
0.533484
0.532654
0.507711
0.490392
0.474931
0.485281
0.512717
0.560649
0.629223
0.706683
0.765883
0.794614
0.778433
0.684686
0.629055
0.620043
0.650549
0.711737
0.77945
0.849856
0.892676
0.870275
0.812003
0.745755
0.683731
0.618606
0.703712
0.646463
0.574448
0.519988
0.506519
0.557246
0.600793
0.592094
0.569642
0.539727
0.53157
0.555417
0.580005
0.611825
0.654168
0.704343
0.752197
0.79314
0.805425
0.747438
0.683629
0.671797
0.700345
0.759827
0.819692
0.875771
0.918531
0.913384
0.851537
0.76124
0.681035
0.591884
0.521588
0.694827
0.630674
0.573885
0.548217
0.588689
0.649157
0.643813
0.624668
0.613383
0.609972
0.628322
0.635069
0.651008
0.677871
0.716625
0.761379
0.802542
0.823742
0.78957
0.738851
0.728903
0.751718
0.799318
0.848072
0.888035
0.922474
0.940852
0.907849
0.834651
0.761203
0.672568
0.579627
0.534788
0.686438
0.626872
0.591991
0.604116
0.68194
0.704393
0.689935
0.679987
0.675917
0.677016
0.681314
0.691369
0.705384
0.733564
0.77095
0.803459
0.814214
0.789425
0.761985
0.755779
0.772141
0.805637
0.842791
0.875105
0.907627
0.937409
0.943626
0.89721
0.840312
0.780059
0.687957
0.610075
0.616321
0.682473
0.639582
0.628155
0.682063
0.760772
0.760241
0.746648
0.728525
0.70861
0.708936
0.69267
0.688841
0.701462
0.720346
0.740338
0.744091
0.739719
0.738039
0.74175
0.757138
0.780593
0.808494
0.837993
0.868993
0.906675
0.943628
0.942557
0.899498
0.852433
0.796122
0.71114
0.675193
0.805706
0.688923
0.66427
0.675694
0.769622
0.827785
0.817864
0.783464
0.727092
0.67748
0.658592
0.628026
0.634812
0.650435
0.666627
0.681912
0.69063
0.700992
0.714612
0.731362
0.748221
0.770503
0.796157
0.827133
0.866709
0.915145
0.947228
0.939422
0.907923
0.874985
0.810886
0.754694
0.795244
0.977826
0.702935
0.694108
0.732105
0.848111
0.892456
0.881341
0.817569
0.721813
0.649407
0.62577
0.619518
0.626461
0.637815
0.650383
0.661857
0.674944
0.689616
0.70296
0.718373
0.738264
0.761272
0.792398
0.832462
0.881448
0.925133
0.947833
0.941382
0.919756
0.879463
0.80875
0.792283
0.929978
1.00634
0.720742
0.724889
0.780772
0.914922
0.965141
0.950106
0.862284
0.736182
0.661986
0.639142
0.632
0.633106
0.638513
0.646299
0.655589
0.667134
0.679589
0.695924
0.71381
0.7363
0.766121
0.802904
0.846673
0.892489
0.930547
0.945147
0.93875
0.912048
0.859969
0.79139
0.837915
0.998243
0.958231
0.7379
0.751807
0.819814
0.972114
1.0343
1.019
0.918098
0.769879
0.68755
0.659532
0.643855
0.635673
0.63823
0.641728
0.647153
0.657411
0.671303
0.689466
0.711659
0.739546
0.771233
0.809393
0.851473
0.892986
0.923541
0.930974
0.914335
0.872794
0.799441
0.767121
0.902708
0.979202
0.885238
0.753585
0.77309
0.847281
1.01183
1.089
1.0818
0.976956
0.811102
0.714099
0.677713
0.650521
0.63509
0.632422
0.632913
0.636086
0.64746
0.663671
0.684534
0.711297
0.73987
0.764282
0.793589
0.829441
0.865963
0.887562
0.887934
0.855282
0.791119
0.724081
0.762668
0.940708
0.932254
0.808155
0.766158
0.786031
0.856908
1.02032
1.11527
1.11983
1.01604
0.839884
0.735899
0.692983
0.655374
0.634608
0.627466
0.627617
0.630542
0.643422
0.658382
0.676865
0.697554
0.70191
0.726946
0.769118
0.812263
0.848737
0.866842
0.8598
0.817737
0.743262
0.687226
0.795472
0.930142
0.880933
0.753001
0.775378
0.790671
0.850577
1.00438
1.11805
1.13277
1.03256
0.846063
0.748455
0.703069
0.663598
0.640956
0.628172
0.623883
0.624992
0.630785
0.637099
0.634635
0.64185
0.677948
0.735498
0.801878
0.860563
0.898056
0.903632
0.872308
0.800242
0.707527
0.668412
0.839331
0.901928
0.821264
0.726603
0.783107
0.791891
0.837652
0.966643
1.10145
1.12636
1.03806
0.846407
0.751514
0.708621
0.672625
0.640681
0.620024
0.611708
0.602214
0.589512
0.573692
0.592525
0.634799
0.749625
0.872092
0.958241
1.00999
1.0243
0.991015
0.911574
0.790758
0.679622
0.682617
0.866331
0.876867
0.771362
0.711487
0.791975
0.792601
0.824584
0.915426
1.06965
1.1096
1.04458
0.846406
0.743604
0.704324
0.669499
0.632425
0.604413
0.58411
0.556646
0.541318
0.557616
0.598737
0.724351
0.878036
0.937764
0.980332
1.00718
1.00013
0.948136
0.864338
0.744799
0.668471
0.730982
0.870123
0.850819
0.740726
0.703264
0.80112
0.79511
0.814147
0.869345
1.02061
1.09068
1.06321
0.870408
0.731807
0.691802
0.657987
0.620595
0.585935
0.556365
0.531329
0.534237
0.564396
0.666413
0.813509
0.877699
0.896997
0.931234
0.943448
0.927704
0.87152
0.784997
0.688246
0.668745
0.792841
0.862777
0.825399
0.736197
0.705397
0.808481
0.802244
0.807669
0.837238
0.942293
1.06525
1.07071
0.929716
0.731652
0.676533
0.645022
0.612991
0.574176
0.541825
0.52624
0.536608
0.599343
0.736319
0.807734
0.83892
0.854214
0.88593
0.888868
0.851033
0.767141
0.681313
0.658054
0.700191
0.837984
0.867316
0.806024
0.750781
0.719398
0.813308
0.813818
0.806038
0.819844
0.871958
1.0203
1.06438
0.998493
0.767893
0.668413
0.635576
0.60684
0.56787
0.535708
0.525328
0.549674
0.649891
0.745251
0.791183
0.811606
0.830306
0.858878
0.839449
0.760883
0.64632
0.62923
0.653939
0.765973
0.865073
0.87985
0.798715
0.781692
0.749881
0.815361
0.826054
0.81138
0.812791
0.832568
0.94497
1.06123
1.04902
0.854453
0.675937
0.630846
0.601287
0.565451
0.534233
0.528891
0.573693
0.683142
0.742178
0.777071
0.78317
0.812351
0.83326
0.787569
0.661293
0.575058
0.595803
0.685426
0.835938
0.897705
0.883586
0.814476
0.815047
0.805397
0.813805
0.832919
0.824969
0.810008
0.812228
0.870988
1.04147
1.08091
0.958425
0.728228
0.633332
0.599776
0.566423
0.537072
0.538885
0.603613
0.696162
0.738534
0.752431
0.764434
0.802759
0.817645
0.752897
0.613431
0.56721
0.607138
0.751323
0.87797
0.929764
0.883939
0.838166
0.84878
0.864009
0.809841
0.83497
0.838658
0.813637
0.803062
0.814802
0.953077
1.09613
1.04327
0.854242
0.655823
0.603205
0.569708
0.543974
0.553655
0.632152
0.69997
0.731901
0.726398
0.756549
0.797714
0.817674
0.745665
0.608952
0.588492
0.649235
0.816007
0.902738
0.94371
0.872314
0.851575
0.866411
0.893504
0.803399
0.833149
0.844147
0.830255
0.7983
0.788333
0.826974
1.06985
1.11505
0.982376
0.743832
0.619152
0.577095
0.55436
0.570999
0.651981
0.701013
0.716597
0.702334
0.743413
0.791726
0.823329
0.75619
0.637712
0.632997
0.706551
0.857458
0.916208
0.934492
0.854032
0.852014
0.8666
0.88756
0.795042
0.827297
0.843843
0.837876
0.811911
0.778729
0.766518
0.879087
1.14082
1.07907
0.904524
0.666563
0.590067
0.565084
0.584349
0.662725
0.698139
0.692401
0.678164
0.723947
0.791172
0.838823
0.822905
0.724576
0.710255
0.766083
0.881544
0.9222
0.91374
0.83882
0.843908
0.856181
0.85924
0.785503
0.81784
0.837778
0.837939
0.822182
0.782234
0.747604
0.739704
1.10467
1.14822
1.04553
0.792718
0.619379
0.579438
0.595648
0.665693
0.690346
0.66058
0.647829
0.697289
0.7837
0.839354
0.852608
0.780828
0.764708
0.808946
0.890272
0.919312
0.892519
0.834974
0.83812
0.84438
0.825176
0.77726
0.807729
0.828321
0.833211
0.821546
0.793078
0.738975
0.706521
0.924777
1.15034
1.12371
0.957414
0.691116
0.595448
0.600566
0.662
0.679244
0.629865
0.621427
0.672081
0.770432
0.840599
0.881002
0.858143
0.822408
0.852542
0.894755
0.917716
0.883516
0.838185
0.839601
0.835672
0.799303
0.770358
0.79696
0.815991
0.822289
0.814501
0.789095
0.749887
0.69761
0.738066
1.08597
1.16512
1.08039
0.820053
0.622711
0.604973
0.657186
0.671935
0.61765
0.608212
0.652242
0.741492
0.836284
0.887339
0.914941
0.880081
0.891302
0.907092
0.916437
0.877559
0.838174
0.836312
0.823541
0.784248
0.765591
0.787052
0.802918
0.808649
0.803821
0.781457
0.745653
0.68708
0.674094
0.937948
1.15212
1.14541
0.970193
0.68042
0.608146
0.64831
0.665881
0.611857
0.597861
0.637466
0.708343
0.813921
0.885502
0.929781
0.931501
0.920465
0.930805
0.928035
0.877904
0.826549
0.813288
0.794909
0.759757
0.762082
0.778568
0.789379
0.793944
0.789008
0.769076
0.734544
0.677334
0.644677
0.733646
1.08308
1.16976
1.07488
0.77965
0.611578
0.63548
0.658261
0.609698
0.588355
0.627873
0.689015
0.776743
0.883074
0.948987
0.979299
0.962748
0.940669
0.932359
0.887701
0.807624
0.782829
0.759115
0.724913
0.759339
0.771187
0.777178
0.779001
0.772933
0.754802
0.720789
0.665043
0.625385
0.655702
0.951761
1.15068
1.12343
0.904892
0.625883
0.616226
0.648518
0.610247
0.58322
0.622932
0.678112
0.747004
0.840142
0.960847
1.01312
1.02288
0.988153
0.941368
0.897254
0.814716
0.736416
0.698696
0.672782
0.756231
0.76438
0.766556
0.765204
0.756561
0.738385
0.705512
0.651162
0.604574
0.616777
0.7537
1.08617
1.13863
0.997763
0.667305
0.594885
0.629087
0.61103
0.586479
0.631792
0.684498
0.730879
0.7961
0.9073
1.02082
1.04951
1.04099
0.986942
0.91412
0.834294
0.7145
0.65678
0.627979
0.752228
0.757595
0.75756
0.752804
0.741399
0.722146
0.689158
0.639746
0.579996
0.58652
0.639714
0.957717
1.11221
1.03806
0.77058
0.57733
0.594019
0.617793
0.603365
0.655482
0.72457
0.744358
0.779279
0.85049
0.976219
1.07487
1.09069
1.06466
0.979946
0.864551
0.731131
0.640359
0.597759
0.747201
0.750428
0.748687
0.741915
0.728044
0.707729
0.673657
0.629872
0.565383
0.552437
0.581997
0.79864
1.05594
1.04852
0.868708
0.581861
0.552277
0.591107
0.605758
0.647073
0.731305
0.801014
0.791799
0.818081
0.883613
1.004
1.10411
1.10802
1.06076
0.957479
0.808756
0.654855
0.588432
0.74101
0.742529
0.739385
0.7321
0.717236
0.696327
0.660988
0.619254
0.55949
0.519766
0.536745
0.690379
0.962875
1.03143
0.923183
0.638835
0.527465
0.542064
0.574222
0.610122
0.682313
0.787813
0.865154
0.832528
0.843067
0.887692
0.995063
1.10762
1.09779
1.0385
0.928578
0.748956
0.604511
0.733111
0.73348
0.730371
0.723581
0.708921
0.688333
0.65208
0.610394
0.564685
0.498587
0.49993
0.566971
0.86752
0.997132
0.933684
0.75054
0.533752
0.510126
0.52763
0.565579
0.621283
0.719671
0.840005
0.926616
0.863526
0.848417
0.87348
0.963777
1.08445
1.07233
1.00672
0.88486
0.698942
0.72416
0.723472
0.721246
0.715769
0.702483
0.683071
0.646758
0.605356
0.568165
0.498386
0.469928
0.49614
0.754749
0.953459
0.933667
0.82596
0.605076
0.501262
0.496876
0.519346
0.56549
0.638595
0.76201
0.913281
0.990548
0.871862
0.841669
0.85264
0.931001
1.05225
1.0378
0.969279
0.844049
0.714313
0.713044
0.711758
0.708282
0.697352
0.679689
0.644077
0.602477
0.565656
0.514231
0.448663
0.452011
0.665032
0.897309
0.921535
0.858823
0.720889
0.530728
0.485972
0.488349
0.518467
0.579432
0.678988
0.852342
1.01985
1.01935
0.862523
0.827877
0.833254
0.898661
1.02849
1.006
0.928001
0.706352
0.704553
0.704029
0.702066
0.692339
0.675913
0.641933
0.601594
0.564712
0.519539
0.434934
0.41869
0.541304
0.824403
0.890714
0.86105
0.787812
0.655916
0.509403
0.480931
0.491191
0.53473
0.617539
0.762751
1.00289
1.12014
1.01954
0.844703
0.814914
0.811761
0.899961
1.01154
0.972704
0.702894
0.700082
0.698716
0.695813
0.686332
0.670363
0.638107
0.601059
0.566493
0.519362
0.427745
0.391643
0.442798
0.734726
0.851673
0.846278
0.808688
0.73589
0.6235
0.518461
0.490753
0.510227
0.569623
0.691624
0.940352
1.17225
1.1865
0.960834
0.824113
0.797938
0.797817
0.96251
0.990077
0.700355
0.696369
0.693697
0.689519
0.679394
0.662504
0.631849
0.596531
0.56319
0.518497
0.430679
0.373295
0.39526
0.61517
0.793095
0.820368
0.800976
0.767224
0.70774
0.622624
0.548937
0.536198
0.576035
0.668347
0.889604
1.18705
1.30487
1.15182
0.87933
0.807521
0.780351
0.836647
0.982918
0.700928
0.695493
0.690569
0.683622
0.672042
0.652654
0.622062
0.589581
0.554024
0.508157
0.432477
0.36082
0.368581
0.478761
0.695226
0.78333
0.785948
0.767685
0.742812
0.701233
0.633103
0.601037
0.623898
0.694655
0.868688
1.15264
1.3892
1.34115
1.02236
0.836539
0.788113
0.800453
0.935773
0.706962
0.698909
0.690496
0.678987
0.664156
0.640179
0.609037
0.578517
0.543386
0.495549
0.431106
0.356019
0.34636
0.393382
0.566256
0.700595
0.762731
0.765236
0.753824
0.740689
0.711185
0.67997
0.695467
0.746773
0.873767
1.10356
1.39644
1.47657
1.19665
0.894017
0.803813
0.789506
0.860472
0.717879
0.706501
0.693252
0.676282
0.655927
0.626325
0.594095
0.563427
0.528283
0.485365
0.428132
0.352085
0.329966
0.353653
0.456408
0.624527
0.722164
0.756923
0.760989
0.76162
0.761474
0.753379
0.770051
0.808621
0.894664
1.0631
1.33756
1.52477
1.35972
0.98549
0.823687
0.787806
0.825566
0.733386
0.717562
0.698461
0.675551
0.647504
0.610843
0.57759
0.545807
0.510642
0.474068
0.429442
0.365305
0.323842
0.335837
0.389241
0.539034
0.674908
0.742006
0.769698
0.785982
0.796625
0.805794
0.821714
0.850826
0.911821
1.03505
1.26515
1.50212
1.45377
1.07903
0.860809
0.793653
0.811754
0.751549
0.73194
0.706556
0.676063
0.637612
0.595356
0.560255
0.526415
0.493475
0.462567
0.425462
0.375955
0.326532
0.325917
0.35515
0.447499
0.60974
0.715246
0.7728
0.806666
0.827823
0.843125
0.861052
0.886118
0.931648
1.02486
1.20514
1.43222
1.44735
1.14668
0.901798
0.806066
0.804098
0.771464
0.748904
0.716851
0.67778
0.628856
0.580441
0.541282
0.506737
0.478267
0.455699
0.424439
0.376226
0.328974
0.320112
0.338943
0.389581
0.50454
0.651368
0.745402
0.805362
0.840006
0.86316
0.884191
0.906053
0.940636
1.00481
1.12776
1.31473
1.38987
1.16637
0.923005
0.822673
0.80136
0.792328
0.767864
0.72884
0.678122
0.619558
0.565356
0.52204
0.488737
0.465504
0.45051
0.427672
0.380007
0.327811
0.318947
0.330789
0.359352
0.424991
0.528685
0.65018
0.74547
0.798917
0.830158
0.851171
0.864992
0.875851
0.920343
1.02987
1.21513
1.29896
1.08122
0.893477
0.83716
0.8012
0.812888
0.786771
0.741694
0.67882
0.610412
0.551649
0.505133
0.473041
0.455271
0.445302
0.431045
0.389562
0.328595
0.318431
0.325449
0.343447
0.379399
0.437158
0.510674
0.588356
0.642693
0.676031
0.690567
0.708914
0.769718
0.86048
0.974271
1.12905
1.12823
0.93592
0.856396
0.84109
0.809913
0.83244
0.803856
0.752969
0.67918
0.603835
0.540599
0.492744
0.462732
0.44772
0.44099
0.433282
0.402226
0.334306
0.316485
0.321463
0.333352
0.353728
0.384051
0.423031
0.459783
0.488092
0.509584
0.545684
0.633903
0.743366
0.819827
0.913635
0.968424
0.879635
0.843195
0.840969
0.851158
0.840758
0.848533
0.81723
0.760057
0.67833
0.597352
0.533246
0.485908
0.457767
0.443224
0.437756
0.433085
0.410815
0.347355
0.314526
0.317112
0.325464
0.338056
0.355042
0.375359
0.393925
0.409073
0.434006
0.517091
0.627176
0.705089
0.751913
0.758515
0.739244
0.779807
0.838518
0.865237
0.882073
0.869609
0.860335
0.824641
0.759679
0.673105
0.592461
0.528392
0.483391
0.456666
0.441546
0.435438
0.431546
0.415441
0.361346
0.313584
0.31261
0.318585
0.326812
0.336914
0.348184
0.359171
0.375169
0.422123
0.523712
0.600519
0.6178
0.589731
0.607826
0.693748
0.799735
0.850576
0.867237
0.875562
0.864071
0.867856
0.824481
0.751306
0.664818
0.587578
0.525155
0.484039
0.459718
0.444458
0.435551
0.429866
0.415977
0.370532
0.314733
0.308181
0.311979
0.318022
0.325424
0.334186
0.34595
0.369085
0.435832
0.509856
0.50983
0.503517
0.542709
0.64318
0.733982
0.785975
0.799971
0.787435
0.806357
0.824465
0.872779
0.818529
0.740699
0.655421
0.582027
0.523092
0.487021
0.46516
0.449353
0.436898
0.428022
0.412959
0.372581
0.314207
0.304139
0.306889
0.312213
0.319014
0.327705
0.341513
0.376766
0.431488
0.449901
0.458
0.515995
0.612042
0.666595
0.676518
0.685822
0.709503
0.711641
0.695365
0.741748
0.874702
0.812235
0.731038
0.647046
0.576508
0.524267
0.493056
0.471823
0.454699
0.439012
0.426491
0.40833
0.374379
0.317701
0.300445
0.30193
0.307001
0.313679
0.323081
0.341082
0.382508
0.411574
0.428175
0.490427
0.571164
0.599428
0.569768
0.601429
0.649326
0.687612
0.69682
0.658218
0.644862
0.872862
0.803028
0.717861
0.639088
0.574074
0.529996
0.499383
0.47806
0.457649
0.438017
0.422601
0.401765
0.37095
0.321658
0.297889
0.297705
0.302668
0.309823
0.322069
0.347731
0.378015
0.404909
0.458756
0.526973
0.535185
0.504333
0.540736
0.591571
0.643511
0.688652
0.707899
0.684837
0.621579
0.867077
0.788446
0.704835
0.632266
0.576759
0.539054
0.50877
0.484601
0.458613
0.434258
0.415938
0.393007
0.363779
0.317601
0.295805
0.295471
0.300551
0.30921
0.324961
0.349536
0.37793
0.428299
0.484123
0.493775
0.456667
0.487901
0.566876
0.631847
0.665265
0.689098
0.718042
0.733441
0.648666
0.852646
0.768575
0.690253
0.628845
0.584097
0.550194
0.520948
0.490162
0.457373
0.427986
0.406468
0.382936
0.354253
0.311424
0.295111
0.296295
0.301872
0.311877
0.327871
0.351365
0.398433
0.444189
0.461392
0.426556
0.445359
0.528754
0.606147
0.679042
0.731704
0.724512
0.722428
0.749323
0.756147
0.828289
0.742349
0.675972
0.626831
0.59594
0.563249
0.532816
0.494979
0.453613
0.419663
0.394882
0.371805
0.341736
0.30436
0.295668
0.298256
0.304104
0.313576
0.329611
0.367473
0.412675
0.432984
0.408376
0.416846
0.471936
0.526884
0.584563
0.669798
0.749852
0.794455
0.763745
0.741772
0.789257
0.795167
0.71353
0.661659
0.62872
0.609736
0.579234
0.542891
0.4963
0.445728
0.408248
0.382023
0.356419
0.323993
0.298045
0.295039
0.298637
0.304965
0.316038
0.341008
0.384205
0.407242
0.404283
0.401408
0.428659
0.462107
0.46121
0.495795
0.591211
0.724552
0.810706
0.845964
0.790432
0.743625
0.758253
0.685922
0.648517
0.632467
0.624308
0.596626
0.553276
0.491819
0.43187
0.391099
0.363775
0.33601
0.306869
0.294253
0.294452
0.298544
0.305854
0.321732
0.358356
0.384976
0.399229
0.391838
0.400753
0.413276
0.386563
0.403257
0.443722
0.539929
0.683601
0.802717
0.867225
0.891128
0.802996
0.72321
0.663781
0.639349
0.638188
0.637907
0.61311
0.562245
0.487371
0.4151
0.371539
0.343189
0.317087
0.297263
0.292376
0.294229
0.299455
0.310875
0.3345
0.367525
0.385897
0.394469
0.389092
0.393033
0.363925
0.368125
0.389068
0.425549
0.511712
0.651686
0.787195
0.867591
0.915456
0.920438
0.696031
0.649856
0.634904
0.644275
0.651051
0.628763
0.570818
0.484969
0.40059
0.354194
0.324574
0.302116
0.29286
0.291414
0.294068
0.301353
0.315925
0.346292
0.371705
0.38653
0.39247
0.383751
0.368258
0.351954
0.366077
0.387309
0.426999
0.524282
0.655028
0.773495
0.867897
0.927933
0.949204
0.680116
0.642726
0.634111
0.650006
0.663506
0.644025
0.580951
0.485358
0.389639
0.338852
0.308661
0.295588
0.290923
0.290655
0.29404
0.30276
0.323085
0.355017
0.373687
0.386662
0.386932
0.370464
0.352609
0.359244
0.374357
0.401158
0.463306
0.575092
0.654338
0.730937
0.82161
0.901095
0.942761
0.671449
0.640648
0.636147
0.655317
0.675449
0.659038
0.592392
0.487229
0.381199
0.326636
0.302122
0.292405
0.289619
0.290494
0.294864
0.30762
0.333679
0.360196
0.37565
0.387121
0.388432
0.378934
0.362137
0.361802
0.381847
0.426387
0.526236
0.588511
0.63145
0.67397
0.737472
0.8234
0.898705
0.66714
0.641355
0.640515
0.660669
0.686674
0.674695
0.606369
0.493244
0.378156
0.323222
0.299931
0.291099
0.289172
0.290448
0.297298
0.314142
0.342556
0.362816
0.376899
0.388193
0.392125
0.385471
0.355676
0.363873
0.402855
0.49115
0.552786
0.586985
0.610769
0.631382
0.662551
0.72014
0.805962
0.665761
0.64564
0.647093
0.666057
0.696927
0.691746
0.623501
0.506039
0.381461
0.323042
0.298833
0.289893
0.288808
0.290439
0.298467
0.317614
0.345657
0.363464
0.377599
0.389439
0.393216
0.367681
0.350162
0.382275
0.467755
0.525828
0.558279
0.57889
0.592508
0.601754
0.614267
0.641315
0.69764
0.666826
0.65195
0.655104
0.671433
0.705212
0.710127
0.645008
0.525141
0.389792
0.325331
0.298783
0.2891
0.28797
0.289812
0.298538
0.317876
0.345786
0.363418
0.377768
0.388974
0.381546
0.336072
0.358242
0.443001
0.50711
0.534013
0.554779
0.568522
0.576526
0.579415
0.583728
0.602435
0.648107
0.669752
0.658849
0.663547
0.677234
0.711024
0.724475
0.669497
0.550791
0.403694
0.330012
0.300042
0.289182
0.28732
0.289069
0.297949
0.316965
0.344586
0.362003
0.375904
0.37866
0.33652
0.33371
0.417747
0.494609
0.515135
0.53304
0.549117
0.559958
0.564736
0.564374
0.5688
0.587868
0.618118
0.67299
0.664826
0.670909
0.683575
0.715169
0.735654
0.690063
0.577841
0.425883
0.337445
0.302327
0.28947
0.286584
0.287778
0.295866
0.31354
0.339866
0.35644
0.36589
0.342028
0.312231
0.386134
0.481656
0.50227
0.513123
0.529729
0.546874
0.558795
0.56259
0.56003
0.565116
0.583006
0.576234
0.676443
0.669623
0.676685
0.690006
0.71565
0.741893
0.706387
0.602155
0.448911
0.346342
0.304609
0.288733
0.283791
0.284062
0.289747
0.305769
0.327732
0.340471
0.332152
0.311666
0.350408
0.467077
0.491901
0.499502
0.50955
0.529904
0.55047
0.562394
0.562321
0.559815
0.567462
0.578762
0.498259
0.677715
0.673235
0.680458
0.694969
0.715399
0.739223
0.715912
0.622154
0.47136
0.356373
0.30712
0.287425
0.281262
0.280205
0.285428
0.296063
0.306019
0.307337
0.304658
0.323013
0.445628
0.479969
0.489117
0.494447
0.507986
0.537079
0.5566
0.565872
0.563549
0.562005
0.568893
0.550883
0.416468
0.675003
0.677462
0.683455
0.697521
0.71484
0.727939
0.711241
0.632507
0.491958
0.368905
0.311768
0.288642
0.279864
0.277917
0.279066
0.281609
0.284275
0.288186
0.302833
0.377301
0.460202
0.471082
0.483664
0.493036
0.511201
0.54284
0.560768
0.570062
0.56985
0.567511
0.562826
0.496504
0.386226
0.670986
0.682511
0.686788
0.698833
0.713693
0.71909
0.688265
0.620682
0.498677
0.381013
0.318093
0.2897
0.277822
0.272864
0.270672
0.2707
0.274058
0.283544
0.3155
0.414717
0.44929
0.467147
0.481168
0.493024
0.516112
0.547691
0.566167
0.577469
0.579201
0.572395
0.547145
0.474194
0.37542
0.636649
0.618616
0.589908
0.666117
0.850373
0.881204
0.86643
0.816155
0.626588
0.606334
0.594731
0.658183
0.845466
0.864943
0.816541
0.759088
0.614898
0.596201
0.590879
0.628497
0.812258
0.858911
0.769236
0.664019
0.606367
0.585972
0.58458
0.598497
0.744095
0.829805
0.776364
0.627228
0.595066
0.574238
0.572017
0.57579
0.64468
0.776219
0.757007
0.653227
0.582166
0.561406
0.556611
0.55581
0.572503
0.685444
0.713968
0.681179
0.568565
0.548575
0.540487
0.53713
0.53616
0.568019
0.647669
0.644259
0.553607
0.53739
0.524844
0.520099
0.514925
0.518352
0.557557
0.584947
0.539974
0.526579
0.508875
0.502391
0.49691
0.495913
0.513489
0.534609
0.530211
0.517155
0.49365
0.485786
0.480782
0.481824
0.495069
0.511001
0.523003
0.506931
0.47952
0.469674
0.466079
0.472393
0.48718
0.502467
0.518035
0.495772
0.465838
0.454588
0.451434
0.461548
0.484299
0.50149
0.511456
0.480754
0.450396
0.439742
0.43856
0.450679
0.484746
0.510008
0.499139
0.457097
0.434014
0.428306
0.430193
0.446717
0.488352
0.526209
0.486775
0.444467
0.426624