/*--------------------------------*- C++ -*----------------------------------*\
  =========                 |
  \\      /  F ield         | OpenFOAM: The Open Source CFD Toolbox
   \\    /   O peration     | Website:  https://openfoam.org
    \\  /    A nd           | Version:  10
     \\/     M anipulation  |
\*---------------------------------------------------------------------------*/
FoamFile
{
    format      ascii;
    class       volScalarField;
    location    "0.250933";
    object      T;
}
// * * * * * * * * * * * * * * * * * * * * * * * * * * * * * * * * * * * * * //

dimensions      [0 0 0 1 0 0 0];

internalField   nonuniform List<scalar> 
16320
(
0.00273762
0.00332939
0.00362956
0.00378633
0.00387518
0.0039212
0.00392083
0.00390966
0.00388277
0.00382564
0.00370423
0.00355645
0.00341048
0.00326837
0.00315223
0.00306141
0.00301289
0.00298064
0.00296211
0.00295848
0.00296255
0.00296729
0.0029645
0.00292231
0.00281371
0.00268398
0.00262624
0.00257368
0.00254995
0.00254867
0.00257997
0.00274971
0.00298416
0.00236203
0.00262788
0.0032436
0.00365279
0.00383245
0.00392826
0.00397096
0.00397047
0.00395819
0.00392914
0.00387537
0.00376271
0.00364375
0.00351788
0.00339651
0.00328058
0.00318222
0.00309912
0.00303607
0.00298905
0.00295356
0.00287803
0.00274266
0.00259488
0.00245674
0.00244499
0.00244772
0.00246983
0.0024964
0.00251543
0.00257674
0.0028109
0.00303006
0.00237462
0.00243714
0.00272454
0.00328544
0.00366401
0.00389036
0.0039968
0.00403095
0.00402128
0.00399869
0.00396777
0.00389946
0.00380043
0.00367874
0.00354631
0.00339957
0.00326375
0.00313374
0.00302236
0.00289557
0.00275426
0.0025768
0.0024346
0.00231735
0.00229621
0.00231834
0.00236114
0.00244144
0.0024787
0.00250778
0.00260158
0.00288681
0.00307869
0.00245328
0.0024751
0.00264405
0.00309925
0.00353379
0.00381327
0.00397864
0.00404561
0.00404678
0.00403447
0.00400574
0.00394564
0.00385828
0.00374927
0.00361678
0.00344766
0.00326993
0.00305647
0.00283867
0.00264486
0.00247232
0.0023497
0.00224912
0.00220075
0.00221672
0.00227297
0.00233943
0.00244113
0.00247639
0.0025127
0.0026311
0.00293206
0.00309535
0.00245653
0.00250023
0.00271206
0.00314666
0.0035135
0.00376625
0.00393528
0.00401745
0.00402667
0.00401458
0.0039876
0.00393905
0.00385572
0.00372883
0.00355852
0.00335129
0.00311324
0.00286236
0.00263619
0.00245769
0.00231347
0.00221851
0.00215617
0.00215755
0.00219243
0.00227777
0.00235646
0.0024467
0.00246678
0.00251585
0.00268415
0.00298914
0.00311813
0.00247651
0.002674
0.00304023
0.00333909
0.00357148
0.00375477
0.00388764
0.00396307
0.00400306
0.00399156
0.00396314
0.00391605
0.00382121
0.00363185
0.00342475
0.0031966
0.00296459
0.00274237
0.00254206
0.00237058
0.0022481
0.00215998
0.0021399
0.00215847
0.00221941
0.00231731
0.00239427
0.00244556
0.0024677
0.0025359
0.0027671
0.00304285
0.00314005
0.00286531
0.00314865
0.00331645
0.00345311
0.00357368
0.00367098
0.0037605
0.00382229
0.00383662
0.00381047
0.00376293
0.00369517
0.00357862
0.00341478
0.00322322
0.00302509
0.00283919
0.00265996
0.00248799
0.00232715
0.0022163
0.00215311
0.00215653
0.00219031
0.0022767
0.00235646
0.00241599
0.0024337
0.00247346
0.0025958
0.00288921
0.00309767
0.00315909
0.00320262
0.00325676
0.00330021
0.00334855
0.00341805
0.00349864
0.00356577
0.00360892
0.00360578
0.00357657
0.00349594
0.00338126
0.00323487
0.00307909
0.00292431
0.00278388
0.00265636
0.00253395
0.00241173
0.00230026
0.00220611
0.00218333
0.00219932
0.00225077
0.00234396
0.00238658
0.00241824
0.00244349
0.00251025
0.0027244
0.00300922
0.00313845
0.00316457
0.00310768
0.00307813
0.00314329
0.00325146
0.00336535
0.00347545
0.00356471
0.00361845
0.0036355
0.00361586
0.00354144
0.00339843
0.00322176
0.003031
0.00284445
0.00269235
0.0025711
0.00246492
0.00236731
0.00228871
0.00223469
0.00224075
0.00227425
0.00234395
0.00239968
0.00240218
0.00242712
0.00248335
0.00261434
0.00291249
0.00311298
0.00315882
0.0031606
0.0029325
0.0030045
0.00316337
0.00340803
0.00359842
0.00372919
0.00380286
0.0038359
0.00384773
0.00384142
0.00380582
0.00370344
0.00351801
0.00326756
0.00299019
0.00277575
0.00260953
0.00248088
0.00239178
0.00232076
0.00230388
0.00232052
0.00236671
0.00241547
0.00242916
0.00242771
0.00247171
0.00258087
0.00282002
0.00307378
0.00316894
0.00316283
0.00313591
0.00297763
0.00320106
0.00352614
0.00370261
0.00377555
0.00382273
0.00385229
0.00386476
0.00386841
0.00386579
0.00385271
0.00382053
0.00376785
0.00365635
0.00342495
0.00310586
0.00280764
0.00259437
0.00247179
0.00239024
0.00239089
0.00241372
0.00245434
0.00246138
0.00245243
0.00247393
0.0025946
0.00275054
0.00302427
0.00317958
0.00319667
0.00314472
0.00309569
0.00333644
0.00359024
0.00369881
0.00375052
0.00378158
0.00379641
0.00379092
0.0037818
0.00377136
0.00375289
0.00374248
0.00372191
0.00370832
0.00368967
0.00363045
0.00346742
0.00313855
0.00283494
0.00263706
0.00249649
0.00249294
0.00251159
0.00251483
0.00249743
0.00249934
0.00258866
0.00277282
0.00294505
0.00318905
0.00324031
0.00319893
0.00308296
0.00305028
0.00363013
0.00368977
0.00371958
0.00374362
0.00374022
0.00373286
0.00372604
0.0037156
0.0037003
0.0036805
0.00366038
0.00363364
0.0036077
0.00360405
0.00360092
0.0035837
0.00346125
0.00316846
0.00288596
0.00265446
0.00261885
0.00259685
0.0025569
0.00253756
0.00259816
0.00276495
0.0029598
0.00311927
0.00327736
0.00326902
0.00314521
0.00301848
0.00301176
0.00368154
0.00369983
0.00371234
0.00371662
0.00371155
0.00370722
0.00370097
0.00369084
0.00367747
0.00365482
0.00362763
0.00359872
0.00356366
0.00354206
0.00354175
0.00355331
0.00354589
0.00344943
0.00321097
0.00288702
0.00276868
0.00266216
0.00258647
0.00260346
0.00274372
0.00295303
0.00312196
0.00323608
0.0033132
0.00326582
0.00305436
0.00297614
0.00299188
0.00368536
0.00369049
0.00369586
0.00370363
0.00370242
0.00369887
0.00369358
0.00368447
0.00366987
0.0036482
0.00361512
0.00358579
0.0035507
0.00351358
0.00350587
0.0035195
0.00355537
0.00355165
0.00344036
0.00311714
0.00289208
0.00269523
0.00262461
0.00269492
0.0029176
0.00311485
0.00323933
0.0033062
0.00332371
0.0032165
0.00298923
0.00295476
0.00298749
0.00368406
0.00368625
0.00369147
0.00370005
0.00370044
0.00369791
0.00369695
0.00369143
0.00367726
0.00365538
0.003612
0.00358169
0.00354756
0.00350634
0.00349513
0.00350591
0.00355842
0.00362407
0.00359626
0.00335202
0.0030016
0.0027192
0.00267428
0.00280706
0.00307553
0.00323637
0.00331478
0.00334288
0.00332049
0.00313491
0.00297453
0.00295695
0.00299292
0.00369053
0.00369123
0.0036941
0.0037023
0.00371193
0.00371013
0.00370875
0.00370259
0.00368242
0.00366684
0.00362169
0.00358559
0.0035542
0.00351065
0.00350158
0.00351203
0.00356801
0.00367462
0.00366449
0.00344699
0.00302131
0.00272743
0.0027293
0.00292535
0.00319836
0.00332044
0.0033619
0.00336596
0.00330446
0.00310555
0.00298552
0.00297493
0.00300841
0.00370374
0.00370448
0.00370668
0.00372504
0.00374359
0.00374282
0.00374567
0.00374434
0.00373367
0.00371772
0.00367806
0.00361806
0.00357483
0.00353044
0.00352079
0.00353495
0.00359855
0.00372128
0.00370299
0.00345201
0.00298895
0.00272947
0.00277823
0.00305398
0.00329672
0.00337654
0.00339041
0.0033819
0.00329111
0.00310936
0.00301944
0.00301895
0.00305649
0.00372268
0.00374163
0.00374801
0.00376827
0.00378504
0.00379106
0.00380841
0.00381513
0.00381167
0.00379292
0.00376052
0.00368184
0.00360512
0.00356058
0.00355365
0.00356845
0.0036442
0.00376866
0.00371787
0.00340561
0.00293415
0.00273774
0.00283937
0.00316887
0.00336849
0.00341271
0.00341061
0.00339156
0.00329239
0.00313158
0.00307777
0.00309789
0.00316499
0.00376282
0.00377106
0.00377072
0.00378356
0.00379119
0.00380315
0.00385304
0.00388104
0.00388345
0.00386602
0.00386117
0.0037371
0.00361962
0.00360698
0.00360482
0.00362167
0.003698
0.00378107
0.0036893
0.00331627
0.00286725
0.00276468
0.00291604
0.00327023
0.00341722
0.00343803
0.00342837
0.00339505
0.00329719
0.00316588
0.00316825
0.00322841
0.00340463
0.0037759
0.00377276
0.00375749
0.00375868
0.00376175
0.00379924
0.00389745
0.00394708
0.00394439
0.00394658
0.00388515
0.00377336
0.00364371
0.0036261
0.0036474
0.00368508
0.00374321
0.00373064
0.00361293
0.00318689
0.00281026
0.00279152
0.00301305
0.00335233
0.00345065
0.00345782
0.00344302
0.00340661
0.00330083
0.00322839
0.00329169
0.00349914
0.00390839
0.0037487
0.00371276
0.00367576
0.00367343
0.00369626
0.00381035
0.003949
0.00396575
0.00396694
0.00394241
0.00390444
0.00374822
0.00363144
0.00362772
0.00366456
0.00374337
0.00373974
0.00367961
0.00341156
0.0030168
0.00276966
0.00282008
0.00313629
0.00341584
0.00347819
0.00347732
0.00345328
0.00343257
0.00331629
0.00332647
0.00348748
0.00392311
0.0042678
0.0036262
0.00355405
0.00350606
0.00353717
0.00365928
0.00387825
0.00395475
0.00396646
0.00395192
0.00392758
0.00383625
0.00364032
0.00356534
0.00357967
0.00366484
0.00374337
0.00370927
0.00351458
0.00318502
0.00286375
0.00275349
0.00287949
0.0032677
0.00346496
0.00350496
0.00349598
0.00348352
0.00347519
0.00337584
0.00345823
0.00376391
0.00417604
0.00436319
0.00338029
0.00330396
0.00332921
0.00348028
0.00368516
0.00391013
0.00395877
0.00394392
0.00389147
0.00379059
0.00358305
0.00345095
0.00345351
0.00350214
0.00363605
0.00366877
0.00359048
0.00329292
0.002996
0.00275291
0.00276336
0.00300157
0.0033837
0.00351182
0.00353788
0.00353132
0.00355334
0.00351764
0.00348136
0.00362343
0.00397252
0.00424453
0.00431922
0.00314562
0.00315588
0.00327686
0.00349802
0.00375141
0.0039174
0.00388751
0.00378868
0.00362665
0.003349
0.00320697
0.0032251
0.0032874
0.00344501
0.00355615
0.00355015
0.0033702
0.00308852
0.00280418
0.00272329
0.00281482
0.00318414
0.0034822
0.00356455
0.00359024
0.00361254
0.00366949
0.00361103
0.00362959
0.00379688
0.00411229
0.00427073
0.00426893
0.00302211
0.00310737
0.00327995
0.0035276
0.0037647
0.00378454
0.00361788
0.00331196
0.00296831
0.00286411
0.00291144
0.00301402
0.00320146
0.00335011
0.00340089
0.00331838
0.00307989
0.00282668
0.00272032
0.00274328
0.00296326
0.00339232
0.00357524
0.00365162
0.00369689
0.00377818
0.00382141
0.00375182
0.00383668
0.00402324
0.00430757
0.00446688
0.00449884
0.00299712
0.0031092
0.00330992
0.00352883
0.00364895
0.00341654
0.00299605
0.00263607
0.00252024
0.00259507
0.0027122
0.00290015
0.00302921
0.00307355
0.00302373
0.00290409
0.00278059
0.00272188
0.00273091
0.00285373
0.00325242
0.00357355
0.00372235
0.00379936
0.00389721
0.0040009
0.00399377
0.00397037
0.0041375
0.00444271
0.00477156
0.00508383
0.00543899
0.00299284
0.00312836
0.00333037
0.0034638
0.00332577
0.00282627
0.00246099
0.00234422
0.00234638
0.00245197
0.00254619
0.00256269
0.00261504
0.00266816
0.00269391
0.0027052
0.00271899
0.00273824
0.00282957
0.00315409
0.0035653
0.00379844
0.0039217
0.00401275
0.00413434
0.00417988
0.00416184
0.00425866
0.00458619
0.0050807
0.0055795
0.00623957
0.00680022
0.00300476
0.00317881
0.00331592
0.003269
0.00283461
0.00243275
0.00229819
0.00226964
0.00227318
0.00229648
0.00230049
0.00240541
0.00250727
0.00259569
0.00266141
0.00271235
0.00276128
0.00287256
0.00317258
0.00359345
0.00387407
0.00402614
0.00410135
0.00418869
0.00426426
0.00428388
0.00430219
0.00450406
0.00490128
0.00532541
0.00592162
0.00670854
0.00700729
0.00304122
0.00319567
0.00323934
0.00300031
0.00252483
0.00232031
0.00226812
0.00225493
0.00225591
0.00228701
0.00236997
0.00245339
0.00256337
0.00265346
0.00273237
0.00283368
0.00299997
0.00330538
0.00365531
0.00390326
0.00403936
0.00409903
0.00415386
0.00423403
0.00429069
0.00430806
0.00439043
0.00467304
0.00500799
0.00536446
0.00600216
0.00663917
0.00634564
0.00307762
0.00317906
0.00313343
0.00275261
0.00240691
0.00231233
0.00230428
0.00234404
0.00241287
0.00246579
0.00261534
0.00275814
0.00286294
0.00296301
0.00307421
0.00326292
0.00349998
0.00371243
0.00387933
0.00396981
0.0040211
0.00406559
0.00412935
0.00421155
0.00426187
0.00430811
0.00445538
0.00473444
0.00501317
0.00533513
0.00591461
0.00613911
0.00497011
0.00308976
0.00314453
0.0030158
0.00259255
0.00238831
0.00236751
0.00244866
0.0026302
0.00284348
0.00297891
0.00320741
0.00328953
0.0033482
0.00342061
0.0035085
0.00363211
0.00374148
0.00382546
0.00388524
0.00393766
0.00396942
0.00401277
0.00407855
0.00415588
0.00421907
0.00432113
0.0045111
0.00472444
0.00490804
0.00526022
0.00561175
0.00524542
0.00411605
0.00308377
0.00311064
0.00291641
0.00252634
0.00239748
0.00241801
0.00260218
0.00294603
0.00327997
0.00343549
0.00352045
0.00355511
0.00358506
0.00362118
0.00367224
0.00372273
0.0037701
0.00381513
0.00384752
0.00386882
0.00390347
0.00394679
0.00401814
0.00410461
0.0042138
0.0043543
0.00452124
0.00466958
0.00485918
0.00523635
0.00530638
0.00442788
0.00388605
0.00307117
0.00308271
0.00286776
0.0025029
0.00240255
0.00245757
0.00271012
0.00316722
0.00350011
0.00361893
0.00365653
0.00366522
0.00366869
0.00367943
0.00369977
0.00371821
0.00374117
0.00376001
0.00378675
0.00381591
0.00384914
0.00390594
0.00399917
0.00412791
0.00425034
0.00439247
0.00452157
0.00466168
0.00490223
0.00525838
0.00489556
0.00397772
0.00387241
0.00305607
0.00306332
0.00284982
0.00249972
0.00240601
0.00247401
0.00275404
0.00327144
0.00361302
0.00372273
0.00373965
0.00373357
0.00370411
0.00369407
0.00369093
0.00369004
0.0037045
0.00372961
0.00376294
0.00379871
0.00385658
0.00394279
0.004075
0.00421132
0.00433699
0.0044584
0.00458752
0.00477834
0.00515139
0.00527642
0.00437349
0.00383191
0.00395612
0.00303948
0.00304923
0.00285364
0.00250991
0.00241238
0.00246851
0.00274511
0.00329855
0.00368095
0.00379636
0.00381254
0.00377008
0.00371784
0.00369223
0.00367508
0.00366989
0.0036892
0.00372734
0.00376968
0.00383732
0.003975
0.0041348
0.00428169
0.00441323
0.00452657
0.00462953
0.0048058
0.00513177
0.0055068
0.00511454
0.00400027
0.00380823
0.00411318
0.00302475
0.00304231
0.00288506
0.00253999
0.00242693
0.00246857
0.00273907
0.00331872
0.00372772
0.0038375
0.00384685
0.00376477
0.00369932
0.0036588
0.00363889
0.00363687
0.00368615
0.00376378
0.00386834
0.0041099
0.00425617
0.00434167
0.00443494
0.00452209
0.00460102
0.00469013
0.0048903
0.00529069
0.00560069
0.00470849
0.00383617
0.00384526
0.00425545
0.00301127
0.00304096
0.00293479
0.00259049
0.00244491
0.00246879
0.00273446
0.00335103
0.00375489
0.00385295
0.00382983
0.00371038
0.0036462
0.00362177
0.00361546
0.00366576
0.00378215
0.00400808
0.00421827
0.00427315
0.00423628
0.00418862
0.00418807
0.00422453
0.00430603
0.00446486
0.00479705
0.00532787
0.00551258
0.00427568
0.00377841
0.00398254
0.00431359
0.00299298
0.00303892
0.00298766
0.00267676
0.00246835
0.00246286
0.00270375
0.00333656
0.00374465
0.00384154
0.003793
0.00369205
0.00364918
0.00364052
0.00369678
0.00387037
0.0041466
0.0042458
0.00422231
0.00382088
0.0035532
0.00349651
0.00353263
0.00361177
0.0037661
0.00405635
0.0046122
0.00528877
0.00516041
0.00397581
0.00376947
0.0041601
0.00435959
0.00296229
0.00303002
0.00302234
0.00280223
0.00249673
0.00244505
0.00262641
0.00326591
0.00372039
0.00383143
0.00380655
0.00372682
0.00370034
0.00374997
0.00392676
0.00412045
0.00417049
0.00409295
0.00358518
0.00319033
0.00319698
0.00326172
0.00334141
0.00345488
0.00365632
0.00399552
0.00463362
0.00513887
0.00463696
0.00383033
0.0038303
0.00431103
0.00440784
0.00292706
0.00301911
0.00303797
0.00292257
0.00255719
0.00242086
0.0025016
0.00306977
0.00365423
0.00381393
0.00383961
0.00378933
0.00377307
0.00385717
0.00400711
0.00405592
0.00397086
0.00350808
0.00306015
0.00300943
0.00314187
0.00321218
0.00331234
0.00344607
0.00370441
0.00415425
0.0047843
0.00495467
0.00417954
0.00380423
0.00396612
0.00440381
0.00445344
0.00289471
0.00299585
0.00304206
0.00300587
0.00271073
0.00242564
0.00240541
0.00276664
0.00351497
0.00377812
0.00384819
0.00381593
0.00380296
0.0038701
0.00393553
0.0038866
0.00355458
0.00303228
0.00289921
0.002981
0.00312942
0.00319589
0.00331606
0.00354564
0.00400286
0.00459925
0.00484545
0.0046412
0.00395953
0.00384555
0.00418126
0.00449414
0.00451802
0.0028744
0.0029547
0.00303717
0.00304436
0.00289094
0.00248378
0.00235671
0.00248869
0.00322968
0.00369963
0.00381788
0.00381585
0.00380912
0.00383798
0.00383705
0.00365597
0.00314222
0.00286715
0.00286045
0.00299266
0.0031283
0.00320235
0.0034172
0.00386413
0.00461944
0.00490597
0.0048586
0.00427713
0.00391529
0.00396588
0.00446052
0.00461002
0.00460427
0.00285979
0.00290918
0.00301897
0.00305936
0.00300701
0.00264466
0.0023312
0.0023181
0.0028148
0.00354619
0.00376186
0.00380825
0.00380868
0.00380823
0.0037327
0.0034073
0.0029411
0.00282397
0.00287814
0.00306382
0.00315561
0.00326318
0.00361777
0.00442232
0.00514661
0.00520045
0.00467073
0.00405429
0.00393566
0.00420634
0.00471794
0.00479613
0.00465916
0.00285227
0.0028805
0.00297374
0.0030634
0.0030719
0.00286208
0.00236732
0.00223028
0.00246297
0.0032004
0.0036764
0.00378333
0.00380633
0.00378669
0.00364153
0.00321162
0.00287072
0.00282648
0.0029674
0.00312726
0.00317869
0.00331605
0.00378541
0.00478621
0.00528844
0.00516921
0.00436448
0.00400478
0.00399736
0.00446178
0.00490791
0.00495726
0.00473889
0.00284441
0.00286535
0.00292476
0.00304889
0.00310426
0.00306154
0.00258131
0.00218978
0.00223555
0.00269585
0.00349173
0.00373396
0.00380446
0.0037726
0.00356488
0.00308529
0.00286437
0.00287752
0.00308332
0.00317195
0.00320121
0.00333525
0.0038676
0.00485945
0.00520539
0.00490648
0.00416666
0.00398045
0.004067
0.00465657
0.00498195
0.00501319
0.00479651
0.00283488
0.00285413
0.00290067
0.00298721
0.00311805
0.00315658
0.00297305
0.00224209
0.00208927
0.00233437
0.00305695
0.00361919
0.0037829
0.00375596
0.0035053
0.00304617
0.00289359
0.00299128
0.00320676
0.00324229
0.00323682
0.00332947
0.0038501
0.00469204
0.00491758
0.00457127
0.00402984
0.00394236
0.00413305
0.00473894
0.00497422
0.00499839
0.00483049
0.00282186
0.00284133
0.00288398
0.00295134
0.00306002
0.00318618
0.00320235
0.00273174
0.00205047
0.00212626
0.0025115
0.00336232
0.00371905
0.00374555
0.00348845
0.00305774
0.00295463
0.00314877
0.00334414
0.0033385
0.00325468
0.00326243
0.00355698
0.00418074
0.00441433
0.00425499
0.00391619
0.00387689
0.00415504
0.00471151
0.00488675
0.00491111
0.00484583
0.00280758
0.00282836
0.00286898
0.00293126
0.00300799
0.00316121
0.00327757
0.00325957
0.0021316
0.00200762
0.00217955
0.00283409
0.00356133
0.00371163
0.00348624
0.00310379
0.00304181
0.00334521
0.00353816
0.0034746
0.00328823
0.00325665
0.00342531
0.00389908
0.00410023
0.00403827
0.00383225
0.00381371
0.00412815
0.004575
0.00472293
0.00476316
0.00480957
0.00278891
0.00280944
0.00284851
0.00291056
0.00298383
0.00309613
0.00330231
0.00341017
0.00254991
0.00201713
0.00203646
0.00236244
0.00321023
0.00364816
0.00351368
0.00317301
0.0031414
0.00354292
0.0037261
0.00361853
0.00333401
0.00325122
0.00328531
0.00355108
0.00380323
0.00381922
0.00373997
0.00373006
0.00402656
0.00438795
0.00449854
0.00456933
0.00471647
0.00277162
0.00279065
0.00282723
0.00288918
0.00296462
0.00307452
0.0032286
0.00343153
0.00319342
0.00214942
0.00196988
0.00210532
0.00271124
0.00350679
0.00352825
0.00323433
0.00321363
0.00364007
0.00382814
0.00376048
0.00344722
0.00326593
0.00324095
0.00331347
0.00355805
0.00362058
0.00361864
0.00364864
0.00391723
0.0042108
0.00429762
0.0043973
0.0045521
0.0027553
0.00277212
0.00280469
0.00286207
0.00293709
0.00304831
0.00319922
0.00344392
0.00348532
0.00249106
0.00199343
0.00198686
0.0022981
0.00320483
0.00353248
0.00329296
0.00326018
0.00369148
0.00389867
0.00386272
0.00362333
0.00334611
0.00325252
0.00324687
0.00336604
0.00346832
0.00347695
0.00352823
0.0037953
0.00410258
0.0042128
0.00432778
0.00445264
0.00274256
0.00275541
0.00278605
0.0028346
0.00290808
0.00302303
0.00318228
0.00344432
0.00362137
0.00316902
0.00211699
0.00193869
0.00207441
0.00277718
0.00349921
0.00334486
0.00329033
0.00369452
0.00393207
0.00391374
0.00374742
0.00351078
0.00327167
0.00320047
0.00320675
0.0033166
0.00342263
0.00346255
0.00366065
0.00404539
0.00418771
0.0043131
0.00443011
0.00273152
0.00274136
0.00276879
0.00281033
0.00287974
0.00299194
0.00316545
0.00344654
0.00368627
0.00350574
0.00240015
0.00195861
0.00197258
0.00236189
0.00337044
0.00339203
0.00328715
0.00363766
0.0038942
0.00389708
0.00380034
0.00367475
0.00345656
0.00319693
0.00313693
0.00314953
0.00327079
0.00341718
0.00355576
0.00388888
0.00428478
0.00447134
0.00455022
0.00272378
0.00273028
0.00275312
0.00278878
0.00285602
0.00296703
0.00314809
0.00344683
0.00374796
0.00367608
0.00299627
0.00205211
0.0019244
0.00210955
0.00306168
0.00340326
0.00327332
0.00351124
0.0037523
0.00373855
0.00372371
0.00374379
0.00368645
0.00342749
0.00316945
0.00312271
0.003152
0.00328974
0.00347982
0.00372877
0.0042823
0.00457932
0.00467875
0.00271749
0.00272095
0.00273732
0.0027708
0.00283653
0.0029464
0.00313388
0.00342635
0.00382835
0.00379674
0.00346265
0.00229333
0.00193543
0.00198726
0.00255293
0.00335909
0.0032891
0.00328025
0.00346774
0.00343948
0.00341439
0.00363428
0.00373941
0.0036793
0.00337479
0.00312974
0.00309025
0.00311774
0.00327583
0.00358127
0.00409905
0.00455311
0.0047448
0.00271008
0.00271122
0.00272401
0.00275541
0.00282222
0.00293043
0.00312421
0.00339748
0.00384093
0.00394839
0.00373053
0.00269687
0.0019902
0.00191845
0.00218929
0.00316856
0.00332442
0.00318621
0.00324643
0.00325859
0.00319243
0.00325488
0.00361143
0.00376719
0.00372395
0.00338667
0.00312057
0.00307376
0.00308793
0.00325887
0.00367608
0.00435418
0.00469878
0.00269943
0.00269951
0.00271275
0.00274283
0.00281112
0.00291893
0.00311692
0.0033809
0.00379567
0.0041049
0.00395344
0.00303729
0.00212166
0.0018911
0.00199551
0.00273939
0.00327385
0.00322081
0.00317019
0.00320997
0.00317776
0.00311057
0.00317731
0.00361474
0.0038162
0.00380257
0.00346041
0.00312205
0.00304477
0.00304846
0.00321512
0.00377024
0.00449778
0.00268696
0.00268689
0.00269998
0.00273109
0.00280228
0.00291017
0.00310996
0.00336942
0.0036827
0.00418121
0.00413403
0.00357563
0.00229272
0.00189553
0.00190732
0.00224047
0.00307286
0.00320518
0.00318141
0.0031885
0.00322409
0.00316063
0.00308642
0.00311755
0.00361928
0.00388163
0.00389291
0.00355901
0.00312428
0.00300321
0.00299343
0.00320827
0.00388076
0.00267262
0.00267434
0.00268846
0.00272294
0.00279709
0.00290584
0.00310442
0.00335632
0.00359556
0.0040857
0.00426799
0.00393841
0.00255262
0.00191883
0.0018402
0.00197205
0.00259233
0.00309411
0.00315721
0.0031724
0.00323719
0.00329595
0.00316159
0.00300949
0.00304881
0.00366328
0.00393809
0.00395136
0.00361442
0.00309363
0.00295183
0.00297378
0.00323504
0.00266114
0.00266488
0.00268252
0.00272011
0.00279554
0.00290479
0.00310182
0.00334602
0.00356139
0.00386855
0.00432805
0.00415873
0.00278118
0.00196334
0.00179709
0.00183516
0.00209614
0.00278527
0.00304568
0.00311897
0.00318662
0.00329148
0.00329792
0.00302426
0.0028641
0.00304371
0.00373057
0.00397663
0.00397393
0.00361084
0.00302924
0.00291737
0.00299195
0.00265668
0.00266164
0.0026805
0.00272031
0.00280085
0.00291219
0.00310509
0.00333336
0.00352424
0.00373641
0.00430704
0.00430631
0.00325431
0.00204951
0.00179181
0.0017697
0.00185877
0.00216663
0.00276713
0.00297398
0.00306781
0.00317309
0.00328226
0.003134
0.0027933
0.00272592
0.00311177
0.00382665
0.00399515
0.00397139
0.00348259
0.00294144
0.00291654
0.00265604
0.00266366
0.00268682
0.00273337
0.00281673
0.0029305
0.0031188
0.00331784
0.00346605
0.00364134
0.00421212
0.00440535
0.00376349
0.00220518
0.00180652
0.00173955
0.00176014
0.00187781
0.0021824
0.00263943
0.00287161
0.0029892
0.00311911
0.00313068
0.00277968
0.00258118
0.00265545
0.00333915
0.00391559
0.0040141
0.00392946
0.00315284
0.00292821
0.00266446
0.00267558
0.00270349
0.00275546
0.0028419
0.00296091
0.00313873
0.00331039
0.00341834
0.00353339
0.00400609
0.00441167
0.00400682
0.00252502
0.00187324
0.00174468
0.00173351
0.00176605
0.00188181
0.00213946
0.00246572
0.0026456
0.00273484
0.00283379
0.00267311
0.00246763
0.00244255
0.00279059
0.00366094
0.00395824
0.00400315
0.00368727
0.00300111
0.00268195
0.00269517
0.00272741
0.00278597
0.00287464
0.0030019
0.0031644
0.00329263
0.00337094
0.00346333
0.00381735
0.00436443
0.0041188
0.00310538
0.00206778
0.00178923
0.00173871
0.00174584
0.001783
0.00188581
0.00210901
0.00228254
0.00234159
0.00238926
0.00236477
0.00231997
0.00231797
0.00247344
0.00318656
0.00384725
0.00400045
0.00387901
0.0031998
0.00270728
0.00272557
0.00276191
0.00282693
0.00291824
0.00305251
0.00319364
0.00327256
0.00330329
0.00338725
0.00366041
0.00424591
0.00423405
0.00366702
0.00248305
0.00196044
0.00177767
0.00175303
0.00176298
0.00179369
0.00188313
0.00201003
0.00204644
0.00206817
0.00206872
0.00211574
0.00219813
0.002326
0.00278599
0.00364246
0.0039541
0.00394551
0.00352858
0.00274343
0.00276592
0.00280762
0.00287693
0.00297446
0.00310736
0.00321653
0.00324754
0.00324543
0.003295
0.00353283
0.0041378
0.00433816
0.00398963
0.00305752
0.00220029
0.00188087
0.00178421
0.00176966
0.00177682
0.00179797
0.00184911
0.00186077
0.00187312
0.00188973
0.00195625
0.00209456
0.00224958
0.00257148
0.00336162
0.00387715
0.00398011
0.00372692
0.00278662
0.00281754
0.00286564
0.00293954
0.00304037
0.00316739
0.0032299
0.00321836
0.00319731
0.00322466
0.00339826
0.00388762
0.00434406
0.00414291
0.00356765
0.00255804
0.00203232
0.00184911
0.00179606
0.00178399
0.00179059
0.0018034
0.00180515
0.00180821
0.00182581
0.00188553
0.00202223
0.00220631
0.00248972
0.00313151
0.00375268
0.00398904
0.00383059
0.00283847
0.00287752
0.00293538
0.00301335
0.00312177
0.0032232
0.00323447
0.00319208
0.00315835
0.00318065
0.0033384
0.00371103
0.00425006
0.0042374
0.00390968
0.00311123
0.00229657
0.00197589
0.00185638
0.00181164
0.00180106
0.00180404
0.00180283
0.0018035
0.00181841
0.00187262
0.00200243
0.00222287
0.00249287
0.00302845
0.0036389
0.00396388
0.00389048
0.00289691
0.00294684
0.00301569
0.00309596
0.00319989
0.00326686
0.0032389
0.00317444
0.00313139
0.00313526
0.00328126
0.00366058
0.00417043
0.00430791
0.00410608
0.00361366
0.00283269
0.00223931
0.00199589
0.00188735
0.00184957
0.00183781
0.00183278
0.00183672
0.00185851
0.00192537
0.00208066
0.00232254
0.0025525
0.00300777
0.00361314
0.00390713
0.0039137
0.00295945
0.0030228
0.00310321
0.00319279
0.00327946
0.00330358
0.00324529
0.00316897
0.00312064
0.00310791
0.00321588
0.0035956
0.00416185
0.00432348
0.00422472
0.00395492
0.00341206
0.00280356
0.00233897
0.00210334
0.00201248
0.0019819
0.00197962
0.00200021
0.00205704
0.00213272
0.00225122
0.00243075
0.002667
0.00323295
0.00375656
0.00384576
0.00390612
0.00302485
0.00310387
0.00319626
0.00328941
0.00334997
0.00332422
0.00324834
0.00317666
0.0031242
0.00310416
0.00316667
0.00349181
0.00414257
0.00433059
0.00430877
0.00416257
0.0038542
0.00342687
0.00300859
0.00267079
0.00250823
0.00244658
0.00245956
0.0024689
0.00238921
0.00231962
0.00238088
0.00256216
0.00298311
0.0036779
0.00389458
0.0038118
0.00383501
0.0030894
0.00318746
0.00329325
0.00337655
0.00339514
0.00333007
0.00324529
0.00318354
0.00313847
0.00311216
0.00313697
0.00337332
0.00406755
0.00435424
0.00436679
0.0043006
0.00414325
0.00390796
0.00364027
0.00343396
0.0033194
0.00326572
0.00313472
0.00279162
0.0024967
0.00246584
0.00256792
0.00295322
0.00369114
0.00397103
0.00389328
0.00371617
0.00363961
0.00315524
0.00327293
0.00339286
0.00345343
0.00342353
0.00332505
0.00323851
0.00318759
0.00315407
0.00312538
0.00313158
0.00329596
0.00391403
0.0043723
0.00441913
0.00439815
0.00432871
0.00421942
0.00409039
0.00399557
0.00394656
0.00381745
0.00330127
0.00282307
0.00265527
0.0027304
0.00312767
0.00376839
0.00398534
0.0038556
0.00367382
0.00349891
0.00343624
0.0032195
0.00336031
0.0034929
0.00352172
0.00344306
0.00332126
0.00323439
0.00318855
0.00316548
0.00314081
0.00313834
0.003253
0.00375528
0.0043611
0.00445788
0.00446773
0.00445105
0.00441645
0.00437284
0.00434109
0.00425787
0.0038788
0.00323801
0.00294865
0.00305391
0.00350924
0.0038643
0.00386745
0.00370383
0.00362466
0.00351576
0.00340273
0.0033555
0.00327967
0.00344988
0.0035889
0.00357782
0.00346061
0.00332793
0.00323379
0.00318155
0.0031572
0.00314219
0.00314395
0.00323715
0.00364672
0.00430912
0.00447682
0.00450911
0.0045174
0.00451206
0.00449418
0.00444463
0.0042686
0.00371747
0.00329697
0.00345101
0.00373997
0.0038013
0.003589
0.00353893
0.00358788
0.00365301
0.00370539
0.00356082
0.00341383
0.00332613
0.0035301
0.00365867
0.00361429
0.00347895
0.00334757
0.00324303
0.00317623
0.0031433
0.00313457
0.0031439
0.00323878
0.00359578
0.0042661
0.00447661
0.00451551
0.0045276
0.00452697
0.00450714
0.00442941
0.0041199
0.00370547
0.003683
0.00379742
0.00362221
0.00336627
0.00344241
0.0037436
0.00394833
0.00394977
0.00396104
0.00401612
0.00371697
0.00336208
0.00358428
0.00368448
0.00362751
0.00349702
0.00336782
0.00325359
0.00317702
0.00313178
0.00311863
0.00313425
0.00324094
0.00352825
0.00416936
0.00446272
0.00451114
0.00452174
0.00451918
0.00448774
0.0043551
0.00398523
0.00382395
0.00381967
0.00351498
0.00326631
0.00343346
0.00397771
0.0041162
0.00406573
0.00397947
0.00396988
0.00419787
0.00425624
0.00339053
0.0036149
0.00368941
0.00362373
0.00350711
0.00337971
0.00328111
0.00319195
0.0031379
0.00311912
0.00313441
0.00325054
0.00350546
0.00406057
0.00442489
0.00449198
0.00450048
0.00448838
0.00441676
0.00419091
0.00395948
0.00381796
0.00351557
0.00324546
0.00346428
0.00402423
0.00413161
0.00412798
0.00405818
0.00394624
0.00390259
0.00405288
0.00445547
0.00341344
0.00362806
0.00367015
0.00360167
0.00350614
0.00339263
0.00330755
0.00321417
0.00315569
0.00313125
0.00314782
0.00327307
0.00351613
0.00404302
0.00437748
0.00444328
0.00444642
0.00441043
0.00429021
0.00408704
0.00388605
0.00355124
0.00328895
0.00342977
0.00399314
0.00408914
0.00389139
0.0038435
0.00392616
0.00396824
0.00389492
0.00384797
0.00436244
0.00344205
0.00362505
0.00364012
0.00357789
0.00349152
0.00341508
0.00333521
0.00325234
0.00318571
0.00315796
0.00318134
0.0033074
0.00355125
0.00405043
0.00431043
0.00435221
0.004345
0.00429017
0.00417236
0.00399037
0.00362434
0.00337624
0.00341148
0.00391014
0.00402527
0.00371948
0.00360434
0.00357203
0.00360112
0.00382973
0.00394941
0.00386426
0.00385704
0.00347054
0.00361704
0.00360786
0.00355637
0.0034755
0.00344585
0.00338067
0.00330256
0.00323031
0.00319953
0.00323607
0.00336136
0.00363099
0.00406708
0.00423094
0.00425372
0.00424178
0.00419606
0.00408216