/*--------------------------------*- C++ -*----------------------------------*\
  =========                 |
  \\      /  F ield         | OpenFOAM: The Open Source CFD Toolbox
   \\    /   O peration     | Website:  https://openfoam.org
    \\  /    A nd           | Version:  11
     \\/     M anipulation  |
\*---------------------------------------------------------------------------*/
FoamFile
{
    format      ascii;
    class       volScalarField;
    location    "2";
    object      mag(U);
}
// * * * * * * * * * * * * * * * * * * * * * * * * * * * * * * * * * * * * * //

dimensions      [0 1 -1 0 0 0 0];

internalField   nonuniform List<scalar> 
9600
(
0.980777
0.97783
0.977276
0.960874
0.893824
0.839206
0.826633
0.831408
0.855045
0.88894
0.917154
0.941829
0.963654
0.985377
1.00697
1.02846
1.05146
1.07168
1.09369
1.10932
1.12306
1.12518
1.12155
1.11253
1.09558
1.07502
1.05257
1.03179
1.01592
1.00244
0.993909
0.987058
0.982112
0.977764
0.975494
0.973642
0.973043
0.975244
0.975364
0.971641
0.982729
0.979026
0.974252
0.963641
0.935241
0.918005
0.914937
0.920248
0.943346
0.967342
0.981314
0.989738
0.999503
1.01293
1.02919
1.04817
1.06699
1.08609
1.10381
1.11914
1.12879
1.12876
1.1253
1.11632
1.09799
1.07783
1.05615
1.03592
1.0183
1.00099
0.991984
0.980971
0.976503
0.971063
0.97027
0.966345
0.966191
0.964472
0.967911
0.968801
0.981759
0.977803
0.976774
0.971301
0.951465
0.9256
0.916766
0.923313
0.93504
0.947463
0.9624
0.978645
0.994764
1.01217
1.03115
1.05068
1.07118
1.09128
1.10971
1.12636
1.13668
1.1422
1.1404
1.1324
1.11566
1.09595
1.07501
1.0552
1.03884
1.02399
1.01609
1.00692
1.00258
0.999082
0.994807
0.991768
0.990564
0.987938
0.989243
0.987015
0.983005
0.98171
0.981944
0.975061
0.965364
0.957439
0.958327
0.968771
0.987696
0.999578
1.00385
1.00763
1.01152
1.01807
1.03207
1.05043
1.06809
1.089
1.10425
1.12091
1.13201
1.13221
1.12886
1.12091
1.10505
1.08671
1.06675
1.04656
1.03074
1.01209
1.00042
0.988543
0.980441
0.974096
0.971698
0.971165
0.970279
0.968329
0.969909
0.976347
0.984263
0.984074
0.983993
0.982458
0.981674
0.978484
0.971741
0.965113
0.961812
0.962843
0.972049
0.98643
1.00115
1.01799
1.03594
1.05414
1.07372
1.09339
1.10995
1.12621
1.13573
1.14062
1.14104
1.13354
1.11834
1.0987
1.07888
1.05781
1.04214
1.02696
1.01785
1.00872
1.00439
1.00004
0.996521
0.994023
0.988714
0.986756
0.986334
0.984108
0.985057
0.98553
0.98749
0.988181
0.986928
0.982368
0.981758
0.986806
0.997785
1.0162
1.02179
1.02308
1.02546
1.02931
1.0377
1.05411
1.07069
1.09046
1.1071
1.12175
1.13519
1.13815
1.13405
1.12574
1.11111
1.09335
1.07528
1.05527
1.0396
1.02219
1.00818
0.995839
0.985768
0.977922
0.974943
0.973731
0.973296
0.97194
0.974645
0.979645
0.986278
0.987663
0.991762
0.992829
0.992119
0.991185
0.990518
0.989927
0.986782
0.98134
0.982156
0.992476
1.00599
1.02249
1.04046
1.05836
1.07716
1.09544
1.11193
1.12834
1.1365
1.1405
1.1431
1.13611
1.12209
1.10296
1.08373
1.06278
1.04616
1.03138
1.02017
1.01132
1.00625
1.00116
0.99775
0.994316
0.989297
0.986508
0.984555
0.981439
0.98774
0.990522
0.995165
0.995587
0.994735
0.995629
0.9972
0.998931
1.00236
1.01295
1.02453
1.03029
1.03378
1.03899
1.04772
1.06038
1.07589
1.093
1.11042
1.12503
1.13792
1.14334
1.13958
1.13216
1.1194
1.10122
1.08356
1.06343
1.04665
1.03036
1.01551
1.00263
0.991367
0.982194
0.978143
0.976515
0.97616
0.975706
0.978837
0.981208
0.989127
0.993779
0.997599
0.997531
0.997119
0.999098
1.00209
1.00491
1.00469
1.00165
0.999013
1.00263
1.01218
1.02642
1.04465
1.06211
1.0806
1.09884
1.1146
1.13107
1.13985
1.14295
1.14583
1.14003
1.12735
1.10918
1.09009
1.0696
1.05075
1.03603
1.02304
1.01468
1.00734
1.00329
0.998633
0.994726
0.989133
0.986229
0.983747
0.979572
0.991101
0.997283
0.999372
0.99878
0.99912
1.00098
1.00267
1.00484
1.00876
1.01623
1.02484
1.03094
1.03568
1.04337
1.05477
1.06686
1.08186
1.0979
1.11482
1.12895
1.14161
1.14898
1.14627
1.13879
1.12751
1.10998
1.09281
1.07191
1.05361
1.0373
1.02203
1.00908
0.997377
0.987125
0.981697
0.979438
0.978784
0.979459
0.980502
0.981007
0.99458
0.999897
1.00043
0.999749
0.999797
1.00131
1.00299
1.00833
1.01436
1.01711
1.01774
1.01818
1.02267
1.03241
1.04901
1.06605
1.08414
1.10327
1.1188
1.13481
1.14507
1.14803
1.15052
1.14553
1.1343
1.11662
1.09779
1.07817
1.05808
1.0422
1.02656
1.01753
1.00993
1.00459
0.99975
0.994757
0.98944
0.986196
0.981916
0.97722
0.998818
1.00106
1.00099
1.00001
1.00003
1.0009
1.00266
1.00973
1.01523
1.02052
1.0278
1.03455
1.03985
1.04677
1.05909
1.07243
1.08768
1.10436
1.12109
1.13485
1.14701
1.15525
1.15435
1.14668
1.13672
1.12007
1.10153
1.08018
1.06169
1.04475
1.02871
1.01536
1.00346
0.991867
0.985571
0.98325
0.981869
0.981109
0.98088
0.981067
1.00012
1.00121
1.00089
0.999858
0.999229
0.999687
1.00151
1.00921
1.01919
1.02662
1.03081
1.03269
1.03659
1.04265
1.05593
1.07214
1.08917
1.1087
1.12513
1.14011
1.15236
1.15536
1.1576
1.15336
1.14256
1.12639
1.10718
1.08767
1.06666
1.04961
1.03234
1.02048
1.01265
1.00615
1.00081
0.995285
0.989641
0.98506
0.979848
0.976496
1.00021
1.00123
1.0006
0.999109
0.9981
0.998399
1.00039
1.00899
1.02068
1.02773
1.03243
1.03902
1.04612
1.0531
1.06449
1.0789
1.09444
1.11153
1.12905
1.14252
1.15418
1.16248
1.16311
1.15695
1.1473
1.13048
1.11219
1.09084
1.07118
1.05318
1.03664
1.02187
1.00969
0.997152
0.989485
0.986344
0.984414
0.982241
0.981128
0.981094
0.999976
1.00082
0.999532
0.997419
0.996332
0.996673
0.998841
1.00681
1.01984
1.03046
1.03891
1.04445
1.04882
1.05382
1.06476
1.08045
1.09671
1.11562
1.13279
1.14747
1.15945
1.16466
1.16662
1.16349
1.15299
1.13825
1.11814
1.09758
1.07678
1.0582
1.04061
1.02596
1.01544
1.00757
1.00149
0.996573
0.989431
0.983637
0.978602
0.976802
1.00041
1.00008
0.998206
0.996216
0.995458
0.995967
0.998269
1.0051
1.01859
1.03219
1.04117
1.04799
1.05453
1.06148
1.07184
1.08633
1.10197
1.11953
1.13701
1.15118
1.16178
1.17037
1.17347
1.16923
1.15833
1.14357
1.12475
1.10373
1.08255
1.06256
1.04571
1.03009
1.01661
1.00316
0.993536
0.988905
0.986441
0.983915
0.981292
0.980646
1.00039
0.998776
0.99684
0.995441
0.995241
0.99601
0.998492
1.00511
1.01741
1.03208
1.04292
1.05296
1.06117
1.06713
1.07684
1.09119
1.1054
1.12291
1.14118
1.15507
1.16738
1.17476
1.17874
1.17572
1.16534
1.15153
1.13261
1.11091
1.08933
1.06825
1.0502
1.03416
1.02019
1.01028
1.00274
0.996969
0.989195
0.983789
0.978453
0.977048
0.998021
0.995689
0.993875
0.992976
0.993417
0.994619
0.997442
1.00505
1.01522
1.03094
1.04472
1.056
1.06588
1.07248
1.08304
1.09867
1.11315
1.12853
1.14706
1.16239
1.17343
1.1822
1.18655
1.18328
1.17305
1.15904
1.14091
1.11927
1.09733
1.07432
1.05504
1.0381
1.02369
1.01011
0.997686
0.991101
0.987199
0.985124
0.981223
0.979951
0.995628
0.992775
0.990527
0.989658
0.99046
0.99219
0.99552
1.00365
1.01294
1.02854
1.04458
1.05688
1.0708
1.08103
1.09038
1.10482
1.11982
1.13466
1.1524
1.16863
1.18084
1.18818
1.19323
1.19156
1.18206
1.16729
1.14995
1.12836
1.10593
1.08216
1.06109
1.04286
1.02702
1.01398
1.0039
0.997711
0.988987
0.984161
0.978567
0.977585
0.992407
0.989862
0.987173
0.986216
0.987145
0.989845
0.993997
1.00155
1.01014
1.02461
1.04271
1.05736
1.07346
1.08758
1.09785
1.11199
1.12875
1.14288
1.15896
1.17546
1.18815
1.19581
1.20094
1.19981
1.19165
1.17623
1.15939
1.1381
1.11555
1.09113
1.06808
1.04783
1.03157
1.01753
1.00339
0.994412
0.987358
0.98483
0.979675
0.978986
0.990811
0.988273
0.985078
0.983592
0.984538
0.987782
0.992517
0.999253
1.00733
1.02006
1.03899
1.05656
1.07332
1.09202
1.1063
1.12029
1.13849
1.15354
1.16805
1.18331
1.19686
1.20449
1.20918
1.20854
1.20203
1.18723
1.16973
1.14839
1.12616
1.10119
1.07675
1.05502
1.0366
1.02185
1.00785
0.999744
0.989302
0.984326
0.977205
0.976361
0.986856
0.98525
0.98256
0.981054
0.981557
0.985594
0.990617
0.99703
1.00478
1.01591
1.03369
1.05432
1.07255
1.09286
1.11364
1.12934
1.14807
1.16574
1.18021
1.19419
1.2069
1.21471
1.21978
1.21858
1.21255
1.1991
1.18162
1.15971
1.13723
1.11261
1.08789
1.06431
1.04288
1.0277
1.01206
1.00186
0.990314
0.985235
0.977628
0.97534
0.985733
0.984718
0.982595
0.98078
0.980186
0.983726
0.988915
0.995024
1.00281
1.01284
1.0281
1.04916
1.07104
1.09214
1.1169
1.13856
1.15766
1.17745
1.1947
1.20697
1.2196
1.22696
1.23119
1.23036
1.22427
1.21097
1.19468
1.17315
1.14952
1.12481
1.10002
1.07615
1.05197
1.03406
1.01585
1.00559
0.993616
0.986891
0.978405
0.975014
0.981248
0.980709
0.979918
0.979135
0.978098
0.980561
0.987155
0.99262
1.00098
1.01071
1.02378
1.04336
1.06701
1.09131
1.11656
1.14335
1.16703
1.18713
1.20831
1.22273
1.23383
1.24178
1.24563
1.24355
1.23787
1.22523
1.2085
1.1875
1.16417
1.13868
1.11195
1.08855
1.0632
1.04329
1.02237
1.00896
0.995844
0.987769
0.979742
0.975588
0.980878
0.980595
0.980336
0.980785
0.98026
0.980139
0.986461
0.992237
0.999289
1.01005
1.02251
1.03915
1.06143
1.08772
1.11464
1.1421
1.17075
1.19542
1.21784
1.23678
1.2499
1.2571
1.26193
1.26054
1.25363
1.24138
1.22505
1.20415
1.18047
1.15597
1.12762
1.10264
1.07564
1.05474
1.03255
1.01561
0.999476
0.989684
0.979624
0.975893
0.97617
0.975951
0.97585
0.976866
0.97905
0.978861
0.983119
0.990945
0.998564
1.00828
1.02352
1.03888
1.05852
1.08276
1.11109
1.13924
1.16854
1.19788
1.22374
1.24491
1.2631
1.27377
1.27857
1.27909
1.27344
1.26064
1.24366
1.224
1.19908
1.17474
1.14567
1.12046
1.09188
1.06856
1.04356
1.02511
1.00589
0.995104
0.981165
0.976588
0.976775
0.976098
0.976973
0.977129
0.981125
0.983781
0.985239
0.992362
1.00193
1.01014
1.02437
1.04193
1.06154
1.08257
1.10894
1.13786
1.16623
1.19534
1.224
1.24799
1.26845
1.28493
1.29427
1.29719
1.29435
1.28485
1.26618
1.24612
1.22077
1.19761
1.16679
1.13959
1.1092
1.08512
1.05847
1.03879
1.01554
1.0016
0.984981
0.976808
0.971661
0.970383
0.971995
0.972365
0.97401
0.980466
0.98496
0.991594
1.00143
1.013
1.02673
1.04456
1.06541
1.08948
1.11358
1.14146
1.16949
1.19631
1.22278
1.24864
1.26963
1.28825
1.30272
1.31196
1.3118
1.30853
1.29345
1.27511
1.24687
1.22335
1.19275
1.16523
1.13267
1.1057
1.07547
1.05386
1.03005
1.01274
0.995674
0.979923
0.972606
0.972722
0.972969
0.975345
0.977387
0.982
0.989313
0.999543
1.00895
1.02089
1.03531
1.05495
1.07452
1.09958
1.1254
1.15257
1.179
1.20688
1.22989
1.25307
1.27263
1.29153
1.30434
1.31832
1.32294
1.32674
1.31731
1.30655
1.28127
1.25555
1.22335
1.1951
1.16189
1.132
1.09923
1.07335
1.0484
1.02692
1.0089
0.990644
0.96317
0.965283
0.966405
0.968842
0.971888
0.977611
0.984541
0.995558
1.00857
1.02529
1.04027
1.06279
1.08541
1.11333
1.13822
1.16842
1.19395
1.22309
1.24574
1.26953
1.2841
1.30215
1.31103
1.32499
1.32823
1.33718
1.3329
1.32973
1.31314
1.2955
1.26348
1.2333
1.1956
1.16594
1.13126
1.1007
1.07153
1.0453
1.02557
1.00438
0.964636
0.967119
0.969054
0.972688
0.977276
0.984537
0.992032
1.00522
1.01652
1.03803
1.05439
1.07985
1.1003
1.13333
1.15812
1.19015
1.21339
1.24533
1.26503
1.29142
1.30436
1.32379
1.32909
1.34168
1.34281
1.34937
1.34588
1.34645
1.33592
1.32675
1.30393
1.2803
1.24545
1.20989
1.17225
1.13719
1.10599
1.07466
1.04849
1.02349
0.951687
0.95524
0.957251
0.962704
0.96773
0.979071
0.987243
1.00457
1.01672
1.04262
1.05794
1.08955
1.10999
1.14719
1.17172
1.21059
1.23252
1.26696
1.28507
1.31311
1.32445
1.3452
1.35196
1.36596
1.36689
1.37606
1.37084
1.37192
1.35988
1.35279
1.33575
1.31683
1.29309
1.26299
1.22958
1.1896
1.15328
1.11568
1.08758
1.05324
0.95493
0.95998
0.962388
0.970181
0.97547
0.990207
0.998973
1.02097
1.03377
1.06339
1.08066
1.11628
1.13565
1.17496
1.1985
1.23832
1.26011
1.29392
1.31062
1.33738
1.34859
1.36827
1.37384
1.389
1.39302
1.40439
1.40463
1.40933
1.40325
1.3966
1.37958
1.36195
1.33706
1.31192
1.28175
1.24905
1.21768
1.17883
1.14747
1.10944
0.935812
0.945442
0.947682
0.959829
0.965326
0.985002
0.995592
1.02214
1.03757
1.07094
1.0912
1.12946
1.15456
1.19424
1.21974
1.26051
1.28238
1.31745
1.33235
1.36103
1.37003
1.39058
1.39623
1.41227
1.41654
1.43047
1.43582
1.44514
1.44736
1.44686
1.44179
1.42527
1.41132
1.37907
1.35593
1.31262
1.28445
1.24269
1.21389
1.17661
0.940352
0.952297
0.957538
0.9724
0.9837
1.00423
1.02415
1.04793
1.07425
1.10283
1.13358
1.16687
1.20018
1.2344
1.26755
1.30021
1.32965
1.3561
1.37889
1.3957
1.41356
1.42169
1.43749
1.4403
1.45915
1.46027
1.48167
1.48231
1.50425
1.49945
1.515
1.4993
1.50234
1.4733
1.46402
1.42263
1.40014
1.35165
1.32564
1.2779
0.925141
0.936267
0.9501
0.961179
0.982848
1.00141
1.0314
1.05714
1.09269
1.12335
1.16231
1.19546
1.23594
1.26891
1.30771
1.33661
1.36933
1.39265
1.41601
1.43166
1.44633
1.45401
1.46591
1.46774
1.48391
1.48568
1.5079
1.50982
1.53829
1.53714
1.5682
1.56217
1.58592
1.56791
1.57566
1.54434
1.53829
1.49724
1.47695
1.43493
0.942043
0.962036
0.986431
1.01152
1.04076
1.07123
1.1033
1.13933
1.17294
1.21443
1.24883
1.29192
1.32556
1.36574
1.39562
1.42782
1.44999
1.47124
1.48211
1.49096
1.49175
1.4934
1.48883
1.49282
1.48905
1.49532
1.49925
1.51206
1.51765
1.53972
1.54607
1.57097
1.57364
1.59779
1.58711
1.60485
1.57324
1.58599
1.537
1.55031
0.932522
0.957471
0.98458
1.01762
1.05223
1.09382
1.13296
1.1789
1.21856
1.26526
1.30243
1.34618
1.37808
1.41606
1.44004
1.4693
1.48183
1.49785
1.49745
1.49984
1.48972
1.48374
1.46875
1.46534
1.45081
1.45558
1.45245
1.45362
1.442
1.43445
1.41538
1.40637
1.38549
1.38007
1.3542
1.35097
1.31661
1.31599
1.26598
1.29928
1.03359
1.08835
1.13612
1.18629
1.22612
1.2713
1.3082
1.35076
1.38298
1.41956
1.44417
1.47172
1.48668
1.50668
1.51429
1.53066
1.52693
1.53047
1.51423
1.50334
1.47682
1.45157
1.41979
1.38842
1.35314
1.32462
1.27496
1.23346
1.15196
1.0445
0.914662
0.772906
0.631911
0.504683
0.407015
0.351919
0.322205
0.322765
0.313394
0.302729
1.17789
1.21387
1.24849
1.28581
1.32128
1.35258
1.379
1.40013
1.41558
1.43007
1.43103
1.43837
1.43389
1.43639
1.4222
1.41045
1.38178
1.3537
1.30753
1.26124
1.19705
1.13354
1.0492
0.967643
0.870465
0.780002
0.678394
0.509244
0.259383
0.152102
0.196
0.238717
0.275149
0.314968
0.383345
0.437387
0.474166
0.525039
0.574441
0.610364
0.980095
0.982649
0.990622
0.980589
0.984924
0.978876
0.986636
0.985295
0.989648
0.991876
0.994369
0.996789
0.998929
1.00087
1.00258
1.00387
1.00491
1.00578
1.00619
1.00644
1.0065
1.00663
1.00712
1.00742
1.0075
1.00739
1.00717
1.00703
1.00679
1.00636
1.00601
1.00579
1.0056
1.00538
1.00512
1.0048
1.00427
1.00362
1.00265
1.00815
0.981246
0.982818
0.98991
0.980956
0.983973
0.978759
0.985703
0.985342
0.988649
0.99123
0.993758
0.996225
0.998538
1.00063
1.00227
1.00345
1.00465
1.00563
1.00596
1.00628
1.00655
1.0068
1.00715
1.00738
1.00749
1.00752
1.0074
1.00712
1.0068
1.00649
1.00616
1.00601
1.00592
1.00576
1.00559
1.00533
1.00492
1.00396
1.00217
1.00189
0.981605
0.982946
0.988296
0.981902
0.982699
0.978542
0.984517
0.98533
0.988146
0.991063
0.993782
0.996369
0.998896
1.00102
1.00249
1.00382
1.00514
1.00583
1.00609
1.00662
1.00726
1.00746
1.00736
1.00765
1.00794
1.00785
1.00765
1.00719
1.00667
1.00642
1.00623
1.00617
1.00606
1.0059
1.00577
1.00556
1.00523
1.00503
1.00489
1.00657
0.980234
0.982437
0.987844
0.982186
0.982132
0.978214
0.983336
0.984741
0.987463
0.990395
0.993341
0.996102
0.998753
1.00087
1.00248
1.00407
1.00512
1.00576
1.00603
1.00671
1.00752
1.00765
1.00743
1.00793
1.00828
1.00803
1.0077
1.00727
1.00694
1.00672
1.00652
1.00647
1.00633
1.0062
1.00604
1.00584
1.00547
1.00488
1.00402
1.00337
0.980289
0.982238
0.986541
0.982483
0.980602
0.977798
0.982115
0.984157
0.987005
0.990225
0.993386
0.996353
0.999089
1.00125
1.00302
1.00454
1.00575
1.00651
1.00669
1.00712
1.00764
1.00784
1.00803
1.00855
1.00859
1.00819
1.00782
1.00746
1.00705
1.00684
1.00673
1.00672
1.00656
1.00646
1.00628
1.00616
1.00591
1.00572
1.00543
1.0054
0.979257
0.981474
0.985878
0.982459
0.979874
0.977232
0.980924
0.983211
0.986252
0.989463
0.992848
0.995993
0.998801
1.00102
1.00297
1.00461
1.00598
1.00682
1.00724
1.00736
1.00753
1.00797
1.0087
1.00884
1.00872
1.00831
1.00804
1.00777
1.00749
1.00731
1.00727
1.00719
1.00687
1.00671
1.00651
1.00635
1.0061
1.00583
1.00532
1.00505
0.978933
0.981233
0.98482
0.982212
0.978295
0.976408
0.979675
0.982326
0.985572
0.989162
0.992716
0.996154
0.999068
1.00145
1.00349
1.00495
1.00617
1.00732
1.00793
1.00774
1.00778
1.00866
1.00922
1.00905
1.00884
1.00853
1.00831
1.00806
1.00771
1.00762
1.00765
1.00747
1.00714
1.00695
1.00678
1.00663
1.00644
1.00633
1.00596
1.00537
0.978315
0.980003
0.983762
0.981524
0.977431
0.975539
0.978369
0.981169
0.984595
0.988305
0.992047
0.995601
0.998553
1.00123
1.00358
1.00503
1.0061
1.0073
1.00795
1.00814
1.0088
1.00937
1.00952
1.00922
1.00893
1.0086
1.00835
1.0082
1.00801
1.00806
1.00812
1.00774
1.00738
1.00715
1.007
1.00685
1.0067
1.00653
1.00629
1.00619
0.977777
0.979904
0.982491
0.980688
0.97592
0.974291
0.976799
0.980017
0.983639
0.987779
0.991762
0.995494
0.998619
1.00159
1.00393
1.00541
1.00637
1.00714
1.00805
1.00909
1.00954
1.00985
1.00974
1.00943
1.00914
1.00881
1.00857
1.00832
1.00824
1.00835
1.00834
1.00795
1.0077
1.00747
1.00727
1.00711
1.00698
1.00684
1.00658
1.00591
0.977539
0.978263
0.981107
0.979585
0.974551
0.972839
0.975237
0.978765
0.982413
0.98677
0.990989
0.994774
0.998042
1.00125
1.00392
1.00555
1.00627
1.00705
1.00816
1.00951
1.00988
1.01005
1.00993
1.00971
1.00936
1.00911
1.00884
1.00861
1.00859
1.0088
1.00875
1.00829
1.00801
1.00781
1.00763
1.00745
1.00729
1.00708
1.00703
1.00693
0.977127
0.978236
0.979676
0.978202
0.97276
0.971263
0.97325
0.977267
0.981267
0.986133
0.990598
0.994493
0.997938
1.00121
1.00403
1.00583
1.00647
1.00708
1.00871
1.00979
1.01007
1.01031
1.01024
1.00986
1.00952
1.00926
1.00914
1.00903
1.00909
1.00921
1.00904
1.00861
1.00842
1.00825
1.00799
1.0078
1.00757
1.00733
1.00715
1.00669
0.977234
0.976184
0.977713
0.976527
0.970862
0.969438
0.971207
0.97561
0.979747
0.984962
0.989742
0.993887
0.997538
1.00056
1.00358
1.00578
1.00684
1.00752
1.00906
1.01005
1.01049
1.01079
1.01059
1.01024
1.00982
1.00964
1.00944
1.00934
1.00944
1.00952
1.00938
1.00906
1.00884
1.0087
1.00845
1.00826
1.00802
1.00776
1.00753
1.00749
0.976742
0.975862
0.976052
0.974452
0.968623
0.967368
0.968854
0.973564
0.97841
0.984087
0.989223
0.993736
0.99735
1.00029
1.00318
1.00571
1.00737
1.00803
1.00945
1.01074
1.01115
1.01129
1.01113
1.0107
1.01029
1.01014
1.00981
1.00971
1.00974
1.00968
1.00947
1.00928
1.00921
1.00907
1.00877
1.00861
1.00832
1.00803
1.00768
1.00749
0.976831
0.973226
0.973554
0.972099
0.966141
0.96487
0.966394
0.971266
0.97653
0.982736
0.988478
0.993442
0.996957
0.999536
1.00245
1.00567
1.0077
1.00864
1.01017
1.01135
1.01169
1.0117
1.01151
1.01116
1.01111
1.01098
1.0106
1.01026
1.01026
1.01003
1.00982
1.00964
1.0096
1.0095
1.00926
1.00915
1.00884
1.00854
1.0082
1.00798
0.976203
0.972457
0.971255
0.96924
0.96331
0.962095
0.963451
0.968658
0.974759
0.981555
0.987975
0.99326
0.996791
0.999194
1.00204
1.00587
1.00814
1.00937
1.01117
1.01218
1.0122
1.01203
1.01175
1.01165
1.01179
1.01188
1.01149
1.01097
1.01087
1.01041
1.01013
1.00998
1.00998
1.0098
1.00953
1.00945
1.00911
1.00881
1.00847
1.00832
0.975955
0.969656
0.96794
0.965996
0.96017
0.958587
0.960017
0.965545
0.972264
0.979998
0.987295
0.992659
0.996229
0.998747
1.00186
1.00579
1.00875
1.01048
1.01188
1.01254
1.01263
1.01258
1.01243
1.01235
1.01239
1.01254
1.01232
1.01181
1.01166
1.01124
1.01094
1.01076
1.01064
1.0104
1.01015
1.01003
1.00963
1.00925
1.00892
1.00877
0.974988
0.968121
0.964701
0.962204
0.956513
0.954506
0.956034
0.961788
0.969805
0.978712
0.986692
0.991908
0.995666
0.998732
1.00221
1.006
1.00971
1.01143
1.01204
1.01269
1.01312
1.01336
1.01344
1.01344
1.01323
1.01323
1.01296
1.01244
1.01234
1.01189
1.0116
1.01141
1.01118
1.01088
1.01061
1.01048
1.01003
1.00965
1.00933
1.00923
0.974847
0.965745
0.960527
0.957898
0.952111
0.949422
0.951252
0.957272
0.966565
0.977266
0.985833
0.990807
0.994871
0.998929
1.00261
1.0068
1.01064
1.01193
1.0123
1.01283
1.01369
1.01421
1.0145
1.0146
1.0145
1.0142
1.01382
1.01329
1.01331
1.01282
1.01247
1.01247
1.01209
1.01176
1.01136
1.01113
1.01065
1.01018
1.00983
1.00972
0.973042
0.963646
0.956173
0.952787
0.946809
0.943279
0.945113
0.951795
0.96332
0.975681
0.98487
0.98991
0.994512
0.999173
1.00329
1.00774
1.01086
1.01219
1.01265
1.01322
1.01462
1.01548
1.01572
1.01569
1.01547
1.01522
1.01481
1.01414
1.01386
1.01348
1.01303
1.01317
1.01289
1.01254
1.01222
1.01184
1.01135
1.01085
1.01049
1.01036
0.972296
0.961732
0.951808
0.946984
0.940488
0.935646
0.937631
0.945077
0.959051
0.973209
0.983667
0.989166
0.994225
0.999555
1.00427
1.00844
1.01102
1.01262
1.01339
1.01433
1.01571
1.01667
1.01661
1.01662
1.01631
1.01624
1.01608
1.01576
1.0152
1.01478
1.01428
1.01422
1.01402
1.01362
1.01327
1.01276
1.01221
1.01163
1.01127
1.0111
0.969302
0.959137
0.947092
0.940049
0.932868
0.926648
0.92821
0.936746
0.953088
0.969552
0.982594
0.989192
0.99419
0.99968
1.00512
1.00905
1.01143
1.01346
1.01478
1.01591
1.01711
1.01779
1.01769
1.01753
1.01718
1.01681
1.01669
1.01664
1.01616
1.01574
1.01536
1.01528
1.01495
1.01469
1.01423
1.01365
1.01309
1.01248
1.01209
1.01191
0.967792
0.956956
0.942768
0.932081
0.923897
0.916047
0.916679
0.92587
0.944168
0.964274
0.980891
0.989319
0.994835
1.00065
1.00606
1.0103
1.01219
1.01478
1.01657
1.0179
1.01898
1.01918
1.01927
1.01887
1.0186
1.01787
1.0178
1.01758
1.01711
1.0167
1.01629
1.01615
1.0158
1.01556
1.01512
1.01457
1.01395
1.01339
1.01296
1.01281
0.96561
0.953309
0.937755
0.923257
0.913737
0.903879
0.902499
0.911306
0.931608
0.956648
0.97833
0.989932
0.996247
1.00233
1.00783
1.0121
1.01411
1.01717
1.01903
1.02017
1.02078
1.02077
1.02099
1.0204
1.02029
1.01942
1.01919
1.01877
1.0181
1.0178
1.01736
1.01725
1.01689
1.01685
1.01626
1.01587
1.01505
1.01449
1.01402
1.01382
0.964177
0.949059
0.93255
0.914678
0.902824
0.890195
0.884733
0.891871
0.913899
0.945097
0.974266
0.991034
0.99856
1.00495
1.01043
1.01449
1.0178
1.02077
1.02196
1.02263
1.02263
1.02249
1.02295
1.02213
1.02229
1.02127
1.0212
1.02047
1.01987
1.0196
1.01912
1.01897
1.01861
1.01853
1.01781
1.01731
1.01649
1.01574
1.0153
1.01507
0.962802
0.943777
0.926658
0.907198
0.892234
0.875192
0.86302
0.866158
0.889196
0.928111
0.968473
0.99166
1.00114
1.00849
1.01402
1.01798
1.02223
1.02487
1.02502
1.0255
1.02489
1.02457
1.02494
1.0239
1.02416
1.02309
1.02312
1.02238
1.02189
1.02152
1.02106
1.02067
1.02033
1.01989
1.01907
1.01844
1.01766
1.0169
1.01658
1.01632
0.960995
0.939504
0.920691
0.900905
0.882975
0.859773
0.837435
0.832829
0.85543
0.904098
0.959886
0.990835
1.00328
1.01211
1.01849
1.02239
1.02667
1.02874
1.02846
1.02916
1.02819
1.02753
1.02738
1.02637
1.0263
1.02541
1.02517
1.02431
1.0238
1.02306
1.02248
1.02205
1.02159
1.02105
1.02037
1.01951
1.01904
1.01814
1.01798
1.01763
0.961637
0.937957
0.914587
0.895168
0.8757
0.845881
0.809272
0.79184
0.810941
0.870652
0.945757
0.987214
1.00381
1.01459
1.02286
1.02606
1.03139
1.03313
1.03255
1.03328
1.03203
1.0313
1.03065
1.02965
1.02933
1.02828
1.0275
1.0264
1.02571
1.0248
1.0243
1.02403
1.02356
1.02306
1.02251
1.02154
1.02113
1.02003
1.01974
1.0194
0.965236
0.940102
0.910552
0.890124
0.870621
0.83541
0.781962
0.744733
0.754656
0.824317
0.921197
0.978047
1.0014
1.01489
1.02464
1.02882
1.03503
1.03687
1.03701
1.0374
1.03582
1.03557
1.03493
1.03417
1.03338
1.03212
1.03135
1.03003
1.02949
1.02855
1.02817
1.02772
1.02703
1.02612
1.02548
1.02412
1.02355
1.02235
1.02194
1.02167
0.973264
0.946509
0.912212
0.887954
0.868325
0.829575
0.759584
0.694882
0.686495
0.760724
0.879788
0.959231
0.993062
1.0116
1.02359
1.0299
1.03744
1.03999
1.04062
1.04099
1.03977
1.04008
1.03932
1.03916
1.0384
1.03746
1.03668
1.03558
1.0345
1.03395
1.03296
1.0324
1.03131
1.02994
1.0292
1.02749
1.02692
1.02541
1.0249
1.02452
0.983982
0.955426
0.92101
0.893418
0.87131
0.828871
0.74505
0.648344
0.608846
0.675173
0.813063
0.924336
0.975575
1.00219
1.01967
1.02909
1.03865
1.04224
1.04408
1.04563
1.04461
1.04508
1.04396
1.04388
1.04334
1.04257
1.04165
1.04053
1.03928
1.03857
1.03711
1.03618
1.0351
1.03358
1.03317
1.03132
1.03085
1.02908
1.02853
1.02794
1.00305
0.97038
0.938102
0.912547
0.885957
0.833549
0.73732
0.611858
0.527729
0.566172
0.714307
0.861711
0.942296
0.982083
1.00916
1.02402
1.03711
1.04415
1.04846
1.05098
1.05033
1.05056
1.04943
1.049
1.04811
1.04694
1.04616
1.04444
1.04352
1.04199
1.04113
1.0397
1.0394
1.03733
1.03727
1.03472
1.03439
1.03243
1.03223
1.03148
1.02995
0.994988
0.968146
0.950174
0.918542
0.845622
0.731958
0.58595
0.452607
0.436822
0.578251
0.759824
0.881041
0.943084
0.983717
1.00929
1.02928
1.04263
1.04986
1.05464
1.05601
1.05686
1.05671
1.05622
1.05538
1.05387
1.05254
1.05074
1.04979
1.04833
1.04805
1.04589
1.04555
1.04227
1.04183
1.03867
1.03842
1.03619
1.03636
1.03523
1.0771
1.04254
1.03045
1.01325
0.965984
0.86704
0.725098
0.562049
0.39321
0.30036
0.400991
0.609706
0.77899
0.874157
0.934424
0.976769
1.00754
1.02974
1.044
1.05302
1.05945
1.06245
1.06483
1.06479
1.0644
1.0632
1.06155
1.06041
1.05941
1.05785
1.05689
1.05385
1.05317
1.04984
1.04939
1.04652
1.04629
1.04383
1.04366
1.04248
1.14491
1.13287
1.1453
1.10125
1.0134
0.883964
0.710474
0.52678
0.346425
0.195462
0.19388
0.405642
0.62416
0.763987
0.853884
0.917706
0.965633
0.999607
1.02531
1.04073
1.05431
1.06027
1.06668
1.06808
1.06977
1.0701
1.06926
1.06928
1.0678
1.06682
1.06537
1.06343
1.06284
1.06048
1.06015
1.05754
1.05774
1.05532
1.05586
1.05266
1.26655
1.27882
1.23154
1.13697
1.01444
0.856501
0.665056
0.467976
0.289058
0.170834
0.0838283
0.142749
0.401343
0.59947
0.732452
0.824236
0.896994
0.946498
0.987753
1.01099
1.03411
1.04585
1.0579
1.064
1.06952
1.07401
1.07563
1.07817
1.07778
1.07891
1.07757
1.07775
1.07693
1.07673
1.07601
1.07462
1.07296
1.07056
1.06912
1.06692
1.41645
1.34417
1.24523
1.12282
0.960802
0.762353
0.557572
0.384111
0.245127
0.211048
0.256063
0.185909
0.208948
0.40633
0.572341
0.686572
0.788363
0.855163
0.91939
0.957315
0.995082
1.01848
1.03872
1.05336
1.06344
1.07411
1.07913
1.08639
1.08864
1.09312
1.09411
1.09656
1.09621
1.09674
1.09507
1.0954
1.09221
1.08891
1.08501
1.08417
1.46722
1.32714
1.17008
0.980885
0.764853
0.53909
0.340403
0.254414
0.299664
0.377384
0.467158
0.493447
0.458567
0.175105
0.329493
0.464978
0.611313
0.70672
0.805023
0.8703
0.926991
0.969983
0.998607
1.02636
1.0414
1.05954
1.06903
1.07975
1.08663
1.0931
1.09873
1.10337
1.10755
1.11161
1.11251
1.11483
1.11461
1.11537
1.11399
1.11296
1.18364
0.94887
0.722467
0.493591
0.269074
0.11254
0.18388
0.295266
0.37842
0.455773
0.513983
0.601868
0.642291
0.552377
0.337272
0.201771
0.409387
0.536319
0.640832
0.728143
0.794923
0.866446
0.91324
0.960893
0.992742
1.01592
1.03587
1.04752
1.05995
1.06561
1.07506
1.08366
1.09002
1.09689
1.10074
1.10784
1.10996
1.11702
1.12162
1.13206
0.173568
0.318281
0.40041
0.505709
0.566491
0.622773
0.672986
0.709108
0.745021
0.769843
0.779452
0.802189
0.782923
0.746791
0.701257
0.609089
0.631299
0.426333
0.185726
0.346771
0.481418
0.609303
0.703704
0.755139
0.82488
0.859546
0.918058
0.951023
0.991559
1.01296
1.04284
1.05912
1.08314
1.10025
1.11908
1.13495
1.14672
1.15755
1.16169
1.1665
0.653318
0.697637
0.744888
0.787555
0.823598
0.850203
0.867224
0.876792
0.881481
0.865742
0.843172
0.806804
0.758084
0.707822
0.657097
0.619216
0.633593
0.595917
0.426333
0.476952
0.578379
0.590862
0.411598
0.338532
0.522164
0.557997
0.606821
0.633027
0.667088
0.707503
0.742977
0.794208
0.828234
0.882239
0.911887
0.963538
0.993102
1.05147
1.09317
1.15758
1.01386
1.01345
1.01546
1.01615
1.01647
1.01729
1.01707
1.01774
1.01738
1.01802
1.01756
1.01807
1.0178
1.01804
1.01793
1.01797
1.0179
1.01784
1.01767
1.01746
1.01719
1.0168
1.01629
1.01556
1.01452
1.01301
1.01073
1.00725
1.00226
0.995803
0.987853
0.97839
0.971601
0.976716
0.98846
0.995436
0.999727
1.00219
1.00217
1.00332
0.997265
0.997659
0.997533
0.996746
0.997117
0.996505
0.997027
0.996629
0.996843
0.996843
0.996797
0.996956
0.996888
0.99702
0.997006
0.997077
0.997022
0.997001
0.997019
0.99705
0.997075
0.997177
0.997395
0.997774
0.998447
0.999608
1.00142
1.00405
1.00789
1.01333
1.01919
1.02348
1.02495
1.02418
1.0196
1.01088
1.00719
1.00547
1.00516
1.00471
1.00831
1.01056
1.0123
1.01431
1.01448
1.01582
1.0155
1.0165
1.01591
1.01681
1.01615
1.01674
1.01634
1.01655
1.01637
1.01636
1.01623
1.01608
1.01574
1.01529
1.01474
1.01399
1.01303
1.01179
1.01019
1.00822
1.00571
1.00258
0.99913
0.996429
0.994681
0.993256
0.99406
0.999854
1.00344
1.00407
1.00385
1.00346
1.00414
1.0045
1.00251
1.00158
1.00128
1.00046
1.00027
0.999782
0.99958
0.999656
0.999116
0.999545
0.999007
0.999428
0.999103
0.99941
0.999332
0.9995
0.999396
0.999437
0.999667
1.00001
1.00038
1.00096
1.00175
1.00272
1.00403
1.0057
1.00772
1.00991
1.01234
1.0153
1.01771
1.01818
1.0182
1.01778
1.01599
1.01325
1.01043
1.00875
1.00726
1.00621
1.00559
1.00867
1.0099
1.01194
1.01254
1.01358
1.01363
1.01439
1.01414
1.01474
1.01445
1.0147
1.01453
1.01453
1.01434
1.01428
1.01418
1.01397
1.01347
1.01288
1.01217
1.01126
1.01019
1.00893
1.00747
1.00585
1.00401
1.00193
1.00028
0.999707
0.999459
0.998801
0.999674
1.00285
1.00521
1.00547
1.00523
1.00539
1.00603
1.00622
1.00528
1.00411
1.00366
1.00355
1.00317
1.00299
1.00263
1.00261
1.00227
1.00241
1.00215
1.00234
1.00209
1.00214
1.00202
1.0021
1.00208
1.00219
1.00251
1.00299
1.00353
1.00427
1.00509
1.00609
1.00732
1.00858
1.00984
1.01085
1.01193
1.01339
1.01387
1.01323
1.01298
1.01356
1.01307
1.01145
1.00967
1.00836
1.0075
1.00696
1.00501
1.00755
1.00845
1.00981
1.0107
1.01159
1.01183
1.01245
1.01248
1.01286
1.01273
1.01298
1.01281
1.01279
1.01265
1.01265
1.0125
1.01218
1.01165
1.01101
1.01025
1.00938
1.00843
1.00738
1.00624
1.0051
1.00392
1.00272
1.00214
1.00236
1.00233
1.00182
1.00261
1.00483
1.00607
1.00622
1.00635
1.00682
1.00698
1.00695
1.00664
1.00588
1.00539
1.00517
1.00527
1.00554
1.0053
1.00522
1.00508
1.00496
1.00486
1.00484
1.00479
1.00481
1.00468
1.0046
1.00451
1.00468
1.00505
1.0055
1.00601
1.00666
1.00738
1.00813
1.00891
1.00964
1.01014
1.01045
1.01105
1.01154
1.01148
1.01088
1.01061
1.0106
1.01032
1.00927
1.00813
1.00765
1.00719
1.00702
1.0054
1.00719
1.00803
1.00906
1.00958
1.01027
1.01055
1.01102
1.01112
1.0114
1.01142
1.01153
1.01148
1.01153
1.01149
1.01147
1.01127
1.01091
1.0104
1.00982
1.00918
1.00848
1.00769
1.00692
1.00625
1.0057
1.00512
1.0047
1.00489
1.00538
1.00536
1.00501
1.00585
1.00696
1.00718
1.00722
1.00731
1.00744
1.00734
1.00713
1.0072
1.00695
1.0069
1.00686
1.00687
1.00704
1.00734
1.00748
1.0075
1.0075
1.00741
1.00736
1.00726
1.00709
1.0069
1.00678