/*--------------------------------*- C++ -*----------------------------------*\
  =========                 |
  \\      /  F ield         | OpenFOAM: The Open Source CFD Toolbox
   \\    /   O peration     | Website:  https://openfoam.org
    \\  /    A nd           | Version:  11
     \\/     M anipulation  |
\*---------------------------------------------------------------------------*/
FoamFile
{
    format      ascii;
    class       volScalarField;
    location    "2";
    object      p;
}
// * * * * * * * * * * * * * * * * * * * * * * * * * * * * * * * * * * * * * //

dimensions      [0 2 -2 0 0 0 0];

internalField   nonuniform List<scalar> 
9600
(
0.0644853
0.0655742
0.0683455
0.0713803
0.0739701
0.0740954
0.0737955
0.0753407
0.0769278
0.0770677
0.0762458
0.0731426
0.0679803
0.0607991
0.0508225
0.0376058
0.021502
0.00329499
-0.0159086
-0.0348374
-0.0508054
-0.0632523
-0.0700939
-0.0700958
-0.0649222
-0.0568602
-0.047351
-0.0379109
-0.0296751
-0.0228813
-0.0174955
-0.0132093
-0.00998118
-0.00739113
-0.00531911
-0.00380707
-0.00300763
-0.00295278
-0.00302405
-0.00220822
0.0652327
0.0670768
0.0701707
0.0734796
0.0748805
0.0736378
0.0723735
0.0749703
0.0763885
0.0757656
0.0743163
0.0705003
0.0646567
0.0570441
0.0466971
0.0333746
0.0175713
-0.000180902
-0.0185715
-0.0366445
-0.0519264
-0.0640899
-0.0709038
-0.0711956
-0.0667647
-0.0593676
-0.0502226
-0.0407635
-0.0322095
-0.0249314
-0.0191961
-0.0144827
-0.0109308
-0.00809085
-0.00578068
-0.00399319
-0.00284788
-0.00227376
-0.00207098
-0.00237577
0.0660074
0.0680304
0.0712413
0.0736774
0.0744278
0.0732228
0.0744097
0.0767539
0.0777268
0.0779874
0.0764905
0.0723728
0.066533
0.0588476
0.0485139
0.0352429
0.0193783
0.00170296
-0.0168369
-0.034735
-0.0502155
-0.0613889
-0.0695773
-0.0708996
-0.0665642
-0.0592626
-0.0503749
-0.0412446
-0.0331191
-0.0260691
-0.0205337
-0.0161109
-0.0124885
-0.0097246
-0.00756846
-0.00573376
-0.00444287
-0.00389834
-0.00325824
-0.00222754
0.0668733
0.0691628
0.0721891
0.074494
0.074777
0.073304
0.073937
0.0756269
0.0760866
0.0755011
0.07291
0.0684493
0.0621756
0.0542733
0.0436217
0.0301983
0.0146485
-0.00275163
-0.0207137
-0.0383635
-0.0535594
-0.0658331
-0.0715857
-0.0724735
-0.0686507
-0.061674
-0.0529096
-0.0435042
-0.0348531
-0.0273433
-0.0210583
-0.015958
-0.0120368
-0.00896846
-0.00666697
-0.00475532
-0.00321679
-0.00238557
-0.00261041
-0.00316952
0.0679325
0.0704192
0.0729478
0.0749289
0.0742814
0.0734915
0.0748243
0.0768207
0.0777537
0.0779547
0.0760794
0.0711325
0.0647029
0.056443
0.0456732
0.032283
0.0165626
-0.000731761
-0.0188182
-0.0360197
-0.0503944
-0.0610311
-0.0703939
-0.0726055
-0.0690503
-0.0623111
-0.053861
-0.0448853
-0.0364814
-0.0292813
-0.0235563
-0.0190505
-0.0152262
-0.0121424
-0.00965746
-0.00755473
-0.00582248
-0.0046756
-0.00370071
-0.00258169
0.0690375
0.0715121
0.0734922
0.0750035
0.0739631
0.074523
0.075418
0.0767862
0.076659
0.0754089
0.0721308
0.0666858
0.0602722
0.052107
0.0412075
0.0276906
0.0123074
-0.00486117
-0.022666
-0.0399493
-0.0554067
-0.0675742
-0.072861
-0.0743457
-0.071118
-0.0644787
-0.0560092
-0.0467816
-0.0381086
-0.0302133
-0.0233539
-0.0177595
-0.0133491
-0.0100017
-0.00767678
-0.00573793
-0.00414377
-0.0032155
-0.00311377
-0.00343197
0.0700842
0.0723125
0.0740147
0.0750029
0.0742701
0.0751746
0.0759958
0.0772313
0.0773122
0.0769648
0.0748287
0.0696397
0.0626712
0.0539924
0.0428201
0.0291427
0.013433
-0.00366661
-0.0215158
-0.0384159
-0.0519819
-0.0626041
-0.0719269
-0.0749212
-0.0721398
-0.0657908
-0.0575721
-0.048514
-0.0399427
-0.0325374
-0.0264526
-0.0217802
-0.0180132
-0.0148284
-0.0116949
-0.00912011
-0.00705873
-0.00551148
-0.00434276
-0.00314405
0.0711308
0.0729106
0.0745532
0.0749585
0.0750755
0.0756499
0.0765427
0.0778136
0.0773381
0.0751356
0.0716688
0.0656567
0.05874
0.0502039
0.0390635
0.025462
0.0100633
-0.00700187
-0.0247967
-0.0417751
-0.0572967
-0.0688269
-0.0750546
-0.0768481
-0.0742769
-0.0679932
-0.0597716
-0.0506529
-0.0418176
-0.0336556
-0.026291
-0.0200863
-0.0148975
-0.0113924
-0.00901718
-0.00705044
-0.00543111
-0.00427347
-0.00382624
-0.0037833
0.072189
0.073426
0.0749403
0.0750354
0.0759902
0.076216
0.0771569
0.078219
0.0773658
0.0753255
0.0729927
0.0679274
0.0605505
0.0516071
0.0400484
0.0260779
0.0102453
-0.00689483
-0.0246624
-0.041575
-0.0550234
-0.0655826
-0.0743171
-0.0780152
-0.0759106
-0.0698922
-0.0617797
-0.0526405
-0.0437301
-0.0359349
-0.0293792
-0.0243595
-0.0205995
-0.0169853
-0.0137209
-0.0106129
-0.00819185
-0.00643207
-0.00510771
-0.00371073
0.0730204
0.0738654
0.0752492
0.0755474
0.0767549
0.0768526
0.0779188
0.0786372
0.0774218
0.0748994
0.0711999
0.064962
0.0575094
0.0485253
0.0370472
0.0231875
0.00756943
-0.00952323
-0.0273959
-0.0442759
-0.059552
-0.0712994
-0.0782716
-0.080294
-0.0783033
-0.0723603
-0.064223
-0.0550929
-0.0460228
-0.0376428
-0.0298448
-0.0230505
-0.0170831
-0.0127893
-0.0102987
-0.0085803
-0.00679908
-0.00545945
-0.0047542
-0.00429563
0.0733932
0.0744261
0.0755722
0.0765589
0.0773288
0.0775807
0.07868
0.0788715
0.0772729
0.0745424
0.0711992
0.0660953
0.0584731
0.0491889
0.0373626
0.0230613
0.00698771
-0.0103459
-0.028209
-0.0452572
-0.0591702
-0.0695774
-0.0777229
-0.0820654
-0.0805155
-0.0748125
-0.0667736
-0.0575682
-0.0482562
-0.0397458
-0.03255
-0.026909
-0.0228855
-0.0194704
-0.0161679
-0.0121606
-0.00929953
-0.007274
-0.00574097
-0.00437313
0.0736813
0.0750887
0.0761122
0.0776953
0.0779045
0.0783713
0.0793686
0.0790997
0.0773767
0.0744417
0.0704272
0.0647958
0.0565094
0.0469353
0.03503
0.0207066
0.0046655
-0.0126359
-0.030669
-0.0476609
-0.0626732
-0.0745949
-0.0825139
-0.0848348
-0.0833331
-0.0777635
-0.0696342
-0.0603518
-0.0509498
-0.0421277
-0.0340288
-0.0267221
-0.0200761
-0.0147291
-0.0119585
-0.0105351
-0.00844046
-0.00675391
-0.00571195
-0.0049537
0.074351
0.075795
0.0771062
0.0784456
0.0786364
0.0792427
0.0800173
0.0793811
0.0773643
0.0742597
0.0701485
0.0645396
0.0565064
0.0468077
0.0346656
0.0199326
0.00348649
-0.0141514
-0.0322447
-0.0494783
-0.0641032
-0.0747899
-0.0824082
-0.0872572
-0.0861619
-0.0807973
-0.0727765
-0.0635336
-0.0537848
-0.0444822
-0.0363788
-0.0298351
-0.0251181
-0.0215121
-0.0174645
-0.0138163
-0.0105856
-0.00823521
-0.00644557
-0.005116
0.0752445
0.0764689
0.0783589
0.0790659
0.0794546
0.0801446
0.0806294
0.079629
0.0774322
0.0743367
0.0699918
0.0639945
0.0555441
0.0453793
0.0328621
0.0178995
0.00126196
-0.0164495
-0.0347302
-0.052021
-0.0670453
-0.07901
-0.0878247
-0.0906873
-0.0895541
-0.0843671
-0.0763638
-0.0668197
-0.0568407
-0.0473999
-0.0388211
-0.0310931
-0.0239738
-0.0179519
-0.0142795
-0.0118008
-0.00995437
-0.00809213
-0.00669729
-0.00570958
0.0763009
0.0774628
0.0791951
0.0798557
0.0804158
0.0810497
0.0812331
0.0799514
0.0776362
0.0743825
0.0697488
0.0634452
0.055009
0.0446385
0.0318008
0.0164912
-0.000494236
-0.01852
-0.0369748
-0.0544567
-0.0697569
-0.081184
-0.0886326
-0.0938061
-0.0931133
-0.088265
-0.0802074
-0.0705108
-0.0604344
-0.0504281
-0.0413341
-0.0336602
-0.0277224
-0.0235166
-0.0199328
-0.0165568
-0.0122069
-0.00938676
-0.0073439
-0.0059625
0.0774507
0.0788269
0.0800048
0.0807699
0.081485
0.0819673
0.0818433
0.0803449
0.0778876
0.0744963
0.0697475
0.0631996
0.0543936
0.0435326
0.030397
0.0147605
-0.00264518
-0.0209921
-0.0396072
-0.0573924
-0.0728287
-0.0849266
-0.0944891
-0.0979936
-0.0972585
-0.0924944
-0.0845325
-0.0747864
-0.0642268
-0.0538335
-0.0444749
-0.0362039
-0.02864
-0.021723
-0.0164201
-0.0133168
-0.0118744
-0.00976446
-0.00789507
-0.00658213
0.0788466
0.0801728
0.0810275
0.0818876
0.0826511
0.0829401
0.0824667
0.0808093
0.0782436
0.0748151
0.0698068
0.0627847
0.0536026
0.0424314
0.0289468
0.0129008
-0.00488993
-0.0235646
-0.0424347
-0.0604516
-0.0763094
-0.0886906
-0.0963224
-0.102052
-0.101754
-0.0971923
-0.0893685
-0.0792971
-0.0685448
-0.0578624
-0.0477727
-0.0389098
-0.0315804
-0.0261461
-0.0220501
-0.0176334
-0.0137142
-0.0107135
-0.00856897
-0.00701177
0.0805734
0.0813515
0.0822039
0.0831529
0.0839021
0.0839801
0.0831432
0.0813409
0.0787657
0.0751856
0.0697837
0.0624331
0.0530601
0.0414222
0.0273211
0.0106927
-0.00754854
-0.0264381
-0.0456124
-0.0638325
-0.0800129
-0.0929363
-0.10272
-0.107001
-0.106808
-0.102437
-0.0946806
-0.0845303
-0.0735281
-0.0622194
-0.0515908
-0.0423302
-0.0342607
-0.0267964
-0.0204931
-0.0162659
-0.0133346
-0.0112473
-0.00909497
-0.00756998
0.0823861
0.0825475
0.0834677
0.08453
0.0852686
0.0851469
0.0839239
0.0819923
0.0793747
0.0755448
0.0698919
0.0622462
0.0523966
0.0400736
0.0253804
0.00841581
-0.0103046
-0.0295897
-0.0491663
-0.06765
-0.0841169
-0.0976041
-0.107314
-0.112275
-0.112358
-0.108159
-0.100585
-0.090443
-0.0789718
-0.0672806
-0.0561528
-0.0459888
-0.0372136
-0.0301044
-0.0249074
-0.0205023
-0.0162853
-0.0124218
-0.00987939
-0.00811741
0.0837997
0.0838552
0.084895
0.0860504
0.0867714
0.0864048
0.0848593
0.0827758
0.0800331
0.0760074
0.0700428
0.0619153
0.0515112
0.0387134
0.0234576
0.00597023
-0.0133189
-0.0331772
-0.0531942
-0.0720448
-0.0887868
-0.102691
-0.112986
-0.118273
-0.11857
-0.11457
-0.10722
-0.097045
-0.0852885
-0.0731272
-0.0612345
-0.050358
-0.0410738
-0.0329945
-0.0257629
-0.0200804
-0.0163493
-0.0134664
-0.0107665
-0.00876278
0.0851112
0.0853518
0.0865466
0.0877267
0.0883791
0.0878072
0.0859635
0.083671
0.0807795
0.0765002
0.0701266
0.0615045
0.0506004
0.0372505
0.0212749
0.00309086
-0.0168276
-0.0372183
-0.0576723
-0.0769153
-0.0938531
-0.108165
-0.118894
-0.124728
-0.125415
-0.121667
-0.114521
-0.104469
-0.0925445
-0.0797614
-0.0672285
-0.0556592
-0.0453117
-0.036341
-0.0292326
-0.0237494
-0.0189408
-0.0149392
-0.0118118
-0.00953803
0.0866511
0.0871173
0.0884036
0.0895438
0.0900809
0.0893491
0.0872313
0.0847068
0.0816045
0.0769738
0.0701439
0.0610135
0.0494819
0.0354681
0.0187618
-0.000128423
-0.0206305
-0.0416761
-0.0626649
-0.0824213
-0.0996354
-0.114206
-0.125489
-0.131974
-0.133068
-0.129601
-0.122667
-0.112803
-0.100784
-0.0875392
-0.0742866
-0.0617097
-0.0504682
-0.040854
-0.03263
-0.0256218
-0.0201046
-0.0160325
-0.0128576
-0.0103356
0.0885565
0.0891821
0.0904837
0.0915283
0.0919138
0.0910595
0.0887223
0.0858987
0.0824627
0.0774046
0.0700698
0.0603365
0.0480736
0.0333351
0.0158576
-0.00379176
-0.0249971
-0.0467498
-0.0682758
-0.0885916
-0.106177
-0.120898
-0.132573
-0.139796
-0.141517
-0.138417
-0.131779
-0.122133
-0.110138
-0.0965816
-0.0825779
-0.0690483
-0.0568057
-0.045982
-0.0366722
-0.0291353
-0.0231338
-0.0182515
-0.0143463
-0.0114719
0.0908606
0.0915535
0.0928187
0.0937151
0.0939284
0.092954
0.0904326
0.0872013
0.0833077
0.0777658
0.0698126
0.0593773
0.0463127
0.0307578
0.0124348
-0.00807974
-0.0300679
-0.0526227
-0.0746586
-0.095403
-0.11348
-0.12841
-0.140371
-0.148359
-0.150831
-0.148271
-0.14199
-0.132648
-0.120814
-0.106995
-0.0923299
-0.0778926
-0.0644439
-0.0524188
-0.0420579
-0.0333825
-0.0261727
-0.020439
-0.0160545
-0.012828
0.0935749
0.0942513
0.0954246
0.0961739
0.0961938
0.0950965
0.0923812
0.0886131
0.0841005
0.0780212
0.069347
0.0580613
0.0440553
0.027563
0.00835119
-0.0131113
-0.035913
-0.0593577
-0.082023
-0.103098
-0.121637
-0.13682
-0.148977
-0.157557
-0.161022
-0.159265
-0.153459
-0.144457
-0.132932
-0.119119
-0.103886
-0.088426
-0.0737533
-0.0604882
-0.0487614
-0.0387112
-0.0304017
-0.0237268
-0.0185676
-0.0146563
0.0966759
0.0972877
0.0983627
0.098939
0.0987286
0.0974363
0.0944694
0.0901011
0.0848089
0.0780393
0.068518
0.0562725
0.0411999
0.0235673
0.00339587
-0.0191003
-0.0427674
-0.0670041
-0.0904097
-0.111801
-0.130708
-0.146298
-0.15859
-0.167554
-0.172104
-0.171446
-0.166393
-0.157856
-0.146674
-0.13307
-0.117548
-0.10125
-0.0852885
-0.0704756
-0.0571977
-0.0456926
-0.0360501
-0.0280865
-0.0217496
-0.0170235
0.100267
0.100765
0.101696
0.102059
0.101574
0.100056
0.0967651
0.0916814
0.0854146
0.0777648
0.0672323
0.0538101
0.0375791
0.0186201
-0.00264591
-0.0261888
-0.0508061
-0.0757402
-0.0998532
-0.12167
-0.140751
-0.156753
-0.169351
-0.178542
-0.184111
-0.18491
-0.180967
-0.173107
-0.162413
-0.149187
-0.133566
-0.116569
-0.0994259
-0.0830891
-0.0681775
-0.054884
-0.043446
-0.0339631
-0.0262746
-0.0205
0.104335
0.104661
0.105448
0.105619
0.104757
0.102896
0.0991842
0.0932467
0.0857712
0.0769831
0.0653343
0.0505155
0.0329316
0.0125021
-0.0100766
-0.0347077
-0.0603418
-0.0857968
-0.110301
-0.132584
-0.1518
-0.16805
-0.181225
-0.190787
-0.197102
-0.199467
-0.197286
-0.190577
-0.180474
-0.167787
-0.152531
-0.135151
-0.116905
-0.0988993
-0.0821093
-0.0670094
-0.0536606
-0.0422917
-0.0328403
-0.0256918
0.10904
0.109157
0.109722
0.10962
0.108251
0.10575
0.101552
0.0947538
0.0858851
0.0756178
0.0627272
0.046309
0.0269959
0.00488701
-0.0192011
-0.0448252
-0.0715212
-0.0977629
-0.122284
-0.144517
-0.163875
-0.18015
-0.193735
-0.204039
-0.211273
-0.215096
-0.214959
-0.210377
-0.201696
-0.189509
-0.174588
-0.157326
-0.138612
-0.119216
-0.100233
-0.0827601
-0.0671432
-0.053695
-0.0423602
-0.0335836
0.114486
0.114294
0.114575
0.114042
0.112128
0.108623
0.103578
0.0959702
0.0855222
0.0732115
0.0588853
0.040932
0.0194491
-0.00475554
-0.0305731
-0.0572438
-0.084629
-0.111588
-0.136491
-0.158321
-0.17728
-0.193204
-0.206691
-0.217637
-0.22606
-0.231711
-0.23385
-0.231888
-0.225847
-0.21547
-0.201276
-0.183925
-0.164682
-0.144618
-0.124123
-0.104371
-0.0859399
-0.0696122
-0.0557586
-0.0449067
0.120767
0.120086
0.120065
0.118958
0.116221
0.111655
0.105203
0.0963664
0.084433
0.0695103
0.0528647
0.0335784
0.0102618
-0.0164255
-0.0445754
-0.0725853
-0.100596
-0.127734
-0.152806
-0.174323
-0.192675
-0.207971
-0.220745
-0.23164
-0.241053
-0.248334
-0.253143
-0.254408
-0.251981
-0.244974
-0.233219
-0.217272
-0.198015
-0.176627
-0.154278
-0.13232
-0.111515
-0.0924027
-0.0754085
-0.0619313
0.12801
0.126659
0.125947
0.123914
0.119939
0.113957
0.105826
0.0950568
0.0813566
0.0642328
0.044395
0.0225565
-0.00246822
-0.0308246
-0.0613782
-0.0914849
-0.120313
-0.147307
-0.171948
-0.193
-0.210298
-0.224596
-0.236507
-0.246838
-0.256489
-0.265445
-0.272629
-0.277526
-0.278913
-0.276343
-0.268611
-0.256071
-0.239356
-0.219015
-0.195791
-0.171234
-0.146978
-0.124338
-0.103642
-0.0864843
0.136368
0.134165
0.132662
0.129544
0.124042
0.11595
0.10528
0.0919258
0.0755452
0.0559905
0.0329129
0.00756131
-0.0199175
-0.0500008
-0.0821757
-0.114242
-0.144095
-0.171127
-0.194746
-0.214815
-0.230771
-0.2436
-0.253807
-0.263378
-0.272813
-0.282987
-0.292552
-0.301503
-0.30776
-0.310295
-0.307329
-0.299432
-0.28663
-0.269441
-0.247945
-0.223917
-0.198518
-0.173233
-0.149009
-0.127894
0.145091
0.141291
0.138059
0.133125
0.125462
0.114893
0.101255
0.0845771
0.0648339
0.0419386
0.0159379
-0.0131701
-0.0438912
-0.0760767
-0.109222
-0.142355
-0.172717
-0.199515
-0.221693
-0.240216
-0.254017
-0.264826
-0.273027
-0.281272
-0.289869
-0.300843
-0.312775
-0.325554
-0.337465
-0.346925
-0.351177
-0.349294
-0.343037
-0.33068
-0.312354
-0.289637
-0.264601
-0.239119
-0.214236
-0.191897
0.156946
0.151508
0.145778
0.137547
0.126308
0.111167
0.093143
0.0720291
0.0480048
0.0209646
-0.00871149
-0.0411262
-0.0750226
-0.109532
-0.14372
-0.176942
-0.207095
-0.233023
-0.253358
-0.268876
-0.279789
-0.287289
-0.292586
-0.298502
-0.306163
-0.316765
-0.330223
-0.346725
-0.365035
-0.383228
-0.398393
-0.408664
-0.410938
-0.407116
-0.396041
-0.378897
-0.356136
-0.331067
-0.30556
-0.283428
0.16178
0.151687
0.143021
0.131767
0.117245
0.098414
0.0756268
0.0495061
0.0203332
-0.0112988
-0.045199
-0.0806674
-0.11718
-0.153583
-0.188588
-0.220909
-0.249702
-0.273408
-0.290949
-0.302399
-0.308554
-0.31087
-0.312085
-0.313859
-0.319157
-0.328097
-0.341607
-0.358705
-0.38093
-0.406556
-0.434369
-0.460653
-0.482641
-0.496526
-0.501699
-0.497138
-0.485207
-0.465633
-0.442336
-0.418436
0.18188
0.166167
0.146504
0.123515
0.0972337
0.0686324
0.0371983
0.00387188
-0.0319674
-0.0696172
-0.10856
-0.148221
-0.187639
-0.225895
-0.261431
-0.292575
-0.318167
-0.336851
-0.348118
-0.352189
-0.350364
-0.344801
-0.339134
-0.335247
-0.335226
-0.341093
-0.351753
-0.365859
-0.385659
-0.412349
-0.446515
-0.48601
-0.529318
-0.570807
-0.607498
-0.635158
-0.652859
-0.659461
-0.656575
-0.646126
0.134432
0.112704
0.0892931
0.0626205
0.031794
-0.00258351
-0.0400838
-0.0798153
-0.121359
-0.164087
-0.207183
-0.249812
-0.291177
-0.330073
-0.365427
-0.394843
-0.416733
-0.428694
-0.431091
-0.424542
-0.410742
-0.393513
-0.375946
-0.362455
-0.355175
-0.354303
-0.359974
-0.370666
-0.381697
-0.394976
-0.416196
-0.449658
-0.497238
-0.555409
-0.618523
-0.682015
-0.742676
-0.79702
-0.842089
-0.872225
0.188702
0.146043
0.100135
0.0562936
0.0134449
-0.0301753
-0.0757182
-0.122432
-0.16956
-0.215586
-0.259323
-0.299563
-0.335742
-0.367405
-0.394745
-0.41512
-0.426658
-0.428954
-0.421468
-0.405776
-0.382811
-0.355212
-0.327835
-0.30411
-0.29065
-0.289742
-0.301462
-0.322044
-0.335357
-0.329199
-0.313241
-0.300284
-0.299638
-0.317131
-0.354884
-0.409082
-0.468101
-0.52394
-0.583296
-0.644369
-0.210195
-0.246844
-0.291982
-0.349089
-0.409871
-0.468689
-0.52613
-0.579972
-0.628173
-0.666272
-0.695465
-0.719493
-0.741312
-0.758166
-0.766556
-0.765283
-0.75384
-0.731901
-0.699366
-0.657502
-0.608925
-0.554678
-0.497488
-0.442632
-0.397776
-0.372973
-0.372471
-0.392058
-0.408896
-0.404153
-0.399408
-0.399909
-0.40225
-0.40824
-0.419205
-0.434192
-0.452482
-0.475532
-0.502386
-0.530254
0.000568878
0.000569943
-0.00394742
0.00105691
-0.0023629
0.000738849
-0.00174008
0.000329081
-0.00102655
-0.0010777
-0.00141503
-0.00189011
-0.00223087
-0.0025578
-0.00275488
-0.00265218
-0.00248816
-0.00234423
-0.00201299
-0.00156775
-0.00107092
-0.000645893
-0.000350174
8.29758e-05
0.000506656
0.000907515
0.00125519
0.00148968
0.00173463
0.0020192
0.0023205
0.00259802
0.00279866
0.0029896
0.00315599
0.00325934
0.00358805
0.00390381
0.00580309
0.00287169
-0.00433983
-0.000301778
-0.0031084
0.000192373
-0.00185796
0.00049579
-0.00141268
-0.000171721
-0.000759612
-0.00105656
-0.00138021
-0.0018702
-0.00234014
-0.00277138
-0.0029058
-0.00272764
-0.00263087
-0.00252075
-0.00215144
-0.00164312
-0.00119932
-0.000899303
-0.000564056
-6.10331e-05
0.000425532
0.000814909
0.00108904
0.00137358
0.00170694
0.0020257
0.00230775
0.00253012
0.00271292
0.0029113
0.00305322
0.00320217
0.00342776
0.00382775
0.00385102
0.0012271
0.0012194
-0.000350462
-0.00247894
-0.000400067
-0.00143939
0.000323783
-0.0010065
-0.000483183
-0.000592218
-0.00105436
-0.00147152
-0.0020094
-0.0025992
-0.00304436
-0.00310362
-0.00303435
-0.00296561
-0.00269705
-0.00227315
-0.0018929
-0.00160129
-0.00120299
-0.000625105
-0.000148838
0.000188212
0.000552669
0.000908105
0.00130445
0.00168867
0.00197645
0.00221793
0.00241793
0.00262802
0.0028281
0.00297445
0.00314147
0.00338834
0.0039498
0.00477154
0.00534703
-0.00451065
-0.00108052
-0.0020789
-0.000782873
-0.00109452
0.000231737
-0.000602294
-0.000541199
-0.000515129
-0.00105601
-0.00162411
-0.00224962
-0.00290731
-0.00333869
-0.00346956
-0.00354178
-0.00338062
-0.00300254
-0.00254234
-0.0022441
-0.00195155
-0.00136534
-0.000729502
-0.000424832
-0.000119361
0.000311704
0.000777048
0.00119337
0.00155572
0.00183087
0.00208076
0.00228422
0.0025186
0.00272124
0.00289971
0.00308277
0.00327133
0.0034666
0.00357705
0.00292768
0.000540558
-0.000948439
-0.00180742
-0.00101528
-0.000688664
0.00023451
-0.000235206
-0.000425816
-0.000460804
-0.0010593
-0.00176962
-0.00249826
-0.00318371
-0.00362522
-0.00389465
-0.00405052
-0.00391361
-0.00352588
-0.00301483
-0.00263406
-0.00213244
-0.0014345
-0.00103554
-0.000814462
-0.000378586
0.000129977
0.000600711
0.000981733
0.00131229
0.00162851
0.00186394
0.00206852
0.00233991
0.00257924
0.00280172
0.00300266
0.00323117
0.00356427
0.0041241
0.00489454
-0.00451561
-0.0014348
-0.00168529
-0.00113409
-0.000293778
0.000337097
0.00011379
-0.000176482
-0.000365048
-0.00105021
-0.00187374
-0.00270798
-0.00342806
-0.00390141
-0.00428272
-0.00451067
-0.00445195
-0.00408366
-0.00358896
-0.00297791
-0.00223097
-0.00169508
-0.00148181
-0.00109698
-0.000590121
-8.64908e-05
0.000313746
0.000658859
0.00100565
0.00133848
0.00155089
0.00179761
0.00214695
0.00244351
0.00270411
0.0029277
0.00313378
0.00327163
0.00340033
0.0034157
-0.000152929
-0.00144934
-0.00164638
-0.00108744
5.04417e-05
0.000511919
0.000456145
0.000146388
-0.000203663
-0.00099084
-0.00191577
-0.00286342
-0.00362702
-0.00418234
-0.00466996
-0.00490105
-0.00482408
-0.00455033
-0.00404854
-0.00323913
-0.00258163
-0.0022439
-0.00188059
-0.00129177
-0.000795653
-0.000367823
-9.97058e-06
0.00033722
0.000727814
0.00102526
0.00122325
0.0015633
0.00198348
0.00231597
0.00259245
0.00283058
0.00305537
0.00329763
0.00368111
0.00418731
-0.00442092
-0.00174144
-0.00154411
-0.000898722
0.000316636
0.000752505
0.000837205
0.000519161
2.91408e-05
-0.000861756
-0.00188746
-0.00293307
-0.0037523
-0.00446795
-0.00504147
-0.00522762
-0.00512872
-0.00483461
-0.00425166
-0.00367747
-0.00333179
-0.00283827
-0.0021411
-0.00150687
-0.00103044
-0.0006444
-0.000296709
7.48599e-05
0.000466349
0.000715723
0.000950363
0.00139196
0.00184085
0.00218242
0.00246142
0.00271304
0.00292768
0.00310659
0.00328608
0.00348762
-0.000949919
-0.00177183
-0.00143488
-0.000656301
0.000580978
0.00110641
0.00128075
0.000943891
0.000346501
-0.00066523
-0.00180074
-0.00291812
-0.00385479
-0.00474494
-0.00533231
-0.00550347
-0.00537124
-0.00496094
-0.00444403
-0.00426978
-0.00392198
-0.00319617
-0.00235075
-0.00177282
-0.00131791
-0.000948403
-0.000636278
-0.000213724
0.000168802
0.000411258
0.000718119
0.00120988
0.00165389
0.00200113
0.00229282
0.00255627
0.00278862
0.00304976
0.00335234
0.00369999
-0.00462205
-0.00204552
-0.00130001
-0.000372356
0.000883983
0.00153134
0.00177009
0.00139718
0.000732506
-0.00038477
-0.00163828
-0.00282395
-0.00393134
-0.00496834
-0.00555354
-0.00568566
-0.0054887
-0.00510059
-0.00478222
-0.00467043
-0.00409449
-0.00334159
-0.00265338
-0.00213244
-0.00166998
-0.00128712
-0.00100742
-0.000567815
-0.000207102
4.54498e-05
0.000433452
0.000968166
0.00141623
0.00175663
0.0020609
0.00235133
0.00260972
0.00287376
0.0031307
0.00343158
-0.00192478
-0.00204513
-0.00118556
-6.77938e-05
0.00122545
0.00201463
0.00234689
0.00191562
0.00119953
-2.97889e-05
-0.00138669
-0.00266887
-0.00400292
-0.00512812
-0.00568928
-0.00573842
-0.0055784
-0.00534717
-0.00518166
-0.00483663
-0.00418537
-0.00357055
-0.00308924
-0.00258198
-0.00204977
-0.00165235
-0.00137408
-0.000972352
-0.000636001
-0.000340366
0.000138159
0.000688671
0.00111204
0.00144291
0.0017777
0.00209934
0.00239122
0.0027103
0.00303812
0.00336971
-0.00474974
-0.00234928
-0.00105535
0.000304338
0.00165106
0.00255164
0.00301751
0.00254482
0.00174468
0.000429871
-0.00102348
-0.00249727
-0.00406627
-0.00519881
-0.0057023
-0.00572223
-0.00577331
-0.00569217
-0.00548036
-0.00500255
-0.00444644
-0.00404814
-0.00366699
-0.00317368
-0.00259379
-0.00219224
-0.00178883
-0.00135258
-0.00101181
-0.000662281
-0.000137144
0.000392113
0.000788956
0.00111284
0.00147532
0.00182261
0.0021379
0.00247981
0.00284653
0.00326455
-0.00287029
-0.00249323
-0.000912419
0.000725474
0.00214655
0.00316898
0.00375595
0.00329945
0.00236761
0.00100264
-0.000573364
-0.00232404
-0.00403686
-0.00516055
-0.00559607
-0.00574277
-0.00602395
-0.00597743
-0.00566533
-0.00531219
-0.00492426
-0.00469278
-0.00438126
-0.00385429
-0.00336707
-0.00289787
-0.00231517
-0.00178238
-0.00137908
-0.000955452
-0.000395456
0.000102653
0.000457838
0.000784669
0.00117448
0.00152652
0.00186243
0.00223596
0.00264419
0.00303826
-0.00490183
-0.00269192
-0.000758888
0.00118759
0.00276622
0.00389623
0.00456255
0.0041688
0.00311712
0.00170552
-7.33314e-05
-0.00213526
-0.0039019
-0.00496305
-0.00540248
-0.00588271
-0.0062282
-0.00617313
-0.00598034
-0.00572084
-0.00549319
-0.0053867
-0.00507666
-0.00461547
-0.0042508
-0.00370035
-0.00301716
-0.00236188
-0.00185619
-0.00132076
-0.000713666
-0.000228269
0.00010132
0.000440013
0.000843881
0.00120806
0.00158084
0.00198835
0.0024212
0.00280085
-0.00392713
-0.00275844
-0.00060466
0.00168112
0.0035099
0.00475066
0.00551106
0.00516702
0.00405073
0.00255756
0.000459864
-0.0018616
-0.00361887
-0.00461637
-0.00524906
-0.00604102
-0.00637518
-0.0064556
-0.00650546
-0.00631235
-0.00615238
-0.0060185
-0.00574798
-0.00546539
-0.00510237
-0.00452791
-0.0038016
-0.00307906
-0.00246718
-0.00181209
-0.00115889
-0.000683903
-0.000359705
3.1072e-05
0.000466115
0.000849716
0.00127314
0.00174132
0.0021917
0.00248956
-0.00530152
-0.00285417
-0.000416529
0.00218678
0.00436112
0.00580954
0.00662866
0.00635292
0.0052041
0.00350898
0.001046
-0.00139186
-0.00312869
-0.0042026
-0.00519224
-0.00606583
-0.00657379
-0.00697243
-0.00706416
-0.00693929
-0.00688281
-0.00679023
-0.00657368
-0.00631864
-0.00589792
-0.0053048
-0.00458712
-0.00384757
-0.00317283
-0.00246636
-0.00178536
-0.00129389
-0.000916252
-0.000456852
-4.0753e-06
0.000418393
0.000911814
0.00143042
0.00189434
0.00216582
-0.00522373
-0.00286594
-0.000145065
0.00278411
0.00535964
0.00705727
0.00789755
0.00778163
0.00659329
0.00452055
0.00175107
-0.000686833
-0.00244245
-0.00380212
-0.00515144
-0.00608083
-0.00693123
-0.00744773
-0.00756944
-0.00766815
-0.00778174
-0.0077828
-0.00761204
-0.00727942
-0.00675689
-0.00611586
-0.00535954
-0.00461268
-0.00395312
-0.00322797
-0.00252347
-0.00201301
-0.00157321
-0.00105969
-0.000571124
-8.03352e-05
0.000487832
0.00104981
0.00153146
0.00179625
-0.00583319
-0.00292931
0.000190088
0.00347176
0.00651525
0.00849861
0.00944241
0.00948616
0.0081367
0.00560347
0.00270833
0.000260364
-0.00169401
-0.00348118
-0.00505484
-0.00621634
-0.00723646
-0.00777547
-0.00824656
-0.00855668
-0.00879911
-0.00891483
-0.00878804
-0.00838224
-0.00777664
-0.00700722
-0.00618621
-0.00544821
-0.00477863
-0.00400929
-0.00330718
-0.0028063
-0.00232087
-0.00177094
-0.00124123
-0.000683294
-4.50852e-05
0.000566812
0.00108073
0.00134481
-0.00599279
-0.00283474
0.00066824
0.00433152
0.0078268
0.010178
0.011345
0.0114703
0.00978459
0.00695503
0.00405013
0.00139067
-0.00098771
-0.00315211
-0.00490127
-0.00634175
-0.00732243
-0.00821314
-0.00906956
-0.00959037
-0.00997436
-0.0101431
-0.0099516
-0.00947048
-0.00878006
-0.00796285
-0.00713848
-0.0063902
-0.00565742
-0.00486702
-0.00420087
-0.00370791
-0.00319019
-0.0026225
-0.00206509
-0.00142933
-0.000722422
-5.27396e-05
0.000501527
0.000773735
-0.00644608
-0.00282544
0.00116281
0.00531072
0.00928618
0.0121714
0.0136263
0.013713
0.0116867
0.0087974
0.00570062
0.00258875
-0.000214303
-0.00265649
-0.00462431
-0.00628884
-0.00755179
-0.00897365
-0.010119
-0.0108309
-0.0112419
-0.0112984
-0.010939
-0.0104134
-0.00971002
-0.00895231
-0.00816152
-0.00745283
-0.00669114
-0.00589181
-0.0052338
-0.00472681
-0.0041868
-0.00360895
-0.00301023
-0.00228253
-0.00150861
-0.000788375
-0.000198401
0.000109909
-0.00667364
-0.0026428
0.001777
0.00645583
0.0109801
0.014513
0.0163188
0.0162832
0.0141449
0.0111555
0.00755099
0.00391926
0.000773886
-0.00193275
-0.00421299
-0.00623587
-0.00814779
-0.009979
-0.0113591
-0.0121803
-0.0125573
-0.012444
-0.0119813
-0.0113978
-0.0106641
-0.00989487
-0.0091591
-0.00850247
-0.00772413
-0.00692638
-0.00628537
-0.00575275
-0.00518021
-0.00459297
-0.00394004
-0.00315831
-0.00235
-0.00157819
-0.000944853
-0.000623271
-0.00701749
-0.00255325
0.00235439
0.00776454
0.0129415
0.0172393
0.0194446
0.0193731
0.0172425
0.0138316
0.00968104
0.00561215
0.00201653
-0.00114932
-0.00392314
-0.00648405
-0.00886058
-0.0110563
-0.0126483
-0.0135997
-0.0139841
-0.0137647
-0.0132907
-0.0126107
-0.0117919
-0.0109698
-0.0102615
-0.00957852
-0.00874109
-0.00792953
-0.00727576
-0.00670453
-0.00612603
-0.00556345
-0.00489928
-0.00412445
-0.00331029
-0.00249105
-0.00180291
-0.00146868
-0.00748596
-0.00241475
0.00294698
0.00920673
0.0152014
0.0203781
0.0230761
0.0231456
0.0208695
0.0168083
0.0122628
0.00759189
0.0033578
-0.000515593
-0.00398776
-0.00704392
-0.00972484
-0.0122689
-0.0140638
-0.0150845
-0.0154339
-0.0152053
-0.0147705
-0.0140716
-0.013252
-0.0124084
-0.0116576
-0.0108632
-0.00992749
-0.00912013
-0.00845422
-0.00787639
-0.00733503
-0.00681049
-0.00612636
-0.00533982
-0.00448409
-0.00361815
-0.00286682
-0.00248389
-0.008247
-0.00242553
0.0033981
0.0105251
0.0176184
0.0238866
0.0273652
0.0276434
0.025031
0.0203217
0.0153173
0.00959441
0.004585
-0.000134121
-0.00425722
-0.00774639
-0.0109383
-0.0137005
-0.0155327
-0.0165418
-0.0168502
-0.0166309
-0.0162697
-0.0156667
-0.0149342
-0.0141004
-0.0133397
-0.0124492
-0.0115215
-0.0107487
-0.0100669
-0.00946883
-0.00892874
-0.00834044
-0.00754607
-0.00666215
-0.00571201
-0.00481382
-0.00405649
-0.00365505
-0.00959515
-0.00278394
0.00360832
0.0116197
0.020096
0.0277598
0.0323761
0.032969
0.0298788
0.0244074
0.0184772
0.0115948
0.00562801
0.000135746
-0.00449572
-0.00859058
-0.0122408
-0.0151547
-0.0169601
-0.0179686
-0.0182537
-0.0181357
-0.0178417
-0.0173062
-0.0166506
-0.0159008
-0.0151991
-0.0143014
-0.0134307
-0.0126163
-0.0118401
-0.01114
-0.010503
-0.00973201
-0.00880756
-0.00783331
-0.00684288
-0.00597833
-0.00527591
-0.00489725
-0.0114036
-0.00347155
0.00351938
0.0123708
0.022497
0.0319151
0.0380855
0.0392388
0.035532
0.0288659
0.0214007
0.0134484
0.00685561
0.000765794
-0.00469376
-0.00940055
-0.0134199
-0.0165293
-0.0184229
-0.0194829
-0.019806
-0.0198056
-0.0195482
-0.0190689
-0.018489
-0.0178712
-0.0171588
-0.0162202
-0.0152889
-0.0143241
-0.0134228
-0.0126665
-0.0119424
-0.0110894
-0.0101597
-0.00918044
-0.00823376
-0.00739208
-0.00665918
-0.00626169
-0.0141254
-0.00483442
0.00304541
0.0126211
0.024599
0.0361943
0.0443938
0.0463867
0.0420183
0.0336187
0.0242919
0.0156091
0.00835887
0.0014501
-0.00484973
-0.0100227
-0.0144644
-0.0177653
-0.0197675
-0.02097
-0.0214465
-0.0215934
-0.0214772
-0.0211692
-0.020731
-0.0201243
-0.0192758
-0.0182755
-0.0172949
-0.0163104
-0.015515
-0.0148554
-0.0141186
-0.0132426
-0.0122715
-0.011242
-0.0102151
-0.00923696
-0.00839823
-0.00799422
-0.0181643
-0.00771712
0.00142944
0.0117968
0.0257738
0.0402146
0.0509996
0.0543786
0.0495789
0.0391236
0.0277726
0.0183876
0.00999194
0.00202965
-0.00485345
-0.0105137
-0.0152212
-0.0185347
-0.0207389
-0.0221717
-0.02294
-0.0234328
-0.0236673
-0.0236611
-0.0233892
-0.0228478
-0.022096
-0.0212671
-0.0204283
-0.0196207
-0.0189795
-0.0182895
-0.0174308
-0.0163761
-0.0152036
-0.0139601
-0.0127452