/*--------------------------------*- C++ -*----------------------------------*\
  =========                 |
  \\      /  F ield         | OpenFOAM: The Open Source CFD Toolbox
   \\    /   O peration     | Website:  https://openfoam.org
    \\  /    A nd           | Version:  11
     \\/     M anipulation  |
\*---------------------------------------------------------------------------*/
FoamFile
{
    format      ascii;
    class       surfaceScalarField;
    location    "2";
    object      phi;
}
// * * * * * * * * * * * * * * * * * * * * * * * * * * * * * * * * * * * * * //

dimensions      [0 3 -1 0 0 0 0];

internalField   nonuniform List<scalar> 
18960
(
0.0481173
0.000718896
-0.0488362
0.0475551
0.000562248
0.0461931
0.00136198
0.0436835
0.00250961
0.0410472
0.00263631
0.039824
0.00122321
0.0400274
-0.000203446
0.041186
-0.00115855
0.0431815
-0.0019955
0.0450816
-0.00190017
0.0463519
-0.00127025
0.0471019
-0.000749982
0.0476521
-0.000550289
0.0481771
-0.000524971
0.0487103
-0.000533133
0.0493056
-0.00059537
0.0499604
-0.000654803
0.0506365
-0.00067611
0.0512227
-0.000586204
0.0516133
-0.0003906
0.0518047
-0.000191313
0.0515681
0.000236537
0.051126
0.000442143
0.0504165
0.000709523
0.0495251
0.000891364
0.0485899
0.000935196
0.047797
0.000792861
0.0472634
0.000533651
0.0469938
0.000269538
0.04696
3.38559e-05
0.0471221
-0.000162082
0.0473959
-0.000273865
0.0476962
-0.000300283
0.0481385
-0.000442329
0.0486598
-0.000521253
0.0493159
-0.000656074
0.0501757
-0.00085984
0.0511256
-0.000949932
0.0522766
-0.00115098
-0.000215658
0.0524923
0.04822
0.00112987
-0.048631
0.0475391
0.00124318
0.0467768
0.00212422
0.0457684
0.00351808
0.0446437
0.00376095
0.0439617
0.00190524
0.0438296
-7.13268e-05
0.044173
-0.00150199
0.0442838
-0.00210627
0.0440552
-0.00167163
0.043844
-0.00105902
0.0440157
-0.000921677
0.0446771
-0.00121169
0.0456339
-0.00148181
0.0467292
-0.00162842
0.0479151
-0.00178127
0.0490684
-0.00180806
0.0501918
-0.00179957
0.0512377
-0.00163203
0.0519433
-0.00109625
0.0523565
-0.00060448
0.0524641
0.000128886
0.0523184
0.000587895
0.051908
0.00111986
0.0512312
0.00156815
0.0504204
0.00174603
0.0495629
0.00165035
0.048658
0.00143857
0.0477557
0.00117184
0.0469558
0.000833721
0.0462825
0.000511234
0.0458385
0.000170172
0.0454985
3.9671e-05
0.0452998
-0.000243605
0.0450124
-0.000233798
0.0446937
-0.000337463
0.0442335
-0.000399642
0.0439582
-0.000674571
0.0435754
-0.000768195
-0.00126
0.0446197
0.0479719
0.00173633
-0.0485784
0.0473227
0.00189239
0.0464087
0.00303825
0.0451051
0.00482161
0.0439526
0.00491351
0.0437208
0.00213696
0.0443781
-0.000728551
0.04529
-0.00241392
0.0462879
-0.00310414
0.0472965
-0.0026803
0.0481324
-0.0018949
0.0487085
-0.0014978
0.0491162
-0.00161939
0.0495087
-0.0018743
0.0499203
-0.00204001
0.0503732
-0.00223415
0.0508982
-0.00233308
0.05144
-0.00234133
0.0519396
-0.00213161
0.0523615
-0.00151813
0.0524992
-0.000742204
0.0524386
0.000189504
0.0520589
0.000967509
0.0515126
0.00166618
0.0508066
0.00227419
0.0500262
0.00252639
0.0493464
0.00233021
0.0488734
0.00191157
0.0485506
0.00149462
0.0484597
0.00092464
0.0484935
0.000477383
0.0486461
1.7635e-05
0.048932
-0.000246299
0.0493185
-0.000630016
0.0497828
-0.00069813
0.050548
-0.00110264
0.051322
-0.00117369
0.0520226
-0.00137518
0.0528472
-0.00159275
-0.000884136
0.0524713
0.0479715
0.00228337
-0.0485186
0.0473556
0.00250836
0.0463435
0.00405028
0.0457046
0.00546059
0.0456389
0.00497912
0.0462211
0.00155485
0.0469322
-0.00143965
0.0473965
-0.00287828
0.0471716
-0.00287924
0.0463343
-0.00184303
0.0455784
-0.00113899
0.0453372
-0.00125655
0.0456129
-0.00189513
0.0462878
-0.00254915
0.0472426
-0.00299478
0.0483112
-0.00330283
0.0494153
-0.00343712
0.0504282
-0.00335429
0.0513418
-0.00304513
0.0520492
-0.00222561
0.0524942
-0.00118715
0.0526073
7.63549e-05
0.052562
0.00101283
0.0522339
0.00199428
0.0517012
0.00280694
0.0510034
0.00322411
0.0501706
0.00316305
0.0493381
0.00274407
0.0484338
0.00239891
0.0475861
0.00177229
0.0467694
0.0012941
0.0461901
0.000596994
0.0456791
0.000264697
0.0452822
-0.000233117
0.0449672
-0.000383143
0.0446247
-0.000760184
0.0444053
-0.000954207
0.0441639
-0.00113386
0.0440417
-0.00147052
-0.00202128
0.0451788
0.0479568
0.00278795
-0.0484614
0.047281
0.00318414
0.0464602
0.00487105
0.0462511
0.00566974
0.0464691
0.00476108
0.0469209
0.00110311
0.047023
-0.00154181
0.0468133
-0.00266855
0.0468184
-0.00288436
0.0472945
-0.00231907
0.0481091
-0.00195359
0.0488291
-0.00197664
0.0493546
-0.00242062
0.0497805
-0.00297505
0.0501585
-0.0033727
0.0505652
-0.00370952
0.0510416
-0.00391358
0.0515025
-0.00381516
0.051905
-0.0034476
0.0522893
-0.00260991
0.0524669
-0.00136479
0.0525078
3.54051e-05
0.0522112
0.00130944
0.0518242
0.00238128
0.051279
0.00335218
0.0506442
0.00385892
0.0500113
0.00379595
0.0495171
0.00323827
0.0491479
0.00276811
0.0489887
0.00193146
0.0489728
0.00130998
0.0490413
0.000528549
0.0492557
5.0314e-05
0.0496333
-0.000610795
0.0500811
-0.000830864
0.0506843
-0.00136344
0.0513123
-0.00158217
0.0519479
-0.00176943
0.0524324
-0.00195505
-0.00154298
0.0519541
0.0478965
0.00329038
-0.0483989
0.0471823
0.00389832
0.0465985
0.00545489
0.0465533
0.00571491
0.0470749
0.0042395
0.0478757
0.000302295
0.0483511
-0.00201718
0.0485381
-0.00285554
0.0484353
-0.00278162
0.0480236
-0.00190735
0.0471957
-0.00112567
0.0467909
-0.0015719
0.0468604
-0.00249009
0.0472351
-0.00334977
0.0479165
-0.00405409
0.0488486
-0.00464165
0.0497978
-0.00486273
0.0506931
-0.00471048
0.0515126
-0.00426711
0.0521807
-0.00327798
0.0526821
-0.00186624
0.0527847
-6.71048e-05
0.0528172
0.00127693
0.0525369
0.00266155
0.0520618
0.00382726
0.0514926
0.00442809
0.0507632
0.00452539
0.0500305
0.00397099
0.0492069
0.00359164
0.0483552
0.00278315
0.0474699
0.00219535
0.0467198
0.00127866
0.0461209
0.000649217
0.0456641
-0.00015398
0.0452882
-0.000454972
0.0449811
-0.00105641
0.044739
-0.00134006
0.044537
-0.00156742
0.0446526
-0.00207067
-0.00263806
0.0457477
0.0478445
0.00375983
-0.048314
0.04718
0.00456287
0.0468649
0.00576991
0.0469582
0.0056217
0.0478287
0.00336895
0.0484725
-0.000341535
0.0484889
-0.00203358
0.0480815
-0.00244816
0.0475532
-0.00225331
0.0474725
-0.00182657
0.0480074
-0.00166062
0.048765
-0.00232949
0.0494025
-0.00312755
0.0499194
-0.0038667
0.0503537
-0.00448845
0.0507585
-0.00504646
0.0511859
-0.00529005
0.0516062
-0.00513085
0.0519688
-0.00462963
0.0523294
-0.00363861
0.0524899
-0.00202674
0.0526537
-0.000230969
0.0524377
0.001493
0.0521954
0.00290383
0.0517822
0.00424046
0.051279
0.00493128
0.0506769
0.00512755
0.0501651
0.00448273
0.0497314
0.00402537
0.0495186
0.00299599
0.0494734
0.00224055
0.0494882
0.00126378
0.0496364
0.000501019
0.0498827
-0.000400277
0.0502523
-0.000824567
0.050693
-0.00149707
0.0512176
-0.00186469
0.0517293
-0.00207909
0.0519212
-0.00226255
-0.00211969
0.0514028
0.0478454
0.00418435
-0.0482699
0.0472466
0.00516169
0.0471042
0.00591229
0.047401
0.00532491
0.0484611
0.00230889
0.0490866
-0.000967076
0.04919
-0.00213694
0.049004
-0.00226222
0.0487429
-0.00199214
0.0485362
-0.00161996
0.0482435
-0.00136788
0.0479383
-0.00202431
0.0479844
-0.00317358
0.0482699
-0.00415226
0.048799
-0.00501756
0.0494967
-0.00574416
0.0502639
-0.00605721
0.0510153
-0.00588231
0.0517389
-0.00535322
0.0523663
-0.00426595
0.0528262
-0.0024867
0.0529639
-0.000368693
0.0531018
0.00135518
0.0529054
0.0031002
0.0525249
0.00462098
0.0520215
0.0054347
0.0513969
0.00575214
0.0507353
0.00514432
0.0500151
0.00474554
0.0492013
0.00380984
0.0483429
0.00309889
0.0474894
0.00211734
0.0467626
0.00122782
0.0461851
0.000177166
0.0458014
-0.000440893
0.0454763
-0.00117189
0.0452301
-0.00161857
0.0452008
-0.0020497
0.0453853
-0.00244709
-0.00311226
0.0463779
0.0478621
0.00464694
-0.0483247
0.0473753
0.00564854
0.047382
0.00590554
0.0479994
0.00470754
0.0490982
0.00121006
0.0494757
-0.0013446
0.0493807
-0.00204186
0.0489133
-0.00179489
0.0483557
-0.00143448
0.0480834
-0.00134766
0.0483161
-0.00160058
0.0488409
-0.00254913
0.0494357
-0.00376843
0.0500329
-0.00474945
0.0505009
-0.00548551
0.0509402
-0.00618348
0.0513584
-0.00647541
0.0517551
-0.00627905
0.0521003
-0.0056984
0.0524173
-0.00458289
0.0526285
-0.00269788
0.0528631
-0.000603389
0.0527162
0.00150212
0.0526276
0.00318882
0.0523386
0.00490994
0.0519725
0.00580079
0.0514203
0.00630438
0.0508542
0.00571037
0.050357
0.00524271
0.0500525
0.00411443
0.0499639
0.00318748
0.0499598
0.00212137
0.0500844
0.00110326
0.0501798
8.17418e-05
0.0503868
-0.000647912
0.0506802
-0.00146526
0.0510201
-0.00195848
0.0513487
-0.0023783
0.0514387
-0.00253704
-0.00259339
0.0509198
0.0478679
0.00519685
-0.0484178
0.0475741
0.00594234
0.0477145
0.00576513
0.0486663
0.00375576
0.0495916
0.000284693
0.0497261
-0.00147904
0.0495326
-0.00184836
0.0491921
-0.00145438
0.0489928
-0.00123517
0.0489485
-0.00130338
0.0488857
-0.00153778
0.0487433
-0.00240673
0.0488452
-0.00387031
0.0491555
-0.00505975
0.049617
-0.00594705
0.0501707
-0.00673715
0.0507923
-0.00709699
0.051384
-0.00687078
0.0519794
-0.00629376
0.0525471
-0.00515069
0.0530184
-0.00316909
0.0531746
-0.000759641
0.0533963
0.00128044
0.0532686
0.00331647
0.0529917
0.0051869
0.0526094
0.00618313
0.0520794
0.00683431
0.0514673
0.00632253
0.0508544
0.00585553
0.0500936
0.00487522
0.0493057
0.00397543
0.0484306
0.0029965
0.0476113
0.00192249
0.0469461
0.000746947
0.0464761
-0.000177852
0.046147
-0.00113617
0.0459424
-0.00175395
0.0459614
-0.00239724
0.0461488
-0.00272444
-0.00347071
0.0470261
0.0479013
0.00572938
-0.0484338
0.0478143
0.00602934
0.0482414
0.005338
0.0493765
0.00262073
0.0499365
-0.000275291
0.0498823
-0.00142485
0.0496272
-0.0015933
0.0493621
-0.00118932
0.0491235
-0.000996504
0.0489156
-0.0010955
0.0489645
-0.0015867
0.049277
-0.00271919
0.049699
-0.00429239
0.0502153
-0.00557596
0.050682
-0.00641381
0.0511171
-0.00717226
0.0515551
-0.00753495
0.0519687
-0.00728436
0.052299
-0.00662406
0.0526094
-0.00546112
0.0528398
-0.00339954
0.0531629
-0.00108272
0.0530698
0.00137356
0.0530863
0.00329993
0.0529278
0.00534546
0.0526696
0.00644126
0.0522522
0.0072518
0.0517052
0.00686949
0.0511521
0.00640863
0.0506976
0.00532972
0.0504992
0.00417387
0.050486
0.00300964
0.0505297
0.00187884
0.050602
0.000674656
0.0505677
-0.000143589
0.0506953
-0.00126372
0.0508824
-0.00194106
0.0510383
-0.00255316
0.050995
-0.00268118
-0.00295105
0.0504754
0.0480352
0.00607041
-0.0483762
0.048141
0.00592353
0.0488942
0.00458483
0.0499308
0.00158406
0.0501757
-0.000520193
0.049963
-0.00121216
0.0497034
-0.00133365
0.0495055
-0.000991468
0.049334
-0.000824941
0.0493388
-0.00110036
0.0494996
-0.00174743
0.0495536
-0.00277321
0.0496593
-0.00439808
0.0499314
-0.00584802
0.0503346
-0.00681708
0.0507996
-0.00763724
0.0513186
-0.00805397
0.0518368
-0.00780252
0.0522957
-0.00708297
0.0527928
-0.00595824
0.0532533
-0.00386005
0.0534717
-0.00130113
0.0537156
0.00112974
0.0536743
0.00334118
0.0535129
0.00550691
0.053214
0.00674011
0.0527633
0.00770256
0.0522228
0.00740993
0.0517276
0.00690388
0.0510827
0.00597456
0.0503369
0.00491974
0.0495271
0.0038194
0.0486489
0.00275708
0.0478941
0.00142944
0.0473763
0.000374161
0.0469595
-0.000846853
0.0467691
-0.00175071
0.0467669
-0.00255096
0.0470205
-0.00293472
-0.00369588
0.0477653
0.0482679
0.00615523
-0.0483528
0.0485864
0.00560503
0.0496282
0.00354308
0.0503202
0.000892041
0.0502572
-0.000457161
0.0499701
-0.0009251
0.0497087
-0.00107219
0.0495795
-0.000862338
0.0495845
-0.000829897
0.0495971
-0.00111302
0.049665
-0.00181532
0.0499148
-0.00302297
0.0502235
-0.00470682
0.0506157
-0.0062402
0.0510201
-0.00722143
0.0514288
-0.00804599
0.0518427
-0.00846787
0.0522598
-0.00821963
0.0526114
-0.00743452
0.0529166
-0.00626344
0.0531676
-0.00411103
0.0535241
-0.00165768
0.0535303
0.00112358
0.0536226
0.00324887
0.0535721
0.00555744
0.0533965
0.00691569
0.0530722
0.00802682
0.0525984
0.00788373
0.0520815
0.00742079
0.0515633
0.00649273
0.05115
0.00533311
0.0510619
0.00390748
0.0510596
0.00275933
0.0510519
0.00143719
0.0509506
0.000475401
0.0508917
-0.000787892
0.0508456
-0.00170465
0.0508248
-0.00253011
0.0506693
-0.00277929
-0.00325134
0.0502248
0.0486072
0.00604557
-0.0484975
0.0492478
0.00496443
0.0502564
0.00253448
0.0505298
0.000618686
0.0503008
-0.00022822
0.0499769
-0.000601168
0.0497704
-0.000865654
0.0497707
-0.000862714
0.0498162
-0.000875379
0.0498381
-0.00113493
0.0500396
-0.00201677
0.0502985
-0.00328188
0.0504926
-0.00490089
0.0507275
-0.00647514
0.0510512
-0.00754509
0.0514389
-0.00843373
0.0518631
-0.00889204
0.052305
-0.00866153
0.0527004
-0.00783
0.0530921
-0.00665509
0.0535408
-0.00455972
0.053795
-0.00191193
0.0540767
0.000841939
0.0541476
0.00317791
0.0540718
0.00563325
0.0538806
0.00710691
0.0536068
0.00830064
0.0531365
0.00835397
0.0526455
0.00791184
0.0521216
0.00701661
0.0514643
0.00599043
0.0506811
0.00469065
0.0498576
0.00358287
0.0490568
0.00223799
0.0484852
0.00104697
0.0479826
-0.000285254
0.0477253
-0.00144735
0.0476802
-0.00248509
0.0479395
-0.0030385
-0.00382894
0.0485171
0.0491214
0.00573634
-0.0488122
0.0500063
0.00407952
0.0506599
0.00188091
0.0505909
0.000687676
0.0502645
9.81702e-05
0.0499636
-0.000300253
0.0497875
-0.000689579
0.0497998
-0.000875031
0.0499561
-0.00103167
0.0501676
-0.00134643
0.0503847
-0.00223388
0.0506396
-0.00353679
0.0508599
-0.00512116
0.0511578
-0.00677307
0.051518
-0.00790527
0.0518737
-0.00878936
0.0522481
-0.00926648
0.0526352
-0.0090486
0.0529802
-0.00817507
0.0532845
-0.00695934
0.0535276
-0.00480283
0.0539248
-0.0023091
0.0540516
0.000715102
0.0542072
0.00302229
0.0542687
0.00557181
0.0541622
0.00721334
0.053936
0.00852685
0.053566
0.00872397
0.0531179
0.00835999
0.0526396
0.00749493
0.0521153
0.00651465
0.0518089
0.0049971
0.0516607
0.00373103
0.0515771
0.00232156
0.051488
0.00113611
0.0512572
-5.44316e-05
0.0509976
-0.00118774
0.0507533
-0.0022408
0.0505303
-0.00281554
-0.00350138
0.0502028
0.0498115
0.00521327
-0.0492884
0.0506197
0.00327128
0.0508356
0.00166503
0.0506217
0.0009016
0.0502896
0.000430193
0.0500126
-2.31853e-05
0.0498612
-0.000538159
0.0499502
-0.000964107
0.0502002
-0.00128165
0.0504739
-0.00162007
0.0507782
-0.00253821
0.0510916
-0.00385017
0.0513152
-0.0053448
0.0515261
-0.00698398
0.0517637
-0.00814286
0.0520856
-0.0091113
0.0524204
-0.0096012
0.052801
-0.00942927
0.0531458
-0.00851989
0.053444
-0.00725745
0.0538374
-0.00519631
0.0541953
-0.002667
0.0544977
0.000412758
0.0546732
0.00284679
0.0547099
0.00553511
0.0546804
0.00724286
0.0545308
0.00867643
0.054188
0.00906677
0.0537176
0.00883032
0.0532433
0.00796926
0.0526857
0.00707222
0.0520147
0.00566812
0.0512176
0.00452814
0.0504251
0.00311406
0.0497033
0.00185799
0.0492303
0.000418495
0.0488754
-0.000832855
0.0487392
-0.00210454
0.048861
-0.0029374
-0.00387523
0.0492349
0.0505373
0.00456386
-0.0498879
0.0510493
0.00275932
0.0509525
0.00176179
0.050672
0.00118206
0.050355
0.000747258
0.0501337
0.000198046
0.0500575
-0.000461927
0.05014
-0.00104658
0.0504055
-0.00154716
0.0507899
-0.00200446
0.0511674
-0.00291579
0.0514691
-0.00415179
0.0516879
-0.00556358
0.0519191
-0.00721522
0.0521947
-0.00841848
0.0524604
-0.00937696
0.0527289
-0.00986974
0.0530749
-0.00977522
0.0533972
-0.00884222
0.0536749
-0.00753516
0.0539397
-0.00546114
0.0543489
-0.00307617
0.0546397
0.000121982
0.0548343
0.00265213
0.0549935
0.00537589
0.0550673
0.00716912
0.0549896
0.00875411
0.0547214
0.00933499
0.0542837
0.00926799
0.0538374
0.00841557
0.0533377
0.00757192
0.0528477
0.00615816
0.0525379
0.00483787
0.0523372
0.00331484
0.0521408
0.00205432
0.0518627
0.000696666
0.0514912
-0.000461451
0.0510867
-0.00170001
0.0506558
-0.00250653
-0.00360085
0.0503815
0.0510486
0.00405204
-0.0505368
0.0511706
0.00263735
0.050939
0.0019934
0.0506426
0.00147847
0.0503816
0.00100826
0.0502043
0.000375338
0.050189
-0.000446619
0.0503236
-0.00118115
0.0506599
-0.00188349
0.0510943
-0.00243886
0.0514774
-0.00329892
0.0518641
-0.00453851
0.0521599
-0.00585932
0.05237
-0.00742529
0.0526169
-0.00866541
0.0528563
-0.00961635
0.0530762
-0.0100897
0.0533671
-0.0100661
0.053711
-0.00918606
0.0539995
-0.00782372
0.0542914
-0.00575303
0.0546851
-0.0034698
0.0550447
-0.000237695
0.055288
0.00240889
0.0554888
0.00517508
0.0556119
0.00704603
0.0555958
0.00877017
0.0554173
0.00951358
0.0549946
0.00969068
0.0545266
0.00888353
0.0539995
0.00809898
0.0534302
0.00672748
0.0527256
0.00554252
0.0519801
0.00406034
0.0512191
0.00281528
0.0506229
0.00129283
0.0502325
-7.09936e-05
0.0500861
-0.00155369
0.0499907
-0.00241108
-0.00366138
0.0500512
0.0512989
0.00386839
-0.0511153
0.0511375
0.00279873
0.0508767
0.00225423
0.0506097
0.0017455
0.050398
0.00121992
0.0502835
0.000489866
0.0503294
-0.000492472
0.050569
-0.00142077
0.0508843
-0.00219884
0.0513488
-0.00290338
0.0518149
-0.003765
0.0522789
-0.00500248
0.0526407
-0.00622114
0.0528155
-0.00760008
0.0530354
-0.00888528
0.0532686
-0.0098496
0.0534869
-0.010308
0.0537425
-0.0103217
0.0540308
-0.00947437
0.0543345
-0.00812742
0.0545665
-0.00598506
0.0548943
-0.00379753
0.0553188
-0.000662187
0.05563
0.00209766
0.0558816
0.00492349
0.0560701
0.00685748
0.0561615
0.00867877
0.0560823
0.00959276
0.055736
0.010037
0.0552427
0.00937679
0.0547412
0.00860048
0.0542119
0.00725686
0.0536822
0.00607218
0.0533234
0.00441917
0.0530336
0.00310508
0.0527234
0.00160297
0.0522028
0.000449669
0.0517435
-0.00109439
0.0512757
-0.00194328
-0.00336107
0.0509754
0.0512856
0.00391398
-0.0513312
0.0510394
0.00304489
0.0507995
0.00249411
0.0506004
0.00194462
0.0504775
0.00134282
0.0504437
0.000523673
0.0505483
-0.000597058
0.0507769
-0.00164941
0.0510832
-0.00250507
0.0516111
-0.00343136
0.0521317
-0.00428555
0.0526198
-0.00549058
0.0530535
-0.00665483
0.0533575
-0.00790413
0.0535583
-0.009086
0.0537992
-0.0100905
0.0539508
-0.0104596
0.0541384
-0.0105093
0.0543607
-0.00969667
0.0546775
-0.00844422
0.0549171
-0.00622468
0.0552508
-0.00413124
0.0556596
-0.00107098
0.0560885
0.00166874
0.0563886
0.00462338
0.0566308
0.00661528
0.0567679
0.00854165
0.0568059
0.00955481
0.0565824
0.0102606
0.0561194
0.00983971
0.0555641
0.00915576
0.0550313
0.00778969
0.0544282
0.00667527
0.0537239
0.00512349
0.0529649
0.00386409
0.0523502
0.00221773
0.0518189
0.000980884
0.0515002
-0.000775681
0.0512604
-0.00170342
-0.00319526
0.0510946
0.0513539
0.00411143
-0.0515513
0.0510619
0.00333681
0.050849
0.00270708
0.0507114
0.00208221
0.0506595
0.00139473
0.050674
0.00050914
0.0508058
-0.000728801
0.0510145
-0.00185815
0.0513392
-0.00282974
0.051835
-0.00392716
0.052397
-0.00484759
0.0529481
-0.00604164
0.0534618
-0.00716852
0.053868
-0.00831035
0.0540985
-0.00931648
0.0543247
-0.0103167
0.0545117
-0.0106466
0.0546552
-0.0106528
0.0547809
-0.00982238
0.0550552
-0.00871854
0.0553038
-0.00647333
0.0555802
-0.00440764
0.0559973
-0.001488
0.0564718
0.00119418
0.0569045
0.00419074
0.0571913
0.00632847
0.057409
0.00832394
0.0575441
0.00941974
0.0574416
0.010363
0.0570802
0.0102011
0.0565218
0.00971411
0.055933
0.00837852
0.0553737
0.00723457
0.0548523
0.00564491
0.0543515
0.00436485
0.0539006
0.00266867
0.0533613
0.00152019
0.0528123
-0.000226661
0.0522767
-0.00116787
-0.00286868
0.0519501
0.0512954
0.00429383
-0.0514778
0.0510849
0.00354725
0.0509347
0.00285733
0.0508575
0.00215937
0.0508758
0.00137649
0.0509489
0.000436002
0.051067
-0.000846869
0.0512925
-0.0020837
0.0516182
-0.0031554
0.052071
-0.00438
0.0526618
-0.00543837
0.0532506
-0.0066304
0.0537799
-0.00769781
0.0543057
-0.00883619
0.0546596
-0.00967037
0.0549104
-0.0105675
0.0551098
-0.010846
0.0552631
-0.0108061
0.0553425
-0.00990177
0.0555254
-0.00890148
0.0557686
-0.00671651
0.0560324
-0.00467147
0.0564192
-0.00187484
0.056917
0.000696474
0.0574432
0.00366451
0.0578428
0.00592884
0.05812
0.00804678
0.0582966
0.00924309
0.0583423
0.0103174
0.0581584
0.0103849
0.0576764
0.0101962
0.0570436
0.00901132
0.0564267
0.00785139
0.055869
0.00620263
0.0551717
0.00506222
0.0545322
0.00330812
0.0538508
0.00220164
0.0533
0.000324083
0.0527618
-0.00062964
-0.00251134
0.0524044
0.0515556
0.00448693
-0.0517487
0.0513902
0.00371264
0.0512417
0.00300583
0.0511546
0.00224648
0.0512009
0.00133016
0.0512709
0.000365961
0.0513937
-0.000969631
0.0516408
-0.00233074
0.0519539
-0.0034685
0.0523471
-0.00477327
0.0528931
-0.00598438
0.053513
-0.00725025
0.0540973
-0.00828213
0.0546901
-0.00942898
0.055175
-0.0101553
0.0555106
-0.0109031
0.0557198
-0.0110552
0.0559296
-0.0110158
0.0560009
-0.0099731
0.056099
-0.00899957
0.0563229
-0.00694041
0.0565699
-0.00491847
0.056922
-0.00222697
0.0574103
0.000208183
0.057968
0.00310685
0.0584917
0.00540509
0.0588856
0.0076529
0.059134
0.00899466
0.0592569
0.0101945
0.0592155
0.0104264
0.0589263
0.0104854
0.0583868
0.00955077
0.0576468
0.00859143
0.0569421
0.00690734
0.0563599
0.00564441
0.0558501
0.00381788
0.0552809
0.00277092
0.0546729
0.000932014
0.0539918
5.15444e-05
-0.00196665
0.0534471
0.0515623
0.00461323
-0.0516886
0.0514722
0.00380281
0.0514218
0.0030562
0.0514362
0.0022321
0.0514773
0.00128905
0.0516241
0.000219178
0.0517911
-0.00113669
0.0520301
-0.00256967
0.0523495
-0.00378795
0.0526957
-0.00511949
0.0531554
-0.0064441
0.0537639
-0.00785868
0.05439
-0.00890824
0.0550026
-0.0100416
0.0555492
-0.0107019
0.0560422
-0.0113961
0.0562859
-0.0112989
0.0565299
-0.0112599
0.0567068
-0.01015
0.0567704
-0.00906318
0.0569599
-0.00712994
0.057224
-0.00518251
0.0575188
-0.00252175
0.0579949
-0.00026791
0.0585875
0.00251418
0.059175
0.00481759
0.0596832
0.00714472
0.0600705
0.00860734
0.0602903
0.00997478
0.0603262
0.0103904
0.0601773
0.0106343
0.0598058
0.00992218
0.0591963
0.00920099
0.0584697
0.00763395
0.0576639
0.00645017
0.0569996
0.00448221
0.0563632
0.00340727
0.0557495
0.00154577
0.0551594
0.000641609
-0.00135116
0.0545439
0.0520506
0.00471489
-0.0521522
0.0520056
0.00384775
0.0519715
0.00309034
0.0520056
0.00219802
0.0520309
0.00126375
0.0521671
8.29946e-05
0.0523036
-0.00127325
0.0525059
-0.00277194
0.0528089
-0.00409096
0.0531743
-0.00548484
0.0535418
-0.00681165
0.0540485
-0.00836531
0.0546265
-0.00948633
0.0552721
-0.0106872
0.0557758
-0.0112056
0.0563023
-0.0119226
0.0567149
-0.0117114
0.0570066
-0.0115516
0.0572633
-0.0104067
0.0574735
-0.00927334
0.0576313
-0.00728775
0.0579243
-0.0054755
0.0582835
-0.00288097
0.0586946
-0.000679011
0.059275
0.00193377
0.0599621
0.00413053
0.0605667
0.00654013
0.0610471
0.00812684
0.061403
0.00961894
0.0616025
0.0101909
0.0615615
0.0106754
0.0612982
0.0101855
0.060803
0.00969617
0.0601758
0.00826116
0.0593796
0.00724633
0.0585386
0.00532317
0.0577984
0.00414749
0.0571469
0.00219728
0.0564991
0.0012894
-0.00074537
0.0558933
0.0521912
0.0047514
-0.0522277
0.0521938
0.00384518
0.0522215
0.0030627
0.0523467
0.00207279
0.0524656
0.00114486
0.0526238
-7.52734e-05
0.0527816
-0.00143105
0.0530367
-0.00302695
0.0533369
-0.00439125
0.0537436
-0.00589149
0.0540903
-0.00715841
0.0545035
-0.00877847
0.0549103
-0.00989313
0.0554716
-0.0112485
0.0559523
-0.0116862
0.0564234
-0.0123937
0.0568739
-0.012162
0.0572685
-0.0119462
0.0576149
-0.0107531
0.0579566
-0.00961506
0.0582838
-0.00761491
0.0586255
-0.00581723
0.0590517
-0.00330714
0.059564
-0.00119133
0.0601409
0.00135684
0.060816
0.00345551
0.0615411
0.00581502
0.0621911
0.00747684
0.0626333
0.00917676
0.0629406
0.00988351
0.0630815
0.0105345
0.0630186
0.0102484
0.0626664
0.0100484
0.0620924
0.00883513
0.0613542
0.00798451
0.0604902
0.00618722
0.0596118
0.00502591
0.0588395
0.00296956
0.0580381
0.00209075
-7.05924e-06
0.0572998
0.0528896
0.00480234
-0.0529406
0.0529224
0.00381244
0.0530102
0.00297491
0.0531533
0.00192966
0.0533421
0.000956022
0.0535029
-0.000236038
0.053581
-0.00150912
0.0538552
-0.00330119
0.0541009
-0.00463698
0.0544607
-0.00625126
0.0547664
-0.00746415
0.055174
-0.009186
0.0554629
-0.0101821
0.0558381
-0.0116237
0.0562138
-0.012062
0.0565916
-0.0127715
0.0569409
-0.0125113
0.0573231
-0.0123284
0.057705
-0.011135
0.0581245
-0.0100345
0.0586079
-0.00809829
0.0591688
-0.0063781
0.0597712
-0.00390959
0.0604329
-0.00185296
0.0611455
0.000644193
0.0618931
0.00270795
0.0626295
0.00507859
0.0633896
0.00671672
0.0640482
0.00851821
0.0645031
0.00942857
0.0646991
0.0103384
0.0647531
0.0101944
0.0645886
0.0102129
0.0642298
0.009194
0.0636601
0.00855417
0.0628902
0.00695714
0.0618927
0.00602337
0.0609637
0.00389856
0.0600098
0.00304474
0.000904613
0.0590981
0.0531903
0.00473579
-0.0531238
0.0533076
0.0036952
0.0534403
0.00284216
0.0535952
0.00177478
0.0538142
0.000737035
0.0541503
-0.000572103
0.0543388
-0.00169771
0.0545959
-0.00355829
0.0548718
-0.00491283
0.0552716
-0.00665104
0.0555493
-0.00774184
0.0559096
-0.00954636
0.0562151
-0.0104876
0.056504
-0.0119126
0.0567492
-0.0123071
0.0569875
-0.0130098
0.0571912
-0.012715
0.0574073
-0.0125445
0.0577073
-0.011435
0.0581147
-0.0104419
0.0586267
-0.00861032
0.0593012
-0.00705255
0.060158
-0.00476644
0.0610695
-0.0027644
0.0620166
-0.000302916
0.0630315
0.00169299
0.0639827
0.00412745
0.0648201
0.00587924
0.0655479
0.0077905
0.066202
0.00877438
0.0666658
0.00987463
0.0668866
0.00997361
0.0668305
0.010269
0.0665673
0.00945722
0.0660658
0.00905568
0.0655347
0.00748826
0.0647353
0.00682278
0.0638263
0.00480759
0.062741
0.00412995
0.00203649
0.0616092
0.0542991
0.00466575
-0.054229
0.0544021
0.00359213
0.0545375
0.00270682
0.0547502
0.00156209
0.0549351
0.000552062
0.0553354
-0.000972397
0.0556388
-0.00200105
0.0558987
-0.00381824
0.0561024
-0.00511653
0.0564437
-0.0069923
0.0567247
-0.00802286
0.0570001
-0.0098217
0.0572289
-0.0107164
0.0574331
-0.0121168
0.0576199
-0.012494
0.0577229
-0.0131128
0.0577987
-0.0127909
0.0578866
-0.0126324
0.0579909
-0.0115393
0.0582319
-0.0106829
0.0586584
-0.00903686
0.0592496
-0.00764367
0.0600888
-0.0056057
0.0612366
-0.00391213
0.0625153
-0.00158164
0.0638666
0.000341712
0.0652214
0.00277257
0.0664865
0.00461414
0.0674616
0.00681547
0.0682151
0.00802087
0.0687636
0.00932609
0.0692218
0.00951543
0.0694056
0.0100852
0.0693786
0.00948424
0.068981
0.00945326
0.0684747
0.00799462
0.0678019
0.00749558
0.0670142
0.0055953
0.0661358
0.00500834
0.00316054
0.0650117
0.0546812
0.004499
-0.0545144
0.0549224
0.00335089
0.0551217
0.00250754
0.0554461
0.00123773
0.0557257
0.000272448
0.0561026
-0.0013493
0.0564841
-0.00238262
0.0568568
-0.00419087
0.057168
-0.00542774
0.0575639
-0.00738824
0.057929
-0.00838791
0.0581877
-0.0100805
0.0584178
-0.0109464
0.0585444
-0.0122434
0.0586458
-0.0125954
0.0586909
-0.0131579
0.0586989
-0.0127988
0.0586834
-0.0126169
0.0587364
-0.0115923
0.058825
-0.0107715
0.0590416
-0.00925343
0.0594779
-0.00807996
0.060175
-0.00630282
0.0611815
-0.0049186
0.0624963
-0.0028965
0.0641256
-0.00128762
0.0658372
0.00106099
0.0676318
0.00281958
0.0692734
0.00517387
0.0706174
0.00667689
0.0714584
0.00848506
0.0720058
0.00896807
0.0722662
0.0098247
0.072425
0.00932546
0.0723552
0.00952305
0.0719774
0.00837244
0.0714313
0.0080417
0.0706358
0.00639078
0.069893
0.00575111
0.00422561
0.0688279
0.0563259
0.00433533
-0.0561622
0.0565698
0.00310695
0.0568205
0.00225689
0.0571151
0.000943095
0.0574663
-7.87004e-05
0.0577974
-0.00168047
0.0582011
-0.00278626
0.0585847
-0.00457453
0.0589505
-0.00579355
0.0592746
-0.00771229
0.0596265
-0.00873982
0.0597993
-0.0102532
0.0599235
-0.0110707
0.0599651
-0.0122849
0.0599688
-0.0125992
0.0599196
-0.0131087
0.0598102
-0.0126894
0.0597328
-0.0125395
0.0596691
-0.0115286
0.0597391
-0.0108415
0.0598853
-0.00939961
0.0602529
-0.00844756
0.0607629
-0.00681288
0.0616504
-0.00580612
0.0627335
-0.00397955
0.0642209
-0.00277501
0.0659693
-0.000687459
0.0680575
0.000731422
0.0701572
0.00307412
0.0723079
0.00452618
0.0740842
0.0067088
0.0754723
0.00757999
0.0762422
0.0090548
0.0765499
0.00901776
0.0765423
0.00953069
0.0762609
0.00865383
0.0758335
0.0084691
0.0750279
0.00719634
0.0742353
0.0065437
0.0052377
0.0732232
0.0569589
0.00399723
-0.0566208
0.0573429
0.00272296
0.0577757
0.00182408
0.0581667
0.000552083
0.0585989
-0.000510914
0.0590416
-0.00212311
0.0595622
-0.00330685
0.0599863
-0.00499864
0.0604237
-0.00623094
0.0606749
-0.00796356
0.0610124
-0.00907731
0.0612385
-0.0104793
0.0613065
-0.0111387
0.0612861
-0.0122646
0.0611914
-0.0125045
0.0611001
-0.0130174
0.060926
-0.0125153
0.0607825
-0.012396
0.0605962
-0.0113423
0.0606033
-0.0108486
0.0606662
-0.00946256
0.0610577
-0.00883905
0.0616123
-0.00736751
0.0624593
-0.00665311
0.0635633
-0.00508354
0.0650103
-0.00422199
0.0666521
-0.00232929
0.0685702
-0.00118664
0.0707154
0.000928888
0.0730048
0.00223678
0.0753872
0.00432645
0.077544
0.00542312
0.0795204
0.00707846
0.0808531
0.00768508
0.081778
0.00860579
0.0819703
0.00846153
0.0819013
0.00853811
0.0812319
0.00786573
0.0804452
0.0073304
0.00653981
0.0791431
0.0594283
0.00375182
-0.0591829
0.0597231
0.00242815
0.0601021
0.00144505
0.0605241
0.000130134
0.0610232
-0.00101002
0.0614326
-0.00253249
0.0619598
-0.00383409
0.0624134
-0.00545228
0.0628661
-0.00668358
0.0631263
-0.00822379
0.0632883
-0.00923925
0.0633997
-0.0105907
0.0634045
-0.0111435
0.06325
-0.0121101
0.0629585
-0.0122129
0.0626797
-0.0127386
0.0623302
-0.0121659
0.0620352
-0.0121009
0.0617303
-0.0110373
0.0615731
-0.0106914
0.0615763
-0.00946574
0.0618173
-0.00908011
0.0623103
-0.0078605
0.0631754
-0.00751816
0.064364
-0.00627222
0.0658745
-0.00573244
0.0677848
-0.00423961
0.0699046
-0.00330641
0.0723143
-0.0014808
0.0747105
-0.000159441
0.0772967
0.0017402
0.0796267
0.00309311
0.0820389
0.00466633
0.0839967
0.00572722
0.0859402
0.00666233
0.0872039
0.00719782
0.0883154
0.00742664
0.0885554
0.00762574
0.0885667
0.00731901
0.00737446
0.0877321
0.0609879
0.00309251
-0.0603286
0.0615711
0.00184489
0.0621314
0.000884742
0.0626301
-0.00036854
0.0632074
-0.00158731
0.0637517
-0.00307676
0.0642794
-0.00436182
0.0647094
-0.00588224
0.0650719
-0.00704607
0.0652483
-0.00840022
0.065365
-0.00935593
0.0653052
-0.0105309
0.0652515
-0.0110898
0.0649408
-0.0117994
0.0646039
-0.0118761
0.0640743
-0.0122089
0.0636419
-0.0117335
0.0630876
-0.0115466
0.0627418
-0.0106916
0.0623956
-0.0103453
0.0623569
-0.00942702
0.062393
-0.00911625
0.0629293
-0.00839677
0.0635768
-0.00816567
0.0648146
-0.00750996
0.0662115
-0.00712933
0.0683136
-0.00634178
0.0705166
-0.00550938
0.0733998
-0.00436399
0.0762575
-0.00301713
0.07964
-0.00164227
0.0827522
-1.91363e-05
0.0859336
0.00148491
0.0885224