/*--------------------------------*- C++ -*----------------------------------*\
  =========                 |
  \\      /  F ield         | OpenFOAM: The Open Source CFD Toolbox
   \\    /   O peration     | Website:  https://openfoam.org
    \\  /    A nd           | Version:  11
     \\/     M anipulation  |
\*---------------------------------------------------------------------------*/
FoamFile
{
    format      ascii;
    class       volVectorField;
    location    "2";
    object      U;
}
// * * * * * * * * * * * * * * * * * * * * * * * * * * * * * * * * * * * * * //

dimensions      [0 1 -1 0 0 0 0];

internalField   nonuniform List<vector> 
9600
(
(0.980774 0.00229981 5.58555e-21)
(0.977829 0.0013697 0)
(0.977259 0.00576549 0)
(0.960768 0.0142689 1.0133e-22)
(0.893687 0.0156255 0)
(0.839184 0.00605291 -1.05019e-22)
(0.826627 -0.00326106 -3.38268e-21)
(0.831343 -0.0103627 3.37983e-21)
(0.854708 -0.0240132 -3.53524e-21)
(0.887997 -0.0409321 3.57158e-21)
(0.915623 -0.0529762 0)
(0.939979 -0.059 -3.29937e-21)
(0.961803 -0.0596969 3.35892e-21)
(0.983609 -0.0590082 -4.33138e-23)
(1.00538 -0.0566075 1.06075e-21)
(1.02705 -0.053899 -1.04493e-21)
(1.05025 -0.0503867 0)
(1.07064 -0.0472419 7.47584e-23)
(1.09283 -0.0433114 -7.48262e-23)
(1.10862 -0.0394509 1.65701e-24)
(1.12245 -0.0369627 -2.38137e-24)
(1.12474 -0.0314219 -7.76284e-22)
(1.12116 -0.0294797 7.77685e-22)
(1.11218 -0.0277408 0)
(1.09528 -0.0256232 0)
(1.07478 -0.0228919 -1.20771e-21)
(1.0524 -0.0190131 2.2292e-22)
(1.03168 -0.0152652 1.02901e-21)
(1.01589 -0.00819993 -2.26139e-23)
(1.00243 -0.00367482 1.74071e-23)
(0.993904 0.00311346 0)
(0.987035 0.00673464 -5.4572e-22)
(0.982046 0.011411 5.32933e-22)
(0.977663 0.0140416 2.90037e-22)
(0.975324 0.0181976 -2.87787e-22)
(0.97343 0.0203208 -5.48994e-24)
(0.972745 0.0240926 0)
(0.974827 0.0285267 -2.67017e-22)
(0.974899 0.0301305 2.65934e-22)
(0.97063 0.0443104 -3.10657e-24)
(0.982728 0.00131213 2.7547e-22)
(0.979025 0.00125894 0)
(0.974243 0.00416831 0)
(0.963622 0.00607678 -3.14194e-22)
(0.935226 0.00528807 -6.85077e-21)
(0.918004 0.00156972 1.06244e-20)
(0.914937 -0.000880126 -3.38246e-21)
(0.920246 -0.00191155 -1.09763e-22)
(0.943335 0.00452342 -1.13047e-22)
(0.9671 0.0216268 0)
(0.980537 0.0390345 -1.12284e-22)
(0.988491 0.0496718 -3.33959e-21)
(0.998138 0.0522173 4.65436e-21)
(1.01161 0.0517732 -1.46385e-21)
(1.028 0.0494783 -1.83824e-23)
(1.04715 0.0462384 0)
(1.06614 0.0424787 -9.13104e-23)
(1.08538 0.0392967 1.05454e-22)
(1.1032 0.0365757 1.67606e-22)
(1.1186 0.0348922 -1.69389e-22)
(1.12826 0.0346337 -3.47138e-22)
(1.12829 0.0327041 3.28023e-22)
(1.12483 0.032559 0)
(1.11583 0.0329676 1.66693e-21)
(1.09752 0.0322689 -1.66813e-21)
(1.07742 0.0297803 -2.19163e-23)
(1.05585 0.0250761 1.05728e-21)
(1.03573 0.0195956 -1.05995e-21)
(1.01824 0.0109779 7.1973e-23)
(1.00098 0.00519279 9.95923e-22)
(0.991979 -0.0031703 -1.07688e-21)
(0.980942 -0.00754809 6.10731e-22)
(0.976428 -0.0120676 -5.97457e-22)
(0.970942 -0.0153187 1.30218e-23)
(0.970069 -0.0197324 -4.7402e-22)
(0.966078 -0.0226936 4.57564e-22)
(0.965791 -0.0277997 0)
(0.963923 -0.0325465 -1.98018e-22)
(0.967259 -0.0355094 2.00492e-22)
(0.967835 -0.0432632 9.60301e-24)
(0.981756 0.0024657 5.86698e-21)
(0.977797 0.00334225 -1.97285e-22)
(0.976744 0.0076414 0)
(0.971157 0.0167244 2.14711e-22)
(0.951252 0.0201242 0)
(0.925544 0.0102095 -3.72824e-21)
(0.916761 -0.00297088 -8.44983e-23)
(0.923229 -0.0124446 3.74824e-21)
(0.934749 -0.0233216 1.16313e-22)
(0.946775 -0.0361083 0)
(0.961184 -0.0483703 3.4259e-22)
(0.976951 -0.0575592 -3.39938e-21)
(0.992845 -0.0617641 3.51181e-21)
(1.01021 -0.0630306 1.31744e-22)
(1.02932 -0.061451 -7.11284e-23)
(1.04902 -0.0590132 2.53124e-23)
(1.06975 -0.0553415 -1.31854e-22)
(1.09005 -0.0518654 2.24877e-22)
(1.10868 -0.0476862 -1.01394e-22)
(1.12558 -0.0418414 3.5533e-24)
(1.13605 -0.0377881 -5.04556e-24)
(1.1418 -0.0301077 -8.02536e-22)
(1.14012 -0.0252761 8.12108e-22)
(1.13221 -0.0207883 1.70219e-21)
(1.11555 -0.0156213 -1.70203e-21)
(1.09589 -0.0110732 0)
(1.07499 -0.00694936 3.87334e-23)
(1.05519 -0.00336877 -1.28034e-22)
(1.03884 0.00275924 -4.99842e-23)
(1.02398 0.0054237 1.20304e-22)
(1.01604 0.0103467 9.32952e-23)
(1.00685 0.0120923 -7.39961e-22)
(1.00245 0.0159864 1.53625e-22)
(0.998944 0.0166072 5.17431e-22)
(0.994578 0.0213526 1.98232e-23)
(0.991489 0.0235077 0)
(0.990162 0.0282022 1.12308e-23)
(0.987465 0.0305674 -3.33613e-22)
(0.988692 0.0330216 3.30923e-22)
(0.986253 0.0387837 -6.51772e-24)
(0.982998 0.00376407 3.89796e-22)
(0.981698 0.00485537 -2.06477e-22)
(0.981883 0.0109704 0)
(0.97488 0.018776 0)
(0.965218 0.0167657 -6.69543e-21)
(0.957437 0.00190349 6.96466e-21)
(0.95827 -0.0104259 3.43437e-21)
(0.968632 -0.0164215 -3.43927e-21)
(0.987626 -0.0117197 3.74194e-21)
(0.999568 0.00455326 -3.52886e-21)
(1.00356 0.0239892 -2.33156e-22)
(1.00694 0.0373245 -1.08439e-22)
(1.0107 0.040626 -1.0121e-22)
(1.01729 0.0399516 -8.91459e-23)
(1.0314 0.0372172 1.07674e-21)
(1.0499 0.0333054 -3.43894e-22)
(1.06769 0.0293516 -6.58946e-22)
(1.08868 0.0263036 7.56734e-23)
(1.10397 0.0249637 7.47838e-24)
(1.12062 0.0253862 -7.34602e-24)
(1.13163 0.0294398 3.85926e-22)
(1.13178 0.0310456 -1.24745e-21)
(1.12837 0.0330957 9.23741e-22)
(1.12036 0.0352015 1.15191e-22)
(1.10448 0.0354005 0)
(1.0862 0.0333172 0)
(1.06638 0.0282462 1.21658e-21)
(1.04633 0.0221481 -1.28528e-21)
(1.03065 0.0138739 1.55937e-21)
(1.01206 0.00781155 -1.63675e-21)
(1.00042 -0.000304266 -6.46434e-23)
(0.988524 -0.00611405 4.96026e-23)
(0.980377 -0.0112324 -4.19692e-23)
(0.973991 -0.0142886 3.8283e-22)
(0.971512 -0.0190042 -9.36421e-22)
(0.97087 -0.0239316 9.37906e-22)
(0.969854 -0.0287178 -3.67254e-22)
(0.96779 -0.0322943 2.10674e-23)
(0.969216 -0.0366658 -2.73004e-23)
(0.97559 -0.0384469 1.66828e-23)
(0.984252 0.00472529 6.00661e-21)
(0.984054 0.00625454 -6.99317e-24)
(0.983897 0.0137545 0)
(0.98228 0.0186908 0)
(0.981536 0.016436 -4.53221e-22)
(0.978481 0.00234519 6.8477e-22)
(0.971694 -0.00954259 -3.56928e-21)
(0.965003 -0.0145899 7.47495e-21)
(0.96164 -0.0181667 -3.91178e-21)
(0.962527 -0.0246553 -2.43432e-22)
(0.971334 -0.0372694 0)
(0.985116 -0.0508961 -6.97943e-21)
(0.999447 -0.058448 7.00738e-21)
(1.01608 -0.0623893 -1.49662e-21)
(1.03404 -0.0626517 1.2523e-21)
(1.0524 -0.0606262 -9.95055e-23)
(1.07219 -0.0572753 -1.26575e-22)
(1.09211 -0.0528963 2.30784e-22)
(1.10889 -0.0486043 -1.27697e-22)
(1.12545 -0.0414437 3.79842e-24)
(1.13514 -0.0364841 3.64421e-22)
(1.14028 -0.0278217 -1.224e-21)
(1.14086 -0.0202585 7.99585e-22)
(1.13346 -0.0130947 -1.18093e-22)
(1.11833 -0.00499273 -1.13937e-22)
(1.0987 0.0014472 -1.50689e-21)
(1.07886 0.00626836 1.32491e-21)
(1.05778 0.00839403 -5.28524e-24)
(1.04206 0.0126896 1.19774e-22)
(1.02688 0.012943 0)
(1.01771 0.0169945 7.46859e-23)
(1.00857 0.0174181 0)
(1.00418 0.0204754 1.33057e-22)
(0.999842 0.0197222 0)
(0.996246 0.0234184 0)
(0.993707 0.0250487 6.61685e-22)
(0.988303 0.0285025 -6.84851e-22)
(0.986273 0.0308695 -4.54214e-22)
(0.985776 0.0331608 4.23643e-22)
(0.983534 0.0336022 -1.70219e-23)
(0.985042 0.00543486 0)
(0.985498 0.00793869 -5.77538e-24)
(0.987356 0.0162441 0)
(0.987999 0.0189618 0)
(0.986823 0.0144083 -7.40893e-21)
(0.982361 -0.00357947 3.26332e-21)
(0.981627 -0.0160469 7.76108e-21)
(0.986578 -0.0212201 -3.92096e-21)
(0.997585 -0.0199611 0)
(1.01617 -0.00839143 0)
(1.02176 0.00781113 0)
(1.02285 0.0216615 -2.89471e-21)
(1.02514 0.0257078 3.14939e-21)
(1.029 0.0251557 1.4133e-21)
(1.03746 0.0224249 -1.37936e-21)
(1.05396 0.0178067 -4.83435e-22)
(1.0706 0.0137384 5.0882e-22)
(1.0904 0.0111664 4.98049e-23)
(1.10704 0.0114428 2.09807e-22)
(1.12167 0.0132524 -2.09985e-22)
(1.13499 0.0211114 -1.12604e-23)
(1.1378 0.0281995 -5.45975e-23)
(1.13359 0.0321821 1.21276e-22)
(1.12517 0.0359594 0)
(1.11048 0.0374525 1.16885e-22)
(1.09274 0.0364151 1.60303e-21)
(1.07479 0.0324259 -1.22755e-21)
(1.05492 0.0273508 -2.09324e-21)
(1.03939 0.020827 3.91308e-21)
(1.02209 0.0143292 -1.68965e-21)
(1.00816 0.0059291 -1.31302e-21)
(0.995838 -0.00130386 9.4006e-22)
(0.985727 -0.00893798 -9.22811e-23)
(0.977847 -0.0121385 -4.54061e-22)
(0.974798 -0.0168429 -2.33536e-22)
(0.973477 -0.0222399 6.32758e-22)
(0.972924 -0.0269237 0)
(0.971466 -0.0303563 -3.18634e-22)
(0.974038 -0.0344051 -3.36588e-23)
(0.979074 -0.0334381 3.36993e-22)
(0.986257 0.00640206 7.77071e-21)
(0.987611 0.0101277 -4.3873e-24)
(0.991611 0.0173323 0)
(0.992669 0.0178419 0)
(0.99207 0.00987921 7.1918e-21)
(0.991151 -0.00817832 -7.3198e-21)
(0.99039 -0.0159274 4.03608e-21)
(0.989777 -0.0172409 5.42409e-22)
(0.986653 -0.0159616 -4.06599e-21)
(0.981181 -0.0176698 4.02977e-21)
(0.981825 -0.0254999 -3.55602e-21)
(0.991598 -0.041741 -3.79805e-21)
(1.00462 -0.0524825 4.00636e-21)
(1.02081 -0.0585173 0)
(1.03867 -0.0610848 1.12629e-21)
(1.05663 -0.0604931 -1.66142e-21)
(1.07561 -0.0577923 5.17027e-22)
(1.09417 -0.0527816 2.40101e-22)
(1.11089 -0.0480996 5.2806e-23)
(1.12763 -0.0399843 -2.06371e-22)
(1.136 -0.0336075 -3.83313e-22)
(1.14021 -0.0255663 -5.33076e-22)
(1.143 -0.0148762 8.01331e-22)
(1.1361 -0.00498104 2.01967e-21)
(1.12208 0.00546856 -2.01425e-21)
(1.10288 0.0131726 -1.68466e-21)
(1.08357 0.0184668 1.6856e-21)
(1.06262 0.0183317 1.68153e-22)
(1.04595 0.0209336 0)
(1.03119 0.0197539 1.70611e-21)
(1.01991 0.0228546 -1.41326e-21)
(1.01107 0.0225215 -9.28738e-22)
(1.00592 0.0256039 1.05465e-21)
(1.00089 0.0231945 7.84836e-22)
(0.99743 0.0252649 -6.26101e-22)
(0.993992 0.0253742 -4.18647e-24)
(0.988901 0.0279949 0)
(0.986044 0.030259 -4.44652e-22)
(0.984069 0.0309302 1.68406e-22)
(0.981021 0.0286254 3.06605e-22)
(0.987714 0.00717097 6.27138e-21)
(0.990451 0.0118999 -4.74285e-22)
(0.995017 0.0171847 7.75246e-21)
(0.995456 0.0161444 -7.74094e-21)
(0.994727 0.0040301 4.92564e-22)
(0.995547 -0.0127872 -5.05954e-22)
(0.997004 -0.0197856 0)
(0.998702 -0.0213747 3.15201e-21)
(1.00215 -0.0207409 -4.20721e-21)
(1.01284 -0.0151116 0)
(1.02452 -0.00532727 2.79096e-21)
(1.03028 0.0045526 -3.35063e-21)
(1.03375 0.00826028 -3.64993e-24)
(1.03896 0.00817933 0)
(1.0477 0.00582228 9.05195e-22)
(1.06038 0.00113559 -8.11429e-22)
(1.07589 -0.00235414 -2.15367e-23)
(1.09299 -0.00445957 2.46073e-22)
(1.11042 -0.00266931 -9.97456e-24)
(1.12503 0.000370068 -2.53979e-22)
(1.13787 0.0107355 0)
(1.14309 0.0237897 -9.01774e-22)
(1.13918 0.0301079 8.85737e-22)
(1.1316 0.0357518 0)
(1.11871 0.0393733 2.6417e-22)
(1.1005 0.0398775 0)
(1.08289 0.0381138 1.12616e-21)
(1.06288 0.0341238 -4.2871e-21)
(1.04623 0.0296117 2.86326e-21)
(1.0301 0.0231532 -4.694e-22)
(1.0154 0.014728 -1.08368e-21)
(1.00261 0.00675122 2.37714e-21)
(0.991362 -0.00322244 -1.07208e-21)
(0.982157 -0.00852614 5.58886e-22)
(0.978055 -0.0131142 -1.40295e-21)
(0.976346 -0.0181909 9.09272e-22)
(0.975883 -0.0232344 0)
(0.975337 -0.0268265 -4.56227e-22)
(0.978407 -0.0290216 -1.0145e-24)
(0.980824 -0.0274359 4.30518e-22)
(0.989097 0.007653 0)
(0.99369 0.0132978 9.66134e-22)
(0.997464 0.0164407 0)
(0.997445 0.0131137 1.00187e-21)
(0.997114 -0.00311649 7.22457e-21)
(0.998947 -0.0173409 -4.15952e-21)
(1.00187 -0.0209444 -4.22086e-21)
(1.00472 -0.0192947 5.38554e-22)
(1.00457 -0.0152241 0)
(1.00154 -0.0149581 0)
(0.998814 -0.0199497 4.46423e-21)
(1.00207 -0.0335354 -4.47739e-21)
(1.01112 -0.0463825 -6.36573e-22)
(1.02499 -0.0541746 -1.79943e-22)
(1.04301 -0.0585879 9.53453e-22)
(1.06044 -0.0595659 -8.66842e-22)
(1.07904 -0.0580473 -2.42256e-23)
(1.09757 -0.052763 2.53323e-22)
(1.11357 -0.0479766 1.13235e-23)
(1.13039 -0.0391213 -2.41575e-22)
(1.13946 -0.0297419 -2.60862e-23)
(1.14272 -0.0227691 -1.08077e-21)
(1.14579 -0.00990095 1.15361e-21)
(1.14003 0.00250988 1.43583e-22)
(1.12725 0.015301 -5.50436e-22)
(1.10892 0.0240767 0)
(1.08967 0.0302688 1.86217e-21)
(1.0692 0.0291887 -1.25236e-21)
(1.05033 0.0295358 -3.04975e-22)
(1.03569 0.0267161 5.08575e-22)
(1.02265 0.0283661 -1.96531e-22)
(1.01431 0.0273775 -1.41876e-21)
(1.00689 0.0299864 1.51053e-21)
(1.00289 0.0282646 -2.01639e-22)
(0.998261 0.02725 -7.83175e-23)
(0.994393 0.0257273 1.15812e-21)
(0.988754 0.0273942 -1.01887e-21)
(0.985834 0.0279014 -6.19993e-22)
(0.98335 0.027938 6.10701e-22)
(0.979278 0.0239846 0)
(0.991065 0.00845865 0)
(0.997182 0.0142093 0)
(0.999259 0.0150052 9.24776e-21)
(0.998747 0.00810324 -1.76542e-20)
(0.999067 -0.0103105 8.51429e-21)
(1.00077 -0.0203267 0)
(1.00243 -0.0221224 4.40335e-21)
(1.00465 -0.019682 -1.41495e-23)
(1.00859 -0.0187669 -3.94943e-21)
(1.01608 -0.0174626 0)
(1.02473 -0.0147725 -5.20065e-22)
(1.03088 -0.0107042 4.80927e-22)
(1.03564 -0.00943676 1.99736e-21)
(1.04332 -0.0101429 -1.38307e-21)
(1.05471 -0.0116752 0)
(1.06674 -0.0158367 4.51822e-22)
(1.08171 -0.0182354 -4.70915e-22)
(1.09773 -0.0194095 -3.08974e-22)
(1.1147 -0.0164143 2.76212e-22)
(1.12889 -0.0117079 -8.59859e-25)
(1.14161 -0.000725299 5.45167e-22)
(1.14885 0.0172135 -4.90854e-22)
(1.14595 0.0270873 1.46046e-22)
(1.13826 0.0348133 -1.47795e-22)
(1.12675 0.0413128 2.86981e-22)
(1.10912 0.0437535 0)
(1.0919 0.0445756 0)
(1.0711 0.0415919 -3.96716e-22)
(1.05289 0.039068 2.45664e-21)
(1.03676 0.0334918 -2.71567e-21)
(1.02172 0.0251093 0)
(1.00893 0.0173433 1.33851e-21)
(0.997361 0.00562049 -1.28609e-21)
(0.987118 -0.00367225 7.63809e-22)
(0.981669 -0.00736344 -6.52909e-22)
(0.979362 -0.0121984 7.28152e-22)
(0.978624 -0.0176858 -8.55327e-22)
(0.979229 -0.0212452 0)
(0.980247 -0.0223523 0)
(0.980791 -0.0205899 -5.72911e-23)
(0.994529 0.0100408 -6.18209e-23)
(0.9998 0.0139245 9.23212e-21)
(1.00035 0.0126164 -1.04482e-21)
(0.999749 0.000618148 -1.09142e-21)
(0.99967 -0.0159197 -8.94076e-21)
(1.00105 -0.0226799 1.35493e-20)
(1.00273 -0.0230512 -4.54243e-21)
(1.00813 -0.0200016 4.57109e-21)
(1.01421 -0.0171519 -5.78893e-21)
(1.01697 -0.0167199 -4.87164e-21)
(1.01757 -0.0186378 8.89342e-21)
(1.01778 -0.0284315 -8.33947e-21)
(1.0218 -0.0420671 3.77918e-21)
(1.03113 -0.0513268 0)
(1.04746 -0.0570051 0)
(1.0644 -0.0592541 -6.3246e-22)
(1.08253 -0.0590651 5.37333e-22)
(1.10195 -0.0539622 -2.88877e-23)
(1.11774 -0.0486455 -3.11391e-22)
(1.13411 -0.0398748 3.04986e-22)
(1.14475 -0.0269753 -2.86551e-23)
(1.14787 -0.0191993 -1.13849e-21)
(1.15051 -0.00511299 9.86233e-22)
(1.14549 0.0093067 2.50182e-21)
(1.13404 0.0241606 -2.49259e-21)
(1.11611 0.0338561 0)
(1.09701 0.0414688 0)
(1.07738 0.0412272 -4.47055e-22)
(1.05732 0.0400196 2.66113e-21)
(1.04161 0.0351812 -2.64724e-21)
(1.02598 0.0344012 -2.02566e-21)
(1.01701 0.0325168 1.0145e-22)
(1.00935 0.0342817 1.46835e-21)
(1.00401 0.0341054 1.04389e-21)
(0.999259 0.0313404 -2.6832e-21)
(0.994405 0.0264615 1.46927e-21)
(0.989071 0.0270103 1.26589e-22)
(0.985866 0.0255147 -7.36443e-22)
(0.981588 0.0253967 6.4688e-22)
(0.977018 0.0198622 -4.50546e-24)
(0.998753 0.0113844 -8.4709e-21)
(1.00098 0.0124421 1.60114e-20)
(1.00095 0.00837772 1.4895e-22)
(0.999981 -0.00753239 -1.80824e-20)
(0.999822 -0.0202672 1.15365e-20)
(1.00061 -0.0239798 0)
(1.00238 -0.0235979 0)
(1.00953 -0.0203257 1.19426e-21)
(1.01506 -0.0187004 5.915e-22)
(1.02035 -0.0187332 -3.31564e-21)
(1.02759 -0.0209675 4.48991e-21)
(1.0343 -0.0226839 -3.77737e-21)
(1.03955 -0.024965 5.40836e-21)
(1.0464 -0.0277403 -1.25512e-21)
(1.05869 -0.0290538 8.77262e-22)
(1.07194 -0.0325035 -1.19377e-21)
(1.08715 -0.0338247 4.41433e-22)
(1.10385 -0.0334583 3.02919e-22)
(1.12071 -0.0293157 -6.61482e-23)
(1.13463 -0.0225281 -3.11495e-22)
(1.14695 -0.0117666 0)
(1.15522 0.00876433 -1.10315e-21)
(1.15411 0.0233552 1.25017e-21)
(1.14619 0.0334142 0)
(1.1359 0.043194 0)
(1.11904 0.0479964 2.32037e-21)
(1.1003 0.0519901 -4.35614e-21)
(1.07902 0.0500307 2.9791e-21)
(1.06059 0.048275 -4.07886e-22)
(1.04379 0.0448162 0)
(1.02805 0.0368238 2.1276e-21)
(1.01494 0.0290546 -1.85548e-21)
(1.0033 0.0177036 3.42951e-22)
(0.991852 0.00547655 0)
(0.985571 -0.000361015 0)
(0.98324 -0.00437202 1.29256e-21)
(0.981812 -0.0105338 -1.24422e-21)
(0.981006 -0.0141837 -6.15759e-22)
(0.98077 -0.0146854 8.76634e-22)
(0.980983 -0.0128591 6.48412e-23)
(1.00006 0.0107971 -8.86741e-21)
(1.00116 0.00994861 9.92214e-21)
(1.00089 0.00140612 0)
(0.999751 -0.0146204 2.36983e-21)
(0.998968 -0.0228194 -2.39967e-21)
(0.99938 -0.0247653 6.04286e-21)
(1.00122 -0.0242498 -6.058e-21)
(1.00898 -0.0215312 4.10853e-24)
(1.019 -0.0197052 -4.781e-21)
(1.02642 -0.0202525 8.21964e-21)
(1.03057 -0.0221678 -3.49093e-21)
(1.0323 -0.0283213 4.40045e-21)
(1.0358 -0.0403593 -2.23738e-21)
(1.04142 -0.0505317 -2.0506e-21)
(1.05438 -0.0572272 0)
(1.07043 -0.0606109 0)
(1.08743 -0.0615858 0)
(1.10722 -0.0571785 3.7964e-22)
(1.12399 -0.0506144 -2.47212e-22)
(1.13932 -0.042518 0)
(1.15205 -0.0265331 -5.70716e-22)
(1.15525 -0.0160146 -7.17159e-22)
(1.1576 -0.000664825 -2.77269e-22)
(1.15326 0.0152572 1.38905e-21)
(1.14211 0.0320248 0)
(1.12556 0.0431612 -2.82908e-21)
(1.10598 0.0515767 2.79802e-22)
(1.08639 0.0526817 2.22937e-21)
(1.0654 0.0519183 -2.36823e-23)
(1.04858 0.0464261 0)
(1.03146 0.0426986 2.1026e-21)
(1.01974 0.0388068 -2.08583e-21)
(1.0119 0.0390934 -7.36532e-22)
(1.00539 0.0391372 9.03195e-22)
(1.00011 0.0375166 -2.87453e-21)
(0.994847 0.0295378 1.90368e-21)
(0.989257 0.0275599 0)
(0.984759 0.0243337 -9.898e-22)
(0.979571 0.0232772 8.74203e-22)
(0.97635 0.0168869 7.80176e-23)
(1.00017 0.00908838 0)
(1.00121 0.00582847 9.36194e-21)
(1.00057 -0.00719764 1.58739e-22)
(0.998921 -0.0193886 -1.22589e-20)
(0.997805 -0.0242785 1.00137e-20)
(0.998079 -0.0252894 -9.98115e-21)
(1.00008 -0.0250269 1.25897e-21)
(1.00872 -0.0232202 3.75474e-21)
(1.02044 -0.0222528 -6.36796e-21)
(1.02749 -0.0220438 5.94586e-21)
(1.0321 -0.0262409 -9.18278e-21)
(1.03852 -0.032094 3.91364e-21)
(1.04544 -0.0377422 1.68206e-21)
(1.05222 -0.0429781 -1.68768e-21)
(1.06354 -0.0450285 -1.12194e-21)
(1.07783 -0.0480952 1.17557e-21)
(1.09335 -0.0488386 -1.94789e-22)
(1.11055 -0.0467801 -9.1468e-23)
(1.12829 -0.0414561 -7.09031e-23)
(1.14206 -0.0324718 2.82203e-23)
(1.15399 -0.0211658 -6.20216e-22)
(1.16248 -0.000425306 4.57207e-22)
(1.16296 0.0189171 -6.57879e-24)
(1.15651 0.0317831 3.43953e-21)
(1.14642 0.0448607 -3.03604e-21)
(1.12925 0.0526583 1.07135e-21)
(1.11053 0.0607178 6.55544e-22)
(1.08912 0.0611739 -5.43903e-22)
(1.0696 0.0580866 3.91921e-21)
(1.05172 0.0553906 -5.93935e-22)
(1.03544 0.0498851 -2.82499e-21)
(1.02103 0.0414981 -1.79027e-21)
(1.00919 0.0317252 2.16883e-21)
(0.996981 0.0184601 1.01397e-21)
(0.989439 0.00953028 -1.54444e-21)
(0.986329 0.00544756 0)
(0.984413 -0.000996013 0)
(0.982226 -0.00542527 -1.0444e-21)
(0.981108 -0.0062536 7.89682e-22)
(0.981081 -0.00507901 -1.64909e-22)
(0.999956 0.00629427 -6.84044e-23)
(1.00082 -0.000922763 8.38083e-21)
(0.999422 -0.0148556 1.26259e-21)
(0.997168 -0.0223891 1.27387e-21)
(0.996019 -0.0249883 1.30659e-20)
(0.996339 -0.0257895 -6.51645e-21)
(0.998494 -0.0263076 -6.59801e-21)
(1.00648 -0.0256338 0)
(1.01955 -0.0242415 1.30157e-21)
(1.03015 -0.0251731 3.61758e-21)
(1.03852 -0.0285657 -6.1012e-21)
(1.0439 -0.0338817 -4.06236e-21)
(1.04793 -0.0430812 4.55824e-21)
(1.05249 -0.0528377 0)
(1.06306 -0.0600623 1.11934e-21)
(1.07852 -0.0644998 -8.39381e-22)
(1.09472 -0.0660088 1.65835e-22)
(1.11387 -0.0625512 2.37362e-22)
(1.13147 -0.0546164 -8.86228e-22)
(1.14653 -0.0465333 3.71721e-22)
(1.15908 -0.0291962 3.92009e-23)
(1.16457 -0.0145603 0)
(1.16662 0.00277205 1.93736e-22)
(1.16332 0.0201215 -4.03655e-22)
(1.15234 0.0387757 4.14542e-22)
(1.13709 0.051371 -3.68042e-21)
(1.11647 0.0611627 4.85463e-21)
(1.09574 0.063474 -2.60003e-21)
(1.07485 0.0643828 0)
(1.05649 0.0601234 0)
(1.03918 0.0544505 2.53756e-21)
(1.02483 0.0481315 -2.51703e-21)
(1.01442 0.0454499 0)
(1.00658 0.0445913 7.14621e-22)
(1.00055 0.0433385 2.36406e-21)
(0.995933 0.0357103 -4.99325e-22)
(0.988972 0.0301222 -1.84332e-21)
(0.98332 0.0249547 -9.21728e-22)
(0.978342 0.0225455 1.04706e-21)
(0.976678 0.015536 -6.66587e-24)
(1.00041 0.00170444 -9.77663e-21)
(1.00004 -0.00887109 1.00318e-20)
(0.998013 -0.0196321 -1.30196e-21)
(0.99593 -0.023862 0)
(0.995134 -0.0254035 -1.22763e-20)
(0.995613 -0.0265613 1.64973e-20)
(0.997883 -0.0277446 -4.15513e-21)
(1.00471 -0.0279645 0)
(1.01819 -0.0285812 1.19298e-20)
(1.0318 -0.0284372 -6.27008e-21)
(1.04067 -0.0323759 -5.08264e-21)
(1.04723 -0.0398996 -4.17191e-21)
(1.05343 -0.0480484 5.45668e-21)
(1.06003 -0.0555299 -1.37137e-21)
(1.07023 -0.0586896 1.08096e-21)
(1.08457 -0.0617327 -8.77078e-22)
(1.1002 -0.0624817 2.13823e-22)
(1.11796 -0.0592946 3.28977e-22)
(1.1358 -0.0525119 -2.03134e-22)
(1.15042 -0.0419082 -4.07051e-22)
(1.16143 -0.0284221 -8.31654e-23)
(1.17033 -0.00916202 -1.6339e-21)
(1.17339 0.0140721 1.84907e-21)
(1.16885 0.0297158 3.53823e-21)
(1.15738 0.046821 -3.95285e-21)
(1.14208 0.0584024 3.1902e-21)
(1.12268 0.0682127 -2.39562e-21)
(1.10136 0.0723246 0)
(1.08023 0.070855 4.77829e-21)
(1.06048 0.0664185 -1.18807e-21)
(1.0438 0.0631735 1.90161e-22)
(1.0286 0.0552944 -2.79987e-21)
(1.01551 0.0471957 0)
(1.00257 0.0343738 9.13455e-22)
(0.99327 0.0229916 -9.80293e-22)
(0.988775 0.0160162 -2.58678e-22)
(0.986375 0.0113778 2.11442e-22)
(0.983899 0.00560675 0)
(0.981288 0.00263845 0)
(0.980643 0.00259935 2.05867e-22)
(1.00038 -0.00432872 -1.02723e-20)
(0.998648 -0.0160182 1.05517e-20)
(0.996586 -0.0225154 0)
(0.995129 -0.024927 0)
(0.994897 -0.0261528 0)
(0.995627 -0.0276224 0)
(0.998054 -0.0295776 0)
(1.00461 -0.0315737 0)
(1.01691 -0.0320461 -8.30469e-21)
(1.03155 -0.0329566 9.60779e-21)
(1.04223 -0.0379534 4.83682e-21)
(1.05205 -0.0437435 -1.17059e-21)
(1.05999 -0.0501014 -2.52832e-21)
(1.06552 -0.0586668 -2.18538e-21)
(1.07483 -0.0658271 -1.05918e-21)
(1.08887 -0.0711487 6.99918e-22)
(1.103 -0.0727542 4.18201e-22)
(1.12072 -0.0700302 4.06105e-22)
(1.13953 -0.0613209 6.33268e-23)
(1.1539 -0.0519928 -4.8361e-22)
(1.16686 -0.0348926 -2.1246e-24)
(1.17464 -0.0168353 -1.96334e-21)
(1.17873 0.00432358 3.86245e-21)
(1.17549 0.0234308 -1.37355e-21)
(1.16451 0.0439071 0)
(1.15007 0.0579632 -9.32992e-22)
(1.13038 0.0710063 -8.08632e-22)
(1.1083 0.0760747 0)
(1.08662 0.0767472 4.03504e-21)
(1.06567 0.0741464 -4.10253e-21)
(1.0479 0.0694886 -8.35018e-22)
(1.03235 0.0611512 0)
(1.01868 0.055561 0)
(1.00895 0.0517414 1.69639e-21)
(1.00148 0.0502951 -1.6792e-21)
(0.995981 0.0443758 -2.51673e-23)
(0.988532 0.0362165 1.23534e-23)
(0.983361 0.0290081 -1.11513e-21)
(0.978144 0.0245924 1.28443e-21)
(0.976912 0.0163175 -1.1026e-22)
(0.997952 -0.011738 0)
(0.995465 -0.021138 0)
(0.993579 -0.0242442 0)
(0.992641 -0.0257823 0)
(0.99305 -0.0269935 0)
(0.994197 -0.0289569 7.55675e-21)
(0.996919 -0.0323058 -6.08482e-21)
(1.00445 -0.0346227 -5.88764e-21)
(1.01455 -0.036934 1.31382e-20)
(1.03021 -0.0388579 -3.15086e-21)
(1.04386 -0.0423 -6.14356e-21)
(1.0549 -0.0482839 1.19035e-21)
(1.06441 -0.0558937 5.05724e-22)
(1.07046 -0.0657447 -3.93094e-22)
(1.0807 -0.071187 7.36986e-22)
(1.09615 -0.0744374 -7.86768e-22)
(1.11064 -0.0746576 3.32349e-22)
(1.12631 -0.070811 -3.33239e-22)
(1.14535 -0.0626121 3.12932e-22)
(1.16131 -0.0500336 -5.75715e-22)
(1.17292 -0.0346788 -2.39895e-24)
(1.18208 -0.0166938 2.2299e-22)
(1.18652 0.00895796 -4.87818e-22)
(1.18295 0.0281345 4.20271e-21)
(1.17205 0.048399 -4.16581e-21)
(1.15731 0.0632161 1.98949e-21)
(1.13836 0.0763043 -3.45814e-21)
(1.11622 0.0825279 3.43791e-21)
(1.09399 0.0855142 -7.26542e-22)
(1.07127 0.0808714 0)
(1.05222 0.0770599 3.52393e-21)
(1.03572 0.0702711 -6.34147e-21)
(1.02171 0.0636133 2.82163e-21)
(1.00875 0.0524069 0)
(0.996857 0.0406642 0)
(0.990641 0.0301902 2.41383e-21)
(0.98688 0.025088 -2.58865e-21)
(0.984944 0.0188085 1.43201e-21)
(0.981106 0.0151533 -1.39926e-21)
(0.979888 0.0111021 -1.31716e-22)
(0.995478 -0.0173074 0)
(0.992492 -0.0236903 0)
(0.990203 -0.0253153 1.21141e-20)
(0.989297 -0.0267232 -1.38132e-20)
(0.990061 -0.0281012 1.25733e-20)
(0.991708 -0.0309372 -1.59074e-20)
(0.994897 -0.0352237 -7.86459e-21)
(1.00289 -0.0390561 -1.3993e-21)
(1.01205 -0.0423987 7.76016e-21)
(1.02758 -0.0443897 0)
(1.04346 -0.0483034 1.37238e-21)
(1.05544 -0.0551921 -5.76706e-21)
(1.06901 -0.0618146 4.04317e-21)
(1.07883 -0.0689067 4.08521e-22)
(1.08781 -0.0748681 2.46118e-22)
(1.10198 -0.0791489 1.19609e-23)
(1.11691 -0.0806813 3.45563e-22)
(1.13189 -0.079201 3.96059e-22)
(1.15024 -0.0705741 -8.6847e-23)
(1.16714 -0.0589888 -5.96924e-22)
(1.18011 -0.0413819 5.24371e-23)
(1.18797 -0.0222007 -2.09254e-21)
(1.19323 0.00250066 2.08859e-21)
(1.1913 0.0249191 -5.57293e-22)
(1.18112 0.0472212 0)
(1.16553 0.0640612 -1.06171e-21)
(1.14722 0.0791805 3.83095e-21)
(1.12492 0.0880327 -1.05592e-20)
(1.10207 0.0922963 1.67098e-21)
(1.0785 0.0889219 9.90054e-21)
(1.05759 0.0860829 -8.78192e-21)
(1.03993 0.0781024 7.14882e-21)
(1.0246 0.0705202 -3.92512e-21)
(1.01204 0.0626186 0)
(1.00213 0.0595049 0)
(0.996249 0.0539957 0)
(0.987916 0.0460178 -2.73539e-23)
(0.983524 0.0353982 -1.82001e-21)
(0.978084 0.0307536 1.5856e-21)
(0.97735 0.0214433 2.82757e-22)
(0.992201 -0.0202174 -1.21762e-20)
(0.98955 -0.0248631 1.23494e-20)
(0.986817 -0.0265004 0)
(0.985816 -0.0280825 1.61152e-21)
(0.98669 -0.0299768 0)
(0.989275 -0.0335928 3.34571e-21)
(0.993228 -0.0390883 -1.31657e-20)
(1.00057 -0.0441916 1.01213e-20)
(1.00901 -0.0477118 -2.93604e-21)
(1.02332 -0.051411 4.76987e-21)
(1.04123 -0.0555807 1.19552e-24)
(1.05555 -0.0619138 5.94117e-21)
(1.07134 -0.0674481 -4.70296e-21)
(1.08503 -0.0744993 -3.96301e-22)
(1.09481 -0.0815978 -2.56183e-22)
(1.10865 -0.086116 1.40486e-23)
(1.12543 -0.086499 6.25776e-23)
(1.13984 -0.0832783 9.17206e-22)
(1.15659 -0.0741113 -1.58513e-21)
(1.17389 -0.0607393 6.6683e-22)
(1.18742 -0.0417098 1.08033e-21)
(1.19558 -0.0232253 -3.31286e-21)
(1.20094 0.00306038 -1.65463e-22)
(1.19953 0.0256944 2.44813e-21)
(1.1906 0.0499051 -6.43325e-22)
(1.17432 0.0669457 -5.89473e-21)
(1.15636 0.0837236 4.62897e-21)
(1.13427 0.093238 1.04478e-21)
(1.11105 0.100098 9.15047e-22)
(1.08666 0.0986164 7.16526e-22)
(1.06387 0.0947862 1.29955e-21)
(1.04422 0.0868472 0)
(1.02835 0.0814827 7.76157e-22)
(1.01501 0.0716334 0)
(1.00152 0.0612618 -5.32433e-22)
(0.993229 0.0484819 0)
(0.986472 0.0418296 6.41877e-22)
(0.984263 0.033422 -1.80847e-21)
(0.979234 0.0293831 5.54026e-22)
(0.978748 0.0216047 1.41819e-21)
(0.990554 -0.0225729 1.12987e-20)
(0.987923 -0.0262898 0)
(0.984675 -0.0281873 1.69253e-21)
(0.983125 -0.0302992 -1.55527e-20)
(0.983995 -0.0326856 1.39795e-20)
(0.987094 -0.036858 -3.53115e-21)
(0.991556 -0.0436718 1.55611e-20)
(0.99803 -0.0494177 -1.74332e-20)
(1.00589 -0.0538603 1.67525e-21)
(1.01835 -0.0590826 1.60516e-21)
(1.03707 -0.0631299 -7.44668e-22)
(1.05427 -0.0695419 -6.61349e-22)
(1.07064 -0.0757716 1.89724e-21)
(1.08894 -0.0819001 -1.49776e-21)
(1.10285 -0.0872994 0)
(1.11652 -0.0918627 1.67812e-23)
(1.13485 -0.0909484 1.03509e-22)
(1.15016 -0.0882096 0)
(1.16536 -0.0791637 7.47113e-22)
(1.1814 -0.0672614 -7.47881e-22)
(1.19594 -0.0468357 -6.34465e-23)
(1.20418 -0.0275026 0)
(1.20918 -0.00134726 0)
(1.20832 0.0230079 0)
(1.20101 0.0494111 1.38208e-21)
(1.18524 0.0687918 1.29293e-21)
(1.16651 0.0867172 -4.76486e-21)
(1.1442 0.0979912 3.6423e-21)
(1.12104 0.107274 -1.98928e-21)
(1.09592 0.107608 8.88994e-22)
(1.0716 0.10519 3.82172e-21)
(1.05051 0.0974369 -1.05515e-20)
(1.03262 0.0907903 4.16217e-21)
(1.01871 0.0800917 -2.67178e-21)
(1.00517 0.0734181 7.44967e-21)
(0.997581 0.0657248 -4.20811e-21)
(0.987514 0.0594591 -3.45977e-22)
(0.98321 0.0468602 -2.36991e-21)
(0.976333 0.0412843 1.96892e-22)
(0.97588 0.0306416 1.60657e-21)
(0.986562 -0.0240724 1.67811e-21)
(0.984862 -0.0276455 -1.74457e-21)
(0.982091 -0.0303711 3.95512e-23)
(0.980499 -0.0329807 1.80569e-21)
(0.980887 -0.0362601 0)
(0.984737 -0.0410856 -3.64281e-21)
(0.989428 -0.0485254 7.48699e-21)
(0.995505 -0.0551258 8.94458e-21)
(1.00296 -0.0604313 -7.22006e-21)
(1.0137 -0.0670169 1.69376e-21)
(1.03117 -0.0721525 0)
(1.05138 -0.0786517 -4.26393e-21)
(1.06921 -0.0845256 7.44823e-21)
(1.08914 -0.0900858 -1.53887e-21)
(1.10966 -0.0941266 -1.97785e-22)
(1.12503 -0.0986051 -4.69333e-22)
(1.14389 -0.0978508 3.71669e-22)
(1.1619 -0.0945601 0)
(1.1772 -0.0842902 0)
(1.192 -0.0722635 0)
(1.20585 -0.0503679 7.47629e-23)
(1.21434 -0.0299575 0)
(1.21978 -0.00321127 -2.98243e-21)
(1.21839 0.0213275 9.09272e-21)
(1.21155 0.0492789 -6.83615e-21)
(1.19701 0.07085 -1.53253e-21)
(1.17813 0.0906858 0)
(1.15513 0.102988 0)
(1.13148 0.114186 -9.84392e-23)
(1.10644 0.116964 -8.10089e-21)
(1.08158 0.116989 -5.8807e-22)
(1.05873 0.108827 5.75933e-21)
(1.03794 0.101374 1.15134e-21)
(1.02357 0.0920011 4.03705e-21)
(1.0085 0.084865 -3.07658e-21)
(0.999325 0.0712487 -5.65479e-22)
(0.988306 0.063037 0)
(0.983881 0.0516361 3.10967e-22)
(0.976514 0.0466502 -1.83614e-21)
(0.974716 0.0348779 1.81082e-21)
(0.985359 -0.0271532 -1.62741e-20)
(0.984241 -0.0306594 1.81169e-21)
(0.982022 -0.0335444 -1.86705e-21)
(0.980097 -0.0365896 1.96272e-21)
(0.979341 -0.0406813 -1.99732e-21)
(0.982663 -0.0457269 1.37068e-20)
(0.987451 -0.0537895 -1.5891e-20)
(0.993119 -0.0615391 0)
(1.00052 -0.0678031 1.87813e-21)
(1.01003 -0.0753541 4.98969e-21)
(1.02485 -0.081681 -6.82942e-21)
(1.04541 -0.0886377 -5.77824e-21)
(1.06689 -0.0941817 6.45795e-21)
(1.0875 -0.100552 -1.96271e-21)
(1.11211 -0.103308 3.78919e-23)
(1.13356 -0.10655 0)
(1.15291 -0.104726 1.03435e-21)
(1.17319 -0.100101 2.23459e-22)
(1.19142 -0.0885106 -1.3991e-21)
(1.20452 -0.0768914 0)
(1.21837 -0.0547271 -7.83379e-23)
(1.22651 -0.0332911 -3.08261e-21)
(1.23118 -0.00606538 3.90327e-21)
(1.23021 0.0189804 -8.71288e-22)
(1.22333 0.0479865 0)
(1.20887 0.0713009 3.32002e-21)
(1.191 0.0936468 0)
(1.16818 0.107912 0)
(1.14319 0.12048 2.58377e-21)
(1.11783 0.125109 0)
(1.09256 0.127867 1.79795e-21)
(1.06924 0.12173 -4.22205e-21)
(1.04562 0.11541 3.0765e-21)
(1.02889 0.103282 -9.59664e-22)
(1.01142 0.0947951 5.73964e-21)
(1.00212 0.0835122 -5.07033e-21)
(0.990548 0.0780186 0)
(0.984757 0.0648641 -4.03806e-22)
(0.976616 0.0591419 2.43299e-21)
(0.973998 0.0445088 -2.28616e-21)
(0.980816 -0.0291133 -1.35188e-20)
(0.98015 -0.033111 0)
(0.979246 -0.0362962 -2.04592e-21)
(0.978305 -0.0403153 1.24285e-20)
(0.977046 -0.0453424 -1.47429e-20)
(0.979234 -0.0509959 0)
(0.985339 -0.0598423 2.1094e-21)
(0.990223 -0.0689454 -2.05611e-21)
(0.998107 -0.0757463 -1.96376e-21)
(1.00723 -0.0838535 -1.86784e-21)
(1.01966 -0.0917179 0)
(1.03855 -0.100019 4.45791e-21)