/*--------------------------------*- C++ -*----------------------------------*\
  =========                 |
  \\      /  F ield         | OpenFOAM: The Open Source CFD Toolbox
   \\    /   O peration     | Website:  https://openfoam.org
    \\  /    A nd           | Version:  11
     \\/     M anipulation  |
\*---------------------------------------------------------------------------*/
FoamFile
{
    format      ascii;
    class       volScalarField;
    location    "4.5";
    object      mag(U);
}
// * * * * * * * * * * * * * * * * * * * * * * * * * * * * * * * * * * * * * //

dimensions      [0 1 -1 0 0 0 0];

internalField   nonuniform List<scalar> 
9600
(
0.968437
0.965451
0.960389
0.957565
0.957065
0.952808
0.943284
0.935427
0.933781
0.93515
0.932389
0.908622
0.860858
0.83416
0.828987
0.83193
0.843562
0.875186
0.91464
0.947888
0.978049
1.01066
1.04124
1.06952
1.10414
1.14591
1.18004
1.19237
1.19005
1.18078
1.16024
1.12066
1.07941
1.0452
1.01781
0.997827
0.984224
0.974717
0.96732
0.956035
0.971638
0.970749
0.969137
0.9658
0.96325
0.961143
0.958011
0.954752
0.952713
0.951722
0.950177
0.943802
0.929795
0.920183
0.917928
0.919407
0.926302
0.945954
0.975922
1.00488
1.02943
1.05331
1.0789
1.10472
1.13269
1.16708
1.20323
1.2271
1.23262
1.22838
1.2109
1.17621
1.13908
1.1035
1.07204
1.04489
1.02587
1.00464
0.995669
0.97788
0.970267
0.969627
0.968245
0.96525
0.962606
0.961369
0.959678
0.95525
0.95096
0.950453
0.951307
0.949989
0.946547
0.933086
0.92471
0.925586
0.934218
0.957577
0.981376
1.00827
1.03198
1.0517
1.0756
1.10397
1.13158
1.16268
1.19894
1.22705
1.23567
1.23337
1.22064
1.18824
1.15039
1.11334
1.08407
1.05736
1.0395
1.02297
1.01694
1.00581
0.969427
0.968578
0.966802
0.963739
0.961465
0.960077
0.957613
0.952924
0.950701
0.950722
0.951332
0.952716
0.953156
0.950465
0.947382
0.95065
0.963793
0.983316
1.0034
1.02547
1.04669
1.06372
1.08166
1.10558
1.13226
1.16026
1.19255
1.2235
1.24033
1.2403
1.2272
1.19789
1.16244
1.12841
1.09582
1.0682
1.04663
1.02651
1.01388
0.993402
0.968695
0.967675
0.965614
0.962809
0.960469
0.958676
0.956884
0.954609
0.951427
0.949134
0.949929
0.955852
0.964479
0.966706
0.965819
0.96772
0.976374
0.990033
1.00588
1.02489
1.04649
1.06452
1.08098
1.1039
1.13205
1.15971
1.18962
1.22035
1.24096
1.24456
1.23532
1.20725
1.17217
1.13551
1.10405
1.07458
1.05388
1.0324
1.02343
1.00941
0.967654
0.966547
0.96434
0.961554
0.959054
0.957368
0.956338
0.953895
0.950485
0.949448
0.950998
0.958253
0.968334
0.970517
0.970737
0.97571
0.988306
1.00277
1.01912
1.03674
1.05522
1.07197
1.08663
1.10513
1.13049
1.1584
1.18764
1.21791
1.2426
1.25176
1.24364
1.21823
1.18476
1.1493
1.11566
1.08506
1.06288
1.03942
1.02853
1.00661
0.966813
0.965601
0.963227
0.960409
0.957968
0.956768
0.955676
0.952982
0.950378
0.950329
0.95248
0.960802
0.97094
0.973993
0.978527
0.985576
0.996909
1.00918
1.0226
1.03786
1.05458
1.07148
1.0865
1.10352
1.12792
1.15702
1.18643
1.21483
1.24101
1.25592
1.25286
1.22929
1.19651
1.16052
1.12726
1.09391
1.07147
1.04657
1.03471
1.01699
0.96572
0.964342
0.961877
0.959142
0.957033
0.956071
0.954669
0.952008
0.950914
0.951361
0.953944
0.962368
0.972056
0.976555
0.981983
0.98871
0.999091
1.01336
1.02833
1.04496
1.06078
1.07637
1.0903
1.10529
1.12649
1.15353
1.18374
1.21344
1.24364
1.26113
1.2612
1.24267
1.20988
1.1734
1.13751
1.10285
1.07892
1.05225
1.0396
1.01881
0.964734
0.963379
0.960929
0.95818
0.956379
0.955472
0.953588
0.951646
0.95147
0.952213
0.955287
0.963904
0.972885
0.977582
0.98387
0.992309
1.00196
1.01589
1.02959
1.04551
1.06078
1.07611
1.09077
1.10462
1.12375
1.15115
1.18132
1.21191
1.24136
1.26318
1.26978
1.25379
1.22544
1.18782
1.15364
1.11614
1.09105
1.0637
1.04975
1.02821
0.963701
0.962195
0.959546
0.957066
0.955577
0.954352
0.952485
0.951541
0.95169
0.952779
0.956417
0.964419
0.972906
0.97974
0.987516
0.995431
1.00247
1.01463
1.02925
1.04675
1.06284
1.07794
1.09243
1.10695
1.1246
1.14866
1.17726
1.21036
1.24326
1.2678
1.27893
1.26919
1.24232
1.20555
1.16931
1.13037
1.10331
1.07248
1.05567
1.03145
0.962724
0.961163
0.958585
0.95631
0.954767
0.95332
0.951924
0.951391
0.951861
0.953194
0.957022
0.965236
0.974162
0.981008
0.987339
0.997024
1.00567
1.01711
1.02987
1.04521
1.05983
1.07522
1.08989
1.10505
1.12122
1.1453
1.17615
1.20843
1.24273
1.26989
1.28637
1.28113
1.25883
1.22145
1.18529
1.14424
1.1154
1.08341
1.0671
1.04168
0.961556
0.959824
0.957283
0.955133
0.953499
0.952213
0.951327
0.950978
0.95175
0.953222
0.957524
0.966522
0.973985
0.981204
0.989239
1.00007
1.00865
1.01687
1.02839
1.04174
1.05729
1.07307
1.08666
1.10228
1.12062
1.14351
1.17203
1.20596
1.24357
1.27523
1.29635
1.29753
1.28024
1.24505
1.20728
1.16405
1.13145
1.0974
1.07752
1.04879
0.960308
0.958663
0.956307
0.954199
0.952519
0.951544
0.951108
0.950636
0.951808
0.953205
0.958283
0.966064
0.973669
0.983111
0.990875
0.999949
1.00971
1.01935
1.03054
1.04173
1.05354
1.06653
1.0783
1.09463
1.1112
1.13382
1.16546
1.20101
1.24191
1.27791
1.30478
1.31112
1.29968
1.26555
1.22688
1.18048
1.14668
1.1087
1.08961
1.05892
0.95911
0.957301
0.955033
0.952938
0.951291
0.950581
0.9507
0.95019
0.951354
0.95354
0.957963
0.96592
0.97443
0.98292
0.99129
1.00085
1.01227
1.02297
1.03177
1.0407
1.05046
1.06198
1.07287
1.08474
1.10193
1.1248
1.15466
1.19145
1.23607
1.27927
1.31446
1.32893
1.32295
1.29395
1.25509
1.20808
1.16929
1.12864
1.10569
1.07226
0.957793
0.956095
0.953965
0.952042
0.950355
0.949921
0.950475
0.94999
0.950981
0.953478
0.958093
0.966232
0.973634
0.981989
0.992379
1.00211
1.01241
1.02444
1.03367
1.04369
1.05211
1.05961
1.06645
1.0763
1.08845
1.10736
1.13655
1.17455
1.22229
1.2724
1.31833
1.34304
1.34544
1.3213
1.28402
1.23234
1.19104
1.1434
1.11877
1.08162
0.956676
0.954765
0.95268
0.950652
0.949387
0.948736
0.949743
0.949551
0.950073
0.952703
0.958222
0.964127
0.972703
0.982118
0.991642
1.00287
1.01246
1.02589
1.03726
1.04716
1.0533
1.05846
1.06338
1.06826
1.07633
1.0923
1.11767
1.15359
1.20091
1.25666
1.31185
1.35376
1.36899
1.35485
1.31947
1.26762
1.22249
1.17093
1.14203
1.10193
0.955332
0.953447
0.951509
0.949504
0.948563
0.947843
0.949182
0.949207
0.949985
0.95243
0.956899
0.96433
0.972482
0.982144
0.992104
1.00359
1.0141
1.02724
1.03658
1.0471
1.05447
1.05898
1.06143
1.06296
1.06779
1.07683
1.09679
1.13016
1.17519
1.23271
1.29412
1.34988
1.38357
1.38438
1.35883
1.30502
1.25538
1.19551
1.16342
1.11577
0.954169
0.952037
0.949808
0.948053
0.947633
0.946741
0.947501
0.948291
0.950323
0.950727
0.95499
0.962887
0.971651
0.983492
0.991464
1.0044
1.01482
1.02698
1.03659
1.048
1.05415
1.05844
1.06021
1.05915
1.05987
1.06677
1.0805
1.10979
1.15025
1.20902
1.27173
1.33704
1.38626
1.40842
1.39918
1.35243
1.30166
1.23428
1.19538
1.14085
0.952679
0.950681
0.948541
0.946506
0.946736
0.94591
0.946611
0.947591
0.949393
0.951385
0.954904
0.962437
0.971814
0.985077
0.994878
1.00731
1.01508
1.02984
1.03931
1.04934
1.05486
1.05872
1.05922
1.05683
1.05599
1.05909
1.06684
1.09043
1.12842
1.18537
1.25142
1.32035
1.38075
1.41798
1.43207
1.39926
1.35455
1.27927
1.23518
1.16848
0.951042
0.948867
0.946888
0.944986
0.945157
0.944754
0.945618
0.945267
0.947354
0.950265
0.953746
0.962272
0.969336
0.984189
0.994385
1.00911
1.01855
1.03233
1.04135
1.05207
1.05853
1.06001
1.05888
1.05572
1.05117
1.04949
1.05613
1.07237
1.10612
1.15961
1.23194
1.30681
1.37778
1.424
1.45476
1.44041
1.41243
1.3368
1.28778
1.20659
0.949563
0.947395
0.945747
0.943888
0.943704
0.943547
0.94438
0.945725
0.946147
0.949705
0.953754
0.963296
0.970784
0.985126
0.99453
1.01091
1.02186
1.03604
1.04695
1.05533
1.06197
1.06381
1.06056
1.05463
1.04813
1.04256
1.04521
1.05248
1.0832
1.12625
1.20392
1.28292
1.37495
1.43277
1.4799
1.47432
1.46591
1.39726
1.35471
1.25694
0.947337
0.945453
0.943608
0.941855
0.941747
0.941435
0.941598
0.943839
0.944647
0.949019
0.9516
0.961611
0.969479
0.983905
0.994692
1.00932
1.02145
1.03632
1.05049
1.05866
1.06583
1.06792
1.0641
1.05601
1.04679
1.03551
1.03519
1.03262
1.05932
1.08815
1.16708
1.24049
1.35761
1.43045
1.51198
1.5142
1.52327
1.45659
1.426
1.32372
0.945587
0.94383
0.941985
0.940584
0.93963
0.940975
0.940086
0.9429
0.943524
0.949298
0.953128
0.962584
0.970583
0.985386
0.996763
1.01203
1.02706
1.03936
1.05362
1.06358
1.06928
1.07174
1.06849
1.05882
1.04736
1.02935
1.02753
1.01458
1.03376
1.04794
1.12259
1.1869
1.32146
1.40028
1.53125
1.55334
1.59741
1.529
1.50382
1.39723
0.942568
0.941225
0.938677
0.937893
0.935964
0.937891
0.936976
0.940926
0.941232
0.946618
0.951043
0.960668
0.970906
0.983946
0.997349
1.01174
1.02894
1.04186
1.05698
1.0667
1.07291
1.07443
1.072
1.06092
1.0491
1.02594
1.01927
0.998798
1.00636
1.01088
1.06657
1.12693
1.26039
1.35377
1.52468
1.55685
1.66233
1.61986
1.61205
1.48547
0.940096
0.939564
0.936339
0.93665
0.933811
0.936133
0.935536
0.93947
0.941679
0.947325
0.952843
0.961411
0.972641
0.985565
1.00171
1.01612
1.03378
1.04837
1.06323
1.07414
1.08132
1.08087
1.07835
1.06622
1.05319
1.02734
1.01189
0.989589
0.977681
0.978797
1.00286
1.05986
1.16599
1.29786
1.4584
1.51108
1.65779
1.65674
1.72221
1.61924
0.935453
0.935244
0.93168
0.932437
0.929723
0.932005
0.931666
0.934942
0.938865
0.942969
0.951813
0.959613
0.972787
0.985238
1.00092
1.01813
1.03483
1.05211
1.06746
1.07754
1.08632
1.0865
1.08358
1.07194
1.05871
1.03534
1.00808
0.986312
0.955227
0.952323
0.944968
0.987478
1.05413
1.21442
1.27155
1.38351
1.52582
1.59513
1.70609
1.72311
0.932706
0.932877
0.928965
0.929861
0.928263
0.929243
0.932607
0.93288
0.940802
0.943099
0.953764
0.961921
0.974833
0.991407
1.00573
1.02492
1.04204
1.05901
1.07625
1.08646
1.09411
1.09719
1.09094
1.08234
1.0639
1.04494
1.01206
0.987573
0.94603
0.929206
0.906212
0.909762
0.958522
1.05387
1.0258
1.18354
1.30258
1.45634
1.53627
1.65858
0.926291
0.926743
0.922936
0.921789
0.923384
0.92097
0.927792
0.927259
0.93533
0.941208
0.949018
0.962572
0.973565
0.991503
1.00737
1.02721
1.04654
1.06457
1.08139
1.09407
1.09951
1.10557
1.0979
1.09085
1.07046
1.05269
1.01883
0.991209
0.949232
0.912243
0.888096
0.843825
0.887715
0.859406
0.86603
1.01979
1.16778
1.27347
1.35547
1.46834
0.923695
0.922292
0.921763
0.917824
0.921972
0.920115
0.924675
0.930177
0.933684
0.944477
0.952334
0.96642
0.980131
0.998413
1.017
1.0373
1.0567
1.07682
1.09171
1.10765
1.11245
1.11866
1.11147
1.10539
1.0859
1.06721
1.03716
1.00082
0.967298
0.909359
0.885532
0.81274
0.828369
0.757043
0.761435
0.889064
1.02111
1.14514
1.2417
1.29019
0.917411
0.912394
0.912933
0.910007
0.909522
0.91443
0.914093
0.923326
0.927646
0.938366
0.950109
0.964055
0.980478
1.00046
1.01912
1.04306
1.06274
1.08423
1.10083
1.11547
1.12253
1.12788
1.12478
1.11531
1.10275
1.07757
1.05809
1.01429
0.9853
0.925521
0.896007
0.822099
0.796146
0.74263
0.692862
0.734138
0.831518
0.973955
1.09597
1.19928
0.91194
0.91244
0.907912
0.910667
0.90796
0.913188
0.916813
0.922928
0.932393
0.942734
0.956384
0.973346
0.989819
1.01264
1.03313
1.05682
1.07922
1.09917
1.11856
1.13084
1.14224
1.14303
1.14672
1.13178
1.12712
1.09938
1.08355
1.04219
1.01377
0.957576
0.915731
0.854132
0.795412
0.760668
0.68322
0.624051
0.647405
0.763109
0.918023
1.03052
0.893428
0.897361
0.895616
0.896466
0.899651
0.902757
0.908744
0.91827
0.927784
0.941891
0.955483
0.97585
0.99459
1.0187
1.04213
1.06562
1.09163
1.11008
1.13288
1.14216
1.1578
1.15573
1.16309
1.14964
1.14555
1.1234
1.10841
1.07573
1.04304
0.999134
0.945123
0.897693
0.822335
0.783022
0.734292
0.633801
0.54682
0.555069
0.625526
0.775911
0.891653
0.890756
0.890919
0.891815
0.89507
0.901806
0.909179
0.921445
0.93385
0.951557
0.967787
0.991129
1.01237
1.03783
1.06385
1.08784
1.11524
1.1329
1.15621
1.16545
1.18076
1.18189
1.18608
1.17901
1.17351
1.15747
1.14438
1.12049
1.0885
1.05806
0.999447
0.956459
0.895573
0.819128
0.774106
0.726162
0.614389
0.513882
0.457122
0.526422
0.872103
0.873169
0.874442
0.877805
0.883485
0.890604
0.901755
0.916043
0.930735
0.952702
0.970708
0.998601
1.02107
1.0488
1.07744
1.10212
1.13007
1.14946
1.17154
1.18294
1.19806
1.19907
1.20595
1.20124
1.19627
1.1909
1.17517
1.1649
1.13981
1.1089
1.07836
1.02116
0.964355
0.916328
0.834012
0.767349
0.71724
0.655692
0.522138
0.438759
0.863433
0.866169
0.870105
0.875114
0.884535
0.896277
0.910655
0.929802
0.948826
0.973315
0.996867
1.02404
1.0527
1.07898
1.11159
1.13504
1.16405
1.18482
1.20286
1.22155
1.22571
1.23967
1.23557
1.24256
1.23762
1.23456
1.23316
1.22257
1.20376
1.19787
1.15918
1.12277
1.08857
1.02154
0.960153
0.900509
0.819947
0.725894
0.685068
0.591861
0.841696
0.849263
0.854998
0.864766
0.876831
0.89155
0.911916
0.933205
0.958802
0.98629
1.01492
1.04622
1.07613
1.10854
1.13783
1.16927
1.19277
1.21973
1.23496
1.25184
1.2611
1.26665
1.27056
1.27439
1.27032
1.27894
1.27708
1.27125
1.27787
1.2583
1.24926
1.22454
1.20231
1.14329
1.12037
1.0445
0.98161
0.906236
0.832779
0.734591
0.832719
0.849363
0.860738
0.883529
0.904989
0.929372
0.958475
0.985253
1.01756
1.04766
1.0812
1.11412
1.14933
1.17935
1.21446
1.23862
1.26654
1.28467
1.29795
1.31059
1.30888
1.31668
1.30726
1.31308
1.3048
1.31322
1.30441
1.32103
1.30272
1.31671
1.29765
1.30184
1.26889
1.26783
1.23403
1.19428
1.14198
1.10115
1.02471
1.00499
0.803086
0.828952
0.850366
0.869321
0.899631
0.924815
0.96538
0.998907
1.04222
1.07909
1.12111
1.15734
1.19584
1.22683
1.25907
1.28295
1.30553
1.31925
1.3271
1.33136
1.32408
1.32508
1.30838
1.31137
1.29514
1.30602
1.29949
1.31199
1.29619
1.29622
1.26255
1.26765
1.23948
1.26201
1.21913
1.20954
1.13807
1.12872
1.03634
1.06285
0.864406
0.912634
0.957726
1.00036
1.04543
1.08295
1.12581
1.16061
1.20105
1.23097
1.26706
1.28916
1.3169
1.33227
1.34831
1.35859
1.37071
1.36827
1.37111
1.35782
1.34589
1.32525
1.29966
1.27679
1.24911
1.2333
1.20459
1.19067
1.16157
1.10332
0.988113
0.885745
0.73112
0.678472
0.573209
0.563868
0.490979
0.492816
0.44432
0.480072
0.989191
1.02758
1.06292
1.10095
1.13787
1.17177
1.20218
1.22919
1.25048
1.26677
1.28539
1.28476
1.29397
1.29076
1.29044
1.28262
1.26807
1.24986
1.21423
1.18781
1.12909
1.09451
1.00843
0.958547
0.858854
0.783797
0.69811
0.458132
0.13266
0.0537058
0.0230919
0.0507492
0.118402
0.151759
0.174359
0.189682
0.208175
0.217075
0.227767
0.218259
0.986148
0.985987
0.975091
0.961736
0.95163
0.949912
0.961196
0.985508
1.00112
1.00371
1.00345
1.00321
1.0029
1.0034
1.00511
1.0061
1.00686
1.00775
1.00837
1.00884
1.00918
1.0095
1.00991
1.00993
1.00989
1.00998
1.00989
1.00978
1.00959
1.00941
1.00935
1.00922
1.00917
1.00903
1.00886
1.00872
1.00848
1.00843
1.00839
1.01195
0.993048
0.98772
0.973899
0.958637
0.946536
0.943167
0.954692
0.983027
1.0032
1.00629
1.00463
1.00425
1.00399
1.00386
1.00525
1.00615
1.0068
1.0078
1.00845
1.00897
1.00939
1.00962
1.01001
1.01021
1.01009
1.01014
1.0101
1.00998
1.00983
1.00959
1.00952
1.00942
1.00938
1.0093
1.00911
1.00901
1.00872
1.00832
1.00761
1.0061
0.996141
0.988091
0.974771
0.956368
0.941168
0.935736
0.947555
0.980834
1.00585
1.00977
1.00696
1.00538
1.00472
1.00426
1.0055
1.00649
1.00725
1.00825
1.00878
1.0093
1.00986
1.01014
1.01046
1.01075
1.01061
1.01055
1.0105
1.01029
1.01019
1.00993
1.00986
1.00973
1.00965
1.00957
1.00938
1.00929
1.00913
1.00904
1.00946
1.01175
0.996225
0.990086
0.974356
0.953209
0.93518
0.927186
0.937836
0.976509
1.00769
1.01316
1.00924
1.00668
1.00579
1.00485
1.00567
1.00654
1.00717
1.00824
1.00895
1.00954
1.00999
1.0102
1.01045
1.0109
1.01085
1.01088
1.0109
1.01063
1.01059
1.01026
1.0102
1.00998
1.00987
1.00976
1.00962
1.00948
1.00915
1.0089
1.00822
1.00637
1.00224
0.991073
0.97488
0.950895
0.929213
0.918283
0.926974
0.971853
1.00998
1.01665
1.01251
1.00848
1.00663
1.00534
1.00576
1.0068
1.00754
1.00875
1.00944
1.00998
1.01037
1.01063
1.01073
1.01107
1.01107
1.01113
1.01127
1.01104
1.01108
1.01077
1.01074
1.01044
1.01028
1.0101
1.00999
1.00994
1.0097
1.0096
1.00992
1.01137
1.00272
0.993027
0.975523
0.948244
0.923116
0.908734
0.91407
0.964552
1.01137
1.01948
1.01541
1.00991
1.00733
1.00597
1.00603
1.00701
1.00767
1.00871
1.00949
1.0102
1.01054
1.01086
1.01092
1.01112
1.01118
1.01123
1.01149
1.01134
1.01144
1.0111
1.01116
1.01081
1.01064
1.01037
1.01015
1.01005
1.00974
1.00949
1.00895
1.00742
1.00982
0.99513
0.976347
0.946331
0.917504
0.899427
0.900342
0.95556
1.01238
1.02194
1.01851
1.01159
1.00796
1.00666
1.00637
1.00724
1.00786
1.00907
1.00983
1.01047
1.01081
1.01141
1.01155
1.01152
1.01161
1.01153
1.01187
1.01174
1.01191
1.01152
1.01161
1.01123
1.01109
1.01083
1.01063
1.01056
1.01036
1.01025
1.01036
1.01123
1.01097
0.997387
0.978055
0.945141
0.912343
0.890536
0.885609
0.943205
1.01171
1.02331
1.02077
1.01248
1.00839
1.00734
1.0068
1.00742
1.00797
1.00915
1.00989
1.01058
1.01088
1.01157
1.01188
1.01178
1.01203
1.01181
1.01222
1.01198
1.01222
1.01177
1.0119
1.01154
1.01143
1.01108
1.01082
1.0107
1.01045
1.01022
1.00977
1.00856
1.0196
1.00087
0.979832
0.944778
0.908087
0.88258
0.871249
0.928009
1.00912
1.02415
1.02269
1.01355
1.00895
1.00775
1.00709
1.00733
1.00799
1.00949
1.01027
1.01089
1.01129
1.01187
1.01223
1.01216
1.01267
1.01231
1.01271
1.01244
1.01272
1.01223
1.01235
1.012
1.01204
1.01176
1.01159
1.01136
1.01111
1.01101
1.01091
1.0114
1.02193
1.00383
0.982991
0.946236
0.90475
0.875879
0.857581
0.909022
1.00316
1.02366
1.02309
1.01386
1.00895
1.0078
1.00704
1.0074
1.00813
1.00959
1.01031
1.01104
1.01157
1.01199
1.01242
1.01229
1.01305
1.01274
1.01319
1.0128
1.01307
1.01261
1.01274
1.01231
1.01228
1.01195
1.01184
1.01153
1.01123
1.01103
1.0106
1.00985
1.03241
1.00944
0.986217
0.94879
0.902369
0.870457
0.846076
0.887114
0.992958
1.02209
1.0225
1.01381
1.0086
1.00762
1.00709
1.00744
1.00827
1.00981
1.01062
1.01153
1.01212
1.01242
1.01293
1.01284
1.01355
1.01325
1.01374
1.01326
1.01351
1.01304
1.01314
1.01276
1.01277
1.01239
1.01239
1.01206
1.01187
1.01172
1.0115
1.01175
1.03629
1.01442
0.990835
0.95295
0.901203
0.86586
0.836737
0.862958
0.976989
1.0186
1.02042
1.01258
1.00745
1.00703
1.00656
1.0073
1.00836
1.00976
1.01054
1.01161
1.01248
1.01299
1.01352
1.01347
1.01411
1.01378
1.01426
1.0137
1.0139
1.01343
1.01335
1.01288
1.01287
1.0125
1.01255
1.01218
1.01205
1.01178
1.01144
1.01101
1.04843
1.02407
0.996713
0.958155
0.901275
0.861742
0.829975
0.83844
0.954906
1.01273
1.01739
1.01011
1.00555
1.00616
1.00607
1.00728
1.00843
1.00995
1.01075
1.01206
1.01282
1.01342
1.01405
1.01432
1.01479
1.01459
1.01493
1.01451
1.01453
1.01419
1.01419
1.01381
1.0138
1.01343
1.01351
1.01308
1.01297
1.01253
1.0124
1.01225
1.05522
1.03295
1.0042
0.964193
0.902238
0.857097
0.825115
0.814653
0.92562
1.0025
1.01223
1.00602
1.00272
1.00452
1.00478
1.00691
1.00818
1.0101
1.01072
1.0122
1.013
1.01385
1.0146
1.01504
1.01537
1.01538
1.01551
1.01527
1.01517
1.01484
1.01479
1.01449
1.01455
1.01407
1.01394
1.01336
1.01322
1.01266
1.01249
1.01222
1.06918
1.04798
1.0151
0.971659
0.904872
0.852312
0.820982
0.793788
0.888855
0.987308
1.00479
1.00022
0.998946
1.00241
1.00335
1.00649
1.00792
1.01028
1.01098
1.01294
1.01361
1.01446
1.01511
1.01563
1.01588
1.01614
1.01608
1.01602
1.01594
1.01566
1.01553
1.0152
1.01519
1.01476
1.01456
1.01405
1.01391
1.01339
1.01332
1.01301
1.08191
1.06175
1.02743
0.979873
0.908145
0.846409
0.814698
0.775086
0.847228
0.965521
0.99375
0.992394
0.993438
0.999146
1.00068
1.00539
1.00725
1.01028
1.0113
1.01351
1.01427
1.01526
1.01583
1.01638
1.01645
1.01679
1.01659
1.01638
1.01626
1.0159
1.01575
1.01541
1.01526
1.01484
1.01464
1.0142
1.01407
1.01358
1.01353
1.01328
1.10042
1.08336
1.04577
0.990388
0.913345
0.839661
0.804463
0.756326
0.80454
0.937581
0.979042
0.982098
0.986407
0.995232
0.997493
1.00372
1.00621
1.00997
1.01149
1.014
1.01504
1.01612
1.01663
1.01725
1.01727
1.01771
1.01761
1.01738
1.01739
1.01697
1.01691
1.01652
1.01637
1.01599
1.01578
1.0153
1.01512
1.01459
1.01454
1.01421
1.12361
1.10541
1.06744
1.00275
0.919101
0.830569
0.788504
0.733708
0.760381
0.902576
0.959471
0.969306
0.978127
0.990037
0.993315
1.00121
1.00455
1.00912
1.01125
1.01394
1.01549
1.01682
1.01741
1.01838
1.01815
1.01854
1.0186
1.01827
1.01853
1.01803
1.01828
1.0177
1.01766
1.01701
1.01671
1.01598
1.01569
1.01508
1.01508
1.01474
1.1531
1.13838
1.09996
1.02057
0.925112
0.81808
0.763533
0.706426
0.713917
0.862826
0.936281
0.954564
0.968688
0.983747
0.988873
0.998343
1.00284
1.00822
1.01089
1.01407
1.01578
1.01745
1.01779
1.01913
1.01892
1.01955
1.01962
1.01948
1.01985
1.01919
1.01961
1.01883
1.01906
1.01818
1.01799
1.01714
1.01694
1.01614
1.01609
1.01567
1.19099
1.1761
1.13689
1.04108
0.92753
0.7988
0.726481
0.669528
0.662982
0.818153
0.908798
0.936799
0.957662
0.976004
0.983713
0.994756
1.00097
1.00733
1.01064
1.01432
1.01606
1.0181
1.0183
1.01974
1.01927
1.02004
1.01987
1.01983
1.02026
1.01961
1.02006
1.01921
1.01951
1.0186
1.01868
1.01782
1.01783
1.01699
1.01701
1.01655
1.23608
1.22991
1.19088
1.06315
0.919541
0.766651
0.673832
0.618951
0.611065
0.770022
0.877645
0.915666
0.944645
0.966791
0.978241
0.99111
0.999031
1.00601
1.01021
1.01442
1.01639
1.01875
1.0191
1.02095
1.02035
1.02157
1.02099
1.02117
1.02129
1.02096
1.02142
1.02065
1.02102
1.01998
1.02012
1.0191
1.01909
1.01814
1.01809
1.01761
1.29859
1.3032
1.24523
1.06922
0.887189
0.711181
0.600834
0.551006
0.556504
0.722903
0.843558
0.891161
0.930213
0.955359
0.971868
0.986724
0.996344
1.00438
1.00988
1.01424
1.01694
1.01981
1.0204
1.0224
1.02171
1.02321
1.02236
1.02296
1.02273
1.02243
1.0226
1.02191
1.02209
1.0211
1.02125
1.02019
1.0202
1.0192
1.01923
1.01872
1.37903
1.3918
1.26637
1.04566
0.817331
0.620471
0.502288
0.469937
0.504101
0.683511
0.810918
0.866383
0.915965
0.943125
0.965349
0.981945
0.993092
1.00215
1.00907
1.01373
1.01733
1.0206
1.02143
1.02365
1.02302
1.02476
1.02371
1.02467
1.02422
1.02419
1.02402
1.02335
1.02316
1.02232
1.02227
1.0213
1.0213
1.0203
1.02038
1.01987
1.47278
1.43113
1.25575
0.96205
0.690852
0.485869
0.382097
0.390544
0.464878
0.654039
0.781908
0.844191
0.902452
0.932172
0.958407
0.977369
0.990644
1.00043
1.00828
1.01309
1.01718
1.02012
1.02133
1.02358
1.0232
1.02502
1.02412
1.02526
1.02469
1.02506
1.0247
1.02454
1.02412
1.02378
1.02348
1.02283
1.02265
1.02176
1.02177
1.02125
1.57682
1.45032
1.17716
0.80425
0.503174
0.322296
0.278555
0.356628
0.460664
0.641721
0.760909
0.827778
0.890529
0.923304
0.954724
0.973288
0.989488
0.999431
1.00792
1.0131
1.0178
1.02026
1.02246
1.02411
1.02464
1.026
1.02593
1.02685
1.02665
1.02711
1.02665
1.02681
1.02607
1.02614
1.0253
1.02506
1.02436
1.02376
1.02344
1.02302
1.65333
1.4082
0.980967
0.552279
0.289087
0.254897
0.315083
0.414223
0.501139
0.652108
0.751383
0.821328
0.884234
0.917222
0.95277
0.971038
0.990074
0.999693
1.00967
1.01449
1.02058
1.02264
1.02623
1.02666
1.02879
1.02861
1.02984
1.0296
1.03022
1.03014
1.02988
1.02997
1.02895
1.02916
1.02777
1.02778
1.02633
1.02595
1.02509
1.02494
1.59526
1.30567
0.779385
0.430758
0.391556
0.455206
0.498814
0.537791
0.576819
0.686158
0.759404
0.829464
0.88417
0.91895
0.953091
0.971037
0.992156
1.00111
1.01396
1.0181
1.02589
1.02715
1.032
1.03115
1.03468
1.03261
1.0351
1.03315
1.03473
1.03322
1.03367
1.03299
1.03225
1.03218
1.0306
1.03058
1.02865
1.02862
1.0274
1.02764
1.44141
1.18745
0.865004
0.764762
0.732177
0.726127
0.697333
0.656733
0.666149
0.741801
0.788942
0.854928
0.891979
0.931481
0.956382
0.976847
0.995557
1.00607
1.01785
1.02275
1.03029
1.03141
1.03634
1.0349
1.03876
1.03596
1.03898
1.03592
1.03821
1.03539
1.03699
1.03505
1.03538
1.03434
1.0334
1.03282
1.03113
1.03103
1.02965
1.02999
1.30225
1.24583
1.0701
1.0499
0.964136
0.902579
0.80853
0.753946
0.766774
0.811885
0.838646
0.896807
0.91279
0.954673
0.965544
0.990903
0.999646
1.0152
1.02004
1.02879
1.03172
1.03558
1.03814
1.03858
1.04065
1.03953
1.04137
1.03922
1.04112
1.03839
1.04026
1.03751
1.03917
1.0368
1.03721
1.03552
1.0348
1.034
1.03294
1.03345
1.25945
1.2411
1.11536
1.10512
1.0102
0.935985
0.857539
0.854073
0.861654
0.890638
0.91049
0.951831
0.955719
0.989481
0.987892
1.01279
1.01068
1.029
1.02629
1.03864
1.03611
1.04409
1.04171
1.04668
1.04446
1.04739
1.04595
1.04665
1.04634
1.04489
1.04572
1.0434
1.04481
1.04172
1.04241
1.03954
1.03926
1.03713
1.03662
1.03664
1.13415
1.09361
1.03492
1.01682
0.921588
0.894841
0.873173
0.891021
0.914728
0.943972
0.974113
1.00528
1.02505
1.03246
1.03674
1.04305
1.04109
1.05092
1.04779
1.05591
1.05325
1.05942
1.05581
1.06142
1.05629
1.06134
1.05582
1.05913
1.05481
1.05573
1.05375
1.05303
1.0524
1.05008
1.04992
1.04705
1.04629
1.04449
1.04387
1.04341
0.942192
0.854685
0.854282
0.822888
0.807065
0.828897
0.84858
0.886231
0.923612
0.96338
1.00084
1.03593
1.06478
1.07936
1.09426
1.08644
1.08707
1.0825
1.08342
1.07947
1.08234
1.07756
1.08022
1.07635
1.07539
1.07438
1.06994
1.07112
1.06541
1.06711
1.06224
1.06289
1.05938
1.0586
1.0562
1.05437
1.0522
1.05137
1.04981
1.0503
0.66624
0.590941
0.606617
0.595923
0.637239
0.695917
0.761975
0.832942
0.902132
0.960695
1.00873
1.04903
1.07971
1.10082
1.1201
1.12688
1.13018
1.12196
1.11901
1.11038
1.11063
1.09909
1.10317
1.09204
1.09558
1.08741
1.08828
1.08326
1.08171
1.07946
1.07628
1.07489
1.07163
1.06982
1.06736
1.0651
1.06273
1.06133
1.05881
1.05848
0.424136
0.400802
0.357475
0.330732
0.390879
0.480912
0.59596
0.708226
0.825186
0.919668
0.992507
1.04587
1.08623
1.11199
1.13153
1.14709
1.15639
1.16054
1.15639
1.15286
1.14402
1.13574
1.13056
1.1231
1.12028
1.11425
1.11217
1.10606
1.10502
1.09885
1.09681
1.09209
1.08949
1.08477
1.08287
1.0794
1.07856
1.07469
1.07521
1.07274
0.466765
0.433928
0.359776
0.245974
0.175788
0.213501
0.326982
0.476191
0.651024
0.793857
0.918986
1.00764
1.06949
1.11076
1.1403
1.15989
1.17497
1.18457
1.19032
1.19277
1.19281
1.18948
1.17901
1.17292
1.16244
1.1583
1.15049
1.14757
1.14197
1.13841
1.13264
1.12924
1.12363
1.12028
1.11469
1.11052
1.10698
1.09993
1.09709
1.09463
0.692254
0.621072
0.635928
0.620061
0.531034
0.39267
0.258635
0.227943
0.369819
0.560984
0.743905
0.882737
0.994156
1.06432
1.11658
1.15422
1.17836
1.1962
1.20755
1.21178
1.21705
1.21957
1.22131
1.22237
1.21922
1.21473
1.20763
1.19975
1.19348
1.18909
1.18445
1.1817
1.17715
1.17559
1.16915
1.16394
1.15733
1.1472
1.1397
1.13176
0.903492
0.819324
0.836033
0.894737
0.930066
0.895718
0.804049
0.66761
0.505262
0.392462
0.438093
0.589393
0.755323
0.888674
0.977463
1.04386
1.09985
1.14021
1.17551
1.19875
1.21406
1.22504
1.2334
1.23717
1.24149
1.24292
1.24237
1.24118
1.23863
1.2353
1.23231
1.22849
1.22682
1.22226
1.22175
1.21511
1.21267
1.20749
1.20147
1.19482
0.935368
0.823568
0.734946
0.69611
0.71608
0.74855
0.760595
0.748114
0.728217
0.671198
0.590078
0.484693
0.46258
0.52876
0.590979
0.656656
0.724352
0.81293
0.907563
1.00198
1.07695
1.12545
1.16749
1.19475
1.21777
1.2311
1.24353
1.24834
1.25158
1.24929
1.24528
1.23994
1.24366
1.23803
1.24055
1.23788
1.23873
1.23869
1.24165
1.24735
0.369487
0.272566
0.260137
0.322925
0.408974
0.491449
0.539435
0.552934
0.554312
0.542009
0.534654
0.545166
0.57206
0.613085
0.598578
0.608174
0.599776
0.481235
0.380627
0.388449
0.438891
0.534945
0.647692
0.735212
0.812113
0.882628
0.944721
1.00069
1.04977
1.09383
1.13127
1.16237
1.18402
1.2111
1.22957
1.25166
1.26648
1.28106
1.28589
1.28744
0.224145
0.238142
0.246758
0.253262
0.250855
0.236553
0.227851
0.231556
0.25942
0.290021
0.337465
0.388003
0.434422
0.487704
0.516204
0.545102
0.569515
0.586484
0.611617
0.617431
0.591303
0.422783
0.258521
0.432446
0.535802
0.595698
0.643402
0.688833
0.727837
0.768295
0.804859
0.849641
0.889761
0.933706
0.975545
1.01514
1.06003
1.10639
1.16559
1.21966
1.01798
1.01766
1.01917
1.01939
1.02017
1.02012
1.0207
1.02049
1.02085
1.02045
1.02079
1.02013
1.02
1.01936
1.01824
1.0172
1.01467
1.01237
1.00787
1.00326
0.996417
0.989671
0.98365
0.98188
0.984778
0.992946
1.00303
1.00936
1.00953
1.00931
1.0093
1.00936
1.00952
1.00956
1.00948
1.00937
1.00921
1.00902
1.00882
1.00871
1.00069
1.00125
1.00021
1.00065
1.00005
1.00064
1.00014
1.0009
1.00044
1.00107
1.00103
1.00145
1.00207
1.00241
1.00383
1.00486
1.00737
1.00996
1.01385
1.01799
1.02217
1.0264
1.02811
1.02838
1.02674
1.02166
1.01398
1.0111
1.01065
1.01071
1.01077
1.01082
1.01076
1.01058
1.01039
1.01012
1.00972
1.00949
1.00925
1.00913
1.01603
1.01633
1.01794
1.01834
1.01928
1.01919
1.01976
1.01931
1.01972
1.01891
1.01882
1.01819
1.01729
1.01654
1.01489
1.01364
1.01091
1.00905
1.00545
1.00331
1.00047
1.00093
1.00242
1.00497
1.00695
1.00858
1.00928
1.00954
1.00966
1.00984
1.01004
1.01028
1.01046
1.01043
1.01028
1.01024
1.01008
1.00982
1.00968
1.00959
1.00258
1.00334
1.00267
1.00302
1.00257
1.00314
1.00281
1.00358
1.00358
1.00437
1.00477
1.00564
1.0067
1.00763
1.00933
1.01109
1.01315
1.01589
1.01816
1.02089
1.02263
1.02401
1.02434
1.02398
1.02206
1.01954
1.01735
1.01504
1.01321
1.0124
1.01216
1.01198
1.01159
1.01126
1.01101
1.0105
1.01025
1.01004
1.00985
1.00981
1.01453
1.01523
1.01635
1.01679
1.0175
1.01749
1.01779
1.01739
1.01745
1.01686
1.0163
1.01584
1.01476
1.01398
1.01246
1.01126
1.00933
1.00809
1.00619
1.00557
1.00526
1.00658
1.00739
1.00817
1.00894
1.01029
1.01096
1.01115
1.01105
1.01093
1.01111
1.01133
1.01132
1.01118
1.01115
1.01095
1.01059
1.01038
1.01021
1.01014
1.00484
1.00536
1.00498
1.00538
1.00512
1.00584
1.00591
1.00662
1.0071
1.00775
1.00839
1.00922
1.01024
1.0113
1.01245
1.0138
1.01498
1.01642
1.01743
1.01852
1.0193
1.02033
1.02055
1.0202
1.01896
1.01788
1.0171
1.01568
1.01411
1.01337
1.01311
1.01278
1.01216
1.01174
1.01135
1.01096
1.01082
1.01056
1.01044
1.0104
1.01346
1.01432
1.01511
1.01556
1.01595
1.016
1.01602
1.01585
1.01553
1.01537
1.01466
1.01428
1.01339
1.01272
1.01162
1.01087
1.00974
1.00914
1.00833
1.0082
1.00812
1.00898
1.0095
1.00994
1.01051
1.01157
1.01194
1.01208
1.01208
1.01207
1.01222
1.01223
1.01223
1.01214
1.01183
1.01139
1.01111
1.01086
1.01074
1.01072
1.00681
1.00712
1.00717
1.00762
1.00793
1.00844
1.00885
1.00941
1.00987
1.01046
1.01115
1.01179
1.01255
1.01325
1.01395
1.01472
1.01535
1.01606
1.01659
1.01728
1.01796
1.0183
1.01821
1.01755
1.01677
1.01648
1.016
1.01495
1.01407
1.01374
1.01356
1.01301
1.01253
1.0123
1.01194
1.01162
1.01134
1.0111
1.01102
1.01108
1.0129
1.01361
1.01405
1.01451
1.0146
1.01485
1.01477
1.0149
1.01457
1.01453
1.01396
1.0138
1.01322
1.01291
1.01236
1.01208
1.0117
1.0116
1.01118
1.01088
1.01088
1.01137
1.01137
1.0115
1.01205
1.01271
1.01296
1.01306
1.01306
1.01311
1.01314
1.01313
1.01305
1.01273
1.01235
1.012
1.01165
1.01138
1.01126
1.01126
1.00877
1.00912
1.00934
1.00988
1.01033
1.01076
1.01121
1.01168
1.01213
1.01264