/*--------------------------------*- C++ -*----------------------------------*\
  =========                 |
  \\      /  F ield         | OpenFOAM: The Open Source CFD Toolbox
   \\    /   O peration     | Website:  https://openfoam.org
    \\  /    A nd           | Version:  11
     \\/     M anipulation  |
\*---------------------------------------------------------------------------*/
FoamFile
{
    format      ascii;
    class       volScalarField;
    location    "4.5";
    object      p;
}
// * * * * * * * * * * * * * * * * * * * * * * * * * * * * * * * * * * * * * //

dimensions      [0 2 -2 0 0 0 0];

internalField   nonuniform List<scalar> 
9600
(
0.0540195
0.0548697
0.0562729
0.0581027
0.0602483
0.0624255
0.064313
0.0659054
0.0671782
0.0677155
0.0672663
0.0662663
0.0629938
0.0562961
0.0492785
0.0413425
0.03159
0.0208415
0.0111934
0.00349474
-0.00201834
-0.00345624
-0.0013544
0.00183954
0.00335999
0.0010641
-0.00667578
-0.0187189
-0.0321773
-0.0402177
-0.0400889
-0.0347567
-0.0282561
-0.0220408
-0.0167642
-0.0128983
-0.0102625
-0.00823602
-0.00701603
-0.00620622
0.0545402
0.0557705
0.0574844
0.059525
0.06177
0.063883
0.0655969
0.0669609
0.0679663
0.0679643
0.0677068
0.0660604
0.0619439
0.0547184
0.0475685
0.0398956
0.0300811
0.0197019
0.0102064
0.00261012
-0.0027289
-0.00415335
-0.00214838
0.00115542
0.00329244
0.00186263
-0.00466499
-0.0158168
-0.0292287
-0.0394704
-0.042062
-0.038493
-0.0326356
-0.02621
-0.0201959
-0.0155761
-0.0121729
-0.00958985
-0.00764077
-0.00668557
0.0549432
0.0562775
0.0580401
0.0599703
0.0620003
0.0638653
0.0653545
0.0666199
0.0674048
0.0674466
0.0670187
0.0649367
0.06054
0.0538812
0.0468997
0.0393591
0.0296682
0.019308
0.0101658
0.00285564
-0.00238834
-0.00386974
-0.00181955
0.00154373
0.00376401
0.00275578
-0.00311957
-0.0137435
-0.0267262
-0.038101
-0.0416657
-0.0383083
-0.0323248
-0.025955
-0.0200974
-0.015447
-0.012228
-0.00991413
-0.00819378
-0.00707265
0.0554678
0.0569278
0.0588591
0.0609233
0.0630459
0.0649222
0.066434
0.0676448
0.0683499
0.0681685
0.0671985
0.0649848
0.0599971
0.0537219
0.0463394
0.0381836
0.0286832
0.0183647
0.00914676
0.00156318
-0.00369459
-0.00509956
-0.00299157
0.000691272
0.00352891
0.00324005
-0.00191333
-0.0121743
-0.0248748
-0.0375117
-0.0434715
-0.0417723
-0.036605
-0.0301787
-0.0237775
-0.018458
-0.0143837
-0.0113017
-0.00896454
-0.00741334
0.0560848
0.0576574
0.0597059
0.0617889
0.0637538
0.0653767
0.066625
0.0675585
0.0680012
0.0675678
0.0665048
0.0639518
0.0586863
0.0527881
0.0451943
0.0372604
0.0278344
0.0175441
0.00851012
0.00115676
-0.00384942
-0.0052407
-0.00303529
0.000879766
0.00402524
0.00426998
-0.000104584
-0.00955397
-0.0222364
-0.034013
-0.0429665
-0.0429043
-0.037993
-0.0314898
-0.024868
-0.0192322
-0.0150846
-0.0120933
-0.00977984
-0.00807111
0.0567886
0.0584423
0.0605616
0.0626287
0.0644709
0.0659637
0.0671934
0.0681363
0.0684101
0.067956
0.0667712
0.063706
0.0584418
0.0524383
0.0454443
0.0364657
0.0269508
0.0166434
0.00749025
-1.8979e-05
-0.00518284
-0.00652845
-0.00417907
0.000116898
0.00395187
0.00503544
0.00146367
-0.00767316
-0.0209001
-0.0345862
-0.0434358
-0.0453563
-0.0414918
-0.0351335
-0.0282079
-0.0221225
-0.0172912
-0.0135991
-0.0108874
-0.00873981
0.0575633
0.059264
0.0614241
0.0634584
0.0652011
0.0666039
0.0677272
0.0684213
0.0684517
0.0679019
0.0663902
0.0629628
0.0576556
0.0516985
0.0441723
0.0355037
0.0258527
0.0155519
0.00636207
-0.00113914
-0.00614571
-0.00737963
-0.00487026
-0.000171807
0.00423066
0.00602938
0.00329567
-0.00499942
-0.0177116
-0.0319018
-0.0429986
-0.0470237
-0.0444248
-0.0382952
-0.030998
-0.0242475
-0.0189693
-0.0150567
-0.0121986
-0.0100637
0.0584022
0.0601148
0.0622881
0.0642913
0.0659492
0.0672479
0.0682067
0.0686951
0.0686215
0.0679998
0.0661814
0.0625092
0.0572786
0.0512307
0.0436995
0.0347192
0.0248731
0.0144867
0.00512756
-0.00252629
-0.00752147
-0.00873131
-0.00602534
-0.000908129
0.00426217
0.00702079
0.00527138
-0.00227385
-0.0153442
-0.0303734
-0.0429213
-0.0487999
-0.0476411
-0.0420723
-0.0346164
-0.0273711
-0.0214721
-0.017026
-0.0136236
-0.0110555
0.0592791
0.0609928
0.0631646
0.0651303
0.0667068
0.0678826
0.0686723
0.0690098
0.06885
0.0680601
0.0659165
0.0620763
0.0568739
0.0507327
0.042927
0.0337066
0.0236991
0.0131938
0.00365537
-0.00409046
-0.00907778
-0.0101975
-0.00728592
-0.00168347
0.0042959
0.0080258
0.00722694
0.000606791
-0.0119628
-0.0274624
-0.0415833
-0.050195
-0.0510568
-0.0462983
-0.0388565
-0.0310273
-0.024335
-0.0192135
-0.0155265
-0.0129622
0.0601927
0.0619004
0.0640583
0.0659785
0.0674717
0.0685157
0.0691523
0.0693653
0.0690749
0.0680909
0.0656716
0.0617229
0.056509
0.0501785
0.04216
0.0327345
0.0225388
0.0118605
0.00207904
-0.00587049
-0.0109197
-0.0119209
-0.00874101
-0.00264228
0.00413676
0.00896358
0.00937003
0.00378051
-0.00846546
-0.0248142
-0.0406814
-0.0514138
-0.054555
-0.0508922
-0.0434687
-0.0351025
-0.0276833
-0.0218858
-0.0175346
-0.014402
0.061141
0.0628417
0.0649682
0.0668419
0.0682431
0.0691565
0.0696604
0.0697436
0.0693066
0.0681088
0.0654787
0.0614443
0.0561753
0.0496614
0.0413979
0.0317004
0.0212109
0.0102884
0.000198491
-0.00795017
-0.0129703
-0.0138885
-0.0104627
-0.00385429
0.00382288
0.00985923
0.0115103
0.0070808
-0.00451847
-0.0211387
-0.0387366
-0.0521056
-0.0579094
-0.05578
-0.0487837
-0.0400492
-0.0317339
-0.0250406
-0.0201088
-0.0169295
0.0621483
0.0638192
0.0659048
0.0677194
0.0690219
0.0698256
0.0701906
0.0701417
0.069574
0.0681492
0.0653249
0.0612198
0.0559179
0.0491186
0.0405219
0.0305156
0.0197699
0.00858678
-0.00181648
-0.0101984
-0.015336
-0.0162361
-0.0125469
-0.00537396
0.00327743
0.0106207
0.0137963
0.010782
-7.09172e-05
-0.0170943
-0.0364756
-0.05253
-0.0611964
-0.0612561
-0.0550381
-0.0458707
-0.0366785
-0.0290316
-0.0232413
-0.0192674
0.0632035
0.0648259
0.0668605
0.0686094
0.069829
0.0705241
0.0707436
0.0705634
0.0698783
0.0682285
0.0652455
0.0610591
0.0556233
0.048489
0.0395949
0.0293286
0.0182331
0.00666407
-0.00410124
-0.0127823
-0.0180937
-0.0188943
-0.0148922
-0.00724497
0.00246625
0.0112224
0.0160022
0.0145465
0.00476952
-0.0121577
-0.0331111
-0.0519596
-0.0641384
-0.0669284
-0.0619257
-0.0527384
-0.0426708
-0.0338338
-0.0269806
-0.0226124
0.0643046
0.0658613
0.0678408
0.0695325
0.0706745
0.0712472
0.0713364
0.0710364
0.0702166
0.0683718
0.0652354
0.0609262
0.0552983
0.0478767
0.0386169
0.0279656
0.0164523
0.00449376
-0.00666331
-0.0156314
-0.0210681
-0.0219169
-0.0176478
-0.00956734
0.00118612
0.0113969
0.0181392
0.0186485
0.0103097
-0.00639106
-0.0289159
-0.0505953
-0.0665654
-0.0728547
-0.0699569
-0.061001
-0.0500135
-0.0399211
-0.0319566
-0.026607
0.0654338
0.0669284
0.0688597
0.0705055
0.0715678
0.0720069
0.0719707
0.0715691
0.0705865
0.0686042
0.0652998
0.0609022
0.0550274
0.0471636
0.0374617
0.0264561
0.0145446
0.00216881
-0.00949705
-0.0188743
-0.0244663
-0.0254342
-0.0207767
-0.0123983
-0.000501346
0.0112163
0.0200306
0.0226786
0.0161688
0.000268013
-0.0233575
-0.0479285
-0.0681003
-0.07877
-0.0787039
-0.0705799
-0.0589143
-0.04743
-0.0378924
-0.0315165
0.0665914
0.0680412
0.0699379
0.071539
0.0725133
0.0728254
0.0726854
0.0721791
0.071019
0.0688738
0.0654524
0.0608637
0.0546282
0.0463498
0.0362468
0.0248118
0.0123977
-0.000508376
-0.0126976
-0.0224533
-0.0282551
-0.0294242
-0.0244527
-0.0155653
-0.00268645
0.0102303
0.02131
0.026607
0.022626
0.00806648
-0.016281
-0.0438621
-0.0685868
-0.0841681
-0.0882725
-0.0820713
-0.0700375
-0.0569696
-0.0457488
-0.0381072
0.0678061
0.0692225
0.0710924
0.0726399
0.0735182
0.0737142
0.0734896
0.0728644
0.0715374
0.069242
0.0656666
0.0607672
0.0542015
0.04548
0.034852
0.0229234
0.0099473
-0.00351551
-0.0161681
-0.0263834
-0.032518
-0.0339303
-0.0290691
-0.0191489
-0.00557993
0.00877876
0.0221535
0.0300835
0.0291308
0.0166658
-0.00734911
-0.0375758
-0.0671456
-0.0889013
-0.0984664
-0.0952314
-0.0834585
-0.0690635
-0.0557212
-0.0462072
0.0690983
0.0704909
0.0723311
0.0738188
0.0745899
0.0747187
0.0744008
0.0736085
0.0721369
0.0697129
0.06591
0.0606975
0.0536967
0.0444569
0.0332856
0.0207718
0.00724444
-0.00679223
-0.0200946
-0.0309284
-0.0372715
-0.0388192
-0.0344506
-0.0235117
-0.00899717
0.00668847
0.0221111
0.0327874
0.0355925
0.0260545
0.00356459
-0.0286191
-0.0631728
-0.0919447
-0.108401
-0.110193
-0.100188
-0.0846056
-0.0687484
-0.0572031
0.0704987
0.0718543
0.0736536
0.0750596
0.0757494
0.0758605
0.0754572
0.0745175
0.0728779
0.0701921
0.0661689
0.0605821
0.0530709
0.0432774
0.0315002
0.0184031
0.00421317
-0.0106162
-0.0244798
-0.0358396
-0.0425948
-0.044327
-0.0403591
-0.0289789
-0.0133349
0.00366218
0.0215222
0.0348282
0.0416148
0.0356968
0.0161244
-0.0167408
-0.055214
-0.0918805
-0.117404
-0.126611
-0.120197
-0.104373
-0.0860737
-0.0715538
0.0720174
0.0733372
0.075104
0.0764102
0.0770474
0.0771095
0.0766507
0.0755979
0.0737158
0.0707421
0.0663898
0.0603735
0.052328
0.0419801
0.0295203
0.0157054
0.000736616
-0.0148519
-0.0293008
-0.0413329
-0.0486357
-0.0505195
-0.0467664
-0.0354453
-0.0187918
-0.000166561
0.0197351
0.035783
0.0469548
0.0454926
0.0300488
-0.00214492
-0.0429085
-0.0875341
-0.123055
-0.142717
-0.14355
-0.129805
-0.109116
-0.0911513
0.0736872
0.0749574
0.076667
0.0779413
0.078564
0.0785698
0.0780114
0.0767789
0.0746277
0.0712939
0.0665584
0.0601165
0.051347
0.0404273
0.0272647
0.0125535
-0.00308484
-0.0195588
-0.034851
-0.0475075
-0.0552773
-0.0574599
-0.053727
-0.0426717
-0.0256547
-0.00551629
0.0163893
0.0355806
0.0512652
0.0549196
0.0449459
0.0151301
-0.0263858
-0.0784043
-0.123754
-0.156847
-0.168739
-0.161312
-0.140065
-0.118483
0.0755251
0.0767342
0.0784132
0.0796686
0.0802811
0.0802143
0.0795231
0.0780764
0.0756123
0.0718895
0.0666581
0.0597281
0.0502821
0.0385619
0.0246217
0.00906144
-0.00744378
-0.024962
-0.0410021
-0.0542901
-0.0627767
-0.0652923
-0.0615619
-0.050853
-0.0336938
-0.0124078
0.0114048
0.0335344
0.0535137
0.0631775
0.059766
0.0354906
-0.00485257
-0.0636609
-0.119018
-0.166869
-0.192524
-0.197121
-0.180367
-0.156781
0.0775468
0.0787194
0.0803912
0.0816426
0.082254
0.0820939
0.0811937
0.0794719
0.0766263
0.0725211
0.0666863
0.0590889
0.0488935
0.0363004
0.0216649
0.004991
-0.0125633
-0.0309416
-0.0478472
-0.0619029
-0.0711669
-0.0741303
-0.0705126
-0.060241
-0.0429238
-0.0209188
0.00419632
0.0293788
0.0532724
0.0693113
0.0728898
0.0575689
0.02187
-0.0402415
-0.106223
-0.172671
-0.215877
-0.236506
-0.229239
-0.207223
0.0797946
0.0809498
0.0826704
0.0839055
0.0844346
0.0842025
0.083037
0.0809771
0.077707
0.0730997
0.0666811
0.0582429
0.0471945
0.0336735
0.0181792
0.000266197
-0.0183148
-0.0376782
-0.0556479
-0.0703582
-0.0804273
-0.0840258
-0.0806453
-0.0708933
-0.0538286
-0.0313472
-0.00507118
0.0228165
0.0496097
0.0720744
0.0826949
0.0789062
0.0509344
-0.00522716
-0.0819314
-0.166346
-0.235696
-0.28186
-0.289448
-0.27445
0.0823635
0.0835203
0.0853008
0.0865445
0.0869249
0.0864953
0.0850405
0.0825671
0.0787984
0.0735506
0.0664081
0.0570411
0.045159
0.0305022
0.0139117
-0.00505299
-0.0249646
-0.0454479
-0.064413
-0.0797824
-0.090767
-0.0951946
-0.0921364
-0.0829956
-0.0664894
-0.0437044
-0.0169116
0.0131033
0.0421304
0.0700613
0.087799
0.0962555
0.0793525
0.0384293
-0.0411182
-0.13504
-0.236822
-0.32162
-0.364306
-0.368393
0.0853139
0.0865014
0.0883211
0.089542
0.0897169
0.0889661
0.0872144
0.084226
0.0799004
0.0739225
0.06593
0.0554978
0.0425766
0.0267409
0.00891233
-0.0113111
-0.0326035
-0.0541588
-0.0743985
-0.0904063
-0.102166
-0.107777
-0.1053
-0.0965071
-0.0810185
-0.0583835
-0.0314429
-0.000435571
0.0308156
0.0621942
0.0871107
0.105281
0.103746
0.0807132
0.0160471
-0.0679137
-0.194893
-0.316639
-0.419312
-0.472125
0.0888222
0.0899914
0.0917437
0.0928706
0.0929016
0.0916714
0.0894536
0.0859206
0.0809286
0.0739689
0.0650842
0.0534672
0.039287
0.0221686
0.00286479
-0.0186589
-0.0414812
-0.0639641
-0.0855712
-0.102615
-0.114953
-0.121574
-0.120337
-0.112009
-0.0974191
-0.0757356
-0.048877
-0.0177363
0.0154922
0.0488732
0.0796645
0.103469
0.116861
0.111695
0.0703432
0.0103537
-0.105293
-0.228942
-0.391176
-0.501323
0.0929274
0.0940186
0.0956875
0.0965185
0.0963111
0.0947079
0.0919235
0.0876109
0.0817748
0.0738032
0.0636903
0.0507891
0.0350363
0.0167066
-0.00447861
-0.027255
-0.0517456
-0.0754483
-0.0979949
-0.116339
-0.129496
-0.136891
-0.137041
-0.129847
-0.116137
-0.0956376
-0.0694121
-0.0385712
-0.00435694
0.0301995
0.0646027
0.0924354
0.114415
0.121991
0.103975
0.0644318
-0.00930646
-0.104606
-0.275029
-0.403598
0.0976955
0.0985538
0.100115
0.100733
0.100076
0.0979053
0.0943024
0.089249
0.0823497
0.07318
0.0614683
0.0473994
0.0296578
0.00972616
-0.0131107
-0.0376719
-0.0635067
-0.0887203
-0.11215
-0.131727
-0.145919
-0.154254
-0.155719
-0.149925
-0.137505
-0.118512
-0.0935256
-0.0637138
-0.0291504
0.00631899
0.0422154
0.0741662
0.099538
0.117495
0.115094
0.0912664
0.0493849
-0.0235973
-0.135223
-0.260359
0.103268
0.103835
0.10507
0.105346
0.104098
0.101258
0.0967321
0.0905062
0.0822634
0.0718648
0.0582735
0.0423541
0.0230747
0.000881903
-0.0234735
-0.0500905
-0.077419
-0.104002
-0.128469
-0.148995
-0.164307
-0.173822
-0.176651
-0.172437
-0.161515
-0.144589
-0.121444
-0.0932207
-0.0596667
-0.023608
0.0132032
0.0489397
0.0776957
0.10243
0.11421
0.107187
0.0855342
0.039086
-0.0360292
-0.146584
0.1098
0.10992
0.110664
0.110293
0.108354
0.104708
0.0990897
0.0917024
0.0816065
0.069236
0.0539479
0.0355578
0.014533
-0.00992259
-0.0364462
-0.0648877
-0.0938257
-0.121707
-0.147154
-0.168791
-0.184903
-0.195917
-0.199914
-0.197694
-0.188758
-0.174298
-0.153714
-0.12774
-0.0961515
-0.0593337
-0.0225353
0.0155188
0.0483794
0.0761111
0.0999064
0.110056
0.102782
0.0793773
0.022547
-0.0614832
0.117448
0.116888
0.116843
0.115762
0.112736
0.107905
0.100852
0.0911784
0.0793599
0.0647655
0.0472986
0.0265664
0.00297911
-0.0237145
-0.0525071
-0.0828308
-0.113316
-0.142583
-0.16874
-0.191454
-0.208406
-0.220417
-0.226126
-0.225564
-0.219346
-0.207515
-0.191151
-0.167701
-0.139731
-0.104708
-0.0660961
-0.0272062
0.0109094
0.0410551
0.0686291
0.0904869
0.0994198
0.0944502
0.0644565
0.00973609
0.125858
0.124731
0.123978
0.121796
0.117612
0.110951
0.102059
0.0902629
0.0755511
0.0582818
0.0378319
0.0143968
-0.0119719
-0.0411998
-0.072418
-0.104661
-0.136694
-0.166971
-0.193961
-0.217166
-0.235375
-0.247832
-0.255544
-0.25642
-0.253367
-0.244977
-0.232391
-0.214643
-0.189974
-0.159787
-0.122507
-0.0816902
-0.0408013
-0.00176564
0.0296166
0.0538766
0.0734086
0.0812571
0.0758587
0.0535653
0.135385
0.132865
0.13085
0.126726
0.120431
0.111619
0.0998343
0.0854863
0.0678345
0.0474081
0.0237241
-0.00309521
-0.0322705
-0.0642334
-0.0978362
-0.13185
-0.164985
-0.19596
-0.223607
-0.246984
-0.265989
-0.278937
-0.287823
-0.291459
-0.290699
-0.287398
-0.279141
-0.266985
-0.24902
-0.224341
-0.19231
-0.153881
-0.111008
-0.0677342
-0.0282185
0.0089532
0.035891
0.0518728
0.0625713
0.0610535
0.147689
0.143505
0.139619
0.133412
0.124257
0.11193
0.0963492
0.0778124
0.0560797
0.031449
0.00400617
-0.0264972
-0.0589076
-0.0936283
-0.129389
-0.164832
-0.198932
-0.230234
-0.257873
-0.281071
-0.299441
-0.312782
-0.322015
-0.328178
-0.331267
-0.332853
-0.331794
-0.326523
-0.316639
-0.299897
-0.277175
-0.245058
-0.20664
-0.164238
-0.117578
-0.0736392
-0.0317448
0.00532981
0.0280552
0.0399789
0.155386
0.147532
0.140388
0.130673
0.118198
0.102484
0.0829905
0.0605153
0.0344763
0.00547415
-0.0260338
-0.0600144
-0.0955684
-0.132306
-0.16972
-0.205852
-0.240209
-0.270929
-0.297688
-0.319455
-0.336303
-0.348758
-0.357763
-0.365283
-0.371965
-0.378379
-0.384722
-0.389368
-0.38995
-0.386208
-0.374413
-0.355051
-0.329103
-0.295421
-0.256178
-0.207862
-0.155463
-0.108883
-0.0650719
-0.0336164
0.178893
0.167459
0.154185
0.136332
0.114471
0.0895139
0.0609038
0.0301603
-0.00283095
-0.0377894
-0.0746137
-0.113168
-0.152639
-0.19212
-0.231006
-0.267285
-0.300903
-0.329089
-0.35259
-0.370064
-0.382522
-0.391808
-0.39862
-0.40639
-0.414837
-0.425834
-0.43928
-0.452425
-0.464922
-0.474435
-0.477888
-0.478561
-0.475193
-0.465693
-0.443161
-0.407354
-0.364083
-0.313044
-0.261916
-0.220671
0.146758
0.12601
0.105762
0.0843676
0.0600677
0.0320044
-0.00043857
-0.0361822
-0.0744665
-0.114508
-0.15646
-0.198576
-0.241487
-0.282869
-0.322184
-0.358599
-0.39113
-0.417005
-0.435811
-0.447871
-0.453493
-0.456597
-0.457586
-0.461386
-0.469039
-0.483006
-0.50103
-0.522171
-0.541017
-0.550239
-0.560887
-0.582719
-0.619777
-0.657896
-0.681188
-0.679516
-0.661927
-0.637002
-0.612314
-0.588408
0.211886
0.177437
0.138994
0.100579
0.0612043
0.0210634
-0.0209592
-0.0644024
-0.109369
-0.154318
-0.199521
-0.242404
-0.283423
-0.32093
-0.354722
-0.384762
-0.409469
-0.427722
-0.43993
-0.444901
-0.444601
-0.439712
-0.43287
-0.430152
-0.433083
-0.45079
-0.483099
-0.529894
-0.567981
-0.573188
-0.559687
-0.557056
-0.586051
-0.632783
-0.679678
-0.7199
-0.749361
-0.766013
-0.766699
-0.751764
-0.0750142
-0.11074
-0.151757
-0.202527
-0.258006
-0.31257
-0.367021
-0.419933
-0.472177
-0.520333
-0.56124
-0.593939
-0.620969
-0.646
-0.666847
-0.683006
-0.691486
-0.691563
-0.683762
-0.668813
-0.648498
-0.620845
-0.588675
-0.554543
-0.528061
-0.513895
-0.517431
-0.54696
-0.565803
-0.569883
-0.5729
-0.577717
-0.586613
-0.597534
-0.609837
-0.622574
-0.634387
-0.643199
-0.647131
-0.647977
-0.00506509
-0.0036063
-0.00247043
-0.0012836
0.000411464
0.00140299
0.00189453
0.00244256
0.00203088
0.00203605
0.00173086
0.0011487
0.000542708
-0.00017642
-0.000680684
-0.00107904
-0.0014531
-0.00169063
-0.0017947
-0.00173376
-0.00166614
-0.00161263
-0.00149855
-0.00131436
-0.00108518
-0.000843002
-0.00063875
-0.000423187
-0.000191827
-5.00214e-07
0.000173311
0.000297749
0.000421147
0.000533893
0.000649972
0.000776657
0.000989071
0.00118731
0.00164051
0.000684291
-0.0048284
-0.00416355
-0.00278723
-0.00139693
0.000261078
0.00149506
0.00186722
0.00238825
0.00194133
0.00211802
0.00186089
0.00123868
0.000580134
-0.000129071
-0.000747334
-0.00116004
-0.00160389
-0.00180516
-0.00188211
-0.00185696
-0.00183636
-0.00178703
-0.00166841
-0.00149694
-0.00127315
-0.000993459
-0.000742197
-0.000499309
-0.000250119
-4.34196e-05
0.000121503
0.000225512
0.00034252
0.000461672
0.000599673
0.0007461
0.000933344
0.0010909
0.000885311
-0.000506576
-0.00553898
-0.00473785
-0.00314895
-0.0015074
0.000140902
0.00154718
0.001855
0.00219342
0.00197844
0.00217643
0.0019877
0.00131147
0.000639035
-9.81132e-06
-0.000779283
-0.00127696
-0.00173041
-0.00191111
-0.00198719
-0.00202581
-0.00204419
-0.00196793
-0.00185027
-0.00171974
-0.00148971
-0.00119921
-0.000928841
-0.000650405
-0.00038119
-0.00015719
1.19213e-05
0.000127364
0.000264312
0.000396902
0.00054439
0.000683708
0.000869386
0.0011568
0.00150536
0.00187308
-0.00584921
-0.00518587
-0.00355261
-0.00164063
4.78231e-05
0.00154349
0.00180512
0.00198566
0.002151
0.00214451
0.00214919
0.0014686
0.000757488
7.64699e-05
-0.00082428
-0.00134386
-0.00176843
-0.00202413
-0.00217897
-0.00224348
-0.00222433
-0.00208987
-0.00197125
-0.00186559
-0.0016392
-0.00140276
-0.00114456
-0.000862207
-0.000596866
-0.000350682
-0.000164326
-1.07127e-05
0.00015825
0.000313589
0.000465622
0.000600284
0.000773242
0.000912148
0.000820191
0.000191183
-0.00636757
-0.0057173
-0.00403365
-0.00187599
-6.54444e-05
0.001502
0.00176907
0.0016413
0.00218258
0.00213261
0.0023769
0.00166273
0.000916992
0.000135591
-0.00077499
-0.00136682
-0.00184247
-0.00220421
-0.00239128
-0.00243984
-0.0023823
-0.00221204
-0.00207389
-0.00192211
-0.00169607
-0.00152744
-0.00131677
-0.00108649
-0.000843046
-0.000595461
-0.000390608
-0.000199089
4.70383e-06
0.000190235
0.000356178
0.000506662
0.000695807
0.000953414
0.00131735
0.00185777
-0.00675244
-0.0061693
-0.00464977
-0.0022045
-0.000243722
0.0014289
0.00173737
0.00115008
0.00218239
0.00225672
0.00270118
0.00188577
0.00117181
0.000222462
-0.000698578
-0.00142097
-0.00194135
-0.0023202
-0.00251825
-0.00260225
-0.00254313
-0.00238914
-0.0022449
-0.00201501
-0.00176825
-0.00162272
-0.00146075
-0.00129988
-0.00108829
-0.000847559
-0.000621161
-0.000398517
-0.000162504
5.23876e-05
0.000246836
0.000419963
0.000603095
0.000755683
0.000733117
0.000460232
-0.00775555
-0.00680927
-0.00539547
-0.00269518
-0.000543815
0.0012858
0.0017158
0.000554585
0.00218889
0.0026059
0.00311697
0.00222829
0.00143674
0.000376525
-0.000601441
-0.00146218
-0.00199433
-0.00238267
-0.00260971
-0.00271627
-0.00266672
-0.00260997
-0.00250092
-0.00220851
-0.00194033
-0.00177464
-0.00163907
-0.00151243
-0.00131464
-0.00106922
-0.000822713
-0.000578921
-0.000324359
-9.10647e-05
0.00012566
0.000297727
0.000482605
0.000687912
0.00102401
0.00153404
-0.00871858
-0.00759957
-0.00634682
-0.00338461
-0.00101303
0.00103114
0.00176349
-0.000113891
0.00224216
0.0031801
0.00357121
0.00280391
0.00167402
0.00056855
-0.000459904
-0.00142792
-0.00200746
-0.00243229
-0.0027126
-0.0028189
-0.0027914
-0.00282036
-0.00271768
-0.00242721
-0.0022026
-0.00201452
-0.00187481
-0.00172532
-0.00152401
-0.00127058
-0.00101795
-0.000763129
-0.00050969
-0.00028041
-6.42976e-05
0.00010632
0.000310342
0.000477504
0.000535116
0.000510211
-0.0101778
-0.00868922
-0.00760537
-0.00435519
-0.00171736
0.000643658
0.00194587
-0.000674383
0.00238908
0.00386402
0.00417823
0.00355954
0.00200362
0.000856969
-0.00021395
-0.00125182
-0.00195143
-0.0024798
-0.00284606
-0.00293975
-0.00295443
-0.002984
-0.00285186
-0.0026271
-0.00249817
-0.00230577
-0.00215543
-0.00197772
-0.00175874
-0.00148593
-0.0012398
-0.000984692
-0.000745233
-0.000513799
-0.00029813
-0.000105004
0.000137082
0.000363998
0.000705929
0.00113683
-0.0116336
-0.00999103
-0.00923561
-0.00579781
-0.00271709
-8.9453e-07
0.0022708
-0.000894559
0.00274082
0.00470458
0.00510788
0.00443061
0.0025577
0.00132351
7.05998e-05
-0.00101061
-0.00188315
-0.00254018
-0.00297831
-0.00309516
-0.0031765
-0.00316272
-0.0030021
-0.0028381
-0.00278927
-0.00261849
-0.0024703
-0.00225646
-0.00200296
-0.00171107
-0.00146653
-0.00119453
-0.000947333
-0.000696905
-0.000475269
-0.000247069
1.82187e-05
0.00022166
0.000400435
0.000503185
-0.0137098
-0.0117275
-0.011286
-0.00779692
-0.00405255
-0.00094451
0.00266643
-0.000533088
0.00336894
0.00582978
0.00639274
0.00541937
0.00331824
0.00185341
0.000374529
-0.000716476
-0.00180617
-0.00256992
-0.00306085
-0.00325289
-0.0034439
-0.00344563
-0.00330495
-0.00318185
-0.00313872
-0.00295852
-0.00280363
-0.00253617
-0.00224936
-0.00193443
-0.00165648
-0.00134197
-0.00107059
-0.00080432
-0.000598872
-0.000360777
-0.000112952
0.000106515
0.000422
0.000732876
-0.0158548
-0.0139282
-0.0139011
-0.0105432
-0.00593403
-0.00222963
0.00301401
0.000690378
0.00421636
0.00731824
0.00790018
0.00650739
0.00429789
0.00247882
0.000764063
-0.000404411
-0.00170313
-0.00252995
-0.00307737
-0.00341382
-0.00373298
-0.00380964
-0.00373499
-0.00365781
-0.00357469
-0.00337428
-0.00319568
-0.0028675
-0.00255602
-0.0022021
-0.00187561
-0.00154769
-0.00126241
-0.0010106
-0.000829942
-0.000584594
-0.000360297
-0.00011017
0.00017504
0.000340941
-0.0188971
-0.0169798
-0.0172751
-0.014252
-0.0085428
-0.00390003
0.00293146
0.0032428
0.005255
0.00925101
0.00956222
0.00783034
0.00550963
0.00324899
0.00125284
-0.000127609
-0.001554
-0.00248443
-0.00309233
-0.00356341
-0.00394325
-0.00412502
-0.00419044
-0.00420534
-0.00408657
-0.0038873
-0.00366254
-0.00331265
-0.00297583
-0.00260921
-0.00228929
-0.00198197
-0.00172136
-0.00148478
-0.00125985
-0.000962921
-0.000694231
-0.000364413
-1.33574e-05
0.000271058
-0.022329
-0.020956
-0.0217729
-0.0192444
-0.0122111
-0.00606654
0.00263706
0.0065212
0.00697624
0.0118201
0.0114701
0.00954509
0.0068766
0.00419554
0.00185832
0.000165086
-0.00135337
-0.0024527
-0.00312043
-0.00373541
-0.00416776
-0.00446383
-0.00465872
-0.00473112
-0.0045992
-0.0044114
-0.00414221
-0.00381486
-0.00347641
-0.0031306
-0.00282173
-0.00253443
-0.00227748
-0.00198386
-0.00164059
-0.00126109
-0.000933756
-0.000570463
-0.000235445
-9.21461e-06
-0.0268203
-0.0262873
-0.027811
-0.0259371
-0.0174101
-0.00899552
0.00177579
0.00999767
0.0100176
0.015164
0.0138606
0.011684
0.0084623
0.00533738
0.0025968
0.000564071
-0.00111955
-0.00242898
-0.00325741
-0.00406436
-0.00454655
-0.00490058
-0.00511678
-0.0051977
-0.00509495
-0.00489113
-0.00458187
-0.0042652
-0.00390229
-0.00354943
-0.00320855
-0.00290259
-0.00259227
-0.00223232
-0.00182937
-0.00144246
-0.00109708
-0.000763744
-0.000494416
-0.00025994
-0.0324176
-0.033063
-0.0358555
-0.0346696
-0.0247122
-0.0130111
0.000174168
0.0130661
0.014182
0.0191829
0.0169615
0.0143376
0.0104856
0.00666785
0.00354605
0.00115504
-0.000808563
-0.00238543
-0.00347261
-0.00448527
-0.00504686
-0.00543874
-0.00564232
-0.00571208
-0.00562244
-0.00538251
-0.00503901
-0.00467897
-0.0042806
-0.00389993
-0.00352348
-0.00320617
-0.00284256
-0.00247549
-0.00207173
-0.00170548
-0.00136444
-0.00104083
-0.000734466
-0.000551942
-0.0395723
-0.0421423
-0.046976
-0.0462141
-0.0349239
-0.0186491
-0.00221095
0.0157016
0.0186569
0.0238299
0.0208889
0.017607
0.0129173
0.00814202
0.00470849
0.00194525
-0.000340896
-0.0022284
-0.00361102
-0.00479713
-0.00550477
-0.00599754
-0.00623602
-0.00630799
-0.00624927
-0.00597715
-0.00565063
-0.00526096
-0.00488617
-0.0045058
-0.0041596
-0.00384265
-0.00346099
-0.00310983
-0.00267861
-0.00226539
-0.00183734
-0.00146367
-0.0011489
-0.000988923
-0.0491118
-0.054287
-0.0626667
-0.0621599
-0.049046
-0.0268466
-0.00542608
0.0175528
0.0234013
0.0289717
0.0254465
0.0211416
0.0154585
0.00979656
0.00599683
0.00281291
0.000232058
-0.00195478
-0.00362267
-0.00497443
-0.00587272
-0.00648551
-0.00678863
-0.00693389
-0.00689286
-0.00663655
-0.00638256
-0.00602294
-0.00574554
-0.0053957
-0.0051128
-0.00476533
-0.00437955
-0.00396571
-0.00343562
-0.00291581
-0.00240168
-0.0019813
-0.00164294
-0.00147767
-0.0616203
-0.0711364
-0.0847932
-0.0850871
-0.0687629
-0.0389019
-0.00981549
0.0181091
0.0288343
0.0342602
0.03016
0.0245569
0.0179685
0.0116779
0.00733284
0.00367102
0.000757429
-0.00179996
-0.00372308
-0.00526201
-0.00625443
-0.00695369
-0.00725492
-0.00742825
-0.00737765
-0.00719379
-0.00699403
-0.00668432
-0.00647789
-0.00613707
-0.00587189
-0.00547891
-0.00509602
-0.00460091
-0.00403685
-0.00350533
-0.00299789
-0.00255624
-0.00217997
-0.0019935
-0.0781835
-0.0945557
-0.116059
-0.118095
-0.096614
-0.0565522
-0.016474
0.0171078
0.034672
0.0397686
0.0349523
0.0281189
0.0206292
0.013773
0.00880661
0.00446165
0.000985794
-0.00187866
-0.00402183
-0.00574781
-0.00675528
-0.00750443
-0.00775259
-0.00793553
-0.00783337
-0.00768201
-0.00746356
-0.00716597
-0.00695192
-0.00661794
-0.00637994
-0.0059966
-0.00564279
-0.005153
-0.00466143
-0.00416769
-0.00367179
-0.00320624
-0.00280306
-0.00259717
-0.101714
-0.129254
-0.165147
-0.165845
-0.135895
-0.0818626
-0.027005
0.0144954
0.0392622
0.0458444
0.0399132
0.0321252
0.0237738
0.0161387
0.0104955
0.00529164
0.00111188
-0.00200017
-0.00439697
-0.00632883
-0.00741347
-0.00829863
-0.00861662
-0.00884357
-0.00867795
-0.00854869
-0.00824919
-0.00792083
-0.00765971
-0.00736862
-0.00714044
-0.00675974
-0.00639953
-0.00590116
-0.00543709
-0.0049247
-0.00439899
-0.003889
-0.00346313
-0.00325227
-0.138743
-0.185246
-0.238608
-0.241008
-0.192058
-0.117213
-0.0428949
0.00972457
0.0416455
0.0513416
0.0445347
0.0362291
0.0271302
0.0188134
0.0122286
0.00638676
0.00158921
-0.00196814
-0.0047226
-0.00681275
-0.00822007
-0.00937702
-0.00987488
-0.0101842
-0.00997606
-0.00984114
-0.00946212
-0.00911127
-0.00877394
-0.00845367
-0.00812787
-0.00768354
-0.00723807
-0.00667269
-0.00617112
-0.00560751
-0.00506815
-0.00453773
-0.00412237
-0.00392882
-0.186268
-0.265841
-0.346594
-0.344227
-0.266086
-0.163603
-0.0648449
0.00170781
0.0414001
0.0545247
0.0479994
0.0395036
0.0298399
0.0212408
0.0138042
0.0076058
0.00239028
-0.00172195
-0.0049237
-0.00716226
-0.00891059
-0.0102119
-0.0108415
-0.0112512
-0.011062
-0.0109695
-0.0105503
-0.010233
-0.00980047
-0.00942424
-0.00896185
-0.00842766
-0.00790335
-0.00733402
-0.00683573
-0.00626525
-0.00574737
-0.00521732
-0.00484007
-0.00466394
-0.254722
-0.372316
-0.49118
-0.469604
-0.352718
-0.219024
-0.0912606
-0.00988562
0.0380897
0.0543861
0.0491619
0.0410962
0.0311834
0.0226873
0.0148582
0.00820046
0.00285813
-0.00153734
-0.00493669
-0.00732037
-0.00919092
-0.0104143
-0.0111697
-0.0116902
-0.0116319
-0.0116968
-0.0113205
-0.01114
-0.0107036
-0.0103853
-0.0098739
-0.00939052
-0.00886145
-0.00836371
-0.00785919
-0.00728466
-0.00673785
-0.00616185
-0.00578951
-0.00559138
-0.386286
-0.529507
-0.677837
-0.617496
-0.443947
-0.280025
-0.11684
-0.0244634
0.0311446
0.0498184
0.0466982
0.0404028
0.030552
0.0225125
0.0144969
0.00780426
0.00244097
-0.00191108
-0.00520873
-0.00766542
-0.00962321
-0.0108812
-0.0118577
-0.0124713
-0.0127211
-0.0129454
-0.0127602
-0.0127426
-0.0123651
-0.012146
-0.0116217
-0.0112249
-0.0106739
-0.0101997
-0.00957062
-0.00893042
-0.00822565
-0.00751644
-0.00703659
-0.00677733
-0.580788
-0.746568
-0.883056
-0.759888
-0.522306
-0.321301
-0.153712
-0.0437583
0.0188653
0.0385174
0.0397694
0.0362937
0.0271874
0.0203211
0.0122966
0.00647494
0.000871242
-0.00316795
-0.00657333
-0.00916918
-0.0114477
-0.0128718
-0.0141291
-0.0147949
-0.0152829
-0.0154652
-0.0154815
-0.0154048
-0.0150825
-0.0147968
-0.0142129
-0.0137878
-0.0131217
-0.0125822
-0.0117823
-0.0110233
-0.0100461
-0.0091711
-0.00851009
-0.00828295
-0.718821
-0.933772
-1.0216
-0.825571
-0.5658
-0.348066
-0.17803
-0.0657767
-0.00235055
0.0201639
0.0277116
0.0270305
0.0206391
0.0154694
0.00823445
0.00370645
-0.00183915
-0.00551144
-0.00940543
-0.0120332
-0.0146408
-0.0160483
-0.0174914
-0.0179884
-0.0185777
-0.018548
-0.0185316
-0.0182101
-0.0179
-0.0173363
-0.01674
-0.0161613
-0.0154488
-0.0148319
-0.0139097
-0.0130273
-0.0119002
-0.0109605
-0.0101907
-0.0100372
-0.697568
-0.855604
-0.922794
-0.743122
-0.534309
-0.343583
-0.192406
-0.0908481
-0.0330366
-0.00595029
0.0090255
0.0113801
0.010094
0.0067986
0.00223682
-0.00129085
-0.00578018
-0.00896056
-0.0126719
-0.0149735
-0.0174099
-0.0185239
-0.0199245
-0.0201632
-0.0207507
-0.020542
-0.0205734
-0.0200783
-0.0197544
-0.0190386
-0.0185731
-0.0178492
-0.0172669
-0.016537
-0.015618
-0.014736
-0.0136731
-0.0128413
-0.0120704
-0.0119373
-0.515383
-0.612473
-0.624087
-0.531114
-0.429148
-0.304226
-0.200199
-0.123077
-0.0732117
-0.0417263