/*--------------------------------*- C++ -*----------------------------------*\
  =========                 |
  \\      /  F ield         | OpenFOAM: The Open Source CFD Toolbox
   \\    /   O peration     | Website:  https://openfoam.org
    \\  /    A nd           | Version:  11
     \\/     M anipulation  |
\*---------------------------------------------------------------------------*/
FoamFile
{
    format      ascii;
    class       surfaceScalarField;
    location    "4.5";
    object      phi;
}
// * * * * * * * * * * * * * * * * * * * * * * * * * * * * * * * * * * * * * //

dimensions      [0 3 -1 0 0 0 0];

internalField   nonuniform List<scalar> 
18960
(
0.0475623
0.000549684
-0.048112
0.0469939
0.000568408
0.0464939
0.000500045
0.0461169
0.000376916
0.0456685
0.000448475
0.0450211
0.000647357
0.0443959
0.00062522
0.0440504
0.000345504
0.0438863
0.000164074
0.0435838
0.000302499
0.0426457
0.00093815
0.0409033
0.00174237
0.0392372
0.00166611
0.038527
0.000710183
0.0385175
9.53243e-06
0.0388883
-0.000370828
0.0399054
-0.00101714
0.0415629
-0.00165746
0.0432131
-0.0016502
0.0445902
-0.00137716
0.0459077
-0.0013175
0.0472708
-0.00136304
0.0485548
-0.00128403
0.0499811
-0.00142633
0.0518537
-0.00187258
0.053833
-0.0019793
0.0551495
-0.00131645
0.0555209
-0.000371449
0.0552339
0.000286996
0.0544072
0.000826679
0.0529643
0.00144295
0.0510829
0.00188134
0.0493538
0.00172917
0.048105
0.00124875
0.0471683
0.000936742
0.046691
0.000477239
0.0463495
0.000341554
0.0465754
-0.000225934
0.0465988
-2.34091e-05
-0.000753927
0.0473528
0.0479002
0.000812268
-0.0481628
0.0476073
0.000861361
0.047259
0.000848298
0.0469262
0.000709747
0.0466009
0.000773762
0.0462627
0.000985579
0.045949
0.000938872
0.0456671
0.000627429
0.0453455
0.000485655
0.0449779
0.000670127
0.0444657
0.00145034
0.0437769
0.00243118
0.0431271
0.00231597
0.0427968
0.00104042
0.04275
5.63646e-05
0.0429322
-0.000553078
0.0434521
-0.00153698
0.0445493
-0.00275464
0.0458681
-0.00296902
0.0470842
-0.00259324
0.0481775
-0.00241084
0.049355
-0.00254056
0.050604
-0.00253296
0.0519281
-0.0027505
0.0534139
-0.00335838
0.0552294
-0.00379471
0.0569449
-0.00303196
0.058058
-0.00148455
0.0584753
-0.000130302
0.0585184
0.000783521
0.0580314
0.00192997
0.0570565
0.00285627
0.0557631
0.00302258
0.0544824
0.00252943
0.0533426
0.0020765
0.0522969
0.00152293
0.0514001
0.00123842
0.0505296
0.000644518
0.0499102
0.000596039
-0.000106842
0.0492631
0.0477988
0.00118109
-0.0481676
0.0474423
0.00121791
0.0470389
0.00125164
0.046568
0.00118067
0.0461062
0.00123555
0.0457001
0.00139172
0.0453247
0.00131428
0.0449612
0.000990926
0.0446262
0.000820634
0.0443287
0.000967609
0.0439764
0.00180266
0.043696
0.00271158
0.0433753
0.00263664
0.043008
0.00140774
0.0429308
0.000133551
0.0432119
-0.000834197
0.0439829
-0.00230794
0.0450724
-0.00384415
0.0461645
-0.00406112
0.0472063
-0.00363508
0.0480408
-0.00324528
0.0489157
-0.00341545
0.0500005
-0.00361777
0.0511867
-0.00393677
0.0524973
-0.0046689
0.0541501
-0.0054475
0.0559299
-0.00481182
0.0571681
-0.00272272
0.0576341
-0.000596277
0.0574711
0.000946444
0.0568429
0.00255817
0.0556101
0.00408907
0.0541187
0.00451401
0.0527104
0.00393776
0.0515788
0.0032081
0.0507325
0.00236922
0.0501514
0.00181953
0.0500071
0.000788803
0.0500873
0.000515825
-0.000227687
0.0502082
0.0477025
0.00154741
-0.0480688
0.0473644
0.00155598
0.0469767
0.00163932
0.0465819
0.00157545
0.0462395
0.00157796
0.0459284
0.00170282
0.0456223
0.00162045
0.0453628
0.00125037
0.0451124
0.00107104
0.04477
0.00130999
0.0444897
0.00208298
0.0443151
0.00288619
0.0442149
0.00273685
0.044131
0.00149161
0.0442144
5.02117e-05
0.044672
-0.00129179
0.0453808
-0.00301676
0.0461912
-0.00465458
0.0470255
-0.00489542
0.047936
-0.00454559
0.048727
-0.00403626
0.0495187
-0.00420717
0.0504436
-0.00454263
0.051588
-0.00508115
0.0527618
-0.00584277
0.0542108
-0.00689649
0.0560354
-0.00663639
0.0578228
-0.00451009
0.0589535
-0.00172699
0.0593391
0.000560869
0.0592521
0.00264511
0.0586231
0.00471809
0.0574677
0.00566943
0.0561985
0.00520697
0.0549155
0.00449107
0.053845
0.00343975
0.0527514
0.00291305
0.0518336
0.00170663
0.050908
0.00144144
0.000335884
0.0503444
0.0476313
0.00192587
-0.0480098
0.0472613
0.00192598
0.0468661
0.0020346
0.0464782
0.00196329
0.0460648
0.0019914
0.0456701
0.00209746
0.0453623
0.00192825
0.0450767
0.00153596
0.0447007
0.00144708
0.0443177
0.00169301
0.0441998
0.00220087
0.0443511
0.0027349
0.0446437
0.00244425
0.0448255
0.00130975
0.044941
-6.5283e-05
0.045293
-0.00164372
0.0458288
-0.00355261
0.0464469
-0.00527264
0.0471225
-0.00557106
0.0478888
-0.00531187
0.0486375
-0.00478495
0.049278
-0.0048477
0.050029
-0.00529356
0.0510276
-0.00607983
0.0521655
-0.00698067
0.053432
-0.00816296
0.055041
-0.00824536
0.0567158
-0.00618494
0.0579118
-0.00292297
0.058412
6.07068e-05
0.0583519
0.00270518
0.0578082
0.00526173
0.0567519
0.00672578
0.0554236
0.00653523
0.0541704
0.00574431
0.0531022
0.00450797
0.0522314
0.00378378
0.0516455
0.00229256
0.0513369
0.00175006
0.0004406
0.0512322
0.0475155
0.00230287
-0.0478925
0.0471419
0.00229959
0.0467762
0.00240021
0.0463816
0.00235793
0.0459433
0.00242968
0.0456473
0.00239342
0.0454446
0.002131
0.0451613
0.00181923
0.0447907
0.00181774
0.044544
0.00193965
0.0445218
0.00222306
0.0447705
0.00248621
0.0450314
0.00218335
0.0452007
0.00114052
0.0454083
-0.00027288
0.0459474
-0.00218285
0.046523
-0.00412825
0.0470923
-0.00584187
0.0477053
-0.00618408
0.0483719
-0.00597848
0.0490471
-0.0054602
0.0496576
-0.00545818
0.0503074
-0.00594336
0.051192
-0.00696438
0.0522179
-0.00800656
0.0534328
-0.00937787
0.0550225
-0.00983506
0.0570171
-0.00817957
0.0588556
-0.00476144
0.0599298
-0.00101349
0.0601992
0.00243571
0.0599439
0.0055171
0.0590998
0.00756984
0.0579323
0.00770271
0.0565874
0.00708919
0.0554257
0.00566969
0.0542677
0.00494184
0.0532588
0.0033014
0.052186
0.00282283
0.00118639
0.0514403
0.0474423
0.00269623
-0.0478356
0.0470707
0.00267119
0.0467025
0.00276842
0.0462691
0.00279127
0.0458862
0.00281265
0.0456163
0.00266327
0.0453764
0.0023709
0.0450273
0.00216836
0.04471
0.00213497
0.0445442
0.0021055
0.0445852
0.00218208
0.0448595
0.00221186
0.0451389
0.00190393
0.0454439
0.000835587
0.0458222
-0.000651235
0.0463491
-0.00270973
0.0468735
-0.0046526
0.047343
-0.00631141
0.0478276
-0.00666869
0.048366
-0.00651686
0.0489519
-0.00604614
0.049515
-0.00602126
0.0500652
-0.00649358
0.0507736
-0.00767271
0.051747
-0.00898004
0.0528936
-0.0105244
0.0542875
-0.011229
0.0560123
-0.00990432
0.0577597
-0.00650889
0.0591091
-0.00236291
0.0597491
0.00179571
0.0598387
0.0054275
0.0592827
0.00812593
0.0582329
0.00875245
0.0569616
0.00836049
0.0557448
0.00688653
0.0546182
0.00606846
0.053731
0.00418859
0.0530162
0.00353761
0.00159929
0.0526033
0.0473037
0.00309458
-0.0477021
0.0469297
0.00304525
0.0465656
0.00313247
0.0461724
0.0031845
0.0458164
0.0031686
0.045565
0.00291474
0.0452816
0.00265423
0.0449746
0.00247536
0.0447655
0.00234409
0.0446685
0.00220256
0.0447358
0.00211478
0.0450205
0.00192714
0.0453546
0.00156981
0.0457192
0.000470952
0.0461105
-0.00104253
0.0466065
-0.0032057
0.047122
-0.00516809
0.0476363
-0.00682574
0.0481451
-0.00717745
0.0486741
-0.00704591
0.0492104
-0.00658237
0.0497274
-0.00653829
0.0502045
-0.0069707
0.0507995
-0.00826772
0.0516174
-0.00979792
0.0526598
-0.0115668
0.0540614
-0.0126306
0.0560055
-0.0118484
0.0582482
-0.00875163
0.0600961
-0.00421075
0.0611007
0.000791118
0.0613598
0.00516841
0.060944
0.00854167
0.0600166
0.00967982
0.0586987
0.00967841
0.0574847
0.00810061
0.0562496
0.00730349
0.055166
0.00527225
0.0539625
0.00474105
0.00252105
0.0530408
0.0472397
0.00349768
-0.0476428
0.0468556
0.00342935
0.0464802
0.00350787
0.0460958
0.00356882
0.045779
0.00348546
0.0455085
0.00318524
0.0452183
0.00294437
0.0449828
0.0027109
0.044818
0.00250891
0.0447774
0.00224308
0.0448881
0.00200418
0.0451786
0.00163661
0.0454766
0.00127184
0.0458722
7.5309e-05
0.0463141
-0.00148439
0.0468113
-0.00370291
0.0472893
-0.00564608
0.047742
-0.0072785
0.0482004
-0.00763586
0.0486796
-0.00752506
0.0491663
-0.00706906
0.0496613
-0.00703327
0.0500976
-0.007407
0.0505549
-0.00872503
0.0512304
-0.0104734
0.0522031
-0.0125395
0.0534522
-0.0138797
0.0551877
-0.013584
0.0571927
-0.0107567
0.059256
-0.00627396
0.0607312
-0.000684105
0.0615098
0.0043898
0.0614918
0.00855966
0.0608625
0.0103091
0.0597307
0.0108102
0.0584984
0.00933292
0.0571649
0.00863698
0.0560881
0.00634908
0.0550926
0.00573655
0.00322616
0.0543875
0.0470804
0.00389975
-0.0474825
0.046718
0.00379179
0.046341
0.00388478
0.045994
0.00391582
0.0457201
0.0037594
0.0454349
0.00347046
0.0451869
0.00319234
0.0449966
0.00290127
0.0448717
0.00263381
0.0448668
0.00224791
0.0450011
0.00186995
0.0452883
0.00134938
0.045654
0.00090615
0.0461027
-0.000373461
0.0465531
-0.00193477
0.0469666
-0.00411644
0.0473534
-0.00603283
0.0477569
-0.00768206
0.0482504
-0.00812928
0.0487599
-0.00803454
0.0492488
-0.00755799
0.0497104
-0.00749493
0.0501585
-0.0078551
0.050574
-0.00914054
0.0511178
-0.0110172
0.0518831
-0.0133048
0.053043
-0.0150396
0.0548791
-0.0154201
0.0572194
-0.0130969
0.0597066
-0.00876116
0.0616526
-0.00263014
0.0628403
0.00320213
0.0631676
0.00823233
0.0628234
0.0106534
0.0617539
0.0118797
0.0605124
0.0105744
0.0591816
0.00996779
0.0579203
0.00761033
0.0564601
0.00719677
0.00442499
0.0552613
0.0470121
0.00429507
-0.0474074
0.0466334
0.0041705
0.0462813
0.00423691
0.0459551
0.00424199
0.0456444
0.00407013
0.0453764
0.00373846
0.0451553
0.00341337
0.0450065
0.00305014
0.0449222
0.00271808
0.0449564
0.0022137
0.0451239
0.00170245
0.0454569
0.00101638
0.0458199
0.000543135
0.0462461
-0.000799665
0.0467009
-0.00238952
0.0471643
-0.00457984
0.0475338
-0.0064024
0.047873
-0.00802119
0.0482352
-0.0084915
0.0486557
-0.00845504
0.04908
-0.00798227
0.0495473
-0.00796222
0.0499627
-0.0082705
0.0503341
-0.00951197
0.0507591
-0.0114422
0.0514952
-0.0140409
0.0525467
-0.0160911
0.05419
-0.0170634
0.0562934
-0.0152003
0.0588017
-0.0112695
0.0611398
-0.00496826
0.0628697
0.00147227
0.0635706
0.00753136
0.0635039
0.0107201
0.0626573
0.0127263
0.0615449
0.0116868
0.0601943
0.0113184
0.0589591
0.00884556
0.0577533
0.00840252
0.00547112
0.0567072
0.0468424
0.0046796
-0.0472269
0.0464903
0.00452259
0.0461511
0.00457612
0.0458371
0.004556
0.0455604
0.00434681
0.0453221
0.00397677
0.0451245
0.00361093
0.0450216
0.00315311
0.0449631
0.00277658
0.0450653
0.00211145
0.0452758
0.00149196
0.045603
0.000689146
0.045951
0.000195145
0.0464094
-0.00125799
0.0469076
-0.00288772
0.0473675
-0.00503973
0.0476588
-0.00669377
0.0478777
-0.00824001
0.0481565
-0.00877032
0.048524
-0.00882258
0.0489672
-0.00842545
0.049382
-0.00837703
0.0497795
-0.00866795
0.0501972
-0.00992971
0.0506126
-0.0118576
0.0511827
-0.014611
0.0520369
-0.0169453
0.0536331
-0.0186597
0.0559186
-0.0174857
0.0588082
-0.0141591
0.0615717
-0.00773176
0.0639062
-0.000862268
0.0651613
0.00627626
0.0655737
0.0103077
0.0650127
0.0132873
0.0639163
0.0127833
0.0625847
0.0126499
0.0613371
0.0100932
0.0598017
0.0099379
0.0069192
0.0583536
0.0467923
0.00505848
-0.0471712
0.0464316
0.00488326
0.0460954
0.00491235
0.0457864
0.00486498
0.0455118
0.0046214
0.0453061
0.00418245
0.0451347
0.00378238
0.0450466
0.00324117
0.0450228
0.00280043
0.0451731
0.00196116
0.0454022
0.00126279
0.0457322
0.000359139
0.0461232
-0.000195859
0.0466152
-0.00174991
0.0470611
-0.00333364
0.0475018
-0.00548043
0.0478016
-0.00699356
0.0480258
-0.00846426
0.0482201
-0.00896458
0.0484256
-0.00902816
0.048702
-0.00870176
0.0489998
-0.00867484
0.0493187
-0.00898686
0.0496827
-0.0102938
0.049965
-0.0121398
0.0505129
-0.0151589
0.0513492
-0.0177816
0.0528792
-0.0201897
0.0550191
-0.0196255
0.057875
-0.017015
0.060875
-0.0107318
0.0637836
-0.00377083
0.0656156
0.00444418
0.0663699
0.00955346
0.0660434
0.0136138
0.0651606
0.0136661
0.0638265
0.013984
0.0625052
0.0114145
0.0611963
0.0112468
0.00828796
0.0598275
0.0466148
0.00542749
-0.0469838
0.0462759
0.00522211
0.0459633
0.00522503
0.0456851
0.0051431
0.0454559
0.00485064
0.0452733
0.00436507
0.045132
0.00392365
0.0450833
0.00328994
0.0451226
0.00276105
0.0452949
0.00178894
0.0455294
0.00102826
0.0458875
1.05468e-06
0.0462867
-0.000595127
0.0467592
-0.00222237
0.0472141
-0.00378859
0.0476575
-0.00592377
0.0479999
-0.00733597
0.0481598
-0.00862413
0.0482383
-0.00904317
0.0483244
-0.0091142
0.048511
-0.00888843
0.0487049
-0.0088687
0.0489056
-0.00918751
0.0491465
-0.0105347
0.0494481
-0.0124415
0.049911
-0.0156218
0.0505161
-0.0183868
0.0518702
-0.0215438
0.0540592
-0.0218146
0.0572927
-0.0202484
0.0607723
-0.0142114
0.0642393
-0.00723784
0.0667735
0.00191003
0.0682435
0.00808342
0.0684802
0.0133771
0.067847
0.0142993
0.0665816
0.0152493
0.0652942
0.0127019
0.0638844
0.0126566
0.00983678
0.0623356
0.0465743
0.00579067
-0.0469375
0.0462442
0.00555226
0.0459308
0.00553841
0.0456522
0.00542165
0.0454433
0.00505957
0.0452954
0.00451295
0.0451823
0.00403679
0.0451509
0.00332136
0.0452213
0.00269058
0.0454302
0.00158003
0.0456884
0.000770071
0.0460431
-0.000353636
0.0464054
-0.000957432
0.0469016
-0.00271859
0.0473845
-0.00427151
0.0477856
-0.00632481
0.0480947
-0.00764507
0.0482881
-0.00881753
0.0483644
-0.00911944
0.0484431
-0.00919295
0.0484679
-0.0089132
0.0484946
-0.00889535
0.048519
-0.00921195
0.0485396
-0.0105553
0.0485323
-0.0124342
0.0487332
-0.0158226
0.0492038
-0.0188573
0.0504812
-0.0228212
0.0525261
-0.0238594
0.0558435
-0.0235658
0.0596604
-0.0180283
0.0637676
-0.0113451
0.0670905
-0.0014129
0.069222
0.00595199
0.0698729
0.0127262
0.0695153
0.0146569
0.0683761
0.0163885
0.0669067
0.0141713
0.0654632
0.0141001
0.0113973
0.0639027
0.0463877
0.00613924
-0.0467363
0.0460784
0.00586163
0.045793
0.00582381
0.0455783
0.00563629
0.0453944
0.00524354
0.0452709
0.00463641
0.0452041
0.00410356
0.0452196
0.00330584
0.0453115
0.00259869
0.0455829
0.0013087
0.0458154
0.000537526
0.0461422
-0.000680422
0.0465537
-0.00136894
0.0470473
-0.00321222
0.0475254
-0.00474956
0.047921
-0.00672037
0.0482035
-0.00792762
0.0484365
-0.0090505
0.0485359
-0.00921883
0.0485544
-0.0092115
0.04847
-0.0088288
0.048357
-0.00878237
0.0482366
-0.00909151
0.0480088
-0.0103275
0.0478286
-0.012254
0.0478648
-0.0158589
0.0480067
-0.0189992
0.0488433
-0.0236577
0.0505316
-0.0255478
0.0538726
-0.0269068
0.0581749
-0.0223306
0.0631909
-0.0163611
0.0675305
-0.00575247
0.07067
0.00281252
0.0721072
0.0112889
0.0723149
0.0144492
0.0714756
0.0172277
0.0700881
0.0155589
0.0686564
0.0155318
0.013039
0.0670148
0.0463538
0.00647717
-0.0466917
0.0460611
0.00615433
0.0457825
0.00610239
0.0455881
0.00583073
0.0454159
0.0054157
0.0453419
0.00471041
0.0452936
0.00415191
0.0453327
0.00326669
0.045459
0.00247237
0.0457142
0.00105353
0.045973
0.000278739
0.0463136
-0.00102102
0.0467425
-0.00179783
0.0472296
-0.00369928
0.0476715
-0.00519147
0.0480592
-0.00710811
0.0483251
-0.00819349
0.048503
-0.00922839
0.0485447
-0.0092606
0.0485836
-0.00925038
0.048498
-0.00874315
0.0483059
-0.00859028
0.0480768
-0.00886244
0.0477046
-0.00995533
0.0472262
-0.0117756
0.0467909
-0.0154236
0.0465454
-0.0187537
0.0470225
-0.0241349
0.0482528
-0.026778
0.0511515
-0.0298056
0.0554632
-0.0266423
0.0611328
-0.0220308
0.0667444
-0.0113641
0.071355
-0.00179803
0.0738216
0.00882234
0.074524
0.0137468
0.0739755
0.0177763
0.0726118
0.0169226
0.071082
0.0170616
0.0148816
0.0692394
0.0461566
0.00679023
-0.0464697
0.0458865
0.00642449
0.0456621
0.0063268
0.0455111
0.00598165
0.0454091
0.00551776
0.0453425
0.00477694
0.045334
0.00416047
0.0454638
0.00313689
0.0456162
0.00231992
0.0458137
0.000856032
0.0460759
1.65369e-05
0.0464712
-0.00141627
0.0469485
-0.00227517
0.0474154
-0.0041662
0.047814
-0.00558999
0.0481981
-0.00749226
0.0484121
-0.00840745
0.048531
-0.00934731
0.0485656
-0.00929524
0.0485903
-0.00927503
0.0484837
-0.00863654
0.0482501
-0.00835669
0.0479726
-0.00858498
0.0474544
-0.00943714
0.0468299
-0.0111511
0.0461772
-0.0147709
0.0455948
-0.0181713
0.0455406
-0.0240807
0.0461175
-0.0273549
0.0483206
-0.0320087
0.0522385
-0.0305602
0.0581242
-0.0279165
0.0648252
-0.018065
0.0711833
-0.00815615
0.0754696
0.00453603
0.077384
0.0118323
0.0775107
0.0176496
0.0763003
0.0181329
0.074769
0.0185929
0.0167865
0.072864
0.0461533
0.00708759
-0.0464507
0.0458964
0.00668135
0.0457058
0.00651744
0.0455662
0.00612125
0.0454718
0.00561219
0.0454234
0.00482531
0.0454569
0.00412702
0.0456215
0.00297229
0.0458044
0.00213696
0.0460206
0.000639883
0.0463117
-0.000274609
0.0467122
-0.00181674
0.0472057
-0.00276867
0.0477198
-0.00468033
0.048098
-0.00596817
0.0483853
-0.0077796
0.0485526
-0.00857474
0.0487019
-0.00949661
0.0486899
-0.00928324
0.0486313
-0.00921639
0.0485091
-0.00851438
0.0482569
-0.00810445
0.0479149
-0.00824295
0.0473928
-0.0089151
0.0467124
-0.0104707
0.0457445
-0.0138029
0.0447124
-0.0171392
0.044088
-0.0234563
0.0441735
-0.0274403
0.0456125
-0.0334477
0.0488484
-0.0337961
0.0541991
-0.0332671
0.061291
-0.025157
0.069068
-0.0159331
0.0757451
-0.00214106
0.0795989
0.00797851
0.0808959
0.0163526
0.0801196
0.0189092
0.0786219
0.0200907
0.0188305
0.0765779
0.0459667
0.00733958
-0.0462187
0.0457581
0.00689002
0.0456026
0.00667294
0.0455143
0.00620953
0.0454718
0.00565468
0.0455083
0.00478879
0.0455691
0.00406624
0.0457182
0.00282318
0.0459363
0.00191883
0.0461915
0.000384667
0.0465033
-0.000586333
0.0468851
-0.0021986
0.0473597
-0.00324321
0.0478943
-0.00521494
0.0482796
-0.0063535
0.0486258
-0.00812577
0.0487421
-0.00869105
0.0488467
-0.0096012
0.0488254
-0.00926193
0.0487745
-0.00916558
0.0486227
-0.00836251
0.0483065
-0.00778828
0.0479041
-0.00784055
0.0473471
-0.0083581
0.0464911
-0.00961463
0.045378
-0.0126899
0.0441897
-0.0159509
0.0430191
-0.0222857
0.0424924
-0.0269137
0.0430346
-0.0339899
0.0456546
-0.0364162
0.0502815
-0.037894
0.0572959
-0.0321714
0.0655316
-0.0241687
0.0740182
-0.0106277
0.0805424
0.0014543
0.0841633
0.0127317
0.0846576
0.0184149
0.0834346
0.0213136
0.0210433
0.0812219
0.0460001
0.0075785
-0.046239
0.0458036
0.00708654
0.0456827
0.00679382
0.0456169
0.0062753
0.0455999
0.00567174
0.045663
0.00472571
0.0457976
0.00393156
0.0459522
0.00266865
0.0461957
0.0016753
0.0464478
0.000132547
0.0468217
-0.000960179
0.0472568
-0.00263373
0.0476849
-0.00367134
0.0481597
-0.00568975
0.0485087
-0.00670244
0.048848
-0.00846504
0.0490057
-0.00884882
0.0490945
-0.00968996
0.0490447
-0.0092122
0.0489257
-0.0090465
0.0487895
-0.00822631
0.0484578
-0.00745665
0.0479623
-0.00734499
0.0473094
-0.00770518
0.0464648
-0.00877007
0.0452076
-0.0114327
0.0437645
-0.0145077
0.0419941
-0.0205154
0.040791
-0.0257105
0.0401977
-0.0333965
0.0419661
-0.0381846
0.0456643
-0.0415922
0.0528251
-0.0393321
0.0611206
-0.0324643
0.0707222
-0.0202293
0.0792603
-0.00708378
0.0856828
0.00630918
0.0887274
0.0153703
0.0889447
0.0210963
0.0233675
0.0866205
0.0458445
0.00775398
-0.04602
0.0457059
0.00722516
0.0456357
0.00686403
0.0456348
0.00627621
0.0456633
0.00564325
0.0457508
0.00463817
0.0459145
0.00376791
0.0461184
0.00246473
0.0463812
0.00141251
0.046671
-0.000157242
0.0470078
-0.001297
0.0474389
-0.00306477
0.0478723
-0.0041048
0.0483417
-0.00615913
0.0486307
-0.00699147
0.0489327
-0.00876704
0.0490806
-0.00899668
0.0491943
-0.0098037
0.0492262
-0.00924401
0.0490848
-0.00890511
0.0489675
-0.00810903
0.0486563
-0.00714547
0.0481296
-0.00681828
0.0474251
-0.0070007
0.0464873
-0.00783229
0.0450791
-0.0100245
0.0434621
-0.0128907
0.041208
-0.0182613
0.0394606
-0.0239631
0.0375712
-0.0315072
0.0379851
-0.0385985
0.0399998
-0.0436069
0.0467104
-0.0460427
0.0553124
-0.0410663
0.0664904
-0.0314073
0.0766744
-0.0172678
0.0854808
-0.00249714
0.090879
0.00997215
0.0940879
0.0178874
0.0244468
0.0930086
0.0459723
0.00792279
-0.0461411
0.045856
0.00734148
0.0458058
0.00691421
0.0457987
0.00628336
0.0459026
0.00553936
0.0460162
0.00452456
0.046207
0.00357712
0.0464426
0.00222911
0.0467242
0.00113085
0.0470727
-0.000505699
0.0474221
-0.00164637
0.0478707
-0.00351337
0.0482479
-0.00448204
0.0486911
-0.00660237
0.0489796
-0.00727998
0.0492487
-0.00903607
0.0493851
-0.00913314
0.0493953
-0.00981387
0.0494324
-0.00928117
0.0492767
-0.00874938
0.0491248
-0.00795711
0.0488797
-0.00690034
0.0483848
-0.00632346
0.0476131
-0.00622898
0.0466124
-0.00683158
0.0451387
-0.00855081
0.043465
-0.0112169
0.0408024
-0.0155988
0.0384208
-0.0215814
0.0353689
-0.0284553
0.0342588
-0.0374885
0.0341489
-0.0434969
0.038849
-0.0507428
0.0465352
-0.0487525
0.0593921
-0.0442642
0.0716754
-0.0295512
0.0846054
-0.0154271
0.0921398
0.00243773
0.0976064
0.0124207
0.0235293
0.098524
0.0458412
0.00801745
-0.0459359
0.0457724
0.00741031
0.0457866
0.00690001
0.0458467
0.00622323
0.045967
0.00541905
0.0461408
0.00435078
0.0463666
0.00335135
0.0466409
0.00195474
0.0469207
0.000851123
0.0472938
-0.000878838
0.0476371
-0.00198962
0.0481066
-0.00398294
0.0484848
-0.00486018
0.0488906
-0.00700822
0.0491861
-0.00757549
0.049399
-0.00924897
0.0495734
-0.00930747
0.0495569
-0.00979742
0.0495921
-0.00931632
0.0494286
-0.00858595
0.0492586
-0.00778708
0.0490404
-0.00668219
0.0485958
-0.00587882
0.0478571
-0.00549032
0.0468701
-0.00584449
0.0453253
-0.00700606
0.0435524
-0.00944406
0.0406981
-0.0127444
0.0377713
-0.0186546
0.0337674
-0.0244514
0.0309426
-0.0346638
0.0287322
-0.0412865
0.030542
-0.0525526
0.0360324
-0.054243
0.047801
-0.0560327
0.0612661
-0.0430163
0.0786548
-0.0328158
0.0922049
-0.0111123
0.101673
0.0029526
0.0215755
0.103627
0.0460627
0.00809637
-0.0461416
0.0460294
0.00744365
0.0460845
0.00684488
0.0461808
0.00612694
0.0463292
0.0052706
0.0465496
0.00413047
0.0467855
0.0031154
0.0471273
0.00161291
0.0474315
0.000546933
0.0478344
-0.00128171
0.0481689
-0.00232411
0.0485896
-0.00440369
0.0489753
-0.00524582
0.04932
-0.00735291
0.0496448
-0.00790032
0.0497723
-0.00937645
0.0499569
-0.00949204
0.0498964
-0.00973699
0.0499076
-0.00932753
0.049813
-0.00849133
0.0495762
-0.00755027
0.0493437
-0.00644965
0.0489748
-0.00550993
0.0482335
-0.00474901
0.0472908
-0.00490181
0.0457059
-0.00542118
0.0438674
-0.00760558
0.0410361
-0.00991301
0.0376086
-0.0152272
0.0332179
-0.0200606
0.0284979
-0.0299438
0.024159
-0.0369477
0.0221441
-0.0505377
0.0250046
-0.0571035
0.0316421
-0.0626702
0.0447038
-0.056078
0.0631055
-0.0512175
0.0818873
-0.0298941
0.101466
-0.0166261
0.0135507
0.109491
0.045969
0.00808935
-0.045962
0.0460139
0.00739877
0.0461118
0.00674704
0.046259
0.00597971
0.0464141
0.00511544
0.0466893
0.00385528
0.0469523
0.00285241
0.0473127
0.00125254
0.0476634
0.000196216
0.0480631
-0.0016814
0.0484809
-0.00274195
0.0488425
-0.0047653
0.0492876
-0.00569087
0.0495116
-0.00757697
0.0499077
-0.00829641
0.0499677
-0.00943644
0.0501422
-0.00966654
0.0501144
-0.00970921
0.0500835
-0.00929657
0.050022
-0.00842986
0.0498258
-0.00735409
0.0495852
-0.00620907
0.0493154
-0.00524012
0.0486932
-0.00412681
0.0478774
-0.00408598
0.0464216
-0.00396537
0.0444573
-0.00564125
0.0418416
-0.00729732
0.0381553
-0.0115409
0.0336869
-0.0155922
0.0276233
-0.0238802
0.0217105
-0.0310348
0.0152853
-0.0441125
0.0129081
-0.0547263
0.0120698
-0.0618319
0.020806
-0.0648142
0.0363737
-0.0667852
0.0571351
-0.0506556
0.0832493
-0.0427403
-0.00792377
0.104724
0.046367
0.00808079
-0.0463585
0.0464554
0.00731037
0.046581
0.00662147
0.0467856
0.00577515
0.0470096
0.00489143
0.04732
0.00354487
0.0476426
0.00252978
0.0479738
0.000921375
0.0484058
-0.00023583
0.0486826
-0.00195813
0.0492295
-0.00328888
0.0494205
-0.00495625
0.0499922
-0.0062626
0.050108
-0.00769276
0.0504625
-0.00865089
0.050482
-0.00945593
0.0505956
-0.00978024
0.0505636
-0.00967717
0.0504811
-0.00921409
0.0504004
-0.00834914
0.0502468
-0.00720049
0.0500109
-0.00597312
0.0497435
-0.00497275
0.0492698
-0.00365309
0.048475
-0.00329121
0.0473684
-0.00285882
0.0455359
-0.00380873
0.0430838
-0.0048452
0.0394721
-0.0079292
0.0352017
-0.0113219
0.0286514
-0.0173299
0.0216061
-0.0239895
0.0125136
-0.03502
0.0029368
-0.0451495
-0.004553
-0.0543421
-0.00560998
-0.0637572
0.00210723
-0.0745024
0.0208203
-0.0693686
0.0454023
-0.0673223
-0.0396428
0.0771214
0.0462461
0.007997
-0.0461623
0.0464071
0.00714936
0.0465735
0.00645512
0.0468463
0.00550234
0.0471593
0.00457837
0.0474016
0.00330263
0.0479158
0.0020156
0.048139
0.000698176
0.0487759
-0.000872766
0.0489542
-0.0021364
0.0496274
-0.00396216
0.0497933
-0.00512215
0.0503192
-0.00678844
0.0504416
-0.00781523
0.0507405
-0.00894979
0.0508122
-0.00952762
0.0508864
-0.00985437
0.0508703
-0.00966107
0.0507761
-0.00911991
0.0506738
-0.00824682
0.050562
-0.00708874
0.050393
-0.00580407
0.0501204
-0.00470021
0.0497732
-0.00330585
0.0491342
-0.00265224
0.048246
-0.00197059
0.0467429
-0.00230566
0.0446732
-0.00277542
0.0413316
-0.00458765
0.0373631
-0.00735339
0.0314827
-0.0114495
0.0238418
-0.0163486
0.0139455
-0.0251237
0.00147672
-0.0326807
-0.0110005
-0.0418649
-0.0193692
-0.0553885
-0.0251183
-0.0687533
-0.0204374
-0.0740494
-0.00606813
-0.0816916
-0.0690649
0.0233539
0.0469334
0.00790084
-0.0468373
0.0471201
0.00696271
0.047392
0.00618323
0.0476217
0.0052726
0.0480389
0.00416117
0.0483088
0.00303267
0.0488502
0.0014742
0.049077
0.000471461
0.0496543
-0.00145006
0.0499723
-0.0024544
0.0504466
-0.00443655
0.0507765
-0.00545197
0.0510799
-0.00709187
0.0513463
-0.00808163
0.0514681
-0.00907156
0.0515516
-0.00961112
0.0515068
-0.00980956
0.0514669
-0.0096212
0.0513489
-0.00900193
0.0512503
-0.00814818
0.0511262
-0.00696465
0.0509797
-0.00565755
0.0507665
-0.00448702
0.05057
-0.00310937
0.0501067
-0.00218899
0.049501
-0.00136488
0.0482519
-0.00105658
0.046644
-0.00116748
0.0439334
-0.00187709
0.0401047
-0.00352463
0.0354
-0.00674476
0.0286639
-0.00961255
0.0193578
-0.0158176
0.00839261
-0.0217155
-0.005081
-0.0283913
-0.0195861
-0.0408834
-0.0342467
-0.0540926
-0.0419637
-0.0663325
-0.0478998
-0.0757555
-0.0786496
-0.0383151
0.0469185
0.00766922
-0.0466869
0.0471228
0.00675845
0.0474423
0.00586368
0.047737
0.00497797
0.0482508
0.00364733
0.0486119
0.00267157
0.0490714
0.00101467
0.0495419
1.0229e-06
0.049942
-0.00185019
0.0505325
-0.00304488
0.0508469
-0.00475094
0.0513384
-0.00594349
0.0515125
-0.00726603
0.0518533
-0.00842241
0.0519051
-0.00912336
0.0520035
-0.00970947
0.0519261
-0.00973221
0.0518759
-0.00957101
0.0517479
-0.00887394
0.0516483
-0.00804859
0.0515353
-0.00685156
0.051495
-0.00561729
0.0513597
-0.00435172
0.0513365
-0.00308619
0.0510581
-0.00191058
0.0507043
-0.00101101
0.0499181
-0.000270391
0.0485337
0.000216918
0.0468198
-0.000163226
0.043776
-0.000480829
0.0398323
-0.00280106
0.0347595
-0.00453969
0.0270906
-0.00814878
0.0184081
-0.0130329
0.00716808
-0.0171513
-0.00919579
-0.0245196
-0.0272189
-0.0360696
-0.0437574
-0.049794
-0.0570421
-0.0624708
-0.0710057
-0.0646861
0.0480631
0.00737887
-0.0477728
0.0482818
0.00653977
0.0486947
0.00545078
0.0490936
0.00457903
0.0494256
0.00331538
0.0499328
0.0021643
0.0502436
0.00070388
0.0508744
-0.00062972
0.0512184
-0.00219422
0.0518343
-0.00366082
0.052072
-0.00498857
0.0525298
-0.00640135
0.0527226
-0.00745879
0.052926
-0.00862577
0.0529502
-0.00914761
0.0529496
-0.00970884
0.0528005
-0.00958315
0.0527016
-0.00947213
0.0525218
-0.00869412
0.0524034
-0.00793018
0.052286
-0.00673419
0.0522606
-0.00559185
0.0522722
-0.00436337
0.0522714
-0.00308538
0.0523786
-0.00201779
0.0521139
-0.000746305
0.0519037
-6.01824e-05
0.0509703
0.00115032
0.0496997
0.00110745
0.0476997
0.00151914
0.0443855
0.00051313
0.0408448
-0.000999047
0.0351082
-0.00241216
0.0281139
-0.00603856
0.0202877
-0.00932515
0.00738827
-0.0116201
-0.0107887
-0.0178926
-0.0319957
-0.028587
-0.0519013
-0.0425652
-0.0544715
-0.0684355
0.0478895
0.00701232
-0.047523
0.0484628
0.00596649
0.0489212
0.00499239
0.0495584
0.00394182
0.0500321
0.00284171
0.0507029
0.00149352
0.0511022
0.000304505
0.0517582
-0.00128564
0.0522204
-0.00265649
0.052684
-0.00412442
0.0530529
-0.00535742
0.0533938
-0.00674229
0.0536157
-0.00768067
0.053723
-0.00873308
0.0537039
-0.00912853
0.0536316
-0.00963653
0.0534822
-0.00943369
0.0533011
-0.00929105
0.0531204
-0.00851347
0.0529343
-0.00774404
0.0529177
-0.00671766
0.0528384
-0.00551245
0.0530929
-0.00461788
0.0531629
-0.00315541
0.0535507
-0.00240558
0.0536856
-0.000881234
0.0537602
-0.000134816
0.0536766
0.001234
0.0527388
0.00204517
0.051854
0.00240394
0.0494385
0.00292872
0.0465868
0.00185265
0.0431118
0.00106275
0.0372379
-0.000164584
0.0314523
-0.00353958
0.0248711
-0.00503888
0.0128747
-0.00589619
-0.00616123
-0.00955107
-0.0297697
-0.0189567
-0.0324943
-0.0517469
0.0495784
0.00668888
-0.049255
0.0500692
0.00547572
0.0504618
0.00459976
0.0509768
0.00342681
0.0515459
0.00227263
0.0520962
0.000943226
0.0528363
-0.00043562
0.0532959
-0.00174518
0.0538952
-0.00325581
0.054332
-0.00456128
0.054783
-0.00580838
0.055059
-0.00701826
0.0552219
-0.0078436
0.0552264
-0.0087376
0.0551441
-0.00904617
0.0549658
-0.00945825
0.0546959
-0.00916383
0.0544317
-0.00902683
0.0541724
-0.00825419
0.0539143
-0.00748594
0.0538796
-0.00668298
0.0539151
-0.00554789
0.0540785
-0.00478134
0.0545695
-0.00364642
0.0548715
-0.00270758
0.0556576
-0.00166732
0.0559132
-0.000390373
0.0565534
0.000593817
0.0565615
0.00203704
0.0560974
0.002868
0.0554326
0.00359355
0.0531933
0.00409196
0.0507478
0.00350827
0.0474518
0.00313142
0.0418246
0.00208757
0.036842
-5.62101e-05
0.0322455
-0.00129975
0.023553
-0.000858525
0.00592687
-0.00133061
-0.0105577
-0.0160097
0.0503983
0.00594652
-0.0496559
0.0511183
0.00475569
0.0519093
0.00380876
0.0525838
0.00275231
0.0533579
0.00149851
0.053867
0.000434135
0.0545539
-0.0011225
0.0551462
-0.00233748
0.0556662
-0.00377584
0.0560724
-0.00496745
0.0563554
-0.00609143
0.0565331
-0.00719596
0.0565482
-0.00785869
0.0564505
-0.00863984
0.0562375
-0.0088332
0.0559254
-0.00914619
0.0555845
-0.00882286
0.0551854
-0.0086278
0.0548655
-0.00793425
0.054658
-0.00727841
0.0544841
-0.00650905
0.0546751
-0.00573894
0.0548713
-0.00497755
0.0555655
-0.00434062
0.0562102
-0.00335227
0.057112
-0.00256913
0.0582154
-0.0014938
0.0590666
-0.000257375
0.0602221
0.000881603
0.060791
0.00229906
0.0610706
0.00331393
0.0606109
0.00455173
0.0592486
0.00487048
0.0572976
0.00508243
0.0542859
0.00509932
0.0497706
0.0044591
0.0452387
0.00323208
0.0424863
0.00189392
0.0378233
0.00333243
0.00181367
0.0254518
0.0522869
0.00549411
-0.0518345