/*--------------------------------*- C++ -*----------------------------------*\
  =========                 |
  \\      /  F ield         | OpenFOAM: The Open Source CFD Toolbox
   \\    /   O peration     | Website:  https://openfoam.org
    \\  /    A nd           | Version:  10
     \\/     M anipulation  |
\*---------------------------------------------------------------------------*/
FoamFile
{
    format      ascii;
    class       volScalarField;
    location    "0.850796";
    object      p;
}
// * * * * * * * * * * * * * * * * * * * * * * * * * * * * * * * * * * * * * //

dimensions      [1 -1 -2 0 0 0 0];

internalField   nonuniform List<scalar> 
15708
(
2.40839
2.41346
2.41816
2.42249
2.42644
2.43004
2.43329
2.43623
2.4389
2.44133
2.44357
2.44567
2.44767
2.44962
2.45155
2.4535
2.45552
2.45764
2.45988
2.46228
2.46486
2.46763
2.47062
2.47383
2.47727
2.48094
2.48485
2.48898
2.49333
2.49789
2.50265
2.50758
2.51266
2.51789
2.52322
2.52865
2.53414
2.53967
2.54522
2.55076
2.55629
2.56179
2.56723
2.57262
2.57794
2.58319
2.58837
2.59347
2.59852
2.6035
2.60843
2.40832
2.41332
2.41794
2.42223
2.42617
2.42976
2.43302
2.43598
2.43868
2.44115
2.44343
2.44558
2.44762
2.4496
2.45157
2.45356
2.4556
2.45774
2.46
2.46241
2.46499
2.46777
2.47075
2.47395
2.47739
2.48105
2.48495
2.48908
2.49344
2.49801
2.50279
2.50775
2.51288
2.51815
2.52356
2.52906
2.53465
2.54029
2.54597
2.55166
2.55734
2.563
2.56862
2.57419
2.57969
2.58513
2.59049
2.59578
2.601
2.60614
2.61122
2.40778
2.41272
2.41731
2.42161
2.42555
2.42917
2.43248
2.43549
2.43825
2.44079
2.44315
2.44537
2.44748
2.44953
2.45156
2.45361
2.45571
2.45789
2.46018
2.46262
2.46522
2.46801
2.471
2.47421
2.47764
2.48131
2.48521
2.48934
2.4937
2.49829
2.50308
2.50807
2.51323
2.51856
2.52403
2.52961
2.53529
2.54103
2.54683
2.55265
2.55848
2.56429
2.57007
2.57581
2.58149
2.5871
2.59264
2.5981
2.60348
2.60877
2.61399
2.40672
2.41163
2.41623
2.42055
2.42456
2.42825
2.43163
2.43474
2.4376
2.44024
2.44271
2.44503
2.44724
2.44939
2.45151
2.45364
2.45581
2.45806
2.46041
2.4629
2.46554
2.46835
2.47136
2.47459
2.47803
2.4817
2.48561
2.48975
2.49412
2.49871
2.50352
2.50854
2.51374
2.51911
2.52463
2.53029
2.53604
2.54189
2.54779
2.55373
2.55969
2.56565
2.57158
2.57748
2.58332
2.5891
2.5948
2.60042
2.60595
2.61138
2.61672
2.40516
2.41008
2.41471
2.41909
2.42317
2.42696
2.43046
2.4337
2.4367
2.43948
2.44209
2.44455
2.4469
2.44917
2.45141
2.45364
2.45591
2.45824
2.46066
2.46321
2.4659
2.46876
2.47182
2.47507
2.47854
2.48223
2.48615
2.4903
2.49468
2.49929
2.50412
2.50916
2.51439
2.5198
2.52538
2.53109
2.53692
2.54285
2.54886
2.55491
2.561
2.56708
2.57316
2.5792
2.5852
2.59112
2.59698
2.60274
2.60841
2.61397
2.61943
2.40303
2.40797
2.41268
2.41715
2.42136
2.4253
2.42896
2.43236
2.43553
2.43848
2.44126
2.44389
2.44641
2.44885
2.45124
2.45362
2.45601
2.45846
2.46099
2.46362
2.46639
2.46931
2.47241
2.47569
2.47919
2.4829
2.48683
2.491
2.49539
2.50002
2.50486
2.50992
2.51518
2.52063
2.52625
2.53202
2.53793
2.54394
2.55003
2.55619
2.56238
2.5686
2.5748
2.58098
2.58711
2.59318
2.59917
2.60506
2.61086
2.61654
2.6221
2.40026
2.40527
2.41014
2.41472
2.4191
2.42321
2.42708
2.43072
2.43412
2.43732
2.44033
2.44319
2.44592
2.44855
2.45113
2.45367
2.45621
2.45878
2.46141
2.46414
2.46698
2.46997
2.47311
2.47644
2.47996
2.4837
2.48765
2.49183
2.49624
2.50088
2.50574
2.51082
2.51611
2.5216
2.52726
2.53309
2.53905
2.54513
2.55131
2.55756
2.56386
2.57018
2.57651
2.58281
2.58906
2.59526
2.60138
2.6074
2.61331
2.61911
2.62476
2.39681
2.40199
2.40698
2.41181
2.41643
2.42083
2.425
2.42893
2.43262
2.4361
2.43937
2.44247
2.44542
2.44825
2.451
2.45371
2.45639
2.45909
2.46185
2.46467
2.4676
2.47066
2.47387
2.47725
2.48082
2.48459
2.48857
2.49278
2.49721
2.50187
2.50675
2.51186
2.51718
2.52269
2.5284
2.53427
2.54029
2.54645
2.5527
2.55904
2.56543
2.57185
2.57828
2.5847
2.59107
2.59738
2.60362
2.60975
2.61577
2.62166
2.62741
2.39275
2.39812
2.40338
2.40851
2.41349
2.41821
2.4227
2.42692
2.4309
2.43465
2.43819
2.44153
2.44472
2.44778
2.45075
2.45364
2.45651
2.45937
2.46226
2.46521
2.46825
2.4714
2.47469
2.47813
2.48176
2.48557
2.48959
2.49383
2.49829
2.50297
2.50788
2.51301
2.51836
2.52392
2.52966
2.53558
2.54166
2.54787
2.5542
2.56061
2.56709
2.5736
2.58013
2.58665
2.59313
2.59955
2.60588
2.61212
2.61823
2.62421
2.63003
2.38806
2.39377
2.39934
2.40476
2.41005
2.41508
2.41991
2.42448
2.42879
2.43287
2.43673
2.44038
2.44385
2.44718
2.45039
2.45351
2.45657
2.45961
2.46266
2.46575
2.46891
2.47217
2.47554
2.47906
2.48275
2.48662
2.49069
2.49496
2.49946
2.50418
2.50912
2.51428
2.51967
2.52526
2.53104
2.53701
2.54314
2.54941
2.5558
2.56229
2.56884
2.57544
2.58206
2.58866
2.59524
2.60175
2.60818
2.6145
2.6207
2.62675
2.63264
2.3828
2.38869
2.39458
2.40035
2.40598
2.41142
2.41664
2.42161
2.42633
2.43079
2.43501
2.43901
2.4428
2.44643
2.44991
2.45328
2.45656
2.4598
2.46303
2.46627
2.46957
2.47294
2.47642
2.48003
2.48379
2.48772
2.49185
2.49617
2.50071
2.50547
2.51045
2.51565
2.52107
2.5267
2.53253
2.53854
2.54473
2.55105
2.55751
2.56406
2.57069
2.57736
2.58406
2.59074
2.5974
2.604
2.61051
2.61691
2.62318
2.62929
2.63523
2.37657
2.38285
2.38907
2.39529
2.40127
2.4072
2.41291
2.41833
2.42351
2.4284
2.43303
2.43741
2.44157
2.44552
2.4493
2.45294
2.45647
2.45993
2.46335
2.46676
2.47021
2.47371
2.4773
2.48101
2.48486
2.48886
2.49305
2.49744
2.50203
2.50683
2.51186
2.51711
2.52257
2.52825
2.53412
2.54018
2.54642
2.5528
2.55931
2.56593
2.57262
2.57937
2.58613
2.59289
2.59962
2.60629
2.61287
2.61933
2.62566
2.63182
2.63781
2.36952
2.37623
2.38281
2.38949
2.39602
2.40248
2.40866
2.41463
2.42028
2.42568
2.43077
2.43558
2.44013
2.44445
2.44856
2.45249
2.45629
2.45998
2.46361
2.46721
2.47081
2.47445
2.47817
2.48198
2.48593
2.49002
2.49428
2.49873
2.50339
2.50825
2.51333
2.51863
2.52415
2.52988
2.5358
2.54192
2.5482
2.55464
2.56121
2.56789
2.57464
2.58145
2.58828
2.59511
2.6019
2.60862
2.61526
2.62178
2.62815
2.63435
2.64036
2.36198
2.36854
2.3757
2.38311
2.39023
2.39731
2.40398
2.4105
2.41671
2.42262
2.42822
2.4335
2.43849
2.4432
2.44767
2.45192
2.456
2.45994
2.46379
2.46758
2.47136
2.47515
2.479
2.48293
2.48698
2.49117
2.49551
2.50004
2.50477
2.5097
2.51485
2.52021
2.52579
2.53157
2.53756
2.54373
2.55007
2.55657
2.5632
2.56994
2.57675
2.58362
2.5905
2.59738
2.60423
2.61101
2.61769
2.62425
2.63066
2.63688
2.64291
2.35323
2.36076
2.36897
2.37582
2.38397
2.39141
2.39882
2.4059
2.41275
2.41924
2.42539
2.43119
2.43665
2.44178
2.44663
2.45122
2.4556
2.45981
2.46389
2.46788
2.47184
2.47579
2.47978
2.48384
2.48799
2.49228
2.49673
2.50134
2.50615
2.51116
2.51638
2.52182
2.52746
2.53332
2.53937
2.54561
2.55202
2.55858
2.56527
2.57206
2.57894
2.58586
2.5928
2.59973
2.60662
2.61344
2.62016
2.62674
2.63317
2.63942
2.64544
2.34522
2.35274
2.36043
2.36868
2.37698
2.38519
2.39319
2.40098
2.40844
2.41557
2.42231
2.42866
2.43461
2.4402
2.44544
2.45039
2.45508
2.45956
2.46388
2.46809
2.47223
2.47635
2.48048
2.48467
2.48895
2.49335
2.49789
2.50261
2.50751
2.51261
2.51792
2.52344
2.52916
2.5351
2.54123
2.54754
2.55402
2.56065
2.5674
2.57426
2.58119
2.58817
2.59516
2.60214
2.60907
2.61592
2.62266
2.62927
2.63571
2.64195
2.64797
2.33526
2.34391
2.35267
2.36109
2.36992
2.37869
2.38736
2.39579
2.40392
2.41168
2.41904
2.42595
2.43242
2.43846
2.44412
2.44943
2.45444
2.45921
2.46377
2.4682
2.47253
2.47681
2.48109
2.48541
2.48981
2.49433
2.49898
2.50381
2.50881
2.51401
2.51942
2.52504
2.53086
2.53689
2.5431
2.5495
2.55606
2.56277
2.5696
2.57652
2.58352
2.59055
2.59759
2.60461
2.61157
2.61845
2.62521
2.63183
2.63827
2.6445
2.65049
2.32484
2.33395
2.34403
2.35347
2.36283
2.37225
2.38155
2.39062
2.39933
2.40772
2.41566
2.42314
2.43011
2.43662
2.44269
2.44836
2.45369
2.45874
2.46355
2.46819
2.4727
2.47715
2.48158
2.48604
2.49057
2.49521
2.49998
2.50492
2.51004
2.51535
2.52087
2.5266
2.53253
2.53866
2.54498
2.55148
2.55813
2.56493
2.57184
2.57884
2.5859
2.59299
2.60008
2.60714
2.61413
2.62103
2.62781
2.63442
2.64085
2.64706
2.65302
2.31134
2.3245
2.33498
2.3459
2.35603
2.36599
2.37586
2.38559
2.39484
2.40377
2.41225
2.42025
2.42772
2.43468
2.44116
2.44719
2.45284
2.45816
2.46322
2.46806
2.47276
2.47736
2.48194
2.48654
2.49119
2.49596
2.50085
2.50591
2.51116
2.5166
2.52225
2.5281
2.53415
2.54041
2.54684
2.55346
2.56021
2.5671
2.5741
2.58119
2.58833
2.59548
2.60263
2.60973
2.61675
2.62367
2.63045
2.63706
2.64347
2.64965
2.65556
2.30299
2.31325
2.32797
2.33737
2.34917
2.35969
2.37025
2.3808
2.39063
2.40008
2.40903
2.41747
2.42537
2.43273
2.43959
2.44597
2.45192
2.4575
2.46278
2.46782
2.47268
2.47744
2.48215
2.48688
2.49166
2.49655
2.50158
2.50677
2.51215
2.51773
2.52352
2.52951
2.5357
2.5421
2.54867
2.5554
2.56228
2.56928
2.57639
2.58357
2.59079
2.59802
2.60523
2.61237
2.61943
2.62637
2.63315
2.63975
2.64613
2.65227
2.65813
2.29582
2.30708
2.32265
2.32714
2.3416
2.35363
2.36384
2.37599
2.38614
2.39652
2.40601
2.41481
2.42306
2.4308
2.43802
2.44472
2.45095
2.45677
2.46225
2.46746
2.47248
2.47737
2.48221
2.48706
2.49196
2.49697
2.50213
2.50746
2.51298
2.51871
2.52465
2.5308
2.53715
2.5437
2.55042
2.5573
2.56432
2.57145
2.57867
2.58596
2.59328
2.6006
2.60787
2.61507
2.62216
2.62912
2.6359
2.64249
2.64884
2.65493
2.66074
2.28925
2.3008
2.31375
2.32091
2.33552
2.3482
2.35939
2.37012
2.38264
2.39284
2.40303
2.41224
2.42086
2.42897
2.43651
2.4435
2.44997
2.456
2.46165
2.46701
2.47216
2.47716
2.48211
2.48705
2.49207
2.4972
2.50248
2.50795
2.51363
2.51952
2.52563
2.53195
2.53848
2.5452
2.55209
2.55914
2.56631
2.57359
2.58095
2.58836
2.59579
2.6032
2.61055
2.61781
2.62495
2.63193
2.63872
2.64529
2.65161
2.65766
2.6634
2.28332
2.29467
2.30628
2.31561
2.32989
2.34289
2.35493
2.36661
2.37841
2.38965
2.40013
2.40982
2.41886
2.4273
2.43513
2.44235
2.44903
2.45522
2.46101
2.46648
2.47172
2.47681
2.48183
2.48686
2.49197
2.49721
2.50262
2.50823
2.51406
2.52013
2.52642
2.53293
2.53966
2.54657
2.55365
2.56088
2.56823
2.57567
2.58318
2.59073
2.59829
2.60582
2.61326
2.6206
2.6278
2.63481
2.64161
2.64817
2.65446
2.66045
2.66613
2.27849
2.2902
2.29964
2.3101
2.32486
2.33817
2.35087
2.36305
2.37525
2.38676
2.39763
2.40775
2.41716
2.42587
2.43392
2.44134
2.44816
2.45447
2.46035
2.46589
2.47118
2.47631
2.48138
2.48647
2.49165
2.49698
2.50251
2.50826
2.51426
2.52051
2.527
2.53372
2.54066
2.54778
2.55508
2.56251
2.57005
2.57768
2.58536
2.59307
2.60078
2.60843
2.61599
2.62343
2.63069
2.63775
2.64457
2.65111
2.65737
2.66331
2.66892
2.27536
2.28389
2.29492
2.30858
2.3213
2.33448
2.34753
2.36026
2.37259
2.3845
2.39573
2.40615
2.41581
2.42473
2.43294
2.44047
2.44739
2.45377
2.45969
2.46525
2.47055
2.47568
2.48076
2.48587
2.49109
2.4965
2.50213
2.50802
2.51419
2.52062
2.52733
2.53428
2.54145
2.54881
2.55634
2.56399
2.57175
2.57958
2.58745
2.59534
2.60321
2.61102
2.61872
2.62627
2.63362
2.64074
2.64759
2.65413
2.66035
2.66623
2.67177
2.27175
2.2813
2.2942
2.30544
2.31866
2.33189
2.34519
2.35818
2.37082
2.38295
2.39437
2.405
2.41482
2.42387
2.43216
2.43976
2.44672
2.45312
2.45903
2.46456
2.46981
2.4749
2.47994
2.48503
2.49027
2.49573
2.50145
2.50748
2.51381
2.52044
2.52736
2.53456
2.54198
2.5496
2.55739
2.56529
2.57329
2.58134
2.58941
2.59749
2.60555
2.61354
2.6214
2.62909
2.63656
2.64375
2.65064
2.65718
2.66335
2.66917
2.67462
2.26883
2.27849
2.28977
2.30293
2.31607
2.32966
2.34329
2.35674
2.36969
2.38192
2.39348
2.40424
2.41416
2.42327
2.4316
2.4392
2.44615
2.45251
2.45836
2.46381
2.46897
2.47395
2.47889
2.48392
2.48914
2.49462
2.50041
2.50656
2.51305
2.5199
2.52706
2.5345
2.5422
2.5501
2.55817
2.56635
2.5746
2.58289
2.59118
2.59946
2.60772
2.61591
2.62396
2.63181
2.63941
2.6467
2.65363
2.66017
2.6663
2.67203
2.67738
2.26897
2.27887
2.29012
2.3024
2.31538
2.32902
2.34282
2.35635
2.36932
2.38156
2.39305
2.4038
2.41375
2.42283
2.43111
2.43866
2.44554
2.45183
2.4576
2.46293
2.46795
2.47279
2.47759
2.48251
2.48764
2.49311
2.49895
2.5052
2.51185
2.5189
2.52631
2.53404
2.54203
2.55023
2.55861
2.56708
2.57561
2.58416
2.59268
2.60115
2.60958
2.61798
2.62623
2.63428
2.64203
2.64942
2.65639
2.66295
2.66905
2.67464
2.67991
2.26904
2.27879
2.28973
2.30117
2.31407
2.32803
2.34203
2.35571
2.36872
2.38106
2.39259
2.4033
2.41312
2.42211
2.43026
2.43771
2.4445
2.45071
2.45642
2.46159
2.46647
2.47113
2.47577
2.48056
2.48562
2.49107
2.49695
2.50329
2.5101
2.51736
2.52503
2.53305
2.54136
2.5499
2.55861
2.56741
2.57624
2.58506
2.59383
2.60249
2.61102
2.61954
2.628
2.6363
2.64427
2.65186
2.65888
2.66548
2.67166
2.67732
2.68239
2.26765
2.27751
2.28942
2.30346
2.31763
2.33119
2.34453
2.35742
2.36987
2.38172
2.39293
2.40335
2.41303
2.42199
2.4301
2.43746
2.44413
2.4502
2.4557
2.46046
2.465
2.46946
2.47385
2.47838
2.48326
2.48859
2.49443
2.50082
2.50775
2.5152
2.52313
2.53146
2.54011
2.54901
2.5581
2.56725
2.57637
2.58544
2.59441
2.60318
2.61176
2.62033
2.62912
2.63779
2.64613
2.65405
2.66165
2.66836
2.67421
2.67948
2.68438
2.26659
2.27734
2.28993
2.30285
2.31657
2.33012
2.34345
2.35624
2.36865
2.38044
2.39175
2.40207
2.41169
2.42033
2.42824
2.43541
2.44189
2.44775
2.4532
2.45801
2.46199
2.46632
2.47063
2.47511
2.47997
2.48532
2.49117
2.49761
2.50465
2.51232
2.52057
2.52924
2.53822
2.54745
2.55693
2.56636
2.57571
2.58501
2.59437
2.60354
2.61266
2.62166
2.6304
2.6396
2.64838
2.65684
2.66424
2.67064
2.67588
2.6809
2.6854
2.26762
2.27807
2.29012
2.30439
2.31816
2.33151
2.34389
2.35625
2.3684
2.38008
2.39129
2.40152
2.41079
2.41923
2.42694
2.43388
2.44004
2.44559
2.45042
2.45489
2.45912
2.46347
2.4675
2.47172
2.47639
2.48157
2.48732
2.49373
2.50078
2.50855
2.51715
2.52609
2.53528
2.54478
2.55481
2.56493
2.57505
2.5851
2.5949
2.60476
2.61448
2.62396
2.6331
2.64152
2.64996
2.65894
2.66589
2.67136
2.67644
2.68119
2.68594
2.27068
2.28096
2.29313
2.30561
2.31888
2.33221
2.34558
2.35834
2.37049
2.38195
2.39257
2.40224
2.41103
2.41888
2.42613
2.43262
2.43836
2.4435
2.44863
2.45291
2.45637
2.45934
2.4631
2.46718
2.4719
2.47695
2.48241
2.48863
2.4955
2.50314
2.51281
2.52253
2.53256
2.54276
2.55271
2.5632
2.57405
2.58486
2.5954
2.60568
2.61555
2.62509
2.63443
2.64311
2.65125
2.65956
2.66504
2.67047
2.67478
2.68187
2.68718
2.27701
2.28666
2.29839
2.31096
2.32386
2.33671
2.34936
2.36142
2.37303
2.3844
2.39415
2.40326
2.41142
2.41861
2.42569
2.43208
2.43751
2.44051
2.44375
2.44768
2.45188
2.45548
2.4583
2.46178
2.46643
2.47218
2.47802
2.48457
2.49187
2.49993
2.50732
2.51671
2.52718
2.5383
2.54967
2.56126
2.57284
2.58411
2.59489
2.60514
2.61515
2.62488
2.63455
2.64369
2.65011
2.65656
2.66142
2.66926
2.6743
2.68155
2.68945
2.28747
2.29652
2.30715
2.31922
2.33148
2.3436
2.35517
2.36649
2.3772
2.38687
2.39619
2.40512
2.41235
2.4174
2.42242
2.42768
2.43293
2.43793
2.44117
2.44394
2.449
2.45314
2.45666
2.45899
2.46098
2.46369
2.46821
2.47429
2.48209
2.49203
2.50118
2.51141
2.52258
2.53438
2.54648
2.55832
2.57023
2.58175
2.5924
2.60319
2.61367
2.62333
2.63321
2.64085
2.64846
2.65376
2.65978
2.66674
2.67374
2.6808
2.68654
2.30058
2.30842
2.31778
2.32816
2.3391
2.3503
2.36035
2.37026
2.37958
2.38749
2.39504
2.40267
2.41015
2.41672
2.42179
2.42593
2.43203
2.437
2.44005
2.44247
2.44257
2.44453
2.44797
2.45039
2.45174
2.45472
2.45904
2.46493
2.47245
2.48083
2.49104
2.50233
2.51442
2.52702
2.53994
2.55282
2.56529
2.57744
2.5886
2.59925
2.61039
2.6195
2.62851
2.63583
2.64465
2.65062
2.65663
2.66489
2.67125
2.67777
2.68444
2.31578
2.32243
2.32977
2.33826
2.34731
2.35648
2.36564
2.37495
2.38348
2.3907
2.39712
2.40476
2.41175
2.41768
2.42236
2.42609
2.42821
2.43108
2.4334
2.43389
2.43427
2.43512
2.43678
2.43952
2.44423
2.44836
2.45326
2.45898
2.46631
2.47501
2.48492
2.49586
2.50762
2.51942
2.53286
2.5467
2.55863
2.57111
2.58296
2.5925
2.60382
2.61445
2.62317
2.63067
2.63944
2.64784
2.65167
2.66019
2.66791
2.67486
2.68151
2.32886
2.33471
2.34237
2.35023
2.35833
2.36638
2.37416
2.38202
2.3897
2.39571
2.4011
2.40531
2.41019
2.41479
2.41816
2.42015
2.42195
2.42416
2.42644
2.42873
2.42998
2.43099
2.4322
2.43472
2.43794
2.44206
2.44717
2.45194
2.45962
2.46852
2.47823
2.4891
2.50197
2.51335
2.52598
2.53946
2.55097
2.56339
2.57555
2.58578
2.59622
2.60707
2.61541
2.62417
2.63274
2.64073
2.64753
2.65632
2.66407
2.67106
2.67793
2.34568
2.35022
2.35524
2.36103
2.3674
2.37375
2.38007
2.38635
2.39206
2.39672
2.40044
2.40361
2.4067
2.4101
2.41481
2.41787
2.42014
2.42176
2.42321
2.42515
2.42617
2.42697
2.42806
2.42907
2.43173
2.43594
2.44158
2.44745
2.45542
2.4645
2.47452
2.48419
2.49497
2.50612
2.51861
2.53089
2.54261
2.554
2.56699
2.57794
2.58806
2.59717
2.60668
2.61747
2.62497
2.63505
2.64251
2.65066
2.659
2.6669
2.6742
2.36052
2.36466
2.36894
2.37351
2.3777
2.38188
2.38587
2.38971
2.39374
2.39725
2.40195
2.40555
2.40778
2.41041
2.41321
2.41555
2.41773
2.4194
2.42016
2.42024
2.42048
2.42149
2.42296
2.42462
2.42756
2.43185
2.43669
2.44298
2.45047
2.4589
2.46842
2.47768
2.48858
2.49875
2.5104
2.52181
2.53396
2.54561
2.55649
2.56792
2.57758
2.58786
2.59795
2.60938
2.61731
2.6266
2.63566
2.64479
2.65365
2.6623
2.67048
2.37266
2.37611
2.37944
2.38274
2.38589
2.38888
2.39178
2.39461
2.39781
2.40094
2.40306
2.40538
2.40785
2.41005
2.41217
2.41381
2.415
2.41603
2.41651
2.41629
2.41839
2.41836
2.41971
2.42211
2.42536
2.4291
2.4343
2.44033
2.44732
2.455
2.46344
2.47254
2.48192
2.4916
2.50397
2.51451
2.52475
2.535
2.54586
2.55661
2.56712
2.578
2.58785
2.59843
2.60838
2.61844
2.62849
2.63846
2.64818
2.65754
2.66639
2.38363
2.38634
2.38872
2.39092
2.393
2.39497
2.39705
2.39858
2.4027
2.40329
2.40427
2.40633
2.40821
2.40984
2.41133
2.41257
2.41352
2.41428
2.41484
2.4153
2.41628
2.41713
2.41903
2.42157
2.42488
2.42878
2.43348
2.43897
2.44517
2.4516
2.45858
2.46711
2.47852
2.48574
2.49492
2.50495
2.51378
2.525
2.53513
2.54535
2.55611
2.5669
2.57763
2.58856
2.59949
2.61049
2.62144
2.63225
2.64278
2.65285
2.66224
2.39372
2.39586
2.39753
2.39885
2.39996
2.40114
2.40346
2.40187
2.40498
2.4067
2.40657
2.40747
2.40889
2.41035
2.41151
2.4125
2.41329
2.41406
2.4148
2.41559
2.41664
2.418
2.41991
2.42239
2.42548
2.42895
2.43316
2.43799
2.44402
2.4506
2.45747
2.46407
2.47368
2.47683
2.48687
2.49506
2.5046
2.51454
2.52456
2.53458
2.54539
2.55643
2.56775
2.57935
2.59115
2.60296
2.61481
2.62641
2.63765
2.64834
2.65825
2.40297
2.40465
2.4057
2.40623
2.40654
2.40675
2.40735
2.40841
2.40702
2.40868
2.40978
2.40943
2.41011
2.41143
2.41244
2.41327
2.41396
2.41482
2.41568
2.41682
2.41814
2.41981
2.42193
2.42463
2.42799
2.43167
2.43565
2.43993
2.4442
2.44929
2.45439
2.46087
2.46666
2.47215
2.48022
2.48753
2.49589
2.50501
2.51456
2.52455
2.53532
2.54673
2.55856
2.57085
2.58343
2.59603
2.60872
2.62103
2.633
2.64424
2.65464
2.41133
2.41268
2.41321
2.4133
2.41293
2.41235
2.41204
2.41219
2.41275
2.41065
2.41168
2.4118
2.41202
2.41307
2.41419
2.41502
2.41602
2.4171
2.41846
2.42003
2.42194
2.424
2.4265
2.42889
2.43124
2.43435
2.43778
2.44149
2.44533
2.44928
2.45337
2.45804
2.4627
2.46767
2.47418
2.48057
2.48819
2.49636
2.50547
2.5153
2.52612
2.53779
2.55014
2.56308
2.57636
2.58981
2.6032
2.61616
2.62881
2.64073
2.65158
2.41852
2.4196
2.41989
2.41962
2.41882
2.41772
2.41668
2.41596
2.41562
2.41508
2.41373
2.41426
2.41467
2.41528
2.41609
2.41694
2.41803
2.41937
2.42101
2.42292
2.42515
2.42757
2.43031
2.43304
2.43577
2.43864
2.44155
2.44444
2.4477
2.4499
2.45311
2.45689
2.46026
2.46427
2.46906
2.47461
2.48109
2.48852
2.4971
2.50678
2.51768
2.52957
2.54242
2.55595
2.56997
2.5842
2.59832
2.61203
2.62527
2.63777
2.64915
2.42438
2.42519
2.42535
2.42485
2.42379
2.42239
2.42092
2.41986
2.41908
2.41755
2.41717
2.41718
2.41738
2.41789
2.41866
2.41969
2.42106
2.42279
2.42485
2.42722
2.42984
2.43258
2.43547
2.43831
2.44109
2.44377
2.44618
2.44852
2.45053
2.45241
2.45446
2.45667
2.45895
2.46175
2.46511
2.46944
2.47483
2.48146
2.48948
2.49894
2.50983
2.52201
2.53528
2.54943
2.56412
2.57922
2.59416
2.6084
2.62236
2.63557
2.64741
2.4288
2.42946
2.42953
2.42889
2.42769
2.42617
2.42465
2.42297
2.42176
2.42088
2.42035
2.42014
2.42023
2.42075
2.42165
2.42294
2.42467
2.42683
2.42938
2.43222
2.43524
2.43836
2.44148
2.44447
2.44724
2.44975
2.45173
2.45356
2.45493
2.456
2.4569
2.45777
2.45881
2.46014
2.46213
2.4651
2.4693
2.47499
2.48235
2.49148
2.50233
2.51477
2.52854
2.54331
2.55875
2.5745
2.59017
2.60537
2.61993
2.63356
2.64607
2.43183
2.43242
2.43245
2.43176
2.43054
2.429
2.42739
2.42566
2.42443
2.4237
2.42318
2.42297
2.42316
2.42385
2.42502
2.4267
2.42888
2.43153
2.43455
2.43789
2.44133
2.44485
2.44825
2.45144
2.45423
2.45662
2.45843
2.45977
2.46044
2.46067
2.46052
2.46009
2.45965
2.45952
2.46
2.46147
2.46433
2.46894
2.47555
2.48429
2.49508
2.50775
2.52198
2.53741
2.55362
2.57022
2.58673
2.60277
2.6179
2.63184
2.6448
2.43351
2.43407
2.43411
2.43348
2.43231
2.4309
2.4293
2.42782
2.42677
2.42609
2.42574
2.4257
2.42616
2.42717
2.42873
2.43085
2.43361
2.43674
2.44035
2.44414
2.44811
2.45202
2.45575
2.4592
2.46207
2.4645
2.46614
2.46698
2.46708
2.46649
2.46525
2.46354
2.46156
2.45979
2.45867
2.45847
2.45973
2.46304
2.46873
2.47694
2.48765
2.50061
2.51545
2.53164
2.54865
2.56595
2.58297
2.59927
2.61436
2.62806
2.64142
2.43397
2.43454
2.43463
2.43411
2.43311
2.43184
2.43053
2.42937
2.42858
2.42816
2.42804
2.42835
2.42921
2.43067
2.43276
2.43544
2.43871
2.44246
2.44659
2.45095
2.45542
2.45981
2.46395
2.46768
2.47083
2.47328
2.47475
2.47524
2.47486
2.47347
2.47115
2.46812
2.4646
2.46098
2.45777
2.45592
2.45545
2.45723
2.46177
2.46937
2.47998
2.49327
2.50862
2.5253
2.54266
2.56034
2.57783
2.59453
2.61028
2.62494
2.63848
2.61331
2.61816
2.62298
2.62777
2.63254
2.63729
2.64202
2.64671
2.65136
2.65595
2.66047
2.66488
2.66916
2.67329
2.67722
2.68092
2.68435
2.68747
2.69025
2.69263
2.69458
2.69607
2.69706
2.69751
2.69742
2.69676
2.61624
2.62119
2.62609
2.63094
2.63574
2.64048
2.64516
2.64977
2.65431
2.65875
2.66308
2.66728
2.67132
2.67517
2.6788
2.68219
2.68529
2.68808
2.69051
2.69256
2.69419
2.69537
2.69606
2.69624
2.69592
2.69502
2.61912
2.62418
2.62915
2.63405
2.63886
2.64359
2.64823
2.65276
2.65719
2.66149
2.66564
2.66964
2.67344
2.67704
2.6804
2.68349
2.68629
2.68877
2.69089
2.69263
2.69395
2.69484
2.69526
2.6952
2.69467
2.69354
2.62197
2.62711
2.63215
2.63708
2.64191
2.64663
2.65122
2.65568
2.66
2.66416
2.66815
2.67195
2.67554
2.6789
2.682
2.68482
2.68734
2.68953
2.69136
2.69282
2.69387
2.69449
2.69467
2.6944
2.69364
2.69232
2.62477
2.62999
2.63509
2.64006
2.6449
2.6496
2.65415
2.65854
2.66276
2.66679
2.67062
2.67424
2.67763
2.68076
2.68362
2.68618
2.68844
2.69036
2.69193
2.69313
2.69393
2.69431
2.69427
2.69381
2.69284
2.69135
2.62754
2.63283
2.63799
2.64299
2.64784
2.65252
2.65702
2.66134
2.66546
2.66937
2.67305
2.6765
2.67969
2.68261
2.68524
2.68757
2.68958
2.69126
2.69258
2.69354
2.69411
2.69428
2.69407
2.69341
2.69227
2.69065
2.63028
2.63564
2.64084
2.64587
2.65072
2.65538
2.65983
2.66408
2.66811
2.6719
2.67544
2.67872
2.68173
2.68445
2.68687
2.68898
2.69076
2.69221
2.69331
2.69404
2.69441
2.6944
2.69402
2.6932
2.69192
2.69019
2.63299
2.63841
2.64365
2.6487
2.65355
2.65818
2.66259
2.66677
2.6707
2.67437
2.67777
2.6809
2.68373
2.68626
2.68849
2.69039
2.69197
2.6932
2.6941
2.69464
2.69482
2.69466
2.69412
2.69316
2.69178
2.68997
2.63568
2.64115
2.64642
2.65148
2.65632
2.66092
2.66528
2.66938
2.67322
2.67678
2.68005
2.68302
2.68569
2.68804
2.69008
2.69179
2.69317
2.69422
2.69493
2.69529
2.69532
2.69503
2.69435
2.69329
2.69183
2.68997
2.63834
2.64385
2.64914
2.6542
2.65903
2.6636
2.6679
2.67193
2.67567
2.67911
2.68224
2.68507
2.68758
2.68976
2.69162
2.69315
2.69435
2.69523
2.69577
2.69599
2.69589
2.69548
2.69471
2.69356
2.69206
2.69018
2.64098
2.64651
2.65181
2.65687
2.66167
2.6662
2.67044
2.67439
2.67803
2.68135
2.68436
2.68703
2.68938
2.6914
2.69309
2.69445
2.69549
2.6962
2.6966
2.69669
2.6965
2.69599
2.69515
2.69397
2.69245
2.69059
2.64358
2.64913
2.65444
2.65948
2.66425
2.66873
2.6729
2.67676
2.68029
2.68349
2.68636
2.68889
2.69108
2.69293
2.69446
2.69565
2.69654
2.69711
2.69738
2.69737
2.69709
2.69652
2.69565
2.69447
2.69298
2.69117
2.64616
2.65171
2.65701
2.66203
2.66675
2.67117
2.67526
2.67903
2.68245
2.68552
2.68824
2.69061
2.69264
2.69433
2.69568
2.69672
2.69746
2.6979
2.69806
2.69797
2.69763
2.69704
2.69617
2.69503
2.69361
2.6919
2.64871
2.65425
2.65953
2.66451
2.66918
2.67352
2.67753
2.68118
2.68448
2.68741
2.68998
2.69219
2.69404
2.69555
2.69674
2.69762
2.6982
2.69852
2.69859
2.69845
2.69807
2.69749
2.69666
2.69561
2.69431
2.69275
2.65123
2.65676
2.662
2.66693
2.67153
2.67579
2.67969
2.68322
2.68638
2.68915
2.69155
2.69357
2.69524
2.69656
2.69757
2.69828
2.69872
2.69892
2.69891
2.69873
2.69834
2.6978
2.69708
2.69616
2.69504
2.69369
2.65374
2.65923
2.66442
2.66928
2.6738
2.67796
2.68174
2.68513
2.68813
2.69072
2.69292
2.69474
2.6962
2.69731
2.69812
2.69864
2.69893
2.69902
2.69894
2.69873
2.69838
2.69793
2.69735
2.69662
2.69574
2.69466
2.65623
2.66167
2.66679
2.67158
2.676
2.68004
2.68368
2.68691
2.68972
2.69211
2.69409
2.69567
2.69689
2.69775
2.69833
2.69865
2.69877
2.69873
2.6986
2.69838
2.69811
2.69778
2.6974
2.69693
2.69636
2.69564
2.65871
2.66409
2.66914
2.67383
2.67814
2.68204
2.68552
2.68856
2.69115
2.69331
2.69502
2.69633
2.69725
2.69784
2.69814
2.69822
2.69814
2.69798
2.69777
2.69759
2.69743
2.69729
2.69718
2.69704
2.69685
2.69657
2.66119
2.6665
2.67146
2.67605
2.68022
2.68397
2.68726
2.69008
2.69243
2.6943
2.69571
2.69668
2.69726
2.69751
2.69748
2.69727
2.69696
2.69664
2.69639
2.69628
2.69626
2.69639
2.69661
2.69689
2.69719
2.69743
2.66369
2.66892
2.67378
2.67824
2.68227
2.68583
2.68891
2.69148
2.69354
2.69509
2.69614
2.69672
2.69689
2.69674
2.69633
2.69574
2.69517
2.69465
2.69442
2.69442
2.69463
2.69504
2.69571
2.69649
2.69734
2.69818
2.66623
2.67137
2.67612
2.68044
2.68431
2.68767
2.69051
2.6928
2.69453
2.69569
2.69631
2.69644
2.69617
2.69551
2.69469
2.69363
2.6929
2.69188
2.69201
2.69204
2.69257
2.69354
2.69477
2.69613
2.69761
2.69911
2.66881
2.67385
2.67849
2.68268
2.68637
2.68952
2.69209
2.69407
2.69541
2.69615
2.69631
2.69592
2.69513
2.69392
2.69251
2.69103
2.6897
2.68859
2.6882
2.68851
2.68948
2.69111
2.69319
2.69552
2.69795
2.70036
2.67146
2.67641
2.68094
2.68498
2.6885
2.69142
2.69369
2.6953
2.69625
2.69656
2.69622
2.69524
2.69362
2.69192
2.68916
2.68681
2.68536
2.68475
2.68459
2.68509
2.68651
2.6888
2.69169
2.69502
2.69853
2.70216
2.67418
2.67904
2.68346
2.68737
2.69069
2.69336
2.69534
2.69659
2.69715
2.69696
2.69592
2.69423
2.69096
2.68892
2.68706
2.68436
2.68135
2.67928
2.67856
2.67929
2.68156
2.68507
2.68937
2.69427
2.69908
2.70395
2.67695
2.68174
2.68606
2.68985
2.69299
2.69542
2.69706
2.69788
2.69789
2.69713
2.69461
2.69283
2.69119
2.68756
2.68338
2.67953
2.67627
2.67404
2.67344
2.67475
2.67791
2.68253
2.68792
2.69352
2.69949
2.70559
2.67973
2.68444
2.6887
2.69237
2.69532
2.6975
2.6987
2.69887
2.69755
2.69702
2.69631
2.69342
2.68956
2.68537
2.68035
2.67482
2.67108
2.669
2.66859
2.67061
2.67484
2.68026
2.68666
2.69348
2.70041
2.70734
2.68241
2.68707
2.69126
2.69482
2.69757
2.69936
2.69968
2.69985
2.7007
2.69894
2.69645
2.69404
2.68937
2.68356
2.67831
2.67271
2.66799
2.66559
2.66502
2.6673
2.67299
2.67958
2.68663
2.69405
2.70154
2.70926
2.68494
2.68953
2.6936
2.69701
2.69937
2.70113
2.70349
2.70322
2.70259
2.70126
2.69805
2.69371
2.68976
2.68375
2.67763
2.67251
2.66687
2.66541
2.6667
2.66853
2.67288
2.67982
2.68815
2.69656
2.70483
2.71337
2.68725
2.69166
2.6957
2.69838
2.70201
2.70441
2.70605
2.70699
2.70543
2.70238
2.6998
2.69554
2.69069
2.68537
2.67945
2.67432
2.67027
2.66884
2.66998
2.673
2.67774
2.68455
2.69244
2.70116
2.70989
2.71845
2.68918
2.69312
2.69758
2.70326
2.70523
2.70886
2.71015
2.7088
2.70774
2.70489
2.70159
2.69718
2.69298
2.68801
2.68314
2.67886
2.67585
2.67484
2.67579
2.67875
2.68385
2.69032
2.69771
2.70554
2.71332
2.7209
2.69037
2.69599
2.70073
2.70599
2.70975
2.7106
2.71191
2.71099
2.70921
2.70653
2.70327
2.6994
2.69526
2.69099
2.68683
2.68341
2.6813
2.68088
2.68207
2.68463
2.68894
2.69477
2.70127
2.70887
2.71715
2.72496
2.69221
2.69775
2.70459
2.70662
2.71034
2.71194
2.71251
2.71198
2.71053
2.70821
2.70521
2.70163
2.69773
2.69379
2.69011
2.68708
2.68528
2.68486
2.68591
2.6886
2.69303
2.69902
2.70608
2.71336
2.72041
2.72787
2.69362
2.69934
2.70396
2.70757
2.71035
2.71211
2.71279
2.71252
2.71125
2.70901
2.70609
2.70258
2.69878
2.69499
2.69153
2.68883
2.68748
2.68758
2.68918
2.69233
2.69692
2.70258
2.70926
2.7167
2.72372
2.73062
2.69246
2.69822
2.70316
2.70697
2.7097
2.71145
2.71206
2.71173
2.71053
2.70862
2.70603
2.70281
2.69936
2.69597
2.69301
2.69085
2.68965
2.69068
2.69218
2.69527
2.69988
2.70537
2.71165
2.71828
2.72484
2.73107
2.69203
2.69713
2.70183
2.70629
2.70884
2.71084
2.71167
2.71193
2.71083
2.70871
2.70563
2.70241
2.69882
2.69551
2.69263
2.6906
2.69007
2.69061
2.69245
2.69561
2.70006
2.70547
2.71153
2.71789
2.72419
2.73019
2.69018
2.69541
2.69921
2.70557
2.70786
2.70946
2.71103
2.71047
2.70924
2.70678
2.70375
2.70044
2.69681
2.69347
2.69051
2.68869
2.68811
2.6887
2.69064
2.6939
2.69835
2.70373
2.70974
2.71603
2.72228
2.7282
2.68721
2.69317
2.69848
2.70333
2.70633
2.70805
2.70902
2.7085
2.70701
2.70437
2.70114
2.69748
2.6937
2.69013
2.68702
2.68504
2.68439
2.68493
2.6869
2.69024
2.69478
2.70027
2.70638
2.71278
2.71913
2.72516
2.68452
2.69123
2.69661
2.70107
2.70398
2.70565
2.70633
2.70561
2.70381
2.7009
2.69729
2.69321
2.68906
2.68513
2.68172
2.67949
2.67871
2.67916
2.68116
2.68461
2.68934
2.69507
2.70146
2.70816
2.71482
2.72114
2.68162
2.68854
2.69393
2.69824
2.70112
2.7026
2.70301
2.70203
2.69983
2.69651
2.69242
2.68781
2.6831
2.67863
2.67476
2.67208
2.67105
2.67135
2.67336
2.67697
2.68199
2.68812
2.69499
2.70221
2.70939
2.71619
2.67827
2.6852
2.69077
2.69506
2.69777
2.69903
2.69914
2.69779
2.69509
2.69122
2.68647
2.68115
2.67572
2.67054
2.66598
2.66267
2.66124
2.66132
2.66335
2.66717
2.67261
2.67932
2.68691
2.69491
2.70286
2.71037
2.67461
2.6817
2.68733
2.69153
2.69408
2.69511
2.69485
2.693
2.68968
2.68508
2.6795
2.67327
2.66688
2.66076
2.65527
2.65105
2.64904
2.64886
2.65086
2.65497
2.66097
2.6685
2.67709
2.68618
2.69522
2.70372
2.67076
2.67805
2.68383
2.6879
2.69025
2.69103
2.69025
2.68779
2.6837
2.67818
2.67153
2.66415
2.65653
2.64916
2.64247
2.637
2.6342
2.63364
2.63556
2.64001
2.64676
2.65539
2.66533
2.67592
2.68645
2.69629
2.6671
2.67461
2.68046
2.68442
2.68649
2.68694
2.68556
2.68234
2.6773
2.67066
2.66269
2.65384
2.64466
2.6357
2.62743
2.62046
2.61647
2.61539
2.6171
2.62196
2.62963
2.63965