/*--------------------------------*- C++ -*----------------------------------*\
  =========                 |
  \\      /  F ield         | OpenFOAM: The Open Source CFD Toolbox
   \\    /   O peration     | Website:  https://openfoam.org
    \\  /    A nd           | Version:  10
     \\/     M anipulation  |
\*---------------------------------------------------------------------------*/
FoamFile
{
    format      ascii;
    class       surfaceScalarField;
    location    "0.850796";
    object      phi;
}
// * * * * * * * * * * * * * * * * * * * * * * * * * * * * * * * * * * * * * //

dimensions      [1 0 -1 0 0 0 0];

internalField   nonuniform List<scalar> 
31108
(
0.000500241
-0.000101537
0.000487949
-9.78679e-05
0.000475811
-9.39596e-05
0.000463783
-8.98701e-05
0.000451949
-8.56616e-05
0.000440351
-8.14013e-05
0.000429015
-7.71258e-05
0.000417964
-7.28825e-05
0.000407222
-6.87025e-05
0.000396806
-6.46156e-05
0.000386734
-6.06416e-05
0.000377023
-5.67981e-05
0.000367675
-5.30941e-05
0.000358694
-4.9536e-05
0.000350073
-4.61209e-05
0.000341809
-4.28533e-05
0.000333898
-3.97269e-05
0.000326331
-3.67367e-05
0.000319104
-3.38747e-05
0.000312212
-3.11351e-05
0.000305648
-2.85099e-05
0.000299407
-2.59912e-05
0.000293481
-2.35713e-05
0.000287868
-2.12439e-05
0.00028257
-1.9001e-05
0.000277578
-1.68381e-05
0.000272894
-1.47502e-05
0.000268517
-1.27335e-05
0.000264447
-1.07863e-05
0.000260689
-8.90798e-06
0.000257238
-7.09798e-06
0.000254098
-5.35865e-06
0.000251275
-3.69276e-06
0.000248768
-2.10276e-06
0.000246578
-5.93684e-07
0.00024471
8.29524e-07
0.000243159
2.16218e-06
0.000241925
3.39789e-06
0.000241008
4.53112e-06
0.0002404
5.55649e-06
0.000240096
6.46773e-06
0.00024009
7.26082e-06
0.000240373
7.93038e-06
0.000240931
8.47351e-06
0.00024175
8.88763e-06
0.000242814
9.17152e-06
0.000244102
9.32487e-06
0.000245602
9.34952e-06
0.000247279
9.24995e-06
0.000249119
9.03083e-06
8.70159e-06
0.000251096
0.00050407
-8.77896e-05
0.000491977
-8.40017e-05
0.000479984
-8.0157e-05
0.000468042
-7.61494e-05
0.000456259
-7.21116e-05
0.000444668
-6.80662e-05
0.000433296
-6.40581e-05
0.000422175
-6.01289e-05
0.000411336
-5.6304e-05
0.000400808
-5.26072e-05
0.00039061
-4.90547e-05
0.000380761
-4.56565e-05
0.00037127
-4.24177e-05
0.000362142
-3.934e-05
0.000353374
-3.64196e-05
0.000344966
-3.36512e-05
0.000336917
-3.10318e-05
0.000329218
-2.8551e-05
0.000321866
-2.61988e-05
0.000314856
-2.39665e-05
0.000308181
-2.18448e-05
0.000301838
-1.98252e-05
0.000295822
-1.78996e-05
0.000290125
-1.60582e-05
0.000284746
-1.42958e-05
0.000279679
-1.26047e-05
0.000274923
-1.09801e-05
0.000270478
-9.41906e-06
0.000266341
-7.91832e-06
0.000262514
-6.47683e-06
0.000259
-5.09469e-06
0.000255796
-3.77384e-06
0.000252904
-2.51493e-06
0.000250328
-1.32162e-06
0.000248065
-1.97836e-07
0.000246118
8.52314e-07
0.000244485
1.8238e-06
0.000243164
2.71174e-06
0.000242157
3.51075e-06
0.000241453
4.21629e-06
0.000241052
4.82324e-06
0.000240943
5.32792e-06
0.000241117
5.72637e-06
0.000241567
6.01654e-06
0.000242272
6.19615e-06
0.000243223
6.26629e-06
0.000244401
6.22678e-06
0.000245788
6.08085e-06
0.000247363
5.83328e-06
0.000249102
5.49034e-06
5.06078e-06
0.000250986
0.000507817
-7.41965e-05
0.000495884
-7.03515e-05
0.000483959
-6.64566e-05
0.00047206
-6.24897e-05
0.000460305
-5.85873e-05
0.000448668
-5.46965e-05
0.00043722
-5.09266e-05
0.000425991
-4.72809e-05
0.000415029
-4.37878e-05
0.000404367
-4.04635e-05
0.000394027
-3.7318e-05
0.000384025
-3.43547e-05
0.00037438
-3.15743e-05
0.000365098
-2.89732e-05
0.000356181
-2.6545e-05
0.00034763
-2.42793e-05
0.000339444
-2.21674e-05
0.000331619
-2.01985e-05
0.000324144
-1.83587e-05
0.000317022
-1.66367e-05
0.000310243
-1.5023e-05
0.000303804
-1.35056e-05
0.0002977
-1.20759e-05
0.000291922
-1.07242e-05
0.000286468
-9.44204e-06
0.000281332
-8.2234e-06
0.00027651
-7.06375e-06
0.000272003
-5.9585e-06
0.000267808
-4.90524e-06
0.000263923
-3.90233e-06
0.000260351
-2.94693e-06
0.000257089
-2.04556e-06
0.00025414
-1.19389e-06
0.000251503
-3.97442e-07
0.000249179
3.41197e-07
0.000247165
1.01796e-06
0.000245462
1.62852e-06
0.000244068
2.16848e-06
0.00024298
2.63327e-06
0.000242196
3.01894e-06
0.000241709
3.32132e-06
0.000241511
3.53733e-06
0.000241595
3.66414e-06
0.000241951
3.70032e-06
0.000242565
3.64474e-06
0.000243422
3.49911e-06
0.000244508
3.26433e-06
0.000245807
2.94453e-06
0.0002473
2.54458e-06
0.000248964
2.0716e-06
1.5351e-06
0.000250787
0.000511515
-6.08046e-05
0.000499769
-5.68423e-05
0.000487838
-5.28249e-05
0.000475997
-4.88683e-05
0.000464124
-4.49918e-05
0.000452378
-4.12595e-05
0.000440805
-3.76881e-05
0.000429446
-3.43042e-05
0.000418335
-3.11249e-05
0.000407507
-2.81602e-05
0.00039699
-2.54136e-05
0.000386811
-2.2881e-05
0.000376991
-2.05568e-05
0.000367542
-1.84329e-05
0.000358468
-1.64979e-05
0.00034977
-1.47386e-05
0.000341448
-1.31402e-05
0.000333494
-1.16884e-05
0.00032591
-1.03675e-05
0.000318684
-9.16086e-06
0.000311811
-8.05567e-06
0.000305285
-7.04105e-06
0.000299098
-6.1093e-06
0.000293245
-5.24664e-06
0.000287722
-4.44701e-06
0.000282524
-3.70348e-06
0.000277647
-3.0103e-06
0.000273088
-2.36277e-06
0.000268844
-1.75717e-06
0.000264911
-1.19191e-06
0.000261291
-6.66116e-07
0.000257981
-1.81043e-07
0.000254982
2.62865e-07
0.000252293
6.62971e-07
0.000249914
1.01612e-06
0.000247843
1.31901e-06
0.000246081
1.56788e-06
0.000244624
1.75898e-06
0.000243471
1.88859e-06
0.000242619
1.95319e-06
0.000242061
1.94952e-06
0.000241791
1.87538e-06
0.000241799
1.72855e-06
0.000242078
1.50852e-06
0.000242618
1.21511e-06
0.000243402
8.5023e-07
0.000244417
4.15933e-07
0.000245651
-8.20742e-08
0.00024708
-6.3966e-07
0.000248696
-1.24906e-06
-1.90037e-06
0.000250474
0.000515418
-4.75538e-05
0.000503547
-4.33013e-05
0.000491616
-3.91785e-05
0.000479632
-3.51609e-05
0.000467681
-3.13273e-05
0.000455811
-2.77007e-05
0.000444077
-2.43048e-05
0.000432532
-2.11604e-05
0.000421228
-1.82801e-05
0.000410204
-1.56673e-05
0.000399496
-1.33202e-05
0.000389135
-1.12223e-05
0.000379139
-9.35924e-06
0.000369521
-7.71841e-06
0.000360289
-6.28269e-06
0.00035144
-5.03343e-06
0.000342972
-3.95227e-06
0.000334885
-3.02126e-06
0.000327174
-2.22218e-06
0.000319834
-1.53457e-06
0.000312863
-9.4616e-07
0.000306248
-4.36001e-07
0.000299991
-1.23642e-08
0.000294076
3.57368e-07
0.000288499
6.71822e-07
0.000283254
9.39425e-07
0.000278333
1.16632e-06
0.000273733
1.35763e-06
0.00026945
1.5166e-06
0.000265479
1.64509e-06
0.00026182
1.74353e-06
0.000258472
1.81177e-06
0.000255432
1.84845e-06
0.000252701
1.85174e-06
0.000250276
1.8191e-06
0.000248158
1.74753e-06
0.000246345
1.63387e-06
0.000244835
1.47496e-06
0.000243628
1.26763e-06
0.000242718
1.00926e-06
0.000242101
6.97173e-07
0.000241772
3.29887e-07
0.000241721
-9.35893e-08
0.00024194
-5.7323e-07
0.00024242
-1.10815e-06
0.000243149
-1.69599e-06
0.000244114
-2.33647e-06
0.000245301
-3.01711e-06
0.000246692
-3.73968e-06
0.000248275
-4.49303e-06
-5.26825e-06
0.000250032
0.000519155
-3.42597e-05
0.000507302
-2.97636e-05
0.000495279
-2.54648e-05
0.000483154
-2.13425e-05
0.000471026
-1.75147e-05
0.000458962
-1.39666e-05
0.000447028
-1.07282e-05
0.000435277
-7.81419e-06
0.000423761
-5.2268e-06
0.00041252
-2.96115e-06
0.000401589
-1.00723e-06
0.000391006
6.54904e-07
0.000380802
2.0449e-06
0.000370997
3.18852e-06
0.000361595
4.11021e-06
0.000352593
4.83499e-06
0.000343988
5.38768e-06
0.000335771
5.79097e-06
0.00032794
6.06472e-06
0.000320493
6.22759e-06
0.000313426
6.29517e-06
0.000306738
6.28426e-06
0.000300413
6.20595e-06
0.000294444
6.0762e-06
0.000288819
5.9036e-06
0.000283532
5.69559e-06
0.000278571
5.45762e-06
0.000273933
5.19403e-06
0.000269616
4.90769e-06
0.000265614
4.60028e-06
0.000261925
4.27242e-06
0.000258547
3.92403e-06
0.000255478
3.55401e-06
0.000252717
3.16081e-06
0.00025026
2.74218e-06
0.000248106
2.29561e-06
0.000246255
1.81839e-06
0.000244704
1.3079e-06
0.000243453
7.61671e-07
0.000242499
1.77668e-07
0.000241836
-4.4579e-07
0.00024146
-1.10943e-06
0.000241362
-1.81373e-06
0.000241536
-2.55739e-06
0.000241973
-3.33943e-06
0.000242663
-4.15684e-06
0.000243591
-5.00642e-06
0.000244746
-5.88059e-06
0.000246118
-6.77554e-06
0.000247689
-7.68209e-06
-8.59077e-06
0.000249442
0.000523188
-2.09324e-05
0.00051119
-1.61715e-05
0.00049896
-1.15718e-05
0.000486673
-7.34763e-06
0.000474294
-3.46075e-06
0.000461956
2.21715e-08
0.000449743
3.10877e-06
0.000437729
5.78594e-06
0.000425957
8.07333e-06
0.000414463
9.98172e-06
0.000403278
1.15358e-05
0.000392442
1.27554e-05
0.000381993
1.36659e-05
0.000371956
1.4302e-05
0.000362346
1.46966e-05
0.000353165
1.48822e-05
0.000344404
1.48884e-05
0.00033606
1.47433e-05
0.000328128
1.44718e-05
0.000320604
1.40957e-05
0.000313476
1.3635e-05
0.000306727
1.31057e-05
0.000300345
1.25219e-05
0.000294325
1.18959e-05
0.000288659
1.12377e-05
0.000283339
1.05543e-05
0.000278358
9.85202e-06
0.000273708
9.1342e-06
0.000269378
8.40389e-06
0.000265362
7.66258e-06
0.000261652
6.91068e-06
0.000258247
6.14752e-06
0.000255149
5.37229e-06
0.000252357
4.58344e-06
0.000249868
3.7789e-06
0.000247684
2.95666e-06
0.000245802
2.11454e-06
0.00024422
1.25053e-06
0.000242937
3.62832e-07
0.00024195
-5.49903e-07
0.000241254
-1.48855e-06
0.000240845
-2.45301e-06
0.000240716
-3.44296e-06
0.00024086
-4.45681e-06
0.000241271
-5.49224e-06
0.000241937
-6.5458e-06
0.000242848
-7.61338e-06
0.000243991
-8.68828e-06
0.000245357
-9.7647e-06
0.000246931
-1.0834e-05
-1.18867e-05
0.000248698
0.000527163
-7.54163e-06
0.000514908
-2.32687e-06
0.000502457
2.51707e-06
0.000489884
6.89788e-06
0.000477289
1.08151e-05
0.000464687
1.42826e-05
0.000452165
1.72453e-05
0.000439804
1.97005e-05
0.000427667
2.16914e-05
0.000415828
2.32279e-05
0.000404342
2.4349e-05
0.000393248
2.50911e-05
0.000382573
2.54937e-05
0.000372336
2.55982e-05
0.000362546
2.54453e-05
0.000353211
2.50746e-05
0.000344322
2.45206e-05
0.000335867
2.38165e-05
0.000327837
2.29917e-05
0.000320226
2.20708e-05
0.00031302
2.10754e-05
0.000306204
2.00231e-05
0.000299772
1.89283e-05
0.000293715
1.78036e-05
0.000288026
1.66582e-05
0.000282696
1.55004e-05
0.000277706
1.43349e-05
0.000273045
1.31652e-05
0.000268703
1.19937e-05
0.000264675
1.08211e-05
0.000260956
9.64776e-06
0.00025754
8.47266e-06
0.000254428
7.29443e-06
0.000251617
6.11143e-06
0.000249106
4.92179e-06
0.000246899
3.72368e-06
0.000244993
2.51549e-06
0.000243388
1.29582e-06
0.000242084
6.36898e-08
0.000241076
-1.18152e-06
0.000240361
-2.43995e-06
0.000239932
-3.71056e-06
0.000239786
-4.9921e-06
0.000239913
-6.28246e-06
0.000240312
-7.57837e-06
0.000240969
-8.87591e-06
0.000241874
-1.01698e-05
0.000243023
-1.14544e-05
0.000244398
-1.27219e-05
0.000245993
-1.39644e-05
-1.51723e-05
0.000247791
0.000531006
6.04122e-06
0.000518707
1.17036e-05
0.000506003
1.68053e-05
0.000493085
2.14561e-05
0.000480048
2.54821e-05
0.000467019
2.89115e-05
0.000454082
3.1735e-05
0.000441346
3.39402e-05
0.000428859
3.56167e-05
0.000416689
3.67628e-05
0.000404899
3.74328e-05
0.000393538
3.76777e-05
0.000382635
3.75492e-05
0.000372196
3.70976e-05
0.000362216
3.6372e-05
0.000352701
3.54198e-05
0.000343652
3.42838e-05
0.000335068
3.30014e-05
0.000326943
3.16084e-05
0.000319264
3.01313e-05
0.000312017
2.85928e-05
0.000305183
2.70117e-05
0.00029874
2.5403e-05
0.000292674
2.3779e-05
0.000286974
2.21486e-05
0.000281627
2.05185e-05
0.000276621
1.88928e-05
0.000271947
1.72749e-05
0.000267595
1.5666e-05
0.000263558
1.40663e-05
0.000259833
1.2475e-05
0.000256414
1.08909e-05
0.000253297
9.31205e-06
0.000250483
7.73662e-06
0.000247968
6.16286e-06
0.000245752
4.58903e-06
0.000243837
3.01397e-06
0.000242222
1.43674e-06
0.000240905
-1.42811e-07
0.000239886
-1.72447e-06
0.000239159
-3.30743e-06
0.000238721
-4.89001e-06
0.000238568
-6.46984e-06
0.000238692
-8.0439e-06
0.000239091
-9.60819e-06
0.000239754
-1.11581e-05
0.000240673
-1.2688e-05
0.000241839
-1.41915e-05
0.000243241
-1.56607e-05
0.000244871
-1.70876e-05
-1.84622e-05
0.000246714
0.000534429
1.9786e-05
0.00052179
2.59795e-05
0.000508893
3.14566e-05
0.000495602
3.63044e-05
0.000482273
4.04503e-05
0.000468859
4.38564e-05
0.000455582
4.65504e-05
0.000442404
4.85663e-05
0.000429521
4.98925e-05
0.000416988
5.06269e-05
0.000404871
5.08163e-05
0.00039322
5.05276e-05
0.000382053
4.98297e-05
0.000371377
4.87852e-05
0.000361203
4.74543e-05
0.000351531
4.5893e-05
0.000342363
4.41536e-05
0.000333699
4.22767e-05
0.000325522
4.03012e-05
0.000317808
3.82568e-05
0.000310529
3.61673e-05
0.000303666
3.40519e-05
0.000297206
3.19263e-05
0.000291132
2.98023e-05
0.000285428
2.7688e-05
0.000280079
2.55892e-05
0.000275071
2.35089e-05
0.000270396
2.14486e-05
0.000266044
1.94084e-05
0.00026201
1.73871e-05
0.000258287
1.53832e-05
0.000254871
1.33942e-05
0.000251759
1.14182e-05
0.000248947
9.45267e-06
0.000246436
7.49607e-06
0.000244225
5.5466e-06
0.000242313
3.60377e-06
0.0002407
1.667e-06
0.000239386
-2.63151e-07
0.000238368
-2.18545e-06
0.000237644
-4.09819e-06
0.00023721
-5.9988e-06
0.000237063
-7.88399e-06
0.000237198
-9.74963e-06
0.000237612
-1.1591e-05
0.000238295
-1.34026e-05
0.00023924
-1.51785e-05
0.000240438
-1.69113e-05
0.000241883
-1.85934e-05
0.000243562
-2.02165e-05
-2.17704e-05
0.000245467
0.000536907
3.37318e-05
0.000524092
4.03728e-05
0.00051085
4.63235e-05
0.000497376
5.14429e-05
0.000483583
5.57608e-05
0.000469831
5.91929e-05
0.000456186
6.17174e-05
0.000442696
6.35017e-05
0.000429469
6.44858e-05
0.000416598
6.47892e-05
0.000404149
6.44766e-05
0.000392185
6.36234e-05
0.000380749
6.23178e-05
0.000369857
6.0643e-05
0.000359515
5.8675e-05
0.000349722
5.6478e-05
0.000340467
5.41097e-05
0.000331736
5.16171e-05
0.000323505
4.90413e-05
0.000315754
4.64147e-05
0.00030846
4.37654e-05
0.000301596
4.11127e-05
0.000295141
3.84711e-05
0.000289076
3.58504e-05
0.000283384
3.32572e-05
0.000278053
3.06955e-05
0.000273069
2.81672e-05
0.000268419
2.56716e-05
0.000264093
2.32076e-05
0.00026008
2.07719e-05
0.000256374
1.8362e-05
0.000252972
1.59742e-05
0.000249869
1.36059e-05
0.000247064
1.1254e-05
0.000244558
8.91681e-06
0.00024235
6.59263e-06
0.000240443
4.28129e-06
0.000238834
1.98297e-06
0.000237524
-3.01072e-07
0.000236514
-2.5688e-06
0.000235801
-4.81742e-06
0.000235384
-7.04308e-06
0.000235259
-9.24152e-06
0.00023542
-1.14074e-05
0.000235866
-1.3535e-05
0.000236583
-1.56185e-05
0.000237569
-1.76508e-05
0.000238818
-1.96244e-05
0.000240318
-2.15315e-05
0.000242063
-2.33629e-05
-2.51099e-05
0.000244045
0.000537574
4.7529e-05
0.00052479
5.47239e-05
0.000511339
6.11883e-05
0.000497694
6.66234e-05
0.000483703
7.12198e-05
0.000469685
7.46278e-05
0.000455651
7.72072e-05
0.000441891
7.86641e-05
0.000428375
7.93702e-05
0.000415258
7.91898e-05
0.000402564
7.83562e-05
0.000390361
7.69139e-05
0.000378697
7.4976e-05
0.000367613
7.26421e-05
0.000357121
7.00036e-05
0.000347216
6.7138e-05
0.000337886
6.4113e-05
0.000329106
6.09834e-05
0.000320849
5.7793e-05
0.000313088
5.45773e-05
0.000305802
5.13633e-05
0.000298967
4.81711e-05
0.000292552
4.50144e-05
0.000286531
4.19006e-05
0.000280882
3.88348e-05
0.000275591
3.58185e-05
0.000270642
3.28511e-05
0.000266022
2.99299e-05
0.000261722
2.7051e-05
0.000257733
2.42101e-05
0.000254048
2.14024e-05
0.000250665
1.86231e-05
0.000247578
1.58685e-05
0.000244788
1.31349e-05
0.000242294
1.04203e-05
0.0002401
7.72282e-06
0.000238205
5.0427e-06
0.000236613
2.38071e-06
0.000235323
-2.60911e-07
0.000234333
-2.87898e-06
0.000233644
-5.46968e-06
0.000233253
-8.02794e-06
0.000233157
-1.05481e-05
0.000233356
-1.30236e-05
0.000233844
-1.54478e-05
0.000234614
-1.78142e-05
0.00023566
-2.01144e-05
0.000236974
-2.23406e-05
0.000238549
-2.44847e-05
0.000240377
-2.65383e-05
-2.84916e-05
0.000242449
0.000535615
6.07043e-05
0.000522562
6.89073e-05
0.000509183
7.58793e-05
0.000495562
8.16498e-05
0.000481589
8.65984e-05
0.00046759
9.00681e-05
0.000453547
9.2651e-05
0.000439603
9.39728e-05
0.000425949
9.43094e-05
0.000412635
9.37441e-05
0.000399785
9.23536e-05
0.000387441
9.03032e-05
0.000375659
8.77134e-05
0.000364474
8.46994e-05
0.000353905
8.13691e-05
0.000343947
7.78143e-05
0.00033459
7.41151e-05
0.000325809
7.03354e-05
0.000317576
6.65206e-05
0.000309857
6.27095e-05
0.000302621
5.89288e-05
0.000295837
5.51978e-05
0.000289474
5.15291e-05
0.000283507
4.79286e-05
0.000277915
4.43989e-05
0.000272677
4.09385e-05
0.000267777
3.75433e-05
0.000263202
3.42081e-05
0.00025894
3.09266e-05
0.000254983
2.76918e-05
0.000251325
2.44969e-05
0.000247962
2.13354e-05
0.000244894
1.82019e-05
0.000242125
1.50924e-05
0.000239652
1.20039e-05
0.000237477
8.93504e-06
0.000235603
5.88605e-06
0.000234032
2.85842e-06
0.000232768
-1.44827e-07
0.000231809
-3.11882e-06
0.000231153
-6.05847e-06
0.000230803
-8.9575e-06
0.000230755
-1.18087e-05
0.000231008
-1.46042e-05
0.000231556
-1.73359e-05
0.000232388
-1.99963e-05
0.000233505
-2.25761e-05
0.000234897
-2.50674e-05
0.000236559
-2.74619e-05
0.000238483
-2.97512e-05
-3.1926e-05
0.000240664
0.000530745
7.34993e-05
0.000517689
8.23928e-05
0.000504421
8.92174e-05
0.000490751
9.65628e-05
0.000477176
0.000101294
0.000463229
0.000105362
0.000449408
0.000107754
0.000435519
0.000109121
0.000421895
0.000109141
0.000408568
0.000108182
0.000395667
0.000106294
0.000383291
0.000103651
0.000371503
0.000100409
0.000360331
9.67091e-05
0.000349785
9.26824e-05
0.000339861
8.84347e-05
0.000330552
8.4055e-05
0.000321837
7.9617e-05
0.000313679
7.51727e-05
0.000306037
7.07637e-05
0.000298879
6.64177e-05
0.000292174
6.21528e-05
0.000285893
5.79792e-05
0.000280008
5.39034e-05
0.000274493
4.99221e-05
0.000269324
4.60325e-05
0.000264484
4.22252e-05
0.000259961
3.84923e-05
0.000255747
3.48232e-05
0.000251831
3.12088e-05
0.00024821
2.76393e-05
0.000244879
2.41065e-05
0.000241839
2.06035e-05
0.000239091
1.71246e-05
0.00023664
1.36672e-05
0.00023449
1.02289e-05
0.000232643
6.81116e-06
0.0002311
3.4158e-06
0.000229865
4.68769e-08
0.000228942
-3.28907e-06
0.000228332
-6.58553e-06
0.000228034
-9.83445e-06
0.000228044
-1.30267e-05
0.000228361
-1.6153e-05
0.000228977
-1.92038e-05
0.000229889
-2.21704e-05
0.000231092
-2.50427e-05
0.000232581
-2.78122e-05
0.000234348
-3.04708e-05
0.000236388
-3.30101e-05
-3.54219e-05
0.000238692
0.000524714
8.53625e-05
0.000509712
9.50144e-05
0.000494999
0.000103499
0.000481666
0.000109706
0.000468209
0.000115412
0.000454909
0.000119495
0.000441531
0.000122188
0.000428319
0.000123454
0.000415136
0.000123438
0.000402228
0.000122169
0.000389666
0.000119865
0.00037755
0.000116694
0.000365966
0.000112845
0.000354972
0.000108491
0.000344597
0.000103789
0.000334838
9.88635e-05
0.000325677
9.38172e-05
0.000317092
8.87301e-05
0.000309057
8.36657e-05
0.000301544
7.86669e-05
0.000294515
7.37665e-05
0.000287934
6.89822e-05
0.000281771
6.43225e-05
0.000275997
5.97874e-05
0.00027059
5.53756e-05
0.000265523
5.10748e-05
0.000260776
4.68771e-05
0.000256331
4.27649e-05
0.000252179
3.87287e-05
0.000248312
3.47515e-05
0.000244727
3.08243e-05
0.000241426
2.69328e-05
0.00023841
2.30726e-05
0.000235684
1.92322e-05
0.000233255
1.54124e-05
0.000231128
1.16064e-05
0.000229307
7.8208e-06
0.000227797
4.05522e-06
0.0002266
3.1549e-07
0.000225721
-3.38912e-06
0.000225163
-7.05095e-06
0.000224925
-1.06599e-05
0.000225006
-1.42044e-05
0.000225404
-1.76733e-05
0.000226106
-2.10564e-05
0.000227113
-2.43418e-05
0.000228419
-2.75196e-05
0.000230017
-3.05809e-05
0.000231903
-3.35171e-05
0.000234068
-3.63215e-05
-3.89845e-05
0.000236513
0.000522041
0.000101035
0.000501402
0.000108805
0.000484617
0.000115945
0.000469795
0.000122357
0.000456627
0.000128177
0.000443487
0.000132528
0.000430745
0.000135521
0.000418091
0.000136888
0.000405647
0.000136785
0.000393406
0.000135357
0.000381447
0.000132743
0.000369861
0.00012914
0.000358734
0.000124765
0.000348136
0.000119826
0.000338105
0.000114501
0.000328652
0.000108936
0.000319772
0.000103254
0.000311448
9.75507e-05
0.000303652
9.18984e-05
0.000296357
8.63407e-05
0.000289529
8.0913e-05
0.000283137
7.56359e-05
0.000277145
7.0515e-05
0.000271529
6.55486e-05
0.000266256
6.07298e-05
0.000261307
5.60448e-05
0.000256658
5.14786e-05
0.000252298
4.70136e-05
0.000248215
4.26299e-05
0.000244404
3.8314e-05
0.000240865
3.40455e-05
0.000237601
2.98139e-05
0.000234615
2.56089e-05
0.000231914
2.14177e-05
0.000229507
1.72439e-05
0.000227406
1.30707e-05
0.000225611
8.919e-06
0.000224131
4.78125e-06
0.000222975
6.64444e-07
0.000222145
-3.4158e-06
0.000221644
-7.45269e-06
0.000221473
-1.1433e-05
0.000221633
-1.53426e-05
0.000222121
-1.91676e-05
0.000222926
-2.2896e-05
0.000224044
-2.6514e-05
0.00022547
-3.00113e-05
0.000227195
-3.33776e-05
0.000229217
-3.66054e-05
0.000231524
-3.96882e-05
-4.26185e-05
0.000234117
0.000541264
0.000118618
0.000504757
0.000125513
0.000477557
0.000131097
0.00045719
0.000135867
0.000441541
0.000140435
0.000428375
0.000144476
0.000416275
0.00014743
0.000404564
0.000148951
0.000393087
0.000148938
0.000381831
0.000147432
0.0003708
0.000144619
0.000360052
0.000140706
0.000349664
0.000135919
0.000339706
0.00013049
0.000330223
0.00012462
0.000321248
0.000118489
0.000312793
0.000112235
0.000304854
0.000105968
0.000297412
9.9769e-05
0.000290434
9.36958e-05
0.000283898
8.77781e-05
0.00027777
8.20442e-05
0.000272018
7.64975e-05
0.000266604
7.11377e-05
0.000261509
6.59457e-05
0.000256701
6.09137e-05
0.000252172
5.60106e-05
0.000247902
5.12255e-05
0.000243897
4.65218e-05
0.00024014
4.18926e-05
0.000236646
3.73064e-05
0.000233416
3.27535e-05
0.000230454
2.82184e-05
0.000227779
2.36869e-05
0.000225382
1.9171e-05
0.0002233
1.46295e-05
0.000221536
1.01103e-05
0.000220088
5.60016e-06
0.000218972
1.09841e-06
0.000218193
-3.36496e-06
0.000217757
-7.78803e-06
0.000217663
-1.21523e-05
0.000217914
-1.64408e-05
0.000218502
-2.06369e-05
0.000219421
-2.47253e-05
0.000220665
-2.8691e-05
0.000222227
-3.25216e-05
0.000224096
-3.62066e-05
0.000226267
-3.97387e-05
0.00022873
-4.31126e-05
-4.63238e-05
0.000231485
0.000563226
0.000140003
0.000517413
0.00014268
0.000478381
0.000148187
0.000449072
0.000150588
0.000428005
0.000153395
0.000412385
0.000155697
0.000399618
0.00015829
0.000388406
0.000159598
0.000377829
0.000159675
0.000367641
0.00015813
0.000357702
0.000155217
0.00034801
0.000151096
0.000338599
0.000146012
0.000329516
0.000140213
0.000320812
0.000133918
0.000312523
0.000127321
0.000304675
0.00012058
0.000297273
0.000113824
0.000290309
0.000107144
0.000283762
0.000100613
0.000277604
9.42633e-05
0.00027181
8.81228e-05
0.00026635
8.21993e-05
0.000261198
7.64873e-05
0.000256317
7.09751e-05
0.0002517
6.56324e-05
0.000247312
6.04474e-05
0.000243162
5.53715e-05
0.000239232
5.0395e-05
0.000235542
4.54773e-05
0.000232083
4.06089e-05
0.000228881
3.57515e-05
0.000225936
3.0905e-05
0.000223282
2.60472e-05
0.000220915
2.11755e-05
0.000218832
1.63135e-05
0.000217076
1.14129e-05
0.000215651
6.52693e-06
0.000214579
1.62805e-06
0.000213857
-3.23355e-06
0.000213489
-8.05388e-06
0.000213478
-1.28154e-05
0.000213832
-1.74982e-05
0.000214537
-2.20814e-05
0.000215587
-2.65462e-05
0.000216974
-3.08739e-05
0.000218686
-3.50523e-05
0.000220714
-3.9068e-05
0.000223047
-4.2916e-05
0.000225673
-4.65917e-05
-5.00959e-05
0.000228594
0.000578483
0.000147108
0.00052854
0.000164193
0.000483331
0.000163649
0.000444054
0.000167848
0.000415281
0.000166763
0.000394809
0.000168437
0.000380987
0.000167817
0.000369677
0.00016898
0.000359758
0.000168983
0.000350622
0.000167363
0.000341913
0.000164353
0.000333491
0.000160066
0.000325288
0.000154782
0.00031732
0.000148727
0.000309628
0.000142128
0.000302252
0.000135179
0.000295217
0.000128063
0.000288536
0.000120921
0.00028221
0.000113858
0.000276234
0.000106949
0.000270578
0.000100245
0.000265222
9.37701e-05
0.000260139
8.75324e-05
0.000255302
8.15375e-05
0.000250697
7.57506e-05
0.000246297
7.017e-05
0.000242099
6.47346e-05
0.000238074
5.9444e-05
0.000234254
5.42208e-05
0.000230617
4.90769e-05
0.000227203
4.39378e-05
0.000224012
3.88252e-05
0.000221074
3.36805e-05
0.000218411
2.85214e-05
0.000216031
2.33155e-05
0.000213971
1.80942e-05
0.000212231
1.28272e-05
0.000210845
7.54353e-06
0.000209782
2.28116e-06
0.000209119
-3.00625e-06
0.000208825
-8.2405e-06
0.000208904
-1.34167e-05
0.000209356
-1.85127e-05
0.000210182
-2.35006e-05
0.000211373
-2.83596e-05
0.000212915
-3.30656e-05
0.000214797
-3.76061e-05
0.000216998
-4.19642e-05
0.000219511
-4.61371e-05
0.00022232
-5.01223e-05
-5.39262e-05
0.000225417
0.000568624
0.000154072
0.000528171
0.00017287
0.000483257
0.000179977
0.000440323
0.000183086
0.000406456
0.000181746
0.000380478
0.000178876
0.000360628
0.000181692
0.000349875
0.000176092
0.000339829
0.000177048
0.000331655
0.000174962
0.000324128
0.000171848
0.000316919
0.000167509
0.000309936
0.000162134
0.000303181
0.000155911
0.000296655
0.000149086
0.000290368
0.000141892
0.000284335
0.00013451
0.000278566
0.000127089
0.000273057
0.000119741
0.000267798
0.000112554
0.000262782
0.000105582
0.000257969
9.88669e-05
0.000253362
9.23984e-05
0.000248923
8.62014e-05
0.000244641
8.02253e-05
0.000240508
7.4466e-05
0.000236513
6.88604e-05
0.00023267
6.33914e-05
0.000228953
5.80034e-05
0.000225412
5.2652e-05
0.000222027
4.73267e-05
0.000218858
4.19552e-05
0.000215903
3.65764e-05
0.000213221
3.11032e-05
0.000210821
2.56017e-05
0.000208738
2.00166e-05
0.000206997
1.4389e-05
0.000205608
8.71282e-06
0.000204617
3.01577e-06
0.000203969
-2.66241e-06
0.000203739
-8.34184e-06
0.000203919
-1.39507e-05
0.000204494
-1.9482e-05
0.000205455
-2.48973e-05
0.0002068
-3.01697e-05
0.000208511
-3.52736e-05
0.000210573
-4.01884e-05
0.000212961
-4.48995e-05
0.00021566
-4.94008e-05
0.000218649
-5.36958e-05
-5.77959e-05
0.000221915
0.000528622
0.00016271
0.000508148
0.000179273
0.00047134
0.000192868
0.000425383
0.000194558
0.000387316
0.000193783
0.000363698
0.000188295
0.000340849
0.000188669
0.00032422
0.000188369
0.000317317
0.000182079
0.000309511
0.000180983
0.000303301
0.000177574
0.000297702
0.000173175
0.000292313
0.000167771
0.00028704
0.000161498
0.000281889
0.000154587
0.000276874
0.000147264
0.000272017
0.000139727
0.000267323
0.000132136
0.000262793
0.000124614
0.000258415
0.000117259
0.000254172
0.000110128
0.000250049
0.000103267
0.000246014
9.66906e-05
0.000242074
9.03708e-05
0.000238192
8.43233e-05
0.000234377
7.84632e-05
0.000230615
7.27939e-05
0.000226936
6.72112e-05
0.000223345
6.17265e-05
0.000219857
5.62322e-05
0.000216526
5.07426e-05
0.000213351
4.51817e-05
0.000210409
3.95574e-05
0.000207663
3.38444e-05
0.000205267
2.80155e-05
0.000203145
2.2116e-05
0.000201371
1.61004e-05
0.000199951
1.00435e-05
0.000198951
3.90756e-06
0.000198379
-2.22266e-06
0.000198207
-8.34064e-06
0.000198504
-1.44156e-05
0.000199211
-2.04019e-05
0.000200327
-2.62664e-05
0.000201847
-3.19746e-05
0.000203744
-3.74931e-05
0.000205995
-4.27966e-05
0.000208575
-4.7865e-05
0.000211453
-5.26925e-05
0.000214606
-5.72842e-05
-6.16615e-05
0.000218012
0.000478274
0.000166605
0.000470113
0.000184832
0.000446561
0.000199386
0.000403793
0.000203317
0.000366896
0.000202071
0.000336591
0.000199144
0.00031982
0.000193483
0.000304799
0.000193623
0.000291529
0.000190134
0.000285708
0.000185229
0.000280828
0.0001817
0.000276562
0.00017716
0.0002727
0.000171672
0.000269001
0.000165373
0.000265364
0.000158462
0.000261781
0.000151115
0.000258261
0.000143533
0.000254808
0.000135881
0.000251417
0.000128302
0.000248074
0.000120889
0.000244755
0.000113729
0.000241449
0.000106838
0.000238121
0.000100267
0.000234759
9.39675e-05
0.000231364
8.7945e-05
0.000227928
8.21147e-05
0.000224465
7.64638e-05
0.000220968
7.08988e-05
0.000217514
6.53648e-05
0.000214071
5.98403e-05
0.000210737
5.4217e-05
0.000207528
4.85375e-05
0.000204522
4.26946e-05
0.000201751
3.67451e-05
0.000199251
3.06255e-05
0.000197085
2.43853e-05
0.000195274
1.8001e-05
0.000193879
1.15139e-05
0.000192864
4.97222e-06
0.000192299
-1.63197e-06
0.000192195
-8.22945e-06
0.000192556
-1.47912e-05
0.000193374
-2.12637e-05
0.00019464
-2.76045e-05
0.000196339
-3.37696e-05
0.000198447
-3.97167e-05
0.000200912
-4.54133e-05
0.000203685
-5.08298e-05
0.000206727
-5.59587e-05
0.000209984
-6.08056e-05
-6.54103e-05
0.000213438
0.000422842
0.000167941
0.000419132
0.000185936
0.000400612
0.000200504
0.000365822
0.000206573
0.000335234
0.000205658
0.000309342
0.000203414
0.000289365
0.000199565
0.000277152
0.000195774
0.000268504
0.000193888
0.000261186
0.000189206
0.00025679
0.000184543
0.000253915
0.000179498
0.000251549
0.000173866
0.000249388
0.000167551
0.000247315
0.000160648
0.00024526
0.000153335
0.000243194
0.000145797
0.000241109
0.000138189
0.000238989
0.000130657
0.000236819
0.000123306
0.000234562
0.000116226
0.000232194
0.000109453
0.000229681
0.000103012
0.000227011
9.6874e-05
0.000224174
9.1012e-05
0.000221166
8.53624e-05
0.000218021
7.98367e-05
0.000214739
7.44035e-05
0.000211378
6.8937e-05
0.000207998
6.34371e-05
0.000204646
5.77885e-05
0.000201394
5.2015e-05
0.000198285
4.60246e-05
0.00019542
3.98525e-05
0.000192819
3.34534e-05
0.000190578
2.68773e-05
0.000188662
2.01241e-05
0.00018721
1.32046e-05
0.000186232
6.19299e-06
0.000185688
-8.89887e-07
0.000185633
-7.99329e-06
0.000186078
-1.50658e-05
0.00018701
-2.20494e-05
0.000188413
-2.88864e-05
0.000190256
-3.55207e-05
0.000192499
-4.1896e-05
0.000195087
-4.79643e-05
0.000197951
-5.36853e-05
0.000201014
-5.90499e-05
0.000204213
-6.40744e-05
-6.88099e-05
0.000207505
0.000362927
0.000165329
0.000360659
0.000185388
0.00034269
0.000199379
0.000314808
0.000201058
0.000290203
0.000203452
0.000270181
0.000202581
0.000255506
0.00019985
0.000245349
0.000196592
0.000239424
0.000193689
0.00023492
0.000190079
0.000231707
0.000185482
0.000229891
0.000180164
0.000229029
0.000174304
0.000228513
0.000167958
0.000228054
0.000161118
0.000227567
0.000153899
0.000227014
0.000146462
0.000226371
0.000138969
0.000225617
0.000131575
0.000224713
0.000124396
0.000223622
0.000117508
0.000222294
0.000110993
0.000220687
0.000104825
0.000218774
9.90165e-05
0.000216546
9.34652e-05
0.000214007
8.81477e-05
0.000211175
8.29083e-05
0.00020812
7.77258e-05
0.000204866
7.24412e-05
0.000201519
6.7074e-05
0.000198105
6.1468e-05
0.000194804
5.56674e-05
0.000191549
4.95917e-05
0.000188493
4.32029e-05
0.000185738
3.65551e-05
0.000183342
2.96225e-05
0.000181387
2.24717e-05
0.000179829
1.51281e-05
0.000178789
7.61466e-06
0.000178287
2.93174e-08
0.000178276
-7.60202e-06
0.000178772