/*--------------------------------*- C++ -*----------------------------------*\
  =========                 |
  \\      /  F ield         | OpenFOAM: The Open Source CFD Toolbox
   \\    /   O peration     | Website:  https://openfoam.org
    \\  /    A nd           | Version:  10
     \\/     M anipulation  |
\*---------------------------------------------------------------------------*/
FoamFile
{
    format      ascii;
    class       volScalarField;
    location    "0.850796";
    object      T;
}
// * * * * * * * * * * * * * * * * * * * * * * * * * * * * * * * * * * * * * //

dimensions      [0 0 0 1 0 0 0];

internalField   nonuniform List<scalar> 
15708
(
0.00863027
0.00863662
0.00863832
0.00864238
0.00864591
0.00864908
0.008652
0.00865476
0.00865751
0.00866005
0.00866264
0.00866479
0.00866671
0.00866835
0.00866981
0.00867122
0.00867261
0.00867409
0.00867579
0.00867756
0.00867961
0.00868189
0.00868435
0.00868729
0.00869041
0.00869378
0.0086976
0.00870157
0.0087059
0.00871044
0.00871512
0.00872023
0.00872535
0.00873061
0.008736
0.0087414
0.00874679
0.00875223
0.00875772
0.00876296
0.00876857
0.00877381
0.00877927
0.00878442
0.00878974
0.0087948
0.00880003
0.00880518
0.00880984
0.00881534
0.00881962
0.00862848
0.00863697
0.00863878
0.00864281
0.00864634
0.00864929
0.00865216
0.0086549
0.00865769
0.00866027
0.00866273
0.00866487
0.00866682
0.00866841
0.00866994
0.00867145
0.00867286
0.00867437
0.00867611
0.00867796
0.00868009
0.00868238
0.00868488
0.00868767
0.00869081
0.00869413
0.00869799
0.00870186
0.00870625
0.00871077
0.00871558
0.00872048
0.00872573
0.00873098
0.00873639
0.00874191
0.00874739
0.008753
0.00875864
0.00876394
0.00876972
0.00877491
0.00878063
0.00878581
0.00879123
0.00879655
0.00880178
0.00880701
0.00881201
0.00881712
0.00882212
0.00862693
0.00863826
0.00863702
0.00864456
0.00864567
0.00864923
0.00865193
0.00865487
0.0086577
0.0086603
0.00866262
0.00866478
0.00866674
0.00866838
0.00866988
0.00867138
0.00867286
0.00867431
0.00867601
0.00867802
0.00868001
0.0086825
0.00868496
0.00868788
0.008691
0.0086944
0.00869812
0.0087022
0.00870641
0.00871108
0.00871587
0.00872083
0.00872617
0.00873134
0.00873688
0.0087423
0.00874806
0.00875359
0.00875938
0.00876493
0.00877069
0.00877616
0.0087819
0.00878732
0.00879286
0.00879822
0.00880366
0.00880901
0.00881422
0.00881932
0.0088246
0.00863481
0.00863111
0.00864007
0.0086399
0.00864498
0.00864851
0.00865163
0.00865447
0.00865712
0.00865975
0.0086622
0.00866469
0.00866678
0.00866864
0.00867021
0.00867168
0.00867315
0.00867463
0.00867644
0.00867818
0.00868045
0.00868273
0.00868529
0.00868818
0.00869127
0.00869474
0.00869838
0.00870248
0.0087067
0.00871135
0.0087162
0.00872128
0.00872649
0.00873196
0.00873739
0.00874303
0.0087488
0.00875442
0.00876034
0.00876595
0.00877179
0.00877736
0.00878321
0.00878882
0.0087945
0.00879996
0.00880552
0.00881105
0.00881623
0.00882185
0.00882657
0.00862526
0.00863333
0.008637
0.00864095
0.00864437
0.00864766
0.00865079
0.00865384
0.0086567
0.00865935
0.00866188
0.00866424
0.00866632
0.00866818
0.00866981
0.00867133
0.00867289
0.0086746
0.00867641
0.00867848
0.00868067
0.00868303
0.00868571
0.00868853
0.00869177
0.00869516
0.00869896
0.00870295
0.00870731
0.00871182
0.00871677
0.00872176
0.00872707
0.00873245
0.00873808
0.00874375
0.00874955
0.00875543
0.00876136
0.00876711
0.00877315
0.00877879
0.00878477
0.00879042
0.00879639
0.00880187
0.00880756
0.00881317
0.00881842
0.00882408
0.00882899
0.00862777
0.00863196
0.00863585
0.00863995
0.00864357
0.00864708
0.0086502
0.00865306
0.00865576
0.0086583
0.00866076
0.00866312
0.00866528
0.00866718
0.0086688
0.0086704
0.00867208
0.00867395
0.0086761
0.00867835
0.00868083
0.00868342
0.00868613
0.00868905
0.00869232
0.00869581
0.00869964
0.00870381
0.00870823
0.00871287
0.00871776
0.0087228
0.00872805
0.00873344
0.00873893
0.00874466
0.0087505
0.00875641
0.00876247
0.00876833
0.0087744
0.00878027
0.00878632
0.00879221
0.00879811
0.00880397
0.0088096
0.00881537
0.00882094
0.00882635
0.00883165
0.00862782
0.00862414
0.00863542
0.00863585
0.00864086
0.00864441
0.00864772
0.00865066
0.00865327
0.00865582
0.00865848
0.0086613
0.008664
0.00866646
0.00866864
0.00867051
0.00867231
0.00867442
0.00867659
0.00867906
0.00868142
0.0086841
0.00868699
0.00869028
0.00869352
0.00869721
0.0087008
0.00870467
0.00870871
0.00871309
0.00871786
0.00872307
0.00872854
0.00873414
0.00873995
0.00874581
0.0087518
0.00875781
0.0087639
0.00876989
0.00877603
0.00878203
0.00878805
0.00879414
0.00880006
0.00880606
0.00881175
0.00881756
0.00882326
0.00882874
0.00883426
0.00861727
0.00862676
0.00863116
0.00863573
0.00863897
0.00864201
0.0086451
0.00864813
0.00865134
0.00865458
0.00865769
0.00866072
0.00866352
0.00866617
0.00866856
0.00867073
0.00867264
0.00867472
0.00867694
0.00867944
0.00868205
0.00868492
0.0086882
0.00869152
0.00869505
0.00869832
0.00870176
0.00870543
0.00870949
0.00871394
0.00871863
0.00872378
0.00872923
0.00873492
0.00874092
0.00874703
0.00875319
0.00875939
0.00876556
0.00877166
0.00877774
0.00878387
0.00878997
0.00879605
0.00880224
0.00880805
0.00881414
0.00881991
0.00882567
0.00883139
0.00883669
0.00862015
0.00861904
0.00862803
0.00862771
0.00863522
0.00863833
0.00864282
0.00864641
0.00865007
0.00865371
0.00865725
0.00866035
0.00866295
0.00866509
0.00866732
0.00866991
0.00867258
0.00867538
0.00867808
0.00868071
0.00868327
0.00868582
0.00868855
0.00869159
0.00869491
0.00869842
0.0087022
0.00870621
0.00871054
0.00871515
0.0087201
0.0087252
0.00873069
0.00873635
0.0087422
0.00874831
0.00875452
0.00876075
0.00876702
0.00877322
0.00877947
0.0087857
0.00879196
0.00879815
0.00880441
0.00881039
0.0088165
0.00882231
0.00882826
0.00883388
0.00883944
0.0086103
0.00862179
0.00862034
0.00862909
0.00862871
0.00863756
0.00863709
0.00864371
0.00864796
0.00865198
0.00865572
0.00865904
0.0086618
0.00866455
0.00866738
0.00867029
0.00867323
0.00867602
0.00867837
0.00868059
0.00868296
0.00868572
0.00868875
0.00869196
0.00869543
0.0086991
0.00870319
0.00870753
0.00871213
0.00871702
0.00872202
0.00872736
0.0087327
0.0087385
0.00874425
0.00875034
0.00875627
0.00876259
0.00876873
0.008775
0.00878124
0.0087876
0.00879394
0.00880027
0.00880659
0.00881271
0.00881884
0.00882481
0.00883079
0.00883644
0.00884215
0.00861321
0.00860846
0.0086225
0.00862098
0.00862889
0.00863409
0.00863697
0.00864089
0.00864488
0.00864902
0.00865315
0.00865734
0.0086611
0.00866449
0.00866761
0.00867062
0.00867333
0.00867594
0.00867846
0.00868104
0.00868363
0.00868642
0.00868951
0.00869288
0.00869659
0.00870055
0.00870462
0.00870896
0.00871337
0.0087181
0.00872306
0.00872836
0.00873382
0.00873962
0.00874553
0.00875173
0.00875791
0.00876419
0.00877061
0.00877708
0.00878344
0.00878991
0.0087962
0.00880261
0.00880889
0.00881508
0.00882131
0.0088274
0.00883331
0.00883923
0.0088448
0.00860067
0.00859614
0.00861575
0.00861201
0.00862811
0.00862387
0.00863715
0.00863798
0.00864365
0.0086468
0.00865053
0.00865452
0.0086589
0.00866319
0.00866703
0.00867053
0.00867366
0.00867651
0.00867929
0.00868219
0.00868512
0.00868797
0.00869089
0.00869408
0.00869762
0.00870149
0.0087056
0.00871
0.0087146
0.00871947
0.00872453
0.00872992
0.00873543
0.00874134
0.00874728
0.00875356
0.00875979
0.00876626
0.00877253
0.00877903
0.0087855
0.00879202
0.00879852
0.00880506
0.00881143
0.00881768
0.00882383
0.00882993
0.00883582
0.00884173
0.00884734
0.00854648
0.00858982
0.00859003
0.00861554
0.00861174
0.00863003
0.00862592
0.00863861
0.00863928
0.00864571
0.0086495
0.00865365
0.00865794
0.00866237
0.00866652
0.00867034
0.00867383
0.008677
0.00867989
0.0086827
0.00868552
0.00868847
0.00869152
0.00869496
0.00869859
0.00870254
0.00870673
0.00871117
0.0087159
0.00872087
0.00872612
0.00873164
0.00873744
0.00874336
0.00874939
0.0087556
0.00876193
0.00876837
0.00877481
0.00878121
0.00878782
0.00879439
0.00880086
0.00880736
0.00881366
0.00882
0.00882633
0.00883247
0.00883861
0.00884435
0.00885027
0.00845933
0.00853214
0.00852559
0.00859236
0.00858366
0.00861518
0.00861517
0.00862674
0.00863354
0.0086395
0.00864563
0.00865148
0.00865655
0.00866118
0.00866534
0.00866943
0.0086732
0.00867646
0.00867932
0.00868223
0.00868532
0.00868854
0.00869197
0.00869548
0.00869932
0.00870334
0.00870779
0.00871253
0.00871746
0.00872257
0.00872789
0.00873344
0.00873927
0.00874522
0.00875146
0.00875767
0.00876399
0.00877031
0.00877697
0.00878352
0.00879012
0.0087966
0.00880316
0.00880964
0.00881613
0.00882259
0.00882896
0.00883522
0.00884118
0.00884714
0.00885267
0.00830297
0.00831066
0.00849722
0.00850365
0.00858064
0.00858675
0.00861648
0.00862053
0.00863156
0.00863828
0.00864394
0.00864958
0.00865491
0.00865989
0.00866425
0.00866811
0.00867173
0.00867535
0.00867898
0.0086824
0.00868581
0.00868928
0.00869303
0.00869685
0.0087008
0.0087048
0.0087091
0.00871356
0.00871855
0.00872364
0.00872928
0.00873504
0.00874105
0.00874731
0.00875356
0.00875996
0.00876633
0.00877281
0.0087793
0.00878594
0.00879254
0.00879909
0.0088057
0.00881203
0.00881856
0.00882501
0.00883151
0.00883777
0.00884396
0.00884972
0.0088556
0.00778877
0.00810219
0.00825283
0.00841312
0.00847618
0.00854629
0.00858
0.0086097
0.00862452
0.00863496
0.00864259
0.00864902
0.00865477
0.00865999
0.00866458
0.00866863
0.0086724
0.00867594
0.00867944
0.00868292
0.00868648
0.00869012
0.00869375
0.00869783
0.00870153
0.00870615
0.00871011
0.00871532
0.00871987
0.00872562
0.00873088
0.00873704
0.00874289
0.00874923
0.00875561
0.00876198
0.0087684
0.00877502
0.0087816
0.00878828
0.00879488
0.0088016
0.0088082
0.00881471
0.00882106
0.00882765
0.00883396
0.00884029
0.00884638
0.00885211
0.00885809
0.00692492
0.00743095
0.00786128
0.008157
0.00835775
0.00847081
0.00854101
0.00858321
0.00861179
0.00862866
0.0086394
0.0086472
0.00865371
0.0086593
0.00866437
0.00866896
0.00867323
0.00867706
0.00868063
0.00868401
0.00868755
0.00869081
0.00869438
0.00869781
0.00870225
0.00870591
0.00871158
0.00871542
0.00872226
0.0087261
0.00873383
0.00873806
0.00874574
0.00875094
0.0087579
0.00876447
0.00877084
0.00877731
0.00878409
0.00879076
0.00879749
0.00880411
0.00881079
0.00881727
0.00882377
0.00883026
0.00883662
0.00884284
0.00884887
0.00885468
0.00886042
0.00612651
0.00667132
0.00723942
0.0077268
0.00808219
0.00830844
0.00845174
0.00853425
0.00858352
0.00861262
0.00863067
0.00864236
0.00865078
0.0086574
0.00866313
0.00866825
0.00867288
0.00867701
0.00868081
0.00868425
0.00868775
0.0086913
0.00869488
0.00869862
0.00870231
0.0087073
0.00871088
0.00871788
0.0087211
0.00873018
0.00873249
0.00874338
0.00874467
0.00875667
0.00875707
0.00876728
0.00877326
0.00878032
0.00878669
0.0087933
0.00879999
0.00880682
0.00881345
0.00881971
0.00882618
0.00883257
0.00883884
0.00884508
0.00885101
0.00885684
0.00886268
0.00541996
0.00601951
0.0065561
0.00719605
0.00768235
0.00810528
0.00831514
0.00846168
0.00854334
0.00859345
0.00862164
0.00863813
0.008649
0.00865695
0.00866338
0.00866869
0.00867329
0.00867743
0.00868126
0.00868484
0.00868816
0.00869162
0.00869525
0.00869909
0.00870346
0.0087073
0.00871302
0.00871649
0.00872475
0.0087278
0.00873808
0.00874044
0.00875207
0.00875344
0.00876579
0.00876634
0.00877924
0.00877969
0.00879022
0.00879644
0.00880249
0.00880945
0.00881588
0.00882305
0.00882909
0.00883599
0.00884182
0.00884818
0.00885389
0.00885959
0.00886484
0.00536626
0.00543283
0.00606933
0.00657251
0.00727022
0.00763875
0.00817938
0.00832665
0.0084774
0.00854968
0.00859308
0.00862229
0.00864164
0.0086547
0.00866311
0.00866941
0.0086743
0.00867823
0.00868166
0.00868492
0.00868841
0.00869152
0.00869607
0.00869899
0.00870488
0.00870807
0.00871492
0.00871794
0.00872506
0.00873024
0.00873632
0.00874446
0.00874901
0.00875936
0.00876246
0.00877404
0.00877595
0.008788
0.00878897
0.00879894
0.00880556
0.00881247
0.00881828
0.00882534
0.00883168
0.00883846
0.0088446
0.00885085
0.00885664
0.00886213
0.00886738
0.00527302
0.00531739
0.00564575
0.00625792
0.00676726
0.00755242
0.00762969
0.00832171
0.00838523
0.00851789
0.00858524
0.00861797
0.00863755
0.00865121
0.00866144
0.00866884
0.0086743
0.00867836
0.00868197
0.0086849
0.00868842
0.00869165
0.00869572
0.00870017
0.00870387
0.00871026
0.00871386
0.008722
0.00872484
0.00873466
0.00873695
0.00874808
0.00874999
0.00876039
0.00876686
0.00877121
0.00878137
0.00878538
0.00879691
0.0087993
0.00880896
0.00881471
0.00882027
0.00882686
0.00883344
0.00883972
0.00884646
0.00885265
0.00885873
0.00886431
0.00886957
0.0052374
0.00525877
0.00543857
0.00585837
0.00650889
0.00710829
0.00773986
0.00782539
0.00833098
0.00847594
0.00855202
0.0086033
0.00863247
0.00864942
0.00866072
0.00866879
0.0086745
0.00867887
0.00868219
0.00868529
0.00868809
0.00869207
0.00869503
0.00870069
0.00870401
0.00871048
0.00871424
0.00872126
0.00872722
0.0087324
0.00874202
0.00874622
0.008757
0.00875973
0.00877114
0.00877366
0.00878533
0.00878726
0.00879623
0.00880401
0.00881061
0.00881777
0.00882427
0.00883131
0.00883775
0.00884406
0.00884927
0.00885541
0.00886069
0.00886627
0.00887173
0.0052043
0.00524168
0.00535592
0.00576852
0.00633676
0.00690176
0.00745367
0.00789458
0.00811389
0.00836577
0.00851369
0.00858307
0.00862089
0.00864526
0.00865937
0.00866853
0.00867467
0.00867944
0.00868272
0.0086861
0.00868843
0.00869233
0.00869523
0.00870051
0.00870449
0.00870966
0.00871532
0.00871998
0.00872866
0.00873348
0.00874287
0.00874776
0.00875758
0.00876258
0.00877248
0.00877642
0.0087849
0.00879333
0.00879778
0.0088046
0.0088124
0.00881933
0.00882638
0.00883322
0.00884012
0.00884676
0.00885296
0.00885892
0.00886479
0.00887078
0.00887603
0.00520481
0.00520747
0.00543069
0.00580705
0.00636345
0.00691005
0.00741338
0.00780958
0.00808711
0.00828344
0.00844531
0.00855443
0.00861001
0.00863747
0.00865457
0.00866601
0.00867365
0.0086792
0.00868314
0.00868644
0.00868963
0.00869241
0.00869661
0.00869979
0.00870586
0.00870933
0.00871717
0.00872035
0.00872983
0.00873321
0.00874411
0.00874855
0.0087545
0.00876675
0.00877195
0.00878352
0.00878652
0.00879441
0.00880399
0.0088088
0.0088149
0.00882263
0.00882962
0.0088363
0.00884238
0.00884891
0.0088555
0.00886216
0.00886807
0.00887367
0.0088792
0.00520931
0.00534917
0.00551111
0.00598658
0.00648217
0.00698177
0.00744442
0.00783651
0.00810668
0.00828871
0.00842124
0.00851871
0.00858723
0.00862706
0.00864958
0.00866319
0.00867227
0.0086786
0.00868325
0.00868648
0.00869099
0.00869329
0.00869806
0.00870099
0.00870702
0.00871068
0.008718
0.0087224
0.00873062
0.00873555
0.00874479
0.00875002
0.00875856
0.00876415
0.00877642
0.00878107
0.00879319
0.00879588
0.00880315
0.00881335
0.00881869
0.00882518
0.00883244
0.00883969
0.00884599
0.0088517
0.00885716
0.00886278
0.00886775
0.00887193
0.00887692
0.00563143
0.00569908
0.00602611
0.00635996
0.00677215
0.00717828
0.00757744
0.00788468
0.00813869
0.00831601
0.00842951
0.00851786
0.00858229
0.00862374
0.00864732
0.00866127
0.00867064
0.00867706
0.00868253
0.00868598
0.00869089
0.00869332
0.00869835
0.00870152
0.00870769
0.00871186
0.00872023
0.00872521
0.00873504
0.00873929
0.00874958
0.0087534
0.0087638
0.00876714
0.00877618
0.008783
0.00879318
0.00879806
0.00880786
0.00881292
0.00882187
0.00882654
0.00883307
0.00884032
0.00884536
0.00884891
0.00885147
0.00885414
0.00885543
0.00885737
0.00886177
0.00688234
0.00695667
0.00704837
0.00721918
0.00743425
0.00764821
0.00787733
0.00808738
0.00825011
0.00838021
0.00846127
0.00852367
0.00857846
0.00861663
0.0086405
0.00865458
0.00866392
0.0086701
0.00867603
0.00868004
0.008686
0.00868913
0.00869555
0.00869905
0.00870638
0.0087108
0.0087199
0.00872549
0.00873674
0.00874258
0.00875407
0.00875939
0.00877002
0.00877434
0.00878195
0.00878859
0.00879651
0.00880225
0.00880984
0.00881662
0.00882046
0.00882726
0.00883149
0.00883348
0.00883144
0.0088269
0.00881725
0.00880397
0.00879768
0.00879839
0.00880699
0.00711491
0.00723301
0.00737802
0.00752464
0.00769475
0.00785706
0.00801435
0.00816582
0.00828223
0.00838799
0.00845784
0.00851303
0.00855695
0.00858752
0.00860804
0.00861876
0.00862502
0.00862895
0.00863545
0.00864131
0.00865122
0.00866035
0.00867314
0.00868254
0.00869531
0.00870323
0.00871563
0.00872321
0.00873577
0.00874311
0.00875531
0.00876108
0.00877276
0.00877933
0.00878601
0.00879351
0.00879854
0.00880288
0.00880907
0.00881437
0.00881627
0.00881419
0.00880465
0.00877807
0.0087381
0.00868976
0.00864028
0.00858597
0.00858321
0.00859923
0.00866517
0.00627486
0.00653839
0.00684729
0.00715186
0.00742082
0.00764336
0.00782897
0.00800283
0.00811852
0.00822706
0.0082886
0.00833445
0.00836021
0.00837411
0.00837917
0.00837788
0.00837344
0.00836882
0.00837589
0.00841629
0.00847137
0.00852188
0.00857074
0.00861143
0.00864742
0.00867312
0.00869658
0.00871279
0.00872959
0.00874072
0.00875373
0.00876085
0.0087726
0.00877876
0.00878535
0.00879197
0.00879683
0.00879955
0.00879906
0.00879137
0.00876357
0.00869236
0.00856468
0.00842141
0.00827751
0.00813427
0.00804007
0.00788619
0.00799828
0.00830679
0.00857171
0.00610189
0.00610009
0.00614292
0.00623831
0.00639789
0.00659171
0.00675957
0.0069586
0.00707682
0.00720835
0.00726073
0.0073168
0.00731498
0.00728163
0.00723503
0.00720918
0.00719101
0.00718757
0.0072223
0.00734786
0.00753983
0.00775454
0.0079933
0.00821447
0.00838947
0.00851705
0.00860343
0.00866104
0.00870003
0.00872711
0.00874658
0.00875837
0.00876994
0.00877599
0.00878092
0.00878123
0.00877408
0.00874193
0.00865448
0.00849636
0.00823083
0.00785304
0.00747872
0.0071792
0.00697965
0.00681388
0.00675989
0.0070808
0.00768631
0.00828422
0.00859877
0.00666744
0.00638438
0.00621213
0.00614536
0.00609626
0.0060628
0.00602613
0.00602846
0.00600034
0.00598599
0.00593087
0.00591868
0.00587323
0.00586989
0.00585148
0.005828
0.00580464
0.00577819
0.0057779
0.00587582
0.00626123
0.00686664
0.00742743
0.00788057
0.00820497
0.00841965
0.00855342
0.00863492
0.00868827
0.00871942
0.00873803
0.00874924
0.00875233
0.0087422
0.00870125
0.00860521
0.00842385
0.00809378
0.00756845
0.00702972
0.00657166
0.00624713
0.00605378
0.00596434
0.00590989
0.00594067
0.00622531
0.00720258
0.0081728
0.00849452
0.00840762
0.00691684
0.00683178
0.0066385
0.00639461
0.00621884
0.00609471
0.0059844
0.00590514
0.0057981
0.00570937
0.00560311
0.00549421
0.00541837
0.00530876
0.00521109
0.00516067
0.0051381
0.00515641
0.00527297
0.0056008
0.00620946
0.00687867
0.00747121
0.00793451
0.00826737
0.00847559
0.00858238
0.00863963
0.00867179
0.00867764
0.00864867
0.00857821
0.00844869
0.0082116
0.00780948
0.00725537
0.00673162
0.00627977
0.00597468
0.00577732
0.0055796
0.0055037
0.00547396
0.00540333
0.0054082
0.00576286
0.00686204
0.00808356
0.00839492
0.00762408
0.00639543
0.00703112
0.00716528
0.0071666
0.00705237
0.00683062
0.00659308
0.00637769
0.00618861
0.00596906
0.00574713
0.00552162
0.00533332
0.00509665
0.0049912
0.00494784
0.00495922
0.00501422
0.00513869
0.00539327
0.00591786
0.00669718
0.00748366
0.00799755
0.0082789
0.00841149
0.00845977
0.00845549
0.00838043
0.00822918
0.00794092
0.0074686
0.00701061
0.00660065
0.00624254
0.00597516
0.00581047
0.00567664
0.00556993
0.00547418
0.00540825
0.00537701
0.00522589
0.00510729
0.00522716
0.00562291
0.0068365
0.00798945
0.00786735
0.00665484
0.0056848
0.00555219
0.00712857
0.00721989
0.00722788
0.00717879
0.00702481
0.00678474
0.00649971
0.00620597
0.00590473
0.00555276
0.00523922
0.00507697
0.00499658
0.00496882
0.00499595
0.00511385
0.00537109
0.00591767
0.00668779
0.0073655
0.00778924
0.00791915
0.00793561
0.00783308
0.00754716
0.00704858
0.00660285
0.00626496
0.0060027
0.00580862
0.00574788
0.00572628
0.00569477
0.00566476
0.00563396
0.0055975
0.0055434
0.00548999
0.00543556
0.00527471
0.00507912
0.00504079
0.0051881
0.0057278
0.00708185
0.00750253
0.00703281
0.00585631
0.0055751
0.00572674
0.00669644
0.00634972
0.00643645
0.00648395
0.00648519
0.0063733
0.00615844
0.00596216
0.00576467
0.00554011
0.00535807
0.00526971
0.00523652
0.00534671
0.00562699
0.00600938
0.006425
0.00682068
0.00708334
0.00715065
0.00708128
0.00678184
0.0062794
0.00590706
0.0056696
0.00561638
0.00568878
0.00572993
0.00576176
0.00578379
0.00582157
0.00586074
0.0058673
0.0058514
0.00582591
0.00581741
0.00582939
0.00570101
0.00548874
0.00524444
0.0050762
0.00506593
0.00527144
0.00613795
0.00677668
0.00681473
0.00607496
0.00567217
0.00571069
0.00623596
0.00757422
0.00831953
0.00621086
0.00622934
0.00623154
0.00622826
0.00619065
0.00612121
0.00607294
0.00604995
0.00602743
0.0060499
0.00617216
0.00630749
0.00643435
0.00649376
0.00649966
0.00643851
0.00627389
0.00597097
0.0057512
0.00556548
0.00562061
0.0057817
0.00586629
0.00605027
0.00632555
0.00655241
0.00670554
0.00676221
0.00671827
0.00672045
0.00672582
0.0066827
0.00660329
0.00647263
0.00624705
0.0059191
0.00558792
0.00526687
0.00517029
0.00518084
0.0055767
0.00624846
0.00640282
0.00626793
0.00580159
0.00573374
0.00601783
0.00696612
0.00783216
0.00805621
0.0080764
0.00686675
0.00673116
0.00666613
0.00657958
0.00650826
0.00643941
0.00638719
0.00631373
0.00623067
0.0061676
0.00611779
0.00599697
0.00583058
0.0057041
0.00562897
0.00559597
0.00566245
0.00588996
0.00602952
0.00648419
0.00686521
0.00718444
0.00733428
0.00742457
0.00725399
0.00721587
0.00722828
0.00722627
0.00719695
0.00719356
0.00715062
0.00700547
0.00676898
0.00646566
0.00605377
0.00556086
0.00534808
0.00530588
0.00539907
0.00588754
0.0060684
0.00610199
0.00585623
0.00571618
0.00580731
0.00634571
0.00718259
0.00750333
0.00756477
0.00746787
0.00687955
0.00560216
0.00565293
0.00566205
0.00560837
0.00557763
0.00550637
0.00545533
0.00540404
0.00537819
0.00538348
0.00539481
0.00550612
0.00564991
0.00580228
0.00605067
0.00650071
0.00704442
0.00738807
0.00762848
0.00772527
0.00756753
0.00728068
0.00709905
0.00691904
0.00685977
0.00686403
0.00697795
0.00714607
0.00718207
0.00717567
0.00709014
0.00684878
0.00643008
0.00585241
0.00560906
0.00548662
0.00548003
0.00570827
0.00584413
0.00586889
0.00576097
0.00558645
0.00557038
0.0057684
0.00628341
0.00669341
0.00683147
0.00679976
0.00634599
0.00567933
0.00523063
0.00465515
0.00471454
0.00479093
0.0048747
0.00496936
0.00508402
0.00521668
0.00536217
0.00552464
0.00573988
0.00606369
0.00652253
0.00701174
0.00750129
0.00779698
0.00789333
0.0079154
0.00780728
0.00754888
0.00724074
0.00673957
0.00647361
0.00634486
0.00633462
0.00635848
0.00648432
0.00667859
0.00681116
0.00684907
0.00677949
0.00648277
0.00604672
0.00579657
0.00565896
0.0056419
0.00565036
0.00570402
0.00572408
0.00567874
0.00540756
0.00536182
0.00535259
0.00552587
0.00581145
0.00595678
0.0059506
0.0056729
0.00530948
0.00509515
0.00485453
0.00466736
0.0048137
0.00494088
0.00509261
0.00527442
0.00549057
0.00575147
0.00606664
0.00644233
0.00689063
0.00736164
0.00781183
0.00796204
0.00805583
0.00805659
0.00802472
0.00788172
0.00764908
0.00729997
0.00686765
0.00648673
0.00624332
0.00618556
0.00615714
0.00615918
0.00617887
0.00623255
0.00626196
0.00627156
0.00622507
0.0060922
0.00592597
0.00576238
0.00572906
0.00566778
0.00566944
0.00561671
0.00554597
0.00530325
0.00514351
0.00513792
0.00513088
0.0052089
0.00528559
0.00528795
0.00515349
0.00497688
0.00487826
0.00473461
0.00461751
0.00455679
0.00450655
0.00504624
0.00525987
0.00551131
0.00581166
0.00615284
0.00654427
0.00696884
0.00740366
0.00779723
0.00802236
0.00809168
0.00806573
0.00806228
0.00795522
0.00780743
0.00754795
0.00723196
0.00695995
0.00664086
0.00642266
0.00627449
0.00613579
0.00614059
0.00611808
0.00611939
0.00608873
0.00608768
0.00603085
0.00598039
0.005884
0.00579999
0.00571183
0.00564914
0.00557392
0.00541339
0.00517234
0.00499381
0.00485331
0.00485098
0.00483148
0.00482884
0.00483244
0.00480834
0.00475073
0.00467763
0.00460593
0.00456426
0.00451242
0.00448076
0.00446363
0.0044552
0.0051226
0.0053763
0.00567873
0.00603988
0.0064426
0.00687515
0.00730288
0.00767585
0.00788645
0.00797376
0.00794754
0.00793886
0.00782178
0.00767454
0.00747031
0.00723176
0.00700822
0.0067679
0.00658825
0.00641468
0.00628424
0.00620323
0.00613846
0.00610491
0.0060679
0.00603887
0.00599185
0.00592635
0.0058517
0.00574706
0.00563854
0.00549578
0.00531389
0.00502903
0.00482688
0.00469112
0.00468947
0.00462264
0.00462343
0.00459228
0.0045921
0.00457174
0.00455111
0.00451846
0.00449171
0.00447088
0.00445825
0.00444426
0.00444205
0.0044405
0.0044405
0.0050233
0.00525503
0.0055317
0.00586375
0.00623548
0.00664137
0.00704871
0.00731476
0.00766216
0.00759344
0.00765272
0.0075871
0.00749934
0.0073806
0.00717837
0.00701497
0.00680204
0.00664373
0.00649958
0.00636147
0.0062674
0.0061695
0.0061046
0.00604849
0.00597588
0.00591296
0.00582269
0.00571082
0.00555975
0.0053449
0.00510813
0.00488401
0.00473173
0.00457961
0.00458753
0.00451075
0.00451296
0.00448175
0.00448204
0.00446357
0.00446429
0.00445219
0.00444426
0.00443485
0.00443044
0.00442606
0.00442609
0.0044258
0.00442748
0.00443178
0.00443474
0.00481027
0.00497621
0.00517571
0.00541099
0.00567307
0.00595633
0.00624169
0.00651179
0.00667345
0.00688682
0.00686941
0.00690953
0.00687308
0.00682359
0.00674786
0.00662515
0.00650873
0.00638633
0.00629173
0.00618087
0.00610091
0.00598298
0.00590047
0.0057904
0.00565345
0.0054887
0.0052886
0.00510916
0.00490479
0.0047549
0.00463302
0.00454748
0.00447432
0.00447413
0.00443325
0.00443217
0.00441576
0.00441491
0.00441208
0.00440893
0.00440726
0.00440527
0.00440538
0.0044045
0.00440918
0.00440788
0.00441667
0.00441551
0.00442753
0.00442691
0.00443641
0.00463099
0.00473548
0.004857
0.00500061
0.00515998
0.00532955
0.00549766
0.00564574
0.00574406
0.00581392
0.00581552
0.00584413
0.00586325
0.0058446
0.00581442
0.00577453
0.00572322
0.00567784
0.0056172
0.00554618
0.00545423
0.00533984
0.00523741
0.00510445
0.0049814
0.00485808
0.00474453
0.00464612
0.00455158
0.00449457
0.00444548
0.00442426
0.00440163
0.00440246
0.00438644
0.00438582
0.00438333
0.0043832
0.00438269
0.00438372
0.00438302
0.00438962
0.00438829
0.00439857
0.00439725
0.00441021
0.00440949
0.00442374
0.00442313
0.00443567
0.00443563
0.00450062
0.00455928
0.00462958
0.0047085
0.00479381
0.00488158
0.0049637
0.00503664
0.00509204
0.0051162
0.00513736
0.00513413
0.00513571
0.00511954
0.00509347
0.00506271
0.00502306
0.00499122
0.00494484
0.00490076
0.00483872
0.00478472
0.00472387
0.00466369
0.00459987
0.00454326
0.00449387
0.0044556
0.00442664
0.00438823
0.00439185
0.00437437
0.00437386
0.00436696
0.00436591
0.00436546
0.00436536
0.0043672
0.00436832
0.00437287
0.00437524
0.00438236
0.00438591
0.00439468
0.00439929
0.00440882
0.00441432
0.00442396
0.00442995
0.00443841
0.00444909
0.00442153
0.00445283
0.00448824
0.00452965
0.00457236
0.00461689
0.00465824
0.00469286
0.00471174
0.0047265
0.00472318
0.00472637
0.00471801
0.00470641
0.0046874
0.00466402
0.00464335
0.0046189
0.00459711
0.00456947
0.00454363
0.00451973
0.00449371
0.00446884
0.00443878
0.0044195
0.00439993
0.0043847
0.00436869
0.0043688
0.00436193
0.00435911
0.00435825
0.00435761
0.00435846
0.00435893
0.00436102
0.00436293
0.00436697
0.00437147
0.00437591
0.00438377
0.00438986
0.00439937
0.00440626
0.00442208
0.00442286
0.00444129
0.00444006
0.00445991
0.00446294
0.00437846
0.00439399
0.00441148
0.00443071
0.00445091
0.00447065
0.00448925
0.00450023
0.00451132
0.00450979
0.00451134
0.00450736
0.0045028
0.00449268
0.00448289
0.00447042
0.0044589
0.00444911
0.00443873
0.00442965
0.00441862
0.00441019
0.00439958
0.00439022
0.00438129
0.00437476
0.00436575
0.0043663
0.00435964
0.00436034
0.00435746
0.00435699
0.0043566
0.00435721
0.00435778
0.00435911
0.0043616
0.00436436
0.00437002
0.00437584
0.00438276
0.0043917
0.00439951
0.00440851
0.00441848
0.00442821
0.00443895
0.00444946
0.00445907
0.00447081
0.00447896
0.00435502
0.00436352
0.00437073
0.00437913
0.00438666
0.00439439
0.00440072
0.00440447
0.00440752
0.00440704
0.00440683
0.00440316
0.00440003
0.00439482
0.00439034
0.0043851
0.00438115
0.00437725
0.00437318
0.00437275
0.00436937
0.00436807
0.00436674
0.00436517
0.00436401
0.00436257
0.00436113
0.00436055
0.0043597
0.00435946
0.00435891
0.00435877
0.0043593
0.00436045
0.00436164
0.00436391
0.00436754
0.00437199
0.00437927
0.00438592
0.00439437
0.00440424
0.00441417
0.00442593
0.00443789
0.00444925
0.00446054
0.00447033
0.00448027
0.00449041
0.00450036
0.00434464
0.00434866
0.00435295
0.0043561
0.00435912
0.00436121
0.00436165
0.0043621
0.00436165
0.00436118
0.0043598
0.00435786
0.00435568
0.00435347
0.00435227
0.00435132
0.00435122
0.00435118
0.00435234
0.00435337
0.00435482
0.00435611
0.00435794
0.00435901
0.00436019
0.00436095
0.00436142
0.00436176
0.00436233
0.004363
0.004364
0.00436483
0.0043675
0.00436913
0.0043733
0.00437837
0.00438635
0.00439748
0.00440875
0.00442158
0.00443544
0.00445049
0.0044652
0.00448001
0.00449433
0.00450801
0.00452069
0.00453265
0.0045441
0.00455486
0.00456642
0.0043387
0.00434139
0.00434369
0.004345
0.00434571
0.00434603
0.00434594
0.00434512
0.00434406
0.00434279
0.00434127
0.00434015
0.00433911
0.00433873
0.00433869
0.00433925
0.00434084
0.00434299
0.00434573
0.00434799
0.00435102
0.00435397
0.00435653
0.00435949
0.00436102
0.00436314
0.00436594
0.00436768
0.0043717
0.00437282
0.00437848
0.00438145
0.00439023
0.00439488
0.0044067
0.00441362
0.00442326
0.00442833
0.00443659
0.004441
0.00445122
0.00445627
0.00446734
0.00447491
0.00448606
0.00449578
0.00450998
0.00452213
0.00453628
0.0045507
0.00456687
0.00882494
0.00882931
0.00883463
0.00883889
0.00884384
0.00884835
0.00885304
0.0088574
0.00886203
0.00886652
0.008871
0.00887521
0.00887935
0.00888349
0.00888723
0.00889089
0.0088942
0.00889734
0.0088999
0.00890229
0.00890404
0.00890558
0.00890634
0.00890688
0.0089067
0.00890601
0.0088271
0.00883198
0.00883671
0.00884153
0.00884613
0.00885081
0.00885539
0.00885982
0.00886447
0.00886874
0.00887278
0.00887712
0.00888062
0.00888457
0.00888804
0.00889133
0.00889439
0.00889699
0.00889944
0.00890137
0.00890294
0.00890397
0.00890465
0.00890473
0.00890441
0.0089036
0.0088292
0.00883493
0.00883886
0.00884444
0.0088487
0.00885342
0.00885794
0.00886226
0.00886657
0.00887096
0.00887489
0.0088788
0.00888247
0.00888583
0.00888913
0.00889208
0.00889483
0.00889722
0.00889923
0.00890094
0.00890216
0.00890309
0.00890327
0.00890321
0.00890269
0.0089016
0.00883209
0.00883692
0.00884179
0.0088467
0.00885149
0.00885601
0.00886042
0.00886471
0.00886883
0.00887305
0.00887692
0.00888064
0.00888409
0.00888731
0.0088903
0.00889297