/*--------------------------------*- C++ -*----------------------------------*\
  =========                 |
  \\      /  F ield         | OpenFOAM: The Open Source CFD Toolbox
   \\    /   O peration     | Website:  https://openfoam.org
    \\  /    A nd           | Version:  10
     \\/     M anipulation  |
\*---------------------------------------------------------------------------*/
FoamFile
{
    format      ascii;
    class       volScalarField;
    location    "0.951656";
    object      rho;
}
// * * * * * * * * * * * * * * * * * * * * * * * * * * * * * * * * * * * * * //

dimensions      [1 -3 0 0 0 0 0];

internalField   nonuniform List<scalar> 
16320
(
0.326096
0.300289
0.26918
0.244684
0.241739
0.272598
0.399001
0.483549
0.47993
0.417864
0.308684
0.21764
0.192127
0.189222
0.190594
0.198503
0.209422
0.216894
0.222256
0.226063
0.227105
0.225051
0.220773
0.213559
0.204548
0.194614
0.186421
0.181999
0.179357
0.178188
0.177459
0.177393
0.177635
0.178794
0.180905
0.181571
0.184016
0.187281
0.191636
0.196036
0.201159
0.20854
0.213394
0.222087
0.22786
0.23732
0.25206
0.27559
0.309295
0.358716
0.448454
0.599257
0.790178
0.97092
1.06105
1.07475
1.05878
0.976101
0.781502
0.596532
0.512515
0.475248
0.44464
0.395307
0.34962
0.323539
0.316379
0.310878
0.295963
0.289441
0.292519
0.295043
0.290806
0.288572
0.290876
0.298991
0.322951
0.382007
0.441006
0.475375
0.485947
0.461923
0.426474
0.385805
0.334989
0.280168
0.258205
0.269703
0.310289
0.41825
0.56751
0.708051
0.792312
0.861844
0.937781
0.98234
0.995484
0.996442
0.99109
0.965801
0.877242
0.854734
0.896284
0.880393
0.67375
0.452739
0.492608
0.63337
0.625232
0.574728
0.575844
0.622133
0.714889
0.332078
0.306045
0.278434
0.250466
0.240084
0.245592
0.303953
0.439059
0.481908
0.466487
0.391201
0.285764
0.209242
0.189982
0.187457
0.189435
0.197145
0.209477
0.219088
0.225281
0.229194
0.231341
0.231494
0.229661
0.225789
0.219769
0.212102
0.203714
0.19619
0.18954
0.18491
0.182281
0.180892
0.180605
0.181464
0.182554
0.182418
0.186417
0.19017
0.195343
0.20084
0.208857
0.214642
0.22283
0.232657
0.239124
0.253971
0.275838
0.315333
0.359403
0.434978
0.555045
0.719123
0.899924
1.04057
1.09565
1.09529
1.06092
0.940559
0.722924
0.573742
0.50914
0.481174
0.44075
0.384527
0.343199
0.328042
0.31633
0.298216
0.289113
0.288056
0.287177
0.285971
0.285841
0.287374
0.290375
0.296903
0.315742
0.365786
0.41956
0.450725
0.457945
0.4445
0.427957
0.399761
0.346057
0.294512
0.281192
0.302023
0.379802
0.506024
0.628044
0.72413
0.776907
0.848438
0.925238
0.970357
0.984297
0.987775
0.982077
0.936172
0.896443
0.913083
0.902793
0.745568
0.464276
0.470195
0.623997
0.619507
0.556374
0.552318
0.596514
0.686572
0.350079
0.322772
0.288701
0.257415
0.243494
0.24244
0.266533
0.362171
0.463673
0.476553
0.441279
0.349512
0.248963
0.195926
0.18621
0.184349
0.186488
0.193153
0.205053
0.216848
0.224523
0.229061
0.230932
0.231639
0.230705
0.228909
0.226554
0.223398
0.219567
0.21587
0.212053
0.20863
0.205386
0.203109
0.20202
0.201679
0.202799
0.20334
0.207458
0.214212
0.221705
0.231665
0.240009
0.249284
0.2635
0.270392
0.277173
0.301587
0.313604
0.381307
0.441598
0.555101
0.706848
0.877298
1.02976
1.11291
1.12803
1.11535
1.05109
0.881566
0.667809
0.567723
0.531609
0.49622
0.429091
0.368
0.34238
0.323116
0.30161
0.289103
0.283438
0.282599
0.283738
0.285315
0.287174
0.289635
0.292826
0.298768
0.315526
0.360351
0.40732
0.436104
0.443309
0.43756
0.424734
0.388951
0.344012
0.318206
0.317906
0.368285
0.4876
0.599773
0.68484
0.732669
0.770449
0.84836
0.924311
0.963667
0.976382
0.979928
0.960474
0.930542
0.936746
0.919197
0.77633
0.484378
0.459434
0.614465
0.614108
0.54378
0.536229
0.570301
0.651577
0.375589
0.351815
0.308554
0.265211
0.249838
0.246994
0.264066
0.337242
0.44113
0.474237
0.460299
0.393257
0.291793
0.211738
0.186412
0.181266
0.180191
0.18171
0.186239
0.194334
0.204691
0.214337
0.220926
0.225447
0.22696
0.227257
0.226905
0.22638
0.225631
0.22567
0.226614
0.22732
0.228907
0.230078
0.233382
0.23734
0.241398
0.248209
0.255293
0.267756
0.279157
0.294897
0.311704
0.324312
0.343289
0.363566
0.375309
0.380694
0.398208
0.392664
0.476866
0.568199
0.712386
0.878036
1.02926
1.12987
1.16124
1.1582
1.12861
1.01812
0.799205
0.659898
0.612108
0.569347
0.486094
0.399335
0.35907
0.330989
0.306179
0.288599
0.281132
0.280644
0.28294
0.285383
0.287774
0.290561
0.293028
0.296619
0.303458
0.321567
0.363636
0.406103
0.431382
0.435824
0.428811
0.406072
0.373459
0.36194
0.360025
0.381843
0.481689
0.591084
0.666844
0.713379
0.733079
0.778433
0.862603
0.931039
0.960995
0.970252
0.96526
0.944448
0.945683
0.923555
0.787837
0.492491
0.455308
0.60553
0.608126
0.536489
0.528872
0.558325
0.629578
0.390965
0.382351
0.344363
0.287785
0.266857
0.261658
0.272665
0.34359
0.440995
0.469675
0.462122
0.406785
0.309998
0.222498
0.18721
0.178464
0.175459
0.174329
0.174769
0.176856
0.180495
0.185734
0.1925
0.200824
0.207539
0.21344
0.217951
0.220597
0.222146
0.224082
0.226839
0.229461
0.23393
0.238008
0.245431
0.253737
0.262488
0.275103
0.288834
0.306557
0.323993
0.346617
0.37304
0.395089
0.423328
0.455953
0.485878
0.504412
0.516041
0.545554
0.541154
0.615617
0.742864
0.892177
1.03648
1.14746
1.19632
1.20066
1.19049
1.12724
0.946819
0.789456
0.728734
0.667588
0.55359
0.436637
0.376455
0.339954
0.309642
0.288859
0.280802
0.280351
0.282807
0.285848
0.290638
0.295437
0.29776
0.298701
0.302024
0.311885
0.341441
0.389429
0.418998
0.428919
0.426144
0.411955
0.392813
0.393146
0.404218
0.440463
0.514078
0.595615
0.660084
0.699287
0.717208
0.737216
0.801513
0.88907
0.941006
0.95873
0.960997
0.948841
0.947893
0.921773
0.787108
0.49279
0.454262
0.598699
0.601358
0.52809
0.521798
0.547726
0.608284
0.400899
0.404933
0.39314
0.353825
0.31464
0.304146
0.306339
0.372161
0.449008
0.46697
0.458602
0.405357
0.309782
0.222825
0.186341
0.175716
0.171681
0.169696
0.168627
0.168373
0.168883
0.170048
0.171997
0.175374
0.178782
0.183766
0.190316
0.197024
0.203372
0.210154
0.217003
0.222547
0.229372
0.235327
0.244459
0.254387
0.265246
0.280704
0.298758
0.319987
0.343174
0.371819
0.405463
0.438657
0.47897
0.523588
0.57343
0.613166
0.641324
0.672422
0.680536
0.716346
0.803046
0.927678
1.06014
1.17311
1.23565
1.24896
1.24762
1.2168
1.08912
0.937839
0.870359
0.782235
0.629146
0.474273
0.393621
0.34733
0.31153
0.289754
0.281225
0.280588
0.283119
0.287708
0.29653
0.304548
0.307645
0.306913
0.305767
0.31064
0.335985
0.385028
0.414842
0.425101
0.423534
0.414462
0.415013
0.424318
0.456179
0.531607
0.587402
0.628708
0.664751
0.687109
0.700817
0.715142
0.756188
0.848767
0.919016
0.946177
0.952155
0.947867
0.945872
0.90982
0.767422
0.48066
0.455144
0.595027
0.593346
0.520655
0.514995
0.534232
0.575417
0.404046
0.416693
0.419038
0.413123
0.393577
0.383876
0.383131
0.42958
0.459826
0.461678
0.447951
0.394544
0.303026
0.219562
0.184048
0.173772
0.169695
0.167389
0.16575
0.164564
0.163642
0.163116
0.163014
0.163627
0.164575
0.166277
0.168892
0.172428
0.176081
0.181434
0.189335
0.197221
0.207613
0.217688
0.230686
0.243832
0.257394
0.27492
0.295098
0.31794
0.343023
0.37406
0.410652
0.450887
0.500135
0.55508
0.620991
0.681569
0.73485
0.782264
0.802781
0.837002
0.906788
1.00631
1.11226
1.21206
1.27701
1.29766
1.30076
1.2875
1.20341
1.09363
1.01472
0.901066
0.699981
0.505432
0.406875
0.351376
0.312959
0.290701
0.282135
0.281901
0.284993
0.292545
0.306676
0.317084
0.320008
0.316803
0.313626
0.315647
0.337113
0.385435
0.413841
0.424014
0.425521
0.430006
0.443251
0.475978
0.546835
0.603545
0.634677
0.653053
0.668308
0.678904
0.686005
0.697423
0.728876
0.819598
0.902011
0.934901
0.942545
0.944324
0.938686
0.881549
0.717631
0.454065
0.459722
0.594579
0.584022
0.512543
0.506873
0.517177
0.536915
0.39669
0.418564
0.428976
0.432351
0.433886
0.436521
0.439741
0.453661
0.45685
0.4516
0.427203
0.368491
0.283713
0.20874
0.181085
0.17304
0.169252
0.166617
0.164321
0.162313
0.160794
0.159622
0.158703
0.158123
0.157847
0.158
0.158606
0.159965
0.161589
0.163883
0.16865
0.172251
0.17954
0.186515
0.197977
0.211846
0.227278
0.247624
0.271352
0.297424
0.326543
0.361385
0.401389
0.445131
0.497003
0.556359
0.629942
0.705573
0.779886
0.850974
0.892317
0.935329
1.00205
1.08665
1.173
1.25506
1.3168
1.34276
1.34903
1.34522
1.30918
1.22882
1.15327
0.998146
0.752398
0.525714
0.414261
0.352016
0.312541
0.291213
0.283929
0.28508
0.289892
0.3041
0.32225
0.3321
0.330272
0.322017
0.320228
0.326081
0.354074
0.39744
0.420399
0.432009
0.443669
0.466686
0.504323
0.573917
0.622933
0.643119
0.652769
0.657803
0.66445
0.668771
0.672837
0.682433
0.710728
0.802219
0.889868
0.924322
0.933109
0.936755
0.923021
0.841236
0.658004
0.434979
0.469584
0.600494
0.57271
0.503996
0.497712
0.496261
0.492919
0.382851
0.402246
0.423607
0.43215
0.435861
0.441854
0.447396
0.448083
0.444261
0.427906
0.388422
0.324037
0.252191
0.197696
0.180247
0.17345
0.169623
0.166785
0.163907
0.1616
0.159836
0.158334
0.15703
0.155928
0.155062
0.154456
0.154072
0.154057
0.154278
0.154789
0.156965
0.158241
0.162298
0.16589
0.172679
0.181776
0.192104
0.206552
0.2252
0.248035
0.276962
0.312777
0.358826
0.411178
0.472152
0.539476
0.618063
0.697645
0.782304
0.871018
0.935397
0.996214
1.06966
1.15333
1.22852
1.29931
1.35514
1.38692
1.39444
1.40031
1.3826
1.34611
1.24087
1.0732
0.771147
0.528111
0.411215
0.347732
0.310299
0.291792
0.287904
0.290708
0.300539
0.324547
0.343039
0.346634
0.333612
0.323806
0.326767
0.343693
0.388515
0.421494
0.440426
0.461053
0.496213
0.54486
0.614139
0.654374
0.663011
0.660845
0.658233
0.656179
0.658393
0.65717
0.658539
0.666842
0.700374
0.805016
0.888534
0.917403
0.92545
0.926349
0.890025
0.782193
0.582966
0.422672
0.486606
0.603956
0.558988
0.49284
0.482102
0.471092
0.447242
0.376058
0.376999
0.395312
0.410735
0.416031
0.418183
0.419879
0.41742
0.406903
0.380641
0.33707
0.285204
0.233873
0.196876
0.181823
0.175494
0.1717
0.16831
0.164911
0.162426
0.160358
0.158479
0.156866
0.155506
0.154564
0.153958
0.153413
0.153001
0.152676
0.152436
0.152912
0.152948
0.154144
0.155386
0.158035
0.163618
0.168925
0.178403
0.191625
0.206986
0.227622
0.254618
0.285571
0.330616
0.39559
0.477997
0.573211
0.668972
0.762646
0.856254
0.935476
1.01662
1.10546
1.19643
1.27304
1.33835
1.39201
1.4261
1.43549
1.44171
1.43955
1.39381
1.30366
1.06752
0.761896
0.512798
0.398168
0.339802
0.307046
0.293864
0.293999
0.30019
0.323053
0.352278
0.36409
0.352885
0.332751
0.330731
0.342281
0.381265
0.429284
0.454364
0.482167
0.528707
0.591741
0.656838
0.688083
0.691845
0.682865
0.674568
0.665394
0.65786
0.653494
0.647243
0.645025
0.655888
0.706143
0.819639
0.890498
0.909172
0.91508
0.905585
0.82816
0.706771
0.498012
0.416052
0.513001
0.606324
0.542179
0.481997
0.468767
0.448149
0.399223
0.374855
0.368782
0.368319
0.382369
0.394391
0.395116
0.391213
0.377502
0.35781
0.336904
0.306523
0.268102
0.233269
0.201961
0.187739
0.181463
0.177736
0.174413
0.171838
0.169864
0.16802
0.16768
0.171491
0.172657
0.172316
0.172222
0.170344
0.165892
0.160678
0.157152
0.155139
0.153581
0.153373
0.153455
0.153992
0.1558
0.157829
0.162087
0.170115
0.179777
0.19385
0.215347
0.240173
0.268831
0.308144
0.369741
0.467215
0.588776
0.710311
0.82435
0.913567
1.00371
1.10579
1.20921
1.29514
1.36283
1.41734
1.44887
1.45945
1.46663
1.45789
1.42463
1.27309
1.08004
0.698467
0.472581
0.378494
0.3302
0.304824
0.298501
0.301939
0.318587
0.360362
0.381784
0.376771
0.351987
0.337221
0.346019
0.379604
0.437883
0.465211
0.504572
0.561709
0.636331
0.691226
0.718076
0.721091
0.715616
0.712993
0.70146
0.681936
0.662016
0.648598
0.63565
0.636521
0.6581
0.733639
0.846519
0.889239
0.900977
0.899159
0.861314
0.757771
0.627518
0.446403
0.415656
0.545318
0.604962
0.520483
0.468978
0.455019
0.426959
0.363808
0.408562
0.371371
0.359193
0.355571
0.356772
0.372167
0.374916
0.370474
0.352508
0.32421
0.297534
0.27019
0.239458
0.213826
0.20193
0.196709
0.193228
0.197508
0.222346
0.262094
0.278372
0.295275
0.323492
0.3329
0.332693
0.323795
0.307749
0.279175
0.245985
0.218256
0.195057
0.175553
0.164015
0.157992
0.155352
0.155312
0.155817
0.157034
0.159945
0.164896
0.172486
0.186374
0.207064
0.23159
0.261106
0.300487
0.363491
0.45853
0.5967
0.747215
0.868395
0.976595
1.08954
1.19903
1.29289
1.36543
1.4265
1.45287
1.46725
1.47518
1.47183
1.39391
1.30532
0.938618
0.598657
0.42575
0.358827
0.321159
0.30477
0.305362
0.316755
0.360356
0.399274
0.401475
0.380162
0.349536
0.354041
0.38281
0.440065
0.47486
0.514996
0.596308
0.662211
0.712841
0.738355
0.748517
0.753032
0.747889
0.733739
0.711056
0.682861
0.655697
0.634791
0.628696
0.63789
0.68255
0.79957
0.862511
0.88361
0.887185
0.868086
0.777997
0.695762
0.52844
0.424681
0.435438
0.576951
0.598096
0.497191
0.454556
0.441075
0.411827
0.347837
0.520166
0.444644
0.382198
0.351603
0.338817
0.332922
0.330614
0.340929
0.342342
0.332158
0.307471
0.276606
0.24876
0.232097
0.225894
0.226837
0.257282
0.358269
0.442067
0.480472
0.492904
0.497503
0.494386
0.469392
0.446175
0.415252
0.386134
0.362188
0.333304
0.308293
0.286391
0.262042
0.230736
0.19981
0.174139
0.162294
0.157938
0.157142
0.158182
0.160034
0.163193
0.169783
0.182722
0.202586
0.228231
0.26031
0.305712
0.372111
0.471058
0.611803
0.771275
0.920278
1.04936
1.17831
1.27837
1.36044
1.42414
1.45245
1.46874
1.4834
1.4436
1.42614
1.11297
0.787706
0.48698
0.387117
0.343688
0.316066
0.309386
0.316397
0.35472
0.415806
0.427664
0.414487
0.376557
0.364937
0.388371
0.440244
0.475434
0.511706
0.607417
0.680911
0.714652
0.747984
0.770331
0.780127
0.766512
0.747596
0.727034
0.700759
0.668132
0.636885
0.627342
0.630567
0.660184
0.751471
0.830969
0.85961
0.871985
0.860433
0.804738
0.695891
0.601234
0.456146
0.417343
0.470655
0.597122
0.586413
0.473796
0.435776
0.423038
0.397596
0.341194
0.650356
0.5852
0.504341
0.432135
0.371461
0.336319
0.308612
0.292221
0.286609
0.288589
0.288792
0.276803
0.257484
0.250133
0.252281
0.295452
0.433978
0.546252
0.589323
0.592089
0.578417
0.543328
0.505323
0.459693
0.423088
0.391006
0.365677
0.351148
0.335157
0.325387
0.317805
0.308185
0.292396
0.26969
0.240774
0.20488
0.175593
0.163263
0.159697
0.159898
0.161252
0.163948
0.169964
0.180979
0.202707
0.230308
0.267219
0.318306
0.392975
0.499349
0.631829
0.80349
0.99312
1.13041
1.25349
1.33839
1.40804
1.43555
1.45855
1.43481
1.45848
1.20772
0.955988
0.569839
0.408518
0.36401
0.331464
0.315142
0.318081
0.344935
0.427472
0.456149
0.452564
0.418166
0.381036
0.397664
0.445545
0.469426
0.503086
0.60085
0.689885
0.716335
0.740423
0.786207
0.796648
0.779229
0.756108
0.731605
0.70549
0.673575
0.64166
0.630403
0.631991
0.654846
0.729871
0.805458
0.837213
0.850734
0.846219
0.80415
0.708158
0.63612
0.485475
0.434999
0.422378
0.525371
0.602889
0.572513
0.453134
0.4095
0.39521
0.37349
0.331773
0.714985
0.72889
0.66916
0.561961
0.484756
0.427125
0.378218
0.336001
0.280375
0.249061
0.241704
0.242979
0.246572
0.256568
0.292795
0.415551
0.563469
0.620074
0.620867
0.601141
0.562393
0.497604
0.419797
0.373517
0.348903
0.339531
0.336225
0.333099
0.328807
0.324812
0.320082
0.316216
0.310619
0.301745
0.286906
0.263444
0.234002
0.198041
0.171744
0.163143
0.161782
0.16318
0.165643
0.170993
0.182494
0.207068
0.237693
0.278471
0.337788
0.421185
0.527866
0.669918
0.862477
1.05764
1.18469
1.30417
1.35616
1.38677
1.37315
1.41464
1.2132
1.04033
0.640005
0.434009
0.371024
0.349745
0.323737
0.321322
0.339186
0.422605
0.480556
0.487745
0.470882
0.417643
0.416963
0.451574
0.472388
0.485293
0.574113
0.682881
0.719351
0.731491
0.784538
0.807631
0.791841
0.762552
0.728242
0.696259
0.669626
0.647259
0.639048
0.640675
0.663048
0.728332
0.789292
0.81583
0.828603
0.826878
0.788997
0.705496
0.627262
0.523702
0.450658
0.430962
0.45498
0.571176
0.605308
0.556282
0.44039
0.38002
0.35638
0.331516
0.314953
0.714172
0.790108
0.817608
0.778713
0.645126
0.493417
0.432062
0.396025
0.362244
0.312884
0.246689
0.233874
0.237555
0.267255
0.354967
0.520778
0.614423
0.626684
0.612216
0.563191
0.464408
0.38153
0.350774
0.341878
0.34373
0.351363
0.353052
0.350739
0.343951
0.333909
0.324202
0.317386
0.312674
0.308738
0.30297
0.294214
0.278336
0.249387
0.212962
0.175738
0.165206
0.163749
0.165073
0.167433
0.173153
0.187458
0.212917
0.24588
0.293572
0.358722
0.442735
0.557961
0.715014
0.909775
1.08796
1.17789
1.24421
1.24094
1.28581
1.13367
1.01779
0.662162
0.450514
0.374816
0.357956
0.336728
0.323816
0.33494
0.406743
0.491913
0.52194
0.520552
0.48211
0.44439
0.462549
0.47964
0.481807
0.523365
0.655564
0.709376
0.728361
0.764211
0.808704
0.803555
0.77427
0.730962
0.698539
0.673959
0.657876
0.653594
0.658107
0.684273
0.741366
0.779568
0.797242
0.806958
0.802093
0.764777
0.688527
0.611951
0.531616
0.461493
0.445755
0.44558
0.504661
0.595686
0.603547
0.538957
0.430238
0.369891
0.334923
0.317721
0.31167
0.71063
0.75944
0.862505
0.90293
0.881066
0.74523
0.516166
0.42036
0.389864
0.366538
0.310784
0.250634
0.244641
0.287228
0.436164
0.582352
0.627258
0.619169
0.573689
0.467309
0.37623
0.351612
0.344654
0.347688
0.368024
0.386419
0.387775
0.385691
0.380913
0.368754
0.350267
0.329758
0.318179
0.313455
0.309816
0.305079
0.294601
0.277269
0.250248
0.211239
0.175568
0.166392
0.165494
0.166826
0.16951
0.176524
0.192976
0.218385
0.255171
0.303792
0.366831
0.454677
0.575153
0.727685
0.883087
1.00338
1.02028
1.05832
0.961413
0.883614
0.623731
0.444814
0.374379
0.358161
0.349718
0.327253
0.331087
0.386791
0.485781
0.542231
0.56056
0.548443
0.497384
0.494244
0.493858
0.48779
0.493941
0.587498
0.682277
0.716095
0.741417
0.797606
0.807768
0.791412
0.750905
0.716758
0.691959
0.681687
0.679443
0.689368
0.717881
0.754987
0.77206
0.780731
0.786276
0.773072
0.731252
0.658963
0.589088
0.51639
0.466522
0.456404
0.455939
0.474354
0.555305
0.606395
0.599983
0.526847
0.426624
0.366069
0.330938
0.322831
0.322182
0.816121
0.783501
0.824789
0.931111
0.97543
0.948746
0.780064
0.491939
0.401494
0.379712
0.357762
0.290702
0.268716
0.31852
0.500702
0.615815
0.631455
0.607813
0.526138
0.406934
0.363835
0.353376
0.358204
0.390264
0.426816
0.437503
0.436246
0.429291
0.412702
0.39189
0.373781
0.359433
0.34461
0.335074
0.331839
0.331011
0.330733
0.323303
0.298781
0.259741
0.207186
0.174611
0.16717
0.166976
0.168461
0.171879
0.180282
0.197948
0.224159
0.258046
0.302716
0.365154
0.449117
0.551541
0.653694
0.719752
0.740057
0.72233
0.671806
0.534121
0.417991
0.365084
0.355062
0.353712
0.335315
0.32837
0.365562
0.472337
0.53995
0.575652
0.583164
0.564843
0.53926
0.522959
0.503113
0.49191
0.517712
0.61494
0.686319
0.716308
0.762914
0.803007
0.801483
0.777724
0.741007
0.725797
0.721233
0.720138
0.728668
0.747818
0.759408
0.764152
0.767022
0.761805
0.737945
0.689072
0.622569
0.560257
0.495781
0.467281
0.462807
0.463526
0.470668
0.507433
0.587647
0.612657
0.59641
0.523298
0.432997
0.374031
0.338957
0.331995
0.330433
0.902958
0.885943
0.877088
0.910738
0.995114
1.02976
0.965366
0.705303
0.428846
0.383601
0.373018
0.334415
0.303024
0.351427
0.546317
0.64032
0.64232
0.603193
0.499169
0.397948
0.372751
0.381618
0.46867
0.607014
0.665538
0.671188
0.664083
0.623131
0.540908
0.459406
0.410695
0.384531
0.373036
0.371513
0.373275
0.377764
0.382188
0.379259
0.359571
0.322233
0.263983
0.198285
0.172145
0.16787
0.168553
0.17063
0.175312
0.186293
0.203949
0.226387
0.256436
0.297962
0.351548
0.412449
0.465506
0.489757
0.496325
0.480894
0.435081
0.377503
0.34906
0.348556
0.352844
0.346241
0.327905
0.346899
0.448094
0.525061
0.567335
0.588818
0.592651
0.587678
0.572574
0.538828
0.506227
0.501566
0.537211
0.614663
0.681261
0.714636
0.772654
0.798982
0.794724
0.769222
0.752375
0.74832
0.746537
0.747173
0.752849
0.75559
0.755335
0.750497
0.732798
0.69879
0.647435
0.589249
0.529623
0.479887
0.465223
0.462177
0.462169
0.464637
0.480122
0.538644
0.603458
0.6159
0.596255
0.52835
0.453219
0.40011
0.350601
0.337064
0.332773
0.895087
0.92896
0.935164
0.946338
0.990183
1.04864
1.04515
0.871364
0.515173
0.385902
0.376251
0.361821
0.331098
0.36969
0.56918
0.659765
0.656754
0.605606
0.490718
0.413081
0.407744
0.484457
0.716176
0.911448
0.989306
1.00497
0.998547
0.95819
0.861776
0.735401
0.605126
0.501966
0.43503
0.407407
0.401567
0.404984
0.412094
0.41392
0.40362
0.374967
0.321654
0.2432
0.182954
0.170602
0.169358
0.170974
0.174733
0.182962
0.195183
0.210182
0.229914
0.256268
0.288261
0.321432
0.347576
0.358383
0.361214
0.354359
0.337775
0.330363
0.337824
0.350388
0.350684
0.330136
0.333521
0.409549
0.505762
0.550131
0.580696
0.598473
0.605576
0.604496
0.58764
0.543375
0.515315
0.51343
0.53885
0.604581
0.671049
0.706926
0.770496
0.793685
0.791124
0.770304
0.756944
0.753241
0.751522
0.750632
0.74956
0.744365
0.730074
0.703866
0.664877
0.614452
0.557325
0.498403
0.468463
0.460749
0.459185
0.458299
0.458656
0.464448
0.491745
0.559957
0.611535
0.619826
0.600482
0.539832
0.47556
0.429744
0.365499
0.34214
0.335267
0.840615
0.909058
0.952419
0.972413
1.00513
1.05267
1.05744
0.939603
0.594499
0.397475
0.375486
0.375836
0.354599
0.378286
0.57719
0.677958
0.67376
0.61745
0.500603
0.447671
0.459528
0.590191
0.891721
1.0936
1.16167
1.1765
1.17405
1.16214
1.12447
1.05635
0.956924
0.832375
0.69733
0.566464
0.477431
0.441384
0.430595
0.426214
0.418737
0.399236
0.359896
0.291771
0.218107
0.181458
0.173704
0.173137
0.175857
0.183438
0.194215
0.205921
0.21977
0.236465
0.255381
0.274022
0.288875
0.297447
0.302929
0.307027
0.313254
0.32613
0.344824
0.351733
0.337459
0.327243
0.373615
0.481441
0.532407
0.566023
0.596316
0.609405
0.611291
0.607513
0.593961
0.55798
0.529025
0.52158
0.530939
0.577112
0.64659
0.695403
0.762726
0.789336
0.789028
0.771494
0.756765
0.753402
0.749878
0.744122
0.734927
0.716456
0.685873
0.644025
0.591014
0.530232
0.476823
0.458949
0.453873
0.452187
0.44857
0.446764
0.449205
0.462976
0.498608
0.56808
0.617398
0.625845
0.609966
0.556262
0.498386
0.461526
0.3977
0.354657
0.34284
0.706881
0.862219
0.940298
0.98267
1.01745
1.05251
1.04908
0.940228
0.621796
0.418585
0.373613
0.378545
0.370672
0.379288
0.571806
0.703693
0.702778
0.645403
0.537064
0.504783
0.521605
0.670987
0.9819
1.1451
1.18358
1.1891
1.18587
1.1817
1.17601
1.16669
1.1442
1.09055
0.999594
0.875588
0.737387
0.600627
0.494528
0.447126
0.42756
0.407293
0.373643
0.323453
0.267722
0.223209
0.193913
0.183983
0.182662
0.186931
0.195943
0.206799
0.219121
0.231813
0.244567
0.257088
0.268462
0.278091
0.28809
0.29975
0.315063
0.338643
0.351748
0.345781
0.324356
0.341102
0.443667
0.51179
0.548351
0.585871
0.605766
0.61284
0.614679
0.612899
0.606148
0.584165
0.542688
0.525453
0.520659
0.541536
0.59921
0.671544
0.747859
0.783206
0.787447
0.774537
0.756575
0.75231
0.746234
0.732682
0.71395
0.683429
0.638371
0.581899
0.515865
0.466424
0.450814
0.445548
0.441111
0.430545
0.424623
0.425422
0.434928
0.460586
0.499965
0.567578
0.619923
0.63074
0.621952
0.579106
0.523018
0.492618
0.447082
0.387193
0.362774
0.629265
0.813795
0.926804
0.983239
1.02426
1.04358
1.00689
0.811757
0.513066
0.418462
0.380564
0.374191
0.380332
0.379497
0.551947
0.734908
0.749812
0.706294
0.624433
0.596259
0.613861
0.767729
1.0304
1.13495
1.15589
1.14951
1.12178
1.11345
1.11336
1.12937
1.13937
1.13143
1.10207
1.04582
0.955475
0.829871
0.685638
0.550449
0.465558
0.425773
0.386371
0.337378
0.295555
0.271332
0.24953
0.22618
0.209884
0.203411
0.20561
0.212507
0.222421
0.233571
0.244929
0.256107
0.267024
0.277781
0.290161
0.308179
0.333912
0.350317
0.349521
0.327492
0.32477
0.394686
0.48474
0.527011
0.567431
0.599933
0.61744
0.627542
0.628508
0.625092
0.61766
0.601538
0.565535
0.53072
0.519642
0.523974
0.546445
0.616743
0.711421
0.772884
0.786161
0.784653
0.760704
0.751715
0.743923
0.723037
0.694044
0.650122
0.588278
0.51812
0.463308
0.445349
0.438322
0.429138
0.407871
0.392994
0.391303
0.3959
0.41482
0.44686
0.482717
0.541651
0.612088
0.63343
0.633119
0.605925
0.552779
0.523947
0.498272
0.443534
0.406848
0.656914
0.832941
0.940028
0.993914
1.02174
1.00252
0.849024
0.558497
0.441153
0.406906
0.38688
0.371777
0.38374
0.378738
0.508224
0.749964
0.810157
0.786816
0.735973
0.713168
0.738799
0.878627
1.05081
1.0956
1.08535
1.01171
0.907357
0.879396
0.877177
0.908746
0.990671
1.04985
1.06251
1.04825
1.0009
0.922902
0.812408
0.68662
0.579407
0.504796
0.43664
0.368848
0.31976
0.295963
0.291424
0.280876
0.263449
0.249823
0.241155
0.237732
0.238938
0.244793
0.25327
0.263688
0.275512
0.289841
0.309872
0.332792
0.348585
0.351056
0.337162
0.31989
0.346725
0.445629
0.500558
0.541054
0.590141
0.629992
0.654618
0.66247
0.660508
0.650697
0.63815
0.624695
0.603022
0.558316
0.52742
0.515694
0.522954
0.547684
0.645672
0.747351
0.782546
0.788962
0.777761
0.752735
0.741792
0.713698
0.66891
0.608802
0.531193
0.466329
0.442972
0.433973
0.422404
0.393081
0.358802
0.350251
0.350297
0.35834
0.382897
0.418565
0.452239
0.498708
0.585371
0.632077
0.641848
0.634589
0.597088
0.554543
0.5378
0.510091
0.468829
0.816597
0.906636
0.952694
0.973245
0.941137
0.77555
0.520017
0.440052
0.413993
0.403926
0.392974
0.372036
0.381118
0.379737
0.458162
0.741672
0.872398
0.875278
0.853089
0.839938
0.866239
0.96246
1.02936
1.02812
0.949186
0.748731
0.595236
0.561769
0.556862
0.575558
0.650801
0.765053
0.87649
0.943623
0.953757
0.919947
0.8413
0.743151
0.648814
0.589436
0.54259
0.469475
0.400102
0.345627
0.313768
0.31216
0.307591
0.297678
0.288216
0.282269
0.279866
0.280384
0.284382
0.292364
0.304306
0.319254
0.335269
0.347876
0.351753
0.345418
0.320741
0.321806
0.393913
0.469458
0.511936
0.56057
0.628511
0.691649
0.728536
0.741648
0.733131
0.713667
0.690556
0.671339
0.653293
0.624649
0.562631
0.527252
0.513772
0.520483
0.553621
0.684816
0.765563
0.787074
0.788209
0.764082
0.734842
0.700118
0.632409
0.554824
0.473521
0.442797
0.432412
0.423384
0.397235
0.34534
0.309952
0.303494
0.303788
0.313112
0.340042
0.376379
0.407409
0.444472
0.514388
0.601357
0.638844
0.646137
0.635381
0.594715
0.566002
0.556136
0.534609
0.823959
0.854205
0.83989
0.742962
0.546474
0.447472
0.420546
0.419996
0.428209
0.430347
0.420131
0.381196
0.380175
0.382275
0.413938
0.705707
0.903292
0.961441
0.958065
0.951796
0.968896
0.999146
1.00131
0.942068
0.754936
0.528507
0.448176
0.422363
0.413312
0.414753
0.432928
0.476495
0.55929
0.693806
0.808023
0.844093
0.827064
0.755467
0.66945
0.612706
0.588618
0.556686
0.512199
0.445671
0.367133
0.333035
0.328868
0.327434
0.323446
0.318586
0.315812
0.315612
0.318236
0.323403
0.331326
0.340596
0.348601
0.351995
0.349273
0.328413
0.316626
0.343316
0.429462
0.48092
0.519776
0.591339
0.694659
0.754622
0.778267
0.792186
0.799901
0.799482
0.786091
0.760459
0.731807
0.702813
0.662217
0.574128
0.528793
0.513014
0.51975
0.563812
0.708462
0.774821
0.789882
0.77645
0.733194
0.681717
0.595827
0.497159
0.44415
0.431153
0.425766
0.411843
0.369203
0.298863
0.268125
0.263492
0.263913
0.271565
0.291104
0.319285
0.350365
0.387047
0.433204
0.50634
0.597794
0.64189
0.650634
0.642467
0.607516
0.582163
0.576554
0.575127
0.529391
0.466803
0.412587
0.410213
0.418128
0.440936
0.468718
0.483021
0.477825
0.458264
0.40574
0.381897
0.384312
0.390525
0.624188
0.8968
1.0186
1.03961
1.0326
1.02822
1.01649
0.952274
0.802215
0.595878
0.44563
0.403614
0.387818
0.375507
0.365692
0.366534
0.37633
0.401977
0.457159
0.566843
0.701211
0.754869
0.74693
0.685302
0.614492
0.588541
0.576908
0.568063
0.535241
0.465361
0.390392
0.349019
0.341053
0.340343
0.339212
0.337691
0.337503
0.338822
0.341863
0.34599
0.349872
0.351967
0.350703
0.336781
0.31793
0.318707
0.377286
0.447433
0.48456
0.524808
0.637129
0.733472
0.762172
0.773694
0.786763
0.800917
0.814227
0.824153
0.826988
0.822421
0.807949
0.78103
0.729166
0.611076
0.537975
0.514745
0.520171
0.569568
0.72155
0.777676
0.785718
0.746546
0.67378
0.57356
0.46081
0.42875
0.423571
0.421686
0.407112
0.35274
0.27454
0.252233
0.249317
0.249824
0.254834
0.264178
0.274154
0.288123
0.317301
0.363132
0.411301
0.480267
0.582457
0.642035
0.658479
0.656381
0.630698
0.598791
0.39358
0.402978
0.418925
0.443029
0.461346
0.465701
0.471257
0.490159
0.501934
0.495753
0.4754
0.425276
0.385184
0.386883
0.383191
0.505322
0.861398
1.02561
1.08829
1.08392
1.06445
1.0244
0.92411
0.726504
0.518466
0.42179
0.395627
0.384706
0.374532
0.360043
0.349502
0.349224
0.354649
0.371273
0.411472
0.499143
0.634679
0.697184
0.69145
0.631964
0.570492
0.559686
0.568473
0.563028
0.536334
0.480345
0.406374
0.363747
0.351717
0.34825
0.347559
0.347497
0.347778
0.348694
0.350504
0.351921
0.350587
0.34071
0.323663
0.316426
0.334597
0.405375
0.454976
0.481413
0.543667
0.671025
0.736839
0.750253
0.750606
0.754862
0.769709
0.791539
0.810903
0.825359
0.836607
0.84688
0.851132
0.840821
0.800167
0.676585
0.559042
0.519539
0.518059
0.568432
0.725092
0.778021
0.771696
0.691409
0.576354
0.447267
0.414151
0.412885
0.41895
0.412319
0.359628
0.273767
0.247783
0.24461
0.245141
0.249721
0.256642
0.260727
0.263959
0.272455
0.289783
0.323613
0.379405
0.442797
0.541519
0.632631
0.665819
0.671249
0.658918
0.448055
0.47035
0.482747
0.487862
0.479365
0.476617
0.479977
0.496573
0.516165
0.509953
0.487269
0.436528
0.391937
0.390628
0.380838
0.42515
0.763241
1.00548
1.09716
1.1134
1.09113
1.03465
0.925609
0.724381
0.510472
0.419906
0.397559
0.389741
0.383972
0.368928
0.351504
0.346886
0.345036
0.347568
0.358448
0.38969
0.465176
0.599383
0.66335
0.655742
0.593163
0.532655
0.52527
0.549749
0.548715
0.528349
0.483346
0.425354
0.37806
0.361025
0.355138
0.353132
0.352063
0.351181
0.350579
0.348117
0.340991
0.329639
0.320291
0.319678
0.359172
0.421658
0.454259
0.47867
0.57367
0.694144
0.73361
0.728052
0.700017
0.673288
0.673656
0.70338
0.747801
0.784263
0.812707
0.836113
0.856212
0.872695
0.883891
0.859628
0.767577
0.606215
0.525307
0.511128
0.554014
0.723047
0.782191
0.746399
0.621633
0.464622
0.398553
0.394837
0.414408
0.420574
0.382716
0.28982
0.248476
0.243084
0.2431
0.247654
0.254459
0.257301
0.25858
0.26065
0.264588
0.272616
0.293059
0.335017
0.40145
0.484937
0.603464
0.664089
0.681792
0.504851
0.512173
0.514064
0.506404
0.493205
0.484936
0.481849
0.494566
0.52069
0.518401
0.498112
0.44726
0.400947
0.397105
0.38414
0.394395
0.587793
0.937985
1.08311
1.11903
1.11117
1.06384
0.941405
0.740623
0.520219
0.423785
0.404999
0.411782
0.418022
0.404207
0.367636
0.355888
0.349448
0.345959
0.347019
0.354736
0.38009
0.448374
0.58103
0.645031
0.639577
0.570641
0.511339
0.50063
0.520906
0.529858
0.512685
0.481659
0.438498
0.395625