/*--------------------------------*- C++ -*----------------------------------*\
| =========                 |                                                 |
| \\      /  F ield         | OpenFOAM: The Open Source CFD Toolbox           |
|  \\    /   O peration     | Version:  2406                                  |
|   \\  /    A nd           | Website:  www.openfoam.com                      |
|    \\/     M anipulation  |                                                 |
\*---------------------------------------------------------------------------*/
FoamFile
{
    version     2.0;
    format      ascii;
    arch        "LSB;label=32;scalar=64";
    class       volVectorField;
    location    "0";
    object      C;
}
// * * * * * * * * * * * * * * * * * * * * * * * * * * * * * * * * * * * * * //

dimensions      [0 1 0 0 0 0 0];

internalField   nonuniform List<vector> 
12288
(
(0.0078125 0.0078125 0.1)
(0.0234375 0.0078125 0.1)
(0.0390625 0.0078125 0.1)
(0.0546875 0.0078125 0.1)
(0.0703125 0.0078125 0.1)
(0.0859375 0.0078125 0.1)
(0.101562 0.0078125 0.1)
(0.117188 0.0078125 0.1)
(0.132813 0.0078125 0.1)
(0.148438 0.0078125 0.1)
(0.164062 0.0078125 0.1)
(0.179688 0.0078125 0.1)
(0.195312 0.0078125 0.1)
(0.210937 0.0078125 0.1)
(0.226563 0.0078125 0.1)
(0.242188 0.0078125 0.1)
(0.257812 0.0078125 0.1)
(0.273438 0.0078125 0.1)
(0.289062 0.0078125 0.1)
(0.304688 0.0078125 0.1)
(0.320313 0.0078125 0.1)
(0.335938 0.0078125 0.1)
(0.351562 0.0078125 0.1)
(0.367187 0.0078125 0.1)
(0.382812 0.0078125 0.1)
(0.398438 0.0078125 0.1)
(0.414062 0.0078125 0.1)
(0.429688 0.0078125 0.1)
(0.445313 0.0078125 0.1)
(0.460938 0.0078125 0.1)
(0.476563 0.0078125 0.1)
(0.492188 0.0078125 0.1)
(0.0078125 0.0234375 0.1)
(0.0234375 0.0234375 0.1)
(0.0390625 0.0234375 0.1)
(0.0546875 0.0234375 0.1)
(0.0703125 0.0234375 0.1)
(0.0859375 0.0234375 0.1)
(0.101562 0.0234375 0.1)
(0.117188 0.0234375 0.1)
(0.132813 0.0234375 0.1)
(0.148438 0.0234375 0.1)
(0.164063 0.0234375 0.1)
(0.179688 0.0234375 0.1)
(0.195313 0.0234375 0.1)
(0.210937 0.0234375 0.1)
(0.226563 0.0234375 0.1)
(0.242188 0.0234375 0.1)
(0.257812 0.0234375 0.1)
(0.273438 0.0234375 0.1)
(0.289062 0.0234375 0.1)
(0.304687 0.0234375 0.1)
(0.320312 0.0234375 0.1)
(0.335938 0.0234375 0.1)
(0.351562 0.0234375 0.1)
(0.367187 0.0234375 0.1)
(0.382812 0.0234375 0.1)
(0.398438 0.0234375 0.1)
(0.414062 0.0234375 0.1)
(0.429687 0.0234375 0.1)
(0.445312 0.0234375 0.1)
(0.460938 0.0234375 0.1)
(0.476563 0.0234375 0.1)
(0.492188 0.0234375 0.1)
(0.0078125 0.0390625 0.1)
(0.0234375 0.0390625 0.1)
(0.0390625 0.0390625 0.1)
(0.0546875 0.0390625 0.1)
(0.0703125 0.0390625 0.1)
(0.0859375 0.0390625 0.1)
(0.101562 0.0390625 0.1)
(0.117187 0.0390625 0.1)
(0.132812 0.0390625 0.1)
(0.148438 0.0390625 0.1)
(0.164062 0.0390625 0.1)
(0.179688 0.0390625 0.1)
(0.195312 0.0390625 0.1)
(0.210938 0.0390625 0.1)
(0.226562 0.0390625 0.1)
(0.242187 0.0390625 0.1)
(0.257812 0.0390625 0.1)
(0.273438 0.0390625 0.1)
(0.289062 0.0390625 0.1)
(0.304687 0.0390625 0.1)
(0.320312 0.0390625 0.1)
(0.335938 0.0390625 0.1)
(0.351562 0.0390625 0.1)
(0.367187 0.0390625 0.1)
(0.382812 0.0390625 0.1)
(0.398437 0.0390625 0.1)
(0.414063 0.0390625 0.1)
(0.429687 0.0390625 0.1)
(0.445312 0.0390625 0.1)
(0.460937 0.0390625 0.1)
(0.476562 0.0390625 0.1)
(0.492188 0.0390625 0.1)
(0.0078125 0.0546875 0.1)
(0.0234375 0.0546875 0.1)
(0.0390625 0.0546875 0.1)
(0.0546875 0.0546875 0.1)
(0.0703125 0.0546875 0.1)
(0.0859375 0.0546875 0.1)
(0.101562 0.0546875 0.1)
(0.117187 0.0546875 0.1)
(0.132813 0.0546875 0.1)
(0.148438 0.0546875 0.1)
(0.164063 0.0546875 0.1)
(0.179687 0.0546875 0.1)
(0.195312 0.0546875 0.1)
(0.210937 0.0546875 0.1)
(0.226562 0.0546875 0.1)
(0.242188 0.0546875 0.1)
(0.257812 0.0546875 0.1)
(0.273438 0.0546875 0.1)
(0.289062 0.0546875 0.1)
(0.304687 0.0546875 0.1)
(0.320312 0.0546875 0.1)
(0.335938 0.0546875 0.1)
(0.351562 0.0546875 0.1)
(0.367187 0.0546875 0.1)
(0.382812 0.0546875 0.1)
(0.398438 0.0546875 0.1)
(0.414062 0.0546875 0.1)
(0.429688 0.0546875 0.1)
(0.445312 0.0546875 0.1)
(0.460937 0.0546875 0.1)
(0.476563 0.0546875 0.1)
(0.492188 0.0546875 0.1)
(0.0078125 0.0703125 0.1)
(0.0234375 0.0703125 0.1)
(0.0390625 0.0703125 0.1)
(0.0546875 0.0703125 0.1)
(0.0703125 0.0703125 0.1)
(0.0859375 0.0703125 0.1)
(0.101562 0.0703125 0.1)
(0.117188 0.0703125 0.1)
(0.132813 0.0703125 0.1)
(0.148438 0.0703125 0.1)
(0.164063 0.0703125 0.1)
(0.179688 0.0703125 0.1)
(0.195313 0.0703125 0.1)
(0.210937 0.0703125 0.1)
(0.226563 0.0703125 0.1)
(0.242188 0.0703125 0.1)
(0.257812 0.0703125 0.1)
(0.273438 0.0703125 0.1)
(0.289062 0.0703125 0.1)
(0.304687 0.0703125 0.1)
(0.320312 0.0703125 0.1)
(0.335938 0.0703125 0.1)
(0.351562 0.0703125 0.1)
(0.367187 0.0703125 0.1)
(0.382812 0.0703125 0.1)
(0.398438 0.0703125 0.1)
(0.414062 0.0703125 0.1)
(0.429687 0.0703125 0.1)
(0.445312 0.0703125 0.1)
(0.460938 0.0703125 0.1)
(0.476563 0.0703125 0.1)
(0.492188 0.0703125 0.1)
(0.0078125 0.0859375 0.1)
(0.0234375 0.0859375 0.1)
(0.0390625 0.0859375 0.1)
(0.0546875 0.0859375 0.1)
(0.0703125 0.0859375 0.1)
(0.0859375 0.0859375 0.1)
(0.101562 0.0859375 0.1)
(0.117187 0.0859375 0.1)
(0.132812 0.0859375 0.1)
(0.148438 0.0859375 0.1)
(0.164062 0.0859375 0.1)
(0.179687 0.0859375 0.1)
(0.195312 0.0859375 0.1)
(0.210938 0.0859375 0.1)
(0.226562 0.0859375 0.1)
(0.242187 0.0859375 0.1)
(0.257812 0.0859375 0.1)
(0.273438 0.0859375 0.1)
(0.289062 0.0859375 0.1)
(0.304687 0.0859375 0.1)
(0.320312 0.0859375 0.1)
(0.335938 0.0859375 0.1)
(0.351562 0.0859375 0.1)
(0.367187 0.0859375 0.1)
(0.382812 0.0859375 0.1)
(0.398438 0.0859375 0.1)
(0.414063 0.0859375 0.1)
(0.429687 0.0859375 0.1)
(0.445312 0.0859375 0.1)
(0.460937 0.0859375 0.1)
(0.476562 0.0859375 0.1)
(0.492188 0.0859375 0.1)
(0.0078125 0.101562 0.1)
(0.0234375 0.101562 0.1)
(0.0390625 0.101562 0.1)
(0.0546875 0.101562 0.1)
(0.0703125 0.101562 0.1)
(0.0859375 0.101562 0.1)
(0.101562 0.101562 0.1)
(0.117188 0.101562 0.1)
(0.132813 0.101562 0.1)
(0.148438 0.101562 0.1)
(0.164063 0.101562 0.1)
(0.179687 0.101562 0.1)
(0.195312 0.101562 0.1)
(0.210937 0.101562 0.1)
(0.226563 0.101562 0.1)
(0.242188 0.101562 0.1)
(0.257812 0.101562 0.1)
(0.273438 0.101562 0.1)
(0.289062 0.101562 0.1)
(0.304687 0.101562 0.1)
(0.320312 0.101562 0.1)
(0.335938 0.101562 0.1)
(0.351562 0.101562 0.1)
(0.367187 0.101562 0.1)
(0.382812 0.101562 0.1)
(0.398438 0.101562 0.1)
(0.414062 0.101562 0.1)
(0.429687 0.101562 0.1)
(0.445312 0.101562 0.1)
(0.460938 0.101562 0.1)
(0.476563 0.101562 0.1)
(0.492188 0.101562 0.1)
(0.0078125 0.117188 0.1)
(0.0234375 0.117188 0.1)
(0.0390625 0.117188 0.1)
(0.0546875 0.117187 0.1)
(0.0703125 0.117188 0.1)
(0.0859375 0.117188 0.1)
(0.101562 0.117188 0.1)
(0.117187 0.117187 0.1)
(0.132813 0.117188 0.1)
(0.148438 0.117188 0.1)
(0.164063 0.117188 0.1)
(0.179687 0.117187 0.1)
(0.195312 0.117188 0.1)
(0.210938 0.117187 0.1)
(0.226562 0.117188 0.1)
(0.242188 0.117188 0.1)
(0.257812 0.117188 0.1)
(0.273438 0.117188 0.1)
(0.289062 0.117188 0.1)
(0.304687 0.117188 0.1)
(0.320312 0.117188 0.1)
(0.335938 0.117188 0.1)
(0.351562 0.117188 0.1)
(0.367187 0.117188 0.1)
(0.382812 0.117188 0.1)
(0.398438 0.117188 0.1)
(0.414062 0.117188 0.1)
(0.429687 0.117188 0.1)
(0.445312 0.117188 0.1)
(0.460937 0.117188 0.1)
(0.476562 0.117188 0.1)
(0.492188 0.117188 0.1)
(0.0078125 0.132813 0.1)
(0.0234375 0.132813 0.1)
(0.0390625 0.132813 0.1)
(0.0546875 0.132813 0.1)
(0.0703125 0.132813 0.1)
(0.0859375 0.132812 0.1)
(0.101562 0.132812 0.1)
(0.117188 0.132812 0.1)
(0.132813 0.132813 0.1)
(0.148438 0.132813 0.1)
(0.164063 0.132813 0.1)
(0.179688 0.132813 0.1)
(0.195313 0.132813 0.1)
(0.210937 0.132813 0.1)
(0.226563 0.132813 0.1)
(0.242188 0.132813 0.1)
(0.257812 0.132813 0.1)
(0.273438 0.132813 0.1)
(0.289062 0.132813 0.1)
(0.304687 0.132812 0.1)
(0.320312 0.132813 0.1)
(0.335938 0.132813 0.1)
(0.351562 0.132813 0.1)
(0.367187 0.132812 0.1)
(0.382812 0.132812 0.1)
(0.398438 0.132813 0.1)
(0.414062 0.132813 0.1)
(0.429687 0.132812 0.1)
(0.445312 0.132812 0.1)
(0.460938 0.132812 0.1)
(0.476563 0.132813 0.1)
(0.492188 0.132813 0.1)
(0.0078125 0.148438 0.1)
(0.0234375 0.148438 0.1)
(0.0390625 0.148438 0.1)
(0.0546875 0.148438 0.1)
(0.0703125 0.148438 0.1)
(0.0859375 0.148438 0.1)
(0.101562 0.148437 0.1)
(0.117188 0.148438 0.1)
(0.132813 0.148438 0.1)
(0.148438 0.148438 0.1)
(0.164063 0.148438 0.1)
(0.179688 0.148438 0.1)
(0.195313 0.148438 0.1)
(0.210937 0.148438 0.1)
(0.226563 0.148438 0.1)
(0.242188 0.148438 0.1)
(0.257812 0.148438 0.1)
(0.273438 0.148438 0.1)
(0.289062 0.148438 0.1)
(0.304687 0.148437 0.1)
(0.320312 0.148438 0.1)
(0.335938 0.148438 0.1)
(0.351562 0.148438 0.1)
(0.367187 0.148437 0.1)
(0.382812 0.148437 0.1)
(0.398438 0.148438 0.1)
(0.414062 0.148438 0.1)
(0.429687 0.148437 0.1)
(0.445312 0.148437 0.1)
(0.460938 0.148438 0.1)
(0.476563 0.148438 0.1)
(0.492188 0.148438 0.1)
(0.0078125 0.164062 0.1)
(0.0234375 0.164063 0.1)
(0.0390625 0.164062 0.1)
(0.0546875 0.164063 0.1)
(0.0703125 0.164063 0.1)
(0.0859375 0.164062 0.1)
(0.101562 0.164062 0.1)
(0.117188 0.164062 0.1)
(0.132813 0.164063 0.1)
(0.148438 0.164063 0.1)
(0.164063 0.164063 0.1)
(0.179688 0.164063 0.1)
(0.195313 0.164063 0.1)
(0.210937 0.164063 0.1)
(0.226563 0.164063 0.1)
(0.242188 0.164063 0.1)
(0.257812 0.164063 0.1)
(0.273438 0.164063 0.1)
(0.289062 0.164063 0.1)
(0.304687 0.164063 0.1)
(0.320312 0.164063 0.1)
(0.335938 0.164063 0.1)
(0.351562 0.164063 0.1)
(0.367187 0.164063 0.1)
(0.382812 0.164063 0.1)
(0.398438 0.164063 0.1)
(0.414062 0.164063 0.1)
(0.429687 0.164063 0.1)
(0.445312 0.164062 0.1)
(0.460938 0.164063 0.1)
(0.476563 0.164063 0.1)
(0.492188 0.164063 0.1)
(0.0078125 0.179688 0.1)
(0.0234375 0.179687 0.1)
(0.0390625 0.179688 0.1)
(0.0546875 0.179688 0.1)
(0.0703125 0.179687 0.1)
(0.0859375 0.179688 0.1)
(0.101562 0.179687 0.1)
(0.117187 0.179687 0.1)
(0.132813 0.179687 0.1)
(0.148438 0.179687 0.1)
(0.164063 0.179687 0.1)
(0.179687 0.179687 0.1)
(0.195312 0.179687 0.1)
(0.210938 0.179687 0.1)
(0.226562 0.179687 0.1)
(0.242188 0.179687 0.1)
(0.257812 0.179687 0.1)
(0.273438 0.179687 0.1)
(0.289062 0.179687 0.1)
(0.304687 0.179687 0.1)
(0.320312 0.179687 0.1)
(0.335938 0.179687 0.1)
(0.351562 0.179687 0.1)
(0.367187 0.179687 0.1)
(0.382812 0.179687 0.1)
(0.398438 0.179687 0.1)
(0.414062 0.179687 0.1)
(0.429687 0.179687 0.1)
(0.445312 0.179687 0.1)
(0.460938 0.179687 0.1)
(0.476562 0.179687 0.1)
(0.492188 0.179687 0.1)
(0.0078125 0.195312 0.1)
(0.0234375 0.195312 0.1)
(0.0390625 0.195312 0.1)
(0.0546875 0.195312 0.1)
(0.0703125 0.195312 0.1)
(0.0859375 0.195312 0.1)
(0.101562 0.195312 0.1)
(0.117187 0.195312 0.1)
(0.132812 0.195312 0.1)
(0.148437 0.195312 0.1)
(0.164063 0.195312 0.1)
(0.179688 0.195312 0.1)
(0.195312 0.195312 0.1)
(0.210938 0.195312 0.1)
(0.226562 0.195312 0.1)
(0.242188 0.195312 0.1)
(0.257812 0.195312 0.1)
(0.273438 0.195312 0.1)
(0.289062 0.195313 0.1)
(0.304687 0.195312 0.1)
(0.320312 0.195312 0.1)
(0.335938 0.195312 0.1)
(0.351562 0.195313 0.1)
(0.367187 0.195312 0.1)
(0.382812 0.195312 0.1)
(0.398438 0.195312 0.1)
(0.414062 0.195313 0.1)
(0.429688 0.195312 0.1)
(0.445312 0.195312 0.1)
(0.460938 0.195312 0.1)
(0.476562 0.195312 0.1)
(0.492188 0.195312 0.1)
(0.0078125 0.210937 0.1)
(0.0234375 0.210937 0.1)
(0.0390625 0.210938 0.1)
(0.0546875 0.210937 0.1)
(0.0703125 0.210937 0.1)
(0.0859375 0.210938 0.1)
(0.101562 0.210937 0.1)
(0.117187 0.210938 0.1)
(0.132813 0.210937 0.1)
(0.148438 0.210937 0.1)
(0.164063 0.210937 0.1)
(0.179687 0.210938 0.1)
(0.195312 0.210937 0.1)
(0.210938 0.210938 0.1)
(0.226562 0.210937 0.1)
(0.242188 0.210937 0.1)
(0.257812 0.210937 0.1)
(0.273438 0.210937 0.1)
(0.289062 0.210937 0.1)
(0.304687 0.210937 0.1)
(0.320312 0.210937 0.1)
(0.335938 0.210937 0.1)
(0.351562 0.210937 0.1)
(0.367187 0.210937 0.1)
(0.382812 0.210937 0.1)
(0.398438 0.210937 0.1)
(0.414062 0.210937 0.1)
(0.429687 0.210937 0.1)
(0.445312 0.210937 0.1)
(0.460938 0.210937 0.1)
(0.476562 0.210937 0.1)
(0.492188 0.210937 0.1)
(0.0078125 0.226563 0.1)
(0.0234375 0.226562 0.1)
(0.0390625 0.226562 0.1)
(0.0546875 0.226562 0.1)
(0.0703125 0.226562 0.1)
(0.0859375 0.226562 0.1)
(0.101562 0.226562 0.1)
(0.117187 0.226562 0.1)
(0.132812 0.226562 0.1)
(0.148437 0.226562 0.1)
(0.164063 0.226562 0.1)
(0.179688 0.226562 0.1)
(0.195312 0.226562 0.1)
(0.210938 0.226562 0.1)
(0.226562 0.226562 0.1)
(0.242188 0.226562 0.1)
(0.257812 0.226562 0.1)
(0.273438 0.226562 0.1)
(0.289062 0.226563 0.1)
(0.304687 0.226562 0.1)
(0.320312 0.226562 0.1)
(0.335938 0.226562 0.1)
(0.351562 0.226563 0.1)
(0.367187 0.226562 0.1)
(0.382812 0.226562 0.1)
(0.398438 0.226562 0.1)
(0.414062 0.226563 0.1)
(0.429688 0.226562 0.1)
(0.445312 0.226562 0.1)
(0.460938 0.226562 0.1)
(0.476562 0.226562 0.1)
(0.492188 0.226562 0.1)
(0.0078125 0.242188 0.1)
(0.0234375 0.242188 0.1)
(0.0390625 0.242187 0.1)
(0.0546875 0.242188 0.1)
(0.0703125 0.242188 0.1)
(0.0859375 0.242187 0.1)
(0.101562 0.242187 0.1)
(0.117188 0.242188 0.1)
(0.132813 0.242188 0.1)
(0.148438 0.242188 0.1)
(0.164063 0.242188 0.1)
(0.179688 0.242188 0.1)
(0.195313 0.242188 0.1)
(0.210937 0.242188 0.1)
(0.226563 0.242188 0.1)
(0.242188 0.242188 0.1)
(0.257812 0.242188 0.1)
(0.273438 0.242188 0.1)
(0.289062 0.242188 0.1)
(0.304687 0.242188 0.1)
(0.320312 0.242188 0.1)
(0.335938 0.242188 0.1)
(0.351562 0.242188 0.1)
(0.367187 0.242187 0.1)
(0.382812 0.242188 0.1)
(0.398438 0.242188 0.1)
(0.414062 0.242188 0.1)
(0.429687 0.242187 0.1)
(0.445312 0.242187 0.1)
(0.460938 0.242188 0.1)
(0.476563 0.242188 0.1)
(0.492188 0.242188 0.1)
(0.0078125 0.257812 0.1)
(0.0234375 0.257812 0.1)
(0.0390625 0.257812 0.1)
(0.0546875 0.257812 0.1)
(0.0703125 0.257812 0.1)
(0.0859375 0.257812 0.1)
(0.101562 0.257812 0.1)
(0.117188 0.257812 0.1)
(0.132813 0.257812 0.1)
(0.148438 0.257812 0.1)
(0.164063 0.257812 0.1)
(0.179688 0.257812 0.1)
(0.195313 0.257812 0.1)
(0.210937 0.257812 0.1)
(0.226563 0.257812 0.1)
(0.242188 0.257812 0.1)
(0.257812 0.257812 0.1)
(0.273438 0.257812 0.1)
(0.289062 0.257812 0.1)
(0.304687 0.257812 0.1)
(0.320312 0.257812 0.1)
(0.335938 0.257812 0.1)
(0.351562 0.257812 0.1)
(0.367187 0.257812 0.1)
(0.382812 0.257812 0.1)
(0.398438 0.257812 0.1)
(0.414062 0.257812 0.1)
(0.429687 0.257812 0.1)
(0.445312 0.257812 0.1)
(0.460938 0.257812 0.1)
(0.476563 0.257812 0.1)
(0.492188 0.257812 0.1)
(0.0078125 0.273438 0.1)
(0.0234375 0.273438 0.1)
(0.0390625 0.273438 0.1)
(0.0546875 0.273438 0.1)
(0.0703125 0.273438 0.1)
(0.0859375 0.273438 0.1)
(0.101562 0.273438 0.1)
(0.117188 0.273438 0.1)
(0.132813 0.273438 0.1)
(0.148438 0.273438 0.1)
(0.164063 0.273438 0.1)
(0.179688 0.273438 0.1)
(0.195313 0.273438 0.1)
(0.210937 0.273438 0.1)
(0.226563 0.273438 0.1)
(0.242188 0.273438 0.1)
(0.257812 0.273438 0.1)
(0.273438 0.273438 0.1)
(0.289062 0.273438 0.1)
(0.304687 0.273438 0.1)
(0.320312 0.273438 0.1)
(0.335938 0.273438 0.1)
(0.351562 0.273438 0.1)
(0.367187 0.273438 0.1)
(0.382812 0.273438 0.1)
(0.398438 0.273438 0.1)
(0.414062 0.273438 0.1)
(0.429687 0.273438 0.1)
(0.445312 0.273437 0.1)
(0.460938 0.273438 0.1)
(0.476563 0.273438 0.1)
(0.492188 0.273438 0.1)
(0.0078125 0.289062 0.1)
(0.0234375 0.289062 0.1)
(0.0390625 0.289062 0.1)
(0.0546875 0.289062 0.1)
(0.0703125 0.289062 0.1)
(0.0859375 0.289062 0.1)
(0.101562 0.289062 0.1)
(0.117188 0.289062 0.1)
(0.132812 0.289062 0.1)
(0.148438 0.289062 0.1)
(0.164063 0.289062 0.1)
(0.179687 0.289062 0.1)
(0.195313 0.289062 0.1)
(0.210937 0.289062 0.1)
(0.226563 0.289062 0.1)
(0.242188 0.289062 0.1)
(0.257812 0.289062 0.1)
(0.273438 0.289062 0.1)
(0.289062 0.289062 0.1)
(0.304688 0.289062 0.1)
(0.320312 0.289062 0.1)
(0.335938 0.289062 0.1)
(0.351562 0.289062 0.1)
(0.367187 0.289062 0.1)
(0.382812 0.289062 0.1)
(0.398438 0.289062 0.1)
(0.414062 0.289062 0.1)
(0.429687 0.289062 0.1)
(0.445312 0.289062 0.1)
(0.460938 0.289062 0.1)
(0.476562 0.289062 0.1)
(0.492188 0.289062 0.1)
(0.0078125 0.304688 0.1)
(0.0234375 0.304687 0.1)
(0.0390625 0.304687 0.1)
(0.0546875 0.304687 0.1)
(0.0703125 0.304687 0.1)
(0.0859375 0.304688 0.1)
(0.101562 0.304687 0.1)
(0.117188 0.304687 0.1)
(0.132812 0.304687 0.1)
(0.148437 0.304687 0.1)
(0.164063 0.304687 0.1)
(0.179687 0.304687 0.1)
(0.195312 0.304687 0.1)
(0.210937 0.304687 0.1)
(0.226562 0.304687 0.1)
(0.242188 0.304687 0.1)
(0.257812 0.304687 0.1)
(0.273438 0.304687 0.1)
(0.289062 0.304688 0.1)
(0.304687 0.304687 0.1)
(0.320312 0.304687 0.1)
(0.335938 0.304687 0.1)
(0.351562 0.304688 0.1)
(0.367187 0.304687 0.1)
(0.382812 0.304687 0.1)
(0.398438 0.304687 0.1)
(0.414062 0.304688 0.1)
(0.429687 0.304687 0.1)
(0.445312 0.304687 0.1)
(0.460938 0.304687 0.1)
(0.476562 0.304687 0.1)
(0.492188 0.304687 0.1)
(0.0078125 0.320313 0.1)
(0.0234375 0.320313 0.1)
(0.0390625 0.320312 0.1)
(0.0546875 0.320312 0.1)
(0.0703125 0.320313 0.1)
(0.0859375 0.320312 0.1)
(0.101562 0.320312 0.1)
(0.117188 0.320312 0.1)
(0.132813 0.320313 0.1)
(0.148438 0.320313 0.1)
(0.164063 0.320313 0.1)
(0.179688 0.320312 0.1)
(0.195313 0.320313 0.1)
(0.210937 0.320312 0.1)
(0.226563 0.320313 0.1)
(0.242188 0.320313 0.1)
(0.257812 0.320313 0.1)
(0.273438 0.320313 0.1)
(0.289062 0.320312 0.1)
(0.304687 0.320312 0.1)
(0.320312 0.320313 0.1)
(0.335938 0.320313 0.1)
(0.351562 0.320312 0.1)
(0.367187 0.320312 0.1)
(0.382812 0.320312 0.1)
(0.398438 0.320313 0.1)
(0.414062 0.320312 0.1)
(0.429687 0.320312 0.1)
(0.445312 0.320312 0.1)
(0.460938 0.320312 0.1)
(0.476563 0.320313 0.1)
(0.492188 0.320313 0.1)
(0.0078125 0.335938 0.1)
(0.0234375 0.335938 0.1)
(0.0390625 0.335938 0.1)
(0.0546875 0.335938 0.1)
(0.0703125 0.335938 0.1)
(0.0859375 0.335938 0.1)
(0.101562 0.335937 0.1)
(0.117188 0.335938 0.1)
(0.132813 0.335938 0.1)
(0.148438 0.335938 0.1)
(0.164063 0.335938 0.1)
(0.179688 0.335938 0.1)
(0.195313 0.335938 0.1)
(0.210937 0.335938 0.1)
(0.226563 0.335938 0.1)
(0.242188 0.335938 0.1)
(0.257812 0.335938 0.1)
(0.273438 0.335938 0.1)
(0.289062 0.335938 0.1)
(0.304687 0.335938 0.1)
(0.320312 0.335938 0.1)
(0.335938 0.335938 0.1)
(0.351562 0.335938 0.1)
(0.367187 0.335937 0.1)
(0.382812 0.335938 0.1)
(0.398438 0.335938 0.1)
(0.414062 0.335938 0.1)
(0.429687 0.335937 0.1)
(0.445312 0.335937 0.1)
(0.460938 0.335938 0.1)
(0.476563 0.335938 0.1)
(0.492188 0.335938 0.1)
(0.0078125 0.351562 0.1)
(0.0234375 0.351562 0.1)
(0.0390625 0.351562 0.1)
(0.0546875 0.351562 0.1)
(0.0703125 0.351562 0.1)
(0.0859375 0.351562 0.1)
(0.101562 0.351562 0.1)
(0.117188 0.351562 0.1)
(0.132812 0.351562 0.1)
(0.148438 0.351562 0.1)
(0.164063 0.351562 0.1)
(0.179687 0.351562 0.1)
(0.195313 0.351562 0.1)
(0.210937 0.351562 0.1)
(0.226563 0.351562 0.1)
(0.242188 0.351562 0.1)
(0.257812 0.351562 0.1)
(0.273438 0.351562 0.1)
(0.289062 0.351562 0.1)
(0.304688 0.351562 0.1)
(0.320312 0.351562 0.1)
(0.335938 0.351562 0.1)
(0.351562 0.351562 0.1)
(0.367187 0.351562 0.1)
(0.382812 0.351562 0.1)
(0.398438 0.351562 0.1)
(0.414062 0.351562 0.1)
(0.429687 0.351562 0.1)
(0.445312 0.351562 0.1)
(0.460938 0.351562 0.1)
(0.476562 0.351562 0.1)
(0.492188 0.351562 0.1)
(0.0078125 0.367187 0.1)
(0.0234375 0.367187 0.1)
(0.0390625 0.367187 0.1)
(0.0546875 0.367187 0.1)
(0.0703125 0.367187 0.1)
(0.0859375 0.367187 0.1)
(0.101562 0.367187 0.1)
(0.117188 0.367187 0.1)
(0.132813 0.367187 0.1)
(0.148438 0.367187 0.1)
(0.164063 0.367187 0.1)
(0.179687 0.367188 0.1)
(0.195313 0.367188 0.1)
(0.210937 0.367188 0.1)
(0.226563 0.367188 0.1)
(0.242188 0.367187 0.1)
(0.257812 0.367187 0.1)
(0.273438 0.367187 0.1)
(0.289062 0.367187 0.1)
(0.304688 0.367187 0.1)
(0.320313 0.367187 0.1)
(0.335938 0.367187 0.1)
(0.351562 0.367187 0.1)
(0.367187 0.367187 0.1)
(0.382812 0.367187 0.1)
(0.398438 0.367187 0.1)
(0.414062 0.367187 0.1)
(0.429687 0.367187 0.1)
(0.445312 0.367187 0.1)
(0.460938 0.367187 0.1)
(0.476563 0.367187 0.1)
(0.492188 0.367187 0.1)
(0.0078125 0.382812 0.1)
(0.0234375 0.382812 0.1)
(0.0390625 0.382813 0.1)
(0.0546875 0.382812 0.1)
(0.0703125 0.382812 0.1)
(0.0859375 0.382812 0.1)
(0.101562 0.382812 0.1)
(0.117188 0.382812 0.1)
(0.132812 0.382812 0.1)
(0.148437 0.382812 0.1)
(0.164063 0.382812 0.1)
(0.179687 0.382812 0.1)
(0.195312 0.382812 0.1)
(0.210937 0.382812 0.1)
(0.226562 0.382812 0.1)
(0.242188 0.382812 0.1)
(0.257812 0.382812 0.1)
(0.273438 0.382812 0.1)
(0.289062 0.382813 0.1)
(0.304687 0.382812 0.1)
(0.320312 0.382812 0.1)
(0.335938 0.382812 0.1)
(0.351562 0.382813 0.1)
(0.367187 0.382812 0.1)
(0.382812 0.382812 0.1)
(0.398438 0.382812 0.1)
(0.414062 0.382813 0.1)
(0.429687 0.382812 0.1)
(0.445312 0.382812 0.1)
(0.460938 0.382812 0.1)
(0.476562 0.382812 0.1)
(0.492188 0.382812 0.1)
(0.0078125 0.398438 0.1)
(0.0234375 0.398438 0.1)
(0.0390625 0.398437 0.1)
(0.0546875 0.398438 0.1)
(0.0703125 0.398438 0.1)
(0.0859375 0.398438 0.1)
(0.101562 0.398437 0.1)
(0.117188 0.398438 0.1)
(0.132813 0.398438 0.1)
(0.148438 0.398438 0.1)
(0.164063 0.398438 0.1)
(0.179688 0.398438 0.1)
(0.195313 0.398438 0.1)
(0.210937 0.398438 0.1)
(0.226563 0.398438 0.1)
(0.242188 0.398438 0.1)
(0.257812 0.398438 0.1)
(0.273438 0.398438 0.1)
(0.289062 0.398438 0.1)
(0.304687 0.398438 0.1)
(0.320312 0.398438 0.1)
(0.335938 0.398438 0.1)
(0.351562 0.398438 0.1)
(0.367187 0.398437 0.1)
(0.382812 0.398438 0.1)
(0.398438 0.398438 0.1)
(0.414062 0.398438 0.1)
(0.429687 0.398437 0.1)
(0.445312 0.398437 0.1)
(0.460938 0.398437 0.1)
(0.476563 0.398438 0.1)
(0.492188 0.398438 0.1)
(0.0078125 0.414062 0.1)
(0.0234375 0.414062 0.1)
(0.0390625 0.414063 0.1)
(0.0546875 0.414062 0.1)
(0.0703125 0.414062 0.1)
(0.0859375 0.414063 0.1)
(0.101562 0.414062 0.1)
(0.117188 0.414062 0.1)
(0.132812 0.414062 0.1)
(0.148438 0.414062 0.1)
(0.164063 0.414062 0.1)
(0.179687 0.414062 0.1)
(0.195313 0.414062 0.1)
(0.210937 0.414062 0.1)
(0.226563 0.414062 0.1)
(0.242188 0.414062 0.1)
(0.257812 0.414062 0.1)
(0.273438 0.414062 0.1)
(0.289062 0.414062 0.1)
(0.304688 0.414062 0.1)
(0.320312 0.414062 0.1)
(0.335938 0.414062 0.1)
(0.351562 0.414062 0.1)
(0.367187 0.414062 0.1)
(0.382812 0.414062 0.1)
(0.398438 0.414062 0.1)
(0.414062 0.414062 0.1)
(0.429687 0.414062 0.1)
(0.445312 0.414062 0.1)
(0.460938 0.414062 0.1)
(0.476562 0.414062 0.1)
(0.492188 0.414062 0.1)
(0.0078125 0.429688 0.1)
(0.0234375 0.429688 0.1)
(0.0390625 0.429687 0.1)
(0.0546875 0.429688 0.1)
(0.0703125 0.429688 0.1)
(0.0859375 0.429687 0.1)
(0.101562 0.429688 0.1)
(0.117188 0.429688 0.1)
(0.132813 0.429688 0.1)
(0.148438 0.429688 0.1)
(0.164063 0.429688 0.1)
(0.179687 0.429688 0.1)
(0.195313 0.429688 0.1)
(0.210937 0.429688 0.1)
(0.226563 0.429688 0.1)
(0.242188 0.429688 0.1)
(0.257812 0.429688 0.1)
(0.273438 0.429688 0.1)
(0.289062 0.429687 0.1)
(0.304688 0.429688 0.1)
(0.320313 0.429688 0.1)
(0.335938 0.429688 0.1)
(0.351562 0.429687 0.1)
(0.367187 0.429687 0.1)
(0.382812 0.429688 0.1)
(0.398438 0.429688 0.1)
(0.414062 0.429687 0.1)
(0.429687 0.429687 0.1)
(0.445312 0.429687 0.1)
(0.460938 0.429688 0.1)
(0.476563 0.429688 0.1)
(0.492188 0.429688 0.1)
(0.0078125 0.445313 0.1)
(0.0234375 0.445312 0.1)
(0.0390625 0.445312 0.1)
(0.0546875 0.445312 0.1)
(0.0703125 0.445312 0.1)
(0.0859375 0.445312 0.1)
(0.101562 0.445312 0.1)
(0.117188 0.445312 0.1)
(0.132812 0.445312 0.1)
(0.148438 0.445312 0.1)
(0.164063 0.445312 0.1)
(0.179687 0.445312 0.1)
(0.195312 0.445312 0.1)
(0.210937 0.445312 0.1)
(0.226563 0.445312 0.1)
(0.242188 0.445312 0.1)
(0.257812 0.445312 0.1)
(0.273438 0.445312 0.1)
(0.289062 0.445312 0.1)
(0.304688 0.445312 0.1)
(0.320312 0.445312 0.1)
(0.335938 0.445312 0.1)
(0.351562 0.445312 0.1)
(0.367187 0.445312 0.1)
(0.382812 0.445312 0.1)
(0.398438 0.445312 0.1)
(0.414062 0.445312 0.1)
(0.429687 0.445312 0.1)
(0.445312 0.445312 0.1)
(0.460938 0.445313 0.1)
(0.476562 0.445312 0.1)
(0.492188 0.445312 0.1)
(0.0078125 0.460938 0.1)
(0.0234375 0.460938 0.1)
(0.0390625 0.460937 0.1)
(0.0546875 0.460937 0.1)
(0.0703125 0.460938 0.1)
(0.0859375 0.460937 0.1)
(0.101562 0.460938 0.1)
(0.117188 0.460937 0.1)
(0.132812 0.460938 0.1)
(0.148438 0.460938 0.1)
(0.164063 0.460938 0.1)
(0.179687 0.460938 0.1)
(0.195313 0.460938 0.1)
(0.210937 0.460938 0.1)
(0.226563 0.460938 0.1)
(0.242188 0.460938 0.1)
(0.257812 0.460938 0.1)
(0.273438 0.460938 0.1)
(0.289062 0.460938 0.1)
(0.304687 0.460938 0.1)
(0.320312 0.460938 0.1)
(0.335938 0.460938 0.1)
(0.351562 0.460938 0.1)
(0.367187 0.460938 0.1)
(0.382812 0.460938 0.1)
(0.398438 0.460938 0.1)
(0.414062 0.460938 0.1)
(0.429687 0.460938 0.1)
(0.445313 0.460938 0.1)
(0.460938 0.460938 0.1)
(0.476562 0.460938 0.1)
(0.492188 0.460938 0.1)
(0.0078125 0.476563 0.1)
(0.0234375 0.476563 0.1)
(0.0390625 0.476562 0.1)
(0.0546875 0.476562 0.1)
(0.0703125 0.476563 0.1)
(0.0859375 0.476562 0.1)
(0.101562 0.476562 0.1)
(0.117188 0.476562 0.1)
(0.132813 0.476563 0.1)
(0.148438 0.476563 0.1)
(0.164063 0.476563 0.1)
(0.179688 0.476562 0.1)
(0.195313 0.476563 0.1)
(0.210937 0.476562 0.1)
(0.226563 0.476563 0.1)
(0.242188 0.476563 0.1)
(0.257812 0.476563 0.1)
(0.273438 0.476563 0.1)
(0.289062 0.476562 0.1)
(0.304687 0.476562 0.1)
(0.320312 0.476563 0.1)
(0.335938 0.476563 0.1)
(0.351562 0.476562 0.1)
(0.367187 0.476562 0.1)
(0.382812 0.476562 0.1)
(0.398438 0.476563 0.1)
(0.414062 0.476562 0.1)
(0.429687 0.476562 0.1)
(0.445312 0.476562 0.1)
(0.460938 0.476562 0.1)
(0.476563 0.476563 0.1)
(0.492188 0.476563 0.1)
(0.0078125 0.492188 0.1)
(0.0234375 0.492188 0.1)
(0.0390625 0.492188 0.1)
(0.0546875 0.492188 0.1)
(0.0703125 0.492188 0.1)
(0.0859375 0.492188 0.1)
(0.101562 0.492188 0.1)
(0.117188 0.492188 0.1)
(0.132813 0.492188 0.1)
(0.148438 0.492188 0.1)
(0.164063 0.492188 0.1)
(0.179688 0.492188 0.1)
(0.195313 0.492188 0.1)
(0.210937 0.492188 0.1)
(0.226563 0.492188 0.1)
(0.242188 0.492188 0.1)
(0.257812 0.492188 0.1)
(0.273438 0.492188 0.1)
(0.289062 0.492188 0.1)
(0.304687 0.492188 0.1)
(0.320312 0.492188 0.1)
(0.335938 0.492188 0.1)
(0.351562 0.492188 0.1)
(0.367187 0.492188 0.1)
(0.382812 0.492188 0.1)
(0.398438 0.492188 0.1)
(0.414062 0.492188 0.1)
(0.429687 0.492188 0.1)
(0.445312 0.492188 0.1)
(0.460938 0.492188 0.1)
(0.476563 0.492188 0.1)
(0.492188 0.492188 0.1)
(1.50781 0.0078125 0.1)
(1.52344 0.0078125 0.1)
(1.53906 0.0078125 0.1)
(1.55469 0.0078125 0.1)
(1.57031 0.0078125 0.1)
(1.58594 0.0078125 0.1)
(1.60156 0.0078125 0.1)
(1.61719 0.0078125 0.1)
(1.63281 0.0078125 0.1)
(1.64844 0.0078125 0.1)
(1.66406 0.0078125 0.1)
(1.67969 0.0078125 0.1)
(1.69531 0.0078125 0.1)
(1.71094 0.0078125 0.1)
(1.72656 0.0078125 0.1)
(1.74219 0.0078125 0.1)
(1.75781 0.0078125 0.1)
(1.77344 0.0078125 0.1)
(1.78906 0.0078125 0.1)
(1.80469 0.0078125 0.1)
(1.82031 0.0078125 0.1)
(1.83594 0.0078125 0.1)
(1.85156 0.0078125 0.1)
(1.86719 0.0078125 0.1)
(1.88281 0.0078125 0.1)
(1.89844 0.0078125 0.1)
(1.91406 0.0078125 0.1)
(1.92969 0.0078125 0.1)
(1.94531 0.0078125 0.1)
(1.96094 0.0078125 0.1)
(1.97656 0.0078125 0.1)
(1.99219 0.0078125 0.1)
(1.50781 0.0234375 0.1)
(1.52344 0.0234375 0.1)
(1.53906 0.0234375 0.1)
(1.55469 0.0234375 0.1)
(1.57031 0.0234375 0.1)
(1.58594 0.0234375 0.1)
(1.60156 0.0234375 0.1)
(1.61719 0.0234375 0.1)
(1.63281 0.0234375 0.1)
(1.64844 0.0234375 0.1)
(1.66406 0.0234375 0.1)
(1.67969 0.0234375 0.1)
(1.69531 0.0234375 0.1)
(1.71094 0.0234375 0.1)
(1.72656 0.0234375 0.1)
(1.74219 0.0234375 0.1)
(1.75781 0.0234375 0.1)
(1.77344 0.0234375 0.1)
(1.78906 0.0234375 0.1)
(1.80469 0.0234375 0.1)
(1.82031 0.0234375 0.1)
(1.83594 0.0234375 0.1)
(1.85156 0.0234375 0.1)
(1.86719 0.0234375 0.1)
(1.88281 0.0234375 0.1)
(1.89844 0.0234375 0.1)
(1.91406 0.0234375 0.1)
(1.92969 0.0234375 0.1)
(1.94531 0.0234375 0.1)
(1.96094 0.0234375 0.1)
(1.97656 0.0234375 0.1)
(1.99219 0.0234375 0.1)
(1.50781 0.0390625 0.1)
(1.52344 0.0390625 0.1)
(1.53906 0.0390625 0.1)
(1.55469 0.0390625 0.1)
(1.57031 0.0390625 0.1)
(1.58594 0.0390625 0.1)
(1.60156 0.0390625 0.1)
(1.61719 0.0390625 0.1)
(1.63281 0.0390625 0.1)
(1.64844 0.0390625 0.1)
(1.66406 0.0390625 0.1)
(1.67969 0.0390625 0.1)
(1.69531 0.0390625 0.1)
(1.71094 0.0390625 0.1)
(1.72656 0.0390625 0.1)
(1.74219 0.0390625 0.1)
(1.75781 0.0390625 0.1)
(1.77344 0.0390625 0.1)
(1.78906 0.0390625 0.1)
(1.80469 0.0390625 0.1)
(1.82031 0.0390625 0.1)
(1.83594 0.0390625 0.1)
(1.85156 0.0390625 0.1)
(1.86719 0.0390625 0.1)
(1.88281 0.0390625 0.1)
(1.89844 0.0390625 0.1)
(1.91406 0.0390625 0.1)
(1.92969 0.0390625 0.1)
(1.94531 0.0390625 0.1)
(1.96094 0.0390625 0.1)
(1.97656 0.0390625 0.1)
(1.99219 0.0390625 0.1)
(1.50781 0.0546875 0.1)
(1.52344 0.0546875 0.1)
(1.53906 0.0546875 0.1)
(1.55469 0.0546875 0.1)
(1.57031 0.0546875 0.1)
(1.58594 0.0546875 0.1)
(1.60156 0.0546875 0.1)
(1.61719 0.0546875 0.1)
(1.63281 0.0546875 0.1)
(1.64844 0.0546875 0.1)
(1.66406 0.0546875 0.1)
(1.67969 0.0546875 0.1)
(1.69531 0.0546875 0.1)
(1.71094 0.0546875 0.1)
(1.72656 0.0546875 0.1)
(1.74219 0.0546875 0.1)
(1.75781 0.0546875 0.1)
(1.77344 0.0546875 0.1)
(1.78906 0.0546875 0.1)
(1.80469 0.0546875 0.1)
(1.82031 0.0546875 0.1)
(1.83594 0.0546875 0.1)
(1.85156 0.0546875 0.1)
(1.86719 0.0546875 0.1)
(1.88281 0.0546875 0.1)
(1.89844 0.0546875 0.1)
(1.91406 0.0546875 0.1)
(1.92969 0.0546875 0.1)
(1.94531 0.0546875 0.1)
(1.96094 0.0546875 0.1)
(1.97656 0.0546875 0.1)
(1.99219 0.0546875 0.1)
(1.50781 0.0703125 0.1)
(1.52344 0.0703125 0.1)
(1.53906 0.0703125 0.1)
(1.55469 0.0703125 0.1)
(1.57031 0.0703125 0.1)
(1.58594 0.0703125 0.1)
(1.60156 0.0703125 0.1)
(1.61719 0.0703125 0.1)
(1.63281 0.0703125 0.1)
(1.64844 0.0703125 0.1)
(1.66406 0.0703125 0.1)
(1.67969 0.0703125 0.1)
(1.69531 0.0703125 0.1)
(1.71094 0.0703125 0.1)
(1.72656 0.0703125 0.1)
(1.74219 0.0703125 0.1)
(1.75781 0.0703125 0.1)
(1.77344 0.0703125 0.1)
(1.78906 0.0703125 0.1)
(1.80469 0.0703125 0.1)
(1.82031 0.0703125 0.1)
(1.83594 0.0703125 0.1)
(1.85156 0.0703125 0.1)
(1.86719 0.0703125 0.1)
(1.88281 0.0703125 0.1)
(1.89844 0.0703125 0.1)
(1.91406 0.0703125 0.1)
(1.92969 0.0703125 0.1)
(1.94531 0.0703125 0.1)
(1.96094 0.0703125 0.1)
(1.97656 0.0703125 0.1)
(1.99219 0.0703125 0.1)
(1.50781 0.0859375 0.1)
(1.52344 0.0859375 0.1)
(1.53906 0.0859375 0.1)
(1.55469 0.0859375 0.1)
(1.57031 0.0859375 0.1)
(1.58594 0.0859375 0.1)
(1.60156 0.0859375 0.1)
(1.61719 0.0859375 0.1)
(1.63281 0.0859375 0.1)
(1.64844 0.0859375 0.1)
(1.66406 0.0859375 0.1)
(1.67969 0.0859375 0.1)