/*--------------------------------*- C++ -*----------------------------------*\
  =========                 |
  \\      /  F ield         | OpenFOAM: The Open Source CFD Toolbox
   \\    /   O peration     | Website:  https://openfoam.org
    \\  /    A nd           | Version:  10
     \\/     M anipulation  |
\*---------------------------------------------------------------------------*/
FoamFile
{
    format      ascii;
    class       volScalarField;
    location    "0.600752";
    object      p;
}
// * * * * * * * * * * * * * * * * * * * * * * * * * * * * * * * * * * * * * //

dimensions      [1 -1 -2 0 0 0 0];

internalField   nonuniform List<scalar> 
16320
(
1.05337
1.04449
1.03488
1.0244
1.0118
0.999731
0.985731
0.974266
0.960919
0.944881
0.926408
0.905735
0.883143
0.859271
0.8352
0.812466
0.79336
0.779627
0.772015
0.770056
0.772876
0.780741
0.792267
0.805594
0.817758
0.828278
0.83665
0.84192
0.843196
0.841936
0.838033
0.830753
0.822328
1.04153
1.03841
1.03452
1.03318
1.02697
1.01862
1.00779
0.995924
0.983082
0.967068
0.948355
0.927259
0.904342
0.880275
0.856004
0.833491
0.813648
0.79832
0.788629
0.786099
0.789032
0.797853
0.81027
0.824159
0.836161
0.847287
0.854871
0.859717
0.859894
0.857711
0.852279
0.844541
0.834095
1.02766
1.0301
1.03174
1.03183
1.03322
1.03057
1.02513
1.01376
1.00279
0.988454
0.971319
0.950705
0.928178
0.904548
0.880869
0.857669
0.836965
0.820566
0.810223
0.807124
0.810216
0.819504
0.832439
0.845251
0.858288
0.868432
0.87503
0.87778
0.877073
0.873383
0.865884
0.857244
0.84507
1.00994
1.01644
1.02273
1.02804
1.03252
1.03623
1.03472
1.02981
1.01867
1.00705
0.991627
0.973993
0.953135
0.930662
0.907686
0.885116
0.864583
0.848008
0.837285
0.833736
0.836778
0.845638
0.857271
0.870573
0.88159
0.889757
0.894637
0.895674
0.893505
0.887533
0.878027
0.86775
0.85491
0.991693
1.0002
1.00942
1.01885
1.0277
1.03481
1.03909
1.03771
1.03289
1.02168
1.00988
0.99515
0.977535
0.957563
0.936648
0.915876
0.896444
0.880405
0.869762
0.865603
0.867834
0.875316
0.885288
0.895503
0.904254
0.91028
0.91299
0.912033
0.907772
0.899211
0.888417
0.875039
0.862834
0.974025
0.982991
0.993298
1.00496
1.01693
1.02808
1.03647
1.04061
1.03884
1.03314
1.02401
1.01272
1.00026
0.984131
0.966675
0.949108
0.93236
0.917784
0.906844
0.90173
0.902255
0.906589
0.913896
0.92034
0.925963
0.928912
0.928747
0.925614
0.918402
0.907974
0.895138
0.881727
0.868033
0.957483
0.965437
0.975004
0.987163
1.00098
1.01508
1.02767
1.03628
1.04061
1.03888
1.03425
1.02775
1.01964
1.00988
0.99713
0.983985
0.970815
0.958413
0.948399
0.941524
0.93867
0.939365
0.941049
0.943447
0.94489
0.944278
0.941387
0.935314
0.925773
0.914146
0.900124
0.886172
0.871124
0.939719
0.94619
0.953554
0.965556
0.979583
0.995664
1.01163
1.02504
1.03411
1.03984
1.04116
1.03994
1.03679
1.03346
1.02727
1.01938
1.01023
0.999981
0.989328
0.979907
0.972639
0.967917
0.964931
0.962782
0.959999
0.955987
0.950027
0.941812
0.930074
0.917554
0.90349
0.888163
0.873607
0.921739
0.92739
0.933008
0.941418
0.95353
0.969612
0.988643
1.0067
1.02199
1.03457
1.04327
1.04889
1.05222
1.05451
1.05567
1.05374
1.04794
1.03901
1.02732
1.01411
1.00188
0.991769
0.983898
0.977301
0.970848
0.96397
0.956001
0.944326
0.932704
0.91943
0.904131
0.889613
0.873763
0.903431
0.905793
0.909419
0.915046
0.924759
0.940661
0.960613
0.98293
1.00394
1.02351
1.0402
1.05394
1.06518
1.07439
1.08107
1.08346
1.08066
1.07214
1.05817
1.04191
1.02548
1.01047
0.998118
0.987903
0.978373
0.967688
0.956905
0.945709
0.933189
0.918918
0.9045
0.888902
0.87286
0.882273
0.883894
0.885488
0.88838
0.896217
0.909199
0.928883
0.954228
0.981857
1.00727
1.03327
1.05606
1.07591
1.09216
1.10328
1.10826
1.10582
1.09591
1.08028
1.06156
1.04192
1.02332
1.00656
0.992315
0.979901
0.968672
0.95705
0.944902
0.93173
0.917803
0.902801
0.887528
0.8716
0.862915
0.862939
0.863334
0.864877
0.869112
0.879212
0.897515
0.923275
0.955294
0.991189
1.02335
1.05638
1.08448
1.1068
1.12118
1.12658
1.1233
1.11197
1.09422
1.07235
1.04965
1.0285
1.01029
0.994369
0.980217
0.967524
0.955004
0.942532
0.928857
0.915105
0.899785
0.88617
0.8681
0.846242
0.844539
0.842871
0.842831
0.844979
0.85198
0.867735
0.893993
0.929543
0.971308
1.0149
1.05618
1.09082
1.11706
1.13346
1.13823
1.13339
1.12016
1.10062
1.07758
1.05359
1.03082
1.01066
0.993258
0.977885
0.964131
0.95068
0.938018
0.925004
0.910503
0.896296
0.879545
0.862794
0.834186
0.830047
0.826105
0.824379
0.825299
0.829798
0.842336
0.867837
0.906036
0.954009
1.00627
1.05368
1.09361
1.12231
1.13896
1.14302
1.13681
1.12197
1.10118
1.07716
1.05254
1.02908
1.00795
0.989337
0.972911
0.958517
0.945418
0.932678
0.920044
0.905584
0.8887
0.872111
0.855372
0.825496
0.819466
0.813703
0.810012
0.809305
0.812444
0.822527
0.845618
0.885537
0.937821
0.996151
1.04914
1.09264
1.12188
1.13816
1.14192
1.13521
1.1198
1.09858
1.07395
1.04862
1.02441
1.00254
0.983617
0.967232
0.952457
0.937771
0.92517
0.910475
0.896735
0.880149
0.864763
0.848398
0.819706
0.81347
0.805605
0.800323
0.7978
0.799498
0.807287
0.827792
0.867331
0.922541
0.983972
1.04163
1.08727
1.1173
1.13354
1.1374
1.13042
1.1143
1.09232
1.06755
1.0419
1.01763
0.995868
0.976753
0.959468
0.944745
0.930119
0.914754
0.900335
0.885754
0.871565
0.856598
0.840779
0.816854
0.808409
0.802371
0.796463
0.792091
0.791356
0.796387
0.813855
0.851463
0.907184
0.970653
1.03098
1.0781
1.10931
1.12603
1.12994
1.12282
1.1065
1.08419
1.05914
1.03369
1.00955
0.987503
0.967507
0.950611
0.933413
0.918254
0.903972
0.89031
0.877388
0.862688
0.848332
0.832883
0.815303
0.80916
0.802633
0.796263
0.790922
0.787642
0.789757
0.803831
0.83877
0.894107
0.957978
1.0202
1.06949
1.10152
1.11851
1.12219
1.11398
1.09736
1.07483
1.04957
1.02386
0.999226
0.976564
0.95699
0.938059
0.921999
0.907175
0.8936
0.880725
0.868055
0.854533
0.840144
0.824431
0.816009
0.811919
0.806774
0.799752
0.792348
0.786875
0.786429
0.798486
0.832652
0.887878
0.951687
1.01514
1.06512
1.09754
1.11356
1.11585
1.1065
1.08842
1.0649
1.03868
1.01218
0.988139
0.964928
0.943454
0.925578
0.910027
0.895989
0.883776
0.871938
0.859441
0.845904
0.831074
0.814651
0.820852
0.819148
0.815956
0.808899
0.801335
0.794911
0.793199
0.805195
0.838125
0.890819
0.954507
1.01777
1.06793
1.0998
1.11409
1.11386
1.10124
1.08017
1.05401
1.02597
0.999535
0.972691
0.949601
0.9297
0.91222
0.897809
0.886582
0.875244
0.863381
0.850525
0.836407
0.820744
0.803448
0.829217
0.831394
0.83148
0.824456
0.81716
0.811585
0.809945
0.82305
0.85557
0.90683
0.969339
1.03147
1.08119
1.11034
1.12127
1.11711
1.09954
1.07297
1.04293
1.01272
0.983004
0.957079
0.93472
0.915258
0.901085
0.889355
0.877924
0.866361
0.854071
0.84058
0.825655
0.809073
0.790936
0.841333
0.847988
0.851518
0.846611
0.839997
0.836731
0.836333
0.850973
0.884217
0.935958
0.998711
1.06079
1.10909
1.13388
1.13992
1.12823
1.10245
1.06951
1.03275
0.996666
0.966493
0.940738
0.919506
0.904539
0.891453
0.879801
0.868172
0.856339
0.843699
0.829882
0.81371
0.795744
0.776716
0.85686
0.868324
0.873967
0.875318
0.869092
0.866793
0.869107
0.884932
0.919763
0.971179
1.03336
1.09668
1.14559
1.16859
1.17236
1.15085
1.11398
1.06725
1.02113
0.982136
0.949286
0.92539
0.908006
0.893489
0.880411
0.869313
0.858423
0.845675
0.830845
0.814165
0.796577
0.778136
0.759561
0.875028
0.890991
0.90066
0.904055
0.903318
0.900599
0.904938
0.921756
0.956226
1.00682
1.06852
1.13368
1.18597
1.21199
1.21689
1.18972
1.13498
1.07247
1.01584
0.969865
0.937737
0.913938
0.895626
0.88165
0.869487
0.856534
0.842642
0.8281
0.81224
0.795037
0.77726
0.759454
0.74241
0.894423
0.915039
0.929675
0.9364
0.938337
0.938363
0.942988
0.959778
0.993157
1.04151
1.10227
1.16861
1.22783
1.26153
1.27243
1.24085
1.17159
1.08982
1.01897
0.965448
0.927834
0.902012
0.883635
0.867598
0.852824
0.838506
0.823763
0.808089
0.791432
0.774244
0.757208
0.741005
0.726351
0.915596
0.939656
0.958968
0.970973
0.976609
0.979432
0.984557
0.999208
1.03122
1.0765
1.13544
1.20149
1.2642
1.30517
1.32118
1.29483
1.21948
1.12189
1.03287
0.965811
0.920297
0.889502
0.867417
0.849415
0.83347
0.818008
0.802113
0.78564
0.768889
0.752475
0.737176
0.723552
0.711983
0.937716
0.965489
0.988345
1.00541
1.01538
1.0219
1.03015
1.04605
1.074
1.11508
1.16892
1.23066
1.29151
1.33359
1.35065
1.33436
1.266
1.16323
1.05573
0.970746
0.912418
0.87459
0.848648
0.82866
0.811038
0.794125
0.777395
0.760997
0.745195
0.730675
0.718084
0.707723
0.699595
0.958547
0.990707
1.01748
1.03835
1.05402
1.06598
1.07684
1.09339
1.11893
1.15553
1.20259
1.25624
1.30884
1.34666
1.36443
1.35362
1.29877
1.20013
1.08121
0.976313
0.90358
0.857362
0.826948
0.804203
0.784732
0.766971
0.750293
0.734826
0.721253
0.709837
0.700846
0.693519
0.689233
0.978684
1.01285
1.04436
1.07007
1.08969
1.10607
1.12094
1.13878
1.16209
1.19355
1.23301
1.2775
1.32105
1.35292
1.36762
1.36015
1.31615
1.22606
1.10166
0.979667
0.891514
0.836373
0.800923
0.775524
0.755009
0.737425
0.721884
0.708666
0.69828
0.690631
0.685403
0.682149
0.679867
0.997571
1.0343
1.06829
1.0975
1.12183
1.14169
1.15898
1.17734
1.19921
1.22635
1.25879
1.29462
1.32937
1.35464
1.36651
1.35976
1.32193
1.23975
1.11314
0.976992
0.874035
0.810341
0.77047
0.743217
0.722417
0.706336
0.693464
0.684172
0.677622
0.673824
0.672023
0.671061
0.670836
1.01482
1.05312
1.08887
1.12106
1.14794
1.16984
1.18946
1.20795
1.22854
1.2521
1.27874
1.3073
1.33464
1.35379
1.36235
1.35478
1.31978
1.24181
1.11299
0.965324
0.848991
0.778124
0.735815
0.708196
0.689489
0.676442
0.667869
0.662314
0.659441
0.658506
0.658989
0.66008
0.661528
1.03088
1.06977
1.10584
1.13851
1.16641
1.18962
1.21016
1.22866
1.24801
1.26886
1.29116
1.31433
1.33557
1.34907
1.3538
1.34377
1.30946
1.23349
1.10169
0.94249
0.816897
0.743309
0.699951
0.674752
0.659485
0.650174
0.64503
0.642669
0.642266
0.643598
0.646066
0.648783
0.651563
1.04583
1.08306
1.11852
1.1491
1.1753
1.19793
1.2186
1.23843
1.2561
1.27507
1.29439
1.31353
1.32948
1.33791
1.33821
1.32466
1.28818
1.21119
1.07624
0.91145
0.782443
0.708578
0.667038
0.644436
0.633959
0.627067
0.624907
0.624096
0.625502
0.628922
0.632781
0.636151
0.640026
1.05771
1.09246
1.12478
1.1529
1.17682
1.19692
1.21536
1.23391
1.25314
1.27062
1.28733
1.30259
1.31305
1.31701
1.31269
1.29506
1.2557
1.17711
1.0432
0.878374
0.74999
0.677665
0.638798
0.620239
0.611038
0.60716
0.605995
0.606714
0.609261
0.612115
0.615962
0.621087
0.625896
1.06622
1.09733
1.12597
1.15073
1.17035
1.18623
1.20047
1.21648
1.23417
1.25167
1.26742
1.27875
1.28466
1.28461
1.27598
1.25502
1.21407
1.1372
1.00874
0.849616
0.723255
0.65296
0.617731
0.599846
0.592248
0.58807
0.586899
0.587551
0.589818
0.593067
0.596562
0.601601
0.607766
1.07111
1.09846
1.12237
1.14184
1.15709
1.16665
1.17732
1.18779
1.20281
1.21738
1.23107
1.24008
1.24348
1.24053
1.22973
1.20732
1.16934
1.09767
0.979601
0.830481
0.706506
0.636163
0.600017
0.582544
0.574499
0.570647
0.569331
0.569753
0.571883
0.575285
0.579438
0.58493
0.590769
1.07298
1.09564
1.11401
1.12741
1.13707
1.14171
1.14847
1.15487
1.16323
1.17419
1.18422
1.19079
1.19282
1.18958
1.17927
1.15879
1.12649
1.06515
0.960765
0.822908
0.699404
0.624931
0.586993
0.568826
0.560355
0.55644
0.555142
0.555401
0.556917
0.560305
0.564502
0.569148
0.574942
1.07196
1.08958
1.10222
1.10972
1.11372
1.11432
1.11697
1.11955
1.12231
1.12799
1.13361
1.13855
1.13946
1.13818
1.13068
1.1154
1.09112
1.04266
0.954484
0.827079
0.702434
0.621559
0.579419
0.559385
0.549915
0.545482
0.543755
0.54395
0.545619
0.548175
0.552489
0.557359
0.562931
1.06836
1.08245
1.08919
1.09118
1.09048
1.0878
1.08662
1.08559
1.08506
1.08615
1.08833
1.09088
1.09197
1.09197
1.0879
1.08093
1.06406
1.03045
0.959099
0.844017
0.716011
0.626082
0.577564
0.553923
0.542604
0.538019
0.536243
0.536381
0.537785
0.540471
0.543949
0.548274
0.553294
1.06428
1.07439
1.07595
1.07455
1.07044
1.06465
1.0604
1.05647
1.05393
1.05219
1.0519
1.05222
1.05274
1.05353
1.05348
1.05246
1.04456
1.02546
0.973362
0.874681
0.744358
0.639816
0.581377
0.552928
0.539501
0.533756
0.531558
0.531103
0.532045
0.534074
0.536837
0.540222
0.543953
1.05941
1.06601
1.06454
1.05999
1.05307
1.04578
1.03895
1.033
1.0283
1.02429
1.02163
1.02051
1.02011
1.02106
1.02591
1.02891
1.02936
1.02234
0.991099
0.912189
0.788087
0.66787
0.593086
0.556591
0.53958
0.531685
0.528416
0.527437
0.527606
0.528787
0.530682
0.532935
0.535278
1.05371
1.05744
1.05522
1.04696
1.03823
1.03009
1.02172
1.01433
1.00766
1.00161
0.996675
0.993842
0.992793
0.994136
1.0006
1.00879
1.01531
1.01703
1.00315
0.947577
0.840648
0.711579
0.61658
0.566265
0.542781
0.531866
0.526794
0.524732
0.524157
0.524329
0.525195
0.525776
0.526151
1.04744
1.049
1.04615
1.0349
1.02517
1.01656
1.00751
0.999084
0.990851
0.982925
0.975836
0.970819
0.968761
0.970867
0.977118
0.98861
1.00103
1.00743
1.00563
0.973362
0.891105
0.767545
0.65404
0.584946
0.550508
0.534264
0.52657
0.522866
0.521286
0.520037
0.519858
0.518586
0.516954
1.04017
1.03946
1.0365
1.02288
1.0136
1.00452
0.995274
0.986194
0.976718
0.967128
0.957802
0.950648
0.948311
0.949152
0.95526
0.967855
0.9834
0.994472
0.99859
0.986319
0.929599
0.825381
0.704091
0.614252
0.564149
0.540031
0.528515
0.522226
0.519168
0.516192
0.513601
0.511096
0.508378
1.03024
1.02789
1.02515
1.01141
1.00267
0.993135
0.984216
0.974675
0.964364
0.953589
0.942651
0.933241
0.930394
0.929259
0.933956
0.945883
0.962153
0.977328
0.985005
0.984886
0.951609
0.873841
0.760588
0.656876
0.589116
0.552008
0.533231
0.52311
0.51669
0.511829
0.507969
0.504416
0.500556
1.01675
1.01415
1.01018
1.00193
0.992014
0.981709
0.973626
0.963866
0.953181
0.94193
0.930421
0.920189
0.913985
0.911685
0.91457
0.923514
0.938216
0.954641
0.965729
0.970769
0.955565
0.905745
0.816537
0.713461
0.629766
0.576844
0.545719
0.527381
0.516378
0.508614
0.503188
0.498134
0.493334
1.00007
0.998791
0.995341
0.990218
0.979423
0.970444
0.962764
0.953427
0.94298
0.931618
0.920161
0.909389
0.90118
0.897314
0.896857
0.902341
0.913553
0.92699
0.937672
0.94353
0.939179
0.913511
0.859456
0.778772
0.691556
0.62249
0.572316
0.540478
0.52049
0.507698
0.498811
0.491881
0.486143
0.979814
0.981218
0.978438
0.97619
0.96586
0.959004
0.951271
0.943371
0.933669
0.922929
0.911771
0.901114
0.892065
0.886423
0.884122
0.884665
0.889842
0.896993
0.90396
0.907211
0.905633
0.889644
0.859053
0.809545
0.746633
0.676378
0.612833
0.564501
0.531407
0.509986
0.495864
0.486128
0.479269
0.956473
0.959348
0.959971
0.958701
0.952533
0.947212
0.940959
0.933235
0.924304
0.914012
0.903309
0.89284
0.883503
0.876279
0.871957
0.870186
0.871058
0.873232
0.874631
0.874392
0.871338
0.860452
0.84093
0.810217
0.76787
0.714741
0.654289
0.597187
0.551236
0.518217
0.496362
0.482192
0.473257
0.928773
0.935926
0.941148
0.94102
0.938445
0.934029
0.929064
0.92202
0.91406
0.904551
0.894511
0.884491
0.87528
0.86751
0.861451
0.857229
0.854786
0.853034
0.850785
0.847275
0.841601
0.832177
0.817354
0.796273
0.767744
0.730154
0.68358
0.629752
0.57741
0.53407
0.502498
0.481849
0.469545
0.898816
0.911892
0.918861
0.92214
0.923021
0.919125
0.915503
0.910623
0.902641
0.894084
0.884683
0.875031
0.865897
0.85772
0.850727
0.84486
0.840091
0.8357
0.830981
0.825195
0.817659
0.808011
0.794624
0.777412
0.755834
0.728685
0.693956
0.651701
0.602999
0.5553
0.515611
0.486908
0.4697
0.86896
0.885298
0.894882
0.902311
0.904689
0.902979
0.900976
0.896612
0.890501
0.8826
0.873671
0.864276
0.855118
0.846656
0.838975
0.832096
0.825814
0.819688
0.81323
0.805899
0.797195
0.786826
0.773585
0.757792
0.739278
0.717506
0.691596
0.659273
0.62012
0.576207
0.533692
0.498546
0.474653
0.83871
0.856307
0.869901
0.880029
0.883862
0.885507
0.883986
0.880945
0.876532
0.868828
0.861189
0.852258
0.84322
0.83436
0.826218
0.818359
0.810957
0.803574
0.795827
0.787408
0.777776
0.766438
0.753461
0.738492
0.72185
0.703317
0.682044
0.656933
0.626958
0.591215
0.551777
0.514675
0.4847
0.807525
0.827136
0.843543
0.854348
0.861695
0.865521
0.864498
0.863039
0.859606
0.854376
0.846733
0.838158
0.829301
0.820656
0.812077
0.803912
0.795692
0.787308
0.778497
0.769044
0.758669
0.746973
0.733921
0.719618
0.704458
0.688385
0.670859
0.650705
0.626772
0.598388
0.565968
0.530889
0.498512
0.777225
0.798794
0.815322
0.828177
0.836972
0.841548
0.843461
0.84271
0.840172
0.836185
0.830096
0.822243
0.813599
0.804831
0.796099
0.787501
0.778834
0.769903
0.760548
0.750522
0.739731
0.727968
0.715204
0.701696
0.687926
0.673919
0.659339
0.643342
0.624578
0.601541
0.574122
0.543944
0.513297
0.749679
0.770406
0.786926
0.800822
0.810238
0.816013
0.819794
0.81942
0.818203
0.815277
0.810926
0.804
0.796081
0.78748
0.778797
0.770031
0.761084
0.751825
0.742118
0.73191
0.721082
0.709684
0.697633
0.685248
0.672978
0.660967
0.648887
0.636003
0.621259
0.603267
0.580681
0.553848
0.525207
0.72512
0.7435
0.760093
0.772888
0.783182
0.788139
0.793093
0.794811
0.793743
0.791691
0.788569
0.78372
0.776667
0.768601
0.760319
0.751736
0.74282
0.733542
0.723826
0.714002
0.703559
0.692977
0.682118
0.671159
0.660418
0.650515
0.640514
0.630106
0.618513
0.604241
0.586021
0.563029
0.536428
0.704023
0.719532
0.734198
0.746204
0.756014
0.763009
0.766187
0.768338
0.767718
0.766289
0.763989
0.760662
0.755524
0.748295
0.740942
0.732971
0.724509
0.715712
0.706672
0.697434
0.688032
0.678653
0.669508
0.660106
0.651483
0.643139
0.63493
0.626595
0.617159
0.605663
0.591116
0.57127
0.547535
0.686171
0.69852
0.710618
0.72129
0.729567
0.735729
0.737587
0.740572
0.74177
0.740314
0.738211
0.735733
0.732317
0.726792
0.720851
0.713903
0.706405
0.698612
0.690695
0.682752
0.674886
0.667192
0.659688
0.652146
0.645623
0.638797
0.632043
0.625277
0.617337
0.608523
0.596069
0.579303
0.558192
0.671325
0.680485
0.689789
0.698285
0.705254
0.71063
0.713871
0.714106
0.714818
0.714938
0.71274
0.710452
0.707773
0.704373
0.70002
0.694588
0.688517
0.682191
0.675823
0.669551
0.663486
0.657622
0.651989
0.647292
0.64158
0.636461
0.631636
0.626852
0.620976
0.612118
0.601407
0.586942
0.568163
0.658804
0.665128
0.671674
0.677797
0.682905
0.686722
0.688892
0.688059
0.689502
0.689603
0.6883
0.686316
0.683902
0.681449
0.678374
0.674669
0.670382
0.665785
0.661094
0.656509
0.652022
0.647609
0.643485
0.639896
0.636665
0.633997
0.631724
0.629247
0.62581
0.620068
0.611157
0.597252
0.578307
0.648314
0.651966
0.655989
0.659779
0.662943
0.665195
0.666219
0.666281
0.665801
0.666052
0.665717
0.663808
0.661656
0.659564
0.657324
0.654759
0.65195
0.648925
0.645808
0.64272
0.639715
0.636975
0.634934
0.633364
0.632478
0.632235
0.632422
0.632343
0.631411
0.628369
0.621968
0.609896
0.593366
0.639494
0.640743
0.642393
0.644067
0.645415
0.646327
0.646719
0.646885
0.645669
0.644734
0.644175
0.643069
0.64124
0.639508
0.637764
0.636043
0.63426
0.632488
0.630743
0.629113
0.627847
0.627025
0.626986
0.627604
0.628681
0.630626
0.63269
0.635156
0.636635
0.636736
0.633424
0.623733
0.60892
0.63206
0.631167
0.630687
0.630476
0.630292
0.630014
0.629535
0.628994
0.6275
0.625681
0.624691
0.623888
0.622709
0.621427
0.620179
0.619146
0.618222
0.617476
0.616894
0.616584
0.616761
0.617764
0.619288
0.621524
0.624056
0.627453
0.632586
0.639045
0.644113
0.644791
0.644346
0.638452
0.62592
0.625842
0.623113
0.620836
0.618934
0.617299
0.615736
0.614227
0.612777
0.611132
0.609104
0.607519
0.606699
0.605899
0.60514
0.604528
0.604204
0.604125
0.604287
0.604676
0.605398
0.606659
0.608593
0.611414
0.613756
0.617784
0.624339
0.632382
0.642487
0.651624
0.656665
0.655653
0.651983
0.643315
0.620807
0.616445
0.612556
0.609059
0.60604
0.603278
0.600772
0.598598
0.5966
0.594585
0.592842
0.591677
0.591217
0.59097
0.590978
0.59132
0.592005
0.593007
0.594076
0.595414
0.59752
0.600548
0.602447
0.60571
0.612306
0.621524
0.63261
0.645987
0.65848
0.667075
0.669569
0.665693
0.659403
0.61683
0.610918
0.605489
0.60057
0.596292
0.592439
0.58912
0.586386
0.58402
0.582061
0.580433
0.579375
0.579014
0.579401
0.580135
0.58114
0.582671
0.584342
0.586235
0.588233
0.59032
0.592136
0.593908
0.598003
0.605884
0.617286
0.62973
0.647135
0.66249
0.674431
0.680972
0.681189
0.674959
0.613784
0.606416
0.599525
0.59328
0.58773
0.582975
0.57904
0.575876
0.573506
0.571741
0.570524
0.569876
0.570123
0.570993
0.572688
0.574735
0.577087
0.579435
0.581655
0.583732
0.585679
0.586603
0.587635
0.591517
0.597589
0.609372
0.621824
0.640837
0.658834
0.675073
0.686926
0.691615
0.690946
0.611627
0.6029
0.594519
0.586816
0.580253
0.574757
0.57036
0.567101
0.564948
0.563689
0.563292
0.563626
0.564747
0.566721
0.569551
0.572897
0.576218
0.579439
0.582081
0.584025
0.585297
0.585375
0.58515
0.587046
0.590579
0.599528
0.610369
0.626666
0.644867
0.664613
0.682736
0.695682
0.700986
0.610373
0.600166
0.590302
0.581332
0.57369
0.567553
0.562928
0.559878
0.558319
0.55801
0.55876
0.560571
0.563392
0.567094
0.570897
0.575049
0.579207
0.583113
0.586255
0.588239
0.588925
0.58762
0.586034
0.585331
0.58591
0.59053
0.597592
0.609215
0.624001
0.643374
0.666385
0.687794
0.701285
0.610014
0.59833
0.58682
0.576567
0.567932
0.561252
0.556639
0.554074
0.553484
0.554384
0.556794
0.560588
0.564981
0.570152
0.576092
0.581878
0.5876
0.592584
0.596255
0.59773
0.597143
0.594212
0.589541
0.585827
0.583602
0.584744
0.587547
0.594083
0.603173
0.617998
0.640855
0.667748
0.688233
0.610352
0.596909
0.583975
0.572434
0.56287
0.555831
0.551412
0.549595
0.550083
0.552495
0.556936
0.562558
0.56936
0.576937
0.585138
0.593274
0.600231
0.605445
0.608168
0.60807
0.6058
0.600841
0.593887
0.587869
0.583354
0.58149
0.580855
0.584421
0.588853
0.597178
0.614329
0.639858
0.665273
0.611312
0.59614
0.581654
0.568977
0.558803
0.551476
0.547288
0.546237
0.547735
0.551889
0.558193
0.565969
0.574734
0.584029
0.593368
0.601945
0.608986
0.613679
0.615425
0.614483
0.611156
0.605067
0.597686
0.590502
0.585129
0.581074
0.577271
0.579424
0.580116
0.584364
0.59514
0.61312
0.639062
0.612597
0.595743
0.580071
0.566234
0.555326
0.547877
0.544003
0.543645
0.54608
0.551657
0.559357
0.568284
0.577845
0.587511
0.596733
0.604764
0.611217
0.615377
0.61708
0.616334
0.613416
0.607909
0.601218
0.594504
0.588435
0.583814
0.579147
0.57748
0.576267
0.579228
0.585488
0.59487
0.616947
0.613856
0.595729
0.578635
0.564128
0.552979
0.545512
0.541789
0.541747
0.544785
0.551038
0.55919
0.568282
0.577669
0.586887
0.595466
0.60294
0.609003
0.613302
0.615545
0.615963
0.614604
0.611045
0.605837
0.599985
0.593836
0.587473
0.585899
0.580852
0.578256
0.579121
0.580981
0.588488
0.601923
0.614916
0.595449
0.577768
0.563062
0.551944
0.544524
0.540815
0.540678
0.543704
0.549865
0.557877
0.566702
0.575669
0.584407
0.592571
0.599881
0.606008
0.610917
0.614486
0.616644
0.616958
0.615647
0.612423
0.607548
0.60204
0.59787
0.592926
0.588474
0.586029
0.582212
0.584017
0.587476
0.595074
0.615389
0.595233
0.577414
0.56281
0.551871
0.544517
0.540794
0.540304
0.543091
0.548818
0.556411
0.564805
0.573404
0.581944
0.590142
0.597794
0.604736
0.610868
0.616005
0.61996
0.62275
0.623408
0.622277
0.619276
0.615071
0.609907
0.605163
0.601221
0.594805
0.592608
0.590443
0.590763
0.593955
0.615592
0.595234
0.577593
0.563421
0.552853
0.545616
0.541905
0.541076
0.543325
0.548492
0.55572
0.564014
0.572859
0.581793
0.590554
0.599006
0.606884
0.614283
0.62144
0.628108
0.633421
0.635902
0.636134
0.63459
0.630807
0.626315
0.622068
0.613833
0.609169
0.603509
0.599374
0.59709
0.597811
0.615676
0.59553
0.578548
0.564949
0.554772
0.547933
0.544367
0.543314
0.544977
0.549697
0.556767
0.565354
0.574778
0.584538
0.594423
0.604385
0.613995
0.623337
0.632942
0.64223
0.649654
0.653394
0.655569
0.654444
0.651458
0.647195
0.638009
0.630959
0.623594
0.616497
0.61118
0.607794
0.606123
0.615821
0.596355
0.580084
0.567319
0.55754
0.550781
0.547572
0.546796
0.54865
0.553271
0.560456
0.569734
0.580319
0.591729
0.603723
0.615898
0.627884
0.639333
0.651124
0.662797
0.671636
0.678063
0.679991
0.679092
0.676331
0.666296
0.656604
0.64754
0.638222
0.630941
0.623911
0.619211
0.615964
0.616185
0.597691
0.581871
0.569781
0.560696
0.554873
0.552423
0.552111
0.554536
0.559784
0.567737
0.578154
0.590431
0.604018
0.618355
0.633084
0.647656
0.661429
0.674478
0.689952
0.700657
0.706445
0.708332
0.706344
0.698284
0.686389
0.674933
0.663738
0.654258
0.645385
0.637701
0.631748
0.626987
0.617195
0.598324
0.584276
0.573117
0.564757
0.560049
0.558385
0.55897
0.562352
0.568597
0.577652
0.589372
0.603267
0.618836
0.635543
0.653206
0.672008
0.690114
0.70619
0.719949
0.730865
0.736546
0.736745
0.729531
0.717583
0.704822
0.692108
0.68009
0.669427
0.659849
0.651859
0.644548
0.639109
0.617889
0.600027
0.587174
0.576666
0.569407
0.565811
0.564763
0.566459
0.570906
0.57849
0.588893
0.602077
0.617915
0.63642
0.656722
0.677941
0.699027
0.719279
0.736945
0.750898
0.760003
0.764103
0.75721
0.746584
0.73444
0.721493
0.707972
0.694861
0.683234
0.672876
0.66396
0.657699
0.649557
0.618027
0.602296
0.590378
0.580732
0.574626
0.571945
0.571464
0.574399
0.58063
0.589632
0.601814
0.617183
0.635306
0.655709
0.678429
0.702381
0.725534
0.745891
0.762681
0.774891
0.774783
0.775984
0.770782
0.76024
0.748597
0.735198
0.720826
0.706452
0.694167
0.683804
0.674043
0.66784
0.660312
0.618266
0.605107
0.593975
0.585629
0.58077
0.579002
0.579749
0.58409
0.591562
0.602169
0.615952
0.633317
0.653479
0.676111
0.700176
0.723639
0.744818
0.762111
0.774709
0.780413
0.782032
0.783347
0.77857
0.767601
0.753207
0.738298
0.724254
0.711223
0.699929
0.690609
0.681211
0.674552
0.667895
0.619085
0.608153
0.598183
0.591266
0.587632
0.586668
0.588527
0.593721
0.602266
0.614583
0.629956
0.648007
0.668636
0.690566
0.713048
0.735065
0.754538
0.769953
0.777979
0.782373
0.783048
0.779646
0.774135
0.766298
0.754861
0.740941
0.726341
0.71245
0.700811
0.691226
0.683145
0.678511
0.67303
0.62066
0.611725
0.603071
0.597517
0.59431
0.59504
0.597535
0.603256
0.612395
0.624469
0.639384
0.656872
0.676579
0.697303
0.718333
0.738309
0.755135
0.76831
0.774988
0.777424
0.778766
0.777303
0.772364
0.76376
0.752762
0.739615
0.725242
0.711802
0.69985
0.690376
0.68239
0.6753
0.674839
0.623139
0.615699
0.607977
0.603142
0.602682
0.602551
0.605584
0.611287
0.619912
0.63112
0.64461
0.660632
0.679054
0.698476
0.71817
0.736262
0.750969
0.761165
0.76961
0.773272
0.774275
0.772568
0.769436
0.762186
0.751809
0.73807
0.723231
0.71003
0.698521
0.689408
0.681635
0.674656
0.673876
0.626663
0.619748
0.613256
0.609657
0.609528
0.60954
0.612096
0.617449
0.624404
0.63427
0.646346
0.661008
0.678378
0.696281
0.714371
0.731088
0.745078
0.754753
0.762677
0.766602
0.767785
0.766661
0.762701
0.756376
0.747511
0.736452
0.722468
0.708605
0.697206
0.688098
0.680661
0.67263
0.671366
0.631163
0.623373
0.619028
0.616011
0.615972
0.615495
0.617662
0.621863
0.627081
0.63573
0.646151
0.660085
0.675323
0.691966
0.708776
0.724512
0.735567
0.746568
0.75457
0.758862
0.760626
0.7601
0.757601
0.752366
0.745037
0.735898
0.725294
0.714499
0.704208
0.694076
0.684218
0.675258
0.670694
0.635188
0.627694
0.625034
0.622184
0.62187
0.620949
0.622364
0.624613
0.629411
0.636042
0.645312
0.65729
0.670706
0.686108
0.701335
0.716335
0.73009
0.740742
0.747285
0.752189
0.75498
0.755898
0.754451
0.750289
0.744176
0.736592
0.727133
0.716871
0.706159
0.695582
0.685471
0.676126
0.667883
0.63937
0.63306
0.631055
0.628165
0.627202
0.626145
0.626423
0.627346
0.631016
0.636039
0.643791
0.654071
0.666622
0.680777
0.695673
0.709875
0.722852
0.734118
0.743166
0.750359
0.753876
0.754786
0.752907
0.74921
0.743671
0.73571
0.727247
0.718852
0.708972
0.697946
0.686032
0.672506
0.661017
0.643409
0.639905
0.636091
0.634318
0.632215
0.631185
0.630417
0.630393
0.632639
0.636272
0.642462
0.650988
0.663214
0.676132
0.690048
0.703867
0.716842
0.728406
0.738068
0.745621
0.75029
0.75192
0.751114
0.748217
0.742792
0.735417
0.726872
0.716257
0.703485
0.689979
0.676627
0.664349
0.651328
0.648236
0.645665
0.641142
0.640235
0.63776
0.636392
0.634565
0.63392
0.634736
0.63719
0.642027
0.649213
0.660576
0.672469
0.685964
0.699602
0.712727
0.724696
0.735016
0.743548
0.749234
0.750362
0.750131
0.746947
0.74087
0.73226
0.722051
0.710121
0.696514
0.681955
0.667142
0.651994
0.637979
0.653244
0.650331
0.648212
0.645542
0.643719
0.641288
0.639242
0.63781
0.637665
0.639084
0.642686
0.64877
0.658694
0.669698
0.682648
0.696061
0.709046
0.721304
0.73206
0.73977
0.744361
0.747654
0.74761
0.743645
0.736694
0.726735
0.714304
0.700303
0.684649
0.668046
0.650874
0.634677
0.620577
0.65892
0.655924
0.654345
0.650421
0.649323
0.646856
0.6444
0.642298
0.641534
0.642069
0.644557
0.649396
0.658072
0.668032
0.679823
0.692487
0.705301
0.71708
0.727572
0.735986
0.740864
0.74275
0.742267
0.736544
0.728806
0.717665
0.703374
0.686844
0.669333
0.651084
0.632204
0.612913
0.595286
0.664523
0.661326
0.659037
0.657158
0.654472
0.652519
0.649835
0.647809
0.646363
0.646266
0.647868
0.651592
0.65882
0.667445
0.677779
0.689094
0.701794
0.712824
0.723112
0.729525
0.734627
0.735593
0.734025
0.728761
0.719552
0.705821
0.689879
0.672081
0.652595
0.633928
0.616059
0.597625
0.573755
0.814657
0.807251
0.804073
0.798949
0.795551
0.791976
0.785828
0.775617
0.825919
0.818176
0.813626
0.808294
0.803573
0.798438
0.790375
0.777605
0.835921
0.826956
0.821446
0.814826
0.808148
0.800475
0.790646
0.776321
0.84429
0.833425
0.826896
0.817949
0.809045
0.798905
0.787177
0.770922
0.850157
0.838496
0.829683
0.81818
0.807146
0.794724
0.780564
0.763056
0.854026
0.842705
0.829396
0.816378
0.803296
0.788852
0.772556
0.754786
0.857528
0.842995
0.828269
0.813519
0.798442
0.78231
0.764852
0.746186
0.858121
0.842349
0.826338
0.809986
0.793267
0.775868
0.757734
0.738974
0.857821
0.841054
0.823721
0.806052
0.788012
0.769766
0.751366
0.732959
0.856691
0.838862
0.820393
0.801659
0.782745
0.764081
0.745719
0.727844
0.853585
0.83532
0.815927
0.796896
0.77758
0.758968
0.740699
0.723513
0.848548
0.830111
0.810281
0.792004
0.773025
0.754166
0.736202
0.719169
0.843072
0.825197
0.806283
0.787127
0.767943
0.74915
0.731195
0.714523
0.83787
0.81961
0.800577
0.781278
0.762155
0.743457
0.725901
0.709722
0.831003
0.812809
0.794141
0.775239
0.756281
0.737786
0.72044
0.704786
0.823846
0.806055
0.787571
0.768422
0.749365
0.731022
0.714112
0.699175
0.81618
0.798221
0.779316
0.759845
0.740721
0.722753
0.706676
0.69286
0.807197
0.788589
0.769009
0.749459
0.730793
0.713857
0.699208
0.686994
0.796649
0.777412
0.757651
0.738491
0.720981
0.70565
0.692741
0.682197
0.78473
0.765242
0.74594
0.728085
0.712189
0.698621
0.687441
0.678427
0.771812
0.752635
0.73446
0.718093
0.703967