/*--------------------------------*- C++ -*----------------------------------*\
  =========                 |
  \\      /  F ield         | OpenFOAM: The Open Source CFD Toolbox
   \\    /   O peration     | Website:  https://openfoam.org
    \\  /    A nd           | Version:  10
     \\/     M anipulation  |
\*---------------------------------------------------------------------------*/
FoamFile
{
    format      ascii;
    class       surfaceScalarField;
    location    "0.600752";
    object      phi;
}
// * * * * * * * * * * * * * * * * * * * * * * * * * * * * * * * * * * * * * //

dimensions      [1 0 -1 0 0 0 0];

internalField   nonuniform List<scalar> 
32368
(
0.000147834
-0.000215061
0.000151493
-0.000220488
0.000160071
-0.000228176
0.000172564
-0.000238244
0.000178657
-0.000231642
0.000177418
-0.000208718
0.000161368
-0.000174384
0.000152575
-0.000132901
0.000146545
-9.84364e-05
0.000139905
-6.28134e-05
0.00013099
-2.52628e-05
0.000121449
1.42547e-05
0.000112169
5.5384e-05
0.000104167
9.63038e-05
9.81627e-05
0.000135336
9.41305e-05
0.000171594
9.22986e-05
0.00020419
9.31714e-05
0.000233034
9.58471e-05
0.000258496
9.91381e-05
0.000278402
0.000102851
0.000293223
0.00010559
0.000300025
0.000104107
0.000289407
0.000105201
0.000267794
0.000111395
0.000248897
0.000121134
0.00023026
0.000134466
0.000207734
0.000154261
0.000185981
0.000177849
0.000162223
0.000200652
0.000135223
0.000212872
9.9186e-05
0.000217181
5.76098e-05
1.69258e-05
0.000211318
0.000145114
-0.00021194
0.000139056
-0.000210808
0.000139434
-0.000209948
0.000149801
-0.000210176
0.000155317
-0.000215035
0.000154314
-0.000201243
0.000139777
-0.000174274
0.000127492
-0.000133055
0.000120981
-9.48803e-05
0.000115802
-5.82429e-05
0.000109584
-2.05906e-05
0.000102444
1.82134e-05
9.42811e-05
5.94908e-05
8.67526e-05
9.97631e-05
8.12242e-05
0.000138023
7.80244e-05
0.00017392
7.63557e-05
0.000206501
7.61635e-05
0.000235361
7.72252e-05
0.000259716
7.95484e-05
0.000279393
8.24316e-05
0.00029294
8.50421e-05
0.000296549
8.59478e-05
0.00028155
9.03106e-05
0.000261235
9.94153e-05
0.000243425
0.000111985
0.000225487
0.00013056
0.000205383
0.000153574
0.000183788
0.000179573
0.000159924
0.000202845
0.000130948
0.000216014
9.34932e-05
0.000222694
5.27422e-05
1.23994e-05
0.000219052
0.000171537
-0.000215249
0.000161189
-0.000210093
0.000152143
-0.000204945
0.000145213
-0.000197908
0.000149668
-0.000189216
0.000148637
-0.00018554
0.000138386
-0.000166052
0.0001215
-0.000133659
0.000110866
-9.15018e-05
0.00010316
-5.33071e-05
9.80633e-05
-1.49986e-05
9.16859e-05
2.31077e-05
8.41426e-05
6.55206e-05
7.69388e-05
0.000105931
7.10712e-05
0.000142361
6.64753e-05
0.000175135
6.3239e-05
0.000205792
6.11179e-05
0.000234051
6.04642e-05
0.000258184
6.13601e-05
0.000277681
6.34583e-05
0.000289994
6.6049e-05
0.000289728
6.97297e-05
0.000273406
7.72888e-05
0.000255321
9.05684e-05
0.000241281
0.000107781
0.000222956
0.000129526
0.000202843
0.000154608
0.000180604
0.000182484
0.000155543
0.000205541
0.000123855
0.000220311
8.48277e-05
0.000227864
4.52129e-05
5.63717e-06
0.000226863
0.000211025
-0.000221996
0.000199233
-0.000211905
0.000187134
-0.000201688
0.000174043
-0.00019064
0.000161179
-0.000177217
0.000158289
-0.000160972
0.000149435
-0.000149795
0.000132759
-0.00012395
0.000115177
-8.73119e-05
0.00010299
-4.626e-05
9.45781e-05
-7.96207e-06
8.89529e-05
2.96167e-05
8.18686e-05
7.13555e-05
7.35673e-05
0.000111125
6.5349e-05
0.000145977
5.81183e-05
0.000176308
5.21808e-05
0.000204211
4.75955e-05
0.000230188
4.47453e-05
0.000253607
4.40696e-05
0.000272616
4.56554e-05
0.000283907
4.92776e-05
0.000281001
5.57296e-05
0.000265829
6.85223e-05
0.000252359
8.49401e-05
0.00023837
0.000104854
0.000219412
0.00012935
0.000199196
0.000157614
0.000176527
0.000186213
0.000148586
0.000208736
0.000113764
0.000225081
7.43688e-05
0.000231306
3.49945e-05
-1.83252e-06
0.000234551
0.000253849
-0.000229078
0.000243357
-0.000216065
0.000230116
-0.000200866
0.000215019
-0.00018393
0.000197701
-0.000165753
0.000179425
-0.000145984
0.000169156
-0.00012375
0.000153787
-0.000105917
0.000132791
-7.55314e-05
0.00011373
-3.70646e-05
0.000100028
5.12793e-07
9.25104e-05
3.86763e-05
8.47435e-05
7.75372e-05
7.47546e-05
0.000115725
6.37414e-05
0.000148665
5.31116e-05
0.000177289
4.3619e-05
0.000202852
3.57787e-05
0.000225993
3.04763e-05
0.000247314
2.83097e-05
0.000265156
2.97889e-05
0.000275083
3.48206e-05
0.000270833
4.54308e-05
0.000259644
6.08096e-05
0.000248787
8.04273e-05
0.000234227
0.000103866
0.000215751
0.000131921
0.000195323
0.000162068
0.000169894
0.000189692
0.000138453
0.000212063
0.000101619
0.000227837
6.32753e-05
0.000233628
2.34259e-05
-8.70168e-06
0.000241138
0.000289881
-0.000237491
0.00028447
-0.000222192
0.000274526
-0.000203398
0.000259723
-0.000181173
0.000240731
-0.000156385
0.000218826
-0.000130579
0.000196174
-0.000104833
0.000179938
-7.76671e-05
0.000159155
-5.455e-05
0.000134103
-2.28914e-05
0.000114211
1.28935e-05
0.00010094
4.75264e-05
9.24261e-05
8.51004e-05
7.99279e-05
0.000121038
6.5362e-05
0.000151815
5.0618e-05
0.000177774
3.71019e-05
0.000201173
2.61635e-05
0.000222833
1.83374e-05
0.000241796
1.47082e-05
0.000256843
1.65521e-05
0.000264619
2.37358e-05
0.000261558
3.74649e-05
0.000255562
5.5864e-05
0.0002457
7.89492e-05
0.000230538
0.000105989
0.000211491
0.000136004
0.000188304
0.000165916
0.000159219
0.000192561
0.000125232
0.000214798
8.85775e-05
0.000226102
4.87907e-05
0.000236349
1.41749e-05
-1.43319e-05
0.000246346
0.000317305
-0.000250294
0.000318314
-0.000233492
0.000314283
-0.000211427
0.000304086
-0.000184422
0.000286644
-0.00015287
0.000262571
-0.000119292
0.00023556
-8.57564e-05
0.00020818
-5.4822e-05
0.000186256
-2.51889e-05
0.000160941
2.9819e-07
0.000134982
2.89656e-05
0.000114372
5.99364e-05
0.000101802
9.21701e-05
8.84443e-05
0.000126074
6.97929e-05
0.000156055
5.04591e-05
0.000179296
3.28879e-05
0.000199374
1.82883e-05
0.00021867
8.34288e-06
0.000236925
4.49038e-06
0.000251059
7.0594e-06
0.000258534
1.72973e-05
0.000257435
3.29197e-05
0.000251637
5.43046e-05
0.000240799
8.01206e-05
0.000224183
0.000109138
0.000202764
0.000139368
0.000176233
0.000168632
0.000144725
0.000195124
0.0001105
0.000211702
7.19221e-05
0.000225378
3.70254e-05
0.000239223
6.8733e-06
-1.81681e-05
0.000253047
0.000341209
-0.000272157
0.000348912
-0.000254072
0.00035023
-0.000228284
0.000345226
-0.000195546
0.000332576
-0.000156915
0.000310856
-0.000114778
0.000280581
-7.29823e-05
0.000248907
-3.37528e-05
0.00021896
-1.08141e-06
0.000192933
2.90712e-05
0.000163717
5.34556e-05
0.000135374
7.83394e-05
0.00011277
0.000103664
9.69545e-05
0.000130793
7.62537e-05
0.000158674
5.2619e-05
0.000181521
3.09293e-05
0.000198925
1.35878e-05
0.000215042
1.88796e-06
0.000230717
-2.39028e-06
0.000243208
1.7372e-06
0.000249878
1.32172e-05
0.000249754
3.12222e-05
0.000243189
5.48184e-05
0.000230694
8.23076e-05
0.000212179
0.000111908
0.000188492
0.000142214
0.000160264
0.000171273
0.00012803
0.000190946
9.16374e-05
0.000209179
5.82795e-05
0.000226784
2.82999e-05
0.000242663
2.58168e-06
-1.63279e-05
0.000262015
0.000362507
-0.000297854
0.000374097
-0.000274812
0.000381036
-0.000245003
0.00038167
-0.000209122
0.000373265
-0.000165574
0.000357047
-0.000117211
0.000330654
-6.6628e-05
0.000294013
-1.98128e-05
0.000257845
2.11194e-05
0.000225615
5.31597e-05
0.000194312
8.16538e-05
0.000160827
0.000103506
0.000129163
0.000122712
0.000104043
0.000140823
8.18562e-05
0.00016055
5.62601e-05
0.000181591
3.16025e-05
0.000198709
1.19845e-05
0.000212542
-2.60324e-07
0.000225792
-4.33499e-06
0.000235413
9.80394e-08
0.000239702
1.27666e-05
0.000237987
3.22767e-05
0.000229894
5.70259e-05
0.000215843
8.52173e-05
0.000196143
0.000115664
0.000171293
0.000144257
0.000140859
0.000166846
0.00010768
0.000189031
7.69272e-05
0.000209818
4.84575e-05
0.00022859
2.38717e-05
0.000245677
4.03266e-06
-1.15334e-05
0.000258668
0.000358376
-0.000308424
0.000370777
-0.000284364
0.000382
-0.000253296
0.000390017
-0.000215448
0.000393712
-0.000172088
0.000388637
-0.00012061
0.000371438
-6.45816e-05
0.000339298
-8.53619e-06
0.000294036
3.9251e-05
0.000253954
7.79839e-05
0.000219175
0.000105733
0.000183791
0.000129492
0.000147413
0.000146203
0.000113566
0.000158696
8.54667e-05
0.000169579
5.95018e-05
0.000182267
3.39753e-05
0.000196214
1.39042e-05
0.000209035
1.46674e-06
0.000220237
-2.38951e-06
0.000227552
2.78674e-06
0.000229449
1.60617e-05
0.000225404
3.63404e-05
0.000215109
6.18659e-05
0.000198406
8.98865e-05
0.000175778
0.000115855
0.0001485
0.000140988
0.000120264
0.000165406
9.28547e-05
0.000187414
6.69389e-05
0.000207265
4.39476e-05
0.000222602
2.47682e-05
0.000231361
8.87509e-06
-3.93577e-06
0.000239032
0.000333662
-0.000316898
0.000347127
-0.00029318
0.000360341
-0.000262344
0.000374748
-0.000225126
0.000385113
-0.000179622
0.000388545
-0.000126353
0.000383382
-6.62676e-05
0.000365801
-3.91624e-06
0.000328354
5.55975e-05
0.000276981
9.94236e-05
0.000236089
0.00012919
0.000199203
0.000152255
0.000161602
0.00016976
0.000124106
0.000179905
9.03467e-05
0.000185635
6.20901e-05
0.000190821
3.80152e-05
0.00019723
1.88473e-05
0.000203821
6.82479e-06
0.000209806
3.59079e-06
0.000213312
9.19594e-06
0.000212403
2.27753e-05
0.00020514
4.20043e-05
0.000192059
6.49299e-05
0.000174551
8.96706e-05
0.000153267
0.000115093
0.000130093
0.000139351
0.000106202
0.000160762
8.31049e-05
0.000178158
6.21848e-05
0.000190368
4.36358e-05
0.000196512
2.84064e-05
0.000201171
1.60865e-05
1.10815e-05
0.000213433
0.000298903
-0.000324981
0.00031382
-0.000304632
0.00032904
-0.000274048
0.000343714
-0.000235121
0.000358684
-0.000189385
0.000368494
-0.00013565
0.000370341
-7.2595e-05
0.000363433
-5.42889e-06
0.000341533
6.07005e-05
0.00029608
0.000117255
0.000244878
0.00015251
0.00020532
0.000172537
0.000167909
0.000190113
0.000130992
0.000201633
9.58981e-05
0.000205609
6.61614e-05
0.000205404
4.23179e-05
0.000204704
2.48564e-05
0.000204498
1.48261e-05
0.000204024
1.23984e-05
0.000201974
1.74814e-05
0.000196785
2.94419e-05
0.000187337
4.71612e-05
0.000173787
6.8194e-05
0.000156965
9.03712e-05
0.000137584
0.000111859
0.00011688
0.00013054
9.6693e-05
0.000143968
7.76182e-05
0.000151213
6.06975e-05
0.000157112
4.64116e-05
0.000164527
3.79057e-05
0.000176914
3.65774e-05
3.06583e-05
0.000177096
0.000260086
-0.00033941
0.000274879
-0.000318766
0.000289114
-0.000286091
0.000303738
-0.000246401
0.000319563
-0.000200655
0.000333969
-0.0001478
0.000342215
-8.45448e-05
0.000341185
-1.29837e-05
0.00032895
5.97137e-05
0.000298237
0.000124778
0.000246881
0.000171087
0.00020217
0.00019398
0.000165424
0.000209128
0.000131216
0.000221228
9.86894e-05
0.000225946
6.9922e-05
0.000223204
4.71851e-05
0.000216994
3.12681e-05
0.000210514
2.24015e-05
0.000203957
2.06434e-05
0.000196782
2.55049e-05
0.000187593
3.6087e-05
0.00017514
5.08246e-05
0.000160235
6.74339e-05
0.000143626
8.43329e-05
0.000125157
9.84282e-05
0.000107007
0.000106515
9.04844e-05
0.000112933
7.68659e-05
0.000118553
6.53913e-05
0.00012888
6.25625e-05
0.000134907
6.1891e-05
0.000131247
5.52538e-05
4.03105e-05
0.000124285
0.00021854
-0.000354947
0.000230355
-0.000331353
0.00024188
-0.000295133
0.000255221
-0.00025493
0.000271214
-0.0002101
0.000288246
-0.00016008
0.000300907
-9.94553e-05
0.000305447
-2.57947e-05
0.000299415
5.1547e-05
0.000278629
0.000125098
0.000237592
0.000184591
0.000189755
0.000213231
0.000153781
0.00022605
0.000122904
0.000238603
9.53385e-05
0.000243565
7.03752e-05
0.000240601
5.00518e-05
0.000230359
3.58525e-05
0.000218436
2.79426e-05
0.000205957
2.60271e-05
0.000193069
2.94643e-05
0.000179527
3.69066e-05
0.000164627
4.70381e-05
0.000148626
5.75208e-05
0.000132458
6.508e-05
0.000116676
7.09597e-05
0.000103682
7.64099e-05
9.28387e-05
7.91611e-05
8.70933e-05
8.6789e-05
8.93613e-05
8.81833e-05
8.64192e-05
8.82274e-05
7.36309e-05
8.41922e-05
5.54223e-05
3.90944e-05
8.34743e-05
0.000171509
-0.000365565
0.000178727
-0.000338185
0.000185785
-0.000295341
0.000196361
-0.000256193
0.00021107
-0.0002148
0.000231184
-0.0001693
0.000248185
-0.000113916
0.00025651
-4.1832e-05
0.000254915
4.02583e-05
0.000240664
0.000120344
0.000210642
0.000191221
0.000166428
0.000231438
0.000132936
0.000244099
0.00010638
0.000254264
8.38954e-05
0.00025829
6.40312e-05
0.000253284
4.73436e-05
0.000240209
3.52948e-05
0.000223548
2.82301e-05
0.000205595
2.524e-05
0.000188437
2.605e-05
0.000172505
2.91979e-05
0.00015668
3.27678e-05
0.000141747
3.58113e-05
0.000129211
3.81563e-05
0.000118736
3.96385e-05
0.000110918
4.06253e-05
0.000110961
4.52069e-05
0.000111399
4.69113e-05
0.000104495
5.02576e-05
8.76572e-05
5.16916e-05
6.91627e-05
5.61948e-05
5.1845e-05
3.55609e-05
6.00594e-05
0.000118198
-0.000370104
0.000120278
-0.000337488
0.000122868
-0.0002888
0.000131506
-0.000251856
0.000144647
-0.000215185
0.000164375
-0.000175626
0.000183813
-0.000125704
0.000195311
-5.71689e-05
0.000196114
2.76386e-05
0.000187279
0.000113934
0.000166686
0.000192977
0.000132131
0.000246233
0.000103138
0.000261095
8.20499e-05
0.000267825
6.46355e-05
0.000269531
5.03081e-05
0.000261519
3.7679e-05
0.000245418
2.80894e-05
0.000224681
2.11471e-05
0.000204393
1.65423e-05
0.00018641
1.33767e-05
0.000169592
1.10812e-05
0.000155051
9.3679e-06
0.000143897
7.63867e-06
0.000135324
4.49907e-06
0.000130294
4.8552e-06
0.000133654
6.87994e-06
0.000130892
1.14304e-05
0.000120085
1.6798e-05
0.000100636
2.30208e-05
8.10494e-05
2.97387e-05
6.26487e-05
3.47057e-05
4.59028e-05
3.17389e-05
3.63525e-05
6.31993e-05
-0.000372146
6.08992e-05
-0.00033724
6.37449e-05
-0.000291352
7.0091e-05
-0.000250965
8.03391e-05
-0.000216718
9.55633e-05
-0.000179548
0.000111929
-0.000133502
0.000123792
-6.89862e-05
0.000125843
1.6543e-05
0.000120088
0.000107886
0.000106728
0.000192716
8.50677e-05
0.000254916
6.50388e-05
0.000274606
5.08432e-05
0.000279079
3.94373e-05
0.000277563
2.97379e-05
0.000266843
2.12417e-05
0.000248087
1.33519e-05
0.000226599
5.33692e-06
0.000206141
-2.21865e-06
0.000187405
-9.22742e-06
0.000172728
-1.57766e-05
0.000161566
-2.15033e-05
0.000152986
-2.78594e-05
0.000150736
-2.90882e-05
0.000152776
-2.77297e-05
0.000146661
-1.99646e-05
0.000133481
-1.26465e-05
0.000112592
-4.0806e-06
9.15309e-05
4.01069e-06
7.22872e-05
1.00241e-05
5.54419e-05
1.15661e-05
4.28477e-05
3.24936e-05
1.05675e-05
8.14751e-06
-0.000373937
8.19365e-06
-0.00033998
1.03944e-05
-0.000295816
1.43519e-05
-0.000253804
2.07571e-05
-0.000219052
2.95834e-05
-0.000182048
3.86057e-05
-0.000136494
4.55454e-05
-7.46079e-05
4.59359e-05
8.88988e-06
4.28282e-05
0.000100754
3.62478e-05
0.000190013
2.73273e-05
0.000257247
1.99258e-05
0.000280764
1.42663e-05
0.000285235
9.20364e-06
0.000282255
4.1861e-06
0.00026964
-1.5766e-06
0.000250834
-1.01183e-05
0.000229959
-1.97524e-05
0.000209462
-2.99817e-05
0.00019379
-4.02101e-05
0.000181932
-5.04089e-05
0.000173911
-5.88424e-05
0.000172841
-6.21523e-05
0.000171007
-5.94644e-05
0.000161152
-4.99164e-05
0.000144736
-4.07358e-05
0.000121878
-2.88647e-05
9.82268e-05
-1.90844e-05
7.86997e-05
-1.3615e-05
6.37663e-05
-1.18092e-05
5.25208e-05
-1.23919e-05
4.29738e-05
3.42434e-05
-1.4662e-05
-4.27638e-05
-0.000375432
-4.33217e-05
-0.000345108
-4.05517e-05
-0.000300667
-3.785e-05
-0.000258478
-3.60482e-05
-0.000223776
-3.45584e-05
-0.000187085
-3.4488e-05
-0.000142915
-3.67537e-05
-8.29387e-05
-3.82524e-05
-2.77022e-08
-3.92813e-05
9.26257e-05
-3.8274e-05
0.000181699
-3.4212e-05
0.000250658
-2.8905e-05
0.000278579
-2.54267e-05
0.000284355
-2.38457e-05
0.000281816
-2.59096e-05
0.000270417
-3.20521e-05
0.000253048
-4.13853e-05
0.000233611
-5.2946e-05
0.000217162
-6.56513e-05
0.00020444
-7.99105e-05
0.000197615
-9.00467e-05
0.000196672
-9.43426e-05
0.000189006
-8.98135e-05
0.000174772
-7.85891e-05
0.000154566
-6.6454e-05
0.000127916
-5.14766e-05
0.000102606
-4.01144e-05
8.32548e-05
-3.40516e-05
7.02339e-05
-3.16407e-05
6.03304e-05
-3.16482e-05
5.17551e-05
-3.34475e-05
4.36921e-05
3.54793e-05
-3.67647e-05
-9.2319e-05
-0.000375847
-9.34133e-05
-0.000350397
-9.0353e-05
-0.000306381
-9.02391e-05
-0.000263178
-9.34669e-05
-0.000228906
-9.94987e-05
-0.000191602
-0.000110213
-0.000148518
-0.000122928
-8.97323e-05
-0.000127577
-8.86814e-06
-0.000123849
8.11663e-05
-0.000114118
0.000167185
-9.68371e-05
0.000233966
-7.89306e-05
0.000266178
-6.73138e-05
0.00027618
-6.02668e-05
0.000275301
-6.10441e-05
0.000267388
-6.78152e-05
0.000254234
-7.89541e-05
0.000240381
-9.26577e-05
0.000227605
-0.000109126
0.000222229
-0.000121275
0.000219165
-0.000125557
0.000206594
-0.000119545
0.000188228
-0.00010576
0.000162858
-9.05397e-05
0.000131961
-7.30228e-05
0.000107032
-6.08362e-05
8.92068e-05
-5.47839e-05
7.74281e-05
-5.20517e-05
6.8176e-05
-5.14641e-05
5.99582e-05
-5.26734e-05
5.21468e-05
-5.53139e-05
4.42191e-05
3.58305e-05
-5.88065e-05
-0.000140621
-0.000372809
-0.000143702
-0.000354551
-0.000139737
-0.00031389
-0.000143107
-0.000266434
-0.000152226
-0.000230651
-0.000165614
-0.000192267
-0.000186461
-0.000149582
-0.000205696
-9.38711e-05
-0.000210024
-1.70619e-05
-0.00020103
6.79698e-05
-0.000181828
0.000149463
-0.000153116
0.000211515
-0.000125708
0.00024617
-0.000107261
0.000260438
-9.83638e-05
0.000264611
-9.87092e-05
0.000262563
-0.000107291
0.000257546
-0.000121866
0.000250174
-0.000138999
0.000247387
-0.0001523
0.000241502
-0.000155654
0.000224791
-0.000148489
0.000202378
-0.000131909
0.000170983
-0.000113632
0.000138461
-9.48275e-05
0.000114447
-8.31578e-05
9.75076e-05
-7.68659e-05
8.57353e-05
-7.32995e-05
7.6378e-05
-7.17626e-05
6.80538e-05
-7.21919e-05
6.12637e-05
-7.44504e-05
5.44534e-05
-7.78851e-05
4.66629e-05
3.74924e-05
-8.1905e-05
-0.000185264
-0.000363676
-0.000194795
-0.000352764
-0.000192552
-0.000321032
-0.000194703
-0.000272199
-0.000208602
-0.000228743
-0.000226791
-0.000188042
-0.000252515
-0.000143934
-0.000275393
-9.20078e-05
-0.000279627
-2.44343e-05
-0.000266688
5.19137e-05
-0.000239105
0.000126016
-0.00020006
0.000180728
-0.00016582
0.000216928
-0.000143297
0.000238918
-0.000135139
0.000252636
-0.000138343
0.000260639
-0.000152726
0.00026547
-0.000169954
0.000270126
-0.000182646
0.000261814
-0.000184629
0.000241867
-0.000175752
0.000215248
-0.000156903
0.000180089
-0.000137134
0.000147337
-0.000120105
0.00012476
-0.000108976
0.000108076
-0.000101217
9.52671e-05
-9.76748e-05
8.72789e-05
-9.73462e-05
8.19043e-05
-9.97497e-05
7.73775e-05
-0.000104088
7.09458e-05
-0.000108521
6.20374e-05
-0.000112723
5.14248e-05
4.01085e-05
-0.000116871
-0.000223376
-0.000347808
-0.000240908
-0.000343912
-0.000248131
-0.000321003
-0.000246504
-0.00027834
-0.000258331
-0.000227751
-0.000276702
-0.000182467
-0.000296982
-0.000136776
-0.000316945
-8.61644e-05
-0.000322516
-2.78521e-05
-0.000308905
3.64194e-05
-0.000276122
9.88605e-05
-0.000234342
0.000149274
-0.000200667
0.000189843
-0.000179873
0.00021908
-0.000172335
0.000242172
-0.000183044
0.000263391
-0.000198823
0.000278041
-0.000209909
0.000273572
-0.000210065
0.00025497
-0.000199177
0.000224598
-0.00018156
0.00018871
-0.000162492
0.00015874
-0.000148424
0.000137318
-0.000137013
0.000120202
-0.000131515
0.00011032
-0.0001298
0.000105195
-0.000131679
0.000100687
-0.000134703
9.45061e-05
-0.000137749
8.62723e-05
-0.000140462
7.58162e-05
-0.000143612
6.45202e-05
-0.000147207
5.27002e-05
4.09874e-05
-0.000151111
-0.000253335
-0.000325587
-0.000278415
-0.000327102
-0.000296805
-0.000311938
-0.000302897
-0.000279165
-0.000303906
-0.000230546
-0.000319363
-0.000179458
-0.000335834
-0.000130769
-0.00034754
-8.1865e-05
-0.000348603
-2.9339e-05
-0.000334595
2.63833e-05
-0.000307339
8.04642e-05
-0.000272872
0.00012898
-0.00024282
0.000168782
-0.000222013
0.000203996
-0.000215862
0.00023689
-0.000222411
0.00026308
-0.000229382
0.000268566
-0.000229147
0.000255762
-0.000218476
0.000228845
-0.000203059
0.000196876
-0.000187796
0.000170843
-0.000175687
0.000149483
-0.000167459
0.000134834
-0.000164847
0.000126822
-0.000165637
0.000121765
-0.000166589
0.000115169
-0.00016709
0.000107319
-0.000168531
9.84102e-05
-0.000170984
8.831e-05
-0.000174382
7.70441e-05
-0.000178651
6.53981e-05
-0.00018324
5.36216e-05
4.21327e-05
-0.000187564
-0.000270476
-0.000302229
-0.000303634
-0.000302546
-0.000331665
-0.000294399
-0.000351415
-0.000269254
-0.000358353
-0.000229971
-0.000359941
-0.000180464
-0.000370624
-0.000128491
-0.000380776
-7.72057e-05
-0.000381748
-2.74212e-05
-0.000371765
2.37487e-05
-0.000349854
7.29269e-05
-0.000320632
0.000118815
-0.000293768
0.000160828
-0.000270796
0.000197502
-0.000250529
0.000224601
-0.000241257
0.000238196
-0.000236508
0.000234457
-0.000229633
0.00021896
-0.000218631
0.000196681
-0.000210274
0.000177972
-0.000201873
0.000160359
-0.000197586
0.000148399
-0.000197748
0.000141201
-0.000198904
0.00013401
-0.00019845
0.000126165
-0.000198664
0.000118155
-0.000200097
0.00010953
-0.000203005
9.98023e-05
-0.000207112
8.91668e-05
-0.000211887
7.77976e-05
-0.000216677
6.61149e-05
-0.000220953
5.42389e-05
4.25247e-05
-0.000224185
-0.000278597
-0.000283214
-0.000313199
-0.000278878
-0.000350212
-0.000268626
-0.000380019
-0.000250615
-0.000402183
-0.000216916
-0.000414049
-0.00017423
-0.000417878
-0.000124383
-0.000423341
-7.40434e-05
-0.000422975
-2.19755e-05
-0.000415652
2.74479e-05
-0.000397811
7.56518e-05
-0.000371611
0.000119668
-0.00033758
0.000156541
-0.000301542
0.000183379
-0.000260069
0.000197842
-0.000234119
0.000196291
-0.000221593
0.000188741
-0.00022037
0.000181502
-0.000220449
0.000174114
-0.000221004
0.000164753
-0.000222874
0.000158077
-0.000226907
0.000151499
-0.000228376
0.000144035
-0.000228571
0.000135988
-0.000229378
0.000128394
-0.000231957
0.000120114
-0.000235748
0.000110851
-0.000240426
0.0001005
-0.000245484
8.94214e-05
-0.000250226
7.78117e-05
-0.000253817
6.55625e-05
-0.0002551
5.32366e-05
4.10398e-05
-0.000253659
-0.000280886
-0.000265172
-0.000311716
-0.000259506
-0.000348307
-0.00024502
-0.000386766
-0.000224761
-0.000418091
-0.000196076
-0.000439286
-0.000159137
-0.000452325
-0.000112043
-0.000459524
-6.1931e-05
-0.000458446
-1.12218e-05
-0.000448763
3.5777e-05
-0.000427022
8.00918e-05
-0.000392612
0.000118608
-0.000347159
0.00014726
-0.00029725
0.00016179
-0.000245797
0.00016315
-0.000210898
0.000158085
-0.00020148
0.000152949
-0.000209615
0.000154489
-0.00022425
0.000157767
-0.000237759
0.000159874
-0.000249163
0.000158168
-0.000254523
0.000152295
-0.000257187
0.000145319
-0.000259902
0.000138343
-0.000263633
0.000130471
-0.000268023
0.000121498
-0.000272794
0.000111518
-0.000277299
0.000100487
-0.000280651
8.83964e-05
-0.000281807
7.57901e-05
-0.000280181
6.27589e-05
-0.000275833
5.00285e-05
3.73758e-05
-0.000268912
-0.000276377
-0.000250338
-0.000303472
-0.000243573
-0.000332999
-0.000226743
-0.0003667
-0.000203048
-0.000403105
-0.000172288
-0.000434119
-0.000136348
-0.000452875
-9.44105e-05
-0.000458774
-4.83844e-05
-0.000454499
-1.15865e-06
-0.00044103
4.28107e-05
-0.000415182
8.13761e-05
-0.000375355
0.000111349
-0.000324767
0.000130175
-0.000273892
0.000137245
-0.000222232
0.000135967
-0.000190536
0.00013059
-0.000183433
0.00012958
-0.000200943
0.000137611
-0.000229866
0.000150494
-0.000257297
0.000159177
-0.000273907
0.000158995
-0.000282615
0.000154198
-0.000288371
0.000148039
-0.000293345
0.000140401
-0.000298008
0.000131699
-0.000302361
0.000121727
-0.000305721
0.00011065
-0.00030678
9.8344e-05
-0.000304903
8.51781e-05
-0.000299682
7.12123e-05
-0.000291194
5.7895e-05
-0.000283413
4.48638e-05
3.31632e-05
-0.000277235
-0.000266621
-0.000236928
-0.000291309
-0.00023433
-0.000312805
-0.000216728
-0.000337657
-0.000187503
-0.000365771
-0.000154454
-0.000391415
-0.000117286
-0.000412853
-7.66994e-05
-0.000423348
-3.41083e-05
-0.000421176
7.67047e-06
-0.000405704
4.6068e-05
-0.000377968
7.81728e-05
-0.000339624
0.000101508
-0.000292976
0.000114345
-0.000245962
0.000117189
-0.000200111
0.000114235
-0.000172369
0.000111741
-0.000169722
0.000117033
-0.000196127
0.000132432
-0.00023921
0.000151829
-0.000277628
0.000163854
-0.000300268
0.00016288
-0.000312399
0.000157925
-0.000319776
0.000150353
-0.000324848
0.000141756
-0.000328175
0.000131379
-0.000329432
0.000119971
-0.000327826
0.000107402
-0.000322764
9.3275e-05
-0.000313854
7.92273e-05
-0.000303737
6.57639e-05
-0.000296856
5.29713e-05
-0.000291132
4.11171e-05
2.98903e-05
-0.000287775
-0.000249945
-0.00022184
-0.000274349
-0.000223742
-0.00029248
-0.000211732
-0.000305628
-0.000183668
-0.000322777
-0.000145048
-0.000342123
-0.000102643
-0.000359002
-6.1701e-05
-0.000368487
-2.15171e-05
-0.000368007
1.59604e-05
-0.000355998
4.90765e-05
-0.000332301
7.52446e-05
-0.000297598
9.20465e-05
-0.000255231
9.94355e-05
-0.000212896
9.94808e-05
-0.000175383
9.83784e-05
-0.000156956
0.000102282
-0.000163625
0.000115291
-0.000199875
0.000138267
-0.000254393
0.000161893
-0.000301101
0.000171678
-0.000328528
0.000167744
-0.000341752
0.000160138
-0.00034778
0.000150652
-0.00034881
0.000139994
-0.000347196
0.00012787
-0.000343427
0.000115237
-0.000334736
0.000100902
-0.000323152
8.7438e-05
-0.000314819
7.44384e-05
-0.000308785
6.19141e-05
-0.000303088
4.9781e-05
-0.000299062
3.81561e-05
2.69613e-05
-0.000297229
-0.000228049
-0.000206147
-0.0002497
-0.000213893
-0.000266568
-0.000205812
-0.000277117
-0.000182019
-0.000282425
-0.000144584
-0.000287035
-9.77081e-05
-0.000296156
-5.17012e-05
-0.000303431
-1.04496e-05
-0.000303246
2.42977e-05
-0.000293763
5.29024e-05
-0.00027368
7.29807e-05
-0.000244255
8.40939e-05
-0.00020875
8.76957e-05
-0.000176345
8.76503e-05
-0.000152399
9.15462e-05
-0.000147556
0.000102652
-0.000166714
0.000124009
-0.000212749
0.000152248
-0.00027332
0.000174762
-0.000323769
0.000177539
-0.000351763
0.000169201
-0.000362078
0.000157581
-0.000363353
0.000146969
-0.000359618
0.000134311
-0.000353043
0.000121997
-0.000342747
0.000108773
-0.000332764
9.6503e-05
-0.000325979
8.41393e-05
-0.000321158
7.17812e-05
-0.000315721
5.97995e-05
-0.000310482
4.7654e-05
-0.000306678
3.59011e-05
2.43993e-05
-0.000303693
-0.000201982
-0.000191341
-0.000223934
-0.000203568
-0.000236491
-0.000202758
-0.000243036
-0.000183522
-0.000244497
-0.000147981
-0.000241756
-0.000101072
-0.000236497
-4.98265e-05
-0.00023497
-4.86157e-06
-0.000232682
3.10097e-05
-0.000225553
5.76577e-05
-0.000211135
7.37717e-05
-0.000189768
8.09818e-05
-0.000166258
8.30696e-05
-0.000147983
8.54095e-05
-0.000140644
9.4599e-05
-0.000149906
0.00011122
-0.000178979
0.000137641
-0.000229196
0.000167248
-0.000289698
0.000182211
-0.000339511
0.000179468
-0.000363683
0.000164798
-0.000369805
0.000152527
-0.000366746
0.000140152
-0.000359257
0.000128462
-0.000350018
0.000116541
-0.000342398
0.000106117
-0.000336103
9.48675e-05
-0.000332205
8.3733e-05
-0.00032835
7.23862e-05
-0.00032589
6.0491e-05
-0.000324597
4.86598e-05
-0.000322647
3.6716e-05
2.36547e-05
-0.000317928
-0.000176413
-0.000180114
-0.000197736
-0.000193877
-0.00020834
-0.000199682
-0.000212495
-0.000186058
-0.000211515
-0.000154637
-0.000206293
-0.000109448
-0.000196829
-5.80303e-05
-0.000183778
-7.781e-06
-0.000172456
3.31863e-05
-0.000164485
6.17e-05
-0.000155432
7.73644e-05
-0.000144408
8.33576e-05
-0.000134646
8.57827e-05
-0.000130967
9.10755e-05
-0.000138038
0.000103586
-0.000158098
0.000123535
-0.000193971
0.000150823
-0.000242809
0.000175909
-0.000299362
0.000183235
-0.000345643
0.000174504
-0.000365622
0.000158211
-0.000367421
0.000146007
-0.000361702
0.000134019
-0.000354115
0.000124222
-0.000348833
0.00011577
-0.000344314
0.000106285
-0.000341311
9.71202e-05
-0.000341843
8.77558e-05
-0.000346099
7.84267e-05
-0.000354582
6.86005e-05
-0.00036373
5.66722e-05
-0.000364934
4.08079e-05
2.56794e-05
-0.000360178
-0.000155201
-0.000173645
-0.000173528
-0.000187304
-0.000183655
-0.000195672
-0.000185895
-0.000187391
-0.000183364
-0.000159294
-0.000179059
-0.000116958
-0.0001725
-6.93014e-05
-0.000161837
-1.94653e-05
-0.000145837
2.49226e-05
-0.000129456
5.9997e-05
-0.00012041
7.98434e-05
-0.000117366
8.82928e-05
-0.000118814
9.30143e-05
-0.00012701
0.000100943
-0.000143451
0.000114014
-0.00016992
0.000133229
-0.000206967
0.000157827
-0.000251278
0.000176086
-0.000300859
0.000177782
-0.000342356
0.000166104
-0.000358978
0.000151243
-0.000359065
0.000140124
-0.000354347
0.000130664
-0.000350405
0.000123965
-0.000347466
0.000117667
-0.000349455
0.000112126
-0.000358473
0.000106057
-0.000376155
9.98238e-05
-0.000399815
9.19933e-05
-0.000422748
8.03996e-05
-0.000436503
6.56285e-05
-0.000438672
4.73167e-05
2.79339e-05
-0.000432414
-0.000139718
-0.000171469
-0.000156141
-0.000183772
-0.000165275
-0.000195213
-0.00016615
-0.000191109
-0.000160651
-0.000163914
-0.000157896
-0.000120929
-0.00015772
-7.70031e-05
-0.000156344
-3.33512e-05
-0.000145867
9.58429e-06
-0.000132342
4.76119e-05
-0.000120348
7.62641e-05
-0.000116522
9.11759e-05
-0.000120574
9.87612e-05
-0.000133679
0.000108199
-0.000153187
0.000119956
-0.000180685
0.000136385
-0.000215464
0.000156291
-0.000252838
0.000168662
-0.000294925
0.000167254
-0.000331754
0.000156737
-0.00034645
0.000145273
-0.000348376
0.000136359
-0.000348185
0.000131702
-0.000349208
0.000127489
-0.000355341
0.000124099
-0.000367504
0.0001202
-0.000387111
0.000115675
-0.000411026
0.000109147
-0.000433367
9.92296e-05
-0.000447536
8.52568e-05
-0.000448548
6.7533e-05
-0.00044163
4.77693e-05
2.83565e-05
-0.000431959
-0.00013149
-0.000174985
-0.000145776
-0.00018253
-0.000155655
-0.000195414
-0.000157895
-0.000194705
-0.000150169
-0.000169178
-0.000148628
-0.000127399
-0.000150142
-8.55278e-05
-0.000160508
-4.60109e-05
-0.000161534
-6.80071e-06
-0.000153892
2.97798e-05
-0.000146559
6.24604e-05
-0.000140926
8.41751e-05
-0.000139968
9.60964e-05
-0.000150448
0.000106263
-0.000166958
0.000117069
-0.00019171
0.000131417
-0.000219269
0.000147094
-0.000247945
0.000156123
-0.000283191
0.000155196
-0.00031693
0.000148439
-0.000333771
0.000141074
-0.000339933
0.000136483
-0.000344278
0.000133712
-0.000349071
0.000130524
-0.000356922
0.000127685
-0.000369139
0.000123622
-0.000384327
0.000117899
-0.000397803
0.000109501
-0.000407325
9.81297e-05
-0.000410986
8.29048e-05
-0.000407325
6.45094e-05
-0.000397064
4.56844e-05
2.67596e-05
-0.000385751
-0.000131563
-0.000182997
-0.000142963
-0.000182416
-0.000153592
-0.000194052
-0.00015883
-0.000195072
-0.000154304