/*--------------------------------*- C++ -*----------------------------------*\
  =========                 |
  \\      /  F ield         | OpenFOAM: The Open Source CFD Toolbox
   \\    /   O peration     | Website:  https://openfoam.org
    \\  /    A nd           | Version:  10
     \\/     M anipulation  |
\*---------------------------------------------------------------------------*/
FoamFile
{
    format      ascii;
    class       volVectorField;
    location    "0.600752";
    object      U;
}
// * * * * * * * * * * * * * * * * * * * * * * * * * * * * * * * * * * * * * //

dimensions      [0 1 -1 0 0 0 0];

internalField   nonuniform List<vector> 
16320
(
(0.195073 -0.297613 0)
(0.196026 -0.307806 0)
(0.198976 -0.310312 0)
(0.204897 -0.302279 0)
(0.213279 -0.283372 0)
(0.222922 -0.258506 0)
(0.228084 -0.230371 0)
(0.227037 -0.193876 0)
(0.224946 -0.149829 0)
(0.219445 -0.0984341 0)
(0.210276 -0.0415421 0)
(0.198543 0.0205058 0)
(0.186377 0.0876865 0)
(0.1753 0.158038 0)
(0.167189 0.227786 0)
(0.162308 0.293681 0)
(0.160328 0.353634 0)
(0.161221 0.405753 0)
(0.164921 0.449466 0)
(0.170817 0.484143 0)
(0.176866 0.510093 0)
(0.184239 0.526927 0)
(0.191514 0.532933 0)
(0.200338 0.526248 0)
(0.215137 0.504863 0)
(0.231868 0.466133 0)
(0.249205 0.411942 0)
(0.269567 0.350455 0)
(0.287559 0.283614 0)
(0.300835 0.216002 0)
(0.312771 0.151477 0)
(0.324122 0.0890519 0)
(0.330288 0.0286604 0)
(0.211896 -0.299493 0)
(0.205117 -0.308692 0)
(0.198113 -0.311349 0)
(0.194552 -0.302536 0)
(0.195575 -0.285902 0)
(0.199679 -0.262106 0)
(0.200786 -0.234317 0)
(0.194876 -0.193699 0)
(0.188355 -0.145701 0)
(0.182072 -0.0916748 0)
(0.173646 -0.0343073 0)
(0.163618 0.0270195 0)
(0.152876 0.0915102 0)
(0.142347 0.157079 0)
(0.13396 0.221573 0)
(0.128941 0.283469 0)
(0.126884 0.34122 0)
(0.126929 0.392653 0)
(0.128851 0.436287 0)
(0.133001 0.471332 0)
(0.138128 0.497266 0)
(0.145215 0.513087 0)
(0.153747 0.515952 0)
(0.165932 0.506382 0)
(0.184228 0.481044 0)
(0.204413 0.440275 0)
(0.227682 0.387571 0)
(0.252923 0.329321 0)
(0.273862 0.266076 0)
(0.291536 0.202836 0)
(0.30828 0.142021 0)
(0.324787 0.082554 0)
(0.336521 0.0237705 0)
(0.256843 -0.308452 0)
(0.249091 -0.313994 0)
(0.237281 -0.312872 0)
(0.221301 -0.301885 0)
(0.207707 -0.283218 0)
(0.201752 -0.259953 0)
(0.197604 -0.231506 0)
(0.18819 -0.192193 0)
(0.174984 -0.140957 0)
(0.163644 -0.0854187 0)
(0.152687 -0.0268582 0)
(0.142236 0.0330511 0)
(0.130408 0.0956077 0)
(0.12001 0.156213 0)
(0.11169 0.214865 0)
(0.105579 0.271831 0)
(0.101381 0.326502 0)
(0.0987031 0.376237 0)
(0.0977228 0.418965 0)
(0.099409 0.453805 0)
(0.102959 0.478901 0)
(0.109313 0.492847 0)
(0.119158 0.492576 0)
(0.134535 0.478969 0)
(0.156491 0.451725 0)
(0.181749 0.410717 0)
(0.209746 0.360779 0)
(0.237744 0.304898 0)
(0.261783 0.24537 0)
(0.284086 0.18649 0)
(0.306184 0.128831 0)
(0.327493 0.072536 0)
(0.344403 0.0147793 0)
(0.316863 -0.318203 0)
(0.310555 -0.317719 0)
(0.297875 -0.312111 0)
(0.278899 -0.299539 0)
(0.25373 -0.277474 0)
(0.23014 -0.249787 0)
(0.214601 -0.219676 0)
(0.200688 -0.1823 0)
(0.183725 -0.132806 0)
(0.165343 -0.0761744 0)
(0.148762 -0.0177572 0)
(0.134149 0.0405595 0)
(0.120856 0.0999735 0)
(0.108846 0.155773 0)
(0.0985168 0.207981 0)
(0.0895638 0.258544 0)
(0.0820353 0.308784 0)
(0.075844 0.356406 0)
(0.0711783 0.398013 0)
(0.0696963 0.431964 0)
(0.0715058 0.455727 0)
(0.0774133 0.467123 0)
(0.0886807 0.46395 0)
(0.108408 0.448302 0)
(0.134496 0.420183 0)
(0.162908 0.379568 0)
(0.194241 0.331566 0)
(0.224695 0.278776 0)
(0.252097 0.223252 0)
(0.279095 0.168393 0)
(0.306626 0.113454 0)
(0.331927 0.0593734 0)
(0.353276 0.00330183 0)
(0.379446 -0.330983 0)
(0.377066 -0.322724 0)
(0.36639 -0.309044 0)
(0.347292 -0.28996 0)
(0.320694 -0.26566 0)
(0.286651 -0.234469 0)
(0.253154 -0.199833 0)
(0.22857 -0.16276 0)
(0.206892 -0.117693 0)
(0.18392 -0.0630517 0)
(0.160258 -0.0061661 0)
(0.139011 0.0514481 0)
(0.122215 0.105425 0)
(0.107696 0.155461 0)
(0.0934502 0.201654 0)
(0.0799968 0.246126 0)
(0.0679055 0.290552 0)
(0.057353 0.334228 0)
(0.0486454 0.373829 0)
(0.0439884 0.406253 0)
(0.044328 0.428259 0)
(0.0502717 0.436989 0)
(0.0645408 0.431958 0)
(0.0877675 0.415481 0)
(0.116187 0.386132 0)
(0.147878 0.346981 0)
(0.181955 0.302144 0)
(0.214566 0.252844 0)
(0.245512 0.201387 0)
(0.277125 0.149752 0)
(0.309308 0.0978566 0)
(0.338232 0.0436611 0)
(0.362616 -0.00830072 0)
(0.434677 -0.346463 0)
(0.437199 -0.331035 0)
(0.431218 -0.308741 0)
(0.415616 -0.280393 0)
(0.39044 -0.247865 0)
(0.356634 -0.213112 0)
(0.314326 -0.17475 0)
(0.272162 -0.134794 0)
(0.240839 -0.0931353 0)
(0.213194 -0.0451933 0)
(0.185231 0.00930317 0)
(0.156466 0.0637106 0)
(0.132094 0.114825 0)
(0.113761 0.158257 0)
(0.0949052 0.197869 0)
(0.0759318 0.235733 0)
(0.0580643 0.273742 0)
(0.0427588 0.312074 0)
(0.0305205 0.347629 0)
(0.0229252 0.377022 0)
(0.0221953 0.396544 0)
(0.0293175 0.403065 0)
(0.0464679 0.398144 0)
(0.0721078 0.380839 0)
(0.102824 0.352393 0)
(0.137421 0.316043 0)
(0.173348 0.27435 0)
(0.208127 0.228257 0)
(0.242764 0.180422 0)
(0.279088 0.13196 0)
(0.313814 0.0809012 0)
(0.34496 0.0279843 0)
(0.370786 -0.0186596 0)
(0.476216 -0.364329 0)
(0.483696 -0.342291 0)
(0.483313 -0.31202 0)
(0.473503 -0.27503 0)
(0.453629 -0.232605 0)
(0.423634 -0.188199 0)
(0.384104 -0.144961 0)
(0.334931 -0.10187 0)
(0.285313 -0.0604234 0)
(0.248125 -0.0183117 0)
(0.21618 0.0291082 0)
(0.182707 0.0785959 0)
(0.151051 0.126183 0)
(0.12468 0.165354 0)
(0.100757 0.198157 0)
(0.0760821 0.22861 0)
(0.0526454 0.25938 0)
(0.0321657 0.291602 0)
(0.0161837 0.322714 0)
(0.00671215 0.348511 0)
(0.00611733 0.365612 0)
(0.0159426 0.370859 0)
(0.0353889 0.365358 0)
(0.0622638 0.348248 0)
(0.0949316 0.321607 0)
(0.131198 0.287808 0)
(0.168539 0.248602 0)
(0.205833 0.20552 0)
(0.244687 0.161319 0)
(0.283561 0.113547 0)
(0.319749 0.0625181 0)
(0.351694 0.0145521 0)
(0.374715 -0.0261558 0)
(0.501188 -0.385253 0)
(0.512606 -0.357779 0)
(0.517332 -0.321225 0)
(0.513879 -0.275814 0)
(0.501408 -0.224268 0)
(0.478745 -0.169018 0)
(0.44645 -0.114931 0)
(0.404107 -0.0656258 0)
(0.351336 -0.0208319 0)
(0.300622 0.0198921 0)
(0.256275 0.058131 0)
(0.216106 0.0992151 0)
(0.176661 0.140342 0)
(0.140813 0.175119 0)
(0.10946 0.202513 0)
(0.0791572 0.225874 0)
(0.0506516 0.24908 0)
(0.0262284 0.274333 0)
(0.00776173 0.300442 0)
(-0.00252898 0.322863 0)
(-0.00286302 0.337976 0)
(0.00821251 0.34233 0)
(0.0292216 0.335509 0)
(0.0576326 0.31891 0)
(0.0916424 0.293761 0)
(0.128994 0.261961 0)
(0.167893 0.225342 0)
(0.208684 0.185345 0)
(0.249676 0.141335 0)
(0.288972 0.0933962 0)
(0.325399 0.0468099 0)
(0.353855 0.00540183 0)
(0.373847 -0.0268886 0)
(0.507504 -0.410919 0)
(0.521927 -0.378338 0)
(0.532142 -0.336453 0)
(0.535121 -0.284942 0)
(0.529656 -0.225594 0)
(0.515044 -0.161086 0)
(0.490992 -0.0956146 0)
(0.458291 -0.035609 0)
(0.416651 0.0174755 0)
(0.362151 0.0608876 0)
(0.305638 0.0964939 0)
(0.254431 0.129196 0)
(0.206203 0.160836 0)
(0.160726 0.188666 0)
(0.120271 0.209572 0)
(0.0840014 0.227229 0)
(0.0514076 0.244168 0)
(0.0243317 0.26261 0)
(0.00455569 0.283143 0)
(-0.00533737 0.301045 0)
(-0.00520336 0.313068 0)
(0.00639123 0.316081 0)
(0.0283478 0.308864 0)
(0.0576871 0.29284 0)
(0.0925299 0.269221 0)
(0.131175 0.239591 0)
(0.172382 0.204098 0)
(0.21392 0.163965 0)
(0.254831 0.119758 0)
(0.293686 0.0763076 0)
(0.326002 0.0362944 0)
(0.349861 0.00297075 0)
(0.365614 -0.021593 0)
(0.498735 -0.433545 0)
(0.515386 -0.397484 0)
(0.528718 -0.351605 0)
(0.537174 -0.296065 0)
(0.53862 -0.232003 0)
(0.531533 -0.161486 0)
(0.51481 -0.0878248 0)
(0.489464 -0.0173408 0)
(0.454527 0.0449271 0)
(0.40639 0.0980523 0)
(0.348937 0.137398 0)
(0.290074 0.166632 0)
(0.233984 0.189639 0)
(0.180649 0.208353 0)
(0.132311 0.221888 0)
(0.0904991 0.232305 0)
(0.0545158 0.243608 0)
(0.025954 0.257095 0)
(0.00602027 0.272714 0)
(-0.00325684 0.28604 0)
(-0.00242693 0.29448 0)
(0.00978314 0.295367 0)
(0.0324175 0.287483 0)
(0.0624988 0.27126 0)
(0.0984051 0.24742 0)
(0.137186 0.217077 0)
(0.177487 0.181338 0)
(0.218738 0.141839 0)
(0.25781 0.102829 0)
(0.291005 0.066112 0)
(0.31671 0.03421 0)
(0.334532 0.00840391 0)
(0.343793 -0.0124145 0)
(0.474296 -0.454637 0)
(0.491772 -0.417061 0)
(0.508089 -0.369111 0)
(0.520618 -0.310769 0)
(0.527571 -0.243006 0)
(0.527642 -0.167019 0)
(0.518145 -0.086695 0)
(0.498886 -0.00694996 0)
(0.470596 0.0648635 0)
(0.429508 0.126099 0)
(0.375342 0.173394 0)
(0.315437 0.204619 0)
(0.254634 0.223559 0)
(0.196678 0.234405 0)
(0.143331 0.240585 0)
(0.0975409 0.244016 0)
(0.0603867 0.248397 0)
(0.0319346 0.255803 0)
(0.0122596 0.265622 0)
(0.00350603 0.274522 0)
(0.00507992 0.279446 0)
(0.0180716 0.277199 0)
(0.0407693 0.266897 0)
(0.0700513 0.249094 0)
(0.10466 0.224199 0)
(0.142659 0.193501 0)
(0.181582 0.160155 0)
(0.218499 0.126317 0)
(0.250661 0.0939269 0)
(0.276384 0.0640159 0)
(0.294125 0.0383629 0)
(0.30173 0.0171081 0)
(0.302313 0.00378726 0)
(0.436953 -0.479469 0)
(0.45433 -0.44196 0)
(0.4716 -0.392607 0)
(0.487612 -0.33257 0)
(0.500278 -0.261298 0)
(0.506455 -0.180691 0)
(0.503556 -0.0930969 0)
(0.490539 -0.00408691 0)
(0.466125 0.0773058 0)
(0.431012 0.145549 0)
(0.382927 0.200654 0)
(0.325319 0.236896 0)
(0.264182 0.256578 0)
(0.205077 0.264184 0)
(0.151154 0.264517 0)
(0.104383 0.262188 0)
(0.0669115 0.26 0)
(0.0395361 0.26016 0)
(0.0218295 0.262622 0)
(0.0145534 0.2653 0)
(0.0165714 0.26519 0)
(0.0290636 0.258899 0)
(0.0507972 0.245889 0)
(0.0787802 0.2269 0)
(0.110924 0.202855 0)
(0.14465 0.175752 0)
(0.177242 0.147476 0)
(0.206447 0.119527 0)
(0.229487 0.093644 0)
(0.245019 0.0697229 0)
(0.249581 0.0501734 0)
(0.246831 0.0366935 0)
(0.242682 0.0279951 0)
(0.386234 -0.505939 0)
(0.403863 -0.469614 0)
(0.422415 -0.419728 0)
(0.44044 -0.357658 0)
(0.456888 -0.284803 0)
(0.469076 -0.201139 0)
(0.472723 -0.107952 0)
(0.464929 -0.0107029 0)
(0.44422 0.0804249 0)
(0.413911 0.157832 0)
(0.371375 0.218748 0)
(0.317391 0.262305 0)
(0.260436 0.286127 0)
(0.203929 0.294379 0)
(0.152699 0.291937 0)
(0.108607 0.284694 0)
(0.0730157 0.276647 0)
(0.0475716 0.27042 0)
(0.0317304 0.265964 0)
(0.0255603 0.261869 0)
(0.0281101 0.255903 0)
(0.0399978 0.245558 0)
(0.059244 0.230609 0)
(0.0830379 0.211564 0)
(0.109541 0.189619 0)
(0.136251 0.166271 0)
(0.159989 0.143581 0)
(0.177937 0.121874 0)
(0.189776 0.099947 0)
(0.190857 0.0819058 0)
(0.186594 0.0689329 0)
(0.181879 0.0621443 0)
(0.179555 0.0524333 0)
(0.325405 -0.532534 0)
(0.343153 -0.497758 0)
(0.362098 -0.448523 0)
(0.38044 -0.386112 0)
(0.398718 -0.31219 0)
(0.415545 -0.227101 0)
(0.425427 -0.130358 0)
(0.423359 -0.0257015 0)
(0.40673 0.0748436 0)
(0.378346 0.162337 0)
(0.341883 0.230654 0)
(0.294301 0.281501 0)
(0.241741 0.311334 0)
(0.191311 0.322977 0)
(0.145652 0.320448 0)
(0.106852 0.309676 0)
(0.0754454 0.29608 0)
(0.0530549 0.283487 0)
(0.0391469 0.272339 0)
(0.0336193 0.262252 0)
(0.0356271 0.251209 0)
(0.0449342 0.237549 0)
(0.0597288 0.221204 0)
(0.0774384 0.202972 0)
(0.0949327 0.183964 0)
(0.110722 0.166009 0)
(0.122524 0.14759 0)
(0.127975 0.13062 0)
(0.124562 0.114264 0)
(0.121998 0.104433 0)
(0.12306 0.0974808 0)
(0.126871 0.0855017 0)
(0.129573 0.0656385 0)
(0.257225 -0.555849 0)
(0.273212 -0.524921 0)
(0.290987 -0.478248 0)
(0.308459 -0.417324 0)
(0.326493 -0.343119 0)
(0.346078 -0.256995 0)
(0.361829 -0.157567 0)
(0.364679 -0.0469731 0)
(0.352216 0.0630373 0)
(0.32659 0.160011 0)
(0.295197 0.239137 0)
(0.254563 0.296585 0)
(0.208994 0.333354 0)
(0.167047 0.349542 0)
(0.12888 0.34807 0)
(0.0966599 0.334429 0)
(0.070851 0.31571 0)
(0.0522772 0.297221 0)
(0.0404768 0.27981 0)
(0.0352386 0.264371 0)
(0.0351712 0.249623 0)
(0.0398881 0.234135 0)
(0.0470048 0.218317 0)
(0.0554422 0.203837 0)
(0.0615337 0.189117 0)
(0.0655297 0.174441 0)
(0.064673 0.160694 0)
(0.0633145 0.147386 0)
(0.0641145 0.139058 0)
(0.0697436 0.128952 0)
(0.0762099 0.112985 0)
(0.0851791 0.0885131 0)
(0.0962315 0.0624215 0)
(0.181615 -0.576799 0)
(0.193678 -0.550607 0)
(0.208168 -0.509412 0)
(0.223746 -0.451583 0)
(0.240777 -0.378806 0)
(0.261186 -0.291647 0)
(0.280862 -0.189088 0)
(0.288108 -0.0726328 0)
(0.280029 0.0475779 0)
(0.25777 0.154796 0)
(0.231824 0.244374 0)
(0.199947 0.310407 0)
(0.162962 0.353962 0)
(0.130458 0.37418 0)
(0.101242 0.373396 0)
(0.0767803 0.357332 0)
(0.057759 0.334387 0)
(0.0433472 0.310507 0)
(0.0331439 0.288617 0)
(0.0260419 0.269753 0)
(0.0217256 0.253328 0)
(0.0193239 0.238824 0)
(0.0168209 0.225869 0)
(0.0146138 0.214714 0)
(0.0104902 0.202215 0)
(0.00581005 0.190388 0)
(0.0075703 0.179291 0)
(0.0118494 0.168657 0)
(0.02032 0.155391 0)
(0.0300752 0.135967 0)
(0.0422164 0.109307 0)
(0.0554111 0.0831849 0)
(0.0665358 0.0612412 0)
(0.100357 -0.595454 0)
(0.105133 -0.575361 0)
(0.112916 -0.538824 0)
(0.127018 -0.485146 0)
(0.142335 -0.415909 0)
(0.161831 -0.329423 0)
(0.182583 -0.223683 0)
(0.193041 -0.100061 0)
(0.190303 0.0303522 0)
(0.171473 0.148664 0)
(0.151955 0.248676 0)
(0.130478 0.323645 0)
(0.104217 0.372714 0)
(0.0821185 0.395811 0)
(0.0631636 0.395114 0)
(0.0473826 0.377401 0)
(0.0348909 0.350926 0)
(0.0239197 0.323555 0)
(0.0126699 0.29963 0)
(0.00200592 0.280479 0)
(-0.00892683 0.265365 0)
(-0.0198901 0.253057 0)
(-0.0307912 0.241011 0)
(-0.0398034 0.230125 0)
(-0.045933 0.218363 0)
(-0.0435711 0.207761 0)
(-0.0369285 0.19592 0)
(-0.0262116 0.179878 0)
(-0.0147488 0.157614 0)
(-0.0010863 0.13121 0)
(0.0146707 0.107598 0)
(0.0230898 0.086164 0)
(0.0234787 0.0647914 0)
(0.0148795 -0.610143 0)
(0.0129076 -0.594187 0)
(0.0158552 -0.560975 0)
(0.0230884 -0.512089 0)
(0.0339386 -0.446692 0)
(0.0482585 -0.362789 0)
(0.064953 -0.254194 0)
(0.0760306 -0.122118 0)
(0.0811377 0.0180209 0)
(0.0674433 0.145728 0)
(0.0570781 0.253901 0)
(0.0474562 0.335331 0)
(0.0338384 0.387552 0)
(0.0243835 0.412251 0)
(0.0162161 0.411383 0)
(0.00925568 0.391851 0)
(0.00143671 0.364332 0)
(-0.00930845 0.337213 0)
(-0.0229789 0.314985 0)
(-0.0393219 0.297925 0)
(-0.0570015 0.284043 0)
(-0.074106 0.270478 0)
(-0.0878159 0.258248 0)
(-0.093797 0.24561 0)
(-0.0912015 0.233349 0)
(-0.0832268 0.218858 0)
(-0.071517 0.20093 0)
(-0.0592593 0.177162 0)
(-0.0443416 0.152582 0)
(-0.0305084 0.130661 0)
(-0.0247269 0.109024 0)
(-0.0244894 0.0892564 0)
(-0.0281079 0.0700035 0)
(-0.0680061 -0.618221 0)
(-0.0769897 -0.603799 0)
(-0.0818605 -0.576178 0)
(-0.0816823 -0.532109 0)
(-0.0803153 -0.471095 0)
(-0.0773329 -0.390447 0)
(-0.0717694 -0.280511 0)
(-0.0671479 -0.14306 0)
(-0.0523555 0.0084665 0)
(-0.0538894 0.144301 0)
(-0.0502206 0.256743 0)
(-0.045258 0.34225 0)
(-0.0436765 0.396458 0)
(-0.0393433 0.420159 0)
(-0.0362022 0.418779 0)
(-0.0370082 0.400415 0)
(-0.0433722 0.376284 0)
(-0.0561397 0.353584 0)
(-0.0745366 0.334619 0)
(-0.09586 0.31823 0)
(-0.117042 0.302473 0)
(-0.133638 0.287648 0)
(-0.139695 0.27305 0)
(-0.137504 0.258105 0)
(-0.129061 0.241274 0)
(-0.116695 0.220736 0)
(-0.104161 0.196442 0)
(-0.0882473 0.174297 0)
(-0.0756971 0.153242 0)
(-0.070225 0.133985 0)
(-0.0695372 0.115651 0)
(-0.0720282 0.0969211 0)
(-0.0770722 0.0774216 0)
(-0.147755 -0.618367 0)
(-0.163719 -0.606861 0)
(-0.176006 -0.583406 0)
(-0.185814 -0.543749 0)
(-0.198291 -0.48606 0)
(-0.208512 -0.406038 0)
(-0.215493 -0.295833 0)
(-0.216169 -0.158814 0)
(-0.202208 -0.0085772 0)
(-0.183064 0.133724 0)
(-0.163246 0.249266 0)
(-0.141647 0.337481 0)
(-0.122401 0.39231 0)
(-0.104757 0.417263 0)
(-0.0927246 0.418465 0)
(-0.0904569 0.405462 0)
(-0.0983366 0.388509 0)
(-0.115429 0.371364 0)
(-0.137473 0.353531 0)
(-0.159948 0.335857 0)
(-0.177545 0.318281 0)
(-0.184641 0.301082 0)
(-0.183637 0.28281 0)
(-0.175501 0.263203 0)
(-0.163537 0.240136 0)
(-0.151445 0.215573 0)
(-0.136153 0.193607 0)
(-0.124939 0.173484 0)
(-0.119604 0.155172 0)
(-0.118055 0.13756 0)
(-0.118988 0.119362 0)
(-0.122163 0.10003 0)
(-0.127144 0.079728 0)
(-0.221588 -0.610749 0)
(-0.24359 -0.600033 0)
(-0.264033 -0.578667 0)
(-0.285263 -0.542915 0)
(-0.312328 -0.485846 0)
(-0.335418 -0.405067 0)
(-0.350323 -0.296022 0)
(-0.352673 -0.162808 0)
(-0.335986 -0.0194335 0)
(-0.304065 0.116788 0)
(-0.269274 0.229821 0)
(-0.231327 0.316859 0)
(-0.195456 0.373614 0)
(-0.16751 0.40291 0)
(-0.152256 0.411192 0)
(-0.149909 0.407713 0)
(-0.160506 0.398666 0)
(-0.181116 0.38466 0)
(-0.203638 0.368267 0)
(-0.22076 0.349621 0)
(-0.228773 0.329809 0)
(-0.229203 0.308512 0)
(-0.222521 0.285675 0)
(-0.212021 0.260174 0)
(-0.200264 0.23401 0)
(-0.18567 0.210906 0)
(-0.17482 0.190968 0)
(-0.168633 0.172572 0)
(-0.165301 0.155224 0)
(-0.164383 0.138034 0)
(-0.165756 0.12 0)
(-0.16935 0.100528 0)
(-0.174678 0.079813 0)
(-0.286567 -0.594775 0)
(-0.313337 -0.582702 0)
(-0.34166 -0.56002 0)
(-0.374441 -0.527338 0)
(-0.413409 -0.470939 0)
(-0.448382 -0.390467 0)
(-0.469977 -0.286759 0)
(-0.473027 -0.16285 0)
(-0.452425 -0.0305973 0)
(-0.409785 0.0960044 0)
(-0.360795 0.203489 0)
(-0.308973 0.286484 0)
(-0.260652 0.343957 0)
(-0.226667 0.37793 0)
(-0.210148 0.39523 0)
(-0.209558 0.403217 0)
(-0.223805 0.401126 0)
(-0.244856 0.392596 0)
(-0.261426 0.377731 0)
(-0.270876 0.357948 0)
(-0.273114 0.334965 0)
(-0.268616 0.30877 0)
(-0.259991 0.280706 0)
(-0.249282 0.251746 0)
(-0.235844 0.226993 0)
(-0.22433 0.204666 0)
(-0.216794 0.186239 0)
(-0.213428 0.17016 0)
(-0.212025 0.154149 0)
(-0.212677 0.136262 0)
(-0.215609 0.116943 0)
(-0.220748 0.0968394 0)
(-0.227776 0.0759062 0)
(-0.341166 -0.571318 0)
(-0.370983 -0.557015 0)
(-0.405637 -0.531995 0)
(-0.445682 -0.497546 0)
(-0.492108 -0.445714 0)
(-0.537433 -0.3691 0)
(-0.567134 -0.274256 0)
(-0.572502 -0.162903 0)
(-0.549064 -0.0436265 0)
(-0.500918 0.0724305 0)
(-0.442131 0.172542 0)
(-0.380037 0.250251 0)
(-0.321535 0.307092 0)
(-0.282107 0.344586 0)
(-0.262662 0.369792 0)
(-0.262566 0.387531 0)
(-0.277609 0.395917 0)
(-0.293984 0.392922 0)
(-0.306531 0.379069 0)
(-0.312003 0.357481 0)
(-0.311258 0.33007 0)
(-0.305991 0.299451 0)
(-0.296087 0.268713 0)
(-0.283518 0.241344 0)
(-0.27238 0.2184 0)
(-0.264235 0.199789 0)
(-0.257666 0.183524 0)
(-0.2543 0.168582 0)
(-0.254559 0.153401 0)
(-0.258085 0.136716 0)
(-0.264675 0.117763 0)
(-0.273567 0.0973909 0)
(-0.283973 0.0764358 0)
(-0.383801 -0.541968 0)
(-0.416014 -0.52569 0)
(-0.452798 -0.498608 0)
(-0.496063 -0.460423 0)
(-0.545271 -0.411095 0)
(-0.594653 -0.341995 0)
(-0.631196 -0.255089 0)
(-0.642153 -0.156006 0)
(-0.623374 -0.0515148 0)
(-0.57619 0.050589 0)
(-0.512592 0.140528 0)
(-0.441941 0.212337 0)
(-0.377015 0.265345 0)
(-0.332349 0.304744 0)
(-0.306931 0.336979 0)
(-0.30089 0.363745 0)
(-0.310723 0.379336 0)
(-0.32602 0.380041 0)
(-0.338543 0.367456 0)
(-0.344619 0.344517 0)
(-0.344582 0.314699 0)
(-0.337091 0.284343 0)
(-0.326387 0.256428 0)
(-0.315109 0.233101 0)
(-0.305293 0.214048 0)
(-0.29884 0.2 0)
(-0.296766 0.187044 0)
(-0.298741 0.173197 0)
(-0.304967 0.157268 0)
(-0.314922 0.139575 0)
(-0.327612 0.120373 0)
(-0.341507 0.100126 0)
(-0.354935 0.0795436 0)
(-0.413086 -0.508607 0)
(-0.447755 -0.491051 0)
(-0.484735 -0.462135 0)
(-0.526768 -0.422267 0)
(-0.573707 -0.371665 0)
(-0.622008 -0.309159 0)
(-0.661032 -0.23096 0)
(-0.676943 -0.142905 0)
(-0.663243 -0.0519371 0)
(-0.622629 0.0369451 0)
(-0.562565 0.115354 0)
(-0.49238 0.179855 0)
(-0.424256 0.229514 0)
(-0.370797 0.269823 0)
(-0.333812 0.302505 0)
(-0.316844 0.32869 0)
(-0.321933 0.344704 0)
(-0.33878 0.349288 0)
(-0.3558 0.339791 0)
(-0.366721 0.320038 0)
(-0.368769 0.295463 0)
(-0.362897 0.270371 0)
(-0.354453 0.247642 0)
(-0.346997 0.229945 0)
(-0.343463 0.215779 0)
(-0.344636 0.203498 0)
(-0.350596 0.191151 0)
(-0.360788 0.177505 0)
(-0.374515 0.161687 0)
(-0.390199 0.14382 0)
(-0.406016 0.12429 0)
(-0.420155 0.103653 0)
(-0.43106 0.082515 0)
(-0.426094 -0.472197 0)
(-0.464038 -0.45472 0)
(-0.502152 -0.424924 0)
(-0.541947 -0.383869 0)
(-0.583812 -0.332016 0)
(-0.625092 -0.270635 0)
(-0.661542 -0.199963 0)
(-0.682715 -0.121333 0)
(-0.675936 -0.0401381 0)
(-0.641756 0.0375002 0)
(-0.587144 0.106528 0)
(-0.519401 0.163528 0)
(-0.449883 0.207872 0)
(-0.390221 0.241715 0)
(-0.342221 0.265661 0)
(-0.312644 0.28083 0)
(-0.309906 0.292336 0)
(-0.329297 0.299967 0)
(-0.356306 0.301085 0)
(-0.376826 0.292598 0)
(-0.386827 0.277703 0)
(-0.389215 0.260655 0)
(-0.389642 0.245058 0)
(-0.391815 0.23215 0)
(-0.397934 0.221268 0)
(-0.408397 0.210855 0)
(-0.422841 0.199001 0)
(-0.439601 0.184761 0)
(-0.457056 0.167859 0)
(-0.473249 0.148746 0)
(-0.486561 0.127633 0)
(-0.495699 0.105547 0)
(-0.499822 0.0832371 0)
(-0.422208 -0.43286 0)
(-0.461104 -0.417065 0)
(-0.501702 -0.38866 0)
(-0.541232 -0.347873 0)
(-0.579521 -0.296818 0)
(-0.614278 -0.23641 0)
(-0.642277 -0.168627 0)
(-0.657435 -0.0957542 0)
(-0.653947 -0.0218376 0)
(-0.628472 0.0468369 0)
(-0.582826 0.107466 0)
(-0.521636 0.156582 0)
(-0.453144 0.192238 0)
(-0.388682 0.214858 0)
(-0.333284 0.225858 0)
(-0.293062 0.22878 0)
(-0.28201 0.234615 0)
(-0.303332 0.247676 0)
(-0.342583 0.262393 0)
(-0.380787 0.268747 0)
(-0.408301 0.265917 0)
(-0.426182 0.257458 0)
(-0.439528 0.248463 0)
(-0.453051 0.240155 0)
(-0.468806 0.231631 0)
(-0.486982 0.221131 0)
(-0.505999 0.207864 0)
(-0.523968 0.191468 0)
(-0.539167 0.172245 0)
(-0.550755 0.151016 0)
(-0.557796 0.128396 0)
(-0.559671 0.105094 0)
(-0.556591 0.0811492 0)
(-0.403369 -0.392796 0)
(-0.43982 -0.377762 0)
(-0.479328 -0.352151 0)
(-0.52075 -0.314008 0)
(-0.559326 -0.26432 0)
(-0.590889 -0.205952 0)
(-0.614623 -0.141188 0)
(-0.626588 -0.0734736 0)
(-0.622225 -0.00651263 0)
(-0.598873 0.0550051 0)
(-0.557714 0.1079 0)
(-0.501099 0.148814 0)
(-0.435521 0.175197 0)
(-0.370679 0.186965 0)
(-0.311431 0.188051 0)
(-0.26572 0.185291 0)
(-0.250334 0.189199 0)
(-0.273246 0.207507 0)
(-0.326639 0.233656 0)
(-0.38845 0.254535 0)
(-0.439596 0.26194 0)
(-0.475701 0.261764 0)
(-0.5027 0.258071 0)
(-0.526015 0.25195 0)
(-0.548252 0.242952 0)
(-0.569088 0.230586 0)
(-0.587349 0.214762 0)
(-0.6019 0.195818 0)
(-0.611867 0.174294 0)
(-0.616902 0.150899 0)
(-0.61699 0.126744 0)
(-0.612659 0.101612 0)
(-0.603957 0.076189 0)
(-0.372844 -0.356729 0)
(-0.403467 -0.341298 0)
(-0.437649 -0.316266 0)
(-0.474258 -0.280393 0)
(-0.511793 -0.233494 0)
(-0.544815 -0.178819 0)
(-0.568111 -0.118725 0)
(-0.578254 -0.0561026 0)
(-0.572886 0.00495582 0)
(-0.552372 0.059792 0)
(-0.515061 0.104918 0)
(-0.462623 0.13691 0)
(-0.40033 0.154351 0)
(-0.33748 0.159117 0)
(-0.280047 0.15685 0)
(-0.235944 0.153934 0)
(-0.221833 0.161129 0)
(-0.249975 0.185194 0)
(-0.319139 0.220477 0)
(-0.405401 0.251185 0)
(-0.480372 0.26711 0)
(-0.534182 0.271887 0)
(-0.572513 0.270263 0)
(-0.601964 0.263441 0)
(-0.625743 0.252467 0)
(-0.644886 0.237441 0)
(-0.659316 0.218977 0)
(-0.668791 0.197594 0)
(-0.67306 0.174106 0)
(-0.671819 0.149013 0)
(-0.665839 0.122688 0)
(-0.655594 0.0959875 0)
(-0.641361 0.0702353 0)
(-0.339369 -0.326941 0)
(-0.361005 -0.312398 0)
(-0.384417 -0.286972 0)
(-0.411581 -0.250833 0)
(-0.441227 -0.204693 0)
(-0.469483 -0.150945 0)
(-0.492114 -0.0939166 0)
(-0.504465 -0.0367205 0)
(-0.501585 0.0166718 0)
(-0.484298 0.0633357 0)
(-0.451299 0.0999719 0)
(-0.404481 0.123724 0)
(-0.3485 0.134223 0)
(-0.291931 0.134608 0)
(-0.241387 0.131859 0)
(-0.206202 0.133754 0)
(-0.201691 0.149034 0)
(-0.240907 0.180897 0)
(-0.32504 0.222359 0)
(-0.431139 0.257132 0)
(-0.526935 0.277563 0)
(-0.595608 0.2832 0)
(-0.640962 0.280775 0)
(-0.672347 0.272463 0)
(-0.694654 0.259386 0)
(-0.710465 0.241917 0)
(-0.720262 0.220921 0)
(-0.724294 0.198295 0)
(-0.722582 0.173023 0)
(-0.71565 0.145843 0)
(-0.703997 0.118045 0)
(-0.688461 0.0907106 0)
(-0.670276 0.0642043 0)
(-0.306202 -0.303885 0)
(-0.322407 -0.291586 0)
(-0.335125 -0.268057 0)
(-0.34751 -0.231295 0)
(-0.362691 -0.183815 0)
(-0.380577 -0.129318 0)
(-0.396504 -0.0732771 0)
(-0.406717 -0.0196365 0)
(-0.406068 0.0280583 0)
(-0.393493 0.0676618 0)
(-0.367038 0.0959552 0)
(-0.328411 0.111577 0)
(-0.282524 0.116135 0)
(-0.237949 0.114895 0)
(-0.201745 0.116401 0)
(-0.182791 0.127118 0)
(-0.193928 0.151324 0)
(-0.246063 0.189261 0)
(-0.342174 0.23289 0)
(-0.462059 0.268837 0)
(-0.573775 0.287254 0)
(-0.652775 0.292006 0)
(-0.701922 0.288216 0)
(-0.732799 0.27837 0)
(-0.752729 0.263449 0)
(-0.764545 0.244705 0)
(-0.768645 0.223076 0)
(-0.76672 0.198353 0)
(-0.760106 0.171079 0)
(-0.747959 0.142453 0)
(-0.731349 0.113488 0)
(-0.711892 0.0851161 0)
(-0.690671 0.0579801 0)
(-0.274375 -0.286197 0)
(-0.288252 -0.277866 0)
(-0.295332 -0.258887 0)
(-0.298461 -0.224482 0)
(-0.299436 -0.177009 0)
(-0.300545 -0.120442 0)
(-0.303098 -0.061367 0)
(-0.305958 -0.0068329 0)
(-0.305215 0.037662 0)
(-0.296119 0.0710772 0)
(-0.277429 0.0925004 0)
(-0.25013 0.102611 0)
(-0.219427 0.105775 0)
(-0.192692 0.108316 0)
(-0.176004 0.117453 0)
(-0.175997 0.136255 0)
(-0.201418 0.16616 0)
(-0.261598 0.205386 0)
(-0.362081 0.246716 0)
(-0.492912 0.279034 0)
(-0.616308 0.293971 0)
(-0.701301 0.296888 0)
(-0.751619 0.292414 0)
(-0.781174 0.281959 0)
(-0.79721 0.265972 0)
(-0.803453 0.247503 0)
(-0.802465 0.224822 0)
(-0.795891 0.198276 0)
(-0.783876 0.169181 0)
(-0.767018 0.138705 0)
(-0.746582 0.107965 0)
(-0.724067 0.0788114 0)
(-0.700999 0.0506834 0)
(-0.242815 -0.270248 0)
(-0.258101 -0.268911 0)
(-0.26357 -0.256881 0)
(-0.263053 -0.228344 0)
(-0.258613 -0.183108 0)
(-0.250586 -0.126108 0)
(-0.239732 -0.0648353 0)
(-0.228094 -0.00627544 0)
(-0.220319 0.0431811 0)
(-0.211171 0.07603 0)
(-0.199129 0.0938052 0)
(-0.184576 0.100705 0)
(-0.170838 0.103645 0)
(-0.162839 0.110807 0)
(-0.164836 0.126513 0)
(-0.180564 0.152115 0)
(-0.216373 0.184592 0)
(-0.279949 0.221663 0)
(-0.381984 0.257843 0)
(-0.519302 0.283235 0)
(-0.649233 0.296162 0)
(-0.737077 0.299154 0)
(-0.786503 0.294972 0)
(-0.813694 0.285024 0)
(-0.824311 0.27012 0)
(-0.824608 0.25081 0)
(-0.818789 0.226938 0)
(-0.806794 0.199299 0)
(-0.790107 0.169256 0)
(-0.768972 0.137846 0)
(-0.744847 0.10609 0)
(-0.720741 0.074783 0)
(-0.697222 0.0466118 0)
(-0.213069 -0.256219 0)
(-0.231431 -0.26264 0)
(-0.238798 -0.258981 0)
(-0.238348 -0.238216 0)
(-0.232535 -0.197336 0)
(-0.222648 -0.139826 0)
(-0.209566 -0.0766541 0)
(-0.19367 -0.0166005 0)
(-0.176461 0.0340147 0)
(-0.160915 0.0729975 0)
(-0.149423 0.0965605 0)
(-0.143562 0.106076 0)
(-0.144181 0.111779 0)
(-0.152057 0.123107 0)
(-0.16822 0.14185 0)
(-0.193924 0.168551 0)
(-0.234129 0.198145 0)
(-0.296613 0.230254 0)
(-0.397369 0.260309 0)
(-0.535804 0.282114 0)
(-0.66771 0.295139 0)
(-0.756092 0.299831 0)
(-0.803859 0.296931 0)
(-0.825857 0.288597 0)
(-0.831197 0.275336 0)
(-0.82574 0.255556 0)
(-0.813 0.230834 0)
(-0.794651 0.201109 0)
(-0.77228 0.168838 0)
(-0.748466 0.135213 0)
(-0.724845 0.10229 0)
(-0.699941 0.0692628 0)
(-0.675872 0.0392678 0)
(-0.188158 -0.245734 0)
(-0.209072 -0.258342 0)
(-0.220168 -0.263348 0)
(-0.222336 -0.250273 0)
(-0.218504 -0.214617 0)
(-0.211142 -0.157105 0)
(-0.201151 -0.0928367 0)
(-0.188241 -0.0319293 0)
(-0.172426 0.01937 0)
(-0.155288 0.0605323 0)
(-0.142202 0.0895588 0)
(-0.138189 0.1087 0)
(-0.144109 0.121716 0)
(-0.159296 0.136994 0)
(-0.181878 0.155634 0)
(-0.210426 0.179597 0)
(-0.250113 0.203263 0)
(-0.308306 0.229601 0)
(-0.404 0.254678 0)
(-0.538652 0.276022 0)
(-0.66938 0.292335 0)
(-0.757357 0.299866 0)
(-0.801579 0.300216 0)
(-0.817299 0.293486 0)
(-0.815901 0.280028 0)
(-0.803976 0.260166 0)
(-0.786081 0.234307 0)
(-0.763924 0.204046 0)
(-0.739873 0.171005 0)
(-0.714805 0.136995 0)
(-0.690499 0.10396 0)
(-0.666232 0.0722425 0)
(-0.641695 0.0415536 0)
(-0.172323 -0.239013 0)
(-0.193982 -0.255259 0)
(-0.208761 -0.267777 0)
(-0.215443 -0.262421 0)
(-0.215365 -0.232742 0)
(-0.214025 -0.177674 0)
(-0.211141 -0.112822 0)
(-0.20435 -0.0497929 0)
(-0.193482 0.00152535 0)
(-0.179742 0.0442335 0)
(-0.168806 0.0791666 0)
(-0.165945 0.103487 0)
(-0.170761 0.124045 0)
(-0.184573 0.143417 0)
(-0.205585 0.161072 0)
(-0.23086 0.181349 0)
(-0.264629 0.199299 0)
(-0.314219 0.221113 0)
(-0.40065 0.243593 0)
(-0.526874 0.26657 0)
(-0.654475 0.288039 0)
(-0.740731 0.300269 0)
(-0.781491 0.303356 0)
(-0.792931 0.297062 0)
(-0.786477 0.283344 0)
(-0.77006 0.262412 0)
(-0.748417 0.236092 0)
(-0.723805 0.205889 0)
(-0.697774 0.173188 0)
(-0.671005 0.139401 0)
(-0.644506 0.105257 0)
(-0.617857 0.0733708 0)
(-0.591728 0.0427435 0)
(-0.166452 -0.234736 0)
(-0.187271 -0.252382 0)
(-0.206623 -0.270334 0)
(-0.219156 -0.271487 0)
(-0.225471 -0.247228 0)
(-0.231782 -0.198296 0)
(-0.236577 -0.137275 0)
(-0.235045 -0.0740724 0)
(-0.23186 -0.0188359 0)
(-0.223419 0.0235982 0)
(-0.214209 0.062492 0)
(-0.211522 0.0925946 0)
(-0.213861 0.118665 0)
(-0.222949 0.138354 0)
(-0.237152 0.155053 0)
(-0.255025 0.172226 0)
(-0.278855 0.186945 0)
(-0.315731 0.206268 0)
(-0.388641 0.228426 0)
(-0.502697 0.25486 0)
(-0.624965 0.281065 0)
(-0.711192 0.298205 0)
(-0.751069 0.302496 0)
(-0.759337 0.296734 0)
(-0.749289 0.282897 0)
(-0.729373 0.262187 0)
(-0.70433 0.23606 0)
(-0.676685 0.205763 0)
(-0.648299 0.172643 0)
(-0.619955 0.138605 0)
(-0.591233 0.104242 0)
(-0.562703 0.071496 0)
(-0.535522 0.0403961 0)
(-0.169519 -0.230969 0)
(-0.190037 -0.249262 0)
(-0.21373 -0.269586 0)
(-0.232892 -0.275148 0)
(-0.246806 -0.255224 0)
(-0.261782 -0.211728 0)
(-0.274397 -0.155703 0)
(-0.278747 -0.096677 0)
(-0.280901 -0.0429018 0)
(-0.277833 0.00314954 0)
(-0.271282 0.0432725 0)
(-0.26716 0.0759931 0)
(-0.265977 0.103819 0)
(-0.268643 0.12244 0)
(-0.272718 0.138817 0)
(-0.280349 0.153708 0)
(-0.291482 0.168525 0)
(-0.312833 0.186533 0)
(-0.368615 0.208936 0)
(-0.468946 0.238274 0)
(-0.58522 0.269404 0)
(-0.672369 0.29045 0)
(-0.713611 0.297143 0)
(-0.720759 0.29238 0)
(-0.708191 0.278928 0)
(-0.685405 0.258076 0)
(-0.657953 0.231832 0)
(-0.628568 0.201274 0)
(-0.597827 0.168265 0)
(-0.566554 0.134447 0)
(-0.535046 0.100858 0)
(-0.503199 0.0680491 0)
(-0.472195 0.0375473 0)
(-0.18197 -0.227344 0)
(-0.200635 -0.243004 0)
(-0.227881 -0.263831 0)
(-0.254564 -0.271896 0)
(-0.275991 -0.255319 0)
(-0.298405 -0.216183 0)
(-0.31795 -0.165197 0)
(-0.32883 -0.11128 0)
(-0.334886 -0.0607346 0)
(-0.335372 -0.014077 0)
(-0.330365 0.0251013 0)
(-0.324078 0.0567494 0)
(-0.31909 0.0815537 0)
(-0.314382 0.100253 0)
(-0.309151 0.116408 0)
(-0.305377 0.129599 0)
(-0.301653 0.145708 0)
(-0.306551 0.16133 0)
(-0.343582 0.182061 0)
(-0.427012 0.212657 0)
(-0.536275 0.249608 0)