/*--------------------------------*- C++ -*----------------------------------*\
  =========                 |
  \\      /  F ield         | OpenFOAM: The Open Source CFD Toolbox
   \\    /   O peration     | Website:  https://openfoam.org
    \\  /    A nd           | Version:  11
     \\/     M anipulation  |
\*---------------------------------------------------------------------------*/
FoamFile
{
    format      ascii;
    class       volVectorField;
    location    "3";
    object      C;
}
// * * * * * * * * * * * * * * * * * * * * * * * * * * * * * * * * * * * * * //

dimensions      [0 1 0 0 0 0 0];

internalField   nonuniform List<vector> 
9600
(
(-3.07527 -7.47524 0.5)
(-2.82821 -7.47541 0.5)
(-2.58113 -7.47557 0.5)
(-2.33404 -7.47572 0.5)
(-2.08696 -7.47586 0.5)
(-1.83987 -7.476 0.5)
(-1.59276 -7.47613 0.5)
(-1.34566 -7.47625 0.5)
(-1.09855 -7.47636 0.5)
(-0.851435 -7.47646 0.5)
(-0.604315 -7.47656 0.5)
(-0.357191 -7.47664 0.5)
(-0.110063 -7.47672 0.5)
(0.137063 -7.47679 0.5)
(0.3842 -7.47684 0.5)
(0.631331 -7.47689 0.5)
(0.878474 -7.47693 0.5)
(1.12561 -7.47696 0.5)
(1.37275 -7.47698 0.5)
(1.61989 -7.47699 0.5)
(1.86703 -7.47699 0.5)
(2.11417 -7.47698 0.5)
(2.36131 -7.47696 0.5)
(2.60844 -7.47693 0.5)
(2.85559 -7.47689 0.5)
(3.10272 -7.47684 0.5)
(3.34985 -7.47679 0.5)
(3.59698 -7.47672 0.5)
(3.84411 -7.47664 0.5)
(4.09123 -7.47656 0.5)
(4.33835 -7.47646 0.5)
(4.58546 -7.47636 0.5)
(4.83258 -7.47625 0.5)
(5.07968 -7.47613 0.5)
(5.32678 -7.476 0.5)
(5.57388 -7.47586 0.5)
(5.82096 -7.47572 0.5)
(6.06805 -7.47557 0.5)
(6.31512 -7.47541 0.5)
(6.56219 -7.47524 0.5)
(-2.96206 -7.42555 0.5)
(-2.72088 -7.42605 0.5)
(-2.47969 -7.42653 0.5)
(-2.23847 -7.42699 0.5)
(-1.99723 -7.42742 0.5)
(-1.75598 -7.42783 0.5)
(-1.51471 -7.42821 0.5)
(-1.27343 -7.42857 0.5)
(-1.03213 -7.42891 0.5)
(-0.790817 -7.42922 0.5)
(-0.549497 -7.4295 0.5)
(-0.308163 -7.42976 0.5)
(-0.0668183 -7.42998 0.5)
(0.174535 -7.43018 0.5)
(0.415892 -7.43035 0.5)
(0.657263 -7.4305 0.5)
(0.898627 -7.43061 0.5)
(1.14001 -7.4307 0.5)
(1.38139 -7.43076 0.5)
(1.62277 -7.43078 0.5)
(1.86415 -7.43078 0.5)
(2.10553 -7.43076 0.5)
(2.34691 -7.4307 0.5)
(2.58829 -7.43061 0.5)
(2.82965 -7.4305 0.5)
(3.07103 -7.43035 0.5)
(3.31238 -7.43018 0.5)
(3.55373 -7.42998 0.5)
(3.79508 -7.42976 0.5)
(4.03641 -7.4295 0.5)
(4.27773 -7.42922 0.5)
(4.51905 -7.42891 0.5)
(4.76035 -7.42857 0.5)
(5.00163 -7.42821 0.5)
(5.2429 -7.42783 0.5)
(5.48415 -7.42742 0.5)
(5.72539 -7.42699 0.5)
(5.96661 -7.42653 0.5)
(6.2078 -7.42605 0.5)
(6.44898 -7.42555 0.5)
(-2.84886 -7.37586 0.5)
(-2.61357 -7.3767 0.5)
(-2.37824 -7.3775 0.5)
(-2.14289 -7.37825 0.5)
(-1.90751 -7.37898 0.5)
(-1.6721 -7.37966 0.5)
(-1.43666 -7.3803 0.5)
(-1.2012 -7.3809 0.5)
(-0.965711 -7.38146 0.5)
(-0.730207 -7.38197 0.5)
(-0.49468 -7.38244 0.5)
(-0.259134 -7.38287 0.5)
(-0.0235771 -7.38325 0.5)
(0.212003 -7.38358 0.5)
(0.447591 -7.38386 0.5)
(0.683185 -7.3841 0.5)
(0.918796 -7.38429 0.5)
(1.15441 -7.38444 0.5)
(1.39003 -7.38454 0.5)
(1.62565 -7.38458 0.5)
(1.86127 -7.38458 0.5)
(2.09689 -7.38454 0.5)
(2.33251 -7.38444 0.5)
(2.56812 -7.38429 0.5)
(2.80373 -7.3841 0.5)
(3.03932 -7.38386 0.5)
(3.27491 -7.38358 0.5)
(3.51049 -7.38325 0.5)
(3.74605 -7.38287 0.5)
(3.98159 -7.38244 0.5)
(4.21712 -7.38197 0.5)
(4.45263 -7.38146 0.5)
(4.68811 -7.3809 0.5)
(4.92357 -7.3803 0.5)
(5.15901 -7.37966 0.5)
(5.39442 -7.37898 0.5)
(5.62981 -7.37826 0.5)
(5.86515 -7.37749 0.5)
(6.10048 -7.3767 0.5)
(6.33577 -7.37586 0.5)
(-2.73565 -7.32618 0.5)
(-2.50624 -7.32734 0.5)
(-2.2768 -7.32846 0.5)
(-2.04731 -7.32952 0.5)
(-1.81778 -7.33053 0.5)
(-1.58821 -7.33149 0.5)
(-1.35861 -7.33239 0.5)
(-1.12896 -7.33322 0.5)
(-0.899298 -7.334 0.5)
(-0.669593 -7.33472 0.5)
(-0.439858 -7.33538 0.5)
(-0.21011 -7.33598 0.5)
(0.0196721 -7.33651 0.5)
(0.249471 -7.33698 0.5)
(0.479282 -7.33737 0.5)
(0.709112 -7.33771 0.5)
(0.938953 -7.33798 0.5)
(1.16881 -7.33818 0.5)
(1.39866 -7.33832 0.5)
(1.62853 -7.33838 0.5)
(1.85839 -7.33838 0.5)
(2.08826 -7.33832 0.5)
(2.31811 -7.33818 0.5)
(2.54796 -7.33798 0.5)
(2.7778 -7.33771 0.5)
(3.00763 -7.33737 0.5)
(3.23745 -7.33698 0.5)
(3.46725 -7.33651 0.5)
(3.69703 -7.33598 0.5)
(3.92677 -7.33538 0.5)
(4.15651 -7.33472 0.5)
(4.38621 -7.334 0.5)
(4.61588 -7.33322 0.5)
(4.84552 -7.33239 0.5)
(5.07513 -7.33149 0.5)
(5.3047 -7.33053 0.5)
(5.53423 -7.32952 0.5)
(5.76372 -7.32846 0.5)
(5.99316 -7.32734 0.5)
(6.22256 -7.32618 0.5)
(-2.62244 -7.27649 0.5)
(-2.39893 -7.27799 0.5)
(-2.17536 -7.27942 0.5)
(-1.95173 -7.28079 0.5)
(-1.72806 -7.28209 0.5)
(-1.50433 -7.28332 0.5)
(-1.28056 -7.28447 0.5)
(-1.05674 -7.28555 0.5)
(-0.832875 -7.28655 0.5)
(-0.608979 -7.28748 0.5)
(-0.385045 -7.28832 0.5)
(-0.161079 -7.28909 0.5)
(0.062917 -7.28977 0.5)
(0.286934 -7.29037 0.5)
(0.510981 -7.29088 0.5)
(0.735038 -7.29132 0.5)
(0.959119 -7.29166 0.5)
(1.1832 -7.29192 0.5)
(1.4073 -7.2921 0.5)
(1.6314 -7.29218 0.5)
(1.85551 -7.29218 0.5)
(2.07961 -7.2921 0.5)
(2.30371 -7.29192 0.5)
(2.52779 -7.29166 0.5)
(2.75188 -7.29132 0.5)
(2.97593 -7.29088 0.5)
(3.19998 -7.29037 0.5)
(3.424 -7.28977 0.5)
(3.64799 -7.28909 0.5)
(3.87196 -7.28832 0.5)
(4.09589 -7.28748 0.5)
(4.31979 -7.28655 0.5)
(4.54365 -7.28555 0.5)
(4.76747 -7.28447 0.5)
(4.99125 -7.28332 0.5)
(5.21497 -7.28209 0.5)
(5.43865 -7.28079 0.5)
(5.66227 -7.27942 0.5)
(5.88584 -7.27799 0.5)
(6.10935 -7.27649 0.5)
(-2.50923 -7.2268 0.5)
(-2.29161 -7.22863 0.5)
(-2.07391 -7.23039 0.5)
(-1.85616 -7.23206 0.5)
(-1.63834 -7.23364 0.5)
(-1.42044 -7.23515 0.5)
(-1.20251 -7.23656 0.5)
(-0.98451 -7.23787 0.5)
(-0.766461 -7.2391 0.5)
(-0.548362 -7.24023 0.5)
(-0.330228 -7.24126 0.5)
(-0.112051 -7.2422 0.5)
(0.106162 -7.24304 0.5)
(0.324405 -7.24377 0.5)
(0.542668 -7.2444 0.5)
(0.760973 -7.24492 0.5)
(0.979272 -7.24535 0.5)
(1.1976 -7.24566 0.5)
(1.41594 -7.24588 0.5)
(1.63428 -7.24598 0.5)
(1.85263 -7.24598 0.5)
(2.07097 -7.24588 0.5)
(2.28931 -7.24566 0.5)
(2.50764 -7.24535 0.5)
(2.72594 -7.24492 0.5)
(2.94425 -7.2444 0.5)
(3.16251 -7.24377 0.5)
(3.38075 -7.24304 0.5)
(3.59897 -7.2422 0.5)
(3.81715 -7.24126 0.5)
(4.03528 -7.24023 0.5)
(4.25338 -7.2391 0.5)
(4.47143 -7.23787 0.5)
(4.68942 -7.23655 0.5)
(4.90736 -7.23515 0.5)
(5.12525 -7.23364 0.5)
(5.34307 -7.23206 0.5)
(5.56083 -7.23039 0.5)
(5.77853 -7.22863 0.5)
(5.99614 -7.2268 0.5)
(-2.39602 -7.17711 0.5)
(-2.18429 -7.17928 0.5)
(-1.97247 -7.18135 0.5)
(-1.76058 -7.18333 0.5)
(-1.5486 -7.1852 0.5)
(-1.33656 -7.18697 0.5)
(-1.12445 -7.18864 0.5)
(-0.912277 -7.1902 0.5)
(-0.70004 -7.19165 0.5)
(-0.487752 -7.19299 0.5)
(-0.27541 -7.19421 0.5)
(-0.0630192 -7.19531 0.5)
(0.149403 -7.1963 0.5)
(0.361869 -7.19716 0.5)
(0.57437 -7.19791 0.5)
(0.786891 -7.19853 0.5)
(0.999441 -7.19903 0.5)
(1.212 -7.19941 0.5)
(1.42458 -7.19966 0.5)
(1.63716 -7.19978 0.5)
(1.84975 -7.19978 0.5)
(2.06233 -7.19966 0.5)
(2.27491 -7.19941 0.5)
(2.48747 -7.19903 0.5)
(2.70003 -7.19853 0.5)
(2.91255 -7.19791 0.5)
(3.12505 -7.19716 0.5)
(3.33751 -7.1963 0.5)
(3.54994 -7.19531 0.5)
(3.76233 -7.19421 0.5)
(3.97467 -7.19299 0.5)
(4.18696 -7.19165 0.5)
(4.39919 -7.1902 0.5)
(4.61137 -7.18864 0.5)
(4.82348 -7.18697 0.5)
(5.03552 -7.1852 0.5)
(5.2475 -7.18333 0.5)
(5.45939 -7.18135 0.5)
(5.6712 -7.17928 0.5)
(5.88293 -7.17711 0.5)
(-2.28281 -7.12742 0.5)
(-2.07697 -7.12992 0.5)
(-1.87103 -7.13231 0.5)
(-1.665 -7.13459 0.5)
(-1.45888 -7.13676 0.5)
(-1.25268 -7.1388 0.5)
(-1.0464 -7.14072 0.5)
(-0.840046 -7.14253 0.5)
(-0.633623 -7.1442 0.5)
(-0.427139 -7.14574 0.5)
(-0.220594 -7.14715 0.5)
(-0.0139951 -7.14842 0.5)
(0.192651 -7.14956 0.5)
(0.399336 -7.15056 0.5)
(0.606065 -7.15142 0.5)
(0.812818 -7.15214 0.5)
(1.0196 -7.15271 0.5)
(1.2264 -7.15315 0.5)
(1.43322 -7.15343 0.5)
(1.64004 -7.15358 0.5)
(1.84687 -7.15358 0.5)
(2.05369 -7.15343 0.5)
(2.26051 -7.15315 0.5)
(2.46732 -7.15271 0.5)
(2.6741 -7.15214 0.5)
(2.88085 -7.15142 0.5)
(3.08758 -7.15056 0.5)
(3.29427 -7.14956 0.5)
(3.50091 -7.14842 0.5)
(3.70751 -7.14715 0.5)
(3.91405 -7.14574 0.5)
(4.12054 -7.1442 0.5)
(4.32696 -7.14253 0.5)
(4.53332 -7.14072 0.5)
(4.7396 -7.1388 0.5)
(4.9458 -7.13676 0.5)
(5.15192 -7.13459 0.5)
(5.35795 -7.13231 0.5)
(5.56388 -7.12992 0.5)
(5.76973 -7.12742 0.5)
(-2.1696 -7.07774 0.5)
(-1.96965 -7.08057 0.5)
(-1.76959 -7.08328 0.5)
(-1.56942 -7.08586 0.5)
(-1.36916 -7.08831 0.5)
(-1.1688 -7.09063 0.5)
(-0.968349 -7.09281 0.5)
(-0.767817 -7.09485 0.5)
(-0.567209 -7.09675 0.5)
(-0.366523 -7.09849 0.5)
(-0.165777 -7.10009 0.5)
(0.0350321 -7.10153 0.5)
(0.235892 -7.10282 0.5)
(0.43681 -7.10396 0.5)
(0.637756 -7.10493 0.5)
(0.838748 -7.10574 0.5)
(1.03976 -7.1064 0.5)
(1.2408 -7.10689 0.5)
(1.44186 -7.10721 0.5)
(1.64292 -7.10738 0.5)
(1.84399 -7.10738 0.5)
(2.04505 -7.10721 0.5)
(2.24611 -7.10689 0.5)
(2.44715 -7.1064 0.5)
(2.64817 -7.10574 0.5)
(2.84916 -7.10493 0.5)
(3.0501 -7.10396 0.5)
(3.25102 -7.10282 0.5)
(3.45188 -7.10153 0.5)
(3.6527 -7.10009 0.5)
(3.85344 -7.09849 0.5)
(4.05413 -7.09675 0.5)
(4.25473 -7.09485 0.5)
(4.45527 -7.09281 0.5)
(4.65571 -7.09063 0.5)
(4.85607 -7.08831 0.5)
(5.05634 -7.08586 0.5)
(5.25651 -7.08328 0.5)
(5.45657 -7.08057 0.5)
(5.65652 -7.07774 0.5)
(-2.05639 -7.02805 0.5)
(-1.86233 -7.03121 0.5)
(-1.66815 -7.03424 0.5)
(-1.47385 -7.03713 0.5)
(-1.27943 -7.03987 0.5)
(-1.08492 -7.04246 0.5)
(-0.890295 -7.0449 0.5)
(-0.69559 -7.04718 0.5)
(-0.500789 -7.0493 0.5)
(-0.305913 -7.05125 0.5)
(-0.110957 -7.05303 0.5)
(0.0840562 -7.05464 0.5)
(0.27914 -7.05609 0.5)
(0.47427 -7.05735 0.5)
(0.669454 -7.05844 0.5)
(0.86467 -7.05935 0.5)
(1.05993 -7.06008 0.5)
(1.2552 -7.06063 0.5)
(1.4505 -7.06099 0.5)
(1.6458 -7.06118 0.5)
(1.84111 -7.06118 0.5)
(2.03642 -7.06099 0.5)
(2.23172 -7.06063 0.5)
(2.42699 -7.06008 0.5)
(2.62225 -7.05935 0.5)
(2.81746 -7.05844 0.5)
(3.01264 -7.05735 0.5)
(3.20777 -7.05609 0.5)
(3.40286 -7.05464 0.5)
(3.59787 -7.05303 0.5)
(3.79283 -7.05125 0.5)
(3.98771 -7.0493 0.5)
(4.18251 -7.04718 0.5)
(4.37721 -7.0449 0.5)
(4.57183 -7.04246 0.5)
(4.76634 -7.03987 0.5)
(4.96076 -7.03713 0.5)
(5.15507 -7.03424 0.5)
(5.34925 -7.03121 0.5)
(5.54331 -7.02805 0.5)
(-1.94319 -6.97836 0.5)
(-1.75501 -6.98186 0.5)
(-1.5667 -6.98521 0.5)
(-1.37827 -6.9884 0.5)
(-1.18971 -6.99143 0.5)
(-1.00103 -6.99429 0.5)
(-0.812248 -6.99698 0.5)
(-0.623358 -6.9995 0.5)
(-0.434372 -7.00184 0.5)
(-0.245301 -7.004 0.5)
(-0.0561442 -7.00597 0.5)
(0.133086 -7.00775 0.5)
(0.322384 -7.00935 0.5)
(0.51174 -7.01075 0.5)
(0.701145 -7.01195 0.5)
(0.890597 -7.01296 0.5)
(1.08009 -7.01376 0.5)
(1.2696 -7.01437 0.5)
(1.45913 -7.01478 0.5)
(1.64869 -7.01498 0.5)
(1.83823 -7.01498 0.5)
(2.02779 -7.01478 0.5)
(2.21732 -7.01437 0.5)
(2.40683 -7.01376 0.5)
(2.59632 -7.01296 0.5)
(2.78577 -7.01195 0.5)
(2.97518 -7.01075 0.5)
(3.16453 -7.00935 0.5)
(3.35383 -7.00775 0.5)
(3.54306 -7.00597 0.5)
(3.73222 -7.004 0.5)
(3.92129 -7.00184 0.5)
(4.11027 -6.9995 0.5)
(4.29916 -6.99698 0.5)
(4.48795 -6.99429 0.5)
(4.67663 -6.99143 0.5)
(4.86518 -6.9884 0.5)
(5.05362 -6.98521 0.5)
(5.24193 -6.98186 0.5)
(5.4301 -6.97836 0.5)
(-1.82998 -6.92867 0.5)
(-1.6477 -6.9325 0.5)
(-1.46527 -6.93617 0.5)
(-1.2827 -6.93967 0.5)
(-1.09998 -6.94298 0.5)
(-0.917152 -6.94612 0.5)
(-0.734198 -6.94907 0.5)
(-0.551127 -6.95183 0.5)
(-0.367959 -6.95439 0.5)
(-0.184685 -6.95675 0.5)
(-0.00133097 -6.95891 0.5)
(0.182113 -6.96087 0.5)
(0.365628 -6.96261 0.5)
(0.549204 -6.96415 0.5)
(0.732842 -6.96546 0.5)
(0.916522 -6.96657 0.5)
(1.10025 -6.96745 0.5)
(1.284 -6.96811 0.5)
(1.46777 -6.96856 0.5)
(1.65156 -6.96878 0.5)
(1.83536 -6.96878 0.5)
(2.01915 -6.96856 0.5)
(2.20292 -6.96811 0.5)
(2.38667 -6.96745 0.5)
(2.57039 -6.96657 0.5)
(2.75407 -6.96546 0.5)
(2.93771 -6.96415 0.5)
(3.12129 -6.96261 0.5)
(3.3048 -6.96087 0.5)
(3.48825 -6.95891 0.5)
(3.6716 -6.95675 0.5)
(3.85487 -6.95439 0.5)
(4.03804 -6.95183 0.5)
(4.22111 -6.94907 0.5)
(4.40407 -6.94612 0.5)
(4.5869 -6.94298 0.5)
(4.76961 -6.93967 0.5)
(4.95218 -6.93617 0.5)
(5.13461 -6.9325 0.5)
(5.31689 -6.92867 0.5)
(-1.71678 -6.87899 0.5)
(-1.54038 -6.88315 0.5)
(-1.36382 -6.88714 0.5)
(-1.18712 -6.89094 0.5)
(-1.01027 -6.89454 0.5)
(-0.833269 -6.89795 0.5)
(-0.656145 -6.90116 0.5)
(-0.478903 -6.90415 0.5)
(-0.301542 -6.90694 0.5)
(-0.124073 -6.90951 0.5)
(0.0534878 -6.91186 0.5)
(0.23114 -6.91398 0.5)
(0.408872 -6.91588 0.5)
(0.586673 -6.91754 0.5)
(0.764533 -6.91898 0.5)
(0.942452 -6.92017 0.5)
(1.1204 -6.92113 0.5)
(1.2984 -6.92185 0.5)
(1.47641 -6.92234 0.5)
(1.65444 -6.92258 0.5)
(1.83248 -6.92258 0.5)
(2.01051 -6.92234 0.5)
(2.18852 -6.92185 0.5)
(2.36651 -6.92113 0.5)
(2.54446 -6.92017 0.5)
(2.72238 -6.91898 0.5)
(2.90024 -6.91754 0.5)
(3.07804 -6.91588 0.5)
(3.25578 -6.91398 0.5)
(3.43343 -6.91186 0.5)
(3.61099 -6.90951 0.5)
(3.78846 -6.90694 0.5)
(3.96582 -6.90415 0.5)
(4.14306 -6.90116 0.5)
(4.32018 -6.89795 0.5)
(4.49718 -6.89454 0.5)
(4.67403 -6.89094 0.5)
(4.85074 -6.88714 0.5)
(5.02729 -6.88315 0.5)
(5.20369 -6.87899 0.5)
(-1.60357 -6.8293 0.5)
(-1.43307 -6.8338 0.5)
(-1.26238 -6.8381 0.5)
(-1.09154 -6.8422 0.5)
(-0.920541 -6.8461 0.5)
(-0.74939 -6.84978 0.5)
(-0.578097 -6.85324 0.5)
(-0.406673 -6.85648 0.5)
(-0.235124 -6.85949 0.5)
(-0.0634639 -6.86226 0.5)
(0.108303 -6.8648 0.5)
(0.280166 -6.8671 0.5)
(0.452115 -6.86914 0.5)
(0.624137 -6.87094 0.5)
(0.79623 -6.87249 0.5)
(0.968374 -6.87378 0.5)
(1.14057 -6.87482 0.5)
(1.31279 -6.8756 0.5)
(1.48506 -6.87612 0.5)
(1.65732 -6.87638 0.5)
(1.8296 -6.87638 0.5)
(2.00186 -6.87612 0.5)
(2.17413 -6.8756 0.5)
(2.34635 -6.87482 0.5)
(2.51854 -6.87378 0.5)
(2.69068 -6.87249 0.5)
(2.86278 -6.87094 0.5)
(3.0348 -6.86914 0.5)
(3.20675 -6.8671 0.5)
(3.37861 -6.8648 0.5)
(3.55038 -6.86226 0.5)
(3.72204 -6.85949 0.5)
(3.89359 -6.85648 0.5)
(4.06501 -6.85324 0.5)
(4.23631 -6.84978 0.5)
(4.40745 -6.8461 0.5)
(4.57846 -6.8422 0.5)
(4.7493 -6.8381 0.5)
(4.91998 -6.8338 0.5)
(5.09048 -6.8293 0.5)
(-1.49036 -6.77961 0.5)
(-1.32574 -6.78444 0.5)
(-1.16094 -6.78907 0.5)
(-0.995967 -6.79347 0.5)
(-0.830817 -6.79766 0.5)
(-0.665507 -6.80161 0.5)
(-0.500048 -6.80533 0.5)
(-0.334444 -6.80881 0.5)
(-0.168709 -6.81204 0.5)
(-0.00285237 -6.81502 0.5)
(0.163119 -6.81774 0.5)
(0.329192 -6.82021 0.5)
(0.495356 -6.82241 0.5)
(0.661606 -6.82434 0.5)
(0.827924 -6.826 0.5)
(0.9943 -6.82739 0.5)
(1.16073 -6.82851 0.5)
(1.3272 -6.82934 0.5)
(1.49369 -6.8299 0.5)
(1.6602 -6.83018 0.5)
(1.82672 -6.83018 0.5)
(1.99323 -6.8299 0.5)
(2.15972 -6.82934 0.5)
(2.32619 -6.8285 0.5)
(2.49262 -6.82739 0.5)
(2.65899 -6.826 0.5)
(2.82531 -6.82434 0.5)
(2.99156 -6.82241 0.5)
(3.15772 -6.82021 0.5)
(3.3238 -6.81774 0.5)
(3.48977 -6.81502 0.5)
(3.65563 -6.81204 0.5)
(3.82136 -6.80881 0.5)
(3.98697 -6.80533 0.5)
(4.15242 -6.80161 0.5)
(4.31773 -6.79766 0.5)
(4.48289 -6.79347 0.5)
(4.64786 -6.78907 0.5)
(4.81266 -6.78444 0.5)
(4.97728 -6.77961 0.5)
(-1.37715 -6.72992 0.5)
(-1.21843 -6.73509 0.5)
(-1.0595 -6.74003 0.5)
(-0.900389 -6.74474 0.5)
(-0.741095 -6.74922 0.5)
(-0.581629 -6.75344 0.5)
(-0.421999 -6.75742 0.5)
(-0.262217 -6.76114 0.5)
(-0.102295 -6.76459 0.5)
(0.0577613 -6.76777 0.5)
(0.217934 -6.77069 0.5)
(0.378218 -6.77332 0.5)
(0.538601 -6.77567 0.5)
(0.699072 -6.77774 0.5)
(0.859615 -6.77951 0.5)
(1.02023 -6.781 0.5)
(1.18089 -6.78219 0.5)
(1.34159 -6.78309 0.5)
(1.50233 -6.78368 0.5)
(1.66308 -6.78398 0.5)
(1.82384 -6.78398 0.5)
(1.98459 -6.78368 0.5)
(2.14533 -6.78309 0.5)
(2.30603 -6.78219 0.5)
(2.46669 -6.781 0.5)
(2.6273 -6.77951 0.5)
(2.78785 -6.77774 0.5)
(2.94832 -6.77567 0.5)
(3.1087 -6.77332 0.5)
(3.26898 -6.77069 0.5)
(3.42915 -6.76777 0.5)
(3.58921 -6.76459 0.5)
(3.74913 -6.76114 0.5)
(3.90891 -6.75742 0.5)
(4.06855 -6.75344 0.5)
(4.22801 -6.74922 0.5)
(4.38731 -6.74474 0.5)
(4.54642 -6.74003 0.5)
(4.70535 -6.73509 0.5)
(4.86407 -6.72992 0.5)
(-1.26395 -6.68024 0.5)
(-1.11111 -6.68574 0.5)
(-0.958067 -6.691 0.5)
(-0.804816 -6.69601 0.5)
(-0.651375 -6.70077 0.5)
(-0.497745 -6.70527 0.5)
(-0.34395 -6.7095 0.5)
(-0.189991 -6.71346 0.5)
(-0.0358785 -6.71714 0.5)
(0.11837 -6.72053 0.5)
(0.272751 -6.72363 0.5)
(0.427241 -6.72644 0.5)
(0.581844 -6.72894 0.5)
(0.736535 -6.73114 0.5)
(0.891308 -6.73303 0.5)
(1.04615 -6.73461 0.5)
(1.20105 -6.73587 0.5)
(1.356 -6.73683 0.5)
(1.51097 -6.73746 0.5)
(1.66596 -6.73778 0.5)
(1.82096 -6.73778 0.5)
(1.97595 -6.73746 0.5)
(2.13092 -6.73683 0.5)
(2.28587 -6.73587 0.5)
(2.44076 -6.73461 0.5)
(2.59561 -6.73303 0.5)
(2.75038 -6.73114 0.5)
(2.90507 -6.72894 0.5)
(3.05967 -6.72644 0.5)
(3.21416 -6.72363 0.5)
(3.36854 -6.72053 0.5)
(3.52279 -6.71714 0.5)
(3.67691 -6.71346 0.5)
(3.83087 -6.7095 0.5)
(3.98466 -6.70527 0.5)
(4.13829 -6.70077 0.5)
(4.29173 -6.69601 0.5)
(4.44499 -6.691 0.5)
(4.59803 -6.68574 0.5)
(4.75087 -6.68024 0.5)
(-1.15074 -6.63055 0.5)
(-1.0038 -6.63638 0.5)
(-0.856628 -6.64196 0.5)
(-0.709243 -6.64728 0.5)
(-0.561651 -6.65233 0.5)
(-0.413869 -6.6571 0.5)
(-0.265901 -6.66159 0.5)
(-0.117763 -6.66579 0.5)
(0.0305356 -6.66969 0.5)
(0.17898 -6.67329 0.5)
(0.327563 -6.67657 0.5)
(0.476269 -6.67955 0.5)
(0.625086 -6.6822 0.5)
(0.774002 -6.68454 0.5)
(0.923001 -6.68654 0.5)
(1.07208 -6.68822 0.5)
(1.22121 -6.68956 0.5)
(1.37039 -6.69057 0.5)
(1.5196 -6.69125 0.5)
(1.66884 -6.69158 0.5)
(1.81808 -6.69158 0.5)
(1.96731 -6.69125 0.5)
(2.11653 -6.69057 0.5)
(2.2657 -6.68956 0.5)
(2.41484 -6.68822 0.5)
(2.56391 -6.68654 0.5)
(2.71291 -6.68454 0.5)
(2.86183 -6.6822 0.5)
(3.01065 -6.67955 0.5)
(3.15935 -6.67657 0.5)
(3.30794 -6.67329 0.5)
(3.45638 -6.66969 0.5)
(3.60468 -6.66579 0.5)
(3.75282 -6.66159 0.5)
(3.90079 -6.6571 0.5)
(4.04857 -6.65233 0.5)
(4.19616 -6.64728 0.5)
(4.34354 -6.64196 0.5)
(4.49071 -6.63638 0.5)
(4.63766 -6.63055 0.5)
(-1.03754 -6.58087 0.5)
(-0.896484 -6.58703 0.5)
(-0.755189 -6.59293 0.5)
(-0.613669 -6.59855 0.5)
(-0.471931 -6.60389 0.5)
(-0.32999 -6.60893 0.5)
(-0.187854 -6.61368 0.5)
(-0.0455349 -6.61812 0.5)
(0.0969475 -6.62224 0.5)
(0.23959 -6.62604 0.5)
(0.382376 -6.62952 0.5)
(0.525293 -6.63266 0.5)
(0.668328 -6.63547 0.5)
(0.811465 -6.63793 0.5)
(0.954695 -6.64006 0.5)
(1.098 -6.64183 0.5)
(1.24137 -6.64325 0.5)
(1.38478 -6.64432 0.5)
(1.52824 -6.64503 0.5)
(1.67172 -6.64539 0.5)
(1.8152 -6.64539 0.5)
(1.95867 -6.64503 0.5)
(2.10213 -6.64432 0.5)
(2.24554 -6.64325 0.5)
(2.38891 -6.64183 0.5)
(2.53222 -6.64006 0.5)
(2.67545 -6.63793 0.5)
(2.81859 -6.63547 0.5)
(2.96162 -6.63266 0.5)
(3.10454 -6.62952 0.5)
(3.24733 -6.62604 0.5)
(3.38997 -6.62224 0.5)
(3.53245 -6.61812 0.5)
(3.67477 -6.61368 0.5)
(3.81691 -6.60893 0.5)
(3.95885 -6.60389 0.5)
(4.10058 -6.59855 0.5)
(4.2421 -6.59293 0.5)
(4.3834 -6.58703 0.5)
(4.52446 -6.58087 0.5)
(-0.924337 -6.53118 0.5)
(-0.78917 -6.53768 0.5)
(-0.653754 -6.54389 0.5)
(-0.518096 -6.54982 0.5)
(-0.382211 -6.55545 0.5)
(-0.24611 -6.56076 0.5)
(-0.109807 -6.56577 0.5)
(0.0266889 -6.57045 0.5)
(0.163361 -6.57479 0.5)
(0.300201 -6.5788 0.5)
(0.43719 -6.58246 0.5)
(0.574318 -6.58578 0.5)
(0.711568 -6.58874 0.5)
(0.848934 -6.59134 0.5)
(0.986387 -6.59357 0.5)
(1.12393 -6.59544 0.5)
(1.26152 -6.59693 0.5)
(1.39919 -6.59806 0.5)
(1.53688 -6.59881 0.5)
(1.6746 -6.59919 0.5)
(1.81232 -6.59919 0.5)
(1.95003 -6.59881 0.5)
(2.08772 -6.59806 0.5)
(2.22539 -6.59693 0.5)
(2.36299 -6.59544 0.5)
(2.50053 -6.59357 0.5)
(2.63798 -6.59133 0.5)
(2.77535 -6.58874 0.5)
(2.9126 -6.58578 0.5)
(3.04973 -6.58246 0.5)
(3.18672 -6.5788 0.5)
(3.32355 -6.57479 0.5)
(3.46023 -6.57045 0.5)
(3.59672 -6.56577 0.5)
(3.73303 -6.56076 0.5)
(3.86913 -6.55545 0.5)
(4.00501 -6.54982 0.5)
(4.14067 -6.54389 0.5)
(4.27608 -6.53768 0.5)
(4.41125 -6.53118 0.5)
(-0.811134 -6.48149 0.5)
(-0.681857 -6.48832 0.5)
(-0.552316 -6.49486 0.5)
(-0.422523 -6.50109 0.5)
(-0.292492 -6.50701 0.5)
(-0.162233 -6.5126 0.5)
(-0.0317589 -6.51786 0.5)
(0.0989124 -6.52277 0.5)
(0.229775 -6.52734 0.5)
(0.360809 -6.53156 0.5)
(0.492003 -6.53541 0.5)
(0.623344 -6.53889 0.5)
(0.754809 -6.542 0.5)
(0.886393 -6.54474 0.5)
(1.01808 -6.54709 0.5)
(1.14985 -6.54905 0.5)
(1.28169 -6.55062 0.5)
(1.41358 -6.5518 0.5)
(1.54552 -6.5526 0.5)
(1.67748 -6.55299 0.5)
(1.80944 -6.55299 0.5)
(1.94139 -6.5526 0.5)
(2.07333 -6.5518 0.5)
(2.20522 -6.55062 0.5)
(2.33707 -6.54905 0.5)
(2.46884 -6.54709 0.5)
(2.60052 -6.54474 0.5)
(2.73211 -6.542 0.5)
(2.86357 -6.53889 0.5)
(2.99491 -6.53541 0.5)
(3.12611 -6.53156 0.5)
(3.25714 -6.52734 0.5)
(3.388 -6.52277 0.5)
(3.51867 -6.51786 0.5)
(3.64915 -6.5126 0.5)
(3.7794 -6.50701 0.5)
(3.90944 -6.50109 0.5)
(4.03923 -6.49486 0.5)
(4.16877 -6.48832 0.5)
(4.29805 -6.48149 0.5)
(-0.697932 -6.43181 0.5)
(-0.574544 -6.43897 0.5)
(-0.45088 -6.44583 0.5)
(-0.326951 -6.45236 0.5)
(-0.202774 -6.45857 0.5)
(-0.0783552 -6.46443 0.5)
(0.0462856 -6.46995 0.5)
(0.171138 -6.4751 0.5)
(0.296187 -6.4799 0.5)
(0.421417 -6.48431 0.5)
(0.546815 -6.48836 0.5)
(0.672365 -6.49201 0.5)
(0.798051 -6.49527 0.5)
(0.923857 -6.49814 0.5)
(1.04977 -6.5006 0.5)
(1.17577 -6.50266 0.5)
(1.30185 -6.50431 0.5)
(1.42798 -6.50555 0.5)
(1.55416 -6.50638 0.5)
(1.68035 -6.50679 0.5)
(1.80656 -6.50679 0.5)
(1.93275 -6.50638 0.5)
(2.05893 -6.50555 0.5)
(2.18507 -6.50431 0.5)
(2.31114 -6.50266 0.5)
(2.43715 -6.5006 0.5)
(2.56306 -6.49814 0.5)
(2.68886 -6.49527 0.5)
(2.81455 -6.49201 0.5)
(2.9401 -6.48836 0.5)
(3.0655 -6.48431 0.5)
(3.19073 -6.47989 0.5)
(3.31578 -6.4751 0.5)
(3.44063 -6.46995 0.5)
(3.56527 -6.46443 0.5)
(3.68969 -6.45857 0.5)
(3.81387 -6.45236 0.5)
(3.9378 -6.44583 0.5)
(4.06146 -6.43897 0.5)
(4.18485 -6.43181 0.5)
(-0.58473 -6.38212 0.5)
(-0.467232 -6.38962 0.5)
(-0.349445 -6.3968 0.5)
(-0.231382 -6.40363 0.5)
(-0.113054 -6.41013 0.5)
(0.00551977 -6.41626 0.5)
(0.12433 -6.42204 0.5)
(0.243362 -6.42743 0.5)
(0.362597 -6.43245 0.5)
(0.482026 -6.43707 0.5)
(0.601628 -6.4413 0.5)
(0.721385 -6.44512 0.5)
(0.841291 -6.44854 0.5)
(0.961322 -6.45154 0.5)
(1.08146 -6.45412 0.5)
(1.2017 -6.45627 0.5)
(1.32201 -6.458 0.5)
(1.44238 -6.4593 0.5)
(1.56279 -6.46017 0.5)
(1.68323 -6.4606 0.5)
(1.80368 -6.4606 0.5)
(1.92412 -6.46017 0.5)
(2.04453 -6.4593 0.5)
(2.16491 -6.458 0.5)
(2.28522 -6.45627 0.5)
(2.40546 -6.45412 0.5)
(2.52559 -6.45154 0.5)
(2.64563 -6.44854 0.5)
(2.76553 -6.44512 0.5)
(2.88529 -6.4413 0.5)
(3.00489 -6.43707 0.5)
(3.12432 -6.43245 0.5)
(3.24356 -6.42743 0.5)
(3.36259 -6.42204 0.5)
(3.4814 -6.41626 0.5)
(3.59997 -6.41013 0.5)
(3.7183 -6.40363 0.5)
(3.83636 -6.3968 0.5)
(3.95415 -6.38962 0.5)
(4.07164 -6.38212 0.5)
(-0.47153 -6.33244 0.5)
(-0.359921 -6.34027 0.5)
(-0.248011 -6.34776 0.5)
(-0.135811 -6.35491 0.5)
(-0.0233386 -6.36169 0.5)
(0.0893959 -6.3681 0.5)
(0.202375 -6.37413 0.5)
(0.315583 -6.37976 0.5)
(0.429009 -6.385 0.5)
(0.542631 -6.38983 0.5)
(0.656437 -6.39425 0.5)
(0.770409 -6.39824 0.5)
(0.884531 -6.40181 0.5)
(0.998781 -6.40494 0.5)
(1.11315 -6.40763 0.5)
(1.22762 -6.40989 0.5)
(1.34217 -6.41169 0.5)
(1.45678 -6.41305 0.5)
(1.57143 -6.41395 0.5)
(1.68611 -6.4144 0.5)
(1.80081 -6.4144 0.5)
(1.91548 -6.41395 0.5)
(2.03014 -6.41305 0.5)
(2.14475 -6.41169 0.5)
(2.25929 -6.40989 0.5)
(2.37376 -6.40763 0.5)
(2.48813 -6.40494 0.5)
(2.60239 -6.40181 0.5)
(2.71651 -6.39824 0.5)
(2.83048 -6.39425 0.5)
(2.94428 -6.38983 0.5)
(3.05791 -6.385 0.5)
(3.17133 -6.37976 0.5)
(3.28454 -6.37413 0.5)
(3.39752 -6.3681 0.5)
(3.51025 -6.36169 0.5)
(3.62273 -6.35491 0.5)
(3.73493 -6.34776 0.5)
(3.84683 -6.34027 0.5)
(3.95845 -6.33244 0.5)
(-0.35833 -6.28276 0.5)
(-0.252612 -6.29092 0.5)
(-0.146578 -6.29873 0.5)
(-0.0402428 -6.30618 0.5)
(0.0663777 -6.31325 0.5)
(0.173269 -6.31993 0.5)
(0.280418 -6.32622 0.5)
(0.387806 -6.33209 0.5)
(0.495418 -6.33756 0.5)
(0.603237 -6.34259 0.5)
(0.711247 -6.3472 0.5)
(0.81943 -6.35136 0.5)
(0.927768 -6.35508 0.5)
(1.03625 -6.35834 0.5)
(1.14484 -6.36115 0.5)
(1.25354 -6.3635 0.5)
(1.36233 -6.36538 0.5)
(1.47117 -6.3668 0.5)
(1.58007 -6.36774 0.5)
(1.68899 -6.36821 0.5)
(1.79793 -6.36821 0.5)
(1.90685 -6.36774 0.5)
(2.01575 -6.3668 0.5)
(2.12459 -6.36538 0.5)
(2.23337 -6.3635 0.5)
(2.34207 -6.36115 0.5)
(2.45067 -6.35834 0.5)
(2.55915 -6.35507 0.5)
(2.66749 -6.35136 0.5)
(2.77567 -6.3472 0.5)
(2.88368 -6.34259 0.5)
(2.9915 -6.33756 0.5)
(3.09911 -6.33209 0.5)
(3.2065 -6.32622 0.5)
(3.31365 -6.31993 0.5)
(3.42054 -6.31325 0.5)
(3.52716 -6.30618 0.5)
(3.63349 -6.29873 0.5)
(3.73953 -6.29092 0.5)
(3.84525 -6.28276 0.5)
(-0.245132 -6.23307 0.5)
(-0.145303 -6.24157 0.5)
(-0.0451459 -6.2497 0.5)
(0.0553244 -6.25745 0.5)
(0.156092 -6.26481 0.5)
(0.257143 -6.27177 0.5)
(0.358459 -6.27831 0.5)
(0.460026 -6.28443 0.5)
(0.561826 -6.29011 0.5)
(0.663841 -6.29535 0.5)
(0.766055 -6.30015 0.5)
(0.86845 -6.30448 0.5)
(0.971005 -6.30835 0.5)
(1.07371 -6.31175 0.5)
(1.17653 -6.31467 0.5)
(1.27946 -6.31711 0.5)
(1.38248 -6.31908 0.5)
(1.48557 -6.32055 0.5)
(1.58871 -6.32153 0.5)
(1.69187 -6.32202 0.5)
(1.79505 -6.32202 0.5)
(1.89821 -6.32153 0.5)
(2.00135 -6.32055 0.5)
(2.10443 -6.31908 0.5)
(2.20745 -6.31711 0.5)
(2.31038 -6.31467 0.5)
(2.41321 -6.31175 0.5)
(2.51591 -6.30835 0.5)
(2.61847 -6.30448 0.5)
(2.72086 -6.30015 0.5)
(2.82308 -6.29535 0.5)
(2.92509 -6.29011 0.5)
(3.02689 -6.28443 0.5)
(3.12846 -6.27831 0.5)
(3.22977 -6.27177 0.5)
(3.33082 -6.26481 0.5)
(3.43159 -6.25745 0.5)
(3.53206 -6.2497 0.5)
(3.63222 -6.24157 0.5)
(3.73205 -6.23307 0.5)
(-0.131935 -6.18339 0.5)
(-0.0379952 -6.19222 0.5)
(0.0562846 -6.20067 0.5)
(0.15089 -6.20873 0.5)
(0.245806 -6.21637 0.5)
(0.341014 -6.22361 0.5)
(0.4365 -6.2304 0.5)
(0.532246 -6.23676 0.5)
(0.628231 -6.24267 0.5)
(0.724445 -6.24812 0.5)
(0.820863 -6.2531 0.5)
(0.917469 -6.2576 0.5)
(1.01424 -6.26162 0.5)
(1.11117 -6.26515 0.5)
(1.20822 -6.26819 0.5)
(1.30538 -6.27073 0.5)
(1.40264 -6.27277 0.5)
(1.49997 -6.2743 0.5)
(1.59734 -6.27532 0.5)
(1.69475 -6.27583 0.5)
(1.79217 -6.27583 0.5)
(1.88958 -6.27532 0.5)
(1.98695 -6.2743 0.5)
(2.08428 -6.27277 0.5)
(2.18153 -6.27073 0.5)
(2.2787 -6.26819 0.5)
(2.37575 -6.26515 0.5)
(2.47267 -6.26162 0.5)
(2.56945 -6.2576 0.5)
(2.66605 -6.2531 0.5)
(2.76247 -6.24812 0.5)
(2.85868 -6.24267 0.5)
(2.95467 -6.23676 0.5)
(3.05042 -6.2304 0.5)
(3.1459 -6.22361 0.5)
(3.24111 -6.21637 0.5)
(3.33603 -6.20873 0.5)
(3.43063 -6.20067 0.5)
(3.52491 -6.19222 0.5)
(3.61885 -6.18339 0.5)
(-0.01874 -6.13371 0.5)
(0.0693098 -6.14287 0.5)
(0.157714 -6.15164 0.5)
(0.246455 -6.16 0.5)
(0.335517 -6.16794 0.5)
(0.424884 -6.17544 0.5)
(0.514538 -6.18249 0.5)
(0.604462 -6.18909 0.5)
(0.694638 -6.19522 0.5)
(0.785046 -6.20088 0.5)
(0.875669 -6.20605 0.5)
(0.966485 -6.21072 0.5)
(1.05748 -6.2149 0.5)
(1.14862 -6.21856 0.5)
(1.23991 -6.22171 0.5)
(1.33131 -6.22435 0.5)
(1.4228 -6.22646 0.5)
(1.51436 -6.22805 0.5)
(1.60598 -6.22911 0.5)
(1.69763 -6.22964 0.5)
(1.78929 -6.22964 0.5)
(1.88094 -6.22911 0.5)
(1.97256 -6.22805 0.5)
(2.06412 -6.22646 0.5)
(2.15561 -6.22435 0.5)
(2.24701 -6.22171 0.5)
(2.33829 -6.21856 0.5)
(2.42944 -6.21489 0.5)
(2.52043 -6.21072 0.5)
(2.61125 -6.20605 0.5)
(2.70187 -6.20088 0.5)
(2.79228 -6.19522 0.5)
(2.88245 -6.18909 0.5)
(2.97238 -6.18249 0.5)
(3.06203 -6.17544 0.5)
(3.1514 -6.16794 0.5)
(3.24046 -6.16 0.5)
(3.3292 -6.15164 0.5)
(3.4176 -6.14287 0.5)
(3.50566 -6.13371 0.5)
(0.094454 -6.08403 0.5)
(0.176615 -6.09352 0.5)
(0.259141 -6.10261 0.5)
(0.342017 -6.11128 0.5)
(0.425227 -6.1195 0.5)
(0.508752 -6.12727 0.5)
(0.592575 -6.13459 0.5)
(0.676678 -6.14143 0.5)
(0.761042 -6.14778 0.5)
(0.845646 -6.15364 0.5)
(0.930473 -6.159 0.5)
(1.0155 -6.16385 0.5)
(1.10071 -6.16817 0.5)
(1.18608 -6.17197 0.5)
(1.2716 -6.17524 0.5)
(1.35723 -6.17797 0.5)
(1.44295 -6.18016 0.5)
(1.52876 -6.1818 0.5)
(1.61462 -6.1829 0.5)
(1.70051 -6.18345 0.5)
(1.78641 -6.18345 0.5)
(1.8723 -6.1829 0.5)
(1.95816 -6.1818 0.5)
(2.04397 -6.18016 0.5)
(2.12969 -6.17797 0.5)
(2.21532 -6.17524 0.5)
(2.30083 -6.17197 0.5)
(2.3862 -6.16817 0.5)
(2.47142 -6.16385 0.5)
(2.55645 -6.159 0.5)
(2.64127 -6.15364 0.5)
(2.72587 -6.14778 0.5)
(2.81024 -6.14143 0.5)
(2.89434 -6.13459 0.5)
(2.97816 -6.12727 0.5)
(3.06169 -6.1195 0.5)
(3.1449 -6.11128 0.5)
(3.22777 -6.10261 0.5)
(3.3103 -6.09352 0.5)
(3.39246 -6.08403 0.5)
(0.207646 -6.03434 0.5)
(0.283916 -6.04418 0.5)
(0.360567 -6.05358 0.5)
(0.437577 -6.06255 0.5)
(0.514934 -6.07107 0.5)
(0.592618 -6.07911 0.5)
(0.67061 -6.08668 0.5)
(0.748891 -6.09376 0.5)
(0.827442 -6.10034 0.5)
(0.906244 -6.10641 0.5)
(0.985274 -6.11196 0.5)
(1.06451 -6.11697 0.5)
(1.14395 -6.12145 0.5)
(1.22354 -6.12538 0.5)
(1.30328 -6.12877 0.5)
(1.38314 -6.13159 0.5)
(1.46311 -6.13386 0.5)
(1.54315 -6.13556 0.5)
(1.62326 -6.1367 0.5)
(1.70339 -6.13726 0.5)
(1.78353 -6.13726 0.5)
(1.86366 -6.1367 0.5)
(1.94377 -6.13556 0.5)
(2.02381 -6.13386 0.5)
(2.10378 -6.13159 0.5)
(2.18364 -6.12877 0.5)
(2.26337 -6.12538 0.5)
(2.34297 -6.12145 0.5)
(2.4224 -6.11697 0.5)
(2.50164 -6.11195 0.5)
(2.58067 -6.10641 0.5)
(2.65947 -6.10034 0.5)
(2.73802 -6.09376 0.5)
(2.8163 -6.08668 0.5)
(2.8943 -6.07911 0.5)
(2.97198 -6.07107 0.5)
(3.04934 -6.06255 0.5)
(3.12635 -6.05358 0.5)
(3.203 -6.04418 0.5)
(3.27927 -6.03435 0.5)
(0.320835 -5.98467 0.5)
(0.391216 -5.99483 0.5)
(0.461987 -6.00456 0.5)
(0.533137 -6.01383 0.5)
(0.604639 -6.02263 0.5)
(0.676481 -6.03096 0.5)
(0.748642 -6.03878 0.5)
(0.821101 -6.0461 0.5)
(0.893841 -6.05291 0.5)
(0.966839 -6.05918 0.5)
(1.04008 -6.06491 0.5)
(1.11353 -6.0701 0.5)
(1.18717 -6.07472 0.5)
(1.26099 -6.07879 0.5)
(1.33496 -6.08229 0.5)
(1.40906 -6.08522 0.5)
(1.48326 -6.08756 0.5)
(1.55754 -6.08932 0.5)
(1.63189 -6.09049 0.5)
(1.70626 -6.09108 0.5)
(1.78065 -6.09108 0.5)
(1.85503 -6.09049 0.5)
(1.92937 -6.08932 0.5)
(2.00365 -6.08756 0.5)
(2.07786 -6.08522 0.5)
(2.15196 -6.08229 0.5)
(2.22592 -6.07879 0.5)
(2.29974 -6.07472 0.5)
(2.37339 -6.07009 0.5)
(2.44684 -6.06491 0.5)
(2.52008 -6.05918 0.5)
(2.59307 -6.05291 0.5)
(2.66581 -6.04611 0.5)
(2.73827 -6.03878 0.5)
(2.81044 -6.03096 0.5)
(2.88228 -6.02263 0.5)
(2.95378 -6.01383 0.5)
(3.02493 -6.00456 0.5)
(3.0957 -5.99483 0.5)
(3.16608 -5.98467 0.5)
(0.434021 -5.93499 0.5)
(0.498513 -5.94549 0.5)
(0.563408 -5.95553 0.5)
(0.62869 -5.96511 0.5)
(0.694341 -5.9742 0.5)
(0.760341 -5.9828 0.5)
(0.82667 -5.99088 0.5)
(0.893309 -5.99844 0.5)
(0.960235 -6.00547 0.5)
(1.02743 -6.01195 0.5)
(1.09487 -6.01787 0.5)
(1.16253 -6.02323 0.5)
(1.2304 -6.02801 0.5)
(1.29844 -6.03221 0.5)
(1.36664 -6.03582 0.5)
(1.43497 -6.03884 0.5)
(1.50341 -6.04126 0.5)
(1.57193 -6.04308 0.5)
(1.64052 -6.0443 0.5)
(1.70914 -6.0449 0.5)
(1.77777 -6.0449 0.5)