/*--------------------------------*- C++ -*----------------------------------*\
  =========                 |
  \\      /  F ield         | OpenFOAM: The Open Source CFD Toolbox
   \\    /   O peration     | Website:  https://openfoam.org
    \\  /    A nd           | Version:  11
     \\/     M anipulation  |
\*---------------------------------------------------------------------------*/
FoamFile
{
    format      ascii;
    class       volScalarField;
    location    "3";
    object      mag(U);
}
// * * * * * * * * * * * * * * * * * * * * * * * * * * * * * * * * * * * * * //

dimensions      [0 1 -1 0 0 0 0];

internalField   nonuniform List<scalar> 
9600
(
0.978993
0.977614
0.970029
0.963264
0.962593
0.962657
0.946493
0.889365
0.843428
0.825784
0.825407
0.834025
0.863358
0.896845
0.929114
0.956944
0.989571
1.01997
1.05289
1.08515
1.11056
1.13717
1.15303
1.15318
1.14816
1.13723
1.11761
1.09086
1.0636
1.03803
1.01734
1.00056
0.989078
0.981333
0.97559
0.971176
0.967678
0.966084
0.966249
0.962898
0.979599
0.978803
0.976985
0.972915
0.969646
0.96578
0.956568
0.936814
0.920631
0.911989
0.911363
0.917699
0.94014
0.967802
0.989381
1.00946
1.03176
1.05593
1.08388
1.1102
1.13384
1.15769
1.17185
1.17291
1.16951
1.15826
1.13892
1.11094
1.08561
1.05849
1.03659
1.01566
1.00169
0.988124
0.980346
0.973475
0.970568
0.969013
0.966676
0.966291
0.978928
0.978105
0.976356
0.971491
0.967287
0.966949
0.963062
0.951992
0.929516
0.914487
0.913516
0.923402
0.941316
0.960417
0.979986
1.00245
1.02586
1.05284
1.08055
1.10969
1.13612
1.15679
1.17463
1.18173
1.17938
1.17002
1.15118
1.12479
1.09996
1.0751
1.05267
1.03516
1.02261
1.01114
1.00625
1.00086
0.996589
0.993003
0.99117
0.987977
0.978298
0.977401
0.97505
0.970799
0.969496
0.968673
0.96503
0.96039
0.951715
0.945289
0.947997
0.960924
0.978086
0.99731
1.01126
1.02575
1.04177
1.06056
1.08563
1.11119
1.13424
1.15578
1.17257
1.1783
1.17544
1.16462
1.14744
1.12385
1.09925
1.0742
1.05164
1.03208
1.01548
1.00123
0.989734
0.979974
0.973739
0.972659
0.970481
0.972222
0.977563
0.976652
0.974298
0.971528
0.969205
0.968176
0.970477
0.972884
0.973175
0.965519
0.960441
0.961647
0.967476
0.979492
0.995082
1.01513
1.03671
1.05992
1.08555
1.11112
1.13707
1.15703
1.17121
1.18143
1.18228
1.17429
1.15705
1.13274
1.10825
1.08341
1.05995
1.0416
1.02585
1.01525
1.00834
1.00186
0.998383
0.993873
0.992048
0.98716
0.976852
0.97601
0.973846
0.970962
0.969068
0.970689
0.975162
0.977658
0.976378
0.971024
0.970548
0.978737
0.993938
1.01183
1.02668
1.03947
1.05363
1.07001
1.09073
1.11417
1.13708
1.15621
1.17297
1.18196
1.18217
1.1733
1.15628
1.1344
1.1104
1.08543
1.06306
1.04309
1.02658
1.01164
0.999355
0.987423
0.97993
0.976633
0.973541
0.974964
0.976365
0.975566
0.973335
0.970648
0.969951
0.973325
0.979129
0.982148
0.981433
0.980517
0.981846
0.985515
0.990591
0.996549
1.00732
1.0244
1.04466
1.067
1.09204
1.11506
1.13899
1.15957
1.17278
1.18105
1.18623
1.18053
1.16437
1.14231
1.11826
1.09317
1.06955
1.04938
1.0326
1.0206
1.01166
1.00461
1.00034
0.994833
0.992452
0.987243
0.975913
0.975132
0.972851
0.970883
0.971438
0.976038
0.981846
0.984532
0.984016
0.983459
0.986903
0.992689
1.00205
1.0171
1.032
1.04571
1.06053
1.07773
1.09769
1.11912
1.14165
1.15887
1.17598
1.18621
1.18858
1.18148
1.16625
1.14608
1.12292
1.0984
1.07469
1.05341
1.0355
1.02015
1.00799
0.995206
0.986647
0.981117
0.976962
0.977415
0.975531
0.974774
0.972568
0.971507
0.972874
0.978419
0.98401
0.985608
0.98514
0.986347
0.991286
0.998312
1.00663
1.01473
1.02348
1.03638
1.05382
1.07388
1.09745
1.11965
1.14246
1.1632
1.17677
1.18413
1.18997
1.18817
1.17343
1.15374
1.13001
1.10575
1.08176
1.05965
1.04088
1.02724
1.01622
1.00773
1.00278
0.996556
0.99352
0.987444
0.975112
0.974417
0.972446
0.972248
0.97445
0.980587
0.985039
0.986745
0.98775
0.988086
0.991252
0.997388
1.00794
1.02295
1.03791
1.05147
1.06663
1.08386
1.10354
1.12367
1.1466
1.16384
1.17952
1.19192
1.19528
1.1913
1.17766
1.15888
1.13676
1.11155
1.087
1.0643
1.04459
1.02846
1.01488
1.00288
0.99401
0.986303
0.98076
0.979727
0.974867
0.974182
0.972588
0.973075
0.976046
0.982212
0.986165
0.987637
0.988231
0.987876
0.991725
1.00097
1.01185
1.025
1.0375
1.05011
1.06616
1.08377
1.10494
1.12531
1.14696
1.16809
1.18264
1.19094
1.19571
1.19688
1.18489
1.16666
1.14411
1.11992
1.09556
1.07313
1.0513
1.03532
1.02223
1.01203
1.00608
0.998417
0.995147
0.9881
0.974561
0.973849
0.972955
0.973847
0.977668
0.983475
0.98679
0.987974
0.988604
0.988213
0.992573
1.00043
1.00989
1.0251
1.04329
1.05872
1.07474
1.0922
1.11154
1.12984
1.15196
1.17064
1.18492
1.19797
1.20442
1.20252
1.19104
1.17413
1.1522
1.12692
1.10177
1.07793
1.05624
1.03827
1.02302
1.01032
1.00041
0.99184
0.986234
0.982287
0.974465
0.973782
0.973475
0.974676
0.979083
0.98419
0.986873
0.987955
0.988363
0.988762
0.990675
0.99897
1.01088
1.02721
1.04537
1.0609
1.07731
1.09469
1.11439
1.13357
1.15297
1.17425
1.19028
1.20045
1.20522
1.20725
1.19905
1.1818
1.16119
1.13712
1.11084
1.08765
1.06402
1.04471
1.02965
1.01769
1.00984
1.00076
0.997399
0.989743
0.974195
0.973672
0.973809
0.975454
0.980258
0.984514
0.986719
0.987803
0.987948
0.988016
0.990122
0.99881
1.00962
1.02379
1.04348
1.06403
1.08365
1.10301
1.12291
1.14047
1.15985
1.1794
1.19304
1.20654
1.21444
1.21422
1.20749
1.19088
1.1701
1.14537
1.11909
1.09408
1.07099
1.05087
1.03344
1.01903
1.00759
0.997288
0.99191
0.985228
0.974033
0.973755
0.974118
0.976101
0.98057
0.983956
0.986021
0.986869
0.986666
0.987494
0.989209
0.995998
1.00573
1.02197
1.04417
1.06624
1.08672
1.10716
1.12664
1.14755
1.16356
1.18248
1.2002
1.21179
1.21765
1.21944
1.21439
1.20021
1.18015
1.15668
1.12933
1.10408
1.07947
1.05737
1.03952
1.02536
1.01527
1.00437
0.999401
0.992725
0.973505
0.973491
0.973925
0.976026
0.979846
0.982872
0.985267
0.985654
0.985838
0.987401
0.989284
0.995249
1.00575
1.01957
1.04035
1.0642
1.08673
1.11097
1.13423
1.15548
1.17374
1.19215
1.20716
1.21858
1.22645
1.22803
1.22326
1.21078
1.19167
1.16804
1.14134
1.11424
1.08794
1.06554
1.0462
1.02976
1.01656
1.00438
0.997117
0.989143
0.973482
0.973571
0.974092
0.976388
0.979754
0.982661
0.984927
0.984464
0.985055
0.987215
0.989855
0.996067
1.0054
1.0171
1.03717
1.06196
1.08752
1.1128
1.13565
1.16091
1.18032
1.19697
1.21497
1.22692
1.23335
1.23591
1.23153
1.22082
1.20249
1.17949
1.15234
1.12558
1.09832
1.07395
1.05294
1.03559
1.0229
1.011
1.00291
0.995475
0.97269
0.972889
0.973677
0.97645
0.979031
0.981064
0.983531
0.981946
0.98152
0.98532
0.989675
0.994493
1.00326
1.01628
1.03374
1.0571
1.08337
1.11029
1.13725
1.16351
1.18681
1.20697
1.22404
1.23612
1.24485
1.24852
1.2446
1.2355
1.21795
1.1944
1.167
1.13979
1.11084
1.08463
1.06221
1.04306
1.02713
1.01338
1.00242
0.994222
0.972635
0.973337
0.974385
0.977309
0.980437
0.980913
0.981876
0.980178
0.978351
0.982073
0.988003
0.992711
1.00168
1.0143
1.03176
1.05114
1.07683
1.10675
1.13524
1.163
1.19004
1.2122
1.23102
1.24641
1.2556
1.25965
1.25615
1.24836
1.23234
1.21088
1.18221
1.1545
1.12482
1.09804
1.07215
1.05167
1.03343
1.01984
1.0078
0.999024
0.971726
0.972534
0.97359
0.975511
0.978949
0.978968
0.978381
0.977329
0.975988
0.977798
0.985413
0.992471
1.00053
1.01225
1.02924
1.04916
1.07227
1.09942
1.12945
1.15847
1.18654
1.2141
1.23761
1.25592
1.26764
1.27465
1.27196
1.26415
1.2491
1.22947
1.20045
1.17137
1.14065
1.11282
1.0842
1.06254
1.04211
1.02584
1.01141
0.999394
0.9721
0.973134
0.974382
0.975902
0.978534
0.97899
0.97702
0.97556
0.97582
0.976332
0.982595
0.991062
1.00099
1.01164
1.02825
1.04797
1.069
1.09419
1.12261
1.15244
1.18151
1.21042
1.23701
1.26117
1.27728
1.28881
1.2892
1.28348
1.26751
1.24941
1.22077
1.19138
1.15738
1.12909
1.09938
1.07524
1.05139
1.03352
1.01842
1.00497
0.970565
0.971304
0.972238
0.972767
0.973495
0.973827
0.973177
0.971116
0.973385
0.975781
0.980342
0.987911
1.00024
1.01311
1.02785
1.04735
1.06897
1.09265
1.11812
1.14663
1.17458
1.20359
1.23095
1.25995
1.28099
1.29925
1.30572
1.30572
1.29074
1.2728
1.2449
1.21529
1.17914
1.14786
1.11663
1.08972
1.06525
1.04348
1.02664
1.01019
0.97062
0.9713
0.97235
0.972263
0.971697
0.971217
0.971741
0.971138
0.973253
0.976679
0.982565
0.988078
0.998748
1.01391
1.02975
1.04905
1.06978
1.09385
1.11772
1.14431
1.16954
1.19869
1.22369
1.25333
1.27689
1.30209
1.31478
1.32389
1.31573
1.30129
1.27252
1.24278
1.20605
1.17179
1.13565
1.10711
1.08039
1.05696
1.03712
1.0192
0.968127
0.967462
0.967521
0.967718
0.965938
0.96468
0.965282
0.966404
0.970241
0.974155
0.980569
0.989652
0.999107
1.01397
1.03083
1.05174
1.07185
1.09718
1.12005
1.14741
1.16978
1.1974
1.21938
1.24802
1.26995
1.29707
1.31517
1.33267
1.33511
1.32961
1.30584
1.27664
1.23734
1.20088
1.16239
1.12848
1.09791
1.0715
1.0511
1.02998
0.967467
0.967211
0.965589
0.965282
0.965184
0.963379
0.963593
0.965211
0.969612
0.976209
0.981927
0.992083
1.00343
1.01947
1.03342
1.05591
1.07522
1.10195
1.12388
1.15265
1.1733
1.20123
1.22143
1.24838
1.26863
1.2942
1.31243
1.33307
1.34286
1.349
1.33622
1.31401
1.27618
1.23812
1.19527
1.15609
1.12174
1.09086
1.06782
1.04235
0.961928
0.961335
0.959742
0.957144
0.95734
0.957775
0.958325
0.960227
0.963759
0.971912
0.978877
0.991437
1.00127
1.02198
1.03704
1.06118
1.07903
1.10812
1.12833
1.15819
1.1781
1.20669
1.22634
1.25492
1.27382
1.30033
1.31641
1.33815
1.34671
1.3582
1.35476
1.34679
1.31736
1.28127
1.23784
1.19391
1.1548
1.11584
1.08942
1.06033
0.959802
0.958691
0.957758
0.956028
0.95512
0.955997
0.958127
0.962382
0.9647
0.973765
0.979269
0.994988
1.00491
1.02643
1.04064
1.06845
1.08562
1.1152
1.13471
1.16471
1.18282
1.21251
1.23077
1.26098
1.27984
1.31051
1.32684
1.35264
1.362
1.3741
1.36991
1.36593
1.34951
1.32407
1.2867
1.24098
1.19814
1.15307
1.12173
1.08377
0.951521
0.949646
0.94748
0.946981
0.946655
0.949018
0.949603
0.956472
0.959686
0.971883
0.977308
0.993905
1.00404
1.02753
1.04196
1.07014
1.08883
1.12003
1.1391
1.16993
1.18809
1.21698
1.23502
1.26498
1.28417
1.31556
1.33705
1.36593
1.38276
1.40066
1.40166
1.39665
1.37947
1.35595
1.32782
1.29085
1.25425
1.20179
1.16702
1.11801
0.948996
0.948205
0.945689
0.945183
0.943928
0.948635
0.949114
0.957797
0.960466
0.973722
0.981236
1.00012
1.01138
1.03489
1.05079
1.07939
1.09777
1.12716
1.14627
1.17447
1.19301
1.22004
1.2386
1.26582
1.2871
1.31689
1.34141
1.37324
1.39761
1.42362
1.43679
1.44127
1.43081
1.40578
1.37693
1.33296
1.30109
1.25127
1.22685
1.17143
0.93676
0.937372
0.933352
0.935028
0.932587
0.939041
0.939525
0.949326
0.954174
0.968549
0.977472
0.996847
1.01174
1.03528
1.05512
1.08163
1.10426
1.1312
1.15261
1.17779
1.19807
1.22034
1.24198
1.26415
1.28874
1.31391
1.34424
1.37465
1.40827
1.43724
1.4646
1.47803
1.48717
1.46828
1.45447
1.40336
1.37016
1.3095
1.27486
1.22672
0.932831
0.935369
0.930949
0.933945
0.932758
0.938823
0.942246
0.951537
0.959805
0.971922
0.986726
1.00232
1.02386
1.04222
1.06806
1.08951
1.11715
1.13835
1.16549
1.18283
1.20831
1.2234
1.24856
1.26288
1.29217
1.3094
1.34672
1.36983
1.41785
1.44367
1.49238
1.50619
1.53894
1.53021
1.53094
1.49196
1.46821
1.40517
1.36868
1.30199
0.915759
0.918884
0.915735
0.917893
0.919972
0.924541
0.933533
0.939438
0.955239
0.963993
0.986795
0.99879
1.02704
1.04394
1.07456
1.09377
1.12458
1.14265
1.17091
1.18561
1.21124
1.22373
1.24823
1.26312
1.28946
1.30808
1.344
1.36674
1.42006
1.44197
1.51189
1.5286
1.59119
1.58567
1.6178
1.5846
1.58102
1.52186
1.49191
1.41847
0.914031
0.914665
0.915107
0.914326
0.922588
0.923378
0.939776
0.943393
0.964443
0.974829
0.998351
1.01422
1.04216
1.06108
1.09128
1.11192
1.13963
1.15957
1.18335
1.20015
1.21985
1.23514
1.253
1.26936
1.28934
1.30981
1.33622
1.36194
1.40578
1.43659
1.50592
1.53287
1.61094
1.62684
1.68017
1.66894
1.69
1.64797
1.63326
1.57834
0.89661
0.894527
0.900549
0.897309
0.909511
0.912602
0.927649
0.939579
0.957287
0.976037
0.997207
1.02017
1.0458
1.07055
1.09814
1.12309
1.14703
1.16937
1.1892
1.20681
1.22469
1.23914
1.25545
1.27184
1.28812
1.30586
1.32593
1.34808
1.37383
1.41016
1.44564
1.49813
1.54783
1.59495
1.62073
1.66052
1.6638
1.6993
1.67342
1.69199
0.887333
0.891148
0.8953
0.902625
0.909748
0.926278
0.936795
0.959716
0.975143
1.00098
1.02236
1.04837
1.07436
1.1009
1.12725
1.15192
1.17483
1.1959
1.21356
1.23115
1.24458
1.25873
1.26973
1.28382
1.2931
1.30742
1.31477
1.32466
1.33101
1.34353
1.35064
1.37141
1.37328
1.36216
1.33536
1.34965
1.34901
1.41728
1.41592
1.51674
0.858531
0.871971
0.874148
0.887833
0.895845
0.915919
0.932944
0.956582
0.981483
1.00683
1.03597
1.06178
1.0919
1.11892
1.14647
1.17084
1.19662
1.21638
1.2359
1.24844
1.25898
1.26547
1.27354
1.27677
1.28296
1.28326
1.27777
1.27045
1.25651
1.23132
1.19443
1.14229
1.05348
0.863658
0.802694
0.836444
0.907056
0.974054
0.998433
1.0349
0.864245
0.876149
0.894472
0.910955
0.936196
0.956148
0.985022
1.00799
1.03889
1.0668
1.09781
1.12813
1.15715
1.18616
1.20998
1.23232
1.24689
1.25716
1.26119
1.2627
1.26325
1.26361
1.26365
1.2631
1.25949
1.24953
1.2285
1.20209
1.14735
1.0816
0.970252
0.836042
0.525241
0.424997
0.530257
0.658686
0.744382
0.779693
0.797992
0.792705
0.832861
0.852499
0.875047
0.896041
0.925317
0.954947
0.991077
1.02651
1.06315
1.09993
1.13251
1.16673
1.1923
1.22031
1.23589
1.25309
1.25718
1.26082
1.25385
1.24658
1.23372
1.22451
1.2225
1.22028
1.20545
1.17656
1.11475
1.03338
0.919723
0.7573
0.57837
0.257995
0.156576
0.244658
0.330332
0.372857
0.42353
0.507576
0.591357
0.627189
0.902779
0.944327
0.989724
1.029
1.06669
1.10306
1.1363
1.17109
1.19772
1.22669
1.24348
1.26335
1.26864
1.28242
1.27847
1.28369
1.26689
1.25702
1.22593
1.2036
1.16234
1.13819
1.0897
1.06316
0.990764
0.900871
0.77223
0.592874
0.348725
0.115137
0.0294781
0.0561752
0.0299957
0.0727063
0.0851114
0.107081
0.140627
0.195543
0.265609
0.325621
1.01582
1.05077
1.08147
1.11501
1.14624
1.17378
1.19551
1.21273
1.22459
1.23031
1.22864
1.22664
1.21532
1.20918
1.18282
1.16446
1.11678
1.08066
1.01007
0.956238
0.861423
0.788906
0.673152
0.621315
0.37349
0.125353
0.242545
0.226577
0.170118
0.178431
0.183195
0.181621
0.191875
0.200911
0.211362
0.225559
0.241185
0.252917
0.274929
0.29421
0.976886
0.977835
0.982527
0.982204
0.980227
0.976998
0.980994
0.983692
0.987391
0.99117
0.99417
0.996993
0.999666
1.00194
1.00338
1.00476
1.0065
1.00756
1.00767
1.008
1.0081
1.00791
1.00777
1.00776
1.00792
1.00799
1.0079
1.0077
1.00757
1.00744
1.0073
1.00712
1.00696
1.0068
1.00666
1.00642
1.00599
1.00594
1.00561
1.01014
0.979253
0.978056
0.981239
0.981731
0.978812
0.976055
0.97972
0.983238
0.986783
0.9908
0.993881
0.996774
0.999565
1.0021
1.00373
1.00488
1.00648
1.00761
1.00779
1.00799
1.00806
1.00782
1.00772
1.00784
1.00803
1.00809
1.00804
1.00789
1.0077
1.00757
1.00744
1.0073
1.00719
1.00708
1.00696
1.00675
1.00642
1.00587
1.00476
1.00414
0.980405
0.977837
0.979699
0.981113
0.977236
0.975129
0.97836
0.982771
0.986483
0.990777
0.993984
0.996919
0.99975
1.00258
1.00442
1.00554
1.00709
1.00815
1.00832
1.00818
1.00806
1.00791
1.00793
1.0081
1.0083
1.00841
1.00832
1.00814
1.00793
1.00779
1.00765
1.00758
1.00748
1.00738
1.00725
1.00696
1.00684
1.00669
1.00684
1.00918
0.979452
0.977239
0.978288
0.979785
0.975412
0.97366
0.976829
0.981793
0.985976
0.990578
0.993811
0.996741
0.999605
1.00265
1.00487
1.00594
1.00737
1.00823
1.00829
1.00802
1.00793
1.00796
1.00814
1.00836
1.00846
1.0086
1.00859
1.00841
1.00833
1.00822
1.00803
1.00792
1.00777
1.00769
1.00759
1.00722
1.00695
1.00654
1.00572
1.00433
0.980799
0.977181
0.976961
0.978214
0.973794
0.972299
0.975269
0.980962
0.985747
0.990754
0.994115
0.996976
0.99984
1.00309
1.00564
1.0068
1.0079
1.00835
1.00839
1.00824
1.00821
1.00836
1.00851
1.00867
1.00871
1.00888
1.00887
1.00867
1.00865
1.00855
1.00834
1.00825
1.00804
1.0079
1.00786
1.00761
1.00747
1.00736
1.00741
1.00847
0.98004
0.976196
0.975192
0.975951
0.971526
0.970377
0.973487
0.979637
0.985156
0.990606
0.994001
0.996723
0.999712
1.00322
1.006
1.0073
1.00807
1.00829
1.00829
1.00834
1.00845
1.00868
1.00885
1.00897
1.00898
1.0091
1.00903
1.00892
1.00901
1.00889
1.00868
1.00857
1.00829
1.00814
1.00801
1.00776
1.00757
1.00728
1.00668
1.00553
0.981339
0.976179
0.973561
0.973528
0.969453
0.96832
0.971423
0.978482
0.985043
0.991005
0.994461
0.997071
1.00027
1.00381
1.00654
1.00768
1.00801
1.00822
1.00837
1.00854
1.00877
1.00909
1.0092
1.00926
1.00935
1.00948
1.0094
1.00929
1.00935
1.00925
1.009
1.00884
1.00857
1.00839
1.00836
1.00816
1.00805
1.00795
1.00795
1.00828
0.980857
0.974941
0.971374
0.970606
0.966685
0.965779
0.969139
0.976842
0.984399
0.990879
0.994325
0.996915
1.0005
1.00418
1.00678
1.00754
1.0078
1.00813
1.00849
1.00871
1.00895
1.00919
1.00933
1.00951
1.00962
1.00976
1.00975
1.00975
1.00982
1.00975
1.00953
1.00925
1.00894
1.00864
1.00855
1.00829
1.00817
1.00795
1.00759
1.00679
0.981974
0.975224
0.969239
0.967421
0.963673
0.962769
0.966355
0.975334
0.984383
0.991312
0.994732
0.997483
1.00151
1.00499
1.00683
1.00731
1.00757
1.00823
1.00887
1.00914
1.00933
1.00967
1.00959
1.00961
1.00978
1.00989
1.01004
1.01015
1.01013
1.01009
1.00988
1.00964
1.00943
1.00911
1.00906
1.00875
1.00864
1.00851
1.00849
1.00846
0.981409
0.973851
0.966724
0.963824
0.960274
0.959012
0.963045
0.972982
0.983916
0.991287
0.994589
0.99764
1.00222
1.00525
1.00661
1.00704
1.00749
1.00828
1.00906
1.00929
1.00958
1.01004
1.0101
1.0101
1.01022
1.01021
1.01035
1.01053
1.01043
1.01046
1.01032
1.01
1.00977
1.00944
1.00935
1.009
1.00883
1.00861
1.00839
1.00788
0.982648
0.974379
0.96453
0.959913
0.955809
0.954527
0.959114
0.97058
0.983891
0.991971
0.995251
0.998555
1.00348
1.00556
1.0063
1.0068
1.00754
1.00854
1.0095
1.00989
1.01014
1.01057
1.01068
1.01071
1.01076
1.01055
1.01067
1.01088
1.0107
1.01066
1.01055
1.01035
1.01021
1.00993
1.00988
1.00953
1.0093
1.00909
1.009
1.00886
0.981624
0.972851
0.961884
0.955608
0.951168
0.949026
0.954194
0.967131
0.983109
0.992241
0.995751
0.999098
1.00401
1.00552
1.00614
1.00674
1.00774
1.00881
1.00986
1.01026
1.01042
1.01092
1.01122
1.01148
1.01153
1.0114
1.01141
1.01143
1.01106
1.01093
1.01084
1.0106
1.01051
1.01022
1.01017
1.00992
1.00962
1.00935
1.00905
1.00882
0.983019
0.973514
0.960009
0.951007
0.94496
0.942291
0.948023
0.962906
0.982263
0.993549
0.997483
1.00059
1.00491
1.00593
1.00619
1.0069
1.00838
1.0094
1.01038
1.01087
1.01092
1.01135
1.0118
1.01197
1.01199
1.01194
1.01203
1.01202
1.01157
1.01141
1.01129
1.01104
1.011
1.01074
1.01067
1.01048
1.01015
1.0099
1.00952
1.00941
0.981526
0.971245
0.957313
0.945785
0.93863
0.934558
0.94026
0.95659
0.979971
0.99443
0.999334
1.00156
1.00529
1.00644
1.0065
1.00739
1.00909
1.00998
1.01066
1.01138
1.01145
1.01197
1.01244
1.01257
1.01269
1.01273
1.01279
1.01259
1.01213
1.01194
1.01182
1.01145
1.01147
1.01111
1.01103
1.01085
1.01055
1.01029
1.00978
1.00962
0.983271
0.971272
0.955622
0.940415
0.930794
0.925555
0.930481
0.948088
0.976764
0.996296
1.00267
1.00389
1.00649
1.0077
1.00752
1.00853
1.00983
1.01043
1.01103
1.0119
1.01225
1.01271
1.01324
1.01349
1.01331
1.01335
1.01339
1.01323
1.01285
1.01255
1.01242
1.01195
1.01208
1.01162
1.01145
1.01117
1.01087
1.01061
1.01031
1.01028
0.98179
0.968456
0.952548
0.93443
0.922989
0.915741
0.918101
0.93614
0.971548
0.997242
1.00584
1.00619
1.00784
1.00939
1.00912
1.00973
1.01037
1.01094
1.01156
1.01243
1.013
1.01359
1.01419
1.0146
1.01432
1.01429
1.01409
1.01381
1.0135
1.01316
1.01306
1.01255
1.01267
1.01223
1.01215
1.01171
1.0114
1.01097
1.01066
1.01063
0.984252
0.968785
0.950597
0.928488
0.914565
0.904947
0.902902
0.92099
0.96511
0.998326
1.00828
1.0099
1.01046
1.01168
1.01087
1.01091
1.01094
1.01161
1.01233
1.01319
1.01398
1.01441
1.01494
1.01536
1.01527
1.01533
1.01487
1.0146
1.01447
1.01396
1.0139
1.01338
1.01353
1.01296
1.01296
1.01239
1.01217
1.01163
1.01131
1.01126
0.983714
0.966483
0.946895
0.922294
0.90662
0.893705
0.885423
0.901763
0.955725
0.999047
1.01
1.01222
1.01276
1.01354
1.01225
1.01206
1.01188
1.01276
1.0135
1.01393
1.0149
1.01518
1.01582
1.01598
1.01601
1.01628
1.01576
1.01549
1.01535
1.01495
1.01494
1.01449
1.01456
1.0139
1.01382
1.01305
1.01278
1.01222
1.0119
1.01184
0.98682
0.967998
0.945717
0.916935
0.898668
0.882702
0.866078
0.878291
0.943142
0.998712
1.01153
1.01439
1.01512
1.01575
1.01358
1.01329
1.01324
1.01412
1.01489
1.01489
1.01614
1.01605
1.01675
1.01664
1.01652
1.01693
1.01643
1.01637
1.01606
1.01575
1.01555
1.0152
1.01516
1.01455
1.01433
1.01368
1.01336
1.01281
1.01256
1.01248
0.98758
0.966644
0.943029
0.911827
0.891336
0.872885
0.84663
0.850157
0.92448
0.995155
1.01172
1.01558
1.01656
1.01752
1.01586
1.01463
1.01502
1.01542
1.01652
1.0164
1.01763
1.01725
1.01783
1.01763
1.01753
1.01778
1.01714
1.01732
1.01669
1.0167
1.0163
1.01604
1.01574
1.01536
1.01497
1.0145
1.01416
1.01356
1.01339
1.0132
0.991167
0.970493
0.94526
0.908971
0.884105
0.864876
0.829017
0.819032
0.898733
0.987537
1.01033
1.01566
1.01704
1.01847
1.01798
1.0164
1.01694
1.01696
1.01809
1.01765
1.019
1.0184
1.01905
1.01877
1.01892
1.01876
1.01821
1.01828
1.01755
1.01775
1.01732
1.01743
1.01696
1.01681
1.01627
1.01582
1.01534
1.01463
1.01441
1.01417
0.99477
0.972565
0.946603
0.907358
0.877605
0.858431
0.815499
0.786723
0.862815
0.972797
1.00538
1.0135
1.01659
1.01876
1.01851
1.01797
1.01851
1.01875
1.01962
1.01918
1.02026
1.01961
1.02032
1.01986
1.0204
1.02
1.01974
1.0197
1.01915
1.01944
1.0189
1.01914
1.01849
1.01835
1.01759
1.01712
1.01643
1.01574
1.01535
1.01516
1.00132
0.979751
0.953534
0.909801
0.872727
0.853133
0.807497
0.756652
0.816755
0.947814
0.995826
1.00921
1.01443
1.01792
1.01835
1.01859
1.01986
1.02049
1.02122
1.02106
1.02173
1.02108
1.02159
1.021
1.0215
1.02103
1.02105
1.0208
1.0203
1.02051
1.01994
1.02016
1.01938
1.01918
1.0184
1.01803
1.01734
1.01679
1.01638
1.01624
1.01056
0.987024
0.959244
0.914176
0.870956
0.84866
0.804731
0.730878
0.761383
0.909052
0.979824
1.001
1.00863
1.01538
1.01699
1.01812
1.02076
1.02164
1.02284
1.02327
1.02362
1.02302
1.02343
1.02287
1.02309
1.0225
1.02231
1.02172
1.02134
1.02104
1.02069
1.02056
1.02003
1.01972
1.0193
1.01888
1.0184
1.01784
1.01747
1.01737
1.02299
0.998227
0.968764
0.922619
0.87444
0.846072
0.8039
0.711329
0.703657
0.852057
0.95422
0.986552
0.998181
1.00971
1.01348
1.01635
1.02017
1.02177
1.0237
1.0249
1.025
1.02483
1.02515
1.02473
1.02486
1.02437
1.02399
1.02326
1.02303
1.02247
1.02247
1.02194
1.0218
1.0211
1.02089
1.02012
1.01978
1.019
1.01867
1.01858
1.04006
1.01387
0.981435
0.93473
0.884615
0.846611
0.8009
0.696521
0.647339
0.775859
0.915497
0.964407
0.982612
1.00015
1.00749
1.01177
1.01745
1.01981
1.02284
1.025
1.02605
1.02688
1.02749
1.02745
1.02775
1.02716
1.02695
1.02621
1.02613
1.02544
1.02558
1.02447
1.02448
1.02317
1.02303
1.02186
1.02159
1.02056
1.02025
1.02004
1.06441
1.03808
1.0041
0.957082
0.904076
0.852031
0.793359
0.681273
0.589882
0.68572
0.859736
0.933073
0.961341
0.985474
0.998369
1.00458
1.01263
1.01598
1.02037
1.02335
1.02557
1.02747
1.02868
1.02927
1.03008
1.02957
1.03004
1.02922
1.02959
1.02848
1.02868
1.02712
1.02717
1.02562
1.02557
1.02413
1.02399
1.0226
1.02239
1.02196
1.09778
1.06978
1.03648
0.992118
0.933655
0.861847
0.778555
0.658378
0.531727
0.581548
0.781152
0.8888
0.931984
0.96455
0.984915
0.995279
1.00643
1.01127
1.01747
1.02149
1.02451
1.02726
1.02894
1.02985
1.03117
1.03102
1.03221
1.03135
1.03227
1.03089
1.03152
1.03001
1.0303
1.02871
1.02884
1.02719
1.02712
1.02543
1.02518
1.02457
1.14173
1.10771
1.08254
1.04371
0.971205
0.87126
0.752924
0.617913
0.466315
0.475113
0.674867
0.826872
0.889821
0.93391
0.965976
0.981369
0.99788
1.00512
1.0136
1.01874
1.02286
1.0266
1.02936
1.03078
1.03293
1.03279
1.03444
1.03345
1.03507
1.03379
1.03498
1.03342
1.03408
1.03229
1.03254
1.03061
1.03055
1.0287
1.02846
1.0278
1.19884
1.16897
1.16528
1.11381
1.00425
0.864931
0.707394
0.548171
0.381868
0.357306
0.552045
0.744958
0.832102
0.890557
0.937214
0.960283
0.98443
0.995918
1.008
1.01563
1.02172
1.02667
1.03082
1.03277
1.03557
1.03542
1.03774
1.03678
1.03871
1.03729
1.03857
1.03678
1.03745
1.03548
1.03581
1.03368
1.03376
1.0319
1.03188
1.03114
1.27246
1.28439
1.27055
1.16243
1.01011
0.821237
0.623493
0.438163
0.264202
0.222359
0.420065
0.645232
0.759612
0.834159
0.896913
0.93061
0.963096
0.981396
0.998182
1.00951
1.01843
1.02461
1.03008
1.03311
1.03685
1.03705
1.04005
1.03903
1.04117
1.03959
1.041
1.03901
1.03997
1.03794
1.03862
1.03653
1.0369
1.03507
1.03509
1.03448
1.3978
1.39539
1.3046
1.15597
0.944161
0.70691
0.476363
0.276724
0.105523
0.104022
0.309316
0.534897
0.676125
0.770659
0.844886
0.894756
0.934785
0.960547
0.984969
0.997457
1.01147
1.01889
1.02594
1.03077
1.03517
1.03652
1.04052
1.04011
1.04318
1.04174
1.04393
1.04185
1.04353
1.04131
1.04244
1.03975
1.04017
1.03782
1.03834
1.03762
1.54705
1.44346
1.29372
1.07245
0.789792
0.501162
0.247297
0.0648266
0.129306
0.186
0.240372
0.445794
0.589607
0.707208
0.789286
0.851979
0.903096
0.933268
0.967607
0.982105
1.00115
1.01231
1.02069
1.02942
1.03394
1.03825
1.04263
1.04354
1.04716
1.04642
1.04948
1.04774
1.05022
1.04811
1.04963
1.04703
1.04787
1.04564
1.04611
1.04539
1.60994
1.40703
1.15065
0.825489
0.476245
0.182852
0.131095
0.265386
0.360576
0.360545
0.34229
0.428078
0.536392
0.651508
0.73816
0.808256
0.86953
0.903622
0.948385
0.966781
0.991806
1.00872
1.01914
1.0335
1.03731
1.0462
1.04917
1.0525
1.05561
1.05558
1.05881
1.05717
1.06022
1.05743
1.05961
1.05618
1.05762
1.05469
1.056
1.05439
1.42127
1.16434
0.821583
0.434456
0.151767
0.355049
0.547896
0.660608
0.692576
0.634674
0.488249
0.451882
0.532537
0.626026
0.700186
0.776528
0.842617
0.879413
0.934816
0.957867
0.989999
1.01114
1.0242
1.04248
1.04588
1.05845
1.0588
1.06561
1.06726
1.06895
1.07203
1.07126
1.07473
1.07205
1.07442
1.07112
1.07264
1.06937
1.06868
1.06796
0.974632
0.744802
0.589339
0.638668
0.78913
0.904905
0.951168
0.959146
0.903013
0.734629
0.619733
0.589839
0.5891
0.645002
0.697649
0.770234
0.833682
0.868249
0.926204
0.948297
0.985387
1.00476
1.02219
1.04088
1.04822
1.06096
1.06515
1.07346
1.0765
1.08116
1.0849
1.08573
1.09007
1.08798
1.09255
1.08923
1.0923
1.08696
1.08594
1.08337
0.731534
0.76656
0.809878
0.963642
1.01054
1.07047
1.08312
1.06196
0.935124
0.813459
0.764601
0.704338
0.655572
0.672691
0.695052
0.747038
0.798371
0.834036
0.87831
0.902114
0.944297
0.964018
0.993706
1.01107
1.03578
1.05027
1.06681
1.07504
1.08582
1.09125
1.09867
1.10301
1.10927
1.11257
1.11945
1.12144
1.12281
1.12542
1.12684
1.12599
0.612748
0.686927
0.733617
0.834946
0.873592
0.92021
0.930214
0.908095
0.79537
0.748922
0.739898
0.672069
0.596955
0.597526
0.613833
0.641149
0.685896
0.750257
0.805857
0.854582
0.895851
0.931458
0.970108
0.992221
1.02208
1.039
1.06229
1.07575
1.09167
1.10015
1.10983
1.11443
1.1192
1.12053
1.1221
1.12308
1.125
1.12834
1.13436
1.14558
0.371555
0.453094
0.499544
0.571449
0.588914
0.60575
0.607032
0.579463
0.471176
0.379501
0.347502
0.317215
0.339087
0.396811
0.446782
0.494445
0.564371
0.652016
0.743127
0.845295
0.906489
0.92576
0.97366
0.990293
1.02319
1.03908
1.06196
1.08071
1.10347
1.12376
1.14404
1.1642
1.1815
1.19993
1.21356
1.2284
1.23637
1.24431
1.24937
1.24924
0.309535
0.318734
0.325426
0.325797
0.316222
0.318766
0.321599
0.32435
0.31266
0.293056
0.27771
0.26936
0.262204
0.257039
0.256782
0.269549
0.292984
0.345626
0.38452
0.473081
0.430837
0.391069
0.52815
0.550691
0.598703
0.632267
0.674915
0.727323
0.769418
0.82926
0.871439
0.931885
0.971689
1.02731
1.06195
1.11297
1.14797
1.205
1.2527
1.31962
1.01578
1.0152
1.0171
1.01743
1.01837
1.01836
1.01893
1.01902
1.01898
1.01944
1.01907
1.01962
1.01908
1.01963
1.01907
1.01936
1.01886
1.01873
1.01813
1.01752
1.01644
1.01493
1.01268
1.00948
1.00503
0.999007
0.991481
0.983625
0.978458
0.97865
0.984666
0.993696
1.00317
1.00589
1.0053
1.00536
1.00553
1.00575
1.00626
1.00648
0.999133
0.999785
0.998446
0.998816
0.998222
0.998314
0.998422
0.998137
0.998658
0.998199
0.998747
0.998471
0.998735
0.998782
0.998835
0.999006
0.999042
0.999322
0.999547
1.00006
1.00082
1.0021
1.004
1.00683
1.01071
1.01525
1.01975
1.02458
1.02692
1.0269
1.02326
1.0151
1.00954
1.008
1.0076
1.00746
1.00737
1.00707
1.00682
1.00672
1.01266
1.0133
1.01517
1.0159
1.01723
1.01747
1.01762
1.01825
1.01782
1.01844
1.01783
1.01846
1.01763
1.01821
1.01728
1.01749
1.01664
1.01626
1.0152
1.01416
1.01258
1.01065
1.00822
1.00543
1.00241
0.999249
0.996607
0.996441
0.999188
1.00218
1.00397
1.00559
1.00647
1.00665
1.00665
1.00647
1.00632
1.00672
1.00703
1.00707
1.00149
1.00225
1.00119
1.00126
1.00078
1.00074
1.00078
1.00057
1.00089
1.0008
1.00087
1.00124
1.00097
1.00166
1.00149
1.00216
1.00227
1.00317
1.00378
1.00497
1.00633
1.00807
1.01008
1.01255
1.01517
1.01745
1.0193
1.02102
1.02172
1.0211
1.01835
1.01527
1.01369
1.01204
1.01017
1.00905
1.00858
1.00799
1.00755
1.00736
1.01069
1.01209
1.01353
1.01443
1.01516
1.01591
1.01581
1.01643
1.01616
1.01652
1.01614
1.01649
1.0158
1.01594
1.01529
1.01517
1.01438
1.0137
1.01262
1.01144
1.00992
1.00831
1.00652
1.00484
1.00335
1.00194
1.00124
1.00221
1.00409
1.00513
1.00584
1.00719
1.00787
1.00812
1.00812
1.00792
1.00793
1.008
1.00795
1.00783
1.0039
1.00402
1.00372
1.00349
1.00354
1.0035
1.00351
1.00356
1.00353
1.00369
1.00365
1.004
1.00406
1.00454
1.00467
1.00518
1.00549
1.00643
1.00721
1.0083
1.00948
1.01079
1.01207
1.01344
1.01463
1.01542
1.01591
1.01685
1.01735
1.01685
1.01488
1.01373
1.01323
1.0124
1.01084
1.00969
1.00911
1.00862
1.00829
1.00819
1.00953
1.01109
1.01203
1.01311
1.01343
1.01417
1.01428
1.01465
1.01458
1.01489
1.01459
1.0147
1.01431
1.01433
1.0138
1.01354
1.01275
1.01207
1.01107
1.01008
1.00887
1.00771
1.00655
1.00559
1.00485
1.00421
1.00411
1.00517
1.00648
1.00678
1.00704
1.0083
1.0089
1.00914
1.00918
1.00916
1.00907
1.00882
1.00866
1.00858
1.00594
1.00548
1.00541
1.00561
1.00578
1.0058
1.00602
1.00611
1.00615
1.00641
1.00648
1.00668
1.00681
1.00708
1.00734
1.00771
1.00818
1.00884
1.00947
1.01024
1.01097
1.01173
1.01251
1.01336
1.01386
1.01401
1.01429
1.01464
1.01459
1.01387
1.01268
1.01219
1.01203
1.01139
1.01028
1.00974
1.00938
1.00904
1.00888
1.00882
1.00911
1.01051
1.01106
1.01194
1.01215
1.01282
1.01288
1.01329
1.01327
1.01352
1.01343
1.01356
1.01331
1.01324
1.01289
1.0126
1.01198
1.01139
1.01063
1.00994
1.00915
1.00839
1.00779
1.00749
1.00726
1.00701
1.00728
1.00811
1.0086
1.00851
1.00871
1.00949
1.00984
1.01005
1.01008
1.00992
1.00963
1.00932
1.00911
1.00903
1.00752
1.00734
1.00734
1.00754
1.00778
1.00809
1.00833
1.00857
1.0087
1.00873
1.00884
1.00895
1.00912