/*--------------------------------*- C++ -*----------------------------------*\
  =========                 |
  \\      /  F ield         | OpenFOAM: The Open Source CFD Toolbox
   \\    /   O peration     | Website:  https://openfoam.org
    \\  /    A nd           | Version:  11
     \\/     M anipulation  |
\*---------------------------------------------------------------------------*/
FoamFile
{
    format      ascii;
    class       volScalarField;
    location    "3";
    object      p;
}
// * * * * * * * * * * * * * * * * * * * * * * * * * * * * * * * * * * * * * //

dimensions      [0 2 -2 0 0 0 0];

internalField   nonuniform List<scalar> 
9600
(
0.0922468
0.094411
0.0979275
0.102177
0.106584
0.111814
0.117081
0.122254
0.125605
0.127773
0.132363
0.137212
0.1398
0.139537
0.137163
0.13112
0.121406
0.10783
0.0903326
0.0698317
0.0470714
0.0245964
0.00496663
-0.0108739
-0.021347
-0.0244759
-0.0219375
-0.0170317
-0.0113499
-0.00561101
-0.000786993
0.00283688
0.00545199
0.00714849
0.00821059
0.00874089
0.00889547
0.00905583
0.00856146
0.00854333
0.0934019
0.0965295
0.100637
0.10514
0.109906
0.114999
0.120225
0.124477
0.126702
0.128996
0.133672
0.138023
0.139748
0.138376
0.135207
0.128614
0.118609
0.105063
0.0879291
0.0681744
0.0463507
0.0245083
0.00569786
-0.0100939
-0.0212371
-0.0251707
-0.0237494
-0.0196062
-0.0142071
-0.00838566
-0.0031414
0.00111167
0.00426266
0.00650048
0.00794288
0.00881408
0.00936464
0.00944465
0.00947081
0.00857431
0.094633
0.0979423
0.101947
0.106183
0.110682
0.115783
0.120364
0.12443
0.127019
0.129861
0.134607
0.138895
0.140174
0.139584
0.136572
0.130043
0.120084
0.106561
0.0895277
0.0698648
0.0480613
0.0265423
0.00758175
-0.00816453
-0.0201301
-0.0246073
-0.0231277
-0.0188643
-0.0135052
-0.00782816
-0.00279422
0.00112719
0.00393925
0.00600072
0.00731169
0.0078888
0.00836733
0.00874999
0.00872404
0.00843533
0.096037
0.0995343
0.103763
0.108259
0.112962
0.117849
0.122419
0.126359
0.128265
0.131053
0.135454
0.139326
0.139874
0.138261
0.134319
0.127261
0.117047
0.103537
0.0866727
0.0674274
0.046323
0.0250352
0.00605352
-0.0089297
-0.0208576
-0.0260001
-0.0253082
-0.0216452
-0.0165165
-0.0107671
-0.00524595
-0.000598371
0.00305851
0.00559494
0.0075181
0.00865651
0.00921605
0.00950168
0.00948524
0.008632
0.0975869
0.101245
0.105608
0.110132
0.114751
0.119286
0.123462
0.126802
0.128817
0.132346
0.136641
0.139936
0.140499
0.139292
0.135601
0.128647
0.118425
0.104845
0.0880564
0.069005
0.048043
0.0272845
0.00894351
-0.0068244
-0.0191912
-0.0255904
-0.0254242
-0.0218272
-0.0167059
-0.010968
-0.0055625
-0.00107696
0.00231269
0.00462336
0.00622285
0.00712192
0.00786757
0.00849987
0.00883428
0.008949
0.0992533
0.102998
0.107469
0.111995
0.116501
0.120784
0.124614
0.127753
0.130384
0.134242
0.137681
0.140424
0.140547
0.138476
0.133947
0.126555
0.116127
0.102619
0.0859523
0.0670884
0.046608
0.025818
0.00664973
-0.00872715
-0.0208389
-0.0270109
-0.0273389
-0.0241195
-0.0191409
-0.0134263
-0.0076735
-0.00259197
0.00137974
0.00449844
0.00687602
0.00848446
0.00908052
0.00934227
0.00946761
0.00891868
0.100955
0.104791
0.109362
0.113845
0.11825
0.122293
0.125856
0.128904
0.131727
0.134715
0.138656
0.141003
0.140965
0.139017
0.134685
0.12736
0.116909
0.10325
0.0865537
0.0678756
0.0475387
0.0272337
0.00920837
-0.00642448
-0.0185079
-0.0268796
-0.0281992
-0.0253727
-0.0204816
-0.0146531
-0.00887241
-0.00370316
0.000391626
0.00310945
0.0049256
0.00626391
0.00726041
0.00823803
0.00882404
0.00915379
0.102694
0.106651
0.111278
0.115706
0.12002
0.123787
0.127161
0.130183
0.133071
0.136412
0.139857
0.141736
0.141382
0.138886
0.133888
0.126173
0.115497
0.101873
0.0853116
0.0666979
0.0467107
0.0264136
0.00729556
-0.00878891
-0.0224001
-0.0285018
-0.0300165
-0.0275008
-0.0226926
-0.016849
-0.0108187
-0.00532198
-0.000786093
0.00293349
0.0058502
0.00785833
0.00868848
0.00906797
0.00933919
0.00907969
0.104539
0.108596
0.113225
0.117606
0.12177
0.125279
0.128532
0.131506
0.134626
0.137886
0.140975
0.14238
0.141703
0.13912
0.13415
0.12643
0.115713
0.101945
0.0853004
0.0668206
0.046922
0.0268339
0.00869264
-0.00663363
-0.0184972
-0.0287898
-0.0314384
-0.0294838
-0.0248976
-0.0189566
-0.0127446
-0.00687749
-0.0019971
0.00141169
0.00356766
0.00521007
0.00686121
0.00788592
0.00872654
0.00928121
0.10649
0.110602
0.115198
0.119543
0.123475
0.126804
0.130028
0.132869
0.136279
0.139406
0.142141
0.143162
0.142245
0.13944
0.134079
0.125975
0.115
0.101151
0.0845852
0.0661071
0.0464218
0.0265128
0.00764874
-0.00926914
-0.0228254
-0.0304522
-0.033404
-0.0318923
-0.0274748
-0.0214446
-0.0150142
-0.00885944
-0.00360695
0.000738663
0.00428231
0.00673766
0.00809632
0.00903276
0.00927495
0.0091889
0.10853
0.112651
0.117203
0.121488
0.125176
0.128396
0.131631
0.134413
0.137981
0.140984
0.14335
0.143932
0.142723
0.139722
0.134236
0.125975
0.114863
0.100926
0.0842706
0.0658339
0.0462754
0.0263277
0.00777484
-0.00793727
-0.0211909
-0.0313618
-0.0353608
-0.0344147
-0.030299
-0.0243329
-0.0176555
-0.0110543
-0.00522213
-0.00081048
0.00206161
0.00397778
0.00553344
0.00712503
0.00850649
0.0092828
0.110639
0.11473
0.119262
0.123438
0.126913
0.130083
0.133319
0.136244
0.139714
0.142539
0.144509
0.144776
0.143399
0.140215
0.134436
0.125983
0.114722
0.100593
0.0838593
0.0654643
0.0458799
0.0260686
0.00744934
-0.00973712
-0.0239778
-0.0334418
-0.0376827
-0.0373371
-0.0335393
-0.0275575
-0.0205323
-0.0135363
-0.00734931
-0.00227612
0.0019917
0.00527008
0.00724
0.00806045
0.00898223
0.00915105
0.112815
0.116864
0.121387
0.125403
0.128732
0.131894
0.135078
0.138285
0.141414
0.144105
0.145816
0.145744
0.144071
0.140635
0.134654
0.126038
0.114603
0.100341
0.0834927
0.0650462
0.0455815
0.0257001
0.0068854
-0.00976481
-0.0237907
-0.0345159
-0.0400958
-0.0404855
-0.0371112
-0.0311483
-0.0239041
-0.0165161
-0.00964843
-0.00397089
-3.02825e-05
0.00255922
0.00447222
0.00620815
0.00770829
0.00897351
0.115075
0.119076
0.123557
0.127403
0.13067
0.133863
0.13694
0.14038
0.143246
0.145787
0.147135
0.146699
0.144819
0.141273
0.135061
0.126149
0.114436
0.100002
0.0831366
0.064679
0.0452406
0.0252757
0.00648874
-0.0108123
-0.0260021
-0.037706
-0.0430069
-0.0440544
-0.0411486
-0.0352647
-0.0277171
-0.0197873
-0.0124812
-0.00634339
-0.00134012
0.00282866
0.00573622
0.00732831
0.00818624
0.00879133
0.117421
0.121375
0.125787
0.129489
0.132749
0.135992
0.139049
0.142437
0.145183
0.14749
0.148493
0.147815
0.14574
0.141895
0.135351
0.126214
0.114334
0.0997897
0.0828242
0.0642169
0.0448486
0.0248679
0.00567059
-0.011766
-0.0267367
-0.0381143
-0.0458115
-0.0479216
-0.0456391
-0.0398568
-0.0320902
-0.0238051
-0.0158318
-0.00880686
-0.00332276
0.000432414
0.00299731
0.00524157
0.00709276
0.00842274
0.11985
0.123762
0.128085
0.131709
0.134984
0.138211
0.141421
0.144525
0.147183
0.149268
0.14998
0.149038
0.146648
0.142518
0.135799
0.126413
0.114325
0.0994964
0.0823508
0.063741
0.0443091
0.0243124
0.00501386
-0.0127078
-0.0286301
-0.0410259
-0.0490533
-0.05213
-0.0505321
-0.0450832
-0.0372608
-0.0283628
-0.0196387
-0.0121307
-0.00596644
-0.000846095
0.00319738
0.005732
0.0072257
0.00850028
0.122418
0.126186
0.130473
0.134092
0.137396
0.140622
0.143851
0.146762
0.149343
0.151186
0.151538
0.150314
0.147718
0.143302
0.136194
0.126483
0.114131
0.0991572
0.0819913
0.0632135
0.04378
0.0238766
0.00413507
-0.0140792
-0.0302538
-0.0432122
-0.0523643
-0.0565853
-0.055942
-0.0509853
-0.0430284
-0.0337055
-0.0244583
-0.0159396
-0.00874936
-0.00323492
0.000625448
0.00352945
0.0057201
0.00719073
0.12509
0.128736
0.132977
0.136628
0.139983
0.143306
0.146353
0.149191
0.151657
0.153154
0.153175
0.151799
0.148879
0.144022
0.136519
0.126499
0.114057
0.098899
0.081498
0.0626207
0.0431636
0.0231236
0.00312924
-0.0152734
-0.032026
-0.046096
-0.0562273
-0.0615338
-0.0619462
-0.0575552
-0.0497652
-0.0401688
-0.0299881
-0.0204896
-0.0126429
-0.00625813
-0.00101017
0.00299331
0.00566731
0.00735148
0.127961
0.13146
0.135576
0.139345
0.142763
0.146094
0.149046
0.151819
0.154049
0.155223
0.155013
0.153381
0.150017
0.144758
0.136925
0.126585
0.11384
0.0983472
0.0808218
0.0618922
0.0423232
0.0225385
0.00244492
-0.0166971
-0.03408
-0.0488378
-0.0600496
-0.066736
-0.0684076
-0.064997
-0.0575463
-0.0474625
-0.0366187
-0.0263605
-0.0171704
-0.00956135
-0.00383966
0.000328612
0.00352605
0.00571737
0.130898
0.134326
0.138444
0.142322
0.14581
0.149062
0.151995
0.154638
0.156568
0.15747
0.156953
0.154987
0.151262
0.145575
0.137306
0.126453
0.113386
0.0977705
0.0801315
0.0610925
0.0414789
0.021787
0.0014661
-0.0180982
-0.036035
-0.0518347
-0.0643334
-0.072372
-0.0755827
-0.0733871
-0.0663967
-0.056217
-0.0447591
-0.0332193
-0.0227854
-0.0143161
-0.00744442
-0.00193434
0.0022154
0.00497423
0.134033
0.137431
0.141565
0.145517
0.149043
0.152301
0.155209
0.15766
0.159267
0.159825
0.158978
0.156742
0.152612
0.146308
0.137555
0.126272
0.112944
0.0970508
0.0791414
0.060192
0.0404599
0.0207345
0.000608064
-0.0192915
-0.0380952
-0.054833
-0.0686807
-0.0784093
-0.0833261
-0.0825591
-0.0765131
-0.0664997
-0.0542634
-0.0416916
-0.0301654
-0.0200069
-0.0116515
-0.00538433
-0.000712496
0.0025506
0.137395
0.140799
0.145012
0.149053
0.15261
0.155883
0.158705
0.160911
0.162129
0.162307
0.161183
0.158569
0.153925
0.147002
0.137781
0.126094
0.112244
0.0960213
0.0778832
0.0590342
0.0394507
0.0198369
-0.000215606
-0.0204086
-0.0399702
-0.0578541
-0.0733741
-0.0849302
-0.0917025
-0.0927942
-0.0881343
-0.0784441
-0.0657779
-0.052258
-0.0390527
-0.0273343
-0.0177747
-0.0100564
-0.00403553
0.000119155
0.141091
0.144496
0.148772
0.152903
0.156518
0.159754
0.162444
0.16437
0.165176
0.164987
0.163524
0.160435
0.15525
0.147681
0.137911
0.125693
0.111279
0.0948752
0.0764836
0.0576369
0.0383555
0.0188538
-0.00111417
-0.0212898
-0.0415038
-0.0606262
-0.0778944
-0.0916208
-0.100794
-0.104128
-0.101136
-0.0923757
-0.0797412
-0.0650129
-0.0502215
-0.0370287
-0.0255021
-0.0159864
-0.00873282
-0.003778
0.145224
0.148635
0.15302
0.157213
0.160873
0.16394
0.166448
0.16807
0.168485
0.167853
0.165969
0.162341
0.156565
0.148289
0.137783
0.125102
0.110094
0.0934057
0.0749731
0.0560508
0.0369144
0.017824
-0.00186945
-0.0219503
-0.042497
-0.06268
-0.0818832
-0.0982988
-0.110397
-0.116533
-0.11595
-0.10865
-0.096262
-0.0808456
-0.0646359
-0.0491577
-0.0354827
-0.0243384
-0.0155147
-0.00910517
0.149743
0.153168
0.157712
0.161937
0.165584
0.168553
0.170746
0.172012
0.172093
0.170901
0.168522
0.164248
0.157764
0.148801
0.137493
0.124217
0.108652
0.0914913
0.0730032
0.0543125
0.0354433
0.0167129
-0.00255694
-0.0223977
-0.0430374
-0.0640534
-0.0848886
-0.104031
-0.119747
-0.129553
-0.132562
-0.127571
-0.116082
-0.100383
-0.0826212
-0.0649881
-0.0490126
-0.0354746
-0.0244137
-0.0164574
0.15486
0.158313
0.163001
0.167297
0.170737
0.173472
0.175386
0.176243
0.175934
0.174169
0.171096
0.166098
0.158795
0.149026
0.136948
0.122941
0.106847
0.089271
0.0706262
0.0521438
0.0337845
0.0155094
-0.00315502
-0.0226224
-0.0431663
-0.0646292
-0.0869031
-0.108505
-0.12785
-0.142395
-0.149896
-0.149075
-0.140055
-0.124577
-0.105476
-0.0856769
-0.0668394
-0.0504115
-0.0369413
-0.027168
0.160568
0.164084
0.168817
0.17314
0.17648
0.178847
0.180338
0.180797
0.180005
0.177586
0.173594
0.167799
0.15964
0.14896
0.135894
0.121052
0.10448
0.0866209
0.0680037
0.0496115
0.0318198
0.0141935
-0.00370703
-0.0224524
-0.0427154
-0.0645013
-0.0878417
-0.111775
-0.134698
-0.153858
-0.166573
-0.171237
-0.166922
-0.154361
-0.13525
-0.113176
-0.0909123
-0.0708035
-0.0541025
-0.0418478
0.167072
0.170628
0.175367
0.179544
0.182704
0.18474
0.185766
0.185658
0.18419
0.181103
0.175999
0.169082
0.159992
0.148462
0.134368
0.118422
0.101278
0.0831347
0.0648587
0.046798
0.0296246
0.0127533
-0.00409692
-0.0220586
-0.041317
-0.0632721
-0.0872819
-0.113511
-0.139897
-0.164431
-0.183148
-0.193907
-0.195128
-0.18744
-0.171169
-0.149306
-0.124761
-0.100637
-0.078905
-0.0623754
0.174448
0.177917
0.182652
0.186682
0.18956
0.191176
0.191552
0.190805
0.188507
0.18449
0.17827
0.169999
0.159715
0.147029
0.132108
0.114972
0.0971879
0.078701
0.0609036
0.0433457
0.0272517
0.0110335
-0.00419663
-0.0212553
-0.0389826
-0.0604856
-0.0845051
-0.11262
-0.142377
-0.172673
-0.198952
-0.218022
-0.225834
-0.224996
-0.212793
-0.192786
-0.167752
-0.141701
-0.116714
-0.0957698
0.182836
0.186173
0.190846
0.194657
0.19701
0.198072
0.197722
0.196044
0.192681
0.187436
0.180145
0.170186
0.158621
0.14455
0.128661
0.110443
0.0921234
0.0731177
0.0560321
0.0389841
0.0242723
0.00921759
-0.0044072
-0.019917
-0.0359123
-0.0558654
-0.0790628
-0.108099
-0.140296
-0.17649
-0.210552
-0.240871
-0.261541
-0.268712
-0.263702
-0.247867
-0.223149
-0.194826
-0.166697
-0.143465
0.19256
0.195658
0.199982
0.203456
0.205301
0.205603
0.204228
0.201206
0.196735
0.189767
0.181153
0.169537
0.156211
0.140598
0.123643
0.104427
0.0857275
0.0666042
0.0498035
0.034015
0.0201943
0.00714652
-0.00511065
-0.0182137
-0.0324602
-0.0498576
-0.0711733
-0.0990278
-0.132243
-0.173146
-0.214933
-0.256769
-0.290928
-0.313657
-0.321748
-0.315905
-0.296854
-0.268979
-0.23725
-0.20884
0.203739
0.206411
0.210216
0.212923
0.213924
0.212946
0.210468
0.20579
0.199785
0.191082
0.180432
0.16736
0.151975
0.134693
0.116151
0.0966969
0.0771944
0.0590336
0.0421798
0.0281821
0.0152419
0.00470788
-0.00622311
-0.0164226
-0.0287
-0.0426368
-0.0614991
-0.0854974
-0.117708
-0.15893
-0.207877
-0.261864
-0.312655
-0.355415
-0.384586
-0.396432
-0.39121
-0.371079
-0.339752
-0.30698
0.216566
0.218556
0.221857
0.223627
0.223484
0.220948
0.216572
0.210096
0.201421
0.190857
0.177723
0.162764
0.14507
0.126405
0.105918
0.0864487
0.0665356
0.049398
0.0335377
0.0209393
0.00987195
0.00142461
-0.00730081
-0.0148252
-0.0245032
-0.03478
-0.0494855
-0.0677291
-0.09521
-0.1318
-0.182488
-0.243289
-0.312922
-0.380469
-0.439659
-0.483185
-0.507348
-0.507947
-0.491366
-0.462184
0.230587
0.231213
0.23331
0.233717
0.231656
0.227348
0.220544
0.211786
0.200339
0.187155
0.17147
0.154043
0.134409
0.114065
0.0925194
0.0723451
0.0533682
0.0369206
0.0233942
0.0123566
0.00384761
-0.00239018
-0.00841338
-0.0139084
-0.0202952
-0.0273455
-0.0364167
-0.0481439
-0.0661806
-0.0933728
-0.134291
-0.19121
-0.267106
-0.351802
-0.441755
-0.52664
-0.60325
-0.658685
-0.687606
-0.683724
0.24849
0.247632
0.247438
0.245568
0.240661
0.233149
0.222965
0.210539
0.195906
0.179004
0.160717
0.140534
0.119069
0.0969011
0.0751556
0.0544953
0.0367144
0.0216595
0.010478
0.00202425
-0.00345954
-0.00746484
-0.0104369
-0.0137983
-0.0174637
-0.0216618
-0.0253721
-0.0299424
-0.0373111
-0.0510046
-0.0737728
-0.112381
-0.171142
-0.249725
-0.339012
-0.439409
-0.550436
-0.658829
-0.759263
-0.83777
0.262379
0.258328
0.255372
0.250676
0.243224
0.232592
0.219028
0.202513
0.184041
0.163386
0.141617
0.119033
0.0957227
0.0725935
0.0509118
0.0309874
0.0142853
0.00159756
-0.00705644
-0.0118539
-0.0142104
-0.0160298
-0.0171574
-0.0187304
-0.0204943
-0.0214162
-0.0209706
-0.0196748
-0.0187146
-0.0193742
-0.0223969
-0.0326986
-0.0562327
-0.0987142
-0.161787
-0.24146
-0.334576
-0.457106
-0.575223
-0.69078
0.290505
0.281975
0.27161
0.258025
0.241064
0.221748
0.201158
0.178914
0.155215
0.13039
0.10486
0.0793906
0.0545492
0.0312967
0.0108738
-0.00604739
-0.0187322
-0.0263515
-0.0297992
-0.0299224
-0.0286957
-0.0279747
-0.0286235
-0.0308309
-0.0327824
-0.0320046
-0.0280704
-0.0218599
-0.0176521
-0.0146453
-0.00971265
-0.00494956
-0.00633807
-0.0206214
-0.0497349
-0.0931065
-0.149772
-0.221855
-0.311223
-0.409812
0.268091
0.253013
0.238076
0.222048
0.203565
0.181389
0.156562
0.129765
0.101769
0.0735626
0.0455398
0.0187516
-0.00631616
-0.0283407
-0.0456136
-0.0572975
-0.062082
-0.0597919
-0.0512905
-0.040078
-0.0310912
-0.0278213
-0.0333638
-0.0451107
-0.0556448
-0.0579374
-0.0454701
-0.0287768
-0.0237372
-0.0247766
-0.0236385
-0.0224886
-0.0228148
-0.0260615
-0.0340207
-0.0472386
-0.0678914
-0.101857
-0.150807
-0.203381
0.33075
0.300112
0.268112
0.237019
0.206624
0.175606
0.143285
0.110738
0.0783597
0.0479766
0.0202333
-0.0037316
-0.0229339
-0.0375189
-0.0476823
-0.0513484
-0.0478549
-0.0365562
-0.0196944
0.0011439
0.0209747
0.0346459
0.0324994
0.00958475
-0.0390746
-0.0762275
-0.0644055
-0.0307616
-0.0187939
-0.0264159
-0.0280273
-0.0224154
-0.0260114
-0.0291
-0.0339789
-0.0411975
-0.0523393
-0.0697097
-0.0947214
-0.121063
0.0565504
0.0284688
-0.00485871
-0.0472394
-0.0916779
-0.133955
-0.174477
-0.211441
-0.24225
-0.263553
-0.27654
-0.284376
-0.28912
-0.288332
-0.280404
-0.263855
-0.237753
-0.203524
-0.162333
-0.117707
-0.0709053
-0.0285332
0.000674805
-0.00129519
-0.0371719
-0.054994
-0.0597097
-0.0625567
-0.0638768
-0.0644054
-0.0636077
-0.0619709
-0.0629342
-0.066565
-0.0722661
-0.0803542
-0.0908289
-0.103847
-0.120056
-0.138982
0.00787128
0.00849786
0.00687953
0.00839547
0.00718282
0.0074991
0.00604357
0.00539093
0.00389125
0.00217357
0.000643247
-0.000889223
-0.00230999
-0.00338132
-0.00411835
-0.00469189
-0.00503026
-0.00518543
-0.00504869
-0.00498482
-0.00484984
-0.00452675
-0.00411641
-0.00367645
-0.00324625
-0.00280385
-0.00234774
-0.00190882
-0.00153063
-0.00117811
-0.000833561
-0.000499303
-0.000240993
-3.88103e-05
0.000128221
0.000295382
0.000779887
0.000916526
0.0021436
0.000329347
0.00615847
0.0084427
0.00746578
0.00833894
0.0077302
0.00781156
0.00648064
0.00545322
0.00412386
0.00236279
0.000674002
-0.000983761
-0.00250411
-0.00362517
-0.00444689
-0.00505393
-0.00526719
-0.00539662
-0.00532813
-0.00533563
-0.00515286
-0.00476193
-0.00437045
-0.00396764
-0.00354769
-0.00303751
-0.00254327
-0.00209594
-0.00166307
-0.00127716
-0.000924466
-0.00061455
-0.000377852
-0.000173139
1.64702e-05
0.000251157
0.000552758
0.000780195
0.000821923
-0.00103133
0.0091679
0.00854132
0.00803833
0.00832707
0.00834967
0.00816187
0.006996
0.00567957
0.00436258
0.00253289
0.000676397
-0.00112586
-0.00271244
-0.00388004
-0.00476263
-0.00543736
-0.00569248
-0.00580259
-0.00579915
-0.00567331
-0.00538662
-0.005028
-0.00469942
-0.00431679
-0.00385372
-0.00333854
-0.00285062
-0.00236483
-0.00189608
-0.00150974
-0.00115039
-0.00084557
-0.000595339
-0.000361635
-0.000132916
0.000144083
0.000429685
0.000854367
0.00149249
0.0020496
0.00695617
0.00860509
0.00851146
0.00854213
0.00892585
0.00859307
0.0075422
0.00605853
0.00462745
0.00269758
0.000671039
-0.00127874
-0.00294825
-0.00418573
-0.00509002
-0.0058314
-0.00622671
-0.00628715
-0.00623927
-0.0059871
-0.00568166
-0.00539586
-0.00508642
-0.0046802
-0.00418734
-0.00369279
-0.00320806
-0.00269185
-0.00223853
-0.00185916
-0.00147248
-0.0011381
-0.000848632
-0.000570993
-0.000297312
6.07939e-06
0.000275219
0.000465214
0.000464011
-0.000196446
0.00975681
0.0088589
0.00889254
0.00893531
0.00946363
0.00908
0.00812071
0.00655829
0.00496071
0.00289826
0.000692517
-0.00136858
-0.00311353
-0.00452365
-0.00542293
-0.00625235
-0.00676058
-0.00679623
-0.00666099
-0.00641413
-0.00615564
-0.00587833
-0.00551315
-0.00506262
-0.004556
-0.00407321
-0.00356065
-0.00303186
-0.00261923
-0.00223158
-0.00180735
-0.00143836
-0.00109636
-0.000776335
-0.000464015
-0.000150855
0.000145693
0.000519332
0.00111823
0.00187287
0.0076763
0.00909545
0.00929194
0.00946012
0.0100478
0.00965554
0.00875648
0.00715284
0.0053804
0.0031412
0.000763259
-0.00138021
-0.00321612
-0.00483462
-0.00590064
-0.00674169
-0.00724847
-0.00727604
-0.00713146
-0.00696464
-0.00672033
-0.00639208
-0.00594773
-0.00545391
-0.00496827
-0.00449055
-0.00393298
-0.00341391
-0.00302649
-0.00260674
-0.00215268
-0.00173764
-0.00133419
-0.000978589
-0.000635688
-0.000318541
-4.26957e-05
0.000118605
0.000184441
4.05072e-05
0.0101064
0.00945461
0.00968591
0.0100381
0.0106547
0.0103272
0.00946117
0.00781785
0.0058808
0.00343687
0.000887373
-0.00133154
-0.00329263
-0.0050839
-0.0064389
-0.00718545
-0.00764361
-0.0077123
-0.00764945
-0.0075169
-0.00723427
-0.00682424
-0.00633907
-0.00585827
-0.00543428
-0.00495231
-0.00436248
-0.00387922
-0.0034982
-0.00303698
-0.0025478
-0.0020727
-0.00161616
-0.00121853
-0.000859971
-0.000533563
-0.000210533
0.000138331
0.000623349
0.00128682
0.00818938
0.00973289
0.0101547
0.0106552
0.0113459
0.0110662
0.0102359
0.00854283
0.00646904
0.00381642
0.00110449
-0.00122624
-0.00330848
-0.00530319
-0.0068134
-0.00755744
-0.00800011
-0.0081926
-0.00821813
-0.00806518
-0.00770238
-0.00722346
-0.00672423
-0.00626308
-0.00585721
-0.00536786
-0.00481743
-0.00441581
-0.00402951
-0.00352507
-0.00299685
-0.00246722
-0.0019721
-0.00153302
-0.00115395
-0.000795173
-0.000459407
-0.000220073
-8.66916e-05
-1.03282e-05
0.0104312
0.0100898
0.0106382
0.0113173
0.0120747
0.0119017
0.0111145
0.00937388
0.00711763
0.00427293
0.00141817
-0.00109704
-0.00331078
-0.00557768
-0.00706082
-0.00788494
-0.00841932
-0.0087314
-0.0087831
-0.00857559
-0.00817149
-0.00770277
-0.00718914
-0.00670984
-0.00628091
-0.00577491
-0.00529461
-0.00495753
-0.00454188
-0.0040042
-0.00345471
-0.00289848
-0.00238062
-0.0019111
-0.00150993
-0.00112037
-0.000733687
-0.000336564
0.000120304
0.000628039
0.00903953
0.01039
0.0111801
0.0119978
0.0128614
0.0128363
0.0120753
0.0103271
0.00784396
0.00483022
0.00182133
-0.000940511
-0.0033816
-0.00574249
-0.00726008
-0.00824126
-0.0088893
-0.00924661
-0.00927443
-0.00906386
-0.00873729
-0.00831839
-0.00782368
-0.00733264
-0.00683339
-0.00625834
-0.00580088
-0.00547419
-0.00501533
-0.00446452
-0.00390816
-0.00333628
-0.00280008
-0.00231982
-0.00189916
-0.00147957
-0.00106644
-0.000693581
-0.000423245
-0.000195367
0.0101516
0.0107063
0.0117773
0.012746
0.0137388
0.0138629
0.0131182
0.0113546
0.00866514
0.0054902
0.00228458
-0.000722009
-0.00349051
-0.00573302
-0.00744996
-0.00859347
-0.00933113
-0.00972301
-0.00978316
-0.00965342
-0.00940379
-0.00900877
-0.00856222
-0.00811593
-0.00755843
-0.00691753
-0.00644412
-0.00605134
-0.00550303
-0.0049085
-0.00433429
-0.00376261
-0.00322782
-0.00275158
-0.00230803
-0.00186967
-0.00143658
-0.000987126
-0.000492873
-1.39211e-05
0.00980733
0.010953
0.0123646
0.0135401
0.0146758
0.0150056
0.014292
0.0124649
0.00964462
0.00624723
0.00276542
-0.000501267
-0.0035102
-0.00568789
-0.00762777
-0.00888696
-0.00973013
-0.0102285
-0.0103956
-0.0103373
-0.0101021
-0.0097093
-0.00933664
-0.00897662
-0.00839873
-0.00775341
-0.00724559
-0.00672385
-0.00604663
-0.00540201
-0.00481833
-0.00424291
-0.00370306
-0.00322294
-0.00275494
-0.00231163
-0.00185818
-0.00139641
-0.00094927
-0.00055582
0.0103544
0.011196
0.0129387
0.0143935
0.015721
0.0162902
0.0155879
0.0136835
0.0108318
0.0070994
0.00325747
-0.000272759
-0.00336456
-0.0056857
-0.00773453
-0.00911244
-0.0101621
-0.0108117
-0.0110857
-0.011091
-0.0108545
-0.0104881
-0.0101804
-0.00981304
-0.00925945
-0.00865867
-0.0081295
-0.00748121
-0.00670306
-0.00602992
-0.00541345
-0.00480971
-0.00426292
-0.00376772
-0.00327052
-0.00280014
-0.00230299
-0.00179747
-0.00123895
-0.000730428
0.0100496
0.0115001
0.0135032
0.015285
0.0168437
0.0177057
0.0170024
0.0150826
0.0122163
0.00803997
0.00377751
0.000129825
-0.00310143
-0.00564145
-0.00777023
-0.00939299
-0.0106652
-0.0114196
-0.0117655
-0.0118716
-0.011703
-0.0114394
-0.0111443
-0.0107377
-0.0102062
-0.00961944
-0.00905835
-0.00830921
-0.00748556
-0.00677963
-0.0061151
-0.00546603
-0.0049033
-0.00436566
-0.00382053
-0.00329832
-0.00274635
-0.0021884
-0.00160939
-0.00119004
0.0103156
0.0118141
0.0140444
0.0162078
0.018086
0.0192347
0.0186014
0.016671
0.0135908
0.00885717
0.00424945
0.000679522
-0.00276413
-0.00555013
-0.00788554
-0.00978287
-0.0111705
-0.0119946
-0.0124388
-0.0126782
-0.0126682
-0.0125588
-0.0123144
-0.0119113
-0.011302
-0.0106743
-0.0100371
-0.00920827
-0.00836382
-0.00761524
-0.00688666
-0.00619897
-0.00561441
-0.00501621
-0.0044226
-0.003839
-0.00322428
-0.0026211
-0.00203655
-0.00172719
0.00999864
0.0120853
0.0145474
0.0171719
0.0193929
0.0208617
0.0204751
0.0183354
0.0146072
0.00934237
0.00512483
0.0013289
-0.00237461
-0.005467
-0.0080681
-0.0101321
-0.0116432
-0.0125912
-0.0131737
-0.0135798
-0.0137687
-0.0138243
-0.0136314
-0.0132093
-0.0125283
-0.0118637
-0.0111103
-0.0101943
-0.00934685
-0.00855984
-0.0077916
-0.00707994
-0.00646332
-0.00582392
-0.0051941
-0.00453819
-0.00386182
-0.00321025
-0.00261177
-0.0022983
0.00972403
0.0123121
0.015029
0.0181087
0.0206917
0.0226613
0.0226283
0.0200493
0.015988
0.0103104
0.00615599
0.00204325
-0.00182281
-0.00523851
-0.00810252
-0.0103694
-0.0120965
-0.0132447
-0.014048
-0.0146729
-0.0149902
-0.0151036
-0.0149105
-0.0144925
-0.0138382
-0.0131409
-0.0122785
-0.0113297
-0.0105004
-0.00966977
-0.00889656
-0.00818181
-0.00755585
-0.00686149
-0.00616172
-0.00540646
-0.0046508
-0.00392781
-0.00329417
-0.00295516
0.00930947
0.0123326
0.0153583
0.0189387
0.0219833
0.0245914
0.0249801
0.0218814
0.0173972
0.0116547
0.00733838
0.00305199
-0.00103358
-0.00479076
-0.00791644
-0.0105547
-0.0125507
-0.0140159
-0.0151252
-0.0159034
-0.016273
-0.016393
-0.016186
-0.0157471
-0.0151086
-0.014409
-0.0135144
-0.0125855
-0.0117511
-0.0109028
-0.0101428
-0.00942516
-0.00874365
-0.00795925
-0.00716701
-0.00630192
-0.00547296
-0.00468761
-0.00403284
-0.00368369
0.00851654
0.0123006
0.0155914
0.0196243
0.0232206
0.0265629
0.0275702
0.0240181
0.0185507
0.0129867
0.0087405
0.00428964
-0.000152844
-0.00442178
-0.00776364
-0.0107491
-0.0130388
-0.0148993
-0.0163582
-0.017275
-0.0177497
-0.0178582
-0.0175635
-0.0170465
-0.0163822
-0.0157051
-0.0147739
-0.0138848
-0.0130082
-0.0121299
-0.0113377
-0.010579
-0.00981845
-0.00896823
-0.00811083
-0.00721716
-0.00636843
-0.00553647
-0.00486238
-0.00450458
0.00774887
0.011904
0.0156245
0.0200841
0.0243726
0.0285538
0.0303983
0.0266699
0.0197353
0.0146698
0.0104749
0.00560779
0.000713581
-0.00388506
-0.00787908
-0.0109737
-0.0136396
-0.0158754
-0.0177103
-0.0187731
-0.0194041
-0.0194811
-0.0191113
-0.0185558
-0.0178803
-0.0171703
-0.0161804
-0.0152895
-0.0143001
-0.0134071
-0.0125818
-0.0117981
-0.0110049
-0.01016
-0.00930383
-0.0084285
-0.00757004
-0.00669012
-0.00591657
-0.00547231
0.00616441
0.0109835
0.0153123
0.0202277
0.0252798
0.0302973
0.0336438
0.0300423
0.0214691
0.016701
0.0124447
0.00739649
0.00188393
-0.00331546
-0.00784069
-0.0111431
-0.0143502
-0.0169696
-0.0190584
-0.0202304
-0.0210459
-0.021123
-0.0208243
-0.0203037
-0.0196488
-0.0188522
-0.0178585
-0.0169529
-0.0159199
-0.015053
-0.014229
-0.0134802
-0.0126878
-0.0118317
-0.0109272
-0.00999344
-0.00904249
-0.00808798
-0.0072133
-0.00666674
0.00425919
0.00929108
0.0142574
0.0197558
0.0256908
0.0317415
0.0372342
0.0343024
0.02437
0.019385
0.0149948
0.00981156
0.00319072
-0.00248918
-0.00726913
-0.0115389
-0.0151229
-0.0181712
-0.0203842
-0.0217537
-0.0226857
-0.0228066
-0.0226447
-0.0221714
-0.0215616
-0.0207257
-0.0198003
-0.0188934
-0.0179262
-0.0171126
-0.0162626
-0.0154844
-0.0145985
-0.0136327
-0.0125916
-0.0115463
-0.0104878
-0.00948644
-0.00859277
-0.00803201
0.00110885
0.00660931
0.0119852
0.018308
0.0253136
0.0327186
0.040721
0.0397173
0.0291353
0.02324
0.0184496
0.0125467
0.00489875
-0.00119359
-0.00671376
-0.0117667
-0.015953
-0.0194695
-0.0218881
-0.0235238
-0.0245005
-0.0246875
-0.0246063
-0.0241783
-0.0235939
-0.0227769
-0.0218913
-0.0209024
-0.019911
-0.0190236
-0.0181139
-0.0172391
-0.0161976
-0.0151338
-0.0140244
-0.0129663
-0.0118951
-0.0109071
-0.0100283
-0.00949896
-0.00312349
0.00288257
0.00836139
0.0154704
0.0237968
0.0330327
0.0436418
0.0461345
0.0362697
0.0285473
0.0229176
0.0159402
0.00768944
0.000613902
-0.00588768
-0.0118053
-0.0167727
-0.0207804
-0.0235925
-0.0255153
-0.0265399
-0.0268305
-0.0268237
-0.0264332
-0.0258457
-0.0250136
-0.0240273
-0.0229021
-0.0218232
-0.0207949
-0.0198331
-0.0188741
-0.0178037
-0.016754
-0.0156891
-0.01465
-0.0135588
-0.0125465
-0.0116361
-0.011115
-0.00949034
-0.00255786
0.00305706
0.0109266
0.0207598
0.0322088
0.0455085
0.0530716
0.0450161
0.0357954
0.0290757
0.0207198
0.0117903
0.00326155
-0.00447995
-0.0115717
-0.0172408
-0.0218266
-0.0250663
-0.0272881
-0.0285158
-0.0291156
-0.0292956
-0.0290541
-0.0285453
-0.0277193
-0.0266443
-0.0254797
-0.0243682
-0.0233228
-0.0223741
-0.0213594
-0.0202775
-0.0191595
-0.0180047
-0.0168369
-0.0156395
-0.0145084
-0.0135096
-0.0129748
-0.0188479
-0.0111315
-0.00561262
0.00319538
0.0150137
0.0294597
0.0458318
0.0582855
0.055149
0.045645
0.0371977
0.026923
0.0167627
0.00656586
-0.00256434
-0.0106314
-0.0170981
-0.0221565
-0.0258603
-0.0285477
-0.0303001
-0.0314169
-0.0319698
-0.0320654
-0.0317554
-0.0310248
-0.0300619
-0.0290263
-0.0279954
-0.0269919
-0.0259434
-0.0247624
-0.0235064
-0.0221872
-0.0208755
-0.0195502
-0.0182224
-0.0169417
-0.0158098
-0.0152073
-0.0322316
-0.024595
-0.0196448
-0.00989076
0.00444351
0.0229632
0.0435775
0.0615775
0.0645393
0.0573834
0.0471042
0.0343994
0.0221511
0.0102296
-0.000255766
-0.00928189
-0.0164808
-0.0220162
-0.0263685
-0.0296154
-0.0319356
-0.0335561
-0.0345445
-0.0350054
-0.0349306
-0.0344518
-0.0337873
-0.0329592
-0.0320455
-0.0310051
-0.029767
-0.028437
-0.0270691
-0.0256729
-0.0243029
-0.0229065
-0.0214953
-0.0200821
-0.0187369
-0.017974
-0.049585
-0.0432508
-0.0405813
-0.0312517
-0.0144135
0.00915335
0.0361023
0.0604244
0.0715428
0.0694277
0.0585868
0.0436072
0.0285014
0.0143594
0.00224797
-0.00801856
-0.0161511
-0.0223992
-0.0273682
-0.0310751
-0.03376
-0.0357123
-0.036973
-0.0377129
-0.0379394
-0.0378354
-0.0374579
-0.0367797
-0.0359508
-0.0349457
-0.0337868
-0.0325494
-0.0312279
-0.029862
-0.0284679
-0.0270113
-0.0254959
-0.0239366
-0.0223941
-0.021499
-0.0786967
-0.0723891
-0.0728872
-0.0652846
-0.0462792
-0.0174293
0.0185986
0.0512497
0.0724444
0.0788991
0.0705115
0.0544705
0.0364394
0.0196549
0.00529047
-0.00672711
-0.0161569
-0.0233825
-0.0290796
-0.0332706
-0.0363938
-0.0387586
-0.0403402
-0.0414178
-0.0419127
-0.0419528
-0.0416537
-0.0410915
-0.0404383
-0.039618
-0.038625
-0.0374654
-0.036141
-0.034705
-0.033164
-0.0315402
-0.029869
-0.0282121
-0.0266175
-0.0256466
-0.127457
-0.124284
-0.132611
-0.125141
-0.103493
-0.0666812
-0.0177009
0.0279866
0.0623719
0.0807425
0.0799589
0.0646427
0.0451039
0.0262366
0.00948173
-0.00457714
-0.0157918
-0.024437
-0.031287
-0.0363581
-0.0402821
-0.0433123
-0.0452417
-0.0465289
-0.047087
-0.0471235
-0.0469356
-0.0464624
-0.0458498
-0.0450107
-0.0439266
-0.0426263
-0.0411543
-0.0395749
-0.0378764
-0.03613
-0.0344074
-0.0327766
-0.0312706
-0.0303486
-0.192317
-0.202271