/*--------------------------------*- C++ -*----------------------------------*\
  =========                 |
  \\      /  F ield         | OpenFOAM: The Open Source CFD Toolbox
   \\    /   O peration     | Website:  https://openfoam.org
    \\  /    A nd           | Version:  11
     \\/     M anipulation  |
\*---------------------------------------------------------------------------*/
FoamFile
{
    format      ascii;
    class       volVectorField;
    location    "3";
    object      U;
}
// * * * * * * * * * * * * * * * * * * * * * * * * * * * * * * * * * * * * * //

dimensions      [0 1 -1 0 0 0 0];

internalField   nonuniform List<vector> 
9600
(
(0.978991 0.00198152 8.02265e-21)
(0.977609 0.00306268 0)
(0.97002 0.00422981 0)
(0.963254 0.00438377 1.45671e-22)
(0.962584 0.00424095 0)
(0.962621 0.00827382 -1.59277e-22)
(0.946371 0.0151847 -5.44751e-21)
(0.889218 0.0161859 5.49028e-21)
(0.84337 0.0098865 -5.85312e-21)
(0.825775 0.00390923 5.87892e-21)
(0.825407 0.000859011 0)
(0.834016 -0.00379678 -6.39349e-21)
(0.863238 -0.0143703 6.56894e-21)
(0.896471 -0.025913 -1.02134e-22)
(0.928487 -0.0341238 3.21347e-21)
(0.956171 -0.0384548 -3.16994e-21)
(0.988751 -0.0402658 0)
(1.01922 -0.0391854 -1.17405e-21)
(1.05223 -0.0372949 1.17507e-21)
(1.08457 -0.0354478 -3.19811e-24)
(1.1101 -0.0321149 2.16503e-24)
(1.1368 -0.0290574 1.73066e-22)
(1.15273 -0.0262531 -1.75206e-22)
(1.15293 -0.0238819 0)
(1.14793 -0.0228064 0)
(1.13697 -0.0243228 -5.33931e-22)
(1.11736 -0.0237275 8.73923e-23)
(1.09059 -0.0241417 4.70564e-22)
(1.06336 -0.0223877 -9.34161e-24)
(1.0378 -0.0216768 5.0988e-24)
(1.01717 -0.0185199 0)
(1.00044 -0.0157862 1.92845e-22)
(0.989017 -0.0110081 -1.90516e-22)
(0.981314 -0.00609439 -3.51296e-22)
(0.975588 -0.00192736 3.49216e-22)
(0.971172 0.00271041 1.23794e-23)
(0.967662 0.00550377 0)
(0.966057 0.0071797 7.81471e-22)
(0.966197 0.0100532 -7.8729e-22)
(0.962701 0.0194993 1.16197e-23)
(0.979599 0.000738175 3.87285e-22)
(0.978803 0.000503991 0)
(0.976985 -0.000615877 0)
(0.972912 -0.00238937 -4.52111e-22)
(0.969644 -0.00207223 -1.0398e-20)
(0.96578 0.000150662 1.64091e-20)
(0.956564 0.00271772 -5.48923e-21)
(0.936809 0.00319838 -1.82774e-22)
(0.920631 0.000880135 -1.87356e-22)
(0.911987 -0.00201759 0)
(0.911354 -0.00403553 -1.97949e-22)
(0.91768 -0.00584091 -6.75593e-21)
(0.940139 -0.00145924 9.84757e-21)
(0.967752 0.00988089 -3.3457e-21)
(0.98917 0.0204183 -5.13343e-23)
(1.00913 0.0257679 0)
(1.0314 0.0272367 -1.26396e-21)
(1.05559 0.0266097 1.35626e-21)
(1.08361 0.024401 -4.73645e-22)
(1.10993 0.024372 4.77131e-22)
(1.13361 0.0226876 2.12905e-22)
(1.15749 0.0214794 -2.07897e-22)
(1.17161 0.0239531 0)
(1.17264 0.0253858 3.75085e-22)
(1.16919 0.027151 -3.72761e-22)
(1.15785 0.0307982 -9.32245e-24)
(1.13847 0.0319475 5.04184e-22)
(1.11044 0.0331775 -5.0514e-22)
(1.08517 0.0310255 3.02646e-23)
(1.0581 0.0285806 2.57452e-22)
(1.03631 0.0238763 -2.78016e-22)
(1.01548 0.0189977 -1.28347e-22)
(1.00162 0.0121637 1.26252e-22)
(0.988107 0.00579866 -9.13374e-24)
(0.980346 0.000920109 8.01516e-22)
(0.973469 -0.00347247 -7.8739e-22)
(0.970552 -0.00565202 0)
(0.968962 -0.00993377 8.63194e-22)
(0.966591 -0.0128076 -8.67947e-22)
(0.966047 -0.0217118 -3.56717e-23)
(0.978928 0.0009121 8.24525e-21)
(0.978104 0.00140953 -2.82855e-22)
(0.976353 0.00233371 0)
(0.971486 0.00305482 3.09245e-22)
(0.967277 0.00438292 0)
(0.96691 0.00866365 -5.9329e-21)
(0.962919 0.0166021 -2.06223e-22)
(0.951807 0.0187719 6.06568e-21)
(0.92943 0.012666 1.91429e-22)
(0.914479 0.00393799 0)
(0.913514 -0.00195922 6.13145e-22)
(0.923358 -0.00901019 -6.79789e-21)
(0.94112 -0.0192118 7.06743e-21)
(0.959987 -0.028731 3.20876e-22)
(0.979293 -0.0368394 -2.09098e-22)
(1.00155 -0.0423554 9.95234e-23)
(1.02485 -0.0456018 -1.40559e-21)
(1.05185 -0.0456603 1.89652e-22)
(1.07965 -0.044099 1.25235e-21)
(1.1089 -0.0417945 -6.6668e-24)
(1.13549 -0.0379094 4.584e-24)
(1.15629 -0.0339573 2.07154e-22)
(1.17427 -0.0289784 -2.12005e-22)
(1.18149 -0.0235716 3.49384e-22)
(1.17922 -0.0191281 -3.47134e-22)
(1.16989 -0.0172626 0)
(1.15111 -0.0124497 1.80429e-23)
(1.12474 -0.0102591 -6.06176e-23)
(1.09993 -0.00781882 -2.11881e-23)
(1.07507 -0.00772721 4.06958e-23)
(1.05266 -0.00533976 1.67127e-23)
(1.03515 -0.00481825 1.23149e-22)
(1.02261 -0.00104299 1.17201e-22)
(1.01114 0.00129102 -2.28386e-22)
(1.00624 0.00392437 -2.26688e-23)
(1.00084 0.00673499 0)
(0.996558 0.00792152 -2.58052e-23)
(0.992937 0.0114134 8.14977e-22)
(0.991081 0.013298 -8.08698e-22)
(0.987813 0.018023 2.4158e-23)
(0.978297 0.00102895 5.57205e-22)
(0.9774 0.00170609 -2.98449e-22)
(0.975047 0.00248621 0)
(0.970796 0.0022803 0)
(0.969491 0.00324355 -1.04122e-20)
(0.968639 0.00811272 1.08018e-20)
(0.96493 0.0138643 5.70616e-21)
(0.960294 0.0136087 -5.71942e-21)
(0.951688 0.00715948 6.39811e-21)
(0.945287 -0.00216674 -6.04076e-21)
(0.947943 -0.0100912 -4.21022e-22)
(0.960779 -0.0167048 -2.19131e-22)
(0.977969 -0.0151188 -2.20062e-22)
(0.997297 -0.00514994 -2.19048e-22)
(1.01125 0.00521882 3.73688e-21)
(1.0257 0.0102878 -1.18163e-22)
(1.04171 0.0108883 -4.59862e-21)
(1.06052 0.00960905 1.40275e-21)
(1.08561 0.00692764 -3.50442e-23)
(1.11116 0.00765937 1.36193e-23)
(1.1342 0.00902063 -2.32e-22)
(1.15574 0.00978014 4.25261e-22)
(1.17246 0.0160086 -2.03915e-22)
(1.17806 0.0237006 1.25215e-23)
(1.1751 0.0283306 0)
(1.16414 0.0333972 0)
(1.14688 0.0359103 5.92429e-22)
(1.12322 0.0375083 -6.26867e-22)
(1.09867 0.0355616 6.83598e-22)
(1.0737 0.0326291 -7.0993e-22)
(1.05128 0.0276239 -1.25003e-23)
(1.03185 0.0216385 -8.07023e-25)
(1.01538 0.0144846 8.25587e-24)
(1.0012 0.00783287 -3.20925e-22)
(0.989733 0.00157303 1.10614e-21)
(0.979973 -0.00162007 -1.6466e-21)
(0.973722 -0.00570493 8.33555e-22)
(0.972606 -0.0101178 -5.36393e-23)
(0.970392 -0.0131236 8.10623e-23)
(0.972064 -0.0175242 -5.10638e-23)
(0.977562 0.00127237 8.60217e-21)
(0.97665 0.00205353 -1.03643e-23)
(0.974293 0.00322395 0)
(0.971522 0.00332189 0)
(0.969191 0.00514708 -7.02143e-22)
(0.968111 0.0111945 1.11258e-21)
(0.970345 0.0159831 -5.88564e-21)
(0.972759 0.0155802 1.22606e-20)
(0.97312 0.0103325 -6.40477e-21)
(0.965519 -0.000411759 -4.18004e-22)
(0.960405 -0.00826841 0)
(0.961536 -0.0146057 -1.44129e-20)
(0.967251 -0.0208575 1.44551e-20)
(0.979114 -0.0272086 -4.00373e-21)
(0.994468 -0.0349604 3.34653e-21)
(1.01427 -0.0417594 -4.15247e-22)
(1.03568 -0.0463063 -1.64447e-21)
(1.05883 -0.0479765 1.97955e-22)
(1.08451 -0.047417 1.25846e-21)
(1.11021 -0.0449694 -6.95908e-24)
(1.13634 -0.0406922 -2.45992e-22)
(1.15647 -0.0360728 4.82455e-22)
(1.17083 -0.0296648 -2.30356e-22)
(1.18119 -0.0236986 -1.28381e-23)
(1.18219 -0.0144044 -3.25085e-23)
(1.17425 -0.00957193 -6.60463e-22)
(1.15705 -0.00088435 5.74208e-22)
(1.13273 0.00457406 -3.99947e-24)
(1.10822 0.008784 5.75238e-23)
(1.08338 0.00858547 0)
(1.0599 0.0101177 2.10657e-23)
(1.04156 0.00858908 0)
(1.02581 0.00957222 -2.00738e-23)
(1.0152 0.0100692 0)
(1.00829 0.0104509 0)
(1.00179 0.0118258 -7.41914e-22)
(0.998314 0.011765 7.89111e-22)
(0.993795 0.0124405 9.54919e-22)
(0.991943 0.0144136 -8.93783e-22)
(0.987023 0.0164422 5.21487e-23)
(0.976851 0.00151481 0)
(0.976007 0.00248396 -1.08627e-23)
(0.973839 0.00372162 0)
(0.970953 0.00428846 0)
(0.969042 0.00712893 -1.20009e-20)
(0.970606 0.0127085 5.06967e-21)
(0.975036 0.0156753 1.27861e-20)
(0.977557 0.0140609 -6.47675e-21)
(0.976347 0.00774738 0)
(0.971014 -0.00429823 0)
(0.97044 -0.0144917 0)
(0.97847 -0.0228536 -6.4838e-21)
(0.993635 -0.0245355 6.96143e-21)
(1.01166 -0.0184052 4.07329e-21)
(1.02663 -0.0102954 -4.07095e-21)
(1.03945 -0.00653071 -3.02334e-21)
(1.05361 -0.00644403 1.97644e-21)
(1.06998 -0.00826149 1.46298e-21)
(1.09067 -0.0113877 -5.12153e-22)
(1.11412 -0.0106147 5.12409e-22)
(1.13706 -0.00686323 9.8554e-24)
(1.1562 -0.00401719 2.22141e-23)
(1.17296 0.00469245 -1.32859e-23)
(1.18183 0.0178394 0)
(1.18187 0.0265689 3.33996e-23)
(1.17281 0.033778 7.23079e-22)
(1.15565 0.0380787 -5.41312e-22)
(1.13367 0.0406869 -1.06735e-21)
(1.10968 0.0398607 1.93655e-21)
(1.08479 0.0371962 -8.07482e-22)
(1.06257 0.0323446 -3.43439e-22)
(1.04275 0.0267431 2.46151e-22)
(1.02637 0.020592 1.19029e-23)
(1.01156 0.0130387 2.91856e-22)
(0.999342 0.00500796 4.93576e-22)
(0.987423 0.000920662 -7.31867e-22)
(0.979924 -0.00341043 0)
(0.976602 -0.00772158 9.38439e-22)
(0.973474 -0.0114561 3.56946e-23)
(0.974855 -0.0145541 -9.48841e-22)
(0.976363 0.00188599 1.12162e-20)
(0.975561 0.00306878 -1.14603e-23)
(0.973325 0.00440059 0)
(0.970631 0.00567742 0)
(0.969912 0.00872095 1.16884e-20)
(0.973234 0.0132848 -1.17462e-20)
(0.979014 0.0150189 6.71061e-21)
(0.982066 0.0126684 1.00904e-21)
(0.981419 0.00520732 -6.91475e-21)
(0.980498 -0.00612369 7.32998e-21)
(0.981737 -0.0146063 -6.42928e-21)
(0.985296 -0.020778 -8.10797e-21)
(0.990296 -0.0241654 8.6091e-21)
(0.996181 -0.0270894 0)
(1.00676 -0.0334751 4.03696e-21)
(1.0236 -0.0405571 -7.36415e-21)
(1.04365 -0.0460369 1.83992e-21)
(1.06587 -0.0491992 2.08353e-22)
(1.09091 -0.0495804 6.99669e-22)
(1.11404 -0.0477607 5.30772e-22)
(1.13818 -0.0430057 2.47008e-22)
(1.15897 -0.0371623 -6.22132e-24)
(1.17241 -0.0292986 -2.36918e-22)
(1.18081 -0.0236348 3.42555e-22)
(1.18618 -0.0106924 -3.41983e-22)
(1.18053 -0.0019699 -7.52651e-22)
(1.16433 0.00969169 7.54183e-22)
(1.14217 0.0181535 8.96115e-23)
(1.11799 0.0246141 0)
(1.09288 0.0252189 6.91088e-22)
(1.06925 0.0254387 -5.73981e-22)
(1.04916 0.0215604 -6.72896e-23)
(1.03241 0.0196863 8.7778e-23)
(1.02043 0.0188169 -2.31341e-22)
(1.0115 0.0180839 1.74805e-22)
(1.00445 0.01797 -1.9817e-24)
(1.00019 0.0171233 0)
(0.994727 0.0145163 7.60942e-22)
(0.992333 0.0153931 -6.89984e-23)
(0.98712 0.0156079 -7.23261e-22)
(0.97591 0.00254559 9.06441e-21)
(0.975125 0.0036716 -7.03394e-22)
(0.972837 0.00517049 1.1894e-20)
(0.970858 0.00693008 -1.1996e-20)
(0.971391 0.00953491 7.90522e-22)
(0.975949 0.0131572 -8.22737e-22)
(0.981749 0.0138141 0)
(0.98447 0.0110549 5.36786e-21)
(0.984012 0.00295772 -7.17501e-21)
(0.983412 -0.00959957 0)
(0.986706 -0.0197159 5.85623e-21)
(0.992302 -0.0277134 -6.83392e-21)
(1.00159 -0.0302005 1.28482e-24)
(1.01672 -0.027709 0)
(1.03173 -0.0238087 3.64791e-21)
(1.04546 -0.0227118 -3.21096e-21)
(1.06027 -0.0235793 -1.53101e-21)
(1.07742 -0.0258824 2.12856e-22)
(1.09732 -0.0286063 8.60431e-22)
(1.11877 -0.0279528 5.66177e-22)
(1.14143 -0.022558 0)
(1.15873 -0.0182341 1.90973e-22)
(1.17595 -0.0080239 -2.24018e-22)
(1.18618 0.00869156 0)
(1.18839 0.021481 7.2047e-23)
(1.18103 0.0325213 0)
(1.16558 0.0396612 5.95172e-22)
(1.14522 0.0442743 -2.29043e-21)
(1.12199 0.0455945 1.5561e-21)
(1.09752 0.0440441 -2.32127e-22)
(1.07393 0.0403483 -3.62838e-22)
(1.05282 0.0353622 6.50111e-22)
(1.03508 0.029571 -1.75648e-22)
(1.01992 0.0217465 -2.31347e-22)
(1.00792 0.0122084 9.75038e-22)
(0.995189 0.00581138 -7.76842e-22)
(0.986646 0.00131552 0)
(0.981113 -0.00275254 1.02156e-21)
(0.97693 -0.00795455 5.9651e-23)
(0.977352 -0.0110695 -1.05412e-21)
(0.975526 0.00312515 0)
(0.974765 0.00419439 1.41598e-21)
(0.97255 0.00596498 0)
(0.971476 0.00775864 1.60262e-21)
(0.972823 0.00994618 1.17517e-20)
(0.978337 0.0126398 -6.59559e-21)
(0.983933 0.0123454 -7.04108e-21)
(0.985565 0.00925844 9.09413e-22)
(0.98514 -0.000766332 0)
(0.986241 -0.0144836 0)
(0.991027 -0.0226706 9.05341e-21)
(0.997943 -0.0271545 -9.09999e-21)
(1.00623 -0.0285386 -1.52416e-21)
(1.01429 -0.0297625 -5.0081e-22)
(1.02289 -0.0346865 3.75711e-21)
(1.03554 -0.041644 -3.31013e-21)
(1.05275 -0.047509 -1.57572e-21)
(1.07261 -0.0521181 2.20455e-22)
(1.09617 -0.0530872 8.06699e-22)
(1.11845 -0.0518162 5.52052e-22)
(1.1415 -0.0467288 2.11882e-23)
(1.16252 -0.0396622 2.82245e-22)
(1.1764 -0.0296392 -2.72537e-22)
(1.1839 -0.0232656 1.44379e-23)
(1.18994 -0.00876565 -1.49034e-22)
(1.18816 0.00414664 0)
(1.17329 0.0181194 9.86159e-22)
(1.15337 0.0292281 -6.52126e-22)
(1.12938 0.0377691 -1.69413e-22)
(1.10501 0.0404692 2.69934e-22)
(1.08102 0.0400695 -8.32332e-23)
(1.05907 0.0349139 -2.92151e-22)
(1.04044 0.0304148 2.77191e-22)
(1.02687 0.0275176 2.24756e-23)
(1.01588 0.0262863 3.23506e-23)
(1.00743 0.0247021 -7.40799e-22)
(1.0025 0.0237991 6.54253e-22)
(0.996376 0.0189509 8.92961e-22)
(0.993362 0.0176964 -8.84363e-22)
(0.987324 0.0153929 0)
(0.975105 0.00369581 0)
(0.974406 0.00472172 0)
(0.972423 0.00665711 1.45333e-20)
(0.972213 0.0082692 -2.81076e-20)
(0.974399 0.00996013 1.35198e-20)
(0.980516 0.0117732 0)
(0.984978 0.0109567 7.49177e-21)
(0.986721 0.00684049 1.78781e-22)
(0.987736 -0.00518153 -6.762e-21)
(0.987931 -0.0175101 0)
(0.990922 -0.0255582 -1.04355e-21)
(0.996874 -0.0320035 1.05385e-21)
(1.00734 -0.0347068 5.19709e-21)
(1.02235 -0.0349808 -3.65811e-21)
(1.03734 -0.0343709 0)
(1.05084 -0.036306 3.58314e-21)
(1.06593 -0.0387394 -5.62832e-21)
(1.08306 -0.0417419 3.18611e-21)
(1.10266 -0.0439868 -1.38674e-21)
(1.12282 -0.0436449 -2.2983e-25)
(1.146 -0.0370392 -3.16012e-22)
(1.16342 -0.0313578 2.72584e-22)
(1.17934 -0.0207461 -1.44097e-23)
(1.19192 -0.00266633 -1.48575e-23)
(1.19517 0.0159712 7.71321e-23)
(1.19093 0.0297595 0)
(1.17696 0.0406817 0)
(1.15787 0.0483737 -2.25828e-22)
(1.13553 0.0527616 1.43214e-21)
(1.11027 0.0533761 -1.57514e-21)
(1.08578 0.0515872 0)
(1.06327 0.046808 4.31842e-22)
(1.04379 0.0409684 -3.77833e-22)
(1.02792 0.0334113 -1.50558e-22)
(1.01462 0.0231548 1.41644e-22)
(1.00278 0.0139959 -7.47897e-22)
(0.993977 0.00807978 8.25213e-22)
(0.986293 0.00436493 0)
(0.980759 -0.00146112 0)
(0.979707 -0.00627446 1.23467e-22)
(0.974858 0.00419004 -2.42975e-22)
(0.974168 0.0051894 1.38326e-20)
(0.972561 0.00717982 -1.64488e-21)
(0.973039 0.0083654 -1.74079e-21)
(0.975998 0.00969398 -1.45686e-20)
(0.982153 0.0107482 2.23033e-20)
(0.986122 0.00923953 -7.60445e-21)
(0.98763 0.00369392 8.01084e-21)
(0.988185 -0.00949027 -1.01297e-20)
(0.987633 -0.0219214 -9.56635e-21)
(0.991281 -0.0296628 1.82793e-20)
(1.00037 -0.0345362 -1.84434e-20)
(1.01122 -0.0356215 8.70405e-21)
(1.02437 -0.0358777 0)
(1.03677 -0.038958 0)
(1.04911 -0.045829 -4.66014e-21)
(1.06491 -0.0516709 2.9237e-21)
(1.08225 -0.0573483 1.65702e-21)
(1.10337 -0.0588745 6.57874e-22)
(1.12381 -0.0581262 -6.0986e-22)
(1.14573 -0.053036 2.22975e-23)
(1.16722 -0.0450418 2.6254e-22)
(1.18219 -0.0324406 -2.48132e-22)
(1.19071 -0.0236285 4.47975e-22)
(1.19567 -0.00991418 -4.47586e-22)
(1.19686 0.00739843 0)
(1.18464 0.0241563 0)
(1.16604 0.0381405 -2.71778e-22)
(1.14307 0.0487091 1.64626e-21)
(1.11865 0.0533211 -1.643e-21)
(1.09422 0.0541494 -1.00195e-21)
(1.07199 0.0493646 2.95458e-22)
(1.05041 0.0433109 4.80429e-22)
(1.03465 0.0373103 -3.65166e-23)
(1.02162 0.0354328 3.86827e-22)
(1.01152 0.0320817 -2.81046e-22)
(1.0056 0.0311832 -9.12663e-23)
(0.998086 0.0257116 8.85247e-22)
(0.994894 0.0224487 -7.53929e-22)
(0.987955 0.0169172 -2.66042e-25)
(0.97455 0.00464799 -1.2551e-20)
(0.973833 0.00562796 2.45354e-20)
(0.972927 0.00738257 5.04902e-22)
(0.973813 0.00810124 -2.87178e-20)
(0.977626 0.00910917 1.84959e-20)
(0.98343 0.00936892 0)
(0.986764 0.0071488 0)
(0.987974 -0.000256357 2.07727e-21)
(0.988501 -0.0142896 1.06215e-21)
(0.987882 -0.0255585 -6.64686e-21)
(0.992051 -0.0321852 8.89842e-21)
(0.999722 -0.0375304 -8.98498e-21)
(1.00909 -0.040284 1.34746e-20)
(1.02421 -0.0427226 -3.35828e-21)
(1.04236 -0.0441475 4.11443e-21)
(1.05764 -0.0477125 -7.44071e-21)
(1.07353 -0.0510842 1.65603e-21)
(1.09081 -0.0551162 4.50056e-23)
(1.11009 -0.0567249 9.54022e-22)
(1.1284 -0.0570765 5.94085e-22)
(1.15086 -0.0504206 0)
(1.16985 -0.0429409 2.14752e-22)
(1.18448 -0.0322425 -2.66954e-22)
(1.19788 -0.0149192 0)
(1.2044 0.00749681 0)
(1.20225 0.0253322 1.12279e-21)
(1.19035 0.0406665 -2.29435e-21)
(1.17299 0.0517745 1.75464e-21)
(1.15061 0.060502 -2.74755e-22)
(1.12507 0.0644953 0)
(1.09987 0.0646868 1.19681e-21)
(1.07622 0.0606588 -1.04241e-21)
(1.05482 0.0548188 1.29106e-22)
(1.03717 0.0477974 0)
(1.02233 0.0374478 0)
(1.00999 0.0259625 -8.08923e-22)
(1.00025 0.0179535 8.28078e-22)
(0.991758 0.0127165 8.87975e-22)
(0.986202 0.00800432 -1.22817e-21)
(0.982287 0.000733296 -1.29712e-22)
(0.974452 0.00497698 -1.31347e-20)
(0.973764 0.00583864 1.51435e-20)
(0.973449 0.00717365 0)
(0.974646 0.00763103 3.7354e-21)
(0.979048 0.00824859 -3.90607e-21)
(0.98416 0.0077178 1.0263e-20)
(0.986862 0.00462787 -1.03557e-20)
(0.987942 -0.0050151 3.22256e-23)
(0.988185 -0.0187823 -9.00365e-21)
(0.988344 -0.0287556 1.59864e-20)
(0.990028 -0.0357959 -6.92571e-21)
(0.998107 -0.0415142 1.04939e-20)
(1.00991 -0.044326 -4.7667e-21)
(1.02619 -0.0457073 -5.76308e-21)
(1.04431 -0.0470558 0)
(1.05955 -0.0534069 0)
(1.0757 -0.0587886 0)
(1.09276 -0.0649645 -1.5101e-21)
(1.11239 -0.0668004 1.16722e-21)
(1.13161 -0.0667 0)
(1.15133 -0.0615511 2.92932e-22)
(1.17302 -0.0537834 -2.42484e-23)
(1.18964 -0.0388855 -2.77794e-22)
(1.20016 -0.0263798 2.35308e-23)
(1.20516 -0.0117114 0)
(1.20722 0.00791068 -1.36273e-21)
(1.19873 0.0277704 -9.67615e-23)
(1.18094 0.0450124 1.32443e-21)
(1.15973 0.058163 -3.05604e-23)
(1.13529 0.0645576 0)
(1.1088 0.0673462 1.28394e-21)
(1.08573 0.0645355 -1.27488e-21)
(1.06238 0.0589735 -3.0628e-22)
(1.04349 0.0504008 4.42588e-23)
(1.0286 0.0465275 4.25574e-23)
(1.01685 0.0413186 -1.5386e-22)
(1.00906 0.0396408 0)
(1.00019 0.0337932 9.39168e-22)
(0.996954 0.0297815 -8.17539e-22)
(0.989505 0.0216928 -1.28557e-22)
(0.974181 0.00512908 0)
(0.973655 0.00580847 1.45911e-20)
(0.973786 0.00662854 5.08428e-22)
(0.97543 0.00690868 -1.93323e-20)
(0.980233 0.00706243 1.65222e-20)
(0.984497 0.00585207 -1.67449e-20)
(0.986718 0.00148672 2.16898e-21)
(0.987748 -0.0104223 6.88093e-21)
(0.987687 -0.0226896 -1.15685e-20)
(0.987481 -0.0325079 1.1985e-20)
(0.989354 -0.0390014 -1.93318e-20)
(0.997805 -0.0447845 8.53932e-21)
(1.00848 -0.0480358 4.7743e-21)
(1.02248 -0.0518032 -4.79802e-21)
(1.04204 -0.05484 -5.53819e-21)
(1.06236 -0.0596369 8.48193e-21)
(1.08182 -0.0629818 -5.89573e-21)
(1.10096 -0.0672866 1.60942e-21)
(1.12088 -0.0674144 1.77138e-22)
(1.13843 -0.0681981 -3.42934e-23)
(1.15815 -0.062714 3.00199e-22)
(1.17817 -0.053747 -2.45277e-22)
(1.19228 -0.0426656 -1.29255e-24)
(1.20624 -0.0267652 6.71761e-22)
(1.21444 -0.00305715 -6.21096e-22)
(1.21408 0.0184077 4.71213e-22)
(1.20688 0.0384574 3.71569e-22)
(1.18965 0.0540983 -3.51817e-22)
(1.16814 0.0676406 2.85853e-21)
(1.14286 0.0758385 -4.42685e-22)
(1.11632 0.078678 -2.06365e-21)
(1.09143 0.0761636 -1.04967e-21)
(1.06869 0.0702105 1.22009e-21)
(1.04892 0.0639689 2.07325e-22)
(1.03199 0.0546802 -2.91894e-22)
(1.01817 0.0417889 0)
(1.00709 0.0317773 0)
(0.997005 0.023768 1.05166e-21)
(0.991712 0.0198229 -8.24389e-22)
(0.985177 0.00998675 2.60148e-22)
(0.97402 0.00496002 -2.63639e-22)
(0.97374 0.00543679 1.28357e-20)
(0.9741 0.00587604 1.98601e-21)
(0.976083 0.00593859 2.03871e-21)
(0.980554 0.0055595 2.16811e-20)
(0.983949 0.00358253 -1.07702e-20)
(0.986017 -0.0026876 -1.13732e-20)
(0.986747 -0.0155224 0)
(0.986292 -0.0271676 2.42099e-21)
(0.986848 -0.0357148 7.51862e-21)
(0.988323 -0.0418606 -1.26038e-20)
(0.994808 -0.048682 -1.00682e-20)
(1.00431 -0.0534409 1.13888e-20)
(1.02032 -0.0580091 0)
(1.04247 -0.0594954 5.73307e-21)
(1.06427 -0.0648381 -4.57251e-21)
(1.08456 -0.0685356 -1.87743e-21)
(1.10465 -0.074504 7.15249e-22)
(1.12406 -0.0762286 2.25402e-21)
(1.14499 -0.0766203 -6.12036e-22)
(1.16139 -0.0711052 -2.45381e-23)
(1.18072 -0.0644775 0)
(1.1992 -0.0490573 -1.33511e-23)
(1.21135 -0.0325035 -4.95053e-23)
(1.21755 -0.0155445 1.20896e-22)
(1.21943 0.00488611 -1.79138e-21)
(1.21405 0.0286185 2.69018e-21)
(1.19922 0.0488248 -1.6149e-21)
(1.17834 0.0653139 0)
(1.15422 0.0753392 0)
(1.12646 0.0805154 1.89148e-21)
(1.10117 0.0800869 -1.87693e-21)
(1.07671 0.0771789 0)
(1.05518 0.0679459 2.9794e-22)
(1.03769 0.0616256 1.51707e-22)
(1.02396 0.0536142 -4.0906e-22)
(1.014 0.0507024 2.19335e-22)
(1.00345 0.0430409 6.81975e-22)
(0.998612 0.0397125 -7.72156e-22)
(0.99228 0.0297125 -2.21004e-24)
(0.973494 0.00458815 -1.51447e-20)
(0.97348 0.0046602 1.53473e-20)
(0.973913 0.00492346 -2.0335e-21)
(0.976014 0.00478039 0)
(0.979839 0.00379893 -2.04954e-20)
(0.982872 0.000729139 2.78251e-20)
(0.985237 -0.00773023 -7.12679e-21)
(0.985428 -0.0211203 0)
(0.985355 -0.0308629 2.31469e-20)
(0.986636 -0.0388604 -1.16027e-20)
(0.988258 -0.0450468 -1.0545e-20)
(0.993843 -0.0528789 -1.0491e-20)
(1.00406 -0.0582519 1.44111e-20)
(1.01759 -0.0635497 -3.90655e-21)
(1.03816 -0.0674716 5.95332e-21)
(1.06165 -0.0736023 -5.31792e-21)
(1.08404 -0.0764283 -1.94107e-21)
(1.10797 -0.0815547 2.90243e-22)
(1.13143 -0.0795849 1.17896e-21)
(1.15276 -0.0791955 6.30185e-22)
(1.17141 -0.0738931 5.05296e-23)
(1.19039 -0.0646758 2.67309e-22)
(1.20603 -0.0522779 -2.77344e-22)
(1.21799 -0.0379127 7.50338e-22)
(1.22637 -0.0140866 -8.73208e-22)
(1.22799 0.0100362 1.62361e-21)
(1.2228 0.0336825 -1.15973e-21)
(1.20951 0.0553326 0)
(1.18944 0.0729302 3.86504e-21)
(1.16494 0.0850604 -8.90752e-22)
(1.1376 0.0922991 1.17648e-22)
(1.11039 0.0925619 -2.27756e-21)
(1.08442 0.0874783 0)
(1.06248 0.0806776 4.38573e-22)
(1.04357 0.0741388 -5.32772e-22)
(1.02794 0.0612546 -3.41966e-23)
(1.01529 0.0507076 -3.144e-23)
(1.00365 0.0383603 0)
(0.996512 0.0347162 0)
(0.988904 0.0217314 -2.57518e-22)
(0.973474 0.00392866 -1.61484e-20)
(0.973564 0.00369203 1.63472e-20)
(0.974084 0.00390121 0)
(0.976382 0.00346252 0)
(0.979752 0.00172142 0)
(0.982656 -0.00307843 0)
(0.98483 -0.0138157 0)
(0.984124 -0.0258797 0)
(0.984447 -0.034601 -1.61514e-20)
(0.986303 -0.0424259 1.9109e-20)
(0.988661 -0.0486108 1.10121e-20)
(0.994429 -0.057106 -1.52804e-21)
(1.00343 -0.0628631 -5.64068e-21)
(1.01462 -0.0710226 -6.74105e-21)
(1.03441 -0.0755578 -6.18069e-21)
(1.05889 -0.0806416 1.00742e-21)
(1.08435 -0.0829221 2.52266e-21)
(1.10941 -0.0867791 6.89665e-23)
(1.13228 -0.0874247 6.38721e-22)
(1.15759 -0.0876724 6.87271e-22)
(1.17758 -0.0803901 -3.38916e-25)
(1.19462 -0.0750353 3.20415e-22)
(1.21343 -0.0611897 -1.77038e-22)
(1.2262 -0.0418899 -2.44173e-23)
(1.23315 -0.0221002 0)
(1.23591 -0.00100159 -4.17392e-22)
(1.23127 0.0252976 -4.71373e-22)
(1.21984 0.0490222 0)
(1.20045 0.0699943 3.43971e-21)
(1.17643 0.0848663 -3.46277e-21)
(1.14845 0.0946395 -7.26926e-22)
(1.12142 0.0966434 0)
(1.09406 0.0965887 0)
(1.07025 0.0890515 8.70284e-22)
(1.04977 0.0816637 -8.61677e-22)
(1.03322 0.0699876 -4.67279e-23)
(1.02077 0.0659986 3.58141e-23)
(1.00946 0.0558257 5.68429e-22)
(1.00154 0.0524976 -6.15806e-22)
(0.99466 0.0402823 1.27695e-22)
(0.972686 0.00284811 0)
(0.972887 0.00216925 0)
(0.973674 0.00236588 0)
(0.976449 0.00152955 0)
(0.97903 -0.00130501 0)
(0.981025 -0.00874879 1.30402e-20)
(0.983346 -0.0190565 -1.05642e-20)
(0.981471 -0.0305504 -1.10824e-20)
(0.980755 -0.038755 2.53217e-20)
(0.984232 -0.0462896 -5.65222e-21)
(0.988305 -0.0520645 -1.30441e-20)
(0.992591 -0.0614716 2.89285e-21)
(1.00087 -0.0691467 1.43345e-21)
(1.01336 -0.0770211 -1.39308e-21)
(1.03046 -0.082333 5.10132e-21)
(1.05328 -0.0897386 -5.74037e-21)
(1.07951 -0.0913511 -2.0816e-21)
(1.10599 -0.0975973 2.08717e-21)
(1.13322 -0.0955986 -3.07689e-22)
(1.15974 -0.0935285 7.46812e-22)
(1.18363 -0.0868576 -4.47911e-25)
(1.20449 -0.0773615 -5.76867e-23)
(1.22242 -0.0629343 1.77846e-23)
(1.23519 -0.0479511 9.30777e-22)
(1.24459 -0.0252401 -9.21271e-22)
(1.24852 -0.000603224 8.93506e-22)
(1.24432 0.026258 -2.27197e-21)
(1.2344 0.0521661 2.25871e-21)
(1.2156 0.0756378 -6.21078e-22)
(1.19084 0.0921556 0)
(1.16239 0.103648 3.37441e-21)
(1.13461 0.108531 -5.95425e-21)
(1.10557 0.108052 2.58486e-21)
(1.08002 0.0999385 0)
(1.05793 0.0952464 0)
(1.03972 0.0834248 6.04516e-22)
(1.02446 0.0739735 -5.60199e-22)
(1.01171 0.0580865 -5.74818e-22)
(1.00097 0.0539725 5.94562e-22)
(0.993515 0.0374893 1.09873e-22)
(0.972633 0.00187658 0)
(0.973337 0.000756068 0)
(0.974385 0.000103812 1.97464e-20)
(0.977308 -0.0013611 -2.25508e-20)
(0.98042 -0.00580388 2.13439e-20)
(0.980807 -0.0144433 -2.70547e-20)
(0.981579 -0.0241283 -1.42146e-20)
(0.979556 -0.0349233 -3.11689e-21)
(0.977422 -0.0426315 1.47915e-20)
(0.980795 -0.0500924 0)
(0.986403 -0.0561979 3.0439e-21)
(0.990434 -0.0671937 -1.50412e-20)
(0.998929 -0.0741377 1.06028e-20)
(1.01084 -0.0837457 1.44775e-21)
(1.0278 -0.0903217 1.38234e-21)
(1.0465 -0.0986778 1.21155e-25)
(1.07197 -0.102201 -1.5793e-21)
(1.10178 -0.104818 3.36504e-22)
(1.13058 -0.102799 8.93683e-22)
(1.15849 -0.102353 7.29306e-22)
(1.18641 -0.0928849 -2.73045e-23)
(1.20923 -0.0848243 2.55208e-22)
(1.22887 -0.0727846 -2.54723e-22)
(1.24519 -0.0551701 -8.12596e-23)
(1.25519 -0.0320871 0)
(1.25961 -0.00955098 -4.78585e-22)
(1.25601 0.0184251 2.54209e-21)
(1.24752 0.0458125 -7.9116e-21)
(1.23023 0.0720184 7.13428e-22)
(1.20738 0.0919726 9.37005e-21)
(1.1773 0.107649 -8.85859e-21)
(1.14886 0.113958 7.29352e-21)
(1.11873 0.116934 -3.98867e-21)
(1.09237 0.111471 0)
(1.06678 0.107169 0)
(1.04755 0.0929896 0)
(1.0298 0.086514 -5.87577e-23)
(1.0172 0.0733646 3.06765e-22)
(1.00535 0.0702358 -2.73451e-22)
(0.997473 0.0556395 -2.06583e-22)
(0.971726 0.000224886 -1.90887e-20)
(0.972533 -0.00141686 1.95367e-20)
(0.973587 -0.00230768 0)
(0.975499 -0.00485013 2.65663e-21)
(0.978896 -0.0101517 0)
(0.978779 -0.0192224 5.78102e-21)
(0.977961 -0.0286578 -2.41076e-20)
(0.976558 -0.0388159 1.81111e-20)
(0.974903 -0.0460032 -6.38801e-21)
(0.976256 -0.05489 9.4954e-21)
(0.983475 -0.0617681 2.02393e-23)
(0.989861 -0.0719283 1.5794e-20)
(0.997307 -0.080291 -1.26996e-20)
(1.00809 -0.0917184 -1.52295e-21)
(1.02459 -0.0977644 -1.43887e-21)
(1.0436 -0.107823 8.27e-25)
(1.06667 -0.109436 -6.0137e-22)
(1.09334 -0.115502 -1.88886e-21)
(1.12371 -0.113725 2.64357e-21)
(1.15306 -0.111789 -7.51865e-22)
(1.18196 -0.104146 -3.64148e-22)
(1.21044 -0.0942418 5.83991e-22)
(1.23517 -0.0777172 -4.23431e-22)
(1.25443 -0.0611855 1.75907e-22)
(1.26707 -0.0381117 -1.95449e-22)
(1.27458 -0.0130572 -2.99728e-21)
(1.27186 0.0160267 2.42395e-21)
(1.26338 0.0440111 7.81735e-22)
(1.24694 0.0734523 8.17692e-22)
(1.22568 0.0964684 7.06276e-22)
(1.195 0.114298 1.44592e-21)
(1.16497 0.122274 0)
(1.1333 0.129281 8.07064e-22)
(1.10591 0.123816 0)
(1.07761 0.119398 -5.13466e-22)
(1.05702 0.108178 0)
(1.03705 0.102571 2.87605e-22)
(1.02244 0.0834739 2.00288e-23)
(1.00833 0.078811 4.9528e-22)
(0.997629 0.05937 -4.87846e-22)
(0.972099 -0.00167102 1.74176e-20)
(0.973124 -0.00440137 0)
(0.974363 -0.00613478 2.76703e-21)
(0.975845 -0.0105045 -2.59438e-20)
(0.978405 -0.0158978 2.34135e-20)
(0.97867 -0.0250177 -6.13391e-21)
(0.976446 -0.0334863 2.8622e-20)
(0.974606 -0.0431287 -3.22924e-20)
(0.97454 -0.0499712 3.29025e-21)
(0.974455 -0.0605128 3.33964e-21)
(0.98031 -0.0669687 -1.67848e-21)
(0.987938 -0.0786336 -1.67049e-21)
(0.997229 -0.0866983 6.45692e-21)
(1.00675 -0.0993979 -4.91573e-21)
(1.02281 -0.10567 0)
(1.04159 -0.115501 9.88677e-25)
(1.06224 -0.120029 -6.21772e-22)
(1.0869 -0.126085 0)
(1.11582 -0.123264 -7.73377e-22)
(1.14601 -0.121591 7.74167e-22)
(1.17609 -0.113092 2.84547e-23)
(1.20602 -0.103084 0)
(1.23392 -0.0874206 0)
(1.25917 -0.0710775 0)
(1.27643 -0.0467251 4.18587e-22)
(1.28863 -0.0215043 5.83744e-22)
(1.28917 0.00841843 -3.1996e-21)
(1.28292 0.0380442 2.36233e-21)
(1.2656 0.0695343 -1.78979e-21)
(1.24577 0.0953295 9.31841e-22)
(1.215 0.118524 4.51634e-21)
(1.18434 0.129362 -1.25022e-20)
(1.14912 0.138049 4.97807e-21)
(1.12097 0.135172 -2.92827e-21)
(1.09106 0.13499 7.46652e-21)
(1.06828 0.122134 -3.9894e-21)
(1.04503 0.115482 -1.87447e-22)
(1.02882 0.0984201 -6.22484e-22)
(1.01396 0.0951776 6.19663e-22)
(1.00204 0.0766844 -9.08085e-23)
(0.970557 -0.00402299 2.62441e-21)
(0.971277 -0.00724211 -2.82317e-21)
(0.972193 -0.00940365 7.22495e-23)
(0.972659 -0.0145138 2.99431e-21)
(0.973286 -0.020183 0)
(0.973386 -0.0293198 -6.64073e-21)
(0.972482 -0.0367824 1.33394e-20)
(0.969976 -0.047034 1.72838e-20)
(0.971868 -0.0543152 -1.4025e-20)
(0.973594 -0.065295 3.59104e-21)
(0.977594 -0.0733523 0)
(0.984127 -0.0863888 -1.21964e-20)
(0.995846 -0.0936798 2.26244e-20)
(1.00743 -0.107124 -5.16322e-21)
(1.02153 -0.113797 -1.57604e-21)
(1.03978 -0.125693 6.20438e-21)
(1.06117 -0.128889 -4.85316e-21)
(1.08431 -0.134778 0)
(1.11012 -0.133487 0)
(1.13904 -0.13169 0)
(1.16806 -0.123592 -2.82519e-23)
(1.19798 -0.116083 0)
(1.22687 -0.100133 -2.38702e-22)
(1.25722 -0.082946 1.63152e-21)
(1.27965 -0.0584707 -1.61182e-21)
(1.29885 -0.032311 -6.77364e-22)
(1.30572 0.00111957 0)
(1.3053 0.0329222 0)
(1.28898 0.0673323 -9.77123e-23)
(1.26926 0.0948293 -8.99103e-21)
(1.23885 0.122608 -1.44819e-21)
(1.20752 0.137177 6.9509e-21)
(1.16972 0.148788 1.56222e-21)
(1.13831 0.147737 5.11662e-21)
(1.10663 0.149084 -3.82337e-21)
(1.08111 0.136743 -6.65156e-22)
(1.0567 0.134715 0)
(1.037 0.116102 1.55294e-22)
(1.02057 0.111475 -3.10886e-22)
(1.00623 0.0894022 3.64106e-22)
(0.970589 -0.00770782 -2.54916e-20)
(0.971218 -0.0126332 2.93234e-21)
(0.972228 -0.0153716 -3.06388e-21)
(0.972036 -0.0209964 3.28324e-21)
(0.971334 -0.0265566 -3.41219e-21)
(0.970553 -0.0359122 2.46576e-20)
(0.970827 -0.0421317 -2.84814e-20)
(0.9697 -0.0528256 0)
(0.971397 -0.060081 3.78042e-21)
(0.973994 -0.0723684 1.13067e-20)
(0.979309 -0.079929 -1.52148e-20)
(0.98358 -0.0941748 -1.66281e-20)
(0.993517 -0.102087 2.02154e-20)
(1.00725 -0.116026 -7.19359e-21)
(1.02237 -0.123023 3.40124e-27)
(1.04038 -0.134575 0)
(1.06083 -0.138129 -3.1616e-21)
(1.08431 -0.14414 9.93212e-22)
(1.10851 -0.143215 2.08385e-21)
(1.13535 -0.142944 0)
(1.16174 -0.134819 2.96026e-23)
(1.19189 -0.12747 2.15883e-22)
(1.21855 -0.112029 -2.06293e-22)
(1.2496 -0.0966107 -1.30716e-22)
(1.27486 -0.0719564 0)
(1.30128 -0.0460155 1.44684e-21)
(1.31473 -0.0115153 0)
(1.3237 0.0226256 0)
(1.31428 0.0618083 2.36035e-21)
(1.29795 0.0932066 0)
(1.26639 0.124728 2.16958e-21)
(1.23458 0.142537 -5.86378e-21)
(1.19537 0.160127 4.1053e-21)
(1.16068 0.160998 -1.29647e-21)
(1.12382 0.163506 7.61088e-21)
(1.09644 0.153322 -6.81248e-21)
(1.06963 0.152119 0)
(1.04857 0.132874 -4.21314e-22)
(1.02888 0.130443 1.27855e-21)
(1.01345 0.108151 -1.03855e-21)
(0.968067 -0.0107923 -2.13021e-20)
(0.967329 -0.016017 0)
(0.96734 -0.0187317 -3.37496e-21)
(0.96741 -0.0244327 2.11283e-20)
(0.965471 -0.0300414 -2.49663e-20)
(0.96384 -0.0402579 0)
(0.96418 -0.046113 3.8908e-21)
(0.964683 -0.0576547 -3.9773e-21)
(0.968041 -0.0653019 -3.95278e-21)
(0.970912 -0.0794244 -4.06179e-21)